{
	 "smiles": "COC1=CC=CC=C1CCC(O)=O", 
	 "Tm": 360.15, 
	 "num_atms": 25, 
	 "gaussian": { 
		 "optdone": 1, 
		 "sigma_profile": "yes", 
		 "theory": "DFT", 
		 "functional": "B3LYP", 
		 "basiset": "6-31G**", 
		 "properties": { 
			 "R2extent": 2484.6705, 
			 "electric_dipole_moment_norm": 1.54458953447, 
			 "electric_quadrupole_moment_norm": 10.6136004965, 
			 "total_energy": -613.976191604, 
			 "HOMO_LUMO_gap": 0.21502, 
			 "cosmo_polarized_energy": -12.38, 
			 "cosmo_cavitation_energy": 28.6, 
			 "cosmo_dispersion_energy": -19.77, 
			 "cosmo_repulsion_energy": 1.56, 
			 "cosmo_total_nonelectrostatic_energy": 10.39, 
			 "SMD_solvation_energy": 6.38 
		},
		"coords": [
			{
				"x": 0.9419275488,
				"y": 1.0038847412,
				"z": 2.2531707974,
				"element": "C" 
			},
			{
				"x": 0.2813801246,
				"y": 0.1111908887,
				"z": 1.371314907,
				"element": "O" 
			},
			{
				"x": 1.0354905257,
				"y": -0.7797126975,
				"z": 0.6565817825,
				"element": "C" 
			},
			{
				"x": 2.4088836516,
				"y": -0.964814247,
				"z": 0.8427280703,
				"element": "C" 
			},
			{
				"x": 3.0922419362,
				"y": -1.9121262482,
				"z": 0.0752868486,
				"element": "C" 
			},
			{
				"x": 2.413464627,
				"y": -2.6749876597,
				"z": -0.8704680471,
				"element": "C" 
			},
			{
				"x": 1.0410433153,
				"y": -2.4791069851,
				"z": -1.0471114999,
				"element": "C" 
			},
			{
				"x": 0.3300883896,
				"y": -1.5366528601,
				"z": -0.3022949921,
				"element": "C" 
			},
			{
				"x": -1.1498665289,
				"y": -1.3196802401,
				"z": -0.5296757555,
				"element": "C" 
			},
			{
				"x": -1.4785101376,
				"y": -0.1695356029,
				"z": -1.5214017383,
				"element": "C" 
			},
			{
				"x": -1.2150052068,
				"y": 1.2116492781,
				"z": -0.9638682046,
				"element": "C" 
			},
			{
				"x": -2.1822286047,
				"y": 1.5871611298,
				"z": -0.0871719708,
				"element": "O" 
			},
			{
				"x": -0.282086121,
				"y": 1.9312355701,
				"z": -1.2456063975,
				"element": "O" 
			},
			{
				"x": 1.443167137,
				"y": 0.4707483004,
				"z": 3.0711764923,
				"element": "H" 
			},
			{
				"x": 1.6739508485,
				"y": 1.6234909871,
				"z": 1.7209245402,
				"element": "H" 
			},
			{
				"x": 0.1630511628,
				"y": 1.6433838624,
				"z": 2.6721081173,
				"element": "H" 
			},
			{
				"x": 2.9508552946,
				"y": -0.3798987334,
				"z": 1.5762590693,
				"element": "H" 
			},
			{
				"x": 4.1593366432,
				"y": -2.0478840273,
				"z": 0.2266650747,
				"element": "H" 
			},
			{
				"x": 2.9408331403,
				"y": -3.4147425466,
				"z": -1.4646871767,
				"element": "H" 
			},
			{
				"x": 0.5035125157,
				"y": -3.0723764237,
				"z": -1.7835718952,
				"element": "H" 
			},
			{
				"x": -1.577375328,
				"y": -2.2381846581,
				"z": -0.9453265513,
				"element": "H" 
			},
			{
				"x": -1.659559656,
				"y": -1.1243753993,
				"z": 0.4179415142,
				"element": "H" 
			},
			{
				"x": -0.8830821859,
				"y": -0.2765696904,
				"z": -2.4306716887,
				"element": "H" 
			},
			{
				"x": -2.5400147446,
				"y": -0.2299558784,
				"z": -1.78459192,
				"element": "H" 
			},
			{
				"x": -1.9195983473,
				"y": 2.46535914,
				"z": 0.234390624,
				"element": "H" 
			}
		],
		 "valence_orbital": [ 
			{
				"type": "occ",
				"energy": -0.31569,
				"method": "rhf"
			},
			{
				"type": "occ",
				"energy": -0.30693,
				"method": "rhf"
			},
			{
				"type": "occ",
				"energy": -0.26324,
				"method": "rhf"
			},
			{
				"type": "occ",
				"energy": -0.24269,
				"method": "rhf"
			},
			{
				"type": "occ",
				"energy": -0.21507,
				"method": "rhf"
			},
			{
				"type": "unocc",
				"energy": -5e-05,
				"method": "rhf"
			},
			{
				"type": "unocc",
				"energy": 0.01363,
				"method": "rhf"
			},
			{
				"type": "unocc",
				"energy": 0.01904,
				"method": "rhf"
			},
			{
				"type": "unocc",
				"energy": 0.07439,
				"method": "rhf"
			},
			{
				"type": "unocc",
				"energy": 0.09469,
				"method": "rhf"
			}
		],
		"cosmo_sigma_profile": { 
			"-0.025": 0.0,
			"-0.024": 0.0,
			"-0.023": 0.0,
			"-0.022": 0.0,
			"-0.021": 0.0,
			"-0.02": 0.0,
			"-0.019": 0.0,
			"-0.018": 0.286178074345,
			"-0.017": 0.753450363033,
			"-0.016": 0.643827529747,
			"-0.015": 1.19832713601,
			"-0.014": 0.591802453694,
			"-0.013": 0.452280359243,
			"-0.012": 0.554570615464,
			"-0.011": 0.87236728305,
			"-0.01": 0.870310037651,
			"-0.009": 0.226436119278,
			"-0.008": 0.256638999772,
			"-0.007": 1.15360423885,
			"-0.006": 8.21041016416,
			"-0.005": 23.2663288194,
			"-0.004": 25.1290800941,
			"-0.003": 25.4335073723,
			"-0.002": 19.4225466234,
			"-0.001": 13.2303123878,
			"0.0": 11.2921212986,
			"0.001": 8.89678614048,
			"0.002": 8.72990018951,
			"0.003": 11.4065007604,
			"0.004": 10.9138403309,
			"0.005": 12.7270424571,
			"0.006": 13.8303317395,
			"0.007": 5.52317671033,
			"0.008": 4.22875394158,
			"0.009": 3.87695514029,
			"0.01": 2.30308557032,
			"0.011": 2.57778868555,
			"0.012": 4.59364717819,
			"0.013": 1.97046581268,
			"0.014": 0.142023586217,
			"0.015": 0.0,
			"0.016": 0.0,
			"0.017": 0.0,
			"0.018": 0.0,
			"0.019": 0.0,
			"0.02": 0.0,
			"0.021": 0.0,
			"0.022": 0.0,
			"0.023": 0.0,
			"0.024": 0.0,
			"0.025": 0.0
		}
	}
}
