{
	 "smiles": "CN(C)CCC(C1=CC=C(Br)C=C1)C1=NC=CC=C1", 
	 "Tm": 298.15, 
	 "num_atms": 38, 
	 "gaussian": { 
		 "optdone": 1, 
		 "sigma_profile": "yes", 
		 "theory": "DFT", 
		 "functional": "B3LYP", 
		 "basiset": "6-31G**", 
		 "properties": { 
			 "R2extent": 11874.5741, 
			 "electric_dipole_moment_norm": 2.95802111892, 
			 "electric_quadrupole_moment_norm": 14.6811347644, 
			 "total_energy": -3302.05043144, 
			 "HOMO_LUMO_gap": 0.18427, 
			 "cosmo_polarized_energy": -9.78, 
			 "cosmo_cavitation_energy": 42.63, 
			 "cosmo_dispersion_energy": -28.58, 
			 "cosmo_repulsion_energy": 2.23, 
			 "cosmo_total_nonelectrostatic_energy": 16.28, 
			 "SMD_solvation_energy": 4.56 
		},
		"coords": [
			{
				"x": -1.7732102928,
				"y": 2.0573176923,
				"z": -1.6762180608,
				"element": "C" 
			},
			{
				"x": -1.4551798175,
				"y": 0.6609988452,
				"z": -1.9335873157,
				"element": "N" 
			},
			{
				"x": -1.3044398973,
				"y": 0.4057398956,
				"z": -3.3592334853,
				"element": "C" 
			},
			{
				"x": -2.4057507678,
				"y": -0.255900946,
				"z": -1.3041408341,
				"element": "C" 
			},
			{
				"x": -2.1688084808,
				"y": -0.4646049515,
				"z": 0.1999268032,
				"element": "C" 
			},
			{
				"x": -0.959379679,
				"y": -1.3684454708,
				"z": 0.5283985879,
				"element": "C" 
			},
			{
				"x": -0.9019042789,
				"y": -1.8137129075,
				"z": 1.9909265339,
				"element": "C" 
			},
			{
				"x": -1.5523254019,
				"y": -1.1379647628,
				"z": 3.0302708741,
				"element": "C" 
			},
			{
				"x": -1.4541577101,
				"y": -1.5740404158,
				"z": 4.3547142702,
				"element": "C" 
			},
			{
				"x": -0.6955436653,
				"y": -2.7032075589,
				"z": 4.6444301528,
				"element": "C" 
			},
			{
				"x": -0.55876951,
				"y": -3.3121809592,
				"z": 6.4533503343,
				"element": "Br" 
			},
			{
				"x": -0.0354130663,
				"y": -3.3997835667,
				"z": 3.6322495567,
				"element": "C" 
			},
			{
				"x": -0.1437142209,
				"y": -2.9489682333,
				"z": 2.3191823559,
				"element": "C" 
			},
			{
				"x": 0.3832999615,
				"y": -0.7722103548,
				"z": 0.1067436315,
				"element": "C" 
			},
			{
				"x": 1.05029906,
				"y": -1.4354260418,
				"z": -0.8491760876,
				"element": "N" 
			},
			{
				"x": 2.2372348836,
				"y": -0.9512574145,
				"z": -1.2408954685,
				"element": "C" 
			},
			{
				"x": 2.8209337637,
				"y": 0.1950730551,
				"z": -0.7073361454,
				"element": "C" 
			},
			{
				"x": 2.1329516138,
				"y": 0.8700862849,
				"z": 0.3032952084,
				"element": "C" 
			},
			{
				"x": 0.9015888007,
				"y": 0.3778619159,
				"z": 0.7198426418,
				"element": "C" 
			},
			{
				"x": -1.810882788,
				"y": 2.2514278371,
				"z": -0.6003516121,
				"element": "H" 
			},
			{
				"x": -0.9923074218,
				"y": 2.6977479506,
				"z": -2.098417192,
				"element": "H" 
			},
			{
				"x": -2.7443621698,
				"y": 2.3691235983,
				"z": -2.1100724282,
				"element": "H" 
			},
			{
				"x": -0.9581193483,
				"y": -0.6203663852,
				"z": -3.514622328,
				"element": "H" 
			},
			{
				"x": -0.5501710187,
				"y": 1.0819285906,
				"z": -3.7747745561,
				"element": "H" 
			},
			{
				"x": -2.2393309959,
				"y": 0.5494435002,
				"z": -3.9362100218,
				"element": "H" 
			},
			{
				"x": -2.3181627825,
				"y": -1.2271489788,
				"z": -1.8041721942,
				"element": "H" 
			},
			{
				"x": -3.4503019124,
				"y": 0.0797485483,
				"z": -1.4610659618,
				"element": "H" 
			},
			{
				"x": -3.0666867595,
				"y": -0.9342175845,
				"z": 0.6205001357,
				"element": "H" 
			},
			{
				"x": -2.0719677771,
				"y": 0.5071359656,
				"z": 0.6984609565,
				"element": "H" 
			},
			{
				"x": -1.0598152355,
				"y": -2.2758754249,
				"z": -0.0779296887,
				"element": "H" 
			},
			{
				"x": -2.1545754796,
				"y": -0.2598450267,
				"z": 2.8215650648,
				"element": "H" 
			},
			{
				"x": -1.9656710955,
				"y": -1.0412857029,
				"z": 5.1485177353,
				"element": "H" 
			},
			{
				"x": 0.5509707849,
				"y": -4.2807516697,
				"z": 3.8679540612,
				"element": "H" 
			},
			{
				"x": 0.3750549065,
				"y": -3.4857233213,
				"z": 1.5291144464,
				"element": "H" 
			},
			{
				"x": 2.746944392,
				"y": -1.5161834527,
				"z": -2.0201228829,
				"element": "H" 
			},
			{
				"x": 3.7862240269,
				"y": 0.5402735416,
				"z": -1.0640111659,
				"element": "H" 
			},
			{
				"x": 2.553596589,
				"y": 1.7613517031,
				"z": 0.7608506605,
				"element": "H" 
			},
			{
				"x": 0.3480527905,
				"y": 0.8687422061,
				"z": 1.5145434177,
				"element": "H" 
			}
		],
		 "valence_orbital": [ 
			{
				"type": "occ",
				"energy": -0.25907,
				"method": "rhf"
			},
			{
				"type": "occ",
				"energy": -0.25453,
				"method": "rhf"
			},
			{
				"type": "occ",
				"energy": -0.24879,
				"method": "rhf"
			},
			{
				"type": "occ",
				"energy": -0.23063,
				"method": "rhf"
			},
			{
				"type": "occ",
				"energy": -0.2059,
				"method": "rhf"
			},
			{
				"type": "unocc",
				"energy": -0.02163,
				"method": "rhf"
			},
			{
				"type": "unocc",
				"energy": -0.01343,
				"method": "rhf"
			},
			{
				"type": "unocc",
				"energy": -0.00935,
				"method": "rhf"
			},
			{
				"type": "unocc",
				"energy": 0.00231,
				"method": "rhf"
			},
			{
				"type": "unocc",
				"energy": 0.01203,
				"method": "rhf"
			}
		],
		"cosmo_sigma_profile": { 
			"-0.025": 0.0,
			"-0.024": 0.0,
			"-0.023": 0.0,
			"-0.022": 0.0,
			"-0.021": 0.0,
			"-0.02": 0.0,
			"-0.019": 0.0,
			"-0.018": 0.0,
			"-0.017": 0.0,
			"-0.016": 0.0,
			"-0.015": 0.0,
			"-0.014": 0.0,
			"-0.013": 0.0,
			"-0.012": 0.0,
			"-0.011": 0.0,
			"-0.01": 0.0,
			"-0.009": 0.0,
			"-0.008": 0.0,
			"-0.007": 3.38488661087,
			"-0.006": 13.1225046845,
			"-0.005": 20.9686624817,
			"-0.004": 24.9140945042,
			"-0.003": 31.5473027771,
			"-0.002": 31.4155909914,
			"-0.001": 38.3081532293,
			"0.0": 39.145594572,
			"0.001": 24.1827216732,
			"0.002": 23.7450960118,
			"0.003": 26.8580676951,
			"0.004": 29.3744599121,
			"0.005": 14.6233504663,
			"0.006": 5.26923719498,
			"0.007": 2.27161600439,
			"0.008": 2.5420331978,
			"0.009": 2.00531209457,
			"0.01": 1.4831471554,
			"0.011": 1.36036556329,
			"0.012": 0.648286205472,
			"0.013": 0.63842108313,
			"0.014": 0.919674564646,
			"0.015": 0.448699879434,
			"0.016": 0.522535303396,
			"0.017": 0.178114253882,
			"0.018": 0.0,
			"0.019": 0.0,
			"0.02": 0.0,
			"0.021": 0.0,
			"0.022": 0.0,
			"0.023": 0.0,
			"0.024": 0.0,
			"0.025": 0.0
		}
	}
}
