{
	 "smiles": "COC1=NC(C)=NC(NC(=O)NS(=O)(=O)C2=C(Cl)C=CC=C2)=N1", 
	 "Tm": 449.15, 
	 "num_atms": 35, 
	 "gaussian": { 
		 "optdone": 1, 
		 "sigma_profile": "yes", 
		 "theory": "DFT", 
		 "functional": "B3LYP", 
		 "basiset": "6-31G**", 
		 "properties": { 
			 "R2extent": 8311.4566, 
			 "electric_dipole_moment_norm": 6.94433514816, 
			 "electric_quadrupole_moment_norm": 18.3868955754, 
			 "total_energy": -1897.49309444, 
			 "HOMO_LUMO_gap": 0.21016, 
			 "cosmo_polarized_energy": -21.53, 
			 "cosmo_cavitation_energy": 42.99, 
			 "cosmo_dispersion_energy": -29.42, 
			 "cosmo_repulsion_energy": 2.23, 
			 "cosmo_total_nonelectrostatic_energy": 15.8, 
			 "SMD_solvation_energy": 5.88 
		},
		"coords": [
			{
				"x": -0.9610496705,
				"y": -3.0011498696,
				"z": 0.6024957591,
				"element": "C" 
			},
			{
				"x": -0.369400524,
				"y": -1.710456012,
				"z": 0.8117950338,
				"element": "O" 
			},
			{
				"x": -0.8985872576,
				"y": -0.9360203796,
				"z": 1.7595331827,
				"element": "C" 
			},
			{
				"x": -1.9254360289,
				"y": -1.3902296801,
				"z": 2.4787106169,
				"element": "N" 
			},
			{
				"x": -2.3686519485,
				"y": -0.5363016442,
				"z": 3.4191755409,
				"element": "C" 
			},
			{
				"x": -3.5210918936,
				"y": -0.9901358136,
				"z": 4.2668021702,
				"element": "C" 
			},
			{
				"x": -1.8666296868,
				"y": 0.6780571056,
				"z": 3.641845897,
				"element": "N" 
			},
			{
				"x": -0.8456308788,
				"y": 1.0166770834,
				"z": 2.8290618399,
				"element": "C" 
			},
			{
				"x": -0.3343114446,
				"y": 2.2743460471,
				"z": 3.085830588,
				"element": "N" 
			},
			{
				"x": 0.6929669689,
				"y": 3.0235180181,
				"z": 2.5300537162,
				"element": "C" 
			},
			{
				"x": 1.2682548012,
				"y": 3.8639505148,
				"z": 3.1973964085,
				"element": "O" 
			},
			{
				"x": 1.0781125248,
				"y": 2.8166550421,
				"z": 1.1899682485,
				"element": "N" 
			},
			{
				"x": 0.0212677005,
				"y": 2.7748424004,
				"z": -0.1805545506,
				"element": "S" 
			},
			{
				"x": -1.3432661367,
				"y": 2.5890065542,
				"z": 0.2972937214,
				"element": "O" 
			},
			{
				"x": 0.4039577573,
				"y": 3.9489057734,
				"z": -0.9638997999,
				"element": "O" 
			},
			{
				"x": 0.5989333233,
				"y": 1.3266414801,
				"z": -1.0921213938,
				"element": "C" 
			},
			{
				"x": 0.011547456,
				"y": 1.0043579838,
				"z": -2.3260532465,
				"element": "C" 
			},
			{
				"x": -1.3426246727,
				"y": 1.899579976,
				"z": -2.9758595709,
				"element": "Cl" 
			},
			{
				"x": 0.5070880739,
				"y": -0.0642318293,
				"z": -3.0740065096,
				"element": "C" 
			},
			{
				"x": 1.5883059751,
				"y": -0.805457249,
				"z": -2.600165164,
				"element": "C" 
			},
			{
				"x": 2.1716423596,
				"y": -0.4895733942,
				"z": -1.3742330673,
				"element": "C" 
			},
			{
				"x": 1.6754621643,
				"y": 0.5720482751,
				"z": -0.6210959909,
				"element": "C" 
			},
			{
				"x": -0.300961417,
				"y": 0.2556141005,
				"z": 1.8882917713,
				"element": "N" 
			},
			{
				"x": -2.0128979698,
				"y": -2.906864798,
				"z": 0.3227264884,
				"element": "H" 
			},
			{
				"x": -0.8885044263,
				"y": -3.6149980546,
				"z": 1.5035706842,
				"element": "H" 
			},
			{
				"x": -0.3876757415,
				"y": -3.4458876912,
				"z": -0.2110060214,
				"element": "H" 
			},
			{
				"x": -4.4161230406,
				"y": -1.0952181059,
				"z": 3.6441199775,
				"element": "H" 
			},
			{
				"x": -3.71825956,
				"y": -0.2703728415,
				"z": 5.0612309759,
				"element": "H" 
			},
			{
				"x": -3.3099071107,
				"y": -1.9751747501,
				"z": 4.692904182,
				"element": "H" 
			},
			{
				"x": -0.6714049924,
				"y": 2.6747321227,
				"z": 3.9523794327,
				"element": "H" 
			},
			{
				"x": 1.8181432723,
				"y": 3.4853420764,
				"z": 0.9839554667,
				"element": "H" 
			},
			{
				"x": 0.0421390586,
				"y": -0.3007449857,
				"z": -4.0245203024,
				"element": "H" 
			},
			{
				"x": 1.9701907839,
				"y": -1.6305285483,
				"z": -3.1938460935,
				"element": "H" 
			},
			{
				"x": 3.0074381117,
				"y": -1.0690876092,
				"z": -0.9962128454,
				"element": "H" 
			},
			{
				"x": 2.0987640694,
				"y": 0.8100587023,
				"z": 0.3452328543,
				"element": "H" 
			}
		],
		 "valence_orbital": [ 
			{
				"type": "occ",
				"energy": -0.28396,
				"method": "rhf"
			},
			{
				"type": "occ",
				"energy": -0.28013,
				"method": "rhf"
			},
			{
				"type": "occ",
				"energy": -0.2715,
				"method": "rhf"
			},
			{
				"type": "occ",
				"energy": -0.2708,
				"method": "rhf"
			},
			{
				"type": "occ",
				"energy": -0.26086,
				"method": "rhf"
			},
			{
				"type": "unocc",
				"energy": -0.0507,
				"method": "rhf"
			},
			{
				"type": "unocc",
				"energy": -0.04188,
				"method": "rhf"
			},
			{
				"type": "unocc",
				"energy": -0.02915,
				"method": "rhf"
			},
			{
				"type": "unocc",
				"energy": -0.02769,
				"method": "rhf"
			},
			{
				"type": "unocc",
				"energy": 0.00503,
				"method": "rhf"
			}
		],
		"cosmo_sigma_profile": { 
			"-0.025": 0.0,
			"-0.024": 0.0,
			"-0.023": 0.0,
			"-0.022": 0.0,
			"-0.021": 0.0,
			"-0.02": 0.0,
			"-0.019": 0.0,
			"-0.018": 0.0,
			"-0.017": 0.0127631937555,
			"-0.016": 0.628613856514,
			"-0.015": 1.49995196879,
			"-0.014": 1.68917584551,
			"-0.013": 1.20692457596,
			"-0.012": 1.48813002801,
			"-0.011": 2.19140999272,
			"-0.01": 1.51106009175,
			"-0.009": 1.50627552957,
			"-0.008": 5.83697684699,
			"-0.007": 10.6806120884,
			"-0.006": 19.7177648893,
			"-0.005": 23.4534813528,
			"-0.004": 24.6977845807,
			"-0.003": 28.9994156653,
			"-0.002": 27.4368875012,
			"-0.001": 22.5891658963,
			"0.0": 21.9380272267,
			"0.001": 22.0249232509,
			"0.002": 19.7774235289,
			"0.003": 19.0860755778,
			"0.004": 13.1349567633,
			"0.005": 11.734206776,
			"0.006": 12.8094591802,
			"0.007": 10.4618383728,
			"0.008": 7.08594029451,
			"0.009": 11.6037912324,
			"0.01": 11.6859974947,
			"0.011": 8.07841401649,
			"0.012": 1.58164891554,
			"0.013": 0.0,
			"0.014": 0.0,
			"0.015": 0.0,
			"0.016": 0.0,
			"0.017": 0.0,
			"0.018": 0.0,
			"0.019": 0.0,
			"0.02": 0.0,
			"0.021": 0.0,
			"0.022": 0.0,
			"0.023": 0.0,
			"0.024": 0.0,
			"0.025": 0.0
		}
	}
}
