{
	 "smiles": "CC1=C(C)C2=C(C=C1)C(CC(O)=O)=CO2", 
	 "Tm": 423.15, 
	 "num_atms": 27, 
	 "gaussian": { 
		 "optdone": 1, 
		 "sigma_profile": "yes", 
		 "theory": "DFT", 
		 "functional": "B3LYP", 
		 "basiset": "6-31G**", 
		 "properties": { 
			 "R2extent": 3624.3797, 
			 "electric_dipole_moment_norm": 1.22377063619, 
			 "electric_quadrupole_moment_norm": 11.2513275666, 
			 "total_energy": -690.20014175, 
			 "HOMO_LUMO_gap": 0.19281, 
			 "cosmo_polarized_energy": -10.96, 
			 "cosmo_cavitation_energy": 30.95, 
			 "cosmo_dispersion_energy": -22.14, 
			 "cosmo_repulsion_energy": 1.73, 
			 "cosmo_total_nonelectrostatic_energy": 10.54, 
			 "SMD_solvation_energy": 6.96 
		},
		"coords": [
			{
				"x": 4.13140018,
				"y": 0.3772309113,
				"z": 0.9755825035,
				"element": "C" 
			},
			{
				"x": 2.6774505527,
				"y": 0.2231544846,
				"z": 0.5939446758,
				"element": "C" 
			},
			{
				"x": 1.6774220871,
				"y": 0.3329639587,
				"z": 1.5791889334,
				"element": "C" 
			},
			{
				"x": 1.9813056227,
				"y": 0.6020871815,
				"z": 3.0312078576,
				"element": "C" 
			},
			{
				"x": 0.3682672175,
				"y": 0.1760998748,
				"z": 1.1275582733,
				"element": "C" 
			},
			{
				"x": 0.002273704,
				"y": -0.0756306153,
				"z": -0.2056620004,
				"element": "C" 
			},
			{
				"x": 1.0116419634,
				"y": -0.1874245953,
				"z": -1.1708165062,
				"element": "C" 
			},
			{
				"x": 2.3286426559,
				"y": -0.0337379458,
				"z": -0.7497710111,
				"element": "C" 
			},
			{
				"x": -1.4452795929,
				"y": -0.1550744466,
				"z": -0.2059104339,
				"element": "C" 
			},
			{
				"x": -2.3481797742,
				"y": -0.3811475258,
				"z": -1.3877766322,
				"element": "C" 
			},
			{
				"x": -2.1053552431,
				"y": -1.7388946936,
				"z": -2.0278193861,
				"element": "C" 
			},
			{
				"x": -2.8201485668,
				"y": -2.7163834953,
				"z": -1.4249893011,
				"element": "O" 
			},
			{
				"x": -1.351957958,
				"y": -1.9520689359,
				"z": -2.952237405,
				"element": "O" 
			},
			{
				"x": -1.8216883592,
				"y": 0.0406899282,
				"z": 1.0838759583,
				"element": "C" 
			},
			{
				"x": -0.753788876,
				"y": 0.246361042,
				"z": 1.9193689615,
				"element": "O" 
			},
			{
				"x": 4.7812679475,
				"y": 0.2649492981,
				"z": 0.1040269091,
				"element": "H" 
			},
			{
				"x": 4.3338432615,
				"y": 1.3607917919,
				"z": 1.4174433944,
				"element": "H" 
			},
			{
				"x": 4.4383482496,
				"y": -0.369602011,
				"z": 1.7182908131,
				"element": "H" 
			},
			{
				"x": 2.5161560171,
				"y": 1.5506731167,
				"z": 3.1588999685,
				"element": "H" 
			},
			{
				"x": 1.0639346891,
				"y": 0.6502190802,
				"z": 3.6208563052,
				"element": "H" 
			},
			{
				"x": 2.6177006289,
				"y": -0.181839479,
				"z": 3.4586337878,
				"element": "H" 
			},
			{
				"x": 0.7723830965,
				"y": -0.4043146999,
				"z": -2.2065506469,
				"element": "H" 
			},
			{
				"x": 3.1286083365,
				"y": -0.1177101944,
				"z": -1.4807121445,
				"element": "H" 
			},
			{
				"x": -2.159458534,
				"y": 0.3701663399,
				"z": -2.1609180353,
				"element": "H" 
			},
			{
				"x": -3.3942916514,
				"y": -0.3112351121,
				"z": -1.0774294351,
				"element": "H" 
			},
			{
				"x": -2.5727158307,
				"y": -3.5456934781,
				"z": -1.8681754831,
				"element": "H" 
			},
			{
				"x": -2.7924818235,
				"y": 0.0674702203,
				"z": 1.5567900794,
				"element": "H" 
			}
		],
		 "valence_orbital": [ 
			{
				"type": "occ",
				"energy": -0.32039,
				"method": "rhf"
			},
			{
				"type": "occ",
				"energy": -0.28629,
				"method": "rhf"
			},
			{
				"type": "occ",
				"energy": -0.26866,
				"method": "rhf"
			},
			{
				"type": "occ",
				"energy": -0.22867,
				"method": "rhf"
			},
			{
				"type": "occ",
				"energy": -0.20922,
				"method": "rhf"
			},
			{
				"type": "unocc",
				"energy": -0.01641,
				"method": "rhf"
			},
			{
				"type": "unocc",
				"energy": 0.00661,
				"method": "rhf"
			},
			{
				"type": "unocc",
				"energy": 0.02141,
				"method": "rhf"
			},
			{
				"type": "unocc",
				"energy": 0.05837,
				"method": "rhf"
			},
			{
				"type": "unocc",
				"energy": 0.07548,
				"method": "rhf"
			}
		],
		"cosmo_sigma_profile": { 
			"-0.025": 0.0,
			"-0.024": 0.0,
			"-0.023": 0.0,
			"-0.022": 0.0,
			"-0.021": 0.0,
			"-0.02": 0.0,
			"-0.019": 0.129792848481,
			"-0.018": 0.698725735826,
			"-0.017": 0.828687268814,
			"-0.016": 0.912782952524,
			"-0.015": 0.956008275553,
			"-0.014": 0.881600101806,
			"-0.013": 0.554311138233,
			"-0.012": 0.688533486402,
			"-0.011": 0.768556382371,
			"-0.01": 0.659246593217,
			"-0.009": 1.82337391493,
			"-0.008": 3.13577379828,
			"-0.007": 5.19037453698,
			"-0.006": 6.06332907327,
			"-0.005": 9.55847233798,
			"-0.004": 21.4871960275,
			"-0.003": 20.0776745075,
			"-0.002": 19.9175352052,
			"-0.001": 18.9626761677,
			"0.0": 23.8229875125,
			"0.001": 16.8494027008,
			"0.002": 19.1373165388,
			"0.003": 15.7382297906,
			"0.004": 14.2879830243,
			"0.005": 12.3018817123,
			"0.006": 9.47186430316,
			"0.007": 5.2456371399,
			"0.008": 3.42779136745,
			"0.009": 2.78218463828,
			"0.01": 2.45153030618,
			"0.011": 3.70799497644,
			"0.012": 2.7976346035,
			"0.013": 0.00432012421343,
			"0.014": 0.0,
			"0.015": 0.0,
			"0.016": 0.0,
			"0.017": 0.0,
			"0.018": 0.0,
			"0.019": 0.0,
			"0.02": 0.0,
			"0.021": 0.0,
			"0.022": 0.0,
			"0.023": 0.0,
			"0.024": 0.0,
			"0.025": 0.0
		}
	}
}
