{
	 "smiles": "CC(=O)OC1=CC=C(OC(C)=O)C(C)=C1", 
	 "Tm": 314.15, 
	 "num_atms": 27, 
	 "gaussian": { 
		 "optdone": 1, 
		 "sigma_profile": "yes", 
		 "theory": "DFT", 
		 "functional": "B3LYP", 
		 "basiset": "6-31G**", 
		 "properties": { 
			 "R2extent": 4603.8359, 
			 "electric_dipole_moment_norm": 1.28363034399, 
			 "electric_quadrupole_moment_norm": 22.3961633147, 
			 "total_energy": -727.32423035, 
			 "HOMO_LUMO_gap": 0.22162, 
			 "cosmo_polarized_energy": -12.13, 
			 "cosmo_cavitation_energy": 32.09, 
			 "cosmo_dispersion_energy": -22.52, 
			 "cosmo_repulsion_energy": 1.8, 
			 "cosmo_total_nonelectrostatic_energy": 11.37, 
			 "SMD_solvation_energy": 8.09 
		},
		"coords": [
			{
				"x": -1.9530158231,
				"y": -4.035413886,
				"z": 0.2232720931,
				"element": "C" 
			},
			{
				"x": -1.3664296047,
				"y": -2.6732181473,
				"z": 0.501235038,
				"element": "C" 
			},
			{
				"x": -1.1675673189,
				"y": -2.1966718263,
				"z": 1.5912618037,
				"element": "O" 
			},
			{
				"x": -1.0897705512,
				"y": -2.0455164139,
				"z": -0.6854643856,
				"element": "O" 
			},
			{
				"x": -0.5486243689,
				"y": -0.758744527,
				"z": -0.7206759364,
				"element": "C" 
			},
			{
				"x": -1.0879102267,
				"y": 0.1000265435,
				"z": -1.6748738436,
				"element": "C" 
			},
			{
				"x": -0.5459249768,
				"y": 1.3750066094,
				"z": -1.8186658006,
				"element": "C" 
			},
			{
				"x": 0.516589015,
				"y": 1.7683617697,
				"z": -1.0123845093,
				"element": "C" 
			},
			{
				"x": 0.9686215325,
				"y": 3.0899799435,
				"z": -1.1372163967,
				"element": "O" 
			},
			{
				"x": 2.1570495038,
				"y": 3.3184339385,
				"z": -1.7821473759,
				"element": "C" 
			},
			{
				"x": 2.4384085814,
				"y": 4.7999076115,
				"z": -1.8288446573,
				"element": "C" 
			},
			{
				"x": 2.8566437667,
				"y": 2.445575936,
				"z": -2.2330223123,
				"element": "O" 
			},
			{
				"x": 1.0685510052,
				"y": 0.9182906564,
				"z": -0.0450426279,
				"element": "C" 
			},
			{
				"x": 2.2180748027,
				"y": 1.3602940401,
				"z": 0.8239284777,
				"element": "C" 
			},
			{
				"x": 0.5176243642,
				"y": -0.3615858361,
				"z": 0.0859225933,
				"element": "C" 
			},
			{
				"x": -1.2519995745,
				"y": -4.631149824,
				"z": -0.3687244146,
				"element": "H" 
			},
			{
				"x": -2.1652499879,
				"y": -4.5362951217,
				"z": 1.1670728035,
				"element": "H" 
			},
			{
				"x": -2.8712983506,
				"y": -3.9361292822,
				"z": -0.3629215783,
				"element": "H" 
			},
			{
				"x": -1.9139625109,
				"y": -0.235588655,
				"z": -2.2920571823,
				"element": "H" 
			},
			{
				"x": -0.9436467184,
				"y": 2.0719613097,
				"z": -2.5486114653,
				"element": "H" 
			},
			{
				"x": 2.4983942777,
				"y": 5.201208589,
				"z": -0.8128377565,
				"element": "H" 
			},
			{
				"x": 3.3769299071,
				"y": 4.973548137,
				"z": -2.3539006812,
				"element": "H" 
			},
			{
				"x": 1.6217155917,
				"y": 5.3214558616,
				"z": -2.3362014172,
				"element": "H" 
			},
			{
				"x": 3.1413001686,
				"y": 1.4275657822,
				"z": 0.2383761381,
				"element": "H" 
			},
			{
				"x": 2.0302474459,
				"y": 2.3489785006,
				"z": 1.2554309908,
				"element": "H" 
			},
			{
				"x": 2.3808654893,
				"y": 0.6554462766,
				"z": 1.6424908336,
				"element": "H" 
			},
			{
				"x": 0.9143845609,
				"y": -1.0398279858,
				"z": 0.8302015692,
				"element": "H" 
			}
		],
		 "valence_orbital": [ 
			{
				"type": "occ",
				"energy": -0.31049,
				"method": "rhf"
			},
			{
				"type": "occ",
				"energy": -0.27915,
				"method": "rhf"
			},
			{
				"type": "occ",
				"energy": -0.27781,
				"method": "rhf"
			},
			{
				"type": "occ",
				"energy": -0.25107,
				"method": "rhf"
			},
			{
				"type": "occ",
				"energy": -0.23467,
				"method": "rhf"
			},
			{
				"type": "unocc",
				"energy": -0.01305,
				"method": "rhf"
			},
			{
				"type": "unocc",
				"energy": -0.0066,
				"method": "rhf"
			},
			{
				"type": "unocc",
				"energy": 0.00563,
				"method": "rhf"
			},
			{
				"type": "unocc",
				"energy": 0.0184,
				"method": "rhf"
			},
			{
				"type": "unocc",
				"energy": 0.09217,
				"method": "rhf"
			}
		],
		"cosmo_sigma_profile": { 
			"-0.025": 0.0,
			"-0.024": 0.0,
			"-0.023": 0.0,
			"-0.022": 0.0,
			"-0.021": 0.0,
			"-0.02": 0.0,
			"-0.019": 0.0,
			"-0.018": 0.0,
			"-0.017": 0.0,
			"-0.016": 0.0,
			"-0.015": 0.0,
			"-0.014": 0.0,
			"-0.013": 0.0,
			"-0.012": 0.0,
			"-0.011": 0.0,
			"-0.01": 0.0,
			"-0.009": 0.0,
			"-0.008": 0.188382764542,
			"-0.007": 7.60461685122,
			"-0.006": 18.6680555406,
			"-0.005": 20.3315077643,
			"-0.004": 22.5576785797,
			"-0.003": 25.464223771,
			"-0.002": 27.8983177006,
			"-0.001": 20.9307146922,
			"0.0": 15.5733498262,
			"0.001": 10.3121820103,
			"0.002": 14.6293787915,
			"0.003": 15.6748304051,
			"0.004": 9.67007850988,
			"0.005": 7.66188224593,
			"0.006": 5.4918907867,
			"0.007": 4.98029166439,
			"0.008": 4.20151419597,
			"0.009": 4.56668515156,
			"0.01": 4.98546054633,
			"0.011": 8.31629301107,
			"0.012": 5.0761348236,
			"0.013": 0.219223572287,
			"0.014": 0.0,
			"0.015": 0.0,
			"0.016": 0.0,
			"0.017": 0.0,
			"0.018": 0.0,
			"0.019": 0.0,
			"0.02": 0.0,
			"0.021": 0.0,
			"0.022": 0.0,
			"0.023": 0.0,
			"0.024": 0.0,
			"0.025": 0.0
		}
	}
}
