{
	 "smiles": "NCCC(O)C(O)=O", 
	 "Tm": 475.15, 
	 "num_atms": 17, 
	 "gaussian": { 
		 "optdone": 1, 
		 "sigma_profile": "yes", 
		 "theory": "DFT", 
		 "functional": "B3LYP", 
		 "basiset": "6-31G**", 
		 "properties": { 
			 "R2extent": 1517.6365, 
			 "electric_dipole_moment_norm": 2.2380941133, 
			 "electric_quadrupole_moment_norm": 13.8294014776, 
			 "total_energy": -438.272192072, 
			 "HOMO_LUMO_gap": 0.22369, 
			 "cosmo_polarized_energy": -14.57, 
			 "cosmo_cavitation_energy": 20.48, 
			 "cosmo_dispersion_energy": -15.05, 
			 "cosmo_repulsion_energy": 1.31, 
			 "cosmo_total_nonelectrostatic_energy": 6.74, 
			 "SMD_solvation_energy": 3.24 
		},
		"coords": [
			{
				"x": -1.930372627,
				"y": -2.4478248368,
				"z": 0.1754244919,
				"element": "N" 
			},
			{
				"x": -0.7107137904,
				"y": -1.8976021258,
				"z": -0.4182397279,
				"element": "C" 
			},
			{
				"x": -0.3920663062,
				"y": -0.4412035077,
				"z": -0.0352672932,
				"element": "C" 
			},
			{
				"x": 0.9179851146,
				"y": 0.0878651836,
				"z": -0.6286910313,
				"element": "C" 
			},
			{
				"x": 1.9869698788,
				"y": -0.7156708163,
				"z": -0.1673864891,
				"element": "O" 
			},
			{
				"x": 0.8463141634,
				"y": 0.1794089357,
				"z": -2.1541644411,
				"element": "C" 
			},
			{
				"x": 2.0355957688,
				"y": -0.1280279373,
				"z": -2.7323405964,
				"element": "O" 
			},
			{
				"x": -0.1181614318,
				"y": 0.5388335881,
				"z": -2.7895335922,
				"element": "O" 
			},
			{
				"x": -2.7288545466,
				"y": -1.8660349363,
				"z": -0.0699105237,
				"element": "H" 
			},
			{
				"x": -1.8629101927,
				"y": -2.4230729652,
				"z": 1.1907366446,
				"element": "H" 
			},
			{
				"x": 0.130704512,
				"y": -2.5351334865,
				"z": -0.1307448771,
				"element": "H" 
			},
			{
				"x": -0.8066213087,
				"y": -1.9736504864,
				"z": -1.5083604922,
				"element": "H" 
			},
			{
				"x": -0.3168024955,
				"y": -0.3575552248,
				"z": 1.0557232023,
				"element": "H" 
			},
			{
				"x": -1.2026359549,
				"y": 0.2189281659,
				"z": -0.363055983,
				"element": "H" 
			},
			{
				"x": 1.0471573343,
				"y": 1.1356559593,
				"z": -0.2991818032,
				"element": "H" 
			},
			{
				"x": 2.743527164,
				"y": -0.5758440539,
				"z": -0.7519480439,
				"element": "H" 
			},
			{
				"x": 1.9213847177,
				"y": -0.0039714557,
				"z": -3.6894594446,
				"element": "H" 
			}
		],
		 "valence_orbital": [ 
			{
				"type": "occ",
				"energy": -0.33863,
				"method": "rhf"
			},
			{
				"type": "occ",
				"energy": -0.33215,
				"method": "rhf"
			},
			{
				"type": "occ",
				"energy": -0.29934,
				"method": "rhf"
			},
			{
				"type": "occ",
				"energy": -0.26906,
				"method": "rhf"
			},
			{
				"type": "occ",
				"energy": -0.22751,
				"method": "rhf"
			},
			{
				"type": "unocc",
				"energy": -0.00382,
				"method": "rhf"
			},
			{
				"type": "unocc",
				"energy": 0.05613,
				"method": "rhf"
			},
			{
				"type": "unocc",
				"energy": 0.08741,
				"method": "rhf"
			},
			{
				"type": "unocc",
				"energy": 0.10782,
				"method": "rhf"
			},
			{
				"type": "unocc",
				"energy": 0.12159,
				"method": "rhf"
			}
		],
		"cosmo_sigma_profile": { 
			"-0.025": 0.0,
			"-0.024": 0.0,
			"-0.023": 0.0,
			"-0.022": 0.0,
			"-0.021": 0.0,
			"-0.02": 0.0,
			"-0.019": 0.42681227499,
			"-0.018": 1.16868404581,
			"-0.017": 0.544376706618,
			"-0.016": 0.913513534728,
			"-0.015": 0.868688584404,
			"-0.014": 0.855105108459,
			"-0.013": 1.13955020069,
			"-0.012": 1.3952814351,
			"-0.011": 1.13132575947,
			"-0.01": 1.66034602608,
			"-0.009": 3.7655193575,
			"-0.008": 4.97098291473,
			"-0.007": 7.46303478817,
			"-0.006": 8.26325761256,
			"-0.005": 7.37765587094,
			"-0.004": 9.51709437413,
			"-0.003": 13.4377094136,
			"-0.002": 10.7710304896,
			"-0.001": 9.47978398766,
			"0.0": 8.98790888295,
			"0.001": 6.15585455161,
			"0.002": 5.85670304272,
			"0.003": 5.7471541932,
			"0.004": 5.06744643298,
			"0.005": 5.17491478355,
			"0.006": 4.17937883039,
			"0.007": 4.27428032272,
			"0.008": 3.22628403326,
			"0.009": 3.3352621287,
			"0.01": 3.75381855722,
			"0.011": 6.78736559936,
			"0.012": 4.02442964826,
			"0.013": 2.17460115023,
			"0.014": 1.34672309805,
			"0.015": 0.400790498536,
			"0.016": 0.509230655358,
			"0.017": 0.586901530381,
			"0.018": 0.929034632877,
			"0.019": 0.519888792796,
			"0.02": 0.433362895924,
			"0.021": 0.000453569604769,
			"0.022": 0.0,
			"0.023": 0.0,
			"0.024": 0.0,
			"0.025": 0.0
		}
	}
}
