{
	 "smiles": "COC1=CC(=CC(OC)=C1C(C)C)C(O)=O", 
	 "Tm": 438.15, 
	 "num_atms": 32, 
	 "gaussian": { 
		 "optdone": 1, 
		 "sigma_profile": "yes", 
		 "theory": "DFT", 
		 "functional": "B3LYP", 
		 "basiset": "6-31G**", 
		 "properties": { 
			 "R2extent": 4661.3047, 
			 "electric_dipole_moment_norm": 3.68683151771, 
			 "electric_quadrupole_moment_norm": 30.9919531435, 
			 "total_energy": -767.811151859, 
			 "HOMO_LUMO_gap": 0.18573, 
			 "cosmo_polarized_energy": -15.42, 
			 "cosmo_cavitation_energy": 34.45, 
			 "cosmo_dispersion_energy": -24.12, 
			 "cosmo_repulsion_energy": 1.91, 
			 "cosmo_total_nonelectrostatic_energy": 12.24, 
			 "SMD_solvation_energy": 8.77 
		},
		"coords": [
			{
				"x": -2.7175327052,
				"y": 0.0592835059,
				"z": -2.6791702108,
				"element": "C" 
			},
			{
				"x": -1.5339641153,
				"y": -0.377813174,
				"z": -2.0241950712,
				"element": "O" 
			},
			{
				"x": -1.4283521031,
				"y": -0.2058216837,
				"z": -0.6731043064,
				"element": "C" 
			},
			{
				"x": -2.4345251862,
				"y": 0.402408294,
				"z": 0.0838890576,
				"element": "C" 
			},
			{
				"x": -2.2629873079,
				"y": 0.5628896397,
				"z": 1.4582139979,
				"element": "C" 
			},
			{
				"x": -1.1030643843,
				"y": 0.094174941,
				"z": 2.0839626717,
				"element": "C" 
			},
			{
				"x": -0.1076186244,
				"y": -0.5232540745,
				"z": 1.3153410516,
				"element": "C" 
			},
			{
				"x": 1.0429701107,
				"y": -1.0166815826,
				"z": 1.8666827795,
				"element": "O" 
			},
			{
				"x": 1.2431896891,
				"y": -0.898641662,
				"z": 3.2650221146,
				"element": "C" 
			},
			{
				"x": -0.2369954623,
				"y": -0.679836257,
				"z": -0.0813414137,
				"element": "C" 
			},
			{
				"x": 0.8750254318,
				"y": -1.3468610693,
				"z": -0.8852538899,
				"element": "C" 
			},
			{
				"x": 0.4205734414,
				"y": -2.6699978661,
				"z": -1.5346672035,
				"element": "C" 
			},
			{
				"x": 1.5100475619,
				"y": -0.3924055511,
				"z": -1.9171495693,
				"element": "C" 
			},
			{
				"x": -3.3714139611,
				"y": 1.2272376345,
				"z": 2.2159955679,
				"element": "C" 
			},
			{
				"x": -3.0402500925,
				"y": 1.7755901083,
				"z": 3.4181129594,
				"element": "O" 
			},
			{
				"x": -4.5097658128,
				"y": 1.2981597982,
				"z": 1.8146867488,
				"element": "O" 
			},
			{
				"x": -2.8606025713,
				"y": 1.1416807816,
				"z": -2.5750421009,
				"element": "H" 
			},
			{
				"x": -2.5810327822,
				"y": -0.1861792736,
				"z": -3.7332551147,
				"element": "H" 
			},
			{
				"x": -3.605178924,
				"y": -0.4594381492,
				"z": -2.2977309519,
				"element": "H" 
			},
			{
				"x": -3.3545902072,
				"y": 0.7592987088,
				"z": -0.3582419875,
				"element": "H" 
			},
			{
				"x": -0.9995112411,
				"y": 0.1484126807,
				"z": 3.1609393359,
				"element": "H" 
			},
			{
				"x": 0.4752419633,
				"y": -1.4388684387,
				"z": 3.8334968419,
				"element": "H" 
			},
			{
				"x": 1.2582594419,
				"y": 0.150970101,
				"z": 3.5866746528,
				"element": "H" 
			},
			{
				"x": 2.2171229303,
				"y": -1.3470931281,
				"z": 3.4665068939,
				"element": "H" 
			},
			{
				"x": 1.6567771063,
				"y": -1.6000093043,
				"z": -0.1660215221,
				"element": "H" 
			},
			{
				"x": 0.0224959225,
				"y": -3.3591954609,
				"z": -0.7828420241,
				"element": "H" 
			},
			{
				"x": 1.2730619068,
				"y": -3.1587304698,
				"z": -2.0195731193,
				"element": "H" 
			},
			{
				"x": -0.3516099656,
				"y": -2.5027989586,
				"z": -2.2885453677,
				"element": "H" 
			},
			{
				"x": 1.8777375516,
				"y": 0.5189910136,
				"z": -1.434340236,
				"element": "H" 
			},
			{
				"x": 2.3623734976,
				"y": -0.8819892808,
				"z": -2.4014730675,
				"element": "H" 
			},
			{
				"x": 0.7958521884,
				"y": -0.1049636358,
				"z": -2.6916189446,
				"element": "H" 
			},
			{
				"x": -2.077333297,
				"y": 1.7999818129,
				"z": 3.5079414276,
				"element": "H" 
			}
		],
		 "valence_orbital": [ 
			{
				"type": "occ",
				"energy": -0.30709,
				"method": "rhf"
			},
			{
				"type": "occ",
				"energy": -0.30555,
				"method": "rhf"
			},
			{
				"type": "occ",
				"energy": -0.26889,
				"method": "rhf"
			},
			{
				"type": "occ",
				"energy": -0.23099,
				"method": "rhf"
			},
			{
				"type": "occ",
				"energy": -0.22956,
				"method": "rhf"
			},
			{
				"type": "unocc",
				"energy": -0.04383,
				"method": "rhf"
			},
			{
				"type": "unocc",
				"energy": 0.00597,
				"method": "rhf"
			},
			{
				"type": "unocc",
				"energy": 0.05432,
				"method": "rhf"
			},
			{
				"type": "unocc",
				"energy": 0.06342,
				"method": "rhf"
			},
			{
				"type": "unocc",
				"energy": 0.08712,
				"method": "rhf"
			}
		],
		"cosmo_sigma_profile": { 
			"-0.025": 0.0,
			"-0.024": 0.0,
			"-0.023": 0.0,
			"-0.022": 0.0,
			"-0.021": 0.0,
			"-0.02": 0.0,
			"-0.019": 0.0,
			"-0.018": 0.368020733522,
			"-0.017": 1.15268325576,
			"-0.016": 1.0209432657,
			"-0.015": 0.955011629756,
			"-0.014": 0.62514121039,
			"-0.013": 1.21074893948,
			"-0.012": 0.800426784396,
			"-0.011": 1.13342034642,
			"-0.01": 1.15747302325,
			"-0.009": 0.970571683408,
			"-0.008": 2.02105050644,
			"-0.007": 2.74144584496,
			"-0.006": 13.6380365038,
			"-0.005": 18.2072007079,
			"-0.004": 17.4033948393,
			"-0.003": 22.9303016924,
			"-0.002": 19.6323681375,
			"-0.001": 20.3759349916,
			"0.0": 21.8444695785,
			"0.001": 25.5241608358,
			"0.002": 25.2029171431,
			"0.003": 20.9227302832,
			"0.004": 12.1199700986,
			"0.005": 6.0969023689,
			"0.006": 5.29782235434,
			"0.007": 4.57594392528,
			"0.008": 3.20689125217,
			"0.009": 3.14853423407,
			"0.01": 4.53719815494,
			"0.011": 4.99984707763,
			"0.012": 5.57391781007,
			"0.013": 1.90074602575,
			"0.014": 0.107792105664,
			"0.015": 0.0,
			"0.016": 0.0,
			"0.017": 0.0,
			"0.018": 0.0,
			"0.019": 0.0,
			"0.02": 0.0,
			"0.021": 0.0,
			"0.022": 0.0,
			"0.023": 0.0,
			"0.024": 0.0,
			"0.025": 0.0
		}
	}
}
