{
	 "smiles": "CN1C2=C(N(CCOC(=O)C3=CC=CN=C3)C=N2)C(=O)N(C)C1=O", 
	 "Tm": 425.15, 
	 "num_atms": 39, 
	 "gaussian": { 
		 "optdone": 1, 
		 "sigma_profile": "yes", 
		 "theory": "DFT", 
		 "functional": "B3LYP", 
		 "basiset": "6-31G**", 
		 "properties": { 
			 "R2extent": 8580.7193, 
			 "electric_dipole_moment_norm": 3.75126840815, 
			 "electric_quadrupole_moment_norm": 21.9381740416, 
			 "total_energy": -1155.34196851, 
			 "HOMO_LUMO_gap": 0.16878, 
			 "cosmo_polarized_energy": -21.82, 
			 "cosmo_cavitation_energy": 43.6, 
			 "cosmo_dispersion_energy": -29.66, 
			 "cosmo_repulsion_energy": 2.18, 
			 "cosmo_total_nonelectrostatic_energy": 16.13, 
			 "SMD_solvation_energy": 6.66 
		},
		"coords": [
			{
				"x": -2.8899929466,
				"y": -2.7366305801,
				"z": 0.559201821,
				"element": "C" 
			},
			{
				"x": -1.5940527102,
				"y": -2.1168276844,
				"z": 0.8343638805,
				"element": "N" 
			},
			{
				"x": -0.6140581744,
				"y": -2.0917256433,
				"z": -0.1282184955,
				"element": "C" 
			},
			{
				"x": 0.617774573,
				"y": -1.5053473127,
				"z": 0.0939631797,
				"element": "C" 
			},
			{
				"x": 1.3238316372,
				"y": -1.6966786919,
				"z": -1.0875475529,
				"element": "N" 
			},
			{
				"x": 2.6768625687,
				"y": -1.23417125,
				"z": -1.4001371305,
				"element": "C" 
			},
			{
				"x": 2.7016489504,
				"y": 0.0891958196,
				"z": -2.1547736161,
				"element": "C" 
			},
			{
				"x": 2.2705137441,
				"y": 1.1094805113,
				"z": -1.2482550181,
				"element": "O" 
			},
			{
				"x": 2.0901371135,
				"y": 2.3450661926,
				"z": -1.7789133574,
				"element": "C" 
			},
			{
				"x": 2.2321662455,
				"y": 2.5853631285,
				"z": -2.9610693303,
				"element": "O" 
			},
			{
				"x": 1.7102487428,
				"y": 3.3390387226,
				"z": -0.7416244599,
				"element": "C" 
			},
			{
				"x": 1.6642092909,
				"y": 3.0350985094,
				"z": 0.6253610413,
				"element": "C" 
			},
			{
				"x": 1.3041099521,
				"y": 4.0490361551,
				"z": 1.5089251785,
				"element": "C" 
			},
			{
				"x": 1.0060585629,
				"y": 5.3133095826,
				"z": 0.9957181274,
				"element": "C" 
			},
			{
				"x": 1.0474325699,
				"y": 5.6192120686,
				"z": -0.3090521886,
				"element": "N" 
			},
			{
				"x": 1.3963831183,
				"y": 4.6431686169,
				"z": -1.1510245308,
				"element": "C" 
			},
			{
				"x": 0.477100281,
				"y": -2.3626969498,
				"z": -1.916994256,
				"element": "C" 
			},
			{
				"x": -0.7077428972,
				"y": -2.6240726313,
				"z": -1.3761625887,
				"element": "N" 
			},
			{
				"x": 0.9863962876,
				"y": -0.9063515197,
				"z": 1.3427572522,
				"element": "C" 
			},
			{
				"x": 2.0694267978,
				"y": -0.3871759264,
				"z": 1.6177881728,
				"element": "O" 
			},
			{
				"x": -0.0738404298,
				"y": -0.9763292847,
				"z": 2.2779885202,
				"element": "N" 
			},
			{
				"x": 0.146440971,
				"y": -0.4053937238,
				"z": 3.6114188692,
				"element": "C" 
			},
			{
				"x": -1.3477832041,
				"y": -1.5482757366,
				"z": 2.0831225282,
				"element": "C" 
			},
			{
				"x": -2.1809605754,
				"y": -1.5392924869,
				"z": 2.9776722283,
				"element": "O" 
			},
			{
				"x": -2.7527560548,
				"y": -3.7886085607,
				"z": 0.2968834016,
				"element": "H" 
			},
			{
				"x": -3.3785655471,
				"y": -2.2284038481,
				"z": -0.2760036268,
				"element": "H" 
			},
			{
				"x": -3.4918825038,
				"y": -2.646073649,
				"z": 1.4607106801,
				"element": "H" 
			},
			{
				"x": 3.1663742549,
				"y": -2.000695035,
				"z": -2.0086647082,
				"element": "H" 
			},
			{
				"x": 3.213081786,
				"y": -1.1331266244,
				"z": -0.4552265974,
				"element": "H" 
			},
			{
				"x": 3.7215134727,
				"y": 0.3037367778,
				"z": -2.4943294301,
				"element": "H" 
			},
			{
				"x": 2.0515236146,
				"y": 0.0720896776,
				"z": -3.0348985854,
				"element": "H" 
			},
			{
				"x": 1.9089438625,
				"y": 2.0374146454,
				"z": 0.977172744,
				"element": "H" 
			},
			{
				"x": 1.2561217508,
				"y": 3.8673613831,
				"z": 2.5778674423,
				"element": "H" 
			},
			{
				"x": 0.7211376767,
				"y": 6.1230308895,
				"z": 1.6655119751,
				"element": "H" 
			},
			{
				"x": 1.4338465877,
				"y": 4.8894003097,
				"z": -2.2093097997,
				"element": "H" 
			},
			{
				"x": 0.7703519707,
				"y": -2.6487178923,
				"z": -2.9185120832,
				"element": "H" 
			},
			{
				"x": -0.0128458704,
				"y": -1.1703736463,
				"z": 4.3736402035,
				"element": "H" 
			},
			{
				"x": -0.5594266568,
				"y": 0.4085352622,
				"z": 3.7915121424,
				"element": "H" 
			},
			{
				"x": 1.1701711873,
				"y": -0.0396695748,
				"z": 3.6429379676,
				"element": "H" 
			}
		],
		 "valence_orbital": [ 
			{
				"type": "occ",
				"energy": -0.27388,
				"method": "rhf"
			},
			{
				"type": "occ",
				"energy": -0.27057,
				"method": "rhf"
			},
			{
				"type": "occ",
				"energy": -0.26678,
				"method": "rhf"
			},
			{
				"type": "occ",
				"energy": -0.25875,
				"method": "rhf"
			},
			{
				"type": "occ",
				"energy": -0.22678,
				"method": "rhf"
			},
			{
				"type": "unocc",
				"energy": -0.058,
				"method": "rhf"
			},
			{
				"type": "unocc",
				"energy": -0.04233,
				"method": "rhf"
			},
			{
				"type": "unocc",
				"energy": -0.02675,
				"method": "rhf"
			},
			{
				"type": "unocc",
				"energy": 0.01704,
				"method": "rhf"
			},
			{
				"type": "unocc",
				"energy": 0.02476,
				"method": "rhf"
			}
		],
		"cosmo_sigma_profile": { 
			"-0.025": 0.0,
			"-0.024": 0.0,
			"-0.023": 0.0,
			"-0.022": 0.0,
			"-0.021": 0.0,
			"-0.02": 0.0,
			"-0.019": 0.0,
			"-0.018": 0.0,
			"-0.017": 0.0,
			"-0.016": 0.0,
			"-0.015": 0.0,
			"-0.014": 0.0,
			"-0.013": 0.0,
			"-0.012": 0.0,
			"-0.011": 1.64483692354,
			"-0.01": 3.62802036805,
			"-0.009": 3.9678401507,
			"-0.008": 7.30643092132,
			"-0.007": 13.7510998872,
			"-0.006": 18.2374779852,
			"-0.005": 22.9821968445,
			"-0.004": 26.2591051674,
			"-0.003": 32.0151195682,
			"-0.002": 35.2362184172,
			"-0.001": 32.455778817,
			"0.0": 25.8872230337,
			"0.001": 22.0508623922,
			"0.002": 15.4324163507,
			"0.003": 9.10768191423,
			"0.004": 9.32280168692,
			"0.005": 7.01970287182,
			"0.006": 7.15526444755,
			"0.007": 8.11601508003,
			"0.008": 5.20344379884,
			"0.009": 6.62564450283,
			"0.01": 8.13479312562,
			"0.011": 9.09112239511,
			"0.012": 9.18381599656,
			"0.013": 6.07176017647,
			"0.014": 0.90943938036,
			"0.015": 2.06565460153,
			"0.016": 0.372408390107,
			"0.017": 0.0,
			"0.018": 0.0,
			"0.019": 0.0,
			"0.02": 0.0,
			"0.021": 0.0,
			"0.022": 0.0,
			"0.023": 0.0,
			"0.024": 0.0,
			"0.025": 0.0
		}
	}
}
