{
	 "smiles": "NC1=NSC(=N1)C1=CC=CC=C1", 
	 "Tm": 410.15, 
	 "num_atms": 19, 
	 "gaussian": { 
		 "optdone": 1, 
		 "sigma_profile": "yes", 
		 "theory": "DFT", 
		 "functional": "B3LYP", 
		 "basiset": "6-31G**", 
		 "properties": { 
			 "R2extent": 3163.9134, 
			 "electric_dipole_moment_norm": 2.30380442963, 
			 "electric_quadrupole_moment_norm": 15.4120323037, 
			 "total_energy": -871.516453314, 
			 "HOMO_LUMO_gap": 0.15574, 
			 "cosmo_polarized_energy": -10.61, 
			 "cosmo_cavitation_energy": 25.1, 
			 "cosmo_dispersion_energy": -19.53, 
			 "cosmo_repulsion_energy": 1.5, 
			 "cosmo_total_nonelectrostatic_energy": 7.08, 
			 "SMD_solvation_energy": 1.23 
		},
		"coords": [
			{
				"x": -3.6604604618,
				"y": -1.4367298379,
				"z": 2.5958692245,
				"element": "N" 
			},
			{
				"x": -2.9285153921,
				"y": -1.6358140887,
				"z": 1.4484415584,
				"element": "C" 
			},
			{
				"x": -3.2739968075,
				"y": -2.5475106915,
				"z": 0.5587081967,
				"element": "N" 
			},
			{
				"x": -2.1931566176,
				"y": -2.4222266595,
				"z": -0.7219700565,
				"element": "S" 
			},
			{
				"x": -1.3075205571,
				"y": -1.1274616569,
				"z": 0.0622654923,
				"element": "C" 
			},
			{
				"x": -1.8386914086,
				"y": -0.8254397672,
				"z": 1.2222061488,
				"element": "N" 
			},
			{
				"x": -0.1296213231,
				"y": -0.4608635302,
				"z": -0.5037190939,
				"element": "C" 
			},
			{
				"x": 0.4595033834,
				"y": 0.6075982439,
				"z": 0.1943214193,
				"element": "C" 
			},
			{
				"x": 1.5773487953,
				"y": 1.2536014161,
				"z": -0.3261178127,
				"element": "C" 
			},
			{
				"x": 2.1223762087,
				"y": 0.8455145379,
				"z": -1.546487723,
				"element": "C" 
			},
			{
				"x": 1.542779981,
				"y": -0.2156708153,
				"z": -2.246073636,
				"element": "C" 
			},
			{
				"x": 0.4249938731,
				"y": -0.8654897041,
				"z": -1.7289834982,
				"element": "C" 
			},
			{
				"x": -3.1499358552,
				"y": -1.0119478453,
				"z": 3.3555607017,
				"element": "H" 
			},
			{
				"x": -4.2655936319,
				"y": -2.2017424325,
				"z": 2.8550744538,
				"element": "H" 
			},
			{
				"x": 0.0243179407,
				"y": 0.91411883,
				"z": 1.1389403096,
				"element": "H" 
			},
			{
				"x": 2.0247351648,
				"y": 2.0785893592,
				"z": 0.2205177899,
				"element": "H" 
			},
			{
				"x": 2.9943024205,
				"y": 1.3514598555,
				"z": -1.9506121871,
				"element": "H" 
			},
			{
				"x": 1.9623244463,
				"y": -0.5380812291,
				"z": -3.1942748292,
				"element": "H" 
			},
			{
				"x": -0.0148901588,
				"y": -1.6924039844,
				"z": -2.2803664583,
				"element": "H" 
			}
		],
		 "valence_orbital": [ 
			{
				"type": "occ",
				"energy": -0.30239,
				"method": "rhf"
			},
			{
				"type": "occ",
				"energy": -0.27483,
				"method": "rhf"
			},
			{
				"type": "occ",
				"energy": -0.2634,
				"method": "rhf"
			},
			{
				"type": "occ",
				"energy": -0.25584,
				"method": "rhf"
			},
			{
				"type": "occ",
				"energy": -0.21663,
				"method": "rhf"
			},
			{
				"type": "unocc",
				"energy": -0.06089,
				"method": "rhf"
			},
			{
				"type": "unocc",
				"energy": -0.01186,
				"method": "rhf"
			},
			{
				"type": "unocc",
				"energy": 0.00817,
				"method": "rhf"
			},
			{
				"type": "unocc",
				"energy": 0.02668,
				"method": "rhf"
			},
			{
				"type": "unocc",
				"energy": 0.0696,
				"method": "rhf"
			}
		],
		"cosmo_sigma_profile": { 
			"-0.025": 0.0,
			"-0.024": 0.0,
			"-0.023": 0.0,
			"-0.022": 0.0,
			"-0.021": 0.0,
			"-0.02": 0.0,
			"-0.019": 0.0,
			"-0.018": 0.0,
			"-0.017": 0.0,
			"-0.016": 0.0,
			"-0.015": 0.0,
			"-0.014": 0.698404715546,
			"-0.013": 2.57096320089,
			"-0.012": 1.52062934062,
			"-0.011": 2.82559592327,
			"-0.01": 1.9307393658,
			"-0.009": 1.68681037625,
			"-0.008": 2.40486069446,
			"-0.007": 5.07079098441,
			"-0.006": 11.1142208545,
			"-0.005": 13.1206805475,
			"-0.004": 11.4602211228,
			"-0.003": 9.17066373583,
			"-0.002": 11.2089762883,
			"-0.001": 13.5343066901,
			"0.0": 16.9317668921,
			"0.001": 16.979979561,
			"0.002": 17.1372166146,
			"0.003": 18.8809665467,
			"0.004": 15.9876001445,
			"0.005": 5.53991325492,
			"0.006": 4.44370598513,
			"0.007": 3.88279638383,
			"0.008": 2.86985796246,
			"0.009": 3.25791461732,
			"0.01": 3.23683449854,
			"0.011": 2.00586743422,
			"0.012": 1.55965585344,
			"0.013": 1.09368456496,
			"0.014": 1.06779661429,
			"0.015": 0.792539079841,
			"0.016": 0.0,
			"0.017": 0.0,
			"0.018": 0.0,
			"0.019": 0.0,
			"0.02": 0.0,
			"0.021": 0.0,
			"0.022": 0.0,
			"0.023": 0.0,
			"0.024": 0.0,
			"0.025": 0.0
		}
	}
}
