{
	 "smiles": "OC1=CC=C(Cl)C=C1C(=O)CC(=O)C1=CC=CC=C1", 
	 "Tm": 383.15, 
	 "num_atms": 30, 
	 "gaussian": { 
		 "optdone": 1, 
		 "sigma_profile": "yes", 
		 "theory": "DFT", 
		 "functional": "B3LYP", 
		 "basiset": "6-31G**", 
		 "properties": { 
			 "R2extent": 7916.9909, 
			 "electric_dipole_moment_norm": 2.93789312433, 
			 "electric_quadrupole_moment_norm": 13.0873069311, 
			 "total_energy": -1264.0970587, 
			 "HOMO_LUMO_gap": 0.15468, 
			 "cosmo_polarized_energy": -14.35, 
			 "cosmo_cavitation_energy": 36.8, 
			 "cosmo_dispersion_energy": -26.48, 
			 "cosmo_repulsion_energy": 2.03, 
			 "cosmo_total_nonelectrostatic_energy": 12.34, 
			 "SMD_solvation_energy": 6.94 
		},
		"coords": [
			{
				"x": -0.27537022,
				"y": -1.0828183704,
				"z": -3.2272706286,
				"element": "O" 
			},
			{
				"x": 0.2661534435,
				"y": -2.047279037,
				"z": -2.4783029692,
				"element": "C" 
			},
			{
				"x": 0.0724099227,
				"y": -3.381863974,
				"z": -2.8799297712,
				"element": "C" 
			},
			{
				"x": 0.6094817382,
				"y": -4.4250707914,
				"z": -2.1456443456,
				"element": "C" 
			},
			{
				"x": 1.3564229661,
				"y": -4.1556082184,
				"z": -0.9877418607,
				"element": "C" 
			},
			{
				"x": 2.0337771729,
				"y": -5.4900633122,
				"z": -0.0658746308,
				"element": "Cl" 
			},
			{
				"x": 1.561458679,
				"y": -2.8537987701,
				"z": -0.5704259714,
				"element": "C" 
			},
			{
				"x": 1.021630148,
				"y": -1.774056754,
				"z": -1.3021638556,
				"element": "C" 
			},
			{
				"x": 1.2158874277,
				"y": -0.3756530826,
				"z": -0.8864971444,
				"element": "C" 
			},
			{
				"x": 0.7385169976,
				"y": 0.5585891145,
				"z": -1.5462949745,
				"element": "O" 
			},
			{
				"x": 2.0249111421,
				"y": -0.0646288066,
				"z": 0.3679806146,
				"element": "C" 
			},
			{
				"x": 2.1438063632,
				"y": 1.4376013644,
				"z": 0.6494499478,
				"element": "C" 
			},
			{
				"x": 3.1960627071,
				"y": 2.0016740828,
				"z": 0.3980848598,
				"element": "O" 
			},
			{
				"x": 0.9940659385,
				"y": 2.1685215694,
				"z": 1.2612538614,
				"element": "C" 
			},
			{
				"x": -0.2305312569,
				"y": 1.5541817908,
				"z": 1.5634749149,
				"element": "C" 
			},
			{
				"x": -1.26361414,
				"y": 2.2890657142,
				"z": 2.1438952937,
				"element": "C" 
			},
			{
				"x": -1.0826298659,
				"y": 3.6439308079,
				"z": 2.4280081693,
				"element": "C" 
			},
			{
				"x": 0.1339396527,
				"y": 4.2652392435,
				"z": 2.1285911156,
				"element": "C" 
			},
			{
				"x": 1.16440469,
				"y": 3.532720163,
				"z": 1.5488636424,
				"element": "C" 
			},
			{
				"x": -0.0324932735,
				"y": -0.2215790743,
				"z": -2.7983450934,
				"element": "H" 
			},
			{
				"x": -0.5063692289,
				"y": -3.5669711361,
				"z": -3.7782170572,
				"element": "H" 
			},
			{
				"x": 0.4576272357,
				"y": -5.4519932888,
				"z": -2.4602097504,
				"element": "H" 
			},
			{
				"x": 2.1448730921,
				"y": -2.6704993629,
				"z": 0.3238337143,
				"element": "H" 
			},
			{
				"x": 3.0454049001,
				"y": -0.437001494,
				"z": 0.2311585104,
				"element": "H" 
			},
			{
				"x": 1.5955992842,
				"y": -0.5969547061,
				"z": 1.2246763355,
				"element": "H" 
			},
			{
				"x": -0.3914771575,
				"y": 0.503923143,
				"z": 1.3428386935,
				"element": "H" 
			},
			{
				"x": -2.2086978064,
				"y": 1.8056126372,
				"z": 2.3724781963,
				"element": "H" 
			},
			{
				"x": -1.8879640966,
				"y": 4.2151814399,
				"z": 2.8809257942,
				"element": "H" 
			},
			{
				"x": 0.2745285569,
				"y": 5.3196160225,
				"z": 2.3476875716,
				"element": "H" 
			},
			{
				"x": 2.1167849875,
				"y": 3.9916830858,
				"z": 1.3061168178,
				"element": "H" 
			}
		],
		 "valence_orbital": [ 
			{
				"type": "occ",
				"energy": -0.28365,
				"method": "rhf"
			},
			{
				"type": "occ",
				"energy": -0.26502,
				"method": "rhf"
			},
			{
				"type": "occ",
				"energy": -0.26185,
				"method": "rhf"
			},
			{
				"type": "occ",
				"energy": -0.25714,
				"method": "rhf"
			},
			{
				"type": "occ",
				"energy": -0.2356,
				"method": "rhf"
			},
			{
				"type": "unocc",
				"energy": -0.08092,
				"method": "rhf"
			},
			{
				"type": "unocc",
				"energy": -0.06324,
				"method": "rhf"
			},
			{
				"type": "unocc",
				"energy": -0.01591,
				"method": "rhf"
			},
			{
				"type": "unocc",
				"energy": -0.01342,
				"method": "rhf"
			},
			{
				"type": "unocc",
				"energy": 0.01569,
				"method": "rhf"
			}
		],
		"cosmo_sigma_profile": { 
			"-0.025": 0.0,
			"-0.024": 0.0,
			"-0.023": 0.0,
			"-0.022": 0.0,
			"-0.021": 0.0,
			"-0.02": 0.0,
			"-0.019": 0.0,
			"-0.018": 0.0,
			"-0.017": 0.0,
			"-0.016": 0.0,
			"-0.015": 0.0,
			"-0.014": 0.0,
			"-0.013": 0.0,
			"-0.012": 0.0,
			"-0.011": 0.197340376012,
			"-0.01": 1.1798235191,
			"-0.009": 5.47440551631,
			"-0.008": 9.61368319582,
			"-0.007": 11.837686275,
			"-0.006": 17.3487198992,
			"-0.005": 18.2207383964,
			"-0.004": 20.4308276471,
			"-0.003": 15.4205240057,
			"-0.002": 16.0095570029,
			"-0.001": 17.200778554,
			"0.0": 19.1109484605,
			"0.001": 28.3089145249,
			"0.002": 27.0239663843,
			"0.003": 21.1011583435,
			"0.004": 24.5916738163,
			"0.005": 12.2088573106,
			"0.006": 5.47780552855,
			"0.007": 4.15375168099,
			"0.008": 5.13946958777,
			"0.009": 5.30166836702,
			"0.01": 5.07306855612,
			"0.011": 4.57134558005,
			"0.012": 2.66569434822,
			"0.013": 0.298866703725,
			"0.014": 0.0,
			"0.015": 0.0,
			"0.016": 0.0,
			"0.017": 0.0,
			"0.018": 0.0,
			"0.019": 0.0,
			"0.02": 0.0,
			"0.021": 0.0,
			"0.022": 0.0,
			"0.023": 0.0,
			"0.024": 0.0,
			"0.025": 0.0
		}
	}
}
