{
	 "smiles": "OC(=O)C1=CC(Br)=C(F)C=C1", 
	 "Tm": 412.65, 
	 "num_atms": 15, 
	 "gaussian": { 
		 "optdone": 1, 
		 "sigma_profile": "yes", 
		 "theory": "DFT", 
		 "functional": "B3LYP", 
		 "basiset": "6-31G**", 
		 "properties": { 
			 "R2extent": 4944.5697, 
			 "electric_dipole_moment_norm": 2.6652287444, 
			 "electric_quadrupole_moment_norm": 3.98366109251, 
			 "total_energy": -3090.85601238, 
			 "HOMO_LUMO_gap": 0.19766, 
			 "cosmo_polarized_energy": -8.71, 
			 "cosmo_cavitation_energy": 23.04, 
			 "cosmo_dispersion_energy": -17.35, 
			 "cosmo_repulsion_energy": 1.37, 
			 "cosmo_total_nonelectrostatic_energy": 7.06, 
			 "SMD_solvation_energy": 4.64 
		},
		"coords": [
			{
				"x": -0.2104020874,
				"y": 2.3510113319,
				"z": 0.7279949234,
				"element": "O" 
			},
			{
				"x": 1.0135713899,
				"y": 1.9326092793,
				"z": 0.3222145381,
				"element": "C" 
			},
			{
				"x": 1.8706694051,
				"y": 2.7042812892,
				"z": -0.0585332984,
				"element": "O" 
			},
			{
				"x": 1.1734820837,
				"y": 0.4562122511,
				"z": 0.3962296725,
				"element": "C" 
			},
			{
				"x": 2.4047825984,
				"y": -0.0809111675,
				"z": -0.0021828121,
				"element": "C" 
			},
			{
				"x": 2.6121590891,
				"y": -1.4536857051,
				"z": 0.0454473545,
				"element": "C" 
			},
			{
				"x": 4.2690046917,
				"y": -2.2116046344,
				"z": -0.4874401913,
				"element": "Br" 
			},
			{
				"x": 1.5828209254,
				"y": -2.2863179719,
				"z": 0.4931570784,
				"element": "C" 
			},
			{
				"x": 1.7718757376,
				"y": -3.610213682,
				"z": 0.5430732186,
				"element": "F" 
			},
			{
				"x": 0.3555373837,
				"y": -1.7648864963,
				"z": 0.891484823,
				"element": "C" 
			},
			{
				"x": 0.1490850547,
				"y": -0.3896320007,
				"z": 0.8432988364,
				"element": "C" 
			},
			{
				"x": -0.2041122719,
				"y": 3.3181317976,
				"z": 0.638622145,
				"element": "H" 
			},
			{
				"x": 3.1861584528,
				"y": 0.5867862249,
				"z": -0.3452220479,
				"element": "H" 
			},
			{
				"x": -0.4150550937,
				"y": -2.4477954111,
				"z": 1.2320138602,
				"element": "H" 
			},
			{
				"x": -0.800977359,
				"y": 0.0310148949,
				"z": 1.1501418995,
				"element": "H" 
			}
		],
		 "valence_orbital": [ 
			{
				"type": "occ",
				"energy": -0.3267,
				"method": "rhf"
			},
			{
				"type": "occ",
				"energy": -0.29777,
				"method": "rhf"
			},
			{
				"type": "occ",
				"energy": -0.28748,
				"method": "rhf"
			},
			{
				"type": "occ",
				"energy": -0.27391,
				"method": "rhf"
			},
			{
				"type": "occ",
				"energy": -0.25694,
				"method": "rhf"
			},
			{
				"type": "unocc",
				"energy": -0.05928,
				"method": "rhf"
			},
			{
				"type": "unocc",
				"energy": -0.03309,
				"method": "rhf"
			},
			{
				"type": "unocc",
				"energy": -0.00619,
				"method": "rhf"
			},
			{
				"type": "unocc",
				"energy": 0.04567,
				"method": "rhf"
			},
			{
				"type": "unocc",
				"energy": 0.0714,
				"method": "rhf"
			}
		],
		"cosmo_sigma_profile": { 
			"-0.025": 0.0,
			"-0.024": 0.0,
			"-0.023": 0.0,
			"-0.022": 0.0,
			"-0.021": 0.0,
			"-0.02": 0.0,
			"-0.019": 0.217803689097,
			"-0.018": 1.01451661328,
			"-0.017": 0.55376088148,
			"-0.016": 1.04502571205,
			"-0.015": 0.857642819736,
			"-0.014": 0.179617346429,
			"-0.013": 0.736144226006,
			"-0.012": 1.0133347995,
			"-0.011": 0.968278653252,
			"-0.01": 0.715983123205,
			"-0.009": 0.973210455332,
			"-0.008": 3.20702233952,
			"-0.007": 5.41864506191,
			"-0.006": 6.08358009076,
			"-0.005": 5.84585522567,
			"-0.004": 6.37090843918,
			"-0.003": 9.60215672946,
			"-0.002": 14.180059363,
			"-0.001": 19.0820594554,
			"0.0": 23.6841047216,
			"0.001": 18.6490956851,
			"0.002": 13.4619518369,
			"0.003": 18.7964802442,
			"0.004": 14.756221375,
			"0.005": 3.58017868065,
			"0.006": 3.27507932006,
			"0.007": 2.64327676663,
			"0.008": 1.13096311086,
			"0.009": 1.87211508638,
			"0.01": 2.20937558928,
			"0.011": 4.51601022596,
			"0.012": 2.27483137108,
			"0.013": 0.0,
			"0.014": 0.0,
			"0.015": 0.0,
			"0.016": 0.0,
			"0.017": 0.0,
			"0.018": 0.0,
			"0.019": 0.0,
			"0.02": 0.0,
			"0.021": 0.0,
			"0.022": 0.0,
			"0.023": 0.0,
			"0.024": 0.0,
			"0.025": 0.0
		}
	}
}
