{
	 "smiles": "CN(C)C=NC1=C(C)C=C(Cl)C=C1", 
	 "Tm": 308.15, 
	 "num_atms": 26, 
	 "gaussian": { 
		 "optdone": 1, 
		 "sigma_profile": "yes", 
		 "theory": "DFT", 
		 "functional": "B3LYP", 
		 "basiset": "6-31G**", 
		 "properties": { 
			 "R2extent": 4548.4753, 
			 "electric_dipole_moment_norm": 5.63906987454, 
			 "electric_quadrupole_moment_norm": 9.75695365726, 
			 "total_energy": -958.597774393, 
			 "HOMO_LUMO_gap": 0.1872, 
			 "cosmo_polarized_energy": -8.88, 
			 "cosmo_cavitation_energy": 31.26, 
			 "cosmo_dispersion_energy": -22.41, 
			 "cosmo_repulsion_energy": 1.8, 
			 "cosmo_total_nonelectrostatic_energy": 10.64, 
			 "SMD_solvation_energy": 4.8 
		},
		"coords": [
			{
				"x": 2.0876137859,
				"y": -0.323621044,
				"z": -2.7669291202,
				"element": "C" 
			},
			{
				"x": 1.9642305923,
				"y": 0.9109475562,
				"z": -2.0099934231,
				"element": "N" 
			},
			{
				"x": 2.803095112,
				"y": 2.022980432,
				"z": -2.413253782,
				"element": "C" 
			},
			{
				"x": 1.3193814903,
				"y": 0.9236419618,
				"z": -0.8098113446,
				"element": "C" 
			},
			{
				"x": 0.7635948668,
				"y": -0.1141761156,
				"z": -0.290903127,
				"element": "N" 
			},
			{
				"x": -0.016570887,
				"y": 0.0316643198,
				"z": 0.8632890246,
				"element": "C" 
			},
			{
				"x": 0.0593804679,
				"y": -0.9817196432,
				"z": 1.8508156648,
				"element": "C" 
			},
			{
				"x": 0.9926617935,
				"y": -2.1504159875,
				"z": 1.6622949855,
				"element": "C" 
			},
			{
				"x": -0.7262947734,
				"y": -0.8715834601,
				"z": 2.9991483574,
				"element": "C" 
			},
			{
				"x": -1.5842968248,
				"y": 0.2150815013,
				"z": 3.1734056293,
				"element": "C" 
			},
			{
				"x": -2.5666365692,
				"y": 0.3162801866,
				"z": 4.6342633285,
				"element": "Cl" 
			},
			{
				"x": -1.6867329981,
				"y": 1.2072962606,
				"z": 2.2044074862,
				"element": "C" 
			},
			{
				"x": -0.905737809,
				"y": 1.1037239272,
				"z": 1.0536850355,
				"element": "C" 
			},
			{
				"x": 1.3010177441,
				"y": -1.0075660286,
				"z": -2.4497406465,
				"element": "H" 
			},
			{
				"x": 3.0608252211,
				"y": -0.8055132013,
				"z": -2.596915235,
				"element": "H" 
			},
			{
				"x": 1.9886982959,
				"y": -0.1110759318,
				"z": -3.8369942795,
				"element": "H" 
			},
			{
				"x": 2.621138785,
				"y": 2.2762392308,
				"z": -3.4642550479,
				"element": "H" 
			},
			{
				"x": 3.8726198083,
				"y": 1.793110612,
				"z": -2.2993166759,
				"element": "H" 
			},
			{
				"x": 2.5749189449,
				"y": 2.900993092,
				"z": -1.8041065595,
				"element": "H" 
			},
			{
				"x": 1.3140234557,
				"y": 1.9103483414,
				"z": -0.3281326227,
				"element": "H" 
			},
			{
				"x": 0.8549524757,
				"y": -2.8968946718,
				"z": 2.4492805325,
				"element": "H" 
			},
			{
				"x": 2.0406273945,
				"y": -1.829216974,
				"z": 1.6760892807,
				"element": "H" 
			},
			{
				"x": 0.8290694842,
				"y": -2.6254281312,
				"z": 0.6899217427,
				"element": "H" 
			},
			{
				"x": -0.6712064291,
				"y": -1.6382306175,
				"z": 3.7654469212,
				"element": "H" 
			},
			{
				"x": -2.3732744013,
				"y": 2.0363256177,
				"z": 2.3370887661,
				"element": "H" 
			},
			{
				"x": -1.0120990264,
				"y": 1.8496087671,
				"z": 0.271215109,
				"element": "H" 
			}
		],
		 "valence_orbital": [ 
			{
				"type": "occ",
				"energy": -0.2976,
				"method": "rhf"
			},
			{
				"type": "occ",
				"energy": -0.27419,
				"method": "rhf"
			},
			{
				"type": "occ",
				"energy": -0.24226,
				"method": "rhf"
			},
			{
				"type": "occ",
				"energy": -0.23832,
				"method": "rhf"
			},
			{
				"type": "occ",
				"energy": -0.19745,
				"method": "rhf"
			},
			{
				"type": "unocc",
				"energy": -0.01025,
				"method": "rhf"
			},
			{
				"type": "unocc",
				"energy": 0.00414,
				"method": "rhf"
			},
			{
				"type": "unocc",
				"energy": 0.04084,
				"method": "rhf"
			},
			{
				"type": "unocc",
				"energy": 0.04701,
				"method": "rhf"
			},
			{
				"type": "unocc",
				"energy": 0.08098,
				"method": "rhf"
			}
		],
		"cosmo_sigma_profile": { 
			"-0.025": 0.0,
			"-0.024": 0.0,
			"-0.023": 0.0,
			"-0.022": 0.0,
			"-0.021": 0.0,
			"-0.02": 0.0,
			"-0.019": 0.0,
			"-0.018": 0.0,
			"-0.017": 0.0,
			"-0.016": 0.0,
			"-0.015": 0.0,
			"-0.014": 0.0,
			"-0.013": 0.0,
			"-0.012": 0.0,
			"-0.011": 0.0,
			"-0.01": 0.0,
			"-0.009": 0.0154619705064,
			"-0.008": 1.39976697824,
			"-0.007": 3.51957924375,
			"-0.006": 8.72370114415,
			"-0.005": 17.1849052063,
			"-0.004": 21.4763605892,
			"-0.003": 25.3343364356,
			"-0.002": 26.7814704028,
			"-0.001": 19.756775204,
			"0.0": 18.171435539,
			"0.001": 16.6056495946,
			"0.002": 14.7881873897,
			"0.003": 17.3613950003,
			"0.004": 19.4824136844,
			"0.005": 24.2393876191,
			"0.006": 6.38649866208,
			"0.007": 1.71276571366,
			"0.008": 2.06506889152,
			"0.009": 2.01942817339,
			"0.01": 1.79695867877,
			"0.011": 0.889406730805,
			"0.012": 0.0444505741721,
			"0.013": 0.0,
			"0.014": 0.0,
			"0.015": 0.0,
			"0.016": 0.0,
			"0.017": 0.0,
			"0.018": 0.0,
			"0.019": 0.0,
			"0.02": 0.0,
			"0.021": 0.0,
			"0.022": 0.0,
			"0.023": 0.0,
			"0.024": 0.0,
			"0.025": 0.0
		}
	}
}
