{
	 "smiles": "CCNC(=O)C1=C(O)C(C)=CC=C1", 
	 "Tm": 338.15, 
	 "num_atms": 26, 
	 "gaussian": { 
		 "optdone": 1, 
		 "sigma_profile": "yes", 
		 "theory": "DFT", 
		 "functional": "B3LYP", 
		 "basiset": "6-31G**", 
		 "properties": { 
			 "R2extent": 2797.4451, 
			 "electric_dipole_moment_norm": 4.88612170745, 
			 "electric_quadrupole_moment_norm": 17.6960254648, 
			 "total_energy": -594.116659245, 
			 "HOMO_LUMO_gap": 0.20618, 
			 "cosmo_polarized_energy": -16.2, 
			 "cosmo_cavitation_energy": 29.0, 
			 "cosmo_dispersion_energy": -20.83, 
			 "cosmo_repulsion_energy": 1.68, 
			 "cosmo_total_nonelectrostatic_energy": 9.86, 
			 "SMD_solvation_energy": 5.45 
		},
		"coords": [
			{
				"x": -0.2547736505,
				"y": -3.68274535,
				"z": -0.3596725425,
				"element": "C" 
			},
			{
				"x": -0.2103759468,
				"y": -2.1990366003,
				"z": -0.7319607481,
				"element": "C" 
			},
			{
				"x": -1.5430277681,
				"y": -1.6794278034,
				"z": -1.0036991412,
				"element": "N" 
			},
			{
				"x": -2.1729375715,
				"y": -0.5780215145,
				"z": -0.4944892291,
				"element": "C" 
			},
			{
				"x": -3.3779083064,
				"y": -0.4046886749,
				"z": -0.6632949143,
				"element": "O" 
			},
			{
				"x": -1.3736333336,
				"y": 0.4093987094,
				"z": 0.3190593555,
				"element": "C" 
			},
			{
				"x": -0.1995363988,
				"y": 1.0326501278,
				"z": -0.1353731628,
				"element": "C" 
			},
			{
				"x": 0.2827409877,
				"y": 0.6639289483,
				"z": -1.3635745835,
				"element": "O" 
			},
			{
				"x": 0.4493545861,
				"y": 2.015773503,
				"z": 0.6377713521,
				"element": "C" 
			},
			{
				"x": 1.7093264456,
				"y": 2.6748778257,
				"z": 0.1258540372,
				"element": "C" 
			},
			{
				"x": -0.1077059996,
				"y": 2.3645079113,
				"z": 1.8703001002,
				"element": "C" 
			},
			{
				"x": -1.2865025626,
				"y": 1.7737294015,
				"z": 2.3284320827,
				"element": "C" 
			},
			{
				"x": -1.9192488989,
				"y": 0.8154713827,
				"z": 1.5437172312,
				"element": "C" 
			},
			{
				"x": 0.7564651219,
				"y": -4.061814358,
				"z": -0.1799852804,
				"element": "H" 
			},
			{
				"x": -0.8513782312,
				"y": -3.8443262098,
				"z": 0.5432397855,
				"element": "H" 
			},
			{
				"x": -0.6923803161,
				"y": -4.2814176931,
				"z": -1.166950667,
				"element": "H" 
			},
			{
				"x": 0.2165073885,
				"y": -1.6211455061,
				"z": 0.0903990473,
				"element": "H" 
			},
			{
				"x": 0.4434672562,
				"y": -2.0449567593,
				"z": -1.5997668393,
				"element": "H" 
			},
			{
				"x": -2.1703199785,
				"y": -2.2632673399,
				"z": -1.5434261873,
				"element": "H" 
			},
			{
				"x": 1.0533259389,
				"y": 1.2033831384,
				"z": -1.5793397916,
				"element": "H" 
			},
			{
				"x": 2.0938681985,
				"y": 3.3926591391,
				"z": 0.8540105012,
				"element": "H" 
			},
			{
				"x": 1.5384179645,
				"y": 3.2293110823,
				"z": -0.8076923793,
				"element": "H" 
			},
			{
				"x": 2.5116131613,
				"y": 1.9481136313,
				"z": -0.0628186421,
				"element": "H" 
			},
			{
				"x": 0.389913229,
				"y": 3.1202098433,
				"z": 2.4730727155,
				"element": "H" 
			},
			{
				"x": -1.7104446285,
				"y": 2.0684350483,
				"z": 3.2831187137,
				"element": "H" 
			},
			{
				"x": -2.8540266872,
				"y": 0.3644981168,
				"z": 1.8600691865,
				"element": "H" 
			}
		],
		 "valence_orbital": [ 
			{
				"type": "occ",
				"energy": -0.33455,
				"method": "rhf"
			},
			{
				"type": "occ",
				"energy": -0.25532,
				"method": "rhf"
			},
			{
				"type": "occ",
				"energy": -0.23657,
				"method": "rhf"
			},
			{
				"type": "occ",
				"energy": -0.22983,
				"method": "rhf"
			},
			{
				"type": "occ",
				"energy": -0.22176,
				"method": "rhf"
			},
			{
				"type": "unocc",
				"energy": -0.01558,
				"method": "rhf"
			},
			{
				"type": "unocc",
				"energy": 0.00677,
				"method": "rhf"
			},
			{
				"type": "unocc",
				"energy": 0.05367,
				"method": "rhf"
			},
			{
				"type": "unocc",
				"energy": 0.06189,
				"method": "rhf"
			},
			{
				"type": "unocc",
				"energy": 0.09508,
				"method": "rhf"
			}
		],
		"cosmo_sigma_profile": { 
			"-0.025": 0.0,
			"-0.024": 0.0,
			"-0.023": 0.0,
			"-0.022": 0.0,
			"-0.021": 0.0,
			"-0.02": 0.0,
			"-0.019": 0.0,
			"-0.018": 0.0,
			"-0.017": 0.0252732146347,
			"-0.016": 0.502269607271,
			"-0.015": 0.774313875232,
			"-0.014": 1.08833548606,
			"-0.013": 1.07863994918,
			"-0.012": 1.99783323251,
			"-0.011": 2.24060837007,
			"-0.01": 2.05271900173,
			"-0.009": 2.83566883503,
			"-0.008": 2.14531060323,
			"-0.007": 1.96665858689,
			"-0.006": 7.29839431327,
			"-0.005": 13.4735199263,
			"-0.004": 16.5254576821,
			"-0.003": 22.7397153011,
			"-0.002": 23.3573986865,
			"-0.001": 22.1610816687,
			"0.0": 20.3162330635,
			"0.001": 13.1816660676,
			"0.002": 8.68503609914,
			"0.003": 10.787754612,
			"0.004": 11.6185379463,
			"0.005": 9.54756122121,
			"0.006": 5.87166352621,
			"0.007": 2.73861018508,
			"0.008": 2.84146679124,
			"0.009": 2.82593009583,
			"0.01": 2.35162435625,
			"0.011": 2.16345941254,
			"0.012": 1.89138996615,
			"0.013": 2.09703684732,
			"0.014": 5.91495654968,
			"0.015": 3.00470658231,
			"0.016": 0.201545957767,
			"0.017": 0.0,
			"0.018": 0.0,
			"0.019": 0.0,
			"0.02": 0.0,
			"0.021": 0.0,
			"0.022": 0.0,
			"0.023": 0.0,
			"0.024": 0.0,
			"0.025": 0.0
		}
	}
}
