{
	 "smiles": "OC(=O)CSC1=NN=C(O1)C1=CC=C(Cl)C=C1", 
	 "Tm": 428.15, 
	 "num_atms": 24, 
	 "gaussian": { 
		 "optdone": 1, 
		 "sigma_profile": "yes", 
		 "theory": "DFT", 
		 "functional": "B3LYP", 
		 "basiset": "6-31G**", 
		 "properties": { 
			 "R2extent": 6891.4926, 
			 "electric_dipole_moment_norm": 5.1905602135, 
			 "electric_quadrupole_moment_norm": 21.1632271336, 
			 "total_energy": -1578.81134463, 
			 "HOMO_LUMO_gap": 0.17192, 
			 "cosmo_polarized_energy": -19.43, 
			 "cosmo_cavitation_energy": 34.13, 
			 "cosmo_dispersion_energy": -24.73, 
			 "cosmo_repulsion_energy": 1.89, 
			 "cosmo_total_nonelectrostatic_energy": 11.29, 
			 "SMD_solvation_energy": 4.53 
		},
		"coords": [
			{
				"x": 4.339042396,
				"y": -1.0963942602,
				"z": 1.0846116317,
				"element": "O" 
			},
			{
				"x": 3.5459090174,
				"y": -1.2402986184,
				"z": -0.0012944603,
				"element": "C" 
			},
			{
				"x": 3.3650286216,
				"y": -0.3719154939,
				"z": -0.818747322,
				"element": "O" 
			},
			{
				"x": 2.9135534561,
				"y": -2.6249287851,
				"z": 0.005052389,
				"element": "C" 
			},
			{
				"x": 2.1649996074,
				"y": -3.1307896009,
				"z": -1.577935486,
				"element": "S" 
			},
			{
				"x": 0.8411650367,
				"y": -1.9894320074,
				"z": -1.6937966323,
				"element": "C" 
			},
			{
				"x": 0.203815426,
				"y": -1.6693749783,
				"z": -2.7761716432,
				"element": "N" 
			},
			{
				"x": -0.8229384212,
				"y": -0.8161173803,
				"z": -2.3765112986,
				"element": "N" 
			},
			{
				"x": -0.7206768496,
				"y": -0.6743094191,
				"z": -1.0895398204,
				"element": "C" 
			},
			{
				"x": 0.3203084241,
				"y": -1.4103999268,
				"z": -0.5743585251,
				"element": "O" 
			},
			{
				"x": -1.5372094078,
				"y": 0.1363689579,
				"z": -0.1968011123,
				"element": "C" 
			},
			{
				"x": -2.5903526089,
				"y": 0.8942466665,
				"z": -0.7357604364,
				"element": "C" 
			},
			{
				"x": -3.3895257828,
				"y": 1.6750786626,
				"z": 0.0910979881,
				"element": "C" 
			},
			{
				"x": -3.1343981078,
				"y": 1.6993092643,
				"z": 1.4644166868,
				"element": "C" 
			},
			{
				"x": -4.1405385919,
				"y": 2.6840167896,
				"z": 2.5108249108,
				"element": "Cl" 
			},
			{
				"x": -2.0932936756,
				"y": 0.9543048893,
				"z": 2.0182355858,
				"element": "C" 
			},
			{
				"x": -1.2967638067,
				"y": 0.1735656672,
				"z": 1.1844927628,
				"element": "C" 
			},
			{
				"x": 4.6935863963,
				"y": -0.1914459681,
				"z": 1.0504144174,
				"element": "H" 
			},
			{
				"x": 2.1753117571,
				"y": -2.6709346034,
				"z": 0.8104870719,
				"element": "H" 
			},
			{
				"x": 3.6759373448,
				"y": -3.3767729459,
				"z": 0.2247631205,
				"element": "H" 
			},
			{
				"x": -2.7707543533,
				"y": 0.8621065892,
				"z": -1.8047172151,
				"element": "H" 
			},
			{
				"x": -4.2030015399,
				"y": 2.2616026774,
				"z": -0.3206884898,
				"element": "H" 
			},
			{
				"x": -1.9106194075,
				"y": 0.9858420732,
				"z": 3.0863789553,
				"element": "H" 
			},
			{
				"x": -0.4856849308,
				"y": -0.4083282494,
				"z": 1.6083469214,
				"element": "H" 
			}
		],
		 "valence_orbital": [ 
			{
				"type": "occ",
				"energy": -0.30292,
				"method": "rhf"
			},
			{
				"type": "occ",
				"energy": -0.28228,
				"method": "rhf"
			},
			{
				"type": "occ",
				"energy": -0.27812,
				"method": "rhf"
			},
			{
				"type": "occ",
				"energy": -0.27148,
				"method": "rhf"
			},
			{
				"type": "occ",
				"energy": -0.23228,
				"method": "rhf"
			},
			{
				"type": "unocc",
				"energy": -0.06036,
				"method": "rhf"
			},
			{
				"type": "unocc",
				"energy": -0.02704,
				"method": "rhf"
			},
			{
				"type": "unocc",
				"energy": -0.01873,
				"method": "rhf"
			},
			{
				"type": "unocc",
				"energy": -0.00387,
				"method": "rhf"
			},
			{
				"type": "unocc",
				"energy": 0.01558,
				"method": "rhf"
			}
		],
		"cosmo_sigma_profile": { 
			"-0.025": 0.0,
			"-0.024": 0.0,
			"-0.023": 0.0,
			"-0.022": 0.0,
			"-0.021": 0.0,
			"-0.02": 0.0,
			"-0.019": 0.509235199489,
			"-0.018": 1.040105425,
			"-0.017": 1.09988949079,
			"-0.016": 0.273863376854,
			"-0.015": 0.935753698238,
			"-0.014": 0.846590142862,
			"-0.013": 0.811026673713,
			"-0.012": 1.10254034015,
			"-0.011": 1.68242598604,
			"-0.01": 3.30030279945,
			"-0.009": 4.19047715292,
			"-0.008": 7.90964158563,
			"-0.007": 12.279401758,
			"-0.006": 12.2572524254,
			"-0.005": 10.4642686237,
			"-0.004": 12.1136121991,
			"-0.003": 17.0501639895,
			"-0.002": 17.4613140623,
			"-0.001": 17.7240610761,
			"0.0": 22.8989107778,
			"0.001": 26.7695284128,
			"0.002": 24.0006202658,
			"0.003": 15.3285096345,
			"0.004": 17.3368052704,
			"0.005": 9.31029276685,
			"0.006": 5.58223792503,
			"0.007": 4.49953530998,
			"0.008": 5.36596000111,
			"0.009": 5.14180681172,
			"0.01": 6.58386868102,
			"0.011": 6.71051769315,
			"0.012": 2.78184406358,
			"0.013": 2.2285812687,
			"0.014": 1.41906974355,
			"0.015": 0.143680053921,
			"0.016": 0.0,
			"0.017": 0.0,
			"0.018": 0.0,
			"0.019": 0.0,
			"0.02": 0.0,
			"0.021": 0.0,
			"0.022": 0.0,
			"0.023": 0.0,
			"0.024": 0.0,
			"0.025": 0.0
		}
	}
}
