{
	 "smiles": "NCCNS(=O)(=O)C1=C(Br)C=CC(Br)=C1", 
	 "Tm": 444.15, 
	 "num_atms": 25, 
	 "gaussian": { 
		 "optdone": 1, 
		 "sigma_profile": "yes", 
		 "theory": "DFT", 
		 "functional": "B3LYP", 
		 "basiset": "6-31G**", 
		 "properties": { 
			 "R2extent": 7792.0405, 
			 "electric_dipole_moment_norm": 4.61311791959, 
			 "electric_quadrupole_moment_norm": 22.734939844, 
			 "total_energy": -6111.73966211, 
			 "HOMO_LUMO_gap": 0.20008, 
			 "cosmo_polarized_energy": -17.03, 
			 "cosmo_cavitation_energy": 34.71, 
			 "cosmo_dispersion_energy": -25.76, 
			 "cosmo_repulsion_energy": 2.02, 
			 "cosmo_total_nonelectrostatic_energy": 10.97, 
			 "SMD_solvation_energy": 2.09 
		},
		"coords": [
			{
				"x": 3.1175534047,
				"y": 1.7924999987,
				"z": -2.6959156606,
				"element": "N" 
			},
			{
				"x": 2.7618544374,
				"y": 2.2978813573,
				"z": -1.3658628346,
				"element": "C" 
			},
			{
				"x": 1.3730181739,
				"y": 1.7834444038,
				"z": -0.9771902163,
				"element": "C" 
			},
			{
				"x": 1.391718763,
				"y": 0.3174114391,
				"z": -1.1031524273,
				"element": "N" 
			},
			{
				"x": -0.0661860678,
				"y": -0.5120149466,
				"z": -1.0850168057,
				"element": "S" 
			},
			{
				"x": -1.1722691676,
				"y": 0.4473510321,
				"z": -1.1479821567,
				"element": "O" 
			},
			{
				"x": 0.0618666812,
				"y": -1.6014290194,
				"z": -2.0554196995,
				"element": "O" 
			},
			{
				"x": -0.0853581855,
				"y": -1.2446122496,
				"z": 0.5760058282,
				"element": "C" 
			},
			{
				"x": -1.1960733304,
				"y": -1.9665468711,
				"z": 1.0375933529,
				"element": "C" 
			},
			{
				"x": -2.7522983105,
				"y": -2.2520884495,
				"z": -0.0163994016,
				"element": "Br" 
			},
			{
				"x": -1.1775529455,
				"y": -2.5206427431,
				"z": 2.3183071801,
				"element": "C" 
			},
			{
				"x": -0.0660079149,
				"y": -2.3671996233,
				"z": 3.1443570601,
				"element": "C" 
			},
			{
				"x": 1.0349200949,
				"y": -1.6573044667,
				"z": 2.6734533478,
				"element": "C" 
			},
			{
				"x": 2.569924587,
				"y": -1.4442240848,
				"z": 3.7859250262,
				"element": "Br" 
			},
			{
				"x": 1.0353268664,
				"y": -1.0995953946,
				"z": 1.3980007302,
				"element": "C" 
			},
			{
				"x": 2.6108122029,
				"y": 2.2962447013,
				"z": -3.4197849759,
				"element": "H" 
			},
			{
				"x": 4.1074790558,
				"y": 1.919816697,
				"z": -2.8807961747,
				"element": "H" 
			},
			{
				"x": 3.4996498623,
				"y": 1.9125607477,
				"z": -0.6538122424,
				"element": "H" 
			},
			{
				"x": 2.7627008134,
				"y": 3.3957482972,
				"z": -1.2764022004,
				"element": "H" 
			},
			{
				"x": 1.1460033127,
				"y": 2.0638209688,
				"z": 0.0560600816,
				"element": "H" 
			},
			{
				"x": 0.6028354826,
				"y": 2.2330324231,
				"z": -1.6165449198,
				"element": "H" 
			},
			{
				"x": 1.9241173072,
				"y": 0.039687861,
				"z": -1.9313908135,
				"element": "H" 
			},
			{
				"x": -2.03993147,
				"y": -3.0768592585,
				"z": 2.667274382,
				"element": "H" 
			},
			{
				"x": -0.0598012886,
				"y": -2.7990530436,
				"z": 4.1384105,
				"element": "H" 
			},
			{
				"x": 1.8944976355,
				"y": -0.5589297763,
				"z": 1.0240830397,
				"element": "H" 
			}
		],
		 "valence_orbital": [ 
			{
				"type": "occ",
				"energy": -0.2899,
				"method": "rhf"
			},
			{
				"type": "occ",
				"energy": -0.27834,
				"method": "rhf"
			},
			{
				"type": "occ",
				"energy": -0.27364,
				"method": "rhf"
			},
			{
				"type": "occ",
				"energy": -0.26207,
				"method": "rhf"
			},
			{
				"type": "occ",
				"energy": -0.24644,
				"method": "rhf"
			},
			{
				"type": "unocc",
				"energy": -0.04636,
				"method": "rhf"
			},
			{
				"type": "unocc",
				"energy": -0.035,
				"method": "rhf"
			},
			{
				"type": "unocc",
				"energy": -0.01483,
				"method": "rhf"
			},
			{
				"type": "unocc",
				"energy": 0.00425,
				"method": "rhf"
			},
			{
				"type": "unocc",
				"energy": 0.05384,
				"method": "rhf"
			}
		],
		"cosmo_sigma_profile": { 
			"-0.025": 0.0,
			"-0.024": 0.0,
			"-0.023": 0.0,
			"-0.022": 0.0,
			"-0.021": 0.0,
			"-0.02": 0.0,
			"-0.019": 0.0,
			"-0.018": 0.0,
			"-0.017": 0.0,
			"-0.016": 0.0,
			"-0.015": 0.0,
			"-0.014": 0.0,
			"-0.013": 0.0,
			"-0.012": 0.0,
			"-0.011": 0.86880064694,
			"-0.01": 2.74994639629,
			"-0.009": 4.67785438471,
			"-0.008": 7.61460493157,
			"-0.007": 7.78790798519,
			"-0.006": 10.0305387358,
			"-0.005": 17.9283125731,
			"-0.004": 23.7546230482,
			"-0.003": 22.1273323249,
			"-0.002": 19.575603292,
			"-0.001": 20.9982825411,
			"0.0": 30.6284376665,
			"0.001": 18.6176522685,
			"0.002": 14.5482745673,
			"0.003": 20.156904186,
			"0.004": 14.8098554228,
			"0.005": 4.11054284383,
			"0.006": 4.72900556762,
			"0.007": 4.0855155426,
			"0.008": 5.74021733179,
			"0.009": 4.40141662046,
			"0.01": 10.3521901853,
			"0.011": 10.5289620942,
			"0.012": 1.33527361539,
			"0.013": 0.0,
			"0.014": 0.0,
			"0.015": 0.0,
			"0.016": 0.0,
			"0.017": 0.0,
			"0.018": 0.0,
			"0.019": 0.0,
			"0.02": 0.0,
			"0.021": 0.0,
			"0.022": 0.0,
			"0.023": 0.0,
			"0.024": 0.0,
			"0.025": 0.0
		}
	}
}
