{
	 "smiles": "FC(F)(F)C1=NN=C(S)N1N1C=CC=C1", 
	 "Tm": 438.15, 
	 "num_atms": 20, 
	 "gaussian": { 
		 "optdone": 1, 
		 "sigma_profile": "yes", 
		 "theory": "DFT", 
		 "functional": "B3LYP", 
		 "basiset": "6-31G**", 
		 "properties": { 
			 "R2extent": 3604.5578, 
			 "electric_dipole_moment_norm": 3.58010141756, 
			 "electric_quadrupole_moment_norm": 11.7221423021, 
			 "total_energy": -1186.37575834, 
			 "HOMO_LUMO_gap": 0.2098, 
			 "cosmo_polarized_energy": -11.96, 
			 "cosmo_cavitation_energy": 28.49, 
			 "cosmo_dispersion_energy": -19.83, 
			 "cosmo_repulsion_energy": 1.46, 
			 "cosmo_total_nonelectrostatic_energy": 10.11, 
			 "SMD_solvation_energy": 4.86 
		},
		"coords": [
			{
				"x": 2.3311015916,
				"y": -1.7591071197,
				"z": 1.9224829538,
				"element": "F" 
			},
			{
				"x": 1.1693791189,
				"y": -1.5999171772,
				"z": 2.593300683,
				"element": "C" 
			},
			{
				"x": 0.4624132503,
				"y": -2.7412512046,
				"z": 2.4439646308,
				"element": "F" 
			},
			{
				"x": 1.4441143994,
				"y": -1.435196544,
				"z": 3.8877872203,
				"element": "F" 
			},
			{
				"x": 0.4038787029,
				"y": -0.4271132419,
				"z": 2.0586076015,
				"element": "C" 
			},
			{
				"x": 0.0376876287,
				"y": 0.6297238306,
				"z": 2.726361208,
				"element": "N" 
			},
			{
				"x": -0.6440717489,
				"y": 1.4656746669,
				"z": 1.8573411196,
				"element": "N" 
			},
			{
				"x": -0.6671824592,
				"y": 0.8810459585,
				"z": 0.6828036048,
				"element": "C" 
			},
			{
				"x": -1.3970692083,
				"y": 1.4808466852,
				"z": -0.7998786191,
				"element": "S" 
			},
			{
				"x": -0.0152866287,
				"y": -0.3308593181,
				"z": 0.7438396176,
				"element": "N" 
			},
			{
				"x": 0.1694824895,
				"y": -1.2303496398,
				"z": -0.2759445,
				"element": "N" 
			},
			{
				"x": 1.2709981367,
				"y": -1.2545322077,
				"z": -1.1207420916,
				"element": "C" 
			},
			{
				"x": 1.0949018496,
				"y": -2.3167863319,
				"z": -1.9689896892,
				"element": "C" 
			},
			{
				"x": -0.1368618882,
				"y": -2.9584178673,
				"z": -1.6261743106,
				"element": "C" 
			},
			{
				"x": -0.692232951,
				"y": -2.2772905367,
				"z": -0.5742439016,
				"element": "C" 
			},
			{
				"x": -1.8175449162,
				"y": 2.6094424611,
				"z": -0.1966180071,
				"element": "H" 
			},
			{
				"x": 2.0533512003,
				"y": -0.5185578134,
				"z": -1.0214093604,
				"element": "H" 
			},
			{
				"x": 1.7761282923,
				"y": -2.6091658968,
				"z": -2.755161432,
				"element": "H" 
			},
			{
				"x": -0.5643450634,
				"y": -3.8283505171,
				"z": -2.1037664673,
				"element": "H" 
			},
			{
				"x": -1.5974417964,
				"y": -2.420338186,
				"z": -0.0052602604,
				"element": "H" 
			}
		],
		 "valence_orbital": [ 
			{
				"type": "occ",
				"energy": -0.32836,
				"method": "rhf"
			},
			{
				"type": "occ",
				"energy": -0.29312,
				"method": "rhf"
			},
			{
				"type": "occ",
				"energy": -0.26355,
				"method": "rhf"
			},
			{
				"type": "occ",
				"energy": -0.25989,
				"method": "rhf"
			},
			{
				"type": "occ",
				"energy": -0.23876,
				"method": "rhf"
			},
			{
				"type": "unocc",
				"energy": -0.02896,
				"method": "rhf"
			},
			{
				"type": "unocc",
				"energy": -0.00963,
				"method": "rhf"
			},
			{
				"type": "unocc",
				"energy": 0.00431,
				"method": "rhf"
			},
			{
				"type": "unocc",
				"energy": 0.01104,
				"method": "rhf"
			},
			{
				"type": "unocc",
				"energy": 0.04262,
				"method": "rhf"
			}
		],
		"cosmo_sigma_profile": { 
			"-0.025": 0.0,
			"-0.024": 0.0,
			"-0.023": 0.0,
			"-0.022": 0.0,
			"-0.021": 0.0,
			"-0.02": 0.0,
			"-0.019": 0.0,
			"-0.018": 0.0,
			"-0.017": 0.0,
			"-0.016": 0.0,
			"-0.015": 0.0,
			"-0.014": 0.154656556544,
			"-0.013": 1.45452776721,
			"-0.012": 1.71593776766,
			"-0.011": 1.39958573879,
			"-0.01": 1.27671817489,
			"-0.009": 6.88770607079,
			"-0.008": 6.11557688804,
			"-0.007": 7.71659571038,
			"-0.006": 9.80948186088,
			"-0.005": 10.0369018402,
			"-0.004": 11.8917429562,
			"-0.003": 12.1347998725,
			"-0.002": 13.0570823791,
			"-0.001": 13.0199994679,
			"0.0": 17.4536814901,
			"0.001": 27.6239733099,
			"0.002": 30.3147088771,
			"0.003": 13.8911188128,
			"0.004": 10.1317580589,
			"0.005": 10.0690141509,
			"0.006": 6.66654531934,
			"0.007": 2.605439685,
			"0.008": 1.97108010427,
			"0.009": 2.59547246496,
			"0.01": 2.70559260014,
			"0.011": 3.44690525591,
			"0.012": 2.58781248325,
			"0.013": 2.38428419948,
			"0.014": 1.36784043,
			"0.015": 0.142791389726,
			"0.016": 0.0,
			"0.017": 0.0,
			"0.018": 0.0,
			"0.019": 0.0,
			"0.02": 0.0,
			"0.021": 0.0,
			"0.022": 0.0,
			"0.023": 0.0,
			"0.024": 0.0,
			"0.025": 0.0
		}
	}
}
