{
	 "smiles": "C[C@H]1CNC[C@@H](C)N1", 
	 "Tm": 382.65, 
	 "num_atms": 22, 
	 "gaussian": { 
		 "optdone": 1, 
		 "sigma_profile": "yes", 
		 "theory": "DFT", 
		 "functional": "B3LYP", 
		 "basiset": "6-31G**", 
		 "properties": { 
			 "R2extent": 1496.4202, 
			 "electric_dipole_moment_norm": 1.51931132754, 
			 "electric_quadrupole_moment_norm": 3.12038775315, 
			 "total_energy": -346.568620497, 
			 "HOMO_LUMO_gap": 0.29034, 
			 "cosmo_polarized_energy": -5.72, 
			 "cosmo_cavitation_energy": 22.29, 
			 "cosmo_dispersion_energy": -16.75, 
			 "cosmo_repulsion_energy": 1.39, 
			 "cosmo_total_nonelectrostatic_energy": 6.93, 
			 "SMD_solvation_energy": -0.26 
		},
		"coords": [
			{
				"x": -3.5084027473,
				"y": 1.2409418709,
				"z": -1.0072888948,
				"element": "C" 
			},
			{
				"x": -2.1830062544,
				"y": 0.5527948198,
				"z": -1.3285807819,
				"element": "C" 
			},
			{
				"x": -1.1862277664,
				"y": 1.5191405439,
				"z": -2.0393117272,
				"element": "C" 
			},
			{
				"x": 0.1761229919,
				"y": 1.2304018159,
				"z": -1.5793715096,
				"element": "N" 
			},
			{
				"x": 0.4391872291,
				"y": -0.2066208486,
				"z": -1.5726672483,
				"element": "C" 
			},
			{
				"x": -0.4035969179,
				"y": -0.8410227117,
				"z": -0.4216682239,
				"element": "C" 
			},
			{
				"x": 0.4159499494,
				"y": -1.0160596204,
				"z": 0.8563475082,
				"element": "C" 
			},
			{
				"x": -1.6023885348,
				"y": -0.0370391522,
				"z": -0.1176570867,
				"element": "N" 
			},
			{
				"x": -3.3562500018,
				"y": 2.0550211995,
				"z": -0.2880240581,
				"element": "H" 
			},
			{
				"x": -4.2160282103,
				"y": 0.5306892675,
				"z": -0.5715098032,
				"element": "H" 
			},
			{
				"x": -3.9556043968,
				"y": 1.6742488886,
				"z": -1.9088318876,
				"element": "H" 
			},
			{
				"x": -2.3906116473,
				"y": -0.2876221701,
				"z": -2.0052303916,
				"element": "H" 
			},
			{
				"x": -1.421695097,
				"y": 2.5609820405,
				"z": -1.7840629901,
				"element": "H" 
			},
			{
				"x": -1.3064460086,
				"y": 1.4187396107,
				"z": -3.1348597815,
				"element": "H" 
			},
			{
				"x": 0.8541787899,
				"y": 1.7215414717,
				"z": -2.1531376042,
				"element": "H" 
			},
			{
				"x": 0.1914779428,
				"y": -0.6924277443,
				"z": -2.5359833884,
				"element": "H" 
			},
			{
				"x": 1.508239822,
				"y": -0.3720978492,
				"z": -1.3999027491,
				"element": "H" 
			},
			{
				"x": -0.7507971293,
				"y": -1.829302538,
				"z": -0.7555963295,
				"element": "H" 
			},
			{
				"x": 1.2304215697,
				"y": -1.7319530578,
				"z": 0.70691614,
				"element": "H" 
			},
			{
				"x": 0.8587292258,
				"y": -0.0586005496,
				"z": 1.1564651844,
				"element": "H" 
			},
			{
				"x": -0.2164947066,
				"y": -1.376679221,
				"z": 1.6733085021,
				"element": "H" 
			},
			{
				"x": -1.3098581021,
				"y": 0.7304239336,
				"z": 0.4868471211,
				"element": "H" 
			}
		],
		 "valence_orbital": [ 
			{
				"type": "occ",
				"energy": -0.33514,
				"method": "rhf"
			},
			{
				"type": "occ",
				"energy": -0.33055,
				"method": "rhf"
			},
			{
				"type": "occ",
				"energy": -0.31651,
				"method": "rhf"
			},
			{
				"type": "occ",
				"energy": -0.21735,
				"method": "rhf"
			},
			{
				"type": "occ",
				"energy": -0.21044,
				"method": "rhf"
			},
			{
				"type": "unocc",
				"energy": 0.0799,
				"method": "rhf"
			},
			{
				"type": "unocc",
				"energy": 0.10983,
				"method": "rhf"
			},
			{
				"type": "unocc",
				"energy": 0.11213,
				"method": "rhf"
			},
			{
				"type": "unocc",
				"energy": 0.12084,
				"method": "rhf"
			},
			{
				"type": "unocc",
				"energy": 0.14838,
				"method": "rhf"
			}
		],
		"cosmo_sigma_profile": { 
			"-0.025": 0.0,
			"-0.024": 0.0,
			"-0.023": 0.0,
			"-0.022": 0.0,
			"-0.021": 0.0,
			"-0.02": 0.0,
			"-0.019": 0.0,
			"-0.018": 0.0,
			"-0.017": 0.0,
			"-0.016": 0.0,
			"-0.015": 0.0,
			"-0.014": 0.0,
			"-0.013": 0.0,
			"-0.012": 0.0,
			"-0.011": 0.0,
			"-0.01": 0.614004489783,
			"-0.009": 1.35767922477,
			"-0.008": 1.57658913073,
			"-0.007": 2.04021531173,
			"-0.006": 2.15382556854,
			"-0.005": 2.80366710376,
			"-0.004": 4.11877124406,
			"-0.003": 15.4979797102,
			"-0.002": 29.8497969178,
			"-0.001": 35.462103956,
			"0.0": 25.5464186321,
			"0.001": 19.3519331009,
			"0.002": 7.85109574598,
			"0.003": 2.79492322344,
			"0.004": 1.90558900484,
			"0.005": 2.16890993442,
			"0.006": 2.01712366621,
			"0.007": 1.65940298139,
			"0.008": 1.27034723655,
			"0.009": 1.78600158384,
			"0.01": 1.30152119558,
			"0.011": 1.55302711017,
			"0.012": 0.892225287438,
			"0.013": 1.86617009395,
			"0.014": 0.162714419893,
			"0.015": 0.469156444925,
			"0.016": 1.20545056508,
			"0.017": 0.86190332228,
			"0.018": 0.290475883701,
			"0.019": 0.28523017801,
			"0.02": 0.0,
			"0.021": 0.0,
			"0.022": 0.0,
			"0.023": 0.0,
			"0.024": 0.0,
			"0.025": 0.0
		}
	}
}
