{
	 "smiles": "CNC(=O)C=C/C(O)=O", 
	 "Tm": 428.65, 
	 "num_atms": 16, 
	 "gaussian": { 
		 "optdone": 1, 
		 "sigma_profile": "yes", 
		 "theory": "DFT", 
		 "functional": "B3LYP", 
		 "basiset": "6-31G**", 
		 "properties": { 
			 "R2extent": 2360.9933, 
			 "electric_dipole_moment_norm": 8.42494642654, 
			 "electric_quadrupole_moment_norm": 26.4586317114, 
			 "total_energy": -475.182017958, 
			 "HOMO_LUMO_gap": 0.17396, 
			 "cosmo_polarized_energy": -19.52, 
			 "cosmo_cavitation_energy": 20.56, 
			 "cosmo_dispersion_energy": -15.48, 
			 "cosmo_repulsion_energy": 1.28, 
			 "cosmo_total_nonelectrostatic_energy": 6.36, 
			 "SMD_solvation_energy": 5.49 
		},
		"coords": [
			{
				"x": -1.5764778546,
				"y": 0.0978473592,
				"z": -1.1134958461,
				"element": "C" 
			},
			{
				"x": -0.2315202391,
				"y": 0.3957935573,
				"z": -0.6486842856,
				"element": "N" 
			},
			{
				"x": 0.0980963111,
				"y": 0.473976691,
				"z": 0.6653566057,
				"element": "C" 
			},
			{
				"x": -0.7497090561,
				"y": 0.2915958609,
				"z": 1.5557121174,
				"element": "O" 
			},
			{
				"x": 1.5278586463,
				"y": 0.7892708994,
				"z": 0.9210257379,
				"element": "C" 
			},
			{
				"x": 2.1557587805,
				"y": 0.931985249,
				"z": 2.1022871186,
				"element": "C" 
			},
			{
				"x": 1.7020941074,
				"y": 0.8379530471,
				"z": 3.5404724943,
				"element": "C" 
			},
			{
				"x": 0.4360935956,
				"y": 0.5611380335,
				"z": 3.821619499,
				"element": "O" 
			},
			{
				"x": 2.5386492006,
				"y": 1.024906822,
				"z": 4.4039729483,
				"element": "O" 
			},
			{
				"x": -1.5873870924,
				"y": -0.8195202133,
				"z": -1.7111552409,
				"element": "H" 
			},
			{
				"x": -2.2089983568,
				"y": -0.0377234277,
				"z": -0.2368578197,
				"element": "H" 
			},
			{
				"x": -1.9704257344,
				"y": 0.9210459716,
				"z": -1.7184789785,
				"element": "H" 
			},
			{
				"x": 0.4909380341,
				"y": 0.551275342,
				"z": -1.3353783136,
				"element": "H" 
			},
			{
				"x": 2.1383549666,
				"y": 0.9198377116,
				"z": 0.0286139137,
				"element": "H" 
			},
			{
				"x": 3.2163509723,
				"y": 1.1648860096,
				"z": 2.069207381,
				"element": "H" 
			},
			{
				"x": -0.1064762812,
				"y": 0.4387310868,
				"z": 2.9901826686,
				"element": "H" 
			}
		],
		 "valence_orbital": [ 
			{
				"type": "occ",
				"energy": -0.30916,
				"method": "rhf"
			},
			{
				"type": "occ",
				"energy": -0.28941,
				"method": "rhf"
			},
			{
				"type": "occ",
				"energy": -0.28764,
				"method": "rhf"
			},
			{
				"type": "occ",
				"energy": -0.28537,
				"method": "rhf"
			},
			{
				"type": "occ",
				"energy": -0.25717,
				"method": "rhf"
			},
			{
				"type": "unocc",
				"energy": -0.08321,
				"method": "rhf"
			},
			{
				"type": "unocc",
				"energy": 0.03167,
				"method": "rhf"
			},
			{
				"type": "unocc",
				"energy": 0.04384,
				"method": "rhf"
			},
			{
				"type": "unocc",
				"energy": 0.09803,
				"method": "rhf"
			},
			{
				"type": "unocc",
				"energy": 0.10614,
				"method": "rhf"
			}
		],
		"cosmo_sigma_profile": { 
			"-0.025": 0.0,
			"-0.024": 0.0,
			"-0.023": 0.0,
			"-0.022": 0.0,
			"-0.021": 0.0,
			"-0.02": 0.0,
			"-0.019": 0.0,
			"-0.018": 0.0,
			"-0.017": 0.0,
			"-0.016": 1.09115033435,
			"-0.015": 1.94289798259,
			"-0.014": 1.84324512851,
			"-0.013": 1.46429200062,
			"-0.012": 1.40261164529,
			"-0.011": 1.27979537032,
			"-0.01": 1.97654572177,
			"-0.009": 2.07553256249,
			"-0.008": 3.7314089509,
			"-0.007": 4.42315587336,
			"-0.006": 7.22807883131,
			"-0.005": 10.6916345709,
			"-0.004": 11.6418283368,
			"-0.003": 14.8226642227,
			"-0.002": 14.5612769514,
			"-0.001": 12.5793739641,
			"0.0": 10.3712695558,
			"0.001": 6.99176390141,
			"0.002": 4.81251862833,
			"0.003": 2.8740435221,
			"0.004": 3.48547799801,
			"0.005": 4.25863978688,
			"0.006": 3.29490194094,
			"0.007": 3.08852833431,
			"0.008": 3.70613940202,
			"0.009": 4.4823070163,
			"0.01": 5.08161442576,
			"0.011": 5.65529162846,
			"0.012": 6.94313239531,
			"0.013": 4.51613376807,
			"0.014": 1.46025471987,
			"0.015": 0.0527604579707,
			"0.016": 0.0,
			"0.017": 0.0,
			"0.018": 0.0,
			"0.019": 0.0,
			"0.02": 0.0,
			"0.021": 0.0,
			"0.022": 0.0,
			"0.023": 0.0,
			"0.024": 0.0,
			"0.025": 0.0
		}
	}
}
