{
	 "smiles": "COCP(=O)(C1=CC=CC=C1)C1=CC=CC=C1", 
	 "Tm": 390.15, 
	 "num_atms": 32, 
	 "gaussian": { 
		 "optdone": 1, 
		 "sigma_profile": "yes", 
		 "theory": "DFT", 
		 "functional": "B3LYP", 
		 "basiset": "6-31G**", 
		 "properties": { 
			 "R2extent": 4720.0617, 
			 "electric_dipole_moment_norm": 4.41368927429, 
			 "electric_quadrupole_moment_norm": 9.73689916503, 
			 "total_energy": -1034.32899947, 
			 "HOMO_LUMO_gap": 0.2194, 
			 "cosmo_polarized_energy": -18.04, 
			 "cosmo_cavitation_energy": 37.0, 
			 "cosmo_dispersion_energy": -25.59, 
			 "cosmo_repulsion_energy": 1.99, 
			 "cosmo_total_nonelectrostatic_energy": 13.39, 
			 "SMD_solvation_energy": 7.83 
		},
		"coords": [
			{
				"x": -0.0273913939,
				"y": 1.2056324654,
				"z": 3.774928161,
				"element": "C" 
			},
			{
				"x": 0.4982948458,
				"y": 0.6952405864,
				"z": 2.5647537018,
				"element": "O" 
			},
			{
				"x": -0.3510181106,
				"y": 0.9137900201,
				"z": 1.4640840461,
				"element": "C" 
			},
			{
				"x": 0.5550736799,
				"y": 0.4971145045,
				"z": -0.1007548438,
				"element": "P" 
			},
			{
				"x": 1.5887945376,
				"y": 1.4989785114,
				"z": -0.5283760526,
				"element": "O" 
			},
			{
				"x": -0.8115153855,
				"y": 0.3697615867,
				"z": -1.3161128834,
				"element": "C" 
			},
			{
				"x": -0.8380748035,
				"y": 1.3244310928,
				"z": -2.3420251819,
				"element": "C" 
			},
			{
				"x": -1.8599502243,
				"y": 1.3046864527,
				"z": -3.2929489672,
				"element": "C" 
			},
			{
				"x": -2.8586781727,
				"y": 0.3318713095,
				"z": -3.2260980344,
				"element": "C" 
			},
			{
				"x": -2.8339409047,
				"y": -0.6273292225,
				"z": -2.2100067131,
				"element": "C" 
			},
			{
				"x": -1.8136964661,
				"y": -0.6104711995,
				"z": -1.259330673,
				"element": "C" 
			},
			{
				"x": 1.2273733987,
				"y": -1.1817638796,
				"z": 0.1420413374,
				"element": "C" 
			},
			{
				"x": 0.6370706961,
				"y": -2.1464859687,
				"z": 0.9714620913,
				"element": "C" 
			},
			{
				"x": 1.1980799549,
				"y": -3.4195704438,
				"z": 1.0763939805,
				"element": "C" 
			},
			{
				"x": 2.3549708107,
				"y": -3.7358102344,
				"z": 0.3608458675,
				"element": "C" 
			},
			{
				"x": 2.9566310614,
				"y": -2.7744287545,
				"z": -0.4535582623,
				"element": "C" 
			},
			{
				"x": 2.3976933446,
				"y": -1.5008917503,
				"z": -0.5612474245,
				"element": "C" 
			},
			{
				"x": -0.1823339609,
				"y": 2.2938300317,
				"z": 3.7217754185,
				"element": "H" 
			},
			{
				"x": 0.7014866465,
				"y": 0.9875016734,
				"z": 4.5586052316,
				"element": "H" 
			},
			{
				"x": -0.9865743066,
				"y": 0.7305759241,
				"z": 4.0352276433,
				"element": "H" 
			},
			{
				"x": -0.6421217483,
				"y": 1.9730150655,
				"z": 1.3675803412,
				"element": "H" 
			},
			{
				"x": -1.2826944687,
				"y": 0.3261339036,
				"z": 1.5390151134,
				"element": "H" 
			},
			{
				"x": -0.0477824177,
				"y": 2.0678143446,
				"z": -2.383295116,
				"element": "H" 
			},
			{
				"x": -1.8744497843,
				"y": 2.046468013,
				"z": -4.0863856791,
				"element": "H" 
			},
			{
				"x": -3.653169875,
				"y": 0.3159593075,
				"z": -3.9668985055,
				"element": "H" 
			},
			{
				"x": -3.6054303,
				"y": -1.3906095057,
				"z": -2.1625356319,
				"element": "H" 
			},
			{
				"x": -1.7923937155,
				"y": -1.3735349566,
				"z": -0.4859449995,
				"element": "H" 
			},
			{
				"x": -0.2448846512,
				"y": -1.9052923143,
				"z": 1.5566562607,
				"element": "H" 
			},
			{
				"x": 0.7384493675,
				"y": -4.1606948785,
				"z": 1.7240728143,
				"element": "H" 
			},
			{
				"x": 2.7914594345,
				"y": -4.7269673084,
				"z": 0.4460972274,
				"element": "H" 
			},
			{
				"x": 3.8641200964,
				"y": -3.0140712424,
				"z": -1.0002203364,
				"element": "H" 
			},
			{
				"x": 2.8688028151,
				"y": -0.7381831339,
				"z": -1.1735999315,
				"element": "H" 
			}
		],
		 "valence_orbital": [ 
			{
				"type": "occ",
				"energy": -0.25937,
				"method": "rhf"
			},
			{
				"type": "occ",
				"energy": -0.25599,
				"method": "rhf"
			},
			{
				"type": "occ",
				"energy": -0.25529,
				"method": "rhf"
			},
			{
				"type": "occ",
				"energy": -0.25397,
				"method": "rhf"
			},
			{
				"type": "occ",
				"energy": -0.24982,
				"method": "rhf"
			},
			{
				"type": "unocc",
				"energy": -0.03042,
				"method": "rhf"
			},
			{
				"type": "unocc",
				"energy": -0.01708,
				"method": "rhf"
			},
			{
				"type": "unocc",
				"energy": -0.00809,
				"method": "rhf"
			},
			{
				"type": "unocc",
				"energy": -0.00613,
				"method": "rhf"
			},
			{
				"type": "unocc",
				"energy": 0.06048,
				"method": "rhf"
			}
		],
		"cosmo_sigma_profile": { 
			"-0.025": 0.0,
			"-0.024": 0.0,
			"-0.023": 0.0,
			"-0.022": 0.0,
			"-0.021": 0.0,
			"-0.02": 0.0,
			"-0.019": 0.0,
			"-0.018": 0.0,
			"-0.017": 0.0,
			"-0.016": 0.0,
			"-0.015": 0.0,
			"-0.014": 0.000389150526981,
			"-0.013": 0.0467862608181,
			"-0.012": 0.202168198001,
			"-0.011": 0.350878956609,
			"-0.01": 0.554720260695,
			"-0.009": 0.607794163434,
			"-0.008": 1.22465998204,
			"-0.007": 4.72983893614,
			"-0.006": 21.652274935,
			"-0.005": 30.6706640187,
			"-0.004": 32.0620625189,
			"-0.003": 26.7258015557,
			"-0.002": 23.1450082448,
			"-0.001": 14.759546815,
			"0.0": 14.7610492756,
			"0.001": 16.4435389324,
			"0.002": 17.5846892106,
			"0.003": 19.1553360406,
			"0.004": 25.1164934043,
			"0.005": 10.8475483078,
			"0.006": 4.15852410499,
			"0.007": 3.03253291193,
			"0.008": 3.41484044878,
			"0.009": 3.40801890977,
			"0.01": 2.99913593751,
			"0.011": 2.56695338952,
			"0.012": 0.765329935272,
			"0.013": 1.82050032858,
			"0.014": 1.33862166999,
			"0.015": 3.76155440215,
			"0.016": 3.97394184604,
			"0.017": 1.05880105293,
			"0.018": 0.0,
			"0.019": 0.0,
			"0.02": 0.0,
			"0.021": 0.0,
			"0.022": 0.0,
			"0.023": 0.0,
			"0.024": 0.0,
			"0.025": 0.0
		}
	}
}
