{
	 "smiles": "OC(=O)CC1=CC(O)=C(CC(O)=O)C=C1O", 
	 "Tm": 508.15, 
	 "num_atms": 26, 
	 "gaussian": { 
		 "optdone": 1, 
		 "sigma_profile": "yes", 
		 "theory": "DFT", 
		 "functional": "B3LYP", 
		 "basiset": "6-31G**", 
		 "properties": { 
			 "R2extent": 4623.6873, 
			 "electric_dipole_moment_norm": 2.87768768458, 
			 "electric_quadrupole_moment_norm": 19.8437730215, 
			 "total_energy": -838.469315515, 
			 "HOMO_LUMO_gap": 0.17901, 
			 "cosmo_polarized_energy": -19.57, 
			 "cosmo_cavitation_energy": 30.75, 
			 "cosmo_dispersion_energy": -22.45, 
			 "cosmo_repulsion_energy": 1.75, 
			 "cosmo_total_nonelectrostatic_energy": 10.05, 
			 "SMD_solvation_energy": 7.67 
		},
		"coords": [
			{
				"x": 1.9084130312,
				"y": -1.5138620749,
				"z": 3.7148255423,
				"element": "O" 
			},
			{
				"x": 1.2964556806,
				"y": -0.2955207869,
				"z": 3.8628692217,
				"element": "C" 
			},
			{
				"x": 1.8310321707,
				"y": 0.6177945185,
				"z": 4.4399619093,
				"element": "O" 
			},
			{
				"x": -0.0696428983,
				"y": -0.2910157773,
				"z": 3.203795626,
				"element": "C" 
			},
			{
				"x": 0.0087940995,
				"y": -0.2501849459,
				"z": 1.6855250145,
				"element": "C" 
			},
			{
				"x": -0.2336291401,
				"y": 0.9461123635,
				"z": 1.004817441,
				"element": "C" 
			},
			{
				"x": -0.2425660155,
				"y": 1.0105633102,
				"z": -0.3905214708,
				"element": "C" 
			},
			{
				"x": -0.4743777389,
				"y": 2.222434641,
				"z": -0.9734599921,
				"element": "O" 
			},
			{
				"x": 0.0214349399,
				"y": -0.1563422215,
				"z": -1.1349444548,
				"element": "C" 
			},
			{
				"x": 0.1211615958,
				"y": -0.108878097,
				"z": -2.6515653173,
				"element": "C" 
			},
			{
				"x": -1.2057510011,
				"y": 0.1893694582,
				"z": -3.3174500994,
				"element": "C" 
			},
			{
				"x": -1.6359225291,
				"y": -0.7934662662,
				"z": -4.122705425,
				"element": "O" 
			},
			{
				"x": -1.8421449277,
				"y": 1.2193481294,
				"z": -3.1557158491,
				"element": "O" 
			},
			{
				"x": 0.266715322,
				"y": -1.3517830041,
				"z": -0.4556617283,
				"element": "C" 
			},
			{
				"x": 0.272184856,
				"y": -1.4139795549,
				"z": 0.9389992406,
				"element": "C" 
			},
			{
				"x": 0.4995533939,
				"y": -2.6352183597,
				"z": 1.5195537302,
				"element": "O" 
			},
			{
				"x": 2.7961034917,
				"y": -1.4387584893,
				"z": 4.1034598014,
				"element": "H" 
			},
			{
				"x": -0.6078195331,
				"y": -1.1917464822,
				"z": 3.5225580445,
				"element": "H" 
			},
			{
				"x": -0.6008572047,
				"y": 0.5851474704,
				"z": 3.5768181188,
				"element": "H" 
			},
			{
				"x": -0.4480297211,
				"y": 1.8569180458,
				"z": 1.5552736036,
				"element": "H" 
			},
			{
				"x": -0.972596525,
				"y": 2.0872075941,
				"z": -1.8046692832,
				"element": "H" 
			},
			{
				"x": 0.5199415247,
				"y": -1.0477228163,
				"z": -3.0375427197,
				"element": "H" 
			},
			{
				"x": 0.8003309702,
				"y": 0.7017881737,
				"z": -2.9473047808,
				"element": "H" 
			},
			{
				"x": -2.4907224236,
				"y": -0.5049832301,
				"z": -4.4881767044,
				"element": "H" 
			},
			{
				"x": 0.4836860043,
				"y": -2.2628483283,
				"z": -1.0051548388,
				"element": "H" 
			},
			{
				"x": 1.0078525777,
				"y": -2.5094732704,
				"z": 2.33681537,
				"element": "H" 
			}
		],
		 "valence_orbital": [ 
			{
				"type": "occ",
				"energy": -0.30085,
				"method": "rhf"
			},
			{
				"type": "occ",
				"energy": -0.29758,
				"method": "rhf"
			},
			{
				"type": "occ",
				"energy": -0.28844,
				"method": "rhf"
			},
			{
				"type": "occ",
				"energy": -0.24671,
				"method": "rhf"
			},
			{
				"type": "occ",
				"energy": -0.20189,
				"method": "rhf"
			},
			{
				"type": "unocc",
				"energy": -0.02288,
				"method": "rhf"
			},
			{
				"type": "unocc",
				"energy": -0.01063,
				"method": "rhf"
			},
			{
				"type": "unocc",
				"energy": 0.00555,
				"method": "rhf"
			},
			{
				"type": "unocc",
				"energy": 0.02112,
				"method": "rhf"
			},
			{
				"type": "unocc",
				"energy": 0.05703,
				"method": "rhf"
			}
		],
		"cosmo_sigma_profile": { 
			"-0.025": 0.0,
			"-0.024": 0.0,
			"-0.023": 0.0,
			"-0.022": 0.0,
			"-0.021": 0.0,
			"-0.02": 0.0309537347283,
			"-0.019": 1.3497444736,
			"-0.018": 1.66856250134,
			"-0.017": 2.19368644768,
			"-0.016": 1.89214704393,
			"-0.015": 1.41320432055,
			"-0.014": 0.471240067915,
			"-0.013": 1.275881903,
			"-0.012": 2.44563969492,
			"-0.011": 1.43070987097,
			"-0.01": 0.922980123935,
			"-0.009": 1.42878367009,
			"-0.008": 2.89399344959,
			"-0.007": 12.0260917468,
			"-0.006": 15.6578381909,
			"-0.005": 13.3252980199,
			"-0.004": 16.0936189749,
			"-0.003": 16.3031515186,
			"-0.002": 13.1518167622,
			"-0.001": 12.1506680141,
			"0.0": 12.4962588586,
			"0.001": 12.303430831,
			"0.002": 11.0808160675,
			"0.003": 12.4660717259,
			"0.004": 17.7130586263,
			"0.005": 9.79193406863,
			"0.006": 6.60159120453,
			"0.007": 6.63012245255,
			"0.008": 6.38677784856,
			"0.009": 7.32830052012,
			"0.01": 7.25302868273,
			"0.011": 8.99336235284,
			"0.012": 5.41007424063,
			"0.013": 1.25396456144,
			"0.014": 0.0,
			"0.015": 0.0,
			"0.016": 0.0,
			"0.017": 0.0,
			"0.018": 0.0,
			"0.019": 0.0,
			"0.02": 0.0,
			"0.021": 0.0,
			"0.022": 0.0,
			"0.023": 0.0,
			"0.024": 0.0,
			"0.025": 0.0
		}
	}
}
