{
	 "smiles": "OC(=O)C1=C(C=CC=C1)C1=CC=CO1", 
	 "Tm": 360.15, 
	 "num_atms": 22, 
	 "gaussian": { 
		 "optdone": 1, 
		 "sigma_profile": "yes", 
		 "theory": "DFT", 
		 "functional": "B3LYP", 
		 "basiset": "6-31G**", 
		 "properties": { 
			 "R2extent": 3245.1247, 
			 "electric_dipole_moment_norm": 1.01505726439, 
			 "electric_quadrupole_moment_norm": 9.71765865834, 
			 "total_energy": -649.6513976, 
			 "HOMO_LUMO_gap": 0.15169, 
			 "cosmo_polarized_energy": -9.76, 
			 "cosmo_cavitation_energy": 26.44, 
			 "cosmo_dispersion_energy": -19.86, 
			 "cosmo_repulsion_energy": 1.53, 
			 "cosmo_total_nonelectrostatic_energy": 8.11, 
			 "SMD_solvation_energy": 6.42 
		},
		"coords": [
			{
				"x": -1.8507257004,
				"y": 1.6249649277,
				"z": 2.0285739775,
				"element": "O" 
			},
			{
				"x": -1.1575293948,
				"y": 0.4541084998,
				"z": 1.9758651999,
				"element": "C" 
			},
			{
				"x": -1.1917110049,
				"y": -0.321802958,
				"z": 2.9114714711,
				"element": "O" 
			},
			{
				"x": -0.4471915331,
				"y": 0.2712737521,
				"z": 0.6791570135,
				"element": "C" 
			},
			{
				"x": 0.6211629478,
				"y": -0.6516607655,
				"z": 0.4745685698,
				"element": "C" 
			},
			{
				"x": 1.1134523266,
				"y": -0.7803006864,
				"z": -0.8435339889,
				"element": "C" 
			},
			{
				"x": 0.6004856602,
				"y": -0.0480502383,
				"z": -1.905889921,
				"element": "C" 
			},
			{
				"x": -0.4296526772,
				"y": 0.8678223437,
				"z": -1.693161205,
				"element": "C" 
			},
			{
				"x": -0.9356389471,
				"y": 1.0183529513,
				"z": -0.409040592,
				"element": "C" 
			},
			{
				"x": 1.3037328944,
				"y": -1.4488564083,
				"z": 1.5001259936,
				"element": "C" 
			},
			{
				"x": 1.4034229946,
				"y": -1.4617136042,
				"z": 2.8713443774,
				"element": "C" 
			},
			{
				"x": 2.3620173577,
				"y": -2.4592413759,
				"z": 3.2176908683,
				"element": "C" 
			},
			{
				"x": 2.7876025098,
				"y": -3.0004173037,
				"z": 2.0426280023,
				"element": "C" 
			},
			{
				"x": 2.1672003025,
				"y": -2.4041518488,
				"z": 0.9955601311,
				"element": "O" 
			},
			{
				"x": -2.3108483518,
				"y": 1.60651247,
				"z": 2.8836756614,
				"element": "H" 
			},
			{
				"x": 1.9278095903,
				"y": -1.4702427508,
				"z": -1.0218653555,
				"element": "H" 
			},
			{
				"x": 1.0155784103,
				"y": -0.1887799934,
				"z": -2.8998831286,
				"element": "H" 
			},
			{
				"x": -0.8347356203,
				"y": 1.4532440182,
				"z": -2.5124820226,
				"element": "H" 
			},
			{
				"x": -1.7429585245,
				"y": 1.7166720689,
				"z": -0.2281400391,
				"element": "H" 
			},
			{
				"x": 0.8428985914,
				"y": -0.8465903809,
				"z": 3.5524483609,
				"element": "H" 
			},
			{
				"x": 2.6807463086,
				"y": -2.7386775649,
				"z": 4.2114751643,
				"element": "H" 
			},
			{
				"x": 3.4844818599,
				"y": -3.7853651525,
				"z": 1.7915114617,
				"element": "H" 
			}
		],
		 "valence_orbital": [ 
			{
				"type": "occ",
				"energy": -0.28844,
				"method": "rhf"
			},
			{
				"type": "occ",
				"energy": -0.27516,
				"method": "rhf"
			},
			{
				"type": "occ",
				"energy": -0.27022,
				"method": "rhf"
			},
			{
				"type": "occ",
				"energy": -0.26019,
				"method": "rhf"
			},
			{
				"type": "occ",
				"energy": -0.20719,
				"method": "rhf"
			},
			{
				"type": "unocc",
				"energy": -0.0555,
				"method": "rhf"
			},
			{
				"type": "unocc",
				"energy": -0.02218,
				"method": "rhf"
			},
			{
				"type": "unocc",
				"energy": 0.0387,
				"method": "rhf"
			},
			{
				"type": "unocc",
				"energy": 0.05165,
				"method": "rhf"
			},
			{
				"type": "unocc",
				"energy": 0.07988,
				"method": "rhf"
			}
		],
		"cosmo_sigma_profile": { 
			"-0.025": 0.0,
			"-0.024": 0.0,
			"-0.023": 0.0,
			"-0.022": 0.0,
			"-0.021": 0.0,
			"-0.02": 0.0,
			"-0.019": 0.0,
			"-0.018": 0.361302565756,
			"-0.017": 1.18025079344,
			"-0.016": 0.843410631006,
			"-0.015": 0.779131032946,
			"-0.014": 0.291550280658,
			"-0.013": 0.663061202529,
			"-0.012": 0.897693264857,
			"-0.011": 0.773954620007,
			"-0.01": 1.08272554584,
			"-0.009": 2.0330090271,
			"-0.008": 2.05157153714,
			"-0.007": 6.152604025,
			"-0.006": 8.83642871937,
			"-0.005": 12.8069497243,
			"-0.004": 12.6054749492,
			"-0.003": 13.2602948198,
			"-0.002": 14.9388668893,
			"-0.001": 12.0809242988,
			"0.0": 11.3712122953,
			"0.001": 16.5065159567,
			"0.002": 22.2257773155,
			"0.003": 24.5767045736,
			"0.004": 18.4334484228,
			"0.005": 8.97563651733,
			"0.006": 4.54693297357,
			"0.007": 2.71425218186,
			"0.008": 2.65664751872,
			"0.009": 2.08786971259,
			"0.01": 2.11868872151,
			"0.011": 3.51276628511,
			"0.012": 1.82412377908,
			"0.013": 0.00774116034594,
			"0.014": 0.0,
			"0.015": 0.0,
			"0.016": 0.0,
			"0.017": 0.0,
			"0.018": 0.0,
			"0.019": 0.0,
			"0.02": 0.0,
			"0.021": 0.0,
			"0.022": 0.0,
			"0.023": 0.0,
			"0.024": 0.0,
			"0.025": 0.0
		}
	}
}
