{
	 "smiles": "CC(C)OC1=NC=C(N=C1)C(O)=O", 
	 "Tm": 383.15, 
	 "num_atms": 23, 
	 "gaussian": { 
		 "optdone": 1, 
		 "sigma_profile": "yes", 
		 "theory": "DFT", 
		 "functional": "B3LYP", 
		 "basiset": "6-31G**", 
		 "properties": { 
			 "R2extent": 3968.0841, 
			 "electric_dipole_moment_norm": 4.05248677974, 
			 "electric_quadrupole_moment_norm": 18.5048887581, 
			 "total_energy": -646.058648391, 
			 "HOMO_LUMO_gap": 0.19263, 
			 "cosmo_polarized_energy": -13.13, 
			 "cosmo_cavitation_energy": 27.47, 
			 "cosmo_dispersion_energy": -20.09, 
			 "cosmo_repulsion_energy": 1.62, 
			 "cosmo_total_nonelectrostatic_energy": 9.0, 
			 "SMD_solvation_energy": 4.97 
		},
		"coords": [
			{
				"x": 2.5282749937,
				"y": 0.1128423618,
				"z": 0.4282201894,
				"element": "C" 
			},
			{
				"x": 1.9240182124,
				"y": -0.3615477014,
				"z": -0.8912984993,
				"element": "C" 
			},
			{
				"x": 1.1669191435,
				"y": -1.684229352,
				"z": -0.7986417785,
				"element": "C" 
			},
			{
				"x": 1.1245815772,
				"y": 0.6826080519,
				"z": -1.5337706335,
				"element": "O" 
			},
			{
				"x": 0.0003925222,
				"y": 1.1703935958,
				"z": -1.0012379938,
				"element": "C" 
			},
			{
				"x": -0.4846850712,
				"y": 0.7444671308,
				"z": 0.1613295592,
				"element": "N" 
			},
			{
				"x": -1.6225907629,
				"y": 1.320008647,
				"z": 0.5801016871,
				"element": "C" 
			},
			{
				"x": -2.2712725609,
				"y": 2.3116739041,
				"z": -0.1538855985,
				"element": "C" 
			},
			{
				"x": -1.7729554738,
				"y": 2.7401621969,
				"z": -1.3346110436,
				"element": "N" 
			},
			{
				"x": -0.6566614281,
				"y": 2.1815575171,
				"z": -1.7542131376,
				"element": "C" 
			},
			{
				"x": -3.5361321297,
				"y": 2.9529283726,
				"z": 0.3091396269,
				"element": "C" 
			},
			{
				"x": -3.9473043346,
				"y": 2.4478609612,
				"z": 1.5049134087,
				"element": "O" 
			},
			{
				"x": -4.1469757998,
				"y": 3.8159817727,
				"z": -0.2778826449,
				"element": "O" 
			},
			{
				"x": 3.2810961627,
				"y": -0.6111582729,
				"z": 0.7572829001,
				"element": "H" 
			},
			{
				"x": 3.0238914056,
				"y": 1.079294952,
				"z": 0.2971111321,
				"element": "H" 
			},
			{
				"x": 1.7684495658,
				"y": 0.2046283123,
				"z": 1.2054341695,
				"element": "H" 
			},
			{
				"x": 2.7304622345,
				"y": -0.4730959984,
				"z": -1.6227298876,
				"element": "H" 
			},
			{
				"x": 0.3723020195,
				"y": -1.638218795,
				"z": -0.0528007191,
				"element": "H" 
			},
			{
				"x": 0.7324578475,
				"y": -1.9457212332,
				"z": -1.7680337979,
				"element": "H" 
			},
			{
				"x": 1.8670108746,
				"y": -2.4777663349,
				"z": -0.5169228277,
				"element": "H" 
			},
			{
				"x": -2.0240210692,
				"y": 0.9768767584,
				"z": 1.5284795603,
				"element": "H" 
			},
			{
				"x": -0.2335982891,
				"y": 2.5075920746,
				"z": -2.7012999734,
				"element": "H" 
			},
			{
				"x": -4.7672596398,
				"y": 2.9214610785,
				"z": 1.7203163023,
				"element": "H" 
			}
		],
		 "valence_orbital": [ 
			{
				"type": "occ",
				"energy": -0.31694,
				"method": "rhf"
			},
			{
				"type": "occ",
				"energy": -0.31416,
				"method": "rhf"
			},
			{
				"type": "occ",
				"energy": -0.27678,
				"method": "rhf"
			},
			{
				"type": "occ",
				"energy": -0.25787,
				"method": "rhf"
			},
			{
				"type": "occ",
				"energy": -0.25105,
				"method": "rhf"
			},
			{
				"type": "unocc",
				"energy": -0.05842,
				"method": "rhf"
			},
			{
				"type": "unocc",
				"energy": -0.04519,
				"method": "rhf"
			},
			{
				"type": "unocc",
				"energy": 0.05093,
				"method": "rhf"
			},
			{
				"type": "unocc",
				"energy": 0.07907,
				"method": "rhf"
			},
			{
				"type": "unocc",
				"energy": 0.08795,
				"method": "rhf"
			}
		],
		"cosmo_sigma_profile": { 
			"-0.025": 0.0,
			"-0.024": 0.0,
			"-0.023": 0.0,
			"-0.022": 0.0,
			"-0.021": 0.0,
			"-0.02": 0.0,
			"-0.019": 0.0662219148998,
			"-0.018": 1.01118069804,
			"-0.017": 0.881124600537,
			"-0.016": 0.720866636504,
			"-0.015": 1.01329535019,
			"-0.014": 0.494775444065,
			"-0.013": 0.397042203763,
			"-0.012": 0.77977875384,
			"-0.011": 1.12177426274,
			"-0.01": 0.629370080815,
			"-0.009": 0.395358919569,
			"-0.008": 2.65082354817,
			"-0.007": 3.00026613694,
			"-0.006": 5.20168095809,
			"-0.005": 8.03392316111,
			"-0.004": 18.1879547611,
			"-0.003": 21.3205491532,
			"-0.002": 27.4890953271,
			"-0.001": 24.5078297851,
			"0.0": 24.3409224038,
			"0.001": 14.4009712546,
			"0.002": 8.34715524967,
			"0.003": 6.43516350066,
			"0.004": 6.80839719732,
			"0.005": 6.14101832056,
			"0.006": 6.0225246253,
			"0.007": 4.31502664427,
			"0.008": 3.47502443209,
			"0.009": 2.43551162899,
			"0.01": 2.64577126193,
			"0.011": 4.90888209702,
			"0.012": 4.3468500854,
			"0.013": 1.66227256622,
			"0.014": 1.4021675524,
			"0.015": 1.15133483319,
			"0.016": 1.22423864617,
			"0.017": 0.0485715046641,
			"0.018": 0.0,
			"0.019": 0.0,
			"0.02": 0.0,
			"0.021": 0.0,
			"0.022": 0.0,
			"0.023": 0.0,
			"0.024": 0.0,
			"0.025": 0.0
		}
	}
}
