{
	 "smiles": "CC(=O)C1=C(F)C=C(C=C1)S(=O)(=O)CC(O)=O", 
	 "Tm": 423.15, 
	 "num_atms": 26, 
	 "gaussian": { 
		 "optdone": 1, 
		 "sigma_profile": "yes", 
		 "theory": "DFT", 
		 "functional": "B3LYP", 
		 "basiset": "6-31G**", 
		 "properties": { 
			 "R2extent": 6379.761, 
			 "electric_dipole_moment_norm": 3.45193330903, 
			 "electric_quadrupole_moment_norm": 21.280580865, 
			 "total_energy": -1260.5700467, 
			 "HOMO_LUMO_gap": 0.18123, 
			 "cosmo_polarized_energy": -20.12, 
			 "cosmo_cavitation_energy": 33.2, 
			 "cosmo_dispersion_energy": -23.71, 
			 "cosmo_repulsion_energy": 1.78, 
			 "cosmo_total_nonelectrostatic_energy": 11.26, 
			 "SMD_solvation_energy": 7.23 
		},
		"coords": [
			{
				"x": -0.7826874628,
				"y": -4.2285965498,
				"z": 1.1349384223,
				"element": "C" 
			},
			{
				"x": -0.9181193948,
				"y": -2.7408229723,
				"z": 1.3726110882,
				"element": "C" 
			},
			{
				"x": -1.2661643267,
				"y": -2.3092993697,
				"z": 2.4596943766,
				"element": "O" 
			},
			{
				"x": -0.6221296447,
				"y": -1.7589427407,
				"z": 0.2611964727,
				"element": "C" 
			},
			{
				"x": -0.2063167415,
				"y": -2.0954634749,
				"z": -1.033685899,
				"element": "C" 
			},
			{
				"x": -0.0432586678,
				"y": -3.3875214647,
				"z": -1.3833281306,
				"element": "F" 
			},
			{
				"x": 0.05348758,
				"y": -1.1407048936,
				"z": -2.0103311137,
				"element": "C" 
			},
			{
				"x": -0.1121831325,
				"y": 0.197990289,
				"z": -1.6708473773,
				"element": "C" 
			},
			{
				"x": -0.5363601747,
				"y": 0.5903012291,
				"z": -0.397910062,
				"element": "C" 
			},
			{
				"x": -0.7826266144,
				"y": -0.3930994935,
				"z": 0.5520695778,
				"element": "C" 
			},
			{
				"x": 0.195731079,
				"y": 1.4600901355,
				"z": -2.9202083124,
				"element": "S" 
			},
			{
				"x": -0.574095342,
				"y": 2.6531061264,
				"z": -2.5448256201,
				"element": "O" 
			},
			{
				"x": 0.0685091718,
				"y": 0.8387401305,
				"z": -4.2445514126,
				"element": "O" 
			},
			{
				"x": 1.9595763209,
				"y": 1.932292162,
				"z": -2.6972458201,
				"element": "C" 
			},
			{
				"x": 2.906563008,
				"y": 0.881978647,
				"z": -3.2357334514,
				"element": "C" 
			},
			{
				"x": 3.5975055536,
				"y": 1.339948594,
				"z": -4.2952338415,
				"element": "O" 
			},
			{
				"x": 3.0310764825,
				"y": -0.231302784,
				"z": -2.7769768733,
				"element": "O" 
			},
			{
				"x": 0.2378022309,
				"y": -4.4845440592,
				"z": 0.833991724,
				"element": "H" 
			},
			{
				"x": -1.0427071784,
				"y": -4.7480078836,
				"z": 2.0575764876,
				"element": "H" 
			},
			{
				"x": -1.4382685495,
				"y": -4.5553356248,
				"z": 0.321933516,
				"element": "H" 
			},
			{
				"x": 0.3699420962,
				"y": -1.4431118453,
				"z": -3.0005051228,
				"element": "H" 
			},
			{
				"x": -0.6895994878,
				"y": 1.6400650287,
				"z": -0.1745952696,
				"element": "H" 
			},
			{
				"x": -1.1155061791,
				"y": -0.1376685946,
				"z": 1.5522292366,
				"element": "H" 
			},
			{
				"x": 2.051051082,
				"y": 2.8825184875,
				"z": -3.2258324262,
				"element": "H" 
			},
			{
				"x": 2.1201706225,
				"y": 2.0790663397,
				"z": -1.6272842594,
				"element": "H" 
			},
			{
				"x": 4.1640076692,
				"y": 0.6093245813,
				"z": -4.5982459097,
				"element": "H" 
			}
		],
		 "valence_orbital": [ 
			{
				"type": "occ",
				"energy": -0.30956,
				"method": "rhf"
			},
			{
				"type": "occ",
				"energy": -0.3007,
				"method": "rhf"
			},
			{
				"type": "occ",
				"energy": -0.28845,
				"method": "rhf"
			},
			{
				"type": "occ",
				"energy": -0.27689,
				"method": "rhf"
			},
			{
				"type": "occ",
				"energy": -0.26702,
				"method": "rhf"
			},
			{
				"type": "unocc",
				"energy": -0.08579,
				"method": "rhf"
			},
			{
				"type": "unocc",
				"energy": -0.03731,
				"method": "rhf"
			},
			{
				"type": "unocc",
				"energy": -0.02815,
				"method": "rhf"
			},
			{
				"type": "unocc",
				"energy": 0.0011,
				"method": "rhf"
			},
			{
				"type": "unocc",
				"energy": 0.04888,
				"method": "rhf"
			}
		],
		"cosmo_sigma_profile": { 
			"-0.025": 0.0,
			"-0.024": 0.0,
			"-0.023": 0.0,
			"-0.022": 0.0,
			"-0.021": 0.0,
			"-0.02": 0.0281351595164,
			"-0.019": 0.923929755326,
			"-0.018": 0.834466929355,
			"-0.017": 1.06721896848,
			"-0.016": 0.745193416457,
			"-0.015": 1.0170527527,
			"-0.014": 0.662548773098,
			"-0.013": 0.400041309601,
			"-0.012": 0.731064113881,
			"-0.011": 2.73097233471,
			"-0.01": 5.0920742351,
			"-0.009": 4.84830895265,
			"-0.008": 7.55994133234,
			"-0.007": 10.5649734696,
			"-0.006": 13.6082944035,
			"-0.005": 11.6493106045,
			"-0.004": 14.0118261445,
			"-0.003": 15.8977058749,
			"-0.002": 21.4436465652,
			"-0.001": 22.9084875069,
			"0.0": 17.8978895496,
			"0.001": 15.1867860403,
			"0.002": 10.4483950993,
			"0.003": 12.0988641826,
			"0.004": 6.53738289071,
			"0.005": 6.93632255975,
			"0.006": 6.51874408893,
			"0.007": 8.24075437693,
			"0.008": 7.31182803616,
			"0.009": 8.25152343265,
			"0.01": 14.7813206534,
			"0.011": 12.2476790877,
			"0.012": 1.81591984861,
			"0.013": 0.232697702936,
			"0.014": 0.0,
			"0.015": 0.0,
			"0.016": 0.0,
			"0.017": 0.0,
			"0.018": 0.0,
			"0.019": 0.0,
			"0.02": 0.0,
			"0.021": 0.0,
			"0.022": 0.0,
			"0.023": 0.0,
			"0.024": 0.0,
			"0.025": 0.0
		}
	}
}
