{
	 "smiles": "OCC1=CC=C(CCl)C=C1", 
	 "Tm": 329.15, 
	 "num_atms": 19, 
	 "gaussian": { 
		 "optdone": 1, 
		 "sigma_profile": "yes", 
		 "theory": "DFT", 
		 "functional": "B3LYP", 
		 "basiset": "6-31G**", 
		 "properties": { 
			 "R2extent": 2572.1036, 
			 "electric_dipole_moment_norm": 2.348322678, 
			 "electric_quadrupole_moment_norm": 11.5601111366, 
			 "total_energy": -845.684607782, 
			 "HOMO_LUMO_gap": 0.21803, 
			 "cosmo_polarized_energy": -10.0, 
			 "cosmo_cavitation_energy": 24.6, 
			 "cosmo_dispersion_energy": -17.87, 
			 "cosmo_repulsion_energy": 1.48, 
			 "cosmo_total_nonelectrostatic_energy": 8.2, 
			 "SMD_solvation_energy": 3.81 
		},
		"coords": [
			{
				"x": -2.0276169547,
				"y": 2.409320634,
				"z": 1.300283987,
				"element": "O" 
			},
			{
				"x": -1.329568093,
				"y": 2.2270610025,
				"z": 0.0646726592,
				"element": "C" 
			},
			{
				"x": -0.6855035633,
				"y": 0.8655477645,
				"z": -0.047804011,
				"element": "C" 
			},
			{
				"x": 0.6121104127,
				"y": 0.6452724363,
				"z": 0.435265109,
				"element": "C" 
			},
			{
				"x": 1.1846794804,
				"y": -0.6238801657,
				"z": 0.3880286654,
				"element": "C" 
			},
			{
				"x": 0.4719306066,
				"y": -1.7075796426,
				"z": -0.141376051,
				"element": "C" 
			},
			{
				"x": 1.0892243111,
				"y": -3.072480829,
				"z": -0.1976238419,
				"element": "C" 
			},
			{
				"x": 0.7514067045,
				"y": -4.0544085642,
				"z": 1.319480797,
				"element": "Cl" 
			},
			{
				"x": -0.8263889449,
				"y": -1.4917788668,
				"z": -0.6214536489,
				"element": "C" 
			},
			{
				"x": -1.3973896316,
				"y": -0.2219550211,
				"z": -0.5733997195,
				"element": "C" 
			},
			{
				"x": -1.9345393048,
				"y": 1.59797398,
				"z": 1.8137767868,
				"element": "H" 
			},
			{
				"x": -0.5633260648,
				"y": 3.0094557204,
				"z": -0.0210358903,
				"element": "H" 
			},
			{
				"x": -2.0394157392,
				"y": 2.3723019582,
				"z": -0.7609347525,
				"element": "H" 
			},
			{
				"x": 1.1785626057,
				"y": 1.4783290908,
				"z": 0.8436414039,
				"element": "H" 
			},
			{
				"x": 2.1930049536,
				"y": -0.7769605565,
				"z": 0.7638805874,
				"element": "H" 
			},
			{
				"x": 2.1756481653,
				"y": -3.0279619567,
				"z": -0.2745540653,
				"element": "H" 
			},
			{
				"x": 0.6919035367,
				"y": -3.6683213891,
				"z": -1.0194065346,
				"element": "H" 
			},
			{
				"x": -1.3907418219,
				"y": -2.3235839278,
				"z": -1.0350066454,
				"element": "H" 
			},
			{
				"x": -2.4036806585,
				"y": -0.0676516672,
				"z": -0.9544348351,
				"element": "H" 
			}
		],
		 "valence_orbital": [ 
			{
				"type": "occ",
				"energy": -0.29855,
				"method": "rhf"
			},
			{
				"type": "occ",
				"energy": -0.29653,
				"method": "rhf"
			},
			{
				"type": "occ",
				"energy": -0.27055,
				"method": "rhf"
			},
			{
				"type": "occ",
				"energy": -0.26231,
				"method": "rhf"
			},
			{
				"type": "occ",
				"energy": -0.2578,
				"method": "rhf"
			},
			{
				"type": "unocc",
				"energy": -0.03977,
				"method": "rhf"
			},
			{
				"type": "unocc",
				"energy": -0.01765,
				"method": "rhf"
			},
			{
				"type": "unocc",
				"energy": 0.03491,
				"method": "rhf"
			},
			{
				"type": "unocc",
				"energy": 0.08252,
				"method": "rhf"
			},
			{
				"type": "unocc",
				"energy": 0.09642,
				"method": "rhf"
			}
		],
		"cosmo_sigma_profile": { 
			"-0.025": 0.0,
			"-0.024": 0.0,
			"-0.023": 0.0,
			"-0.022": 0.0,
			"-0.021": 0.0,
			"-0.02": 0.0,
			"-0.019": 0.0,
			"-0.018": 0.0,
			"-0.017": 0.0,
			"-0.016": 0.0,
			"-0.015": 0.0844572122552,
			"-0.014": 0.775155503796,
			"-0.013": 0.689443654926,
			"-0.012": 0.447774617164,
			"-0.011": 0.949528857424,
			"-0.01": 0.9133737101,
			"-0.009": 0.430395935554,
			"-0.008": 2.57091934459,
			"-0.007": 8.06130445346,
			"-0.006": 13.4933587473,
			"-0.005": 15.7249807721,
			"-0.004": 18.7484886533,
			"-0.003": 12.8022318385,
			"-0.002": 13.8907385732,
			"-0.001": 10.2390641392,
			"0.0": 10.0186991014,
			"0.001": 10.3266605516,
			"0.002": 8.89923880284,
			"0.003": 11.6574977063,
			"0.004": 15.1417521505,
			"0.005": 11.3340936124,
			"0.006": 9.42683419484,
			"0.007": 8.69061079224,
			"0.008": 1.40223251472,
			"0.009": 1.51168812497,
			"0.01": 0.850644112708,
			"0.011": 1.2620035158,
			"0.012": 1.5223082599,
			"0.013": 1.56206245867,
			"0.014": 2.35977559035,
			"0.015": 1.1425593268,
			"0.016": 0.0,
			"0.017": 0.0,
			"0.018": 0.0,
			"0.019": 0.0,
			"0.02": 0.0,
			"0.021": 0.0,
			"0.022": 0.0,
			"0.023": 0.0,
			"0.024": 0.0,
			"0.025": 0.0
		}
	}
}
