{
	 "smiles": "COC1=C(SC=C1)C(O)=O", 
	 "Tm": 453.15, 
	 "num_atms": 16, 
	 "gaussian": { 
		 "optdone": 1, 
		 "sigma_profile": "yes", 
		 "theory": "DFT", 
		 "functional": "B3LYP", 
		 "basiset": "6-31G**", 
		 "properties": { 
			 "R2extent": 1884.3345, 
			 "electric_dipole_moment_norm": 7.40354536759, 
			 "electric_quadrupole_moment_norm": 14.5026682342, 
			 "total_energy": -856.094883448, 
			 "HOMO_LUMO_gap": 0.18647, 
			 "cosmo_polarized_energy": -15.59, 
			 "cosmo_cavitation_energy": 21.88, 
			 "cosmo_dispersion_energy": -16.99, 
			 "cosmo_repulsion_energy": 1.33, 
			 "cosmo_total_nonelectrostatic_energy": 6.21, 
			 "SMD_solvation_energy": 5.83 
		},
		"coords": [
			{
				"x": 1.6546660795,
				"y": -1.5708977388,
				"z": -1.7795109909,
				"element": "C" 
			},
			{
				"x": 1.7196797175,
				"y": -0.7338539098,
				"z": -0.6253813667,
				"element": "O" 
			},
			{
				"x": 0.6043317171,
				"y": -0.0261973866,
				"z": -0.2782630096,
				"element": "C" 
			},
			{
				"x": 0.630076115,
				"y": 0.7965785142,
				"z": 0.8358041281,
				"element": "C" 
			},
			{
				"x": -0.9094305715,
				"y": 1.5785356283,
				"z": 1.0543255476,
				"element": "S" 
			},
			{
				"x": -1.5539808159,
				"y": 0.7959332313,
				"z": -0.3382650284,
				"element": "C" 
			},
			{
				"x": -0.6498307659,
				"y": -0.0297879858,
				"z": -0.956706695,
				"element": "C" 
			},
			{
				"x": 1.7168653294,
				"y": 1.0762220652,
				"z": 1.7936831996,
				"element": "C" 
			},
			{
				"x": 2.8894449904,
				"y": 0.4394277581,
				"z": 1.5710356756,
				"element": "O" 
			},
			{
				"x": 1.5815276336,
				"y": 1.8331489969,
				"z": 2.7317955943,
				"element": "O" 
			},
			{
				"x": 2.6369296897,
				"y": -2.0343304816,
				"z": -1.8716552948,
				"element": "H" 
			},
			{
				"x": 0.8929268931,
				"y": -2.3489136348,
				"z": -1.657180969,
				"element": "H" 
			},
			{
				"x": 1.4416929766,
				"y": -0.9826225937,
				"z": -2.6790060536,
				"element": "H" 
			},
			{
				"x": -2.5760993533,
				"y": 0.9815613416,
				"z": -0.6390366249,
				"element": "H" 
			},
			{
				"x": -0.8719861496,
				"y": -0.6054568601,
				"z": -1.8457050191,
				"element": "H" 
			},
			{
				"x": 2.8201865143,
				"y": -0.1244469444,
				"z": 0.7799669069,
				"element": "H" 
			}
		],
		 "valence_orbital": [ 
			{
				"type": "occ",
				"energy": -0.35226,
				"method": "rhf"
			},
			{
				"type": "occ",
				"energy": -0.30052,
				"method": "rhf"
			},
			{
				"type": "occ",
				"energy": -0.26374,
				"method": "rhf"
			},
			{
				"type": "occ",
				"energy": -0.26164,
				"method": "rhf"
			},
			{
				"type": "occ",
				"energy": -0.23825,
				"method": "rhf"
			},
			{
				"type": "unocc",
				"energy": -0.05178,
				"method": "rhf"
			},
			{
				"type": "unocc",
				"energy": 0.01711,
				"method": "rhf"
			},
			{
				"type": "unocc",
				"energy": 0.03105,
				"method": "rhf"
			},
			{
				"type": "unocc",
				"energy": 0.07282,
				"method": "rhf"
			},
			{
				"type": "unocc",
				"energy": 0.07961,
				"method": "rhf"
			}
		],
		"cosmo_sigma_profile": { 
			"-0.025": 0.0,
			"-0.024": 0.0,
			"-0.023": 0.0,
			"-0.022": 0.0,
			"-0.021": 0.0,
			"-0.02": 0.0,
			"-0.019": 0.0,
			"-0.018": 0.0,
			"-0.017": 0.0,
			"-0.016": 0.0,
			"-0.015": 0.0,
			"-0.014": 0.0,
			"-0.013": 0.0,
			"-0.012": 0.0,
			"-0.011": 0.125273815465,
			"-0.01": 1.19820266786,
			"-0.009": 3.71170394051,
			"-0.008": 5.24097335226,
			"-0.007": 9.96247433695,
			"-0.006": 14.7514501259,
			"-0.005": 13.7516489457,
			"-0.004": 12.6990477446,
			"-0.003": 8.9029167802,
			"-0.002": 8.4425300156,
			"-0.001": 8.64264308625,
			"0.0": 9.67794336574,
			"0.001": 15.6158162927,
			"0.002": 15.6588054573,
			"0.003": 12.173602399,
			"0.004": 4.60987897853,
			"0.005": 2.62914407051,
			"0.006": 2.3294458079,
			"0.007": 2.29473135684,
			"0.008": 3.15447513925,
			"0.009": 2.68465238827,
			"0.01": 3.68356255072,
			"0.011": 5.32844003891,
			"0.012": 5.83597959062,
			"0.013": 3.42453162156,
			"0.014": 0.911524487816,
			"0.015": 0.0,
			"0.016": 0.0,
			"0.017": 0.0,
			"0.018": 0.0,
			"0.019": 0.0,
			"0.02": 0.0,
			"0.021": 0.0,
			"0.022": 0.0,
			"0.023": 0.0,
			"0.024": 0.0,
			"0.025": 0.0
		}
	}
}
