{
	 "smiles": "CC(C)(C)C1=CC=C(C=C1)C1(CCCC1)C(O)=O", 
	 "Tm": 463.15, 
	 "num_atms": 40, 
	 "gaussian": { 
		 "optdone": 1, 
		 "sigma_profile": "yes", 
		 "theory": "DFT", 
		 "functional": "B3LYP", 
		 "basiset": "6-31G**", 
		 "properties": { 
			 "R2extent": 6459.6857, 
			 "electric_dipole_moment_norm": 1.53286117114, 
			 "electric_quadrupole_moment_norm": 7.37355562738, 
			 "total_energy": -773.446583055, 
			 "HOMO_LUMO_gap": 0.22325, 
			 "cosmo_polarized_energy": -9.39, 
			 "cosmo_cavitation_energy": 39.56, 
			 "cosmo_dispersion_energy": -27.52, 
			 "cosmo_repulsion_energy": 2.13, 
			 "cosmo_total_nonelectrostatic_energy": 14.17, 
			 "SMD_solvation_energy": 7.22 
		},
		"coords": [
			{
				"x": -1.514274103,
				"y": 5.2811727159,
				"z": 1.3378886782,
				"element": "C" 
			},
			{
				"x": -0.4224633816,
				"y": 4.3441450231,
				"z": 1.8884319007,
				"element": "C" 
			},
			{
				"x": -0.7776695722,
				"y": 3.9991048523,
				"z": 3.3544454917,
				"element": "C" 
			},
			{
				"x": 0.9260294391,
				"y": 5.1022660763,
				"z": 1.8536804646,
				"element": "C" 
			},
			{
				"x": -0.3004141796,
				"y": 3.0453778184,
				"z": 1.0711852156,
				"element": "C" 
			},
			{
				"x": 0.6451790447,
				"y": 2.0720020751,
				"z": 1.4316573574,
				"element": "C" 
			},
			{
				"x": 0.7886803771,
				"y": 0.8840258418,
				"z": 0.7174068198,
				"element": "C" 
			},
			{
				"x": -0.006192099,
				"y": 0.6170130189,
				"z": -0.4043267772,
				"element": "C" 
			},
			{
				"x": -0.9617672407,
				"y": 1.5761505236,
				"z": -0.7624963531,
				"element": "C" 
			},
			{
				"x": -1.1025091451,
				"y": 2.7636745735,
				"z": -0.0431730515,
				"element": "C" 
			},
			{
				"x": 0.1260884223,
				"y": -0.6712190563,
				"z": -1.222461891,
				"element": "C" 
			},
			{
				"x": 0.3081662012,
				"y": -0.4188772163,
				"z": -2.7422506219,
				"element": "C" 
			},
			{
				"x": 0.8931746341,
				"y": -1.734516257,
				"z": -3.3143344529,
				"element": "C" 
			},
			{
				"x": 1.4567756026,
				"y": -2.5184764585,
				"z": -2.0928536026,
				"element": "C" 
			},
			{
				"x": 1.3621794752,
				"y": -1.5457523494,
				"z": -0.9017859778,
				"element": "C" 
			},
			{
				"x": -1.1714239923,
				"y": -1.463351997,
				"z": -0.998448918,
				"element": "C" 
			},
			{
				"x": -1.1844364272,
				"y": -2.1128613528,
				"z": 0.1907908705,
				"element": "O" 
			},
			{
				"x": -2.1167375692,
				"y": -1.5005074826,
				"z": -1.757859458,
				"element": "O" 
			},
			{
				"x": -1.5631149585,
				"y": 6.1889770006,
				"z": 1.9480418013,
				"element": "H" 
			},
			{
				"x": -1.3070137686,
				"y": 5.587501759,
				"z": 0.3072566126,
				"element": "H" 
			},
			{
				"x": -2.5039984357,
				"y": 4.8134410091,
				"z": 1.3633291234,
				"element": "H" 
			},
			{
				"x": -1.7327656031,
				"y": 3.4666070305,
				"z": 3.4107189873,
				"element": "H" 
			},
			{
				"x": -0.0157706951,
				"y": 3.3670274368,
				"z": 3.8201554638,
				"element": "H" 
			},
			{
				"x": -0.8624520692,
				"y": 4.9138571922,
				"z": 3.952143463,
				"element": "H" 
			},
			{
				"x": 1.2000538215,
				"y": 5.3667053497,
				"z": 0.8270427814,
				"element": "H" 
			},
			{
				"x": 0.8590143931,
				"y": 6.0278196692,
				"z": 2.4368439755,
				"element": "H" 
			},
			{
				"x": 1.7403658519,
				"y": 4.5035000965,
				"z": 2.2723481607,
				"element": "H" 
			},
			{
				"x": 1.2880000111,
				"y": 2.2358650792,
				"z": 2.29197026,
				"element": "H" 
			},
			{
				"x": 1.5291434828,
				"y": 0.1622350094,
				"z": 1.0454400623,
				"element": "H" 
			},
			{
				"x": -1.6138900878,
				"y": 1.3927187619,
				"z": -1.611499062,
				"element": "H" 
			},
			{
				"x": -1.8558992786,
				"y": 3.4724373351,
				"z": -0.3676637277,
				"element": "H" 
			},
			{
				"x": -0.6287899681,
				"y": -0.1338274439,
				"z": -3.2231438855,
				"element": "H" 
			},
			{
				"x": 1.0163126117,
				"y": 0.4073358281,
				"z": -2.8629120072,
				"element": "H" 
			},
			{
				"x": 0.1165177962,
				"y": -2.3148701039,
				"z": -3.8204433612,
				"element": "H" 
			},
			{
				"x": 1.6688743593,
				"y": -1.5267899944,
				"z": -4.057458669,
				"element": "H" 
			},
			{
				"x": 0.8467192225,
				"y": -3.4074644331,
				"z": -1.8966401518,
				"element": "H" 
			},
			{
				"x": 2.4805013978,
				"y": -2.8703163106,
				"z": -2.2508014354,
				"element": "H" 
			},
			{
				"x": 1.2940089659,
				"y": -2.0523974395,
				"z": 0.0631810145,
				"element": "H" 
			},
			{
				"x": 2.2421076036,
				"y": -0.8924531508,
				"z": -0.8782183214,
				"element": "H" 
			},
			{
				"x": -2.0576101392,
				"y": -2.5352800302,
				"z": 0.2528132209,
				"element": "H" 
			}
		],
		 "valence_orbital": [ 
			{
				"type": "occ",
				"energy": -0.3116,
				"method": "rhf"
			},
			{
				"type": "occ",
				"energy": -0.31087,
				"method": "rhf"
			},
			{
				"type": "occ",
				"energy": -0.27046,
				"method": "rhf"
			},
			{
				"type": "occ",
				"energy": -0.24523,
				"method": "rhf"
			},
			{
				"type": "occ",
				"energy": -0.23153,
				"method": "rhf"
			},
			{
				"type": "unocc",
				"energy": -0.00828,
				"method": "rhf"
			},
			{
				"type": "unocc",
				"energy": 9e-05,
				"method": "rhf"
			},
			{
				"type": "unocc",
				"energy": 0.02591,
				"method": "rhf"
			},
			{
				"type": "unocc",
				"energy": 0.0741,
				"method": "rhf"
			},
			{
				"type": "unocc",
				"energy": 0.08261,
				"method": "rhf"
			}
		],
		"cosmo_sigma_profile": { 
			"-0.025": 0.0,
			"-0.024": 0.0,
			"-0.023": 0.0,
			"-0.022": 0.0,
			"-0.021": 0.0,
			"-0.02": 0.0,
			"-0.019": 0.0,
			"-0.018": 0.571810108502,
			"-0.017": 1.1776045953,
			"-0.016": 0.750510536303,
			"-0.015": 0.45522601832,
			"-0.014": 0.748989962166,
			"-0.013": 0.545631540429,
			"-0.012": 0.424247938668,
			"-0.011": 1.48075593355,
			"-0.01": 0.867863276121,
			"-0.009": 0.374554598642,
			"-0.008": 0.624776762538,
			"-0.007": 0.67025272141,
			"-0.006": 1.12903316636,
			"-0.005": 6.39432963309,
			"-0.004": 12.2791513688,
			"-0.003": 37.0530244242,
			"-0.002": 44.1893536861,
			"-0.001": 41.5535325858,
			"0.0": 35.229739734,
			"0.001": 41.4175049042,
			"0.002": 20.5421864688,
			"0.003": 10.0990680257,
			"0.004": 9.31579194007,
			"0.005": 10.9721482089,
			"0.006": 10.7310167485,
			"0.007": 3.93403066432,
			"0.008": 2.74151579237,
			"0.009": 2.36456513326,
			"0.01": 1.57640632483,
			"0.011": 2.80172769992,
			"0.012": 4.17798077545,
			"0.013": 0.17580289228,
			"0.014": 0.0,
			"0.015": 0.0,
			"0.016": 0.0,
			"0.017": 0.0,
			"0.018": 0.0,
			"0.019": 0.0,
			"0.02": 0.0,
			"0.021": 0.0,
			"0.022": 0.0,
			"0.023": 0.0,
			"0.024": 0.0,
			"0.025": 0.0
		}
	}
}
