{
	 "smiles": "CC1C2CC3OCC45C3C3(C2OC(C)(C)OC3CC4C(C)(C)CCC5O)C1=O", 
	 "Tm": 477.15, 
	 "num_atms": 62, 
	 "gaussian": { 
		 "optdone": 1, 
		 "sigma_profile": "yes", 
		 "theory": "DFT", 
		 "functional": "B3LYP", 
		 "basiset": "6-31G**", 
		 "properties": { 
			 "R2extent": 9333.0785, 
			 "electric_dipole_moment_norm": 2.67896448838, 
			 "electric_quadrupole_moment_norm": 13.9374807605, 
			 "total_energy": -1273.0175683, 
			 "HOMO_LUMO_gap": 0.2235, 
			 "cosmo_polarized_energy": -20.24, 
			 "cosmo_cavitation_energy": 51.49, 
			 "cosmo_dispersion_energy": -35.07, 
			 "cosmo_repulsion_energy": 2.54, 
			 "cosmo_total_nonelectrostatic_energy": 18.96, 
			 "SMD_solvation_energy": 7.95 
		},
		"coords": [
			{
				"x": -4.2232138299,
				"y": -0.3164064089,
				"z": 1.0130151726,
				"element": "C" 
			},
			{
				"x": -2.9881301545,
				"y": 0.5495779337,
				"z": 1.2663828186,
				"element": "C" 
			},
			{
				"x": -2.7625430081,
				"y": 1.843957646,
				"z": 0.414197963,
				"element": "C" 
			},
			{
				"x": -3.1250332123,
				"y": 1.7972248407,
				"z": -1.1268240758,
				"element": "C" 
			},
			{
				"x": -1.918000586,
				"y": 1.2834314548,
				"z": -1.9269419079,
				"element": "C" 
			},
			{
				"x": -2.1179566883,
				"y": 0.7968765155,
				"z": -3.2491585294,
				"element": "O" 
			},
			{
				"x": -0.8683244421,
				"y": 0.1443582448,
				"z": -3.5265577194,
				"element": "C" 
			},
			{
				"x": -0.485515793,
				"y": -0.6948455032,
				"z": -2.243071059,
				"element": "C" 
			},
			{
				"x": -1.346726097,
				"y": 0.0794202706,
				"z": -1.1980286494,
				"element": "C" 
			},
			{
				"x": -0.7764249164,
				"y": 0.5499853838,
				"z": 0.1559510426,
				"element": "C" 
			},
			{
				"x": -1.2335499177,
				"y": 1.9748832476,
				"z": 0.5216275406,
				"element": "C" 
			},
			{
				"x": -0.8156056827,
				"y": 2.1839893282,
				"z": 1.8754071615,
				"element": "O" 
			},
			{
				"x": 0.5956452731,
				"y": 2.0000886901,
				"z": 2.1324217885,
				"element": "C" 
			},
			{
				"x": 0.7087930098,
				"y": 1.8596658184,
				"z": 3.6439122444,
				"element": "C" 
			},
			{
				"x": 1.3895506029,
				"y": 3.2055096946,
				"z": 1.6071575031,
				"element": "C" 
			},
			{
				"x": 1.1076447205,
				"y": 0.7745228511,
				"z": 1.5956045255,
				"element": "O" 
			},
			{
				"x": 0.7327634537,
				"y": 0.5277394294,
				"z": 0.2400267799,
				"element": "C" 
			},
			{
				"x": 1.3169244516,
				"y": -0.7440545693,
				"z": -0.3500730801,
				"element": "C" 
			},
			{
				"x": 1.0495474726,
				"y": -0.7515706518,
				"z": -1.8859258293,
				"element": "C" 
			},
			{
				"x": 1.8602041723,
				"y": -1.8922899734,
				"z": -2.6264313817,
				"element": "C" 
			},
			{
				"x": 2.1372687339,
				"y": -3.1303170178,
				"z": -1.7416488393,
				"element": "C" 
			},
			{
				"x": 3.2193793044,
				"y": -1.3163052429,
				"z": -3.0721853295,
				"element": "C" 
			},
			{
				"x": 1.0769470667,
				"y": -2.33652884,
				"z": -3.8793113899,
				"element": "C" 
			},
			{
				"x": -0.3223688134,
				"y": -2.8937284588,
				"z": -3.5609668587,
				"element": "C" 
			},
			{
				"x": -1.0690336062,
				"y": -2.1083602238,
				"z": -2.4504513163,
				"element": "C" 
			},
			{
				"x": -1.0199359733,
				"y": -2.7708142823,
				"z": -1.1845861763,
				"element": "O" 
			},
			{
				"x": -1.6425363157,
				"y": -0.2296911046,
				"z": 1.1677402523,
				"element": "C" 
			},
			{
				"x": -1.3950421849,
				"y": -1.2648788223,
				"z": 1.7397236435,
				"element": "O" 
			},
			{
				"x": -5.1443417527,
				"y": 0.2355689205,
				"z": 1.2280794123,
				"element": "H" 
			},
			{
				"x": -4.1880003605,
				"y": -1.1925292022,
				"z": 1.6669531983,
				"element": "H" 
			},
			{
				"x": -4.2821071244,
				"y": -0.6775470418,
				"z": -0.0184777574,
				"element": "H" 
			},
			{
				"x": -3.0248958165,
				"y": 0.8788927213,
				"z": 2.3116012383,
				"element": "H" 
			},
			{
				"x": -3.2848283568,
				"y": 2.6892175169,
				"z": 0.8714963595,
				"element": "H" 
			},
			{
				"x": -3.9843020341,
				"y": 1.1418145489,
				"z": -1.301816451,
				"element": "H" 
			},
			{
				"x": -3.4124374104,
				"y": 2.8002816105,
				"z": -1.4577791844,
				"element": "H" 
			},
			{
				"x": -1.1633112453,
				"y": 2.0844637053,
				"z": -1.9903030807,
				"element": "H" 
			},
			{
				"x": -0.0900359544,
				"y": 0.8976597904,
				"z": -3.73029205,
				"element": "H" 
			},
			{
				"x": -1.0159907991,
				"y": -0.4523755369,
				"z": -4.4280929641,
				"element": "H" 
			},
			{
				"x": -2.2033772556,
				"y": -0.5716209742,
				"z": -0.998404897,
				"element": "H" 
			},
			{
				"x": -0.8233229894,
				"y": 2.7630810278,
				"z": -0.1186659099,
				"element": "H" 
			},
			{
				"x": 0.315600107,
				"y": 2.7516011887,
				"z": 4.1378737539,
				"element": "H" 
			},
			{
				"x": 1.754714495,
				"y": 1.7217998313,
				"z": 3.9285749694,
				"element": "H" 
			},
			{
				"x": 0.1369284419,
				"y": 0.9867317082,
				"z": 3.9648364968,
				"element": "H" 
			},
			{
				"x": 1.0161745273,
				"y": 4.1231616557,
				"z": 2.0692489729,
				"element": "H" 
			},
			{
				"x": 2.4466460439,
				"y": 3.0856955782,
				"z": 1.8584703614,
				"element": "H" 
			},
			{
				"x": 1.3129869644,
				"y": 3.3192616448,
				"z": 0.5231551749,
				"element": "H" 
			},
			{
				"x": 1.1059799525,
				"y": 1.3599519853,
				"z": -0.3843708472,
				"element": "H" 
			},
			{
				"x": 0.8771209633,
				"y": -1.6166141843,
				"z": 0.1366933806,
				"element": "H" 
			},
			{
				"x": 2.3974516929,
				"y": -0.7565476336,
				"z": -0.1703695845,
				"element": "H" 
			},
			{
				"x": 1.4644337154,
				"y": 0.1950643353,
				"z": -2.2638136525,
				"element": "H" 
			},
			{
				"x": 1.2239126156,
				"y": -3.5339791488,
				"z": -1.3028397606,
				"element": "H" 
			},
			{
				"x": 2.6093181024,
				"y": -3.913059911,
				"z": -2.3472708451,
				"element": "H" 
			},
			{
				"x": 2.8266054847,
				"y": -2.8953308264,
				"z": -0.9257800055,
				"element": "H" 
			},
			{
				"x": 3.7850459025,
				"y": -0.9281225965,
				"z": -2.2175486262,
				"element": "H" 
			},
			{
				"x": 3.0915986233,
				"y": -0.496892532,
				"z": -3.7891684097,
				"element": "H" 
			},
			{
				"x": 3.8341196011,
				"y": -2.0871935528,
				"z": -3.550904025,
				"element": "H" 
			},
			{
				"x": 0.9879063903,
				"y": -1.4811148077,
				"z": -4.5615289846,
				"element": "H" 
			},
			{
				"x": 1.6573293037,
				"y": -3.0904378793,
				"z": -4.4254465931,
				"element": "H" 
			},
			{
				"x": -0.9238125686,
				"y": -2.9047929012,
				"z": -4.4773986819,
				"element": "H" 
			},
			{
				"x": -0.2468907551,
				"y": -3.9381463769,
				"z": -3.2380125303,
				"element": "H" 
			},
			{
				"x": -2.1219358962,
				"y": -1.9833815793,
				"z": -2.7478984885,
				"element": "H" 
			},
			{
				"x": -1.5286096471,
				"y": -3.5891013342,
				"z": -1.2439062833,
				"element": "H" 
			}
		],
		 "valence_orbital": [ 
			{
				"type": "occ",
				"energy": -0.26848,
				"method": "rhf"
			},
			{
				"type": "occ",
				"energy": -0.26266,
				"method": "rhf"
			},
			{
				"type": "occ",
				"energy": -0.25647,
				"method": "rhf"
			},
			{
				"type": "occ",
				"energy": -0.24606,
				"method": "rhf"
			},
			{
				"type": "occ",
				"energy": -0.21927,
				"method": "rhf"
			},
			{
				"type": "unocc",
				"energy": 0.00423,
				"method": "rhf"
			},
			{
				"type": "unocc",
				"energy": 0.06151,
				"method": "rhf"
			},
			{
				"type": "unocc",
				"energy": 0.06564,
				"method": "rhf"
			},
			{
				"type": "unocc",
				"energy": 0.07831,
				"method": "rhf"
			},
			{
				"type": "unocc",
				"energy": 0.08215,
				"method": "rhf"
			}
		],
		"cosmo_sigma_profile": { 
			"-0.025": 0.0,
			"-0.024": 0.0,
			"-0.023": 0.0,
			"-0.022": 0.0,
			"-0.021": 0.0,
			"-0.02": 0.0,
			"-0.019": 0.0,
			"-0.018": 0.0,
			"-0.017": 0.0,
			"-0.016": 0.122174320383,
			"-0.015": 0.901568728247,
			"-0.014": 0.94825495893,
			"-0.013": 1.06401398677,
			"-0.012": 1.03588204821,
			"-0.011": 0.380590634271,
			"-0.01": 0.826117061832,
			"-0.009": 1.30702724358,
			"-0.008": 1.34569314082,
			"-0.007": 4.33766710201,
			"-0.006": 6.99503765033,
			"-0.005": 12.5160356632,
			"-0.004": 35.5022127051,
			"-0.003": 51.1143240706,
			"-0.002": 53.6947351658,
			"-0.001": 46.9358353128,
			"0.0": 44.0288842414,
			"0.001": 34.408932617,
			"0.002": 20.5834999168,
			"0.003": 10.2689926164,
			"0.004": 7.16328617613,
			"0.005": 6.32545043513,
			"0.006": 5.73546690001,
			"0.007": 6.9537291989,
			"0.008": 5.29551426053,
			"0.009": 5.51107570578,
			"0.01": 5.791717577,
			"0.011": 8.09002431025,
			"0.012": 11.0160721801,
			"0.013": 3.89140225534,
			"0.014": 0.607503340385,
			"0.015": 0.0,
			"0.016": 0.0,
			"0.017": 0.0,
			"0.018": 0.0,
			"0.019": 0.0,
			"0.02": 0.0,
			"0.021": 0.0,
			"0.022": 0.0,
			"0.023": 0.0,
			"0.024": 0.0,
			"0.025": 0.0
		}
	}
}
