{
	 "smiles": "O=C1C=CC(=O)N1CC#C", 
	 "Tm": 320.15, 
	 "num_atms": 15, 
	 "gaussian": { 
		 "optdone": 1, 
		 "sigma_profile": "yes", 
		 "theory": "DFT", 
		 "functional": "B3LYP", 
		 "basiset": "6-31G**", 
		 "properties": { 
			 "R2extent": 1658.2301, 
			 "electric_dipole_moment_norm": 1.42604189981, 
			 "electric_quadrupole_moment_norm": 15.0539889036, 
			 "total_energy": -474.874308058, 
			 "HOMO_LUMO_gap": 0.17302, 
			 "cosmo_polarized_energy": -11.5, 
			 "cosmo_cavitation_energy": 21.61, 
			 "cosmo_dispersion_energy": -14.63, 
			 "cosmo_repulsion_energy": 1.19, 
			 "cosmo_total_nonelectrostatic_energy": 8.16, 
			 "SMD_solvation_energy": 6.8 
		},
		"coords": [
			{
				"x": 0.1380884393,
				"y": -0.223645838,
				"z": 2.7462717459,
				"element": "O" 
			},
			{
				"x": 0.2105191897,
				"y": -0.1572407929,
				"z": 1.5373657932,
				"element": "C" 
			},
			{
				"x": 1.4102921835,
				"y": 0.151901493,
				"z": 0.6864068624,
				"element": "C" 
			},
			{
				"x": 1.0420162081,
				"y": 0.1402131092,
				"z": -0.59871128,
				"element": "C" 
			},
			{
				"x": -0.4248585791,
				"y": -0.1773477436,
				"z": -0.679783197,
				"element": "C" 
			},
			{
				"x": -1.1262201595,
				"y": -0.2636768885,
				"z": -1.6655602409,
				"element": "O" 
			},
			{
				"x": -0.8515142358,
				"y": -0.3409549925,
				"z": 0.6436739759,
				"element": "N" 
			},
			{
				"x": -2.2060597189,
				"y": -0.7115136002,
				"z": 1.0352113772,
				"element": "C" 
			},
			{
				"x": -2.4182982832,
				"y": -2.1604661066,
				"z": 1.1103772704,
				"element": "C" 
			},
			{
				"x": -2.6098599692,
				"y": -3.3497277458,
				"z": 1.1769105392,
				"element": "C" 
			},
			{
				"x": 2.3814969684,
				"y": 0.3482429061,
				"z": 1.121083682,
				"element": "H" 
			},
			{
				"x": 1.6346720371,
				"y": 0.3245214249,
				"z": -1.4850104018,
				"element": "H" 
			},
			{
				"x": -2.8877395146,
				"y": -0.2695624898,
				"z": 0.3015558525,
				"element": "H" 
			},
			{
				"x": -2.398683165,
				"y": -0.2525385882,
				"z": 2.010146353,
				"element": "H" 
			},
			{
				"x": -2.7697514008,
				"y": -4.401704147,
				"z": 1.233061668,
				"element": "H" 
			}
		],
		 "valence_orbital": [ 
			{
				"type": "occ",
				"energy": -0.30749,
				"method": "rhf"
			},
			{
				"type": "occ",
				"energy": -0.28941,
				"method": "rhf"
			},
			{
				"type": "occ",
				"energy": -0.27686,
				"method": "rhf"
			},
			{
				"type": "occ",
				"energy": -0.27673,
				"method": "rhf"
			},
			{
				"type": "occ",
				"energy": -0.27321,
				"method": "rhf"
			},
			{
				"type": "unocc",
				"energy": -0.10019,
				"method": "rhf"
			},
			{
				"type": "unocc",
				"energy": 0.02975,
				"method": "rhf"
			},
			{
				"type": "unocc",
				"energy": 0.04526,
				"method": "rhf"
			},
			{
				"type": "unocc",
				"energy": 0.05525,
				"method": "rhf"
			},
			{
				"type": "unocc",
				"energy": 0.06476,
				"method": "rhf"
			}
		],
		"cosmo_sigma_profile": { 
			"-0.025": 0.0,
			"-0.024": 0.0,
			"-0.023": 0.0,
			"-0.022": 0.0,
			"-0.021": 0.0,
			"-0.02": 0.0,
			"-0.019": 0.0,
			"-0.018": 0.0,
			"-0.017": 0.0,
			"-0.016": 0.0,
			"-0.015": 0.0,
			"-0.014": 0.0,
			"-0.013": 0.0385623354142,
			"-0.012": 0.905966409278,
			"-0.011": 1.30792848528,
			"-0.01": 2.8684232659,
			"-0.009": 5.14349957027,
			"-0.008": 7.38533045175,
			"-0.007": 7.58481873783,
			"-0.006": 9.5633281623,
			"-0.005": 12.8954874227,
			"-0.004": 12.8336561408,
			"-0.003": 11.4414233293,
			"-0.002": 9.75946366031,
			"-0.001": 8.9362790258,
			"0.0": 8.20823482657,
			"0.001": 7.88223244808,
			"0.002": 5.7825822525,
			"0.003": 6.86258697643,
			"0.004": 9.48872303694,
			"0.005": 9.02422842742,
			"0.006": 8.85311319163,
			"0.007": 4.19276818854,
			"0.008": 3.70368418417,
			"0.009": 4.08464284671,
			"0.01": 7.8005685267,
			"0.011": 7.61621650828,
			"0.012": 1.19297525208,
			"0.013": 0.0,
			"0.014": 0.0,
			"0.015": 0.0,
			"0.016": 0.0,
			"0.017": 0.0,
			"0.018": 0.0,
			"0.019": 0.0,
			"0.02": 0.0,
			"0.021": 0.0,
			"0.022": 0.0,
			"0.023": 0.0,
			"0.024": 0.0,
			"0.025": 0.0
		}
	}
}
