{
	 "smiles": "CN1N=C(N)C2=C1NC=CC2=O", 
	 "Tm": 491.15, 
	 "num_atms": 20, 
	 "gaussian": { 
		 "optdone": 1, 
		 "sigma_profile": "yes", 
		 "theory": "DFT", 
		 "functional": "B3LYP", 
		 "basiset": "6-31G**", 
		 "properties": { 
			 "R2extent": 2463.7328, 
			 "electric_dipole_moment_norm": 6.45934320578, 
			 "electric_quadrupole_moment_norm": 16.629486195, 
			 "total_energy": -565.779036346, 
			 "HOMO_LUMO_gap": 0.17422, 
			 "cosmo_polarized_energy": -24.48, 
			 "cosmo_cavitation_energy": 24.01, 
			 "cosmo_dispersion_energy": -18.21, 
			 "cosmo_repulsion_energy": 1.45, 
			 "cosmo_total_nonelectrostatic_energy": 7.25, 
			 "SMD_solvation_energy": 3.67 
		},
		"coords": [
			{
				"x": 2.2822264772,
				"y": -2.0734213245,
				"z": 3.3739759051,
				"element": "C" 
			},
			{
				"x": 1.3956732409,
				"y": -1.7227443707,
				"z": 2.2901543762,
				"element": "N" 
			},
			{
				"x": 0.9639694709,
				"y": -2.7208250191,
				"z": 1.4159173531,
				"element": "N" 
			},
			{
				"x": 0.2906796529,
				"y": -2.0809750104,
				"z": 0.4664983837,
				"element": "C" 
			},
			{
				"x": -0.3733540752,
				"y": -2.7063450657,
				"z": -0.5589924756,
				"element": "N" 
			},
			{
				"x": 0.2903934632,
				"y": -0.6670709205,
				"z": 0.6752995544,
				"element": "C" 
			},
			{
				"x": 1.0203484969,
				"y": -0.5037062768,
				"z": 1.8482171037,
				"element": "C" 
			},
			{
				"x": 1.262744984,
				"y": 0.7334251727,
				"z": 2.3876046468,
				"element": "N" 
			},
			{
				"x": 0.7600299178,
				"y": 1.8380145238,
				"z": 1.7183450439,
				"element": "C" 
			},
			{
				"x": 0.0507413338,
				"y": 1.7399822163,
				"z": 0.5645392261,
				"element": "C" 
			},
			{
				"x": -0.2373454535,
				"y": 0.4445504088,
				"z": -0.0814432238,
				"element": "C" 
			},
			{
				"x": -0.8464577573,
				"y": 0.3258092162,
				"z": -1.1552752803,
				"element": "O" 
			},
			{
				"x": 2.1517243697,
				"y": -1.3765061319,
				"z": 4.2082307935,
				"element": "H" 
			},
			{
				"x": 3.3353234179,
				"y": -2.073842948,
				"z": 3.065305657,
				"element": "H" 
			},
			{
				"x": 2.0152585941,
				"y": -3.0743464737,
				"z": 3.7155582453,
				"element": "H" 
			},
			{
				"x": -0.0383099289,
				"y": -3.6204040873,
				"z": -0.8238853515,
				"element": "H" 
			},
			{
				"x": -0.6351891054,
				"y": -2.0807621807,
				"z": -1.310771867,
				"element": "H" 
			},
			{
				"x": 1.8151068683,
				"y": 0.851626798,
				"z": 3.2217873769,
				"element": "H" 
			},
			{
				"x": 0.9813682926,
				"y": 2.7897259007,
				"z": 2.1886499751,
				"element": "H" 
			},
			{
				"x": -0.31333226,
				"y": 2.6403155727,
				"z": 0.0831845575,
				"element": "H" 
			}
		],
		 "valence_orbital": [ 
			{
				"type": "occ",
				"energy": -0.28612,
				"method": "rhf"
			},
			{
				"type": "occ",
				"energy": -0.25735,
				"method": "rhf"
			},
			{
				"type": "occ",
				"energy": -0.22312,
				"method": "rhf"
			},
			{
				"type": "occ",
				"energy": -0.2192,
				"method": "rhf"
			},
			{
				"type": "occ",
				"energy": -0.19467,
				"method": "rhf"
			},
			{
				"type": "unocc",
				"energy": -0.02045,
				"method": "rhf"
			},
			{
				"type": "unocc",
				"energy": 0.01763,
				"method": "rhf"
			},
			{
				"type": "unocc",
				"energy": 0.03889,
				"method": "rhf"
			},
			{
				"type": "unocc",
				"energy": 0.06615,
				"method": "rhf"
			},
			{
				"type": "unocc",
				"energy": 0.09814,
				"method": "rhf"
			}
		],
		"cosmo_sigma_profile": { 
			"-0.025": 0.0,
			"-0.024": 0.0,
			"-0.023": 0.0,
			"-0.022": 0.0,
			"-0.021": 0.0,
			"-0.02": 0.0,
			"-0.019": 0.0,
			"-0.018": 0.152130149757,
			"-0.017": 1.38369692021,
			"-0.016": 1.37371878145,
			"-0.015": 1.93732193888,
			"-0.014": 1.54270111071,
			"-0.013": 2.40131255154,
			"-0.012": 2.86746217288,
			"-0.011": 2.88198010957,
			"-0.01": 3.93078702643,
			"-0.009": 5.59802199336,
			"-0.008": 4.7358895663,
			"-0.007": 5.89760627055,
			"-0.006": 8.47644994046,
			"-0.005": 12.7736121386,
			"-0.004": 12.1061565575,
			"-0.003": 10.8587807661,
			"-0.002": 6.49285117679,
			"-0.001": 7.19995078601,
			"0.0": 8.9512049749,
			"0.001": 10.6988201651,
			"0.002": 11.6853611236,
			"0.003": 12.5042458339,
			"0.004": 8.46452599556,
			"0.005": 4.87421641288,
			"0.006": 4.38584111126,
			"0.007": 3.90149112745,
			"0.008": 4.5930570899,
			"0.009": 3.3928175927,
			"0.01": 4.26724157772,
			"0.011": 3.25745520749,
			"0.012": 2.47648408686,
			"0.013": 4.1635411621,
			"0.014": 4.68558241236,
			"0.015": 3.8211322088,
			"0.016": 2.32063884899,
			"0.017": 0.251824219307,
			"0.018": 0.0,
			"0.019": 0.0,
			"0.02": 0.0,
			"0.021": 0.0,
			"0.022": 0.0,
			"0.023": 0.0,
			"0.024": 0.0,
			"0.025": 0.0
		}
	}
}
