{
	 "smiles": "OC(=O)C1=NC=C(Br)C=C1", 
	 "Tm": 447.15, 
	 "num_atms": 14, 
	 "gaussian": { 
		 "optdone": 1, 
		 "sigma_profile": "yes", 
		 "theory": "DFT", 
		 "functional": "B3LYP", 
		 "basiset": "6-31G**", 
		 "properties": { 
			 "R2extent": 4352.4729, 
			 "electric_dipole_moment_norm": 4.12113371416, 
			 "electric_quadrupole_moment_norm": 7.54203934556, 
			 "total_energy": -3007.66148755, 
			 "HOMO_LUMO_gap": 0.19722, 
			 "cosmo_polarized_energy": -10.37, 
			 "cosmo_cavitation_energy": 21.53, 
			 "cosmo_dispersion_energy": -16.62, 
			 "cosmo_repulsion_energy": 1.35, 
			 "cosmo_total_nonelectrostatic_energy": 6.26, 
			 "SMD_solvation_energy": 3.18 
		},
		"coords": [
			{
				"x": -2.4983873566,
				"y": 0.9708326547,
				"z": -1.3736618161,
				"element": "O" 
			},
			{
				"x": -1.531959321,
				"y": 0.1323862214,
				"z": -0.9716119428,
				"element": "C" 
			},
			{
				"x": -1.6958507658,
				"y": -1.0594830578,
				"z": -0.8423559197,
				"element": "O" 
			},
			{
				"x": -0.2138501301,
				"y": 0.810972785,
				"z": -0.6929006647,
				"element": "C" 
			},
			{
				"x": -0.1845147121,
				"y": 2.1392436929,
				"z": -0.8809646042,
				"element": "N" 
			},
			{
				"x": 0.9543417345,
				"y": 2.7934875331,
				"z": -0.6500819767,
				"element": "C" 
			},
			{
				"x": 2.1082677156,
				"y": 2.1309614783,
				"z": -0.2200545731,
				"element": "C" 
			},
			{
				"x": 3.6968963868,
				"y": 3.1248947836,
				"z": 0.0902763589,
				"element": "Br" 
			},
			{
				"x": 2.0829804744,
				"y": 0.7506017617,
				"z": -0.0231920238,
				"element": "C" 
			},
			{
				"x": 0.8905969215,
				"y": 0.0737933382,
				"z": -0.2661475909,
				"element": "C" 
			},
			{
				"x": -2.1014649477,
				"y": 1.8660012422,
				"z": -1.3919449344,
				"element": "H" 
			},
			{
				"x": 0.9573854748,
				"y": 3.8679282724,
				"z": -0.8081359418,
				"element": "H" 
			},
			{
				"x": 2.9712458734,
				"y": 0.2256316882,
				"z": 0.3100202616,
				"element": "H" 
			},
			{
				"x": 0.7963126524,
				"y": -0.9979523939,
				"z": -0.1347446323,
				"element": "H" 
			}
		],
		 "valence_orbital": [ 
			{
				"type": "occ",
				"energy": -0.32227,
				"method": "rhf"
			},
			{
				"type": "occ",
				"energy": -0.31106,
				"method": "rhf"
			},
			{
				"type": "occ",
				"energy": -0.30806,
				"method": "rhf"
			},
			{
				"type": "occ",
				"energy": -0.27622,
				"method": "rhf"
			},
			{
				"type": "occ",
				"energy": -0.27507,
				"method": "rhf"
			},
			{
				"type": "unocc",
				"energy": -0.07785,
				"method": "rhf"
			},
			{
				"type": "unocc",
				"energy": -0.05713,
				"method": "rhf"
			},
			{
				"type": "unocc",
				"energy": -0.0177,
				"method": "rhf"
			},
			{
				"type": "unocc",
				"energy": 0.03617,
				"method": "rhf"
			},
			{
				"type": "unocc",
				"energy": 0.10131,
				"method": "rhf"
			}
		],
		"cosmo_sigma_profile": { 
			"-0.025": 0.0,
			"-0.024": 0.0,
			"-0.023": 0.0,
			"-0.022": 0.0,
			"-0.021": 0.0,
			"-0.02": 0.0,
			"-0.019": 0.0,
			"-0.018": 0.0,
			"-0.017": 0.0,
			"-0.016": 0.0,
			"-0.015": 0.0,
			"-0.014": 0.0766689643634,
			"-0.013": 0.330509049055,
			"-0.012": 0.480665487278,
			"-0.011": 0.859808576163,
			"-0.01": 0.907214196335,
			"-0.009": 3.41890361581,
			"-0.008": 5.73558317341,
			"-0.007": 6.53024177526,
			"-0.006": 6.7928912005,
			"-0.005": 9.49673204887,
			"-0.004": 8.95413220778,
			"-0.003": 11.4522808212,
			"-0.002": 19.8737851619,
			"-0.001": 19.8580913295,
			"0.0": 11.9719659978,
			"0.001": 9.8663636589,
			"0.002": 9.55140495082,
			"0.003": 14.3768483802,
			"0.004": 7.12945063909,
			"0.005": 2.68921086056,
			"0.006": 2.71561654976,
			"0.007": 2.76397873013,
			"0.008": 3.02572974358,
			"0.009": 3.87489134601,
			"0.01": 5.23298761649,
			"0.011": 5.0217858064,
			"0.012": 3.25545673811,
			"0.013": 0.941849401724,
			"0.014": 0.0,
			"0.015": 0.0,
			"0.016": 0.0,
			"0.017": 0.0,
			"0.018": 0.0,
			"0.019": 0.0,
			"0.02": 0.0,
			"0.021": 0.0,
			"0.022": 0.0,
			"0.023": 0.0,
			"0.024": 0.0,
			"0.025": 0.0
		}
	}
}
