{
	 "smiles": "CC(NS(=O)(=O)C1=CC=C(Cl)C=C1)C(O)=O", 
	 "Tm": 410.15, 
	 "num_atms": 26, 
	 "gaussian": { 
		 "optdone": 1, 
		 "sigma_profile": "yes", 
		 "theory": "DFT", 
		 "functional": "B3LYP", 
		 "basiset": "6-31G**", 
		 "properties": { 
			 "R2extent": 4706.018, 
			 "electric_dipole_moment_norm": 5.22583099325, 
			 "electric_quadrupole_moment_norm": 11.9170392451, 
			 "total_energy": -1562.95149569, 
			 "HOMO_LUMO_gap": 0.21144, 
			 "cosmo_polarized_energy": -18.97, 
			 "cosmo_cavitation_energy": 32.86, 
			 "cosmo_dispersion_energy": -23.65, 
			 "cosmo_repulsion_energy": 1.81, 
			 "cosmo_total_nonelectrostatic_energy": 11.02, 
			 "SMD_solvation_energy": 4.99 
		},
		"coords": [
			{
				"x": -1.3189976929,
				"y": -2.2038363949,
				"z": -0.4748200667,
				"element": "C" 
			},
			{
				"x": -0.3147149031,
				"y": -1.9472491099,
				"z": -1.6040648431,
				"element": "C" 
			},
			{
				"x": -0.4441989651,
				"y": -0.6478974401,
				"z": -2.271254096,
				"element": "N" 
			},
			{
				"x": -0.8860259351,
				"y": 0.8039535007,
				"z": -1.5336178896,
				"element": "S" 
			},
			{
				"x": -0.5772858279,
				"y": 1.8039234567,
				"z": -2.556183994,
				"element": "O" 
			},
			{
				"x": -2.2319145481,
				"y": 0.6372751979,
				"z": -0.985303393,
				"element": "O" 
			},
			{
				"x": 0.2065624974,
				"y": 1.1078562524,
				"z": -0.1335210718,
				"element": "C" 
			},
			{
				"x": -0.3186871306,
				"y": 1.0808167253,
				"z": 1.1594487202,
				"element": "C" 
			},
			{
				"x": 0.5125287985,
				"y": 1.3484976546,
				"z": 2.2472737619,
				"element": "C" 
			},
			{
				"x": 1.8568374764,
				"y": 1.6415727659,
				"z": 2.0178540168,
				"element": "C" 
			},
			{
				"x": 2.9074609087,
				"y": 1.9741860076,
				"z": 3.3815074353,
				"element": "Cl" 
			},
			{
				"x": 2.3848214624,
				"y": 1.680534139,
				"z": 0.7248378334,
				"element": "C" 
			},
			{
				"x": 1.55117104,
				"y": 1.4155575836,
				"z": -0.3581592141,
				"element": "C" 
			},
			{
				"x": 1.1463524426,
				"y": -2.1925567641,
				"z": -1.2053727249,
				"element": "C" 
			},
			{
				"x": 1.2931195389,
				"y": -3.2961114574,
				"z": -0.4466823208,
				"element": "O" 
			},
			{
				"x": 2.0805421196,
				"y": -1.5178574379,
				"z": -1.5823706335,
				"element": "O" 
			},
			{
				"x": -1.2493076287,
				"y": -3.2500169792,
				"z": -0.1731647131,
				"element": "H" 
			},
			{
				"x": -2.3300085305,
				"y": -1.9892046509,
				"z": -0.8221249517,
				"element": "H" 
			},
			{
				"x": -1.1191732315,
				"y": -1.5839602068,
				"z": 0.4008908008,
				"element": "H" 
			},
			{
				"x": -0.5135359027,
				"y": -2.6966711239,
				"z": -2.3850387998,
				"element": "H" 
			},
			{
				"x": 0.3410603985,
				"y": -0.4592500886,
				"z": -2.8893057349,
				"element": "H" 
			},
			{
				"x": -1.3722310752,
				"y": 0.8688748543,
				"z": 1.303902289,
				"element": "H" 
			},
			{
				"x": 0.1219503596,
				"y": 1.3369795621,
				"z": 3.2585262438,
				"element": "H" 
			},
			{
				"x": 3.4311812558,
				"y": 1.9184960519,
				"z": 0.571441164,
				"element": "H" 
			},
			{
				"x": 1.9458673255,
				"y": 1.4504214207,
				"z": -1.3670382433,
				"element": "H" 
			},
			{
				"x": 2.2475257474,
				"y": -3.4044335187,
				"z": -0.293859575,
				"element": "H" 
			}
		],
		 "valence_orbital": [ 
			{
				"type": "occ",
				"energy": -0.30656,
				"method": "rhf"
			},
			{
				"type": "occ",
				"energy": -0.30384,
				"method": "rhf"
			},
			{
				"type": "occ",
				"energy": -0.28981,
				"method": "rhf"
			},
			{
				"type": "occ",
				"energy": -0.28284,
				"method": "rhf"
			},
			{
				"type": "occ",
				"energy": -0.26147,
				"method": "rhf"
			},
			{
				"type": "unocc",
				"energy": -0.05003,
				"method": "rhf"
			},
			{
				"type": "unocc",
				"energy": -0.03399,
				"method": "rhf"
			},
			{
				"type": "unocc",
				"energy": -0.01556,
				"method": "rhf"
			},
			{
				"type": "unocc",
				"energy": 0.01546,
				"method": "rhf"
			},
			{
				"type": "unocc",
				"energy": 0.0508,
				"method": "rhf"
			}
		],
		"cosmo_sigma_profile": { 
			"-0.025": 0.0,
			"-0.024": 0.0,
			"-0.023": 0.0,
			"-0.022": 0.0,
			"-0.021": 0.0,
			"-0.02": 0.0,
			"-0.019": 0.3336615416,
			"-0.018": 1.02126443217,
			"-0.017": 0.996060383797,
			"-0.016": 0.48943951277,
			"-0.015": 1.2684721519,
			"-0.014": 0.932197078304,
			"-0.013": 0.939251505437,
			"-0.012": 1.02860994463,
			"-0.011": 2.41843508805,
			"-0.01": 1.54785433029,
			"-0.009": 4.66553165908,
			"-0.008": 9.73692889579,
			"-0.007": 12.5909163031,
			"-0.006": 9.91587702129,
			"-0.005": 10.6271014414,
			"-0.004": 13.9880242136,
			"-0.003": 14.910937949,
			"-0.002": 16.9178377532,
			"-0.001": 18.3503255952,
			"0.0": 20.1548817,
			"0.001": 21.2295918067,
			"0.002": 15.5281856602,
			"0.003": 12.8589051327,
			"0.004": 15.5709219857,
			"0.005": 7.17494802416,
			"0.006": 6.4535064759,
			"0.007": 8.91493153923,
			"0.008": 5.06409679802,
			"0.009": 5.18676600871,
			"0.01": 9.66503219309,
			"0.011": 10.5478025493,
			"0.012": 2.58542523069,
			"0.013": 0.0,
			"0.014": 0.0,
			"0.015": 0.0,
			"0.016": 0.0,
			"0.017": 0.0,
			"0.018": 0.0,
			"0.019": 0.0,
			"0.02": 0.0,
			"0.021": 0.0,
			"0.022": 0.0,
			"0.023": 0.0,
			"0.024": 0.0,
			"0.025": 0.0
		}
	}
}
