{
	 "smiles": "OC(=O)CC1=C(C=C(C=C1)C(F)(F)F)[N+]([O-])=O", 
	 "Tm": 419.15, 
	 "num_atms": 23, 
	 "gaussian": { 
		 "optdone": 1, 
		 "sigma_profile": "yes", 
		 "theory": "DFT", 
		 "functional": "B3LYP", 
		 "basiset": "6-31G**", 
		 "properties": { 
			 "R2extent": 4922.7495, 
			 "electric_dipole_moment_norm": 3.22393277535, 
			 "electric_quadrupole_moment_norm": 22.252666338, 
			 "total_energy": -1001.65722523, 
			 "HOMO_LUMO_gap": 0.14846, 
			 "cosmo_polarized_energy": -14.89, 
			 "cosmo_cavitation_energy": 29.93, 
			 "cosmo_dispersion_energy": -21.03, 
			 "cosmo_repulsion_energy": 1.55, 
			 "cosmo_total_nonelectrostatic_energy": 10.45, 
			 "SMD_solvation_energy": 9.22 
		},
		"coords": [
			{
				"x": -1.7951318451,
				"y": 3.8627418356,
				"z": -0.3659016596,
				"element": "O" 
			},
			{
				"x": -0.5676280828,
				"y": 3.8502868093,
				"z": -0.9063951615,
				"element": "C" 
			},
			{
				"x": 0.3043871359,
				"y": 4.6002796538,
				"z": -0.5432860774,
				"element": "O" 
			},
			{
				"x": -0.335531487,
				"y": 2.7863864906,
				"z": -2.0014634331,
				"element": "C" 
			},
			{
				"x": -0.219697107,
				"y": 1.402089778,
				"z": -1.3975033973,
				"element": "C" 
			},
			{
				"x": -1.2343200917,
				"y": 0.4288749969,
				"z": -1.3452020633,
				"element": "C" 
			},
			{
				"x": -1.027839958,
				"y": -0.8455698338,
				"z": -0.8093040294,
				"element": "C" 
			},
			{
				"x": 0.2070831074,
				"y": -1.1627862189,
				"z": -0.2627378756,
				"element": "C" 
			},
			{
				"x": 1.234702318,
				"y": -0.2123390143,
				"z": -0.2750086578,
				"element": "C" 
			},
			{
				"x": 1.0187605321,
				"y": 1.0364919753,
				"z": -0.8426362422,
				"element": "C" 
			},
			{
				"x": 0.4652046556,
				"y": -2.536551803,
				"z": 0.3029101806,
				"element": "C" 
			},
			{
				"x": -0.6809698885,
				"y": -3.1903276676,
				"z": 0.5758388849,
				"element": "F" 
			},
			{
				"x": 1.1688877273,
				"y": -3.2955106743,
				"z": -0.5646356782,
				"element": "F" 
			},
			{
				"x": 1.1858454999,
				"y": -2.4666349406,
				"z": 1.4417359812,
				"element": "F" 
			},
			{
				"x": -2.5846205544,
				"y": 0.6788002057,
				"z": -1.8676806718,
				"element": "N" 
			},
			{
				"x": -3.0240749958,
				"y": 1.8416763493,
				"z": -1.8586542049,
				"element": "O" 
			},
			{
				"x": -3.226319019,
				"y": -0.2779451221,
				"z": -2.2783456363,
				"element": "O" 
			},
			{
				"x": -2.3545761839,
				"y": 3.1877399215,
				"z": -0.7989476219,
				"element": "H" 
			},
			{
				"x": -1.1324496461,
				"y": 2.8382971358,
				"z": -2.7449142541,
				"element": "H" 
			},
			{
				"x": 0.6105994047,
				"y": 3.0430549788,
				"z": -2.4792439921,
				"element": "H" 
			},
			{
				"x": -1.8392461178,
				"y": -1.5614534214,
				"z": -0.8155713144,
				"element": "H" 
			},
			{
				"x": 2.1989757187,
				"y": -0.4522254951,
				"z": 0.1603971754,
				"element": "H" 
			},
			{
				"x": 1.8217588773,
				"y": 1.7667240606,
				"z": -0.8578502513,
				"element": "H" 
			}
		],
		 "valence_orbital": [ 
			{
				"type": "occ",
				"energy": -0.33659,
				"method": "rhf"
			},
			{
				"type": "occ",
				"energy": -0.31856,
				"method": "rhf"
			},
			{
				"type": "occ",
				"energy": -0.30916,
				"method": "rhf"
			},
			{
				"type": "occ",
				"energy": -0.30775,
				"method": "rhf"
			},
			{
				"type": "occ",
				"energy": -0.27291,
				"method": "rhf"
			},
			{
				"type": "unocc",
				"energy": -0.12445,
				"method": "rhf"
			},
			{
				"type": "unocc",
				"energy": -0.06651,
				"method": "rhf"
			},
			{
				"type": "unocc",
				"energy": -0.04306,
				"method": "rhf"
			},
			{
				"type": "unocc",
				"energy": 0.00581,
				"method": "rhf"
			},
			{
				"type": "unocc",
				"energy": 0.06845,
				"method": "rhf"
			}
		],
		"cosmo_sigma_profile": { 
			"-0.025": 0.0,
			"-0.024": 0.0,
			"-0.023": 0.0,
			"-0.022": 0.0,
			"-0.021": 0.0,
			"-0.02": 0.0,
			"-0.019": 0.0,
			"-0.018": 0.0,
			"-0.017": 0.0,
			"-0.016": 0.0,
			"-0.015": 0.0,
			"-0.014": 0.0,
			"-0.013": 0.0,
			"-0.012": 0.00592725383087,
			"-0.011": 0.603498600546,
			"-0.01": 1.56976987264,
			"-0.009": 5.08645964943,
			"-0.008": 10.9804646025,
			"-0.007": 14.8546974386,
			"-0.006": 12.0949381213,
			"-0.005": 11.9112598458,
			"-0.004": 12.8673201498,
			"-0.003": 12.4960986368,
			"-0.002": 17.57393729,
			"-0.001": 17.4737460736,
			"0.0": 14.6075672361,
			"0.001": 12.4906150134,
			"0.002": 27.9250679104,
			"0.003": 16.5217777003,
			"0.004": 5.13359668836,
			"0.005": 5.06466976229,
			"0.006": 7.79040009541,
			"0.007": 6.49724658138,
			"0.008": 6.32080432428,
			"0.009": 4.33624573668,
			"0.01": 4.90386675058,
			"0.011": 5.37874359826,
			"0.012": 4.76429554222,
			"0.013": 1.3367579555,
			"0.014": 0.0,
			"0.015": 0.0,
			"0.016": 0.0,
			"0.017": 0.0,
			"0.018": 0.0,
			"0.019": 0.0,
			"0.02": 0.0,
			"0.021": 0.0,
			"0.022": 0.0,
			"0.023": 0.0,
			"0.024": 0.0,
			"0.025": 0.0
		}
	}
}
