{
	 "smiles": "OC1C2=CC=CC=C2OC2=CC=CC=C12", 
	 "Tm": 398.15, 
	 "num_atms": 25, 
	 "gaussian": { 
		 "optdone": 1, 
		 "sigma_profile": "yes", 
		 "theory": "DFT", 
		 "functional": "B3LYP", 
		 "basiset": "6-31G**", 
		 "properties": { 
			 "R2extent": 3503.4309, 
			 "electric_dipole_moment_norm": 0.888688983841, 
			 "electric_quadrupole_moment_norm": 8.20513906464, 
			 "total_energy": -651.853125035, 
			 "HOMO_LUMO_gap": 0.1949, 
			 "cosmo_polarized_energy": -7.87, 
			 "cosmo_cavitation_energy": 28.3, 
			 "cosmo_dispersion_energy": -21.22, 
			 "cosmo_repulsion_energy": 1.62, 
			 "cosmo_total_nonelectrostatic_energy": 8.71, 
			 "SMD_solvation_energy": 4.81 
		},
		"coords": [
			{
				"x": -0.9856315984,
				"y": 2.281102463,
				"z": 1.6520454273,
				"element": "O" 
			},
			{
				"x": -0.8655990048,
				"y": 1.0355946813,
				"z": 0.9586167732,
				"element": "C" 
			},
			{
				"x": -1.9986167557,
				"y": 0.8138116939,
				"z": -0.0242777477,
				"element": "C" 
			},
			{
				"x": -3.3170610066,
				"y": 1.1420219385,
				"z": 0.3198395004,
				"element": "C" 
			},
			{
				"x": -4.3713942832,
				"y": 0.91027614,
				"z": -0.5586496673,
				"element": "C" 
			},
			{
				"x": -4.1153062348,
				"y": 0.3403586787,
				"z": -1.8112952838,
				"element": "C" 
			},
			{
				"x": -2.8141989404,
				"y": 0.0161890512,
				"z": -2.1796120934,
				"element": "C" 
			},
			{
				"x": -1.765221629,
				"y": 0.2569063931,
				"z": -1.2863864633,
				"element": "C" 
			},
			{
				"x": -0.5087290666,
				"y": -0.0850240465,
				"z": -1.7280602922,
				"element": "O" 
			},
			{
				"x": 0.584980897,
				"y": 0.3255247806,
				"z": -1.0028209873,
				"element": "C" 
			},
			{
				"x": 1.8282254822,
				"y": 0.1517334455,
				"z": -1.6195032215,
				"element": "C" 
			},
			{
				"x": 2.9836823101,
				"y": 0.5475857177,
				"z": -0.9548106041,
				"element": "C" 
			},
			{
				"x": 2.9015734901,
				"y": 1.1225590526,
				"z": 0.3188416701,
				"element": "C" 
			},
			{
				"x": 1.657156399,
				"y": 1.2872280437,
				"z": 0.9199959586,
				"element": "C" 
			},
			{
				"x": 0.4793560545,
				"y": 0.8861587875,
				"z": 0.2747314955,
				"element": "C" 
			},
			{
				"x": -0.9256267124,
				"y": 2.9820787468,
				"z": 0.9867501899,
				"element": "H" 
			},
			{
				"x": -0.9417699749,
				"y": 0.2969305347,
				"z": 1.7684420016,
				"element": "H" 
			},
			{
				"x": -3.4940802394,
				"y": 1.5919878005,
				"z": 1.2920520881,
				"element": "H" 
			},
			{
				"x": -5.3861144468,
				"y": 1.1688101989,
				"z": -0.2721461014,
				"element": "H" 
			},
			{
				"x": -4.9303726155,
				"y": 0.1537770607,
				"z": -2.5043819685,
				"element": "H" 
			},
			{
				"x": -2.5848260241,
				"y": -0.4139562129,
				"z": -3.148915101,
				"element": "H" 
			},
			{
				"x": 1.8608731055,
				"y": -0.2841508723,
				"z": -2.612541508,
				"element": "H" 
			},
			{
				"x": 3.9494414195,
				"y": 0.4129866992,
				"z": -1.4330450483,
				"element": "H" 
			},
			{
				"x": 3.8025573313,
				"y": 1.4370157247,
				"z": 0.8364561747,
				"element": "H" 
			},
			{
				"x": 1.5719020434,
				"y": 1.7398934989,
				"z": 1.9032748083,
				"element": "H" 
			}
		],
		 "valence_orbital": [ 
			{
				"type": "occ",
				"energy": -0.28737,
				"method": "rhf"
			},
			{
				"type": "occ",
				"energy": -0.25793,
				"method": "rhf"
			},
			{
				"type": "occ",
				"energy": -0.2507,
				"method": "rhf"
			},
			{
				"type": "occ",
				"energy": -0.24831,
				"method": "rhf"
			},
			{
				"type": "occ",
				"energy": -0.21481,
				"method": "rhf"
			},
			{
				"type": "unocc",
				"energy": -0.01991,
				"method": "rhf"
			},
			{
				"type": "unocc",
				"energy": -0.0092,
				"method": "rhf"
			},
			{
				"type": "unocc",
				"energy": 0.00088,
				"method": "rhf"
			},
			{
				"type": "unocc",
				"energy": 0.01964,
				"method": "rhf"
			},
			{
				"type": "unocc",
				"energy": 0.09168,
				"method": "rhf"
			}
		],
		"cosmo_sigma_profile": { 
			"-0.025": 0.0,
			"-0.024": 0.0,
			"-0.023": 0.0,
			"-0.022": 0.0,
			"-0.021": 0.0,
			"-0.02": 0.0,
			"-0.019": 0.0,
			"-0.018": 0.0,
			"-0.017": 0.0,
			"-0.016": 0.0449994953876,
			"-0.015": 1.02862679439,
			"-0.014": 0.651900100922,
			"-0.013": 0.463896879137,
			"-0.012": 1.36946388993,
			"-0.011": 0.604606755633,
			"-0.01": 0.862594003092,
			"-0.009": 0.502324408459,
			"-0.008": 0.957404691513,
			"-0.007": 1.72421869335,
			"-0.006": 11.2954617126,
			"-0.005": 17.8504693214,
			"-0.004": 18.4309487786,
			"-0.003": 18.7005146095,
			"-0.002": 14.8474585981,
			"-0.001": 15.3167678069,
			"0.0": 13.2439262232,
			"0.001": 16.149853413,
			"0.002": 17.6204171262,
			"0.003": 20.9746689288,
			"0.004": 19.2172734262,
			"0.005": 18.7848340214,
			"0.006": 4.84555984667,
			"0.007": 3.03896795547,
			"0.008": 1.93778414764,
			"0.009": 0.976426565628,
			"0.01": 1.00180709425,
			"0.011": 0.86041946566,
			"0.012": 1.30691095045,
			"0.013": 1.44020382372,
			"0.014": 0.465145913855,
			"0.015": 0.0,
			"0.016": 0.0,
			"0.017": 0.0,
			"0.018": 0.0,
			"0.019": 0.0,
			"0.02": 0.0,
			"0.021": 0.0,
			"0.022": 0.0,
			"0.023": 0.0,
			"0.024": 0.0,
			"0.025": 0.0
		}
	}
}
