{
	 "smiles": "CC1=CC(C(=O)CCC(O)=O)=C(C)S1", 
	 "Tm": 379.15, 
	 "num_atms": 26, 
	 "gaussian": { 
		 "optdone": 1, 
		 "sigma_profile": "yes", 
		 "theory": "DFT", 
		 "functional": "B3LYP", 
		 "basiset": "6-31G**", 
		 "properties": { 
			 "R2extent": 4429.1726, 
			 "electric_dipole_moment_norm": 3.11050640411, 
			 "electric_quadrupole_moment_norm": 14.7924865827, 
			 "total_energy": -1012.16665491, 
			 "HOMO_LUMO_gap": 0.17883, 
			 "cosmo_polarized_energy": -16.2, 
			 "cosmo_cavitation_energy": 31.53, 
			 "cosmo_dispersion_energy": -22.53, 
			 "cosmo_repulsion_energy": 1.75, 
			 "cosmo_total_nonelectrostatic_energy": 10.75, 
			 "SMD_solvation_energy": 6.65 
		},
		"coords": [
			{
				"x": -3.9251956791,
				"y": -1.8639201947,
				"z": 2.4083366899,
				"element": "C" 
			},
			{
				"x": -2.7715674603,
				"y": -1.2740417445,
				"z": 1.6543489889,
				"element": "C" 
			},
			{
				"x": -1.4578357235,
				"y": -1.2222543426,
				"z": 2.0042088534,
				"element": "C" 
			},
			{
				"x": -0.6029909926,
				"y": -0.5803306416,
				"z": 1.03895163,
				"element": "C" 
			},
			{
				"x": 0.8490452558,
				"y": -0.4811562751,
				"z": 1.3454129334,
				"element": "C" 
			},
			{
				"x": 1.2797028487,
				"y": -0.941589728,
				"z": 2.3967531025,
				"element": "O" 
			},
			{
				"x": 1.8423008332,
				"y": 0.1444754113,
				"z": 0.3693685095,
				"element": "C" 
			},
			{
				"x": 2.457912808,
				"y": -0.9201512115,
				"z": -0.5710553539,
				"element": "C" 
			},
			{
				"x": 3.2628540268,
				"y": -1.9704713004,
				"z": 0.1701614134,
				"element": "C" 
			},
			{
				"x": 4.3319567585,
				"y": -1.4266783569,
				"z": 0.7993736646,
				"element": "O" 
			},
			{
				"x": 3.0165647817,
				"y": -3.1546028072,
				"z": 0.195867713,
				"element": "O" 
			},
			{
				"x": -1.301330757,
				"y": -0.1391453608,
				"z": -0.0747409304,
				"element": "C" 
			},
			{
				"x": -0.8735682543,
				"y": 0.5807050716,
				"z": -1.325937543,
				"element": "C" 
			},
			{
				"x": -2.9931721951,
				"y": -0.5195925666,
				"z": 0.0887744397,
				"element": "S" 
			},
			{
				"x": -4.6911624472,
				"y": -1.1144554894,
				"z": 2.6379892447,
				"element": "H" 
			},
			{
				"x": -3.5685466686,
				"y": -2.2805220401,
				"z": 3.3540375506,
				"element": "H" 
			},
			{
				"x": -4.4114304293,
				"y": -2.6703043527,
				"z": 1.8476352077,
				"element": "H" 
			},
			{
				"x": -1.0602554897,
				"y": -1.6259001624,
				"z": 2.9272550441,
				"element": "H" 
			},
			{
				"x": 2.6391558447,
				"y": 0.5853630733,
				"z": 0.9727709462,
				"element": "H" 
			},
			{
				"x": 1.3896698788,
				"y": 0.9343925759,
				"z": -0.2316483739,
				"element": "H" 
			},
			{
				"x": 3.1252235567,
				"y": -0.4181846039,
				"z": -1.2806905274,
				"element": "H" 
			},
			{
				"x": 1.687017354,
				"y": -1.448958424,
				"z": -1.1362679089,
				"element": "H" 
			},
			{
				"x": 4.7613079709,
				"y": -2.1539700713,
				"z": 1.2799410113,
				"element": "H" 
			},
			{
				"x": -0.5295949628,
				"y": 1.5989506029,
				"z": -1.1115397193,
				"element": "H" 
			},
			{
				"x": -0.0665605376,
				"y": 0.054973415,
				"z": -1.8446946467,
				"element": "H" 
			},
			{
				"x": -1.7082003207,
				"y": 0.6638695238,
				"z": -2.0269119396,
				"element": "H" 
			}
		],
		 "valence_orbital": [ 
			{
				"type": "occ",
				"energy": -0.31376,
				"method": "rhf"
			},
			{
				"type": "occ",
				"energy": -0.26992,
				"method": "rhf"
			},
			{
				"type": "occ",
				"energy": -0.25394,
				"method": "rhf"
			},
			{
				"type": "occ",
				"energy": -0.2451,
				"method": "rhf"
			},
			{
				"type": "occ",
				"energy": -0.23021,
				"method": "rhf"
			},
			{
				"type": "unocc",
				"energy": -0.05138,
				"method": "rhf"
			},
			{
				"type": "unocc",
				"energy": 0.00289,
				"method": "rhf"
			},
			{
				"type": "unocc",
				"energy": 0.01212,
				"method": "rhf"
			},
			{
				"type": "unocc",
				"energy": 0.0148,
				"method": "rhf"
			},
			{
				"type": "unocc",
				"energy": 0.07349,
				"method": "rhf"
			}
		],
		"cosmo_sigma_profile": { 
			"-0.025": 0.0,
			"-0.024": 0.0,
			"-0.023": 0.0,
			"-0.022": 0.0,
			"-0.021": 0.0,
			"-0.02": 0.0,
			"-0.019": 0.0,
			"-0.018": 0.651303667818,
			"-0.017": 0.949615024179,
			"-0.016": 0.836677643747,
			"-0.015": 0.981467432121,
			"-0.014": 0.730855262111,
			"-0.013": 0.830064071824,
			"-0.012": 0.1575660542,
			"-0.011": 0.532060742,
			"-0.01": 1.05462906655,
			"-0.009": 0.712052029286,
			"-0.008": 0.428023775447,
			"-0.007": 4.89838665317,
			"-0.006": 13.9102347755,
			"-0.005": 22.5780179549,
			"-0.004": 22.7307110737,
			"-0.003": 23.9338679712,
			"-0.002": 22.1138558795,
			"-0.001": 19.4168793881,
			"0.0": 11.5998347399,
			"0.001": 10.7660332352,
			"0.002": 14.4462080822,
			"0.003": 16.5480005737,
			"0.004": 13.1782074408,
			"0.005": 6.57028045409,
			"0.006": 5.38731892963,
			"0.007": 5.44025790249,
			"0.008": 4.34147008889,
			"0.009": 4.50122962709,
			"0.01": 4.55845822833,
			"0.011": 5.73751471318,
			"0.012": 8.7841833265,
			"0.013": 1.86563441485,
			"0.014": 0.0,
			"0.015": 0.0,
			"0.016": 0.0,
			"0.017": 0.0,
			"0.018": 0.0,
			"0.019": 0.0,
			"0.02": 0.0,
			"0.021": 0.0,
			"0.022": 0.0,
			"0.023": 0.0,
			"0.024": 0.0,
			"0.025": 0.0
		}
	}
}
