{
	 "smiles": "O=C1NC(=O)N2CCCC12", 
	 "Tm": 423.15, 
	 "num_atms": 18, 
	 "gaussian": { 
		 "optdone": 1, 
		 "sigma_profile": "yes", 
		 "theory": "DFT", 
		 "functional": "B3LYP", 
		 "basiset": "6-31G**", 
		 "properties": { 
			 "R2extent": 2745.1682, 
			 "electric_dipole_moment_norm": 2.89017355534, 
			 "electric_quadrupole_moment_norm": 15.4800027555, 
			 "total_energy": -493.446750527, 
			 "HOMO_LUMO_gap": 0.24179, 
			 "cosmo_polarized_energy": -13.89, 
			 "cosmo_cavitation_energy": 21.03, 
			 "cosmo_dispersion_energy": -16.01, 
			 "cosmo_repulsion_energy": 1.32, 
			 "cosmo_total_nonelectrostatic_energy": 6.33, 
			 "SMD_solvation_energy": 3.07 
		},
		"coords": [
			{
				"x": 0.3376763927,
				"y": -0.4588096339,
				"z": 1.0951009369,
				"element": "O" 
			},
			{
				"x": -0.8353401632,
				"y": -0.1584538277,
				"z": 1.0357808004,
				"element": "C" 
			},
			{
				"x": -1.7692986932,
				"y": -0.2189598126,
				"z": 2.0541826216,
				"element": "N" 
			},
			{
				"x": -3.0754766462,
				"y": 0.1211054375,
				"z": 1.6385250257,
				"element": "C" 
			},
			{
				"x": -4.090697473,
				"y": -0.0384983126,
				"z": 2.2838499253,
				"element": "O" 
			},
			{
				"x": -2.9527112196,
				"y": 0.6328347532,
				"z": 0.3594214417,
				"element": "N" 
			},
			{
				"x": -3.9962167065,
				"y": 0.3885506895,
				"z": -0.6521232457,
				"element": "C" 
			},
			{
				"x": -3.2023021649,
				"y": -0.0773919195,
				"z": -1.8998539957,
				"element": "C" 
			},
			{
				"x": -1.8559646419,
				"y": -0.5885305691,
				"z": -1.3443025421,
				"element": "C" 
			},
			{
				"x": -1.6071425409,
				"y": 0.3786995864,
				"z": -0.1713892547,
				"element": "C" 
			},
			{
				"x": -1.5806726835,
				"y": -0.589557957,
				"z": 2.9749638773,
				"element": "H" 
			},
			{
				"x": -4.6871373662,
				"y": -0.3731762363,
				"z": -0.2768982484,
				"element": "H" 
			},
			{
				"x": -4.5751216005,
				"y": 1.2955470697,
				"z": -0.8487917867,
				"element": "H" 
			},
			{
				"x": -3.0288393231,
				"y": 0.7705166413,
				"z": -2.571375263,
				"element": "H" 
			},
			{
				"x": -3.740955783,
				"y": -0.8398951069,
				"z": -2.4682009798,
				"element": "H" 
			},
			{
				"x": -1.048474028,
				"y": -0.5790342658,
				"z": -2.0792934294,
				"element": "H" 
			},
			{
				"x": -1.9577799799,
				"y": -1.6116578084,
				"z": -0.9647752648,
				"element": "H" 
			},
			{
				"x": -1.1260453791,
				"y": 1.3012112722,
				"z": -0.5200206186,
				"element": "H" 
			}
		],
		 "valence_orbital": [ 
			{
				"type": "occ",
				"energy": -0.35317,
				"method": "rhf"
			},
			{
				"type": "occ",
				"energy": -0.29363,
				"method": "rhf"
			},
			{
				"type": "occ",
				"energy": -0.28628,
				"method": "rhf"
			},
			{
				"type": "occ",
				"energy": -0.26915,
				"method": "rhf"
			},
			{
				"type": "occ",
				"energy": -0.25364,
				"method": "rhf"
			},
			{
				"type": "unocc",
				"energy": -0.01185,
				"method": "rhf"
			},
			{
				"type": "unocc",
				"energy": 0.05105,
				"method": "rhf"
			},
			{
				"type": "unocc",
				"energy": 0.07236,
				"method": "rhf"
			},
			{
				"type": "unocc",
				"energy": 0.08616,
				"method": "rhf"
			},
			{
				"type": "unocc",
				"energy": 0.10104,
				"method": "rhf"
			}
		],
		"cosmo_sigma_profile": { 
			"-0.025": 0.0,
			"-0.024": 0.0,
			"-0.023": 0.0,
			"-0.022": 0.0,
			"-0.021": 0.0,
			"-0.02": 0.0,
			"-0.019": 0.0,
			"-0.018": 0.0,
			"-0.017": 0.177085882994,
			"-0.016": 1.35071095603,
			"-0.015": 1.01881314577,
			"-0.014": 1.07341701503,
			"-0.013": 0.894559364541,
			"-0.012": 0.549509841865,
			"-0.011": 1.36719348868,
			"-0.01": 0.665510271844,
			"-0.009": 0.644979459756,
			"-0.008": 1.80525787299,
			"-0.007": 5.08660678579,
			"-0.006": 6.97552383929,
			"-0.005": 16.0031888177,
			"-0.004": 21.139056905,
			"-0.003": 17.2545769488,
			"-0.002": 16.3195440229,
			"-0.001": 11.6188046794,
			"0.0": 5.99781379216,
			"0.001": 3.64026841994,
			"0.002": 3.38708907049,
			"0.003": 3.24260970804,
			"0.004": 2.97302436971,
			"0.005": 4.44405447539,
			"0.006": 3.30936489584,
			"0.007": 3.16979611716,
			"0.008": 2.84563127005,
			"0.009": 2.08224387013,
			"0.01": 3.34194234302,
			"0.011": 5.75994400441,
			"0.012": 10.3603384866,
			"0.013": 6.74610976564,
			"0.014": 0.360836302004,
			"0.015": 0.0,
			"0.016": 0.0,
			"0.017": 0.0,
			"0.018": 0.0,
			"0.019": 0.0,
			"0.02": 0.0,
			"0.021": 0.0,
			"0.022": 0.0,
			"0.023": 0.0,
			"0.024": 0.0,
			"0.025": 0.0
		}
	}
}
