{
	 "smiles": "CC1=CN=C(O1)C1=CC(N)=CC=C1", 
	 "Tm": 381.15, 
	 "num_atms": 23, 
	 "gaussian": { 
		 "optdone": 1, 
		 "sigma_profile": "yes", 
		 "theory": "DFT", 
		 "functional": "B3LYP", 
		 "basiset": "6-31G**", 
		 "properties": { 
			 "R2extent": 3151.4819, 
			 "electric_dipole_moment_norm": 1.1725066567, 
			 "electric_quadrupole_moment_norm": 18.1891841387, 
			 "total_energy": -571.821586842, 
			 "HOMO_LUMO_gap": 0.16898, 
			 "cosmo_polarized_energy": -11.7, 
			 "cosmo_cavitation_energy": 27.42, 
			 "cosmo_dispersion_energy": -20.4, 
			 "cosmo_repulsion_energy": 1.62, 
			 "cosmo_total_nonelectrostatic_energy": 8.64, 
			 "SMD_solvation_energy": 3.76 
		},
		"coords": [
			{
				"x": -0.8757678028,
				"y": 2.6575838232,
				"z": 4.23109881,
				"element": "C" 
			},
			{
				"x": -1.1134617056,
				"y": 1.6332420168,
				"z": 3.1822528037,
				"element": "C" 
			},
			{
				"x": -1.9531300087,
				"y": 0.5724698566,
				"z": 3.0394245036,
				"element": "C" 
			},
			{
				"x": -1.7286155753,
				"y": -0.047483139,
				"z": 1.8213162517,
				"element": "N" 
			},
			{
				"x": -0.7724722922,
				"y": 0.6456131997,
				"z": 1.2682286293,
				"element": "C" 
			},
			{
				"x": -0.3456061867,
				"y": 1.689538059,
				"z": 2.0429498286,
				"element": "O" 
			},
			{
				"x": -0.1361103174,
				"y": 0.4376068051,
				"z": -0.0304930283,
				"element": "C" 
			},
			{
				"x": -0.563761531,
				"y": -0.6370142731,
				"z": -0.8209864359,
				"element": "C" 
			},
			{
				"x": 0.0132916307,
				"y": -0.874605336,
				"z": -2.0752007238,
				"element": "C" 
			},
			{
				"x": -0.3726392335,
				"y": -1.979500021,
				"z": -2.8368966633,
				"element": "N" 
			},
			{
				"x": 1.030206301,
				"y": -0.0128310516,
				"z": -2.5271085303,
				"element": "C" 
			},
			{
				"x": 1.4504754393,
				"y": 1.0536960992,
				"z": -1.7363608841,
				"element": "C" 
			},
			{
				"x": 0.8790993087,
				"y": 1.2924408092,
				"z": -0.4878156915,
				"element": "C" 
			},
			{
				"x": 0.1530591946,
				"y": 2.6164676696,
				"z": 4.6067922648,
				"element": "H" 
			},
			{
				"x": -1.0476181471,
				"y": 3.6706683557,
				"z": 3.8496871811,
				"element": "H" 
			},
			{
				"x": -1.5536102583,
				"y": 2.4888694291,
				"z": 5.0712260386,
				"element": "H" 
			},
			{
				"x": -2.7024311787,
				"y": 0.2148705971,
				"z": 3.7313229643,
				"element": "H" 
			},
			{
				"x": -1.3489225029,
				"y": -1.2843571285,
				"z": -0.442476136,
				"element": "H" 
			},
			{
				"x": -1.2938664313,
				"y": -2.3404885143,
				"z": -2.6298901794,
				"element": "H" 
			},
			{
				"x": -0.2177934395,
				"y": -1.8905747334,
				"z": -3.8317504535,
				"element": "H" 
			},
			{
				"x": 1.4895509843,
				"y": -0.1887619838,
				"z": -3.4966741489,
				"element": "H" 
			},
			{
				"x": 2.2354947638,
				"y": 1.7094780452,
				"z": -2.1026012658,
				"element": "H" 
			},
			{
				"x": 1.2070289885,
				"y": 2.1237714151,
				"z": 0.1250548653,
				"element": "H" 
			}
		],
		 "valence_orbital": [ 
			{
				"type": "occ",
				"energy": -0.30574,
				"method": "rhf"
			},
			{
				"type": "occ",
				"energy": -0.2769,
				"method": "rhf"
			},
			{
				"type": "occ",
				"energy": -0.26486,
				"method": "rhf"
			},
			{
				"type": "occ",
				"energy": -0.21332,
				"method": "rhf"
			},
			{
				"type": "occ",
				"energy": -0.19956,
				"method": "rhf"
			},
			{
				"type": "unocc",
				"energy": -0.03058,
				"method": "rhf"
			},
			{
				"type": "unocc",
				"energy": 0.01469,
				"method": "rhf"
			},
			{
				"type": "unocc",
				"energy": 0.04459,
				"method": "rhf"
			},
			{
				"type": "unocc",
				"energy": 0.07976,
				"method": "rhf"
			},
			{
				"type": "unocc",
				"energy": 0.09082,
				"method": "rhf"
			}
		],
		"cosmo_sigma_profile": { 
			"-0.025": 0.0,
			"-0.024": 0.0,
			"-0.023": 0.0,
			"-0.022": 0.0,
			"-0.021": 0.0,
			"-0.02": 0.0,
			"-0.019": 0.0,
			"-0.018": 0.0,
			"-0.017": 0.0,
			"-0.016": 0.0,
			"-0.015": 0.0,
			"-0.014": 0.0,
			"-0.013": 0.380863257202,
			"-0.012": 2.74590148764,
			"-0.011": 2.31296029856,
			"-0.01": 3.23192180579,
			"-0.009": 3.28879087452,
			"-0.008": 3.73224739024,
			"-0.007": 4.81596302623,
			"-0.006": 9.76489824607,
			"-0.005": 14.657248997,
			"-0.004": 14.620756773,
			"-0.003": 14.7105183022,
			"-0.002": 14.5513890206,
			"-0.001": 14.4996636984,
			"0.0": 14.1658992704,
			"0.001": 14.0573390154,
			"0.002": 13.7223824492,
			"0.003": 15.4837358603,
			"0.004": 14.7401214241,
			"0.005": 16.3627775899,
			"0.006": 10.0193574535,
			"0.007": 2.02582608883,
			"0.008": 3.2005008627,
			"0.009": 2.30260270562,
			"0.01": 1.95672762455,
			"0.011": 1.20858737436,
			"0.012": 2.28699576001,
			"0.013": 1.71975112093,
			"0.014": 1.33111538401,
			"0.015": 0.882849678033,
			"0.016": 0.0430113547578,
			"0.017": 0.0,
			"0.018": 0.0,
			"0.019": 0.0,
			"0.02": 0.0,
			"0.021": 0.0,
			"0.022": 0.0,
			"0.023": 0.0,
			"0.024": 0.0,
			"0.025": 0.0
		}
	}
}
