{
	 "smiles": "O=C(NCC1=CC=CC=C1)C1=CC=CC=C1", 
	 "Tm": 379.15, 
	 "num_atms": 29, 
	 "gaussian": { 
		 "optdone": 1, 
		 "sigma_profile": "yes", 
		 "theory": "DFT", 
		 "functional": "B3LYP", 
		 "basiset": "6-31G**", 
		 "properties": { 
			 "R2extent": 4559.6811, 
			 "electric_dipole_moment_norm": 3.48360317775, 
			 "electric_quadrupole_moment_norm": 13.8440129677, 
			 "total_energy": -671.314532597, 
			 "HOMO_LUMO_gap": 0.20803, 
			 "cosmo_polarized_energy": -12.39, 
			 "cosmo_cavitation_energy": 32.78, 
			 "cosmo_dispersion_energy": -23.37, 
			 "cosmo_repulsion_energy": 1.83, 
			 "cosmo_total_nonelectrostatic_energy": 11.24, 
			 "SMD_solvation_energy": 6.11 
		},
		"coords": [
			{
				"x": 2.2354896147,
				"y": -2.5239593424,
				"z": 0.6034879841,
				"element": "O" 
			},
			{
				"x": 1.4039910938,
				"y": -1.641786397,
				"z": 0.4120582834,
				"element": "C" 
			},
			{
				"x": 1.062788951,
				"y": -1.2774139673,
				"z": -0.8745487528,
				"element": "N" 
			},
			{
				"x": 0.5332512933,
				"y": -0.004896033,
				"z": -1.3448061556,
				"element": "C" 
			},
			{
				"x": -0.7373527871,
				"y": -0.1143530954,
				"z": -2.1768743727,
				"element": "C" 
			},
			{
				"x": -1.5116761045,
				"y": -1.2783431956,
				"z": -2.2016690439,
				"element": "C" 
			},
			{
				"x": -2.6867266921,
				"y": -1.3332961378,
				"z": -2.9567340023,
				"element": "C" 
			},
			{
				"x": -3.1005903956,
				"y": -0.2253098592,
				"z": -3.6952384655,
				"element": "C" 
			},
			{
				"x": -2.3300094884,
				"y": 0.9406590582,
				"z": -3.6785509677,
				"element": "C" 
			},
			{
				"x": -1.1569552088,
				"y": 0.992601294,
				"z": -2.9277376127,
				"element": "C" 
			},
			{
				"x": 0.7134997576,
				"y": -0.9726133393,
				"z": 1.567776257,
				"element": "C" 
			},
			{
				"x": 1.4528241601,
				"y": -0.8165507575,
				"z": 2.7491495665,
				"element": "C" 
			},
			{
				"x": 0.8646722411,
				"y": -0.2569251906,
				"z": 3.8806304904,
				"element": "C" 
			},
			{
				"x": -0.4784414777,
				"y": 0.1288661767,
				"z": 3.8531029121,
				"element": "C" 
			},
			{
				"x": -1.2293526792,
				"y": -0.0498888227,
				"z": 2.6902820499,
				"element": "C" 
			},
			{
				"x": -0.6373019454,
				"y": -0.5949961276,
				"z": 1.5496333891,
				"element": "C" 
			},
			{
				"x": 1.5855501875,
				"y": -1.8208952317,
				"z": -1.5513468439,
				"element": "H" 
			},
			{
				"x": 1.302130676,
				"y": 0.510509613,
				"z": -1.9371471177,
				"element": "H" 
			},
			{
				"x": 0.3505360469,
				"y": 0.6302215376,
				"z": -0.4737470246,
				"element": "H" 
			},
			{
				"x": -1.1842988268,
				"y": -2.1442266134,
				"z": -1.6344593607,
				"element": "H" 
			},
			{
				"x": -3.2757213255,
				"y": -2.2461681453,
				"z": -2.9677441769,
				"element": "H" 
			},
			{
				"x": -4.0126614952,
				"y": -0.2687653438,
				"z": -4.2833855997,
				"element": "H" 
			},
			{
				"x": -2.6408534984,
				"y": 1.807438345,
				"z": -4.2550746398,
				"element": "H" 
			},
			{
				"x": -0.5588727962,
				"y": 1.9016169329,
				"z": -2.9246800527,
				"element": "H" 
			},
			{
				"x": 2.4853430712,
				"y": -1.1492540809,
				"z": 2.7610018518,
				"element": "H" 
			},
			{
				"x": 1.449263145,
				"y": -0.1294426302,
				"z": 4.7871504967,
				"element": "H" 
			},
			{
				"x": -0.9398648868,
				"y": 0.5584981458,
				"z": 4.7377587231,
				"element": "H" 
			},
			{
				"x": -2.2788179687,
				"y": 0.2293540333,
				"z": 2.6703703195,
				"element": "H" 
			},
			{
				"x": -1.2359426619,
				"y": -0.7483808258,
				"z": 0.6571418654,
				"element": "H" 
			}
		],
		 "valence_orbital": [ 
			{
				"type": "occ",
				"energy": -0.25941,
				"method": "rhf"
			},
			{
				"type": "occ",
				"energy": -0.25607,
				"method": "rhf"
			},
			{
				"type": "occ",
				"energy": -0.25463,
				"method": "rhf"
			},
			{
				"type": "occ",
				"energy": -0.24518,
				"method": "rhf"
			},
			{
				"type": "occ",
				"energy": -0.23958,
				"method": "rhf"
			},
			{
				"type": "unocc",
				"energy": -0.03155,
				"method": "rhf"
			},
			{
				"type": "unocc",
				"energy": -0.00945,
				"method": "rhf"
			},
			{
				"type": "unocc",
				"energy": -0.00727,
				"method": "rhf"
			},
			{
				"type": "unocc",
				"energy": -0.0034,
				"method": "rhf"
			},
			{
				"type": "unocc",
				"energy": 0.05432,
				"method": "rhf"
			}
		],
		"cosmo_sigma_profile": { 
			"-0.025": 0.0,
			"-0.024": 0.0,
			"-0.023": 0.0,
			"-0.022": 0.0,
			"-0.021": 0.0,
			"-0.02": 0.0,
			"-0.019": 0.0,
			"-0.018": 0.0,
			"-0.017": 0.0,
			"-0.016": 0.0,
			"-0.015": 0.0,
			"-0.014": 0.0630382970237,
			"-0.013": 1.26134297946,
			"-0.012": 0.624549995678,
			"-0.011": 1.16121901526,
			"-0.01": 0.975178305159,
			"-0.009": 0.97622625682,
			"-0.008": 0.995002781889,
			"-0.007": 1.44995912494,
			"-0.006": 13.396250219,
			"-0.005": 24.4249103623,
			"-0.004": 26.6647912739,
			"-0.003": 26.2436428459,
			"-0.002": 21.3327769867,
			"-0.001": 17.6949839489,
			"0.0": 15.3750948141,
			"0.001": 15.1270697026,
			"0.002": 15.4957672339,
			"0.003": 16.3190730574,
			"0.004": 18.521646916,
			"0.005": 15.2126991256,
			"0.006": 9.10240297847,
			"0.007": 2.39477934275,
			"0.008": 1.35339812995,
			"0.009": 1.62271501345,
			"0.01": 1.75325790163,
			"0.011": 1.41477603334,
			"0.012": 1.53661835868,
			"0.013": 4.48109652454,
			"0.014": 4.54922495958,
			"0.015": 0.452823798226,
			"0.016": 0.0,
			"0.017": 0.0,
			"0.018": 0.0,
			"0.019": 0.0,
			"0.02": 0.0,
			"0.021": 0.0,
			"0.022": 0.0,
			"0.023": 0.0,
			"0.024": 0.0,
			"0.025": 0.0
		}
	}
}
