{
	 "smiles": "CN1C=CC(=O)C(O)=C1C", 
	 "Tm": 545.15, 
	 "num_atms": 19, 
	 "gaussian": { 
		 "optdone": 1, 
		 "sigma_profile": "yes", 
		 "theory": "DFT", 
		 "functional": "B3LYP", 
		 "basiset": "6-31G**", 
		 "properties": { 
			 "R2extent": 2025.5341, 
			 "electric_dipole_moment_norm": 6.45083920742, 
			 "electric_quadrupole_moment_norm": 13.6698313881, 
			 "total_energy": -477.366004065, 
			 "HOMO_LUMO_gap": 0.18146, 
			 "cosmo_polarized_energy": -15.84, 
			 "cosmo_cavitation_energy": 21.96, 
			 "cosmo_dispersion_energy": -16.66, 
			 "cosmo_repulsion_energy": 1.33, 
			 "cosmo_total_nonelectrostatic_energy": 6.63, 
			 "SMD_solvation_energy": 5.11 
		},
		"coords": [
			{
				"x": 0.0286545938,
				"y": 1.0679833173,
				"z": -0.8265501059,
				"element": "C" 
			},
			{
				"x": 0.5491455497,
				"y": -0.024095903,
				"z": -0.0057494064,
				"element": "N" 
			},
			{
				"x": 1.892728034,
				"y": -0.261864726,
				"z": 0.0282191677,
				"element": "C" 
			},
			{
				"x": 2.4550306256,
				"y": -1.2634745482,
				"z": 0.7706904357,
				"element": "C" 
			},
			{
				"x": 1.6268545366,
				"y": -2.1256897439,
				"z": 1.5640455525,
				"element": "C" 
			},
			{
				"x": 1.9883374541,
				"y": -3.0774428844,
				"z": 2.2899851304,
				"element": "O" 
			},
			{
				"x": 0.1959085747,
				"y": -1.8295924593,
				"z": 1.4932984475,
				"element": "C" 
			},
			{
				"x": -0.5684136689,
				"y": -2.6501041432,
				"z": 2.2455799397,
				"element": "O" 
			},
			{
				"x": -0.3289091885,
				"y": -0.8174660911,
				"z": 0.7379737903,
				"element": "C" 
			},
			{
				"x": -1.8039251873,
				"y": -0.5400232616,
				"z": 0.6875887413,
				"element": "C" 
			},
			{
				"x": -0.4971208022,
				"y": 1.8062752405,
				"z": -0.2139103312,
				"element": "H" 
			},
			{
				"x": 0.8629323845,
				"y": 1.5626366255,
				"z": -1.323936562,
				"element": "H" 
			},
			{
				"x": -0.6587272378,
				"y": 0.6941056141,
				"z": -1.591112145,
				"element": "H" 
			},
			{
				"x": 2.4954450148,
				"y": 0.4034039347,
				"z": -0.5797360751,
				"element": "H" 
			},
			{
				"x": 3.5286468954,
				"y": -1.4091774476,
				"z": 0.7620998954,
				"element": "H" 
			},
			{
				"x": 0.1116428159,
				"y": -3.2446778196,
				"z": 2.6455164359,
				"element": "H" 
			},
			{
				"x": -2.3147636289,
				"y": -1.2593994363,
				"z": 1.3277642348,
				"element": "H" 
			},
			{
				"x": -2.0501744073,
				"y": 0.4666094555,
				"z": 1.0460027612,
				"element": "H" 
			},
			{
				"x": -2.2113923582,
				"y": -0.6394057234,
				"z": -0.3255699067,
				"element": "H" 
			}
		],
		 "valence_orbital": [ 
			{
				"type": "occ",
				"energy": -0.3434,
				"method": "rhf"
			},
			{
				"type": "occ",
				"energy": -0.33559,
				"method": "rhf"
			},
			{
				"type": "occ",
				"energy": -0.24908,
				"method": "rhf"
			},
			{
				"type": "occ",
				"energy": -0.23525,
				"method": "rhf"
			},
			{
				"type": "occ",
				"energy": -0.1979,
				"method": "rhf"
			},
			{
				"type": "unocc",
				"energy": -0.01644,
				"method": "rhf"
			},
			{
				"type": "unocc",
				"energy": 0.00811,
				"method": "rhf"
			},
			{
				"type": "unocc",
				"energy": 0.06848,
				"method": "rhf"
			},
			{
				"type": "unocc",
				"energy": 0.08074,
				"method": "rhf"
			},
			{
				"type": "unocc",
				"energy": 0.11186,
				"method": "rhf"
			}
		],
		"cosmo_sigma_profile": { 
			"-0.025": 0.0,
			"-0.024": 0.0,
			"-0.023": 0.0,
			"-0.022": 0.0,
			"-0.021": 0.0,
			"-0.02": 0.0,
			"-0.019": 0.0,
			"-0.018": 0.0,
			"-0.017": 0.0,
			"-0.016": 0.0,
			"-0.015": 0.0,
			"-0.014": 0.0,
			"-0.013": 0.0,
			"-0.012": 0.0,
			"-0.011": 0.0360293196526,
			"-0.01": 1.94532191492,
			"-0.009": 2.98571006927,
			"-0.008": 3.37745825648,
			"-0.007": 8.5499059191,
			"-0.006": 14.2109007853,
			"-0.005": 13.5456926466,
			"-0.004": 15.4359995182,
			"-0.003": 14.3834418235,
			"-0.002": 10.4544490262,
			"-0.001": 10.9100899083,
			"0.0": 8.52195303519,
			"0.001": 11.6752079774,
			"0.002": 9.97864800674,
			"0.003": 8.59682319523,
			"0.004": 6.68182952982,
			"0.005": 3.11964317467,
			"0.006": 3.24961901008,
			"0.007": 3.22805991488,
			"0.008": 1.91080970936,
			"0.009": 2.38564678865,
			"0.01": 3.88716002808,
			"0.011": 2.83834612542,
			"0.012": 1.62714449363,
			"0.013": 1.92759209585,
			"0.014": 2.68962979661,
			"0.015": 3.32518569494,
			"0.016": 2.10817550183,
			"0.017": 0.369401230173,
			"0.018": 0.0,
			"0.019": 0.0,
			"0.02": 0.0,
			"0.021": 0.0,
			"0.022": 0.0,
			"0.023": 0.0,
			"0.024": 0.0,
			"0.025": 0.0
		}
	}
}
