{
	 "smiles": "OC1(C#N)C(OC2OC3(CCCCC3)OC12)C1COC2(CCCCC2)O1", 
	 "Tm": 383.15, 
	 "num_atms": 53, 
	 "gaussian": { 
		 "optdone": 1, 
		 "sigma_profile": "yes", 
		 "theory": "DFT", 
		 "functional": "B3LYP", 
		 "basiset": "6-31G**", 
		 "properties": { 
			 "R2extent": 11892.0137, 
			 "electric_dipole_moment_norm": 3.59374884765, 
			 "electric_quadrupole_moment_norm": 16.9564262045, 
			 "total_energy": -1246.34822842, 
			 "HOMO_LUMO_gap": 0.27616, 
			 "cosmo_polarized_energy": -16.14, 
			 "cosmo_cavitation_energy": 49.69, 
			 "cosmo_dispersion_energy": -34.23, 
			 "cosmo_repulsion_energy": 2.57, 
			 "cosmo_total_nonelectrostatic_energy": 18.03, 
			 "SMD_solvation_energy": 7.19 
		},
		"coords": [
			{
				"x": 0.6546983348,
				"y": -1.4515544452,
				"z": -2.4667714569,
				"element": "O" 
			},
			{
				"x": -0.0749249915,
				"y": -1.3946825527,
				"z": -1.2566195161,
				"element": "C" 
			},
			{
				"x": -1.4752657576,
				"y": -1.1192307606,
				"z": -1.5994511393,
				"element": "C" 
			},
			{
				"x": -2.5912114859,
				"y": -0.915437387,
				"z": -1.8419012606,
				"element": "N" 
			},
			{
				"x": 0.1273940728,
				"y": -2.7206128195,
				"z": -0.4681969627,
				"element": "C" 
			},
			{
				"x": 1.4133325424,
				"y": -2.5441480251,
				"z": 0.151671975,
				"element": "O" 
			},
			{
				"x": 1.696610132,
				"y": -1.1856628518,
				"z": 0.3271778489,
				"element": "C" 
			},
			{
				"x": 2.7749419938,
				"y": -0.7935575885,
				"z": -0.5320228451,
				"element": "O" 
			},
			{
				"x": 2.5702545189,
				"y": 0.5854666173,
				"z": -0.8529513167,
				"element": "C" 
			},
			{
				"x": 3.191459507,
				"y": 1.5046431315,
				"z": 0.2091732292,
				"element": "C" 
			},
			{
				"x": 3.0368871411,
				"y": 2.9876025824,
				"z": -0.1633376675,
				"element": "C" 
			},
			{
				"x": 3.6163417542,
				"y": 3.2744143434,
				"z": -1.5561502989,
				"element": "C" 
			},
			{
				"x": 2.9830964949,
				"y": 2.359657997,
				"z": -2.614711235,
				"element": "C" 
			},
			{
				"x": 3.1271865363,
				"y": 0.8739216114,
				"z": -2.2449198676,
				"element": "C" 
			},
			{
				"x": 1.1320806087,
				"y": 0.7624976349,
				"z": -0.8581788755,
				"element": "O" 
			},
			{
				"x": 0.5384684457,
				"y": -0.3519564586,
				"z": -0.2473309864,
				"element": "C" 
			},
			{
				"x": -0.9335696206,
				"y": -3.0950258673,
				"z": 0.5681591579,
				"element": "C" 
			},
			{
				"x": -0.5414179386,
				"y": -4.3263592005,
				"z": 1.4331475184,
				"element": "C" 
			},
			{
				"x": -0.4790262021,
				"y": -3.8270176199,
				"z": 2.7615162837,
				"element": "O" 
			},
			{
				"x": -1.2534354947,
				"y": -2.6310115348,
				"z": 2.8130662927,
				"element": "C" 
			},
			{
				"x": -0.6600812042,
				"y": -1.6875357136,
				"z": 3.8688116683,
				"element": "C" 
			},
			{
				"x": -1.3570979985,
				"y": -1.8064625107,
				"z": 5.242235115,
				"element": "C" 
			},
			{
				"x": -1.8307585527,
				"y": -3.2441970885,
				"z": 5.4938736535,
				"element": "C" 
			},
			{
				"x": -2.8985983999,
				"y": -3.6673950522,
				"z": 4.4565183499,
				"element": "C" 
			},
			{
				"x": -2.7273304632,
				"y": -2.9408954585,
				"z": 3.1012741685,
				"element": "C" 
			},
			{
				"x": -1.0905418816,
				"y": -2.0435921982,
				"z": 1.5162357,
				"element": "O" 
			},
			{
				"x": 1.5895119741,
				"y": -1.5436657699,
				"z": -2.2157526669,
				"element": "H" 
			},
			{
				"x": 0.2084167709,
				"y": -3.5375744693,
				"z": -1.1928218962,
				"element": "H" 
			},
			{
				"x": 1.9495192103,
				"y": -1.0042057009,
				"z": 1.3761266,
				"element": "H" 
			},
			{
				"x": 2.7310416143,
				"y": 1.301149808,
				"z": 1.1822840532,
				"element": "H" 
			},
			{
				"x": 4.2536452534,
				"y": 1.2427387129,
				"z": 0.2914991806,
				"element": "H" 
			},
			{
				"x": 1.9710188166,
				"y": 3.2459075349,
				"z": -0.1503009956,
				"element": "H" 
			},
			{
				"x": 3.5256183609,
				"y": 3.610428856,
				"z": 0.5943997306,
				"element": "H" 
			},
			{
				"x": 3.4577556411,
				"y": 4.3256853854,
				"z": -1.8226713381,
				"element": "H" 
			},
			{
				"x": 4.7042411856,
				"y": 3.1158936279,
				"z": -1.5382982642,
				"element": "H" 
			},
			{
				"x": 1.9164943555,
				"y": 2.5952907769,
				"z": -2.71165801,
				"element": "H" 
			},
			{
				"x": 3.4365678444,
				"y": 2.5347006709,
				"z": -3.5966407704,
				"element": "H" 
			},
			{
				"x": 2.5981708648,
				"y": 0.2483198804,
				"z": -2.9687957072,
				"element": "H" 
			},
			{
				"x": 4.1839840078,
				"y": 0.5801657499,
				"z": -2.2490642468,
				"element": "H" 
			},
			{
				"x": -0.2047123906,
				"y": -0.0511158872,
				"z": 0.4902650478,
				"element": "H" 
			},
			{
				"x": -1.8778955265,
				"y": -3.2748378944,
				"z": 0.0362373941,
				"element": "H" 
			},
			{
				"x": -1.2872532633,
				"y": -5.1263526582,
				"z": 1.3357731321,
				"element": "H" 
			},
			{
				"x": 0.4437309216,
				"y": -4.7241622808,
				"z": 1.17741378,
				"element": "H" 
			},
			{
				"x": -0.7411937669,
				"y": -0.6651270991,
				"z": 3.4866391223,
				"element": "H" 
			},
			{
				"x": 0.4045784619,
				"y": -1.9290762823,
				"z": 3.9474807503,
				"element": "H" 
			},
			{
				"x": -2.2193715983,
				"y": -1.1282090055,
				"z": 5.2833739971,
				"element": "H" 
			},
			{
				"x": -0.671912695,
				"y": -1.4777049702,
				"z": 6.0308500337,
				"element": "H" 
			},
			{
				"x": -2.2292974627,
				"y": -3.3471900965,
				"z": 6.5089731509,
				"element": "H" 
			},
			{
				"x": -0.9671611802,
				"y": -3.9151353727,
				"z": 5.4220775551,
				"element": "H" 
			},
			{
				"x": -3.9021641371,
				"y": -3.4524988255,
				"z": 4.8409464946,
				"element": "H" 
			},
			{
				"x": -2.8484042901,
				"y": -4.7502030272,
				"z": 4.3055720515,
				"element": "H" 
			},
			{
				"x": -3.1559089448,
				"y": -3.5340774047,
				"z": 2.2863747103,
				"element": "H" 
			},
			{
				"x": -3.2654121192,
				"y": -1.9862130436,
				"z": 3.1021995783,
				"element": "H" 
			}
		],
		 "valence_orbital": [ 
			{
				"type": "occ",
				"energy": -0.29831,
				"method": "rhf"
			},
			{
				"type": "occ",
				"energy": -0.28234,
				"method": "rhf"
			},
			{
				"type": "occ",
				"energy": -0.27159,
				"method": "rhf"
			},
			{
				"type": "occ",
				"energy": -0.2665,
				"method": "rhf"
			},
			{
				"type": "occ",
				"energy": -0.26026,
				"method": "rhf"
			},
			{
				"type": "unocc",
				"energy": 0.0159,
				"method": "rhf"
			},
			{
				"type": "unocc",
				"energy": 0.02523,
				"method": "rhf"
			},
			{
				"type": "unocc",
				"energy": 0.05788,
				"method": "rhf"
			},
			{
				"type": "unocc",
				"energy": 0.06274,
				"method": "rhf"
			},
			{
				"type": "unocc",
				"energy": 0.07907,
				"method": "rhf"
			}
		],
		"cosmo_sigma_profile": { 
			"-0.025": 0.0,
			"-0.024": 0.0,
			"-0.023": 0.0,
			"-0.022": 0.0,
			"-0.021": 0.0,
			"-0.02": 0.0,
			"-0.019": 0.0,
			"-0.018": 0.0,
			"-0.017": 0.0,
			"-0.016": 0.0,
			"-0.015": 0.0,
			"-0.014": 0.0,
			"-0.013": 0.0,
			"-0.012": 0.0550139175928,
			"-0.011": 0.818555549195,
			"-0.01": 0.468540015164,
			"-0.009": 3.40839800406,
			"-0.008": 4.8722254199,
			"-0.007": 9.28826018998,
			"-0.006": 13.3346360314,
			"-0.005": 13.8745500231,
			"-0.004": 19.2191201782,
			"-0.003": 37.3281490608,
			"-0.002": 49.5482414737,
			"-0.001": 54.6528767535,
			"0.0": 50.7550781423,
			"0.001": 29.8817092455,
			"0.002": 11.9537688322,
			"0.003": 10.1725540006,
			"0.004": 9.55969641292,
			"0.005": 9.7441862945,
			"0.006": 11.290752722,
			"0.007": 10.0813462683,
			"0.008": 10.0850031902,
			"0.009": 10.026014511,
			"0.01": 7.70173258232,
			"0.011": 5.25364355505,
			"0.012": 2.02545541893,
			"0.013": 0.0790330646224,
			"0.014": 0.0,
			"0.015": 0.0,
			"0.016": 0.0,
			"0.017": 0.0,
			"0.018": 0.0,
			"0.019": 0.0,
			"0.02": 0.0,
			"0.021": 0.0,
			"0.022": 0.0,
			"0.023": 0.0,
			"0.024": 0.0,
			"0.025": 0.0
		}
	}
}
