{
	 "smiles": "CC(=O)N(C1=NC(C=O)=CS1)C1=CC=C(Cl)C=C1", 
	 "Tm": 484.15, 
	 "num_atms": 27, 
	 "gaussian": { 
		 "optdone": 1, 
		 "sigma_profile": "yes", 
		 "theory": "DFT", 
		 "functional": "B3LYP", 
		 "basiset": "6-31G**", 
		 "properties": { 
			 "R2extent": 7243.2154, 
			 "electric_dipole_moment_norm": 3.66608912603, 
			 "electric_quadrupole_moment_norm": 23.1657429041, 
			 "total_energy": -1581.01392199, 
			 "HOMO_LUMO_gap": 0.17503, 
			 "cosmo_polarized_energy": -17.09, 
			 "cosmo_cavitation_energy": 36.23, 
			 "cosmo_dispersion_energy": -25.4, 
			 "cosmo_repulsion_energy": 1.94, 
			 "cosmo_total_nonelectrostatic_energy": 12.77, 
			 "SMD_solvation_energy": 7.47 
		},
		"coords": [
			{
				"x": -2.8085477315,
				"y": 0.5044153699,
				"z": -0.6967682205,
				"element": "C" 
			},
			{
				"x": -1.3639096176,
				"y": 0.0845041824,
				"z": -0.7876331189,
				"element": "C" 
			},
			{
				"x": -0.9672777919,
				"y": -0.7520611635,
				"z": -1.5743984031,
				"element": "O" 
			},
			{
				"x": -0.402923819,
				"y": 0.6834716709,
				"z": 0.088930412,
				"element": "N" 
			},
			{
				"x": -0.6516259184,
				"y": 1.6667617003,
				"z": 1.0406678204,
				"element": "C" 
			},
			{
				"x": -1.7819583047,
				"y": 2.2623433171,
				"z": 1.256872204,
				"element": "N" 
			},
			{
				"x": -1.6731769087,
				"y": 3.1781411967,
				"z": 2.2837058208,
				"element": "C" 
			},
			{
				"x": -2.8313706058,
				"y": 3.9839895571,
				"z": 2.7168643022,
				"element": "C" 
			},
			{
				"x": -3.9429030704,
				"y": 3.9158051527,
				"z": 2.2343993602,
				"element": "O" 
			},
			{
				"x": -0.4348312026,
				"y": 3.2875371471,
				"z": 2.859955584,
				"element": "C" 
			},
			{
				"x": 0.6817927097,
				"y": 2.20060628,
				"z": 2.1087611116,
				"element": "S" 
			},
			{
				"x": 0.9548355805,
				"y": 0.2057258383,
				"z": -0.0472668902,
				"element": "C" 
			},
			{
				"x": 1.8411633475,
				"y": 0.8652185796,
				"z": -0.9010735869,
				"element": "C" 
			},
			{
				"x": 3.1529269359,
				"y": 0.4129419826,
				"z": -1.0307028414,
				"element": "C" 
			},
			{
				"x": 3.561324806,
				"y": -0.7042802325,
				"z": -0.3014388512,
				"element": "C" 
			},
			{
				"x": 5.2118698543,
				"y": -1.2773814207,
				"z": -0.4587986772,
				"element": "Cl" 
			},
			{
				"x": 2.6826651447,
				"y": -1.3753128721,
				"z": 0.5496293273,
				"element": "C" 
			},
			{
				"x": 1.3731025216,
				"y": -0.914823512,
				"z": 0.6730126917,
				"element": "C" 
			},
			{
				"x": -2.9298439019,
				"y": 1.5690356283,
				"z": -0.9074196442,
				"element": "H" 
			},
			{
				"x": -3.2092989106,
				"y": 0.3523804608,
				"z": 0.3078820965,
				"element": "H" 
			},
			{
				"x": -3.3561722821,
				"y": -0.0958077005,
				"z": -1.42355697,
				"element": "H" 
			},
			{
				"x": -2.5994498513,
				"y": 4.68364366,
				"z": 3.5500841674,
				"element": "H" 
			},
			{
				"x": -0.128884534,
				"y": 3.940622591,
				"z": 3.6656699043,
				"element": "H" 
			},
			{
				"x": 1.5013997188,
				"y": 1.7268855836,
				"z": -1.4664073274,
				"element": "H" 
			},
			{
				"x": 3.8491939434,
				"y": 0.9162958505,
				"z": -1.6916475465,
				"element": "H" 
			},
			{
				"x": 3.0178506296,
				"y": -2.2452159593,
				"z": 1.1027131741,
				"element": "H" 
			},
			{
				"x": 0.6720492585,
				"y": -1.4278428884,
				"z": 1.3231641013,
				"element": "H" 
			}
		],
		 "valence_orbital": [ 
			{
				"type": "occ",
				"energy": -0.28046,
				"method": "rhf"
			},
			{
				"type": "occ",
				"energy": -0.27462,
				"method": "rhf"
			},
			{
				"type": "occ",
				"energy": -0.26318,
				"method": "rhf"
			},
			{
				"type": "occ",
				"energy": -0.25888,
				"method": "rhf"
			},
			{
				"type": "occ",
				"energy": -0.24161,
				"method": "rhf"
			},
			{
				"type": "unocc",
				"energy": -0.06658,
				"method": "rhf"
			},
			{
				"type": "unocc",
				"energy": -0.03804,
				"method": "rhf"
			},
			{
				"type": "unocc",
				"energy": -0.03406,
				"method": "rhf"
			},
			{
				"type": "unocc",
				"energy": -0.02887,
				"method": "rhf"
			},
			{
				"type": "unocc",
				"energy": -0.00262,
				"method": "rhf"
			}
		],
		"cosmo_sigma_profile": { 
			"-0.025": 0.0,
			"-0.024": 0.0,
			"-0.023": 0.0,
			"-0.022": 0.0,
			"-0.021": 0.0,
			"-0.02": 0.0,
			"-0.019": 0.0,
			"-0.018": 0.0,
			"-0.017": 0.0,
			"-0.016": 0.0,
			"-0.015": 0.0,
			"-0.014": 0.0,
			"-0.013": 0.0,
			"-0.012": 0.0,
			"-0.011": 0.998002418234,
			"-0.01": 2.98861064304,
			"-0.009": 2.90926813187,
			"-0.008": 9.16977856165,
			"-0.007": 13.3118478366,
			"-0.006": 15.0012078459,
			"-0.005": 19.3473138498,
			"-0.004": 18.2195766656,
			"-0.003": 17.709179214,
			"-0.002": 21.3470568693,
			"-0.001": 24.0157616067,
			"0.0": 25.7226798628,
			"0.001": 27.8358867993,
			"0.002": 20.7742748996,
			"0.003": 13.1186456389,
			"0.004": 14.0086777069,
			"0.005": 6.824243848,
			"0.006": 4.81061584929,
			"0.007": 2.75777543226,
			"0.008": 4.32850637935,
			"0.009": 4.80641129641,
			"0.01": 5.08028903357,
			"0.011": 8.76776742862,
			"0.012": 8.08149004364,
			"0.013": 3.36762647458,
			"0.014": 0.170245525296,
			"0.015": 0.0,
			"0.016": 0.0,
			"0.017": 0.0,
			"0.018": 0.0,
			"0.019": 0.0,
			"0.02": 0.0,
			"0.021": 0.0,
			"0.022": 0.0,
			"0.023": 0.0,
			"0.024": 0.0,
			"0.025": 0.0
		}
	}
}
