{
	 "smiles": "CCOC(=O)C1=C(C=CC=C1)C#N", 
	 "Tm": 333.15, 
	 "num_atms": 22, 
	 "gaussian": { 
		 "optdone": 1, 
		 "sigma_profile": "yes", 
		 "theory": "DFT", 
		 "functional": "B3LYP", 
		 "basiset": "6-31G**", 
		 "properties": { 
			 "R2extent": 3640.9006, 
			 "electric_dipole_moment_norm": 5.91441858343, 
			 "electric_quadrupole_moment_norm": 21.3218978189, 
			 "total_energy": -591.683662882, 
			 "HOMO_LUMO_gap": 0.19651, 
			 "cosmo_polarized_energy": -13.9, 
			 "cosmo_cavitation_energy": 27.47, 
			 "cosmo_dispersion_energy": -19.41, 
			 "cosmo_repulsion_energy": 1.55, 
			 "cosmo_total_nonelectrostatic_energy": 9.62, 
			 "SMD_solvation_energy": 7.0 
		},
		"coords": [
			{
				"x": 3.6139063547,
				"y": -2.9911893986,
				"z": 2.2073220233,
				"element": "C" 
			},
			{
				"x": 2.5866117959,
				"y": -3.7500421353,
				"z": 1.3814610271,
				"element": "C" 
			},
			{
				"x": 1.4607691187,
				"y": -2.9050505218,
				"z": 1.0329903334,
				"element": "O" 
			},
			{
				"x": 1.6068173299,
				"y": -2.1362198039,
				"z": -0.0683017231,
				"element": "C" 
			},
			{
				"x": 2.6041248591,
				"y": -2.1272658234,
				"z": -0.7597823864,
				"element": "O" 
			},
			{
				"x": 0.3920733506,
				"y": -1.3049322622,
				"z": -0.3329746022,
				"element": "C" 
			},
			{
				"x": 0.3552961033,
				"y": -0.4345397572,
				"z": -1.4470009916,
				"element": "C" 
			},
			{
				"x": -0.7934075908,
				"y": 0.3396930338,
				"z": -1.6834793316,
				"element": "C" 
			},
			{
				"x": -1.8913987321,
				"y": 0.2568699012,
				"z": -0.8315463814,
				"element": "C" 
			},
			{
				"x": -1.8559484772,
				"y": -0.6011108051,
				"z": 0.2685877148,
				"element": "C" 
			},
			{
				"x": -0.7221380064,
				"y": -1.3734605219,
				"z": 0.5122072584,
				"element": "C" 
			},
			{
				"x": 1.4361056979,
				"y": -0.2781787269,
				"z": -2.3814322014,
				"element": "C" 
			},
			{
				"x": 2.2153707502,
				"y": -0.0438328714,
				"z": -3.212343105,
				"element": "N" 
			},
			{
				"x": 4.0619675955,
				"y": -2.1865923039,
				"z": 1.6195886748,
				"element": "H" 
			},
			{
				"x": 3.1562182224,
				"y": -2.5650105138,
				"z": 3.1049167749,
				"element": "H" 
			},
			{
				"x": 4.4119718867,
				"y": -3.6729559216,
				"z": 2.5192826675,
				"element": "H" 
			},
			{
				"x": 2.1399067617,
				"y": -4.5700252183,
				"z": 1.9483991047,
				"element": "H" 
			},
			{
				"x": 3.0284051834,
				"y": -4.1402666629,
				"z": 0.461883229,
				"element": "H" 
			},
			{
				"x": -0.8093648049,
				"y": 1.0032046012,
				"z": -2.5412748351,
				"element": "H" 
			},
			{
				"x": -2.7711974659,
				"y": 0.8617511469,
				"z": -1.0281011493,
				"element": "H" 
			},
			{
				"x": -2.7091728829,
				"y": -0.6696205581,
				"z": 0.9363308624,
				"element": "H" 
			},
			{
				"x": -0.6864170499,
				"y": -2.0415248768,
				"z": 1.3637670368,
				"element": "H" 
			}
		],
		 "valence_orbital": [ 
			{
				"type": "occ",
				"energy": -0.32806,
				"method": "rhf"
			},
			{
				"type": "occ",
				"energy": -0.30761,
				"method": "rhf"
			},
			{
				"type": "occ",
				"energy": -0.28166,
				"method": "rhf"
			},
			{
				"type": "occ",
				"energy": -0.27806,
				"method": "rhf"
			},
			{
				"type": "occ",
				"energy": -0.26971,
				"method": "rhf"
			},
			{
				"type": "unocc",
				"energy": -0.0732,
				"method": "rhf"
			},
			{
				"type": "unocc",
				"energy": -0.04283,
				"method": "rhf"
			},
			{
				"type": "unocc",
				"energy": 0.04213,
				"method": "rhf"
			},
			{
				"type": "unocc",
				"energy": 0.04592,
				"method": "rhf"
			},
			{
				"type": "unocc",
				"energy": 0.07776,
				"method": "rhf"
			}
		],
		"cosmo_sigma_profile": { 
			"-0.025": 0.0,
			"-0.024": 0.0,
			"-0.023": 0.0,
			"-0.022": 0.0,
			"-0.021": 0.0,
			"-0.02": 0.0,
			"-0.019": 0.0,
			"-0.018": 0.0,
			"-0.017": 0.0,
			"-0.016": 0.0,
			"-0.015": 0.0,
			"-0.014": 0.0,
			"-0.013": 0.0,
			"-0.012": 0.0,
			"-0.011": 0.0,
			"-0.01": 0.0,
			"-0.009": 0.142421175881,
			"-0.008": 4.03099067077,
			"-0.007": 9.83711189323,
			"-0.006": 11.7070166385,
			"-0.005": 11.7391770303,
			"-0.004": 19.0355697027,
			"-0.003": 21.2313934329,
			"-0.002": 20.8155653324,
			"-0.001": 20.7851608765,
			"0.0": 22.4872149648,
			"0.001": 19.7493532808,
			"0.002": 9.61717841733,
			"0.003": 4.64429091573,
			"0.004": 5.57506442996,
			"0.005": 3.1800202365,
			"0.006": 3.1337525435,
			"0.007": 3.95677799991,
			"0.008": 4.23469693913,
			"0.009": 4.76297156208,
			"0.01": 6.6932786814,
			"0.011": 7.07949041627,
			"0.012": 4.39220102891,
			"0.013": 1.61461470201,
			"0.014": 0.104899292403,
			"0.015": 0.0,
			"0.016": 0.0,
			"0.017": 0.0,
			"0.018": 0.0,
			"0.019": 0.0,
			"0.02": 0.0,
			"0.021": 0.0,
			"0.022": 0.0,
			"0.023": 0.0,
			"0.024": 0.0,
			"0.025": 0.0
		}
	}
}
