{
	 "smiles": "CN1N=CC(Br)=C1C=O", 
	 "Tm": 343.15, 
	 "num_atms": 14, 
	 "gaussian": { 
		 "optdone": 1, 
		 "sigma_profile": "yes", 
		 "theory": "DFT", 
		 "functional": "B3LYP", 
		 "basiset": "6-31G**", 
		 "properties": { 
			 "R2extent": 2225.5332, 
			 "electric_dipole_moment_norm": 0.785484086408, 
			 "electric_quadrupole_moment_norm": 6.82915555761, 
			 "total_energy": -2949.63794262, 
			 "HOMO_LUMO_gap": 0.18169, 
			 "cosmo_polarized_energy": -6.86, 
			 "cosmo_cavitation_energy": 21.02, 
			 "cosmo_dispersion_energy": -15.8, 
			 "cosmo_repulsion_energy": 1.29, 
			 "cosmo_total_nonelectrostatic_energy": 6.5, 
			 "SMD_solvation_energy": 2.95 
		},
		"coords": [
			{
				"x": 2.3106071922,
				"y": 0.2602638201,
				"z": -0.0750630383,
				"element": "C" 
			},
			{
				"x": 1.0398349054,
				"y": 0.3817671906,
				"z": 0.6305940993,
				"element": "N" 
			},
			{
				"x": 1.022368512,
				"y": 0.8733111537,
				"z": 1.8738771403,
				"element": "N" 
			},
			{
				"x": -0.2603382557,
				"y": 0.865990626,
				"z": 2.2587192862,
				"element": "C" 
			},
			{
				"x": -1.0740753501,
				"y": 0.3594193849,
				"z": 1.2393940517,
				"element": "C" 
			},
			{
				"x": -2.9409142904,
				"y": 0.1415136398,
				"z": 1.2777018848,
				"element": "Br" 
			},
			{
				"x": -0.2130009984,
				"y": 0.0476837694,
				"z": 0.1834998619,
				"element": "C" 
			},
			{
				"x": -0.5023420035,
				"y": -0.5111590334,
				"z": -1.1326503665,
				"element": "C" 
			},
			{
				"x": 0.3401079964,
				"y": -0.7452937605,
				"z": -1.9848974916,
				"element": "O" 
			},
			{
				"x": 2.2945077065,
				"y": 0.8527964891,
				"z": -0.9913792762,
				"element": "H" 
			},
			{
				"x": 3.0775739908,
				"y": 0.6264393516,
				"z": 0.6061733099,
				"element": "H" 
			},
			{
				"x": 2.4984043259,
				"y": -0.7809019176,
				"z": -0.342813903,
				"element": "H" 
			},
			{
				"x": -0.54422508,
				"y": 1.2198580353,
				"z": 3.2389414621,
				"element": "H" 
			},
			{
				"x": -1.576808651,
				"y": -0.714788749,
				"z": -1.3046970204,
				"element": "H" 
			}
		],
		 "valence_orbital": [ 
			{
				"type": "occ",
				"energy": -0.32566,
				"method": "rhf"
			},
			{
				"type": "occ",
				"energy": -0.29934,
				"method": "rhf"
			},
			{
				"type": "occ",
				"energy": -0.27424,
				"method": "rhf"
			},
			{
				"type": "occ",
				"energy": -0.26874,
				"method": "rhf"
			},
			{
				"type": "occ",
				"energy": -0.2543,
				"method": "rhf"
			},
			{
				"type": "unocc",
				"energy": -0.07261,
				"method": "rhf"
			},
			{
				"type": "unocc",
				"energy": 0.00175,
				"method": "rhf"
			},
			{
				"type": "unocc",
				"energy": 0.02429,
				"method": "rhf"
			},
			{
				"type": "unocc",
				"energy": 0.07169,
				"method": "rhf"
			},
			{
				"type": "unocc",
				"energy": 0.11,
				"method": "rhf"
			}
		],
		"cosmo_sigma_profile": { 
			"-0.025": 0.0,
			"-0.024": 0.0,
			"-0.023": 0.0,
			"-0.022": 0.0,
			"-0.021": 0.0,
			"-0.02": 0.0,
			"-0.019": 0.0,
			"-0.018": 0.0,
			"-0.017": 0.0,
			"-0.016": 0.0,
			"-0.015": 0.0,
			"-0.014": 0.0,
			"-0.013": 0.0,
			"-0.012": 0.0,
			"-0.011": 0.0,
			"-0.01": 0.0004932493504,
			"-0.009": 1.2098144698,
			"-0.008": 1.45132751148,
			"-0.007": 5.55199441441,
			"-0.006": 10.5090568069,
			"-0.005": 13.5643003406,
			"-0.004": 14.9631850719,
			"-0.003": 17.0539619859,
			"-0.002": 10.1319882984,
			"-0.001": 10.8882680956,
			"0.0": 13.0084497288,
			"0.001": 15.4968384817,
			"0.002": 12.6330770501,
			"0.003": 12.5652863731,
			"0.004": 7.4921159356,
			"0.005": 2.86581541377,
			"0.006": 3.14664907782,
			"0.007": 3.34276639502,
			"0.008": 1.92149824821,
			"0.009": 3.09413412097,
			"0.01": 3.54245037813,
			"0.011": 4.17177514414,
			"0.012": 2.44160309564,
			"0.013": 0.854465409878,
			"0.014": 0.236713172826,
			"0.015": 0.0,
			"0.016": 0.0,
			"0.017": 0.0,
			"0.018": 0.0,
			"0.019": 0.0,
			"0.02": 0.0,
			"0.021": 0.0,
			"0.022": 0.0,
			"0.023": 0.0,
			"0.024": 0.0,
			"0.025": 0.0
		}
	}
}
