{
	 "smiles": "ClC1=NC=NC(NCC2CC2)=C1", 
	 "Tm": 372.15, 
	 "num_atms": 22, 
	 "gaussian": { 
		 "optdone": 1, 
		 "sigma_profile": "yes", 
		 "theory": "DFT", 
		 "functional": "B3LYP", 
		 "basiset": "6-31G**", 
		 "properties": { 
			 "R2extent": 4506.6045, 
			 "electric_dipole_moment_norm": 5.07397820354, 
			 "electric_quadrupole_moment_norm": 12.9240404688, 
			 "total_energy": -935.302619037, 
			 "HOMO_LUMO_gap": 0.20473, 
			 "cosmo_polarized_energy": -10.94, 
			 "cosmo_cavitation_energy": 27.84, 
			 "cosmo_dispersion_energy": -20.68, 
			 "cosmo_repulsion_energy": 1.68, 
			 "cosmo_total_nonelectrostatic_energy": 8.84, 
			 "SMD_solvation_energy": 0.92 
		},
		"coords": [
			{
				"x": 2.7941298043,
				"y": 2.3290922854,
				"z": -3.2307328019,
				"element": "Cl" 
			},
			{
				"x": 1.8153058353,
				"y": 0.9003865506,
				"z": -2.9134283206,
				"element": "C" 
			},
			{
				"x": 1.3763705334,
				"y": 0.2329179094,
				"z": -3.9770815561,
				"element": "N" 
			},
			{
				"x": 0.6368494764,
				"y": -0.8423097033,
				"z": -3.6856684356,
				"element": "C" 
			},
			{
				"x": 0.2965387808,
				"y": -1.3018175504,
				"z": -2.4838810799,
				"element": "N" 
			},
			{
				"x": 0.7604416542,
				"y": -0.6067298269,
				"z": -1.4233921163,
				"element": "C" 
			},
			{
				"x": 0.4535454422,
				"y": -1.0602227199,
				"z": -0.1802519836,
				"element": "N" 
			},
			{
				"x": -0.4317175379,
				"y": -2.1883211305,
				"z": 0.0928608501,
				"element": "C" 
			},
			{
				"x": -0.1338734008,
				"y": -2.7733566386,
				"z": 1.4541080889,
				"element": "C" 
			},
			{
				"x": -1.2312867391,
				"y": -3.4498330375,
				"z": 2.2336794556,
				"element": "C" 
			},
			{
				"x": -0.6975293296,
				"y": -2.1171727516,
				"z": 2.6981766598,
				"element": "C" 
			},
			{
				"x": 1.556937331,
				"y": 0.550500616,
				"z": -1.602955712,
				"element": "C" 
			},
			{
				"x": 0.2644444936,
				"y": -1.4080318219,
				"z": -4.5379432437,
				"element": "H" 
			},
			{
				"x": 0.7083300908,
				"y": -0.4815021015,
				"z": 0.6063017722,
				"element": "H" 
			},
			{
				"x": -0.284631654,
				"y": -2.9263998252,
				"z": -0.6990943973,
				"element": "H" 
			},
			{
				"x": -1.4866593486,
				"y": -1.8768983464,
				"z": 0.04315806,
				"element": "H" 
			},
			{
				"x": 0.8614420288,
				"y": -3.2031061222,
				"z": 1.5470153459,
				"element": "H" 
			},
			{
				"x": -2.2257165306,
				"y": -3.4728605372,
				"z": 1.7968301733,
				"element": "H" 
			},
			{
				"x": -0.9789523854,
				"y": -4.3360927546,
				"z": 2.8069697793,
				"element": "H" 
			},
			{
				"x": -1.3383232879,
				"y": -1.2480378218,
				"z": 2.5719003644,
				"element": "H" 
			},
			{
				"x": -0.0825852058,
				"y": -2.0901263997,
				"z": 3.5924201869,
				"element": "H" 
			},
			{
				"x": 1.941039949,
				"y": 1.1244217278,
				"z": -0.7681910892,
				"element": "H" 
			}
		],
		 "valence_orbital": [ 
			{
				"type": "occ",
				"energy": -0.30559,
				"method": "rhf"
			},
			{
				"type": "occ",
				"energy": -0.29778,
				"method": "rhf"
			},
			{
				"type": "occ",
				"energy": -0.27684,
				"method": "rhf"
			},
			{
				"type": "occ",
				"energy": -0.25991,
				"method": "rhf"
			},
			{
				"type": "occ",
				"energy": -0.23305,
				"method": "rhf"
			},
			{
				"type": "unocc",
				"energy": -0.02832,
				"method": "rhf"
			},
			{
				"type": "unocc",
				"energy": -0.01251,
				"method": "rhf"
			},
			{
				"type": "unocc",
				"energy": 0.03525,
				"method": "rhf"
			},
			{
				"type": "unocc",
				"energy": 0.07737,
				"method": "rhf"
			},
			{
				"type": "unocc",
				"energy": 0.08803,
				"method": "rhf"
			}
		],
		"cosmo_sigma_profile": { 
			"-0.025": 0.0,
			"-0.024": 0.0,
			"-0.023": 0.0,
			"-0.022": 0.0,
			"-0.021": 0.0,
			"-0.02": 0.0,
			"-0.019": 0.0,
			"-0.018": 0.0,
			"-0.017": 0.0,
			"-0.016": 0.0,
			"-0.015": 0.0,
			"-0.014": 1.27701046701,
			"-0.013": 0.844373771242,
			"-0.012": 1.18798438209,
			"-0.011": 1.23990322262,
			"-0.01": 1.45079480257,
			"-0.009": 2.03570999662,
			"-0.008": 2.54154757765,
			"-0.007": 3.7135412083,
			"-0.006": 3.97038631712,
			"-0.005": 8.99650384218,
			"-0.004": 20.7173765774,
			"-0.003": 17.157901731,
			"-0.002": 16.9027373339,
			"-0.001": 20.8981444065,
			"0.0": 27.4503265569,
			"0.001": 19.6210476452,
			"0.002": 15.0403523254,
			"0.003": 12.0040037351,
			"0.004": 16.3881994552,
			"0.005": 7.93080604492,
			"0.006": 4.84190522124,
			"0.007": 3.18965064061,
			"0.008": 2.96561752924,
			"0.009": 2.45294489281,
			"0.01": 2.34673787307,
			"0.011": 1.11446711557,
			"0.012": 2.08195722132,
			"0.013": 1.65245806595,
			"0.014": 0.811608070224,
			"0.015": 0.654185327254,
			"0.016": 0.051401405637,
			"0.017": 0.0,
			"0.018": 0.0,
			"0.019": 0.0,
			"0.02": 0.0,
			"0.021": 0.0,
			"0.022": 0.0,
			"0.023": 0.0,
			"0.024": 0.0,
			"0.025": 0.0
		}
	}
}
