{
	 "smiles": "OC1=CC(C=O)=CC(O)=C1", 
	 "Tm": 432.65, 
	 "num_atms": 16, 
	 "gaussian": { 
		 "optdone": 1, 
		 "sigma_profile": "yes", 
		 "theory": "DFT", 
		 "functional": "B3LYP", 
		 "basiset": "6-31G**", 
		 "properties": { 
			 "R2extent": 1747.3719, 
			 "electric_dipole_moment_norm": 4.13492013224, 
			 "electric_quadrupole_moment_norm": 16.9088179989, 
			 "total_energy": -496.013509424, 
			 "HOMO_LUMO_gap": 0.16667, 
			 "cosmo_polarized_energy": -16.63, 
			 "cosmo_cavitation_energy": 21.12, 
			 "cosmo_dispersion_energy": -15.61, 
			 "cosmo_repulsion_energy": 1.26, 
			 "cosmo_total_nonelectrostatic_energy": 6.77, 
			 "SMD_solvation_energy": 5.49 
		},
		"coords": [
			{
				"x": -0.3634855252,
				"y": 0.7604412962,
				"z": 2.05742669,
				"element": "O" 
			},
			{
				"x": -0.3677939556,
				"y": 0.4455910775,
				"z": 0.7299984367,
				"element": "C" 
			},
			{
				"x": 0.7609417089,
				"y": -0.0221467137,
				"z": 0.0544273321,
				"element": "C" 
			},
			{
				"x": 0.6640112001,
				"y": -0.3209951631,
				"z": -1.3115822816,
				"element": "C" 
			},
			{
				"x": 1.8672956726,
				"y": -0.8176075499,
				"z": -2.0229764747,
				"element": "C" 
			},
			{
				"x": 1.9058736498,
				"y": -1.1078907833,
				"z": -3.2020433049,
				"element": "O" 
			},
			{
				"x": -0.5364214855,
				"y": -0.1600173169,
				"z": -2.0065397625,
				"element": "C" 
			},
			{
				"x": -1.6576143052,
				"y": 0.3089020857,
				"z": -1.3172988267,
				"element": "C" 
			},
			{
				"x": -2.8137762627,
				"y": 0.4552180391,
				"z": -2.0230682893,
				"element": "O" 
			},
			{
				"x": -1.5769771159,
				"y": 0.6116162398,
				"z": 0.0463683295,
				"element": "C" 
			},
			{
				"x": 0.5190892713,
				"y": 0.6063246851,
				"z": 2.4184312087,
				"element": "H" 
			},
			{
				"x": 1.7065840863,
				"y": -0.1550392473,
				"z": 0.5763309399,
				"element": "H" 
			},
			{
				"x": 2.7737388473,
				"y": -0.9107652373,
				"z": -1.3823142102,
				"element": "H" 
			},
			{
				"x": -0.5909843245,
				"y": -0.3965672897,
				"z": -3.0624816719,
				"element": "H" 
			},
			{
				"x": -3.5091976671,
				"y": 0.783414843,
				"z": -1.4384538467,
				"element": "H" 
			},
			{
				"x": -2.4405837945,
				"y": 0.9771210345,
				"z": 0.5953757316,
				"element": "H" 
			}
		],
		 "valence_orbital": [ 
			{
				"type": "occ",
				"energy": -0.3669,
				"method": "rhf"
			},
			{
				"type": "occ",
				"energy": -0.3197,
				"method": "rhf"
			},
			{
				"type": "occ",
				"energy": -0.25575,
				"method": "rhf"
			},
			{
				"type": "occ",
				"energy": -0.24976,
				"method": "rhf"
			},
			{
				"type": "occ",
				"energy": -0.22904,
				"method": "rhf"
			},
			{
				"type": "unocc",
				"energy": -0.06237,
				"method": "rhf"
			},
			{
				"type": "unocc",
				"energy": 0.00687,
				"method": "rhf"
			},
			{
				"type": "unocc",
				"energy": 0.04657,
				"method": "rhf"
			},
			{
				"type": "unocc",
				"energy": 0.05871,
				"method": "rhf"
			},
			{
				"type": "unocc",
				"energy": 0.0622,
				"method": "rhf"
			}
		],
		"cosmo_sigma_profile": { 
			"-0.025": 0.0,
			"-0.024": 0.0,
			"-0.023": 0.0,
			"-0.022": 0.0,
			"-0.021": 0.0,
			"-0.02": 0.0,
			"-0.019": 0.0727538177971,
			"-0.018": 1.58008566958,
			"-0.017": 2.70869834135,
			"-0.016": 2.13387741879,
			"-0.015": 1.97922422155,
			"-0.014": 2.50335691324,
			"-0.013": 1.37952342515,
			"-0.012": 1.39317527011,
			"-0.011": 2.17572446214,
			"-0.01": 2.71769806935,
			"-0.009": 2.41447856311,
			"-0.008": 4.05632821385,
			"-0.007": 5.46594587823,
			"-0.006": 6.97459467166,
			"-0.005": 6.0496467739,
			"-0.004": 6.79077424248,
			"-0.003": 5.98212259793,
			"-0.002": 6.21100133593,
			"-0.001": 7.20483265745,
			"0.0": 7.29188098409,
			"0.001": 7.1609504175,
			"0.002": 12.5916190531,
			"0.003": 22.1754822628,
			"0.004": 9.01998776884,
			"0.005": 4.64172719785,
			"0.006": 4.74215486516,
			"0.007": 4.11465243929,
			"0.008": 4.26112650036,
			"0.009": 5.60896756603,
			"0.01": 6.30642899557,
			"0.011": 7.18220998298,
			"0.012": 3.05936080006,
			"0.013": 0.515190669728,
			"0.014": 0.0,
			"0.015": 0.0,
			"0.016": 0.0,
			"0.017": 0.0,
			"0.018": 0.0,
			"0.019": 0.0,
			"0.02": 0.0,
			"0.021": 0.0,
			"0.022": 0.0,
			"0.023": 0.0,
			"0.024": 0.0,
			"0.025": 0.0
		}
	}
}
