{
	 "smiles": "FC1=CC=C(C(=O)CN2C=NC=N2)C(F)=C1", 
	 "Tm": 378.5, 
	 "num_atms": 23, 
	 "gaussian": { 
		 "optdone": 1, 
		 "sigma_profile": "yes", 
		 "theory": "DFT", 
		 "functional": "B3LYP", 
		 "basiset": "6-31G**", 
		 "properties": { 
			 "R2extent": 4770.5175, 
			 "electric_dipole_moment_norm": 5.03297172752, 
			 "electric_quadrupole_moment_norm": 11.0152079481, 
			 "total_energy": -824.403470897, 
			 "HOMO_LUMO_gap": 0.18014, 
			 "cosmo_polarized_energy": -14.34, 
			 "cosmo_cavitation_energy": 29.51, 
			 "cosmo_dispersion_energy": -21.2, 
			 "cosmo_repulsion_energy": 1.57, 
			 "cosmo_total_nonelectrostatic_energy": 9.88, 
			 "SMD_solvation_energy": 4.03 
		},
		"coords": [
			{
				"x": 1.8513660524,
				"y": -3.1429224564,
				"z": 4.1276449776,
				"element": "F" 
			},
			{
				"x": 1.5295393746,
				"y": -2.2712655926,
				"z": 3.1614961426,
				"element": "C" 
			},
			{
				"x": 2.1474769866,
				"y": -1.0211942243,
				"z": 3.1398540717,
				"element": "C" 
			},
			{
				"x": 1.7995826462,
				"y": -0.1335662684,
				"z": 2.1325192913,
				"element": "C" 
			},
			{
				"x": 0.8538165868,
				"y": -0.4606118011,
				"z": 1.1411470646,
				"element": "C" 
			},
			{
				"x": 0.5656417978,
				"y": 0.576232937,
				"z": 0.1012030216,
				"element": "C" 
			},
			{
				"x": 1.0819705719,
				"y": 1.6777299985,
				"z": 0.1710024242,
				"element": "O" 
			},
			{
				"x": -0.4049826237,
				"y": 0.2410717468,
				"z": -1.0410745182,
				"element": "C" 
			},
			{
				"x": -0.4242882574,
				"y": 1.2516836177,
				"z": -2.0730695928,
				"element": "N" 
			},
			{
				"x": -0.7528860229,
				"y": 2.5636245427,
				"z": -2.0142198595,
				"element": "C" 
			},
			{
				"x": -0.6237816202,
				"y": 3.126277688,
				"z": -3.2026801963,
				"element": "N" 
			},
			{
				"x": -0.192661937,
				"y": 2.0880687128,
				"z": -3.9743550411,
				"element": "C" 
			},
			{
				"x": -0.0526733697,
				"y": 0.9316179139,
				"z": -3.3450717349,
				"element": "N" 
			},
			{
				"x": 0.2676524784,
				"y": -1.7313361405,
				"z": 1.2212680619,
				"element": "C" 
			},
			{
				"x": -0.6577067785,
				"y": -2.1093731195,
				"z": 0.3128520823,
				"element": "F" 
			},
			{
				"x": 0.5854291906,
				"y": -2.6483871625,
				"z": 2.2142122161,
				"element": "C" 
			},
			{
				"x": 2.8781377439,
				"y": -0.7691116927,
				"z": 3.899595438,
				"element": "H" 
			},
			{
				"x": 2.2527869815,
				"y": 0.8500453544,
				"z": 2.0764015995,
				"element": "H" 
			},
			{
				"x": -1.406436507,
				"y": 0.0942602861,
				"z": -0.618572317,
				"element": "H" 
			},
			{
				"x": -0.1275908544,
				"y": -0.6963773269,
				"z": -1.5239451937,
				"element": "H" 
			},
			{
				"x": -1.0605912904,
				"y": 3.0531143533,
				"z": -1.1018704591,
				"element": "H" 
			},
			{
				"x": 0.022090025,
				"y": 2.1855609942,
				"z": -5.0297091306,
				"element": "H" 
			},
			{
				"x": 0.1101088255,
				"y": -3.6209423605,
				"z": 2.2453716518,
				"element": "H" 
			}
		],
		 "valence_orbital": [ 
			{
				"type": "occ",
				"energy": -0.28736,
				"method": "rhf"
			},
			{
				"type": "occ",
				"energy": -0.27741,
				"method": "rhf"
			},
			{
				"type": "occ",
				"energy": -0.27374,
				"method": "rhf"
			},
			{
				"type": "occ",
				"energy": -0.26839,
				"method": "rhf"
			},
			{
				"type": "occ",
				"energy": -0.25901,
				"method": "rhf"
			},
			{
				"type": "unocc",
				"energy": -0.07887,
				"method": "rhf"
			},
			{
				"type": "unocc",
				"energy": -0.03614,
				"method": "rhf"
			},
			{
				"type": "unocc",
				"energy": 0.00891,
				"method": "rhf"
			},
			{
				"type": "unocc",
				"energy": 0.0154,
				"method": "rhf"
			},
			{
				"type": "unocc",
				"energy": 0.05941,
				"method": "rhf"
			}
		],
		"cosmo_sigma_profile": { 
			"-0.025": 0.0,
			"-0.024": 0.0,
			"-0.023": 0.0,
			"-0.022": 0.0,
			"-0.021": 0.0,
			"-0.02": 0.0,
			"-0.019": 0.0,
			"-0.018": 0.0,
			"-0.017": 0.0,
			"-0.016": 0.0,
			"-0.015": 0.0,
			"-0.014": 0.0,
			"-0.013": 0.0,
			"-0.012": 0.0,
			"-0.011": 0.0504621670539,
			"-0.01": 3.4972798379,
			"-0.009": 8.96213951838,
			"-0.008": 9.9302488569,
			"-0.007": 9.3241573152,
			"-0.006": 12.165357701,
			"-0.005": 9.84119106417,
			"-0.004": 10.6043494801,
			"-0.003": 11.6168299189,
			"-0.002": 15.7021095126,
			"-0.001": 22.3481286872,
			"0.0": 21.4667675433,
			"0.001": 18.0831240309,
			"0.002": 16.7667432826,
			"0.003": 19.2244876535,
			"0.004": 8.7411928542,
			"0.005": 4.68074410944,
			"0.006": 4.14037380487,
			"0.007": 4.78969909094,
			"0.008": 5.05897195799,
			"0.009": 4.35610257486,
			"0.01": 4.74620342731,
			"0.011": 3.67547486371,
			"0.012": 1.95360042891,
			"0.013": 2.48607799247,
			"0.014": 1.88327591056,
			"0.015": 0.796438185697,
			"0.016": 1.32398426446,
			"0.017": 0.266806637968,
			"0.018": 0.0,
			"0.019": 0.0,
			"0.02": 0.0,
			"0.021": 0.0,
			"0.022": 0.0,
			"0.023": 0.0,
			"0.024": 0.0,
			"0.025": 0.0
		}
	}
}
