{
	 "smiles": "OC1=CC2=C(OC3=C2CCCC3)C=C1", 
	 "Tm": 377.15, 
	 "num_atms": 26, 
	 "gaussian": { 
		 "optdone": 1, 
		 "sigma_profile": "yes", 
		 "theory": "DFT", 
		 "functional": "B3LYP", 
		 "basiset": "6-31G**", 
		 "properties": { 
			 "R2extent": 3359.2496, 
			 "electric_dipole_moment_norm": 2.60108523121, 
			 "electric_quadrupole_moment_norm": 6.18638186827, 
			 "total_energy": -614.961624224, 
			 "HOMO_LUMO_gap": 0.19151, 
			 "cosmo_polarized_energy": -9.08, 
			 "cosmo_cavitation_energy": 28.26, 
			 "cosmo_dispersion_energy": -21.46, 
			 "cosmo_repulsion_energy": 1.68, 
			 "cosmo_total_nonelectrostatic_energy": 8.48, 
			 "SMD_solvation_energy": 4.42 
		},
		"coords": [
			{
				"x": -2.4347417323,
				"y": 0.6372528267,
				"z": 3.4331334737,
				"element": "O" 
			},
			{
				"x": -1.9303306254,
				"y": 1.0132394254,
				"z": 2.2141813088,
				"element": "C" 
			},
			{
				"x": -1.0462083752,
				"y": 0.2111431278,
				"z": 1.4917941137,
				"element": "C" 
			},
			{
				"x": -0.5828929266,
				"y": 0.6798645082,
				"z": 0.252967101,
				"element": "C" 
			},
			{
				"x": -1.0230101919,
				"y": 1.9324118867,
				"z": -0.213724219,
				"element": "C" 
			},
			{
				"x": -0.4620033151,
				"y": 2.2152324826,
				"z": -1.4379522833,
				"element": "O" 
			},
			{
				"x": 0.3325739075,
				"y": 1.1355211713,
				"z": -1.7399895724,
				"element": "C" 
			},
			{
				"x": 0.309866657,
				"y": 0.1825047752,
				"z": -0.7690490656,
				"element": "C" 
			},
			{
				"x": 1.1051801858,
				"y": -1.0883573433,
				"z": -0.8656440657,
				"element": "C" 
			},
			{
				"x": 2.1752427334,
				"y": -0.9620078208,
				"z": -1.9705779163,
				"element": "C" 
			},
			{
				"x": 1.6106589757,
				"y": -0.3281042929,
				"z": -3.2551671784,
				"element": "C" 
			},
			{
				"x": 1.1017882153,
				"y": 1.1099116104,
				"z": -3.0152819669,
				"element": "C" 
			},
			{
				"x": -1.9023324402,
				"y": 2.7402622465,
				"z": 0.4946885613,
				"element": "C" 
			},
			{
				"x": -2.3551578085,
				"y": 2.2641762969,
				"z": 1.7228442077,
				"element": "C" 
			},
			{
				"x": -2.0770648072,
				"y": -0.2290740877,
				"z": 3.6653070342,
				"element": "H" 
			},
			{
				"x": -0.727549242,
				"y": -0.7527322087,
				"z": 1.8829005808,
				"element": "H" 
			},
			{
				"x": 0.4398619479,
				"y": -1.9367747878,
				"z": -1.0840108123,
				"element": "H" 
			},
			{
				"x": 1.5839016686,
				"y": -1.3200416426,
				"z": 0.0944576526,
				"element": "H" 
			},
			{
				"x": 2.5975722939,
				"y": -1.9478902882,
				"z": -2.1943281732,
				"element": "H" 
			},
			{
				"x": 3.0015372092,
				"y": -0.3414323979,
				"z": -1.5993753577,
				"element": "H" 
			},
			{
				"x": 0.7802504744,
				"y": -0.9435938029,
				"z": -3.6245788975,
				"element": "H" 
			},
			{
				"x": 2.3732736257,
				"y": -0.3221797876,
				"z": -4.0412567895,
				"element": "H" 
			},
			{
				"x": 0.4744317187,
				"y": 1.4476602336,
				"z": -3.849102042,
				"element": "H" 
			},
			{
				"x": 1.946345661,
				"y": 1.8125281851,
				"z": -2.9618835575,
				"element": "H" 
			},
			{
				"x": -2.2225213327,
				"y": 3.7015084261,
				"z": 0.1072485414,
				"element": "H" 
			},
			{
				"x": -3.043272477,
				"y": 2.845271258,
				"z": 2.326899322,
				"element": "H" 
			}
		],
		 "valence_orbital": [ 
			{
				"type": "occ",
				"energy": -0.3166,
				"method": "rhf"
			},
			{
				"type": "occ",
				"energy": -0.31025,
				"method": "rhf"
			},
			{
				"type": "occ",
				"energy": -0.27437,
				"method": "rhf"
			},
			{
				"type": "occ",
				"energy": -0.20914,
				"method": "rhf"
			},
			{
				"type": "occ",
				"energy": -0.20247,
				"method": "rhf"
			},
			{
				"type": "unocc",
				"energy": -0.01096,
				"method": "rhf"
			},
			{
				"type": "unocc",
				"energy": 0.03209,
				"method": "rhf"
			},
			{
				"type": "unocc",
				"energy": 0.06268,
				"method": "rhf"
			},
			{
				"type": "unocc",
				"energy": 0.07615,
				"method": "rhf"
			},
			{
				"type": "unocc",
				"energy": 0.08911,
				"method": "rhf"
			}
		],
		"cosmo_sigma_profile": { 
			"-0.025": 0.0,
			"-0.024": 0.0,
			"-0.023": 0.0,
			"-0.022": 0.0,
			"-0.021": 0.0,
			"-0.02": 0.0,
			"-0.019": 0.0,
			"-0.018": 0.111409635179,
			"-0.017": 1.18713492542,
			"-0.016": 0.705773250172,
			"-0.015": 1.0075824171,
			"-0.014": 1.44914376564,
			"-0.013": 0.812913772366,
			"-0.012": 0.244452880829,
			"-0.011": 0.780236742403,
			"-0.01": 1.42246193382,
			"-0.009": 1.51262582268,
			"-0.008": 0.730399302014,
			"-0.007": 1.82504165397,
			"-0.006": 4.08711656368,
			"-0.005": 6.5805598728,
			"-0.004": 12.1116580664,
			"-0.003": 22.3908086701,
			"-0.002": 27.734890068,
			"-0.001": 28.1259302026,
			"0.0": 20.3734996401,
			"0.001": 11.9590263113,
			"0.002": 10.3513638824,
			"0.003": 14.1436766343,
			"0.004": 15.9853272143,
			"0.005": 16.3428633015,
			"0.006": 6.67836488062,
			"0.007": 3.13223754379,
			"0.008": 3.08839441645,
			"0.009": 3.04823627133,
			"0.01": 1.58284023713,
			"0.011": 1.95464503261,
			"0.012": 1.6423851076,
			"0.013": 0.00522665557087,
			"0.014": 0.0,
			"0.015": 0.0,
			"0.016": 0.0,
			"0.017": 0.0,
			"0.018": 0.0,
			"0.019": 0.0,
			"0.02": 0.0,
			"0.021": 0.0,
			"0.022": 0.0,
			"0.023": 0.0,
			"0.024": 0.0,
			"0.025": 0.0
		}
	}
}
