{
	 "smiles": "O=C(C=CC1=CC=CO1)C(C(=O)C=CC1=CC=CO1)=C1SCCCCS1", 
	 "Tm": 411.15, 
	 "num_atms": 44, 
	 "gaussian": { 
		 "optdone": 1, 
		 "sigma_profile": "yes", 
		 "theory": "DFT", 
		 "functional": "B3LYP", 
		 "basiset": "6-31G**", 
		 "properties": { 
			 "R2extent": 15016.8083, 
			 "electric_dipole_moment_norm": 4.47484388778, 
			 "electric_quadrupole_moment_norm": 25.888722489, 
			 "total_energy": -1870.14690379, 
			 "HOMO_LUMO_gap": 0.128, 
			 "cosmo_polarized_energy": -21.34, 
			 "cosmo_cavitation_energy": 51.71, 
			 "cosmo_dispersion_energy": -36.39, 
			 "cosmo_repulsion_energy": 2.68, 
			 "cosmo_total_nonelectrostatic_energy": 17.99, 
			 "SMD_solvation_energy": 10.5 
		},
		"coords": [
			{
				"x": 2.644863429,
				"y": -0.2776236598,
				"z": 1.4095350839,
				"element": "O" 
			},
			{
				"x": 1.5323999812,
				"y": -0.4744279402,
				"z": 0.9265369729,
				"element": "C" 
			},
			{
				"x": 0.3232770517,
				"y": 0.2058259401,
				"z": 1.4447767424,
				"element": "C" 
			},
			{
				"x": 0.4151851476,
				"y": 1.0644153067,
				"z": 2.4834230805,
				"element": "C" 
			},
			{
				"x": -0.6629177228,
				"y": 1.8087659579,
				"z": 3.0635345076,
				"element": "C" 
			},
			{
				"x": -0.7003490701,
				"y": 2.7163376207,
				"z": 4.0975868002,
				"element": "C" 
			},
			{
				"x": -2.0561937661,
				"y": 3.1352361596,
				"z": 4.2329380563,
				"element": "C" 
			},
			{
				"x": -2.755202072,
				"y": 2.4578341099,
				"z": 3.2761681481,
				"element": "C" 
			},
			{
				"x": -1.9321779278,
				"y": 1.6497015937,
				"z": 2.5585658255,
				"element": "O" 
			},
			{
				"x": 1.3565746993,
				"y": -1.3327967332,
				"z": -0.3067803567,
				"element": "C" 
			},
			{
				"x": 2.0799175715,
				"y": -0.9674840617,
				"z": -1.5559913114,
				"element": "C" 
			},
			{
				"x": 1.7649193137,
				"y": -1.5232675399,
				"z": -2.6174195949,
				"element": "O" 
			},
			{
				"x": 3.1412142104,
				"y": 0.0583476221,
				"z": -1.5209867695,
				"element": "C" 
			},
			{
				"x": 3.7514771375,
				"y": 0.4190506961,
				"z": -2.6724712429,
				"element": "C" 
			},
			{
				"x": 4.7998074451,
				"y": 1.3858450063,
				"z": -2.805006567,
				"element": "C" 
			},
			{
				"x": 5.4974991176,
				"y": 1.8351352338,
				"z": -3.9042388158,
				"element": "C" 
			},
			{
				"x": 6.4295769943,
				"y": 2.8053895741,
				"z": -3.4351310943,
				"element": "C" 
			},
			{
				"x": 6.2395969191,
				"y": 2.8842965892,
				"z": -2.0850084256,
				"element": "C" 
			},
			{
				"x": 5.2597942853,
				"y": 2.0355701841,
				"z": -1.6850638817,
				"element": "O" 
			},
			{
				"x": 0.5266271511,
				"y": -2.4269081434,
				"z": -0.2786414205,
				"element": "C" 
			},
			{
				"x": 0.0039235262,
				"y": -2.9842119109,
				"z": 1.3372354743,
				"element": "S" 
			},
			{
				"x": -1.8543939531,
				"y": -3.0121539099,
				"z": 1.3056788447,
				"element": "C" 
			},
			{
				"x": -2.536219384,
				"y": -3.214732298,
				"z": -0.0470559903,
				"element": "C" 
			},
			{
				"x": -2.242875559,
				"y": -4.5416892785,
				"z": -0.7567345618,
				"element": "C" 
			},
			{
				"x": -0.7536968708,
				"y": -4.8243440749,
				"z": -1.0152331314,
				"element": "C" 
			},
			{
				"x": 0.1935821375,
				"y": -3.4146464655,
				"z": -1.720184295,
				"element": "S" 
			},
			{
				"x": -0.6241849388,
				"y": 0.0293493215,
				"z": 0.9474677903,
				"element": "H" 
			},
			{
				"x": 1.3949766646,
				"y": 1.2129600207,
				"z": 2.9316540147,
				"element": "H" 
			},
			{
				"x": 0.1485192289,
				"y": 3.0388062571,
				"z": 4.6834769438,
				"element": "H" 
			},
			{
				"x": -2.4588179547,
				"y": 3.8430705385,
				"z": 4.9427728911,
				"element": "H" 
			},
			{
				"x": -3.7961500471,
				"y": 2.4424191443,
				"z": 2.9915117342,
				"element": "H" 
			},
			{
				"x": 3.4337703822,
				"y": 0.4879114256,
				"z": -0.5725168135,
				"element": "H" 
			},
			{
				"x": 3.4302703042,
				"y": -0.0618785627,
				"z": -3.5936181218,
				"element": "H" 
			},
			{
				"x": 5.3518613882,
				"y": 1.5014894415,
				"z": -4.921785977,
				"element": "H" 
			},
			{
				"x": 7.1443131862,
				"y": 3.3682057893,
				"z": -4.0177316265,
				"element": "H" 
			},
			{
				"x": 6.7024839932,
				"y": 3.4697001366,
				"z": -1.3053254669,
				"element": "H" 
			},
			{
				"x": -2.113076664,
				"y": -3.8165317147,
				"z": 2.002157485,
				"element": "H" 
			},
			{
				"x": -2.1821039976,
				"y": -2.067112255,
				"z": 1.7481169299,
				"element": "H" 
			},
			{
				"x": -2.2742452244,
				"y": -2.3831857338,
				"z": -0.7098578424,
				"element": "H" 
			},
			{
				"x": -3.617449566,
				"y": -3.1360472517,
				"z": 0.1251237831,
				"element": "H" 
			},
			{
				"x": -2.7805157066,
				"y": -4.5389148622,
				"z": -1.7117684361,
				"element": "H" 
			},
			{
				"x": -2.6509427708,
				"y": -5.3772404659,
				"z": -0.1717345664,
				"element": "H" 
			},
			{
				"x": -0.6454206409,
				"y": -5.6032126196,
				"z": -1.7769107922,
				"element": "H" 
			},
			{
				"x": -0.2447974292,
				"y": -5.1742541879,
				"z": -0.114764007,
				"element": "H" 
			}
		],
		 "valence_orbital": [ 
			{
				"type": "occ",
				"energy": -0.24187,
				"method": "rhf"
			},
			{
				"type": "occ",
				"energy": -0.23171,
				"method": "rhf"
			},
			{
				"type": "occ",
				"energy": -0.22177,
				"method": "rhf"
			},
			{
				"type": "occ",
				"energy": -0.21267,
				"method": "rhf"
			},
			{
				"type": "occ",
				"energy": -0.20638,
				"method": "rhf"
			},
			{
				"type": "unocc",
				"energy": -0.07838,
				"method": "rhf"
			},
			{
				"type": "unocc",
				"energy": -0.06424,
				"method": "rhf"
			},
			{
				"type": "unocc",
				"energy": -0.01977,
				"method": "rhf"
			},
			{
				"type": "unocc",
				"energy": 0.01363,
				"method": "rhf"
			},
			{
				"type": "unocc",
				"energy": 0.02789,
				"method": "rhf"
			}
		],
		"cosmo_sigma_profile": { 
			"-0.025": 0.0,
			"-0.024": 0.0,
			"-0.023": 0.0,
			"-0.022": 0.0,
			"-0.021": 0.0,
			"-0.02": 0.0,
			"-0.019": 0.0,
			"-0.018": 0.0,
			"-0.017": 0.0,
			"-0.016": 0.0,
			"-0.015": 0.0,
			"-0.014": 0.0,
			"-0.013": 0.0,
			"-0.012": 0.0,
			"-0.011": 0.0,
			"-0.01": 1.21972498113,
			"-0.009": 3.8269099213,
			"-0.008": 7.97352362614,
			"-0.007": 15.3409737943,
			"-0.006": 17.6274396403,
			"-0.005": 25.6920484337,
			"-0.004": 36.0365002516,
			"-0.003": 35.6684583294,
			"-0.002": 31.8169177042,
			"-0.001": 25.2113701011,
			"0.0": 25.0249306581,
			"0.001": 33.7355112138,
			"0.002": 39.6531913755,
			"0.003": 34.8133509531,
			"0.004": 24.705334026,
			"0.005": 13.2838193213,
			"0.006": 10.7739928114,
			"0.007": 6.11205971833,
			"0.008": 4.0151819797,
			"0.009": 4.17466694399,
			"0.01": 4.00843758059,
			"0.011": 4.45122707154,
			"0.012": 7.24595575746,
			"0.013": 4.07438811975,
			"0.014": 0.136403551193,
			"0.015": 0.0,
			"0.016": 0.0,
			"0.017": 0.0,
			"0.018": 0.0,
			"0.019": 0.0,
			"0.02": 0.0,
			"0.021": 0.0,
			"0.022": 0.0,
			"0.023": 0.0,
			"0.024": 0.0,
			"0.025": 0.0
		}
	}
}
