{
	 "smiles": "CC1=C(C=CC=C1[N+]([O-])=O)C(O)=O", 
	 "Tm": 457.15, 
	 "num_atms": 20, 
	 "gaussian": { 
		 "optdone": 1, 
		 "sigma_profile": "yes", 
		 "theory": "DFT", 
		 "functional": "B3LYP", 
		 "basiset": "6-31G**", 
		 "properties": { 
			 "R2extent": 2536.7139, 
			 "electric_dipole_moment_norm": 4.62708837824, 
			 "electric_quadrupole_moment_norm": 15.6229310173, 
			 "total_energy": -664.61949488, 
			 "HOMO_LUMO_gap": 0.18323, 
			 "cosmo_polarized_energy": -16.76, 
			 "cosmo_cavitation_energy": 24.92, 
			 "cosmo_dispersion_energy": -18.3, 
			 "cosmo_repulsion_energy": 1.44, 
			 "cosmo_total_nonelectrostatic_energy": 8.06, 
			 "SMD_solvation_energy": 7.59 
		},
		"coords": [
			{
				"x": -0.9712590067,
				"y": 1.4122899838,
				"z": 1.700851891,
				"element": "C" 
			},
			{
				"x": -0.2836655073,
				"y": 0.7084080125,
				"z": 0.5544345508,
				"element": "C" 
			},
			{
				"x": 0.9412655249,
				"y": 0.0196914533,
				"z": 0.7355165,
				"element": "C" 
			},
			{
				"x": 1.5699708608,
				"y": -0.6394685465,
				"z": -0.3320874844,
				"element": "C" 
			},
			{
				"x": 1.0023676018,
				"y": -0.6605083159,
				"z": -1.6031069817,
				"element": "C" 
			},
			{
				"x": -0.1957023467,
				"y": 0.0071950339,
				"z": -1.8147788243,
				"element": "C" 
			},
			{
				"x": -0.7981499147,
				"y": 0.6891828284,
				"z": -0.7563441456,
				"element": "C" 
			},
			{
				"x": -2.041877145,
				"y": 1.4089337133,
				"z": -1.1035870112,
				"element": "N" 
			},
			{
				"x": -2.3176214499,
				"y": 2.4291090695,
				"z": -0.475138653,
				"element": "O" 
			},
			{
				"x": -2.7150717039,
				"y": 0.9522908833,
				"z": -2.0266762116,
				"element": "O" 
			},
			{
				"x": 1.6061155579,
				"y": -0.0889088054,
				"z": 2.0867110627,
				"element": "C" 
			},
			{
				"x": 2.9528052078,
				"y": 0.104147086,
				"z": 2.0788307977,
				"element": "O" 
			},
			{
				"x": 1.0456181527,
				"y": -0.367765934,
				"z": 3.1180495777,
				"element": "O" 
			},
			{
				"x": -2.0536590662,
				"y": 1.2842438299,
				"z": 1.6507666467,
				"element": "H" 
			},
			{
				"x": -0.6130156436,
				"y": 1.0271162585,
				"z": 2.6519941453,
				"element": "H" 
			},
			{
				"x": -0.7893040723,
				"y": 2.4900437314,
				"z": 1.6495817608,
				"element": "H" 
			},
			{
				"x": 2.4974516699,
				"y": -1.1761158951,
				"z": -0.1522336191,
				"element": "H" 
			},
			{
				"x": 1.4860065707,
				"y": -1.1922076215,
				"z": -2.4155372993,
				"element": "H" 
			},
			{
				"x": -0.6811099824,
				"y": 0.0166139184,
				"z": -2.7826549783,
				"element": "H" 
			},
			{
				"x": 3.2340346923,
				"y": 0.4460093163,
				"z": 1.2181082758,
				"element": "H" 
			}
		],
		 "valence_orbital": [ 
			{
				"type": "occ",
				"energy": -0.31566,
				"method": "rhf"
			},
			{
				"type": "occ",
				"energy": -0.31098,
				"method": "rhf"
			},
			{
				"type": "occ",
				"energy": -0.29311,
				"method": "rhf"
			},
			{
				"type": "occ",
				"energy": -0.28607,
				"method": "rhf"
			},
			{
				"type": "occ",
				"energy": -0.27985,
				"method": "rhf"
			},
			{
				"type": "unocc",
				"energy": -0.09662,
				"method": "rhf"
			},
			{
				"type": "unocc",
				"energy": -0.06132,
				"method": "rhf"
			},
			{
				"type": "unocc",
				"energy": -0.02751,
				"method": "rhf"
			},
			{
				"type": "unocc",
				"energy": 0.01506,
				"method": "rhf"
			},
			{
				"type": "unocc",
				"energy": 0.05766,
				"method": "rhf"
			}
		],
		"cosmo_sigma_profile": { 
			"-0.025": 0.0,
			"-0.024": 0.0,
			"-0.023": 0.0,
			"-0.022": 0.0,
			"-0.021": 0.0,
			"-0.02": 0.0,
			"-0.019": 0.396033680797,
			"-0.018": 0.794636092875,
			"-0.017": 1.50119188397,
			"-0.016": 0.534027818759,
			"-0.015": 1.1451828402,
			"-0.014": 0.582943221627,
			"-0.013": 1.12379219305,
			"-0.012": 1.32831743535,
			"-0.011": 1.54469660448,
			"-0.01": 1.09532254351,
			"-0.009": 2.29845060065,
			"-0.008": 6.60352936089,
			"-0.007": 10.1136443906,
			"-0.006": 8.65507662644,
			"-0.005": 9.86375602948,
			"-0.004": 10.3392345601,
			"-0.003": 11.3533192525,
			"-0.002": 13.1351457114,
			"-0.001": 17.7114530184,
			"0.0": 15.9345679162,
			"0.001": 12.3096550204,
			"0.002": 6.90401872061,
			"0.003": 4.32981951358,
			"0.004": 5.36125522675,
			"0.005": 5.78369678337,
			"0.006": 6.60473559161,
			"0.007": 10.1504596597,
			"0.008": 9.98572004666,
			"0.009": 7.87039509857,
			"0.01": 7.0546663048,
			"0.011": 4.88155186935,
			"0.012": 2.04689794699,
			"0.013": 0.182055448454,
			"0.014": 0.0,
			"0.015": 0.0,
			"0.016": 0.0,
			"0.017": 0.0,
			"0.018": 0.0,
			"0.019": 0.0,
			"0.02": 0.0,
			"0.021": 0.0,
			"0.022": 0.0,
			"0.023": 0.0,
			"0.024": 0.0,
			"0.025": 0.0
		}
	}
}
