{
	 "smiles": "CC(O)C(NS(=O)(=O)C1=CC=C(Cl)C=C1)C(O)=O", 
	 "Tm": 453.15, 
	 "num_atms": 30, 
	 "gaussian": { 
		 "optdone": 1, 
		 "sigma_profile": "yes", 
		 "theory": "DFT", 
		 "functional": "B3LYP", 
		 "basiset": "6-31G**", 
		 "properties": { 
			 "R2extent": 6218.1313, 
			 "electric_dipole_moment_norm": 6.31840140304, 
			 "electric_quadrupole_moment_norm": 22.0203245973, 
			 "total_energy": -1677.48492034, 
			 "HOMO_LUMO_gap": 0.20059, 
			 "cosmo_polarized_energy": -21.47, 
			 "cosmo_cavitation_energy": 36.74, 
			 "cosmo_dispersion_energy": -25.98, 
			 "cosmo_repulsion_energy": 1.98, 
			 "cosmo_total_nonelectrostatic_energy": 12.73, 
			 "SMD_solvation_energy": 5.84 
		},
		"coords": [
			{
				"x": -2.8669510266,
				"y": -1.9377802996,
				"z": 0.6054394943,
				"element": "C" 
			},
			{
				"x": -2.4183505445,
				"y": -1.0471350631,
				"z": -0.5489717734,
				"element": "C" 
			},
			{
				"x": -2.2623437938,
				"y": 0.3154260258,
				"z": -0.1246651351,
				"element": "O" 
			},
			{
				"x": -1.0456271694,
				"y": -1.4733255983,
				"z": -1.1211971777,
				"element": "C" 
			},
			{
				"x": -0.4671336621,
				"y": -0.3446455483,
				"z": -1.8821453688,
				"element": "N" 
			},
			{
				"x": 1.170403111,
				"y": -0.0167934202,
				"z": -1.7704934369,
				"element": "S" 
			},
			{
				"x": 1.8338756592,
				"y": -1.3042657566,
				"z": -2.0669906331,
				"element": "O" 
			},
			{
				"x": 1.400365697,
				"y": 1.180835766,
				"z": -2.5720519425,
				"element": "O" 
			},
			{
				"x": 1.5651314489,
				"y": 0.3679135658,
				"z": -0.06353294,
				"element": "C" 
			},
			{
				"x": 2.1035851591,
				"y": -0.6190372425,
				"z": 0.7651541545,
				"element": "C" 
			},
			{
				"x": 2.3856788899,
				"y": -0.3166285018,
				"z": 2.0971360632,
				"element": "C" 
			},
			{
				"x": 2.1245095258,
				"y": 0.9685257186,
				"z": 2.5735305153,
				"element": "C" 
			},
			{
				"x": 2.476381094,
				"y": 1.3508688985,
				"z": 4.2451970306,
				"element": "Cl" 
			},
			{
				"x": 1.5962654215,
				"y": 1.9612199367,
				"z": 1.7433790647,
				"element": "C" 
			},
			{
				"x": 1.3151929595,
				"y": 1.6576532438,
				"z": 0.4146279007,
				"element": "C" 
			},
			{
				"x": -1.2000992825,
				"y": -2.7258906165,
				"z": -2.022259061,
				"element": "C" 
			},
			{
				"x": -0.1320830484,
				"y": -3.0892228866,
				"z": -2.7295792056,
				"element": "O" 
			},
			{
				"x": -2.2326894403,
				"y": -3.3589774523,
				"z": -2.0591441271,
				"element": "O" 
			},
			{
				"x": -3.8478234969,
				"y": -1.6152494814,
				"z": 0.9722132274,
				"element": "H" 
			},
			{
				"x": -2.9547459816,
				"y": -2.9735164386,
				"z": 0.2734758568,
				"element": "H" 
			},
			{
				"x": -2.1554599686,
				"y": -1.873659824,
				"z": 1.4352606315,
				"element": "H" 
			},
			{
				"x": -3.1506100238,
				"y": -1.106047702,
				"z": -1.3645453312,
				"element": "H" 
			},
			{
				"x": -3.1321194035,
				"y": 0.6446199206,
				"z": 0.1344120488,
				"element": "H" 
			},
			{
				"x": -0.3891628663,
				"y": -1.7435844931,
				"z": -0.2806686385,
				"element": "H" 
			},
			{
				"x": -1.003992638,
				"y": 0.5075562962,
				"z": -1.7179273365,
				"element": "H" 
			},
			{
				"x": 2.3231982749,
				"y": -1.6015694536,
				"z": 0.362981169,
				"element": "H" 
			},
			{
				"x": 2.8101894262,
				"y": -1.0657682155,
				"z": 2.7557127858,
				"element": "H" 
			},
			{
				"x": 1.4159562286,
				"y": 2.9563663977,
				"z": 2.1335168891,
				"element": "H" 
			},
			{
				"x": 0.9254526402,
				"y": 2.4208090534,
				"z": -0.2503117292,
				"element": "H" 
			},
			{
				"x": 0.6287068106,
				"y": -2.4775968294,
				"z": -2.6033529951,
				"element": "H" 
			}
		],
		 "valence_orbital": [ 
			{
				"type": "occ",
				"energy": -0.30878,
				"method": "rhf"
			},
			{
				"type": "occ",
				"energy": -0.30107,
				"method": "rhf"
			},
			{
				"type": "occ",
				"energy": -0.29573,
				"method": "rhf"
			},
			{
				"type": "occ",
				"energy": -0.27776,
				"method": "rhf"
			},
			{
				"type": "occ",
				"energy": -0.2638,
				"method": "rhf"
			},
			{
				"type": "unocc",
				"energy": -0.06321,
				"method": "rhf"
			},
			{
				"type": "unocc",
				"energy": -0.04647,
				"method": "rhf"
			},
			{
				"type": "unocc",
				"energy": 0.00106,
				"method": "rhf"
			},
			{
				"type": "unocc",
				"energy": 0.0074,
				"method": "rhf"
			},
			{
				"type": "unocc",
				"energy": 0.04601,
				"method": "rhf"
			}
		],
		"cosmo_sigma_profile": { 
			"-0.025": 0.0,
			"-0.024": 0.0,
			"-0.023": 0.0,
			"-0.022": 0.0,
			"-0.021": 0.0,
			"-0.02": 0.0,
			"-0.019": 0.0,
			"-0.018": 0.0,
			"-0.017": 0.231829847639,
			"-0.016": 1.18608668839,
			"-0.015": 0.908282373659,
			"-0.014": 0.785064835786,
			"-0.013": 1.17982547486,
			"-0.012": 1.22887603177,
			"-0.011": 2.06284960719,
			"-0.01": 2.07355675675,
			"-0.009": 5.81272264887,
			"-0.008": 11.0213254954,
			"-0.007": 13.4147641419,
			"-0.006": 11.8929040286,
			"-0.005": 14.7726024394,
			"-0.004": 14.2871943226,
			"-0.003": 16.121285187,
			"-0.002": 18.7421457685,
			"-0.001": 20.2136779062,
			"0.0": 28.9509697339,
			"0.001": 25.0466160034,
			"0.002": 14.2540622707,
			"0.003": 16.3464649254,
			"0.004": 14.5309119807,
			"0.005": 6.43718726378,
			"0.006": 7.80874634855,
			"0.007": 6.4361678304,
			"0.008": 6.82953859104,
			"0.009": 8.90315105361,
			"0.01": 11.5042797558,
			"0.011": 7.01167701732,
			"0.012": 3.22891709917,
			"0.013": 1.23106504327,
			"0.014": 0.0142262933649,
			"0.015": 0.0,
			"0.016": 0.0,
			"0.017": 0.0,
			"0.018": 0.0,
			"0.019": 0.0,
			"0.02": 0.0,
			"0.021": 0.0,
			"0.022": 0.0,
			"0.023": 0.0,
			"0.024": 0.0,
			"0.025": 0.0
		}
	}
}
