{
	 "smiles": "CC(O)C(O)C(O)C(O)C=O", 
	 "Tm": 395.15, 
	 "num_atms": 23, 
	 "gaussian": { 
		 "optdone": 1, 
		 "sigma_profile": "yes", 
		 "theory": "DFT", 
		 "functional": "B3LYP", 
		 "basiset": "6-31G**", 
		 "properties": { 
			 "R2extent": 1822.3702, 
			 "electric_dipole_moment_norm": 1.24730786095, 
			 "electric_quadrupole_moment_norm": 7.4710340295, 
			 "total_energy": -611.94845893, 
			 "HOMO_LUMO_gap": 0.2218, 
			 "cosmo_polarized_energy": -14.78, 
			 "cosmo_cavitation_energy": 24.71, 
			 "cosmo_dispersion_energy": -17.99, 
			 "cosmo_repulsion_energy": 1.45, 
			 "cosmo_total_nonelectrostatic_energy": 8.17, 
			 "SMD_solvation_energy": 4.92 
		},
		"coords": [
			{
				"x": -1.7594354762,
				"y": -1.0187506981,
				"z": 0.0758506801,
				"element": "C" 
			},
			{
				"x": -1.1141784409,
				"y": 0.2600015849,
				"z": 0.5967290597,
				"element": "C" 
			},
			{
				"x": -0.9682012864,
				"y": 1.1705201798,
				"z": -0.5032737377,
				"element": "O" 
			},
			{
				"x": 0.2231172017,
				"y": 0.0493531531,
				"z": 1.3320005823,
				"element": "C" 
			},
			{
				"x": 0.286458135,
				"y": 1.0637103487,
				"z": 2.334446187,
				"element": "O" 
			},
			{
				"x": 1.5111205929,
				"y": 0.1915471506,
				"z": 0.4880490116,
				"element": "C" 
			},
			{
				"x": 2.6208009649,
				"y": 0.0960561045,
				"z": 1.3955372218,
				"element": "O" 
			},
			{
				"x": 1.74498916,
				"y": -0.7724437816,
				"z": -0.6815865914,
				"element": "C" 
			},
			{
				"x": 1.5847289633,
				"y": -2.1081706279,
				"z": -0.2679793147,
				"element": "O" 
			},
			{
				"x": 0.9583378316,
				"y": -0.4997989011,
				"z": -1.9515512153,
				"element": "C" 
			},
			{
				"x": 0.4352284838,
				"y": -1.4152283232,
				"z": -2.5564253087,
				"element": "O" 
			},
			{
				"x": -2.035345912,
				"y": -1.6615120868,
				"z": 0.9175307726,
				"element": "H" 
			},
			{
				"x": -2.6659722847,
				"y": -0.768399857,
				"z": -0.4810542124,
				"element": "H" 
			},
			{
				"x": -1.0994502044,
				"y": -1.5854656039,
				"z": -0.5809894252,
				"element": "H" 
			},
			{
				"x": -1.7864011863,
				"y": 0.7011348573,
				"z": 1.3459970181,
				"element": "H" 
			},
			{
				"x": -0.7567057491,
				"y": 2.0343782081,
				"z": -0.1233691452,
				"element": "H" 
			},
			{
				"x": 0.2248456186,
				"y": -0.9509812191,
				"z": 1.7934060253,
				"element": "H" 
			},
			{
				"x": 1.201447512,
				"y": 1.0507459001,
				"z": 2.6571958614,
				"element": "H" 
			},
			{
				"x": 1.548101296,
				"y": 1.2146829942,
				"z": 0.1015993203,
				"element": "H" 
			},
			{
				"x": 2.7048818634,
				"y": -0.8403218852,
				"z": 1.631829895,
				"element": "H" 
			},
			{
				"x": 2.7960576535,
				"y": -0.583918254,
				"z": -0.9834615265,
				"element": "H" 
			},
			{
				"x": 1.1544157668,
				"y": -2.5612980846,
				"z": -1.015902559,
				"element": "H" 
			},
			{
				"x": 0.9547594965,
				"y": 0.5358588414,
				"z": -2.3319785991,
				"element": "H" 
			}
		],
		 "valence_orbital": [ 
			{
				"type": "occ",
				"energy": -0.3136,
				"method": "rhf"
			},
			{
				"type": "occ",
				"energy": -0.29591,
				"method": "rhf"
			},
			{
				"type": "occ",
				"energy": -0.2784,
				"method": "rhf"
			},
			{
				"type": "occ",
				"energy": -0.27076,
				"method": "rhf"
			},
			{
				"type": "occ",
				"energy": -0.2615,
				"method": "rhf"
			},
			{
				"type": "unocc",
				"energy": -0.0397,
				"method": "rhf"
			},
			{
				"type": "unocc",
				"energy": 0.06458,
				"method": "rhf"
			},
			{
				"type": "unocc",
				"energy": 0.06836,
				"method": "rhf"
			},
			{
				"type": "unocc",
				"energy": 0.09244,
				"method": "rhf"
			},
			{
				"type": "unocc",
				"energy": 0.1058,
				"method": "rhf"
			}
		],
		"cosmo_sigma_profile": { 
			"-0.025": 0.0,
			"-0.024": 0.0,
			"-0.023": 0.0,
			"-0.022": 0.0,
			"-0.021": 0.0,
			"-0.02": 0.0,
			"-0.019": 0.0,
			"-0.018": 0.0,
			"-0.017": 0.0,
			"-0.016": 0.0486653409358,
			"-0.015": 0.770537581195,
			"-0.014": 1.46153603821,
			"-0.013": 1.41405109266,
			"-0.012": 1.55483572523,
			"-0.011": 2.82622006622,
			"-0.01": 2.31393320075,
			"-0.009": 4.28360376667,
			"-0.008": 7.88208645514,
			"-0.007": 8.89590232654,
			"-0.006": 8.49433802988,
			"-0.005": 8.47654681044,
			"-0.004": 13.385355199,
			"-0.003": 14.5702264925,
			"-0.002": 12.4414818891,
			"-0.001": 11.1480750429,
			"0.0": 11.4862252359,
			"0.001": 10.0812399122,
			"0.002": 6.28684379816,
			"0.003": 5.41721913848,
			"0.004": 7.24490395085,
			"0.005": 6.61343164721,
			"0.006": 5.61193784332,
			"0.007": 5.37233409213,
			"0.008": 5.81684479865,
			"0.009": 6.1704595405,
			"0.01": 6.45420548998,
			"0.011": 5.61465929684,
			"0.012": 4.1155715494,
			"0.013": 3.53960007854,
			"0.014": 1.24328591555,
			"0.015": 0.0,
			"0.016": 0.0,
			"0.017": 0.0,
			"0.018": 0.0,
			"0.019": 0.0,
			"0.02": 0.0,
			"0.021": 0.0,
			"0.022": 0.0,
			"0.023": 0.0,
			"0.024": 0.0,
			"0.025": 0.0
		}
	}
}
