{
	 "smiles": "CCOC(=O)CON=C(/C1CC(C)(C1)C1=CC=CC=C1)C1=CC2=C(O1)C=CC=C2", 
	 "Tm": 429.15, 
	 "num_atms": 54, 
	 "gaussian": { 
		 "optdone": 1, 
		 "sigma_profile": "yes", 
		 "theory": "DFT", 
		 "functional": "B3LYP", 
		 "basiset": "6-31G**", 
		 "properties": { 
			 "R2extent": 15461.5395, 
			 "electric_dipole_moment_norm": 1.56979056565, 
			 "electric_quadrupole_moment_norm": 14.8509381522, 
			 "total_energy": -1285.19173456, 
			 "HOMO_LUMO_gap": 0.1624, 
			 "cosmo_polarized_energy": -14.88, 
			 "cosmo_cavitation_energy": 57.83, 
			 "cosmo_dispersion_energy": -38.86, 
			 "cosmo_repulsion_energy": 3.01, 
			 "cosmo_total_nonelectrostatic_energy": 21.99, 
			 "SMD_solvation_energy": 10.49 
		},
		"coords": [
			{
				"x": -5.8855028614,
				"y": 0.6653281227,
				"z": -3.6729118831,
				"element": "C" 
			},
			{
				"x": -5.5393915651,
				"y": 1.7147721957,
				"z": -2.6278606839,
				"element": "C" 
			},
			{
				"x": -5.1554099996,
				"y": 1.100788912,
				"z": -1.3715153515,
				"element": "O" 
			},
			{
				"x": -3.8606783674,
				"y": 0.7383630079,
				"z": -1.2478908883,
				"element": "C" 
			},
			{
				"x": -3.0094395027,
				"y": 0.8905824209,
				"z": -2.0916927374,
				"element": "O" 
			},
			{
				"x": -3.6438107553,
				"y": 0.0978794047,
				"z": 0.1210554856,
				"element": "C" 
			},
			{
				"x": -2.2954031895,
				"y": -0.2585618097,
				"z": 0.3225863167,
				"element": "O" 
			},
			{
				"x": -1.5772109458,
				"y": 0.887545746,
				"z": 0.7055656948,
				"element": "N" 
			},
			{
				"x": -0.3054068547,
				"y": 0.7127416393,
				"z": 0.5567944584,
				"element": "C" 
			},
			{
				"x": 0.3003048518,
				"y": -0.5285783641,
				"z": -0.0494893909,
				"element": "C" 
			},
			{
				"x": 1.8243982977,
				"y": -0.8034253238,
				"z": -0.0296469425,
				"element": "C" 
			},
			{
				"x": 1.5279875073,
				"y": -2.3199436556,
				"z": 0.2172132407,
				"element": "C" 
			},
			{
				"x": 2.3954134816,
				"y": -2.9918557358,
				"z": 1.2924051688,
				"element": "C" 
			},
			{
				"x": 0.0968948852,
				"y": -1.8897349887,
				"z": 0.6796260726,
				"element": "C" 
			},
			{
				"x": 1.5376831006,
				"y": -3.1769246344,
				"z": -1.0483899549,
				"element": "C" 
			},
			{
				"x": 2.519566354,
				"y": -3.002731575,
				"z": -2.0349127446,
				"element": "C" 
			},
			{
				"x": 2.5739233442,
				"y": -3.8317934008,
				"z": -3.1564829086,
				"element": "C" 
			},
			{
				"x": 1.6466588834,
				"y": -4.8623121431,
				"z": -3.31438666,
				"element": "C" 
			},
			{
				"x": 0.671745915,
				"y": -5.0587462272,
				"z": -2.3354665584,
				"element": "C" 
			},
			{
				"x": 0.6220053007,
				"y": -4.2266390181,
				"z": -1.2163128131,
				"element": "C" 
			},
			{
				"x": 0.4942437336,
				"y": 1.8437420899,
				"z": 1.0308242787,
				"element": "C" 
			},
			{
				"x": 0.2360734225,
				"y": 2.8007689646,
				"z": 1.9705624498,
				"element": "C" 
			},
			{
				"x": 1.3651263468,
				"y": 3.6889093372,
				"z": 1.9737686304,
				"element": "C" 
			},
			{
				"x": 2.2480952553,
				"y": 3.1755286029,
				"z": 1.0025264604,
				"element": "C" 
			},
			{
				"x": 1.7207758963,
				"y": 2.0520986061,
				"z": 0.4287470195,
				"element": "O" 
			},
			{
				"x": 3.4763741569,
				"y": 3.7484202862,
				"z": 0.6951151869,
				"element": "C" 
			},
			{
				"x": 3.8206681248,
				"y": 4.8959309643,
				"z": 1.4082544482,
				"element": "C" 
			},
			{
				"x": 2.9621842265,
				"y": 5.4351161755,
				"z": 2.3866948772,
				"element": "C" 
			},
			{
				"x": 1.737058914,
				"y": 4.8452560826,
				"z": 2.6802572079,
				"element": "C" 
			},
			{
				"x": -6.6722603773,
				"y": -0.0026770758,
				"z": -3.309983701,
				"element": "H" 
			},
			{
				"x": -6.2438618856,
				"y": 1.15409776,
				"z": -4.5850317188,
				"element": "H" 
			},
			{
				"x": -5.0043469417,
				"y": 0.0711467396,
				"z": -3.9272858397,
				"element": "H" 
			},
			{
				"x": -6.4050490285,
				"y": 2.3313505504,
				"z": -2.3748432534,
				"element": "H" 
			},
			{
				"x": -4.7227764148,
				"y": 2.3562803048,
				"z": -2.9672813872,
				"element": "H" 
			},
			{
				"x": -3.9944984937,
				"y": 0.7812978788,
				"z": 0.9021666423,
				"element": "H" 
			},
			{
				"x": -4.2264497871,
				"y": -0.827211935,
				"z": 0.1773816995,
				"element": "H" 
			},
			{
				"x": -0.0971094484,
				"y": -0.6169689534,
				"z": -1.0670601729,
				"element": "H" 
			},
			{
				"x": 2.3919416483,
				"y": -0.5123371067,
				"z": -0.9156371165,
				"element": "H" 
			},
			{
				"x": 2.3078881877,
				"y": -0.3641853337,
				"z": 0.8459801588,
				"element": "H" 
			},
			{
				"x": 2.4050464557,
				"y": -2.3990472036,
				"z": 2.2138502611,
				"element": "H" 
			},
			{
				"x": 2.0170881859,
				"y": -3.9915921409,
				"z": 1.5330861523,
				"element": "H" 
			},
			{
				"x": 3.429430679,
				"y": -3.1040684759,
				"z": 0.9478521676,
				"element": "H" 
			},
			{
				"x": 0.0576359939,
				"y": -1.762869435,
				"z": 1.7663076674,
				"element": "H" 
			},
			{
				"x": -0.7618825002,
				"y": -2.4833848471,
				"z": 0.3654392358,
				"element": "H" 
			},
			{
				"x": 3.2562765679,
				"y": -2.2120073438,
				"z": -1.9275266935,
				"element": "H" 
			},
			{
				"x": 3.3421306399,
				"y": -3.6698755217,
				"z": -3.9077936627,
				"element": "H" 
			},
			{
				"x": 1.684449646,
				"y": -5.5058183961,
				"z": -4.1886873625,
				"element": "H" 
			},
			{
				"x": -0.0538076178,
				"y": -5.8606928856,
				"z": -2.4419808224,
				"element": "H" 
			},
			{
				"x": -0.1399861567,
				"y": -4.4011061768,
				"z": -0.4621423791,
				"element": "H" 
			},
			{
				"x": -0.6534926092,
				"y": 2.8489463606,
				"z": 2.5801795534,
				"element": "H" 
			},
			{
				"x": 4.1254163631,
				"y": 3.3205895847,
				"z": -0.0611558662,
				"element": "H" 
			},
			{
				"x": 4.7694924395,
				"y": 5.3831756064,
				"z": 1.2051059707,
				"element": "H" 
			},
			{
				"x": 3.2664763569,
				"y": 6.3305255578,
				"z": 2.9205942006,
				"element": "H" 
			},
			{
				"x": 1.0821201406,
				"y": 5.2694068057,
				"z": 3.4354287869,
				"element": "H" 
			}
		],
		 "valence_orbital": [ 
			{
				"type": "occ",
				"energy": -0.25768,
				"method": "rhf"
			},
			{
				"type": "occ",
				"energy": -0.24288,
				"method": "rhf"
			},
			{
				"type": "occ",
				"energy": -0.23564,
				"method": "rhf"
			},
			{
				"type": "occ",
				"energy": -0.23372,
				"method": "rhf"
			},
			{
				"type": "occ",
				"energy": -0.2073,
				"method": "rhf"
			},
			{
				"type": "unocc",
				"energy": -0.0449,
				"method": "rhf"
			},
			{
				"type": "unocc",
				"energy": 0.00453,
				"method": "rhf"
			},
			{
				"type": "unocc",
				"energy": 0.0048,
				"method": "rhf"
			},
			{
				"type": "unocc",
				"energy": 0.00807,
				"method": "rhf"
			},
			{
				"type": "unocc",
				"energy": 0.01365,
				"method": "rhf"
			}
		],
		"cosmo_sigma_profile": { 
			"-0.025": 0.0,
			"-0.024": 0.0,
			"-0.023": 0.0,
			"-0.022": 0.0,
			"-0.021": 0.0,
			"-0.02": 0.0,
			"-0.019": 0.0,
			"-0.018": 0.0,
			"-0.017": 0.0,
			"-0.016": 0.0,
			"-0.015": 0.0,
			"-0.014": 0.0,
			"-0.013": 0.0,
			"-0.012": 0.0,
			"-0.011": 0.0,
			"-0.01": 0.0,
			"-0.009": 0.694716425079,
			"-0.008": 3.03474083118,
			"-0.007": 6.45991184169,
			"-0.006": 14.3878563361,
			"-0.005": 28.845425619,
			"-0.004": 43.289463258,
			"-0.003": 48.1918726068,
			"-0.002": 43.2691872397,
			"-0.001": 40.0014422591,
			"0.0": 39.59849197,
			"0.001": 36.5153733726,
			"0.002": 28.9891748842,
			"0.003": 28.2243161402,
			"0.004": 27.9389527108,
			"0.005": 23.5570056159,
			"0.006": 17.3390998856,
			"0.007": 10.1404758811,
			"0.008": 5.69800440316,
			"0.009": 3.67556989847,
			"0.01": 3.34490577497,
			"0.011": 3.65678260283,
			"0.012": 1.53433489734,
			"0.013": 0.0,
			"0.014": 0.0,
			"0.015": 0.0,
			"0.016": 0.0,
			"0.017": 0.0,
			"0.018": 0.0,
			"0.019": 0.0,
			"0.02": 0.0,
			"0.021": 0.0,
			"0.022": 0.0,
			"0.023": 0.0,
			"0.024": 0.0,
			"0.025": 0.0
		}
	}
}
