{
	 "smiles": "CC(C)(C)C1=CC(=CC(O)=C1)C(C)(C)C", 
	 "Tm": 361.15, 
	 "num_atms": 37, 
	 "gaussian": { 
		 "optdone": 1, 
		 "sigma_profile": "yes", 
		 "theory": "DFT", 
		 "functional": "B3LYP", 
		 "basiset": "6-31G**", 
		 "properties": { 
			 "R2extent": 4148.7961, 
			 "electric_dipole_moment_norm": 1.31472333592, 
			 "electric_quadrupole_moment_norm": 10.2967324492, 
			 "total_energy": -621.998314265, 
			 "HOMO_LUMO_gap": 0.21575, 
			 "cosmo_polarized_energy": -7.19, 
			 "cosmo_cavitation_energy": 36.54, 
			 "cosmo_dispersion_energy": -24.9, 
			 "cosmo_repulsion_energy": 1.95, 
			 "cosmo_total_nonelectrostatic_energy": 13.59, 
			 "SMD_solvation_energy": 6.76 
		},
		"coords": [
			{
				"x": 1.574392966,
				"y": -2.4162793158,
				"z": 2.7276342996,
				"element": "C" 
			},
			{
				"x": 1.8369497309,
				"y": -2.0676716945,
				"z": 1.243112808,
				"element": "C" 
			},
			{
				"x": 1.0871141585,
				"y": -3.0934438195,
				"z": 0.371897661,
				"element": "C" 
			},
			{
				"x": 3.3496115744,
				"y": -2.2013706123,
				"z": 0.9461707284,
				"element": "C" 
			},
			{
				"x": 1.387245873,
				"y": -0.6183217864,
				"z": 0.9703031005,
				"element": "C" 
			},
			{
				"x": 0.3968848541,
				"y": -0.3023892724,
				"z": 0.0252850599,
				"element": "C" 
			},
			{
				"x": -0.0076148257,
				"y": 1.0177580657,
				"z": -0.2173868111,
				"element": "C" 
			},
			{
				"x": 0.6064484195,
				"y": 2.042864224,
				"z": 0.5152201732,
				"element": "C" 
			},
			{
				"x": 1.5918661708,
				"y": 1.7472765944,
				"z": 1.4577392897,
				"element": "C" 
			},
			{
				"x": 2.2164190136,
				"y": 2.7185049459,
				"z": 2.1943215297,
				"element": "O" 
			},
			{
				"x": 1.9809672669,
				"y": 0.4267055917,
				"z": 1.6853067963,
				"element": "C" 
			},
			{
				"x": -1.0936214327,
				"y": 1.3754109896,
				"z": -1.2514880879,
				"element": "C" 
			},
			{
				"x": -1.6606169592,
				"y": 0.1332871269,
				"z": -1.9649932072,
				"element": "C" 
			},
			{
				"x": -2.2649822739,
				"y": 2.0953903267,
				"z": -0.5414819659,
				"element": "C" 
			},
			{
				"x": -0.4937388257,
				"y": 2.3124726998,
				"z": -2.3269451126,
				"element": "C" 
			},
			{
				"x": 2.1179316942,
				"y": -1.7503597376,
				"z": 3.4040017256,
				"element": "H" 
			},
			{
				"x": 1.8937153949,
				"y": -3.442878303,
				"z": 2.9410554241,
				"element": "H" 
			},
			{
				"x": 0.5085745394,
				"y": -2.3356379052,
				"z": 2.9656331106,
				"element": "H" 
			},
			{
				"x": 1.4431436653,
				"y": -4.1025908123,
				"z": 0.6038664536,
				"element": "H" 
			},
			{
				"x": 0.0079629432,
				"y": -3.0743844905,
				"z": 0.5561422768,
				"element": "H" 
			},
			{
				"x": 1.2552907039,
				"y": -2.9221494071,
				"z": -0.6964060653,
				"element": "H" 
			},
			{
				"x": 3.687644196,
				"y": -3.2257567566,
				"z": 1.1404850148,
				"element": "H" 
			},
			{
				"x": 3.9473998932,
				"y": -1.5291756601,
				"z": 1.5683778367,
				"element": "H" 
			},
			{
				"x": 3.5647785902,
				"y": -1.9655833944,
				"z": -0.1013129419,
				"element": "H" 
			},
			{
				"x": -0.067882903,
				"y": -1.1020688898,
				"z": -0.5322984663,
				"element": "H" 
			},
			{
				"x": 0.3217282555,
				"y": 3.0810364348,
				"z": 0.357417406,
				"element": "H" 
			},
			{
				"x": 1.8590419238,
				"y": 3.57987432,
				"z": 1.9430512167,
				"element": "H" 
			},
			{
				"x": 2.750809215,
				"y": 0.2462477042,
				"z": 2.4278785898,
				"element": "H" 
			},
			{
				"x": -2.1305665999,
				"y": -0.5618415307,
				"z": -1.2617729701,
				"element": "H" 
			},
			{
				"x": -0.8859934668,
				"y": -0.4091794662,
				"z": -2.5166102613,
				"element": "H" 
			},
			{
				"x": -2.4252735606,
				"y": 0.4404998781,
				"z": -2.6860078459,
				"element": "H" 
			},
			{
				"x": -1.9403289518,
				"y": 3.0184770063,
				"z": -0.0520125326,
				"element": "H" 
			},
			{
				"x": -2.7127054155,
				"y": 1.4526292941,
				"z": 0.2235453731,
				"element": "H" 
			},
			{
				"x": -3.0457883229,
				"y": 2.3589832395,
				"z": -1.2640911042,
				"element": "H" 
			},
			{
				"x": 0.3365777525,
				"y": 1.8264622646,
				"z": -2.8496662096,
				"element": "H" 
			},
			{
				"x": -1.2546578198,
				"y": 2.5781371688,
				"z": -3.069722725,
				"element": "H" 
			},
			{
				"x": -0.1147274373,
				"y": 3.2424649791,
				"z": -1.8927495671,
				"element": "H" 
			}
		],
		 "valence_orbital": [ 
			{
				"type": "occ",
				"energy": -0.31442,
				"method": "rhf"
			},
			{
				"type": "occ",
				"energy": -0.30569,
				"method": "rhf"
			},
			{
				"type": "occ",
				"energy": -0.30089,
				"method": "rhf"
			},
			{
				"type": "occ",
				"energy": -0.23019,
				"method": "rhf"
			},
			{
				"type": "occ",
				"energy": -0.21262,
				"method": "rhf"
			},
			{
				"type": "unocc",
				"energy": 0.00313,
				"method": "rhf"
			},
			{
				"type": "unocc",
				"energy": 0.02305,
				"method": "rhf"
			},
			{
				"type": "unocc",
				"energy": 0.07353,
				"method": "rhf"
			},
			{
				"type": "unocc",
				"energy": 0.08078,
				"method": "rhf"
			},
			{
				"type": "unocc",
				"energy": 0.09333,
				"method": "rhf"
			}
		],
		"cosmo_sigma_profile": { 
			"-0.025": 0.0,
			"-0.024": 0.0,
			"-0.023": 0.0,
			"-0.022": 0.0,
			"-0.021": 0.0,
			"-0.02": 0.0,
			"-0.019": 0.0,
			"-0.018": 0.161224172428,
			"-0.017": 0.845410325428,
			"-0.016": 1.17553429145,
			"-0.015": 1.10293798927,
			"-0.014": 1.16604016857,
			"-0.013": 0.99857859012,
			"-0.012": 0.334276406502,
			"-0.011": 0.410754713351,
			"-0.01": 1.40828469258,
			"-0.009": 1.18066868134,
			"-0.008": 1.19308303888,
			"-0.007": 0.622620978619,
			"-0.006": 0.474892635334,
			"-0.005": 4.13153287829,
			"-0.004": 7.09293739747,
			"-0.003": 29.245233413,
			"-0.002": 43.0263084353,
			"-0.001": 36.0355961788,
			"0.0": 37.2507477791,
			"0.001": 44.2456635253,
			"0.002": 20.9639012184,
			"0.003": 7.82010059936,
			"0.004": 9.37611676266,
			"0.005": 9.80943079449,
			"0.006": 8.85160554034,
			"0.007": 3.64753338306,
			"0.008": 1.59776207569,
			"0.009": 1.6310891017,
			"0.01": 2.64409118525,
			"0.011": 1.954833828,
			"0.012": 1.58906466528,
			"0.013": 0.150405864672,
			"0.014": 0.0135965877964,
			"0.015": 0.158531041398,
			"0.016": 0.265631040959,
			"0.017": 0.00017076684593,
			"0.018": 0.0,
			"0.019": 0.0,
			"0.02": 0.0,
			"0.021": 0.0,
			"0.022": 0.0,
			"0.023": 0.0,
			"0.024": 0.0,
			"0.025": 0.0
		}
	}
}
