{
	 "smiles": "NC(=S)C1=CC2=C(OC=C2)C=C1", 
	 "Tm": 371.75, 
	 "num_atms": 19, 
	 "gaussian": { 
		 "optdone": 1, 
		 "sigma_profile": "yes", 
		 "theory": "DFT", 
		 "functional": "B3LYP", 
		 "basiset": "6-31G**", 
		 "properties": { 
			 "R2extent": 2632.6454, 
			 "electric_dipole_moment_norm": 4.16433854772, 
			 "electric_quadrupole_moment_norm": 20.5813513356, 
			 "total_energy": -875.33405987, 
			 "HOMO_LUMO_gap": 0.15016, 
			 "cosmo_polarized_energy": -15.72, 
			 "cosmo_cavitation_energy": 25.09, 
			 "cosmo_dispersion_energy": -19.27, 
			 "cosmo_repulsion_energy": 1.47, 
			 "cosmo_total_nonelectrostatic_energy": 7.29, 
			 "SMD_solvation_energy": 4.14 
		},
		"coords": [
			{
				"x": -2.1163205438,
				"y": 0.9617369575,
				"z": -2.4437657412,
				"element": "N" 
			},
			{
				"x": -1.3473067246,
				"y": 1.3456383366,
				"z": -1.3968277878,
				"element": "C" 
			},
			{
				"x": -1.1243257054,
				"y": 2.9618043898,
				"z": -1.0383611823,
				"element": "S" 
			},
			{
				"x": -0.7587960444,
				"y": 0.231406942,
				"z": -0.6028943023,
				"element": "C" 
			},
			{
				"x": 0.4595960447,
				"y": 0.4239685956,
				"z": 0.0594263623,
				"element": "C" 
			},
			{
				"x": 1.0099597115,
				"y": -0.6361082224,
				"z": 0.7849931139,
				"element": "C" 
			},
			{
				"x": 0.3172941267,
				"y": -1.8621086497,
				"z": 0.8425626864,
				"element": "C" 
			},
			{
				"x": 1.0095724576,
				"y": -2.7642688267,
				"z": 1.5972976953,
				"element": "O" 
			},
			{
				"x": 2.1459003671,
				"y": -2.1126996592,
				"z": 2.0209240707,
				"element": "C" 
			},
			{
				"x": 2.2070249007,
				"y": -0.8372929193,
				"z": 1.5686086799,
				"element": "C" 
			},
			{
				"x": -0.9027003484,
				"y": -2.0809327755,
				"z": 0.2141338745,
				"element": "C" 
			},
			{
				"x": -1.4268909519,
				"y": -1.0170471762,
				"z": -0.5135305005,
				"element": "C" 
			},
			{
				"x": -2.0728866566,
				"y": 0.0203954049,
				"z": -2.8053081892,
				"element": "H" 
			},
			{
				"x": -2.5092178558,
				"y": 1.6840470129,
				"z": -3.0295182436,
				"element": "H" 
			},
			{
				"x": 0.9496263922,
				"y": 1.3889847143,
				"z": -0.0052618746,
				"element": "H" 
			},
			{
				"x": 2.8058518745,
				"y": -2.7023909878,
				"z": 2.6388896399,
				"element": "H" 
			},
			{
				"x": 2.994123125,
				"y": -0.1237384564,
				"z": 1.7640569597,
				"element": "H" 
			},
			{
				"x": -1.4225133198,
				"y": -3.0286284191,
				"z": 0.3002207099,
				"element": "H" 
			},
			{
				"x": -2.3990908493,
				"y": -1.1360662612,
				"z": -0.9810459711,
				"element": "H" 
			}
		],
		 "valence_orbital": [ 
			{
				"type": "occ",
				"energy": -0.305,
				"method": "rhf"
			},
			{
				"type": "occ",
				"energy": -0.25577,
				"method": "rhf"
			},
			{
				"type": "occ",
				"energy": -0.23431,
				"method": "rhf"
			},
			{
				"type": "occ",
				"energy": -0.22544,
				"method": "rhf"
			},
			{
				"type": "occ",
				"energy": -0.20405,
				"method": "rhf"
			},
			{
				"type": "unocc",
				"energy": -0.05389,
				"method": "rhf"
			},
			{
				"type": "unocc",
				"energy": -0.03082,
				"method": "rhf"
			},
			{
				"type": "unocc",
				"energy": 0.0256,
				"method": "rhf"
			},
			{
				"type": "unocc",
				"energy": 0.04984,
				"method": "rhf"
			},
			{
				"type": "unocc",
				"energy": 0.07374,
				"method": "rhf"
			}
		],
		"cosmo_sigma_profile": { 
			"-0.025": 0.0,
			"-0.024": 0.0,
			"-0.023": 0.0,
			"-0.022": 0.0,
			"-0.021": 0.0,
			"-0.02": 0.0,
			"-0.019": 0.0,
			"-0.018": 0.0,
			"-0.017": 0.0,
			"-0.016": 0.0429184212207,
			"-0.015": 1.61373912874,
			"-0.014": 2.44674054803,
			"-0.013": 2.36272897038,
			"-0.012": 2.47680975559,
			"-0.011": 2.59831230472,
			"-0.01": 2.65502231915,
			"-0.009": 3.4765636281,
			"-0.008": 6.69799984455,
			"-0.007": 8.72298316387,
			"-0.006": 7.62147572774,
			"-0.005": 10.9595918002,
			"-0.004": 7.1056785095,
			"-0.003": 7.68833719383,
			"-0.002": 8.1004977232,
			"-0.001": 9.24104586561,
			"0.0": 12.911924839,
			"0.001": 17.1318527411,
			"0.002": 17.8872728582,
			"0.003": 19.9948104784,
			"0.004": 10.1857170374,
			"0.005": 6.15981233953,
			"0.006": 5.80701911602,
			"0.007": 6.70995802156,
			"0.008": 6.51009766464,
			"0.009": 6.74384984054,
			"0.01": 4.92837084801,
			"0.011": 3.66224572038,
			"0.012": 2.17799236647,
			"0.013": 0.0335347622091,
			"0.014": 0.0,
			"0.015": 0.0,
			"0.016": 0.0,
			"0.017": 0.0,
			"0.018": 0.0,
			"0.019": 0.0,
			"0.02": 0.0,
			"0.021": 0.0,
			"0.022": 0.0,
			"0.023": 0.0,
			"0.024": 0.0,
			"0.025": 0.0
		}
	}
}
