{
	 "smiles": "CC1=C(C=CO1)C(O)=O", 
	 "Tm": 377.15, 
	 "num_atms": 15, 
	 "gaussian": { 
		 "optdone": 1, 
		 "sigma_profile": "yes", 
		 "theory": "DFT", 
		 "functional": "B3LYP", 
		 "basiset": "6-31G**", 
		 "properties": { 
			 "R2extent": 1587.85, 
			 "electric_dipole_moment_norm": 4.44429949598, 
			 "electric_quadrupole_moment_norm": 21.7409729688, 
			 "total_energy": -457.910709854, 
			 "HOMO_LUMO_gap": 0.21055, 
			 "cosmo_polarized_energy": -13.65, 
			 "cosmo_cavitation_energy": 19.53, 
			 "cosmo_dispersion_energy": -14.52, 
			 "cosmo_repulsion_energy": 1.19, 
			 "cosmo_total_nonelectrostatic_energy": 6.19, 
			 "SMD_solvation_energy": 5.65 
		},
		"coords": [
			{
				"x": 0.5888468411,
				"y": 2.2660122966,
				"z": -0.2086121672,
				"element": "C" 
			},
			{
				"x": -0.1235870848,
				"y": 1.0436813635,
				"z": 0.2653482517,
				"element": "C" 
			},
			{
				"x": -0.1587906086,
				"y": 0.3381051281,
				"z": 1.4473839629,
				"element": "C" 
			},
			{
				"x": -1.1192741216,
				"y": -0.7184133812,
				"z": 1.2627924285,
				"element": "C" 
			},
			{
				"x": -1.5750955487,
				"y": -0.5960651683,
				"z": -0.0058919414,
				"element": "C" 
			},
			{
				"x": -0.9818721474,
				"y": 0.4761131696,
				"z": -0.6233688208,
				"element": "O" 
			},
			{
				"x": 0.5461345268,
				"y": 0.5817538419,
				"z": 2.7253332591,
				"element": "C" 
			},
			{
				"x": 1.699624024,
				"y": 1.3125294545,
				"z": 2.6655196309,
				"element": "O" 
			},
			{
				"x": 0.1489007334,
				"y": 0.1709070827,
				"z": 3.7896883228,
				"element": "O" 
			},
			{
				"x": 0.9631288507,
				"y": 2.8490027317,
				"z": 0.6361121054,
				"element": "H" 
			},
			{
				"x": -0.0955939131,
				"y": 2.9011953306,
				"z": -0.7784357517,
				"element": "H" 
			},
			{
				"x": 1.430854919,
				"y": 2.0221170814,
				"z": -0.8689591459,
				"element": "H" 
			},
			{
				"x": -1.3997546948,
				"y": -1.4515286947,
				"z": 2.0036877722,
				"element": "H" 
			},
			{
				"x": -2.2844395823,
				"y": -1.1448628146,
				"z": -0.6048658091,
				"element": "H" 
			},
			{
				"x": 1.9975178062,
				"y": 1.3833525781,
				"z": 1.7486679026,
				"element": "H" 
			}
		],
		 "valence_orbital": [ 
			{
				"type": "occ",
				"energy": -0.37222,
				"method": "rhf"
			},
			{
				"type": "occ",
				"energy": -0.31843,
				"method": "rhf"
			},
			{
				"type": "occ",
				"energy": -0.29171,
				"method": "rhf"
			},
			{
				"type": "occ",
				"energy": -0.27075,
				"method": "rhf"
			},
			{
				"type": "occ",
				"energy": -0.24202,
				"method": "rhf"
			},
			{
				"type": "unocc",
				"energy": -0.03147,
				"method": "rhf"
			},
			{
				"type": "unocc",
				"energy": 0.01527,
				"method": "rhf"
			},
			{
				"type": "unocc",
				"energy": 0.05674,
				"method": "rhf"
			},
			{
				"type": "unocc",
				"energy": 0.10105,
				"method": "rhf"
			},
			{
				"type": "unocc",
				"energy": 0.10979,
				"method": "rhf"
			}
		],
		"cosmo_sigma_profile": { 
			"-0.025": 0.0,
			"-0.024": 0.0,
			"-0.023": 0.0,
			"-0.022": 0.0,
			"-0.021": 0.0,
			"-0.02": 0.0,
			"-0.019": 0.0,
			"-0.018": 0.0568559824019,
			"-0.017": 0.578256987291,
			"-0.016": 1.07249501211,
			"-0.015": 0.988573261546,
			"-0.014": 0.728793857748,
			"-0.013": 1.14623898302,
			"-0.012": 1.02013035774,
			"-0.011": 1.08246323647,
			"-0.01": 1.18602938825,
			"-0.009": 2.6880569585,
			"-0.008": 3.46661020679,
			"-0.007": 5.79073940664,
			"-0.006": 10.0469284024,
			"-0.005": 9.96137924333,
			"-0.004": 9.48453148814,
			"-0.003": 11.9979863274,
			"-0.002": 10.3596476719,
			"-0.001": 7.81510154212,
			"0.0": 7.22202255253,
			"0.001": 9.0466153836,
			"0.002": 9.35954175839,
			"0.003": 8.58658674204,
			"0.004": 6.99684692986,
			"0.005": 3.88141763771,
			"0.006": 3.25939302869,
			"0.007": 4.36164444263,
			"0.008": 2.93042197099,
			"0.009": 3.23504682637,
			"0.01": 4.290894505,
			"0.011": 5.35286379731,
			"0.012": 5.86279632583,
			"0.013": 2.21357197902,
			"0.014": 0.134482205282,
			"0.015": 0.0,
			"0.016": 0.0,
			"0.017": 0.0,
			"0.018": 0.0,
			"0.019": 0.0,
			"0.02": 0.0,
			"0.021": 0.0,
			"0.022": 0.0,
			"0.023": 0.0,
			"0.024": 0.0,
			"0.025": 0.0
		}
	}
}
