{
	 "smiles": "OC1=C(C2CC(CC3=CC=CC=C23)C2=CC=C(C=C2)C2=CC=CC=C2)C(=O)C2=C(O1)C=CC=C2", 
	 "Tm": 486.15, 
	 "num_atms": 58, 
	 "gaussian": { 
		 "optdone": 1, 
		 "sigma_profile": "yes", 
		 "theory": "DFT", 
		 "functional": "B3LYP", 
		 "basiset": "6-31G**", 
		 "properties": { 
			 "R2extent": 19563.4305, 
			 "electric_dipole_moment_norm": 6.25971501827, 
			 "electric_quadrupole_moment_norm": 24.1470447173, 
			 "total_energy": -1421.45428077, 
			 "HOMO_LUMO_gap": 0.15196, 
			 "cosmo_polarized_energy": -20.88, 
			 "cosmo_cavitation_energy": 59.34, 
			 "cosmo_dispersion_energy": -40.99, 
			 "cosmo_repulsion_energy": 3.02, 
			 "cosmo_total_nonelectrostatic_energy": 21.37, 
			 "SMD_solvation_energy": 10.17 
		},
		"coords": [
			{
				"x": 3.9501036554,
				"y": 1.7086949631,
				"z": 3.1966725843,
				"element": "O" 
			},
			{
				"x": 3.2935961158,
				"y": 0.5407920193,
				"z": 3.1176300638,
				"element": "C" 
			},
			{
				"x": 2.3462527498,
				"y": 0.2765130662,
				"z": 2.1756906162,
				"element": "C" 
			},
			{
				"x": 1.9559492931,
				"y": 1.3268555868,
				"z": 1.1530934652,
				"element": "C" 
			},
			{
				"x": 0.4555169869,
				"y": 1.7296945493,
				"z": 1.3327008664,
				"element": "C" 
			},
			{
				"x": -0.150387862,
				"y": 2.5531803622,
				"z": 0.1573968414,
				"element": "C" 
			},
			{
				"x": 0.9647464114,
				"y": 3.0079097175,
				"z": -0.829455541,
				"element": "C" 
			},
			{
				"x": 1.8085562425,
				"y": 1.8448590734,
				"z": -1.280741811,
				"element": "C" 
			},
			{
				"x": 2.1122821543,
				"y": 1.6097883668,
				"z": -2.6240730898,
				"element": "C" 
			},
			{
				"x": 2.9119769441,
				"y": 0.5277903066,
				"z": -2.9942592476,
				"element": "C" 
			},
			{
				"x": 3.4075381424,
				"y": -0.3301943165,
				"z": -2.0124912841,
				"element": "C" 
			},
			{
				"x": 3.0982712036,
				"y": -0.1084603902,
				"z": -0.6692031499,
				"element": "C" 
			},
			{
				"x": 2.2961068536,
				"y": 0.970728457,
				"z": -0.2904655688,
				"element": "C" 
			},
			{
				"x": -1.2711177762,
				"y": 1.8415605623,
				"z": -0.5915289648,
				"element": "C" 
			},
			{
				"x": -2.3428385444,
				"y": 2.59257176,
				"z": -1.095581385,
				"element": "C" 
			},
			{
				"x": -3.3680121089,
				"y": 1.9993528148,
				"z": -1.8277739315,
				"element": "C" 
			},
			{
				"x": -3.3629885314,
				"y": 0.6188507658,
				"z": -2.0866410005,
				"element": "C" 
			},
			{
				"x": -2.2916070175,
				"y": -0.1330217263,
				"z": -1.5779599841,
				"element": "C" 
			},
			{
				"x": -1.2652118603,
				"y": 0.4619367435,
				"z": -0.8455930399,
				"element": "C" 
			},
			{
				"x": -4.4537860384,
				"y": -0.0219773357,
				"z": -2.864174559,
				"element": "C" 
			},
			{
				"x": -5.7877015081,
				"y": 0.399690114,
				"z": -2.725548246,
				"element": "C" 
			},
			{
				"x": -6.8110821331,
				"y": -0.2002588679,
				"z": -3.458172877,
				"element": "C" 
			},
			{
				"x": -6.5255244031,
				"y": -1.2395597636,
				"z": -4.3456813319,
				"element": "C" 
			},
			{
				"x": -5.2059297316,
				"y": -1.6713044746,
				"z": -4.4933893999,
				"element": "C" 
			},
			{
				"x": -4.1827902,
				"y": -1.0687604224,
				"z": -3.762671055,
				"element": "C" 
			},
			{
				"x": 1.6991662312,
				"y": -1.0351594661,
				"z": 2.1963242099,
				"element": "C" 
			},
			{
				"x": 0.8303046095,
				"y": -1.3812769601,
				"z": 1.3911384753,
				"element": "O" 
			},
			{
				"x": 2.1568073739,
				"y": -1.9593395693,
				"z": 3.2664455708,
				"element": "C" 
			},
			{
				"x": 3.1402568663,
				"y": -1.5627208813,
				"z": 4.1738811928,
				"element": "C" 
			},
			{
				"x": 3.7040607616,
				"y": -0.3048226871,
				"z": 4.0917961937,
				"element": "O" 
			},
			{
				"x": 3.5975992668,
				"y": -2.3988106146,
				"z": 5.1928363009,
				"element": "C" 
			},
			{
				"x": 3.0468016804,
				"y": -3.6712761602,
				"z": 5.2993274858,
				"element": "C" 
			},
			{
				"x": 2.0558263655,
				"y": -4.0986757601,
				"z": 4.4012359839,
				"element": "C" 
			},
			{
				"x": 1.6169095708,
				"y": -3.2487958621,
				"z": 3.3953529231,
				"element": "C" 
			},
			{
				"x": 4.573759738,
				"y": 1.6606686855,
				"z": 3.9364446626,
				"element": "H" 
			},
			{
				"x": 2.5433650282,
				"y": 2.2251634653,
				"z": 1.3811216043,
				"element": "H" 
			},
			{
				"x": 0.3866278831,
				"y": 2.3119294008,
				"z": 2.2579880379,
				"element": "H" 
			},
			{
				"x": -0.1311657653,
				"y": 0.8247139479,
				"z": 1.4871762972,
				"element": "H" 
			},
			{
				"x": -0.5868962738,
				"y": 3.4684630981,
				"z": 0.5743361515,
				"element": "H" 
			},
			{
				"x": 1.5977181951,
				"y": 3.7444595967,
				"z": -0.3110660876,
				"element": "H" 
			},
			{
				"x": 0.5203357242,
				"y": 3.523670766,
				"z": -1.6863205313,
				"element": "H" 
			},
			{
				"x": 1.718722701,
				"y": 2.2812968128,
				"z": -3.3833981149,
				"element": "H" 
			},
			{
				"x": 3.1434203115,
				"y": 0.3548627264,
				"z": -4.04155817,
				"element": "H" 
			},
			{
				"x": 4.0307555337,
				"y": -1.1760073792,
				"z": -2.2895058642,
				"element": "H" 
			},
			{
				"x": 3.4888303429,
				"y": -0.7817486423,
				"z": 0.0869641792,
				"element": "H" 
			},
			{
				"x": -2.372887788,
				"y": 3.6653880308,
				"z": -0.9149397391,
				"element": "H" 
			},
			{
				"x": -4.1710898094,
				"y": 2.6163387864,
				"z": -2.2209604847,
				"element": "H" 
			},
			{
				"x": -2.2732607166,
				"y": -1.2080754427,
				"z": -1.7322502632,
				"element": "H" 
			},
			{
				"x": -0.4695334154,
				"y": -0.1632571209,
				"z": -0.4527157713,
				"element": "H" 
			},
			{
				"x": -6.025385116,
				"y": 1.1882249256,
				"z": -2.017501424,
				"element": "H" 
			},
			{
				"x": -7.8353237332,
				"y": 0.1385470025,
				"z": -3.3279055945,
				"element": "H" 
			},
			{
				"x": -7.3226886458,
				"y": -1.7081727546,
				"z": -4.9157059325,
				"element": "H" 
			},
			{
				"x": -4.9700952039,
				"y": -2.4739681366,
				"z": -5.1868478579,
				"element": "H" 
			},
			{
				"x": -3.1566676107,
				"y": -1.3946271343,
				"z": -3.9050922153,
				"element": "H" 
			},
			{
				"x": 4.3640892017,
				"y": -2.0458924601,
				"z": 5.8744545782,
				"element": "H" 
			},
			{
				"x": 3.3899672241,
				"y": -4.3362122584,
				"z": 6.0861437542,
				"element": "H" 
			},
			{
				"x": 1.6343928713,
				"y": -5.0945185006,
				"z": 4.4959606509,
				"element": "H" 
			},
			{
				"x": 0.8533575592,
				"y": -3.5432013856,
				"z": 2.6829608277,
				"element": "H" 
			}
		],
		 "valence_orbital": [ 
			{
				"type": "occ",
				"energy": -0.23588,
				"method": "rhf"
			},
			{
				"type": "occ",
				"energy": -0.23399,
				"method": "rhf"
			},
			{
				"type": "occ",
				"energy": -0.22754,
				"method": "rhf"
			},
			{
				"type": "occ",
				"energy": -0.22144,
				"method": "rhf"
			},
			{
				"type": "occ",
				"energy": -0.20511,
				"method": "rhf"
			},
			{
				"type": "unocc",
				"energy": -0.05315,
				"method": "rhf"
			},
			{
				"type": "unocc",
				"energy": -0.01979,
				"method": "rhf"
			},
			{
				"type": "unocc",
				"energy": -0.01319,
				"method": "rhf"
			},
			{
				"type": "unocc",
				"energy": 0.00047,
				"method": "rhf"
			},
			{
				"type": "unocc",
				"energy": 0.00802,
				"method": "rhf"
			}
		],
		"cosmo_sigma_profile": { 
			"-0.025": 0.0,
			"-0.024": 0.0,
			"-0.023": 0.0,
			"-0.022": 0.0,
			"-0.021": 0.0,
			"-0.02": 0.356506511296,
			"-0.019": 0.883609503843,
			"-0.018": 1.12699866903,
			"-0.017": 0.919690808734,
			"-0.016": 0.539197305554,
			"-0.015": 0.391671914915,
			"-0.014": 0.296397601832,
			"-0.013": 1.00474209544,
			"-0.012": 1.5391406944,
			"-0.011": 0.670838368805,
			"-0.01": 0.421941558919,
			"-0.009": 1.00610240434,
			"-0.008": 1.54214824372,
			"-0.007": 5.50616428493,
			"-0.006": 10.9749440434,
			"-0.005": 34.5323178852,
			"-0.004": 42.2276837843,
			"-0.003": 47.6627588687,
			"-0.002": 40.1638802346,
			"-0.001": 33.6050929838,
			"0.0": 37.1356595282,
			"0.001": 32.9485074434,
			"0.002": 36.1681686433,
			"0.003": 33.9893049544,
			"0.004": 29.4063760838,
			"0.005": 26.4768333863,
			"0.006": 29.4922568966,
			"0.007": 10.1036531609,
			"0.008": 2.15210055663,
			"0.009": 2.78240816944,
			"0.01": 2.36081796804,
			"0.011": 1.68916876548,
			"0.012": 2.17849865958,
			"0.013": 1.68181541531,
			"0.014": 0.33308350391,
			"0.015": 0.0,
			"0.016": 0.0,
			"0.017": 0.0,
			"0.018": 0.0,
			"0.019": 0.0,
			"0.02": 0.0,
			"0.021": 0.0,
			"0.022": 0.0,
			"0.023": 0.0,
			"0.024": 0.0,
			"0.025": 0.0
		}
	}
}
