{
	 "smiles": "NC1=CC=C(OCC2=CC=CS2)C=C1", 
	 "Tm": 335.15, 
	 "num_atms": 25, 
	 "gaussian": { 
		 "optdone": 1, 
		 "sigma_profile": "yes", 
		 "theory": "DFT", 
		 "functional": "B3LYP", 
		 "basiset": "6-31G**", 
		 "properties": { 
			 "R2extent": 7347.2376, 
			 "electric_dipole_moment_norm": 1.92577251772, 
			 "electric_quadrupole_moment_norm": 14.0246864436, 
			 "total_energy": -953.933330757, 
			 "HOMO_LUMO_gap": 0.17673, 
			 "cosmo_polarized_energy": -11.64, 
			 "cosmo_cavitation_energy": 30.79, 
			 "cosmo_dispersion_energy": -23.24, 
			 "cosmo_repulsion_energy": 1.78, 
			 "cosmo_total_nonelectrostatic_energy": 9.32, 
			 "SMD_solvation_energy": 5.19 
		},
		"coords": [
			{
				"x": 2.6825692145,
				"y": -1.8977131796,
				"z": 0.0141100527,
				"element": "N" 
			},
			{
				"x": 1.6773669071,
				"y": -0.9192068035,
				"z": -0.0506095185,
				"element": "C" 
			},
			{
				"x": 0.3235488184,
				"y": -1.2851205007,
				"z": -0.1632483423,
				"element": "C" 
			},
			{
				"x": -0.6689566548,
				"y": -0.3222489894,
				"z": -0.2878436558,
				"element": "C" 
			},
			{
				"x": -0.3424716786,
				"y": 1.0397096549,
				"z": -0.3065152097,
				"element": "C" 
			},
			{
				"x": -1.401172886,
				"y": 1.9076588399,
				"z": -0.435979709,
				"element": "O" 
			},
			{
				"x": -1.1248159459,
				"y": 3.2968506139,
				"z": -0.4168873334,
				"element": "C" 
			},
			{
				"x": -2.4320801181,
				"y": 4.031483363,
				"z": -0.5085136828,
				"element": "C" 
			},
			{
				"x": -3.6957495163,
				"y": 3.5437242431,
				"z": -0.3203989297,
				"element": "C" 
			},
			{
				"x": -4.7091782772,
				"y": 4.5443353177,
				"z": -0.4541627354,
				"element": "C" 
			},
			{
				"x": -4.2028979012,
				"y": 5.7798854664,
				"z": -0.7385692457,
				"element": "C" 
			},
			{
				"x": -2.4687704652,
				"y": 5.7423772098,
				"z": -0.8570071174,
				"element": "S" 
			},
			{
				"x": 0.9978064291,
				"y": 1.4189817936,
				"z": -0.198361806,
				"element": "C" 
			},
			{
				"x": 1.9922914415,
				"y": 0.4446367639,
				"z": -0.0706668332,
				"element": "C" 
			},
			{
				"x": 2.3784693961,
				"y": -2.777187102,
				"z": 0.410999879,
				"element": "H" 
			},
			{
				"x": 3.5379349262,
				"y": -1.5838271707,
				"z": 0.4537057427,
				"element": "H" 
			},
			{
				"x": 0.0503214145,
				"y": -2.337568235,
				"z": -0.1568536606,
				"element": "H" 
			},
			{
				"x": -1.7126990231,
				"y": -0.6075880034,
				"z": -0.3720239628,
				"element": "H" 
			},
			{
				"x": -0.5959354671,
				"y": 3.564024922,
				"z": 0.512396619,
				"element": "H" 
			},
			{
				"x": -0.4652060022,
				"y": 3.571928426,
				"z": -1.2547976374,
				"element": "H" 
			},
			{
				"x": -3.8868898332,
				"y": 2.5011834545,
				"z": -0.1005077225,
				"element": "H" 
			},
			{
				"x": -5.7694627098,
				"y": 4.3463007698,
				"z": -0.3437502301,
				"element": "H" 
			},
			{
				"x": -4.7317483591,
				"y": 6.7103211931,
				"z": -0.8904763103,
				"element": "H" 
			},
			{
				"x": 1.2890202621,
				"y": 2.4627687807,
				"z": -0.210482103,
				"element": "H" 
			},
			{
				"x": 3.0309060284,
				"y": 0.756589172,
				"z": 0.0087434522,
				"element": "H" 
			}
		],
		 "valence_orbital": [ 
			{
				"type": "occ",
				"energy": -0.27646,
				"method": "rhf"
			},
			{
				"type": "occ",
				"energy": -0.24695,
				"method": "rhf"
			},
			{
				"type": "occ",
				"energy": -0.24653,
				"method": "rhf"
			},
			{
				"type": "occ",
				"energy": -0.2249,
				"method": "rhf"
			},
			{
				"type": "occ",
				"energy": -0.18627,
				"method": "rhf"
			},
			{
				"type": "unocc",
				"energy": -0.00954,
				"method": "rhf"
			},
			{
				"type": "unocc",
				"energy": 0.00285,
				"method": "rhf"
			},
			{
				"type": "unocc",
				"energy": 0.02919,
				"method": "rhf"
			},
			{
				"type": "unocc",
				"energy": 0.03149,
				"method": "rhf"
			},
			{
				"type": "unocc",
				"energy": 0.07175,
				"method": "rhf"
			}
		],
		"cosmo_sigma_profile": { 
			"-0.025": 0.0,
			"-0.024": 0.0,
			"-0.023": 0.0,
			"-0.022": 0.0,
			"-0.021": 0.0,
			"-0.02": 0.0,
			"-0.019": 0.0,
			"-0.018": 0.0,
			"-0.017": 0.0,
			"-0.016": 0.0,
			"-0.015": 0.0,
			"-0.014": 0.0,
			"-0.013": 0.0,
			"-0.012": 1.51204810083,
			"-0.011": 2.71300839253,
			"-0.01": 2.39104985129,
			"-0.009": 3.49174562434,
			"-0.008": 5.66926775333,
			"-0.007": 6.90072639515,
			"-0.006": 17.9810868193,
			"-0.005": 18.0684660959,
			"-0.004": 15.6019585675,
			"-0.003": 15.4523346261,
			"-0.002": 12.6343327719,
			"-0.001": 12.6281147555,
			"0.0": 11.1664039126,
			"0.001": 12.5094172091,
			"0.002": 14.2792984407,
			"0.003": 17.2448120982,
			"0.004": 21.3410730457,
			"0.005": 21.356777363,
			"0.006": 18.7431835644,
			"0.007": 7.53493670866,
			"0.008": 2.00526883737,
			"0.009": 1.68427835848,
			"0.01": 1.02871614084,
			"0.011": 0.786456840642,
			"0.012": 0.781668489047,
			"0.013": 0.49593517962,
			"0.014": 0.657341765346,
			"0.015": 0.621468448871,
			"0.016": 0.274675655747,
			"0.017": 0.0,
			"0.018": 0.0,
			"0.019": 0.0,
			"0.02": 0.0,
			"0.021": 0.0,
			"0.022": 0.0,
			"0.023": 0.0,
			"0.024": 0.0,
			"0.025": 0.0
		}
	}
}
