{
	 "smiles": "COC1=CC(N)=CC=C1Cl", 
	 "Tm": 353.15, 
	 "num_atms": 18, 
	 "gaussian": { 
		 "optdone": 1, 
		 "sigma_profile": "yes", 
		 "theory": "DFT", 
		 "functional": "B3LYP", 
		 "basiset": "6-31G**", 
		 "properties": { 
			 "R2extent": 2109.483, 
			 "electric_dipole_moment_norm": 3.19900892621, 
			 "electric_quadrupole_moment_norm": 10.6169775581, 
			 "total_energy": -861.718162531, 
			 "HOMO_LUMO_gap": 0.19998, 
			 "cosmo_polarized_energy": -10.42, 
			 "cosmo_cavitation_energy": 23.51, 
			 "cosmo_dispersion_energy": -17.47, 
			 "cosmo_repulsion_energy": 1.43, 
			 "cosmo_total_nonelectrostatic_energy": 7.47, 
			 "SMD_solvation_energy": 4.54 
		},
		"coords": [
			{
				"x": 3.6595671841,
				"y": -0.1726285735,
				"z": 1.0422918872,
				"element": "C" 
			},
			{
				"x": 2.5518678782,
				"y": -1.0767999944,
				"z": 1.0642755264,
				"element": "O" 
			},
			{
				"x": 1.3786488347,
				"y": -0.5655946058,
				"z": 0.5693778011,
				"element": "C" 
			},
			{
				"x": 1.0212281601,
				"y": -0.8604978667,
				"z": -0.7465140688,
				"element": "C" 
			},
			{
				"x": -0.1931676461,
				"y": -0.4134694821,
				"z": -1.2899866855,
				"element": "C" 
			},
			{
				"x": -0.5144266702,
				"y": -0.6737271214,
				"z": -2.6222633413,
				"element": "N" 
			},
			{
				"x": -1.0482918753,
				"y": 0.3520915497,
				"z": -0.4783366756,
				"element": "C" 
			},
			{
				"x": -0.6972566141,
				"y": 0.648093673,
				"z": 0.8351268403,
				"element": "C" 
			},
			{
				"x": 0.5099359976,
				"y": 0.1958994806,
				"z": 1.3659184979,
				"element": "C" 
			},
			{
				"x": 0.9182648413,
				"y": 0.5503582921,
				"z": 3.0371686286,
				"element": "Cl" 
			},
			{
				"x": 3.4706435234,
				"y": 0.7101626992,
				"z": 1.6630081766,
				"element": "H" 
			},
			{
				"x": 3.885769664,
				"y": 0.1465377099,
				"z": 0.0166665837,
				"element": "H" 
			},
			{
				"x": 4.5112834606,
				"y": -0.7224962633,
				"z": 1.4472503207,
				"element": "H" 
			},
			{
				"x": 1.7087403426,
				"y": -1.4590652213,
				"z": -1.3371769695,
				"element": "H" 
			},
			{
				"x": -0.0645870433,
				"y": -1.4847204225,
				"z": -3.0237855591,
				"element": "H" 
			},
			{
				"x": -1.5006294515,
				"y": -0.6427344591,
				"z": -2.8407498293,
				"element": "H" 
			},
			{
				"x": -1.9922134507,
				"y": 0.7136255928,
				"z": -0.8769398146,
				"element": "H" 
			},
			{
				"x": -1.3667771355,
				"y": 1.2298650127,
				"z": 1.459668681,
				"element": "H" 
			}
		],
		 "valence_orbital": [ 
			{
				"type": "occ",
				"energy": -0.30207,
				"method": "rhf"
			},
			{
				"type": "occ",
				"energy": -0.28807,
				"method": "rhf"
			},
			{
				"type": "occ",
				"energy": -0.27247,
				"method": "rhf"
			},
			{
				"type": "occ",
				"energy": -0.24624,
				"method": "rhf"
			},
			{
				"type": "occ",
				"energy": -0.20403,
				"method": "rhf"
			},
			{
				"type": "unocc",
				"energy": -0.00405,
				"method": "rhf"
			},
			{
				"type": "unocc",
				"energy": 0.00936,
				"method": "rhf"
			},
			{
				"type": "unocc",
				"energy": 0.03726,
				"method": "rhf"
			},
			{
				"type": "unocc",
				"energy": 0.07915,
				"method": "rhf"
			},
			{
				"type": "unocc",
				"energy": 0.11406,
				"method": "rhf"
			}
		],
		"cosmo_sigma_profile": { 
			"-0.025": 0.0,
			"-0.024": 0.0,
			"-0.023": 0.0,
			"-0.022": 0.0,
			"-0.021": 0.0,
			"-0.02": 0.0,
			"-0.019": 0.0,
			"-0.018": 0.0,
			"-0.017": 0.0,
			"-0.016": 0.0,
			"-0.015": 0.0,
			"-0.014": 0.0,
			"-0.013": 0.877838188302,
			"-0.012": 2.91440646914,
			"-0.011": 2.97857972011,
			"-0.01": 3.02684546612,
			"-0.009": 3.66880703778,
			"-0.008": 3.09440731328,
			"-0.007": 4.52964950612,
			"-0.006": 6.86901966767,
			"-0.005": 10.0990410813,
			"-0.004": 11.5148698075,
			"-0.003": 14.2326625687,
			"-0.002": 13.8757941744,
			"-0.001": 9.88483271359,
			"0.0": 9.15115183655,
			"0.001": 9.66694466959,
			"0.002": 10.1922635982,
			"0.003": 16.5558187543,
			"0.004": 17.7930402295,
			"0.005": 16.7525022757,
			"0.006": 5.38016222081,
			"0.007": 3.90261861626,
			"0.008": 2.39643462357,
			"0.009": 2.01631263541,
			"0.01": 2.32395812041,
			"0.011": 2.46405386044,
			"0.012": 1.36446580132,
			"0.013": 0.701157289409,
			"0.014": 0.469070931107,
			"0.015": 0.0368047012965,
			"0.016": 0.0,
			"0.017": 0.0,
			"0.018": 0.0,
			"0.019": 0.0,
			"0.02": 0.0,
			"0.021": 0.0,
			"0.022": 0.0,
			"0.023": 0.0,
			"0.024": 0.0,
			"0.025": 0.0
		}
	}
}
