{
	 "smiles": "COC(=O)C1=CC=C(C=C1)C1(C)C=CC=CC=C1", 
	 "Tm": 334.15, 
	 "num_atms": 34, 
	 "gaussian": { 
		 "optdone": 1, 
		 "sigma_profile": "yes", 
		 "theory": "DFT", 
		 "functional": "B3LYP", 
		 "basiset": "6-31G**", 
		 "properties": { 
			 "R2extent": 7682.5486, 
			 "electric_dipole_moment_norm": 2.13139961997, 
			 "electric_quadrupole_moment_norm": 11.7739147283, 
			 "total_energy": -769.756448466, 
			 "HOMO_LUMO_gap": 0.17404, 
			 "cosmo_polarized_energy": -8.7, 
			 "cosmo_cavitation_energy": 36.52, 
			 "cosmo_dispersion_energy": -26.28, 
			 "cosmo_repulsion_energy": 2.02, 
			 "cosmo_total_nonelectrostatic_energy": 12.25, 
			 "SMD_solvation_energy": 7.75 
		},
		"coords": [
			{
				"x": 0.9907174977,
				"y": -5.4631392026,
				"z": 4.1127864934,
				"element": "C" 
			},
			{
				"x": 0.7905117433,
				"y": -4.6583814556,
				"z": 2.9417937831,
				"element": "O" 
			},
			{
				"x": 0.1567680581,
				"y": -3.4803947267,
				"z": 3.1546285663,
				"element": "C" 
			},
			{
				"x": -0.2191986265,
				"y": -3.1218436992,
				"z": 4.2542994979,
				"element": "O" 
			},
			{
				"x": -0.0194357364,
				"y": -2.6947760404,
				"z": 1.9027065216,
				"element": "C" 
			},
			{
				"x": -0.6619190797,
				"y": -1.4555176961,
				"z": 1.9864844537,
				"element": "C" 
			},
			{
				"x": -0.8535770737,
				"y": -0.6780604744,
				"z": 0.8455179297,
				"element": "C" 
			},
			{
				"x": -0.4098920685,
				"y": -1.1151575114,
				"z": -0.4094096807,
				"element": "C" 
			},
			{
				"x": 0.2347930281,
				"y": -2.3635574963,
				"z": -0.479162224,
				"element": "C" 
			},
			{
				"x": 0.4303522474,
				"y": -3.1459739098,
				"z": 0.6535787678,
				"element": "C" 
			},
			{
				"x": -0.5951959861,
				"y": -0.296855827,
				"z": -1.7009786006,
				"element": "C" 
			},
			{
				"x": -1.3196074457,
				"y": 1.0442082986,
				"z": -1.4460328679,
				"element": "C" 
			},
			{
				"x": 0.7839558702,
				"y": -0.0395945148,
				"z": -2.3114660569,
				"element": "C" 
			},
			{
				"x": 1.0371267469,
				"y": 0.5359565681,
				"z": -3.5083118652,
				"element": "C" 
			},
			{
				"x": 0.1010135877,
				"y": 0.856531159,
				"z": -4.5606436133,
				"element": "C" 
			},
			{
				"x": -1.0986205783,
				"y": 0.2490820043,
				"z": -4.773571707,
				"element": "C" 
			},
			{
				"x": -1.6542465588,
				"y": -0.826844345,
				"z": -3.9860711038,
				"element": "C" 
			},
			{
				"x": -1.3917395086,
				"y": -1.1412814266,
				"z": -2.6976527842,
				"element": "C" 
			},
			{
				"x": 1.5978735646,
				"y": -4.9296065857,
				"z": 4.8485951218,
				"element": "H" 
			},
			{
				"x": 1.505923873,
				"y": -6.3602894076,
				"z": 3.769326261,
				"element": "H" 
			},
			{
				"x": 0.0329725256,
				"y": -5.7222040175,
				"z": 4.5714058391,
				"element": "H" 
			},
			{
				"x": -1.0065999582,
				"y": -1.1143016836,
				"z": 2.9569655699,
				"element": "H" 
			},
			{
				"x": -1.355140099,
				"y": 0.2770626869,
				"z": 0.9460942907,
				"element": "H" 
			},
			{
				"x": 0.5884850505,
				"y": -2.7252950168,
				"z": -1.4407546818,
				"element": "H" 
			},
			{
				"x": 0.9296450728,
				"y": -4.1052021245,
				"z": 0.5775301725,
				"element": "H" 
			},
			{
				"x": -1.4294606335,
				"y": 1.5894375854,
				"z": -2.3840694542,
				"element": "H" 
			},
			{
				"x": -0.7492385326,
				"y": 1.6723013598,
				"z": -0.7540721589,
				"element": "H" 
			},
			{
				"x": -2.3193970549,
				"y": 0.8769614157,
				"z": -1.0324259785,
				"element": "H" 
			},
			{
				"x": 1.6365914578,
				"y": -0.3053263367,
				"z": -1.6906720035,
				"element": "H" 
			},
			{
				"x": 2.0797636356,
				"y": 0.7653516268,
				"z": -3.726362904,
				"element": "H" 
			},
			{
				"x": 0.4426842104,
				"y": 1.5716839707,
				"z": -5.3065107421,
				"element": "H" 
			},
			{
				"x": -1.6442968821,
				"y": 0.5149379382,
				"z": -5.6769326925,
				"element": "H" 
			},
			{
				"x": -2.3510620897,
				"y": -1.478098803,
				"z": -4.5129278212,
				"element": "H" 
			},
			{
				"x": -1.8255502573,
				"y": -2.0582123121,
				"z": -2.3051843284,
				"element": "H" 
			}
		],
		 "valence_orbital": [ 
			{
				"type": "occ",
				"energy": -0.27023,
				"method": "rhf"
			},
			{
				"type": "occ",
				"energy": -0.26301,
				"method": "rhf"
			},
			{
				"type": "occ",
				"energy": -0.25624,
				"method": "rhf"
			},
			{
				"type": "occ",
				"energy": -0.24928,
				"method": "rhf"
			},
			{
				"type": "occ",
				"energy": -0.2171,
				"method": "rhf"
			},
			{
				"type": "unocc",
				"energy": -0.04306,
				"method": "rhf"
			},
			{
				"type": "unocc",
				"energy": -0.0421,
				"method": "rhf"
			},
			{
				"type": "unocc",
				"energy": -0.005,
				"method": "rhf"
			},
			{
				"type": "unocc",
				"energy": 0.01885,
				"method": "rhf"
			},
			{
				"type": "unocc",
				"energy": 0.05841,
				"method": "rhf"
			}
		],
		"cosmo_sigma_profile": { 
			"-0.025": 0.0,
			"-0.024": 0.0,
			"-0.023": 0.0,
			"-0.022": 0.0,
			"-0.021": 0.0,
			"-0.02": 0.0,
			"-0.019": 0.0,
			"-0.018": 0.0,
			"-0.017": 0.0,
			"-0.016": 0.0,
			"-0.015": 0.0,
			"-0.014": 0.0,
			"-0.013": 0.0,
			"-0.012": 0.0,
			"-0.011": 0.0,
			"-0.01": 0.0,
			"-0.009": 0.0,
			"-0.008": 0.0,
			"-0.007": 0.634231207461,
			"-0.006": 7.6171722919,
			"-0.005": 24.5104829988,
			"-0.004": 31.2045670731,
			"-0.003": 31.2678239378,
			"-0.002": 26.0905550557,
			"-0.001": 25.1612292264,
			"0.0": 21.7668163136,
			"0.001": 22.9894218713,
			"0.002": 23.5992696547,
			"0.003": 22.2520040955,
			"0.004": 19.1282675764,
			"0.005": 10.7862222339,
			"0.006": 6.77258061273,
			"0.007": 3.06594554141,
			"0.008": 2.08530678495,
			"0.009": 1.56370670548,
			"0.01": 1.60378892083,
			"0.011": 2.85668564968,
			"0.012": 4.51000996955,
			"0.013": 0.554136015841,
			"0.014": 0.0,
			"0.015": 0.0,
			"0.016": 0.0,
			"0.017": 0.0,
			"0.018": 0.0,
			"0.019": 0.0,
			"0.02": 0.0,
			"0.021": 0.0,
			"0.022": 0.0,
			"0.023": 0.0,
			"0.024": 0.0,
			"0.025": 0.0
		}
	}
}
