{
	 "smiles": "SC1=NN=C(C2CCS(=O)(=O)C2)N1CC=C", 
	 "Tm": 375.15, 
	 "num_atms": 29, 
	 "gaussian": { 
		 "optdone": 1, 
		 "sigma_profile": "yes", 
		 "theory": "DFT", 
		 "functional": "B3LYP", 
		 "basiset": "6-31G**", 
		 "properties": { 
			 "R2extent": 5436.8928, 
			 "electric_dipole_moment_norm": 6.79163559388, 
			 "electric_quadrupole_moment_norm": 20.8743674656, 
			 "total_energy": -1461.75608814, 
			 "HOMO_LUMO_gap": 0.21461, 
			 "cosmo_polarized_energy": -26.26, 
			 "cosmo_cavitation_energy": 35.62, 
			 "cosmo_dispersion_energy": -25.18, 
			 "cosmo_repulsion_energy": 1.88, 
			 "cosmo_total_nonelectrostatic_energy": 12.32, 
			 "SMD_solvation_energy": 2.89 
		},
		"coords": [
			{
				"x": -3.9867135105,
				"y": -2.2794581532,
				"z": -0.218166375,
				"element": "S" 
			},
			{
				"x": -2.760109141,
				"y": -1.1814569296,
				"z": 0.4281553683,
				"element": "C" 
			},
			{
				"x": -2.9720750634,
				"y": -0.2189981247,
				"z": 1.2940829475,
				"element": "N" 
			},
			{
				"x": -1.7510410369,
				"y": 0.3848312131,
				"z": 1.5241554082,
				"element": "N" 
			},
			{
				"x": -0.8501029617,
				"y": -0.2238352325,
				"z": 0.7919883329,
				"element": "C" 
			},
			{
				"x": 0.5969779409,
				"y": 0.1601941476,
				"z": 0.731020775,
				"element": "C" 
			},
			{
				"x": 0.8205270893,
				"y": 1.5001703511,
				"z": -0.0318864895,
				"element": "C" 
			},
			{
				"x": 2.2623758311,
				"y": 1.9735108222,
				"z": 0.2168824015,
				"element": "C" 
			},
			{
				"x": 2.8062632697,
				"y": 1.1667888831,
				"z": 1.7835434944,
				"element": "S" 
			},
			{
				"x": 3.1385309519,
				"y": 2.1661665726,
				"z": 2.8087040956,
				"element": "O" 
			},
			{
				"x": 3.7601806236,
				"y": 0.0984364535,
				"z": 1.4338857581,
				"element": "O" 
			},
			{
				"x": 1.197528891,
				"y": 0.3779044795,
				"z": 2.1278896768,
				"element": "C" 
			},
			{
				"x": -1.4351910308,
				"y": -1.2467904353,
				"z": 0.0689861912,
				"element": "N" 
			},
			{
				"x": -0.8070771303,
				"y": -2.1673603261,
				"z": -0.8855217497,
				"element": "C" 
			},
			{
				"x": -0.55326621,
				"y": -1.5339409375,
				"z": -2.229674496,
				"element": "C" 
			},
			{
				"x": 0.6353735709,
				"y": -1.5265154205,
				"z": -2.8324855762,
				"element": "C" 
			},
			{
				"x": -4.9438228302,
				"y": -1.7841060682,
				"z": 0.588446126,
				"element": "H" 
			},
			{
				"x": 1.167403005,
				"y": -0.6288369883,
				"z": 0.2299474449,
				"element": "H" 
			},
			{
				"x": 0.621205518,
				"y": 1.3751524147,
				"z": -1.0993082153,
				"element": "H" 
			},
			{
				"x": 0.1065956126,
				"y": 2.2303437682,
				"z": 0.3598381092,
				"element": "H" 
			},
			{
				"x": 2.3530087672,
				"y": 3.0524806593,
				"z": 0.3492843202,
				"element": "H" 
			},
			{
				"x": 2.967687635,
				"y": 1.6329141612,
				"z": -0.5438131184,
				"element": "H" 
			},
			{
				"x": 0.5853128851,
				"y": 1.0619941456,
				"z": 2.7195669626,
				"element": "H" 
			},
			{
				"x": 1.3911698603,
				"y": -0.5388030996,
				"z": 2.6867027309,
				"element": "H" 
			},
			{
				"x": 0.1239056372,
				"y": -2.5442413895,
				"z": -0.4517805452,
				"element": "H" 
			},
			{
				"x": -1.4792166748,
				"y": -3.0269105265,
				"z": -0.9847468142,
				"element": "H" 
			},
			{
				"x": -1.4199455115,
				"y": -1.0838046536,
				"z": -2.7113596096,
				"element": "H" 
			},
			{
				"x": 1.5144328603,
				"y": -1.9732627801,
				"z": -2.3732932435,
				"element": "H" 
			},
			{
				"x": 0.7706811522,
				"y": -1.0858670066,
				"z": -3.8152439105,
				"element": "H" 
			}
		],
		 "valence_orbital": [ 
			{
				"type": "occ",
				"energy": -0.29516,
				"method": "rhf"
			},
			{
				"type": "occ",
				"energy": -0.29412,
				"method": "rhf"
			},
			{
				"type": "occ",
				"energy": -0.28216,
				"method": "rhf"
			},
			{
				"type": "occ",
				"energy": -0.26699,
				"method": "rhf"
			},
			{
				"type": "occ",
				"energy": -0.24017,
				"method": "rhf"
			},
			{
				"type": "unocc",
				"energy": -0.02556,
				"method": "rhf"
			},
			{
				"type": "unocc",
				"energy": -0.00622,
				"method": "rhf"
			},
			{
				"type": "unocc",
				"energy": -0.0013,
				"method": "rhf"
			},
			{
				"type": "unocc",
				"energy": 0.02783,
				"method": "rhf"
			},
			{
				"type": "unocc",
				"energy": 0.04497,
				"method": "rhf"
			}
		],
		"cosmo_sigma_profile": { 
			"-0.025": 0.0,
			"-0.024": 0.0,
			"-0.023": 0.0,
			"-0.022": 0.0,
			"-0.021": 0.0,
			"-0.02": 0.0,
			"-0.019": 0.0,
			"-0.018": 0.0,
			"-0.017": 0.0,
			"-0.016": 0.0,
			"-0.015": 0.0,
			"-0.014": 0.0,
			"-0.013": 0.208693760935,
			"-0.012": 1.31334401821,
			"-0.011": 1.49847306987,
			"-0.01": 2.12806552711,
			"-0.009": 4.71757286742,
			"-0.008": 11.7492661021,
			"-0.007": 16.4154529387,
			"-0.006": 23.0384933583,
			"-0.005": 24.8741665139,
			"-0.004": 22.4281825586,
			"-0.003": 19.837304808,
			"-0.002": 19.1161228184,
			"-0.001": 15.4426776267,
			"0.0": 13.3418846084,
			"0.001": 13.4712127002,
			"0.002": 11.0376003735,
			"0.003": 8.36339180535,
			"0.004": 7.86191973658,
			"0.005": 6.74061656277,
			"0.006": 6.55318668858,
			"0.007": 3.80319000711,
			"0.008": 4.0250179867,
			"0.009": 4.13350436234,
			"0.01": 6.14893966208,
			"0.011": 12.2290788504,
			"0.012": 12.9734473935,
			"0.013": 5.20468149307,
			"0.014": 2.71008920901,
			"0.015": 1.83665287556,
			"0.016": 1.48203912724,
			"0.017": 0.203803443429,
			"0.018": 0.0,
			"0.019": 0.0,
			"0.02": 0.0,
			"0.021": 0.0,
			"0.022": 0.0,
			"0.023": 0.0,
			"0.024": 0.0,
			"0.025": 0.0
		}
	}
}
