{
	 "smiles": "NC1=CC(=CC=C1O)C1=CC=CC=C1", 
	 "Tm": 473.15, 
	 "num_atms": 25, 
	 "gaussian": { 
		 "optdone": 1, 
		 "sigma_profile": "yes", 
		 "theory": "DFT", 
		 "functional": "B3LYP", 
		 "basiset": "6-31G**", 
		 "properties": { 
			 "R2extent": 3475.9531, 
			 "electric_dipole_moment_norm": 2.49471474321, 
			 "electric_quadrupole_moment_norm": 13.4350165675, 
			 "total_energy": -593.888949498, 
			 "HOMO_LUMO_gap": 0.18418, 
			 "cosmo_polarized_energy": -10.31, 
			 "cosmo_cavitation_energy": 28.65, 
			 "cosmo_dispersion_energy": -21.33, 
			 "cosmo_repulsion_energy": 1.67, 
			 "cosmo_total_nonelectrostatic_energy": 9.0, 
			 "SMD_solvation_energy": 5.26 
		},
		"coords": [
			{
				"x": 3.6059447055,
				"y": -0.4365877472,
				"z": 0.1180986261,
				"element": "N" 
			},
			{
				"x": 2.1813805688,
				"y": -0.5990745803,
				"z": -0.0515512798,
				"element": "C" 
			},
			{
				"x": 1.2206702603,
				"y": 0.3531570744,
				"z": 0.2788912372,
				"element": "C" 
			},
			{
				"x": -0.1492080207,
				"y": 0.1091091915,
				"z": 0.0812768454,
				"element": "C" 
			},
			{
				"x": -0.5199571668,
				"y": -1.1365568821,
				"z": -0.4578643959,
				"element": "C" 
			},
			{
				"x": 0.4261605225,
				"y": -2.0987318941,
				"z": -0.7970722652,
				"element": "C" 
			},
			{
				"x": 1.7844976426,
				"y": -1.8338378728,
				"z": -0.5997562868,
				"element": "C" 
			},
			{
				"x": 2.7245084222,
				"y": -2.7479246253,
				"z": -0.9342650516,
				"element": "O" 
			},
			{
				"x": -1.1675010512,
				"y": 1.1293707481,
				"z": 0.4347336075,
				"element": "C" 
			},
			{
				"x": -2.4046556634,
				"y": 0.7561326038,
				"z": 0.9891623256,
				"element": "C" 
			},
			{
				"x": -3.3626954593,
				"y": 1.7135366787,
				"z": 1.3196512535,
				"element": "C" 
			},
			{
				"x": -3.1054038638,
				"y": 3.0697406695,
				"z": 1.1100014249,
				"element": "C" 
			},
			{
				"x": -1.8807828155,
				"y": 3.4573879574,
				"z": 0.5628716838,
				"element": "C" 
			},
			{
				"x": -0.9257929103,
				"y": 2.498845093,
				"z": 0.2267864526,
				"element": "C" 
			},
			{
				"x": 3.9266095639,
				"y": 0.451880253,
				"z": -0.2562924503,
				"element": "H" 
			},
			{
				"x": 3.8685557006,
				"y": -0.4619803513,
				"z": 1.1008715036,
				"element": "H" 
			},
			{
				"x": 1.5419840615,
				"y": 1.2916349444,
				"z": 0.7240071626,
				"element": "H" 
			},
			{
				"x": -1.5699359715,
				"y": -1.3428867225,
				"z": -0.6429238396,
				"element": "H" 
			},
			{
				"x": 0.1323233239,
				"y": -3.0490789929,
				"z": -1.2302939031,
				"element": "H" 
			},
			{
				"x": 3.5730269638,
				"y": -2.2948991298,
				"z": -0.7489871289,
				"element": "H" 
			},
			{
				"x": -2.6051780355,
				"y": -0.2931365822,
				"z": 1.1852262079,
				"element": "H" 
			},
			{
				"x": -4.3085494862,
				"y": 1.3994463956,
				"z": 1.752486016,
				"element": "H" 
			},
			{
				"x": -3.8508345199,
				"y": 3.8158649181,
				"z": 1.369484404,
				"element": "H" 
			},
			{
				"x": -1.672068053,
				"y": 4.5089489727,
				"z": 0.3857196702,
				"element": "H" 
			},
			{
				"x": 0.0101012814,
				"y": 2.8112398804,
				"z": -0.2276618199,
				"element": "H" 
			}
		],
		 "valence_orbital": [ 
			{
				"type": "occ",
				"energy": -0.27959,
				"method": "rhf"
			},
			{
				"type": "occ",
				"energy": -0.25473,
				"method": "rhf"
			},
			{
				"type": "occ",
				"energy": -0.24696,
				"method": "rhf"
			},
			{
				"type": "occ",
				"energy": -0.24642,
				"method": "rhf"
			},
			{
				"type": "occ",
				"energy": -0.20136,
				"method": "rhf"
			},
			{
				"type": "unocc",
				"energy": -0.01718,
				"method": "rhf"
			},
			{
				"type": "unocc",
				"energy": -0.00417,
				"method": "rhf"
			},
			{
				"type": "unocc",
				"energy": 0.0025,
				"method": "rhf"
			},
			{
				"type": "unocc",
				"energy": 0.04202,
				"method": "rhf"
			},
			{
				"type": "unocc",
				"energy": 0.07041,
				"method": "rhf"
			}
		],
		"cosmo_sigma_profile": { 
			"-0.025": 0.0,
			"-0.024": 0.0,
			"-0.023": 0.0,
			"-0.022": 0.0,
			"-0.021": 0.0,
			"-0.02": 0.0,
			"-0.019": 0.0,
			"-0.018": 0.0,
			"-0.017": 0.0,
			"-0.016": 0.0,
			"-0.015": 0.0,
			"-0.014": 0.0,
			"-0.013": 0.0,
			"-0.012": 1.21616382142,
			"-0.011": 3.02736830574,
			"-0.01": 3.23095418263,
			"-0.009": 3.19915476782,
			"-0.008": 2.83950657862,
			"-0.007": 3.70808980411,
			"-0.006": 7.34353799607,
			"-0.005": 19.0074946163,
			"-0.004": 18.708685398,
			"-0.003": 19.7776706559,
			"-0.002": 12.4366854291,
			"-0.001": 12.9025406274,
			"0.0": 12.1150986153,
			"0.001": 12.9512266466,
			"0.002": 12.5114577265,
			"0.003": 17.8899392752,
			"0.004": 19.2818665185,
			"0.005": 19.2251083838,
			"0.006": 14.608543895,
			"0.007": 3.1638517346,
			"0.008": 2.1738550239,
			"0.009": 1.72088457126,
			"0.01": 1.2379148816,
			"0.011": 2.05998392743,
			"0.012": 1.94795071053,
			"0.013": 0.10903613369,
			"0.014": 0.0,
			"0.015": 0.0,
			"0.016": 0.0,
			"0.017": 0.0,
			"0.018": 0.0,
			"0.019": 0.0,
			"0.02": 0.0,
			"0.021": 0.0,
			"0.022": 0.0,
			"0.023": 0.0,
			"0.024": 0.0,
			"0.025": 0.0
		}
	}
}
