{
	 "smiles": "ClC1=CC(Cl)=C(Cl)C(I)=C1", 
	 "Tm": 325.15, 
	 "num_atms": 12, 
	 "gaussian": { 
		 "optdone": 1, 
		 "sigma_profile": "no", 
		 "theory": "DFT", 
		 "functional": "B3LYP", 
		 "basiset": "6-31G**", 
		 "properties": { 
			 "R2extent": 2540.2483, 
			 "electric_dipole_moment_norm": 0.841315077721, 
			 "electric_quadrupole_moment_norm": 5.31277779885, 
			 "total_energy": -1621.79367266, 
			 "HOMO_LUMO_gap": 0.19015, 
			 "cosmo_polarized_energy": -88735.33, 
			 "cosmo_cavitation_energy": 24.97, 
			 "cosmo_dispersion_energy": -20.26, 
			 "cosmo_repulsion_energy": 1.61, 
			 "cosmo_total_nonelectrostatic_energy": 6.31, 
			 "SMD_solvation_energy": 2.66 
		},
		"coords": [
			{
				"x": -2.0529166503,
				"y": -0.166242421,
				"z": -2.7459193612,
				"element": "Cl" 
			},
			{
				"x": -1.0280167225,
				"y": -0.1751885432,
				"z": -1.3272007365,
				"element": "C" 
			},
			{
				"x": -0.9280232537,
				"y": 0.9748739994,
				"z": -0.5508195695,
				"element": "C" 
			},
			{
				"x": -0.1098484492,
				"y": 0.960238392,
				"z": 0.5776310581,
				"element": "C" 
			},
			{
				"x": -0.009133161,
				"y": 2.4201453063,
				"z": 1.5268164445,
				"element": "Cl" 
			},
			{
				"x": 0.6111106766,
				"y": -0.1925844713,
				"z": 0.9401849411,
				"element": "C" 
			},
			{
				"x": 1.6216355224,
				"y": -0.1774863808,
				"z": 2.3524588806,
				"element": "Cl" 
			},
			{
				"x": 0.4887643259,
				"y": -1.3382307363,
				"z": 0.1352142603,
				"element": "C" 
			},
			{
				"x": 1.5187801422,
				"y": -3.1283276568,
				"z": 0.5741193802,
				"element": "I" 
			},
			{
				"x": -0.3284311061,
				"y": -1.3331135029,
				"z": -0.9971892454,
				"element": "C" 
			},
			{
				"x": -1.4739876368,
				"y": 1.8726200186,
				"z": -0.8116132642,
				"element": "H" 
			},
			{
				"x": -0.4194336874,
				"y": -2.2178040039,
				"z": -1.6139827879,
				"element": "H" 
			}
		],
		 "valence_orbital": [ 
			{
				"type": "occ",
				"energy": -0.32618,
				"method": "rhf"
			},
			{
				"type": "occ",
				"energy": -0.30352,
				"method": "rhf"
			},
			{
				"type": "occ",
				"energy": -0.27898,
				"method": "rhf"
			},
			{
				"type": "occ",
				"energy": -0.2645,
				"method": "rhf"
			},
			{
				"type": "occ",
				"energy": -0.25878,
				"method": "rhf"
			},
			{
				"type": "unocc",
				"energy": -0.06863,
				"method": "rhf"
			},
			{
				"type": "unocc",
				"energy": -0.04945,
				"method": "rhf"
			},
			{
				"type": "unocc",
				"energy": -0.04577,
				"method": "rhf"
			},
			{
				"type": "unocc",
				"energy": -0.00028,
				"method": "rhf"
			},
			{
				"type": "unocc",
				"energy": 0.02029,
				"method": "rhf"
			}
		],
		"cosmo_sigma_profile": { 
			"0.0": 0.0,
			"0.0": 0.0,
			"0.0": 0.0,
			"0.0": 0.0,
			"0.0": 0.0,
			"0.0": 0.0,
			"0.0": 0.0,
			"0.0": 0.0,
			"0.0": 0.0,
			"0.0": 0.0,
			"0.0": 0.0,
			"0.0": 0.0,
			"0.0": 0.0,
			"0.0": 0.0,
			"0.0": 0.0,
			"0.0": 0.0,
			"0.0": 0.0,
			"0.0": 0.0,
			"0.0": 0.0,
			"0.0": 0.0,
			"0.0": 0.0,
			"0.0": 0.0,
			"0.0": 0.0,
			"0.0": 0.0,
			"0.0": 0.0,
			"0.0": 0.0,
			"0.0": 0.0,
			"0.0": 0.0,
			"0.0": 0.0,
			"0.0": 0.0,
			"0.0": 0.0,
			"0.0": 0.0,
			"0.0": 0.0,
			"0.0": 0.0,
			"0.0": 0.0,
			"0.0": 0.0,
			"0.0": 0.0,
			"0.0": 0.0,
			"0.0": 0.0,
			"0.0": 0.0,
			"0.0": 0.0,
			"0.0": 0.0,
			"0.0": 0.0,
			"0.0": 0.0,
			"0.0": 0.0,
			"0.0": 0.0,
			"0.0": 0.0,
			"0.0": 0.0,
			"0.0": 0.0,
			"0.0": 0.0,
			"0.0": 0.0
		}
	}
}
