{
	 "smiles": "N#CCN=C(C1=CC=CC=C1)C1=CC=CC=C1", 
	 "Tm": 357.65, 
	 "num_atms": 29, 
	 "gaussian": { 
		 "optdone": 1, 
		 "sigma_profile": "yes", 
		 "theory": "DFT", 
		 "functional": "B3LYP", 
		 "basiset": "6-31G**", 
		 "properties": { 
			 "R2extent": 4803.71, 
			 "electric_dipole_moment_norm": 6.06866812489, 
			 "electric_quadrupole_moment_norm": 17.8231252602, 
			 "total_energy": -688.294027306, 
			 "HOMO_LUMO_gap": 0.18964, 
			 "cosmo_polarized_energy": -13.03, 
			 "cosmo_cavitation_energy": 34.68, 
			 "cosmo_dispersion_energy": -23.52, 
			 "cosmo_repulsion_energy": 1.85, 
			 "cosmo_total_nonelectrostatic_energy": 13.02, 
			 "SMD_solvation_energy": 5.16 
		},
		"coords": [
			{
				"x": -1.5749988197,
				"y": 2.0117236947,
				"z": -3.4957828589,
				"element": "N" 
			},
			{
				"x": -0.8887132892,
				"y": 1.5452462276,
				"z": -2.6855611221,
				"element": "C" 
			},
			{
				"x": 0.012720312,
				"y": 0.949544962,
				"z": -1.685983119,
				"element": "C" 
			},
			{
				"x": -0.6515128637,
				"y": 0.8556074275,
				"z": -0.3899860828,
				"element": "N" 
			},
			{
				"x": -0.0086597648,
				"y": 0.3576664041,
				"z": 0.604429392,
				"element": "C" 
			},
			{
				"x": -0.7021841692,
				"y": 0.2696057418,
				"z": 1.91971869,
				"element": "C" 
			},
			{
				"x": -2.0270337852,
				"y": 0.7262298552,
				"z": 2.0454209395,
				"element": "C" 
			},
			{
				"x": -2.6851961389,
				"y": 0.6496314948,
				"z": 3.2675137784,
				"element": "C" 
			},
			{
				"x": -2.0353398083,
				"y": 0.1166755461,
				"z": 4.3865462223,
				"element": "C" 
			},
			{
				"x": -0.7222357319,
				"y": -0.3387561253,
				"z": 4.272654291,
				"element": "C" 
			},
			{
				"x": -0.0582873287,
				"y": -0.2634319072,
				"z": 3.0472769605,
				"element": "C" 
			},
			{
				"x": 1.4079621883,
				"y": -0.1391713471,
				"z": 0.5035863551,
				"element": "C" 
			},
			{
				"x": 1.669146177,
				"y": -1.4696731354,
				"z": 0.1451621847,
				"element": "C" 
			},
			{
				"x": 2.9841392476,
				"y": -1.9169123636,
				"z": 0.0056115029,
				"element": "C" 
			},
			{
				"x": 4.0498314921,
				"y": -1.0411878746,
				"z": 0.2220838729,
				"element": "C" 
			},
			{
				"x": 3.7969870122,
				"y": 0.2839983408,
				"z": 0.5818367863,
				"element": "C" 
			},
			{
				"x": 2.4831543579,
				"y": 0.734352146,
				"z": 0.7222540037,
				"element": "C" 
			},
			{
				"x": 0.9227503514,
				"y": 1.5639033707,
				"z": -1.6406094451,
				"element": "H" 
			},
			{
				"x": 0.3313851003,
				"y": -0.0336594062,
				"z": -2.059360477,
				"element": "H" 
			},
			{
				"x": -2.5173755717,
				"y": 1.136540741,
				"z": 1.1697515299,
				"element": "H" 
			},
			{
				"x": -3.7079989601,
				"y": 1.0055741541,
				"z": 3.3515873774,
				"element": "H" 
			},
			{
				"x": -2.5521239605,
				"y": 0.0580823007,
				"z": 5.3402610147,
				"element": "H" 
			},
			{
				"x": -0.2114282761,
				"y": -0.7536339864,
				"z": 5.1367257345,
				"element": "H" 
			},
			{
				"x": 0.9630683307,
				"y": -0.6200679043,
				"z": 2.9677086928,
				"element": "H" 
			},
			{
				"x": 0.8414080616,
				"y": -2.1546924629,
				"z": -0.0173530309,
				"element": "H" 
			},
			{
				"x": 3.1749786329,
				"y": -2.9499968748,
				"z": -0.2701115273,
				"element": "H" 
			},
			{
				"x": 5.0723751853,
				"y": -1.3904276627,
				"z": 0.1135652487,
				"element": "H" 
			},
			{
				"x": 4.6221725009,
				"y": 0.9684745036,
				"z": 0.7558086167,
				"element": "H" 
			},
			{
				"x": 2.2888095182,
				"y": 1.7643541398,
				"z": 1.008844469,
				"element": "H" 
			}
		],
		 "valence_orbital": [ 
			{
				"type": "occ",
				"energy": -0.27372,
				"method": "rhf"
			},
			{
				"type": "occ",
				"energy": -0.27073,
				"method": "rhf"
			},
			{
				"type": "occ",
				"energy": -0.26108,
				"method": "rhf"
			},
			{
				"type": "occ",
				"energy": -0.25748,
				"method": "rhf"
			},
			{
				"type": "occ",
				"energy": -0.24645,
				"method": "rhf"
			},
			{
				"type": "unocc",
				"energy": -0.05681,
				"method": "rhf"
			},
			{
				"type": "unocc",
				"energy": -0.02445,
				"method": "rhf"
			},
			{
				"type": "unocc",
				"energy": -0.02372,
				"method": "rhf"
			},
			{
				"type": "unocc",
				"energy": -0.00511,
				"method": "rhf"
			},
			{
				"type": "unocc",
				"energy": 0.03171,
				"method": "rhf"
			}
		],
		"cosmo_sigma_profile": { 
			"-0.025": 0.0,
			"-0.024": 0.0,
			"-0.023": 0.0,
			"-0.022": 0.0,
			"-0.021": 0.0,
			"-0.02": 0.0,
			"-0.019": 0.0,
			"-0.018": 0.0,
			"-0.017": 0.0,
			"-0.016": 0.0,
			"-0.015": 0.0,
			"-0.014": 0.0,
			"-0.013": 0.0,
			"-0.012": 0.0,
			"-0.011": 0.0,
			"-0.01": 0.0,
			"-0.009": 1.59738555389,
			"-0.008": 4.32096092342,
			"-0.007": 6.34241964318,
			"-0.006": 20.3495418045,
			"-0.005": 25.4137485948,
			"-0.004": 25.9062152474,
			"-0.003": 19.5709955776,
			"-0.002": 17.9670514234,
			"-0.001": 16.1396104897,
			"0.0": 17.3062947586,
			"0.001": 16.2704268772,
			"0.002": 17.6645343296,
			"0.003": 20.6231955102,
			"0.004": 21.2432834162,
			"0.005": 17.9064618684,
			"0.006": 4.88336644603,
			"0.007": 5.19637386626,
			"0.008": 5.19917237698,
			"0.009": 5.09698391744,
			"0.01": 3.71697903068,
			"0.011": 2.39874642685,
			"0.012": 2.54104135773,
			"0.013": 1.58437832461,
			"0.014": 0.0920344203875,
			"0.015": 0.0,
			"0.016": 0.0,
			"0.017": 0.0,
			"0.018": 0.0,
			"0.019": 0.0,
			"0.02": 0.0,
			"0.021": 0.0,
			"0.022": 0.0,
			"0.023": 0.0,
			"0.024": 0.0,
			"0.025": 0.0
		}
	}
}
