{
	 "smiles": "NC1=NC(SC2=CC=CC=C2)=NS1", 
	 "Tm": 428.15, 
	 "num_atms": 20, 
	 "gaussian": { 
		 "optdone": 1, 
		 "sigma_profile": "yes", 
		 "theory": "DFT", 
		 "functional": "B3LYP", 
		 "basiset": "6-31G**", 
		 "properties": { 
			 "R2extent": 4263.9192, 
			 "electric_dipole_moment_norm": 5.18904901307, 
			 "electric_quadrupole_moment_norm": 18.0474350768, 
			 "total_energy": -1269.68522143, 
			 "HOMO_LUMO_gap": 0.19366, 
			 "cosmo_polarized_energy": -16.07, 
			 "cosmo_cavitation_energy": 28.43, 
			 "cosmo_dispersion_energy": -21.57, 
			 "cosmo_repulsion_energy": 1.65, 
			 "cosmo_total_nonelectrostatic_energy": 8.51, 
			 "SMD_solvation_energy": 1.65 
		},
		"coords": [
			{
				"x": -3.1387986072,
				"y": -3.1003012403,
				"z": -0.8213465694,
				"element": "N" 
			},
			{
				"x": -3.0067732154,
				"y": -1.804906011,
				"z": -1.2193308189,
				"element": "C" 
			},
			{
				"x": -1.8868043116,
				"y": -1.1289784468,
				"z": -1.1294333422,
				"element": "N" 
			},
			{
				"x": -2.1234217484,
				"y": 0.1495609138,
				"z": -1.5642156455,
				"element": "C" 
			},
			{
				"x": -0.8284243576,
				"y": 1.3760135412,
				"z": -1.5996020828,
				"element": "S" 
			},
			{
				"x": 0.5715422401,
				"y": 0.4912320017,
				"z": -0.9048072892,
				"element": "C" 
			},
			{
				"x": 1.5566350968,
				"y": -0.0184941551,
				"z": -1.7579957051,
				"element": "C" 
			},
			{
				"x": 2.6878471338,
				"y": -0.637931532,
				"z": -1.2234795885,
				"element": "C" 
			},
			{
				"x": 2.8363282554,
				"y": -0.7515573627,
				"z": 0.1597487773,
				"element": "C" 
			},
			{
				"x": 1.8540623623,
				"y": -0.2400697606,
				"z": 1.0113210981,
				"element": "C" 
			},
			{
				"x": 0.7257843215,
				"y": 0.3868061023,
				"z": 0.4829090476,
				"element": "C" 
			},
			{
				"x": -3.3075422272,
				"y": 0.5250196515,
				"z": -1.9837167709,
				"element": "N" 
			},
			{
				"x": -4.326718758,
				"y": -0.8227986417,
				"z": -1.8458507313,
				"element": "S" 
			},
			{
				"x": -3.8972718819,
				"y": -3.6520122378,
				"z": -1.1904643174,
				"element": "H" 
			},
			{
				"x": -2.2712739595,
				"y": -3.5911977952,
				"z": -0.6563108894,
				"element": "H" 
			},
			{
				"x": 1.4333379003,
				"y": 0.0716357937,
				"z": -2.8323339753,
				"element": "H" 
			},
			{
				"x": 3.4512041621,
				"y": -1.0314857149,
				"z": -1.8885800025,
				"element": "H" 
			},
			{
				"x": 3.7175865863,
				"y": -1.2329095604,
				"z": 0.5741609239,
				"element": "H" 
			},
			{
				"x": 1.9694568747,
				"y": -0.3224781486,
				"z": 2.0882885119,
				"element": "H" 
			},
			{
				"x": -0.0360558665,
				"y": 0.7946526031,
				"z": 1.1390393696,
				"element": "H" 
			}
		],
		 "valence_orbital": [ 
			{
				"type": "occ",
				"energy": -0.27953,
				"method": "rhf"
			},
			{
				"type": "occ",
				"energy": -0.25899,
				"method": "rhf"
			},
			{
				"type": "occ",
				"energy": -0.25481,
				"method": "rhf"
			},
			{
				"type": "occ",
				"energy": -0.25045,
				"method": "rhf"
			},
			{
				"type": "occ",
				"energy": -0.21592,
				"method": "rhf"
			},
			{
				"type": "unocc",
				"energy": -0.02226,
				"method": "rhf"
			},
			{
				"type": "unocc",
				"energy": -0.01841,
				"method": "rhf"
			},
			{
				"type": "unocc",
				"energy": -0.00694,
				"method": "rhf"
			},
			{
				"type": "unocc",
				"energy": -0.0032,
				"method": "rhf"
			},
			{
				"type": "unocc",
				"energy": 0.04751,
				"method": "rhf"
			}
		],
		"cosmo_sigma_profile": { 
			"-0.025": 0.0,
			"-0.024": 0.0,
			"-0.023": 0.0,
			"-0.022": 0.0,
			"-0.021": 0.0,
			"-0.02": 0.0,
			"-0.019": 0.0,
			"-0.018": 0.0,
			"-0.017": 0.0,
			"-0.016": 1.03085802904,
			"-0.015": 2.83659797026,
			"-0.014": 3.07050322727,
			"-0.013": 1.81127748452,
			"-0.012": 2.9426510356,
			"-0.011": 2.9970692252,
			"-0.01": 1.70582226767,
			"-0.009": 1.80127811923,
			"-0.008": 1.69862404231,
			"-0.007": 3.31172315557,
			"-0.006": 11.5032124765,
			"-0.005": 12.4576125625,
			"-0.004": 13.6220539051,
			"-0.003": 8.63749635751,
			"-0.002": 12.4715613195,
			"-0.001": 16.0491166681,
			"0.0": 16.8112947413,
			"0.001": 17.7379471013,
			"0.002": 17.743270617,
			"0.003": 19.9074377587,
			"0.004": 19.3135973856,
			"0.005": 12.8341883323,
			"0.006": 7.88915256445,
			"0.007": 5.36728333941,
			"0.008": 4.82670925526,
			"0.009": 2.97986189047,
			"0.01": 2.0204942591,
			"0.011": 2.51521492258,
			"0.012": 2.37799929246,
			"0.013": 0.985685017304,
			"0.014": 1.29943338356,
			"0.015": 0.201590265412,
			"0.016": 0.0,
			"0.017": 0.0,
			"0.018": 0.0,
			"0.019": 0.0,
			"0.02": 0.0,
			"0.021": 0.0,
			"0.022": 0.0,
			"0.023": 0.0,
			"0.024": 0.0,
			"0.025": 0.0
		}
	}
}
