{
	 "smiles": "CC1=C(C=C(Br)C=C1)S(N)(=O)=O", 
	 "Tm": 413.15, 
	 "num_atms": 20, 
	 "gaussian": { 
		 "optdone": 1, 
		 "sigma_profile": "yes", 
		 "theory": "DFT", 
		 "functional": "B3LYP", 
		 "basiset": "6-31G**", 
		 "properties": { 
			 "R2extent": 4982.7024, 
			 "electric_dipole_moment_norm": 1.32528499577, 
			 "electric_quadrupole_moment_norm": 16.0253715707, 
			 "total_energy": -3446.29195594, 
			 "HOMO_LUMO_gap": 0.20667, 
			 "cosmo_polarized_energy": -13.88, 
			 "cosmo_cavitation_energy": 27.27, 
			 "cosmo_dispersion_energy": -21.04, 
			 "cosmo_repulsion_energy": 1.63, 
			 "cosmo_total_nonelectrostatic_energy": 7.86, 
			 "SMD_solvation_energy": 3.31 
		},
		"coords": [
			{
				"x": 0.6880813327,
				"y": 0.2125475503,
				"z": 1.7579619107,
				"element": "C" 
			},
			{
				"x": -0.1438572745,
				"y": -0.3177672402,
				"z": 0.6155303179,
				"element": "C" 
			},
			{
				"x": 0.3768746024,
				"y": -1.1571493866,
				"z": -0.3916910429,
				"element": "C" 
			},
			{
				"x": -0.4093264253,
				"y": -1.6369796128,
				"z": -1.4395277017,
				"element": "C" 
			},
			{
				"x": -1.7533116235,
				"y": -1.2752654834,
				"z": -1.4932029375,
				"element": "C" 
			},
			{
				"x": -2.8397498623,
				"y": -1.9255644101,
				"z": -2.9224217547,
				"element": "Br" 
			},
			{
				"x": -2.3082340527,
				"y": -0.4496945734,
				"z": -0.5213988723,
				"element": "C" 
			},
			{
				"x": -1.4993378936,
				"y": 0.0158805825,
				"z": 0.5154360892,
				"element": "C" 
			},
			{
				"x": 2.1183045557,
				"y": -1.612274373,
				"z": -0.3023991584,
				"element": "S" 
			},
			{
				"x": 2.3387544284,
				"y": -2.5984435671,
				"z": -1.6574729102,
				"element": "N" 
			},
			{
				"x": 2.3108161176,
				"y": -2.4518544454,
				"z": 0.8853064672,
				"element": "O" 
			},
			{
				"x": 2.9184753188,
				"y": -0.4000166551,
				"z": -0.5092115259,
				"element": "O" 
			},
			{
				"x": 1.5292934591,
				"y": 0.8061211804,
				"z": 1.3876862224,
				"element": "H" 
			},
			{
				"x": 0.0805618996,
				"y": 0.8393973487,
				"z": 2.4143975516,
				"element": "H" 
			},
			{
				"x": 1.1101415288,
				"y": -0.6061650609,
				"z": 2.3484386288,
				"element": "H" 
			},
			{
				"x": 0.0267174402,
				"y": -2.278695008,
				"z": -2.1930751046,
				"element": "H" 
			},
			{
				"x": -3.355133116,
				"y": -0.1726672492,
				"z": -0.5703252048,
				"element": "H" 
			},
			{
				"x": -1.9349922952,
				"y": 0.6606000136,
				"z": 1.2734444911,
				"element": "H" 
			},
			{
				"x": 2.6258056971,
				"y": -3.5246981918,
				"z": -1.3530806481,
				"element": "H" 
			},
			{
				"x": 3.0263161626,
				"y": -2.1718114185,
				"z": -2.2724948177,
				"element": "H" 
			}
		],
		 "valence_orbital": [ 
			{
				"type": "occ",
				"energy": -0.30817,
				"method": "rhf"
			},
			{
				"type": "occ",
				"energy": -0.29966,
				"method": "rhf"
			},
			{
				"type": "occ",
				"energy": -0.29364,
				"method": "rhf"
			},
			{
				"type": "occ",
				"energy": -0.27545,
				"method": "rhf"
			},
			{
				"type": "occ",
				"energy": -0.24912,
				"method": "rhf"
			},
			{
				"type": "unocc",
				"energy": -0.04245,
				"method": "rhf"
			},
			{
				"type": "unocc",
				"energy": -0.02535,
				"method": "rhf"
			},
			{
				"type": "unocc",
				"energy": -0.00476,
				"method": "rhf"
			},
			{
				"type": "unocc",
				"energy": 0.04533,
				"method": "rhf"
			},
			{
				"type": "unocc",
				"energy": 0.07433,
				"method": "rhf"
			}
		],
		"cosmo_sigma_profile": { 
			"-0.025": 0.0,
			"-0.024": 0.0,
			"-0.023": 0.0,
			"-0.022": 0.0,
			"-0.021": 0.0,
			"-0.02": 0.0,
			"-0.019": 0.0,
			"-0.018": 0.0,
			"-0.017": 0.0,
			"-0.016": 0.141493884236,
			"-0.015": 1.96096419803,
			"-0.014": 2.24349577758,
			"-0.013": 2.30903340325,
			"-0.012": 2.76735177985,
			"-0.011": 2.18655252494,
			"-0.01": 2.15173910864,
			"-0.009": 1.39583954177,
			"-0.008": 2.50292805834,
			"-0.007": 6.6070059372,
			"-0.006": 8.0737709735,
			"-0.005": 9.17044270311,
			"-0.004": 10.9550391127,
			"-0.003": 14.2402523049,
			"-0.002": 13.0975751247,
			"-0.001": 18.8773747622,
			"0.0": 16.5186056466,
			"0.001": 22.8486437214,
			"0.002": 19.2557868897,
			"0.003": 13.149536605,
			"0.004": 14.4625678335,
			"0.005": 5.27860616878,
			"0.006": 2.16756043284,
			"0.007": 2.62803596917,
			"0.008": 3.30178572987,
			"0.009": 3.70921248312,
			"0.01": 8.2445051278,
			"0.011": 8.97718926244,
			"0.012": 1.44034752075,
			"0.013": 0.0,
			"0.014": 0.0,
			"0.015": 0.0,
			"0.016": 0.0,
			"0.017": 0.0,
			"0.018": 0.0,
			"0.019": 0.0,
			"0.02": 0.0,
			"0.021": 0.0,
			"0.022": 0.0,
			"0.023": 0.0,
			"0.024": 0.0,
			"0.025": 0.0
		}
	}
}
