{
	 "smiles": "OCC1CCCCN1", 
	 "Tm": 342.15, 
	 "num_atms": 21, 
	 "gaussian": { 
		 "optdone": 1, 
		 "sigma_profile": "yes", 
		 "theory": "DFT", 
		 "functional": "B3LYP", 
		 "basiset": "6-31G**", 
		 "properties": { 
			 "R2extent": 1288.4746, 
			 "electric_dipole_moment_norm": 1.40129233567, 
			 "electric_quadrupole_moment_norm": 6.92623172873, 
			 "total_energy": -366.43304956, 
			 "HOMO_LUMO_gap": 0.27106, 
			 "cosmo_polarized_energy": -7.15, 
			 "cosmo_cavitation_energy": 21.22, 
			 "cosmo_dispersion_energy": -16.36, 
			 "cosmo_repulsion_energy": 1.37, 
			 "cosmo_total_nonelectrostatic_energy": 6.23, 
			 "SMD_solvation_energy": 0.84 
		},
		"coords": [
			{
				"x": -0.3230997402,
				"y": 1.278441332,
				"z": 1.7196352158,
				"element": "O" 
			},
			{
				"x": 0.8557314149,
				"y": 1.2132930821,
				"z": 0.9156924252,
				"element": "C" 
			},
			{
				"x": 0.4450713274,
				"y": 0.844064463,
				"z": -0.50635191,
				"element": "C" 
			},
			{
				"x": -0.2373634616,
				"y": -0.5601677769,
				"z": -0.5937400858,
				"element": "C" 
			},
			{
				"x": -1.7586576652,
				"y": -0.426699826,
				"z": -0.7404065258,
				"element": "C" 
			},
			{
				"x": -2.1219719837,
				"y": 0.369736008,
				"z": -2.0104930471,
				"element": "C" 
			},
			{
				"x": -1.1143577893,
				"y": 1.5318191187,
				"z": -2.2450181071,
				"element": "C" 
			},
			{
				"x": -0.3771715518,
				"y": 1.9380628932,
				"z": -1.0468930228,
				"element": "N" 
			},
			{
				"x": -0.0822278514,
				"y": 1.6278363356,
				"z": 2.585652113,
				"element": "H" 
			},
			{
				"x": 1.3699477558,
				"y": 2.1853728544,
				"z": 0.8946957777,
				"element": "H" 
			},
			{
				"x": 1.5569944862,
				"y": 0.4576102805,
				"z": 1.3020991654,
				"element": "H" 
			},
			{
				"x": 1.3755217597,
				"y": 0.8127630549,
				"z": -1.0931129909,
				"element": "H" 
			},
			{
				"x": 0.0087936731,
				"y": -1.156621335,
				"z": 0.2919495255,
				"element": "H" 
			},
			{
				"x": 0.1615632268,
				"y": -1.1064964716,
				"z": -1.4583851143,
				"element": "H" 
			},
			{
				"x": -2.1484649446,
				"y": 0.0827243645,
				"z": 0.1473780724,
				"element": "H" 
			},
			{
				"x": -2.2309801483,
				"y": -1.4152099707,
				"z": -0.7645789972,
				"element": "H" 
			},
			{
				"x": -3.1424321647,
				"y": 0.7609640386,
				"z": -1.918588238,
				"element": "H" 
			},
			{
				"x": -2.1243095298,
				"y": -0.2953117697,
				"z": -2.8837728611,
				"element": "H" 
			},
			{
				"x": -1.6250597328,
				"y": 2.4103587093,
				"z": -2.6542221144,
				"element": "H" 
			},
			{
				"x": -0.3696610832,
				"y": 1.2342621354,
				"z": -2.9947905188,
				"element": "H" 
			},
			{
				"x": -1.0357659973,
				"y": 2.2162984797,
				"z": -0.3217487615,
				"element": "H" 
			}
		],
		 "valence_orbital": [ 
			{
				"type": "occ",
				"energy": -0.32804,
				"method": "rhf"
			},
			{
				"type": "occ",
				"energy": -0.29973,
				"method": "rhf"
			},
			{
				"type": "occ",
				"energy": -0.29706,
				"method": "rhf"
			},
			{
				"type": "occ",
				"energy": -0.27053,
				"method": "rhf"
			},
			{
				"type": "occ",
				"energy": -0.20539,
				"method": "rhf"
			},
			{
				"type": "unocc",
				"energy": 0.06567,
				"method": "rhf"
			},
			{
				"type": "unocc",
				"energy": 0.09916,
				"method": "rhf"
			},
			{
				"type": "unocc",
				"energy": 0.11044,
				"method": "rhf"
			},
			{
				"type": "unocc",
				"energy": 0.12955,
				"method": "rhf"
			},
			{
				"type": "unocc",
				"energy": 0.14858,
				"method": "rhf"
			}
		],
		"cosmo_sigma_profile": { 
			"-0.025": 0.0,
			"-0.024": 0.0,
			"-0.023": 0.0,
			"-0.022": 0.0,
			"-0.021": 0.0,
			"-0.02": 0.0,
			"-0.019": 0.0,
			"-0.018": 0.0,
			"-0.017": 0.0,
			"-0.016": 0.40462664413,
			"-0.015": 1.28807611132,
			"-0.014": 0.608821682487,
			"-0.013": 0.996132321716,
			"-0.012": 1.07579583361,
			"-0.011": 1.17489664825,
			"-0.01": 0.408129379087,
			"-0.009": 0.701929991725,
			"-0.008": 0.978378696122,
			"-0.007": 1.15555582673,
			"-0.006": 1.76753994812,
			"-0.005": 1.73180546462,
			"-0.004": 4.15432328468,
			"-0.003": 13.6193271666,
			"-0.002": 29.9885568422,
			"-0.001": 26.2388915289,
			"0.0": 20.2521897085,
			"0.001": 18.3773616017,
			"0.002": 9.31822174448,
			"0.003": 4.33643707005,
			"0.004": 2.33291225099,
			"0.005": 2.75123961107,
			"0.006": 2.60284596072,
			"0.007": 2.04475484694,
			"0.008": 2.7407310271,
			"0.009": 1.88524916679,
			"0.01": 2.94723834502,
			"0.011": 1.7345007891,
			"0.012": 1.02255965443,
			"0.013": 0.511388550523,
			"0.014": 0.642067818105,
			"0.015": 0.898270988958,
			"0.016": 0.490326389108,
			"0.017": 0.60225499375,
			"0.018": 0.337401714218,
			"0.019": 0.368648659648,
			"0.02": 0.0369666866461,
			"0.021": 0.0,
			"0.022": 0.0,
			"0.023": 0.0,
			"0.024": 0.0,
			"0.025": 0.0
		}
	}
}
