{
	 "smiles": "COCC1=NN=C(NN)S1", 
	 "Tm": 383.15, 
	 "num_atms": 18, 
	 "gaussian": { 
		 "optdone": 1, 
		 "sigma_profile": "yes", 
		 "theory": "DFT", 
		 "functional": "B3LYP", 
		 "basiset": "6-31G**", 
		 "properties": { 
			 "R2extent": 2161.2339, 
			 "electric_dipole_moment_norm": 2.55723928876, 
			 "electric_quadrupole_moment_norm": 8.63566129199, 
			 "total_energy": -849.5757097, 
			 "HOMO_LUMO_gap": 0.20601, 
			 "cosmo_polarized_energy": -15.36, 
			 "cosmo_cavitation_energy": 23.95, 
			 "cosmo_dispersion_energy": -17.97, 
			 "cosmo_repulsion_energy": 1.44, 
			 "cosmo_total_nonelectrostatic_energy": 7.42, 
			 "SMD_solvation_energy": 2.92 
		},
		"coords": [
			{
				"x": -1.7848632493,
				"y": 1.0074818743,
				"z": -2.9921236562,
				"element": "C" 
			},
			{
				"x": -0.4272820032,
				"y": 0.8103250838,
				"z": -3.3557589577,
				"element": "O" 
			},
			{
				"x": 0.0389586029,
				"y": -0.5015188562,
				"z": -3.099089895,
				"element": "C" 
			},
			{
				"x": 0.213161085,
				"y": -0.8029396322,
				"z": -1.6353360847,
				"element": "C" 
			},
			{
				"x": -0.3393389196,
				"y": -1.8027436542,
				"z": -1.0218577101,
				"element": "N" 
			},
			{
				"x": -0.0402163534,
				"y": -1.8838826289,
				"z": 0.3107799908,
				"element": "N" 
			},
			{
				"x": 0.757769024,
				"y": -0.9192500474,
				"z": 0.6948223586,
				"element": "C" 
			},
			{
				"x": 1.2392113431,
				"y": -0.8050231259,
				"z": 1.9721028378,
				"element": "N" 
			},
			{
				"x": 1.7500362168,
				"y": 0.397668464,
				"z": 2.4836390621,
				"element": "N" 
			},
			{
				"x": 1.2106432795,
				"y": 0.2124781616,
				"z": -0.5758732833,
				"element": "S" 
			},
			{
				"x": -2.0346296185,
				"y": 2.0376081719,
				"z": -3.2552701708,
				"element": "H" 
			},
			{
				"x": -1.9517767589,
				"y": 0.8620952606,
				"z": -1.9160336219,
				"element": "H" 
			},
			{
				"x": -2.4496855165,
				"y": 0.3244508811,
				"z": -3.5414730718,
				"element": "H" 
			},
			{
				"x": 0.9990045116,
				"y": -0.5794678335,
				"z": -3.6203330341,
				"element": "H" 
			},
			{
				"x": -0.6387662731,
				"y": -1.2686159598,
				"z": -3.5014447337,
				"element": "H" 
			},
			{
				"x": 0.7601110822,
				"y": -1.3785677104,
				"z": 2.6545935167,
				"element": "H" 
			},
			{
				"x": 1.1834817955,
				"y": 1.1930597404,
				"z": 2.1890577226,
				"element": "H" 
			},
			{
				"x": 2.7008817519,
				"y": 0.5292418108,
				"z": 2.1484987308,
				"element": "H" 
			}
		],
		 "valence_orbital": [ 
			{
				"type": "occ",
				"energy": -0.29274,
				"method": "rhf"
			},
			{
				"type": "occ",
				"energy": -0.29035,
				"method": "rhf"
			},
			{
				"type": "occ",
				"energy": -0.2662,
				"method": "rhf"
			},
			{
				"type": "occ",
				"energy": -0.25899,
				"method": "rhf"
			},
			{
				"type": "occ",
				"energy": -0.231,
				"method": "rhf"
			},
			{
				"type": "unocc",
				"energy": -0.02499,
				"method": "rhf"
			},
			{
				"type": "unocc",
				"energy": 0.00124,
				"method": "rhf"
			},
			{
				"type": "unocc",
				"energy": 0.03562,
				"method": "rhf"
			},
			{
				"type": "unocc",
				"energy": 0.05834,
				"method": "rhf"
			},
			{
				"type": "unocc",
				"energy": 0.08436,
				"method": "rhf"
			}
		],
		"cosmo_sigma_profile": { 
			"-0.025": 0.0,
			"-0.024": 0.0,
			"-0.023": 0.0,
			"-0.022": 0.0,
			"-0.021": 0.0,
			"-0.02": 0.0,
			"-0.019": 0.0,
			"-0.018": 0.0,
			"-0.017": 0.0,
			"-0.016": 0.0,
			"-0.015": 0.204388755837,
			"-0.014": 1.08501578397,
			"-0.013": 1.01022592739,
			"-0.012": 3.21055500351,
			"-0.011": 3.89647172394,
			"-0.01": 4.60118823965,
			"-0.009": 3.59940251921,
			"-0.008": 3.07100300398,
			"-0.007": 6.27333721281,
			"-0.006": 6.99831474613,
			"-0.005": 11.5842768093,
			"-0.004": 14.8484254098,
			"-0.003": 14.0591880417,
			"-0.002": 14.7557387194,
			"-0.001": 13.4152798735,
			"0.0": 12.3521641409,
			"0.001": 9.54373617126,
			"0.002": 9.62345238936,
			"0.003": 7.89583788224,
			"0.004": 5.95902281453,
			"0.005": 4.6839366728,
			"0.006": 4.16453841389,
			"0.007": 3.32402835385,
			"0.008": 3.05806015208,
			"0.009": 4.82220061345,
			"0.01": 3.95783575456,
			"0.011": 4.47465480119,
			"0.012": 5.24704204069,
			"0.013": 4.07659452764,
			"0.014": 2.91201944377,
			"0.015": 2.2434597466,
			"0.016": 0.226183985005,
			"0.017": 0.0,
			"0.018": 0.0,
			"0.019": 0.0,
			"0.02": 0.0,
			"0.021": 0.0,
			"0.022": 0.0,
			"0.023": 0.0,
			"0.024": 0.0,
			"0.025": 0.0
		}
	}
}
