{
	 "smiles": "OC(=O)C1=CC=C(NS(=O)(=O)C2=CC=C(Br)C=C2)C=C1", 
	 "Tm": 541.15, 
	 "num_atms": 30, 
	 "gaussian": { 
		 "optdone": 1, 
		 "sigma_profile": "yes", 
		 "theory": "DFT", 
		 "functional": "B3LYP", 
		 "basiset": "6-31G**", 
		 "properties": { 
			 "R2extent": 14980.8959, 
			 "electric_dipole_moment_norm": 6.73318885893, 
			 "electric_quadrupole_moment_norm": 22.7277363417, 
			 "total_energy": -3826.58239183, 
			 "HOMO_LUMO_gap": 0.18341, 
			 "cosmo_polarized_energy": -25.69, 
			 "cosmo_cavitation_energy": 39.6, 
			 "cosmo_dispersion_energy": -29.14, 
			 "cosmo_repulsion_energy": 2.17, 
			 "cosmo_total_nonelectrostatic_energy": 12.63, 
			 "SMD_solvation_energy": 5.92 
		},
		"coords": [
			{
				"x": 4.0372341288,
				"y": 0.4680980491,
				"z": 4.4587317435,
				"element": "O" 
			},
			{
				"x": 3.8616362011,
				"y": 1.0106811567,
				"z": 3.2221558311,
				"element": "C" 
			},
			{
				"x": 4.7078369722,
				"y": 1.7377641388,
				"z": 2.7574878959,
				"element": "O" 
			},
			{
				"x": 2.5947079574,
				"y": 0.6593960221,
				"z": 2.5063203797,
				"element": "C" 
			},
			{
				"x": 2.5568930808,
				"y": 0.8319659601,
				"z": 1.1150293687,
				"element": "C" 
			},
			{
				"x": 1.4098371131,
				"y": 0.5468672054,
				"z": 0.3863761918,
				"element": "C" 
			},
			{
				"x": 0.2653924871,
				"y": 0.0747623521,
				"z": 1.0491022953,
				"element": "C" 
			},
			{
				"x": -0.9488948653,
				"y": -0.1607959035,
				"z": 0.3410314024,
				"element": "N" 
			},
			{
				"x": -0.9996971867,
				"y": -1.3159533246,
				"z": -0.9392450876,
				"element": "S" 
			},
			{
				"x": 0.1017709,
				"y": -0.9873953131,
				"z": -1.8430086159,
				"element": "O" 
			},
			{
				"x": -1.1513284558,
				"y": -2.6709753276,
				"z": -0.3991652219,
				"element": "O" 
			},
			{
				"x": -2.5576644977,
				"y": -0.8459928453,
				"z": -1.6862622047,
				"element": "C" 
			},
			{
				"x": -2.6505079646,
				"y": 0.3670978018,
				"z": -2.3738792245,
				"element": "C" 
			},
			{
				"x": -3.8550294759,
				"y": 0.7164624893,
				"z": -2.9775975793,
				"element": "C" 
			},
			{
				"x": -4.9420384918,
				"y": -0.1575321122,
				"z": -2.8886453959,
				"element": "C" 
			},
			{
				"x": -6.5897479272,
				"y": 0.3229296971,
				"z": -3.7143258706,
				"element": "Br" 
			},
			{
				"x": -4.8466444697,
				"y": -1.3734488361,
				"z": -2.2122902084,
				"element": "C" 
			},
			{
				"x": -3.6397717303,
				"y": -1.7223672981,
				"z": -1.6054805883,
				"element": "C" 
			},
			{
				"x": 0.2886894833,
				"y": -0.088107352,
				"z": 2.4408506884,
				"element": "C" 
			},
			{
				"x": 1.4403418765,
				"y": 0.2119019177,
				"z": 3.1622105643,
				"element": "C" 
			},
			{
				"x": 3.3807006841,
				"y": -0.2244587666,
				"z": 4.6152005765,
				"element": "H" 
			},
			{
				"x": 3.445308254,
				"y": 1.2070960533,
				"z": 0.6187813277,
				"element": "H" 
			},
			{
				"x": 1.3892375248,
				"y": 0.6825205474,
				"z": -0.6869933786,
				"element": "H" 
			},
			{
				"x": -1.719968726,
				"y": -0.3699713789,
				"z": 0.9721475523,
				"element": "H" 
			},
			{
				"x": -1.7923048811,
				"y": 1.0269768671,
				"z": -2.4384261458,
				"element": "H" 
			},
			{
				"x": -3.9510001322,
				"y": 1.6527896793,
				"z": -3.514636723,
				"element": "H" 
			},
			{
				"x": -5.7000641899,
				"y": -2.0395041003,
				"z": -2.1629565242,
				"element": "H" 
			},
			{
				"x": -3.5314826111,
				"y": -2.6656481299,
				"z": -1.0815677647,
				"element": "H" 
			},
			{
				"x": -0.5978905933,
				"y": -0.4426235378,
				"z": 2.9599104915,
				"element": "H" 
			},
			{
				"x": 1.4129495354,
				"y": 0.1176642887,
				"z": 4.2449442243,
				"element": "H" 
			}
		],
		 "valence_orbital": [ 
			{
				"type": "occ",
				"energy": -0.29518,
				"method": "rhf"
			},
			{
				"type": "occ",
				"energy": -0.27793,
				"method": "rhf"
			},
			{
				"type": "occ",
				"energy": -0.27351,
				"method": "rhf"
			},
			{
				"type": "occ",
				"energy": -0.27182,
				"method": "rhf"
			},
			{
				"type": "occ",
				"energy": -0.24858,
				"method": "rhf"
			},
			{
				"type": "unocc",
				"energy": -0.06517,
				"method": "rhf"
			},
			{
				"type": "unocc",
				"energy": -0.05328,
				"method": "rhf"
			},
			{
				"type": "unocc",
				"energy": -0.04433,
				"method": "rhf"
			},
			{
				"type": "unocc",
				"energy": -0.02743,
				"method": "rhf"
			},
			{
				"type": "unocc",
				"energy": -0.01528,
				"method": "rhf"
			}
		],
		"cosmo_sigma_profile": { 
			"-0.025": 0.0,
			"-0.024": 0.0,
			"-0.023": 0.0,
			"-0.022": 0.0,
			"-0.021": 0.0,
			"-0.02": 0.0,
			"-0.019": 0.112007748087,
			"-0.018": 1.23114281658,
			"-0.017": 0.858373716325,
			"-0.016": 1.99494615157,
			"-0.015": 2.78288984899,
			"-0.014": 1.7705832578,
			"-0.013": 2.74892919119,
			"-0.012": 2.360531416,
			"-0.011": 2.1487261213,
			"-0.01": 2.73448291974,
			"-0.009": 3.53860657806,
			"-0.008": 11.0421804927,
			"-0.007": 12.8345450118,
			"-0.006": 13.0831057613,
			"-0.005": 12.3519077118,
			"-0.004": 13.7648972383,
			"-0.003": 17.1822279186,
			"-0.002": 16.276803045,
			"-0.001": 20.1117232778,
			"0.0": 28.652763106,
			"0.001": 30.4226027368,
			"0.002": 25.6402659926,
			"0.003": 21.757730821,
			"0.004": 14.4182779557,
			"0.005": 6.61056594498,
			"0.006": 5.65903198086,
			"0.007": 5.66132471229,
			"0.008": 6.33619025275,
			"0.009": 8.93510656998,
			"0.01": 12.281410775,
			"0.011": 9.74006130496,
			"0.012": 5.14779294852,
			"0.013": 1.63167081669,
			"0.014": 0.0630308640651,
			"0.015": 0.0,
			"0.016": 0.0,
			"0.017": 0.0,
			"0.018": 0.0,
			"0.019": 0.0,
			"0.02": 0.0,
			"0.021": 0.0,
			"0.022": 0.0,
			"0.023": 0.0,
			"0.024": 0.0,
			"0.0": 0.0
		}
	}
}
