{
	 "smiles": "CCOC(=O)OC1=C(NC2=CC(=CC=C12)[N+]([O-])=O)C1=CC=CC=C1", 
	 "Tm": 443.15, 
	 "num_atms": 38, 
	 "gaussian": { 
		 "optdone": 1, 
		 "sigma_profile": "yes", 
		 "theory": "DFT", 
		 "functional": "B3LYP", 
		 "basiset": "6-31G**", 
		 "properties": { 
			 "R2extent": 11656.0299, 
			 "electric_dipole_moment_norm": 7.58646814664, 
			 "electric_quadrupole_moment_norm": 39.4930126791, 
			 "total_energy": -1141.79496504, 
			 "HOMO_LUMO_gap": 0.13528, 
			 "cosmo_polarized_energy": -19.2, 
			 "cosmo_cavitation_energy": 44.11, 
			 "cosmo_dispersion_energy": -30.86, 
			 "cosmo_repulsion_energy": 2.36, 
			 "cosmo_total_nonelectrostatic_energy": 15.61, 
			 "SMD_solvation_energy": 10.8 
		},
		"coords": [
			{
				"x": 2.7612067265,
				"y": 2.5086727823,
				"z": -1.786273942,
				"element": "C" 
			},
			{
				"x": 1.4979437796,
				"y": 2.6189400203,
				"z": -2.6239440792,
				"element": "C" 
			},
			{
				"x": 0.307026223,
				"y": 2.4982357321,
				"z": -1.8024604493,
				"element": "O" 
			},
			{
				"x": -0.0829941255,
				"y": 1.2499438429,
				"z": -1.5334975355,
				"element": "C" 
			},
			{
				"x": 0.4286425807,
				"y": 0.2235199511,
				"z": -1.908959132,
				"element": "O" 
			},
			{
				"x": -1.1987557716,
				"y": 1.3500940911,
				"z": -0.7560752143,
				"element": "O" 
			},
			{
				"x": -1.7836315809,
				"y": 0.1773378197,
				"z": -0.3098029313,
				"element": "C" 
			},
			{
				"x": -1.9359460873,
				"y": -0.1342691445,
				"z": 1.0317951637,
				"element": "C" 
			},
			{
				"x": -2.6098194008,
				"y": -1.3458113035,
				"z": 1.0956036854,
				"element": "N" 
			},
			{
				"x": -2.9158132091,
				"y": -1.7859119114,
				"z": -0.1746119715,
				"element": "C" 
			},
			{
				"x": -3.607847165,
				"y": -2.9218503636,
				"z": -0.5824487903,
				"element": "C" 
			},
			{
				"x": -3.7503876808,
				"y": -3.0955677338,
				"z": -1.9548269572,
				"element": "C" 
			},
			{
				"x": -3.2280583758,
				"y": -2.1947573162,
				"z": -2.9046906596,
				"element": "C" 
			},
			{
				"x": -2.5415114524,
				"y": -1.0702307843,
				"z": -2.4831014366,
				"element": "C" 
			},
			{
				"x": -2.3850921005,
				"y": -0.8430297066,
				"z": -1.1020421316,
				"element": "C" 
			},
			{
				"x": -4.4750581579,
				"y": -4.2765744527,
				"z": -2.428016118,
				"element": "N" 
			},
			{
				"x": -4.5974398817,
				"y": -4.4283784753,
				"z": -3.6447849296,
				"element": "O" 
			},
			{
				"x": -4.9243284329,
				"y": -5.0542938928,
				"z": -1.5818849077,
				"element": "O" 
			},
			{
				"x": -1.5011028275,
				"y": 0.5649083202,
				"z": 2.2422435111,
				"element": "C" 
			},
			{
				"x": -1.2741994204,
				"y": -0.1490213535,
				"z": 3.4341111776,
				"element": "C" 
			},
			{
				"x": -0.8802326701,
				"y": 0.5113038422,
				"z": 4.5956074719,
				"element": "C" 
			},
			{
				"x": -0.698264416,
				"y": 1.8954722159,
				"z": 4.5887335364,
				"element": "C" 
			},
			{
				"x": -0.9113287528,
				"y": 2.612657648,
				"z": 3.4091597489,
				"element": "C" 
			},
			{
				"x": -1.3107508033,
				"y": 1.9596009406,
				"z": 2.2456211548,
				"element": "C" 
			},
			{
				"x": 2.765177013,
				"y": 3.2549882282,
				"z": -0.9866830639,
				"element": "H" 
			},
			{
				"x": 3.6385308252,
				"y": 2.6775302687,
				"z": -2.4192385844,
				"element": "H" 
			},
			{
				"x": 2.8449251847,
				"y": 1.5125253197,
				"z": -1.3449378465,
				"element": "H" 
			},
			{
				"x": 1.4666389613,
				"y": 1.8518632549,
				"z": -3.4012530979,
				"element": "H" 
			},
			{
				"x": 1.401440174,
				"y": 3.6054077362,
				"z": -3.0822070637,
				"element": "H" 
			},
			{
				"x": -3.0020483292,
				"y": -1.7223107558,
				"z": 1.9439563696,
				"element": "H" 
			},
			{
				"x": -4.0221738018,
				"y": -3.6488531069,
				"z": 0.1047920314,
				"element": "H" 
			},
			{
				"x": -3.3754225218,
				"y": -2.4082222501,
				"z": -3.9552066936,
				"element": "H" 
			},
			{
				"x": -2.12467115,
				"y": -0.3793181317,
				"z": -3.2066354613,
				"element": "H" 
			},
			{
				"x": -1.3722669193,
				"y": -1.231000279,
				"z": 3.4457636484,
				"element": "H" 
			},
			{
				"x": -0.7053585718,
				"y": -0.0580271829,
				"z": 5.5037783228,
				"element": "H" 
			},
			{
				"x": -0.389236147,
				"y": 2.4100745795,
				"z": 5.4936330295,
				"element": "H" 
			},
			{
				"x": -0.7729610884,
				"y": 3.6898203898,
				"z": 3.3955980548,
				"element": "H" 
			},
			{
				"x": -1.4832306265,
				"y": 2.5244311612,
				"z": 1.3371860907,
				"element": "H" 
			}
		],
		 "valence_orbital": [ 
			{
				"type": "occ",
				"energy": -0.28105,
				"method": "rhf"
			},
			{
				"type": "occ",
				"energy": -0.27733,
				"method": "rhf"
			},
			{
				"type": "occ",
				"energy": -0.26711,
				"method": "rhf"
			},
			{
				"type": "occ",
				"energy": -0.24085,
				"method": "rhf"
			},
			{
				"type": "occ",
				"energy": -0.2166,
				"method": "rhf"
			},
			{
				"type": "unocc",
				"energy": -0.08132,
				"method": "rhf"
			},
			{
				"type": "unocc",
				"energy": -0.04145,
				"method": "rhf"
			},
			{
				"type": "unocc",
				"energy": -0.01789,
				"method": "rhf"
			},
			{
				"type": "unocc",
				"energy": -0.00496,
				"method": "rhf"
			},
			{
				"type": "unocc",
				"energy": 0.02502,
				"method": "rhf"
			}
		],
		"cosmo_sigma_profile": { 
			"-0.025": 0.0,
			"-0.024": 0.0,
			"-0.023": 0.0,
			"-0.022": 0.0,
			"-0.021": 0.0,
			"-0.02": 0.0,
			"-0.019": 0.0,
			"-0.018": 0.0,
			"-0.017": 0.297191235117,
			"-0.016": 1.26377744454,
			"-0.015": 1.63571564336,
			"-0.014": 1.59813254073,
			"-0.013": 1.04886764108,
			"-0.012": 1.1551315436,
			"-0.011": 1.75086780066,
			"-0.01": 1.60146121587,
			"-0.009": 2.11837697713,
			"-0.008": 2.39353441038,
			"-0.007": 6.28743116977,
			"-0.006": 15.4419346891,
			"-0.005": 23.5723464854,
			"-0.004": 30.74145226,
			"-0.003": 26.4999655193,
			"-0.002": 23.0978996815,
			"-0.001": 25.9310735833,
			"0.0": 29.8854011955,
			"0.001": 30.9874395542,
			"0.002": 25.2113620343,
			"0.003": 19.9336321775,
			"0.004": 18.1658340138,
			"0.005": 12.7854686198,
			"0.006": 6.0451023202,
			"0.007": 8.89797821314,
			"0.008": 13.5765883531,
			"0.009": 8.79193485654,
			"0.01": 6.76526942948,
			"0.011": 5.56974350486,
			"0.012": 0.555950569843,
			"0.013": 0.0,
			"0.014": 0.0,
			"0.015": 0.0,
			"0.016": 0.0,
			"0.017": 0.0,
			"0.018": 0.0,
			"0.019": 0.0,
			"0.02": 0.0,
			"0.021": 0.0,
			"0.022": 0.0,
			"0.023": 0.0,
			"0.024": 0.0,
			"0.025": 0.0
		}
	}
}
