{
	 "smiles": "COC1=C(C=C(Br)C=C1)C(N)CO", 
	 "Tm": 373.15, 
	 "num_atms": 25, 
	 "gaussian": { 
		 "optdone": 1, 
		 "sigma_profile": "yes", 
		 "theory": "DFT", 
		 "functional": "B3LYP", 
		 "basiset": "6-31G**", 
		 "properties": { 
			 "R2extent": 4580.3896, 
			 "electric_dipole_moment_norm": 2.47992687594, 
			 "electric_quadrupole_moment_norm": 16.6731477088, 
			 "total_energy": -3126.76514384, 
			 "HOMO_LUMO_gap": 0.20569, 
			 "cosmo_polarized_energy": -13.27, 
			 "cosmo_cavitation_energy": 30.1, 
			 "cosmo_dispersion_energy": -22.1, 
			 "cosmo_repulsion_energy": 1.79, 
			 "cosmo_total_nonelectrostatic_energy": 9.78, 
			 "SMD_solvation_energy": 3.61 
		},
		"coords": [
			{
				"x": 0.6011257488,
				"y": 1.6109434826,
				"z": -3.2062331552,
				"element": "C" 
			},
			{
				"x": 0.5923562348,
				"y": 0.4707272913,
				"z": -2.360297714,
				"element": "O" 
			},
			{
				"x": 0.7813833723,
				"y": 0.6511151978,
				"z": -1.0135566802,
				"element": "C" 
			},
			{
				"x": 0.8460374029,
				"y": -0.5336358027,
				"z": -0.2433584056,
				"element": "C" 
			},
			{
				"x": 1.0434787533,
				"y": -0.4107281181,
				"z": 1.132177105,
				"element": "C" 
			},
			{
				"x": 1.1557642614,
				"y": 0.8470315522,
				"z": 1.7274372023,
				"element": "C" 
			},
			{
				"x": 1.4213081432,
				"y": 0.9687047168,
				"z": 3.6206745707,
				"element": "Br" 
			},
			{
				"x": 1.0860452759,
				"y": 2.0068108245,
				"z": 0.9694884752,
				"element": "C" 
			},
			{
				"x": 0.9017916763,
				"y": 1.9058261716,
				"z": -0.4126693154,
				"element": "C" 
			},
			{
				"x": 0.6564057631,
				"y": -1.8793492949,
				"z": -0.9437383675,
				"element": "C" 
			},
			{
				"x": -0.7029298872,
				"y": -2.0729748895,
				"z": -1.4832330089,
				"element": "N" 
			},
			{
				"x": 0.973263884,
				"y": -3.1021208813,
				"z": -0.0828036116,
				"element": "C" 
			},
			{
				"x": 2.3213237341,
				"y": -3.0285206762,
				"z": 0.3621367679,
				"element": "O" 
			},
			{
				"x": 0.4777133147,
				"y": 1.2330682895,
				"z": -4.2222707709,
				"element": "H" 
			},
			{
				"x": -0.2248556314,
				"y": 2.2949893169,
				"z": -2.973028695,
				"element": "H" 
			},
			{
				"x": 1.5503728376,
				"y": 2.1562213856,
				"z": -3.1357731592,
				"element": "H" 
			},
			{
				"x": 1.1489882888,
				"y": -1.298209256,
				"z": 1.7415950421,
				"element": "H" 
			},
			{
				"x": 1.1776380786,
				"y": 2.9798488586,
				"z": 1.4381469783,
				"element": "H" 
			},
			{
				"x": 0.8525119933,
				"y": 2.8133330355,
				"z": -1.0021810995,
				"element": "H" 
			},
			{
				"x": 1.3402548763,
				"y": -1.9056554103,
				"z": -1.7994763799,
				"element": "H" 
			},
			{
				"x": -0.8598320305,
				"y": -1.3812955406,
				"z": -2.2111391457,
				"element": "H" 
			},
			{
				"x": -1.3832608477,
				"y": -1.8725128934,
				"z": -0.7518633359,
				"element": "H" 
			},
			{
				"x": 0.2691666226,
				"y": -3.1514756007,
				"z": 0.76610613,
				"element": "H" 
			},
			{
				"x": 0.7919283517,
				"y": -3.9874289911,
				"z": -0.7060141058,
				"element": "H" 
			},
			{
				"x": 2.5237197831,
				"y": -3.8415127683,
				"z": 0.8406746789,
				"element": "H" 
			}
		],
		 "valence_orbital": [ 
			{
				"type": "occ",
				"energy": -0.27897,
				"method": "rhf"
			},
			{
				"type": "occ",
				"energy": -0.26918,
				"method": "rhf"
			},
			{
				"type": "occ",
				"energy": -0.2569,
				"method": "rhf"
			},
			{
				"type": "occ",
				"energy": -0.23513,
				"method": "rhf"
			},
			{
				"type": "occ",
				"energy": -0.21476,
				"method": "rhf"
			},
			{
				"type": "unocc",
				"energy": -0.00907,
				"method": "rhf"
			},
			{
				"type": "unocc",
				"energy": 0.00315,
				"method": "rhf"
			},
			{
				"type": "unocc",
				"energy": 0.01588,
				"method": "rhf"
			},
			{
				"type": "unocc",
				"energy": 0.0726,
				"method": "rhf"
			},
			{
				"type": "unocc",
				"energy": 0.08985,
				"method": "rhf"
			}
		],
		"cosmo_sigma_profile": { 
			"-0.025": 0.0,
			"-0.024": 0.0,
			"-0.023": 0.0,
			"-0.022": 0.0,
			"-0.021": 0.0,
			"-0.02": 0.0,
			"-0.019": 0.0,
			"-0.018": 0.0,
			"-0.017": 0.0,
			"-0.016": 0.545030672031,
			"-0.015": 1.04842574495,
			"-0.014": 1.08108057625,
			"-0.013": 0.471860082698,
			"-0.012": 1.06413807666,
			"-0.011": 1.11543410127,
			"-0.01": 0.838412847782,
			"-0.009": 2.46764620176,
			"-0.008": 1.83875077076,
			"-0.007": 6.11502308382,
			"-0.006": 14.744183044,
			"-0.005": 16.0036181989,
			"-0.004": 19.8730970835,
			"-0.003": 20.4305310399,
			"-0.002": 15.6906052081,
			"-0.001": 13.4956642167,
			"0.0": 13.8768851897,
			"0.001": 13.553186947,
			"0.002": 14.4619161964,
			"0.003": 19.3377532982,
			"0.004": 21.9869156958,
			"0.005": 16.6312074356,
			"0.006": 4.59593549215,
			"0.007": 2.74633672053,
			"0.008": 1.57968463833,
			"0.009": 1.58419182466,
			"0.01": 2.18343623909,
			"0.011": 2.83831571443,
			"0.012": 1.82555121233,
			"0.013": 1.99044222959,
			"0.014": 1.55903407355,
			"0.015": 0.633964179059,
			"0.016": 0.483792729788,
			"0.017": 0.583560753552,
			"0.018": 0.55450888545,
			"0.019": 0.337313692709,
			"0.02": 0.0,
			"0.021": 0.0,
			"0.022": 0.0,
			"0.023": 0.0,
			"0.024": 0.0,
			"0.025": 0.0
		}
	}
}
