{
	 "smiles": "CC(=O)OC1(C(C)=O)C(=C)CC2C3C=C(C)C4=CC(=O)CCC4(C)C3CCC12C", 
	 "Tm": 497.15, 
	 "num_atms": 61, 
	 "gaussian": { 
		 "optdone": 1, 
		 "sigma_profile": "yes", 
		 "theory": "DFT", 
		 "functional": "B3LYP", 
		 "basiset": "6-31G**", 
		 "properties": { 
			 "R2extent": 12804.8902, 
			 "electric_dipole_moment_norm": 3.62664187093, 
			 "electric_quadrupole_moment_norm": 42.4033137868, 
			 "total_energy": -1272.80382838, 
			 "HOMO_LUMO_gap": 0.17185, 
			 "cosmo_polarized_energy": -20.1, 
			 "cosmo_cavitation_energy": 54.08, 
			 "cosmo_dispersion_energy": -36.27, 
			 "cosmo_repulsion_energy": 2.65, 
			 "cosmo_total_nonelectrostatic_energy": 20.47, 
			 "SMD_solvation_energy": 11.07 
		},
		"coords": [
			{
				"x": -1.4650028424,
				"y": 1.7930622124,
				"z": 5.5254196363,
				"element": "C" 
			},
			{
				"x": -1.9113069379,
				"y": 1.1926482961,
				"z": 4.2147421523,
				"element": "C" 
			},
			{
				"x": -3.0085611644,
				"y": 1.3348547249,
				"z": 3.7261756273,
				"element": "O" 
			},
			{
				"x": -0.8808877267,
				"y": 0.5042177733,
				"z": 3.6504693985,
				"element": "O" 
			},
			{
				"x": -1.0858785412,
				"y": -0.5106371779,
				"z": 2.6460016633,
				"element": "C" 
			},
			{
				"x": -1.9514373199,
				"y": -1.6292869637,
				"z": 3.316988474,
				"element": "C" 
			},
			{
				"x": -2.1689952942,
				"y": -2.9507023725,
				"z": 2.5993137505,
				"element": "C" 
			},
			{
				"x": -2.3504300981,
				"y": -1.4756454795,
				"z": 4.4531914802,
				"element": "O" 
			},
			{
				"x": 0.3087307443,
				"y": -1.1112846461,
				"z": 2.3915194126,
				"element": "C" 
			},
			{
				"x": 1.1171230297,
				"y": -1.5119318984,
				"z": 3.372677983,
				"element": "C" 
			},
			{
				"x": 0.5935558016,
				"y": -1.1525116671,
				"z": 0.9074287095,
				"element": "C" 
			},
			{
				"x": -0.7735275647,
				"y": -0.9130698589,
				"z": 0.2359643038,
				"element": "C" 
			},
			{
				"x": -0.7973422623,
				"y": -0.4403054301,
				"z": -1.2539124432,
				"element": "C" 
			},
			{
				"x": 0.1236613033,
				"y": -1.3047277566,
				"z": -2.0745440466,
				"element": "C" 
			},
			{
				"x": 0.9317655882,
				"y": -0.8801630202,
				"z": -3.0638314105,
				"element": "C" 
			},
			{
				"x": 1.7351863676,
				"y": -1.8499955746,
				"z": -3.8973362935,
				"element": "C" 
			},
			{
				"x": 0.9416808015,
				"y": 0.5581131248,
				"z": -3.3949368186,
				"element": "C" 
			},
			{
				"x": 1.1138580545,
				"y": 0.9746371659,
				"z": -4.673605009,
				"element": "C" 
			},
			{
				"x": 0.7837794653,
				"y": 2.3308612407,
				"z": -5.1432199028,
				"element": "C" 
			},
			{
				"x": 0.9931544739,
				"y": 2.6914604079,
				"z": -6.2938369987,
				"element": "O" 
			},
			{
				"x": 0.0622740014,
				"y": 3.1962046417,
				"z": -4.124561223,
				"element": "C" 
			},
			{
				"x": 0.670952638,
				"y": 2.9931725731,
				"z": -2.7352613622,
				"element": "C" 
			},
			{
				"x": 0.6963507158,
				"y": 1.5205539552,
				"z": -2.2261021611,
				"element": "C" 
			},
			{
				"x": 1.896444493,
				"y": 1.4156345829,
				"z": -1.2546723922,
				"element": "C" 
			},
			{
				"x": -0.6716089895,
				"y": 1.0954289333,
				"z": -1.5737144774,
				"element": "C" 
			},
			{
				"x": -1.1800493841,
				"y": 1.9835828716,
				"z": -0.401167119,
				"element": "C" 
			},
			{
				"x": -0.9979208111,
				"y": 1.4488772034,
				"z": 1.0268498825,
				"element": "C" 
			},
			{
				"x": -1.5476096652,
				"y": 0.0140784375,
				"z": 1.2201509453,
				"element": "C" 
			},
			{
				"x": -3.0670571529,
				"y": -0.0201628823,
				"z": 0.9763144986,
				"element": "C" 
			},
			{
				"x": -1.4346459367,
				"y": 0.9953043544,
				"z": 6.274300893,
				"element": "H" 
			},
			{
				"x": -0.4594758961,
				"y": 2.2124110495,
				"z": 5.4427577872,
				"element": "H" 
			},
			{
				"x": -2.1762618452,
				"y": 2.5569773719,
				"z": 5.8389497639,
				"element": "H" 
			},
			{
				"x": -2.7377495931,
				"y": -2.8303318429,
				"z": 1.674411756,
				"element": "H" 
			},
			{
				"x": -1.2085905723,
				"y": -3.4053141841,
				"z": 2.3403689193,
				"element": "H" 
			},
			{
				"x": -2.7150730179,
				"y": -3.6134171038,
				"z": 3.272060995,
				"element": "H" 
			},
			{
				"x": 0.8309567678,
				"y": -1.412720335,
				"z": 4.4150874377,
				"element": "H" 
			},
			{
				"x": 2.0980721337,
				"y": -1.9302526785,
				"z": 3.1646891788,
				"element": "H" 
			},
			{
				"x": 1.0586062237,
				"y": -2.0920665431,
				"z": 0.5937174394,
				"element": "H" 
			},
			{
				"x": 1.3028917392,
				"y": -0.3579611242,
				"z": 0.6633091262,
				"element": "H" 
			},
			{
				"x": -1.2824628814,
				"y": -1.8857039449,
				"z": 0.2188380926,
				"element": "H" 
			},
			{
				"x": -1.8145726398,
				"y": -0.7050653534,
				"z": -1.5805944077,
				"element": "H" 
			},
			{
				"x": 0.0696716559,
				"y": -2.3746595322,
				"z": -1.8709132002,
				"element": "H" 
			},
			{
				"x": 1.3628412432,
				"y": -1.9030524954,
				"z": -4.9270618731,
				"element": "H" 
			},
			{
				"x": 2.7875526933,
				"y": -1.5505612227,
				"z": -3.9546889074,
				"element": "H" 
			},
			{
				"x": 1.6851108489,
				"y": -2.8576342382,
				"z": -3.4764358147,
				"element": "H" 
			},
			{
				"x": 1.3769482415,
				"y": 0.2737155927,
				"z": -5.460492161,
				"element": "H" 
			},
			{
				"x": -0.9996856158,
				"y": 2.9126667368,
				"z": -4.1385364973,
				"element": "H" 
			},
			{
				"x": 0.1195431771,
				"y": 4.2415200796,
				"z": -4.4402954536,
				"element": "H" 
			},
			{
				"x": 0.1700068881,
				"y": 3.6380631615,
				"z": -2.0086645682,
				"element": "H" 
			},
			{
				"x": 1.707227736,
				"y": 3.3492045197,
				"z": -2.7766874451,
				"element": "H" 
			},
			{
				"x": 2.0575243166,
				"y": 0.395707333,
				"z": -0.9080630667,
				"element": "H" 
			},
			{
				"x": 1.7472113349,
				"y": 2.0651376878,
				"z": -0.3853391389,
				"element": "H" 
			},
			{
				"x": 2.8150049768,
				"y": 1.7388788175,
				"z": -1.7545226335,
				"element": "H" 
			},
			{
				"x": -1.3870562903,
				"y": 1.2563184471,
				"z": -2.3898518683,
				"element": "H" 
			},
			{
				"x": -2.2469896262,
				"y": 2.1714145899,
				"z": -0.5614977588,
				"element": "H" 
			},
			{
				"x": -0.7127038068,
				"y": 2.9714716006,
				"z": -0.4462622495,
				"element": "H" 
			},
			{
				"x": 0.0599270735,
				"y": 1.4770944603,
				"z": 1.3094675679,
				"element": "H" 
			},
			{
				"x": -1.5154814847,
				"y": 2.1270854381,
				"z": 1.710221128,
				"element": "H" 
			},
			{
				"x": -3.5846054689,
				"y": 0.6202731088,
				"z": 1.6897256412,
				"element": "H" 
			},
			{
				"x": -3.4760537322,
				"y": -1.0295600988,
				"z": 1.0701822446,
				"element": "H" 
			},
			{
				"x": -3.3063903662,
				"y": 0.317592931,
				"z": -0.0356871869,
				"element": "H" 
			}
		],
		 "valence_orbital": [ 
			{
				"type": "occ",
				"energy": -0.27863,
				"method": "rhf"
			},
			{
				"type": "occ",
				"energy": -0.26024,
				"method": "rhf"
			},
			{
				"type": "occ",
				"energy": -0.2474,
				"method": "rhf"
			},
			{
				"type": "occ",
				"energy": -0.23431,
				"method": "rhf"
			},
			{
				"type": "occ",
				"energy": -0.23086,
				"method": "rhf"
			},
			{
				"type": "unocc",
				"energy": -0.05901,
				"method": "rhf"
			},
			{
				"type": "unocc",
				"energy": -0.02809,
				"method": "rhf"
			},
			{
				"type": "unocc",
				"energy": -0.00715,
				"method": "rhf"
			},
			{
				"type": "unocc",
				"energy": 0.01338,
				"method": "rhf"
			},
			{
				"type": "unocc",
				"energy": 0.02231,
				"method": "rhf"
			}
		],
		"cosmo_sigma_profile": { 
			"-0.025": 0.0,
			"-0.024": 0.0,
			"-0.023": 0.0,
			"-0.022": 0.0,
			"-0.021": 0.0,
			"-0.02": 0.0,
			"-0.019": 0.0,
			"-0.018": 0.0,
			"-0.017": 0.0,
			"-0.016": 0.0,
			"-0.015": 0.0,
			"-0.014": 0.0,
			"-0.013": 5.49805553747e-05,
			"-0.012": 0.00317088684015,
			"-0.011": 0.00631376513031,
			"-0.01": 0.0185939670631,
			"-0.009": 0.00570483141111,
			"-0.008": 0.0950719911067,
			"-0.007": 2.31674404309,
			"-0.006": 6.98259026753,
			"-0.005": 24.9063608333,
			"-0.004": 49.3203117683,
			"-0.003": 58.8772992736,
			"-0.002": 53.5420947166,
			"-0.001": 51.8089117311,
			"0.0": 41.6837210522,
			"0.001": 27.8487858501,
			"0.002": 18.5844100379,
			"0.003": 13.6948924805,
			"0.004": 10.869472004,
			"0.005": 7.03951362374,
			"0.006": 6.42960233953,
			"0.007": 5.43520648959,
			"0.008": 6.30231530273,
			"0.009": 5.67226029976,
			"0.01": 6.60725662093,
			"0.011": 6.73150482001,
			"0.012": 6.70322123935,
			"0.013": 5.91951800256,
			"0.014": 3.27565370932,
			"0.015": 0.665687468081,
			"0.016": 0.0,
			"0.017": 0.0,
			"0.018": 0.0,
			"0.019": 0.0,
			"0.02": 0.0,
			"0.021": 0.0,
			"0.022": 0.0,
			"0.023": 0.0,
			"0.024": 0.0,
			"0.025": 0.0
		}
	}
}
