{
	 "smiles": "N[C@@H](CCC(=O)OCC1=CC=CC=C1)C(O)=O", 
	 "Tm": 442.15, 
	 "num_atms": 32, 
	 "gaussian": { 
		 "optdone": 1, 
		 "sigma_profile": "yes", 
		 "theory": "DFT", 
		 "functional": "B3LYP", 
		 "basiset": "6-31G**", 
		 "properties": { 
			 "R2extent": 4936.8532, 
			 "electric_dipole_moment_norm": 1.72195964238, 
			 "electric_quadrupole_moment_norm": 28.0226027961, 
			 "total_energy": -821.982791149, 
			 "HOMO_LUMO_gap": 0.23513, 
			 "cosmo_polarized_energy": -22.44, 
			 "cosmo_cavitation_energy": 35.79, 
			 "cosmo_dispersion_energy": -24.01, 
			 "cosmo_repulsion_energy": 1.9, 
			 "cosmo_total_nonelectrostatic_energy": 13.67, 
			 "SMD_solvation_energy": 7.3 
		},
		"coords": [
			{
				"x": -1.0236186741,
				"y": -1.8364033127,
				"z": -0.1517056782,
				"element": "N" 
			},
			{
				"x": -0.6593082451,
				"y": -3.1948817591,
				"z": 0.2014555118,
				"element": "C" 
			},
			{
				"x": 0.8782968513,
				"y": -3.3628839896,
				"z": 0.1731070692,
				"element": "C" 
			},
			{
				"x": 1.5040875424,
				"y": -2.9419490349,
				"z": -1.1638147789,
				"element": "C" 
			},
			{
				"x": 1.5483358545,
				"y": -1.4489444134,
				"z": -1.4437029604,
				"element": "C" 
			},
			{
				"x": 1.4042674938,
				"y": -0.9564126636,
				"z": -2.5414376996,
				"element": "O" 
			},
			{
				"x": 1.8839850561,
				"y": -0.7501629425,
				"z": -0.3325332742,
				"element": "O" 
			},
			{
				"x": 2.0117225929,
				"y": 0.691579338,
				"z": -0.4791125906,
				"element": "C" 
			},
			{
				"x": 0.7170147774,
				"y": 1.4032795731,
				"z": -0.1738941193,
				"element": "C" 
			},
			{
				"x": 0.4436855668,
				"y": 1.8504196587,
				"z": 1.1251732856,
				"element": "C" 
			},
			{
				"x": -0.7583801187,
				"y": 2.497618331,
				"z": 1.4167758685,
				"element": "C" 
			},
			{
				"x": -1.6998433894,
				"y": 2.7051214772,
				"z": 0.4070821458,
				"element": "C" 
			},
			{
				"x": -1.4360497347,
				"y": 2.2614033762,
				"z": -0.8913182963,
				"element": "C" 
			},
			{
				"x": -0.2358392952,
				"y": 1.6126115923,
				"z": -1.1812627197,
				"element": "C" 
			},
			{
				"x": -1.1990965806,
				"y": -3.6328951961,
				"z": 1.57784782,
				"element": "C" 
			},
			{
				"x": -1.1430420599,
				"y": -4.9662286777,
				"z": 1.8461469815,
				"element": "O" 
			},
			{
				"x": -1.6304997095,
				"y": -2.8660598512,
				"z": 2.4017425713,
				"element": "O" 
			},
			{
				"x": -2.0323196189,
				"y": -1.7554087556,
				"z": -0.2463511778,
				"element": "H" 
			},
			{
				"x": -0.7634296781,
				"y": -1.2079504169,
				"z": 0.605671468,
				"element": "H" 
			},
			{
				"x": -1.0899403083,
				"y": -3.8655750835,
				"z": -0.5579173779,
				"element": "H" 
			},
			{
				"x": 1.1355192035,
				"y": -4.410066008,
				"z": 0.3727702408,
				"element": "H" 
			},
			{
				"x": 1.3186728415,
				"y": -2.7735229378,
				"z": 0.9838404751,
				"element": "H" 
			},
			{
				"x": 0.9914817685,
				"y": -3.4050222246,
				"z": -2.0111821473,
				"element": "H" 
			},
			{
				"x": 2.5454848247,
				"y": -3.2894641014,
				"z": -1.1887253473,
				"element": "H" 
			},
			{
				"x": 2.78797345,
				"y": 0.9675594107,
				"z": 0.2379939347,
				"element": "H" 
			},
			{
				"x": 2.3532419657,
				"y": 0.9052038618,
				"z": -1.4935409467,
				"element": "H" 
			},
			{
				"x": 1.178331528,
				"y": 1.6939284233,
				"z": 1.9115862166,
				"element": "H" 
			},
			{
				"x": -0.9572903461,
				"y": 2.8411826568,
				"z": 2.4278198759,
				"element": "H" 
			},
			{
				"x": -2.6344515804,
				"y": 3.2118286466,
				"z": 0.6305543766,
				"element": "H" 
			},
			{
				"x": -2.1662271225,
				"y": 2.4219968437,
				"z": -1.6795409473,
				"element": "H" 
			},
			{
				"x": -0.0313732674,
				"y": 1.2512865331,
				"z": -2.1841657909,
				"element": "H" 
			},
			{
				"x": -0.8017915882,
				"y": -5.447888354,
				"z": 1.0790380107,
				"element": "H" 
			}
		],
		 "valence_orbital": [ 
			{
				"type": "occ",
				"energy": -0.27931,
				"method": "rhf"
			},
			{
				"type": "occ",
				"energy": -0.268,
				"method": "rhf"
			},
			{
				"type": "occ",
				"energy": -0.25273,
				"method": "rhf"
			},
			{
				"type": "occ",
				"energy": -0.24909,
				"method": "rhf"
			},
			{
				"type": "occ",
				"energy": -0.24613,
				"method": "rhf"
			},
			{
				"type": "unocc",
				"energy": -0.011,
				"method": "rhf"
			},
			{
				"type": "unocc",
				"energy": -0.00223,
				"method": "rhf"
			},
			{
				"type": "unocc",
				"energy": 0.0045,
				"method": "rhf"
			},
			{
				"type": "unocc",
				"energy": 0.01893,
				"method": "rhf"
			},
			{
				"type": "unocc",
				"energy": 0.04264,
				"method": "rhf"
			}
		],
		"cosmo_sigma_profile": { 
			"-0.025": 0.0,
			"-0.024": 0.0,
			"-0.023": 0.0,
			"-0.022": 0.0,
			"-0.021": 0.0,
			"-0.02": 0.0,
			"-0.019": 0.347762249742,
			"-0.018": 1.05363699114,
			"-0.017": 1.28417633074,
			"-0.016": 1.25827056601,
			"-0.015": 0.92299446173,
			"-0.014": 1.21359134996,
			"-0.013": 0.89352966573,
			"-0.012": 1.43050266318,
			"-0.011": 1.86414328816,
			"-0.01": 2.41534784836,
			"-0.009": 2.86783906612,
			"-0.008": 3.32860880558,
			"-0.007": 6.07357503907,
			"-0.006": 17.2876585408,
			"-0.005": 22.15468995,
			"-0.004": 26.1830583528,
			"-0.003": 24.128586012,
			"-0.002": 19.9139282137,
			"-0.001": 15.4905944456,
			"0.0": 13.755127417,
			"0.001": 12.9365774071,
			"0.002": 13.0242938636,
			"0.003": 13.2575708946,
			"0.004": 13.903242041,
			"0.005": 11.5818202411,
			"0.006": 6.2886368682,
			"0.007": 5.81843519918,
			"0.008": 5.11430573516,
			"0.009": 5.31835426831,
			"0.01": 7.00858936311,
			"0.011": 9.2147084714,
			"0.012": 9.37691455365,
			"0.013": 4.41119649129,
			"0.014": 0.485302734896,
			"0.015": 0.0,
			"0.016": 0.0,
			"0.017": 0.0,
			"0.018": 0.0,
			"0.019": 0.0,
			"0.02": 0.0,
			"0.021": 0.0,
			"0.022": 0.0,
			"0.023": 0.0,
			"0.024": 0.0,
			"0.025": 0.0
		}
	}
}
