{
	 "smiles": "CC1=NOC2=C1C=C(C=N2)S(Cl)(=O)=O", 
	 "Tm": 384.15, 
	 "num_atms": 19, 
	 "gaussian": { 
		 "optdone": 1, 
		 "sigma_profile": "yes", 
		 "theory": "DFT", 
		 "functional": "B3LYP", 
		 "basiset": "6-31G**", 
		 "properties": { 
			 "R2extent": 5133.1777, 
			 "electric_dipole_moment_norm": 3.60086585282, 
			 "electric_quadrupole_moment_norm": 20.1087393128, 
			 "total_energy": -1463.19442456, 
			 "HOMO_LUMO_gap": 0.19635, 
			 "cosmo_polarized_energy": -13.68, 
			 "cosmo_cavitation_energy": 27.94, 
			 "cosmo_dispersion_energy": -20.99, 
			 "cosmo_repulsion_energy": 1.6, 
			 "cosmo_total_nonelectrostatic_energy": 8.55, 
			 "SMD_solvation_energy": 1.87 
		},
		"coords": [
			{
				"x": -0.119634407,
				"y": -0.8559784315,
				"z": -2.6303212151,
				"element": "C" 
			},
			{
				"x": -0.5088458084,
				"y": -0.6453769567,
				"z": -1.2030336793,
				"element": "C" 
			},
			{
				"x": -1.6416142262,
				"y": -1.1135638897,
				"z": -0.7459939435,
				"element": "N" 
			},
			{
				"x": -1.7393999071,
				"y": -0.7657056108,
				"z": 0.6239594007,
				"element": "O" 
			},
			{
				"x": -0.6346951686,
				"y": -0.0791088065,
				"z": 0.9601054974,
				"element": "C" 
			},
			{
				"x": 0.207328713,
				"y": 0.0433430626,
				"z": -0.1601017453,
				"element": "C" 
			},
			{
				"x": 1.4087535769,
				"y": 0.7295463512,
				"z": -0.0018449144,
				"element": "C" 
			},
			{
				"x": 1.6433825879,
				"y": 1.227288735,
				"z": 1.2788534852,
				"element": "C" 
			},
			{
				"x": 0.724081164,
				"y": 1.0390484556,
				"z": 2.3341197351,
				"element": "C" 
			},
			{
				"x": -0.4266235321,
				"y": 0.3827449601,
				"z": 2.1871459453,
				"element": "N" 
			},
			{
				"x": 3.1613398396,
				"y": 2.1035498812,
				"z": 1.5974824864,
				"element": "S" 
			},
			{
				"x": 2.5734842657,
				"y": 4.1142001782,
				"z": 1.220868391,
				"element": "Cl" 
			},
			{
				"x": 3.4688471973,
				"y": 2.026061231,
				"z": 3.0187310822,
				"element": "O" 
			},
			{
				"x": 4.1284426191,
				"y": 1.760787272,
				"z": 0.5626045901,
				"element": "O" 
			},
			{
				"x": 0.0154165201,
				"y": 0.1030726902,
				"z": -3.1412048359,
				"element": "H" 
			},
			{
				"x": 0.8246326234,
				"y": -1.4062419723,
				"z": -2.6977720621,
				"element": "H" 
			},
			{
				"x": -0.895372804,
				"y": -1.4235446677,
				"z": -3.1470282141,
				"element": "H" 
			},
			{
				"x": 2.1283192334,
				"y": 0.8712272251,
				"z": -0.8010391182,
				"element": "H" 
			},
			{
				"x": 0.949557513,
				"y": 1.4292502929,
				"z": 3.3223691144,
				"element": "H" 
			}
		],
		 "valence_orbital": [ 
			{
				"type": "occ",
				"energy": -0.33805,
				"method": "rhf"
			},
			{
				"type": "occ",
				"energy": -0.32615,
				"method": "rhf"
			},
			{
				"type": "occ",
				"energy": -0.31037,
				"method": "rhf"
			},
			{
				"type": "occ",
				"energy": -0.30185,
				"method": "rhf"
			},
			{
				"type": "occ",
				"energy": -0.30006,
				"method": "rhf"
			},
			{
				"type": "unocc",
				"energy": -0.10371,
				"method": "rhf"
			},
			{
				"type": "unocc",
				"energy": -0.09107,
				"method": "rhf"
			},
			{
				"type": "unocc",
				"energy": -0.05327,
				"method": "rhf"
			},
			{
				"type": "unocc",
				"energy": -0.00337,
				"method": "rhf"
			},
			{
				"type": "unocc",
				"energy": 0.04356,
				"method": "rhf"
			}
		],
		"cosmo_sigma_profile": { 
			"-0.025": 0.0,
			"-0.024": 0.0,
			"-0.023": 0.0,
			"-0.022": 0.0,
			"-0.021": 0.0,
			"-0.02": 0.0,
			"-0.019": 0.0,
			"-0.018": 0.0,
			"-0.017": 0.0,
			"-0.016": 0.0,
			"-0.015": 0.0,
			"-0.014": 0.0,
			"-0.013": 0.0,
			"-0.012": 0.0,
			"-0.011": 0.290981585111,
			"-0.01": 2.33906498597,
			"-0.009": 3.83385811383,
			"-0.008": 5.70279800157,
			"-0.007": 8.89476625408,
			"-0.006": 13.129146315,
			"-0.005": 16.3150248615,
			"-0.004": 19.2995890427,
			"-0.003": 20.9456755884,
			"-0.002": 15.944133648,
			"-0.001": 10.6653780548,
			"0.0": 9.97695667201,
			"0.001": 10.1326840661,
			"0.002": 13.3409355353,
			"0.003": 16.4474541285,
			"0.004": 8.82566554005,
			"0.005": 7.78571580542,
			"0.006": 9.57125353857,
			"0.007": 13.0975309551,
			"0.008": 11.0424963004,
			"0.009": 3.82244703996,
			"0.01": 2.41970904033,
			"0.011": 1.93337716611,
			"0.012": 1.9477069101,
			"0.013": 0.584895168051,
			"0.014": 0.0,
			"0.015": 0.0,
			"0.016": 0.0,
			"0.017": 0.0,
			"0.018": 0.0,
			"0.019": 0.0,
			"0.02": 0.0,
			"0.021": 0.0,
			"0.022": 0.0,
			"0.023": 0.0,
			"0.024": 0.0,
			"0.025": 0.0
		}
	}
}
