{
	 "smiles": "COC1=CC(COCC(N)=NO)=CC=C1", 
	 "Tm": 333.15, 
	 "num_atms": 29, 
	 "gaussian": { 
		 "optdone": 1, 
		 "sigma_profile": "yes", 
		 "theory": "DFT", 
		 "functional": "B3LYP", 
		 "basiset": "6-31G**", 
		 "properties": { 
			 "R2extent": 4626.1167, 
			 "electric_dipole_moment_norm": 1.5270911335, 
			 "electric_quadrupole_moment_norm": 6.29512689785, 
			 "total_energy": -724.597225627, 
			 "HOMO_LUMO_gap": 0.20377, 
			 "cosmo_polarized_energy": -15.08, 
			 "cosmo_cavitation_energy": 33.37, 
			 "cosmo_dispersion_energy": -23.34, 
			 "cosmo_repulsion_energy": 1.87, 
			 "cosmo_total_nonelectrostatic_energy": 11.9, 
			 "SMD_solvation_energy": 6.33 
		},
		"coords": [
			{
				"x": -1.2797563096,
				"y": -1.4811190142,
				"z": 3.1707346221,
				"element": "C" 
			},
			{
				"x": -0.4302182203,
				"y": -2.5939348853,
				"z": 2.9473382832,
				"element": "O" 
			},
			{
				"x": 0.1450364646,
				"y": -2.7302600621,
				"z": 1.7156645953,
				"element": "C" 
			},
			{
				"x": -0.0378536337,
				"y": -1.8427358313,
				"z": 0.65214507,
				"element": "C" 
			},
			{
				"x": 0.5967936958,
				"y": -2.0796063657,
				"z": -0.5776240647,
				"element": "C" 
			},
			{
				"x": 0.4000638674,
				"y": -1.0966711705,
				"z": -1.7035402014,
				"element": "C" 
			},
			{
				"x": 1.2402670696,
				"y": 0.0434677081,
				"z": -1.4791861734,
				"element": "O" 
			},
			{
				"x": 0.9042761121,
				"y": 1.1501948658,
				"z": -2.2986168741,
				"element": "C" 
			},
			{
				"x": -0.3558154313,
				"y": 1.8481830989,
				"z": -1.8292918674,
				"element": "C" 
			},
			{
				"x": -0.5562567259,
				"y": 1.9086606503,
				"z": -0.4756134885,
				"element": "N" 
			},
			{
				"x": -1.1355135003,
				"y": 2.3420229901,
				"z": -2.7287232772,
				"element": "N" 
			},
			{
				"x": -2.2059874372,
				"y": 3.0416959662,
				"z": -2.0868904724,
				"element": "O" 
			},
			{
				"x": 1.4112669793,
				"y": -3.2005987008,
				"z": -0.7352462163,
				"element": "C" 
			},
			{
				"x": 1.5900098761,
				"y": -4.0869838816,
				"z": 0.3328946505,
				"element": "C" 
			},
			{
				"x": 0.964334517,
				"y": -3.8589309252,
				"z": 1.5515907609,
				"element": "C" 
			},
			{
				"x": -2.14445253,
				"y": -1.4874506477,
				"z": 2.4945363358,
				"element": "H" 
			},
			{
				"x": -1.6290135709,
				"y": -1.5695117121,
				"z": 4.2007664901,
				"element": "H" 
			},
			{
				"x": -0.7432818946,
				"y": -0.530363816,
				"z": 3.053005427,
				"element": "H" 
			},
			{
				"x": -0.6674678987,
				"y": -0.9654777409,
				"z": 0.7526956648,
				"element": "H" 
			},
			{
				"x": -0.6512337751,
				"y": -0.7803185268,
				"z": -1.7505223559,
				"element": "H" 
			},
			{
				"x": 0.6558713803,
				"y": -1.5555766904,
				"z": -2.6700018818,
				"element": "H" 
			},
			{
				"x": 1.7519220503,
				"y": 1.8410511811,
				"z": -2.2148297201,
				"element": "H" 
			},
			{
				"x": 0.7870430036,
				"y": 0.8795939008,
				"z": -3.355955406,
				"element": "H" 
			},
			{
				"x": -1.2196162757,
				"y": 2.5926530666,
				"z": -0.1454583163,
				"element": "H" 
			},
			{
				"x": 0.2187249883,
				"y": 1.6579165618,
				"z": 0.1175367696,
				"element": "H" 
			},
			{
				"x": -2.6948595723,
				"y": 3.3886808326,
				"z": -2.8424583735,
				"element": "H" 
			},
			{
				"x": 1.9042203572,
				"y": -3.3814939246,
				"z": -1.6860837403,
				"element": "H" 
			},
			{
				"x": 2.2217499622,
				"y": -4.9623167917,
				"z": 0.2116154535,
				"element": "H" 
			},
			{
				"x": 1.0873464517,
				"y": -4.5359701355,
				"z": 2.3906183065,
				"element": "H" 
			}
		],
		 "valence_orbital": [ 
			{
				"type": "occ",
				"energy": -0.27307,
				"method": "rhf"
			},
			{
				"type": "occ",
				"energy": -0.26433,
				"method": "rhf"
			},
			{
				"type": "occ",
				"energy": -0.24526,
				"method": "rhf"
			},
			{
				"type": "occ",
				"energy": -0.21812,
				"method": "rhf"
			},
			{
				"type": "occ",
				"energy": -0.21082,
				"method": "rhf"
			},
			{
				"type": "unocc",
				"energy": -0.00705,
				"method": "rhf"
			},
			{
				"type": "unocc",
				"energy": 0.01402,
				"method": "rhf"
			},
			{
				"type": "unocc",
				"energy": 0.03713,
				"method": "rhf"
			},
			{
				"type": "unocc",
				"energy": 0.06873,
				"method": "rhf"
			},
			{
				"type": "unocc",
				"energy": 0.0925,
				"method": "rhf"
			}
		],
		"cosmo_sigma_profile": { 
			"-0.025": 0.0,
			"-0.024": 0.0,
			"-0.023": 0.0,
			"-0.022": 0.0,
			"-0.021": 0.0,
			"-0.02": 0.0,
			"-0.019": 0.0,
			"-0.018": 0.0,
			"-0.017": 0.123879634421,
			"-0.016": 0.795921132147,
			"-0.015": 0.944684231428,
			"-0.014": 1.09347327485,
			"-0.013": 0.832861229866,
			"-0.012": 1.71056627867,
			"-0.011": 2.21066032082,
			"-0.01": 2.33911463756,
			"-0.009": 2.48423685189,
			"-0.008": 2.65221208033,
			"-0.007": 3.66677645666,
			"-0.006": 10.025885551,
			"-0.005": 25.7666314665,
			"-0.004": 25.5564381861,
			"-0.003": 27.2747553367,
			"-0.002": 17.1899882137,
			"-0.001": 13.5585531328,
			"0.0": 12.7467412435,
			"0.001": 12.4723833802,
			"0.002": 11.7376248709,
			"0.003": 12.5471884543,
			"0.004": 13.0628272942,
			"0.005": 15.7061382628,
			"0.006": 9.82367521761,
			"0.007": 6.43175981231,
			"0.008": 8.02553790491,
			"0.009": 6.70909520441,
			"0.01": 5.52444526092,
			"0.011": 3.42572272907,
			"0.012": 3.27848491706,
			"0.013": 1.28707235163,
			"0.014": 0.8040086462,
			"0.015": 0.941480790845,
			"0.016": 0.146732699648,
			"0.017": 0.0,
			"0.018": 0.0,
			"0.019": 0.0,
			"0.02": 0.0,
			"0.021": 0.0,
			"0.022": 0.0,
			"0.023": 0.0,
			"0.024": 0.0,
			"0.025": 0.0
		}
	}
}
