{
	 "smiles": "CCCCCC(C)CO", 
	 "Tm": 161.15, 
	 "num_atms": 27, 
	 "gaussian": { 
		 "optdone": 1, 
		 "sigma_profile": "yes", 
		 "theory": "DFT", 
		 "functional": "B3LYP", 
		 "basiset": "6-31G**", 
		 "properties": { 
			 "R2extent": 2094.9667, 
			 "electric_dipole_moment_norm": 1.78201997183, 
			 "electric_quadrupole_moment_norm": 7.66337440231, 
			 "total_energy": -390.934109611, 
			 "HOMO_LUMO_gap": 0.30275, 
			 "cosmo_polarized_energy": -5.95, 
			 "cosmo_cavitation_energy": 27.32, 
			 "cosmo_dispersion_energy": -19.16, 
			 "cosmo_repulsion_energy": 1.59, 
			 "cosmo_total_nonelectrostatic_energy": 9.76, 
			 "SMD_solvation_energy": 4.08 
		},
		"coords": [
			{
				"x": -1.9050642924,
				"y": 1.249584362,
				"z": -1.1951481088,
				"element": "C" 
			},
			{
				"x": -0.4575990805,
				"y": 1.7524876749,
				"z": -1.2483689406,
				"element": "C" 
			},
			{
				"x": 0.356366783,
				"y": 1.4837580038,
				"z": 0.0302924207,
				"element": "C" 
			},
			{
				"x": 0.5622792387,
				"y": 0.0034726209,
				"z": 0.4022590068,
				"element": "C" 
			},
			{
				"x": 1.38530695,
				"y": -0.7884892439,
				"z": -0.6271667635,
				"element": "C" 
			},
			{
				"x": 1.6673067311,
				"y": -2.2695989605,
				"z": -0.2866903772,
				"element": "C" 
			},
			{
				"x": 2.4966298589,
				"y": -2.445008425,
				"z": 0.9941503932,
				"element": "C" 
			},
			{
				"x": 0.3872558259,
				"y": -3.1192366408,
				"z": -0.2084637292,
				"element": "C" 
			},
			{
				"x": -0.3864093212,
				"y": -3.1003743521,
				"z": -1.4022107361,
				"element": "O" 
			},
			{
				"x": -1.9604594396,
				"y": 0.1593185509,
				"z": -1.0976318593,
				"element": "H" 
			},
			{
				"x": -2.4516539554,
				"y": 1.5215413354,
				"z": -2.1039014772,
				"element": "H" 
			},
			{
				"x": -2.4426440489,
				"y": 1.6791066753,
				"z": -0.3417923211,
				"element": "H" 
			},
			{
				"x": -0.4658592879,
				"y": 2.8351516566,
				"z": -1.4272514613,
				"element": "H" 
			},
			{
				"x": 0.0510204846,
				"y": 1.3132782713,
				"z": -2.1158561292,
				"element": "H" 
			},
			{
				"x": -0.1376905165,
				"y": 1.9896842212,
				"z": 0.8711121582,
				"element": "H" 
			},
			{
				"x": 1.341037981,
				"y": 1.9597678842,
				"z": -0.0734984282,
				"element": "H" 
			},
			{
				"x": -0.4149359517,
				"y": -0.4731739444,
				"z": 0.5560643779,
				"element": "H" 
			},
			{
				"x": 1.0639652491,
				"y": -0.034397672,
				"z": 1.3767162383,
				"element": "H" 
			},
			{
				"x": 0.8871045235,
				"y": -0.7565082308,
				"z": -1.6047222322,
				"element": "H" 
			},
			{
				"x": 2.347630121,
				"y": -0.2790998852,
				"z": -0.7743129418,
				"element": "H" 
			},
			{
				"x": 2.2516127586,
				"y": -2.6729422754,
				"z": -1.1253644766,
				"element": "H" 
			},
			{
				"x": 1.9430561421,
				"y": -2.1335951906,
				"z": 1.8869925078,
				"element": "H" 
			},
			{
				"x": 2.7818257114,
				"y": -3.4932331484,
				"z": 1.1363267365,
				"element": "H" 
			},
			{
				"x": 3.4175457453,
				"y": -1.8536378087,
				"z": 0.9525927298,
				"element": "H" 
			},
			{
				"x": 0.6617157036,
				"y": -4.1682952968,
				"z": -0.052491056,
				"element": "H" 
			},
			{
				"x": -0.217177694,
				"y": -2.8173470869,
				"z": 0.6623790452,
				"element": "H" 
			},
			{
				"x": -0.7844662199,
				"y": -2.2252130949,
				"z": -1.4854145761,
				"element": "H" 
			}
		],
		 "valence_orbital": [ 
			{
				"type": "occ",
				"energy": -0.32113,
				"method": "rhf"
			},
			{
				"type": "occ",
				"energy": -0.3182,
				"method": "rhf"
			},
			{
				"type": "occ",
				"energy": -0.31007,
				"method": "rhf"
			},
			{
				"type": "occ",
				"energy": -0.3021,
				"method": "rhf"
			},
			{
				"type": "occ",
				"energy": -0.25849,
				"method": "rhf"
			},
			{
				"type": "unocc",
				"energy": 0.04426,
				"method": "rhf"
			},
			{
				"type": "unocc",
				"energy": 0.09119,
				"method": "rhf"
			},
			{
				"type": "unocc",
				"energy": 0.10114,
				"method": "rhf"
			},
			{
				"type": "unocc",
				"energy": 0.10926,
				"method": "rhf"
			},
			{
				"type": "unocc",
				"energy": 0.13338,
				"method": "rhf"
			}
		],
		"cosmo_sigma_profile": { 
			"-0.025": 0.0,
			"-0.024": 0.0,
			"-0.023": 0.0,
			"-0.022": 0.0,
			"-0.021": 0.0,
			"-0.02": 0.0,
			"-0.019": 0.0,
			"-0.018": 0.0,
			"-0.017": 0.0,
			"-0.016": 0.0,
			"-0.015": 0.0,
			"-0.014": 0.0,
			"-0.013": 0.0,
			"-0.012": 0.0,
			"-0.011": 0.0491900663374,
			"-0.01": 0.919634740024,
			"-0.009": 1.9104085553,
			"-0.008": 3.58395199145,
			"-0.007": 2.18529895777,
			"-0.006": 2.34268712347,
			"-0.005": 2.7965763263,
			"-0.004": 2.51913845551,
			"-0.003": 11.5891672656,
			"-0.002": 32.1375606063,
			"-0.001": 37.8594986724,
			"0.0": 39.5630255207,
			"0.001": 38.8257406607,
			"0.002": 13.8496923616,
			"0.003": 2.20386330761,
			"0.004": 1.4451541431,
			"0.005": 0.862336280759,
			"0.006": 1.14467369265,
			"0.007": 1.2138004622,
			"0.008": 1.65951640778,
			"0.009": 0.737022002921,
			"0.01": 1.12079071011,
			"0.011": 1.43972272777,
			"0.012": 1.75660362697,
			"0.013": 1.18351217129,
			"0.014": 2.26203500519,
			"0.015": 1.76920327129,
			"0.016": 0.0,
			"0.017": 0.0,
			"0.018": 0.0,
			"0.019": 0.0,
			"0.02": 0.0,
			"0.021": 0.0,
			"0.022": 0.0,
			"0.023": 0.0,
			"0.024": 0.0,
			"0.025": 0.0
		}
	}
}
