{
	 "smiles": "FC(F)(F)C(C(=O)NC1=CC(Cl)=CC=C1Cl)C(F)(F)F", 
	 "Tm": 484.15, 
	 "num_atms": 25, 
	 "gaussian": { 
		 "optdone": 1, 
		 "sigma_profile": "yes", 
		 "theory": "DFT", 
		 "functional": "B3LYP", 
		 "basiset": "6-31G**", 
		 "properties": { 
			 "R2extent": 7759.8546, 
			 "electric_dipole_moment_norm": 3.85063741996, 
			 "electric_quadrupole_moment_norm": 4.21320275206, 
			 "total_energy": -2033.50168775, 
			 "HOMO_LUMO_gap": 0.19774, 
			 "cosmo_polarized_energy": -11.41, 
			 "cosmo_cavitation_energy": 36.11, 
			 "cosmo_dispersion_energy": -24.95, 
			 "cosmo_repulsion_energy": 1.8, 
			 "cosmo_total_nonelectrostatic_energy": 12.95, 
			 "SMD_solvation_energy": 7.96 
		},
		"coords": [
			{
				"x": -0.1949087118,
				"y": -1.7931667708,
				"z": -2.7434021384,
				"element": "F" 
			},
			{
				"x": -1.2392818187,
				"y": -0.9277216955,
				"z": -2.8190754189,
				"element": "C" 
			},
			{
				"x": -1.5517062976,
				"y": -0.7945823115,
				"z": -4.1161026597,
				"element": "F" 
			},
			{
				"x": -2.2801101675,
				"y": -1.4891469619,
				"z": -2.1894197988,
				"element": "F" 
			},
			{
				"x": -0.8337261571,
				"y": 0.4054384422,
				"z": -2.1788373808,
				"element": "C" 
			},
			{
				"x": -0.6273530608,
				"y": 0.233264439,
				"z": -0.6514370745,
				"element": "C" 
			},
			{
				"x": -1.4466305774,
				"y": 0.6333734226,
				"z": 0.1535276622,
				"element": "O" 
			},
			{
				"x": 0.5574131104,
				"y": -0.3880114892,
				"z": -0.3418758559,
				"element": "N" 
			},
			{
				"x": 1.0580824945,
				"y": -0.7105563656,
				"z": 0.9310087656,
				"element": "C" 
			},
			{
				"x": 0.3904067228,
				"y": -0.3808272045,
				"z": 2.1211213937,
				"element": "C" 
			},
			{
				"x": 0.9589729443,
				"y": -0.728312333,
				"z": 3.343450571,
				"element": "C" 
			},
			{
				"x": 0.1075262316,
				"y": -0.3066170091,
				"z": 4.8172600925,
				"element": "Cl" 
			},
			{
				"x": 2.1777367236,
				"y": -1.3983249137,
				"z": 3.4299765397,
				"element": "C" 
			},
			{
				"x": 2.8423565212,
				"y": -1.7261812298,
				"z": 2.2503903278,
				"element": "C" 
			},
			{
				"x": 2.2914807579,
				"y": -1.386767841,
				"z": 1.0199053858,
				"element": "C" 
			},
			{
				"x": 3.1676129553,
				"y": -1.8176171468,
				"z": -0.4469270448,
				"element": "Cl" 
			},
			{
				"x": -1.8321452377,
				"y": 1.5323183544,
				"z": -2.4760763512,
				"element": "C" 
			},
			{
				"x": -1.8270805404,
				"y": 1.8138100611,
				"z": -3.796217843,
				"element": "F" 
			},
			{
				"x": -1.4699876204,
				"y": 2.6525302395,
				"z": -1.8284399178,
				"element": "F" 
			},
			{
				"x": -3.0837955681,
				"y": 1.2131480661,
				"z": -2.1283549624,
				"element": "F" 
			},
			{
				"x": 0.106035194,
				"y": 0.7037064773,
				"z": -2.6534784426,
				"element": "H" 
			},
			{
				"x": 1.1061132972,
				"y": -0.7457179386,
				"z": -1.1133819202,
				"element": "H" 
			},
			{
				"x": -0.556293322,
				"y": 0.1362875161,
				"z": 2.0722649956,
				"element": "H" 
			},
			{
				"x": 2.5992444239,
				"y": -1.6581631005,
				"z": 4.3936357302,
				"element": "H" 
			},
			{
				"x": 3.7926377027,
				"y": -2.246962707,
				"z": 2.2819853447,
				"element": "H" 
			}
		],
		 "valence_orbital": [ 
			{
				"type": "occ",
				"energy": -0.32318,
				"method": "rhf"
			},
			{
				"type": "occ",
				"energy": -0.323,
				"method": "rhf"
			},
			{
				"type": "occ",
				"energy": -0.29332,
				"method": "rhf"
			},
			{
				"type": "occ",
				"energy": -0.26743,
				"method": "rhf"
			},
			{
				"type": "occ",
				"energy": -0.24884,
				"method": "rhf"
			},
			{
				"type": "unocc",
				"energy": -0.0511,
				"method": "rhf"
			},
			{
				"type": "unocc",
				"energy": -0.03493,
				"method": "rhf"
			},
			{
				"type": "unocc",
				"energy": -0.00097,
				"method": "rhf"
			},
			{
				"type": "unocc",
				"energy": 0.00448,
				"method": "rhf"
			},
			{
				"type": "unocc",
				"energy": 0.02539,
				"method": "rhf"
			}
		],
		"cosmo_sigma_profile": { 
			"-0.025": 0.0,
			"-0.024": 0.0,
			"-0.023": 0.0,
			"-0.022": 0.0,
			"-0.021": 0.0,
			"-0.02": 0.0,
			"-0.019": 0.0,
			"-0.018": 0.0,
			"-0.017": 0.208837357198,
			"-0.016": 0.473878190742,
			"-0.015": 0.65596029346,
			"-0.014": 1.0740032552,
			"-0.013": 1.89216503318,
			"-0.012": 3.2169667517,
			"-0.011": 1.7907962568,
			"-0.01": 1.16731052979,
			"-0.009": 2.10373924502,
			"-0.008": 5.27684277789,
			"-0.007": 5.89026760344,
			"-0.006": 5.83873097427,
			"-0.005": 6.46115013197,
			"-0.004": 9.50690324523,
			"-0.003": 12.1520425175,
			"-0.002": 18.1025463218,
			"-0.001": 21.6466292653,
			"0.0": 28.7288306571,
			"0.001": 52.6230123585,
			"0.002": 61.4349797456,
			"0.003": 22.6907847268,
			"0.004": 15.444484959,
			"0.005": 4.89647019403,
			"0.006": 1.8948458136,
			"0.007": 2.20719549174,
			"0.008": 2.33933852151,
			"0.009": 2.2086440038,
			"0.01": 2.6600117149,
			"0.011": 0.758102558807,
			"0.012": 0.0,
			"0.013": 0.0,
			"0.014": 0.0,
			"0.015": 0.0,
			"0.016": 0.0,
			"0.017": 0.0,
			"0.018": 0.0,
			"0.019": 0.0,
			"0.02": 0.0,
			"0.021": 0.0,
			"0.022": 0.0,
			"0.023": 0.0,
			"0.024": 0.0,
			"0.025": 0.0
		}
	}
}
