{
	 "smiles": "O=C(C1=CC2=C(O1)C=CC=C2)C1=CN=CC=C1", 
	 "Tm": 380.15, 
	 "num_atms": 26, 
	 "gaussian": { 
		 "optdone": 1, 
		 "sigma_profile": "yes", 
		 "theory": "DFT", 
		 "functional": "B3LYP", 
		 "basiset": "6-31G**", 
		 "properties": { 
			 "R2extent": 5287.4797, 
			 "electric_dipole_moment_norm": 1.58101538892, 
			 "electric_quadrupole_moment_norm": 14.4297895262, 
			 "total_energy": -744.095717145, 
			 "HOMO_LUMO_gap": 0.15077, 
			 "cosmo_polarized_energy": -10.06, 
			 "cosmo_cavitation_energy": 31.34, 
			 "cosmo_dispersion_energy": -23.06, 
			 "cosmo_repulsion_energy": 1.74, 
			 "cosmo_total_nonelectrostatic_energy": 10.01, 
			 "SMD_solvation_energy": 4.58 
		},
		"coords": [
			{
				"x": 3.5329901272,
				"y": -0.3591985292,
				"z": 0.1135531331,
				"element": "O" 
			},
			{
				"x": 2.4767528764,
				"y": -0.3192060263,
				"z": -0.5151947067,
				"element": "C" 
			},
			{
				"x": 1.2295596336,
				"y": -0.5703775589,
				"z": 0.231744241,
				"element": "C" 
			},
			{
				"x": 1.1063688896,
				"y": -0.9528989596,
				"z": 1.5388578486,
				"element": "C" 
			},
			{
				"x": -0.2972934886,
				"y": -1.038305531,
				"z": 1.8124000421,
				"element": "C" 
			},
			{
				"x": -0.9361663168,
				"y": -0.6814820691,
				"z": 0.6067234746,
				"element": "C" 
			},
			{
				"x": -0.0109530383,
				"y": -0.3963098274,
				"z": -0.3557546857,
				"element": "O" 
			},
			{
				"x": -2.3177410542,
				"y": -0.6344696716,
				"z": 0.4501554368,
				"element": "C" 
			},
			{
				"x": -3.0754587567,
				"y": -0.9663048744,
				"z": 1.5703140401,
				"element": "C" 
			},
			{
				"x": -2.4686835765,
				"y": -1.3282194829,
				"z": 2.7919158048,
				"element": "C" 
			},
			{
				"x": -1.0872686598,
				"y": -1.3686195646,
				"z": 2.9286051569,
				"element": "C" 
			},
			{
				"x": 2.4897887211,
				"y": -0.0092414632,
				"z": -1.9808987659,
				"element": "C" 
			},
			{
				"x": 1.4422642495,
				"y": -0.2724880035,
				"z": -2.8792286897,
				"element": "C" 
			},
			{
				"x": 1.5085665256,
				"y": -0.0174949497,
				"z": -4.1919165134,
				"element": "N" 
			},
			{
				"x": 2.6387306358,
				"y": 0.5235935364,
				"z": -4.6609115247,
				"element": "C" 
			},
			{
				"x": 3.7473978267,
				"y": 0.8166670198,
				"z": -3.8617426955,
				"element": "C" 
			},
			{
				"x": 3.6717608708,
				"y": 0.5383100314,
				"z": -2.5038734645,
				"element": "C" 
			},
			{
				"x": 1.9356951472,
				"y": -1.1427944896,
				"z": 2.2036420238,
				"element": "H" 
			},
			{
				"x": -2.7711618524,
				"y": -0.3543606416,
				"z": -0.4941444855,
				"element": "H" 
			},
			{
				"x": -4.1588489869,
				"y": -0.9463147379,
				"z": 1.5019859583,
				"element": "H" 
			},
			{
				"x": -3.0990057574,
				"y": -1.5791079141,
				"z": 3.6395449436,
				"element": "H" 
			},
			{
				"x": -0.6270292137,
				"y": -1.6473882275,
				"z": 3.8714627587,
				"element": "H" 
			},
			{
				"x": 0.5156978064,
				"y": -0.7153841824,
				"z": -2.5321710821,
				"element": "H" 
			},
			{
				"x": 2.6615526156,
				"y": 0.7306317103,
				"z": -5.7296990369,
				"element": "H" 
			},
			{
				"x": 4.6418712001,
				"y": 1.2484683309,
				"z": -4.2994972667,
				"element": "H" 
			},
			{
				"x": 4.5002135755,
				"y": 0.7280960757,
				"z": -1.829571945,
				"element": "H" 
			}
		],
		 "valence_orbital": [ 
			{
				"type": "occ",
				"energy": -0.27329,
				"method": "rhf"
			},
			{
				"type": "occ",
				"energy": -0.26809,
				"method": "rhf"
			},
			{
				"type": "occ",
				"energy": -0.25372,
				"method": "rhf"
			},
			{
				"type": "occ",
				"energy": -0.2515,
				"method": "rhf"
			},
			{
				"type": "occ",
				"energy": -0.2348,
				"method": "rhf"
			},
			{
				"type": "unocc",
				"energy": -0.08403,
				"method": "rhf"
			},
			{
				"type": "unocc",
				"energy": -0.02884,
				"method": "rhf"
			},
			{
				"type": "unocc",
				"energy": -0.02422,
				"method": "rhf"
			},
			{
				"type": "unocc",
				"energy": -0.00136,
				"method": "rhf"
			},
			{
				"type": "unocc",
				"energy": 0.01982,
				"method": "rhf"
			}
		],
		"cosmo_sigma_profile": { 
			"-0.025": 0.0,
			"-0.024": 0.0,
			"-0.023": 0.0,
			"-0.022": 0.0,
			"-0.021": 0.0,
			"-0.02": 0.0,
			"-0.019": 0.0,
			"-0.018": 0.0,
			"-0.017": 0.0,
			"-0.016": 0.0,
			"-0.015": 0.0,
			"-0.014": 0.0,
			"-0.013": 0.0,
			"-0.012": 0.0,
			"-0.011": 0.0,
			"-0.01": 0.0,
			"-0.009": 0.23224199618,
			"-0.008": 2.15378644019,
			"-0.007": 10.6726375457,
			"-0.006": 16.642323408,
			"-0.005": 18.4241926831,
			"-0.004": 17.5433660267,
			"-0.003": 16.0761081416,
			"-0.002": 14.8068810083,
			"-0.001": 19.6577648994,
			"0.0": 24.963228523,
			"0.001": 30.733893855,
			"0.002": 21.7786599673,
			"0.003": 15.0908561317,
			"0.004": 13.8604398382,
			"0.005": 6.10150172697,
			"0.006": 2.1736786424,
			"0.007": 3.57571823596,
			"0.008": 2.23751321573,
			"0.009": 2.69338052161,
			"0.01": 3.30592762284,
			"0.011": 4.84661332708,
			"0.012": 3.37034284455,
			"0.013": 0.737377515567,
			"0.014": 0.40758174667,
			"0.015": 1.2496749464,
			"0.016": 0.499628326493,
			"0.017": 0.0342170544331,
			"0.018": 0.0,
			"0.019": 0.0,
			"0.02": 0.0,
			"0.021": 0.0,
			"0.022": 0.0,
			"0.023": 0.0,
			"0.024": 0.0,
			"0.025": 0.0
		}
	}
}
