{
	 "smiles": "CC(=O)CC(=O)NC1=CC=CC=C1", 
	 "Tm": 358.65, 
	 "num_atms": 24, 
	 "gaussian": { 
		 "optdone": 1, 
		 "sigma_profile": "yes", 
		 "theory": "DFT", 
		 "functional": "B3LYP", 
		 "basiset": "6-31G**", 
		 "properties": { 
			 "R2extent": 3698.4561, 
			 "electric_dipole_moment_norm": 3.17910075493, 
			 "electric_quadrupole_moment_norm": 21.4016141959, 
			 "total_energy": -592.916060611, 
			 "HOMO_LUMO_gap": 0.17424, 
			 "cosmo_polarized_energy": -12.84, 
			 "cosmo_cavitation_energy": 28.19, 
			 "cosmo_dispersion_energy": -20.56, 
			 "cosmo_repulsion_energy": 1.63, 
			 "cosmo_total_nonelectrostatic_energy": 9.26, 
			 "SMD_solvation_energy": 5.94 
		},
		"coords": [
			{
				"x": -4.4072475429,
				"y": 2.9432124905,
				"z": -0.5750918258,
				"element": "C" 
			},
			{
				"x": -3.2908655226,
				"y": 1.989370684,
				"z": -0.2164496874,
				"element": "C" 
			},
			{
				"x": -2.9208543749,
				"y": 1.1220126383,
				"z": -0.9944205194,
				"element": "O" 
			},
			{
				"x": -2.6792812915,
				"y": 2.1485385658,
				"z": 1.1708366583,
				"element": "C" 
			},
			{
				"x": -1.1647749872,
				"y": 1.9210396584,
				"z": 1.3535157548,
				"element": "C" 
			},
			{
				"x": -0.5667414959,
				"y": 2.5586451448,
				"z": 2.2103154054,
				"element": "O" 
			},
			{
				"x": -0.627923947,
				"y": 0.9574629081,
				"z": 0.5499625754,
				"element": "N" 
			},
			{
				"x": 0.7051008663,
				"y": 0.4968566764,
				"z": 0.5015656645,
				"element": "C" 
			},
			{
				"x": 1.0120571723,
				"y": -0.4631539403,
				"z": -0.4767989634,
				"element": "C" 
			},
			{
				"x": 2.3028887673,
				"y": -0.9729934757,
				"z": -0.5827446417,
				"element": "C" 
			},
			{
				"x": 3.3068166995,
				"y": -0.535028011,
				"z": 0.2836321008,
				"element": "C" 
			},
			{
				"x": 2.9989903892,
				"y": 0.4187220015,
				"z": 1.2545651581,
				"element": "C" 
			},
			{
				"x": 1.710512047,
				"y": 0.9406603386,
				"z": 1.374850019,
				"element": "C" 
			},
			{
				"x": -4.8537452201,
				"y": 2.6562460287,
				"z": -1.5278092993,
				"element": "H" 
			},
			{
				"x": -5.1706792977,
				"y": 2.958497197,
				"z": 0.2109890104,
				"element": "H" 
			},
			{
				"x": -4.0079750188,
				"y": 3.9621641793,
				"z": -0.6478171833,
				"element": "H" 
			},
			{
				"x": -2.896134475,
				"y": 3.13368019,
				"z": 1.5885157745,
				"element": "H" 
			},
			{
				"x": -3.1935507328,
				"y": 1.4206748246,
				"z": 1.8165666366,
				"element": "H" 
			},
			{
				"x": -1.2651178681,
				"y": 0.5925491587,
				"z": -0.1554542884,
				"element": "H" 
			},
			{
				"x": 0.23353989,
				"y": -0.8069194222,
				"z": -1.1537193252,
				"element": "H" 
			},
			{
				"x": 2.5224356957,
				"y": -1.7145924067,
				"z": -1.3455596863,
				"element": "H" 
			},
			{
				"x": 4.314152155,
				"y": -0.9319437555,
				"z": 0.2019037146,
				"element": "H" 
			},
			{
				"x": 3.7711685929,
				"y": 0.7682273683,
				"z": 1.9343687986,
				"element": "H" 
			},
			{
				"x": 1.4726294994,
				"y": 1.6817709583,
				"z": 2.1245781494,
				"element": "H" 
			}
		],
		 "valence_orbital": [ 
			{
				"type": "occ",
				"energy": -0.30126,
				"method": "rhf"
			},
			{
				"type": "occ",
				"energy": -0.27839,
				"method": "rhf"
			},
			{
				"type": "occ",
				"energy": -0.25265,
				"method": "rhf"
			},
			{
				"type": "occ",
				"energy": -0.24473,
				"method": "rhf"
			},
			{
				"type": "occ",
				"energy": -0.21478,
				"method": "rhf"
			},
			{
				"type": "unocc",
				"energy": -0.04054,
				"method": "rhf"
			},
			{
				"type": "unocc",
				"energy": -0.00918,
				"method": "rhf"
			},
			{
				"type": "unocc",
				"energy": 0.00502,
				"method": "rhf"
			},
			{
				"type": "unocc",
				"energy": 0.04713,
				"method": "rhf"
			},
			{
				"type": "unocc",
				"energy": 0.08197,
				"method": "rhf"
			}
		],
		"cosmo_sigma_profile": { 
			"-0.025": 0.0,
			"-0.024": 0.0,
			"-0.023": 0.0,
			"-0.022": 0.0,
			"-0.021": 0.0,
			"-0.02": 0.0,
			"-0.019": 0.0,
			"-0.018": 0.0,
			"-0.017": 0.0,
			"-0.016": 0.0,
			"-0.015": 0.0,
			"-0.014": 0.0,
			"-0.013": 0.0,
			"-0.012": 0.0,
			"-0.011": 0.0,
			"-0.01": 0.113409992614,
			"-0.009": 2.85357861747,
			"-0.008": 5.60136296708,
			"-0.007": 11.4024535154,
			"-0.006": 15.7641497732,
			"-0.005": 17.9561799583,
			"-0.004": 18.1512522489,
			"-0.003": 18.1345110268,
			"-0.002": 15.1040184834,
			"-0.001": 14.417297582,
			"0.0": 9.32291313861,
			"0.001": 10.7840951118,
			"0.002": 11.4800726104,
			"0.003": 12.5195282651,
			"0.004": 12.8339283908,
			"0.005": 13.1544718588,
			"0.006": 10.1178497029,
			"0.007": 3.83632781789,
			"0.008": 2.5365094322,
			"0.009": 3.28542227603,
			"0.01": 3.31849934777,
			"0.011": 3.6976115431,
			"0.012": 3.92253704797,
			"0.013": 3.19283142396,
			"0.014": 1.15067167912,
			"0.015": 0.0143455545434,
			"0.016": 0.0,
			"0.017": 0.0,
			"0.018": 0.0,
			"0.019": 0.0,
			"0.02": 0.0,
			"0.021": 0.0,
			"0.022": 0.0,
			"0.023": 0.0,
			"0.024": 0.0,
			"0.025": 0.0
		}
	}
}
