{
	 "smiles": "CC(C)[N+]([O-])=O", 
	 "Tm": 180.95, 
	 "num_atms": 13, 
	 "gaussian": { 
		 "optdone": 1, 
		 "sigma_profile": "yes", 
		 "theory": "DFT", 
		 "functional": "B3LYP", 
		 "basiset": "6-31G**", 
		 "properties": { 
			 "R2extent": 1130.8078, 
			 "electric_dipole_moment_norm": 3.70338850514, 
			 "electric_quadrupole_moment_norm": 9.06518585965, 
			 "total_energy": -323.649319287, 
			 "HOMO_LUMO_gap": 0.22668, 
			 "cosmo_polarized_energy": -7.28, 
			 "cosmo_cavitation_energy": 16.67, 
			 "cosmo_dispersion_energy": -12.0, 
			 "cosmo_repulsion_energy": 1.05, 
			 "cosmo_total_nonelectrostatic_energy": 5.72, 
			 "SMD_solvation_energy": 5.36 
		},
		"coords": [
			{
				"x": -0.9303203534,
				"y": -0.0724743432,
				"z": 0.7808905849,
				"element": "C" 
			},
			{
				"x": 0.0430335586,
				"y": -1.2365347485,
				"z": 0.6062150769,
				"element": "C" 
			},
			{
				"x": 0.323301243,
				"y": -1.9932630508,
				"z": 1.9030605716,
				"element": "C" 
			},
			{
				"x": -0.5503391001,
				"y": -2.2128447376,
				"z": -0.4019259471,
				"element": "N" 
			},
			{
				"x": 0.0779334206,
				"y": -2.4079751842,
				"z": -1.43745315,
				"element": "O" 
			},
			{
				"x": -1.6205302171,
				"y": -2.7388051716,
				"z": -0.1070088982,
				"element": "O" 
			},
			{
				"x": -0.5025259098,
				"y": 0.6536843834,
				"z": 1.4780158872,
				"element": "H" 
			},
			{
				"x": -1.1168336172,
				"y": 0.4353275336,
				"z": -0.169701389,
				"element": "H" 
			},
			{
				"x": -1.8814114385,
				"y": -0.4294550292,
				"z": 1.1828028743,
				"element": "H" 
			},
			{
				"x": 0.9694302939,
				"y": -0.909017116,
				"z": 0.1319103927,
				"element": "H" 
			},
			{
				"x": -0.6063696982,
				"y": -2.3832159276,
				"z": 2.324028291,
				"element": "H" 
			},
			{
				"x": 0.780226474,
				"y": -1.3119708114,
				"z": 2.626493005,
				"element": "H" 
			},
			{
				"x": 1.0121053441,
				"y": -2.8262557969,
				"z": 1.7358727009,
				"element": "H" 
			}
		],
		 "valence_orbital": [ 
			{
				"type": "occ",
				"energy": -0.37395,
				"method": "rhf"
			},
			{
				"type": "occ",
				"energy": -0.37301,
				"method": "rhf"
			},
			{
				"type": "occ",
				"energy": -0.30867,
				"method": "rhf"
			},
			{
				"type": "occ",
				"energy": -0.29559,
				"method": "rhf"
			},
			{
				"type": "occ",
				"energy": -0.28876,
				"method": "rhf"
			},
			{
				"type": "unocc",
				"energy": -0.06208,
				"method": "rhf"
			},
			{
				"type": "unocc",
				"energy": 0.081,
				"method": "rhf"
			},
			{
				"type": "unocc",
				"energy": 0.10365,
				"method": "rhf"
			},
			{
				"type": "unocc",
				"energy": 0.12589,
				"method": "rhf"
			},
			{
				"type": "unocc",
				"energy": 0.13559,
				"method": "rhf"
			}
		],
		"cosmo_sigma_profile": { 
			"-0.025": 0.0,
			"-0.024": 0.0,
			"-0.023": 0.0,
			"-0.022": 0.0,
			"-0.021": 0.0,
			"-0.02": 0.0,
			"-0.019": 0.0,
			"-0.018": 0.0,
			"-0.017": 0.0,
			"-0.016": 0.0,
			"-0.015": 0.0,
			"-0.014": 0.0,
			"-0.013": 0.0,
			"-0.012": 0.0,
			"-0.011": 0.0,
			"-0.01": 0.0,
			"-0.009": 0.0,
			"-0.008": 0.0277640416211,
			"-0.007": 2.21580387568,
			"-0.006": 8.8314530708,
			"-0.005": 15.0231115221,
			"-0.004": 12.7540257966,
			"-0.003": 14.0581922062,
			"-0.002": 12.8635711037,
			"-0.001": 14.8929987314,
			"0.0": 6.4990654488,
			"0.001": 3.26783312655,
			"0.002": 2.02199223825,
			"0.003": 3.21319364719,
			"0.004": 2.63614061923,
			"0.005": 2.54994911276,
			"0.006": 3.29803041415,
			"0.007": 6.13799961325,
			"0.008": 10.8192937735,
			"0.009": 5.85450664523,
			"0.01": 2.99367937481,
			"0.011": 0.368993739044,
			"0.012": 0.0,
			"0.013": 0.0,
			"0.014": 0.0,
			"0.015": 0.0,
			"0.016": 0.0,
			"0.017": 0.0,
			"0.018": 0.0,
			"0.019": 0.0,
			"0.02": 0.0,
			"0.021": 0.0,
			"0.022": 0.0,
			"0.023": 0.0,
			"0.024": 0.0,
			"0.025": 0.0
		}
	}
}
