{
	 "smiles": "SC1=NN=C2N1N=C(N2C1=CC=CC=C1)C1=CC=CC=C1", 
	 "Tm": 511.15, 
	 "num_atms": 32, 
	 "gaussian": { 
		 "optdone": 1, 
		 "sigma_profile": "yes", 
		 "theory": "DFT", 
		 "functional": "B3LYP", 
		 "basiset": "6-31G**", 
		 "properties": { 
			 "R2extent": 7744.6275, 
			 "electric_dipole_moment_norm": 6.02077686017, 
			 "electric_quadrupole_moment_norm": 12.5679611055, 
			 "total_energy": -1250.10060212, 
			 "HOMO_LUMO_gap": 0.15656, 
			 "cosmo_polarized_energy": -17.09, 
			 "cosmo_cavitation_energy": 38.78, 
			 "cosmo_dispersion_energy": -27.92, 
			 "cosmo_repulsion_energy": 2.08, 
			 "cosmo_total_nonelectrostatic_energy": 12.94, 
			 "SMD_solvation_energy": 2.98 
		},
		"coords": [
			{
				"x": 0.3702411043,
				"y": 4.7704268002,
				"z": 2.3631234949,
				"element": "S" 
			},
			{
				"x": -0.2849825339,
				"y": 3.1354983845,
				"z": 2.3765023624,
				"element": "C" 
			},
			{
				"x": -1.4034233974,
				"y": 2.7135897935,
				"z": 2.9360804284,
				"element": "N" 
			},
			{
				"x": -1.5472808182,
				"y": 1.3379318943,
				"z": 2.7177146638,
				"element": "N" 
			},
			{
				"x": -0.4865666808,
				"y": 1.0124235064,
				"z": 2.0209141646,
				"element": "C" 
			},
			{
				"x": 0.3342256954,
				"y": 2.0696295364,
				"z": 1.7734890585,
				"element": "N" 
			},
			{
				"x": 1.4645581033,
				"y": 1.7293173103,
				"z": 1.0714024395,
				"element": "N" 
			},
			{
				"x": 1.3179939738,
				"y": 0.4341678659,
				"z": 0.8712125486,
				"element": "C" 
			},
			{
				"x": 0.130313541,
				"y": -0.0744742629,
				"z": 1.4180886512,
				"element": "N" 
			},
			{
				"x": -0.4858627885,
				"y": -1.3568653594,
				"z": 1.2775306357,
				"element": "C" 
			},
			{
				"x": -1.1364593488,
				"y": -1.9088285611,
				"z": 2.3855841193,
				"element": "C" 
			},
			{
				"x": -1.7752314932,
				"y": -3.1419356437,
				"z": 2.2585937857,
				"element": "C" 
			},
			{
				"x": -1.758554351,
				"y": -3.8246414818,
				"z": 1.0411718432,
				"element": "C" 
			},
			{
				"x": -1.1142148755,
				"y": -3.2598153876,
				"z": -0.0615390496,
				"element": "C" 
			},
			{
				"x": -0.486609545,
				"y": -2.0196181405,
				"z": 0.045903127,
				"element": "C" 
			},
			{
				"x": 2.3573243394,
				"y": -0.3564055124,
				"z": 0.1923730681,
				"element": "C" 
			},
			{
				"x": 3.0628206306,
				"y": 0.2306233178,
				"z": -0.8703160805,
				"element": "C" 
			},
			{
				"x": 4.093616534,
				"y": -0.4669720637,
				"z": -1.4959645685,
				"element": "C" 
			},
			{
				"x": 4.4321138096,
				"y": -1.7526092849,
				"z": -1.0678659703,
				"element": "C" 
			},
			{
				"x": 3.739912908,
				"y": -2.3366033026,
				"z": -0.0047307779,
				"element": "C" 
			},
			{
				"x": 2.7078276748,
				"y": -1.6449123125,
				"z": 0.6264597163,
				"element": "C" 
			},
			{
				"x": -0.664636898,
				"y": 5.2573169134,
				"z": 3.0746406618,
				"element": "H" 
			},
			{
				"x": -1.157926905,
				"y": -1.3644445213,
				"z": 3.3232261464,
				"element": "H" 
			},
			{
				"x": -2.2857627876,
				"y": -3.5675210801,
				"z": 3.116957529,
				"element": "H" 
			},
			{
				"x": -2.2537815837,
				"y": -4.7863522743,
				"z": 0.9486038621,
				"element": "H" 
			},
			{
				"x": -1.1113496785,
				"y": -3.7767221803,
				"z": -1.0163429882,
				"element": "H" 
			},
			{
				"x": -0.0074231977,
				"y": -1.5685198914,
				"z": -0.815348877,
				"element": "H" 
			},
			{
				"x": 2.7956112883,
				"y": 1.231457609,
				"z": -1.1917229628,
				"element": "H" 
			},
			{
				"x": 4.6314398177,
				"y": -0.0067771459,
				"z": -2.3193468955,
				"element": "H" 
			},
			{
				"x": 5.2346463811,
				"y": -2.2959496216,
				"z": -1.5579035829,
				"element": "H" 
			},
			{
				"x": 4.0080228134,
				"y": -3.3306492941,
				"z": 0.340144437,
				"element": "H" 
			},
			{
				"x": 2.1860982681,
				"y": -2.0982656093,
				"z": 1.4620650096,
				"element": "H" 
			}
		],
		 "valence_orbital": [ 
			{
				"type": "occ",
				"energy": -0.26703,
				"method": "rhf"
			},
			{
				"type": "occ",
				"energy": -0.25807,
				"method": "rhf"
			},
			{
				"type": "occ",
				"energy": -0.25686,
				"method": "rhf"
			},
			{
				"type": "occ",
				"energy": -0.24709,
				"method": "rhf"
			},
			{
				"type": "occ",
				"energy": -0.21179,
				"method": "rhf"
			},
			{
				"type": "unocc",
				"energy": -0.05523,
				"method": "rhf"
			},
			{
				"type": "unocc",
				"energy": -0.02647,
				"method": "rhf"
			},
			{
				"type": "unocc",
				"energy": -0.02243,
				"method": "rhf"
			},
			{
				"type": "unocc",
				"energy": -0.0135,
				"method": "rhf"
			},
			{
				"type": "unocc",
				"energy": 0.01479,
				"method": "rhf"
			}
		],
		"cosmo_sigma_profile": { 
			"-0.025": 0.0,
			"-0.024": 0.0,
			"-0.023": 0.0,
			"-0.022": 0.0,
			"-0.021": 0.0,
			"-0.02": 0.0,
			"-0.019": 0.0,
			"-0.018": 0.0,
			"-0.017": 0.0,
			"-0.016": 0.0,
			"-0.015": 0.0,
			"-0.014": 0.0,
			"-0.013": 0.188855181084,
			"-0.012": 1.53486852378,
			"-0.011": 1.56345672428,
			"-0.01": 1.08331876876,
			"-0.009": 1.16507042247,
			"-0.008": 1.39360621918,
			"-0.007": 8.2041505326,
			"-0.006": 25.2520958364,
			"-0.005": 29.1180892503,
			"-0.004": 25.4982295987,
			"-0.003": 20.6743102792,
			"-0.002": 18.2964661741,
			"-0.001": 19.4556804851,
			"0.0": 22.2636870839,
			"0.001": 22.7175286884,
			"0.002": 23.902435058,
			"0.003": 27.6029762685,
			"0.004": 23.6843067709,
			"0.005": 7.54943132296,
			"0.006": 6.10371350911,
			"0.007": 3.98534686266,
			"0.008": 1.75526216779,
			"0.009": 3.06297667827,
			"0.01": 2.99220396749,
			"0.011": 3.21719614806,
			"0.012": 3.30464391592,
			"0.013": 4.04052076061,
			"0.014": 2.25348604183,
			"0.015": 2.90209789525,
			"0.016": 1.08637887775,
			"0.017": 0.011611858591,
			"0.018": 0.0,
			"0.019": 0.0,
			"0.02": 0.0,
			"0.021": 0.0,
			"0.022": 0.0,
			"0.023": 0.0,
			"0.024": 0.0,
			"0.025": 0.0
		}
	}
}
