{
	 "smiles": "CC1=CC=C(C)S1", 
	 "Tm": 210.35, 
	 "num_atms": 15, 
	 "gaussian": { 
		 "optdone": 1, 
		 "sigma_profile": "yes", 
		 "theory": "DFT", 
		 "functional": "B3LYP", 
		 "basiset": "6-31G**", 
		 "properties": { 
			 "R2extent": 1094.2121, 
			 "electric_dipole_moment_norm": 0.485458154736, 
			 "electric_quadrupole_moment_norm": 5.05779847167, 
			 "total_energy": -631.644610161, 
			 "HOMO_LUMO_gap": 0.21014, 
			 "cosmo_polarized_energy": -3.32, 
			 "cosmo_cavitation_energy": 19.66, 
			 "cosmo_dispersion_energy": -15.15, 
			 "cosmo_repulsion_energy": 1.23, 
			 "cosmo_total_nonelectrostatic_energy": 5.73, 
			 "SMD_solvation_energy": 3.34 
		},
		"coords": [
			{
				"x": 1.656028342,
				"y": 1.6625712953,
				"z": 0.8693356051,
				"element": "C" 
			},
			{
				"x": 0.8517169127,
				"y": 0.5397934524,
				"z": 0.2858580145,
				"element": "C" 
			},
			{
				"x": -0.3659266964,
				"y": 0.0636300438,
				"z": 0.6858161438,
				"element": "C" 
			},
			{
				"x": -0.8458525047,
				"y": -1.0282606697,
				"z": -0.1049146196,
				"element": "C" 
			},
			{
				"x": 0.0024464235,
				"y": -1.3924838758,
				"z": -1.1134229741,
				"element": "C" 
			},
			{
				"x": -0.1649705811,
				"y": -2.4807751062,
				"z": -2.1310639473,
				"element": "C" 
			},
			{
				"x": 1.4276432899,
				"y": -0.372161952,
				"z": -1.0958754279,
				"element": "S" 
			},
			{
				"x": 1.1206725577,
				"y": 2.0960006591,
				"z": 1.7189640701,
				"element": "H" 
			},
			{
				"x": 1.8333698732,
				"y": 2.4632363152,
				"z": 0.1418576609,
				"element": "H" 
			},
			{
				"x": 2.6351617469,
				"y": 1.3243858669,
				"z": 1.2280417144,
				"element": "H" 
			},
			{
				"x": -0.9094238687,
				"y": 0.4825537895,
				"z": 1.526587142,
				"element": "H" 
			},
			{
				"x": -1.7930918344,
				"y": -1.527962337,
				"z": 0.0706334999,
				"element": "H" 
			},
			{
				"x": -1.1165395859,
				"y": -2.9946064526,
				"z": -1.967266129,
				"element": "H" 
			},
			{
				"x": 0.6341468864,
				"y": -3.2286530769,
				"z": -2.0691554943,
				"element": "H" 
			},
			{
				"x": -0.167780961,
				"y": -2.0897679522,
				"z": -3.1551952583,
				"element": "H" 
			}
		],
		 "valence_orbital": [ 
			{
				"type": "occ",
				"energy": -0.349,
				"method": "rhf"
			},
			{
				"type": "occ",
				"energy": -0.34276,
				"method": "rhf"
			},
			{
				"type": "occ",
				"energy": -0.32571,
				"method": "rhf"
			},
			{
				"type": "occ",
				"energy": -0.24004,
				"method": "rhf"
			},
			{
				"type": "occ",
				"energy": -0.21183,
				"method": "rhf"
			},
			{
				"type": "unocc",
				"energy": -0.00169,
				"method": "rhf"
			},
			{
				"type": "unocc",
				"energy": 0.03536,
				"method": "rhf"
			},
			{
				"type": "unocc",
				"energy": 0.08145,
				"method": "rhf"
			},
			{
				"type": "unocc",
				"energy": 0.08989,
				"method": "rhf"
			},
			{
				"type": "unocc",
				"energy": 0.12215,
				"method": "rhf"
			}
		],
		"cosmo_sigma_profile": { 
			"-0.025": 0.0,
			"-0.024": 0.0,
			"-0.023": 0.0,
			"-0.022": 0.0,
			"-0.021": 0.0,
			"-0.02": 0.0,
			"-0.019": 0.0,
			"-0.018": 0.0,
			"-0.017": 0.0,
			"-0.016": 0.0,
			"-0.015": 0.0,
			"-0.014": 0.0,
			"-0.013": 0.0,
			"-0.012": 0.0,
			"-0.011": 0.0,
			"-0.01": 0.0,
			"-0.009": 0.0,
			"-0.008": 0.0,
			"-0.007": 0.0,
			"-0.006": 1.50958664256,
			"-0.005": 8.86763680163,
			"-0.004": 16.5698314468,
			"-0.003": 17.743923463,
			"-0.002": 19.4609844826,
			"-0.001": 19.4304890555,
			"0.0": 15.048010139,
			"0.001": 8.08753367997,
			"0.002": 8.29010462837,
			"0.003": 9.09106227339,
			"0.004": 8.41494607476,
			"0.005": 10.7592347717,
			"0.006": 11.1270686064,
			"0.007": 3.30393266822,
			"0.008": 0.0,
			"0.009": 0.0,
			"0.01": 0.0,
			"0.011": 0.0,
			"0.012": 0.0,
			"0.013": 0.0,
			"0.014": 0.0,
			"0.015": 0.0,
			"0.016": 0.0,
			"0.017": 0.0,
			"0.018": 0.0,
			"0.019": 0.0,
			"0.02": 0.0,
			"0.021": 0.0,
			"0.022": 0.0,
			"0.023": 0.0,
			"0.024": 0.0,
			"0.025": 0.0
		}
	}
}
