{
	 "smiles": "COC(=O)CC1=CSC(N)=N1", 
	 "Tm": 397.15, 
	 "num_atms": 19, 
	 "gaussian": { 
		 "optdone": 1, 
		 "sigma_profile": "yes", 
		 "theory": "DFT", 
		 "functional": "B3LYP", 
		 "basiset": "6-31G**", 
		 "properties": { 
			 "R2extent": 3077.0673, 
			 "electric_dipole_moment_norm": 1.66296583549, 
			 "electric_quadrupole_moment_norm": 20.4762092376, 
			 "total_energy": -891.600023744, 
			 "HOMO_LUMO_gap": 0.20703, 
			 "cosmo_polarized_energy": -12.73, 
			 "cosmo_cavitation_energy": 25.25, 
			 "cosmo_dispersion_energy": -19.46, 
			 "cosmo_repulsion_energy": 1.54, 
			 "cosmo_total_nonelectrostatic_energy": 7.33, 
			 "SMD_solvation_energy": 4.19 
		},
		"coords": [
			{
				"x": -0.3254595519,
				"y": -0.0720587912,
				"z": 3.5716355287,
				"element": "C" 
			},
			{
				"x": 0.2857452632,
				"y": 0.5352163022,
				"z": 2.4218856953,
				"element": "O" 
			},
			{
				"x": -0.0410142664,
				"y": -0.0179467138,
				"z": 1.2314056739,
				"element": "C" 
			},
			{
				"x": -0.7987475222,
				"y": -0.9590243264,
				"z": 1.1281601497,
				"element": "O" 
			},
			{
				"x": 0.6815504788,
				"y": 0.7147208807,
				"z": 0.1194445541,
				"element": "C" 
			},
			{
				"x": 0.4172832632,
				"y": 0.2734444872,
				"z": -1.294677531,
				"element": "C" 
			},
			{
				"x": -0.3716342352,
				"y": -0.7465295789,
				"z": -1.7300090118,
				"element": "C" 
			},
			{
				"x": -0.317989906,
				"y": -0.8380615326,
				"z": -3.4766843232,
				"element": "S" 
			},
			{
				"x": 0.7742416468,
				"y": 0.5509943346,
				"z": -3.4639576815,
				"element": "C" 
			},
			{
				"x": 1.3238737833,
				"y": 1.0380010812,
				"z": -4.6311515575,
				"element": "N" 
			},
			{
				"x": 1.0604473259,
				"y": 1.0097229362,
				"z": -2.2809146594,
				"element": "N" 
			},
			{
				"x": -0.0421270473,
				"y": -1.12480867,
				"z": 3.6487090503,
				"element": "H" 
			},
			{
				"x": -1.4146151779,
				"y": -0.0048739533,
				"z": 3.5104940283,
				"element": "H" 
			},
			{
				"x": 0.0444257633,
				"y": 0.4873910199,
				"z": 4.4307601715,
				"element": "H" 
			},
			{
				"x": 1.7576641656,
				"y": 0.6495613557,
				"z": 0.327767703,
				"element": "H" 
			},
			{
				"x": 0.4500132105,
				"y": 1.7826734694,
				"z": 0.2184950648,
				"element": "H" 
			},
			{
				"x": -0.967779939,
				"y": -1.427201353,
				"z": -1.1450949429,
				"element": "H" 
			},
			{
				"x": 0.7476141227,
				"y": 0.9838037893,
				"z": -5.4591036784,
				"element": "H" 
			},
			{
				"x": 1.7679086227,
				"y": 1.9384752627,
				"z": -4.504564234,
				"element": "H" 
			}
		],
		 "valence_orbital": [ 
			{
				"type": "occ",
				"energy": -0.30325,
				"method": "rhf"
			},
			{
				"type": "occ",
				"energy": -0.2748,
				"method": "rhf"
			},
			{
				"type": "occ",
				"energy": -0.26882,
				"method": "rhf"
			},
			{
				"type": "occ",
				"energy": -0.26587,
				"method": "rhf"
			},
			{
				"type": "occ",
				"energy": -0.20448,
				"method": "rhf"
			},
			{
				"type": "unocc",
				"energy": 0.00255,
				"method": "rhf"
			},
			{
				"type": "unocc",
				"energy": 0.01165,
				"method": "rhf"
			},
			{
				"type": "unocc",
				"energy": 0.01903,
				"method": "rhf"
			},
			{
				"type": "unocc",
				"energy": 0.06391,
				"method": "rhf"
			},
			{
				"type": "unocc",
				"energy": 0.0768,
				"method": "rhf"
			}
		],
		"cosmo_sigma_profile": { 
			"-0.025": 0.0,
			"-0.024": 0.0,
			"-0.023": 0.0,
			"-0.022": 0.0,
			"-0.021": 0.0,
			"-0.02": 0.0,
			"-0.019": 0.0,
			"-0.018": 0.0,
			"-0.017": 0.0,
			"-0.016": 0.0,
			"-0.015": 0.195197293027,
			"-0.014": 1.66524231368,
			"-0.013": 2.76849562964,
			"-0.012": 2.36350139654,
			"-0.011": 2.79598860685,
			"-0.01": 2.51220634864,
			"-0.009": 2.04585189264,
			"-0.008": 1.98094928594,
			"-0.007": 5.97457247072,
			"-0.006": 10.7914896127,
			"-0.005": 13.7916138485,
			"-0.004": 13.7499571368,
			"-0.003": 17.1112950137,
			"-0.002": 9.93460112953,
			"-0.001": 9.90265863191,
			"0.0": 9.13209132857,
			"0.001": 9.59749842172,
			"0.002": 12.8562220075,
			"0.003": 14.0208591626,
			"0.004": 15.326977991,
			"0.005": 12.3015858494,
			"0.006": 5.09426034414,
			"0.007": 4.42593707399,
			"0.008": 4.93381787904,
			"0.009": 4.82105526857,
			"0.01": 3.94603206348,
			"0.011": 4.33961365895,
			"0.012": 2.29412147651,
			"0.013": 0.631127244308,
			"0.014": 0.474167493989,
			"0.015": 0.846973999893,
			"0.016": 0.122057889517,
			"0.017": 0.0,
			"0.018": 0.0,
			"0.019": 0.0,
			"0.02": 0.0,
			"0.021": 0.0,
			"0.022": 0.0,
			"0.023": 0.0,
			"0.024": 0.0,
			"0.025": 0.0
		}
	}
}
