{
	 "smiles": "OC(=O)C1(CCC1)C1=CC=C(Br)C=C1", 
	 "Tm": 391.15, 
	 "num_atms": 25, 
	 "gaussian": { 
		 "optdone": 1, 
		 "sigma_profile": "yes", 
		 "theory": "DFT", 
		 "functional": "B3LYP", 
		 "basiset": "6-31G**", 
		 "properties": { 
			 "R2extent": 5843.4622, 
			 "electric_dipole_moment_norm": 3.2565003209, 
			 "electric_quadrupole_moment_norm": 20.7465765159, 
			 "total_energy": -3147.63729531, 
			 "HOMO_LUMO_gap": 0.21236, 
			 "cosmo_polarized_energy": -12.33, 
			 "cosmo_cavitation_energy": 30.19, 
			 "cosmo_dispersion_energy": -22.03, 
			 "cosmo_repulsion_energy": 1.74, 
			 "cosmo_total_nonelectrostatic_energy": 9.9, 
			 "SMD_solvation_energy": 4.63 
		},
		"coords": [
			{
				"x": 2.9463013242,
				"y": -1.5969049345,
				"z": -0.7388419053,
				"element": "O" 
			},
			{
				"x": 2.8062705325,
				"y": -0.8526805525,
				"z": 0.383672757,
				"element": "C" 
			},
			{
				"x": 3.701311608,
				"y": -0.801797969,
				"z": 1.1930972647,
				"element": "O" 
			},
			{
				"x": 1.5006155055,
				"y": -0.0404292643,
				"z": 0.5028214402,
				"element": "C" 
			},
			{
				"x": 1.7819434517,
				"y": 1.424537466,
				"z": -0.0070204394,
				"element": "C" 
			},
			{
				"x": 2.052041777,
				"y": 1.8520090117,
				"z": 1.4571114239,
				"element": "C" 
			},
			{
				"x": 1.3599173109,
				"y": 0.5529088509,
				"z": 1.9403689291,
				"element": "C" 
			},
			{
				"x": 0.3162020458,
				"y": -0.7853985139,
				"z": -0.0796864387,
				"element": "C" 
			},
			{
				"x": -0.354225316,
				"y": -1.7541180058,
				"z": 0.6849370782,
				"element": "C" 
			},
			{
				"x": -1.4260275947,
				"y": -2.4737171456,
				"z": 0.1622328366,
				"element": "C" 
			},
			{
				"x": -1.8366792255,
				"y": -2.2312753126,
				"z": -1.1496066761,
				"element": "C" 
			},
			{
				"x": -3.3061040332,
				"y": -3.212553198,
				"z": -1.8726830318,
				"element": "Br" 
			},
			{
				"x": -1.1905958026,
				"y": -1.281407356,
				"z": -1.9355446544,
				"element": "C" 
			},
			{
				"x": -0.1199601349,
				"y": -0.5637962205,
				"z": -1.3948033442,
				"element": "C" 
			},
			{
				"x": 2.1135465565,
				"y": -1.5995293,
				"z": -1.2373116759,
				"element": "H" 
			},
			{
				"x": 2.5857166179,
				"y": 1.5556671253,
				"z": -0.7372388059,
				"element": "H" 
			},
			{
				"x": 0.8662075771,
				"y": 1.8710601245,
				"z": -0.40494627,
				"element": "H" 
			},
			{
				"x": 3.1173787197,
				"y": 1.84753264,
				"z": 1.6936927035,
				"element": "H" 
			},
			{
				"x": 1.614156433,
				"y": 2.8002221699,
				"z": 1.7782989485,
				"element": "H" 
			},
			{
				"x": 0.3080489629,
				"y": 0.7097111068,
				"z": 2.1941580909,
				"element": "H" 
			},
			{
				"x": 1.857332049,
				"y": -0.0054804752,
				"z": 2.7349506694,
				"element": "H" 
			},
			{
				"x": -0.035315369,
				"y": -1.9468712466,
				"z": 1.7054828441,
				"element": "H" 
			},
			{
				"x": -1.9377756899,
				"y": -3.2159565206,
				"z": 0.764316448,
				"element": "H" 
			},
			{
				"x": -1.5205498137,
				"y": -1.0963548259,
				"z": -2.9514904378,
				"element": "H" 
			},
			{
				"x": 0.3665425078,
				"y": 0.1905223459,
				"z": -2.0075677547,
				"element": "H" 
			}
		],
		 "valence_orbital": [ 
			{
				"type": "occ",
				"energy": -0.3113,
				"method": "rhf"
			},
			{
				"type": "occ",
				"energy": -0.29725,
				"method": "rhf"
			},
			{
				"type": "occ",
				"energy": -0.28044,
				"method": "rhf"
			},
			{
				"type": "occ",
				"energy": -0.27461,
				"method": "rhf"
			},
			{
				"type": "occ",
				"energy": -0.24744,
				"method": "rhf"
			},
			{
				"type": "unocc",
				"energy": -0.03508,
				"method": "rhf"
			},
			{
				"type": "unocc",
				"energy": -0.03318,
				"method": "rhf"
			},
			{
				"type": "unocc",
				"energy": -0.00375,
				"method": "rhf"
			},
			{
				"type": "unocc",
				"energy": 0.00947,
				"method": "rhf"
			},
			{
				"type": "unocc",
				"energy": 0.07939,
				"method": "rhf"
			}
		],
		"cosmo_sigma_profile": { 
			"-0.025": 0.0,
			"-0.024": 0.0,
			"-0.023": 0.0,
			"-0.022": 0.0,
			"-0.021": 0.0,
			"-0.02": 0.0,
			"-0.019": 0.0,
			"-0.018": 0.0,
			"-0.017": 0.0,
			"-0.016": 0.0,
			"-0.015": 0.0,
			"-0.014": 0.216164133217,
			"-0.013": 0.353571418127,
			"-0.012": 1.19078847659,
			"-0.011": 1.55845902842,
			"-0.01": 1.59702761717,
			"-0.009": 1.01020169309,
			"-0.008": 1.55801194148,
			"-0.007": 7.5704214652,
			"-0.006": 11.9421310261,
			"-0.005": 12.4028325355,
			"-0.004": 17.1248853097,
			"-0.003": 22.6044911872,
			"-0.002": 20.6352630171,
			"-0.001": 20.1762777257,
			"0.0": 20.0519270776,
			"0.001": 20.0379012309,
			"0.002": 19.0170638988,
			"0.003": 15.8061785772,
			"0.004": 13.977896803,
			"0.005": 6.96139817062,
			"0.006": 2.97175881134,
			"0.007": 2.50081641261,
			"0.008": 2.32475751137,
			"0.009": 3.51289280157,
			"0.01": 4.47865524603,
			"0.011": 4.71304588113,
			"0.012": 4.69194958097,
			"0.013": 1.75397814055,
			"0.014": 0.0605178277899,
			"0.015": 0.0,
			"0.016": 0.0,
			"0.017": 0.0,
			"0.018": 0.0,
			"0.019": 0.0,
			"0.02": 0.0,
			"0.021": 0.0,
			"0.022": 0.0,
			"0.023": 0.0,
			"0.024": 0.0,
			"0.025": 0.0
		}
	}
}
