{
	 "smiles": "COCCCC(=O)C1=CC=C(Br)C=C1", 
	 "Tm": 327.15, 
	 "num_atms": 27, 
	 "gaussian": { 
		 "optdone": 1, 
		 "sigma_profile": "yes", 
		 "theory": "DFT", 
		 "functional": "B3LYP", 
		 "basiset": "6-31G**", 
		 "properties": { 
			 "R2extent": 9076.0911, 
			 "electric_dipole_moment_norm": 3.09557901692, 
			 "electric_quadrupole_moment_norm": 5.29275250508, 
			 "total_energy": -3148.84584103, 
			 "HOMO_LUMO_gap": 0.18811, 
			 "cosmo_polarized_energy": -10.77, 
			 "cosmo_cavitation_energy": 32.89, 
			 "cosmo_dispersion_energy": -23.36, 
			 "cosmo_repulsion_energy": 1.89, 
			 "cosmo_total_nonelectrostatic_energy": 11.42, 
			 "SMD_solvation_energy": 5.28 
		},
		"coords": [
			{
				"x": -1.760807399,
				"y": -2.728429087,
				"z": -1.105580417,
				"element": "C" 
			},
			{
				"x": -0.8857754192,
				"y": -1.621799793,
				"z": -1.0905459517,
				"element": "O" 
			},
			{
				"x": 0.4544809132,
				"y": -1.973477778,
				"z": -0.8039754792,
				"element": "C" 
			},
			{
				"x": 1.299226085,
				"y": -0.704738565,
				"z": -0.7663419796,
				"element": "C" 
			},
			{
				"x": 0.7368686267,
				"y": 0.3449540219,
				"z": 0.2065154867,
				"element": "C" 
			},
			{
				"x": -0.3906397946,
				"y": 1.1662393836,
				"z": -0.4214787542,
				"element": "C" 
			},
			{
				"x": -0.2844477572,
				"y": 1.551782436,
				"z": -1.5758827311,
				"element": "O" 
			},
			{
				"x": -1.5950167595,
				"y": 1.5559875389,
				"z": 0.3871320438,
				"element": "C" 
			},
			{
				"x": -2.6110777739,
				"y": 2.2686499715,
				"z": -0.2709781001,
				"element": "C" 
			},
			{
				"x": -3.7561611483,
				"y": 2.6768450599,
				"z": 0.4028476555,
				"element": "C" 
			},
			{
				"x": -3.885570312,
				"y": 2.3755191481,
				"z": 1.7602612795,
				"element": "C" 
			},
			{
				"x": -5.4521162567,
				"y": 2.9320332385,
				"z": 2.6994066632,
				"element": "Br" 
			},
			{
				"x": -2.8917875541,
				"y": 1.6770782683,
				"z": 2.4427703987,
				"element": "C" 
			},
			{
				"x": -1.7518271104,
				"y": 1.2684788169,
				"z": 1.75050174,
				"element": "C" 
			},
			{
				"x": -1.7808200499,
				"y": -3.2483232631,
				"z": -0.1341260604,
				"element": "H" 
			},
			{
				"x": -1.4806067645,
				"y": -3.4598088389,
				"z": -1.8799830831,
				"element": "H" 
			},
			{
				"x": -2.7618103118,
				"y": -2.3493964061,
				"z": -1.3242715852,
				"element": "H" 
			},
			{
				"x": 0.5074808911,
				"y": -2.4949998972,
				"z": 0.1694233254,
				"element": "H" 
			},
			{
				"x": 0.8442586868,
				"y": -2.6701736176,
				"z": -1.5654736558,
				"element": "H" 
			},
			{
				"x": 2.3176579379,
				"y": -0.9820833844,
				"z": -0.4716046147,
				"element": "H" 
			},
			{
				"x": 1.3509266674,
				"y": -0.259065595,
				"z": -1.7640120473,
				"element": "H" 
			},
			{
				"x": 0.4302272541,
				"y": -0.1327764817,
				"z": 1.1406770039,
				"element": "H" 
			},
			{
				"x": 1.5249218576,
				"y": 1.06560588,
				"z": 0.463896604,
				"element": "H" 
			},
			{
				"x": -2.4770368593,
				"y": 2.491558423,
				"z": -1.3239983006,
				"element": "H" 
			},
			{
				"x": -4.5393446679,
				"y": 3.2222814208,
				"z": -0.1113220438,
				"element": "H" 
			},
			{
				"x": -3.0071364847,
				"y": 1.4554936975,
				"z": 3.4975268438,
				"element": "H" 
			},
			{
				"x": -0.9854664969,
				"y": 0.7288654019,
				"z": 2.2956157594,
				"element": "H" 
			}
		],
		 "valence_orbital": [ 
			{
				"type": "occ",
				"energy": -0.29134,
				"method": "rhf"
			},
			{
				"type": "occ",
				"energy": -0.26836,
				"method": "rhf"
			},
			{
				"type": "occ",
				"energy": -0.25904,
				"method": "rhf"
			},
			{
				"type": "occ",
				"energy": -0.24761,
				"method": "rhf"
			},
			{
				"type": "occ",
				"energy": -0.24503,
				"method": "rhf"
			},
			{
				"type": "unocc",
				"energy": -0.05692,
				"method": "rhf"
			},
			{
				"type": "unocc",
				"energy": -0.01746,
				"method": "rhf"
			},
			{
				"type": "unocc",
				"energy": 0.00383,
				"method": "rhf"
			},
			{
				"type": "unocc",
				"energy": 0.03594,
				"method": "rhf"
			},
			{
				"type": "unocc",
				"energy": 0.08186,
				"method": "rhf"
			}
		],
		"cosmo_sigma_profile": { 
			"-0.025": 0.0,
			"-0.024": 0.0,
			"-0.023": 0.0,
			"-0.022": 0.0,
			"-0.021": 0.0,
			"-0.02": 0.0,
			"-0.019": 0.0,
			"-0.018": 0.0,
			"-0.017": 0.0,
			"-0.016": 0.0,
			"-0.015": 0.0,
			"-0.014": 0.0,
			"-0.013": 0.0,
			"-0.012": 0.0,
			"-0.011": 0.0,
			"-0.01": 0.0,
			"-0.009": 0.149357769211,
			"-0.008": 2.41172612598,
			"-0.007": 5.65855333605,
			"-0.006": 10.137216036,
			"-0.005": 11.9940381889,
			"-0.004": 20.2617638796,
			"-0.003": 36.171411979,
			"-0.002": 31.1119038649,
			"-0.001": 21.2574292955,
			"0.0": 16.568474569,
			"0.001": 19.6992077813,
			"0.002": 22.6146968712,
			"0.003": 18.535731287,
			"0.004": 15.3507697514,
			"0.005": 5.82371195626,
			"0.006": 4.2569299248,
			"0.007": 2.22154167695,
			"0.008": 2.99185224411,
			"0.009": 3.33855507408,
			"0.01": 2.37310464559,
			"0.011": 4.23855008411,
			"0.012": 5.19046128571,
			"0.013": 1.25464752229,
			"0.014": 0.0,
			"0.015": 0.0,
			"0.016": 0.0,
			"0.017": 0.0,
			"0.018": 0.0,
			"0.019": 0.0,
			"0.02": 0.0,
			"0.021": 0.0,
			"0.022": 0.0,
			"0.023": 0.0,
			"0.024": 0.0,
			"0.025": 0.0
		}
	}
}
