{
	 "smiles": "CCOC(=O)CC=C(C1=CC=C(OC)C=C1)C(C)(C)C(=O)OCC", 
	 "Tm": 419.15, 
	 "num_atms": 50, 
	 "gaussian": { 
		 "optdone": 1, 
		 "sigma_profile": "yes", 
		 "theory": "DFT", 
		 "functional": "B3LYP", 
		 "basiset": "6-31G**", 
		 "properties": { 
			 "R2extent": 11048.6498, 
			 "electric_dipole_moment_norm": 1.40201814896, 
			 "electric_quadrupole_moment_norm": 22.0883790899, 
			 "total_energy": -1115.82112941, 
			 "HOMO_LUMO_gap": 0.20622, 
			 "cosmo_polarized_energy": -15.3, 
			 "cosmo_cavitation_energy": 52.35, 
			 "cosmo_dispersion_energy": -34.2, 
			 "cosmo_repulsion_energy": 2.72, 
			 "cosmo_total_nonelectrostatic_energy": 20.87, 
			 "SMD_solvation_energy": 11.52 
		},
		"coords": [
			{
				"x": 2.6383855293,
				"y": 5.4750220748,
				"z": -2.6809616404,
				"element": "C" 
			},
			{
				"x": 1.6629195902,
				"y": 4.3133241565,
				"z": -2.6677948997,
				"element": "C" 
			},
			{
				"x": 1.5519713528,
				"y": 3.8543944098,
				"z": -1.3006152752,
				"element": "O" 
			},
			{
				"x": 0.7219824918,
				"y": 2.8084787315,
				"z": -1.0952588943,
				"element": "C" 
			},
			{
				"x": 0.0761897641,
				"y": 2.2843594966,
				"z": -1.9788179488,
				"element": "O" 
			},
			{
				"x": 0.7472157305,
				"y": 2.3706620391,
				"z": 0.3637300761,
				"element": "C" 
			},
			{
				"x": -0.5595109211,
				"y": 1.7811723513,
				"z": 0.8199987352,
				"element": "C" 
			},
			{
				"x": -0.8061439074,
				"y": 0.479107766,
				"z": 1.0221570378,
				"element": "C" 
			},
			{
				"x": 0.243057841,
				"y": -0.5584430066,
				"z": 0.7475630862,
				"element": "C" 
			},
			{
				"x": 0.8953732117,
				"y": -1.2507112565,
				"z": 1.7765653414,
				"element": "C" 
			},
			{
				"x": 1.8695508233,
				"y": -2.2164249487,
				"z": 1.504549287,
				"element": "C" 
			},
			{
				"x": 2.2084189595,
				"y": -2.5077120621,
				"z": 0.1787753649,
				"element": "C" 
			},
			{
				"x": 3.1395153534,
				"y": -3.4320632224,
				"z": -0.2020212023,
				"element": "O" 
			},
			{
				"x": 3.8171416257,
				"y": -4.1565972428,
				"z": 0.8107546475,
				"element": "C" 
			},
			{
				"x": 1.5739654833,
				"y": -1.8153232322,
				"z": -0.8628277812,
				"element": "C" 
			},
			{
				"x": 0.6099681861,
				"y": -0.8559435438,
				"z": -0.5799183776,
				"element": "C" 
			},
			{
				"x": -2.1997482435,
				"y": -0.0375192754,
				"z": 1.4401025969,
				"element": "C" 
			},
			{
				"x": -3.1978558109,
				"y": 1.0975158278,
				"z": 1.7632049448,
				"element": "C" 
			},
			{
				"x": -2.7795801774,
				"y": -0.9059195641,
				"z": 0.3019848333,
				"element": "C" 
			},
			{
				"x": -2.0483795572,
				"y": -0.8196277132,
				"z": 2.7598971746,
				"element": "C" 
			},
			{
				"x": -1.545219811,
				"y": -0.3561747307,
				"z": 3.7645002194,
				"element": "O" 
			},
			{
				"x": -2.5736483777,
				"y": -2.0594606573,
				"z": 2.7086197267,
				"element": "O" 
			},
			{
				"x": -2.4971873008,
				"y": -2.8303588062,
				"z": 3.9302336342,
				"element": "C" 
			},
			{
				"x": -3.1690397648,
				"y": -4.1649934608,
				"z": 3.6691470991,
				"element": "C" 
			},
			{
				"x": 3.622294566,
				"y": 5.1638726492,
				"z": -2.3183029685,
				"element": "H" 
			},
			{
				"x": 2.2815529318,
				"y": 6.2927009356,
				"z": -2.0480691591,
				"element": "H" 
			},
			{
				"x": 2.7515175894,
				"y": 5.8538470496,
				"z": -3.7015808035,
				"element": "H" 
			},
			{
				"x": 0.6698255611,
				"y": 4.6051057666,
				"z": -3.0239070909,
				"element": "H" 
			},
			{
				"x": 2.0034928146,
				"y": 3.4820797449,
				"z": -3.2934857316,
				"element": "H" 
			},
			{
				"x": 1.5580084986,
				"y": 1.6389760452,
				"z": 0.4558019374,
				"element": "H" 
			},
			{
				"x": 1.0252922911,
				"y": 3.2345459378,
				"z": 0.9764631714,
				"element": "H" 
			},
			{
				"x": -1.3501508062,
				"y": 2.5070089705,
				"z": 0.9841979023,
				"element": "H" 
			},
			{
				"x": 0.6556313182,
				"y": -1.0220893514,
				"z": 2.8095462907,
				"element": "H" 
			},
			{
				"x": 2.3570504602,
				"y": -2.7218542064,
				"z": 2.3301037593,
				"element": "H" 
			},
			{
				"x": 4.501016955,
				"y": -4.8316668888,
				"z": 0.293586754,
				"element": "H" 
			},
			{
				"x": 4.3947208175,
				"y": -3.4935127516,
				"z": 1.468117813,
				"element": "H" 
			},
			{
				"x": 3.1223068446,
				"y": -4.7471352307,
				"z": 1.4222514836,
				"element": "H" 
			},
			{
				"x": 1.8560734105,
				"y": -2.0445126851,
				"z": -1.8855108193,
				"element": "H" 
			},
			{
				"x": 0.1393936029,
				"y": -0.3082634236,
				"z": -1.3907908684,
				"element": "H" 
			},
			{
				"x": -2.8228528514,
				"y": 1.7379556122,
				"z": 2.5645419186,
				"element": "H" 
			},
			{
				"x": -4.1530417437,
				"y": 0.6701587157,
				"z": 2.0852219553,
				"element": "H" 
			},
			{
				"x": -3.3913436935,
				"y": 1.7052958719,
				"z": 0.8747832211,
				"element": "H" 
			},
			{
				"x": -3.768498608,
				"y": -1.2870969047,
				"z": 0.5690147594,
				"element": "H" 
			},
			{
				"x": -2.8723696094,
				"y": -0.2969145937,
				"z": -0.6024474187,
				"element": "H" 
			},
			{
				"x": -2.1377127316,
				"y": -1.7591798397,
				"z": 0.0761882022,
				"element": "H" 
			},
			{
				"x": -2.9859710753,
				"y": -2.2696519832,
				"z": 4.7329925272,
				"element": "H" 
			},
			{
				"x": -1.4442388414,
				"y": -2.9464705361,
				"z": 4.2058079826,
				"element": "H" 
			},
			{
				"x": -4.2184134209,
				"y": -4.0277114794,
				"z": 3.3926393137,
				"element": "H" 
			},
			{
				"x": -3.12922383,
				"y": -4.7836453156,
				"z": 4.5712374391,
				"element": "H" 
			},
			{
				"x": -2.6677025208,
				"y": -4.7031062399,
				"z": 2.8596306437,
				"element": "H" 
			}
		],
		 "valence_orbital": [ 
			{
				"type": "occ",
				"energy": -0.26717,
				"method": "rhf"
			},
			{
				"type": "occ",
				"energy": -0.26129,
				"method": "rhf"
			},
			{
				"type": "occ",
				"energy": -0.24599,
				"method": "rhf"
			},
			{
				"type": "occ",
				"energy": -0.24248,
				"method": "rhf"
			},
			{
				"type": "occ",
				"energy": -0.21138,
				"method": "rhf"
			},
			{
				"type": "unocc",
				"energy": -0.00516,
				"method": "rhf"
			},
			{
				"type": "unocc",
				"energy": 0.00627,
				"method": "rhf"
			},
			{
				"type": "unocc",
				"energy": 0.01924,
				"method": "rhf"
			},
			{
				"type": "unocc",
				"energy": 0.02139,
				"method": "rhf"
			},
			{
				"type": "unocc",
				"energy": 0.03471,
				"method": "rhf"
			}
		],
		"cosmo_sigma_profile": { 
			"-0.025": 0.0,
			"-0.024": 0.0,
			"-0.023": 0.0,
			"-0.022": 0.0,
			"-0.021": 0.0,
			"-0.02": 0.0,
			"-0.019": 0.0,
			"-0.018": 0.0,
			"-0.017": 0.0,
			"-0.016": 0.0,
			"-0.015": 0.0,
			"-0.014": 0.0,
			"-0.013": 0.0,
			"-0.012": 0.0,
			"-0.011": 0.0,
			"-0.01": 0.0,
			"-0.009": 0.0,
			"-0.008": 0.0,
			"-0.007": 0.168087065566,
			"-0.006": 7.90129357565,
			"-0.005": 29.6272145169,
			"-0.004": 50.1635529031,
			"-0.003": 55.1673112999,
			"-0.002": 44.5906420394,
			"-0.001": 38.8748772528,
			"0.0": 38.2219518908,
			"0.001": 27.6558966633,
			"0.002": 18.8533073469,
			"0.003": 18.4706519863,
			"0.004": 17.7786677578,
			"0.005": 15.5264207534,
			"0.006": 9.48877176214,
			"0.007": 7.0380924205,
			"0.008": 5.34381453807,
			"0.009": 5.72864688127,
			"0.01": 5.23924301346,
			"0.011": 5.48340051915,
			"0.012": 7.08565577745,
			"0.013": 1.88462901075,
			"0.014": 0.0293363283206,
			"0.015": 0.0,
			"0.016": 0.0,
			"0.017": 0.0,
			"0.018": 0.0,
			"0.019": 0.0,
			"0.02": 0.0,
			"0.021": 0.0,
			"0.022": 0.0,
			"0.023": 0.0,
			"0.024": 0.0,
			"0.025": 0.0
		}
	}
}
