{
	 "smiles": "BrC1=CC(C=O)=C2OCCC2=C1", 
	 "Tm": 367.65, 
	 "num_atms": 19, 
	 "gaussian": { 
		 "optdone": 1, 
		 "sigma_profile": "yes", 
		 "theory": "DFT", 
		 "functional": "B3LYP", 
		 "basiset": "6-31G**", 
		 "properties": { 
			 "R2extent": 5508.1047, 
			 "electric_dipole_moment_norm": 5.68400411946, 
			 "electric_quadrupole_moment_norm": 18.4250580428, 
			 "total_energy": -3069.01114781, 
			 "HOMO_LUMO_gap": 0.16022, 
			 "cosmo_polarized_energy": -9.93, 
			 "cosmo_cavitation_energy": 25.6, 
			 "cosmo_dispersion_energy": -19.45, 
			 "cosmo_repulsion_energy": 1.56, 
			 "cosmo_total_nonelectrostatic_energy": 7.71, 
			 "SMD_solvation_energy": 4.3 
		},
		"coords": [
			{
				"x": 1.929925444,
				"y": 3.3091118726,
				"z": -1.6543759327,
				"element": "Br" 
			},
			{
				"x": 1.9408041737,
				"y": 2.0566948853,
				"z": -0.2086405394,
				"element": "C" 
			},
			{
				"x": 0.7427835647,
				"y": 1.6304050646,
				"z": 0.3415726123,
				"element": "C" 
			},
			{
				"x": 0.7329695533,
				"y": 0.7122900806,
				"z": 1.4111272828,
				"element": "C" 
			},
			{
				"x": -0.5468653714,
				"y": 0.2680186231,
				"z": 2.001105953,
				"element": "C" 
			},
			{
				"x": -1.6382895265,
				"y": 0.6442507809,
				"z": 1.6115782978,
				"element": "O" 
			},
			{
				"x": 1.9696281684,
				"y": 0.2581706695,
				"z": 1.882337541,
				"element": "C" 
			},
			{
				"x": 2.1305987756,
				"y": -0.6280991299,
				"z": 2.8983553894,
				"element": "O" 
			},
			{
				"x": 3.5511274772,
				"y": -0.6981396882,
				"z": 3.2097913851,
				"element": "C" 
			},
			{
				"x": 4.303904959,
				"y": -0.0344269308,
				"z": 2.0304936502,
				"element": "C" 
			},
			{
				"x": 3.1791980811,
				"y": 0.6878825419,
				"z": 1.3228834559,
				"element": "C" 
			},
			{
				"x": 3.1771811086,
				"y": 1.5887012795,
				"z": 0.2710276497,
				"element": "C" 
			},
			{
				"x": -0.210940368,
				"y": 1.9901345018,
				"z": -0.0271532841,
				"element": "H" 
			},
			{
				"x": -0.4531940949,
				"y": -0.4460146258,
				"z": 2.8428494849,
				"element": "H" 
			},
			{
				"x": 3.8007155981,
				"y": -1.7504208267,
				"z": 3.3574058775,
				"element": "H" 
			},
			{
				"x": 3.7095469932,
				"y": -0.1590811006,
				"z": 4.1500669818,
				"element": "H" 
			},
			{
				"x": 5.0958994706,
				"y": 0.6343344863,
				"z": 2.380067533,
				"element": "H" 
			},
			{
				"x": 4.768316693,
				"y": -0.7806106216,
				"z": 1.3748285423,
				"element": "H" 
			},
			{
				"x": 4.1011893004,
				"y": 1.9323981374,
				"z": -0.1813218806,
				"element": "H" 
			}
		],
		 "valence_orbital": [ 
			{
				"type": "occ",
				"energy": -0.29303,
				"method": "rhf"
			},
			{
				"type": "occ",
				"energy": -0.28954,
				"method": "rhf"
			},
			{
				"type": "occ",
				"energy": -0.27018,
				"method": "rhf"
			},
			{
				"type": "occ",
				"energy": -0.25335,
				"method": "rhf"
			},
			{
				"type": "occ",
				"energy": -0.22786,
				"method": "rhf"
			},
			{
				"type": "unocc",
				"energy": -0.06764,
				"method": "rhf"
			},
			{
				"type": "unocc",
				"energy": -0.01168,
				"method": "rhf"
			},
			{
				"type": "unocc",
				"energy": 0.00408,
				"method": "rhf"
			},
			{
				"type": "unocc",
				"energy": 0.02738,
				"method": "rhf"
			},
			{
				"type": "unocc",
				"energy": 0.07474,
				"method": "rhf"
			}
		],
		"cosmo_sigma_profile": { 
			"-0.025": 0.0,
			"-0.024": 0.0,
			"-0.023": 0.0,
			"-0.022": 0.0,
			"-0.021": 0.0,
			"-0.02": 0.0,
			"-0.019": 0.0,
			"-0.018": 0.0,
			"-0.017": 0.0,
			"-0.016": 0.0,
			"-0.015": 0.0,
			"-0.014": 0.0,
			"-0.013": 0.0,
			"-0.012": 0.0,
			"-0.011": 0.0,
			"-0.01": 0.0,
			"-0.009": 0.0,
			"-0.008": 1.03057519343,
			"-0.007": 3.42802693257,
			"-0.006": 16.4700825134,
			"-0.005": 18.8240138995,
			"-0.004": 19.1327781263,
			"-0.003": 15.8328442858,
			"-0.002": 14.3795418768,
			"-0.001": 11.455891331,
			"0.0": 14.8342108839,
			"0.001": 19.5953513789,
			"0.002": 18.6267364877,
			"0.003": 10.7845865979,
			"0.004": 13.1722571309,
			"0.005": 9.60077605442,
			"0.006": 2.38523653658,
			"0.007": 2.64981991385,
			"0.008": 3.39157726189,
			"0.009": 2.31998447339,
			"0.01": 2.68185509699,
			"0.011": 4.17382153678,
			"0.012": 2.81200074166,
			"0.013": 0.865371476359,
			"0.014": 0.0,
			"0.015": 0.0,
			"0.016": 0.0,
			"0.017": 0.0,
			"0.018": 0.0,
			"0.019": 0.0,
			"0.02": 0.0,
			"0.021": 0.0,
			"0.022": 0.0,
			"0.023": 0.0,
			"0.024": 0.0,
			"0.025": 0.0
		}
	}
}
