{
	 "smiles": "CO[Si](OC)(OC)C1=CC=CC=C1", 
	 "Tm": 248.15, 
	 "num_atms": 27, 
	 "gaussian": { 
		 "optdone": 1, 
		 "sigma_profile": "yes", 
		 "theory": "DFT", 
		 "functional": "B3LYP", 
		 "basiset": "6-31G**", 
		 "properties": { 
			 "R2extent": 3027.0282, 
			 "electric_dipole_moment_norm": 1.32269646556, 
			 "electric_quadrupole_moment_norm": 7.96383671103, 
			 "total_energy": -866.673328083, 
			 "HOMO_LUMO_gap": 0.23369, 
			 "cosmo_polarized_energy": -9.01, 
			 "cosmo_cavitation_energy": 32.4, 
			 "cosmo_dispersion_energy": -20.24, 
			 "cosmo_repulsion_energy": 1.73, 
			 "cosmo_total_nonelectrostatic_energy": 13.89, 
			 "SMD_solvation_energy": 7.24 
		},
		"coords": [
			{
				"x": -3.2331220724,
				"y": -0.5216675569,
				"z": -0.487814298,
				"element": "C" 
			},
			{
				"x": -2.2027299014,
				"y": -1.1102484074,
				"z": -1.2684191791,
				"element": "O" 
			},
			{
				"x": -0.6615562022,
				"y": -0.5207736778,
				"z": -1.3422521681,
				"element": "Si" 
			},
			{
				"x": 0.0968941486,
				"y": -1.6785120002,
				"z": -2.2437899111,
				"element": "O" 
			},
			{
				"x": 1.4944978929,
				"y": -1.6869469987,
				"z": -2.4969499669,
				"element": "C" 
			},
			{
				"x": -0.5956481034,
				"y": 0.9728644881,
				"z": -2.05729123,
				"element": "O" 
			},
			{
				"x": -1.0885889937,
				"y": 1.2311075297,
				"z": -3.3676368941,
				"element": "C" 
			},
			{
				"x": 0.1087652995,
				"y": -0.2921524786,
				"z": 0.340304026,
				"element": "C" 
			},
			{
				"x": 0.2089081353,
				"y": -1.3849595307,
				"z": 1.2231743365,
				"element": "C" 
			},
			{
				"x": 0.7817678672,
				"y": -1.2398709162,
				"z": 2.4872757394,
				"element": "C" 
			},
			{
				"x": 1.2670287915,
				"y": 0.0050740656,
				"z": 2.8938860527,
				"element": "C" 
			},
			{
				"x": 1.1773464164,
				"y": 1.1013041313,
				"z": 2.0338381818,
				"element": "C" 
			},
			{
				"x": 0.6036869416,
				"y": 0.9527505769,
				"z": 0.7699819013,
				"element": "C" 
			},
			{
				"x": -2.9282527442,
				"y": -0.3951571561,
				"z": 0.558800681,
				"element": "H" 
			},
			{
				"x": -4.1018250202,
				"y": -1.1854340763,
				"z": -0.5188782479,
				"element": "H" 
			},
			{
				"x": -3.5308621605,
				"y": 0.4581574638,
				"z": -0.8833438428,
				"element": "H" 
			},
			{
				"x": 1.742478184,
				"y": -2.6292585199,
				"z": -2.9936956018,
				"element": "H" 
			},
			{
				"x": 2.0762325225,
				"y": -1.6184999164,
				"z": -1.5688952096,
				"element": "H" 
			},
			{
				"x": 1.7914127665,
				"y": -0.8594848868,
				"z": -3.1544427001,
				"element": "H" 
			},
			{
				"x": -0.5645385311,
				"y": 0.6277525892,
				"z": -4.1187858855,
				"element": "H" 
			},
			{
				"x": -2.1618937215,
				"y": 1.0178146109,
				"z": -3.4410508939,
				"element": "H" 
			},
			{
				"x": -0.9250632326,
				"y": 2.2891372191,
				"z": -3.5912413947,
				"element": "H" 
			},
			{
				"x": -0.1646778609,
				"y": -2.3605502416,
				"z": 0.9203675116,
				"element": "H" 
			},
			{
				"x": 0.8499006484,
				"y": -2.0951215295,
				"z": 3.154044276,
				"element": "H" 
			},
			{
				"x": 1.713472023,
				"y": 0.1198622716,
				"z": 3.8779439548,
				"element": "H" 
			},
			{
				"x": 1.5541229979,
				"y": 2.0710013115,
				"z": 2.3478262662,
				"element": "H" 
			},
			{
				"x": 0.5362439091,
				"y": 1.8085116354,
				"z": 0.1047444962,
				"element": "H" 
			}
		],
		 "valence_orbital": [ 
			{
				"type": "occ",
				"energy": -0.28619,
				"method": "rhf"
			},
			{
				"type": "occ",
				"energy": -0.28036,
				"method": "rhf"
			},
			{
				"type": "occ",
				"energy": -0.27162,
				"method": "rhf"
			},
			{
				"type": "occ",
				"energy": -0.25055,
				"method": "rhf"
			},
			{
				"type": "occ",
				"energy": -0.24936,
				"method": "rhf"
			},
			{
				"type": "unocc",
				"energy": -0.01567,
				"method": "rhf"
			},
			{
				"type": "unocc",
				"energy": -0.00023,
				"method": "rhf"
			},
			{
				"type": "unocc",
				"energy": 0.06674,
				"method": "rhf"
			},
			{
				"type": "unocc",
				"energy": 0.09241,
				"method": "rhf"
			},
			{
				"type": "unocc",
				"energy": 0.09838,
				"method": "rhf"
			}
		],
		"cosmo_sigma_profile": { 
			"-0.025": 0.0,
			"-0.024": 0.0,
			"-0.023": 0.0,
			"-0.022": 0.0,
			"-0.021": 0.0,
			"-0.02": 0.0,
			"-0.019": 0.0,
			"-0.018": 0.0,
			"-0.017": 0.0,
			"-0.016": 0.0,
			"-0.015": 0.0,
			"-0.014": 0.0,
			"-0.013": 0.0,
			"-0.012": 0.0,
			"-0.011": 0.0,
			"-0.01": 0.0,
			"-0.009": 0.0,
			"-0.008": 0.0,
			"-0.007": 0.0367674655981,
			"-0.006": 4.77108466118,
			"-0.005": 16.600513219,
			"-0.004": 31.0113527653,
			"-0.003": 37.1312360872,
			"-0.002": 32.6574978091,
			"-0.001": 22.2116746447,
			"0.0": 16.0062916899,
			"0.001": 14.2378647356,
			"0.002": 14.0391992183,
			"0.003": 11.1912588272,
			"0.004": 10.5995555937,
			"0.005": 12.8007916423,
			"0.006": 5.73590757881,
			"0.007": 3.20226455708,
			"0.008": 3.76784545034,
			"0.009": 2.71763271466,
			"0.01": 2.25559529292,
			"0.011": 1.48612597388,
			"0.012": 2.35544650257,
			"0.013": 2.590989768,
			"0.014": 2.58788014453,
			"0.015": 0.111675104237,
			"0.016": 0.0,
			"0.017": 0.0,
			"0.018": 0.0,
			"0.019": 0.0,
			"0.02": 0.0,
			"0.021": 0.0,
			"0.022": 0.0,
			"0.023": 0.0,
			"0.024": 0.0,
			"0.025": 0.0
		}
	}
}
