{
	 "smiles": "CCC(C)(C)C(C)(C)O", 
	 "Tm": 272.15, 
	 "num_atms": 27, 
	 "gaussian": { 
		 "optdone": 1, 
		 "sigma_profile": "yes", 
		 "theory": "DFT", 
		 "functional": "B3LYP", 
		 "basiset": "6-31G**", 
		 "properties": { 
			 "R2extent": 1655.6087, 
			 "electric_dipole_moment_norm": 1.41852930178, 
			 "electric_quadrupole_moment_norm": 4.10363255421, 
			 "total_energy": -390.936541056, 
			 "HOMO_LUMO_gap": 0.32317, 
			 "cosmo_polarized_energy": -5.32, 
			 "cosmo_cavitation_energy": 25.41, 
			 "cosmo_dispersion_energy": -18.41, 
			 "cosmo_repulsion_energy": 1.46, 
			 "cosmo_total_nonelectrostatic_energy": 8.46, 
			 "SMD_solvation_energy": 4.6 
		},
		"coords": [
			{
				"x": -1.975079109,
				"y": -1.5378323828,
				"z": 2.4994369507,
				"element": "C" 
			},
			{
				"x": -1.1516454835,
				"y": -1.2343537588,
				"z": 1.2390656315,
				"element": "C" 
			},
			{
				"x": -1.2539260776,
				"y": 0.2140153606,
				"z": 0.6812599879,
				"element": "C" 
			},
			{
				"x": -0.6036611565,
				"y": 1.1954314795,
				"z": 1.6837005521,
				"element": "C" 
			},
			{
				"x": -2.7315995364,
				"y": 0.6303639228,
				"z": 0.5123726063,
				"element": "C" 
			},
			{
				"x": -0.5202054539,
				"y": 0.321238729,
				"z": -0.7235173342,
				"element": "C" 
			},
			{
				"x": 0.9359643067,
				"y": -0.1791518787,
				"z": -0.6853448926,
				"element": "C" 
			},
			{
				"x": -1.2662467259,
				"y": -0.4115114091,
				"z": -1.8487424653,
				"element": "C" 
			},
			{
				"x": -0.5205618893,
				"y": 1.6943818805,
				"z": -1.1585091244,
				"element": "O" 
			},
			{
				"x": -1.80505216,
				"y": -2.5715795289,
				"z": 2.8184476325,
				"element": "H" 
			},
			{
				"x": -1.7021205755,
				"y": -0.8915203553,
				"z": 3.3397763411,
				"element": "H" 
			},
			{
				"x": -3.0490220618,
				"y": -1.4227101663,
				"z": 2.3254607748,
				"element": "H" 
			},
			{
				"x": -1.4586297711,
				"y": -1.941449939,
				"z": 0.4589474459,
				"element": "H" 
			},
			{
				"x": -0.1001757352,
				"y": -1.4584148247,
				"z": 1.4554534295,
				"element": "H" 
			},
			{
				"x": 0.4574317554,
				"y": 0.9837126763,
				"z": 1.8527905134,
				"element": "H" 
			},
			{
				"x": -0.7015027259,
				"y": 2.2314483387,
				"z": 1.3438236014,
				"element": "H" 
			},
			{
				"x": -1.1014566319,
				"y": 1.1385320048,
				"z": 2.655677022,
				"element": "H" 
			},
			{
				"x": -2.7949058966,
				"y": 1.5586299617,
				"z": -0.0617621298,
				"element": "H" 
			},
			{
				"x": -3.2033510418,
				"y": 0.802408856,
				"z": 1.4845132658,
				"element": "H" 
			},
			{
				"x": -3.3192347306,
				"y": -0.1343671772,
				"z": -0.0053228428,
				"element": "H" 
			},
			{
				"x": 1.4080190964,
				"y": 0.0405615648,
				"z": -1.6473869191,
				"element": "H" 
			},
			{
				"x": 1.5237850544,
				"y": 0.3141480283,
				"z": 0.0962686204,
				"element": "H" 
			},
			{
				"x": 0.9983324016,
				"y": -1.2575476799,
				"z": -0.5167335101,
				"element": "H" 
			},
			{
				"x": -0.6926673082,
				"y": -0.3214431513,
				"z": -2.7755586049,
				"element": "H" 
			},
			{
				"x": -1.3972779145,
				"y": -1.4745345514,
				"z": -1.6310497572,
				"element": "H" 
			},
			{
				"x": -2.2471830118,
				"y": 0.0342220554,
				"z": -2.0234303338,
				"element": "H" 
			},
			{
				"x": 0.1116723823,
				"y": 2.1783219451,
				"z": -0.6123364611,
				"element": "H" 
			}
		],
		 "valence_orbital": [ 
			{
				"type": "occ",
				"energy": -0.33113,
				"method": "rhf"
			},
			{
				"type": "occ",
				"energy": -0.31796,
				"method": "rhf"
			},
			{
				"type": "occ",
				"energy": -0.3072,
				"method": "rhf"
			},
			{
				"type": "occ",
				"energy": -0.2967,
				"method": "rhf"
			},
			{
				"type": "occ",
				"energy": -0.25576,
				"method": "rhf"
			},
			{
				"type": "unocc",
				"energy": 0.06741,
				"method": "rhf"
			},
			{
				"type": "unocc",
				"energy": 0.1059,
				"method": "rhf"
			},
			{
				"type": "unocc",
				"energy": 0.11083,
				"method": "rhf"
			},
			{
				"type": "unocc",
				"energy": 0.11524,
				"method": "rhf"
			},
			{
				"type": "unocc",
				"energy": 0.13216,
				"method": "rhf"
			}
		],
		"cosmo_sigma_profile": { 
			"-0.025": 0.0,
			"-0.024": 0.0,
			"-0.023": 0.0,
			"-0.022": 0.0,
			"-0.021": 0.0,
			"-0.02": 0.0,
			"-0.019": 0.0,
			"-0.018": 0.0,
			"-0.017": 0.0,
			"-0.016": 0.0,
			"-0.015": 0.0,
			"-0.014": 0.181028094699,
			"-0.013": 0.708477625787,
			"-0.012": 0.664977457625,
			"-0.011": 1.41620657841,
			"-0.01": 0.474027032182,
			"-0.009": 0.867198160354,
			"-0.008": 0.875857240189,
			"-0.007": 1.16493667866,
			"-0.006": 1.2280847551,
			"-0.005": 1.74270961609,
			"-0.004": 4.05676379045,
			"-0.003": 13.1086792918,
			"-0.002": 29.1644213098,
			"-0.001": 33.104805207,
			"0.0": 33.3687840483,
			"0.001": 33.9000421864,
			"0.002": 19.3074538998,
			"0.003": 3.94542538005,
			"0.004": 1.44465744664,
			"0.005": 0.868647709667,
			"0.006": 1.46711927131,
			"0.007": 1.57020156628,
			"0.008": 1.53973392136,
			"0.009": 1.37275368358,
			"0.01": 0.723995628991,
			"0.011": 1.51184609936,
			"0.012": 0.750125609784,
			"0.013": 1.34691986758,
			"0.014": 1.47704931739,
			"0.015": 0.987482341335,
			"0.016": 0.0,
			"0.017": 0.0,
			"0.018": 0.0,
			"0.019": 0.0,
			"0.02": 0.0,
			"0.021": 0.0,
			"0.022": 0.0,
			"0.023": 0.0,
			"0.024": 0.0,
			"0.025": 0.0
		}
	}
}
