{
	 "smiles": "OC(=O)CC(O)(CC(O)=O)C(O)=O", 
	 "Tm": 427.15, 
	 "num_atms": 21, 
	 "gaussian": { 
		 "optdone": 1, 
		 "sigma_profile": "yes", 
		 "theory": "DFT", 
		 "functional": "B3LYP", 
		 "basiset": "6-31G**", 
		 "properties": { 
			 "R2extent": 2480.5918, 
			 "electric_dipole_moment_norm": 4.30957599422, 
			 "electric_quadrupole_moment_norm": 8.39597570566, 
			 "total_energy": -760.057393361, 
			 "HOMO_LUMO_gap": 0.25526, 
			 "cosmo_polarized_energy": -22.86, 
			 "cosmo_cavitation_energy": 26.13, 
			 "cosmo_dispersion_energy": -18.3, 
			 "cosmo_repulsion_energy": 1.49, 
			 "cosmo_total_nonelectrostatic_energy": 9.32, 
			 "SMD_solvation_energy": 7.9 
		},
		"coords": [
			{
				"x": -3.5803540817,
				"y": -0.8539999746,
				"z": -0.4065134419,
				"element": "O" 
			},
			{
				"x": -2.6592651249,
				"y": -0.4650902587,
				"z": 0.5061648096,
				"element": "C" 
			},
			{
				"x": -2.5328493113,
				"y": -1.0115683278,
				"z": 1.5803581362,
				"element": "O" 
			},
			{
				"x": -1.8262155441,
				"y": 0.697070527,
				"z": 0.007390052,
				"element": "C" 
			},
			{
				"x": -0.357598744,
				"y": 0.3083722239,
				"z": -0.363750114,
				"element": "C" 
			},
			{
				"x": 0.3167558985,
				"y": 1.4516068448,
				"z": -0.856992255,
				"element": "O" 
			},
			{
				"x": 0.4637619585,
				"y": -0.2202523383,
				"z": 0.829401514,
				"element": "C" 
			},
			{
				"x": 0.9833565206,
				"y": 0.8600626338,
				"z": 1.7576267496,
				"element": "C" 
			},
			{
				"x": -0.0019411054,
				"y": 1.6380014558,
				"z": 2.2736335173,
				"element": "O" 
			},
			{
				"x": 2.1442089224,
				"y": 1.0054245574,
				"z": 2.0624300202,
				"element": "O" 
			},
			{
				"x": -0.4362427122,
				"y": -0.7912347487,
				"z": -1.4371966783,
				"element": "C" 
			},
			{
				"x": -0.5238692265,
				"y": -0.25370058,
				"z": -2.6788394973,
				"element": "O" 
			},
			{
				"x": -0.4710957821,
				"y": -1.9801899221,
				"z": -1.2265970295,
				"element": "O" 
			},
			{
				"x": -4.0386869272,
				"y": -1.6201962366,
				"z": -0.0201406426,
				"element": "H" 
			},
			{
				"x": -1.7627134923,
				"y": 1.4456559306,
				"z": 0.7983011673,
				"element": "H" 
			},
			{
				"x": -2.2967768945,
				"y": 1.1360209706,
				"z": -0.8755909166,
				"element": "H" 
			},
			{
				"x": 0.0020973673,
				"y": 1.6268341596,
				"z": -1.7548011601,
				"element": "H" 
			},
			{
				"x": -0.1503232009,
				"y": -0.9168690037,
				"z": 1.4068342047,
				"element": "H" 
			},
			{
				"x": 1.3400421295,
				"y": -0.7531987029,
				"z": 0.4600700555,
				"element": "H" 
			},
			{
				"x": 0.4425546024,
				"y": 2.2814185073,
				"z": 2.8510790762,
				"element": "H" 
			},
			{
				"x": -0.6169452521,
				"y": -0.9931677173,
				"z": -3.3026675674,
				"element": "H" 
			}
		],
		 "valence_orbital": [ 
			{
				"type": "occ",
				"energy": -0.31752,
				"method": "rhf"
			},
			{
				"type": "occ",
				"energy": -0.31448,
				"method": "rhf"
			},
			{
				"type": "occ",
				"energy": -0.28629,
				"method": "rhf"
			},
			{
				"type": "occ",
				"energy": -0.27646,
				"method": "rhf"
			},
			{
				"type": "occ",
				"energy": -0.27307,
				"method": "rhf"
			},
			{
				"type": "unocc",
				"energy": -0.01781,
				"method": "rhf"
			},
			{
				"type": "unocc",
				"energy": -0.00478,
				"method": "rhf"
			},
			{
				"type": "unocc",
				"energy": 0.01089,
				"method": "rhf"
			},
			{
				"type": "unocc",
				"energy": 0.04907,
				"method": "rhf"
			},
			{
				"type": "unocc",
				"energy": 0.07302,
				"method": "rhf"
			}
		],
		"cosmo_sigma_profile": { 
			"-0.025": 0.0,
			"-0.024": 0.0,
			"-0.023": 0.0,
			"-0.022": 0.0,
			"-0.021": 0.0,
			"-0.02": 0.121429064459,
			"-0.019": 1.43278148789,
			"-0.018": 2.82854602443,
			"-0.017": 2.79539217815,
			"-0.016": 2.99076668035,
			"-0.015": 1.78424806476,
			"-0.014": 2.01927902505,
			"-0.013": 2.69922352677,
			"-0.012": 3.46992070615,
			"-0.011": 3.14420149276,
			"-0.01": 2.14295256128,
			"-0.009": 2.78750979094,
			"-0.008": 4.73154170355,
			"-0.007": 6.43545068471,
			"-0.006": 7.96049430386,
			"-0.005": 8.85996907706,
			"-0.004": 10.0595062838,
			"-0.003": 10.8613302427,
			"-0.002": 8.40891133094,
			"-0.001": 7.44356164724,
			"0.0": 8.95837680412,
			"0.001": 8.40047740452,
			"0.002": 9.60142534529,
			"0.003": 8.64015391396,
			"0.004": 9.95116667842,
			"0.005": 7.91404612157,
			"0.006": 7.87933873075,
			"0.007": 8.27403835945,
			"0.008": 7.91548073798,
			"0.009": 7.95454378306,
			"0.01": 10.363985545,
			"0.011": 12.2805238613,
			"0.012": 3.92861934062,
			"0.013": 0.175314374064,
			"0.014": 0.0,
			"0.015": 0.0,
			"0.016": 0.0,
			"0.017": 0.0,
			"0.018": 0.0,
			"0.019": 0.0,
			"0.02": 0.0,
			"0.021": 0.0,
			"0.022": 0.0,
			"0.023": 0.0,
			"0.024": 0.0,
			"0.025": 0.0
		}
	}
}
