{
	 "smiles": "ClC1CCC(Cl)CC1", 
	 "Tm": 291.15, 
	 "num_atms": 18, 
	 "gaussian": { 
		 "optdone": 1, 
		 "sigma_profile": "yes", 
		 "theory": "DFT", 
		 "functional": "B3LYP", 
		 "basiset": "6-31G**", 
		 "properties": { 
			 "R2extent": 3112.9054, 
			 "electric_dipole_moment_norm": 2.9515890449, 
			 "electric_quadrupole_moment_norm": 9.7528923879, 
			 "total_energy": -1155.07011971, 
			 "HOMO_LUMO_gap": 0.2999, 
			 "cosmo_polarized_energy": -6.56, 
			 "cosmo_cavitation_energy": 22.23, 
			 "cosmo_dispersion_energy": -17.02, 
			 "cosmo_repulsion_energy": 1.41, 
			 "cosmo_total_nonelectrostatic_energy": 6.62, 
			 "SMD_solvation_energy": 2.34 
		},
		"coords": [
			{
				"x": 2.5891308877,
				"y": 2.2740860557,
				"z": -1.4820606281,
				"element": "Cl" 
			},
			{
				"x": 1.5884953002,
				"y": 1.1083961423,
				"z": -0.4526672807,
				"element": "C" 
			},
			{
				"x": 0.4407838468,
				"y": 0.4916308023,
				"z": -1.2788836832,
				"element": "C" 
			},
			{
				"x": -0.9195436635,
				"y": 1.2033739627,
				"z": -1.0732878654,
				"element": "C" 
			},
			{
				"x": -0.7135679442,
				"y": 2.6980160582,
				"z": -0.8443015789,
				"element": "C" 
			},
			{
				"x": -2.3295490205,
				"y": 3.5629768166,
				"z": -0.7976627316,
				"element": "Cl" 
			},
			{
				"x": 0.0741743978,
				"y": 2.9779490844,
				"z": 0.4484171107,
				"element": "C" 
			},
			{
				"x": 1.0665739237,
				"y": 1.8369820328,
				"z": 0.7813527211,
				"element": "C" 
			},
			{
				"x": 2.3141319695,
				"y": 0.3439079888,
				"z": -0.1731467528,
				"element": "H" 
			},
			{
				"x": 0.7181415194,
				"y": 0.486578333,
				"z": -2.3358406256,
				"element": "H" 
			},
			{
				"x": 0.3379880212,
				"y": -0.5582382435,
				"z": -0.9796081487,
				"element": "H" 
			},
			{
				"x": -1.4438128315,
				"y": 0.7841002508,
				"z": -0.2065827695,
				"element": "H" 
			},
			{
				"x": -1.562199662,
				"y": 1.0365289346,
				"z": -1.9415140348,
				"element": "H" 
			},
			{
				"x": -0.2039586643,
				"y": 3.1371485481,
				"z": -1.7029090148,
				"element": "H" 
			},
			{
				"x": 0.6050731556,
				"y": 3.9277645248,
				"z": 0.3461555745,
				"element": "H" 
			},
			{
				"x": -0.624992766,
				"y": 3.0892708448,
				"z": 1.2819431478,
				"element": "H" 
			},
			{
				"x": 0.5620960692,
				"y": 1.0753005841,
				"z": 1.3914596496,
				"element": "H" 
			},
			{
				"x": 1.8965354611,
				"y": 2.2191272794,
				"z": 1.3817369105,
				"element": "H" 
			}
		],
		 "valence_orbital": [ 
			{
				"type": "occ",
				"energy": -0.33547,
				"method": "rhf"
			},
			{
				"type": "occ",
				"energy": -0.29775,
				"method": "rhf"
			},
			{
				"type": "occ",
				"energy": -0.29658,
				"method": "rhf"
			},
			{
				"type": "occ",
				"energy": -0.28877,
				"method": "rhf"
			},
			{
				"type": "occ",
				"energy": -0.28815,
				"method": "rhf"
			},
			{
				"type": "unocc",
				"energy": 0.01175,
				"method": "rhf"
			},
			{
				"type": "unocc",
				"energy": 0.01858,
				"method": "rhf"
			},
			{
				"type": "unocc",
				"energy": 0.07805,
				"method": "rhf"
			},
			{
				"type": "unocc",
				"energy": 0.09714,
				"method": "rhf"
			},
			{
				"type": "unocc",
				"energy": 0.12022,
				"method": "rhf"
			}
		],
		"cosmo_sigma_profile": { 
			"-0.025": 0.0,
			"-0.024": 0.0,
			"-0.023": 0.0,
			"-0.022": 0.0,
			"-0.021": 0.0,
			"-0.02": 0.0,
			"-0.019": 0.0,
			"-0.018": 0.0,
			"-0.017": 0.0,
			"-0.016": 0.0,
			"-0.015": 0.0,
			"-0.014": 0.0,
			"-0.013": 0.0,
			"-0.012": 0.0,
			"-0.011": 0.0,
			"-0.01": 0.0,
			"-0.009": 0.0,
			"-0.008": 0.0,
			"-0.007": 1.68853249164,
			"-0.006": 4.36027541254,
			"-0.005": 15.0952581111,
			"-0.004": 22.9432675234,
			"-0.003": 21.5422893848,
			"-0.002": 18.0456797287,
			"-0.001": 13.3060700296,
			"0.0": 8.03956176344,
			"0.001": 9.04284934243,
			"0.002": 7.59175732338,
			"0.003": 8.25652678286,
			"0.004": 8.84618698601,
			"0.005": 10.0082221794,
			"0.006": 13.7158530375,
			"0.007": 13.7138220656,
			"0.008": 0.877372968579,
			"0.009": 0.0,
			"0.01": 0.0,
			"0.011": 0.0,
			"0.012": 0.0,
			"0.013": 0.0,
			"0.014": 0.0,
			"0.015": 0.0,
			"0.016": 0.0,
			"0.017": 0.0,
			"0.018": 0.0,
			"0.019": 0.0,
			"0.02": 0.0,
			"0.021": 0.0,
			"0.022": 0.0,
			"0.023": 0.0,
			"0.024": 0.0,
			"0.025": 0.0
		}
	}
}
