{
	 "smiles": "CCC1(CC)OC(=O)C2CCC1(C)OC2(C)C", 
	 "Tm": 363.15, 
	 "num_atms": 41, 
	 "gaussian": { 
		 "optdone": 1, 
		 "sigma_profile": "yes", 
		 "theory": "DFT", 
		 "functional": "B3LYP", 
		 "basiset": "6-31G**", 
		 "properties": { 
			 "R2extent": 4325.895, 
			 "electric_dipole_moment_norm": 3.66622069849, 
			 "electric_quadrupole_moment_norm": 20.020739816, 
			 "total_energy": -773.631957099, 
			 "HOMO_LUMO_gap": 0.25114, 
			 "cosmo_polarized_energy": -10.8, 
			 "cosmo_cavitation_energy": 35.98, 
			 "cosmo_dispersion_energy": -25.41, 
			 "cosmo_repulsion_energy": 1.9, 
			 "cosmo_total_nonelectrostatic_energy": 12.47, 
			 "SMD_solvation_energy": 6.6 
		},
		"coords": [
			{
				"x": -0.5948295065,
				"y": -0.6900383806,
				"z": 3.0346582352,
				"element": "C" 
			},
			{
				"x": 0.5910668157,
				"y": -1.1408332747,
				"z": 2.1711591802,
				"element": "C" 
			},
			{
				"x": 0.4293584493,
				"y": -1.1907729262,
				"z": 0.6263973665,
				"element": "C" 
			},
			{
				"x": -0.9223870559,
				"y": -1.830125152,
				"z": 0.1926389844,
				"element": "C" 
			},
			{
				"x": -2.2096914652,
				"y": -0.9990175936,
				"z": 0.105146164,
				"element": "C" 
			},
			{
				"x": 1.4112238243,
				"y": -2.2433022763,
				"z": 0.2839539778,
				"element": "O" 
			},
			{
				"x": 1.894961739,
				"y": -2.489214339,
				"z": -0.9661607324,
				"element": "C" 
			},
			{
				"x": 2.0567855479,
				"y": -3.6333474415,
				"z": -1.3231207877,
				"element": "O" 
			},
			{
				"x": 2.3855715805,
				"y": -1.2927788979,
				"z": -1.7774011897,
				"element": "C" 
			},
			{
				"x": 3.2193971472,
				"y": -0.389298535,
				"z": -0.8515453769,
				"element": "C" 
			},
			{
				"x": 2.2975984844,
				"y": 0.5099283532,
				"z": -0.0027400097,
				"element": "C" 
			},
			{
				"x": 0.7896989018,
				"y": 0.1589215617,
				"z": -0.096570667,
				"element": "C" 
			},
			{
				"x": 0.0189287229,
				"y": 1.3598442151,
				"z": 0.4782035041,
				"element": "C" 
			},
			{
				"x": 0.364024351,
				"y": 0.0770650222,
				"z": -1.4715660401,
				"element": "O" 
			},
			{
				"x": 1.2469910886,
				"y": -0.4970614198,
				"z": -2.4624494412,
				"element": "C" 
			},
			{
				"x": 0.384730318,
				"y": -1.3985573507,
				"z": -3.3558826046,
				"element": "C" 
			},
			{
				"x": 1.8096392534,
				"y": 0.654728384,
				"z": -3.3158073842,
				"element": "C" 
			},
			{
				"x": -1.4577638058,
				"y": -1.3508542116,
				"z": 2.9164148914,
				"element": "H" 
			},
			{
				"x": -0.3012013196,
				"y": -0.7310487992,
				"z": 4.0887075162,
				"element": "H" 
			},
			{
				"x": -0.9211540803,
				"y": 0.3317050678,
				"z": 2.8284104163,
				"element": "H" 
			},
			{
				"x": 1.471657618,
				"y": -0.5394071829,
				"z": 2.4210838549,
				"element": "H" 
			},
			{
				"x": 0.8440714077,
				"y": -2.1661617347,
				"z": 2.4583499612,
				"element": "H" 
			},
			{
				"x": -1.0775823675,
				"y": -2.680079736,
				"z": 0.8676012574,
				"element": "H" 
			},
			{
				"x": -0.7592188029,
				"y": -2.2698399375,
				"z": -0.7932393598,
				"element": "H" 
			},
			{
				"x": -2.4718176822,
				"y": -0.4965543249,
				"z": 1.0391865468,
				"element": "H" 
			},
			{
				"x": -2.1409390318,
				"y": -0.251179912,
				"z": -0.6874304914,
				"element": "H" 
			},
			{
				"x": -3.0407999389,
				"y": -1.6678161559,
				"z": -0.1441850385,
				"element": "H" 
			},
			{
				"x": 3.0116238646,
				"y": -1.7253595768,
				"z": -2.5623225096,
				"element": "H" 
			},
			{
				"x": 3.8956653688,
				"y": 0.2241896116,
				"z": -1.4537057953,
				"element": "H" 
			},
			{
				"x": 3.8537840669,
				"y": -1.0134170641,
				"z": -0.2156625314,
				"element": "H" 
			},
			{
				"x": 2.6066014692,
				"y": 0.5020821271,
				"z": 1.0454757939,
				"element": "H" 
			},
			{
				"x": 2.3896386147,
				"y": 1.5489207163,
				"z": -0.335010774,
				"element": "H" 
			},
			{
				"x": 0.1971107114,
				"y": 2.2170406558,
				"z": -0.1760388214,
				"element": "H" 
			},
			{
				"x": -1.0553376441,
				"y": 1.1940339906,
				"z": 0.5237273388,
				"element": "H" 
			},
			{
				"x": 0.3770674082,
				"y": 1.6133444649,
				"z": 1.4793407424,
				"element": "H" 
			},
			{
				"x": -0.4762858634,
				"y": -0.8317304865,
				"z": -3.7212993454,
				"element": "H" 
			},
			{
				"x": 0.9606554351,
				"y": -1.7488101883,
				"z": -4.2181705145,
				"element": "H" 
			},
			{
				"x": 0.0181005152,
				"y": -2.2778245343,
				"z": -2.8221565848,
				"element": "H" 
			},
			{
				"x": 0.9792556312,
				"y": 1.190733924,
				"z": -3.7843000274,
				"element": "H" 
			},
			{
				"x": 2.4652291977,
				"y": 0.2779146498,
				"z": -4.10792874,
				"element": "H" 
			},
			{
				"x": 2.3714710314,
				"y": 1.3739786881,
				"z": -2.7158609647,
				"element": "H" 
			}
		],
		 "valence_orbital": [ 
			{
				"type": "occ",
				"energy": -0.31565,
				"method": "rhf"
			},
			{
				"type": "occ",
				"energy": -0.28685,
				"method": "rhf"
			},
			{
				"type": "occ",
				"energy": -0.28077,
				"method": "rhf"
			},
			{
				"type": "occ",
				"energy": -0.25821,
				"method": "rhf"
			},
			{
				"type": "occ",
				"energy": -0.24618,
				"method": "rhf"
			},
			{
				"type": "unocc",
				"energy": 0.00496,
				"method": "rhf"
			},
			{
				"type": "unocc",
				"energy": 0.06299,
				"method": "rhf"
			},
			{
				"type": "unocc",
				"energy": 0.0783,
				"method": "rhf"
			},
			{
				"type": "unocc",
				"energy": 0.0872,
				"method": "rhf"
			},
			{
				"type": "unocc",
				"energy": 0.10031,
				"method": "rhf"
			}
		],
		"cosmo_sigma_profile": { 
			"-0.025": 0.0,
			"-0.024": 0.0,
			"-0.023": 0.0,
			"-0.022": 0.0,
			"-0.021": 0.0,
			"-0.02": 0.0,
			"-0.019": 0.0,
			"-0.018": 0.0,
			"-0.017": 0.0,
			"-0.016": 0.0,
			"-0.015": 0.0,
			"-0.014": 0.0,
			"-0.013": 0.0,
			"-0.012": 0.0,
			"-0.011": 0.0,
			"-0.01": 0.0,
			"-0.009": 0.0,
			"-0.008": 0.0,
			"-0.007": 0.0,
			"-0.006": 0.946920057042,
			"-0.005": 9.02319493076,
			"-0.004": 25.0462216822,
			"-0.003": 43.9037748648,
			"-0.002": 40.4569835916,
			"-0.001": 40.3700059778,
			"0.0": 37.3921225716,
			"0.001": 26.8086623867,
			"0.002": 8.83533249669,
			"0.003": 4.99240787777,
			"0.004": 3.66890083485,
			"0.005": 4.37732909287,
			"0.006": 3.83253650872,
			"0.007": 3.43889105357,
			"0.008": 3.16312888576,
			"0.009": 2.98656658917,
			"0.01": 3.38549363074,
			"0.011": 3.8646409156,
			"0.012": 6.04095147655,
			"0.013": 3.43235798878,
			"0.014": 0.971095461488,
			"0.015": 0.0,
			"0.016": 0.0,
			"0.017": 0.0,
			"0.018": 0.0,
			"0.019": 0.0,
			"0.02": 0.0,
			"0.021": 0.0,
			"0.022": 0.0,
			"0.023": 0.0,
			"0.024": 0.0,
			"0.025": 0.0
		}
	}
}
