{
	 "smiles": "CC1=CC(Br)=C(C)C=C1S(Cl)(=O)=O", 
	 "Tm": 328.15, 
	 "num_atms": 21, 
	 "gaussian": { 
		 "optdone": 1, 
		 "sigma_profile": "yes", 
		 "theory": "DFT", 
		 "functional": "B3LYP", 
		 "basiset": "6-31G**", 
		 "properties": { 
			 "R2extent": 5667.7841, 
			 "electric_dipole_moment_norm": 4.02701585172, 
			 "electric_quadrupole_moment_norm": 12.6458945144, 
			 "total_energy": -3889.84930514, 
			 "HOMO_LUMO_gap": 0.17594, 
			 "cosmo_polarized_energy": -7.78, 
			 "cosmo_cavitation_energy": 29.9, 
			 "cosmo_dispersion_energy": -22.63, 
			 "cosmo_repulsion_energy": 1.74, 
			 "cosmo_total_nonelectrostatic_energy": 9.0, 
			 "SMD_solvation_energy": 2.88 
		},
		"coords": [
			{
				"x": -1.5866828166,
				"y": -2.2776148902,
				"z": 0.4112209174,
				"element": "C" 
			},
			{
				"x": -0.5344286199,
				"y": -1.2570089239,
				"z": 0.7679848355,
				"element": "C" 
			},
			{
				"x": 0.7685799095,
				"y": -1.6771164645,
				"z": 1.0554299006,
				"element": "C" 
			},
			{
				"x": 1.773741791,
				"y": -0.7727002342,
				"z": 1.3940135348,
				"element": "C" 
			},
			{
				"x": 3.5099617049,
				"y": -1.4751044013,
				"z": 1.7620081677,
				"element": "Br" 
			},
			{
				"x": 1.5484258676,
				"y": 0.6090328677,
				"z": 1.4725290268,
				"element": "C" 
			},
			{
				"x": 2.6237772554,
				"y": 1.5975064881,
				"z": 1.837701087,
				"element": "C" 
			},
			{
				"x": 0.2482485598,
				"y": 1.0375479527,
				"z": 1.1896728162,
				"element": "C" 
			},
			{
				"x": -0.7554880982,
				"y": 0.1311398057,
				"z": 0.8432202344,
				"element": "C" 
			},
			{
				"x": -2.3518898819,
				"y": 0.8569040627,
				"z": 0.4733308168,
				"element": "S" 
			},
			{
				"x": -3.469508573,
				"y": 0.3510694361,
				"z": 2.2297431312,
				"element": "Cl" 
			},
			{
				"x": -2.9935357129,
				"y": 0.1505695016,
				"z": -0.628833694,
				"element": "O" 
			},
			{
				"x": -2.2338113282,
				"y": 2.3097382219,
				"z": 0.480819141,
				"element": "O" 
			},
			{
				"x": -1.180879962,
				"y": -3.2858516862,
				"z": 0.5174617395,
				"element": "H" 
			},
			{
				"x": -1.9345422058,
				"y": -2.1435618939,
				"z": -0.6161218395,
				"element": "H" 
			},
			{
				"x": -2.4655965449,
				"y": -2.1916697688,
				"z": 1.0570266832,
				"element": "H" 
			},
			{
				"x": 1.0016089195,
				"y": -2.7351623253,
				"z": 1.0140023723,
				"element": "H" 
			},
			{
				"x": 3.0357150153,
				"y": 1.3837462584,
				"z": 2.8294443144,
				"element": "H" 
			},
			{
				"x": 3.458384941,
				"y": 1.5521361187,
				"z": 1.1303459742,
				"element": "H" 
			},
			{
				"x": 2.2287339478,
				"y": 2.6157308186,
				"z": 1.8403230608,
				"element": "H" 
			},
			{
				"x": 0.0112858315,
				"y": 2.0944690559,
				"z": 1.2335777797,
				"element": "H" 
			}
		],
		 "valence_orbital": [ 
			{
				"type": "occ",
				"energy": -0.32649,
				"method": "rhf"
			},
			{
				"type": "occ",
				"energy": -0.31521,
				"method": "rhf"
			},
			{
				"type": "occ",
				"energy": -0.30679,
				"method": "rhf"
			},
			{
				"type": "occ",
				"energy": -0.27954,
				"method": "rhf"
			},
			{
				"type": "occ",
				"energy": -0.26816,
				"method": "rhf"
			},
			{
				"type": "unocc",
				"energy": -0.09222,
				"method": "rhf"
			},
			{
				"type": "unocc",
				"energy": -0.05061,
				"method": "rhf"
			},
			{
				"type": "unocc",
				"energy": -0.03642,
				"method": "rhf"
			},
			{
				"type": "unocc",
				"energy": -0.01156,
				"method": "rhf"
			},
			{
				"type": "unocc",
				"energy": 0.04969,
				"method": "rhf"
			}
		],
		"cosmo_sigma_profile": { 
			"-0.025": 0.0,
			"-0.024": 0.0,
			"-0.023": 0.0,
			"-0.022": 0.0,
			"-0.021": 0.0,
			"-0.02": 0.0,
			"-0.019": 0.0,
			"-0.018": 0.0,
			"-0.017": 0.0,
			"-0.016": 0.0,
			"-0.015": 0.0,
			"-0.014": 0.0,
			"-0.013": 0.0,
			"-0.012": 0.0,
			"-0.011": 0.0,
			"-0.01": 0.0,
			"-0.009": 0.209911449234,
			"-0.008": 3.74440061062,
			"-0.007": 3.99667772103,
			"-0.006": 6.1366410405,
			"-0.005": 10.8495946594,
			"-0.004": 15.7864519253,
			"-0.003": 19.6097414399,
			"-0.002": 28.9399236585,
			"-0.001": 29.9441115349,
			"0.0": 27.8417672534,
			"0.001": 19.9747746132,
			"0.002": 16.1564963976,
			"0.003": 22.1453674068,
			"0.004": 13.9729467359,
			"0.005": 2.97818299026,
			"0.006": 3.97826276095,
			"0.007": 5.40657620147,
			"0.008": 8.3191499939,
			"0.009": 4.44453732684,
			"0.01": 0.00584604132189,
			"0.011": 0.0,
			"0.012": 0.0,
			"0.013": 0.0,
			"0.014": 0.0,
			"0.015": 0.0,
			"0.016": 0.0,
			"0.017": 0.0,
			"0.018": 0.0,
			"0.019": 0.0,
			"0.02": 0.0,
			"0.021": 0.0,
			"0.022": 0.0,
			"0.023": 0.0,
			"0.024": 0.0,
			"0.025": 0.0
		}
	}
}
