{
	 "smiles": "CC(O)CC(C)(C)C", 
	 "Tm": 213.15, 
	 "num_atms": 24, 
	 "gaussian": { 
		 "optdone": 1, 
		 "sigma_profile": "yes", 
		 "theory": "DFT", 
		 "functional": "B3LYP", 
		 "basiset": "6-31G**", 
		 "properties": { 
			 "R2extent": 1339.2243, 
			 "electric_dipole_moment_norm": 1.63339774703, 
			 "electric_quadrupole_moment_norm": 4.97696391287, 
			 "total_energy": -351.62540449, 
			 "HOMO_LUMO_gap": 0.33005, 
			 "cosmo_polarized_energy": -5.24, 
			 "cosmo_cavitation_energy": 24.25, 
			 "cosmo_dispersion_energy": -17.3, 
			 "cosmo_repulsion_energy": 1.43, 
			 "cosmo_total_nonelectrostatic_energy": 8.38, 
			 "SMD_solvation_energy": 4.39 
		},
		"coords": [
			{
				"x": 2.5933595955,
				"y": -1.6462001897,
				"z": -0.5187425436,
				"element": "C" 
			},
			{
				"x": 1.2961452217,
				"y": -1.0766402914,
				"z": 0.0639886137,
				"element": "C" 
			},
			{
				"x": 1.2815600911,
				"y": -1.2263212689,
				"z": 1.4871732116,
				"element": "O" 
			},
			{
				"x": 1.1398932389,
				"y": 0.4102628855,
				"z": -0.2700021769,
				"element": "C" 
			},
			{
				"x": -0.161033165,
				"y": 1.1435289872,
				"z": 0.1650680757,
				"element": "C" 
			},
			{
				"x": -0.1624481816,
				"y": 1.4365128228,
				"z": 1.6791915013,
				"element": "C" 
			},
			{
				"x": -1.4107602756,
				"y": 0.3190793023,
				"z": -0.1987508287,
				"element": "C" 
			},
			{
				"x": -0.2092574041,
				"y": 2.4857716121,
				"z": -0.594759779,
				"element": "C" 
			},
			{
				"x": 2.6128047346,
				"y": -1.5610120937,
				"z": -1.610394319,
				"element": "H" 
			},
			{
				"x": 3.4601164718,
				"y": -1.1152909474,
				"z": -0.1117175157,
				"element": "H" 
			},
			{
				"x": 2.698519513,
				"y": -2.7092290257,
				"z": -0.2692186075,
				"element": "H" 
			},
			{
				"x": 0.4486917694,
				"y": -1.6284880032,
				"z": -0.3741569537,
				"element": "H" 
			},
			{
				"x": 1.380695727,
				"y": -2.1664386672,
				"z": 1.6853889177,
				"element": "H" 
			},
			{
				"x": 2.0035763131,
				"y": 0.9458337095,
				"z": 0.1474166959,
				"element": "H" 
			},
			{
				"x": 1.2255975869,
				"y": 0.4902093514,
				"z": -1.3622956587,
				"element": "H" 
			},
			{
				"x": -0.1116014427,
				"y": 0.5148707979,
				"z": 2.2606992426,
				"element": "H" 
			},
			{
				"x": -1.0695109728,
				"y": 1.9845170997,
				"z": 1.9612609433,
				"element": "H" 
			},
			{
				"x": 0.6989297678,
				"y": 2.0551110308,
				"z": 1.9571185224,
				"element": "H" 
			},
			{
				"x": -2.3213834122,
				"y": 0.8920274959,
				"z": 0.0094743685,
				"element": "H" 
			},
			{
				"x": -1.4644290864,
				"y": -0.6061145866,
				"z": 0.383671181,
				"element": "H" 
			},
			{
				"x": -1.4231763227,
				"y": 0.0540430633,
				"z": -1.2630728594,
				"element": "H" 
			},
			{
				"x": -0.2708978013,
				"y": 2.3313036289,
				"z": -1.6785529991,
				"element": "H" 
			},
			{
				"x": 0.6851763606,
				"y": 3.0867725803,
				"z": -0.3931183082,
				"element": "H" 
			},
			{
				"x": -1.0812683271,
				"y": 3.0757907064,
				"z": -0.2907687242,
				"element": "H" 
			}
		],
		 "valence_orbital": [ 
			{
				"type": "occ",
				"energy": -0.33388,
				"method": "rhf"
			},
			{
				"type": "occ",
				"energy": -0.30848,
				"method": "rhf"
			},
			{
				"type": "occ",
				"energy": -0.30647,
				"method": "rhf"
			},
			{
				"type": "occ",
				"energy": -0.29293,
				"method": "rhf"
			},
			{
				"type": "occ",
				"energy": -0.26257,
				"method": "rhf"
			},
			{
				"type": "unocc",
				"energy": 0.06748,
				"method": "rhf"
			},
			{
				"type": "unocc",
				"energy": 0.09617,
				"method": "rhf"
			},
			{
				"type": "unocc",
				"energy": 0.12274,
				"method": "rhf"
			},
			{
				"type": "unocc",
				"energy": 0.13395,
				"method": "rhf"
			},
			{
				"type": "unocc",
				"energy": 0.13513,
				"method": "rhf"
			}
		],
		"cosmo_sigma_profile": { 
			"-0.025": 0.0,
			"-0.024": 0.0,
			"-0.023": 0.0,
			"-0.022": 0.0,
			"-0.021": 0.0,
			"-0.02": 0.0,
			"-0.019": 0.0,
			"-0.018": 0.0,
			"-0.017": 0.0,
			"-0.016": 0.0,
			"-0.015": 0.435080558351,
			"-0.014": 0.81533360658,
			"-0.013": 1.20714873579,
			"-0.012": 0.623489412336,
			"-0.011": 1.10251243092,
			"-0.01": 0.910891981138,
			"-0.009": 0.845306718179,
			"-0.008": 0.825500369728,
			"-0.007": 1.16328493898,
			"-0.006": 1.38993891959,
			"-0.005": 1.13039061992,
			"-0.004": 2.15331396692,
			"-0.003": 7.9527964816,
			"-0.002": 29.1102020415,
			"-0.001": 36.4895616162,
			"0.0": 25.120955433,
			"0.001": 27.1692979121,
			"0.002": 23.7843159234,
			"0.003": 6.12517410807,
			"0.004": 1.9032699209,
			"0.005": 2.01296478266,
			"0.006": 2.33679268495,
			"0.007": 1.88468506224,
			"0.008": 1.93001235068,
			"0.009": 2.17788657195,
			"0.01": 1.14142013601,
			"0.011": 0.654279803547,
			"0.012": 0.92344310028,
			"0.013": 0.731176193834,
			"0.014": 0.744376641591,
			"0.015": 0.335622135056,
			"0.016": 0.0,
			"0.017": 0.0,
			"0.018": 0.0,
			"0.019": 0.0,
			"0.02": 0.0,
			"0.021": 0.0,
			"0.022": 0.0,
			"0.023": 0.0,
			"0.024": 0.0,
			"0.025": 0.0
		}
	}
}
