{
	 "smiles": "N#CC1=CC2=C(OC=N2)C=C1", 
	 "Tm": 361.15, 
	 "num_atms": 15, 
	 "gaussian": { 
		 "optdone": 1, 
		 "sigma_profile": "yes", 
		 "theory": "DFT", 
		 "functional": "B3LYP", 
		 "basiset": "6-31G**", 
		 "properties": { 
			 "R2extent": 2121.1238, 
			 "electric_dipole_moment_norm": 4.85892410828, 
			 "electric_quadrupole_moment_norm": 14.8643569868, 
			 "total_energy": -491.960733527, 
			 "HOMO_LUMO_gap": 0.20818, 
			 "cosmo_polarized_energy": -11.22, 
			 "cosmo_cavitation_energy": 21.15, 
			 "cosmo_dispersion_energy": -15.38, 
			 "cosmo_repulsion_energy": 1.21, 
			 "cosmo_total_nonelectrostatic_energy": 6.98, 
			 "SMD_solvation_energy": 4.12 
		},
		"coords": [
			{
				"x": -0.0338979453,
				"y": -1.9251721457,
				"z": 4.0687055298,
				"element": "N" 
			},
			{
				"x": 0.3296943216,
				"y": -1.5744616681,
				"z": 3.0209209241,
				"element": "C" 
			},
			{
				"x": 0.7801268013,
				"y": -1.148191039,
				"z": 1.7270198428,
				"element": "C" 
			},
			{
				"x": 0.6155665915,
				"y": 0.1922145486,
				"z": 1.3447438019,
				"element": "C" 
			},
			{
				"x": 1.0716113868,
				"y": 0.5487912809,
				"z": 0.0777479444,
				"element": "C" 
			},
			{
				"x": 1.6642718967,
				"y": -0.412605134,
				"z": -0.7545884126,
				"element": "C" 
			},
			{
				"x": 2.0117073595,
				"y": 0.213215144,
				"z": -1.9223033882,
				"element": "O" 
			},
			{
				"x": 1.6094594918,
				"y": 1.5111773324,
				"z": -1.7263334319,
				"element": "C" 
			},
			{
				"x": 1.0579442597,
				"y": 1.7762707422,
				"z": -0.5918861183,
				"element": "N" 
			},
			{
				"x": 1.8387729551,
				"y": -1.743718885,
				"z": -0.4008298735,
				"element": "C" 
			},
			{
				"x": 1.382684871,
				"y": -2.0989316118,
				"z": 0.8654365976,
				"element": "C" 
			},
			{
				"x": 0.1544259745,
				"y": 0.9160454782,
				"z": 2.0062987919,
				"element": "H" 
			},
			{
				"x": 1.7959000968,
				"y": 2.1882063228,
				"z": -2.5479812058,
				"element": "H" 
			},
			{
				"x": 2.3007797559,
				"y": -2.4629262542,
				"z": -1.0670442063,
				"element": "H" 
			},
			{
				"x": 1.4858521831,
				"y": -3.1220141112,
				"z": 1.2094932041,
				"element": "H" 
			}
		],
		 "valence_orbital": [ 
			{
				"type": "occ",
				"energy": -0.3447,
				"method": "rhf"
			},
			{
				"type": "occ",
				"energy": -0.33447,
				"method": "rhf"
			},
			{
				"type": "occ",
				"energy": -0.31542,
				"method": "rhf"
			},
			{
				"type": "occ",
				"energy": -0.2705,
				"method": "rhf"
			},
			{
				"type": "occ",
				"energy": -0.26486,
				"method": "rhf"
			},
			{
				"type": "unocc",
				"energy": -0.05668,
				"method": "rhf"
			},
			{
				"type": "unocc",
				"energy": -0.04604,
				"method": "rhf"
			},
			{
				"type": "unocc",
				"energy": 0.01044,
				"method": "rhf"
			},
			{
				"type": "unocc",
				"energy": 0.03347,
				"method": "rhf"
			},
			{
				"type": "unocc",
				"energy": 0.07588,
				"method": "rhf"
			}
		],
		"cosmo_sigma_profile": { 
			"-0.025": 0.0,
			"-0.024": 0.0,
			"-0.023": 0.0,
			"-0.022": 0.0,
			"-0.021": 0.0,
			"-0.02": 0.0,
			"-0.019": 0.0,
			"-0.018": 0.0,
			"-0.017": 0.0,
			"-0.016": 0.0,
			"-0.015": 0.0,
			"-0.014": 0.0,
			"-0.013": 0.00949630536013,
			"-0.012": 1.76532001843,
			"-0.011": 1.54552752636,
			"-0.01": 2.18198915581,
			"-0.009": 4.42569213377,
			"-0.008": 7.30372772206,
			"-0.007": 8.13569051334,
			"-0.006": 7.55405873133,
			"-0.005": 6.14563082255,
			"-0.004": 8.64067877848,
			"-0.003": 11.2178665597,
			"-0.002": 12.1126463567,
			"-0.001": 15.8569358156,
			"0.0": 17.2113559983,
			"0.001": 14.2636625188,
			"0.002": 6.96835748974,
			"0.003": 5.21947538353,
			"0.004": 3.55656269899,
			"0.005": 6.21287574062,
			"0.006": 4.30117207001,
			"0.007": 4.41066115959,
			"0.008": 4.51404639495,
			"0.009": 4.16989303361,
			"0.01": 4.321006129,
			"0.011": 3.69263334817,
			"0.012": 3.89066789851,
			"0.013": 2.06379866661,
			"0.014": 1.10678602165,
			"0.015": 0.259717058437,
			"0.016": 0.0,
			"0.017": 0.0,
			"0.018": 0.0,
			"0.019": 0.0,
			"0.02": 0.0,
			"0.021": 0.0,
			"0.022": 0.0,
			"0.023": 0.0,
			"0.024": 0.0,
			"0.025": 0.0
		}
	}
}
