{
	 "smiles": "NC(CC(=O)NC1=CC=C(F)C=C1)=NO", 
	 "Tm": 416.15, 
	 "num_atms": 25, 
	 "gaussian": { 
		 "optdone": 1, 
		 "sigma_profile": "yes", 
		 "theory": "DFT", 
		 "functional": "B3LYP", 
		 "basiset": "6-31G**", 
		 "properties": { 
			 "R2extent": 4139.603, 
			 "electric_dipole_moment_norm": 1.54448870828, 
			 "electric_quadrupole_moment_norm": 15.5732928056, 
			 "total_energy": -763.488373177, 
			 "HOMO_LUMO_gap": 0.18741, 
			 "cosmo_polarized_energy": -15.01, 
			 "cosmo_cavitation_energy": 29.96, 
			 "cosmo_dispersion_energy": -21.64, 
			 "cosmo_repulsion_energy": 1.69, 
			 "cosmo_total_nonelectrostatic_energy": 10.02, 
			 "SMD_solvation_energy": 6.23 
		},
		"coords": [
			{
				"x": -0.3822116751,
				"y": 2.0348303077,
				"z": 3.6460649341,
				"element": "N" 
			},
			{
				"x": 0.0797977873,
				"y": 1.7748344876,
				"z": 2.3842437687,
				"element": "C" 
			},
			{
				"x": 0.5988731418,
				"y": 0.3800720741,
				"z": 2.1192257537,
				"element": "C" 
			},
			{
				"x": -0.5167103374,
				"y": -0.6455181461,
				"z": 2.2989511675,
				"element": "C" 
			},
			{
				"x": -1.0162881525,
				"y": -0.8324943512,
				"z": 3.4071667549,
				"element": "O" 
			},
			{
				"x": -0.9492581696,
				"y": -1.3732874175,
				"z": 1.2192769969,
				"element": "N" 
			},
			{
				"x": -0.6249832198,
				"y": -1.2981564414,
				"z": -0.1621364647,
				"element": "C" 
			},
			{
				"x": -0.5102675068,
				"y": -0.0751461587,
				"z": -0.8395030355,
				"element": "C" 
			},
			{
				"x": -0.2157870906,
				"y": -0.0584645751,
				"z": -2.202718888,
				"element": "C" 
			},
			{
				"x": -0.0771854288,
				"y": -1.2613258893,
				"z": -2.8843707168,
				"element": "C" 
			},
			{
				"x": 0.1918664297,
				"y": -1.2420318162,
				"z": -4.2058822622,
				"element": "F" 
			},
			{
				"x": -0.2137569808,
				"y": -2.4861547159,
				"z": -2.2403867827,
				"element": "C" 
			},
			{
				"x": -0.4788480806,
				"y": -2.4980644718,
				"z": -0.8731575071,
				"element": "C" 
			},
			{
				"x": 0.1435653657,
				"y": 2.6180095443,
				"z": 1.4067661576,
				"element": "N" 
			},
			{
				"x": -0.403866451,
				"y": 3.8673856448,
				"z": 1.8333410617,
				"element": "O" 
			},
			{
				"x": -0.9210550705,
				"y": 2.8849644332,
				"z": 3.7346157652,
				"element": "H" 
			},
			{
				"x": -0.7259555764,
				"y": 1.2216886291,
				"z": 4.1446984942,
				"element": "H" 
			},
			{
				"x": 1.3508455614,
				"y": 0.134304102,
				"z": 2.8776787245,
				"element": "H" 
			},
			{
				"x": 1.066889447,
				"y": 0.3501800435,
				"z": 1.1375937884,
				"element": "H" 
			},
			{
				"x": -1.6254138749,
				"y": -2.077848928,
				"z": 1.4911649603,
				"element": "H" 
			},
			{
				"x": -0.6435612278,
				"y": 0.863452364,
				"z": -0.3110003079,
				"element": "H" 
			},
			{
				"x": -0.1137354606,
				"y": 0.8777435288,
				"z": -2.7404412709,
				"element": "H" 
			},
			{
				"x": -0.1007985015,
				"y": -3.4061195987,
				"z": -2.8032719391,
				"element": "H" 
			},
			{
				"x": -0.5671219431,
				"y": -3.4450156128,
				"z": -0.3483486285,
				"element": "H" 
			},
			{
				"x": -0.282932985,
				"y": 4.4155629636,
				"z": 1.0491294756,
				"element": "H" 
			}
		],
		 "valence_orbital": [ 
			{
				"type": "occ",
				"energy": -0.27548,
				"method": "rhf"
			},
			{
				"type": "occ",
				"energy": -0.27121,
				"method": "rhf"
			},
			{
				"type": "occ",
				"energy": -0.26889,
				"method": "rhf"
			},
			{
				"type": "occ",
				"energy": -0.2344,
				"method": "rhf"
			},
			{
				"type": "occ",
				"energy": -0.21132,
				"method": "rhf"
			},
			{
				"type": "unocc",
				"energy": -0.02391,
				"method": "rhf"
			},
			{
				"type": "unocc",
				"energy": -0.02086,
				"method": "rhf"
			},
			{
				"type": "unocc",
				"energy": 0.01566,
				"method": "rhf"
			},
			{
				"type": "unocc",
				"energy": 0.04535,
				"method": "rhf"
			},
			{
				"type": "unocc",
				"energy": 0.07559,
				"method": "rhf"
			}
		],
		"cosmo_sigma_profile": { 
			"-0.025": 0.0,
			"-0.024": 0.0,
			"-0.023": 0.0,
			"-0.022": 0.0,
			"-0.021": 0.0,
			"-0.02": 0.0,
			"-0.019": 0.0,
			"-0.018": 0.0,
			"-0.017": 0.140028120911,
			"-0.016": 1.13328949291,
			"-0.015": 1.03085834966,
			"-0.014": 2.1253086421,
			"-0.013": 1.60881954548,
			"-0.012": 1.95892212796,
			"-0.011": 3.20209635548,
			"-0.01": 2.78500103525,
			"-0.009": 3.11331849587,
			"-0.008": 5.22653834662,
			"-0.007": 10.6847213921,
			"-0.006": 10.1188677755,
			"-0.005": 11.4408050256,
			"-0.004": 12.8127050949,
			"-0.003": 12.7626249949,
			"-0.002": 13.2024527222,
			"-0.001": 13.5294482358,
			"0.0": 16.2406848615,
			"0.001": 18.131719445,
			"0.002": 16.8034566455,
			"0.003": 18.778829067,
			"0.004": 15.3443938954,
			"0.005": 7.72584915019,
			"0.006": 5.91342551874,
			"0.007": 5.65410358913,
			"0.008": 5.59960087378,
			"0.009": 5.32917839886,
			"0.01": 4.14206371876,
			"0.011": 3.82880046029,
			"0.012": 4.04759528614,
			"0.013": 3.46061856421,
			"0.014": 0.61246294228,
			"0.015": 0.0,
			"0.016": 0.0,
			"0.017": 0.0,
			"0.018": 0.0,
			"0.019": 0.0,
			"0.02": 0.0,
			"0.021": 0.0,
			"0.022": 0.0,
			"0.023": 0.0,
			"0.024": 0.0,
			"0.025": 0.0
		}
	}
}
