{
	 "smiles": "CC(=O)NC1=C(C=CC(=C1)C#N)S(C)(=O)=O", 
	 "Tm": 419.15, 
	 "num_atms": 26, 
	 "gaussian": { 
		 "optdone": 1, 
		 "sigma_profile": "yes", 
		 "theory": "DFT", 
		 "functional": "B3LYP", 
		 "basiset": "6-31G**", 
		 "properties": { 
			 "R2extent": 4528.4178, 
			 "electric_dipole_moment_norm": 4.03275318362, 
			 "electric_quadrupole_moment_norm": 23.0743525612, 
			 "total_energy": -1120.38520783, 
			 "HOMO_LUMO_gap": 0.1721, 
			 "cosmo_polarized_energy": -23.33, 
			 "cosmo_cavitation_energy": 32.65, 
			 "cosmo_dispersion_energy": -22.78, 
			 "cosmo_repulsion_energy": 1.73, 
			 "cosmo_total_nonelectrostatic_energy": 11.59, 
			 "SMD_solvation_energy": 7.85 
		},
		"coords": [
			{
				"x": -1.1814635844,
				"y": 1.8348493069,
				"z": 1.4837561421,
				"element": "C" 
			},
			{
				"x": 0.3332595307,
				"y": 1.8618707314,
				"z": 1.4113833853,
				"element": "C" 
			},
			{
				"x": 0.9934154899,
				"y": 2.6587523722,
				"z": 2.0539256229,
				"element": "O" 
			},
			{
				"x": 1.0031499278,
				"y": 0.9186392203,
				"z": 0.6269927706,
				"element": "N" 
			},
			{
				"x": 0.5375603342,
				"y": -0.0440346763,
				"z": -0.2739873266,
				"element": "C" 
			},
			{
				"x": 1.2479959946,
				"y": -1.2573953011,
				"z": -0.4520562806,
				"element": "C" 
			},
			{
				"x": 0.8383747425,
				"y": -2.2151340926,
				"z": -1.3794667293,
				"element": "C" 
			},
			{
				"x": -0.3079649033,
				"y": -2.0155404089,
				"z": -2.1401997735,
				"element": "C" 
			},
			{
				"x": -1.027836214,
				"y": -0.8227987149,
				"z": -1.9739594943,
				"element": "C" 
			},
			{
				"x": -0.6011698283,
				"y": 0.1576617549,
				"z": -1.0679303846,
				"element": "C" 
			},
			{
				"x": -2.2056942626,
				"y": -0.5818071408,
				"z": -2.7589443417,
				"element": "C" 
			},
			{
				"x": -3.1629746287,
				"y": -0.3890659049,
				"z": -3.390046046,
				"element": "N" 
			},
			{
				"x": 2.7528958658,
				"y": -1.6259176466,
				"z": 0.4802173181,
				"element": "S" 
			},
			{
				"x": 2.1588593968,
				"y": -1.996842558,
				"z": 2.1435873438,
				"element": "C" 
			},
			{
				"x": 3.5498978093,
				"y": -0.3849734568,
				"z": 0.553479417,
				"element": "O" 
			},
			{
				"x": 3.3339522139,
				"y": -2.8521450852,
				"z": -0.0799280166,
				"element": "O" 
			},
			{
				"x": -1.607348991,
				"y": 0.8366342519,
				"z": 1.3609770649,
				"element": "H" 
			},
			{
				"x": -1.6103181821,
				"y": 2.4896482387,
				"z": 0.7175799376,
				"element": "H" 
			},
			{
				"x": -1.461141993,
				"y": 2.2426484238,
				"z": 2.4558487597,
				"element": "H" 
			},
			{
				"x": 2.0146273424,
				"y": 0.9519403884,
				"z": 0.7521461992,
				"element": "H" 
			},
			{
				"x": 1.4326044686,
				"y": -3.1155362493,
				"z": -1.4907476739,
				"element": "H" 
			},
			{
				"x": -0.6389337642,
				"y": -2.7587087368,
				"z": -2.8560680044,
				"element": "H" 
			},
			{
				"x": -1.1424315646,
				"y": 1.0920641759,
				"z": -1.012862433,
				"element": "H" 
			},
			{
				"x": 1.5353175554,
				"y": -2.8908691424,
				"z": 2.1055348907,
				"element": "H" 
			},
			{
				"x": 3.0499484343,
				"y": -2.1763830208,
				"z": 2.7489303908,
				"element": "H" 
			},
			{
				"x": 1.6070188099,
				"y": -1.138156729,
				"z": 2.5283372616,
				"element": "H" 
			}
		],
		 "valence_orbital": [ 
			{
				"type": "occ",
				"energy": -0.32111,
				"method": "rhf"
			},
			{
				"type": "occ",
				"energy": -0.31438,
				"method": "rhf"
			},
			{
				"type": "occ",
				"energy": -0.29731,
				"method": "rhf"
			},
			{
				"type": "occ",
				"energy": -0.27533,
				"method": "rhf"
			},
			{
				"type": "occ",
				"energy": -0.26195,
				"method": "rhf"
			},
			{
				"type": "unocc",
				"energy": -0.08985,
				"method": "rhf"
			},
			{
				"type": "unocc",
				"energy": -0.05379,
				"method": "rhf"
			},
			{
				"type": "unocc",
				"energy": 0.00172,
				"method": "rhf"
			},
			{
				"type": "unocc",
				"energy": 0.01586,
				"method": "rhf"
			},
			{
				"type": "unocc",
				"energy": 0.03103,
				"method": "rhf"
			}
		],
		"cosmo_sigma_profile": { 
			"-0.025": 0.0,
			"-0.024": 0.0,
			"-0.023": 0.0,
			"-0.022": 0.0,
			"-0.021": 0.0,
			"-0.02": 0.0,
			"-0.019": 0.0,
			"-0.018": 0.0,
			"-0.017": 0.0,
			"-0.016": 0.0,
			"-0.015": 0.0,
			"-0.014": 0.0,
			"-0.013": 0.0,
			"-0.012": 0.0,
			"-0.011": 0.525164694629,
			"-0.01": 2.77978189927,
			"-0.009": 8.52184187887,
			"-0.008": 11.8035322532,
			"-0.007": 15.9751161981,
			"-0.006": 17.064604666,
			"-0.005": 20.6677125088,
			"-0.004": 19.0235277718,
			"-0.003": 20.224121234,
			"-0.002": 19.3981722265,
			"-0.001": 19.2678681895,
			"0.0": 13.0801604517,
			"0.001": 7.98756405032,
			"0.002": 4.51854593121,
			"0.003": 5.0825280702,
			"0.004": 5.06791204167,
			"0.005": 6.21355679765,
			"0.006": 6.37979268453,
			"0.007": 6.08478838919,
			"0.008": 8.11410574808,
			"0.009": 8.71231211898,
			"0.01": 10.4886929346,
			"0.011": 12.0529297532,
			"0.012": 8.26548718492,
			"0.013": 4.53393147945,
			"0.014": 0.575597269631,
			"0.015": 0.0,
			"0.016": 0.0,
			"0.017": 0.0,
			"0.018": 0.0,
			"0.019": 0.0,
			"0.02": 0.0,
			"0.021": 0.0,
			"0.022": 0.0,
			"0.023": 0.0,
			"0.024": 0.0,
			"0.025": 0.0
		}
	}
}
