{
	 "smiles": "ClS(=O)(=O)C1=CC=C(S1)S(=O)(=O)C1=CC=CC=C1", 
	 "Tm": 376.65, 
	 "num_atms": 25, 
	 "gaussian": { 
		 "optdone": 1, 
		 "sigma_profile": "yes", 
		 "theory": "DFT", 
		 "functional": "B3LYP", 
		 "basiset": "6-31G**", 
		 "properties": { 
			 "R2extent": 9743.9254, 
			 "electric_dipole_moment_norm": 5.56407316091, 
			 "electric_quadrupole_moment_norm": 23.6778136022, 
			 "total_energy": -2340.7615682, 
			 "HOMO_LUMO_gap": 0.1705, 
			 "cosmo_polarized_energy": -16.07, 
			 "cosmo_cavitation_energy": 37.11, 
			 "cosmo_dispersion_energy": -27.34, 
			 "cosmo_repulsion_energy": 2.0, 
			 "cosmo_total_nonelectrostatic_energy": 11.77, 
			 "SMD_solvation_energy": 4.01 
		},
		"coords": [
			{
				"x": 5.6829014582,
				"y": -3.3549440362,
				"z": -0.2150747455,
				"element": "Cl" 
			},
			{
				"x": 4.7748286476,
				"y": -2.3320542031,
				"z": 1.4068705841,
				"element": "S" 
			},
			{
				"x": 5.7895814009,
				"y": -1.4373807597,
				"z": 1.9441134813,
				"element": "O" 
			},
			{
				"x": 4.1029941984,
				"y": -3.3474490992,
				"z": 2.2055875046,
				"element": "O" 
			},
			{
				"x": 3.5513328592,
				"y": -1.3585264321,
				"z": 0.5890222712,
				"element": "C" 
			},
			{
				"x": 3.749592648,
				"y": -0.0805694663,
				"z": 0.1218778304,
				"element": "C" 
			},
			{
				"x": 2.5786184197,
				"y": 0.4365603642,
				"z": -0.4885014476,
				"element": "C" 
			},
			{
				"x": 1.5412030622,
				"y": -0.4650005083,
				"z": -0.4641503229,
				"element": "C" 
			},
			{
				"x": 1.9556980459,
				"y": -1.9719650839,
				"z": 0.2861997475,
				"element": "S" 
			},
			{
				"x": -0.1004714106,
				"y": -0.1786055071,
				"z": -1.1321094885,
				"element": "S" 
			},
			{
				"x": 0.0482790494,
				"y": 0.917819332,
				"z": -2.0964688719,
				"element": "O" 
			},
			{
				"x": -0.6289060785,
				"y": -1.4975762536,
				"z": -1.5019794885,
				"element": "O" 
			},
			{
				"x": -1.0510074226,
				"y": 0.4299099445,
				"z": 0.2640676494,
				"element": "C" 
			},
			{
				"x": -1.091414561,
				"y": 1.8040553575,
				"z": 0.5113649053,
				"element": "C" 
			},
			{
				"x": -1.8364127534,
				"y": 2.269105184,
				"z": 1.5945414666,
				"element": "C" 
			},
			{
				"x": -2.5267502371,
				"y": 1.3675276717,
				"z": 2.4089938304,
				"element": "C" 
			},
			{
				"x": -2.4853689797,
				"y": -0.0031420714,
				"z": 2.1414714603,
				"element": "C" 
			},
			{
				"x": -1.745364691,
				"y": -0.4831171957,
				"z": 1.0609991954,
				"element": "C" 
			},
			{
				"x": 4.6898935496,
				"y": 0.4481522902,
				"z": 0.2181195596,
				"element": "H" 
			},
			{
				"x": 2.4933615289,
				"y": 1.4185235704,
				"z": -0.9370046716,
				"element": "H" 
			},
			{
				"x": -0.566719756,
				"y": 2.4885779025,
				"z": -0.1461668432,
				"element": "H" 
			},
			{
				"x": -1.883147321,
				"y": 3.3343771114,
				"z": 1.7982504042,
				"element": "H" 
			},
			{
				"x": -3.1054738612,
				"y": 1.7354074274,
				"z": 3.2509731023,
				"element": "H" 
			},
			{
				"x": -3.0341029607,
				"y": -0.6984806792,
				"z": 2.7689617327,
				"element": "H" 
			},
			{
				"x": -1.7194448351,
				"y": -1.5409048602,
				"z": 0.8227411542,
				"element": "H" 
			}
		],
		 "valence_orbital": [ 
			{
				"type": "occ",
				"energy": -0.31454,
				"method": "rhf"
			},
			{
				"type": "occ",
				"energy": -0.30537,
				"method": "rhf"
			},
			{
				"type": "occ",
				"energy": -0.30212,
				"method": "rhf"
			},
			{
				"type": "occ",
				"energy": -0.28523,
				"method": "rhf"
			},
			{
				"type": "occ",
				"energy": -0.28056,
				"method": "rhf"
			},
			{
				"type": "unocc",
				"energy": -0.11006,
				"method": "rhf"
			},
			{
				"type": "unocc",
				"energy": -0.07592,
				"method": "rhf"
			},
			{
				"type": "unocc",
				"energy": -0.04783,
				"method": "rhf"
			},
			{
				"type": "unocc",
				"energy": -0.03635,
				"method": "rhf"
			},
			{
				"type": "unocc",
				"energy": -0.01624,
				"method": "rhf"
			}
		],
		"cosmo_sigma_profile": { 
			"-0.025": 0.0,
			"-0.024": 0.0,
			"-0.023": 0.0,
			"-0.022": 0.0,
			"-0.021": 0.0,
			"-0.02": 0.0,
			"-0.019": 0.0,
			"-0.018": 0.0,
			"-0.017": 0.0,
			"-0.016": 0.0,
			"-0.015": 0.0,
			"-0.014": 0.0,
			"-0.013": 0.0,
			"-0.012": 0.0,
			"-0.011": 0.350397008134,
			"-0.01": 2.61397179732,
			"-0.009": 3.42929189939,
			"-0.008": 5.07135272994,
			"-0.007": 14.3821588725,
			"-0.006": 19.0132776048,
			"-0.005": 16.228661582,
			"-0.004": 14.3991468531,
			"-0.003": 21.7266804397,
			"-0.002": 26.5292010562,
			"-0.001": 26.7682970826,
			"0.0": 21.8746501299,
			"0.001": 19.8118612253,
			"0.002": 27.8894799358,
			"0.003": 23.6818865768,
			"0.004": 5.60611263526,
			"0.005": 5.67988878537,
			"0.006": 7.22635281578,
			"0.007": 12.8971620936,
			"0.008": 10.8976975626,
			"0.009": 5.49597318237,
			"0.01": 8.21666258859,
			"0.011": 4.60905734158,
			"0.012": 0.0167287914749,
			"0.013": 0.0,
			"0.014": 0.0,
			"0.015": 0.0,
			"0.016": 0.0,
			"0.017": 0.0,
			"0.018": 0.0,
			"0.019": 0.0,
			"0.02": 0.0,
			"0.021": 0.0,
			"0.022": 0.0,
			"0.023": 0.0,
			"0.024": 0.0,
			"0.025": 0.0
		}
	}
}
