{
	 "smiles": "CC(C)=C=C", 
	 "Tm": 159.15, 
	 "num_atms": 13, 
	 "gaussian": { 
		 "optdone": 1, 
		 "sigma_profile": "yes", 
		 "theory": "DFT", 
		 "functional": "B3LYP", 
		 "basiset": "6-31G**", 
		 "properties": { 
			 "R2extent": 1086.1982, 
			 "electric_dipole_moment_norm": 0.591305834573, 
			 "electric_quadrupole_moment_norm": 1.97161419908, 
			 "total_energy": -195.301552664, 
			 "HOMO_LUMO_gap": 0.26521, 
			 "cosmo_polarized_energy": -2.09, 
			 "cosmo_cavitation_energy": 16.62, 
			 "cosmo_dispersion_energy": -11.82, 
			 "cosmo_repulsion_energy": 1.07, 
			 "cosmo_total_nonelectrostatic_energy": 5.88, 
			 "SMD_solvation_energy": 4.17 
		},
		"coords": [
			{
				"x": -0.4586904395,
				"y": 2.2346721997,
				"z": 0.7401951822,
				"element": "C" 
			},
			{
				"x": 0.5299159441,
				"y": 1.4175534665,
				"z": 1.5459344232,
				"element": "C" 
			},
			{
				"x": 0.215800058,
				"y": 1.2280717805,
				"z": 3.0155165936,
				"element": "C" 
			},
			{
				"x": 1.6040261663,
				"y": 0.9000997361,
				"z": 0.9986135814,
				"element": "C" 
			},
			{
				"x": 2.675072581,
				"y": 0.384161703,
				"z": 0.4529413753,
				"element": "C" 
			},
			{
				"x": -0.1555602612,
				"y": 2.3205254325,
				"z": -0.3053474591,
				"element": "H" 
			},
			{
				"x": -1.456519381,
				"y": 1.7786466949,
				"z": 0.7752383861,
				"element": "H" 
			},
			{
				"x": -0.5552170893,
				"y": 3.2455197189,
				"z": 1.1569911715,
				"element": "H" 
			},
			{
				"x": 0.1463530957,
				"y": 2.1982376662,
				"z": 3.5242474991,
				"element": "H" 
			},
			{
				"x": -0.7546885498,
				"y": 0.7312033435,
				"z": 3.1424945291,
				"element": "H" 
			},
			{
				"x": 0.9779828448,
				"y": 0.6291194997,
				"z": 3.5182601785,
				"element": "H" 
			},
			{
				"x": 2.6706609936,
				"y": -0.6119520729,
				"z": 0.0136112817,
				"element": "H" 
			},
			{
				"x": 3.6170640372,
				"y": 0.9286408314,
				"z": 0.4146032574,
				"element": "H" 
			}
		],
		 "valence_orbital": [ 
			{
				"type": "occ",
				"energy": -0.38583,
				"method": "rhf"
			},
			{
				"type": "occ",
				"energy": -0.37455,
				"method": "rhf"
			},
			{
				"type": "occ",
				"energy": -0.35774,
				"method": "rhf"
			},
			{
				"type": "occ",
				"energy": -0.25356,
				"method": "rhf"
			},
			{
				"type": "occ",
				"energy": -0.23475,
				"method": "rhf"
			},
			{
				"type": "unocc",
				"energy": 0.03046,
				"method": "rhf"
			},
			{
				"type": "unocc",
				"energy": 0.03332,
				"method": "rhf"
			},
			{
				"type": "unocc",
				"energy": 0.10342,
				"method": "rhf"
			},
			{
				"type": "unocc",
				"energy": 0.13558,
				"method": "rhf"
			},
			{
				"type": "unocc",
				"energy": 0.14991,
				"method": "rhf"
			}
		],
		"cosmo_sigma_profile": { 
			"-0.025": 0.0,
			"-0.024": 0.0,
			"-0.023": 0.0,
			"-0.022": 0.0,
			"-0.021": 0.0,
			"-0.02": 0.0,
			"-0.019": 0.0,
			"-0.018": 0.0,
			"-0.017": 0.0,
			"-0.016": 0.0,
			"-0.015": 0.0,
			"-0.014": 0.0,
			"-0.013": 0.0,
			"-0.012": 0.0,
			"-0.011": 0.0,
			"-0.01": 0.0,
			"-0.009": 0.0,
			"-0.008": 0.0,
			"-0.007": 0.0,
			"-0.006": 1.34017013349,
			"-0.005": 3.41692152838,
			"-0.004": 9.31218287151,
			"-0.003": 16.693826035,
			"-0.002": 15.3491360691,
			"-0.001": 15.389261217,
			"0.0": 21.5876526461,
			"0.001": 11.6555858318,
			"0.002": 6.69858803387,
			"0.003": 6.57202020273,
			"0.004": 9.2685874763,
			"0.005": 8.2068232871,
			"0.006": 4.27931816246,
			"0.007": 1.36318763212,
			"0.008": 0.0,
			"0.009": 0.0,
			"0.01": 0.0,
			"0.011": 0.0,
			"0.012": 0.0,
			"0.013": 0.0,
			"0.014": 0.0,
			"0.015": 0.0,
			"0.016": 0.0,
			"0.017": 0.0,
			"0.018": 0.0,
			"0.019": 0.0,
			"0.02": 0.0,
			"0.021": 0.0,
			"0.022": 0.0,
			"0.023": 0.0,
			"0.024": 0.0,
			"0.025": 0.0
		}
	}
}
