{
	 "smiles": "CC1=CC2=C(C=CC=C2C)C=C1", 
	 "Tm": 259.25, 
	 "num_atms": 24, 
	 "gaussian": { 
		 "optdone": 1, 
		 "sigma_profile": "yes", 
		 "theory": "DFT", 
		 "functional": "B3LYP", 
		 "basiset": "6-31G**", 
		 "properties": { 
			 "R2extent": 2353.6222, 
			 "electric_dipole_moment_norm": 0.558389872759, 
			 "electric_quadrupole_moment_norm": 6.44264453156, 
			 "total_energy": -464.536114233, 
			 "HOMO_LUMO_gap": 0.17461, 
			 "cosmo_polarized_energy": -4.49, 
			 "cosmo_cavitation_energy": 26.48, 
			 "cosmo_dispersion_energy": -19.56, 
			 "cosmo_repulsion_energy": 1.53, 
			 "cosmo_total_nonelectrostatic_energy": 8.45, 
			 "SMD_solvation_energy": 4.29 
		},
		"coords": [
			{
				"x": -3.4843059339,
				"y": 2.3104354904,
				"z": 0.9587157399,
				"element": "C" 
			},
			{
				"x": -2.4128806787,
				"y": 1.5768309601,
				"z": 0.188688862,
				"element": "C" 
			},
			{
				"x": -1.7807816008,
				"y": 0.4649628403,
				"z": 0.7098672997,
				"element": "C" 
			},
			{
				"x": -0.7692365963,
				"y": -0.2373563378,
				"z": -0.0028650337,
				"element": "C" 
			},
			{
				"x": -0.403245601,
				"y": 0.2357856928,
				"z": -1.305303406,
				"element": "C" 
			},
			{
				"x": 0.6030615018,
				"y": -0.4441779833,
				"z": -2.0412698441,
				"element": "C" 
			},
			{
				"x": 1.2236155662,
				"y": -1.5495540096,
				"z": -1.5096727112,
				"element": "C" 
			},
			{
				"x": 0.8626721122,
				"y": -2.0171240709,
				"z": -0.2238360612,
				"element": "C" 
			},
			{
				"x": -0.1096655111,
				"y": -1.3922099099,
				"z": 0.5333219617,
				"element": "C" 
			},
			{
				"x": -0.4669807413,
				"y": -1.9217842331,
				"z": 1.9015293412,
				"element": "C" 
			},
			{
				"x": -1.0638953733,
				"y": 1.381155657,
				"z": -1.8261228014,
				"element": "C" 
			},
			{
				"x": -2.0362499725,
				"y": 2.0311168684,
				"z": -1.1048246847,
				"element": "C" 
			},
			{
				"x": -3.2048320444,
				"y": 3.356705586,
				"z": 1.1314487379,
				"element": "H" 
			},
			{
				"x": -3.6667705155,
				"y": 1.8474780827,
				"z": 1.9323210646,
				"element": "H" 
			},
			{
				"x": -4.4331070134,
				"y": 2.321223271,
				"z": 0.4089065491,
				"element": "H" 
			},
			{
				"x": -2.0668538793,
				"y": 0.1163286934,
				"z": 1.6975055994,
				"element": "H" 
			},
			{
				"x": 0.8719461406,
				"y": -0.0758233098,
				"z": -3.028016732,
				"element": "H" 
			},
			{
				"x": 1.9935646622,
				"y": -2.0707071851,
				"z": -2.0714505333,
				"element": "H" 
			},
			{
				"x": 1.3650112178,
				"y": -2.8929944677,
				"z": 0.1793441707,
				"element": "H" 
			},
			{
				"x": 0.133511448,
				"y": -2.8019325466,
				"z": 2.14540908,
				"element": "H" 
			},
			{
				"x": -1.5228491579,
				"y": -2.2115845988,
				"z": 1.9623907777,
				"element": "H" 
			},
			{
				"x": -0.2951510385,
				"y": -1.1737924695,
				"z": 2.684800687,
				"element": "H" 
			},
			{
				"x": -0.7845322477,
				"y": 1.738213602,
				"z": -2.8144392012,
				"element": "H" 
			},
			{
				"x": -2.5285447428,
				"y": 2.905804378,
				"z": -1.523348862,
				"element": "H" 
			}
		],
		 "valence_orbital": [ 
			{
				"type": "occ",
				"energy": -0.31936,
				"method": "rhf"
			},
			{
				"type": "occ",
				"energy": -0.31071,
				"method": "rhf"
			},
			{
				"type": "occ",
				"energy": -0.26959,
				"method": "rhf"
			},
			{
				"type": "occ",
				"energy": -0.23222,
				"method": "rhf"
			},
			{
				"type": "occ",
				"energy": -0.20555,
				"method": "rhf"
			},
			{
				"type": "unocc",
				"energy": -0.03094,
				"method": "rhf"
			},
			{
				"type": "unocc",
				"energy": -0.00353,
				"method": "rhf"
			},
			{
				"type": "unocc",
				"energy": 0.04171,
				"method": "rhf"
			},
			{
				"type": "unocc",
				"energy": 0.09744,
				"method": "rhf"
			},
			{
				"type": "unocc",
				"energy": 0.09833,
				"method": "rhf"
			}
		],
		"cosmo_sigma_profile": { 
			"-0.025": 0.0,
			"-0.024": 0.0,
			"-0.023": 0.0,
			"-0.022": 0.0,
			"-0.021": 0.0,
			"-0.02": 0.0,
			"-0.019": 0.0,
			"-0.018": 0.0,
			"-0.017": 0.0,
			"-0.016": 0.0,
			"-0.015": 0.0,
			"-0.014": 0.0,
			"-0.013": 0.0,
			"-0.012": 0.0,
			"-0.011": 0.0,
			"-0.01": 0.0,
			"-0.009": 0.0,
			"-0.008": 0.0,
			"-0.007": 0.0,
			"-0.006": 1.88882840356,
			"-0.005": 12.7072166023,
			"-0.004": 22.9232067843,
			"-0.003": 26.2031631669,
			"-0.002": 20.6188622248,
			"-0.001": 20.0969051094,
			"0.0": 20.2912564616,
			"0.001": 15.5051640315,
			"0.002": 11.7949914634,
			"0.003": 10.6812498187,
			"0.004": 14.6721893184,
			"0.005": 22.2330595861,
			"0.006": 10.4506763478,
			"0.007": 0.138187561234,
			"0.008": 0.0,
			"0.009": 0.0,
			"0.01": 0.0,
			"0.011": 0.0,
			"0.012": 0.0,
			"0.013": 0.0,
			"0.014": 0.0,
			"0.015": 0.0,
			"0.016": 0.0,
			"0.017": 0.0,
			"0.018": 0.0,
			"0.019": 0.0,
			"0.02": 0.0,
			"0.021": 0.0,
			"0.022": 0.0,
			"0.023": 0.0,
			"0.024": 0.0,
			"0.025": 0.0
		}
	}
}
