{
	 "smiles": "CCC(C)C(N)CO", 
	 "Tm": 310.65, 
	 "num_atms": 23, 
	 "gaussian": { 
		 "optdone": 1, 
		 "sigma_profile": "yes", 
		 "theory": "DFT", 
		 "functional": "B3LYP", 
		 "basiset": "6-31G**", 
		 "properties": { 
			 "R2extent": 1334.5541, 
			 "electric_dipole_moment_norm": 2.22489382219, 
			 "electric_quadrupole_moment_norm": 9.8642396377, 
			 "total_energy": -367.644811652, 
			 "HOMO_LUMO_gap": 0.28784, 
			 "cosmo_polarized_energy": -11.45, 
			 "cosmo_cavitation_energy": 23.51, 
			 "cosmo_dispersion_energy": -17.06, 
			 "cosmo_repulsion_energy": 1.43, 
			 "cosmo_total_nonelectrostatic_energy": 7.88, 
			 "SMD_solvation_energy": 3.15 
		},
		"coords": [
			{
				"x": -1.4095266515,
				"y": 2.1230426259,
				"z": 0.5953164947,
				"element": "C" 
			},
			{
				"x": -1.3595526086,
				"y": 0.7651597855,
				"z": 1.3101893518,
				"element": "C" 
			},
			{
				"x": -0.423227932,
				"y": -0.2981247462,
				"z": 0.6896347554,
				"element": "C" 
			},
			{
				"x": -0.9094708154,
				"y": -0.734676301,
				"z": -0.702289731,
				"element": "C" 
			},
			{
				"x": 1.0587671626,
				"y": 0.1511070772,
				"z": 0.6688141274,
				"element": "C" 
			},
			{
				"x": 1.4916134551,
				"y": 0.5123296952,
				"z": 2.0265294966,
				"element": "N" 
			},
			{
				"x": 1.9898715472,
				"y": -0.9309707349,
				"z": 0.1100168421,
				"element": "C" 
			},
			{
				"x": 1.7672033942,
				"y": -2.1650933372,
				"z": 0.7748974327,
				"element": "O" 
			},
			{
				"x": -0.4352463656,
				"y": 2.6253949708,
				"z": 0.5939479371,
				"element": "H" 
			},
			{
				"x": -2.1192491143,
				"y": 2.7943360051,
				"z": 1.0902046221,
				"element": "H" 
			},
			{
				"x": -1.7271358118,
				"y": 2.0234039194,
				"z": -0.4478095196,
				"element": "H" 
			},
			{
				"x": -2.3724132385,
				"y": 0.3425930911,
				"z": 1.3353835962,
				"element": "H" 
			},
			{
				"x": -1.0810866493,
				"y": 0.9148112306,
				"z": 2.3602185833,
				"element": "H" 
			},
			{
				"x": -0.4584986025,
				"y": -1.1726797656,
				"z": 1.3481850294,
				"element": "H" 
			},
			{
				"x": -0.7444919179,
				"y": 0.0387429929,
				"z": -1.4620721228,
				"element": "H" 
			},
			{
				"x": -1.9831238123,
				"y": -0.9517499274,
				"z": -0.6835356053,
				"element": "H" 
			},
			{
				"x": -0.3994283983,
				"y": -1.6442214715,
				"z": -1.0315898974,
				"element": "H" 
			},
			{
				"x": 1.1504619904,
				"y": 0.9946756608,
				"z": -0.0436594485,
				"element": "H" 
			},
			{
				"x": 1.0334330571,
				"y": 1.369309425,
				"z": 2.3228746547,
				"element": "H" 
			},
			{
				"x": 2.4896287917,
				"y": 0.709978341,
				"z": 2.0282490329,
				"element": "H" 
			},
			{
				"x": 3.033531699,
				"y": -0.5926419342,
				"z": 0.2355558303,
				"element": "H" 
			},
			{
				"x": 1.8140479596,
				"y": -1.0221434111,
				"z": -0.9724730377,
				"element": "H" 
			},
			{
				"x": 2.362092861,
				"y": -2.8213831914,
				"z": 0.3929115756,
				"element": "H" 
			}
		],
		 "valence_orbital": [ 
			{
				"type": "occ",
				"energy": -0.31272,
				"method": "rhf"
			},
			{
				"type": "occ",
				"energy": -0.3062,
				"method": "rhf"
			},
			{
				"type": "occ",
				"energy": -0.29707,
				"method": "rhf"
			},
			{
				"type": "occ",
				"energy": -0.26296,
				"method": "rhf"
			},
			{
				"type": "occ",
				"energy": -0.224,
				"method": "rhf"
			},
			{
				"type": "unocc",
				"energy": 0.06384,
				"method": "rhf"
			},
			{
				"type": "unocc",
				"energy": 0.09267,
				"method": "rhf"
			},
			{
				"type": "unocc",
				"energy": 0.10975,
				"method": "rhf"
			},
			{
				"type": "unocc",
				"energy": 0.12117,
				"method": "rhf"
			},
			{
				"type": "unocc",
				"energy": 0.12791,
				"method": "rhf"
			}
		],
		"cosmo_sigma_profile": { 
			"-0.025": 0.0,
			"-0.024": 0.0,
			"-0.023": 0.0,
			"-0.022": 0.0,
			"-0.021": 0.0,
			"-0.02": 0.0,
			"-0.019": 0.0,
			"-0.018": 0.0,
			"-0.017": 0.0,
			"-0.016": 0.283359754243,
			"-0.015": 0.968744657823,
			"-0.014": 1.14733298837,
			"-0.013": 1.05682627105,
			"-0.012": 0.489088758187,
			"-0.011": 0.836080525551,
			"-0.01": 0.778745720206,
			"-0.009": 2.23247974568,
			"-0.008": 3.10193772351,
			"-0.007": 4.43755287473,
			"-0.006": 5.2760590293,
			"-0.005": 4.62027988087,
			"-0.004": 5.2699447962,
			"-0.003": 11.9737538877,
			"-0.002": 27.1952761157,
			"-0.001": 24.6456671402,
			"0.0": 21.878745818,
			"0.001": 22.0641199862,
			"0.002": 12.4389384997,
			"0.003": 3.19951785003,
			"0.004": 1.70908702861,
			"0.005": 1.68751583805,
			"0.006": 1.75266889919,
			"0.007": 1.82437378373,
			"0.008": 1.88455950991,
			"0.009": 1.49148998528,
			"0.01": 2.11980551771,
			"0.011": 1.72179863262,
			"0.012": 1.76481556048,
			"0.013": 2.20308934585,
			"0.014": 1.40526656619,
			"0.015": 1.13319155115,
			"0.016": 0.813853020877,
			"0.017": 1.29077025259,
			"0.018": 1.17351596271,
			"0.019": 0.65169989571,
			"0.02": 0.837720704351,
			"0.021": 0.169638505651,
			"0.022": 0.0,
			"0.023": 0.0,
			"0.024": 0.0,
			"0.025": 0.0
		}
	}
}
