{
	 "smiles": "CN1C=CC=C1C(=O)NC(=O)CCl", 
	 "Tm": 413.15, 
	 "num_atms": 22, 
	 "gaussian": { 
		 "optdone": 1, 
		 "sigma_profile": "yes", 
		 "theory": "DFT", 
		 "functional": "B3LYP", 
		 "basiset": "6-31G**", 
		 "properties": { 
			 "R2extent": 3498.0108, 
			 "electric_dipole_moment_norm": 1.46591474172, 
			 "electric_quadrupole_moment_norm": 13.9649384864, 
			 "total_energy": -1030.42943602, 
			 "HOMO_LUMO_gap": 0.17712, 
			 "cosmo_polarized_energy": -12.06, 
			 "cosmo_cavitation_energy": 27.97, 
			 "cosmo_dispersion_energy": -20.69, 
			 "cosmo_repulsion_energy": 1.64, 
			 "cosmo_total_nonelectrostatic_energy": 8.92, 
			 "SMD_solvation_energy": 6.06 
		},
		"coords": [
			{
				"x": -2.6394816199,
				"y": 1.390011573,
				"z": 1.9248683108,
				"element": "C" 
			},
			{
				"x": -1.9186693029,
				"y": 1.5932976415,
				"z": 0.6709845686,
				"element": "N" 
			},
			{
				"x": -2.2924416626,
				"y": 2.4976579005,
				"z": -0.2718072762,
				"element": "C" 
			},
			{
				"x": -1.4058604073,
				"y": 2.4486613603,
				"z": -1.3385531844,
				"element": "C" 
			},
			{
				"x": -0.4555413163,
				"y": 1.4616753807,
				"z": -1.0356423059,
				"element": "C" 
			},
			{
				"x": -0.7754587961,
				"y": 0.9271469417,
				"z": 0.2167246532,
				"element": "C" 
			},
			{
				"x": -0.1022509106,
				"y": -0.0239674741,
				"z": 1.0794908886,
				"element": "C" 
			},
			{
				"x": -0.3873103806,
				"y": -0.185912913,
				"z": 2.263662077,
				"element": "O" 
			},
			{
				"x": 1.0027498243,
				"y": -0.8024670121,
				"z": 0.6141434989,
				"element": "N" 
			},
			{
				"x": 1.3581493539,
				"y": -1.3073914819,
				"z": -0.6094348718,
				"element": "C" 
			},
			{
				"x": 0.8744846888,
				"y": -1.0327388416,
				"z": -1.693598111,
				"element": "O" 
			},
			{
				"x": 2.5022367718,
				"y": -2.3336142307,
				"z": -0.6214867554,
				"element": "C" 
			},
			{
				"x": 3.2261810039,
				"y": -2.8113810716,
				"z": 0.9694523595,
				"element": "Cl" 
			},
			{
				"x": -3.5395049026,
				"y": 2.0074418865,
				"z": 1.8944919285,
				"element": "H" 
			},
			{
				"x": -2.9212391402,
				"y": 0.3428265306,
				"z": 2.0434174789,
				"element": "H" 
			},
			{
				"x": -2.0235901524,
				"y": 1.6710757072,
				"z": 2.7797204384,
				"element": "H" 
			},
			{
				"x": -3.1698424317,
				"y": 3.1108203223,
				"z": -0.1208874508,
				"element": "H" 
			},
			{
				"x": -1.4548341641,
				"y": 3.0533860141,
				"z": -2.2325148463,
				"element": "H" 
			},
			{
				"x": 0.3656076145,
				"y": 1.139287275,
				"z": -1.6531684008,
				"element": "H" 
			},
			{
				"x": 1.4447976871,
				"y": -1.2493310227,
				"z": 1.4120568293,
				"element": "H" 
			},
			{
				"x": 2.1273866801,
				"y": -3.2419606532,
				"z": -1.0935085817,
				"element": "H" 
			},
			{
				"x": 3.307831563,
				"y": -1.9269238326,
				"z": -1.2335112475,
				"element": "H" 
			}
		],
		 "valence_orbital": [ 
			{
				"type": "occ",
				"energy": -0.29286,
				"method": "rhf"
			},
			{
				"type": "occ",
				"energy": -0.28112,
				"method": "rhf"
			},
			{
				"type": "occ",
				"energy": -0.2649,
				"method": "rhf"
			},
			{
				"type": "occ",
				"energy": -0.24554,
				"method": "rhf"
			},
			{
				"type": "occ",
				"energy": -0.22612,
				"method": "rhf"
			},
			{
				"type": "unocc",
				"energy": -0.049,
				"method": "rhf"
			},
			{
				"type": "unocc",
				"energy": 0.00789,
				"method": "rhf"
			},
			{
				"type": "unocc",
				"energy": 0.00874,
				"method": "rhf"
			},
			{
				"type": "unocc",
				"energy": 0.06037,
				"method": "rhf"
			},
			{
				"type": "unocc",
				"energy": 0.09525,
				"method": "rhf"
			}
		],
		"cosmo_sigma_profile": { 
			"-0.025": 0.0,
			"-0.024": 0.0,
			"-0.023": 0.0,
			"-0.022": 0.0,
			"-0.021": 0.0,
			"-0.02": 0.0,
			"-0.019": 0.0,
			"-0.018": 0.0,
			"-0.017": 0.0,
			"-0.016": 0.0,
			"-0.015": 0.0,
			"-0.014": 0.0,
			"-0.013": 0.0,
			"-0.012": 0.0,
			"-0.011": 0.0,
			"-0.01": 1.16410193818,
			"-0.009": 6.95494167964,
			"-0.008": 7.42664715871,
			"-0.007": 9.27999181234,
			"-0.006": 11.767316245,
			"-0.005": 12.6737176057,
			"-0.004": 14.7147840176,
			"-0.003": 17.6631571874,
			"-0.002": 19.1411000581,
			"-0.001": 14.3740472179,
			"0.0": 13.3200077391,
			"0.001": 12.6170181566,
			"0.002": 12.5314316028,
			"0.003": 12.2322637204,
			"0.004": 12.6325913407,
			"0.005": 13.5368051632,
			"0.006": 8.0924352866,
			"0.007": 3.46262078028,
			"0.008": 3.09471202513,
			"0.009": 3.52437137434,
			"0.01": 3.88583678831,
			"0.011": 5.53374572651,
			"0.012": 5.01476496528,
			"0.013": 1.0085361432,
			"0.014": 0.0,
			"0.015": 0.0,
			"0.016": 0.0,
			"0.017": 0.0,
			"0.018": 0.0,
			"0.019": 0.0,
			"0.02": 0.0,
			"0.021": 0.0,
			"0.022": 0.0,
			"0.023": 0.0,
			"0.024": 0.0,
			"0.025": 0.0
		}
	}
}
