{
	 "smiles": "CC1=CC=C(S1)C1=NC(N)=NN=C1", 
	 "Tm": 574.15, 
	 "num_atms": 21, 
	 "gaussian": { 
		 "optdone": 1, 
		 "sigma_profile": "yes", 
		 "theory": "DFT", 
		 "functional": "B3LYP", 
		 "basiset": "6-31G**", 
		 "properties": { 
			 "R2extent": 3426.4229, 
			 "electric_dipole_moment_norm": 4.01981315735, 
			 "electric_quadrupole_moment_norm": 15.7554002139, 
			 "total_energy": -926.834701468, 
			 "HOMO_LUMO_gap": 0.15061, 
			 "cosmo_polarized_energy": -14.46, 
			 "cosmo_cavitation_energy": 27.34, 
			 "cosmo_dispersion_energy": -20.85, 
			 "cosmo_repulsion_energy": 1.61, 
			 "cosmo_total_nonelectrostatic_energy": 8.1, 
			 "SMD_solvation_energy": 1.6 
		},
		"coords": [
			{
				"x": -5.0143977409,
				"y": 1.3074062457,
				"z": 0.9763016205,
				"element": "C" 
			},
			{
				"x": -3.5174556352,
				"y": 1.3902743679,
				"z": 0.9621147471,
				"element": "C" 
			},
			{
				"x": -2.7221477108,
				"y": 2.3671102065,
				"z": 1.5130942803,
				"element": "C" 
			},
			{
				"x": -1.3341854182,
				"y": 2.1413414012,
				"z": 1.318262596,
				"element": "C" 
			},
			{
				"x": -1.0655725757,
				"y": 0.9867503299,
				"z": 0.6148491189,
				"element": "C" 
			},
			{
				"x": -2.5524328448,
				"y": 0.1645082929,
				"z": 0.1860893203,
				"element": "S" 
			},
			{
				"x": 0.2136516886,
				"y": 0.4199561106,
				"z": 0.2198984199,
				"element": "C" 
			},
			{
				"x": 0.2025743293,
				"y": -0.7308593401,
				"z": -0.4591169188,
				"element": "N" 
			},
			{
				"x": 1.4102897889,
				"y": -1.2158451878,
				"z": -0.7990130388,
				"element": "C" 
			},
			{
				"x": 1.4417375681,
				"y": -2.3619254938,
				"z": -1.5312682655,
				"element": "N" 
			},
			{
				"x": 2.6105028708,
				"y": -0.6654198826,
				"z": -0.5010900699,
				"element": "N" 
			},
			{
				"x": 2.6050971029,
				"y": 0.4790829393,
				"z": 0.1714153684,
				"element": "N" 
			},
			{
				"x": 1.4499724849,
				"y": 1.03123757,
				"z": 0.5277327623,
				"element": "C" 
			},
			{
				"x": -5.4311217355,
				"y": 1.3056093925,
				"z": -0.0371680047,
				"element": "H" 
			},
			{
				"x": -5.3666938839,
				"y": 0.3980772752,
				"z": 1.4760947984,
				"element": "H" 
			},
			{
				"x": -5.4295486732,
				"y": 2.1668549377,
				"z": 1.509410812,
				"element": "H" 
			},
			{
				"x": -3.1249791742,
				"y": 3.2233365472,
				"z": 2.0433219839,
				"element": "H" 
			},
			{
				"x": -0.5637784081,
				"y": 2.8092662677,
				"z": 1.6859859546,
				"element": "H" 
			},
			{
				"x": 2.3325388455,
				"y": -2.8222013504,
				"z": -1.6293573616,
				"element": "H" 
			},
			{
				"x": 0.5967206281,
				"y": -2.9060421412,
				"z": -1.592479016,
				"element": "H" 
			},
			{
				"x": 1.5174284934,
				"y": 1.9663815116,
				"z": 1.0728208928,
				"element": "H" 
			}
		],
		 "valence_orbital": [ 
			{
				"type": "occ",
				"energy": -0.31009,
				"method": "rhf"
			},
			{
				"type": "occ",
				"energy": -0.25958,
				"method": "rhf"
			},
			{
				"type": "occ",
				"energy": -0.24455,
				"method": "rhf"
			},
			{
				"type": "occ",
				"energy": -0.22359,
				"method": "rhf"
			},
			{
				"type": "occ",
				"energy": -0.2222,
				"method": "rhf"
			},
			{
				"type": "unocc",
				"energy": -0.07159,
				"method": "rhf"
			},
			{
				"type": "unocc",
				"energy": -0.02201,
				"method": "rhf"
			},
			{
				"type": "unocc",
				"energy": 0.01544,
				"method": "rhf"
			},
			{
				"type": "unocc",
				"energy": 0.02855,
				"method": "rhf"
			},
			{
				"type": "unocc",
				"energy": 0.06853,
				"method": "rhf"
			}
		],
		"cosmo_sigma_profile": { 
			"-0.025": 0.0,
			"-0.024": 0.0,
			"-0.023": 0.0,
			"-0.022": 0.0,
			"-0.021": 0.0,
			"-0.02": 0.0,
			"-0.019": 0.0,
			"-0.018": 0.0,
			"-0.017": 0.0,
			"-0.016": 0.0,
			"-0.015": 0.0504087865476,
			"-0.014": 1.73011862528,
			"-0.013": 2.13645379746,
			"-0.012": 2.36194518705,
			"-0.011": 1.42956841803,
			"-0.01": 2.34507464039,
			"-0.009": 4.38992247266,
			"-0.008": 4.60967900693,
			"-0.007": 5.14818563608,
			"-0.006": 8.40895284365,
			"-0.005": 12.4485154271,
			"-0.004": 14.0447587142,
			"-0.003": 15.1054138958,
			"-0.002": 15.9307250578,
			"-0.001": 17.9660033195,
			"0.0": 15.5615650911,
			"0.001": 12.0704291542,
			"0.002": 14.7830842951,
			"0.003": 17.8844428625,
			"0.004": 15.0515774512,
			"0.005": 7.7047415095,
			"0.006": 4.37027487045,
			"0.007": 2.56171444692,
			"0.008": 3.87341853926,
			"0.009": 4.57956821183,
			"0.01": 2.43132214053,
			"0.011": 2.17715661491,
			"0.012": 1.75303307989,
			"0.013": 2.95156309636,
			"0.014": 2.86383338598,
			"0.015": 1.86499686036,
			"0.016": 0.479763279433,
			"0.017": 0.0,
			"0.018": 0.0,
			"0.019": 0.0,
			"0.02": 0.0,
			"0.021": 0.0,
			"0.022": 0.0,
			"0.023": 0.0,
			"0.024": 0.0,
			"0.025": 0.0
		}
	}
}
