{
	 "smiles": "CCCCCC1CCC(CC1)C(O)=O", 
	 "Tm": 327.15, 
	 "num_atms": 36, 
	 "gaussian": { 
		 "optdone": 1, 
		 "sigma_profile": "yes", 
		 "theory": "DFT", 
		 "functional": "B3LYP", 
		 "basiset": "6-31G**", 
		 "properties": { 
			 "R2extent": 3757.5887, 
			 "electric_dipole_moment_norm": 1.44982774494, 
			 "electric_quadrupole_moment_norm": 5.21120072152, 
			 "total_energy": -621.022175967, 
			 "HOMO_LUMO_gap": 0.27422, 
			 "cosmo_polarized_energy": -7.51, 
			 "cosmo_cavitation_energy": 34.56, 
			 "cosmo_dispersion_energy": -23.93, 
			 "cosmo_repulsion_energy": 1.91, 
			 "cosmo_total_nonelectrostatic_energy": 12.54, 
			 "SMD_solvation_energy": 5.64 
		},
		"coords": [
			{
				"x": -2.7649304989,
				"y": -1.1997871019,
				"z": -2.2738388177,
				"element": "C" 
			},
			{
				"x": -2.9483382248,
				"y": 0.0002384618,
				"z": -1.3368280111,
				"element": "C" 
			},
			{
				"x": -2.4836245422,
				"y": 1.3404265648,
				"z": -1.9401811848,
				"element": "C" 
			},
			{
				"x": -0.9637144257,
				"y": 1.5155272563,
				"z": -2.1662971472,
				"element": "C" 
			},
			{
				"x": -0.183875475,
				"y": 2.1575738428,
				"z": -1.0020850793,
				"element": "C" 
			},
			{
				"x": -0.071283974,
				"y": 1.3489382689,
				"z": 0.3017389829,
				"element": "C" 
			},
			{
				"x": 0.6324002901,
				"y": -0.0148258898,
				"z": 0.0948651239,
				"element": "C" 
			},
			{
				"x": 1.2765538046,
				"y": -0.5732765119,
				"z": 1.3876645569,
				"element": "C" 
			},
			{
				"x": 0.5647813406,
				"y": -0.107646133,
				"z": 2.666812311,
				"element": "C" 
			},
			{
				"x": 0.5646491693,
				"y": 1.451352294,
				"z": 2.7728365655,
				"element": "C" 
			},
			{
				"x": 0.6650398023,
				"y": 2.1413872242,
				"z": 1.3949758459,
				"element": "C" 
			},
			{
				"x": -0.8303477376,
				"y": -0.7026098155,
				"z": 2.7745332582,
				"element": "C" 
			},
			{
				"x": -1.4429289248,
				"y": -0.3474633639,
				"z": 3.9332091018,
				"element": "O" 
			},
			{
				"x": -1.3678448903,
				"y": -1.4369955145,
				"z": 1.9709457032,
				"element": "O" 
			},
			{
				"x": -3.3083472567,
				"y": -1.0529613826,
				"z": -3.2149995845,
				"element": "H" 
			},
			{
				"x": -3.1382173572,
				"y": -2.1193209462,
				"z": -1.8115616822,
				"element": "H" 
			},
			{
				"x": -1.7119445846,
				"y": -1.3670516971,
				"z": -2.5249471941,
				"element": "H" 
			},
			{
				"x": -2.4372776299,
				"y": -0.2012776713,
				"z": -0.3887521064,
				"element": "H" 
			},
			{
				"x": -4.0143036416,
				"y": 0.0899410549,
				"z": -1.0887387616,
				"element": "H" 
			},
			{
				"x": -2.9973427286,
				"y": 1.4637646533,
				"z": -2.903432306,
				"element": "H" 
			},
			{
				"x": -2.8424397086,
				"y": 2.1644289126,
				"z": -1.3077865283,
				"element": "H" 
			},
			{
				"x": -0.8183296919,
				"y": 2.1624509264,
				"z": -3.0405145761,
				"element": "H" 
			},
			{
				"x": -0.5086802479,
				"y": 0.5552743073,
				"z": -2.4384603839,
				"element": "H" 
			},
			{
				"x": -0.6468344372,
				"y": 3.1282729177,
				"z": -0.772741701,
				"element": "H" 
			},
			{
				"x": 0.8345873833,
				"y": 2.3848856601,
				"z": -1.3503160391,
				"element": "H" 
			},
			{
				"x": -1.0892310832,
				"y": 1.1602884977,
				"z": 0.6707109815,
				"element": "H" 
			},
			{
				"x": -0.0822652829,
				"y": -0.7420106835,
				"z": -0.2969017954,
				"element": "H" 
			},
			{
				"x": 1.41765424,
				"y": 0.0998764671,
				"z": -0.6642890875,
				"element": "H" 
			},
			{
				"x": 2.3176065497,
				"y": -0.2366265765,
				"z": 1.4595400152,
				"element": "H" 
			},
			{
				"x": 1.3041062313,
				"y": -1.6663366299,
				"z": 1.3507609584,
				"element": "H" 
			},
			{
				"x": 1.0957175803,
				"y": -0.5014638178,
				"z": 3.5434081568,
				"element": "H" 
			},
			{
				"x": -0.3416719691,
				"y": 1.7766246426,
				"z": 3.2919931957,
				"element": "H" 
			},
			{
				"x": 1.4047039459,
				"y": 1.7638457837,
				"z": 3.4019865624,
				"element": "H" 
			},
			{
				"x": 0.2634233047,
				"y": 3.159018276,
				"z": 1.4697425424,
				"element": "H" 
			},
			{
				"x": 1.718593944,
				"y": 2.2511701516,
				"z": 1.1026908078,
				"element": "H" 
			},
			{
				"x": -2.3127432733,
				"y": -0.7808324282,
				"z": 3.9180573168,
				"element": "H" 
			}
		],
		 "valence_orbital": [ 
			{
				"type": "occ",
				"energy": -0.30875,
				"method": "rhf"
			},
			{
				"type": "occ",
				"energy": -0.29515,
				"method": "rhf"
			},
			{
				"type": "occ",
				"energy": -0.2926,
				"method": "rhf"
			},
			{
				"type": "occ",
				"energy": -0.28946,
				"method": "rhf"
			},
			{
				"type": "occ",
				"energy": -0.26719,
				"method": "rhf"
			},
			{
				"type": "unocc",
				"energy": 0.00703,
				"method": "rhf"
			},
			{
				"type": "unocc",
				"energy": 0.07302,
				"method": "rhf"
			},
			{
				"type": "unocc",
				"energy": 0.08244,
				"method": "rhf"
			},
			{
				"type": "unocc",
				"energy": 0.09177,
				"method": "rhf"
			},
			{
				"type": "unocc",
				"energy": 0.10829,
				"method": "rhf"
			}
		],
		"cosmo_sigma_profile": { 
			"-0.025": 0.0,
			"-0.024": 0.0,
			"-0.023": 0.0,
			"-0.022": 0.0,
			"-0.021": 0.0,
			"-0.02": 0.0,
			"-0.019": 0.0,
			"-0.018": 0.409113415441,
			"-0.017": 0.94498304905,
			"-0.016": 0.76665685051,
			"-0.015": 0.807930124242,
			"-0.014": 0.739985016481,
			"-0.013": 0.581036450797,
			"-0.012": 0.617146798218,
			"-0.011": 0.745487412157,
			"-0.01": 0.930057906585,
			"-0.009": 0.425852419038,
			"-0.008": 0.424512806899,
			"-0.007": 1.06758867395,
			"-0.006": 1.47833022617,
			"-0.005": 3.81451326346,
			"-0.004": 3.75842506355,
			"-0.003": 13.3995924661,
			"-0.002": 36.9485692647,
			"-0.001": 53.6163172514,
			"0.0": 48.5279216832,
			"0.001": 39.4735251774,
			"0.002": 21.4363430084,
			"0.003": 5.54387655081,
			"0.004": 4.42828972046,
			"0.005": 4.6117312941,
			"0.006": 3.47950772833,
			"0.007": 2.55205236992,
			"0.008": 2.39453056958,
			"0.009": 3.29852955164,
			"0.01": 2.29714529892,
			"0.011": 2.16323434563,
			"0.012": 3.05280576757,
			"0.013": 0.406664132258,
			"0.014": 0.0,
			"0.015": 0.0,
			"0.016": 0.0,
			"0.017": 0.0,
			"0.018": 0.0,
			"0.019": 0.0,
			"0.02": 0.0,
			"0.021": 0.0,
			"0.022": 0.0,
			"0.023": 0.0,
			"0.024": 0.0,
			"0.025": 0.0
		}
	}
}
