{
	 "smiles": "OCCOCCOCCOCCOCCOCCO", 
	 "Tm": 279.15, 
	 "num_atms": 45, 
	 "gaussian": { 
		 "optdone": 1, 
		 "sigma_profile": "yes", 
		 "theory": "DFT", 
		 "functional": "B3LYP", 
		 "basiset": "6-31G**", 
		 "properties": { 
			 "R2extent": 14859.8959, 
			 "electric_dipole_moment_norm": 3.30226304373, 
			 "electric_quadrupole_moment_norm": 25.3969931069, 
			 "total_energy": -999.416459346, 
			 "HOMO_LUMO_gap": 0.3253, 
			 "cosmo_polarized_energy": -21.65, 
			 "cosmo_cavitation_energy": 48.38, 
			 "cosmo_dispersion_energy": -33.85, 
			 "cosmo_repulsion_energy": 2.8, 
			 "cosmo_total_nonelectrostatic_energy": 17.32, 
			 "SMD_solvation_energy": 7.93 
		},
		"coords": [
			{
				"x": 2.0965228454,
				"y": -3.8278823984,
				"z": 6.2262272397,
				"element": "O" 
			},
			{
				"x": 1.5441855764,
				"y": -4.829629446,
				"z": 5.3920910135,
				"element": "C" 
			},
			{
				"x": 1.1920129355,
				"y": -4.2729167232,
				"z": 4.021341918,
				"element": "C" 
			},
			{
				"x": 2.4000412139,
				"y": -3.7735875902,
				"z": 3.4628669284,
				"element": "O" 
			},
			{
				"x": 2.2272307577,
				"y": -3.0935785892,
				"z": 2.2323696637,
				"element": "C" 
			},
			{
				"x": 3.6077512723,
				"y": -2.6354193587,
				"z": 1.7615367978,
				"element": "C" 
			},
			{
				"x": 3.5379454101,
				"y": -1.9571024157,
				"z": 0.5201690519,
				"element": "O" 
			},
			{
				"x": 3.2844385384,
				"y": -0.5673979236,
				"z": 0.6200360828,
				"element": "C" 
			},
			{
				"x": 3.1283343066,
				"y": -0.0013709788,
				"z": -0.784949831,
				"element": "C" 
			},
			{
				"x": 1.9456972095,
				"y": -0.4414043289,
				"z": -1.4352558738,
				"element": "O" 
			},
			{
				"x": 0.7880532551,
				"y": 0.3357190991,
				"z": -1.1724118629,
				"element": "C" 
			},
			{
				"x": 0.6287302678,
				"y": 1.4404502218,
				"z": -2.2157584982,
				"element": "C" 
			},
			{
				"x": -0.5411221527,
				"y": 2.1673285718,
				"z": -1.8953374216,
				"element": "O" 
			},
			{
				"x": -0.8330408003,
				"y": 3.1980849176,
				"z": -2.814769859,
				"element": "C" 
			},
			{
				"x": -2.115114195,
				"y": 3.8996565091,
				"z": -2.3850322144,
				"element": "C" 
			},
			{
				"x": -3.2701082989,
				"y": 3.0807720281,
				"z": -2.4163439877,
				"element": "O" 
			},
			{
				"x": -3.7864017591,
				"y": 2.8000577632,
				"z": -3.7118079981,
				"element": "C" 
			},
			{
				"x": -5.1747590252,
				"y": 2.2140354877,
				"z": -3.4988589956,
				"element": "C" 
			},
			{
				"x": -6.0123677097,
				"y": 3.1185742006,
				"z": -2.8046952392,
				"element": "O" 
			},
			{
				"x": 2.7909132537,
				"y": -3.4082522886,
				"z": 5.6984566311,
				"element": "H" 
			},
			{
				"x": 0.6396421304,
				"y": -5.2023508302,
				"z": 5.8840834971,
				"element": "H" 
			},
			{
				"x": 2.2351494191,
				"y": -5.6790436932,
				"z": 5.2668783475,
				"element": "H" 
			},
			{
				"x": 0.4565666997,
				"y": -3.4592305702,
				"z": 4.1239142193,
				"element": "H" 
			},
			{
				"x": 0.755411283,
				"y": -5.0538165687,
				"z": 3.3775533322,
				"element": "H" 
			},
			{
				"x": 1.5495795581,
				"y": -2.2334686508,
				"z": 2.3574323612,
				"element": "H" 
			},
			{
				"x": 1.7833574426,
				"y": -3.7552911086,
				"z": 1.473047513,
				"element": "H" 
			},
			{
				"x": 4.0756918161,
				"y": -2.0115544596,
				"z": 2.5383828211,
				"element": "H" 
			},
			{
				"x": 4.2443970205,
				"y": -3.513365481,
				"z": 1.6127200443,
				"element": "H" 
			},
			{
				"x": 2.3780792529,
				"y": -0.3606094765,
				"z": 1.2106306553,
				"element": "H" 
			},
			{
				"x": 4.1250450956,
				"y": -0.0575504785,
				"z": 1.1225509137,
				"element": "H" 
			},
			{
				"x": 3.9677408332,
				"y": -0.3479505896,
				"z": -1.3965219058,
				"element": "H" 
			},
			{
				"x": 3.1756995557,
				"y": 1.0971554513,
				"z": -0.7341085781,
				"element": "H" 
			},
			{
				"x": -0.0763941465,
				"y": -0.3340693774,
				"z": -1.218929008,
				"element": "H" 
			},
			{
				"x": 0.8056101896,
				"y": 0.7812467195,
				"z": -0.1676412792,
				"element": "H" 
			},
			{
				"x": 1.5142612153,
				"y": 2.0994729047,
				"z": -2.2152344228,
				"element": "H" 
			},
			{
				"x": 0.5587060642,
				"y": 0.989109603,
				"z": -3.2183398481,
				"element": "H" 
			},
			{
				"x": -0.9296288497,
				"y": 2.7928985519,
				"z": -3.8358687366,
				"element": "H" 
			},
			{
				"x": -0.0200107534,
				"y": 3.9453878872,
				"z": -2.8422522565,
				"element": "H" 
			},
			{
				"x": -2.2551458672,
				"y": 4.7939395742,
				"z": -3.0147630296,
				"element": "H" 
			},
			{
				"x": -2.0059389654,
				"y": 4.2244442237,
				"z": -1.3455131683,
				"element": "H" 
			},
			{
				"x": -3.8572005447,
				"y": 3.7287141738,
				"z": -4.3006965143,
				"element": "H" 
			},
			{
				"x": -3.149174462,
				"y": 2.0889971988,
				"z": -4.2594886711,
				"element": "H" 
			},
			{
				"x": -5.6428622348,
				"y": 2.0109394427,
				"z": -4.4678972056,
				"element": "H" 
			},
			{
				"x": -5.0788989795,
				"y": 1.2561455921,
				"z": -2.9625328893,
				"element": "H" 
			},
			{
				"x": -5.4986256743,
				"y": 3.3998132036,
				"z": -2.0336797371,
				"element": "H" 
			}
		],
		 "valence_orbital": [ 
			{
				"type": "occ",
				"energy": -0.26484,
				"method": "rhf"
			},
			{
				"type": "occ",
				"energy": -0.26306,
				"method": "rhf"
			},
			{
				"type": "occ",
				"energy": -0.26003,
				"method": "rhf"
			},
			{
				"type": "occ",
				"energy": -0.25855,
				"method": "rhf"
			},
			{
				"type": "occ",
				"energy": -0.25499,
				"method": "rhf"
			},
			{
				"type": "unocc",
				"energy": 0.07031,
				"method": "rhf"
			},
			{
				"type": "unocc",
				"energy": 0.0723,
				"method": "rhf"
			},
			{
				"type": "unocc",
				"energy": 0.07935,
				"method": "rhf"
			},
			{
				"type": "unocc",
				"energy": 0.09262,
				"method": "rhf"
			},
			{
				"type": "unocc",
				"energy": 0.09806,
				"method": "rhf"
			}
		],
		"cosmo_sigma_profile": { 
			"-0.025": 0.0,
			"-0.024": 0.0,
			"-0.023": 0.0,
			"-0.022": 0.0,
			"-0.021": 0.0,
			"-0.02": 0.0,
			"-0.019": 0.0,
			"-0.018": 0.0,
			"-0.017": 0.0,
			"-0.016": 0.0,
			"-0.015": 0.0,
			"-0.014": 0.0,
			"-0.013": 0.123001919437,
			"-0.012": 0.905155395332,
			"-0.011": 1.38683210851,
			"-0.01": 0.904524223007,
			"-0.009": 0.981236241718,
			"-0.008": 1.29901195744,
			"-0.007": 1.16165183548,
			"-0.006": 2.47561709208,
			"-0.005": 28.3720026476,
			"-0.004": 72.8920274584,
			"-0.003": 64.4001560307,
			"-0.002": 42.1442121111,
			"-0.001": 25.0024000207,
			"0.0": 15.5777080099,
			"0.001": 13.020095071,
			"0.002": 11.0004365937,
			"0.003": 10.6385328301,
			"0.004": 7.6033470356,
			"0.005": 7.05442761131,
			"0.006": 7.23933203319,
			"0.007": 7.93577467296,
			"0.008": 5.79146827213,
			"0.009": 6.80630742088,
			"0.01": 7.26612158854,
			"0.011": 6.84757065138,
			"0.012": 6.84593387424,
			"0.013": 8.45339864732,
			"0.014": 7.05743306853,
			"0.015": 2.33552733564,
			"0.016": 0.0,
			"0.017": 0.0,
			"0.018": 0.0,
			"0.019": 0.0,
			"0.02": 0.0,
			"0.021": 0.0,
			"0.022": 0.0,
			"0.023": 0.0,
			"0.024": 0.0,
			"0.025": 0.0
		}
	}
}
