{
	 "smiles": "CC(OC(=O)NC1=CC=CC(Cl)=C1)C#C", 
	 "Tm": 318.65, 
	 "num_atms": 25, 
	 "gaussian": { 
		 "optdone": 1, 
		 "sigma_profile": "yes", 
		 "theory": "DFT", 
		 "functional": "B3LYP", 
		 "basiset": "6-31G**", 
		 "properties": { 
			 "R2extent": 4592.6196, 
			 "electric_dipole_moment_norm": 0.878619382896, 
			 "electric_quadrupole_moment_norm": 15.209847681, 
			 "total_energy": -1090.53318385, 
			 "HOMO_LUMO_gap": 0.21138, 
			 "cosmo_polarized_energy": -12.81, 
			 "cosmo_cavitation_energy": 32.48, 
			 "cosmo_dispersion_energy": -22.69, 
			 "cosmo_repulsion_energy": 1.8, 
			 "cosmo_total_nonelectrostatic_energy": 11.59, 
			 "SMD_solvation_energy": 7.7 
		},
		"coords": [
			{
				"x": -0.2850253797,
				"y": -3.2684068022,
				"z": -1.8602813424,
				"element": "C" 
			},
			{
				"x": 0.7298917395,
				"y": -2.1256304398,
				"z": -1.7702115253,
				"element": "C" 
			},
			{
				"x": 0.3095942423,
				"y": -1.0903609636,
				"z": -0.8282891346,
				"element": "O" 
			},
			{
				"x": 0.2601413592,
				"y": -1.4085659328,
				"z": 0.4849458172,
				"element": "C" 
			},
			{
				"x": 0.4922827347,
				"y": -2.5040143845,
				"z": 0.9577430855,
				"element": "O" 
			},
			{
				"x": -0.1006433538,
				"y": -0.339146545,
				"z": 1.2802958669,
				"element": "N" 
			},
			{
				"x": -0.4070940285,
				"y": 1.0121378866,
				"z": 1.0337473336,
				"element": "C" 
			},
			{
				"x": -0.7557559943,
				"y": 1.7903052466,
				"z": 2.1523496274,
				"element": "C" 
			},
			{
				"x": -1.0723549434,
				"y": 3.1360470852,
				"z": 2.0061782581,
				"element": "C" 
			},
			{
				"x": -1.052940507,
				"y": 3.7454701995,
				"z": 0.7506689295,
				"element": "C" 
			},
			{
				"x": -0.7054796688,
				"y": 2.9614003549,
				"z": -0.3462461781,
				"element": "C" 
			},
			{
				"x": -0.6699350479,
				"y": 3.6965663704,
				"z": -1.9456051801,
				"element": "Cl" 
			},
			{
				"x": -0.381774068,
				"y": 1.6107010204,
				"z": -0.2347167693,
				"element": "C" 
			},
			{
				"x": 2.1011832049,
				"y": -2.5735610874,
				"z": -1.5182346153,
				"element": "C" 
			},
			{
				"x": 3.2432484956,
				"y": -2.9410033871,
				"z": -1.388833026,
				"element": "C" 
			},
			{
				"x": -0.0181350571,
				"y": -3.9192498876,
				"z": -2.6977820606,
				"element": "H" 
			},
			{
				"x": -0.2909493626,
				"y": -3.8516052559,
				"z": -0.9404992819,
				"element": "H" 
			},
			{
				"x": -1.2821693051,
				"y": -2.8573625228,
				"z": -2.0424263856,
				"element": "H" 
			},
			{
				"x": 0.7224266369,
				"y": -1.5697303249,
				"z": -2.7136667805,
				"element": "H" 
			},
			{
				"x": -0.1390746127,
				"y": -0.625120107,
				"z": 2.2487048049,
				"element": "H" 
			},
			{
				"x": -0.7771907358,
				"y": 1.3329207173,
				"z": 3.1380633954,
				"element": "H" 
			},
			{
				"x": -1.3388588386,
				"y": 3.7199229724,
				"z": 2.8819958022,
				"element": "H" 
			},
			{
				"x": -1.2987047177,
				"y": 4.7931673991,
				"z": 0.6254029925,
				"element": "H" 
			},
			{
				"x": -0.1166112268,
				"y": 1.0408757992,
				"z": -1.1110529512,
				"element": "H" 
			},
			{
				"x": 4.2447284344,
				"y": -3.2745574111,
				"z": -1.2433506823,
				"element": "H" 
			}
		],
		 "valence_orbital": [ 
			{
				"type": "occ",
				"energy": -0.29213,
				"method": "rhf"
			},
			{
				"type": "occ",
				"energy": -0.27959,
				"method": "rhf"
			},
			{
				"type": "occ",
				"energy": -0.26691,
				"method": "rhf"
			},
			{
				"type": "occ",
				"energy": -0.25325,
				"method": "rhf"
			},
			{
				"type": "occ",
				"energy": -0.22807,
				"method": "rhf"
			},
			{
				"type": "unocc",
				"energy": -0.01669,
				"method": "rhf"
			},
			{
				"type": "unocc",
				"energy": -0.01536,
				"method": "rhf"
			},
			{
				"type": "unocc",
				"energy": 0.02242,
				"method": "rhf"
			},
			{
				"type": "unocc",
				"energy": 0.02958,
				"method": "rhf"
			},
			{
				"type": "unocc",
				"energy": 0.04431,
				"method": "rhf"
			}
		],
		"cosmo_sigma_profile": { 
			"-0.025": 0.0,
			"-0.024": 0.0,
			"-0.023": 0.0,
			"-0.022": 0.0,
			"-0.021": 0.0,
			"-0.02": 0.0,
			"-0.019": 0.0,
			"-0.018": 0.0,
			"-0.017": 0.0,
			"-0.016": 0.174779530264,
			"-0.015": 1.14325750609,
			"-0.014": 0.949905693014,
			"-0.013": 1.09071002866,
			"-0.012": 1.94983507721,
			"-0.011": 2.49795366372,
			"-0.01": 2.37582405455,
			"-0.009": 2.58208537408,
			"-0.008": 5.40281346374,
			"-0.007": 6.69624213646,
			"-0.006": 11.1824011185,
			"-0.005": 14.1370217197,
			"-0.004": 12.1775492444,
			"-0.003": 14.2187613358,
			"-0.002": 18.296378145,
			"-0.001": 20.1822160109,
			"0.0": 19.2453774471,
			"0.001": 20.7036711614,
			"0.002": 22.7510659789,
			"0.003": 23.3657805827,
			"0.004": 22.5674193948,
			"0.005": 15.9169592011,
			"0.006": 6.71923582938,
			"0.007": 1.89609021085,
			"0.008": 1.89015873772,
			"0.009": 1.93016261696,
			"0.01": 1.71616335439,
			"0.011": 2.71209575563,
			"0.012": 4.81655989432,
			"0.013": 1.72102191265,
			"0.014": 0.0,
			"0.015": 0.0,
			"0.016": 0.0,
			"0.017": 0.0,
			"0.018": 0.0,
			"0.019": 0.0,
			"0.02": 0.0,
			"0.021": 0.0,
			"0.022": 0.0,
			"0.023": 0.0,
			"0.024": 0.0,
			"0.025": 0.0
		}
	}
}
