{
	 "smiles": "COC(=O)C1=NC=C(I)C=C1", 
	 "Tm": 403.15, 
	 "num_atms": 17, 
	 "gaussian": { 
		 "optdone": 1, 
		 "sigma_profile": "yes", 
		 "theory": "DFT", 
		 "functional": "B3LYP", 
		 "basiset": "6-31G**", 
		 "properties": { 
			 "R2extent": 2399.7507, 
			 "electric_dipole_moment_norm": 3.4825993367, 
			 "electric_quadrupole_moment_norm": 12.130623669, 
			 "total_energy": -486.9408869, 
			 "HOMO_LUMO_gap": 0.19011, 
			 "cosmo_polarized_energy": -11.44, 
			 "cosmo_cavitation_energy": 25.45, 
			 "cosmo_dispersion_energy": -20.19, 
			 "cosmo_repulsion_energy": 1.59, 
			 "cosmo_total_nonelectrostatic_energy": 6.85, 
			 "SMD_solvation_energy": 3.98 
		},
		"coords": [
			{
				"x": -3.0740122563,
				"y": -3.4127678281,
				"z": -0.02916033,
				"element": "C" 
			},
			{
				"x": -1.8143710231,
				"y": -2.7337691226,
				"z": 0.0991113504,
				"element": "O" 
			},
			{
				"x": -1.7969098117,
				"y": -1.4663533659,
				"z": -0.3800227994,
				"element": "C" 
			},
			{
				"x": -2.7538793967,
				"y": -0.9243058154,
				"z": -0.8815221447,
				"element": "O" 
			},
			{
				"x": -0.4399212065,
				"y": -0.837420294,
				"z": -0.202145226,
				"element": "C" 
			},
			{
				"x": -0.3278860311,
				"y": 0.4214871145,
				"z": -0.6490479685,
				"element": "N" 
			},
			{
				"x": 0.8446295774,
				"y": 1.0377859248,
				"z": -0.5232230693,
				"element": "C" 
			},
			{
				"x": 1.9621579458,
				"y": 0.4212614133,
				"z": 0.0571451179,
				"element": "C" 
			},
			{
				"x": 3.7843012011,
				"y": 1.4779470003,
				"z": 0.2148640714,
				"element": "I" 
			},
			{
				"x": 1.8510608728,
				"y": -0.8870468207,
				"z": 0.5232241225,
				"element": "C" 
			},
			{
				"x": 0.6215808873,
				"y": -1.530716931,
				"z": 0.3902892493,
				"element": "C" 
			},
			{
				"x": -3.3648070218,
				"y": -3.4863094822,
				"z": -1.0800548661,
				"element": "H" 
			},
			{
				"x": -2.9195811516,
				"y": -4.4037891953,
				"z": 0.3969751876,
				"element": "H" 
			},
			{
				"x": -3.8557363334,
				"y": -2.8769429664,
				"z": 0.5150412546,
				"element": "H" 
			},
			{
				"x": 0.9047196482,
				"y": 2.0576123934,
				"z": -0.8947249604,
				"element": "H" 
			},
			{
				"x": 2.6953355709,
				"y": -1.3938675037,
				"z": 0.9773665955,
				"element": "H" 
			},
			{
				"x": 0.4847185287,
				"y": -2.5476045211,
				"z": 0.7369844153,
				"element": "H" 
			}
		],
		 "valence_orbital": [ 
			{
				"type": "occ",
				"energy": -0.29849,
				"method": "rhf"
			},
			{
				"type": "occ",
				"energy": -0.28589,
				"method": "rhf"
			},
			{
				"type": "occ",
				"energy": -0.27797,
				"method": "rhf"
			},
			{
				"type": "occ",
				"energy": -0.27165,
				"method": "rhf"
			},
			{
				"type": "occ",
				"energy": -0.25812,
				"method": "rhf"
			},
			{
				"type": "unocc",
				"energy": -0.06801,
				"method": "rhf"
			},
			{
				"type": "unocc",
				"energy": -0.05097,
				"method": "rhf"
			},
			{
				"type": "unocc",
				"energy": -0.04108,
				"method": "rhf"
			},
			{
				"type": "unocc",
				"energy": 0.0327,
				"method": "rhf"
			},
			{
				"type": "unocc",
				"energy": 0.03748,
				"method": "rhf"
			}
		],
		"cosmo_sigma_profile": { 
			"-0.025": 0.0,
			"-0.024": 0.0,
			"-0.023": 0.0,
			"-0.022": 0.0,
			"-0.021": 0.0,
			"-0.02": 0.0,
			"-0.019": 0.0,
			"-0.018": 0.0,
			"-0.017": 0.0,
			"-0.016": 0.0,
			"-0.015": 0.0,
			"-0.014": 0.0,
			"-0.013": 0.0,
			"-0.012": 0.0,
			"-0.011": 0.0,
			"-0.01": 0.0,
			"-0.009": 0.505083132679,
			"-0.008": 4.69169644879,
			"-0.007": 8.40544013167,
			"-0.006": 11.7889471925,
			"-0.005": 13.1712514903,
			"-0.004": 16.5021591917,
			"-0.003": 17.3068273738,
			"-0.002": 15.5872461797,
			"-0.001": 20.5206352035,
			"0.0": 23.4816757255,
			"0.001": 13.5483186976,
			"0.002": 9.07201168553,
			"0.003": 15.7119670569,
			"0.004": 11.2160796894,
			"0.005": 3.42190987734,
			"0.006": 2.15854958569,
			"0.007": 1.54191889712,
			"0.008": 1.88918997124,
			"0.009": 2.56874022033,
			"0.01": 2.69923894051,
			"0.011": 3.93438370538,
			"0.012": 4.06520943103,
			"0.013": 1.45361802791,
			"0.014": 1.66518108646,
			"0.015": 0.879778727926,
			"0.016": 1.4050128548,
			"0.017": 0.418194520729,
			"0.018": 0.0,
			"0.019": 0.0,
			"0.02": 0.0,
			"0.021": 0.0,
			"0.022": 0.0,
			"0.023": 0.0,
			"0.024": 0.0,
			"0.025": 0.0
		}
	}
}
