{
	 "smiles": "OC1CCCC1C1CCCC1", 
	 "Tm": 293.15, 
	 "num_atms": 29, 
	 "gaussian": { 
		 "optdone": 1, 
		 "sigma_profile": "yes", 
		 "theory": "DFT", 
		 "functional": "B3LYP", 
		 "basiset": "6-31G**", 
		 "properties": { 
			 "R2extent": 2469.8376, 
			 "electric_dipole_moment_norm": 1.35998958084, 
			 "electric_quadrupole_moment_norm": 7.20293223347, 
			 "total_energy": -467.141503366, 
			 "HOMO_LUMO_gap": 0.33211, 
			 "cosmo_polarized_energy": -5.6, 
			 "cosmo_cavitation_energy": 27.87, 
			 "cosmo_dispersion_energy": -20.51, 
			 "cosmo_repulsion_energy": 1.67, 
			 "cosmo_total_nonelectrostatic_energy": 9.03, 
			 "SMD_solvation_energy": 3.53 
		},
		"coords": [
			{
				"x": 2.1445256965,
				"y": -2.3381084256,
				"z": -1.7970014556,
				"element": "O" 
			},
			{
				"x": 1.9886829177,
				"y": -2.0334466561,
				"z": -0.4164789668,
				"element": "C" 
			},
			{
				"x": 2.3021371567,
				"y": -3.1866232685,
				"z": 0.5467571043,
				"element": "C" 
			},
			{
				"x": 1.6064471465,
				"y": -2.7522206726,
				"z": 1.8491311545,
				"element": "C" 
			},
			{
				"x": 0.3391917843,
				"y": -1.9690609879,
				"z": 1.3916015749,
				"element": "C" 
			},
			{
				"x": 0.5093108457,
				"y": -1.716492429,
				"z": -0.1339002292,
				"element": "C" 
			},
			{
				"x": 0.0383480713,
				"y": -0.3565095275,
				"z": -0.6733358318,
				"element": "C" 
			},
			{
				"x": -1.476876371,
				"y": -0.0952964664,
				"z": -0.5166697053,
				"element": "C" 
			},
			{
				"x": -1.6029714444,
				"y": 1.4274155784,
				"z": -0.6620841587,
				"element": "C" 
			},
			{
				"x": -0.4053990293,
				"y": 1.9555205676,
				"z": 0.1514570909,
				"element": "C" 
			},
			{
				"x": 0.721445579,
				"y": 0.9057640318,
				"z": -0.0564989989,
				"element": "C" 
			},
			{
				"x": 3.0858617553,
				"y": -2.4611997283,
				"z": -1.9720036207,
				"element": "H" 
			},
			{
				"x": 2.6094470994,
				"y": -1.1615141999,
				"z": -0.1464159809,
				"element": "H" 
			},
			{
				"x": 3.3751855986,
				"y": -3.3737629709,
				"z": 0.669985415,
				"element": "H" 
			},
			{
				"x": 1.8478225629,
				"y": -4.0997263106,
				"z": 0.1423751255,
				"element": "H" 
			},
			{
				"x": 2.2688896053,
				"y": -2.0923668202,
				"z": 2.4215201094,
				"element": "H" 
			},
			{
				"x": 1.3683947538,
				"y": -3.598578676,
				"z": 2.5001108776,
				"element": "H" 
			},
			{
				"x": 0.2413210554,
				"y": -1.0320041593,
				"z": 1.9497350167,
				"element": "H" 
			},
			{
				"x": -0.5734561333,
				"y": -2.5397026525,
				"z": 1.5877774194,
				"element": "H" 
			},
			{
				"x": -0.0517748304,
				"y": -2.4908894688,
				"z": -0.6762171227,
				"element": "H" 
			},
			{
				"x": 0.2605563594,
				"y": -0.3638723479,
				"z": -1.7482012905,
				"element": "H" 
			},
			{
				"x": -2.075377526,
				"y": -0.6561477465,
				"z": -1.2428490901,
				"element": "H" 
			},
			{
				"x": -1.8135605676,
				"y": -0.3966097256,
				"z": 0.4846576078,
				"element": "H" 
			},
			{
				"x": -1.4968784087,
				"y": 1.7084785785,
				"z": -1.7180475643,
				"element": "H" 
			},
			{
				"x": -2.563811693,
				"y": 1.8219172301,
				"z": -0.3150774203,
				"element": "H" 
			},
			{
				"x": -0.6807022642,
				"y": 2.003232458,
				"z": 1.2120669709,
				"element": "H" 
			},
			{
				"x": -0.1029313498,
				"y": 2.9657169838,
				"z": -0.1422951097,
				"element": "H" 
			},
			{
				"x": 1.4984801407,
				"y": 1.2852183259,
				"z": -0.7278127464,
				"element": "H" 
			},
			{
				"x": 1.2195914896,
				"y": 0.6788694861,
				"z": 0.8926138249,
				"element": "H" 
			}
		],
		 "valence_orbital": [ 
			{
				"type": "occ",
				"energy": -0.31263,
				"method": "rhf"
			},
			{
				"type": "occ",
				"energy": -0.30226,
				"method": "rhf"
			},
			{
				"type": "occ",
				"energy": -0.29245,
				"method": "rhf"
			},
			{
				"type": "occ",
				"energy": -0.28666,
				"method": "rhf"
			},
			{
				"type": "occ",
				"energy": -0.2571,
				"method": "rhf"
			},
			{
				"type": "unocc",
				"energy": 0.07501,
				"method": "rhf"
			},
			{
				"type": "unocc",
				"energy": 0.08043,
				"method": "rhf"
			},
			{
				"type": "unocc",
				"energy": 0.09846,
				"method": "rhf"
			},
			{
				"type": "unocc",
				"energy": 0.10234,
				"method": "rhf"
			},
			{
				"type": "unocc",
				"energy": 0.11091,
				"method": "rhf"
			}
		],
		"cosmo_sigma_profile": { 
			"-0.025": 0.0,
			"-0.024": 0.0,
			"-0.023": 0.0,
			"-0.022": 0.0,
			"-0.021": 0.0,
			"-0.02": 0.0,
			"-0.019": 0.0,
			"-0.018": 0.0,
			"-0.017": 0.0,
			"-0.016": 0.0655169555178,
			"-0.015": 0.786773517154,
			"-0.014": 0.905042399772,
			"-0.013": 1.26404632418,
			"-0.012": 0.296312492848,
			"-0.011": 1.06191598339,
			"-0.01": 0.741054484154,
			"-0.009": 0.986652377528,
			"-0.008": 0.708409747583,
			"-0.007": 0.740978756452,
			"-0.006": 0.990385647919,
			"-0.005": 1.25419045033,
			"-0.004": 1.19672541566,
			"-0.003": 6.72755071481,
			"-0.002": 33.7724928259,
			"-0.001": 44.4929278074,
			"0.0": 45.4728278568,
			"0.001": 31.7351947585,
			"0.002": 20.4802440832,
			"0.003": 2.52035927456,
			"0.004": 1.42217351141,
			"0.005": 1.19786004752,
			"0.006": 1.98810044263,
			"0.007": 1.60138399919,
			"0.008": 1.26502210828,
			"0.009": 1.71628511748,
			"0.01": 1.37619056553,
			"0.011": 1.81639451205,
			"0.012": 1.05331527471,
			"0.013": 1.3102896451,
			"0.014": 1.67313200771,
			"0.015": 0.584845737876,
			"0.016": 0.0,
			"0.017": 0.0,
			"0.018": 0.0,
			"0.019": 0.0,
			"0.02": 0.0,
			"0.021": 0.0,
			"0.022": 0.0,
			"0.023": 0.0,
			"0.024": 0.0,
			"0.025": 0.0
		}
	}
}
