{
	 "smiles": "FC1=CC2=C(C=C1)C(=O)CC2", 
	 "Tm": 312.15, 
	 "num_atms": 18, 
	 "gaussian": { 
		 "optdone": 1, 
		 "sigma_profile": "yes", 
		 "theory": "DFT", 
		 "functional": "B3LYP", 
		 "basiset": "6-31G**", 
		 "properties": { 
			 "R2extent": 1931.0903, 
			 "electric_dipole_moment_norm": 2.56104060296, 
			 "electric_quadrupole_moment_norm": 14.151051586, 
			 "total_energy": -522.243355213, 
			 "HOMO_LUMO_gap": 0.18917, 
			 "cosmo_polarized_energy": -8.26, 
			 "cosmo_cavitation_energy": 22.35, 
			 "cosmo_dispersion_energy": -16.57, 
			 "cosmo_repulsion_energy": 1.31, 
			 "cosmo_total_nonelectrostatic_energy": 7.09, 
			 "SMD_solvation_energy": 4.54 
		},
		"coords": [
			{
				"x": -0.5873765555,
				"y": -2.139589124,
				"z": -2.8608471531,
				"element": "F" 
			},
			{
				"x": -0.2029807621,
				"y": -1.0821931904,
				"z": -2.1208320432,
				"element": "C" 
			},
			{
				"x": -0.308690662,
				"y": -1.1690543118,
				"z": -0.7357330457,
				"element": "C" 
			},
			{
				"x": 0.0956158393,
				"y": -0.0613604266,
				"z": 0.0079878694,
				"element": "C" 
			},
			{
				"x": 0.5841888028,
				"y": 1.0786119671,
				"z": -0.6404079978,
				"element": "C" 
			},
			{
				"x": 0.6826701549,
				"y": 1.1462139307,
				"z": -2.0342549266,
				"element": "C" 
			},
			{
				"x": 0.2828753471,
				"y": 0.0486596228,
				"z": -2.7873113254,
				"element": "C" 
			},
			{
				"x": 0.9482468934,
				"y": 2.1174601487,
				"z": 0.3490361624,
				"element": "C" 
			},
			{
				"x": 1.4018394982,
				"y": 3.2222607626,
				"z": 0.1163227614,
				"element": "O" 
			},
			{
				"x": 0.6468746423,
				"y": 1.5415271501,
				"z": 1.7441906703,
				"element": "C" 
			},
			{
				"x": 0.0890581383,
				"y": 0.1156175954,
				"z": 1.5150568786,
				"element": "C" 
			},
			{
				"x": -0.6943259433,
				"y": -2.0763219073,
				"z": -0.2819473064,
				"element": "H" 
			},
			{
				"x": 1.0663155687,
				"y": 2.0464053209,
				"z": -2.5048277259,
				"element": "H" 
			},
			{
				"x": 0.3348695756,
				"y": 0.0398778208,
				"z": -3.8704334357,
				"element": "H" 
			},
			{
				"x": -0.0623654331,
				"y": 2.199767819,
				"z": 2.2560074472,
				"element": "H" 
			},
			{
				"x": 1.5655854494,
				"y": 1.5495326718,
				"z": 2.3393085095,
				"element": "H" 
			},
			{
				"x": 0.7042008966,
				"y": -0.6504280192,
				"z": 2.0007063013,
				"element": "H" 
			},
			{
				"x": -0.9238014506,
				"y": -0.0001878305,
				"z": 1.9172783596,
				"element": "H" 
			}
		],
		 "valence_orbital": [ 
			{
				"type": "occ",
				"energy": -0.3501,
				"method": "rhf"
			},
			{
				"type": "occ",
				"energy": -0.337,
				"method": "rhf"
			},
			{
				"type": "occ",
				"energy": -0.26799,
				"method": "rhf"
			},
			{
				"type": "occ",
				"energy": -0.25444,
				"method": "rhf"
			},
			{
				"type": "occ",
				"energy": -0.24304,
				"method": "rhf"
			},
			{
				"type": "unocc",
				"energy": -0.05387,
				"method": "rhf"
			},
			{
				"type": "unocc",
				"energy": -0.02202,
				"method": "rhf"
			},
			{
				"type": "unocc",
				"energy": 0.04607,
				"method": "rhf"
			},
			{
				"type": "unocc",
				"energy": 0.08947,
				"method": "rhf"
			},
			{
				"type": "unocc",
				"energy": 0.09675,
				"method": "rhf"
			}
		],
		"cosmo_sigma_profile": { 
			"-0.025": 0.0,
			"-0.024": 0.0,
			"-0.023": 0.0,
			"-0.022": 0.0,
			"-0.021": 0.0,
			"-0.02": 0.0,
			"-0.019": 0.0,
			"-0.018": 0.0,
			"-0.017": 0.0,
			"-0.016": 0.0,
			"-0.015": 0.0,
			"-0.014": 0.0,
			"-0.013": 0.0,
			"-0.012": 0.0,
			"-0.011": 0.0,
			"-0.01": 0.0,
			"-0.009": 0.0,
			"-0.008": 1.68419547933,
			"-0.007": 4.09643189844,
			"-0.006": 7.74511206075,
			"-0.005": 17.5994913529,
			"-0.004": 18.5715523308,
			"-0.003": 15.3470662337,
			"-0.002": 12.7423826951,
			"-0.001": 12.5564762364,
			"0.0": 14.754848457,
			"0.001": 14.0316858876,
			"0.002": 16.4436748602,
			"0.003": 11.321035903,
			"0.004": 11.0719098313,
			"0.005": 1.40363720333,
			"0.006": 1.89121761962,
			"0.007": 1.68164398649,
			"0.008": 1.32499909237,
			"0.009": 1.35882516278,
			"0.01": 1.62662314007,
			"0.011": 2.92117703151,
			"0.012": 4.6660498169,
			"0.013": 3.38602877724,
			"0.014": 0.589174167174,
			"0.015": 0.0,
			"0.016": 0.0,
			"0.017": 0.0,
			"0.018": 0.0,
			"0.019": 0.0,
			"0.02": 0.0,
			"0.021": 0.0,
			"0.022": 0.0,
			"0.023": 0.0,
			"0.024": 0.0,
			"0.025": 0.0
		}
	}
}
