{
	 "smiles": "SC1=NN=C(CCC2=CC=CC=C2)O1", 
	 "Tm": 366.15, 
	 "num_atms": 24, 
	 "gaussian": { 
		 "optdone": 1, 
		 "sigma_profile": "yes", 
		 "theory": "DFT", 
		 "functional": "B3LYP", 
		 "basiset": "6-31G**", 
		 "properties": { 
			 "R2extent": 5117.8873, 
			 "electric_dipole_moment_norm": 2.04593634798, 
			 "electric_quadrupole_moment_norm": 7.39294188128, 
			 "total_energy": -969.971741874, 
			 "HOMO_LUMO_gap": 0.22946, 
			 "cosmo_polarized_energy": -11.44, 
			 "cosmo_cavitation_energy": 30.32, 
			 "cosmo_dispersion_energy": -22.36, 
			 "cosmo_repulsion_energy": 1.74, 
			 "cosmo_total_nonelectrostatic_energy": 9.69, 
			 "SMD_solvation_energy": 3.21 
		},
		"coords": [
			{
				"x": 2.6337085471,
				"y": 4.8545213948,
				"z": -1.9713814492,
				"element": "S" 
			},
			{
				"x": 1.7880438022,
				"y": 3.317946626,
				"z": -2.0466993885,
				"element": "C" 
			},
			{
				"x": 0.5205367763,
				"y": 3.0762112355,
				"z": -2.1531566526,
				"element": "N" 
			},
			{
				"x": 0.4088297487,
				"y": 1.6773199295,
				"z": -2.1651749868,
				"element": "N" 
			},
			{
				"x": 1.6054548033,
				"y": 1.1990931273,
				"z": -2.0643417873,
				"element": "C" 
			},
			{
				"x": 2.0731417577,
				"y": -0.2173811259,
				"z": -2.0733562145,
				"element": "C" 
			},
			{
				"x": 0.9690164553,
				"y": -1.2313078964,
				"z": -1.6972084938,
				"element": "C" 
			},
			{
				"x": 0.6244704812,
				"y": -1.2422938814,
				"z": -0.220938933,
				"element": "C" 
			},
			{
				"x": -0.4226073015,
				"y": -0.4613188018,
				"z": 0.2874538489,
				"element": "C" 
			},
			{
				"x": -0.7171924489,
				"y": -0.4688852749,
				"z": 1.6520781321,
				"element": "C" 
			},
			{
				"x": 0.0294127888,
				"y": -1.2568590566,
				"z": 2.529731869,
				"element": "C" 
			},
			{
				"x": 1.0736729913,
				"y": -2.0402015944,
				"z": 2.0343588068,
				"element": "C" 
			},
			{
				"x": 1.3654116023,
				"y": -2.0318145312,
				"z": 0.6699724117,
				"element": "C" 
			},
			{
				"x": 2.5510905968,
				"y": 2.1944297005,
				"z": -1.9835232441,
				"element": "O" 
			},
			{
				"x": 1.4938389971,
				"y": 5.5657551622,
				"z": -2.0645147203,
				"element": "H" 
			},
			{
				"x": 2.455479186,
				"y": -0.4436199817,
				"z": -3.0780873899,
				"element": "H" 
			},
			{
				"x": 2.9247764343,
				"y": -0.3075050602,
				"z": -1.3901565988,
				"element": "H" 
			},
			{
				"x": 0.0773845752,
				"y": -1.0178784963,
				"z": -2.2939436393,
				"element": "H" 
			},
			{
				"x": 1.3241968238,
				"y": -2.2240981029,
				"z": -1.9940176088,
				"element": "H" 
			},
			{
				"x": -0.9970007,
				"y": 0.1611149398,
				"z": -0.3918170296,
				"element": "H" 
			},
			{
				"x": -1.5333438393,
				"y": 0.1413923856,
				"z": 2.0287830594,
				"element": "H" 
			},
			{
				"x": -0.2027439628,
				"y": -1.2640358099,
				"z": 3.590938412,
				"element": "H" 
			},
			{
				"x": 1.6564775673,
				"y": -2.66222482,
				"z": 2.7081482881,
				"element": "H" 
			},
			{
				"x": 2.1740443179,
				"y": -2.6527600677,
				"z": 0.2895533085,
				"element": "H" 
			}
		],
		 "valence_orbital": [ 
			{
				"type": "occ",
				"energy": -0.32032,
				"method": "rhf"
			},
			{
				"type": "occ",
				"energy": -0.28382,
				"method": "rhf"
			},
			{
				"type": "occ",
				"energy": -0.24969,
				"method": "rhf"
			},
			{
				"type": "occ",
				"energy": -0.24411,
				"method": "rhf"
			},
			{
				"type": "occ",
				"energy": -0.24056,
				"method": "rhf"
			},
			{
				"type": "unocc",
				"energy": -0.0111,
				"method": "rhf"
			},
			{
				"type": "unocc",
				"energy": -0.0031,
				"method": "rhf"
			},
			{
				"type": "unocc",
				"energy": 0.00029,
				"method": "rhf"
			},
			{
				"type": "unocc",
				"energy": 0.00326,
				"method": "rhf"
			},
			{
				"type": "unocc",
				"energy": 0.02805,
				"method": "rhf"
			}
		],
		"cosmo_sigma_profile": { 
			"-0.025": 0.0,
			"-0.024": 0.0,
			"-0.023": 0.0,
			"-0.022": 0.0,
			"-0.021": 0.0,
			"-0.02": 0.0,
			"-0.019": 0.0,
			"-0.018": 0.0,
			"-0.017": 0.0,
			"-0.016": 0.0,
			"-0.015": 0.0,
			"-0.014": 0.00561975431527,
			"-0.013": 1.09427680099,
			"-0.012": 1.92809009893,
			"-0.011": 1.50637998283,
			"-0.01": 0.991206362035,
			"-0.009": 1.48629009548,
			"-0.008": 1.00405407115,
			"-0.007": 3.79078823774,
			"-0.006": 7.73676098732,
			"-0.005": 19.1083292167,
			"-0.004": 23.5073947653,
			"-0.003": 25.3171367033,
			"-0.002": 20.0398704944,
			"-0.001": 19.0066712701,
			"0.0": 16.8227952116,
			"0.001": 14.8921869569,
			"0.002": 13.6514708862,
			"0.003": 13.6371558828,
			"0.004": 14.5096459265,
			"0.005": 13.3875632961,
			"0.006": 11.8180600034,
			"0.007": 4.07877695766,
			"0.008": 1.38473933272,
			"0.009": 2.29350832437,
			"0.01": 2.08793256181,
			"0.011": 3.50975105109,
			"0.012": 2.24825901317,
			"0.013": 2.01437078092,
			"0.014": 1.33298870044,
			"0.015": 0.625366492909,
			"0.016": 0.0,
			"0.017": 0.0,
			"0.018": 0.0,
			"0.019": 0.0,
			"0.02": 0.0,
			"0.021": 0.0,
			"0.022": 0.0,
			"0.023": 0.0,
			"0.024": 0.0,
			"0.025": 0.0
		}
	}
}
