{
	 "smiles": "CCOC(=O)C1=C(N)C2=CC=CN=C2S1", 
	 "Tm": 457.15, 
	 "num_atms": 25, 
	 "gaussian": { 
		 "optdone": 1, 
		 "sigma_profile": "yes", 
		 "theory": "DFT", 
		 "functional": "B3LYP", 
		 "basiset": "6-31G**", 
		 "properties": { 
			 "R2extent": 4406.51, 
			 "electric_dipole_moment_norm": 5.90427126833, 
			 "electric_quadrupole_moment_norm": 13.3872414787, 
			 "total_energy": -1045.24896433, 
			 "HOMO_LUMO_gap": 0.14615, 
			 "cosmo_polarized_energy": -16.27, 
			 "cosmo_cavitation_energy": 30.63, 
			 "cosmo_dispersion_energy": -23.1, 
			 "cosmo_repulsion_energy": 1.76, 
			 "cosmo_total_nonelectrostatic_energy": 9.28, 
			 "SMD_solvation_energy": 4.07 
		},
		"coords": [
			{
				"x": -2.3004557187,
				"y": 0.517163027,
				"z": -3.5678477311,
				"element": "C" 
			},
			{
				"x": -1.0568917747,
				"y": 1.2197334794,
				"z": -3.0450857158,
				"element": "C" 
			},
			{
				"x": -0.5755797679,
				"y": 0.6045439297,
				"z": -1.8239597521,
				"element": "O" 
			},
			{
				"x": -1.1635491216,
				"y": 1.0320527233,
				"z": -0.6624828857,
				"element": "C" 
			},
			{
				"x": -2.0296447208,
				"y": 1.8884940462,
				"z": -0.6344739174,
				"element": "O" 
			},
			{
				"x": -0.629441979,
				"y": 0.3601902218,
				"z": 0.5137232295,
				"element": "C" 
			},
			{
				"x": 0.3527180089,
				"y": -0.6133055567,
				"z": 0.6098402303,
				"element": "C" 
			},
			{
				"x": 1.002215184,
				"y": -1.2253384483,
				"z": -0.4359704176,
				"element": "N" 
			},
			{
				"x": 0.5970192981,
				"y": -0.9838648008,
				"z": 1.9867669927,
				"element": "C" 
			},
			{
				"x": 1.4793032388,
				"y": -1.929967865,
				"z": 2.527520977,
				"element": "C" 
			},
			{
				"x": 1.512323629,
				"y": -2.0822716109,
				"z": 3.9071614886,
				"element": "C" 
			},
			{
				"x": 0.6618444452,
				"y": -1.2953852758,
				"z": 4.7038496106,
				"element": "C" 
			},
			{
				"x": -0.1985809283,
				"y": -0.3974072814,
				"z": 4.2199811144,
				"element": "N" 
			},
			{
				"x": -0.2173270146,
				"y": -0.2597647585,
				"z": 2.8934004587,
				"element": "C" 
			},
			{
				"x": -1.2948332897,
				"y": 0.8546074854,
				"z": 2.0791043166,
				"element": "S" 
			},
			{
				"x": -3.1288426567,
				"y": 0.6347255124,
				"z": -2.8655275355,
				"element": "H" 
			},
			{
				"x": -2.1125690378,
				"y": -0.5498612492,
				"z": -3.720353671,
				"element": "H" 
			},
			{
				"x": -2.5976302291,
				"y": 0.9546917197,
				"z": -4.526872318,
				"element": "H" 
			},
			{
				"x": -1.2530784772,
				"y": 2.2759362925,
				"z": -2.8492700944,
				"element": "H" 
			},
			{
				"x": -0.2202255628,
				"y": 1.1289102896,
				"z": -3.7424767607,
				"element": "H" 
			},
			{
				"x": 1.9368174319,
				"y": -1.5593926991,
				"z": -0.2527215998,
				"element": "H" 
			},
			{
				"x": 0.8705661573,
				"y": -0.7845666811,
				"z": -1.33628119,
				"element": "H" 
			},
			{
				"x": 2.1131745295,
				"y": -2.5392201326,
				"z": 1.8883394228,
				"element": "H" 
			},
			{
				"x": 2.1770384699,
				"y": -2.8010420742,
				"z": 4.3744826785,
				"element": "H" 
			},
			{
				"x": 0.6774298861,
				"y": -1.4038602934,
				"z": 5.7865530694,
				"element": "H" 
			}
		],
		 "valence_orbital": [ 
			{
				"type": "occ",
				"energy": -0.29098,
				"method": "rhf"
			},
			{
				"type": "occ",
				"energy": -0.27484,
				"method": "rhf"
			},
			{
				"type": "occ",
				"energy": -0.26567,
				"method": "rhf"
			},
			{
				"type": "occ",
				"energy": -0.24788,
				"method": "rhf"
			},
			{
				"type": "occ",
				"energy": -0.20672,
				"method": "rhf"
			},
			{
				"type": "unocc",
				"energy": -0.06057,
				"method": "rhf"
			},
			{
				"type": "unocc",
				"energy": -0.02229,
				"method": "rhf"
			},
			{
				"type": "unocc",
				"energy": 0.01514,
				"method": "rhf"
			},
			{
				"type": "unocc",
				"energy": 0.0274,
				"method": "rhf"
			},
			{
				"type": "unocc",
				"energy": 0.06475,
				"method": "rhf"
			}
		],
		"cosmo_sigma_profile": { 
			"-0.025": 0.0,
			"-0.024": 0.0,
			"-0.023": 0.0,
			"-0.022": 0.0,
			"-0.021": 0.0,
			"-0.02": 0.0,
			"-0.019": 0.0,
			"-0.018": 0.0,
			"-0.017": 0.0,
			"-0.016": 0.0,
			"-0.015": 0.0443788087891,
			"-0.014": 1.14302200712,
			"-0.013": 1.62128719634,
			"-0.012": 1.97979000948,
			"-0.011": 2.15732109871,
			"-0.01": 2.71411780802,
			"-0.009": 3.09354757293,
			"-0.008": 2.48730829632,
			"-0.007": 7.65850238111,
			"-0.006": 9.30819624474,
			"-0.005": 11.974261097,
			"-0.004": 15.3525749464,
			"-0.003": 16.0822245262,
			"-0.002": 15.6513727142,
			"-0.001": 18.5624634401,
			"0.0": 26.6424020055,
			"0.001": 24.4601163978,
			"0.002": 21.4518416153,
			"0.003": 14.2154606839,
			"0.004": 11.0272908968,
			"0.005": 8.11238805647,
			"0.006": 4.65503565529,
			"0.007": 4.57423438912,
			"0.008": 4.1578905995,
			"0.009": 2.89879557781,
			"0.01": 3.40806586377,
			"0.011": 3.2831137529,
			"0.012": 4.60079436643,
			"0.013": 2.14496415768,
			"0.014": 1.02596863244,
			"0.015": 0.348079197922,
			"0.016": 0.0,
			"0.017": 0.0,
			"0.018": 0.0,
			"0.019": 0.0,
			"0.02": 0.0,
			"0.021": 0.0,
			"0.022": 0.0,
			"0.023": 0.0,
			"0.024": 0.0,
			"0.025": 0.0
		}
	}
}
