{
	 "smiles": "CCCCCC(C)CC", 
	 "Tm": 165.15, 
	 "num_atms": 29, 
	 "gaussian": { 
		 "optdone": 1, 
		 "sigma_profile": "yes", 
		 "theory": "DFT", 
		 "functional": "B3LYP", 
		 "basiset": "6-31G**", 
		 "properties": { 
			 "R2extent": 1976.1216, 
			 "electric_dipole_moment_norm": 0.0579574844175, 
			 "electric_quadrupole_moment_norm": 0.446341909303, 
			 "total_energy": -355.03735414, 
			 "HOMO_LUMO_gap": 0.36323, 
			 "cosmo_polarized_energy": -0.74, 
			 "cosmo_cavitation_energy": 28.13, 
			 "cosmo_dispersion_energy": -19.81, 
			 "cosmo_repulsion_energy": 1.63, 
			 "cosmo_total_nonelectrostatic_energy": 9.95, 
			 "SMD_solvation_energy": 4.38 
		},
		"coords": [
			{
				"x": 2.1037882278,
				"y": -1.9533511226,
				"z": 2.1555200772,
				"element": "C" 
			},
			{
				"x": 1.2927945878,
				"y": -2.3616127336,
				"z": 0.9197855102,
				"element": "C" 
			},
			{
				"x": -0.0908573478,
				"y": -1.695940038,
				"z": 0.8201132001,
				"element": "C" 
			},
			{
				"x": -0.0948756659,
				"y": -0.1578516153,
				"z": 0.7197707422,
				"element": "C" 
			},
			{
				"x": 0.6718537027,
				"y": 0.4995681869,
				"z": -0.4478004427,
				"element": "C" 
			},
			{
				"x": 0.1066095155,
				"y": 0.3785944424,
				"z": -1.8877097618,
				"element": "C" 
			},
			{
				"x": 0.3471071442,
				"y": -0.9943162207,
				"z": -2.5388743704,
				"element": "C" 
			},
			{
				"x": -1.3762920527,
				"y": 0.784343868,
				"z": -2.0124758187,
				"element": "C" 
			},
			{
				"x": -1.6901823479,
				"y": 2.2215754076,
				"z": -1.5809566019,
				"element": "C" 
			},
			{
				"x": 3.0463328328,
				"y": -2.5082823087,
				"z": 2.209269834,
				"element": "H" 
			},
			{
				"x": 2.3524914845,
				"y": -0.8869910799,
				"z": 2.1480648387,
				"element": "H" 
			},
			{
				"x": 1.5467742887,
				"y": -2.1554123146,
				"z": 3.0781406395,
				"element": "H" 
			},
			{
				"x": 1.8757953096,
				"y": -2.1491426231,
				"z": 0.0149285067,
				"element": "H" 
			},
			{
				"x": 1.1493572281,
				"y": -3.4498151659,
				"z": 0.9318242037,
				"element": "H" 
			},
			{
				"x": -0.6732297403,
				"y": -1.9734509447,
				"z": 1.7103075847,
				"element": "H" 
			},
			{
				"x": -0.6301960565,
				"y": -2.1275134813,
				"z": -0.0306862266,
				"element": "H" 
			},
			{
				"x": 0.3235096252,
				"y": 0.2484744796,
				"z": 1.6498433863,
				"element": "H" 
			},
			{
				"x": -1.1384614253,
				"y": 0.1808262965,
				"z": 0.7051641123,
				"element": "H" 
			},
			{
				"x": 1.7083813335,
				"y": 0.1374752921,
				"z": -0.4569115427,
				"element": "H" 
			},
			{
				"x": 0.7459639873,
				"y": 1.5689593347,
				"z": -0.2129972707,
				"element": "H" 
			},
			{
				"x": 0.681683304,
				"y": 1.1053292422,
				"z": -2.4827786425,
				"element": "H" 
			},
			{
				"x": -0.2687177827,
				"y": -1.779645232,
				"z": -2.0899144512,
				"element": "H" 
			},
			{
				"x": 0.1020073102,
				"y": -0.9617105531,
				"z": -3.6066309361,
				"element": "H" 
			},
			{
				"x": 1.3950851768,
				"y": -1.300669341,
				"z": -2.4495100652,
				"element": "H" 
			},
			{
				"x": -1.9990957476,
				"y": 0.0834474416,
				"z": -1.4403001613,
				"element": "H" 
			},
			{
				"x": -1.6762219915,
				"y": 0.6568145234,
				"z": -3.0611557267,
				"element": "H" 
			},
			{
				"x": -1.0792882493,
				"y": 2.9426607674,
				"z": -2.136786143,
				"element": "H" 
			},
			{
				"x": -2.7411995113,
				"y": 2.4666965642,
				"z": -1.7666483474,
				"element": "H" 
			},
			{
				"x": -1.5003171399,
				"y": 2.3819389278,
				"z": -0.5147961266,
				"element": "H" 
			}
		],
		 "valence_orbital": [ 
			{
				"type": "occ",
				"energy": -0.32249,
				"method": "rhf"
			},
			{
				"type": "occ",
				"energy": -0.3169,
				"method": "rhf"
			},
			{
				"type": "occ",
				"energy": -0.30275,
				"method": "rhf"
			},
			{
				"type": "occ",
				"energy": -0.29483,
				"method": "rhf"
			},
			{
				"type": "occ",
				"energy": -0.29288,
				"method": "rhf"
			},
			{
				"type": "unocc",
				"energy": 0.07035,
				"method": "rhf"
			},
			{
				"type": "unocc",
				"energy": 0.10312,
				"method": "rhf"
			},
			{
				"type": "unocc",
				"energy": 0.10566,
				"method": "rhf"
			},
			{
				"type": "unocc",
				"energy": 0.11179,
				"method": "rhf"
			},
			{
				"type": "unocc",
				"energy": 0.13405,
				"method": "rhf"
			}
		],
		"cosmo_sigma_profile": { 
			"-0.025": 0.0,
			"-0.024": 0.0,
			"-0.023": 0.0,
			"-0.022": 0.0,
			"-0.021": 0.0,
			"-0.02": 0.0,
			"-0.019": 0.0,
			"-0.018": 0.0,
			"-0.017": 0.0,
			"-0.016": 0.0,
			"-0.015": 0.0,
			"-0.014": 0.0,
			"-0.013": 0.0,
			"-0.012": 0.0,
			"-0.011": 0.0,
			"-0.01": 0.0,
			"-0.009": 0.0,
			"-0.008": 0.0,
			"-0.007": 0.0,
			"-0.006": 0.0,
			"-0.005": 0.0,
			"-0.004": 0.0254729146889,
			"-0.003": 3.53514924108,
			"-0.002": 26.6939554136,
			"-0.001": 51.0878741276,
			"0.0": 51.7750627612,
			"0.001": 51.0161127347,
			"0.002": 29.2514019087,
			"0.003": 1.54670854945,
			"0.004": 0.0,
			"0.005": 0.0,
			"0.006": 0.0,
			"0.007": 0.0,
			"0.008": 0.0,
			"0.009": 0.0,
			"0.01": 0.0,
			"0.011": 0.0,
			"0.012": 0.0,
			"0.013": 0.0,
			"0.014": 0.0,
			"0.015": 0.0,
			"0.016": 0.0,
			"0.017": 0.0,
			"0.018": 0.0,
			"0.019": 0.0,
			"0.02": 0.0,
			"0.021": 0.0,
			"0.022": 0.0,
			"0.023": 0.0,
			"0.024": 0.0,
			"0.025": 0.0
		}
	}
}
