{
	 "smiles": "CCCCCCCCCCCCCCCCCCOC(=O)CCC1=CC(=C(O)C(=C1)C(C)(C)C)C(C)(C)C", 
	 "Tm": 325.65, 
	 "num_atms": 100, 
	 "gaussian": { 
		 "optdone": 1, 
		 "sigma_profile": "yes", 
		 "theory": "DFT", 
		 "functional": "B3LYP", 
		 "basiset": "6-31G**", 
		 "properties": { 
			 "R2extent": 28068.4054, 
			 "electric_dipole_moment_norm": 3.24000261883, 
			 "electric_quadrupole_moment_norm": 12.3406995434, 
			 "total_energy": -1596.85976439, 
			 "HOMO_LUMO_gap": 0.2099, 
			 "cosmo_polarized_energy": -11.69, 
			 "cosmo_cavitation_energy": 93.79, 
			 "cosmo_dispersion_energy": -51.2, 
			 "cosmo_repulsion_energy": 3.93, 
			 "cosmo_total_nonelectrostatic_energy": 46.53, 
			 "SMD_solvation_energy": 13.71 
		},
		"coords": [
			{
				"x": -4.0193014143,
				"y": -4.8440961097,
				"z": 4.5677444835,
				"element": "C" 
			},
			{
				"x": -4.0277161781,
				"y": -5.7220518589,
				"z": 3.3123119123,
				"element": "C" 
			},
			{
				"x": -3.0352445086,
				"y": -5.2560256008,
				"z": 2.2383963222,
				"element": "C" 
			},
			{
				"x": -3.0412847265,
				"y": -6.146019443,
				"z": 0.9880657783,
				"element": "C" 
			},
			{
				"x": -2.1720275743,
				"y": -5.6745366686,
				"z": -0.191928457,
				"element": "C" 
			},
			{
				"x": -0.6473515053,
				"y": -5.6369250632,
				"z": 0.0547378277,
				"element": "C" 
			},
			{
				"x": -0.0968652319,
				"y": -4.2998003988,
				"z": 0.5746845523,
				"element": "C" 
			},
			{
				"x": 1.4241081516,
				"y": -4.3070513024,
				"z": 0.7781000465,
				"element": "C" 
			},
			{
				"x": 1.9767470621,
				"y": -2.9595672943,
				"z": 1.2600086751,
				"element": "C" 
			},
			{
				"x": 3.501098786,
				"y": -2.9468010976,
				"z": 1.4462118688,
				"element": "C" 
			},
			{
				"x": 4.0668849881,
				"y": -1.6129378799,
				"z": 1.9638866734,
				"element": "C" 
			},
			{
				"x": 3.9455915167,
				"y": -0.4455501017,
				"z": 0.9745246159,
				"element": "C" 
			},
			{
				"x": 4.4651052516,
				"y": 0.8888166572,
				"z": 1.5252380758,
				"element": "C" 
			},
			{
				"x": 4.2770913038,
				"y": 2.0533111247,
				"z": 0.5439155604,
				"element": "C" 
			},
			{
				"x": 4.6833355524,
				"y": 3.4162005709,
				"z": 1.1208106437,
				"element": "C" 
			},
			{
				"x": 4.5097405632,
				"y": 4.5977927369,
				"z": 0.1507533348,
				"element": "C" 
			},
			{
				"x": 3.0592366356,
				"y": 4.8171707402,
				"z": -0.3027278818,
				"element": "C" 
			},
			{
				"x": 2.8908122099,
				"y": 6.0808047563,
				"z": -1.1394963561,
				"element": "C" 
			},
			{
				"x": 1.5098731836,
				"y": 6.23644935,
				"z": -1.5461395706,
				"element": "O" 
			},
			{
				"x": 1.1451631084,
				"y": 5.6256495816,
				"z": -2.6972756577,
				"element": "C" 
			},
			{
				"x": 1.9195001513,
				"y": 5.0549030142,
				"z": -3.4372993625,
				"element": "O" 
			},
			{
				"x": -0.3484291563,
				"y": 5.7526931807,
				"z": -2.9292055754,
				"element": "C" 
			},
			{
				"x": -1.2009317653,
				"y": 5.125822849,
				"z": -1.806686985,
				"element": "C" 
			},
			{
				"x": -0.928656529,
				"y": 3.6616903457,
				"z": -1.4966076931,
				"element": "C" 
			},
			{
				"x": -0.3946850492,
				"y": 2.7783515797,
				"z": -2.4361921236,
				"element": "C" 
			},
			{
				"x": -0.152172974,
				"y": 1.4282190636,
				"z": -2.1560038202,
				"element": "C" 
			},
			{
				"x": -0.4852879177,
				"y": 0.9682891723,
				"z": -0.8609226926,
				"element": "C" 
			},
			{
				"x": -0.2263077064,
				"y": -0.3618000393,
				"z": -0.6011977905,
				"element": "O" 
			},
			{
				"x": -1.0524679565,
				"y": 1.8185898941,
				"z": 0.1207721884,
				"element": "C" 
			},
			{
				"x": -1.2469596695,
				"y": 3.1591703208,
				"z": -0.2342052356,
				"element": "C" 
			},
			{
				"x": -1.4520227633,
				"y": 1.3108239487,
				"z": 1.5302175336,
				"element": "C" 
			},
			{
				"x": -2.073597668,
				"y": 2.4304690652,
				"z": 2.3929431289,
				"element": "C" 
			},
			{
				"x": -2.5331849344,
				"y": 0.2005862215,
				"z": 1.4250409461,
				"element": "C" 
			},
			{
				"x": -0.2107856642,
				"y": 0.8075308647,
				"z": 2.3162944414,
				"element": "C" 
			},
			{
				"x": 0.4614089393,
				"y": 0.4989123118,
				"z": -3.2302424198,
				"element": "C" 
			},
			{
				"x": 0.7205204314,
				"y": 1.2485169097,
				"z": -4.5550467819,
				"element": "C" 
			},
			{
				"x": -0.5042894216,
				"y": -0.6700059989,
				"z": -3.5466727501,
				"element": "C" 
			},
			{
				"x": 1.8258127228,
				"y": -0.0530840088,
				"z": -2.7483812543,
				"element": "C" 
			},
			{
				"x": -3.0295257709,
				"y": -4.8349357806,
				"z": 5.0387563308,
				"element": "H" 
			},
			{
				"x": -4.2790095397,
				"y": -3.8065602352,
				"z": 4.3273675388,
				"element": "H" 
			},
			{
				"x": -4.7377878708,
				"y": -5.2016125598,
				"z": 5.3127384498,
				"element": "H" 
			},
			{
				"x": -3.7980953375,
				"y": -6.7599167814,
				"z": 3.5900900949,
				"element": "H" 
			},
			{
				"x": -5.0396055981,
				"y": -5.7408193998,
				"z": 2.8849265387,
				"element": "H" 
			},
			{
				"x": -2.0284686799,
				"y": -5.2296984143,
				"z": 2.6753725337,
				"element": "H" 
			},
			{
				"x": -3.2718123013,
				"y": -4.220671891,
				"z": 1.9522573374,
				"element": "H" 
			},
			{
				"x": -4.077352292,
				"y": -6.2381285871,
				"z": 0.632948152,
				"element": "H" 
			},
			{
				"x": -2.7317758008,
				"y": -7.1621945491,
				"z": 1.2724994058,
				"element": "H" 
			},
			{
				"x": -2.3726136157,
				"y": -6.3505661945,
				"z": -1.0325059122,
				"element": "H" 
			},
			{
				"x": -2.5110411731,
				"y": -4.6825071429,
				"z": -0.5229842787,
				"element": "H" 
			},
			{
				"x": -0.1313499572,
				"y": -5.8660251081,
				"z": -0.8870547524,
				"element": "H" 
			},
			{
				"x": -0.3694723952,
				"y": -6.4439574076,
				"z": 0.7481479372,
				"element": "H" 
			},
			{
				"x": -0.359651922,
				"y": -3.506586585,
				"z": -0.1404292868,
				"element": "H" 
			},
			{
				"x": -0.5845847285,
				"y": -4.0302034437,
				"z": 1.5200676687,
				"element": "H" 
			},
			{
				"x": 1.9143787015,
				"y": -4.5819522709,
				"z": -0.1666799116,
				"element": "H" 
			},
			{
				"x": 1.6931801771,
				"y": -5.0925487419,
				"z": 1.4989257207,
				"element": "H" 
			},
			{
				"x": 1.6820391462,
				"y": -2.1838966498,
				"z": 0.5414654701,
				"element": "H" 
			},
			{
				"x": 1.4986272353,
				"y": -2.6934683003,
				"z": 2.2150494256,
				"element": "H" 
			},
			{
				"x": 3.7772701744,
				"y": -3.7462023355,
				"z": 2.1472308742,
				"element": "H" 
			},
			{
				"x": 3.9848066419,
				"y": -3.2003718291,
				"z": 0.4920645741,
				"element": "H" 
			},
			{
				"x": 3.5588823061,
				"y": -1.3473938913,
				"z": 2.902710913,
				"element": "H" 
			},
			{
				"x": 5.1253763207,
				"y": -1.7505605545,
				"z": 2.2232235614,
				"element": "H" 
			},
			{
				"x": 2.8971546887,
				"y": -0.313902245,
				"z": 0.6781522568,
				"element": "H" 
			},
			{
				"x": 4.487988745,
				"y": -0.6967078146,
				"z": 0.0517251135,
				"element": "H" 
			},
			{
				"x": 5.5275893057,
				"y": 0.7941791443,
				"z": 1.7914733651,
				"element": "H" 
			},
			{
				"x": 3.9382188927,
				"y": 1.1196804942,
				"z": 2.4627797952,
				"element": "H" 
			},
			{
				"x": 3.2241696716,
				"y": 2.0815161179,
				"z": 0.2358228276,
				"element": "H" 
			},
			{
				"x": 4.8546904823,
				"y": 1.8580421171,
				"z": -0.3711250883,
				"element": "H" 
			},
			{
				"x": 4.096103876,
				"y": 3.6111102326,
				"z": 2.029863436,
				"element": "H" 
			},
			{
				"x": 5.7328103744,
				"y": 3.3736203335,
				"z": 1.4419284968,
				"element": "H" 
			},
			{
				"x": 4.880760124,
				"y": 5.5100585556,
				"z": 0.6383381996,
				"element": "H" 
			},
			{
				"x": 5.145862977,
				"y": 4.4426325652,
				"z": -0.7317083052,
				"element": "H" 
			},
			{
				"x": 2.7159571497,
				"y": 3.96742505,
				"z": -0.9008675184,
				"element": "H" 
			},
			{
				"x": 2.3976448051,
				"y": 4.8804988962,
				"z": 0.5710359835,
				"element": "H" 
			},
			{
				"x": 3.522596109,
				"y": 6.0531007751,
				"z": -2.0308363894,
				"element": "H" 
			},
			{
				"x": 3.1169441016,
				"y": 6.9807816875,
				"z": -0.5608984782,
				"element": "H" 
			},
			{
				"x": -0.5973210526,
				"y": 6.8180174249,
				"z": -2.9975928374,
				"element": "H" 
			},
			{
				"x": -0.5626775069,
				"y": 5.3012446638,
				"z": -3.900168225,
				"element": "H" 
			},
			{
				"x": -2.2559591681,
				"y": 5.255957046,
				"z": -2.0857630044,
				"element": "H" 
			},
			{
				"x": -1.0546069498,
				"y": 5.7122243847,
				"z": -0.8935813839,
				"element": "H" 
			},
			{
				"x": -0.1368551598,
				"y": 3.155414749,
				"z": -3.4153676858,
				"element": "H" 
			},
			{
				"x": -0.4514467965,
				"y": -0.5658563724,
				"z": 0.3111200879,
				"element": "H" 
			},
			{
				"x": -1.6636283514,
				"y": 3.8462656579,
				"z": 0.4928758887,
				"element": "H" 
			},
			{
				"x": -2.9787074587,
				"y": 2.842884369,
				"z": 1.9371748429,
				"element": "H" 
			},
			{
				"x": -2.3526932938,
				"y": 2.0206513837,
				"z": 3.3689604353,
				"element": "H" 
			},
			{
				"x": -1.3711249219,
				"y": 3.2507425973,
				"z": 2.5692097966,
				"element": "H" 
			},
			{
				"x": -3.4373184612,
				"y": 0.601415094,
				"z": 0.9565615359,
				"element": "H" 
			},
			{
				"x": -2.2321078516,
				"y": -0.6663561512,
				"z": 0.829807736,
				"element": "H" 
			},
			{
				"x": -2.800360362,
				"y": -0.1634335651,
				"z": 2.4232163459,
				"element": "H" 
			},
			{
				"x": 0.5176832696,
				"y": 1.6166698124,
				"z": 2.4273496,
				"element": "H" 
			},
			{
				"x": -0.5071500731,
				"y": 0.4764439053,
				"z": 3.3176394852,
				"element": "H" 
			},
			{
				"x": 0.320202541,
				"y": -0.0275499463,
				"z": 1.8485824652,
				"element": "H" 
			},
			{
				"x": -0.2048309929,
				"y": 1.6315976212,
				"z": -4.9986997378,
				"element": "H" 
			},
			{
				"x": 1.4146632801,
				"y": 2.0857818184,
				"z": -4.431054941,
				"element": "H" 
			},
			{
				"x": 1.1639127299,
				"y": 0.5539917768,
				"z": -5.2759756427,
				"element": "H" 
			},
			{
				"x": -0.7034333599,
				"y": -1.2832649722,
				"z": -2.667550978,
				"element": "H" 
			},
			{
				"x": -1.4594933523,
				"y": -0.2885272535,
				"z": -3.9241706764,
				"element": "H" 
			},
			{
				"x": -0.0705784868,
				"y": -1.3116541016,
				"z": -4.3225456805,
				"element": "H" 
			},
			{
				"x": 1.7272750306,
				"y": -0.6415159125,
				"z": -1.8361447694,
				"element": "H" 
			},
			{
				"x": 2.5264377769,
				"y": 0.7669808265,
				"z": -2.5572914117,
				"element": "H" 
			},
			{
				"x": 2.2633537044,
				"y": -0.692993506,
				"z": -3.5235895263,
				"element": "H" 
			}
		],
		 "valence_orbital": [ 
			{
				"type": "occ",
				"energy": -0.29043,
				"method": "rhf"
			},
			{
				"type": "occ",
				"energy": -0.28599,
				"method": "rhf"
			},
			{
				"type": "occ",
				"energy": -0.26284,
				"method": "rhf"
			},
			{
				"type": "occ",
				"energy": -0.23335,
				"method": "rhf"
			},
			{
				"type": "occ",
				"energy": -0.20612,
				"method": "rhf"
			},
			{
				"type": "unocc",
				"energy": 0.00378,
				"method": "rhf"
			},
			{
				"type": "unocc",
				"energy": 0.01349,
				"method": "rhf"
			},
			{
				"type": "unocc",
				"energy": 0.02142,
				"method": "rhf"
			},
			{
				"type": "unocc",
				"energy": 0.04695,
				"method": "rhf"
			},
			{
				"type": "unocc",
				"energy": 0.08063,
				"method": "rhf"
			}
		],
		"cosmo_sigma_profile": { 
			"-0.025": 0.0,
			"-0.024": 0.0,
			"-0.023": 0.0,
			"-0.022": 0.0,
			"-0.021": 0.0,
			"-0.02": 0.0,
			"-0.019": 0.0,
			"-0.018": 0.0,
			"-0.017": 0.0,
			"-0.016": 0.0,
			"-0.015": 0.0,
			"-0.014": 0.0,
			"-0.013": 0.0,
			"-0.012": 0.0,
			"-0.011": 0.353485694564,
			"-0.01": 0.488212866481,
			"-0.009": 0.451102556182,
			"-0.008": 0.805677740109,
			"-0.007": 0.723086368594,
			"-0.006": 3.64528295247,
			"-0.005": 9.15918542108,
			"-0.004": 20.0382100724,
			"-0.003": 47.3222092355,
			"-0.002": 91.3421568566,
			"-0.001": 137.925953284,
			"0.0": 152.372310135,
			"0.001": 117.685437642,
			"0.002": 65.4335572845,
			"0.003": 20.827479757,
			"0.004": 15.8690069018,
			"0.005": 11.3589763243,
			"0.006": 8.74008731983,
			"0.007": 3.74372533091,
			"0.008": 2.27682592353,
			"0.009": 2.27636000255,
			"0.01": 1.54984478476,
			"0.011": 2.08737580554,
			"0.012": 3.24082600001,
			"0.013": 0.557697553599,
			"0.014": 0.0,
			"0.015": 0.0,
			"0.016": 0.0,
			"0.017": 0.0,
			"0.018": 0.0,
			"0.019": 0.0,
			"0.02": 0.0,
			"0.021": 0.0,
			"0.022": 0.0,
			"0.023": 0.0,
			"0.024": 0.0,
			"0.025": 0.0
		}
	}
}
