{
	 "smiles": "ClC1=NN=C(C=C1)C#N", 
	 "Tm": 357.15, 
	 "num_atms": 11, 
	 "gaussian": { 
		 "optdone": 1, 
		 "sigma_profile": "yes", 
		 "theory": "DFT", 
		 "functional": "B3LYP", 
		 "basiset": "6-31G**", 
		 "properties": { 
			 "R2extent": 2106.9314, 
			 "electric_dipole_moment_norm": 5.06128775017, 
			 "electric_quadrupole_moment_norm": 14.20002805, 
			 "total_energy": -816.107600364, 
			 "HOMO_LUMO_gap": 0.1809, 
			 "cosmo_polarized_energy": -13.4, 
			 "cosmo_cavitation_energy": 19.34, 
			 "cosmo_dispersion_energy": -14.02, 
			 "cosmo_repulsion_energy": 1.16, 
			 "cosmo_total_nonelectrostatic_energy": 6.48, 
			 "SMD_solvation_energy": 2.89 
		},
		"coords": [
			{
				"x": -3.5470985758,
				"y": -0.6003275351,
				"z": -0.9049648237,
				"element": "Cl" 
			},
			{
				"x": -2.1718957923,
				"y": 0.335319308,
				"z": -0.3894529669,
				"element": "C" 
			},
			{
				"x": -1.1609393637,
				"y": -0.3533918342,
				"z": 0.1315425788,
				"element": "N" 
			},
			{
				"x": -0.0772241047,
				"y": 0.2909770984,
				"z": 0.5473608071,
				"element": "N" 
			},
			{
				"x": -0.0239382569,
				"y": 1.6286713224,
				"z": 0.4330136652,
				"element": "C" 
			},
			{
				"x": -1.0647405575,
				"y": 2.402482685,
				"z": -0.1100560956,
				"element": "C" 
			},
			{
				"x": -2.1893506948,
				"y": 1.7277174204,
				"z": -0.5409184526,
				"element": "C" 
			},
			{
				"x": 1.1813000174,
				"y": 2.258140836,
				"z": 0.9044859638,
				"element": "C" 
			},
			{
				"x": 2.1366614486,
				"y": 2.8066834878,
				"z": 1.2731057698,
				"element": "N" 
			},
			{
				"x": -0.9761840194,
				"y": 3.4810403825,
				"z": -0.1819311403,
				"element": "H" 
			},
			{
				"x": -3.043790101,
				"y": 2.2345868288,
				"z": -0.9734853055,
				"element": "H" 
			}
		],
		 "valence_orbital": [ 
			{
				"type": "occ",
				"energy": -0.35964,
				"method": "rhf"
			},
			{
				"type": "occ",
				"energy": -0.34515,
				"method": "rhf"
			},
			{
				"type": "occ",
				"energy": -0.34348,
				"method": "rhf"
			},
			{
				"type": "occ",
				"energy": -0.30013,
				"method": "rhf"
			},
			{
				"type": "occ",
				"energy": -0.27603,
				"method": "rhf"
			},
			{
				"type": "unocc",
				"energy": -0.09513,
				"method": "rhf"
			},
			{
				"type": "unocc",
				"energy": -0.08746,
				"method": "rhf"
			},
			{
				"type": "unocc",
				"energy": -0.00092,
				"method": "rhf"
			},
			{
				"type": "unocc",
				"energy": 0.01386,
				"method": "rhf"
			},
			{
				"type": "unocc",
				"energy": 0.03625,
				"method": "rhf"
			}
		],
		"cosmo_sigma_profile": { 
			"-0.025": 0.0,
			"-0.024": 0.0,
			"-0.023": 0.0,
			"-0.022": 0.0,
			"-0.021": 0.0,
			"-0.02": 0.0,
			"-0.019": 0.0,
			"-0.018": 0.0,
			"-0.017": 0.0,
			"-0.016": 0.0,
			"-0.015": 0.0,
			"-0.014": 0.0,
			"-0.013": 0.0,
			"-0.012": 0.477802937255,
			"-0.011": 4.36149890767,
			"-0.01": 5.50500894783,
			"-0.009": 4.20397233562,
			"-0.008": 3.77605282349,
			"-0.007": 5.01169666594,
			"-0.006": 6.96280504099,
			"-0.005": 11.1419014451,
			"-0.004": 13.6359081434,
			"-0.003": 9.87084182199,
			"-0.002": 6.2175633427,
			"-0.001": 7.3266598806,
			"0.0": 5.49471918077,
			"0.001": 9.48695630662,
			"0.002": 12.5001557287,
			"0.003": 9.70978970308,
			"0.004": 6.85477741435,
			"0.005": 3.91584435226,
			"0.006": 5.97329925296,
			"0.007": 5.34532390928,
			"0.008": 4.77494743506,
			"0.009": 5.25313052201,
			"0.01": 5.41388577939,
			"0.011": 3.8230162638,
			"0.012": 3.07115562222,
			"0.013": 0.587777384908,
			"0.014": 0.0,
			"0.015": 0.0,
			"0.016": 0.0,
			"0.017": 0.0,
			"0.018": 0.0,
			"0.019": 0.0,
			"0.02": 0.0,
			"0.021": 0.0,
			"0.022": 0.0,
			"0.023": 0.0,
			"0.024": 0.0,
			"0.025": 0.0
		}
	}
}
