{
	 "smiles": "CC(C)(C)OC(=O)NC1CC1(F)F", 
	 "Tm": 347.15, 
	 "num_atms": 26, 
	 "gaussian": { 
		 "optdone": 1, 
		 "sigma_profile": "yes", 
		 "theory": "DFT", 
		 "functional": "B3LYP", 
		 "basiset": "6-31G**", 
		 "properties": { 
			 "R2extent": 3858.3817, 
			 "electric_dipole_moment_norm": 2.65884221796, 
			 "electric_quadrupole_moment_norm": 6.04997305283, 
			 "total_energy": -717.554248003, 
			 "HOMO_LUMO_gap": 0.2994, 
			 "cosmo_polarized_energy": -9.13, 
			 "cosmo_cavitation_energy": 29.94, 
			 "cosmo_dispersion_energy": -20.25, 
			 "cosmo_repulsion_energy": 1.59, 
			 "cosmo_total_nonelectrostatic_energy": 11.28, 
			 "SMD_solvation_energy": 6.5 
		},
		"coords": [
			{
				"x": 0.1953909529,
				"y": 2.0336257016,
				"z": -0.2139999037,
				"element": "C" 
			},
			{
				"x": 0.6059495928,
				"y": 1.1742524465,
				"z": 0.9843056373,
				"element": "C" 
			},
			{
				"x": 2.0962660032,
				"y": 1.348177472,
				"z": 1.2948694805,
				"element": "C" 
			},
			{
				"x": -0.2796115942,
				"y": 1.4727160916,
				"z": 2.1985353714,
				"element": "C" 
			},
			{
				"x": 0.3499411494,
				"y": -0.1929454683,
				"z": 0.4991138741,
				"element": "O" 
			},
			{
				"x": 0.5917883217,
				"y": -1.2628824642,
				"z": 1.288295404,
				"element": "C" 
			},
			{
				"x": 1.0279923319,
				"y": -1.2508460645,
				"z": 2.4266193255,
				"element": "O" 
			},
			{
				"x": 0.2608503588,
				"y": -2.4223195714,
				"z": 0.6290084744,
				"element": "N" 
			},
			{
				"x": -0.2220523386,
				"y": -2.5124868976,
				"z": -0.7068698366,
				"element": "C" 
			},
			{
				"x": 0.7821797181,
				"y": -2.5781020475,
				"z": -1.8941286214,
				"element": "C" 
			},
			{
				"x": 0.0441784323,
				"y": -3.7755256037,
				"z": -1.4416598299,
				"element": "C" 
			},
			{
				"x": -0.9255804893,
				"y": -4.3071858278,
				"z": -2.2172147137,
				"element": "F" 
			},
			{
				"x": 0.7089219051,
				"y": -4.7610626418,
				"z": -0.788384077,
				"element": "F" 
			},
			{
				"x": -0.858200056,
				"y": 1.8741693502,
				"z": -0.4614221085,
				"element": "H" 
			},
			{
				"x": 0.79784286,
				"y": 1.7848076655,
				"z": -1.0925006749,
				"element": "H" 
			},
			{
				"x": 0.3402532853,
				"y": 3.0931120315,
				"z": 0.0168569356,
				"element": "H" 
			},
			{
				"x": 2.2987347012,
				"y": 2.3941209812,
				"z": 1.5471655508,
				"element": "H" 
			},
			{
				"x": 2.6997689531,
				"y": 1.0876666564,
				"z": 0.4194626388,
				"element": "H" 
			},
			{
				"x": 2.3963119595,
				"y": 0.7183886031,
				"z": 2.1325742873,
				"element": "H" 
			},
			{
				"x": -1.3321952807,
				"y": 1.2987712839,
				"z": 1.9532569969,
				"element": "H" 
			},
			{
				"x": -0.1672818012,
				"y": 2.523419449,
				"z": 2.4849838172,
				"element": "H" 
			},
			{
				"x": -0.0046586667,
				"y": 0.8443772785,
				"z": 3.0459177017,
				"element": "H" 
			},
			{
				"x": 0.4319709321,
				"y": -3.2706154245,
				"z": 1.1485631856,
				"element": "H" 
			},
			{
				"x": -1.1661279034,
				"y": -2.0156671928,
				"z": -0.9168235935,
				"element": "H" 
			},
			{
				"x": 1.8348984365,
				"y": -2.5139634524,
				"z": -1.6402543018,
				"element": "H" 
			},
			{
				"x": 0.4800682364,
				"y": -2.1134023545,
				"z": -2.8267710201,
				"element": "H" 
			}
		],
		 "valence_orbital": [ 
			{
				"type": "occ",
				"energy": -0.33398,
				"method": "rhf"
			},
			{
				"type": "occ",
				"energy": -0.30271,
				"method": "rhf"
			},
			{
				"type": "occ",
				"energy": -0.29206,
				"method": "rhf"
			},
			{
				"type": "occ",
				"energy": -0.2642,
				"method": "rhf"
			},
			{
				"type": "occ",
				"energy": -0.25415,
				"method": "rhf"
			},
			{
				"type": "unocc",
				"energy": 0.04525,
				"method": "rhf"
			},
			{
				"type": "unocc",
				"energy": 0.07317,
				"method": "rhf"
			},
			{
				"type": "unocc",
				"energy": 0.08517,
				"method": "rhf"
			},
			{
				"type": "unocc",
				"energy": 0.08784,
				"method": "rhf"
			},
			{
				"type": "unocc",
				"energy": 0.10875,
				"method": "rhf"
			}
		],
		"cosmo_sigma_profile": { 
			"-0.025": 0.0,
			"-0.024": 0.0,
			"-0.023": 0.0,
			"-0.022": 0.0,
			"-0.021": 0.0,
			"-0.02": 0.0,
			"-0.019": 0.0,
			"-0.018": 0.0,
			"-0.017": 0.0,
			"-0.016": 0.0,
			"-0.015": 0.0,
			"-0.014": 0.132579502232,
			"-0.013": 0.681878288586,
			"-0.012": 0.825459848718,
			"-0.011": 0.816253948096,
			"-0.01": 0.705693206605,
			"-0.009": 0.585944981666,
			"-0.008": 2.98593155325,
			"-0.007": 6.51287106916,
			"-0.006": 5.35995648833,
			"-0.005": 7.22586425508,
			"-0.004": 16.0554114688,
			"-0.003": 21.9547963086,
			"-0.002": 21.48866512,
			"-0.001": 24.1044586183,
			"0.0": 32.6458660049,
			"0.001": 23.5135789396,
			"0.002": 10.4642199563,
			"0.003": 15.4285180366,
			"0.004": 19.5322599438,
			"0.005": 4.27098465284,
			"0.006": 2.90610743457,
			"0.007": 3.31587523896,
			"0.008": 1.99229960443,
			"0.009": 1.07759599353,
			"0.01": 1.15411945076,
			"0.011": 1.76905652373,
			"0.012": 1.90633476833,
			"0.013": 3.60487599995,
			"0.014": 1.54068102125,
			"0.015": 0.0,
			"0.016": 0.0,
			"0.017": 0.0,
			"0.018": 0.0,
			"0.019": 0.0,
			"0.02": 0.0,
			"0.021": 0.0,
			"0.022": 0.0,
			"0.023": 0.0,
			"0.024": 0.0,
			"0.025": 0.0
		}
	}
}
