{
	 "smiles": "NC(=O)NC1=CC(Br)=CC=C1", 
	 "Tm": 438.15, 
	 "num_atms": 18, 
	 "gaussian": { 
		 "optdone": 1, 
		 "sigma_profile": "yes", 
		 "theory": "DFT", 
		 "functional": "B3LYP", 
		 "basiset": "6-31G**", 
		 "properties": { 
			 "R2extent": 4258.1358, 
			 "electric_dipole_moment_norm": 2.90085533765, 
			 "electric_quadrupole_moment_norm": 13.8315235318, 
			 "total_energy": -3027.12105829, 
			 "HOMO_LUMO_gap": 0.20652, 
			 "cosmo_polarized_energy": -14.08, 
			 "cosmo_cavitation_energy": 24.81, 
			 "cosmo_dispersion_energy": -18.88, 
			 "cosmo_repulsion_energy": 1.53, 
			 "cosmo_total_nonelectrostatic_energy": 7.46, 
			 "SMD_solvation_energy": 4.13 
		},
		"coords": [
			{
				"x": 1.2597137645,
				"y": 2.8311703641,
				"z": -0.7318038312,
				"element": "N" 
			},
			{
				"x": 1.9487418236,
				"y": 2.0241755574,
				"z": -1.6160842832,
				"element": "C" 
			},
			{
				"x": 2.9107521333,
				"y": 2.4119428803,
				"z": -2.2617874968,
				"element": "O" 
			},
			{
				"x": 1.505093582,
				"y": 0.7079082895,
				"z": -1.7368318377,
				"element": "N" 
			},
			{
				"x": 0.5083187322,
				"y": -0.0094507158,
				"z": -1.0530715832,
				"element": "C" 
			},
			{
				"x": -0.1706649732,
				"y": -1.0219862815,
				"z": -1.7530498992,
				"element": "C" 
			},
			{
				"x": -1.1346935581,
				"y": -1.7818029925,
				"z": -1.1008274904,
				"element": "C" 
			},
			{
				"x": -2.039417841,
				"y": -3.1573142149,
				"z": -2.0728595813,
				"element": "Br" 
			},
			{
				"x": -1.4668615476,
				"y": -1.5583341674,
				"z": 0.2345864584,
				"element": "C" 
			},
			{
				"x": -0.7865458683,
				"y": -0.5524533074,
				"z": 0.9206650478,
				"element": "C" 
			},
			{
				"x": 0.2015259404,
				"y": 0.2114992452,
				"z": 0.3003004249,
				"element": "C" 
			},
			{
				"x": 0.2845798177,
				"y": 2.6365452107,
				"z": -0.5523064002,
				"element": "H" 
			},
			{
				"x": 1.4984970799,
				"y": 3.8066660743,
				"z": -0.8375678429,
				"element": "H" 
			},
			{
				"x": 1.9742141439,
				"y": 0.2374196191,
				"z": -2.4981072006,
				"element": "H" 
			},
			{
				"x": 0.0520498696,
				"y": -1.2027230012,
				"z": -2.7989950137,
				"element": "H" 
			},
			{
				"x": -2.2264779903,
				"y": -2.1573662118,
				"z": 0.7219077642,
				"element": "H" 
			},
			{
				"x": -1.0151009948,
				"y": -0.3744294263,
				"z": 1.9674136193,
				"element": "H" 
			},
			{
				"x": 0.7536758864,
				"y": 0.952433078,
				"z": 0.8657191459,
				"element": "H" 
			}
		],
		 "valence_orbital": [ 
			{
				"type": "occ",
				"energy": -0.29303,
				"method": "rhf"
			},
			{
				"type": "occ",
				"energy": -0.28121,
				"method": "rhf"
			},
			{
				"type": "occ",
				"energy": -0.26397,
				"method": "rhf"
			},
			{
				"type": "occ",
				"energy": -0.25543,
				"method": "rhf"
			},
			{
				"type": "occ",
				"energy": -0.23211,
				"method": "rhf"
			},
			{
				"type": "unocc",
				"energy": -0.02559,
				"method": "rhf"
			},
			{
				"type": "unocc",
				"energy": -0.02216,
				"method": "rhf"
			},
			{
				"type": "unocc",
				"energy": 0.00016,
				"method": "rhf"
			},
			{
				"type": "unocc",
				"energy": 0.05474,
				"method": "rhf"
			},
			{
				"type": "unocc",
				"energy": 0.08399,
				"method": "rhf"
			}
		],
		"cosmo_sigma_profile": { 
			"-0.025": 0.0,
			"-0.024": 0.0,
			"-0.023": 0.0,
			"-0.022": 0.0,
			"-0.021": 0.0,
			"-0.02": 0.0,
			"-0.019": 0.0,
			"-0.018": 0.0,
			"-0.017": 0.0,
			"-0.016": 0.0,
			"-0.015": 0.21952147339,
			"-0.014": 1.40946127241,
			"-0.013": 3.80274599187,
			"-0.012": 2.28905751191,
			"-0.011": 2.8798037603,
			"-0.01": 4.0451798267,
			"-0.009": 4.01226125479,
			"-0.008": 3.66396962116,
			"-0.007": 6.05195472724,
			"-0.006": 8.85108316502,
			"-0.005": 9.55282898208,
			"-0.004": 10.1726564383,
			"-0.003": 8.99256248186,
			"-0.002": 10.2449730926,
			"-0.001": 10.5084211233,
			"0.0": 12.3008225513,
			"0.001": 13.5887778559,
			"0.002": 18.8351038131,
			"0.003": 22.3719978751,
			"0.004": 17.5236616355,
			"0.005": 8.02182964986,
			"0.006": 1.98350388008,
			"0.007": 1.56427447512,
			"0.008": 1.90134260792,
			"0.009": 1.63755492707,
			"0.01": 0.972326518271,
			"0.011": 1.64170672837,
			"0.012": 1.36044812019,
			"0.013": 3.72537029103,
			"0.014": 6.36590265226,
			"0.015": 0.867776024955,
			"0.016": 0.0,
			"0.017": 0.0,
			"0.018": 0.0,
			"0.019": 0.0,
			"0.02": 0.0,
			"0.021": 0.0,
			"0.022": 0.0,
			"0.023": 0.0,
			"0.024": 0.0,
			"0.025": 0.0
		}
	}
}
