{
	 "smiles": "O=S1(=O)NC2=C3C1=CC=CC3=CC=C2", 
	 "Tm": 449.15, 
	 "num_atms": 21, 
	 "gaussian": { 
		 "optdone": 1, 
		 "sigma_profile": "yes", 
		 "theory": "DFT", 
		 "functional": "B3LYP", 
		 "basiset": "6-31G**", 
		 "properties": { 
			 "R2extent": 2953.4871, 
			 "electric_dipole_moment_norm": 4.90973279415, 
			 "electric_quadrupole_moment_norm": 19.3014107681, 
			 "total_energy": -988.598907808, 
			 "HOMO_LUMO_gap": 0.15544, 
			 "cosmo_polarized_energy": -15.35, 
			 "cosmo_cavitation_energy": 26.19, 
			 "cosmo_dispersion_energy": -20.35, 
			 "cosmo_repulsion_energy": 1.51, 
			 "cosmo_total_nonelectrostatic_energy": 7.35, 
			 "SMD_solvation_energy": 3.04 
		},
		"coords": [
			{
				"x": -3.2415757011,
				"y": 0.2368534855,
				"z": 0.6742475318,
				"element": "O" 
			},
			{
				"x": -2.3891204032,
				"y": 0.1169518392,
				"z": -0.512600943,
				"element": "S" 
			},
			{
				"x": -2.7086065686,
				"y": 0.9012180657,
				"z": -1.7021997549,
				"element": "O" 
			},
			{
				"x": -2.2708526859,
				"y": -1.5708644707,
				"z": -0.9334636581,
				"element": "N" 
			},
			{
				"x": -0.9984117104,
				"y": -2.0893058729,
				"z": -0.6330618339,
				"element": "C" 
			},
			{
				"x": -0.0926833531,
				"y": -1.0745010025,
				"z": -0.2298686946,
				"element": "C" 
			},
			{
				"x": -0.6440960528,
				"y": 0.2094653119,
				"z": -0.120953171,
				"element": "C" 
			},
			{
				"x": 0.1175426098,
				"y": 1.2958080716,
				"z": 0.2417633429,
				"element": "C" 
			},
			{
				"x": 1.4908648929,
				"y": 1.0621145398,
				"z": 0.5110972708,
				"element": "C" 
			},
			{
				"x": 2.0511244199,
				"y": -0.2019961991,
				"z": 0.4254043515,
				"element": "C" 
			},
			{
				"x": 1.2699531623,
				"y": -1.3285035941,
				"z": 0.0499985309,
				"element": "C" 
			},
			{
				"x": 1.7094750869,
				"y": -2.6773553167,
				"z": -0.061005268,
				"element": "C" 
			},
			{
				"x": 0.8121045314,
				"y": -3.6608162136,
				"z": -0.4283411813,
				"element": "C" 
			},
			{
				"x": -0.5521681299,
				"y": -3.3894210305,
				"z": -0.7270177366,
				"element": "C" 
			},
			{
				"x": -3.0895094169,
				"y": -2.0937507503,
				"z": -0.6386043966,
				"element": "H" 
			},
			{
				"x": -0.3039235461,
				"y": 2.2916427557,
				"z": 0.3262693917,
				"element": "H" 
			},
			{
				"x": 2.1148317113,
				"y": 1.902322327,
				"z": 0.7998352534,
				"element": "H" 
			},
			{
				"x": 3.1054937245,
				"y": -0.3393029483,
				"z": 0.6490074376,
				"element": "H" 
			},
			{
				"x": 2.745711413,
				"y": -2.9264567349,
				"z": 0.1459713336,
				"element": "H" 
			},
			{
				"x": 1.1553323213,
				"y": -4.6883234808,
				"z": -0.5058596387,
				"element": "H" 
			},
			{
				"x": -1.2139863053,
				"y": -4.1930787821,
				"z": -1.0328181676,
				"element": "H" 
			}
		],
		 "valence_orbital": [ 
			{
				"type": "occ",
				"energy": -0.31252,
				"method": "rhf"
			},
			{
				"type": "occ",
				"energy": -0.3013,
				"method": "rhf"
			},
			{
				"type": "occ",
				"energy": -0.27917,
				"method": "rhf"
			},
			{
				"type": "occ",
				"energy": -0.26861,
				"method": "rhf"
			},
			{
				"type": "occ",
				"energy": -0.22328,
				"method": "rhf"
			},
			{
				"type": "unocc",
				"energy": -0.06784,
				"method": "rhf"
			},
			{
				"type": "unocc",
				"energy": -0.03367,
				"method": "rhf"
			},
			{
				"type": "unocc",
				"energy": 0.00962,
				"method": "rhf"
			},
			{
				"type": "unocc",
				"energy": 0.04399,
				"method": "rhf"
			},
			{
				"type": "unocc",
				"energy": 0.04952,
				"method": "rhf"
			}
		],
		"cosmo_sigma_profile": { 
			"-0.025": 0.0,
			"-0.024": 0.0,
			"-0.023": 0.0,
			"-0.022": 0.0,
			"-0.021": 0.0,
			"-0.02": 0.0,
			"-0.019": 0.0,
			"-0.018": 0.0,
			"-0.017": 0.218423947356,
			"-0.016": 1.21590560951,
			"-0.015": 1.49482111659,
			"-0.014": 1.05694690444,
			"-0.013": 0.898615794848,
			"-0.012": 1.27442930946,
			"-0.011": 1.27015954557,
			"-0.01": 1.26476974625,
			"-0.009": 2.72519150132,
			"-0.008": 4.64859441657,
			"-0.007": 12.0499253786,
			"-0.006": 14.2395804361,
			"-0.005": 13.2549886871,
			"-0.004": 11.2240711217,
			"-0.003": 9.79627311876,
			"-0.002": 9.46750342612,
			"-0.001": 9.79938744535,
			"0.0": 11.453704113,
			"0.001": 18.9743644177,
			"0.002": 20.7870479756,
			"0.003": 13.6290068184,
			"0.004": 8.97881967759,
			"0.005": 3.34333166414,
			"0.006": 2.41503084038,
			"0.007": 3.33429699595,
			"0.008": 3.76394181278,
			"0.009": 6.1172462577,
			"0.01": 14.5901860266,
			"0.011": 7.87411721076,
			"0.012": 0.12426392062,
			"0.013": 0.0,
			"0.014": 0.0,
			"0.015": 0.0,
			"0.016": 0.0,
			"0.017": 0.0,
			"0.018": 0.0,
			"0.019": 0.0,
			"0.02": 0.0,
			"0.021": 0.0,
			"0.022": 0.0,
			"0.023": 0.0,
			"0.024": 0.0,
			"0.025": 0.0
		}
	}
}
