{
	 "smiles": "NC(=O)NC(=O)OCCCl", 
	 "Tm": 459.15, 
	 "num_atms": 17, 
	 "gaussian": { 
		 "optdone": 1, 
		 "sigma_profile": "yes", 
		 "theory": "DFT", 
		 "functional": "B3LYP", 
		 "basiset": "6-31G**", 
		 "properties": { 
			 "R2extent": 2697.4354, 
			 "electric_dipole_moment_norm": 3.65570370927, 
			 "electric_quadrupole_moment_norm": 24.4742860846, 
			 "total_energy": -952.049624845, 
			 "HOMO_LUMO_gap": 0.27409, 
			 "cosmo_polarized_energy": -21.93, 
			 "cosmo_cavitation_energy": 24.13, 
			 "cosmo_dispersion_energy": -17.34, 
			 "cosmo_repulsion_energy": 1.47, 
			 "cosmo_total_nonelectrostatic_energy": 8.26, 
			 "SMD_solvation_energy": 6.21 
		},
		"coords": [
			{
				"x": 3.3831270971,
				"y": -3.468077729,
				"z": -0.5643751316,
				"element": "N" 
			},
			{
				"x": 2.8965740978,
				"y": -2.1859405348,
				"z": -0.3683147724,
				"element": "C" 
			},
			{
				"x": 3.5245571879,
				"y": -1.1839524048,
				"z": -0.63507652,
				"element": "O" 
			},
			{
				"x": 1.5736432117,
				"y": -2.2124950622,
				"z": 0.1240671996,
				"element": "N" 
			},
			{
				"x": 0.7386160878,
				"y": -1.1635978539,
				"z": 0.494370167,
				"element": "C" 
			},
			{
				"x": -0.4336090163,
				"y": -1.3531337249,
				"z": 0.7484215442,
				"element": "O" 
			},
			{
				"x": 1.3871609526,
				"y": 0.0085061345,
				"z": 0.5679026901,
				"element": "O" 
			},
			{
				"x": 0.6032856947,
				"y": 1.1681965743,
				"z": 0.8855935345,
				"element": "C" 
			},
			{
				"x": 0.8424357203,
				"y": 2.2353554943,
				"z": -0.1635915952,
				"element": "C" 
			},
			{
				"x": 0.073123299,
				"y": 1.8236795407,
				"z": -1.7507132914,
				"element": "Cl" 
			},
			{
				"x": 4.366523547,
				"y": -3.4870094534,
				"z": -0.7929345393,
				"element": "H" 
			},
			{
				"x": 3.0692225772,
				"y": -4.2148704884,
				"z": 0.0391186224,
				"element": "H" 
			},
			{
				"x": 1.0617699218,
				"y": -3.0819623162,
				"z": 0.0642718694,
				"element": "H" 
			},
			{
				"x": -0.4499312468,
				"y": 0.8952779695,
				"z": 0.9664002347,
				"element": "H" 
			},
			{
				"x": 0.9581393539,
				"y": 1.5427151037,
				"z": 1.8533092589,
				"element": "H" 
			},
			{
				"x": 1.9087968557,
				"y": 2.3610001438,
				"z": -0.3542079076,
				"element": "H" 
			},
			{
				"x": 0.4108646585,
				"y": 3.1833086069,
				"z": 0.1634586367,
				"element": "H" 
			}
		],
		 "valence_orbital": [ 
			{
				"type": "occ",
				"energy": -0.29367,
				"method": "rhf"
			},
			{
				"type": "occ",
				"energy": -0.29181,
				"method": "rhf"
			},
			{
				"type": "occ",
				"energy": -0.28916,
				"method": "rhf"
			},
			{
				"type": "occ",
				"energy": -0.28519,
				"method": "rhf"
			},
			{
				"type": "occ",
				"energy": -0.26793,
				"method": "rhf"
			},
			{
				"type": "unocc",
				"energy": 0.00616,
				"method": "rhf"
			},
			{
				"type": "unocc",
				"energy": 0.02584,
				"method": "rhf"
			},
			{
				"type": "unocc",
				"energy": 0.05194,
				"method": "rhf"
			},
			{
				"type": "unocc",
				"energy": 0.07206,
				"method": "rhf"
			},
			{
				"type": "unocc",
				"energy": 0.09965,
				"method": "rhf"
			}
		],
		"cosmo_sigma_profile": { 
			"-0.025": 0.0,
			"-0.024": 0.0,
			"-0.023": 0.0,
			"-0.022": 0.0,
			"-0.021": 0.0,
			"-0.02": 0.0,
			"-0.019": 0.0,
			"-0.018": 0.0,
			"-0.017": 0.969134814328,
			"-0.016": 1.86233108277,
			"-0.015": 2.1694431845,
			"-0.014": 3.21208440821,
			"-0.013": 2.66573293788,
			"-0.012": 2.93507491819,
			"-0.011": 3.01054123802,
			"-0.01": 3.06774989312,
			"-0.009": 2.13030079042,
			"-0.008": 10.189801775,
			"-0.007": 11.0867715019,
			"-0.006": 9.55327745494,
			"-0.005": 8.24351693407,
			"-0.004": 6.76504996003,
			"-0.003": 7.02266485336,
			"-0.002": 8.74624064375,
			"-0.001": 8.76710997548,
			"0.0": 7.27624509211,
			"0.001": 7.15925790349,
			"0.002": 8.84550831432,
			"0.003": 8.72117533051,
			"0.004": 8.6306107269,
			"0.005": 10.7336463135,
			"0.006": 12.216790383,
			"0.007": 4.57895146533,
			"0.008": 3.00831744438,
			"0.009": 3.80289718822,
			"0.01": 3.58889986967,
			"0.011": 5.25669173235,
			"0.012": 8.10348131948,
			"0.013": 6.62634199861,
			"0.014": 1.89119502527,
			"0.015": 0.0266161507934,
			"0.016": 0.0,
			"0.017": 0.0,
			"0.018": 0.0,
			"0.019": 0.0,
			"0.02": 0.0,
			"0.021": 0.0,
			"0.022": 0.0,
			"0.023": 0.0,
			"0.024": 0.0,
			"0.025": 0.0
		}
	}
}
