{
	 "smiles": "CN(C)C1=CC=C(C=C(C#N)C2=NC(=CS2)C2=CC=C(Cl)C=C2)C=C1", 
	 "Tm": 406.15, 
	 "num_atms": 41, 
	 "gaussian": { 
		 "optdone": 1, 
		 "sigma_profile": "yes", 
		 "theory": "DFT", 
		 "functional": "B3LYP", 
		 "basiset": "6-31G**", 
		 "properties": { 
			 "R2extent": 18997.1661, 
			 "electric_dipole_moment_norm": 10.3000051049, 
			 "electric_quadrupole_moment_norm": 31.8144679009, 
			 "total_energy": -1794.36810329, 
			 "HOMO_LUMO_gap": 0.13432, 
			 "cosmo_polarized_energy": -18.85, 
			 "cosmo_cavitation_energy": 50.13, 
			 "cosmo_dispersion_energy": -34.93, 
			 "cosmo_repulsion_energy": 2.61, 
			 "cosmo_total_nonelectrostatic_energy": 17.81, 
			 "SMD_solvation_energy": 7.64 
		},
		"coords": [
			{
				"x": 0.3191567017,
				"y": -2.3912180412,
				"z": -4.2805924727,
				"element": "C" 
			},
			{
				"x": 0.5833857208,
				"y": -2.119913507,
				"z": -2.8762508562,
				"element": "N" 
			},
			{
				"x": 1.1530973451,
				"y": -3.1671726803,
				"z": -2.0425497822,
				"element": "C" 
			},
			{
				"x": 0.434315533,
				"y": -0.8447617052,
				"z": -2.3801534138,
				"element": "C" 
			},
			{
				"x": -0.0445619167,
				"y": 0.2136327179,
				"z": -3.1926161816,
				"element": "C" 
			},
			{
				"x": -0.1994688822,
				"y": 1.4881092393,
				"z": -2.6750029662,
				"element": "C" 
			},
			{
				"x": 0.0872456104,
				"y": 1.7947224656,
				"z": -1.3282224239,
				"element": "C" 
			},
			{
				"x": -0.1018032197,
				"y": 3.1606539515,
				"z": -0.8767563291,
				"element": "C" 
			},
			{
				"x": -0.1992636959,
				"y": 3.6732796282,
				"z": 0.383588596,
				"element": "C" 
			},
			{
				"x": -0.2826502685,
				"y": 5.0941966576,
				"z": 0.5422226751,
				"element": "C" 
			},
			{
				"x": -0.3563554294,
				"y": 6.248940102,
				"z": 0.6788186566,
				"element": "N" 
			},
			{
				"x": -0.2737999962,
				"y": 2.8922309896,
				"z": 1.6432078174,
				"element": "C" 
			},
			{
				"x": 0.6226175849,
				"y": 2.9029264342,
				"z": 2.5852468236,
				"element": "N" 
			},
			{
				"x": 0.2557514607,
				"y": 2.1234955872,
				"z": 3.6679708762,
				"element": "C" 
			},
			{
				"x": -0.9707751056,
				"y": 1.5145891683,
				"z": 3.5344681732,
				"element": "C" 
			},
			{
				"x": -1.6980146932,
				"y": 1.922784313,
				"z": 2.0243550645,
				"element": "S" 
			},
			{
				"x": 1.1749693771,
				"y": 2.0213939141,
				"z": 4.8173909673,
				"element": "C" 
			},
			{
				"x": 2.3433656575,
				"y": 2.8003458499,
				"z": 4.8455301958,
				"element": "C" 
			},
			{
				"x": 3.2288213077,
				"y": 2.7290600116,
				"z": 5.9181365756,
				"element": "C" 
			},
			{
				"x": 2.9487190878,
				"y": 1.8689053856,
				"z": 6.9787534274,
				"element": "C" 
			},
			{
				"x": 4.0610281561,
				"y": 1.7702892321,
				"z": 8.3362882689,
				"element": "Cl" 
			},
			{
				"x": 1.7967174173,
				"y": 1.0818199976,
				"z": 6.9771507808,
				"element": "C" 
			},
			{
				"x": 0.9203620791,
				"y": 1.1621246563,
				"z": 5.8988795342,
				"element": "C" 
			},
			{
				"x": 0.5928872449,
				"y": 0.7446522801,
				"z": -0.5311051637,
				"element": "C" 
			},
			{
				"x": 0.7667567986,
				"y": -0.5316033672,
				"z": -1.0360921326,
				"element": "C" 
			},
			{
				"x": -0.7149257642,
				"y": -2.1421125381,
				"z": -4.5490180723,
				"element": "H" 
			},
			{
				"x": 0.4658507833,
				"y": -3.4540858622,
				"z": -4.4740227267,
				"element": "H" 
			},
			{
				"x": 0.9885140422,
				"y": -1.8282740661,
				"z": -4.9462370625,
				"element": "H" 
			},
			{
				"x": 0.5621446276,
				"y": -3.31883384,
				"z": -1.1310993068,
				"element": "H" 
			},
			{
				"x": 1.1543273675,
				"y": -4.1055299686,
				"z": -2.5976989323,
				"element": "H" 
			},
			{
				"x": 2.187774743,
				"y": -2.9463659493,
				"z": -1.7447472865,
				"element": "H" 
			},
			{
				"x": -0.2873128766,
				"y": 0.0399252482,
				"z": -4.2332864831,
				"element": "H" 
			},
			{
				"x": -0.5641093131,
				"y": 2.2765359668,
				"z": -3.3288652097,
				"element": "H" 
			},
			{
				"x": -0.1698069374,
				"y": 3.8944267335,
				"z": -1.6782681117,
				"element": "H" 
			},
			{
				"x": -1.4839094512,
				"y": 0.8709159842,
				"z": 4.2339268056,
				"element": "H" 
			},
			{
				"x": 2.5475558863,
				"y": 3.4656107601,
				"z": 4.0144823445,
				"element": "H" 
			},
			{
				"x": 4.1273389139,
				"y": 3.3360356697,
				"z": 5.9326511654,
				"element": "H" 
			},
			{
				"x": 1.5922717699,
				"y": 0.4149597733,
				"z": 7.8073861472,
				"element": "H" 
			},
			{
				"x": 0.0314395218,
				"y": 0.5388642835,
				"z": 5.9060216429,
				"element": "H" 
			},
			{
				"x": 0.8921912001,
				"y": 0.9404050926,
				"z": 0.492014553,
				"element": "H" 
			},
			{
				"x": 1.1786516118,
				"y": -1.2925605684,
				"z": -0.3853061775,
				"element": "H" 
			}
		],
		 "valence_orbital": [ 
			{
				"type": "occ",
				"energy": -0.26499,
				"method": "rhf"
			},
			{
				"type": "occ",
				"energy": -0.26358,
				"method": "rhf"
			},
			{
				"type": "occ",
				"energy": -0.26184,
				"method": "rhf"
			},
			{
				"type": "occ",
				"energy": -0.22248,
				"method": "rhf"
			},
			{
				"type": "occ",
				"energy": -0.20197,
				"method": "rhf"
			},
			{
				"type": "unocc",
				"energy": -0.06765,
				"method": "rhf"
			},
			{
				"type": "unocc",
				"energy": -0.04604,
				"method": "rhf"
			},
			{
				"type": "unocc",
				"energy": -0.02093,
				"method": "rhf"
			},
			{
				"type": "unocc",
				"energy": -0.01222,
				"method": "rhf"
			},
			{
				"type": "unocc",
				"energy": -0.00865,
				"method": "rhf"
			}
		],
		"cosmo_sigma_profile": { 
			"-0.025": 0.0,
			"-0.024": 0.0,
			"-0.023": 0.0,
			"-0.022": 0.0,
			"-0.021": 0.0,
			"-0.02": 0.0,
			"-0.019": 0.0,
			"-0.018": 0.0,
			"-0.017": 0.0,
			"-0.016": 0.0,
			"-0.015": 0.0,
			"-0.014": 0.0,
			"-0.013": 0.0,
			"-0.012": 0.0,
			"-0.011": 0.119450729189,
			"-0.01": 1.93101517174,
			"-0.009": 3.21446529143,
			"-0.008": 5.63462083572,
			"-0.007": 12.6703545771,
			"-0.006": 17.414885934,
			"-0.005": 27.4088083471,
			"-0.004": 30.2091443128,
			"-0.003": 29.2399799029,
			"-0.002": 33.7831630829,
			"-0.001": 27.7303959132,
			"0.0": 29.3205378576,
			"0.001": 34.7604267858,
			"0.002": 37.3079164519,
			"0.003": 35.9057975769,
			"0.004": 30.4816525473,
			"0.005": 19.4713003546,
			"0.006": 4.8635035733,
			"0.007": 3.70806020709,
			"0.008": 4.57414842494,
			"0.009": 4.15299038104,
			"0.01": 4.49728100965,
			"0.011": 3.24675245362,
			"0.012": 2.77301141142,
			"0.013": 2.4511806865,
			"0.014": 0.72367511119,
			"0.015": 0.0,
			"0.016": 0.0,
			"0.017": 0.0,
			"0.018": 0.0,
			"0.019": 0.0,
			"0.02": 0.0,
			"0.021": 0.0,
			"0.022": 0.0,
			"0.023": 0.0,
			"0.024": 0.0,
			"0.025": 0.0
		}
	}
}
