{
	 "smiles": "CC(C)(C)NC(=O)NC(=O)CCl", 
	 "Tm": 383.15, 
	 "num_atms": 25, 
	 "gaussian": { 
		 "optdone": 1, 
		 "sigma_profile": "yes", 
		 "theory": "DFT", 
		 "functional": "B3LYP", 
		 "basiset": "6-31G**", 
		 "properties": { 
			 "R2extent": 3703.1373, 
			 "electric_dipole_moment_norm": 5.03224331884, 
			 "electric_quadrupole_moment_norm": 5.61464696397, 
			 "total_energy": -994.764965457, 
			 "HOMO_LUMO_gap": 0.22683, 
			 "cosmo_polarized_energy": -14.28, 
			 "cosmo_cavitation_energy": 29.4, 
			 "cosmo_dispersion_energy": -20.46, 
			 "cosmo_repulsion_energy": 1.65, 
			 "cosmo_total_nonelectrostatic_energy": 10.59, 
			 "SMD_solvation_energy": 6.23 
		},
		"coords": [
			{
				"x": 0.4185543449,
				"y": 1.4832934425,
				"z": -0.1025685917,
				"element": "C" 
			},
			{
				"x": 0.0319887822,
				"y": 0.5964079014,
				"z": 1.096859476,
				"element": "C" 
			},
			{
				"x": 1.1207635893,
				"y": -0.4597192161,
				"z": 1.3811620022,
				"element": "C" 
			},
			{
				"x": -0.1264342538,
				"y": 1.4751441838,
				"z": 2.3513114221,
				"element": "C" 
			},
			{
				"x": -1.300231795,
				"y": -0.035851962,
				"z": 0.8982019617,
				"element": "N" 
			},
			{
				"x": -1.8473341949,
				"y": -0.7093010857,
				"z": -0.1663644689,
				"element": "C" 
			},
			{
				"x": -3.0585480522,
				"y": -0.8154016439,
				"z": -0.3055615294,
				"element": "O" 
			},
			{
				"x": -0.9211924275,
				"y": -1.3094856515,
				"z": -1.0389213078,
				"element": "N" 
			},
			{
				"x": -1.1525829727,
				"y": -1.9603210897,
				"z": -2.2486485233,
				"element": "C" 
			},
			{
				"x": -0.2686816829,
				"y": -2.6360547429,
				"z": -2.7434133847,
				"element": "O" 
			},
			{
				"x": -2.4916339951,
				"y": -1.7679188765,
				"z": -2.9422417755,
				"element": "C" 
			},
			{
				"x": -2.5865315456,
				"y": -0.1049176038,
				"z": -3.6644041012,
				"element": "Cl" 
			},
			{
				"x": -0.3350414764,
				"y": 2.2599088478,
				"z": -0.2632487716,
				"element": "H" 
			},
			{
				"x": 1.3805334168,
				"y": 1.9711170244,
				"z": 0.0847354742,
				"element": "H" 
			},
			{
				"x": 0.508507904,
				"y": 0.9071652457,
				"z": -1.0267029018,
				"element": "H" 
			},
			{
				"x": 0.7968779867,
				"y": -1.1455420627,
				"z": 2.1687309583,
				"element": "H" 
			},
			{
				"x": 1.3921634184,
				"y": -1.0527401932,
				"z": 0.5012034863,
				"element": "H" 
			},
			{
				"x": 2.0403295591,
				"y": 0.0349505819,
				"z": 1.7087041795,
				"element": "H" 
			},
			{
				"x": 0.8135728307,
				"y": 1.9847460682,
				"z": 2.5778368728,
				"element": "H" 
			},
			{
				"x": -0.8949851302,
				"y": 2.2403674522,
				"z": 2.1975671899,
				"element": "H" 
			},
			{
				"x": -0.4044211482,
				"y": 0.8706540506,
				"z": 3.2210934441,
				"element": "H" 
			},
			{
				"x": -2.0468099287,
				"y": 0.3473464304,
				"z": 1.4629784862,
				"element": "H" 
			},
			{
				"x": 0.0253786971,
				"y": -1.4497762271,
				"z": -0.7125922649,
				"element": "H" 
			},
			{
				"x": -2.5408052637,
				"y": -2.4802465506,
				"z": -3.7628898418,
				"element": "H" 
			},
			{
				"x": -3.3250366622,
				"y": -1.8561243232,
				"z": -2.2497274905,
				"element": "H" 
			}
		],
		 "valence_orbital": [ 
			{
				"type": "occ",
				"energy": -0.29825,
				"method": "rhf"
			},
			{
				"type": "occ",
				"energy": -0.28829,
				"method": "rhf"
			},
			{
				"type": "occ",
				"energy": -0.27815,
				"method": "rhf"
			},
			{
				"type": "occ",
				"energy": -0.26888,
				"method": "rhf"
			},
			{
				"type": "occ",
				"energy": -0.26375,
				"method": "rhf"
			},
			{
				"type": "unocc",
				"energy": -0.03692,
				"method": "rhf"
			},
			{
				"type": "unocc",
				"energy": 0.02967,
				"method": "rhf"
			},
			{
				"type": "unocc",
				"energy": 0.04972,
				"method": "rhf"
			},
			{
				"type": "unocc",
				"energy": 0.07313,
				"method": "rhf"
			},
			{
				"type": "unocc",
				"energy": 0.0822,
				"method": "rhf"
			}
		],
		"cosmo_sigma_profile": { 
			"-0.025": 0.0,
			"-0.024": 0.0,
			"-0.023": 0.0,
			"-0.022": 0.0,
			"-0.021": 0.0,
			"-0.02": 0.0,
			"-0.019": 0.0,
			"-0.018": 0.0,
			"-0.017": 0.0,
			"-0.016": 0.0,
			"-0.015": 0.0,
			"-0.014": 0.0,
			"-0.013": 0.627637154665,
			"-0.012": 2.15444863009,
			"-0.011": 1.96079395179,
			"-0.01": 2.60801763058,
			"-0.009": 2.14931528107,
			"-0.008": 3.6151226608,
			"-0.007": 5.97212170813,
			"-0.006": 7.41686783287,
			"-0.005": 9.50804557239,
			"-0.004": 23.0599824887,
			"-0.003": 21.2602504218,
			"-0.002": 20.2186080082,
			"-0.001": 23.6846410428,
			"0.0": 24.9071474199,
			"0.001": 12.523305692,
			"0.002": 7.9971877411,
			"0.003": 8.04837629431,
			"0.004": 9.29288959442,
			"0.005": 11.006535845,
			"0.006": 5.19286105624,
			"0.007": 3.06127280236,
			"0.008": 3.35919653417,
			"0.009": 3.08509680376,
			"0.01": 3.83922916803,
			"0.011": 6.73516257625,
			"0.012": 5.35866248422,
			"0.013": 3.23404762654,
			"0.014": 0.677185635818,
			"0.015": 0.0,
			"0.016": 0.0,
			"0.017": 0.0,
			"0.018": 0.0,
			"0.019": 0.0,
			"0.02": 0.0,
			"0.021": 0.0,
			"0.022": 0.0,
			"0.023": 0.0,
			"0.024": 0.0,
			"0.025": 0.0
		}
	}
}
