{
	 "smiles": "COC1=CC=CC2=C1OC(=C2)C(O)=O", 
	 "Tm": 492.15, 
	 "num_atms": 22, 
	 "gaussian": { 
		 "optdone": 1, 
		 "sigma_profile": "yes", 
		 "theory": "DFT", 
		 "functional": "B3LYP", 
		 "basiset": "6-31G**", 
		 "properties": { 
			 "R2extent": 3158.4424, 
			 "electric_dipole_moment_norm": 4.01869368576, 
			 "electric_quadrupole_moment_norm": 23.3881402448, 
			 "total_energy": -686.760524625, 
			 "HOMO_LUMO_gap": 0.16022, 
			 "cosmo_polarized_energy": -13.29, 
			 "cosmo_cavitation_energy": 27.01, 
			 "cosmo_dispersion_energy": -19.78, 
			 "cosmo_repulsion_energy": 1.54, 
			 "cosmo_total_nonelectrostatic_energy": 8.78, 
			 "SMD_solvation_energy": 6.88 
		},
		"coords": [
			{
				"x": 1.2299164496,
				"y": -2.1819307177,
				"z": -1.4539690502,
				"element": "C" 
			},
			{
				"x": 1.5704937348,
				"y": -0.8637359997,
				"z": -1.8744147626,
				"element": "O" 
			},
			{
				"x": 1.3521596585,
				"y": 0.1970037696,
				"z": -1.0526422084,
				"element": "C" 
			},
			{
				"x": 1.7170664036,
				"y": 1.4541474927,
				"z": -1.5478919763,
				"element": "C" 
			},
			{
				"x": 1.5461260578,
				"y": 2.6314328454,
				"z": -0.8040829195,
				"element": "C" 
			},
			{
				"x": 1.0013317646,
				"y": 2.6123278737,
				"z": 0.4737625661,
				"element": "C" 
			},
			{
				"x": 0.6255003367,
				"y": 1.366288097,
				"z": 0.9981439516,
				"element": "C" 
			},
			{
				"x": 0.8028408923,
				"y": 0.1880992583,
				"z": 0.2388348515,
				"element": "C" 
			},
			{
				"x": 0.3636325384,
				"y": -0.902585597,
				"z": 0.95772285,
				"element": "O" 
			},
			{
				"x": -0.0897513014,
				"y": -0.4097224453,
				"z": 2.168961388,
				"element": "C" 
			},
			{
				"x": 0.0451100014,
				"y": 0.9399156167,
				"z": 2.2424001337,
				"element": "C" 
			},
			{
				"x": -0.6228322017,
				"y": -1.3798337167,
				"z": 3.1442787059,
				"element": "C" 
			},
			{
				"x": -0.6110729843,
				"y": -2.6741179458,
				"z": 2.7434711082,
				"element": "O" 
			},
			{
				"x": -1.0417127217,
				"y": -1.0505415538,
				"z": 4.2291308082,
				"element": "O" 
			},
			{
				"x": 1.7929697247,
				"y": -2.4787977824,
				"z": -0.5628148087,
				"element": "H" 
			},
			{
				"x": 0.1568469018,
				"y": -2.2776010168,
				"z": -1.2572782561,
				"element": "H" 
			},
			{
				"x": 1.5030382961,
				"y": -2.8326080045,
				"z": -2.2859508285,
				"element": "H" 
			},
			{
				"x": 2.1442414616,
				"y": 1.487164402,
				"z": -2.544632783,
				"element": "H" 
			},
			{
				"x": 1.8503041411,
				"y": 3.5746603908,
				"z": -1.2473231643,
				"element": "H" 
			},
			{
				"x": 0.8694328529,
				"y": 3.5226686595,
				"z": 1.0483444474,
				"element": "H" 
			},
			{
				"x": -0.2390059225,
				"y": 1.5480929514,
				"z": 3.0883421721,
				"element": "H" 
			},
			{
				"x": -0.2392360842,
				"y": -2.7329265774,
				"z": 1.8496077749,
				"element": "H" 
			}
		],
		 "valence_orbital": [ 
			{
				"type": "occ",
				"energy": -0.32195,
				"method": "rhf"
			},
			{
				"type": "occ",
				"energy": -0.29331,
				"method": "rhf"
			},
			{
				"type": "occ",
				"energy": -0.28212,
				"method": "rhf"
			},
			{
				"type": "occ",
				"energy": -0.25194,
				"method": "rhf"
			},
			{
				"type": "occ",
				"energy": -0.22313,
				"method": "rhf"
			},
			{
				"type": "unocc",
				"energy": -0.06291,
				"method": "rhf"
			},
			{
				"type": "unocc",
				"energy": -0.00112,
				"method": "rhf"
			},
			{
				"type": "unocc",
				"energy": 0.01497,
				"method": "rhf"
			},
			{
				"type": "unocc",
				"energy": 0.05429,
				"method": "rhf"
			},
			{
				"type": "unocc",
				"energy": 0.08166,
				"method": "rhf"
			}
		],
		"cosmo_sigma_profile": { 
			"-0.025": 0.0,
			"-0.024": 0.0,
			"-0.023": 0.0,
			"-0.022": 0.0,
			"-0.021": 0.0,
			"-0.02": 0.0,
			"-0.019": 0.0,
			"-0.018": 0.0,
			"-0.017": 0.0,
			"-0.016": 0.0,
			"-0.015": 0.500770700118,
			"-0.014": 1.05242851161,
			"-0.013": 0.787398679369,
			"-0.012": 0.694461572567,
			"-0.011": 1.08164685627,
			"-0.01": 1.37001366348,
			"-0.009": 2.07336973482,
			"-0.008": 2.66581108475,
			"-0.007": 4.58639021149,
			"-0.006": 14.2560324224,
			"-0.005": 17.211406658,
			"-0.004": 19.1798094615,
			"-0.003": 16.4590072219,
			"-0.002": 12.5157201608,
			"-0.001": 15.066068726,
			"0.0": 13.737597205,
			"0.001": 13.5768664605,
			"0.002": 13.9159905103,
			"0.003": 13.265854445,
			"0.004": 11.5006352791,
			"0.005": 7.66919257663,
			"0.006": 3.88784714712,
			"0.007": 3.97906806911,
			"0.008": 3.88502952689,
			"0.009": 6.20895791433,
			"0.01": 5.43389642465,
			"0.011": 5.4160389381,
			"0.012": 4.13576396706,
			"0.013": 0.676165823166,
			"0.014": 0.0,
			"0.015": 0.0,
			"0.016": 0.0,
			"0.017": 0.0,
			"0.018": 0.0,
			"0.019": 0.0,
			"0.02": 0.0,
			"0.021": 0.0,
			"0.022": 0.0,
			"0.023": 0.0,
			"0.024": 0.0,
			"0.025": 0.0
		}
	}
}
