{
	 "smiles": "OC(=O)CC1=CC(OCC#N)=CC=C1", 
	 "Tm": 353.15, 
	 "num_atms": 23, 
	 "gaussian": { 
		 "optdone": 1, 
		 "sigma_profile": "yes", 
		 "theory": "DFT", 
		 "functional": "B3LYP", 
		 "basiset": "6-31G**", 
		 "properties": { 
			 "R2extent": 3662.9928, 
			 "electric_dipole_moment_norm": 6.8090471536, 
			 "electric_quadrupole_moment_norm": 21.6514510752, 
			 "total_energy": -666.881140668, 
			 "HOMO_LUMO_gap": 0.21459, 
			 "cosmo_polarized_energy": -20.32, 
			 "cosmo_cavitation_energy": 28.91, 
			 "cosmo_dispersion_energy": -19.67, 
			 "cosmo_repulsion_energy": 1.56, 
			 "cosmo_total_nonelectrostatic_energy": 10.8, 
			 "SMD_solvation_energy": 7.76 
		},
		"coords": [
			{
				"x": 1.7261440902,
				"y": 2.2461698619,
				"z": 1.8459275003,
				"element": "O" 
			},
			{
				"x": 1.4440039231,
				"y": 3.32608739,
				"z": 1.0836366503,
				"element": "C" 
			},
			{
				"x": 2.141813164,
				"y": 4.3081061082,
				"z": 1.1178393914,
				"element": "O" 
			},
			{
				"x": 0.1688529705,
				"y": 3.2484878799,
				"z": 0.2251979089,
				"element": "C" 
			},
			{
				"x": -0.1854184706,
				"y": 1.8699394777,
				"z": -0.2869250174,
				"element": "C" 
			},
			{
				"x": -1.0771030112,
				"y": 1.0571531866,
				"z": 0.4357395377,
				"element": "C" 
			},
			{
				"x": -1.3684334204,
				"y": -0.234928448,
				"z": -0.014313929,
				"element": "C" 
			},
			{
				"x": -2.2322855668,
				"y": -1.1055314082,
				"z": 0.61105167,
				"element": "O" 
			},
			{
				"x": -2.9188342483,
				"y": -0.68169586,
				"z": 1.7713770651,
				"element": "C" 
			},
			{
				"x": -2.0431497652,
				"y": -0.5688163365,
				"z": 2.9551542282,
				"element": "C" 
			},
			{
				"x": -1.3512493076,
				"y": -0.4751921969,
				"z": 3.881620803,
				"element": "N" 
			},
			{
				"x": -0.7757461726,
				"y": -0.727215337,
				"z": -1.181851562,
				"element": "C" 
			},
			{
				"x": 0.1029120892,
				"y": 0.0815282355,
				"z": -1.8949886368,
				"element": "C" 
			},
			{
				"x": 0.4017856885,
				"y": 1.3730488516,
				"z": -1.4549156554,
				"element": "C" 
			},
			{
				"x": 1.0937150967,
				"y": 1.5315254155,
				"z": 1.6692236968,
				"element": "H" 
			},
			{
				"x": -0.6445374037,
				"y": 3.6461366604,
				"z": 0.8452390534,
				"element": "H" 
			},
			{
				"x": 0.3139769834,
				"y": 3.9543493426,
				"z": -0.5951217541,
				"element": "H" 
			},
			{
				"x": -1.53413548,
				"y": 1.4547028925,
				"z": 1.3357666167,
				"element": "H" 
			},
			{
				"x": -3.6746035405,
				"y": -1.4472783223,
				"z": 1.9654530973,
				"element": "H" 
			},
			{
				"x": -3.4346911377,
				"y": 0.2751203564,
				"z": 1.615146813,
				"element": "H" 
			},
			{
				"x": -1.0200727801,
				"y": -1.7320262289,
				"z": -1.5089115901,
				"element": "H" 
			},
			{
				"x": 0.5599151796,
				"y": -0.2992113009,
				"z": -2.8033942768,
				"element": "H" 
			},
			{
				"x": 1.0927411196,
				"y": 1.9947397798,
				"z": -2.0165516103,
				"element": "H" 
			}
		],
		 "valence_orbital": [ 
			{
				"type": "occ",
				"energy": -0.34669,
				"method": "rhf"
			},
			{
				"type": "occ",
				"energy": -0.31041,
				"method": "rhf"
			},
			{
				"type": "occ",
				"energy": -0.28599,
				"method": "rhf"
			},
			{
				"type": "occ",
				"energy": -0.2633,
				"method": "rhf"
			},
			{
				"type": "occ",
				"energy": -0.24832,
				"method": "rhf"
			},
			{
				"type": "unocc",
				"energy": -0.03373,
				"method": "rhf"
			},
			{
				"type": "unocc",
				"energy": -0.02208,
				"method": "rhf"
			},
			{
				"type": "unocc",
				"energy": -0.0104,
				"method": "rhf"
			},
			{
				"type": "unocc",
				"energy": 0.01358,
				"method": "rhf"
			},
			{
				"type": "unocc",
				"energy": 0.01547,
				"method": "rhf"
			}
		],
		"cosmo_sigma_profile": { 
			"-0.025": 0.0,
			"-0.024": 0.0,
			"-0.023": 0.0,
			"-0.022": 0.0,
			"-0.021": 0.0,
			"-0.02": 0.0,
			"-0.019": 0.0,
			"-0.018": 0.0,
			"-0.017": 0.0,
			"-0.016": 0.0,
			"-0.015": 0.0,
			"-0.014": 0.00254508644267,
			"-0.013": 0.634067269432,
			"-0.012": 0.827384099742,
			"-0.011": 4.57988681567,
			"-0.01": 7.22735718731,
			"-0.009": 8.99517148092,
			"-0.008": 9.74465616122,
			"-0.007": 9.8028556942,
			"-0.006": 14.3107510115,
			"-0.005": 12.7718024478,
			"-0.004": 12.6314906543,
			"-0.003": 12.6828873547,
			"-0.002": 11.2195060238,
			"-0.001": 8.63115511626,
			"0.0": 10.8879989194,
			"0.001": 11.0566749631,
			"0.002": 13.2296838618,
			"0.003": 13.0979420611,
			"0.004": 11.742451112,
			"0.005": 7.04184225519,
			"0.006": 6.31947344922,
			"0.007": 6.42904520594,
			"0.008": 6.27206759663,
			"0.009": 6.49939224689,
			"0.01": 7.48203503502,
			"0.011": 7.53488767301,
			"0.012": 7.11504063052,
			"0.013": 2.81572951319,
			"0.014": 0.133942756612,
			"0.015": 0.0,
			"0.016": 0.0,
			"0.017": 0.0,
			"0.018": 0.0,
			"0.019": 0.0,
			"0.02": 0.0,
			"0.021": 0.0,
			"0.022": 0.0,
			"0.023": 0.0,
			"0.024": 0.0,
			"0.025": 0.0
		}
	}
}
