{
	 "smiles": "C1CCC(CC1)C1CCNCC1", 
	 "Tm": 347.15, 
	 "num_atms": 33, 
	 "gaussian": { 
		 "optdone": 1, 
		 "sigma_profile": "yes", 
		 "theory": "DFT", 
		 "functional": "B3LYP", 
		 "basiset": "6-31G**", 
		 "properties": { 
			 "R2extent": 2758.4792, 
			 "electric_dipole_moment_norm": 1.2390231717, 
			 "electric_quadrupole_moment_norm": 6.21615753903, 
			 "total_energy": -486.588606631, 
			 "HOMO_LUMO_gap": 0.27546, 
			 "cosmo_polarized_energy": -4.14, 
			 "cosmo_cavitation_energy": 29.99, 
			 "cosmo_dispersion_energy": -22.2, 
			 "cosmo_repulsion_energy": 1.76, 
			 "cosmo_total_nonelectrostatic_energy": 9.54, 
			 "SMD_solvation_energy": 0.98 
		},
		"coords": [
			{
				"x": 1.8222047395,
				"y": 0.7505018957,
				"z": 2.7400651321,
				"element": "C" 
			},
			{
				"x": 1.3751583223,
				"y": -0.687123033,
				"z": 2.4333470105,
				"element": "C" 
			},
			{
				"x": -0.1382887967,
				"y": -0.8639420133,
				"z": 2.6456229283,
				"element": "C" 
			},
			{
				"x": -0.9888946757,
				"y": 0.1390006231,
				"z": 1.8285725476,
				"element": "C" 
			},
			{
				"x": -0.5144083684,
				"y": 1.5702523686,
				"z": 2.1813298331,
				"element": "C" 
			},
			{
				"x": 0.9924113245,
				"y": 1.7770813706,
				"z": 1.9534948418,
				"element": "C" 
			},
			{
				"x": -1.0073285755,
				"y": -0.1496197806,
				"z": 0.3024855048,
				"element": "C" 
			},
			{
				"x": -1.6139015236,
				"y": -1.5206811743,
				"z": -0.0499327904,
				"element": "C" 
			},
			{
				"x": -1.4460545864,
				"y": -1.8330856729,
				"z": -1.5610421684,
				"element": "C" 
			},
			{
				"x": -1.4411560188,
				"y": -0.6460703284,
				"z": -2.4319755709,
				"element": "N" 
			},
			{
				"x": -2.2678687673,
				"y": 0.4233748993,
				"z": -1.8718255332,
				"element": "C" 
			},
			{
				"x": -1.7787240242,
				"y": 0.939223941,
				"z": -0.4911216396,
				"element": "C" 
			},
			{
				"x": 2.8905289807,
				"y": 0.8737166638,
				"z": 2.5241019815,
				"element": "H" 
			},
			{
				"x": 1.6977199265,
				"y": 0.9413533868,
				"z": 3.8158361974,
				"element": "H" 
			},
			{
				"x": 1.9226182662,
				"y": -1.3963547704,
				"z": 3.0661539812,
				"element": "H" 
			},
			{
				"x": 1.6393987118,
				"y": -0.937456857,
				"z": 1.3969420831,
				"element": "H" 
			},
			{
				"x": -0.3609444817,
				"y": -0.7055139836,
				"z": 3.7101846623,
				"element": "H" 
			},
			{
				"x": -0.4308244699,
				"y": -1.8968097457,
				"z": 2.4294969123,
				"element": "H" 
			},
			{
				"x": -2.0312262687,
				"y": 0.0454937594,
				"z": 2.1697803304,
				"element": "H" 
			},
			{
				"x": -0.7320996193,
				"y": 1.7464666619,
				"z": 3.2441623398,
				"element": "H" 
			},
			{
				"x": -1.0888167046,
				"y": 2.3197902669,
				"z": 1.6275754902,
				"element": "H" 
			},
			{
				"x": 1.2755584185,
				"y": 2.7956845513,
				"z": 2.245791485,
				"element": "H" 
			},
			{
				"x": 1.2245957554,
				"y": 1.6910045938,
				"z": 0.8829750371,
				"element": "H" 
			},
			{
				"x": 0.030140622,
				"y": -0.1527287675,
				"z": -0.0615215194,
				"element": "H" 
			},
			{
				"x": -1.1617990926,
				"y": -2.3288403436,
				"z": 0.5331446092,
				"element": "H" 
			},
			{
				"x": -2.679673171,
				"y": -1.5109148905,
				"z": 0.217642401,
				"element": "H" 
			},
			{
				"x": -0.507847175,
				"y": -2.3735878342,
				"z": -1.730389968,
				"element": "H" 
			},
			{
				"x": -2.2536730009,
				"y": -2.5048793735,
				"z": -1.8831906465,
				"element": "H" 
			},
			{
				"x": -0.4879096662,
				"y": -0.3054297737,
				"z": -2.5280421028,
				"element": "H" 
			},
			{
				"x": -2.3185764417,
				"y": 1.2478398615,
				"z": -2.5914968871,
				"element": "H" 
			},
			{
				"x": -3.2887564861,
				"y": 0.0303529936,
				"z": -1.7854698913,
				"element": "H" 
			},
			{
				"x": -2.6439243759,
				"y": 1.2806136485,
				"z": 0.0942547595,
				"element": "H" 
			},
			{
				"x": -1.1372387772,
				"y": 1.8170868566,
				"z": -0.6316513505,
				"element": "H" 
			}
		],
		 "valence_orbital": [ 
			{
				"type": "occ",
				"energy": -0.3106,
				"method": "rhf"
			},
			{
				"type": "occ",
				"energy": -0.29581,
				"method": "rhf"
			},
			{
				"type": "occ",
				"energy": -0.28901,
				"method": "rhf"
			},
			{
				"type": "occ",
				"energy": -0.28149,
				"method": "rhf"
			},
			{
				"type": "occ",
				"energy": -0.20883,
				"method": "rhf"
			},
			{
				"type": "unocc",
				"energy": 0.06663,
				"method": "rhf"
			},
			{
				"type": "unocc",
				"energy": 0.0886,
				"method": "rhf"
			},
			{
				"type": "unocc",
				"energy": 0.098,
				"method": "rhf"
			},
			{
				"type": "unocc",
				"energy": 0.11309,
				"method": "rhf"
			},
			{
				"type": "unocc",
				"energy": 0.11787,
				"method": "rhf"
			}
		],
		"cosmo_sigma_profile": { 
			"-0.025": 0.0,
			"-0.024": 0.0,
			"-0.023": 0.0,
			"-0.022": 0.0,
			"-0.021": 0.0,
			"-0.02": 0.0,
			"-0.019": 0.0,
			"-0.018": 0.0,
			"-0.017": 0.0,
			"-0.016": 0.0,
			"-0.015": 0.0,
			"-0.014": 0.0,
			"-0.013": 0.0,
			"-0.012": 0.0,
			"-0.011": 0.0,
			"-0.01": 0.0,
			"-0.009": 0.678881677654,
			"-0.008": 1.27184297152,
			"-0.007": 1.57088273931,
			"-0.006": 1.23719523665,
			"-0.005": 2.27134555091,
			"-0.004": 2.63660275579,
			"-0.003": 8.52689506152,
			"-0.002": 32.9064928995,
			"-0.001": 55.9982307242,
			"0.0": 51.1093412459,
			"0.001": 39.1513839378,
			"0.002": 17.101019631,
			"0.003": 2.19215121711,
			"0.004": 1.42025667014,
			"0.005": 0.753849693173,
			"0.006": 0.933692008531,
			"0.007": 0.942533652602,
			"0.008": 0.728128584731,
			"0.009": 0.727110107368,
			"0.01": 0.687553434479,
			"0.011": 0.77007933652,
			"0.012": 0.69098695066,
			"0.013": 0.861016188581,
			"0.014": 0.402197887136,
			"0.015": 0.48183740239,
			"0.016": 0.630192177216,
			"0.017": 0.719372758128,
			"0.018": 0.518447149769,
			"0.019": 0.527885216766,
			"0.02": 0.0839971418877,
			"0.021": 0.0,
			"0.022": 0.0,
			"0.023": 0.0,
			"0.024": 0.0,
			"0.025": 0.0
		}
	}
}
