{
	 "smiles": "ClC1=C2OCCOC2=CC(C=O)=C1", 
	 "Tm": 354.15, 
	 "num_atms": 20, 
	 "gaussian": { 
		 "optdone": 1, 
		 "sigma_profile": "yes", 
		 "theory": "DFT", 
		 "functional": "B3LYP", 
		 "basiset": "6-31G**", 
		 "properties": { 
			 "R2extent": 3652.4781, 
			 "electric_dipole_moment_norm": 5.73925850437, 
			 "electric_quadrupole_moment_norm": 8.61589708852, 
			 "total_energy": -1033.00986022, 
			 "HOMO_LUMO_gap": 0.17258, 
			 "cosmo_polarized_energy": -11.67, 
			 "cosmo_cavitation_energy": 26.06, 
			 "cosmo_dispersion_energy": -19.66, 
			 "cosmo_repulsion_energy": 1.55, 
			 "cosmo_total_nonelectrostatic_energy": 7.96, 
			 "SMD_solvation_energy": 5.62 
		},
		"coords": [
			{
				"x": 2.8151439605,
				"y": -2.1804931784,
				"z": 2.1036067123,
				"element": "Cl" 
			},
			{
				"x": 1.6920261943,
				"y": -1.2625678108,
				"z": 1.1257760916,
				"element": "C" 
			},
			{
				"x": 2.1801027003,
				"y": -0.5862541376,
				"z": -0.0079596558,
				"element": "C" 
			},
			{
				"x": 3.5020600428,
				"y": -0.6762982647,
				"z": -0.3108134318,
				"element": "O" 
			},
			{
				"x": 3.844524738,
				"y": -0.2255936428,
				"z": -1.6263632673,
				"element": "C" 
			},
			{
				"x": 3.122934808,
				"y": 1.0738971148,
				"z": -1.9358976391,
				"element": "C" 
			},
			{
				"x": 1.7101448182,
				"y": 0.8678155736,
				"z": -1.8895010261,
				"element": "O" 
			},
			{
				"x": 1.2825575112,
				"y": 0.1681957303,
				"z": -0.7903417767,
				"element": "C" 
			},
			{
				"x": -0.0680319352,
				"y": 0.2110911499,
				"z": -0.4601072673,
				"element": "C" 
			},
			{
				"x": -0.5382813061,
				"y": -0.48231609,
				"z": 0.6594332795,
				"element": "C" 
			},
			{
				"x": -1.9744240945,
				"y": -0.4317470657,
				"z": 1.0049374863,
				"element": "C" 
			},
			{
				"x": -2.4760363973,
				"y": -0.9905501968,
				"z": 1.9621118257,
				"element": "O" 
			},
			{
				"x": 0.3489127473,
				"y": -1.2148292296,
				"z": 1.4628032371,
				"element": "C" 
			},
			{
				"x": 3.5706883704,
				"y": -0.9951300457,
				"z": -2.3591197838,
				"element": "H" 
			},
			{
				"x": 4.9288734644,
				"y": -0.0953625756,
				"z": -1.6299010273,
				"element": "H" 
			},
			{
				"x": 3.351902961,
				"y": 1.4248309486,
				"z": -2.9447538733,
				"element": "H" 
			},
			{
				"x": 3.4116736207,
				"y": 1.8477440173,
				"z": -1.2121346713,
				"element": "H" 
			},
			{
				"x": -0.7391273546,
				"y": 0.7957477983,
				"z": -1.0826643074,
				"element": "H" 
			},
			{
				"x": -2.5941452662,
				"y": 0.1737754829,
				"z": 0.3064901363,
				"element": "H" 
			},
			{
				"x": -0.0299995831,
				"y": -1.7390555781,
				"z": 2.3322989587,
				"element": "H" 
			}
		],
		 "valence_orbital": [ 
			{
				"type": "occ",
				"energy": -0.31555,
				"method": "rhf"
			},
			{
				"type": "occ",
				"energy": -0.31414,
				"method": "rhf"
			},
			{
				"type": "occ",
				"energy": -0.2558,
				"method": "rhf"
			},
			{
				"type": "occ",
				"energy": -0.24789,
				"method": "rhf"
			},
			{
				"type": "occ",
				"energy": -0.23398,
				"method": "rhf"
			},
			{
				"type": "unocc",
				"energy": -0.0614,
				"method": "rhf"
			},
			{
				"type": "unocc",
				"energy": -0.01798,
				"method": "rhf"
			},
			{
				"type": "unocc",
				"energy": 0.02399,
				"method": "rhf"
			},
			{
				"type": "unocc",
				"energy": 0.04154,
				"method": "rhf"
			},
			{
				"type": "unocc",
				"energy": 0.07502,
				"method": "rhf"
			}
		],
		"cosmo_sigma_profile": { 
			"-0.025": 0.0,
			"-0.024": 0.0,
			"-0.023": 0.0,
			"-0.022": 0.0,
			"-0.021": 0.0,
			"-0.02": 0.0,
			"-0.019": 0.0,
			"-0.018": 0.0,
			"-0.017": 0.0,
			"-0.016": 0.0,
			"-0.015": 0.0,
			"-0.014": 0.0,
			"-0.013": 0.0,
			"-0.012": 0.0,
			"-0.011": 0.0,
			"-0.01": 0.0,
			"-0.009": 0.390427615877,
			"-0.008": 6.67342152827,
			"-0.007": 15.5574265705,
			"-0.006": 18.4433313168,
			"-0.005": 12.3020958826,
			"-0.004": 11.1207239248,
			"-0.003": 9.9923248391,
			"-0.002": 10.5063581706,
			"-0.001": 11.0953929239,
			"0.0": 16.0515453596,
			"0.001": 21.6104698446,
			"0.002": 16.2310724184,
			"0.003": 10.7129855606,
			"0.004": 12.3345143589,
			"0.005": 7.62975529253,
			"0.006": 4.51492820002,
			"0.007": 4.10762771174,
			"0.008": 4.61833796121,
			"0.009": 5.67934271742,
			"0.01": 3.47816322442,
			"0.011": 3.79507105179,
			"0.012": 3.28695260635,
			"0.013": 0.764573091949,
			"0.014": 0.0,
			"0.015": 0.0,
			"0.016": 0.0,
			"0.017": 0.0,
			"0.018": 0.0,
			"0.019": 0.0,
			"0.02": 0.0,
			"0.021": 0.0,
			"0.022": 0.0,
			"0.023": 0.0,
			"0.024": 0.0,
			"0.025": 0.0
		}
	}
}
