{
	 "smiles": "CC1=C(C=C(O1)C(C)(C)C)C(Cl)=O", 
	 "Tm": 315.65, 
	 "num_atms": 26, 
	 "gaussian": { 
		 "optdone": 1, 
		 "sigma_profile": "yes", 
		 "theory": "DFT", 
		 "functional": "B3LYP", 
		 "basiset": "6-31G**", 
		 "properties": { 
			 "R2extent": 3818.895, 
			 "electric_dipole_moment_norm": 4.40354558169, 
			 "electric_quadrupole_moment_norm": 14.6963204323, 
			 "total_energy": -999.554023539, 
			 "HOMO_LUMO_gap": 0.18031, 
			 "cosmo_polarized_energy": -6.21, 
			 "cosmo_cavitation_energy": 31.0, 
			 "cosmo_dispersion_energy": -21.57, 
			 "cosmo_repulsion_energy": 1.73, 
			 "cosmo_total_nonelectrostatic_energy": 11.16, 
			 "SMD_solvation_energy": 6.44 
		},
		"coords": [
			{
				"x": -1.5355781842,
				"y": -0.3719781374,
				"z": 2.9565889942,
				"element": "C" 
			},
			{
				"x": -0.5458042654,
				"y": 0.0231584147,
				"z": 1.919632744,
				"element": "C" 
			},
			{
				"x": -0.0076436386,
				"y": 1.2364257311,
				"z": 1.5356185226,
				"element": "C" 
			},
			{
				"x": 0.9092910137,
				"y": 0.9589863496,
				"z": 0.4592124436,
				"element": "C" 
			},
			{
				"x": 0.8759566052,
				"y": -0.3827022756,
				"z": 0.2548178952,
				"element": "C" 
			},
			{
				"x": -0.0171950488,
				"y": -0.9535870576,
				"z": 1.1519096264,
				"element": "O" 
			},
			{
				"x": 1.5665491335,
				"y": -1.3318109606,
				"z": -0.6889529886,
				"element": "C" 
			},
			{
				"x": 2.5112374575,
				"y": -0.5322391492,
				"z": -1.6043424786,
				"element": "C" 
			},
			{
				"x": 0.5095973324,
				"y": -2.0671806756,
				"z": -1.5466498898,
				"element": "C" 
			},
			{
				"x": 2.3811138456,
				"y": -2.3661548749,
				"z": 0.1234794218,
				"element": "C" 
			},
			{
				"x": -0.3748858579,
				"y": 2.4860642445,
				"z": 2.1720321431,
				"element": "C" 
			},
			{
				"x": 0.4911481865,
				"y": 3.9463978041,
				"z": 1.4659443053,
				"element": "Cl" 
			},
			{
				"x": -1.1520647181,
				"y": 2.644104021,
				"z": 3.070527107,
				"element": "O" 
			},
			{
				"x": -1.1945088407,
				"y": -0.0771087319,
				"z": 3.9539171824,
				"element": "H" 
			},
			{
				"x": -2.4935704577,
				"y": 0.131640429,
				"z": 2.7936006947,
				"element": "H" 
			},
			{
				"x": -1.6872365818,
				"y": -1.4528265244,
				"z": 2.9319178347,
				"element": "H" 
			},
			{
				"x": 1.5021900244,
				"y": 1.6849352669,
				"z": -0.0737065427,
				"element": "H" 
			},
			{
				"x": 1.962411813,
				"y": 0.2048987702,
				"z": -2.1991717663,
				"element": "H" 
			},
			{
				"x": 3.0201248641,
				"y": -1.2104327032,
				"z": -2.2962204741,
				"element": "H" 
			},
			{
				"x": 3.2770745994,
				"y": -0.0054061563,
				"z": -1.0261146684,
				"element": "H" 
			},
			{
				"x": 0.999893902,
				"y": -2.7717990798,
				"z": -2.2267514881,
				"element": "H" 
			},
			{
				"x": -0.1867436372,
				"y": -2.6294236389,
				"z": -0.9179731281,
				"element": "H" 
			},
			{
				"x": -0.0699045022,
				"y": -1.3593527305,
				"z": -2.1478824861,
				"element": "H" 
			},
			{
				"x": 3.1509641822,
				"y": -1.8738263586,
				"z": 0.7261849637,
				"element": "H" 
			},
			{
				"x": 2.8757526969,
				"y": -3.0714871784,
				"z": -0.5527225612,
				"element": "H" 
			},
			{
				"x": 1.7347300762,
				"y": -2.936294798,
				"z": 0.7968045931,
				"element": "H" 
			}
		],
		 "valence_orbital": [ 
			{
				"type": "occ",
				"energy": -0.31075,
				"method": "rhf"
			},
			{
				"type": "occ",
				"energy": -0.31026,
				"method": "rhf"
			},
			{
				"type": "occ",
				"energy": -0.29595,
				"method": "rhf"
			},
			{
				"type": "occ",
				"energy": -0.28568,
				"method": "rhf"
			},
			{
				"type": "occ",
				"energy": -0.23537,
				"method": "rhf"
			},
			{
				"type": "unocc",
				"energy": -0.05506,
				"method": "rhf"
			},
			{
				"type": "unocc",
				"energy": 0.01095,
				"method": "rhf"
			},
			{
				"type": "unocc",
				"energy": 0.02691,
				"method": "rhf"
			},
			{
				"type": "unocc",
				"energy": 0.07664,
				"method": "rhf"
			},
			{
				"type": "unocc",
				"energy": 0.09161,
				"method": "rhf"
			}
		],
		"cosmo_sigma_profile": { 
			"-0.025": 0.0,
			"-0.024": 0.0,
			"-0.023": 0.0,
			"-0.022": 0.0,
			"-0.021": 0.0,
			"-0.02": 0.0,
			"-0.019": 0.0,
			"-0.018": 0.0,
			"-0.017": 0.0,
			"-0.016": 0.0,
			"-0.015": 0.0,
			"-0.014": 0.0,
			"-0.013": 0.0,
			"-0.012": 0.0,
			"-0.011": 0.0,
			"-0.01": 0.0,
			"-0.009": 0.0,
			"-0.008": 0.0,
			"-0.007": 0.452306486579,
			"-0.006": 5.19350828773,
			"-0.005": 6.83651972829,
			"-0.004": 11.2981166736,
			"-0.003": 32.8902902674,
			"-0.002": 36.0940585269,
			"-0.001": 27.3206812064,
			"0.0": 32.2255455177,
			"0.001": 31.3621041182,
			"0.002": 13.3358686425,
			"0.003": 12.0996472611,
			"0.004": 10.726337676,
			"0.005": 9.97942243151,
			"0.006": 5.22246158262,
			"0.007": 2.02606054815,
			"0.008": 2.69893178843,
			"0.009": 3.92466341764,
			"0.01": 2.14376838886,
			"0.011": 0.120101796445,
			"0.012": 0.0,
			"0.013": 0.0,
			"0.014": 0.0,
			"0.015": 0.0,
			"0.016": 0.0,
			"0.017": 0.0,
			"0.018": 0.0,
			"0.019": 0.0,
			"0.02": 0.0,
			"0.021": 0.0,
			"0.022": 0.0,
			"0.023": 0.0,
			"0.024": 0.0,
			"0.025": 0.0
		}
	}
}
