{
	 "smiles": "OC(=O)C1=C(NC(=O)C2=CC=CC=C2)C=CC=C1", 
	 "Tm": 453.15, 
	 "num_atms": 29, 
	 "gaussian": { 
		 "optdone": 1, 
		 "sigma_profile": "yes", 
		 "theory": "DFT", 
		 "functional": "B3LYP", 
		 "basiset": "6-31G**", 
		 "properties": { 
			 "R2extent": 4843.0232, 
			 "electric_dipole_moment_norm": 4.39243628639, 
			 "electric_quadrupole_moment_norm": 20.0011213071, 
			 "total_energy": -820.577118919, 
			 "HOMO_LUMO_gap": 0.16715, 
			 "cosmo_polarized_energy": -14.46, 
			 "cosmo_cavitation_energy": 33.63, 
			 "cosmo_dispersion_energy": -24.01, 
			 "cosmo_repulsion_energy": 1.85, 
			 "cosmo_total_nonelectrostatic_energy": 11.47, 
			 "SMD_solvation_energy": 7.34 
		},
		"coords": [
			{
				"x": 4.3887072728,
				"y": 0.4942919482,
				"z": 0.4126576442,
				"element": "O" 
			},
			{
				"x": 3.2401772543,
				"y": -0.1461259087,
				"z": 0.0896370229,
				"element": "C" 
			},
			{
				"x": 3.2368854897,
				"y": -1.0160958095,
				"z": -0.7727795284,
				"element": "O" 
			},
			{
				"x": 2.071864989,
				"y": 0.3019577493,
				"z": 0.8758215862,
				"element": "C" 
			},
			{
				"x": 0.7569645235,
				"y": -0.1513298508,
				"z": 0.5638081518,
				"element": "C" 
			},
			{
				"x": 0.5596900248,
				"y": -1.0014341063,
				"z": -0.5228340104,
				"element": "N" 
			},
			{
				"x": -0.5924550701,
				"y": -1.4223882119,
				"z": -1.1852526042,
				"element": "C" 
			},
			{
				"x": -0.5820494699,
				"y": -2.4975195189,
				"z": -1.7694728965,
				"element": "O" 
			},
			{
				"x": -1.7866990328,
				"y": -0.5196216783,
				"z": -1.2698692932,
				"element": "C" 
			},
			{
				"x": -3.0525756042,
				"y": -1.1172676757,
				"z": -1.3425838089,
				"element": "C" 
			},
			{
				"x": -4.1915102629,
				"y": -0.3320609822,
				"z": -1.5091910107,
				"element": "C" 
			},
			{
				"x": -4.0719615512,
				"y": 1.0542206194,
				"z": -1.6372044525,
				"element": "C" 
			},
			{
				"x": -2.8104180295,
				"y": 1.6525868252,
				"z": -1.5961448917,
				"element": "C" 
			},
			{
				"x": -1.6711144098,
				"y": 0.8712470149,
				"z": -1.4069189739,
				"element": "C" 
			},
			{
				"x": -0.299083039,
				"y": 0.2428649501,
				"z": 1.4083191552,
				"element": "C" 
			},
			{
				"x": -0.0749592524,
				"y": 1.0925964438,
				"z": 2.4832566231,
				"element": "C" 
			},
			{
				"x": 1.2093212573,
				"y": 1.5669525478,
				"z": 2.7714190651,
				"element": "C" 
			},
			{
				"x": 2.2680520112,
				"y": 1.1597273183,
				"z": 1.9739498074,
				"element": "C" 
			},
			{
				"x": 5.0751188091,
				"y": 0.0955257721,
				"z": -0.1470986201,
				"element": "H" 
			},
			{
				"x": 1.3994854167,
				"y": -1.4918501432,
				"z": -0.828381562,
				"element": "H" 
			},
			{
				"x": -3.122750409,
				"y": -2.1978671926,
				"z": -1.2750227735,
				"element": "H" 
			},
			{
				"x": -5.1703795435,
				"y": -0.8006848555,
				"z": -1.550812629,
				"element": "H" 
			},
			{
				"x": -4.9587168113,
				"y": 1.6658985218,
				"z": -1.7770389946,
				"element": "H" 
			},
			{
				"x": -2.7132966296,
				"y": 2.727806341,
				"z": -1.7146102086,
				"element": "H" 
			},
			{
				"x": -0.6919459103,
				"y": 1.3379842058,
				"z": -1.3806294671,
				"element": "H" 
			},
			{
				"x": -1.2964238433,
				"y": -0.1326326369,
				"z": 1.2220266785,
				"element": "H" 
			},
			{
				"x": -0.9134335254,
				"y": 1.3745932943,
				"z": 3.1138168662,
				"element": "H" 
			},
			{
				"x": 1.3794396066,
				"y": 2.2277159269,
				"z": 3.6149178865,
				"element": "H" 
			},
			{
				"x": 3.2757657393,
				"y": 1.4933090914,
				"z": 2.1906152382,
				"element": "H" 
			}
		],
		 "valence_orbital": [ 
			{
				"type": "occ",
				"energy": -0.27165,
				"method": "rhf"
			},
			{
				"type": "occ",
				"energy": -0.26708,
				"method": "rhf"
			},
			{
				"type": "occ",
				"energy": -0.25851,
				"method": "rhf"
			},
			{
				"type": "occ",
				"energy": -0.24883,
				"method": "rhf"
			},
			{
				"type": "occ",
				"energy": -0.22586,
				"method": "rhf"
			},
			{
				"type": "unocc",
				"energy": -0.05871,
				"method": "rhf"
			},
			{
				"type": "unocc",
				"energy": -0.04241,
				"method": "rhf"
			},
			{
				"type": "unocc",
				"energy": -0.01031,
				"method": "rhf"
			},
			{
				"type": "unocc",
				"energy": -0.00544,
				"method": "rhf"
			},
			{
				"type": "unocc",
				"energy": 0.04738,
				"method": "rhf"
			}
		],
		"cosmo_sigma_profile": { 
			"-0.025": 0.0,
			"-0.024": 0.0,
			"-0.023": 0.0,
			"-0.022": 0.0,
			"-0.021": 0.0,
			"-0.02": 0.0,
			"-0.019": 0.109516528045,
			"-0.018": 0.95104414542,
			"-0.017": 0.90050752559,
			"-0.016": 0.861361103188,
			"-0.015": 0.459555175169,
			"-0.014": 0.756775350071,
			"-0.013": 0.74123330055,
			"-0.012": 0.584154794059,
			"-0.011": 0.958135105709,
			"-0.01": 0.644333297197,
			"-0.009": 0.462806550976,
			"-0.008": 0.601825534872,
			"-0.007": 4.07175146322,
			"-0.006": 16.719294774,
			"-0.005": 21.2543068972,
			"-0.004": 21.4259464001,
			"-0.003": 19.8226914346,
			"-0.002": 21.2159026576,
			"-0.001": 17.5762520389,
			"0.0": 18.7481207311,
			"0.001": 19.6171665919,
			"0.002": 20.9719395695,
			"0.003": 22.4229011271,
			"0.004": 20.5116056443,
			"0.005": 5.85640195473,
			"0.006": 4.423346417,
			"0.007": 4.36053293511,
			"0.008": 2.88566974172,
			"0.009": 2.92011442653,
			"0.01": 3.80242961196,
			"0.011": 4.50567808591,
			"0.012": 4.56795000626,
			"0.013": 4.0140480073,
			"0.014": 0.329477867078,
			"0.015": 0.0,
			"0.016": 0.0,
			"0.017": 0.0,
			"0.018": 0.0,
			"0.019": 0.0,
			"0.02": 0.0,
			"0.021": 0.0,
			"0.022": 0.0,
			"0.023": 0.0,
			"0.024": 0.0,
			"0.025": 0.0
		}
	}
}
