{
	 "smiles": "CC(OC1=CC=C(OC2=CC=C(Cl)C=C2Cl)C=C1)C(O)=O", 
	 "Tm": 393.15, 
	 "num_atms": 33, 
	 "gaussian": { 
		 "optdone": 1, 
		 "sigma_profile": "yes", 
		 "theory": "DFT", 
		 "functional": "B3LYP", 
		 "basiset": "6-31G**", 
		 "properties": { 
			 "R2extent": 12256.6573, 
			 "electric_dipole_moment_norm": 3.92570915504, 
			 "electric_quadrupole_moment_norm": 25.6982423492, 
			 "total_energy": -1800.09913536, 
			 "HOMO_LUMO_gap": 0.19455, 
			 "cosmo_polarized_energy": -15.79, 
			 "cosmo_cavitation_energy": 42.19, 
			 "cosmo_dispersion_energy": -29.77, 
			 "cosmo_repulsion_energy": 2.32, 
			 "cosmo_total_nonelectrostatic_energy": 14.73, 
			 "SMD_solvation_energy": 8.07 
		},
		"coords": [
			{
				"x": -5.9620642381,
				"y": -0.1001221031,
				"z": 1.4338141973,
				"element": "C" 
			},
			{
				"x": -4.547991701,
				"y": 0.2859212051,
				"z": 1.863473018,
				"element": "C" 
			},
			{
				"x": -3.921347112,
				"y": 0.9311954793,
				"z": 0.745152159,
				"element": "O" 
			},
			{
				"x": -2.5424006161,
				"y": 0.9087596656,
				"z": 0.6491038153,
				"element": "C" 
			},
			{
				"x": -1.6813107449,
				"y": 0.6041798811,
				"z": 1.7072549891,
				"element": "C" 
			},
			{
				"x": -0.2993991922,
				"y": 0.624694077,
				"z": 1.4963979763,
				"element": "C" 
			},
			{
				"x": 0.2114806789,
				"y": 0.9597246437,
				"z": 0.2469552278,
				"element": "C" 
			},
			{
				"x": 1.5885930775,
				"y": 1.0619978741,
				"z": 0.1089141373,
				"element": "O" 
			},
			{
				"x": 2.248320459,
				"y": 0.2790436804,
				"z": -0.7990964541,
				"element": "C" 
			},
			{
				"x": 1.738350204,
				"y": -0.9183331301,
				"z": -1.3104651609,
				"element": "C" 
			},
			{
				"x": 2.4844642644,
				"y": -1.6871983615,
				"z": -2.2019974402,
				"element": "C" 
			},
			{
				"x": 3.7546466803,
				"y": -1.2581152819,
				"z": -2.5798922614,
				"element": "C" 
			},
			{
				"x": 4.7028848051,
				"y": -2.2179881678,
				"z": -3.7035071566,
				"element": "Cl" 
			},
			{
				"x": 4.2883400441,
				"y": -0.072287441,
				"z": -2.0774994461,
				"element": "C" 
			},
			{
				"x": 3.5327985071,
				"y": 0.6918628427,
				"z": -1.1911904451,
				"element": "C" 
			},
			{
				"x": 4.1968996748,
				"y": 2.1803994883,
				"z": -0.5616651719,
				"element": "Cl" 
			},
			{
				"x": -0.6479985205,
				"y": 1.280800298,
				"z": -0.8087646046,
				"element": "C" 
			},
			{
				"x": -2.0226924104,
				"y": 1.2465475638,
				"z": -0.6070725465,
				"element": "C" 
			},
			{
				"x": -4.6019088113,
				"y": 1.2244370569,
				"z": 3.0811447625,
				"element": "C" 
			},
			{
				"x": -4.5009019985,
				"y": 2.5350079202,
				"z": 2.7888315446,
				"element": "O" 
			},
			{
				"x": -4.7721090961,
				"y": 0.8170937703,
				"z": 4.2035722837,
				"element": "O" 
			},
			{
				"x": -6.48257445,
				"y": -0.5707456145,
				"z": 2.271087629,
				"element": "H" 
			},
			{
				"x": -6.5248437996,
				"y": 0.7847862611,
				"z": 1.1227844381,
				"element": "H" 
			},
			{
				"x": -5.9198535178,
				"y": -0.7999999748,
				"z": 0.5959236147,
				"element": "H" 
			},
			{
				"x": -3.9855511574,
				"y": -0.6067294492,
				"z": 2.1533958651,
				"element": "H" 
			},
			{
				"x": -2.0588346676,
				"y": 0.3631057973,
				"z": 2.6942281093,
				"element": "H" 
			},
			{
				"x": 0.3860367701,
				"y": 0.3973609866,
				"z": 2.3056780702,
				"element": "H" 
			},
			{
				"x": 0.7527172853,
				"y": -1.2491895132,
				"z": -1.0040792148,
				"element": "H" 
			},
			{
				"x": 2.08241327,
				"y": -2.6146036532,
				"z": -2.5935202548,
				"element": "H" 
			},
			{
				"x": 5.2763704318,
				"y": 0.2606928141,
				"z": -2.3707088807,
				"element": "H" 
			},
			{
				"x": -0.2388660697,
				"y": 1.5542561739,
				"z": -1.7756857506,
				"element": "H" 
			},
			{
				"x": -2.7115293324,
				"y": 1.48496493,
				"z": -1.4106002002,
				"element": "H" 
			},
			{
				"x": -4.3349387169,
				"y": 2.6146802809,
				"z": 1.8327331512,
				"element": "H" 
			}
		],
		 "valence_orbital": [ 
			{
				"type": "occ",
				"energy": -0.27926,
				"method": "rhf"
			},
			{
				"type": "occ",
				"energy": -0.27845,
				"method": "rhf"
			},
			{
				"type": "occ",
				"energy": -0.26638,
				"method": "rhf"
			},
			{
				"type": "occ",
				"energy": -0.24867,
				"method": "rhf"
			},
			{
				"type": "occ",
				"energy": -0.23078,
				"method": "rhf"
			},
			{
				"type": "unocc",
				"energy": -0.03623,
				"method": "rhf"
			},
			{
				"type": "unocc",
				"energy": -0.02529,
				"method": "rhf"
			},
			{
				"type": "unocc",
				"energy": -0.02144,
				"method": "rhf"
			},
			{
				"type": "unocc",
				"energy": -0.00975,
				"method": "rhf"
			},
			{
				"type": "unocc",
				"energy": -0.00223,
				"method": "rhf"
			}
		],
		"cosmo_sigma_profile": { 
			"-0.025": 0.0,
			"-0.024": 0.0,
			"-0.023": 0.0,
			"-0.022": 0.0,
			"-0.021": 0.0,
			"-0.02": 0.0,
			"-0.019": 0.0,
			"-0.018": 0.0,
			"-0.017": 0.0,
			"-0.016": 0.169416630726,
			"-0.015": 0.601762078819,
			"-0.014": 0.767033959636,
			"-0.013": 0.823717135171,
			"-0.012": 0.358205954094,
			"-0.011": 0.861588481616,
			"-0.01": 1.29650789278,
			"-0.009": 1.60713607247,
			"-0.008": 7.8694110962,
			"-0.007": 14.428593683,
			"-0.006": 17.0967492585,
			"-0.005": 21.3683945852,
			"-0.004": 18.8496241699,
			"-0.003": 19.3956284906,
			"-0.002": 23.2364451049,
			"-0.001": 25.1639911645,
			"0.0": 25.7681657457,
			"0.001": 31.6025500366,
			"0.002": 33.2603034735,
			"0.003": 27.6693426901,
			"0.004": 23.9166067235,
			"0.005": 11.064948019,
			"0.006": 4.97992081076,
			"0.007": 5.24279773802,
			"0.008": 4.86291554583,
			"0.009": 5.37588993741,
			"0.01": 4.49410780895,
			"0.011": 4.47911100683,
			"0.012": 4.75214214711,
			"0.013": 0.847017323384,
			"0.014": 0.0,
			"0.015": 0.0,
			"0.016": 0.0,
			"0.017": 0.0,
			"0.018": 0.0,
			"0.019": 0.0,
			"0.02": 0.0,
			"0.021": 0.0,
			"0.022": 0.0,
			"0.023": 0.0,
			"0.024": 0.0,
			"0.025": 0.0
		}
	}
}
