{
	 "smiles": "CC1=CC(=C(N)C(Br)=C1)[N+]([O-])=O", 
	 "Tm": 331.65, 
	 "num_atms": 19, 
	 "gaussian": { 
		 "optdone": 1, 
		 "sigma_profile": "yes", 
		 "theory": "DFT", 
		 "functional": "B3LYP", 
		 "basiset": "6-31G**", 
		 "properties": { 
			 "R2extent": 4228.5911, 
			 "electric_dipole_moment_norm": 3.52540658364, 
			 "electric_quadrupole_moment_norm": 8.63786979411, 
			 "total_energy": -3102.23409029, 
			 "HOMO_LUMO_gap": 0.13632, 
			 "cosmo_polarized_energy": -8.72, 
			 "cosmo_cavitation_energy": 25.36, 
			 "cosmo_dispersion_energy": -19.54, 
			 "cosmo_repulsion_energy": 1.55, 
			 "cosmo_total_nonelectrostatic_energy": 7.37, 
			 "SMD_solvation_energy": 5.26 
		},
		"coords": [
			{
				"x": 3.1469354966,
				"y": -0.9900666232,
				"z": -0.4842375146,
				"element": "C" 
			},
			{
				"x": 1.854924931,
				"y": -0.2508758721,
				"z": -0.7358693286,
				"element": "C" 
			},
			{
				"x": 0.6415845136,
				"y": -0.7053609284,
				"z": -0.2495884449,
				"element": "C" 
			},
			{
				"x": -0.555932204,
				"y": -0.0119212542,
				"z": -0.4880370933,
				"element": "C" 
			},
			{
				"x": -0.5934117244,
				"y": 1.1968087135,
				"z": -1.2422701102,
				"element": "C" 
			},
			{
				"x": -1.7185437503,
				"y": 1.8976944886,
				"z": -1.4973686788,
				"element": "N" 
			},
			{
				"x": 0.6744079816,
				"y": 1.6319177797,
				"z": -1.7252987709,
				"element": "C" 
			},
			{
				"x": 0.7558937024,
				"y": 3.2466781943,
				"z": -2.7546598686,
				"element": "Br" 
			},
			{
				"x": 1.8447861621,
				"y": 0.9433087609,
				"z": -1.4853913186,
				"element": "C" 
			},
			{
				"x": -1.763564803,
				"y": -0.5887913327,
				"z": 0.0741338458,
				"element": "N" 
			},
			{
				"x": -1.6694480538,
				"y": -1.6348082196,
				"z": 0.7168789705,
				"element": "O" 
			},
			{
				"x": -2.8523643156,
				"y": -0.0116727605,
				"z": -0.1094822842,
				"element": "O" 
			},
			{
				"x": 3.86731863,
				"y": -0.3660718835,
				"z": 0.0571696293,
				"element": "H" 
			},
			{
				"x": 2.9740471948,
				"y": -1.8910566417,
				"z": 0.1096471709,
				"element": "H" 
			},
			{
				"x": 3.6240847901,
				"y": -1.2948942887,
				"z": -1.4227663868,
				"element": "H" 
			},
			{
				"x": 0.5780762169,
				"y": -1.6154544921,
				"z": 0.3333927467,
				"element": "H" 
			},
			{
				"x": -1.6593985747,
				"y": 2.7437161395,
				"z": -2.0403140022,
				"element": "H" 
			},
			{
				"x": -2.5900919843,
				"y": 1.5431986652,
				"z": -1.1310871565,
				"element": "H" 
			},
			{
				"x": 2.773595791,
				"y": 1.3367515551,
				"z": -1.8862514051,
				"element": "H" 
			}
		],
		 "valence_orbital": [ 
			{
				"type": "occ",
				"energy": -0.30723,
				"method": "rhf"
			},
			{
				"type": "occ",
				"energy": -0.30559,
				"method": "rhf"
			},
			{
				"type": "occ",
				"energy": -0.28743,
				"method": "rhf"
			},
			{
				"type": "occ",
				"energy": -0.26824,
				"method": "rhf"
			},
			{
				"type": "occ",
				"energy": -0.22311,
				"method": "rhf"
			},
			{
				"type": "unocc",
				"energy": -0.08679,
				"method": "rhf"
			},
			{
				"type": "unocc",
				"energy": -0.01191,
				"method": "rhf"
			},
			{
				"type": "unocc",
				"energy": -0.0112,
				"method": "rhf"
			},
			{
				"type": "unocc",
				"energy": 0.0001,
				"method": "rhf"
			},
			{
				"type": "unocc",
				"energy": 0.09162,
				"method": "rhf"
			}
		],
		"cosmo_sigma_profile": { 
			"-0.025": 0.0,
			"-0.024": 0.0,
			"-0.023": 0.0,
			"-0.022": 0.0,
			"-0.021": 0.0,
			"-0.02": 0.0,
			"-0.019": 0.0,
			"-0.018": 0.0,
			"-0.017": 0.0,
			"-0.016": 0.0,
			"-0.015": 0.0,
			"-0.014": 0.0183647957168,
			"-0.013": 0.644323984446,
			"-0.012": 0.595650500512,
			"-0.011": 1.44116502179,
			"-0.01": 2.03451978898,
			"-0.009": 1.49288054252,
			"-0.008": 2.1287577657,
			"-0.007": 3.75072890086,
			"-0.006": 5.80467889687,
			"-0.005": 10.3043129959,
			"-0.004": 15.2091304976,
			"-0.003": 14.8011561188,
			"-0.002": 15.6993450909,
			"-0.001": 21.0180392733,
			"0.0": 24.3133110295,
			"0.001": 20.2907158876,
			"0.002": 17.496720574,
			"0.003": 13.1522037085,
			"0.004": 8.0716898348,
			"0.005": 3.24901085901,
			"0.006": 2.96999191343,
			"0.007": 3.87846965903,
			"0.008": 6.50104262126,
			"0.009": 4.57312893148,
			"0.01": 4.19533743019,
			"0.011": 2.2676789132,
			"0.012": 0.0282183060629,
			"0.013": 0.0,
			"0.014": 0.0,
			"0.015": 0.0,
			"0.016": 0.0,
			"0.017": 0.0,
			"0.018": 0.0,
			"0.019": 0.0,
			"0.02": 0.0,
			"0.021": 0.0,
			"0.022": 0.0,
			"0.023": 0.0,
			"0.024": 0.0,
			"0.025": 0.0
		}
	}
}
