{
	 "smiles": "OC(=O)C1=CC=C(C=C1)N1CCOCC1", 
	 "Tm": 553.15, 
	 "num_atms": 28, 
	 "gaussian": { 
		 "optdone": 1, 
		 "sigma_profile": "yes", 
		 "theory": "DFT", 
		 "functional": "B3LYP", 
		 "basiset": "6-31G**", 
		 "properties": { 
			 "R2extent": 4751.4881, 
			 "electric_dipole_moment_norm": 5.60589755436, 
			 "electric_quadrupole_moment_norm": 33.0518532287, 
			 "total_energy": -707.418919026, 
			 "HOMO_LUMO_gap": 0.17649, 
			 "cosmo_polarized_energy": -18.44, 
			 "cosmo_cavitation_energy": 30.34, 
			 "cosmo_dispersion_energy": -22.86, 
			 "cosmo_repulsion_energy": 1.77, 
			 "cosmo_total_nonelectrostatic_energy": 9.24, 
			 "SMD_solvation_energy": 4.87 
		},
		"coords": [
			{
				"x": -3.8266544498,
				"y": 1.4473390487,
				"z": 3.2253481362,
				"element": "O" 
			},
			{
				"x": -3.4668043184,
				"y": 0.2148568729,
				"z": 2.7639341678,
				"element": "C" 
			},
			{
				"x": -4.183566401,
				"y": -0.735822507,
				"z": 2.9815744851,
				"element": "O" 
			},
			{
				"x": -2.1870874257,
				"y": 0.1273517933,
				"z": 2.0044404047,
				"element": "C" 
			},
			{
				"x": -1.1801350468,
				"y": 1.1052364184,
				"z": 2.0454062156,
				"element": "C" 
			},
			{
				"x": -0.0042224463,
				"y": 0.959424821,
				"z": 1.3245030031,
				"element": "C" 
			},
			{
				"x": 0.2218562871,
				"y": -0.1796007371,
				"z": 0.5181753939,
				"element": "C" 
			},
			{
				"x": -0.7914551543,
				"y": -1.1639540292,
				"z": 0.4881095654,
				"element": "C" 
			},
			{
				"x": -1.9577273216,
				"y": -1.0140815753,
				"z": 1.2262730419,
				"element": "C" 
			},
			{
				"x": 1.42785366,
				"y": -0.331450063,
				"z": -0.1753407737,
				"element": "N" 
			},
			{
				"x": 1.6760849485,
				"y": -1.5742315235,
				"z": -0.9058537351,
				"element": "C" 
			},
			{
				"x": 3.1683394223,
				"y": -1.713186116,
				"z": -1.21059789,
				"element": "C" 
			},
			{
				"x": 3.6705079631,
				"y": -0.5902351605,
				"z": -1.9170212032,
				"element": "O" 
			},
			{
				"x": 3.4864421175,
				"y": 0.5921836033,
				"z": -1.1545953525,
				"element": "C" 
			},
			{
				"x": 2.0089065298,
				"y": 0.8336846115,
				"z": -0.8566682906,
				"element": "C" 
			},
			{
				"x": -3.2598222162,
				"y": 2.1255989131,
				"z": 2.8339034733,
				"element": "H" 
			},
			{
				"x": -1.2779278237,
				"y": 1.9788741274,
				"z": 2.6865403858,
				"element": "H" 
			},
			{
				"x": 0.7641864271,
				"y": 1.717377489,
				"z": 1.4228489585,
				"element": "H" 
			},
			{
				"x": -0.6804262049,
				"y": -2.0467078935,
				"z": -0.1289785726,
				"element": "H" 
			},
			{
				"x": -2.7267116063,
				"y": -1.77894672,
				"z": 1.1982163005,
				"element": "H" 
			},
			{
				"x": 1.1027529182,
				"y": -1.6121169679,
				"z": -1.8482835144,
				"element": "H" 
			},
			{
				"x": 1.3710851622,
				"y": -2.4232470967,
				"z": -0.2883355217,
				"element": "H" 
			},
			{
				"x": 3.3408710066,
				"y": -2.5883171207,
				"z": -1.843397663,
				"element": "H" 
			},
			{
				"x": 3.721160579,
				"y": -1.8465488927,
				"z": -0.2663988582,
				"element": "H" 
			},
			{
				"x": 4.0483103863,
				"y": 0.5276934406,
				"z": -0.2083173992,
				"element": "H" 
			},
			{
				"x": 3.8909097655,
				"y": 1.4174232424,
				"z": -1.7476376492,
				"element": "H" 
			},
			{
				"x": 1.9120774896,
				"y": 1.7234191394,
				"z": -0.2334117183,
				"element": "H" 
			},
			{
				"x": 1.4764957525,
				"y": 1.0275828822,
				"z": -1.8032353899,
				"element": "H" 
			}
		],
		 "valence_orbital": [ 
			{
				"type": "occ",
				"energy": -0.29763,
				"method": "rhf"
			},
			{
				"type": "occ",
				"energy": -0.26953,
				"method": "rhf"
			},
			{
				"type": "occ",
				"energy": -0.26599,
				"method": "rhf"
			},
			{
				"type": "occ",
				"energy": -0.26231,
				"method": "rhf"
			},
			{
				"type": "occ",
				"energy": -0.21444,
				"method": "rhf"
			},
			{
				"type": "unocc",
				"energy": -0.03795,
				"method": "rhf"
			},
			{
				"type": "unocc",
				"energy": -0.0172,
				"method": "rhf"
			},
			{
				"type": "unocc",
				"energy": 0.05692,
				"method": "rhf"
			},
			{
				"type": "unocc",
				"energy": 0.0651,
				"method": "rhf"
			},
			{
				"type": "unocc",
				"energy": 0.07918,
				"method": "rhf"
			}
		],
		"cosmo_sigma_profile": { 
			"-0.025": 0.0,
			"-0.024": 0.0,
			"-0.023": 0.0,
			"-0.022": 0.0,
			"-0.021": 0.0,
			"-0.02": 0.0,
			"-0.019": 0.0,
			"-0.018": 0.565128529321,
			"-0.017": 0.745420760813,
			"-0.016": 0.940972825596,
			"-0.015": 1.25274356833,
			"-0.014": 0.553789411011,
			"-0.013": 0.964179256246,
			"-0.012": 1.33458557647,
			"-0.011": 1.43496014366,
			"-0.01": 0.651041078233,
			"-0.009": 1.47216538393,
			"-0.008": 3.15088603552,
			"-0.007": 5.29623385339,
			"-0.006": 12.0789323079,
			"-0.005": 18.3859507401,
			"-0.004": 27.2981280873,
			"-0.003": 25.7268787901,
			"-0.002": 16.845601608,
			"-0.001": 13.1544740416,
			"0.0": 10.6069937545,
			"0.001": 9.65178180381,
			"0.002": 10.6797643272,
			"0.003": 12.1988921136,
			"0.004": 15.6248918718,
			"0.005": 7.12763439391,
			"0.006": 4.61531966012,
			"0.007": 4.30782773075,
			"0.008": 4.32196396885,
			"0.009": 3.8496495002,
			"0.01": 4.56189824479,
			"0.011": 6.7876092836,
			"0.012": 7.23775874982,
			"0.013": 5.333128371,
			"0.014": 1.03633200358,
			"0.015": 0.0,
			"0.016": 0.0,
			"0.017": 0.0,
			"0.018": 0.0,
			"0.019": 0.0,
			"0.02": 0.0,
			"0.021": 0.0,
			"0.022": 0.0,
			"0.023": 0.0,
			"0.024": 0.0,
			"0.025": 0.0
		}
	}
}
