{
	 "smiles": "NNS(=O)(=O)C1=CC=C(OC(F)(F)F)C=C1", 
	 "Tm": 379.15, 
	 "num_atms": 23, 
	 "gaussian": { 
		 "optdone": 1, 
		 "sigma_profile": "yes", 
		 "theory": "DFT", 
		 "functional": "B3LYP", 
		 "basiset": "6-31G**", 
		 "properties": { 
			 "R2extent": 5814.8203, 
			 "electric_dipole_moment_norm": 4.08542598269, 
			 "electric_quadrupole_moment_norm": 15.9629549677, 
			 "total_energy": -1303.74003112, 
			 "HOMO_LUMO_gap": 0.21692, 
			 "cosmo_polarized_energy": -17.17, 
			 "cosmo_cavitation_energy": 30.66, 
			 "cosmo_dispersion_energy": -22.35, 
			 "cosmo_repulsion_energy": 1.64, 
			 "cosmo_total_nonelectrostatic_energy": 9.95, 
			 "SMD_solvation_energy": 6.51 
		},
		"coords": [
			{
				"x": 0.6336050505,
				"y": 2.2599917252,
				"z": -3.2027271763,
				"element": "N" 
			},
			{
				"x": 1.5283802252,
				"y": 1.1821320205,
				"z": -3.0865437034,
				"element": "N" 
			},
			{
				"x": 1.0516561439,
				"y": -0.2104861071,
				"z": -2.2304825758,
				"element": "S" 
			},
			{
				"x": 2.2315963419,
				"y": -1.0760823639,
				"z": -2.2243039184,
				"element": "O" 
			},
			{
				"x": -0.2369548432,
				"y": -0.6030869221,
				"z": -2.8028661481,
				"element": "O" 
			},
			{
				"x": 0.7384513002,
				"y": 0.3123917693,
				"z": -0.5415537767,
				"element": "C" 
			},
			{
				"x": 1.7917041603,
				"y": 0.3345183969,
				"z": 0.3796711556,
				"element": "C" 
			},
			{
				"x": 1.5569572528,
				"y": 0.7798528969,
				"z": 1.6741325764,
				"element": "C" 
			},
			{
				"x": 0.2746897547,
				"y": 1.2016747205,
				"z": 2.0390476222,
				"element": "C" 
			},
			{
				"x": 0.1748712629,
				"y": 1.62047859,
				"z": 3.3595735208,
				"element": "O" 
			},
			{
				"x": -0.9844872901,
				"y": 2.1304219545,
				"z": 3.8578379327,
				"element": "C" 
			},
			{
				"x": -0.7526084594,
				"y": 2.4727070853,
				"z": 5.120618516,
				"element": "F" 
			},
			{
				"x": -1.9901237464,
				"y": 1.2362522658,
				"z": 3.8300884851,
				"element": "F" 
			},
			{
				"x": -1.3945782604,
				"y": 3.2188342036,
				"z": 3.1809129459,
				"element": "F" 
			},
			{
				"x": -0.7849218649,
				"y": 1.1726928126,
				"z": 1.1305144404,
				"element": "C" 
			},
			{
				"x": -0.5429447331,
				"y": 0.7218808832,
				"z": -0.1682956914,
				"element": "C" 
			},
			{
				"x": 0.215972952,
				"y": 2.5115596229,
				"z": -2.3045092424,
				"element": "H" 
			},
			{
				"x": -0.1048469369,
				"y": 1.9783333234,
				"z": -3.8405217875,
				"element": "H" 
			},
			{
				"x": 2.4678069557,
				"y": 1.4749681257,
				"z": -2.833379042,
				"element": "H" 
			},
			{
				"x": 2.7750723446,
				"y": -0.0166788575,
				"z": 0.0861133578,
				"element": "H" 
			},
			{
				"x": 2.3473854035,
				"y": 0.80198671,
				"z": 2.4161622859,
				"element": "H" 
			},
			{
				"x": -1.782305301,
				"y": 1.4772232903,
				"z": 1.4170449002,
				"element": "H" 
			},
			{
				"x": -1.3573777129,
				"y": 0.652533854,
				"z": -0.8810346774,
				"element": "H" 
			}
		],
		 "valence_orbital": [ 
			{
				"type": "occ",
				"energy": -0.31442,
				"method": "rhf"
			},
			{
				"type": "occ",
				"energy": -0.30657,
				"method": "rhf"
			},
			{
				"type": "occ",
				"energy": -0.29322,
				"method": "rhf"
			},
			{
				"type": "occ",
				"energy": -0.27426,
				"method": "rhf"
			},
			{
				"type": "occ",
				"energy": -0.26887,
				"method": "rhf"
			},
			{
				"type": "unocc",
				"energy": -0.05195,
				"method": "rhf"
			},
			{
				"type": "unocc",
				"energy": -0.04402,
				"method": "rhf"
			},
			{
				"type": "unocc",
				"energy": 0.04608,
				"method": "rhf"
			},
			{
				"type": "unocc",
				"energy": 0.06607,
				"method": "rhf"
			},
			{
				"type": "unocc",
				"energy": 0.07427,
				"method": "rhf"
			}
		],
		"cosmo_sigma_profile": { 
			"-0.025": 0.0,
			"-0.024": 0.0,
			"-0.023": 0.0,
			"-0.022": 0.0,
			"-0.021": 0.0,
			"-0.02": 0.0,
			"-0.019": 0.0,
			"-0.018": 0.0,
			"-0.017": 0.0,
			"-0.016": 0.0263672251291,
			"-0.015": 1.1173237329,
			"-0.014": 0.827033088273,
			"-0.013": 1.12264214665,
			"-0.012": 2.27354561258,
			"-0.011": 3.07853788499,
			"-0.01": 3.69089043203,
			"-0.009": 5.73714100711,
			"-0.008": 9.50319477686,
			"-0.007": 11.6426779673,
			"-0.006": 8.53924090475,
			"-0.005": 6.78442458804,
			"-0.004": 6.91364423237,
			"-0.003": 9.54572119392,
			"-0.002": 13.2436396349,
			"-0.001": 18.2881730815,
			"0.0": 25.0751272856,
			"0.001": 37.2796550496,
			"0.002": 23.5657510173,
			"0.003": 5.56546424798,
			"0.004": 4.97801678438,
			"0.005": 4.27022125001,
			"0.006": 4.73442753053,
			"0.007": 5.27861522875,
			"0.008": 5.07116468189,
			"0.009": 5.20543255466,
			"0.01": 8.97331594373,
			"0.011": 9.11075170679,
			"0.012": 2.2976001898,
			"0.013": 0.423446667805,
			"0.014": 0.797265159919,
			"0.015": 0.364497111878,
			"0.016": 0.0,
			"0.017": 0.0,
			"0.018": 0.0,
			"0.019": 0.0,
			"0.02": 0.0,
			"0.021": 0.0,
			"0.022": 0.0,
			"0.023": 0.0,
			"0.024": 0.0,
			"0.025": 0.0
		}
	}
}
