{
	 "smiles": "COC(=O)C1=CC=C(CCl)O1", 
	 "Tm": 307.15, 
	 "num_atms": 18, 
	 "gaussian": { 
		 "optdone": 1, 
		 "sigma_profile": "yes", 
		 "theory": "DFT", 
		 "functional": "B3LYP", 
		 "basiset": "6-31G**", 
		 "properties": { 
			 "R2extent": 2639.4837, 
			 "electric_dipole_moment_norm": 1.94850054401, 
			 "electric_quadrupole_moment_norm": 16.2849933205, 
			 "total_energy": -956.812795375, 
			 "HOMO_LUMO_gap": 0.18891, 
			 "cosmo_polarized_energy": -10.92, 
			 "cosmo_cavitation_energy": 25.31, 
			 "cosmo_dispersion_energy": -18.42, 
			 "cosmo_repulsion_energy": 1.53, 
			 "cosmo_total_nonelectrostatic_energy": 8.42, 
			 "SMD_solvation_energy": 6.32 
		},
		"coords": [
			{
				"x": 1.3963350955,
				"y": 3.8573001884,
				"z": -0.2198802572,
				"element": "C" 
			},
			{
				"x": 1.0396160991,
				"y": 2.4755522989,
				"z": -0.0520207717,
				"element": "O" 
			},
			{
				"x": 0.7203305646,
				"y": 1.8293771879,
				"z": -1.1900488068,
				"element": "C" 
			},
			{
				"x": 0.7254736948,
				"y": 2.3336258147,
				"z": -2.2967941121,
				"element": "O" 
			},
			{
				"x": 0.3580234301,
				"y": 0.4260322632,
				"z": -0.9571755435,
				"element": "C" 
			},
			{
				"x": -0.010884367,
				"y": -0.5390827307,
				"z": -1.8579452587,
				"element": "C" 
			},
			{
				"x": -0.2436555813,
				"y": -1.7198965888,
				"z": -1.1012070508,
				"element": "C" 
			},
			{
				"x": 0.001958551,
				"y": -1.3946937282,
				"z": 0.2089556311,
				"element": "C" 
			},
			{
				"x": -0.067808011,
				"y": -2.1693848206,
				"z": 1.4627326992,
				"element": "C" 
			},
			{
				"x": -1.6394441197,
				"y": -1.9069910454,
				"z": 2.3816269691,
				"element": "Cl" 
			},
			{
				"x": 0.369944237,
				"y": -0.0886833487,
				"z": 0.3074065543,
				"element": "O" 
			},
			{
				"x": 0.5671679575,
				"y": 4.4180002997,
				"z": -0.6585810501,
				"element": "H" 
			},
			{
				"x": 1.6204658868,
				"y": 4.2242080256,
				"z": 0.7812973087,
				"element": "H" 
			},
			{
				"x": 2.2696259458,
				"y": 3.9532720663,
				"z": -0.869991163,
				"element": "H" 
			},
			{
				"x": -0.0966222283,
				"y": -0.3983752659,
				"z": -2.9249187068,
				"element": "H" 
			},
			{
				"x": -0.5561113954,
				"y": -2.6866321985,
				"z": -1.4692879686,
				"element": "H" 
			},
			{
				"x": 0.724000645,
				"y": -1.8815132893,
				"z": 2.154046905,
				"element": "H" 
			},
			{
				"x": -0.0154164047,
				"y": -3.2377151287,
				"z": 1.258484622,
				"element": "H" 
			}
		],
		 "valence_orbital": [ 
			{
				"type": "occ",
				"energy": -0.30569,
				"method": "rhf"
			},
			{
				"type": "occ",
				"energy": -0.30236,
				"method": "rhf"
			},
			{
				"type": "occ",
				"energy": -0.29653,
				"method": "rhf"
			},
			{
				"type": "occ",
				"energy": -0.28213,
				"method": "rhf"
			},
			{
				"type": "occ",
				"energy": -0.24617,
				"method": "rhf"
			},
			{
				"type": "unocc",
				"energy": -0.05726,
				"method": "rhf"
			},
			{
				"type": "unocc",
				"energy": -0.0019,
				"method": "rhf"
			},
			{
				"type": "unocc",
				"energy": 0.05721,
				"method": "rhf"
			},
			{
				"type": "unocc",
				"energy": 0.09099,
				"method": "rhf"
			},
			{
				"type": "unocc",
				"energy": 0.10177,
				"method": "rhf"
			}
		],
		"cosmo_sigma_profile": { 
			"-0.025": 0.0,
			"-0.024": 0.0,
			"-0.023": 0.0,
			"-0.022": 0.0,
			"-0.021": 0.0,
			"-0.02": 0.0,
			"-0.019": 0.0,
			"-0.018": 0.0,
			"-0.017": 0.0,
			"-0.016": 0.0,
			"-0.015": 0.0,
			"-0.014": 0.0,
			"-0.013": 0.0,
			"-0.012": 0.0,
			"-0.011": 0.0,
			"-0.01": 0.137109951746,
			"-0.009": 4.87025736818,
			"-0.008": 8.2655495973,
			"-0.007": 8.04033388734,
			"-0.006": 12.9816273171,
			"-0.005": 13.6008809225,
			"-0.004": 15.2117470235,
			"-0.003": 13.9622750297,
			"-0.002": 10.5790117124,
			"-0.001": 11.3982085733,
			"0.0": 12.8223443937,
			"0.001": 14.0476649031,
			"0.002": 13.9859835704,
			"0.003": 10.622704232,
			"0.004": 8.78620769231,
			"0.005": 9.38543196616,
			"0.006": 13.8056250675,
			"0.007": 4.44557241109,
			"0.008": 3.60387692972,
			"0.009": 3.11618892715,
			"0.01": 3.18624112408,
			"0.011": 3.50278413156,
			"0.012": 4.13885181388,
			"0.013": 0.131874169203,
			"0.014": 0.0,
			"0.015": 0.0,
			"0.016": 0.0,
			"0.017": 0.0,
			"0.018": 0.0,
			"0.019": 0.0,
			"0.02": 0.0,
			"0.021": 0.0,
			"0.022": 0.0,
			"0.023": 0.0,
			"0.024": 0.0,
			"0.025": 0.0
		}
	}
}
