{
	 "smiles": "COC1=NC=C(N)C=C1", 
	 "Tm": 303.15, 
	 "num_atms": 17, 
	 "gaussian": { 
		 "optdone": 1, 
		 "sigma_profile": "yes", 
		 "theory": "DFT", 
		 "functional": "B3LYP", 
		 "basiset": "6-31G**", 
		 "properties": { 
			 "R2extent": 1853.9838, 
			 "electric_dipole_moment_norm": 3.53626015587, 
			 "electric_quadrupole_moment_norm": 15.9715251848, 
			 "total_energy": -418.170279068, 
			 "HOMO_LUMO_gap": 0.17983, 
			 "cosmo_polarized_energy": -14.24, 
			 "cosmo_cavitation_energy": 20.77, 
			 "cosmo_dispersion_energy": -15.78, 
			 "cosmo_repulsion_energy": 1.3, 
			 "cosmo_total_nonelectrostatic_energy": 6.29, 
			 "SMD_solvation_energy": 2.92 
		},
		"coords": [
			{
				"x": 2.6539360701,
				"y": 2.8922115635,
				"z": 1.3638208437,
				"element": "C" 
			},
			{
				"x": 2.2200725043,
				"y": 1.822558144,
				"z": 2.183817763,
				"element": "O" 
			},
			{
				"x": 1.269157574,
				"y": 0.9793603981,
				"z": 1.6867807495,
				"element": "C" 
			},
			{
				"x": 0.9354030568,
				"y": 0.0058128433,
				"z": 2.5310670122,
				"element": "N" 
			},
			{
				"x": 0.0136875315,
				"y": -0.8772070602,
				"z": 2.1523149807,
				"element": "C" 
			},
			{
				"x": -0.6400730458,
				"y": -0.8560643559,
				"z": 0.9089398013,
				"element": "C" 
			},
			{
				"x": -1.5550972222,
				"y": -1.8541069217,
				"z": 0.5474606959,
				"element": "N" 
			},
			{
				"x": -0.2768368606,
				"y": 0.1761443227,
				"z": 0.0350806022,
				"element": "C" 
			},
			{
				"x": 0.6842805177,
				"y": 1.1080878347,
				"z": 0.4182073074,
				"element": "C" 
			},
			{
				"x": 3.4074211006,
				"y": 3.4297273845,
				"z": 1.9418693439,
				"element": "H" 
			},
			{
				"x": 1.8332588844,
				"y": 3.5804138757,
				"z": 1.119279495,
				"element": "H" 
			},
			{
				"x": 3.1079467356,
				"y": 2.5344453329,
				"z": 0.4297060703,
				"element": "H" 
			},
			{
				"x": -0.2280784174,
				"y": -1.6580830169,
				"z": 2.8746992903,
				"element": "H" 
			},
			{
				"x": -1.9819988195,
				"y": -2.3273080512,
				"z": 1.3334186757,
				"element": "H" 
			},
			{
				"x": -2.2575341966,
				"y": -1.5567369007,
				"z": -0.1170298334,
				"element": "H" 
			},
			{
				"x": -0.7408595964,
				"y": 0.2500888837,
				"z": -0.9455892792,
				"element": "H" 
			},
			{
				"x": 0.9594141834,
				"y": 1.9061557235,
				"z": -0.2602435186,
				"element": "H" 
			}
		],
		 "valence_orbital": [ 
			{
				"type": "occ",
				"energy": -0.33285,
				"method": "rhf"
			},
			{
				"type": "occ",
				"energy": -0.28762,
				"method": "rhf"
			},
			{
				"type": "occ",
				"energy": -0.2712,
				"method": "rhf"
			},
			{
				"type": "occ",
				"energy": -0.25106,
				"method": "rhf"
			},
			{
				"type": "occ",
				"energy": -0.19482,
				"method": "rhf"
			},
			{
				"type": "unocc",
				"energy": -0.01499,
				"method": "rhf"
			},
			{
				"type": "unocc",
				"energy": 0.02365,
				"method": "rhf"
			},
			{
				"type": "unocc",
				"energy": 0.07832,
				"method": "rhf"
			},
			{
				"type": "unocc",
				"energy": 0.09811,
				"method": "rhf"
			},
			{
				"type": "unocc",
				"energy": 0.11911,
				"method": "rhf"
			}
		],
		"cosmo_sigma_profile": { 
			"-0.025": 0.0,
			"-0.024": 0.0,
			"-0.023": 0.0,
			"-0.022": 0.0,
			"-0.021": 0.0,
			"-0.02": 0.0,
			"-0.019": 0.0,
			"-0.018": 0.0,
			"-0.017": 0.0,
			"-0.016": 0.0,
			"-0.015": 0.0,
			"-0.014": 0.0,
			"-0.013": 0.389116346824,
			"-0.012": 2.76677879371,
			"-0.011": 2.85473985087,
			"-0.01": 3.06838265509,
			"-0.009": 3.58256256787,
			"-0.008": 3.61496543329,
			"-0.007": 4.80341473176,
			"-0.006": 10.733209356,
			"-0.005": 14.9509519402,
			"-0.004": 12.6496663309,
			"-0.003": 12.5974488815,
			"-0.002": 8.29227973732,
			"-0.001": 6.53262065879,
			"0.0": 6.31544285189,
			"0.001": 5.8440051946,
			"0.002": 8.43988641494,
			"0.003": 11.9954449191,
			"0.004": 9.98840338507,
			"0.005": 4.95874002016,
			"0.006": 4.16384184424,
			"0.007": 2.89137310031,
			"0.008": 2.88556930446,
			"0.009": 3.22871037947,
			"0.01": 2.37745406916,
			"0.011": 2.21207213774,
			"0.012": 3.07330331187,
			"0.013": 3.0837556896,
			"0.014": 2.36129291572,
			"0.015": 2.05350027178,
			"0.016": 1.1480112314,
			"0.017": 0.849910152384,
			"0.018": 0.0,
			"0.019": 0.0,
			"0.02": 0.0,
			"0.021": 0.0,
			"0.022": 0.0,
			"0.023": 0.0,
			"0.024": 0.0,
			"0.025": 0.0
		}
	}
}
