{
	 "smiles": "NC1=NC2=C(COC3=C2C=CC=C3)S1", 
	 "Tm": 464.15, 
	 "num_atms": 22, 
	 "gaussian": { 
		 "optdone": 1, 
		 "sigma_profile": "yes", 
		 "theory": "DFT", 
		 "functional": "B3LYP", 
		 "basiset": "6-31G**", 
		 "properties": { 
			 "R2extent": 3271.7498, 
			 "electric_dipole_moment_norm": 2.57637915494, 
			 "electric_quadrupole_moment_norm": 15.0191584545, 
			 "total_energy": -968.790738416, 
			 "HOMO_LUMO_gap": 0.16578, 
			 "cosmo_polarized_energy": -12.32, 
			 "cosmo_cavitation_energy": 27.38, 
			 "cosmo_dispersion_energy": -21.4, 
			 "cosmo_repulsion_energy": 1.63, 
			 "cosmo_total_nonelectrostatic_energy": 7.6, 
			 "SMD_solvation_energy": 2.69 
		},
		"coords": [
			{
				"x": 3.7297374455,
				"y": 2.7300324209,
				"z": 0.2914191677,
				"element": "N" 
			},
			{
				"x": 2.4993124585,
				"y": 2.1351734493,
				"z": 0.4494029277,
				"element": "C" 
			},
			{
				"x": 2.1649099912,
				"y": 0.9944687744,
				"z": -0.0749793441,
				"element": "N" 
			},
			{
				"x": 0.8934816942,
				"y": 0.6333458941,
				"z": 0.3346373719,
				"element": "C" 
			},
			{
				"x": 0.2436206771,
				"y": 1.5035167454,
				"z": 1.1599471376,
				"element": "C" 
			},
			{
				"x": -1.1135239704,
				"y": 1.1990372571,
				"z": 1.7160396933,
				"element": "C" 
			},
			{
				"x": -1.845350942,
				"y": 0.3459440784,
				"z": 0.8239584031,
				"element": "O" 
			},
			{
				"x": -1.1666785781,
				"y": -0.6748426664,
				"z": 0.2022802086,
				"element": "C" 
			},
			{
				"x": 0.2118346624,
				"y": -0.5857070883,
				"z": -0.087411403,
				"element": "C" 
			},
			{
				"x": 0.8298234737,
				"y": -1.631456533,
				"z": -0.7824236955,
				"element": "C" 
			},
			{
				"x": 0.0950794494,
				"y": -2.7457136954,
				"z": -1.1854413863,
				"element": "C" 
			},
			{
				"x": -1.2713873874,
				"y": -2.8161905971,
				"z": -0.9011411948,
				"element": "C" 
			},
			{
				"x": -1.9056115079,
				"y": -1.7827010468,
				"z": -0.2089430604,
				"element": "C" 
			},
			{
				"x": 1.2676452975,
				"y": 2.8783903634,
				"z": 1.502060448,
				"element": "S" 
			},
			{
				"x": 4.2667484962,
				"y": 2.3260395117,
				"z": -0.4651217586,
				"element": "H" 
			},
			{
				"x": 3.7581299184,
				"y": 3.7391916492,
				"z": 0.3203829313,
				"element": "H" 
			},
			{
				"x": -1.0408018735,
				"y": 0.7101431654,
				"z": 2.7028899421,
				"element": "H" 
			},
			{
				"x": -1.7298132048,
				"y": 2.0949271496,
				"z": 1.8345126879,
				"element": "H" 
			},
			{
				"x": 1.8887767861,
				"y": -1.5478782741,
				"z": -1.0045198097,
				"element": "H" 
			},
			{
				"x": 0.5838372325,
				"y": -3.5529128824,
				"z": -1.7223351291,
				"element": "H" 
			},
			{
				"x": -1.8492388994,
				"y": -3.6811512373,
				"z": -1.2137954237,
				"element": "H" 
			},
			{
				"x": -2.9660312191,
				"y": -1.817356438,
				"z": 0.0180812863,
				"element": "H" 
			}
		],
		 "valence_orbital": [ 
			{
				"type": "occ",
				"energy": -0.28563,
				"method": "rhf"
			},
			{
				"type": "occ",
				"energy": -0.27782,
				"method": "rhf"
			},
			{
				"type": "occ",
				"energy": -0.24907,
				"method": "rhf"
			},
			{
				"type": "occ",
				"energy": -0.2255,
				"method": "rhf"
			},
			{
				"type": "occ",
				"energy": -0.19223,
				"method": "rhf"
			},
			{
				"type": "unocc",
				"energy": -0.02645,
				"method": "rhf"
			},
			{
				"type": "unocc",
				"energy": 0.00221,
				"method": "rhf"
			},
			{
				"type": "unocc",
				"energy": 0.00593,
				"method": "rhf"
			},
			{
				"type": "unocc",
				"energy": 0.01841,
				"method": "rhf"
			},
			{
				"type": "unocc",
				"energy": 0.06149,
				"method": "rhf"
			}
		],
		"cosmo_sigma_profile": { 
			"-0.025": 0.0,
			"-0.024": 0.0,
			"-0.023": 0.0,
			"-0.022": 0.0,
			"-0.021": 0.0,
			"-0.02": 0.0,
			"-0.019": 0.0,
			"-0.018": 0.0,
			"-0.017": 0.0,
			"-0.016": 0.0,
			"-0.015": 0.72393874971,
			"-0.014": 2.14629170988,
			"-0.013": 2.43496364299,
			"-0.012": 2.689195225,
			"-0.011": 3.10356547702,
			"-0.01": 2.15221044336,
			"-0.009": 2.1303101107,
			"-0.008": 1.85523608135,
			"-0.007": 5.65018402375,
			"-0.006": 8.90507389456,
			"-0.005": 15.1176555639,
			"-0.004": 13.2319178419,
			"-0.003": 14.2099383015,
			"-0.002": 9.30501367454,
			"-0.001": 11.03876853,
			"0.0": 11.0447223178,
			"0.001": 13.8875107045,
			"0.002": 18.8955019766,
			"0.003": 22.5117354855,
			"0.004": 19.3255972886,
			"0.005": 15.3274288208,
			"0.006": 8.22739455623,
			"0.007": 3.7432958032,
			"0.008": 2.88928680084,
			"0.009": 4.16163917205,
			"0.01": 3.25144673115,
			"0.011": 1.51886463724,
			"0.012": 1.28896765537,
			"0.013": 0.809969135888,
			"0.014": 0.0,
			"0.015": 0.0,
			"0.016": 0.0,
			"0.017": 0.0,
			"0.018": 0.0,
			"0.019": 0.0,
			"0.02": 0.0,
			"0.021": 0.0,
			"0.022": 0.0,
			"0.023": 0.0,
			"0.024": 0.0,
			"0.025": 0.0
		}
	}
}
