{
	 "smiles": "CC1=CC(C=O)=C(C)N1C1=CC=C(F)C=C1", 
	 "Tm": 374.15, 
	 "num_atms": 28, 
	 "gaussian": { 
		 "optdone": 1, 
		 "sigma_profile": "yes", 
		 "theory": "DFT", 
		 "functional": "B3LYP", 
		 "basiset": "6-31G**", 
		 "properties": { 
			 "R2extent": 4808.0262, 
			 "electric_dipole_moment_norm": 4.51580726892, 
			 "electric_quadrupole_moment_norm": 15.1510857604, 
			 "total_energy": -732.423290463, 
			 "HOMO_LUMO_gap": 0.17442, 
			 "cosmo_polarized_energy": -10.65, 
			 "cosmo_cavitation_energy": 32.89, 
			 "cosmo_dispersion_energy": -22.26, 
			 "cosmo_repulsion_energy": 1.72, 
			 "cosmo_total_nonelectrostatic_energy": 12.34, 
			 "SMD_solvation_energy": 7.39 
		},
		"coords": [
			{
				"x": 0.0002199857,
				"y": 1.0109997689,
				"z": 2.398337483,
				"element": "C" 
			},
			{
				"x": -0.0736441948,
				"y": 0.0315763653,
				"z": 1.2719218482,
				"element": "C" 
			},
			{
				"x": -0.7430606229,
				"y": -1.1574899841,
				"z": 1.1594244763,
				"element": "C" 
			},
			{
				"x": -0.4777553752,
				"y": -1.7014625862,
				"z": -0.1409992735,
				"element": "C" 
			},
			{
				"x": -1.0061318944,
				"y": -2.9587263863,
				"z": -0.6480317391,
				"element": "C" 
			},
			{
				"x": -0.7971396722,
				"y": -3.4473764628,
				"z": -1.7514654227,
				"element": "O" 
			},
			{
				"x": 0.365740556,
				"y": -0.809139351,
				"z": -0.8032217722,
				"element": "C" 
			},
			{
				"x": 0.9547681898,
				"y": -0.878974794,
				"z": -2.1740223797,
				"element": "C" 
			},
			{
				"x": 0.6047698668,
				"y": 0.2370101218,
				"z": 0.060660096,
				"element": "N" 
			},
			{
				"x": 1.4269606044,
				"y": 1.3722617508,
				"z": -0.2325900501,
				"element": "C" 
			},
			{
				"x": 2.7842883975,
				"y": 1.3581950878,
				"z": 0.1055899671,
				"element": "C" 
			},
			{
				"x": 3.5886555406,
				"y": 2.4618958495,
				"z": -0.1747089961,
				"element": "C" 
			},
			{
				"x": 3.0141159199,
				"y": 3.5669435588,
				"z": -0.7943393299,
				"element": "C" 
			},
			{
				"x": 3.7866245456,
				"y": 4.6353859231,
				"z": -1.0674497646,
				"element": "F" 
			},
			{
				"x": 1.667361059,
				"y": 3.6040273023,
				"z": -1.1408401829,
				"element": "C" 
			},
			{
				"x": 0.8717736,
				"y": 2.4954635457,
				"z": -0.8547607582,
				"element": "C" 
			},
			{
				"x": 1.0242401739,
				"y": 1.148647433,
				"z": 2.7657626306,
				"element": "H" 
			},
			{
				"x": -0.607701158,
				"y": 0.6496612633,
				"z": 3.2309629677,
				"element": "H" 
			},
			{
				"x": -0.374745051,
				"y": 2.0015742471,
				"z": 2.1140833173,
				"element": "H" 
			},
			{
				"x": -1.3648051133,
				"y": -1.6048783919,
				"z": 1.9237186148,
				"element": "H" 
			},
			{
				"x": -1.6606275893,
				"y": -3.4918416322,
				"z": 0.0789298047,
				"element": "H" 
			},
			{
				"x": 0.6210334558,
				"y": -1.8035746411,
				"z": -2.6446116218,
				"element": "H" 
			},
			{
				"x": 2.0509430855,
				"y": -0.8685535801,
				"z": -2.1452789943,
				"element": "H" 
			},
			{
				"x": 0.6414750139,
				"y": -0.0311375854,
				"z": -2.7949457089,
				"element": "H" 
			},
			{
				"x": 3.2043752162,
				"y": 0.480306334,
				"z": 0.5857952502,
				"element": "H" 
			},
			{
				"x": 4.6434148286,
				"y": 2.4758898961,
				"z": 0.0764419304,
				"element": "H" 
			},
			{
				"x": 1.2617207234,
				"y": 4.4864073187,
				"z": -1.623184105,
				"element": "H" 
			},
			{
				"x": -0.1824700916,
				"y": 2.495009629,
				"z": -1.1122782873,
				"element": "H" 
			}
		],
		 "valence_orbital": [ 
			{
				"type": "occ",
				"energy": -0.2823,
				"method": "rhf"
			},
			{
				"type": "occ",
				"energy": -0.26514,
				"method": "rhf"
			},
			{
				"type": "occ",
				"energy": -0.24775,
				"method": "rhf"
			},
			{
				"type": "occ",
				"energy": -0.23255,
				"method": "rhf"
			},
			{
				"type": "occ",
				"energy": -0.20828,
				"method": "rhf"
			},
			{
				"type": "unocc",
				"energy": -0.03386,
				"method": "rhf"
			},
			{
				"type": "unocc",
				"energy": -0.02629,
				"method": "rhf"
			},
			{
				"type": "unocc",
				"energy": -0.02354,
				"method": "rhf"
			},
			{
				"type": "unocc",
				"energy": 0.03701,
				"method": "rhf"
			},
			{
				"type": "unocc",
				"energy": 0.06853,
				"method": "rhf"
			}
		],
		"cosmo_sigma_profile": { 
			"-0.025": 0.0,
			"-0.024": 0.0,
			"-0.023": 0.0,
			"-0.022": 0.0,
			"-0.021": 0.0,
			"-0.02": 0.0,
			"-0.019": 0.0,
			"-0.018": 0.0,
			"-0.017": 0.0,
			"-0.016": 0.0,
			"-0.015": 0.0,
			"-0.014": 0.0,
			"-0.013": 0.0,
			"-0.012": 0.0,
			"-0.011": 0.0,
			"-0.01": 0.0,
			"-0.009": 0.0,
			"-0.008": 2.68813113773,
			"-0.007": 7.72273981915,
			"-0.006": 8.70692416465,
			"-0.005": 16.2075191003,
			"-0.004": 21.9679806669,
			"-0.003": 25.7637827294,
			"-0.002": 21.1882807612,
			"-0.001": 26.4366529164,
			"0.0": 27.3925457598,
			"0.001": 19.9364232383,
			"0.002": 20.2600759236,
			"0.003": 16.2525308922,
			"0.004": 16.3401253086,
			"0.005": 7.40156117896,
			"0.006": 5.52164220454,
			"0.007": 3.45562168387,
			"0.008": 1.2782927331,
			"0.009": 1.74468212743,
			"0.01": 2.4639153616,
			"0.011": 1.9332147336,
			"0.012": 3.27702900962,
			"0.013": 2.97286246642,
			"0.014": 1.48485433799,
			"0.015": 0.206065116675,
			"0.016": 0.0,
			"0.017": 0.0,
			"0.018": 0.0,
			"0.019": 0.0,
			"0.02": 0.0,
			"0.021": 0.0,
			"0.022": 0.0,
			"0.023": 0.0,
			"0.024": 0.0,
			"0.0": 0.0
		}
	}
}
