{
	 "smiles": "CCCCCOC(=O)CC", 
	 "Tm": 200.05, 
	 "num_atms": 26, 
	 "gaussian": { 
		 "optdone": 1, 
		 "sigma_profile": "yes", 
		 "theory": "DFT", 
		 "functional": "B3LYP", 
		 "basiset": "6-31G**", 
		 "properties": { 
			 "R2extent": 2690.2544, 
			 "electric_dipole_moment_norm": 1.81129123556, 
			 "electric_quadrupole_moment_norm": 12.4586716924, 
			 "total_energy": -464.972201494, 
			 "HOMO_LUMO_gap": 0.27803, 
			 "cosmo_polarized_energy": -5.95, 
			 "cosmo_cavitation_energy": 28.0, 
			 "cosmo_dispersion_energy": -19.17, 
			 "cosmo_repulsion_energy": 1.61, 
			 "cosmo_total_nonelectrostatic_energy": 10.44, 
			 "SMD_solvation_energy": 5.46 
		},
		"coords": [
			{
				"x": 0.6569108591,
				"y": 1.6468517287,
				"z": 0.069238912,
				"element": "C" 
			},
			{
				"x": 0.9127461167,
				"y": 0.5548678887,
				"z": 1.1145758822,
				"element": "C" 
			},
			{
				"x": 0.279832194,
				"y": 0.8370975811,
				"z": 2.4892084204,
				"element": "C" 
			},
			{
				"x": -1.2568108998,
				"y": 0.9069673582,
				"z": 2.5435893209,
				"element": "C" 
			},
			{
				"x": -1.9941308276,
				"y": -0.4120801199,
				"z": 2.3189022946,
				"element": "C" 
			},
			{
				"x": -1.901466385,
				"y": -0.890953441,
				"z": 0.9538923869,
				"element": "O" 
			},
			{
				"x": -2.8340085075,
				"y": -0.4311053194,
				"z": 0.083975613,
				"element": "C" 
			},
			{
				"x": -3.7093437161,
				"y": 0.3518850823,
				"z": 0.3865024842,
				"element": "O" 
			},
			{
				"x": -2.628795493,
				"y": -1.0199991325,
				"z": -1.2985445395,
				"element": "C" 
			},
			{
				"x": -2.6145929878,
				"y": -2.5559476399,
				"z": -1.3175981942,
				"element": "C" 
			},
			{
				"x": 1.1790066464,
				"y": 1.4245840488,
				"z": -0.8674718919,
				"element": "H" 
			},
			{
				"x": -0.4077601217,
				"y": 1.7488875336,
				"z": -0.1656332605,
				"element": "H" 
			},
			{
				"x": 1.0102667362,
				"y": 2.6235297694,
				"z": 0.4207256932,
				"element": "H" 
			},
			{
				"x": 0.5542664149,
				"y": -0.4076049421,
				"z": 0.7343510064,
				"element": "H" 
			},
			{
				"x": 1.9960469236,
				"y": 0.4476223517,
				"z": 1.2563334854,
				"element": "H" 
			},
			{
				"x": 0.6761503928,
				"y": 1.7901060193,
				"z": 2.8658716509,
				"element": "H" 
			},
			{
				"x": 0.6183335338,
				"y": 0.0698687,
				"z": 3.1997013147,
				"element": "H" 
			},
			{
				"x": -1.6484777085,
				"y": 1.6512502868,
				"z": 1.8420384883,
				"element": "H" 
			},
			{
				"x": -1.5502921356,
				"y": 1.2558841001,
				"z": 3.5429515532,
				"element": "H" 
			},
			{
				"x": -1.5574074604,
				"y": -1.2152893381,
				"z": 2.9199571215,
				"element": "H" 
			},
			{
				"x": -3.0513454378,
				"y": -0.3021542765,
				"z": 2.5714278994,
				"element": "H" 
			},
			{
				"x": -3.4253098621,
				"y": -0.6219610768,
				"z": -1.931307452,
				"element": "H" 
			},
			{
				"x": -1.6746750847,
				"y": -0.639462218,
				"z": -1.6841872693,
				"element": "H" 
			},
			{
				"x": -3.5597201368,
				"y": -2.9637843246,
				"z": -0.9453498525,
				"element": "H" 
			},
			{
				"x": -1.8068855832,
				"y": -2.9468311283,
				"z": -0.6944614272,
				"element": "H" 
			},
			{
				"x": -2.47103747,
				"y": -2.9219294915,
				"z": -2.3384896401,
				"element": "H" 
			}
		],
		 "valence_orbital": [ 
			{
				"type": "occ",
				"energy": -0.3292,
				"method": "rhf"
			},
			{
				"type": "occ",
				"energy": -0.32128,
				"method": "rhf"
			},
			{
				"type": "occ",
				"energy": -0.31259,
				"method": "rhf"
			},
			{
				"type": "occ",
				"energy": -0.28832,
				"method": "rhf"
			},
			{
				"type": "occ",
				"energy": -0.26427,
				"method": "rhf"
			},
			{
				"type": "unocc",
				"energy": 0.01376,
				"method": "rhf"
			},
			{
				"type": "unocc",
				"energy": 0.07881,
				"method": "rhf"
			},
			{
				"type": "unocc",
				"energy": 0.10199,
				"method": "rhf"
			},
			{
				"type": "unocc",
				"energy": 0.11124,
				"method": "rhf"
			},
			{
				"type": "unocc",
				"energy": 0.125,
				"method": "rhf"
			}
		],
		"cosmo_sigma_profile": { 
			"-0.025": 0.0,
			"-0.024": 0.0,
			"-0.023": 0.0,
			"-0.022": 0.0,
			"-0.021": 0.0,
			"-0.02": 0.0,
			"-0.019": 0.0,
			"-0.018": 0.0,
			"-0.017": 0.0,
			"-0.016": 0.0,
			"-0.015": 0.0,
			"-0.014": 0.0,
			"-0.013": 0.0,
			"-0.012": 0.0,
			"-0.011": 0.0,
			"-0.01": 0.0,
			"-0.009": 0.0,
			"-0.008": 0.0,
			"-0.007": 0.0,
			"-0.006": 0.223047184943,
			"-0.005": 4.87120551561,
			"-0.004": 15.4207562701,
			"-0.003": 27.5957535584,
			"-0.002": 34.8492938378,
			"-0.001": 32.7592130236,
			"0.0": 34.4606237104,
			"0.001": 26.2493410438,
			"0.002": 11.2111330388,
			"0.003": 3.54388851355,
			"0.004": 3.95702762599,
			"0.005": 3.07395612503,
			"0.006": 3.13431135251,
			"0.007": 2.15013900347,
			"0.008": 1.18919879679,
			"0.009": 1.34954943543,
			"0.01": 1.59567560768,
			"0.011": 2.70076366782,
			"0.012": 4.15317281219,
			"0.013": 2.23284622125,
			"0.014": 0.116554383929,
			"0.015": 0.0,
			"0.016": 0.0,
			"0.017": 0.0,
			"0.018": 0.0,
			"0.019": 0.0,
			"0.02": 0.0,
			"0.021": 0.0,
			"0.022": 0.0,
			"0.023": 0.0,
			"0.024": 0.0,
			"0.025": 0.0
		}
	}
}
