{
	 "smiles": "NS(=O)(=O)CC1=CC=C(CO)C=C1", 
	 "Tm": 392.15, 
	 "num_atms": 24, 
	 "gaussian": { 
		 "optdone": 1, 
		 "sigma_profile": "yes", 
		 "theory": "DFT", 
		 "functional": "B3LYP", 
		 "basiset": "6-31G**", 
		 "properties": { 
			 "R2extent": 3786.0273, 
			 "electric_dipole_moment_norm": 5.08483830028, 
			 "electric_quadrupole_moment_norm": 21.8312722572, 
			 "total_energy": -990.019350605, 
			 "HOMO_LUMO_gap": 0.22258, 
			 "cosmo_polarized_energy": -23.13, 
			 "cosmo_cavitation_energy": 29.21, 
			 "cosmo_dispersion_energy": -21.43, 
			 "cosmo_repulsion_energy": 1.67, 
			 "cosmo_total_nonelectrostatic_energy": 9.44, 
			 "SMD_solvation_energy": 4.42 
		},
		"coords": [
			{
				"x": -2.073234264,
				"y": 2.1543967606,
				"z": 0.8381082948,
				"element": "N" 
			},
			{
				"x": -0.9026428974,
				"y": 1.740099864,
				"z": 1.9650952571,
				"element": "S" 
			},
			{
				"x": -1.4722258602,
				"y": 0.6669412501,
				"z": 2.7794509371,
				"element": "O" 
			},
			{
				"x": -0.4273396321,
				"y": 2.9961801752,
				"z": 2.544955995,
				"element": "O" 
			},
			{
				"x": 0.5061747406,
				"y": 1.0231792839,
				"z": 1.0258862925,
				"element": "C" 
			},
			{
				"x": 0.1186595388,
				"y": -0.1153019153,
				"z": 0.1244109124,
				"element": "C" 
			},
			{
				"x": -0.1932694987,
				"y": -1.3779803696,
				"z": 0.6511250511,
				"element": "C" 
			},
			{
				"x": -0.5605536707,
				"y": -2.4233143856,
				"z": -0.192748359,
				"element": "C" 
			},
			{
				"x": -0.6368797065,
				"y": -2.2370629576,
				"z": -1.5790053866,
				"element": "C" 
			},
			{
				"x": -1.0702375578,
				"y": -3.3696151422,
				"z": -2.4920140097,
				"element": "C" 
			},
			{
				"x": -0.5723856885,
				"y": -3.2612605753,
				"z": -3.8163399909,
				"element": "O" 
			},
			{
				"x": -0.328590934,
				"y": -0.9782171286,
				"z": -2.1054679727,
				"element": "C" 
			},
			{
				"x": 0.0436069246,
				"y": 0.0691750333,
				"z": -1.2630368878,
				"element": "C" 
			},
			{
				"x": -1.8053347531,
				"y": 2.9425205737,
				"z": 0.2582158054,
				"element": "H" 
			},
			{
				"x": -2.4212227898,
				"y": 1.360013875,
				"z": 0.3107502177,
				"element": "H" 
			},
			{
				"x": 1.20273757,
				"y": 0.719779716,
				"z": 1.813220148,
				"element": "H" 
			},
			{
				"x": 0.9511005143,
				"y": 1.8572566961,
				"z": 0.4776557411,
				"element": "H" 
			},
			{
				"x": -0.1535248329,
				"y": -1.5338348442,
				"z": 1.7245070323,
				"element": "H" 
			},
			{
				"x": -0.7873932155,
				"y": -3.3981733192,
				"z": 0.2326401563,
				"element": "H" 
			},
			{
				"x": -2.1622150359,
				"y": -3.3648004655,
				"z": -2.59518518,
				"element": "H" 
			},
			{
				"x": -0.8023980728,
				"y": -4.3346219407,
				"z": -2.033853386,
				"element": "H" 
			},
			{
				"x": 0.3926316814,
				"y": -3.2926132052,
				"z": -3.7696627992,
				"element": "H" 
			},
			{
				"x": -0.3761037186,
				"y": -0.8316488198,
				"z": -3.1799050734,
				"element": "H" 
			},
			{
				"x": 0.292141159,
				"y": 1.038101841,
				"z": -1.6904027956,
				"element": "H" 
			}
		],
		 "valence_orbital": [ 
			{
				"type": "occ",
				"energy": -0.30638,
				"method": "rhf"
			},
			{
				"type": "occ",
				"energy": -0.29973,
				"method": "rhf"
			},
			{
				"type": "occ",
				"energy": -0.28901,
				"method": "rhf"
			},
			{
				"type": "occ",
				"energy": -0.26781,
				"method": "rhf"
			},
			{
				"type": "occ",
				"energy": -0.25317,
				"method": "rhf"
			},
			{
				"type": "unocc",
				"energy": -0.03059,
				"method": "rhf"
			},
			{
				"type": "unocc",
				"energy": -0.02079,
				"method": "rhf"
			},
			{
				"type": "unocc",
				"energy": 0.04921,
				"method": "rhf"
			},
			{
				"type": "unocc",
				"energy": 0.07037,
				"method": "rhf"
			},
			{
				"type": "unocc",
				"energy": 0.07965,
				"method": "rhf"
			}
		],
		"cosmo_sigma_profile": { 
			"-0.025": 0.0,
			"-0.024": 0.0,
			"-0.023": 0.0,
			"-0.022": 0.0,
			"-0.021": 0.0,
			"-0.02": 0.0,
			"-0.019": 0.0,
			"-0.018": 0.0,
			"-0.017": 0.0,
			"-0.016": 0.31656627816,
			"-0.015": 2.44595742285,
			"-0.014": 2.81786073869,
			"-0.013": 2.83713059478,
			"-0.012": 3.14871628227,
			"-0.011": 3.94437615295,
			"-0.01": 3.17163920619,
			"-0.009": 3.70315709561,
			"-0.008": 7.90143773582,
			"-0.007": 7.30704278086,
			"-0.006": 11.9661813235,
			"-0.005": 17.2166440542,
			"-0.004": 16.4408158481,
			"-0.003": 14.7705917658,
			"-0.002": 12.6225868575,
			"-0.001": 10.1570195049,
			"0.0": 7.48812687778,
			"0.001": 8.86883954332,
			"0.002": 9.05667171922,
			"0.003": 10.3206483193,
			"0.004": 11.6041625116,
			"0.005": 8.76069407261,
			"0.006": 4.46811347933,
			"0.007": 4.80324958098,
			"0.008": 5.94069031696,
			"0.009": 5.68458974831,
			"0.01": 6.53394557189,
			"0.011": 12.4559969868,
			"0.012": 9.46231761323,
			"0.013": 2.45459051027,
			"0.014": 1.70227291824,
			"0.015": 0.0316662820037,
			"0.016": 0.0,
			"0.017": 0.0,
			"0.018": 0.0,
			"0.019": 0.0,
			"0.02": 0.0,
			"0.021": 0.0,
			"0.022": 0.0,
			"0.023": 0.0,
			"0.024": 0.0,
			"0.025": 0.0
		}
	}
}
