{
	 "smiles": "COC1=NC=CC=C1N", 
	 "Tm": 340.65, 
	 "num_atms": 17, 
	 "gaussian": { 
		 "optdone": 1, 
		 "sigma_profile": "yes", 
		 "theory": "DFT", 
		 "functional": "B3LYP", 
		 "basiset": "6-31G**", 
		 "properties": { 
			 "R2extent": 1280.0466, 
			 "electric_dipole_moment_norm": 1.82819349359, 
			 "electric_quadrupole_moment_norm": 6.5952762391, 
			 "total_energy": -418.181300908, 
			 "HOMO_LUMO_gap": 0.19285, 
			 "cosmo_polarized_energy": -8.69, 
			 "cosmo_cavitation_energy": 20.61, 
			 "cosmo_dispersion_energy": -15.68, 
			 "cosmo_repulsion_energy": 1.3, 
			 "cosmo_total_nonelectrostatic_energy": 6.23, 
			 "SMD_solvation_energy": 3.54 
		},
		"coords": [
			{
				"x": 1.8545272397,
				"y": -1.680754971,
				"z": -1.524168953,
				"element": "C" 
			},
			{
				"x": 1.2623783172,
				"y": -0.389431374,
				"z": -1.3774966723,
				"element": "O" 
			},
			{
				"x": 0.0298358838,
				"y": -0.3437488853,
				"z": -0.7970418756,
				"element": "C" 
			},
			{
				"x": -0.5614883113,
				"y": -1.4513616656,
				"z": -0.4004581039,
				"element": "N" 
			},
			{
				"x": -1.7854423793,
				"y": -1.3552028043,
				"z": 0.1580567139,
				"element": "C" 
			},
			{
				"x": -2.4360351826,
				"y": -0.1423401244,
				"z": 0.3204459579,
				"element": "C" 
			},
			{
				"x": -1.7974187316,
				"y": 1.0302354512,
				"z": -0.1069145976,
				"element": "C" 
			},
			{
				"x": -0.5306013557,
				"y": 0.9573911015,
				"z": -0.6800047595,
				"element": "C" 
			},
			{
				"x": 0.2081269351,
				"y": 2.0654081974,
				"z": -1.0805849683,
				"element": "N" 
			},
			{
				"x": 1.9902260319,
				"y": -2.1633431256,
				"z": -0.5519461035,
				"element": "H" 
			},
			{
				"x": 2.8212058885,
				"y": -1.5073196684,
				"z": -1.9998909006,
				"element": "H" 
			},
			{
				"x": 1.2339762847,
				"y": -2.3311187438,
				"z": -2.1480206679,
				"element": "H" 
			},
			{
				"x": -2.2421893828,
				"y": -2.2895291255,
				"z": 0.4746064909,
				"element": "H" 
			},
			{
				"x": -3.4228773567,
				"y": -0.1006730346,
				"z": 0.7698648873,
				"element": "H" 
			},
			{
				"x": -2.2792224191,
				"y": 1.997861817,
				"z": 0.0095212795,
				"element": "H" 
			},
			{
				"x": -0.3336224976,
				"y": 2.8748312463,
				"z": -1.3491157128,
				"element": "H" 
			},
			{
				"x": 0.9529210356,
				"y": 1.8489957091,
				"z": -1.7284520146,
				"element": "H" 
			}
		],
		 "valence_orbital": [ 
			{
				"type": "occ",
				"energy": -0.32585,
				"method": "rhf"
			},
			{
				"type": "occ",
				"energy": -0.31777,
				"method": "rhf"
			},
			{
				"type": "occ",
				"energy": -0.25662,
				"method": "rhf"
			},
			{
				"type": "occ",
				"energy": -0.25173,
				"method": "rhf"
			},
			{
				"type": "occ",
				"energy": -0.19467,
				"method": "rhf"
			},
			{
				"type": "unocc",
				"energy": -0.00182,
				"method": "rhf"
			},
			{
				"type": "unocc",
				"energy": 0.01967,
				"method": "rhf"
			},
			{
				"type": "unocc",
				"energy": 0.08821,
				"method": "rhf"
			},
			{
				"type": "unocc",
				"energy": 0.10804,
				"method": "rhf"
			},
			{
				"type": "unocc",
				"energy": 0.12468,
				"method": "rhf"
			}
		],
		"cosmo_sigma_profile": { 
			"-0.025": 0.0,
			"-0.024": 0.0,
			"-0.023": 0.0,
			"-0.022": 0.0,
			"-0.021": 0.0,
			"-0.02": 0.0,
			"-0.019": 0.0,
			"-0.018": 0.0,
			"-0.017": 0.0,
			"-0.016": 0.0,
			"-0.015": 0.0,
			"-0.014": 0.0,
			"-0.013": 0.661193429377,
			"-0.012": 1.60704243008,
			"-0.011": 1.63616445185,
			"-0.01": 2.39946231313,
			"-0.009": 2.45152619322,
			"-0.008": 2.94778121003,
			"-0.007": 3.03769645798,
			"-0.006": 6.14020798208,
			"-0.005": 10.6796648637,
			"-0.004": 12.5255347093,
			"-0.003": 15.4576910643,
			"-0.002": 12.5125315495,
			"-0.001": 8.52605371135,
			"0.0": 7.56134533133,
			"0.001": 8.19269713801,
			"0.002": 11.6747264959,
			"0.003": 9.91511151707,
			"0.004": 12.4004324477,
			"0.005": 11.8915297767,
			"0.006": 5.75854181789,
			"0.007": 3.01585359797,
			"0.008": 3.01011083475,
			"0.009": 2.3095100674,
			"0.01": 1.5096392733,
			"0.011": 1.63642199969,
			"0.012": 1.72595237864,
			"0.013": 1.43636407952,
			"0.014": 0.892682041468,
			"0.015": 0.0557457977155,
			"0.016": 0.0,
			"0.017": 0.0,
			"0.018": 0.0,
			"0.019": 0.0,
			"0.02": 0.0,
			"0.021": 0.0,
			"0.022": 0.0,
			"0.023": 0.0,
			"0.024": 0.0,
			"0.025": 0.0
		}
	}
}
