{
	 "smiles": "ClC1=CC=C(SSC2=CC=C(Cl)C=C2)C=C1", 
	 "Tm": 343.65, 
	 "num_atms": 24, 
	 "gaussian": { 
		 "optdone": 1, 
		 "sigma_profile": "yes", 
		 "theory": "DFT", 
		 "functional": "B3LYP", 
		 "basiset": "6-31G**", 
		 "properties": { 
			 "R2extent": 7802.1092, 
			 "electric_dipole_moment_norm": 0.275672504976, 
			 "electric_quadrupole_moment_norm": 5.5525587471, 
			 "total_energy": -2178.85932195, 
			 "HOMO_LUMO_gap": 0.17035, 
			 "cosmo_polarized_energy": -6.87, 
			 "cosmo_cavitation_energy": 36.61, 
			 "cosmo_dispersion_energy": -26.04, 
			 "cosmo_repulsion_energy": 1.98, 
			 "cosmo_total_nonelectrostatic_energy": 12.55, 
			 "SMD_solvation_energy": 4.31 
		},
		"coords": [
			{
				"x": -4.3093013187,
				"y": -2.3174725951,
				"z": 1.7402543936,
				"element": "Cl" 
			},
			{
				"x": -2.5982599276,
				"y": -2.0139758167,
				"z": 1.985995259,
				"element": "C" 
			},
			{
				"x": -2.1285333751,
				"y": -0.7007317123,
				"z": 1.9787132276,
				"element": "C" 
			},
			{
				"x": -0.7672217203,
				"y": -0.4660470564,
				"z": 2.172246831,
				"element": "C" 
			},
			{
				"x": 0.1159019217,
				"y": -1.5353165742,
				"z": 2.3755795439,
				"element": "C" 
			},
			{
				"x": 1.8512183442,
				"y": -1.2087219656,
				"z": 2.6821762393,
				"element": "S" 
			},
			{
				"x": 2.7778812191,
				"y": -1.5034212378,
				"z": 0.7975113219,
				"element": "S" 
			},
			{
				"x": 2.5141750038,
				"y": 0.0426273773,
				"z": -0.0698195129,
				"element": "C" 
			},
			{
				"x": 1.4547539848,
				"y": 0.1579802983,
				"z": -0.9803544694,
				"element": "C" 
			},
			{
				"x": 1.2638160447,
				"y": 1.3396289358,
				"z": -1.6964129556,
				"element": "C" 
			},
			{
				"x": 2.1395612566,
				"y": 2.4058161721,
				"z": -1.4919582313,
				"element": "C" 
			},
			{
				"x": 1.9044257484,
				"y": 3.8966424976,
				"z": -2.3876717979,
				"element": "Cl" 
			},
			{
				"x": 3.2019063117,
				"y": 2.3100293031,
				"z": -0.5908384832,
				"element": "C" 
			},
			{
				"x": 3.3869366121,
				"y": 1.1240042098,
				"z": 0.1162040618,
				"element": "C" 
			},
			{
				"x": -0.3778076235,
				"y": -2.8475462441,
				"z": 2.3860340197,
				"element": "C" 
			},
			{
				"x": -1.734737536,
				"y": -3.0926460766,
				"z": 2.1878522578,
				"element": "C" 
			},
			{
				"x": -2.816652295,
				"y": 0.1227821866,
				"z": 1.8233500004,
				"element": "H" 
			},
			{
				"x": -0.388073719,
				"y": 0.5504884364,
				"z": 2.1692606285,
				"element": "H" 
			},
			{
				"x": 0.7819355136,
				"y": -0.679791054,
				"z": -1.1304447224,
				"element": "H" 
			},
			{
				"x": 0.4471720828,
				"y": 1.4337874235,
				"z": -2.4035563888,
				"element": "H" 
			},
			{
				"x": 3.8735450138,
				"y": 3.1497727611,
				"z": -0.4511063313,
				"element": "H" 
			},
			{
				"x": 4.2109302355,
				"y": 1.0348658109,
				"z": 0.8165420058,
				"element": "H" 
			},
			{
				"x": 0.3032582657,
				"y": -3.6764259324,
				"z": 2.5488079851,
				"element": "H" 
			},
			{
				"x": -2.1223300435,
				"y": -4.1053291475,
				"z": 2.1945351172,
				"element": "H" 
			}
		],
		 "valence_orbital": [ 
			{
				"type": "occ",
				"energy": -0.27567,
				"method": "rhf"
			},
			{
				"type": "occ",
				"energy": -0.26662,
				"method": "rhf"
			},
			{
				"type": "occ",
				"energy": -0.25996,
				"method": "rhf"
			},
			{
				"type": "occ",
				"energy": -0.25495,
				"method": "rhf"
			},
			{
				"type": "occ",
				"energy": -0.24303,
				"method": "rhf"
			},
			{
				"type": "unocc",
				"energy": -0.07268,
				"method": "rhf"
			},
			{
				"type": "unocc",
				"energy": -0.02974,
				"method": "rhf"
			},
			{
				"type": "unocc",
				"energy": -0.0271,
				"method": "rhf"
			},
			{
				"type": "unocc",
				"energy": -0.02394,
				"method": "rhf"
			},
			{
				"type": "unocc",
				"energy": 0.00328,
				"method": "rhf"
			}
		],
		"cosmo_sigma_profile": { 
			"-0.025": 0.0,
			"-0.024": 0.0,
			"-0.023": 0.0,
			"-0.022": 0.0,
			"-0.021": 0.0,
			"-0.02": 0.0,
			"-0.019": 0.0,
			"-0.018": 0.0,
			"-0.017": 0.0,
			"-0.016": 0.0,
			"-0.015": 0.0,
			"-0.014": 0.0,
			"-0.013": 0.0,
			"-0.012": 0.0,
			"-0.011": 0.0,
			"-0.01": 0.0,
			"-0.009": 0.0,
			"-0.008": 4.27527054868,
			"-0.007": 15.5266401544,
			"-0.006": 14.5051368602,
			"-0.005": 13.1851206244,
			"-0.004": 11.4964568377,
			"-0.003": 11.7620110048,
			"-0.002": 17.4135899401,
			"-0.001": 24.3751842372,
			"0.0": 31.6840961999,
			"0.001": 39.3467205354,
			"0.002": 42.4521525396,
			"0.003": 32.0846660594,
			"0.004": 26.4697038526,
			"0.005": 10.9585919747,
			"0.006": 4.43751455958,
			"0.007": 3.08958662423,
			"0.008": 0.423488682263,
			"0.009": 0.0,
			"0.01": 0.0,
			"0.011": 0.0,
			"0.012": 0.0,
			"0.013": 0.0,
			"0.014": 0.0,
			"0.015": 0.0,
			"0.016": 0.0,
			"0.017": 0.0,
			"0.018": 0.0,
			"0.019": 0.0,
			"0.02": 0.0,
			"0.021": 0.0,
			"0.022": 0.0,
			"0.023": 0.0,
			"0.024": 0.0,
			"0.025": 0.0
		}
	}
}
