{
	 "smiles": "ClC1=NC(=C(Cl)N=C1)C1=CC=CC=C1", 
	 "Tm": 326.15, 
	 "num_atms": 20, 
	 "gaussian": { 
		 "optdone": 1, 
		 "sigma_profile": "yes", 
		 "theory": "DFT", 
		 "functional": "B3LYP", 
		 "basiset": "6-31G**", 
		 "properties": { 
			 "R2extent": 4494.8551, 
			 "electric_dipole_moment_norm": 1.42086731963, 
			 "electric_quadrupole_moment_norm": 7.83151522823, 
			 "total_energy": -1414.55634215, 
			 "HOMO_LUMO_gap": 0.17156, 
			 "cosmo_polarized_energy": -6.67, 
			 "cosmo_cavitation_energy": 28.45, 
			 "cosmo_dispersion_energy": -21.22, 
			 "cosmo_repulsion_energy": 1.67, 
			 "cosmo_total_nonelectrostatic_energy": 8.9, 
			 "SMD_solvation_energy": 1.87 
		},
		"coords": [
			{
				"x": 2.496553821,
				"y": 0.3927606795,
				"z": 4.3484711285,
				"element": "Cl" 
			},
			{
				"x": 2.2376645521,
				"y": -0.365251857,
				"z": 2.7885361973,
				"element": "C" 
			},
			{
				"x": 1.4038157414,
				"y": 0.2149691632,
				"z": 1.9518647994,
				"element": "N" 
			},
			{
				"x": 1.1960982395,
				"y": -0.3365530083,
				"z": 0.7403205548,
				"element": "C" 
			},
			{
				"x": 1.9401131898,
				"y": -1.498888446,
				"z": 0.416372782,
				"element": "C" 
			},
			{
				"x": 1.8938730384,
				"y": -2.2197786279,
				"z": -1.1849837037,
				"element": "Cl" 
			},
			{
				"x": 2.7583810585,
				"y": -2.0891449071,
				"z": 1.2707042886,
				"element": "N" 
			},
			{
				"x": 2.9123547998,
				"y": -1.5486284419,
				"z": 2.4777531751,
				"element": "C" 
			},
			{
				"x": 0.220954761,
				"y": 0.3645466721,
				"z": -0.1309988758,
				"element": "C" 
			},
			{
				"x": 0.1708470143,
				"y": 1.7681999164,
				"z": -0.0793176386,
				"element": "C" 
			},
			{
				"x": -0.7480286997,
				"y": 2.4725908005,
				"z": -0.8523049915,
				"element": "C" 
			},
			{
				"x": -1.6464943209,
				"y": 1.7860294062,
				"z": -1.6723342238,
				"element": "C" 
			},
			{
				"x": -1.6208326806,
				"y": 0.3911001781,
				"z": -1.7114298508,
				"element": "C" 
			},
			{
				"x": -0.6922510001,
				"y": -0.3176813004,
				"z": -0.950721921,
				"element": "C" 
			},
			{
				"x": 3.5738074113,
				"y": -2.0423313762,
				"z": 3.182771707,
				"element": "H" 
			},
			{
				"x": 0.8588276296,
				"y": 2.2947848907,
				"z": 0.573111586,
				"element": "H" 
			},
			{
				"x": -0.7656069047,
				"y": 3.557646095,
				"z": -0.8115740153,
				"element": "H" 
			},
			{
				"x": -2.3661407065,
				"y": 2.3349246637,
				"z": -2.2727419745,
				"element": "H" 
			},
			{
				"x": -2.327907757,
				"y": -0.1502976728,
				"z": -2.3328264282,
				"element": "H" 
			},
			{
				"x": -0.6945291872,
				"y": -1.400596828,
				"z": -0.9804725956,
				"element": "H" 
			}
		],
		 "valence_orbital": [ 
			{
				"type": "occ",
				"energy": -0.31332,
				"method": "rhf"
			},
			{
				"type": "occ",
				"energy": -0.28182,
				"method": "rhf"
			},
			{
				"type": "occ",
				"energy": -0.28071,
				"method": "rhf"
			},
			{
				"type": "occ",
				"energy": -0.26081,
				"method": "rhf"
			},
			{
				"type": "occ",
				"energy": -0.2477,
				"method": "rhf"
			},
			{
				"type": "unocc",
				"energy": -0.07614,
				"method": "rhf"
			},
			{
				"type": "unocc",
				"energy": -0.05578,
				"method": "rhf"
			},
			{
				"type": "unocc",
				"energy": -0.01104,
				"method": "rhf"
			},
			{
				"type": "unocc",
				"energy": -0.00031,
				"method": "rhf"
			},
			{
				"type": "unocc",
				"energy": 0.01922,
				"method": "rhf"
			}
		],
		"cosmo_sigma_profile": { 
			"-0.025": 0.0,
			"-0.024": 0.0,
			"-0.023": 0.0,
			"-0.022": 0.0,
			"-0.021": 0.0,
			"-0.02": 0.0,
			"-0.019": 0.0,
			"-0.018": 0.0,
			"-0.017": 0.0,
			"-0.016": 0.0,
			"-0.015": 0.0,
			"-0.014": 0.0,
			"-0.013": 0.0,
			"-0.012": 0.0,
			"-0.011": 0.0,
			"-0.01": 0.468424859622,
			"-0.009": 1.84898665735,
			"-0.008": 1.68164376956,
			"-0.007": 2.65176647935,
			"-0.006": 11.2710199574,
			"-0.005": 16.4296514082,
			"-0.004": 18.724124293,
			"-0.003": 20.7482866711,
			"-0.002": 18.3277825899,
			"-0.001": 15.9086214491,
			"0.0": 15.4912317465,
			"0.001": 18.3499068197,
			"0.002": 18.4672651328,
			"0.003": 26.3166685681,
			"0.004": 24.8176622788,
			"0.005": 9.59555936145,
			"0.006": 3.30777039675,
			"0.007": 2.53453327857,
			"0.008": 2.61298623693,
			"0.009": 1.61760469611,
			"0.01": 1.96253607835,
			"0.011": 0.932924695875,
			"0.012": 0.568242061258,
			"0.013": 0.103932635115,
			"0.014": 0.0,
			"0.015": 0.0,
			"0.016": 0.0,
			"0.017": 0.0,
			"0.018": 0.0,
			"0.019": 0.0,
			"0.02": 0.0,
			"0.021": 0.0,
			"0.022": 0.0,
			"0.023": 0.0,
			"0.024": 0.0,
			"0.025": 0.0
		}
	}
}
