{
	 "smiles": "CCN(CC)S(=O)(=O)C1=CC(N)=CC=C1", 
	 "Tm": 358.15, 
	 "num_atms": 31, 
	 "gaussian": { 
		 "optdone": 1, 
		 "sigma_profile": "yes", 
		 "theory": "DFT", 
		 "functional": "B3LYP", 
		 "basiset": "6-31G**", 
		 "properties": { 
			 "R2extent": 4277.2842, 
			 "electric_dipole_moment_norm": 5.57876924509, 
			 "electric_quadrupole_moment_norm": 22.5876337656, 
			 "total_energy": -1048.78210513, 
			 "HOMO_LUMO_gap": 0.18745, 
			 "cosmo_polarized_energy": -17.51, 
			 "cosmo_cavitation_energy": 34.73, 
			 "cosmo_dispersion_energy": -24.14, 
			 "cosmo_repulsion_energy": 1.87, 
			 "cosmo_total_nonelectrostatic_energy": 12.45, 
			 "SMD_solvation_energy": 5.15 
		},
		"coords": [
			{
				"x": -1.7399583253,
				"y": -0.0535531746,
				"z": 2.492656227,
				"element": "C" 
			},
			{
				"x": -1.9730104923,
				"y": -0.7601077372,
				"z": 1.1579405813,
				"element": "C" 
			},
			{
				"x": -2.2824633586,
				"y": 0.2018027677,
				"z": 0.0819598178,
				"element": "N" 
			},
			{
				"x": -3.6275829623,
				"y": 0.833062992,
				"z": 0.1261629613,
				"element": "C" 
			},
			{
				"x": -3.5521622318,
				"y": 2.3571106201,
				"z": 0.170795046,
				"element": "C" 
			},
			{
				"x": -1.7802461185,
				"y": -0.2847983488,
				"z": -1.4631172568,
				"element": "S" 
			},
			{
				"x": -2.0216608078,
				"y": -1.7201617254,
				"z": -1.6837667776,
				"element": "O" 
			},
			{
				"x": -2.3461448341,
				"y": 0.6974846415,
				"z": -2.3952550912,
				"element": "O" 
			},
			{
				"x": 0.0004403131,
				"y": -0.0525619011,
				"z": -1.3550233688,
				"element": "C" 
			},
			{
				"x": 0.8184943687,
				"y": -1.1308346957,
				"z": -1.6770883088,
				"element": "C" 
			},
			{
				"x": 2.2161269845,
				"y": -0.9701051514,
				"z": -1.6641589152,
				"element": "C" 
			},
			{
				"x": 3.0499309962,
				"y": -2.0188601782,
				"z": -2.0359986622,
				"element": "N" 
			},
			{
				"x": 2.7435376669,
				"y": 0.2872748891,
				"z": -1.3201466869,
				"element": "C" 
			},
			{
				"x": 1.9013234588,
				"y": 1.3521355871,
				"z": -1.0044986247,
				"element": "C" 
			},
			{
				"x": 0.5151594808,
				"y": 1.2018391198,
				"z": -1.0195943071,
				"element": "C" 
			},
			{
				"x": -2.6264192873,
				"y": 0.4962117744,
				"z": 2.8241279513,
				"element": "H" 
			},
			{
				"x": -1.4983063219,
				"y": -0.7887385785,
				"z": 3.2673304903,
				"element": "H" 
			},
			{
				"x": -0.9102297174,
				"y": 0.6544621456,
				"z": 2.4121692779,
				"element": "H" 
			},
			{
				"x": -1.0651360982,
				"y": -1.2998116393,
				"z": 0.8751903756,
				"element": "H" 
			},
			{
				"x": -2.7705418745,
				"y": -1.5118782573,
				"z": 1.2458406281,
				"element": "H" 
			},
			{
				"x": -4.1276923558,
				"y": 0.447009731,
				"z": 1.0203595926,
				"element": "H" 
			},
			{
				"x": -4.2284282195,
				"y": 0.5155286053,
				"z": -0.7314825611,
				"element": "H" 
			},
			{
				"x": -2.9694287605,
				"y": 2.6968403507,
				"z": 1.032733683,
				"element": "H" 
			},
			{
				"x": -4.5582084109,
				"y": 2.7852297826,
				"z": 0.2437022668,
				"element": "H" 
			},
			{
				"x": -3.0843233104,
				"y": 2.7371151606,
				"z": -0.7404648296,
				"element": "H" 
			},
			{
				"x": 0.3665211246,
				"y": -2.0821304248,
				"z": -1.9386393069,
				"element": "H" 
			},
			{
				"x": 2.6525210046,
				"y": -2.9450148877,
				"z": -1.9714316287,
				"element": "H" 
			},
			{
				"x": 3.9987795336,
				"y": -1.9752195347,
				"z": -1.6931805519,
				"element": "H" 
			},
			{
				"x": 3.8215237983,
				"y": 0.4272643269,
				"z": -1.3075105408,
				"element": "H" 
			},
			{
				"x": 2.3355268849,
				"y": 2.3127677369,
				"z": -0.7429939958,
				"element": "H" 
			},
			{
				"x": -0.1469421281,
				"y": 2.0228360032,
				"z": -0.7726174848,
				"element": "H" 
			}
		],
		 "valence_orbital": [ 
			{
				"type": "occ",
				"energy": -0.29703,
				"method": "rhf"
			},
			{
				"type": "occ",
				"energy": -0.28703,
				"method": "rhf"
			},
			{
				"type": "occ",
				"energy": -0.26546,
				"method": "rhf"
			},
			{
				"type": "occ",
				"energy": -0.24176,
				"method": "rhf"
			},
			{
				"type": "occ",
				"energy": -0.21539,
				"method": "rhf"
			},
			{
				"type": "unocc",
				"energy": -0.02794,
				"method": "rhf"
			},
			{
				"type": "unocc",
				"energy": -0.00065,
				"method": "rhf"
			},
			{
				"type": "unocc",
				"energy": 0.06559,
				"method": "rhf"
			},
			{
				"type": "unocc",
				"energy": 0.07173,
				"method": "rhf"
			},
			{
				"type": "unocc",
				"energy": 0.08152,
				"method": "rhf"
			}
		],
		"cosmo_sigma_profile": { 
			"-0.025": 0.0,
			"-0.024": 0.0,
			"-0.023": 0.0,
			"-0.022": 0.0,
			"-0.021": 0.0,
			"-0.02": 0.0,
			"-0.019": 0.0,
			"-0.018": 0.0,
			"-0.017": 0.0,
			"-0.016": 0.0,
			"-0.015": 0.0,
			"-0.014": 0.0466716309096,
			"-0.013": 1.72672135242,
			"-0.012": 3.48460426547,
			"-0.011": 2.66172536086,
			"-0.01": 3.60981719871,
			"-0.009": 3.04716443779,
			"-0.008": 3.00465926057,
			"-0.007": 3.80763243572,
			"-0.006": 8.04932113135,
			"-0.005": 13.7997881493,
			"-0.004": 21.3655686138,
			"-0.003": 25.5062765592,
			"-0.002": 27.7742614959,
			"-0.001": 21.9147154034,
			"0.0": 26.1785158991,
			"0.001": 18.4431072644,
			"0.002": 13.9269405216,
			"0.003": 11.9233495215,
			"0.004": 15.535506609,
			"0.005": 7.86317378389,
			"0.006": 4.35221224864,
			"0.007": 3.44483711956,
			"0.008": 4.36125223464,
			"0.009": 4.30994756063,
			"0.01": 5.60759330323,
			"0.011": 8.74555621864,
			"0.012": 7.37380917052,
			"0.013": 1.04022875799,
			"0.014": 0.0507264563327,
			"0.015": 0.0,
			"0.016": 0.0,
			"0.017": 0.0,
			"0.018": 0.0,
			"0.019": 0.0,
			"0.02": 0.0,
			"0.021": 0.0,
			"0.022": 0.0,
			"0.023": 0.0,
			"0.024": 0.0,
			"0.025": 0.0
		}
	}
}
