{
	 "smiles": "ClCC1=CC=C(CCl)C=C1", 
	 "Tm": 373.15, 
	 "num_atms": 18, 
	 "gaussian": { 
		 "optdone": 1, 
		 "sigma_profile": "yes", 
		 "theory": "DFT", 
		 "functional": "B3LYP", 
		 "basiset": "6-31G**", 
		 "properties": { 
			 "R2extent": 3407.4284, 
			 "electric_dipole_moment_norm": 3.79051800418, 
			 "electric_quadrupole_moment_norm": 11.3268862606, 
			 "total_energy": -1230.06938321, 
			 "HOMO_LUMO_gap": 0.20993, 
			 "cosmo_polarized_energy": -9.48, 
			 "cosmo_cavitation_energy": 25.55, 
			 "cosmo_dispersion_energy": -18.57, 
			 "cosmo_repulsion_energy": 1.54, 
			 "cosmo_total_nonelectrostatic_energy": 8.52, 
			 "SMD_solvation_energy": 3.58 
		},
		"coords": [
			{
				"x": -3.3660188987,
				"y": -3.6197934578,
				"z": 0.2966745027,
				"element": "Cl" 
			},
			{
				"x": -3.5298239279,
				"y": -1.8007546934,
				"z": 0.1020318368,
				"element": "C" 
			},
			{
				"x": -2.2240560444,
				"y": -1.0874364825,
				"z": 0.2873061578,
				"element": "C" 
			},
			{
				"x": -1.379286576,
				"y": -0.8514219962,
				"z": -0.8050744816,
				"element": "C" 
			},
			{
				"x": -0.1709609334,
				"y": -0.1811515,
				"z": -0.6345918017,
				"element": "C" 
			},
			{
				"x": 0.2218750689,
				"y": 0.2693681606,
				"z": 0.6324371463,
				"element": "C" 
			},
			{
				"x": 1.5186454213,
				"y": 0.9997283937,
				"z": 0.8145036292,
				"element": "C" 
			},
			{
				"x": 2.9144221183,
				"y": -0.1359837686,
				"z": 1.1826237073,
				"element": "Cl" 
			},
			{
				"x": -0.6213709641,
				"y": 0.0304645308,
				"z": 1.7253666895,
				"element": "C" 
			},
			{
				"x": -1.8296899497,
				"y": -0.639815187,
				"z": 1.5548841007,
				"element": "C" 
			},
			{
				"x": -4.2698888678,
				"y": -1.4971510459,
				"z": 0.842608379,
				"element": "H" 
			},
			{
				"x": -3.9374717482,
				"y": -1.6534900455,
				"z": -0.898201186,
				"element": "H" 
			},
			{
				"x": -1.6714008962,
				"y": -1.194899196,
				"z": -1.7938551698,
				"element": "H" 
			},
			{
				"x": 0.474175302,
				"y": -0.0047202553,
				"z": -1.491133508,
				"element": "H" 
			},
			{
				"x": 1.8145969918,
				"y": 1.5375791072,
				"z": -0.0863062977,
				"element": "H" 
			},
			{
				"x": 1.4823168522,
				"y": 1.6934832496,
				"z": 1.6545709063,
				"element": "H" 
			},
			{
				"x": -0.3284502895,
				"y": 0.3724033774,
				"z": 2.7144424246,
				"element": "H" 
			},
			{
				"x": -2.4740126589,
				"y": -0.8178091911,
				"z": 2.4117129646,
				"element": "H" 
			}
		],
		 "valence_orbital": [ 
			{
				"type": "occ",
				"energy": -0.29655,
				"method": "rhf"
			},
			{
				"type": "occ",
				"energy": -0.2961,
				"method": "rhf"
			},
			{
				"type": "occ",
				"energy": -0.29586,
				"method": "rhf"
			},
			{
				"type": "occ",
				"energy": -0.26696,
				"method": "rhf"
			},
			{
				"type": "occ",
				"energy": -0.25804,
				"method": "rhf"
			},
			{
				"type": "unocc",
				"energy": -0.04811,
				"method": "rhf"
			},
			{
				"type": "unocc",
				"energy": -0.01857,
				"method": "rhf"
			},
			{
				"type": "unocc",
				"energy": 0.0174,
				"method": "rhf"
			},
			{
				"type": "unocc",
				"energy": 0.05096,
				"method": "rhf"
			},
			{
				"type": "unocc",
				"energy": 0.08207,
				"method": "rhf"
			}
		],
		"cosmo_sigma_profile": { 
			"-0.025": 0.0,
			"-0.024": 0.0,
			"-0.023": 0.0,
			"-0.022": 0.0,
			"-0.021": 0.0,
			"-0.02": 0.0,
			"-0.019": 0.0,
			"-0.018": 0.0,
			"-0.017": 0.0,
			"-0.016": 0.0,
			"-0.015": 0.0,
			"-0.014": 0.0,
			"-0.013": 0.0,
			"-0.012": 0.0,
			"-0.011": 0.0,
			"-0.01": 0.0,
			"-0.009": 0.0,
			"-0.008": 4.64002441998,
			"-0.007": 16.9209160479,
			"-0.006": 16.3281378914,
			"-0.005": 15.5983904397,
			"-0.004": 14.3701724095,
			"-0.003": 10.7948005072,
			"-0.002": 6.01525604693,
			"-0.001": 9.07266600703,
			"0.0": 10.3592450966,
			"0.001": 10.3550766887,
			"0.002": 12.2398788925,
			"0.003": 14.1997381647,
			"0.004": 19.9180855527,
			"0.005": 14.9703899571,
			"0.006": 17.0783040541,
			"0.007": 15.0005603575,
			"0.008": 0.0423417924758,
			"0.009": 0.0,
			"0.01": 0.0,
			"0.011": 0.0,
			"0.012": 0.0,
			"0.013": 0.0,
			"0.014": 0.0,
			"0.015": 0.0,
			"0.016": 0.0,
			"0.017": 0.0,
			"0.018": 0.0,
			"0.019": 0.0,
			"0.02": 0.0,
			"0.021": 0.0,
			"0.022": 0.0,
			"0.023": 0.0,
			"0.024": 0.0,
			"0.025": 0.0
		}
	}
}
