{
	 "smiles": "NNC(=O)NC1=CC(Cl)=CC=C1", 
	 "Tm": 381.15, 
	 "num_atms": 20, 
	 "gaussian": { 
		 "optdone": 1, 
		 "sigma_profile": "yes", 
		 "theory": "DFT", 
		 "functional": "B3LYP", 
		 "basiset": "6-31G**", 
		 "properties": { 
			 "R2extent": 4795.3332, 
			 "electric_dipole_moment_norm": 1.69896074116, 
			 "electric_quadrupole_moment_norm": 10.5593735131, 
			 "total_energy": -971.227600545, 
			 "HOMO_LUMO_gap": 0.20791, 
			 "cosmo_polarized_energy": -13.65, 
			 "cosmo_cavitation_energy": 26.34, 
			 "cosmo_dispersion_energy": -19.66, 
			 "cosmo_repulsion_energy": 1.59, 
			 "cosmo_total_nonelectrostatic_energy": 8.27, 
			 "SMD_solvation_energy": 5.51 
		},
		"coords": [
			{
				"x": 3.010019924,
				"y": 0.1551189766,
				"z": 0.4115775818,
				"element": "N" 
			},
			{
				"x": 1.9234412544,
				"y": 0.6468930282,
				"z": -0.3513582865,
				"element": "N" 
			},
			{
				"x": 1.6612131233,
				"y": 0.0419118423,
				"z": -1.5680906914,
				"element": "C" 
			},
			{
				"x": 2.4238132562,
				"y": -0.7679710759,
				"z": -2.0807363521,
				"element": "O" 
			},
			{
				"x": 0.4668557796,
				"y": 0.3852236415,
				"z": -2.1938983204,
				"element": "N" 
			},
			{
				"x": -0.5106221399,
				"y": 1.3490902428,
				"z": -1.8862981465,
				"element": "C" 
			},
			{
				"x": -1.8326376598,
				"y": 1.087023983,
				"z": -2.2834743477,
				"element": "C" 
			},
			{
				"x": -2.8243469884,
				"y": 2.0308072556,
				"z": -2.0384453878,
				"element": "C" 
			},
			{
				"x": -4.469381367,
				"y": 1.6835602396,
				"z": -2.5498169061,
				"element": "Cl" 
			},
			{
				"x": -2.5489316823,
				"y": 3.2333664576,
				"z": -1.3877354573,
				"element": "C" 
			},
			{
				"x": -1.2332767837,
				"y": 3.4823036676,
				"z": -0.998657938,
				"element": "C" 
			},
			{
				"x": -0.2130034874,
				"y": 2.5655188086,
				"z": -1.2497424676,
				"element": "C" 
			},
			{
				"x": 3.8426587388,
				"y": 0.652080918,
				"z": 0.099698228,
				"element": "H" 
			},
			{
				"x": 3.1557921017,
				"y": -0.8170073299,
				"z": 0.1348573805,
				"element": "H" 
			},
			{
				"x": 1.1311166173,
				"y": 0.9130667169,
				"z": 0.2190570842,
				"element": "H" 
			},
			{
				"x": 0.2891094799,
				"y": -0.2149384988,
				"z": -2.987263813,
				"element": "H" 
			},
			{
				"x": -2.0813332063,
				"y": 0.1507107386,
				"z": -2.771760754,
				"element": "H" 
			},
			{
				"x": -3.3393226649,
				"y": 3.950484398,
				"z": -1.2005466971,
				"element": "H" 
			},
			{
				"x": -0.9926295242,
				"y": 4.4196455911,
				"z": -0.5059458796,
				"element": "H" 
			},
			{
				"x": 0.8093652288,
				"y": 2.7998103987,
				"z": -0.9801188295,
				"element": "H" 
			}
		],
		 "valence_orbital": [ 
			{
				"type": "occ",
				"energy": -0.29114,
				"method": "rhf"
			},
			{
				"type": "occ",
				"energy": -0.27692,
				"method": "rhf"
			},
			{
				"type": "occ",
				"energy": -0.26099,
				"method": "rhf"
			},
			{
				"type": "occ",
				"energy": -0.25887,
				"method": "rhf"
			},
			{
				"type": "occ",
				"energy": -0.23396,
				"method": "rhf"
			},
			{
				"type": "unocc",
				"energy": -0.02605,
				"method": "rhf"
			},
			{
				"type": "unocc",
				"energy": -0.02317,
				"method": "rhf"
			},
			{
				"type": "unocc",
				"energy": 0.0216,
				"method": "rhf"
			},
			{
				"type": "unocc",
				"energy": 0.04972,
				"method": "rhf"
			},
			{
				"type": "unocc",
				"energy": 0.08517,
				"method": "rhf"
			}
		],
		"cosmo_sigma_profile": { 
			"-0.025": 0.0,
			"-0.024": 0.0,
			"-0.023": 0.0,
			"-0.022": 0.0,
			"-0.021": 0.0,
			"-0.02": 0.0,
			"-0.019": 0.0,
			"-0.018": 0.0,
			"-0.017": 0.0,
			"-0.016": 0.0,
			"-0.015": 0.402271113385,
			"-0.014": 1.20371175102,
			"-0.013": 1.56890402767,
			"-0.012": 2.09331051209,
			"-0.011": 4.18797708287,
			"-0.01": 3.11323761266,
			"-0.009": 5.53668234894,
			"-0.008": 4.5113728094,
			"-0.007": 7.22941960643,
			"-0.006": 9.68776437194,
			"-0.005": 11.4794137731,
			"-0.004": 10.5778298266,
			"-0.003": 9.2284793342,
			"-0.002": 10.7811798276,
			"-0.001": 10.8921117868,
			"0.0": 13.5232009059,
			"0.001": 16.6278702581,
			"0.002": 20.1545791171,
			"0.003": 19.4325666864,
			"0.004": 17.3948837014,
			"0.005": 8.15421504646,
			"0.006": 2.41697093941,
			"0.007": 1.11431496284,
			"0.008": 1.58309181587,
			"0.009": 1.51724089546,
			"0.01": 2.34473311375,
			"0.011": 2.23899662861,
			"0.012": 2.48659312917,
			"0.013": 5.245728998,
			"0.014": 3.55866828056,
			"0.015": 0.778146408506,
			"0.016": 0.66940816233,
			"0.017": 0.229785367453,
			"0.018": 0.0,
			"0.019": 0.0,
			"0.02": 0.0,
			"0.021": 0.0,
			"0.022": 0.0,
			"0.023": 0.0,
			"0.024": 0.0,
			"0.025": 0.0
		}
	}
}
