{
	 "smiles": "OC(=O)C1=C(OC2=CC=C(Br)C=C2)N=CC=C1", 
	 "Tm": 451.15, 
	 "num_atms": 25, 
	 "gaussian": { 
		 "optdone": 1, 
		 "sigma_profile": "yes", 
		 "theory": "DFT", 
		 "functional": "B3LYP", 
		 "basiset": "6-31G**", 
		 "properties": { 
			 "R2extent": 8739.9165, 
			 "electric_dipole_moment_norm": 5.45483112663, 
			 "electric_quadrupole_moment_norm": 7.57449693643, 
			 "total_energy": -3313.91055767, 
			 "HOMO_LUMO_gap": 0.16372, 
			 "cosmo_polarized_energy": -20.34, 
			 "cosmo_cavitation_energy": 32.89, 
			 "cosmo_dispersion_energy": -23.53, 
			 "cosmo_repulsion_energy": 1.83, 
			 "cosmo_total_nonelectrostatic_energy": 11.19, 
			 "SMD_solvation_energy": 4.08 
		},
		"coords": [
			{
				"x": 0.6865915647,
				"y": -1.3033290824,
				"z": -0.9398857084,
				"element": "O" 
			},
			{
				"x": -0.4260948182,
				"y": -1.2097637453,
				"z": -0.16132165,
				"element": "C" 
			},
			{
				"x": -0.7910420813,
				"y": -2.1506590789,
				"z": 0.4968729043,
				"element": "O" 
			},
			{
				"x": -1.1645910256,
				"y": 0.0952161746,
				"z": -0.249230311,
				"element": "C" 
			},
			{
				"x": -1.8224715803,
				"y": 0.6787123576,
				"z": 0.8597381911,
				"element": "C" 
			},
			{
				"x": -1.7412603869,
				"y": 0.1451548243,
				"z": 2.1139566841,
				"element": "O" 
			},
			{
				"x": -0.5116999662,
				"y": -0.0537341406,
				"z": 2.7166249774,
				"element": "C" 
			},
			{
				"x": -0.3868466819,
				"y": -1.1643759604,
				"z": 3.5512536073,
				"element": "C" 
			},
			{
				"x": 0.8026463297,
				"y": -1.3752254376,
				"z": 4.2433638387,
				"element": "C" 
			},
			{
				"x": 1.8586768417,
				"y": -0.4762876311,
				"z": 4.0870607735,
				"element": "C" 
			},
			{
				"x": 3.4945332138,
				"y": -0.7698937409,
				"z": 5.0310841258,
				"element": "Br" 
			},
			{
				"x": 1.7370538873,
				"y": 0.6335443989,
				"z": 3.2545551485,
				"element": "C" 
			},
			{
				"x": 0.5412630813,
				"y": 0.8506590362,
				"z": 2.5675099894,
				"element": "C" 
			},
			{
				"x": -2.5987494043,
				"y": 1.7497549625,
				"z": 0.7682732454,
				"element": "N" 
			},
			{
				"x": -2.7712939408,
				"y": 2.3104217012,
				"z": -0.4351567847,
				"element": "C" 
			},
			{
				"x": -2.1534515011,
				"y": 1.8475238591,
				"z": -1.5942072129,
				"element": "C" 
			},
			{
				"x": -1.341455826,
				"y": 0.7201686196,
				"z": -1.4887969233,
				"element": "C" 
			},
			{
				"x": 0.9374796866,
				"y": -0.4283965432,
				"z": -1.268327944,
				"element": "H" 
			},
			{
				"x": -1.216718944,
				"y": -1.8562840728,
				"z": 3.635307982,
				"element": "H" 
			},
			{
				"x": 0.9120170995,
				"y": -2.2376380024,
				"z": 4.8906016429,
				"element": "H" 
			},
			{
				"x": 2.5600401505,
				"y": 1.3314605897,
				"z": 3.1512905586,
				"element": "H" 
			},
			{
				"x": 0.4256157455,
				"y": 1.7291545886,
				"z": 1.9412160957,
				"element": "H" 
			},
			{
				"x": -3.4331103504,
				"y": 3.1735135227,
				"z": -0.4656415063,
				"element": "H" 
			},
			{
				"x": -2.3169143821,
				"y": 2.3386032322,
				"z": -2.5470960507,
				"element": "H" 
			},
			{
				"x": -0.8817167116,
				"y": 0.2936995688,
				"z": -2.3766456737,
				"element": "H" 
			}
		],
		 "valence_orbital": [ 
			{
				"type": "occ",
				"energy": -0.28646,
				"method": "rhf"
			},
			{
				"type": "occ",
				"energy": -0.28029,
				"method": "rhf"
			},
			{
				"type": "occ",
				"energy": -0.27364,
				"method": "rhf"
			},
			{
				"type": "occ",
				"energy": -0.26661,
				"method": "rhf"
			},
			{
				"type": "occ",
				"energy": -0.23066,
				"method": "rhf"
			},
			{
				"type": "unocc",
				"energy": -0.06694,
				"method": "rhf"
			},
			{
				"type": "unocc",
				"energy": -0.04464,
				"method": "rhf"
			},
			{
				"type": "unocc",
				"energy": -0.01775,
				"method": "rhf"
			},
			{
				"type": "unocc",
				"energy": -0.00915,
				"method": "rhf"
			},
			{
				"type": "unocc",
				"energy": 0.00778,
				"method": "rhf"
			}
		],
		"cosmo_sigma_profile": { 
			"-0.025": 0.0,
			"-0.024": 0.0,
			"-0.023": 0.0,
			"-0.022": 0.0,
			"-0.021": 0.0,
			"-0.02": 0.0,
			"-0.019": 0.73803250132,
			"-0.018": 0.912697355239,
			"-0.017": 1.07227797835,
			"-0.016": 1.08807043186,
			"-0.015": 0.99549272925,
			"-0.014": 0.714835558919,
			"-0.013": 1.21282595362,
			"-0.012": 1.29400392083,
			"-0.011": 1.27052829506,
			"-0.01": 1.48960622965,
			"-0.009": 1.79733316289,
			"-0.008": 7.69317431383,
			"-0.007": 16.2267149891,
			"-0.006": 14.6478730464,
			"-0.005": 13.8197955969,
			"-0.004": 11.2583054487,
			"-0.003": 13.2860451434,
			"-0.002": 13.4550790954,
			"-0.001": 17.0329077119,
			"0.0": 18.8793220229,
			"0.001": 18.465344247,
			"0.002": 24.1518741478,
			"0.003": 18.5657048974,
			"0.004": 15.1842603868,
			"0.005": 11.1264721041,
			"0.006": 5.48969343864,
			"0.007": 5.43915548398,
			"0.008": 5.5718565519,
			"0.009": 5.90810185459,
			"0.01": 6.7967902885,
			"0.011": 6.14941702312,
			"0.012": 3.48002404663,
			"0.013": 1.32241549816,
			"0.014": 0.757571679262,
			"0.015": 0.775810670624,
			"0.016": 0.0,
			"0.017": 0.0,
			"0.018": 0.0,
			"0.019": 0.0,
			"0.02": 0.0,
			"0.021": 0.0,
			"0.022": 0.0,
			"0.023": 0.0,
			"0.024": 0.0,
			"0.025": 0.0
		}
	}
}
