{
	 "smiles": "CCNC1=NC(NCC(=O)OCC)=NC(Cl)=N1", 
	 "Tm": 501.15, 
	 "num_atms": 31, 
	 "gaussian": { 
		 "optdone": 1, 
		 "sigma_profile": "yes", 
		 "theory": "DFT", 
		 "functional": "B3LYP", 
		 "basiset": "6-31G**", 
		 "properties": { 
			 "R2extent": 7814.5959, 
			 "electric_dipole_moment_norm": 6.58449709621, 
			 "electric_quadrupole_moment_norm": 18.430211072, 
			 "total_energy": -1235.85130529, 
			 "HOMO_LUMO_gap": 0.2212, 
			 "cosmo_polarized_energy": -14.82, 
			 "cosmo_cavitation_energy": 37.87, 
			 "cosmo_dispersion_energy": -27.24, 
			 "cosmo_repulsion_energy": 2.21, 
			 "cosmo_total_nonelectrostatic_energy": 12.84, 
			 "SMD_solvation_energy": 2.46 
		},
		"coords": [
			{
				"x": 2.2314105608,
				"y": 3.9922019342,
				"z": -1.3048395258,
				"element": "C" 
			},
			{
				"x": 1.8020168073,
				"y": 3.8384599222,
				"z": 0.1579814729,
				"element": "C" 
			},
			{
				"x": 2.7187024004,
				"y": 3.0314038642,
				"z": 0.9507130075,
				"element": "N" 
			},
			{
				"x": 2.6788013981,
				"y": 1.6833833374,
				"z": 1.0448228045,
				"element": "C" 
			},
			{
				"x": 1.6750202959,
				"y": 1.0214628592,
				"z": 0.4455395316,
				"element": "N" 
			},
			{
				"x": 1.7135944632,
				"y": -0.3089870735,
				"z": 0.6226581005,
				"element": "C" 
			},
			{
				"x": 0.7376918607,
				"y": -1.0528455031,
				"z": 0.0623870586,
				"element": "N" 
			},
			{
				"x": -0.3470615405,
				"y": -0.5055070189,
				"z": -0.7101136986,
				"element": "C" 
			},
			{
				"x": -1.2402897789,
				"y": -1.6423968248,
				"z": -1.1757981689,
				"element": "C" 
			},
			{
				"x": -1.0452732152,
				"y": -2.8123209332,
				"z": -0.9181861944,
				"element": "O" 
			},
			{
				"x": -2.2655101597,
				"y": -1.1693284587,
				"z": -1.8994056115,
				"element": "O" 
			},
			{
				"x": -3.207356754,
				"y": -2.1480371504,
				"z": -2.4163259694,
				"element": "C" 
			},
			{
				"x": -2.7315967651,
				"y": -2.7239985132,
				"z": -3.7404045576,
				"element": "C" 
			},
			{
				"x": 2.6581471275,
				"y": -0.9914710589,
				"z": 1.3196137133,
				"element": "N" 
			},
			{
				"x": 3.5778614857,
				"y": -0.2001237454,
				"z": 1.8384279471,
				"element": "C" 
			},
			{
				"x": 4.8456679925,
				"y": -1.0084368211,
				"z": 2.7540190187,
				"element": "Cl" 
			},
			{
				"x": 3.6798488726,
				"y": 1.1141864906,
				"z": 1.7655813954,
				"element": "N" 
			},
			{
				"x": 2.2769310153,
				"y": 3.0144973074,
				"z": -1.792390797,
				"element": "H" 
			},
			{
				"x": 1.5142744919,
				"y": 4.6159393475,
				"z": -1.8491985517,
				"element": "H" 
			},
			{
				"x": 3.2174736306,
				"y": 4.4617900521,
				"z": -1.3820572981,
				"element": "H" 
			},
			{
				"x": 0.8178311131,
				"y": 3.3679008595,
				"z": 0.2125984563,
				"element": "H" 
			},
			{
				"x": 1.7271654473,
				"y": 4.8191492638,
				"z": 0.6398115082,
				"element": "H" 
			},
			{
				"x": 3.5340451558,
				"y": 3.4569793457,
				"z": 1.3670864381,
				"element": "H" 
			},
			{
				"x": 0.7627647991,
				"y": -2.0559288093,
				"z": 0.1921349173,
				"element": "H" 
			},
			{
				"x": 0.0115036308,
				"y": 0.0479590652,
				"z": -1.5875247122,
				"element": "H" 
			},
			{
				"x": -0.9482689956,
				"y": 0.2055249886,
				"z": -0.1288886515,
				"element": "H" 
			},
			{
				"x": -4.1377803771,
				"y": -1.587804588,
				"z": -2.5306867416,
				"element": "H" 
			},
			{
				"x": -3.3432162322,
				"y": -2.9312087232,
				"z": -1.6671474841,
				"element": "H" 
			},
			{
				"x": -1.809264533,
				"y": -3.2940518009,
				"z": -3.604636013,
				"element": "H" 
			},
			{
				"x": -2.5550232567,
				"y": -1.929447364,
				"z": -4.4711496647,
				"element": "H" 
			},
			{
				"x": -3.4940109405,
				"y": -3.3983442511,
				"z": -4.1439217298,
				"element": "H" 
			}
		],
		 "valence_orbital": [ 
			{
				"type": "occ",
				"energy": -0.2865,
				"method": "rhf"
			},
			{
				"type": "occ",
				"energy": -0.26616,
				"method": "rhf"
			},
			{
				"type": "occ",
				"energy": -0.2659,
				"method": "rhf"
			},
			{
				"type": "occ",
				"energy": -0.24921,
				"method": "rhf"
			},
			{
				"type": "occ",
				"energy": -0.23582,
				"method": "rhf"
			},
			{
				"type": "unocc",
				"energy": -0.01462,
				"method": "rhf"
			},
			{
				"type": "unocc",
				"energy": -0.00757,
				"method": "rhf"
			},
			{
				"type": "unocc",
				"energy": 0.00357,
				"method": "rhf"
			},
			{
				"type": "unocc",
				"energy": 0.04921,
				"method": "rhf"
			},
			{
				"type": "unocc",
				"energy": 0.08341,
				"method": "rhf"
			}
		],
		"cosmo_sigma_profile": { 
			"-0.025": 0.0,
			"-0.024": 0.0,
			"-0.023": 0.0,
			"-0.022": 0.0,
			"-0.021": 0.0,
			"-0.02": 0.0,
			"-0.019": 0.0,
			"-0.018": 0.0,
			"-0.017": 0.0,
			"-0.016": 0.0,
			"-0.015": 0.0458400055832,
			"-0.014": 0.832938744609,
			"-0.013": 1.2979214871,
			"-0.012": 0.771219948956,
			"-0.011": 1.06523903508,
			"-0.01": 1.31188709424,
			"-0.009": 1.93903395944,
			"-0.008": 2.8042940492,
			"-0.007": 5.93171500766,
			"-0.006": 9.40139199171,
			"-0.005": 14.7932465929,
			"-0.004": 24.0144976428,
			"-0.003": 29.5295253796,
			"-0.002": 30.5156639094,
			"-0.001": 27.981249907,
			"0.0": 31.4384730974,
			"0.001": 22.9325607944,
			"0.002": 14.5036519923,
			"0.003": 12.5463503107,
			"0.004": 17.7200491051,
			"0.005": 10.88894071,
			"0.006": 9.90941356581,
			"0.007": 6.84995819141,
			"0.008": 4.88638019711,
			"0.009": 4.12449462548,
			"0.01": 4.7539333979,
			"0.011": 4.46019183006,
			"0.012": 2.14462398477,
			"0.013": 2.02867898854,
			"0.014": 0.281043951701,
			"0.015": 0.0,
			"0.016": 0.0,
			"0.017": 0.0,
			"0.018": 0.0,
			"0.019": 0.0,
			"0.02": 0.0,
			"0.021": 0.0,
			"0.022": 0.0,
			"0.023": 0.0,
			"0.024": 0.0,
			"0.025": 0.0
		}
	}
}
