{
	 "smiles": "CC1=CC(C(O)=O)=C(I)C=C1", 
	 "Tm": 393.15, 
	 "num_atms": 18, 
	 "gaussian": { 
		 "optdone": 1, 
		 "sigma_profile": "yes", 
		 "theory": "DFT", 
		 "functional": "B3LYP", 
		 "basiset": "6-31G**", 
		 "properties": { 
			 "R2extent": 3254.6352, 
			 "electric_dipole_moment_norm": 4.83679006574, 
			 "electric_quadrupole_moment_norm": 14.2212721934, 
			 "total_energy": -470.912484689, 
			 "HOMO_LUMO_gap": 0.19414, 
			 "cosmo_polarized_energy": -10.92, 
			 "cosmo_cavitation_energy": 25.12, 
			 "cosmo_dispersion_energy": -19.92, 
			 "cosmo_repulsion_energy": 1.56, 
			 "cosmo_total_nonelectrostatic_energy": 6.76, 
			 "SMD_solvation_energy": 4.72 
		},
		"coords": [
			{
				"x": 0.6158773273,
				"y": 0.2820757124,
				"z": -1.5955776757,
				"element": "C" 
			},
			{
				"x": 0.8137172798,
				"y": -0.4319889025,
				"z": -0.2804724644,
				"element": "C" 
			},
			{
				"x": 1.2450360316,
				"y": 0.2518898143,
				"z": 0.8545351781,
				"element": "C" 
			},
			{
				"x": 1.47254122,
				"y": -0.3794550842,
				"z": 2.091669885,
				"element": "C" 
			},
			{
				"x": 1.9478798336,
				"y": 0.5668004464,
				"z": 3.1759047967,
				"element": "C" 
			},
			{
				"x": 2.737039425,
				"y": 0.0935544258,
				"z": 4.1605751698,
				"element": "O" 
			},
			{
				"x": 1.677828505,
				"y": 1.745228648,
				"z": 3.1382848264,
				"element": "O" 
			},
			{
				"x": 1.2194878837,
				"y": -1.7593071176,
				"z": 2.1709443858,
				"element": "C" 
			},
			{
				"x": 1.386805641,
				"y": -2.918868455,
				"z": 3.9599291336,
				"element": "I" 
			},
			{
				"x": 0.7708429517,
				"y": -2.4649072776,
				"z": 1.0501423912,
				"element": "C" 
			},
			{
				"x": 0.5795507851,
				"y": -1.808054112,
				"z": -0.1616283128,
				"element": "C" 
			},
			{
				"x": 1.4385200279,
				"y": 0.0663629071,
				"z": -2.2880105077,
				"element": "H" 
			},
			{
				"x": 0.5750124386,
				"y": 1.3654483491,
				"z": -1.4581328077,
				"element": "H" 
			},
			{
				"x": -0.3106560832,
				"y": -0.0345991431,
				"z": -2.0850223692,
				"element": "H" 
			},
			{
				"x": 1.4154521357,
				"y": 1.3227110957,
				"z": 0.8174418565,
				"element": "H" 
			},
			{
				"x": 2.8718959108,
				"y": -0.8651468313,
				"z": 4.0890385609,
				"element": "H" 
			},
			{
				"x": 0.5639910178,
				"y": -3.5262690976,
				"z": 1.1256551675,
				"element": "H" 
			},
			{
				"x": 0.2338776683,
				"y": -2.3771753778,
				"z": -1.0208772142,
				"element": "H" 
			}
		],
		 "valence_orbital": [ 
			{
				"type": "occ",
				"energy": -0.30833,
				"method": "rhf"
			},
			{
				"type": "occ",
				"energy": -0.28832,
				"method": "rhf"
			},
			{
				"type": "occ",
				"energy": -0.28463,
				"method": "rhf"
			},
			{
				"type": "occ",
				"energy": -0.26802,
				"method": "rhf"
			},
			{
				"type": "occ",
				"energy": -0.25439,
				"method": "rhf"
			},
			{
				"type": "unocc",
				"energy": -0.06025,
				"method": "rhf"
			},
			{
				"type": "unocc",
				"energy": -0.05685,
				"method": "rhf"
			},
			{
				"type": "unocc",
				"energy": -0.02876,
				"method": "rhf"
			},
			{
				"type": "unocc",
				"energy": 0.03492,
				"method": "rhf"
			},
			{
				"type": "unocc",
				"energy": 0.03796,
				"method": "rhf"
			}
		],
		"cosmo_sigma_profile": { 
			"-0.025": 0.0,
			"-0.024": 0.0,
			"-0.023": 0.0,
			"-0.022": 0.0,
			"-0.021": 0.0,
			"-0.02": 0.0,
			"-0.019": 0.0,
			"-0.018": 0.0,
			"-0.017": 0.0,
			"-0.016": 0.0,
			"-0.015": 0.0,
			"-0.014": 0.199671540471,
			"-0.013": 1.15964206613,
			"-0.012": 0.749996596143,
			"-0.011": 0.96877054579,
			"-0.01": 0.938276730073,
			"-0.009": 0.742888305645,
			"-0.008": 2.17310468485,
			"-0.007": 5.61960983128,
			"-0.006": 8.72585419548,
			"-0.005": 13.6916809331,
			"-0.004": 14.4007091986,
			"-0.003": 16.2678166293,
			"-0.002": 17.5521590953,
			"-0.001": 18.8692055464,
			"0.0": 18.8104608382,
			"0.001": 15.3747411053,
			"0.002": 21.0527239409,
			"0.003": 15.6002835306,
			"0.004": 4.07476512749,
			"0.005": 2.50131330232,
			"0.006": 2.69899357109,
			"0.007": 2.24301023346,
			"0.008": 2.61571921062,
			"0.009": 3.55584569931,
			"0.01": 4.72548783745,
			"0.011": 5.06772537683,
			"0.012": 4.30574079276,
			"0.013": 1.17450230506,
			"0.014": 0.0,
			"0.015": 0.0,
			"0.016": 0.0,
			"0.017": 0.0,
			"0.018": 0.0,
			"0.019": 0.0,
			"0.02": 0.0,
			"0.021": 0.0,
			"0.022": 0.0,
			"0.023": 0.0,
			"0.024": 0.0,
			"0.025": 0.0
		}
	}
}
