{
	 "smiles": "O=CN1CCCCC1", 
	 "Tm": 242.25, 
	 "num_atms": 19, 
	 "gaussian": { 
		 "optdone": 1, 
		 "sigma_profile": "yes", 
		 "theory": "DFT", 
		 "functional": "B3LYP", 
		 "basiset": "6-31G**", 
		 "properties": { 
			 "R2extent": 1067.5009, 
			 "electric_dipole_moment_norm": 4.24618851795, 
			 "electric_quadrupole_moment_norm": 10.1804056378, 
			 "total_energy": -365.253035751, 
			 "HOMO_LUMO_gap": 0.26751, 
			 "cosmo_polarized_energy": -9.52, 
			 "cosmo_cavitation_energy": 20.5, 
			 "cosmo_dispersion_energy": -15.5, 
			 "cosmo_repulsion_energy": 1.29, 
			 "cosmo_total_nonelectrostatic_energy": 6.3, 
			 "SMD_solvation_energy": 3.86 
		},
		"coords": [
			{
				"x": -0.3498737182,
				"y": -2.5247085637,
				"z": 1.7116507976,
				"element": "O" 
			},
			{
				"x": -0.3115620546,
				"y": -2.0290786384,
				"z": 0.5951128717,
				"element": "C" 
			},
			{
				"x": -0.3477247486,
				"y": -0.6927375619,
				"z": 0.3415012882,
				"element": "N" 
			},
			{
				"x": -0.2662189074,
				"y": -0.1457083754,
				"z": -1.0107476221,
				"element": "C" 
			},
			{
				"x": 0.7489173335,
				"y": 1.002464943,
				"z": -1.0607561814,
				"element": "C" 
			},
			{
				"x": 0.4042219345,
				"y": 2.1185639303,
				"z": -0.0335966573,
				"element": "C" 
			},
			{
				"x": -0.6561206202,
				"y": 1.6612916376,
				"z": 0.988176946,
				"element": "C" 
			},
			{
				"x": -0.4034931528,
				"y": 0.2356985596,
				"z": 1.4803709896,
				"element": "C" 
			},
			{
				"x": -0.2437225214,
				"y": -2.6353534607,
				"z": -0.3311529373,
				"element": "H" 
			},
			{
				"x": -1.2520976428,
				"y": 0.2084886965,
				"z": -1.3458652455,
				"element": "H" 
			},
			{
				"x": 0.0267107937,
				"y": -0.9541327488,
				"z": -1.6877690801,
				"element": "H" 
			},
			{
				"x": 1.7404615291,
				"y": 0.5883433586,
				"z": -0.84725412,
				"element": "H" 
			},
			{
				"x": 0.7878705361,
				"y": 1.4058794304,
				"z": -2.0783000703,
				"element": "H" 
			},
			{
				"x": 0.0428247671,
				"y": 3.0153101826,
				"z": -0.5481966838,
				"element": "H" 
			},
			{
				"x": 1.3156457115,
				"y": 2.4157550357,
				"z": 0.4970589047,
				"element": "H" 
			},
			{
				"x": -1.6557123719,
				"y": 1.7133960257,
				"z": 0.5396765255,
				"element": "H" 
			},
			{
				"x": -0.6709649936,
				"y": 2.3380133551,
				"z": 1.8488091104,
				"element": "H" 
			},
			{
				"x": -1.1876343318,
				"y": -0.099994568,
				"z": 2.1662277524,
				"element": "H" 
			},
			{
				"x": 0.5415724578,
				"y": 0.1828087618,
				"z": 2.0387534117,
				"element": "H" 
			}
		],
		 "valence_orbital": [ 
			{
				"type": "occ",
				"energy": -0.33667,
				"method": "rhf"
			},
			{
				"type": "occ",
				"energy": -0.33411,
				"method": "rhf"
			},
			{
				"type": "occ",
				"energy": -0.32679,
				"method": "rhf"
			},
			{
				"type": "occ",
				"energy": -0.24305,
				"method": "rhf"
			},
			{
				"type": "occ",
				"energy": -0.23359,
				"method": "rhf"
			},
			{
				"type": "unocc",
				"energy": 0.03392,
				"method": "rhf"
			},
			{
				"type": "unocc",
				"energy": 0.06906,
				"method": "rhf"
			},
			{
				"type": "unocc",
				"energy": 0.10412,
				"method": "rhf"
			},
			{
				"type": "unocc",
				"energy": 0.11287,
				"method": "rhf"
			},
			{
				"type": "unocc",
				"energy": 0.12694,
				"method": "rhf"
			}
		],
		"cosmo_sigma_profile": { 
			"-0.025": 0.0,
			"-0.024": 0.0,
			"-0.023": 0.0,
			"-0.022": 0.0,
			"-0.021": 0.0,
			"-0.02": 0.0,
			"-0.019": 0.0,
			"-0.018": 0.0,
			"-0.017": 0.0,
			"-0.016": 0.0,
			"-0.015": 0.0,
			"-0.014": 0.0,
			"-0.013": 0.0,
			"-0.012": 0.0,
			"-0.011": 0.0,
			"-0.01": 0.0,
			"-0.009": 0.0,
			"-0.008": 0.0209063323049,
			"-0.007": 1.94126836796,
			"-0.006": 4.59265993575,
			"-0.005": 4.15913273367,
			"-0.004": 13.8949500244,
			"-0.003": 27.8456911001,
			"-0.002": 33.470060148,
			"-0.001": 20.783159225,
			"0.0": 15.0541142453,
			"0.001": 8.25886867771,
			"0.002": 2.42745008639,
			"0.003": 1.47278173394,
			"0.004": 2.01870679985,
			"0.005": 0.96071285385,
			"0.006": 1.91182888303,
			"0.007": 1.07356359442,
			"0.008": 1.30933752173,
			"0.009": 1.59093693849,
			"0.01": 1.54608819402,
			"0.011": 1.45457516433,
			"0.012": 1.93165309579,
			"0.013": 2.44918330131,
			"0.014": 6.12140774922,
			"0.015": 2.54550325173,
			"0.016": 0.319327786614,
			"0.017": 0.0,
			"0.018": 0.0,
			"0.019": 0.0,
			"0.02": 0.0,
			"0.021": 0.0,
			"0.022": 0.0,
			"0.023": 0.0,
			"0.024": 0.0,
			"0.025": 0.0
		}
	}
}
