{
	 "smiles": "NC1=CC=NC2=C1C=CC=C2", 
	 "Tm": 428.15, 
	 "num_atms": 19, 
	 "gaussian": { 
		 "optdone": 1, 
		 "sigma_profile": "yes", 
		 "theory": "DFT", 
		 "functional": "B3LYP", 
		 "basiset": "6-31G**", 
		 "properties": { 
			 "R2extent": 2694.0036, 
			 "electric_dipole_moment_norm": 3.71547227012, 
			 "electric_quadrupole_moment_norm": 13.0603777139, 
			 "total_energy": -457.293517132, 
			 "HOMO_LUMO_gap": 0.17132, 
			 "cosmo_polarized_energy": -12.71, 
			 "cosmo_cavitation_energy": 22.4, 
			 "cosmo_dispersion_energy": -17.17, 
			 "cosmo_repulsion_energy": 1.35, 
			 "cosmo_total_nonelectrostatic_energy": 6.59, 
			 "SMD_solvation_energy": 2.14 
		},
		"coords": [
			{
				"x": 0.4263753516,
				"y": 0.8172286769,
				"z": -0.3919178396,
				"element": "N" 
			},
			{
				"x": -0.7889740206,
				"y": 0.3769195246,
				"z": -0.8859965782,
				"element": "C" 
			},
			{
				"x": -1.4134560015,
				"y": 1.0108713599,
				"z": -1.9507317783,
				"element": "C" 
			},
			{
				"x": -2.6364602516,
				"y": 0.5098473855,
				"z": -2.4380208404,
				"element": "C" 
			},
			{
				"x": -3.2739363765,
				"y": -0.5383377934,
				"z": -1.952298294,
				"element": "N" 
			},
			{
				"x": -2.6757531927,
				"y": -1.1889420607,
				"z": -0.9102061167,
				"element": "C" 
			},
			{
				"x": -1.4232543962,
				"y": -0.791113613,
				"z": -0.3413653514,
				"element": "C" 
			},
			{
				"x": -0.8717060665,
				"y": -1.5614195087,
				"z": 0.7150486179,
				"element": "C" 
			},
			{
				"x": -1.5378220361,
				"y": -2.6619229159,
				"z": 1.2107306763,
				"element": "C" 
			},
			{
				"x": -2.7864591991,
				"y": -3.0423346016,
				"z": 0.6660725618,
				"element": "C" 
			},
			{
				"x": -3.3377181161,
				"y": -2.3247087436,
				"z": -0.371532735,
				"element": "C" 
			},
			{
				"x": 0.6986758428,
				"y": 1.7479968359,
				"z": -0.6743203605,
				"element": "H" 
			},
			{
				"x": 0.612202526,
				"y": 0.6359880425,
				"z": 0.5833455602,
				"element": "H" 
			},
			{
				"x": -0.9724722485,
				"y": 1.8952224799,
				"z": -2.4026366269,
				"element": "H" 
			},
			{
				"x": -3.116005763,
				"y": 1.0218451847,
				"z": -3.2725057284,
				"element": "H" 
			},
			{
				"x": 0.1013822869,
				"y": -1.3056777739,
				"z": 1.1247560348,
				"element": "H" 
			},
			{
				"x": -1.0993626344,
				"y": -3.2438898212,
				"z": 2.016034996,
				"element": "H" 
			},
			{
				"x": -3.3048087477,
				"y": -3.9097430876,
				"z": 1.0647725412,
				"element": "H" 
			},
			{
				"x": -4.2879469567,
				"y": -2.5998295701,
				"z": -0.8175287389,
				"element": "H" 
			}
		],
		 "valence_orbital": [ 
			{
				"type": "occ",
				"energy": -0.33171,
				"method": "rhf"
			},
			{
				"type": "occ",
				"energy": -0.25811,
				"method": "rhf"
			},
			{
				"type": "occ",
				"energy": -0.24446,
				"method": "rhf"
			},
			{
				"type": "occ",
				"energy": -0.24316,
				"method": "rhf"
			},
			{
				"type": "occ",
				"energy": -0.20855,
				"method": "rhf"
			},
			{
				"type": "unocc",
				"energy": -0.03723,
				"method": "rhf"
			},
			{
				"type": "unocc",
				"energy": -0.00788,
				"method": "rhf"
			},
			{
				"type": "unocc",
				"energy": 0.03618,
				"method": "rhf"
			},
			{
				"type": "unocc",
				"energy": 0.06523,
				"method": "rhf"
			},
			{
				"type": "unocc",
				"energy": 0.10019,
				"method": "rhf"
			}
		],
		"cosmo_sigma_profile": { 
			"-0.025": 0.0,
			"-0.024": 0.0,
			"-0.023": 0.0,
			"-0.022": 0.0,
			"-0.021": 0.0,
			"-0.02": 0.0,
			"-0.019": 0.0,
			"-0.018": 0.0,
			"-0.017": 0.0,
			"-0.016": 0.0,
			"-0.015": 0.0,
			"-0.014": 0.565442016844,
			"-0.013": 2.31022125366,
			"-0.012": 3.05353291231,
			"-0.011": 3.4224817851,
			"-0.01": 2.62728566841,
			"-0.009": 3.45488101159,
			"-0.008": 3.19528914889,
			"-0.007": 2.46980130178,
			"-0.006": 8.02645411409,
			"-0.005": 12.4232688792,
			"-0.004": 12.7042215967,
			"-0.003": 10.9260678804,
			"-0.002": 7.71017981197,
			"-0.001": 6.99830016753,
			"0.0": 8.57954766246,
			"0.001": 9.32587624747,
			"0.002": 10.9239148903,
			"0.003": 19.0869871989,
			"0.004": 19.9099603657,
			"0.005": 12.236807764,
			"0.006": 3.42820457645,
			"0.007": 1.92750128784,
			"0.008": 2.11690254933,
			"0.009": 2.12566328093,
			"0.01": 2.36869832618,
			"0.011": 1.25169076461,
			"0.012": 1.88896558031,
			"0.013": 0.720984166631,
			"0.014": 0.927629882976,
			"0.015": 1.02184073454,
			"0.016": 0.783656809272,
			"0.017": 0.770321071985,
			"0.018": 0.204826033596,
			"0.019": 0.0,
			"0.02": 0.0,
			"0.021": 0.0,
			"0.022": 0.0,
			"0.023": 0.0,
			"0.024": 0.0,
			"0.025": 0.0
		}
	}
}
