{
	 "smiles": "CC(N)=O", 
	 "Tm": 353.15, 
	 "num_atms": 9, 
	 "gaussian": { 
		 "optdone": 1, 
		 "sigma_profile": "yes", 
		 "theory": "DFT", 
		 "functional": "B3LYP", 
		 "basiset": "6-31G**", 
		 "properties": { 
			 "R2extent": 681.0294, 
			 "electric_dipole_moment_norm": 3.70642282666, 
			 "electric_quadrupole_moment_norm": 10.4515624597, 
			 "total_energy": -209.219146912, 
			 "HOMO_LUMO_gap": 0.27828, 
			 "cosmo_polarized_energy": -12.06, 
			 "cosmo_cavitation_energy": 12.61, 
			 "cosmo_dispersion_energy": -9.48, 
			 "cosmo_repulsion_energy": 0.9, 
			 "cosmo_total_nonelectrostatic_energy": 4.02, 
			 "SMD_solvation_energy": 3.6 
		},
		"coords": [
			{
				"x": -1.0268705607,
				"y": 1.7993445453,
				"z": 0.8952405288,
				"element": "C" 
			},
			{
				"x": -1.0449080114,
				"y": 1.5692849752,
				"z": -0.6102274964,
				"element": "C" 
			},
			{
				"x": -1.3499921039,
				"y": 0.2956807501,
				"z": -1.0066355146,
				"element": "N" 
			},
			{
				"x": -0.7984463786,
				"y": 2.4598881685,
				"z": -1.4090309445,
				"element": "O" 
			},
			{
				"x": -1.6703808041,
				"y": 2.6520944005,
				"z": 1.1248323375,
				"element": "H" 
			},
			{
				"x": -0.0102389384,
				"y": 2.0678911527,
				"z": 1.1963961919,
				"element": "H" 
			},
			{
				"x": -1.353198097,
				"y": 0.9358491124,
				"z": 1.4814198955,
				"element": "H" 
			},
			{
				"x": -1.5388429575,
				"y": -0.4486429475,
				"z": -0.3566699947,
				"element": "H" 
			},
			{
				"x": -1.3534221484,
				"y": 0.0953098427,
				"z": -1.9952250035,
				"element": "H" 
			}
		],
		 "valence_orbital": [ 
			{
				"type": "occ",
				"energy": -0.39894,
				"method": "rhf"
			},
			{
				"type": "occ",
				"energy": -0.39222,
				"method": "rhf"
			},
			{
				"type": "occ",
				"energy": -0.36113,
				"method": "rhf"
			},
			{
				"type": "occ",
				"energy": -0.26299,
				"method": "rhf"
			},
			{
				"type": "occ",
				"energy": -0.24277,
				"method": "rhf"
			},
			{
				"type": "unocc",
				"energy": 0.03551,
				"method": "rhf"
			},
			{
				"type": "unocc",
				"energy": 0.07108,
				"method": "rhf"
			},
			{
				"type": "unocc",
				"energy": 0.12229,
				"method": "rhf"
			},
			{
				"type": "unocc",
				"energy": 0.13395,
				"method": "rhf"
			},
			{
				"type": "unocc",
				"energy": 0.17016,
				"method": "rhf"
			}
		],
		"cosmo_sigma_profile": { 
			"-0.025": 0.0,
			"-0.024": 0.0,
			"-0.023": 0.0,
			"-0.022": 0.0,
			"-0.021": 0.0,
			"-0.02": 0.0,
			"-0.019": 0.0,
			"-0.018": 0.0,
			"-0.017": 0.0,
			"-0.016": 0.0,
			"-0.015": 0.0864179387822,
			"-0.014": 1.385183327,
			"-0.013": 2.39738968276,
			"-0.012": 2.39301186347,
			"-0.011": 2.31079131109,
			"-0.01": 2.73683419474,
			"-0.009": 2.34191588556,
			"-0.008": 2.2854961568,
			"-0.007": 2.10632966774,
			"-0.006": 3.08197161848,
			"-0.005": 6.47800928474,
			"-0.004": 5.70404853215,
			"-0.003": 6.77097842641,
			"-0.002": 7.93419336218,
			"-0.001": 9.82092170683,
			"0.0": 5.31361744043,
			"0.001": 2.17162357721,
			"0.002": 2.70874352341,
			"0.003": 2.74580362667,
			"0.004": 3.49112319316,
			"0.005": 2.42428522831,
			"0.006": 1.57141275205,
			"0.007": 1.01410897169,
			"0.008": 1.4698428487,
			"0.009": 1.21022896298,
			"0.01": 1.25982423148,
			"0.011": 1.06552589651,
			"0.012": 1.72367806679,
			"0.013": 2.21218543639,
			"0.014": 6.10663533432,
			"0.015": 3.79219216553,
			"0.016": 0.508671665635,
			"0.017": 0.0,
			"0.018": 0.0,
			"0.019": 0.0,
			"0.02": 0.0,
			"0.021": 0.0,
			"0.022": 0.0,
			"0.023": 0.0,
			"0.024": 0.0,
			"0.025": 0.0
		}
	}
}
