{
	 "smiles": "CCC(C)OC1=C(C=CC(O)=O)C=CC=C1", 
	 "Tm": 357.15, 
	 "num_atms": 32, 
	 "gaussian": { 
		 "optdone": 1, 
		 "sigma_profile": "yes", 
		 "theory": "DFT", 
		 "functional": "B3LYP", 
		 "basiset": "6-31G**", 
		 "properties": { 
			 "R2extent": 4947.7163, 
			 "electric_dipole_moment_norm": 3.20119767743, 
			 "electric_quadrupole_moment_norm": 7.68357944711, 
			 "total_energy": -730.703106706, 
			 "HOMO_LUMO_gap": 0.15411, 
			 "cosmo_polarized_energy": -10.41, 
			 "cosmo_cavitation_energy": 35.19, 
			 "cosmo_dispersion_energy": -24.68, 
			 "cosmo_repulsion_energy": 1.95, 
			 "cosmo_total_nonelectrostatic_energy": 12.46, 
			 "SMD_solvation_energy": 7.48 
		},
		"coords": [
			{
				"x": -3.2203215075,
				"y": 1.6817010493,
				"z": -2.7749194968,
				"element": "C" 
			},
			{
				"x": -2.485901332,
				"y": 2.8741094768,
				"z": -2.156366137,
				"element": "C" 
			},
			{
				"x": -1.0100403359,
				"y": 2.6027354498,
				"z": -1.8566253079,
				"element": "C" 
			},
			{
				"x": -0.2788967418,
				"y": 3.8377916405,
				"z": -1.3314260871,
				"element": "C" 
			},
			{
				"x": -0.9930619079,
				"y": 1.5528794004,
				"z": -0.8683296062,
				"element": "O" 
			},
			{
				"x": 0.1071596292,
				"y": 0.773343574,
				"z": -0.6655325696,
				"element": "C" 
			},
			{
				"x": 0.0241882568,
				"y": -0.173968961,
				"z": 0.4021917283,
				"element": "C" 
			},
			{
				"x": -1.2009781851,
				"y": -0.1846980589,
				"z": 1.1964984272,
				"element": "C" 
			},
			{
				"x": -1.6918082221,
				"y": -0.9330563149,
				"z": 2.2182856955,
				"element": "C" 
			},
			{
				"x": -1.1426473943,
				"y": -2.0912104602,
				"z": 2.9366848058,
				"element": "C" 
			},
			{
				"x": -2.0402806359,
				"y": -2.5256726589,
				"z": 3.866660671,
				"element": "O" 
			},
			{
				"x": -0.0682093289,
				"y": -2.6566652153,
				"z": 2.8053348629,
				"element": "O" 
			},
			{
				"x": 1.1322725812,
				"y": -1.0157882186,
				"z": 0.6201624738,
				"element": "C" 
			},
			{
				"x": 2.2768236881,
				"y": -0.9332825733,
				"z": -0.1666474168,
				"element": "C" 
			},
			{
				"x": 2.3398904358,
				"y": 0.0019207849,
				"z": -1.1983491302,
				"element": "C" 
			},
			{
				"x": 1.2639726667,
				"y": 0.8537276497,
				"z": -1.448827222,
				"element": "C" 
			},
			{
				"x": -3.1821383886,
				"y": 0.8133912652,
				"z": -2.1119404009,
				"element": "H" 
			},
			{
				"x": -2.771856193,
				"y": 1.3930646149,
				"z": -3.7324646101,
				"element": "H" 
			},
			{
				"x": -4.2715387844,
				"y": 1.9230519325,
				"z": -2.9598211059,
				"element": "H" 
			},
			{
				"x": -2.5350751919,
				"y": 3.7376827671,
				"z": -2.831118465,
				"element": "H" 
			},
			{
				"x": -2.9751717989,
				"y": 3.1778245897,
				"z": -1.2223375961,
				"element": "H" 
			},
			{
				"x": -0.5303342862,
				"y": 2.2345081174,
				"z": -2.7735053759,
				"element": "H" 
			},
			{
				"x": -0.273122714,
				"y": 4.6277958211,
				"z": -2.0892510649,
				"element": "H" 
			},
			{
				"x": 0.7570984734,
				"y": 3.6096312741,
				"z": -1.0685225397,
				"element": "H" 
			},
			{
				"x": -0.7810380584,
				"y": 4.2203444908,
				"z": -0.4373507357,
				"element": "H" 
			},
			{
				"x": -1.8838142975,
				"y": 0.601775494,
				"z": 0.889552192,
				"element": "H" 
			},
			{
				"x": -2.6744748807,
				"y": -0.6514374037,
				"z": 2.583938277,
				"element": "H" 
			},
			{
				"x": -1.6162633564,
				"y": -3.2845132385,
				"z": 4.2994949,
				"element": "H" 
			},
			{
				"x": 1.0716364851,
				"y": -1.738883925,
				"z": 1.4229503937,
				"element": "H" 
			},
			{
				"x": 3.1149921229,
				"y": -1.5949173153,
				"z": 0.0279630485,
				"element": "H" 
			},
			{
				"x": 3.2292650482,
				"y": 0.0778501122,
				"z": -1.8180285991,
				"element": "H" 
			},
			{
				"x": 1.335974154,
				"y": 1.5735648389,
				"z": -2.2541540088,
				"element": "H" 
			}
		],
		 "valence_orbital": [ 
			{
				"type": "occ",
				"energy": -0.31083,
				"method": "rhf"
			},
			{
				"type": "occ",
				"energy": -0.29689,
				"method": "rhf"
			},
			{
				"type": "occ",
				"energy": -0.26256,
				"method": "rhf"
			},
			{
				"type": "occ",
				"energy": -0.2378,
				"method": "rhf"
			},
			{
				"type": "occ",
				"energy": -0.21502,
				"method": "rhf"
			},
			{
				"type": "unocc",
				"energy": -0.06091,
				"method": "rhf"
			},
			{
				"type": "unocc",
				"energy": 0.01033,
				"method": "rhf"
			},
			{
				"type": "unocc",
				"energy": 0.02351,
				"method": "rhf"
			},
			{
				"type": "unocc",
				"energy": 0.08383,
				"method": "rhf"
			},
			{
				"type": "unocc",
				"energy": 0.08899,
				"method": "rhf"
			}
		],
		"cosmo_sigma_profile": { 
			"-0.025": 0.0,
			"-0.024": 0.0,
			"-0.023": 0.0,
			"-0.022": 0.0,
			"-0.021": 0.0,
			"-0.02": 0.0,
			"-0.019": 0.0,
			"-0.018": 0.3006737612,
			"-0.017": 0.734576840002,
			"-0.016": 1.08634673194,
			"-0.015": 0.501752803556,
			"-0.014": 0.899735474785,
			"-0.013": 0.439778566314,
			"-0.012": 0.976870237894,
			"-0.011": 0.720343156353,
			"-0.01": 0.446622534392,
			"-0.009": 0.84677618374,
			"-0.008": 0.455169470603,
			"-0.007": 2.90056817441,
			"-0.006": 8.00150435215,
			"-0.005": 12.5204815198,
			"-0.004": 17.3321982413,
			"-0.003": 26.7372087601,
			"-0.002": 23.0499930422,
			"-0.001": 27.397476071,
			"0.0": 30.2384163755,
			"0.001": 26.5925744917,
			"0.002": 22.9309707052,
			"0.003": 22.8041793266,
			"0.004": 18.8363739236,
			"0.005": 11.1251823849,
			"0.006": 4.13723322224,
			"0.007": 2.52293521772,
			"0.008": 2.56091079764,
			"0.009": 3.53717576073,
			"0.01": 2.66683992313,
			"0.011": 2.50119344793,
			"0.012": 2.19278701073,
			"0.013": 0.216418881526,
			"0.014": 0.0,
			"0.015": 0.0,
			"0.016": 0.0,
			"0.017": 0.0,
			"0.018": 0.0,
			"0.019": 0.0,
			"0.02": 0.0,
			"0.021": 0.0,
			"0.022": 0.0,
			"0.023": 0.0,
			"0.024": 0.0,
			"0.025": 0.0
		}
	}
}
