{
	 "smiles": "OC(=O)C1=CC(=CC=C1)C1CCCOC1", 
	 "Tm": 356.15, 
	 "num_atms": 29, 
	 "gaussian": { 
		 "optdone": 1, 
		 "sigma_profile": "yes", 
		 "theory": "DFT", 
		 "functional": "B3LYP", 
		 "basiset": "6-31G**", 
		 "properties": { 
			 "R2extent": 4511.5878, 
			 "electric_dipole_moment_norm": 5.40512720017, 
			 "electric_quadrupole_moment_norm": 25.0153464939, 
			 "total_energy": -691.382763564, 
			 "HOMO_LUMO_gap": 0.19176, 
			 "cosmo_polarized_energy": -16.55, 
			 "cosmo_cavitation_energy": 31.35, 
			 "cosmo_dispersion_energy": -22.95, 
			 "cosmo_repulsion_energy": 1.8, 
			 "cosmo_total_nonelectrostatic_energy": 10.2, 
			 "SMD_solvation_energy": 5.9 
		},
		"coords": [
			{
				"x": 4.5285547182,
				"y": -2.1836638928,
				"z": -1.5498767304,
				"element": "O" 
			},
			{
				"x": 3.9572328826,
				"y": -1.2259718342,
				"z": -0.7701399988,
				"element": "C" 
			},
			{
				"x": 4.6468133095,
				"y": -0.5513499797,
				"z": -0.0422203902,
				"element": "O" 
			},
			{
				"x": 2.4681494618,
				"y": -1.0739361284,
				"z": -0.8713631927,
				"element": "C" 
			},
			{
				"x": 1.8124562285,
				"y": -0.4247027887,
				"z": 0.1827518966,
				"element": "C" 
			},
			{
				"x": 0.426973525,
				"y": -0.2429489493,
				"z": 0.1789361855,
				"element": "C" 
			},
			{
				"x": -0.2978295094,
				"y": -0.711989367,
				"z": -0.9301111097,
				"element": "C" 
			},
			{
				"x": 0.3455818373,
				"y": -1.334561089,
				"z": -1.9987697189,
				"element": "C" 
			},
			{
				"x": 1.7274992679,
				"y": -1.5204895476,
				"z": -1.9735770565,
				"element": "C" 
			},
			{
				"x": -0.2601437481,
				"y": 0.4694291204,
				"z": 1.3282954723,
				"element": "C" 
			},
			{
				"x": -1.3454362883,
				"y": -0.390235207,
				"z": 2.0380888083,
				"element": "C" 
			},
			{
				"x": -2.4442529645,
				"y": 0.4965227813,
				"z": 2.6659936491,
				"element": "C" 
			},
			{
				"x": -1.8777241679,
				"y": 1.851995649,
				"z": 3.079716585,
				"element": "C" 
			},
			{
				"x": -1.3484166,
				"y": 2.5861207122,
				"z": 1.9732372476,
				"element": "O" 
			},
			{
				"x": -0.8792542664,
				"y": 1.8079836691,
				"z": 0.8789247527,
				"element": "C" 
			},
			{
				"x": 3.8449973902,
				"y": -2.7412574173,
				"z": -1.9462280954,
				"element": "H" 
			},
			{
				"x": 2.4146286602,
				"y": -0.0663160801,
				"z": 1.0119053707,
				"element": "H" 
			},
			{
				"x": -1.3763268131,
				"y": -0.5845367886,
				"z": -0.9641766006,
				"element": "H" 
			},
			{
				"x": -0.2300377541,
				"y": -1.6704838365,
				"z": -2.8561043384,
				"element": "H" 
			},
			{
				"x": 2.2165357358,
				"y": -1.9747630107,
				"z": -2.8320294689,
				"element": "H" 
			},
			{
				"x": 0.5115577437,
				"y": 0.7258701375,
				"z": 2.0636350005,
				"element": "H" 
			},
			{
				"x": -0.8627151803,
				"y": -1.0047419609,
				"z": 2.806159194,
				"element": "H" 
			},
			{
				"x": -1.7994795219,
				"y": -1.0888829679,
				"z": 1.3273563753,
				"element": "H" 
			},
			{
				"x": -3.2555885572,
				"y": 0.6635155838,
				"z": 1.9474972521,
				"element": "H" 
			},
			{
				"x": -2.8928367733,
				"y": 0.0019299265,
				"z": 3.5344433744,
				"element": "H" 
			},
			{
				"x": -1.0934088975,
				"y": 1.7105171595,
				"z": 3.8416828237,
				"element": "H" 
			},
			{
				"x": -2.6525732745,
				"y": 2.4851103277,
				"z": 3.5253104986,
				"element": "H" 
			},
			{
				"x": -1.6949776684,
				"y": 1.616310402,
				"z": 0.1614591369,
				"element": "H" 
			},
			{
				"x": -0.1330787758,
				"y": 2.421925377,
				"z": 0.3645030772,
				"element": "H" 
			}
		],
		 "valence_orbital": [ 
			{
				"type": "occ",
				"energy": -0.29695,
				"method": "rhf"
			},
			{
				"type": "occ",
				"energy": -0.2772,
				"method": "rhf"
			},
			{
				"type": "occ",
				"energy": -0.26515,
				"method": "rhf"
			},
			{
				"type": "occ",
				"energy": -0.26242,
				"method": "rhf"
			},
			{
				"type": "occ",
				"energy": -0.2441,
				"method": "rhf"
			},
			{
				"type": "unocc",
				"energy": -0.05234,
				"method": "rhf"
			},
			{
				"type": "unocc",
				"energy": -0.02233,
				"method": "rhf"
			},
			{
				"type": "unocc",
				"energy": 0.04432,
				"method": "rhf"
			},
			{
				"type": "unocc",
				"energy": 0.05994,
				"method": "rhf"
			},
			{
				"type": "unocc",
				"energy": 0.07491,
				"method": "rhf"
			}
		],
		"cosmo_sigma_profile": { 
			"-0.025": 0.0,
			"-0.024": 0.0,
			"-0.023": 0.0,
			"-0.022": 0.0,
			"-0.021": 0.0,
			"-0.02": 0.0,
			"-0.019": 0.0127502362135,
			"-0.018": 0.784754966023,
			"-0.017": 1.00412161241,
			"-0.016": 0.911265340771,
			"-0.015": 1.10759231071,
			"-0.014": 0.940326129219,
			"-0.013": 0.65738355816,
			"-0.012": 1.07281482102,
			"-0.011": 1.67994908908,
			"-0.01": 1.16204218575,
			"-0.009": 0.958087979347,
			"-0.008": 1.61093488552,
			"-0.007": 2.87927764623,
			"-0.006": 9.72761478837,
			"-0.005": 11.2966761008,
			"-0.004": 18.020473083,
			"-0.003": 31.5845494259,
			"-0.002": 29.5387550261,
			"-0.001": 22.7474222216,
			"0.0": 18.3205989095,
			"0.001": 12.7990516059,
			"0.002": 10.9844547311,
			"0.003": 13.5191216899,
			"0.004": 9.79296650058,
			"0.005": 4.17061398135,
			"0.006": 3.93915321246,
			"0.007": 2.87052198348,
			"0.008": 3.67760832149,
			"0.009": 5.09486929023,
			"0.01": 6.04792540651,
			"0.011": 5.91478550158,
			"0.012": 6.36855505125,
			"0.013": 3.68151793789,
			"0.014": 1.67271942087,
			"0.015": 0.0663658716535,
			"0.016": 0.0,
			"0.017": 0.0,
			"0.018": 0.0,
			"0.019": 0.0,
			"0.02": 0.0,
			"0.021": 0.0,
			"0.022": 0.0,
			"0.023": 0.0,
			"0.024": 0.0,
			"0.025": 0.0
		}
	}
}
