{
	 "smiles": "CN1C=CN=C1C1=NNC(N)=C1", 
	 "Tm": 441.15, 
	 "num_atms": 21, 
	 "gaussian": { 
		 "optdone": 1, 
		 "sigma_profile": "yes", 
		 "theory": "DFT", 
		 "functional": "B3LYP", 
		 "basiset": "6-31G**", 
		 "properties": { 
			 "R2extent": 3010.3845, 
			 "electric_dipole_moment_norm": 3.50561827642, 
			 "electric_quadrupole_moment_norm": 15.5396231486, 
			 "total_energy": -545.901730193, 
			 "HOMO_LUMO_gap": 0.19635, 
			 "cosmo_polarized_energy": -18.93, 
			 "cosmo_cavitation_energy": 25.23, 
			 "cosmo_dispersion_energy": -18.91, 
			 "cosmo_repulsion_energy": 1.51, 
			 "cosmo_total_nonelectrostatic_energy": 7.83, 
			 "SMD_solvation_energy": 2.67 
		},
		"coords": [
			{
				"x": 2.7485310505,
				"y": 3.1130045031,
				"z": 0.9215256997,
				"element": "C" 
			},
			{
				"x": 2.7982683188,
				"y": 1.6922770102,
				"z": 0.6011553457,
				"element": "N" 
			},
			{
				"x": 3.9466688662,
				"y": 0.9721427975,
				"z": 0.345757062,
				"element": "C" 
			},
			{
				"x": 3.5388613037,
				"y": -0.3148720018,
				"z": 0.0900121337,
				"element": "C" 
			},
			{
				"x": 2.1767423076,
				"y": -0.4121440346,
				"z": 0.1788458466,
				"element": "N" 
			},
			{
				"x": 1.7502694252,
				"y": 0.8071770692,
				"z": 0.487391956,
				"element": "C" 
			},
			{
				"x": 0.3439110326,
				"y": 1.1367230109,
				"z": 0.6740357659,
				"element": "C" 
			},
			{
				"x": -0.0817149298,
				"y": 2.3611081609,
				"z": 1.0028462333,
				"element": "N" 
			},
			{
				"x": -1.4327817596,
				"y": 2.2243104618,
				"z": 1.0881968319,
				"element": "N" 
			},
			{
				"x": -1.8611054858,
				"y": 0.9569143171,
				"z": 0.823951332,
				"element": "C" 
			},
			{
				"x": -3.2256035516,
				"y": 0.6491592106,
				"z": 0.8047885167,
				"element": "N" 
			},
			{
				"x": -0.729171938,
				"y": 0.2135375651,
				"z": 0.553102743,
				"element": "C" 
			},
			{
				"x": 2.2900099639,
				"y": 3.2719454872,
				"z": 1.8994424106,
				"element": "H" 
			},
			{
				"x": 2.1538259016,
				"y": 3.6543012343,
				"z": 0.1830006628,
				"element": "H" 
			},
			{
				"x": 3.769248207,
				"y": 3.4997525463,
				"z": 0.9261054967,
				"element": "H" 
			},
			{
				"x": 4.9200879375,
				"y": 1.4383271619,
				"z": 0.3710311146,
				"element": "H" 
			},
			{
				"x": 4.1540723182,
				"y": -1.1707488641,
				"z": -0.1521942724,
				"element": "H" 
			},
			{
				"x": -2.0043784343,
				"y": 3.0426982117,
				"z": 1.2244498839,
				"element": "H" 
			},
			{
				"x": -3.3825870493,
				"y": -0.324454881,
				"z": 0.5760836727,
				"element": "H" 
			},
			{
				"x": -3.7002330511,
				"y": 0.8695620044,
				"z": 1.674662654,
				"element": "H" 
			},
			{
				"x": -0.6552204331,
				"y": -0.8365209708,
				"z": 0.3196089104,
				"element": "H" 
			}
		],
		 "valence_orbital": [ 
			{
				"type": "occ",
				"energy": -0.27162,
				"method": "rhf"
			},
			{
				"type": "occ",
				"energy": -0.25147,
				"method": "rhf"
			},
			{
				"type": "occ",
				"energy": -0.25109,
				"method": "rhf"
			},
			{
				"type": "occ",
				"energy": -0.21383,
				"method": "rhf"
			},
			{
				"type": "occ",
				"energy": -0.19261,
				"method": "rhf"
			},
			{
				"type": "unocc",
				"energy": 0.00374,
				"method": "rhf"
			},
			{
				"type": "unocc",
				"energy": 0.05038,
				"method": "rhf"
			},
			{
				"type": "unocc",
				"energy": 0.06794,
				"method": "rhf"
			},
			{
				"type": "unocc",
				"energy": 0.07605,
				"method": "rhf"
			},
			{
				"type": "unocc",
				"energy": 0.09657,
				"method": "rhf"
			}
		],
		"cosmo_sigma_profile": { 
			"-0.025": 0.0,
			"-0.024": 0.0,
			"-0.023": 0.0,
			"-0.022": 0.0,
			"-0.021": 0.0,
			"-0.02": 0.0,
			"-0.019": 0.0,
			"-0.018": 0.0,
			"-0.017": 0.0351666016582,
			"-0.016": 1.13812872691,
			"-0.015": 1.35923642103,
			"-0.014": 1.3718555345,
			"-0.013": 3.50008694501,
			"-0.012": 4.32946074566,
			"-0.011": 3.58961863552,
			"-0.01": 4.30782971168,
			"-0.009": 3.49041544642,
			"-0.008": 5.49384402063,
			"-0.007": 5.97790098257,
			"-0.006": 8.96267030717,
			"-0.005": 9.41713305741,
			"-0.004": 11.12128618,
			"-0.003": 13.852340228,
			"-0.002": 11.7096294454,
			"-0.001": 7.18642870014,
			"0.0": 8.13451290977,
			"0.001": 7.69623436874,
			"0.002": 7.96650507621,
			"0.003": 10.003406627,
			"0.004": 12.0456033487,
			"0.005": 13.9492565342,
			"0.006": 11.5926222812,
			"0.007": 6.53830930727,
			"0.008": 5.0764209166,
			"0.009": 4.49607912734,
			"0.01": 3.7519637045,
			"0.011": 2.77837978016,
			"0.012": 3.31221005831,
			"0.013": 1.72432356121,
			"0.014": 1.06592007352,
			"0.015": 2.11125367349,
			"0.016": 0.99167653112,
			"0.017": 0.616807648118,
			"0.018": 0.0151987776684,
			"0.019": 0.0,
			"0.02": 0.0,
			"0.021": 0.0,
			"0.022": 0.0,
			"0.023": 0.0,
			"0.024": 0.0,
			"0.025": 0.0
		}
	}
}
