{
	 "smiles": "[O-][N+](=O)C1=CC2=C(CCC2)N=C1", 
	 "Tm": 359.15, 
	 "num_atms": 20, 
	 "gaussian": { 
		 "optdone": 1, 
		 "sigma_profile": "yes", 
		 "theory": "DFT", 
		 "functional": "B3LYP", 
		 "basiset": "6-31G**", 
		 "properties": { 
			 "R2extent": 2632.3619, 
			 "electric_dipole_moment_norm": 5.01631704939, 
			 "electric_quadrupole_moment_norm": 14.3347504328, 
			 "total_energy": -569.526437762, 
			 "HOMO_LUMO_gap": 0.17761, 
			 "cosmo_polarized_energy": -9.08, 
			 "cosmo_cavitation_energy": 24.0, 
			 "cosmo_dispersion_energy": -18.13, 
			 "cosmo_repulsion_energy": 1.45, 
			 "cosmo_total_nonelectrostatic_energy": 7.32, 
			 "SMD_solvation_energy": 4.26 
		},
		"coords": [
			{
				"x": 0.1625525072,
				"y": 3.3946064523,
				"z": -2.8030070929,
				"element": "O" 
			},
			{
				"x": 0.1061129926,
				"y": 3.3014166347,
				"z": -1.5773812686,
				"element": "N" 
			},
			{
				"x": -0.1117033422,
				"y": 4.2392071781,
				"z": -0.8098492788,
				"element": "O" 
			},
			{
				"x": 0.3124650425,
				"y": 1.9760642589,
				"z": -0.9842433735,
				"element": "C" 
			},
			{
				"x": 0.2534105487,
				"y": 1.8301687614,
				"z": 0.4043235497,
				"element": "C" 
			},
			{
				"x": 0.4665538607,
				"y": 0.5533794142,
				"z": 0.9000638422,
				"element": "C" 
			},
			{
				"x": 0.7195559351,
				"y": -0.4896309095,
				"z": -0.0110359209,
				"element": "C" 
			},
			{
				"x": 0.9119860135,
				"y": -1.79897471,
				"z": 0.7167305563,
				"element": "C" 
			},
			{
				"x": 1.1572434754,
				"y": -1.3557924122,
				"z": 2.1807824843,
				"element": "C" 
			},
			{
				"x": 0.4636869942,
				"y": 0.0289442467,
				"z": 2.3166716698,
				"element": "C" 
			},
			{
				"x": 0.7688134607,
				"y": -0.349648165,
				"z": -1.3378451046,
				"element": "N" 
			},
			{
				"x": 0.5664532234,
				"y": 0.8842629137,
				"z": -1.8170215257,
				"element": "C" 
			},
			{
				"x": 0.0542823274,
				"y": 2.6925194371,
				"z": 1.030267502,
				"element": "H" 
			},
			{
				"x": -0.0017477809,
				"y": -2.4024741797,
				"z": 0.6251487768,
				"element": "H" 
			},
			{
				"x": 1.7262543848,
				"y": -2.3921944909,
				"z": 0.2916276524,
				"element": "H" 
			},
			{
				"x": 2.2332129648,
				"y": -1.2371532565,
				"z": 2.3476054647,
				"element": "H" 
			},
			{
				"x": 0.7916020196,
				"y": -2.0806344925,
				"z": 2.9120898247,
				"element": "H" 
			},
			{
				"x": -0.5696361422,
				"y": -0.081188116,
				"z": 2.6732531192,
				"element": "H" 
			},
			{
				"x": 0.9728496482,
				"y": 0.6919758748,
				"z": 3.023111678,
				"element": "H" 
			},
			{
				"x": 0.6077518666,
				"y": 1.0244455605,
				"z": -2.891992555,
				"element": "H" 
			}
		],
		 "valence_orbital": [ 
			{
				"type": "occ",
				"energy": -0.31238,
				"method": "rhf"
			},
			{
				"type": "occ",
				"energy": -0.30615,
				"method": "rhf"
			},
			{
				"type": "occ",
				"energy": -0.29409,
				"method": "rhf"
			},
			{
				"type": "occ",
				"energy": -0.27205,
				"method": "rhf"
			},
			{
				"type": "occ",
				"energy": -0.27008,
				"method": "rhf"
			},
			{
				"type": "unocc",
				"energy": -0.09247,
				"method": "rhf"
			},
			{
				"type": "unocc",
				"energy": -0.04508,
				"method": "rhf"
			},
			{
				"type": "unocc",
				"energy": -0.00336,
				"method": "rhf"
			},
			{
				"type": "unocc",
				"energy": 0.08153,
				"method": "rhf"
			},
			{
				"type": "unocc",
				"energy": 0.0963,
				"method": "rhf"
			}
		],
		"cosmo_sigma_profile": { 
			"-0.025": 0.0,
			"-0.024": 0.0,
			"-0.023": 0.0,
			"-0.022": 0.0,
			"-0.021": 0.0,
			"-0.02": 0.0,
			"-0.019": 0.0,
			"-0.018": 0.0,
			"-0.017": 0.0,
			"-0.016": 0.0,
			"-0.015": 0.0,
			"-0.014": 0.0,
			"-0.013": 0.0,
			"-0.012": 0.0,
			"-0.011": 0.0,
			"-0.01": 0.0,
			"-0.009": 0.138633817751,
			"-0.008": 1.52416164208,
			"-0.007": 2.68159052447,
			"-0.006": 5.18359506759,
			"-0.005": 11.94263522,
			"-0.004": 21.5805937857,
			"-0.003": 25.2802573051,
			"-0.002": 26.0135863556,
			"-0.001": 24.3464664804,
			"0.0": 15.4184164079,
			"0.001": 4.7128876506,
			"0.002": 3.61211300834,
			"0.003": 4.8250993125,
			"0.004": 4.08963526481,
			"0.005": 4.46770738571,
			"0.006": 4.96862427059,
			"0.007": 9.20857460073,
			"0.008": 8.36864035035,
			"0.009": 5.43268774031,
			"0.01": 3.3418877153,
			"0.011": 1.05288873203,
			"0.012": 0.720816304627,
			"0.013": 0.436486740495,
			"0.014": 1.24669908297,
			"0.015": 0.498970050544,
			"0.016": 0.123025378589,
			"0.017": 0.0,
			"0.018": 0.0,
			"0.019": 0.0,
			"0.02": 0.0,
			"0.021": 0.0,
			"0.022": 0.0,
			"0.023": 0.0,
			"0.024": 0.0,
			"0.025": 0.0
		}
	}
}
