{
	 "smiles": "CC1(CC(=O)NC(=O)C1)C1=CC=CC=C1", 
	 "Tm": 424.15, 
	 "num_atms": 28, 
	 "gaussian": { 
		 "optdone": 1, 
		 "sigma_profile": "yes", 
		 "theory": "DFT", 
		 "functional": "B3LYP", 
		 "basiset": "6-31G**", 
		 "properties": { 
			 "R2extent": 3640.5409, 
			 "electric_dipole_moment_norm": 3.19542727503, 
			 "electric_quadrupole_moment_norm": 14.9794423731, 
			 "total_energy": -670.349234568, 
			 "HOMO_LUMO_gap": 0.22238, 
			 "cosmo_polarized_energy": -14.76, 
			 "cosmo_cavitation_energy": 30.19, 
			 "cosmo_dispersion_energy": -21.39, 
			 "cosmo_repulsion_energy": 1.67, 
			 "cosmo_total_nonelectrostatic_energy": 10.47, 
			 "SMD_solvation_energy": 6.31 
		},
		"coords": [
			{
				"x": 0.1967305536,
				"y": -1.062836533,
				"z": -0.8597737096,
				"element": "C" 
			},
			{
				"x": 0.200443564,
				"y": 0.4310091101,
				"z": -0.4669159046,
				"element": "C" 
			},
			{
				"x": -0.6574713437,
				"y": 1.2086301869,
				"z": -1.4876022462,
				"element": "C" 
			},
			{
				"x": -0.5945570261,
				"y": 2.7188278422,
				"z": -1.3410006776,
				"element": "C" 
			},
			{
				"x": -1.5101732385,
				"y": 3.4669821357,
				"z": -1.628999953,
				"element": "O" 
			},
			{
				"x": 0.6179131053,
				"y": 3.2206148248,
				"z": -0.8730163668,
				"element": "N" 
			},
			{
				"x": 1.7326500408,
				"y": 2.5020981866,
				"z": -0.4377820973,
				"element": "C" 
			},
			{
				"x": 2.7096982544,
				"y": 3.078716317,
				"z": -0.0012668256,
				"element": "O" 
			},
			{
				"x": 1.6391501739,
				"y": 0.9941053439,
				"z": -0.5926226329,
				"element": "C" 
			},
			{
				"x": -0.3147643312,
				"y": 0.5757888991,
				"z": 0.9793376154,
				"element": "C" 
			},
			{
				"x": 0.4195607695,
				"y": 0.0046057012,
				"z": 2.0330890513,
				"element": "C" 
			},
			{
				"x": -0.0204714216,
				"y": 0.0848297526,
				"z": 3.3525118359,
				"element": "C" 
			},
			{
				"x": -1.2146508277,
				"y": 0.7420502674,
				"z": 3.655562976,
				"element": "C" 
			},
			{
				"x": -1.956017561,
				"y": 1.3137125189,
				"z": 2.6243206144,
				"element": "C" 
			},
			{
				"x": -1.5120845795,
				"y": 1.2303798203,
				"z": 1.3012990206,
				"element": "C" 
			},
			{
				"x": 0.5624345779,
				"y": -1.1984111258,
				"z": -1.8839241326,
				"element": "H" 
			},
			{
				"x": -0.815910363,
				"y": -1.4735394502,
				"z": -0.8001840545,
				"element": "H" 
			},
			{
				"x": 0.8336894348,
				"y": -1.6514849173,
				"z": -0.193768889,
				"element": "H" 
			},
			{
				"x": -1.7095334345,
				"y": 0.9178797367,
				"z": -1.4657637371,
				"element": "H" 
			},
			{
				"x": -0.2917627486,
				"y": 0.972473925,
				"z": -2.4962181761,
				"element": "H" 
			},
			{
				"x": 0.6722781491,
				"y": 4.2289436935,
				"z": -0.7698600768,
				"element": "H" 
			},
			{
				"x": 2.0336355806,
				"y": 0.7486061299,
				"z": -1.5888992947,
				"element": "H" 
			},
			{
				"x": 2.3276530089,
				"y": 0.5588797231,
				"z": 0.1332025498,
				"element": "H" 
			},
			{
				"x": 1.3508731234,
				"y": -0.5151055092,
				"z": 1.8262047945,
				"element": "H" 
			},
			{
				"x": 0.5715032987,
				"y": -0.3655715721,
				"z": 4.1441778954,
				"element": "H" 
			},
			{
				"x": -1.5594510871,
				"y": 0.8082300657,
				"z": 4.6832371354,
				"element": "H" 
			},
			{
				"x": -2.8857305603,
				"y": 1.8316648611,
				"z": 2.841680214,
				"element": "H" 
			},
			{
				"x": -2.1154351122,
				"y": 1.6959200657,
				"z": 0.5300750717,
				"element": "H" 
			}
		],
		 "valence_orbital": [ 
			{
				"type": "occ",
				"energy": -0.28548,
				"method": "rhf"
			},
			{
				"type": "occ",
				"energy": -0.28069,
				"method": "rhf"
			},
			{
				"type": "occ",
				"energy": -0.25864,
				"method": "rhf"
			},
			{
				"type": "occ",
				"energy": -0.25616,
				"method": "rhf"
			},
			{
				"type": "occ",
				"energy": -0.25081,
				"method": "rhf"
			},
			{
				"type": "unocc",
				"energy": -0.02843,
				"method": "rhf"
			},
			{
				"type": "unocc",
				"energy": -0.01161,
				"method": "rhf"
			},
			{
				"type": "unocc",
				"energy": -0.00566,
				"method": "rhf"
			},
			{
				"type": "unocc",
				"energy": 0.03053,
				"method": "rhf"
			},
			{
				"type": "unocc",
				"energy": 0.06892,
				"method": "rhf"
			}
		],
		"cosmo_sigma_profile": { 
			"-0.025": 0.0,
			"-0.024": 0.0,
			"-0.023": 0.0,
			"-0.022": 0.0,
			"-0.021": 0.0,
			"-0.02": 0.0,
			"-0.019": 0.0,
			"-0.018": 0.0,
			"-0.017": 0.0,
			"-0.016": 0.0814261554022,
			"-0.015": 0.81243569729,
			"-0.014": 0.884338137439,
			"-0.013": 0.704543958675,
			"-0.012": 0.710654290676,
			"-0.011": 0.427707409208,
			"-0.01": 1.31123330208,
			"-0.009": 1.4503580916,
			"-0.008": 3.95489897162,
			"-0.007": 8.82139576748,
			"-0.006": 12.769295845,
			"-0.005": 19.0235837076,
			"-0.004": 22.2735590313,
			"-0.003": 21.5817108896,
			"-0.002": 17.180465097,
			"-0.001": 16.9598565933,
			"0.0": 17.7646052433,
			"0.001": 11.5894338457,
			"0.002": 10.2520448023,
			"0.003": 9.67834678941,
			"0.004": 9.57033970893,
			"0.005": 10.3488293626,
			"0.006": 8.52828071153,
			"0.007": 2.36748043621,
			"0.008": 2.34939255578,
			"0.009": 2.71015515258,
			"0.01": 3.47698664715,
			"0.011": 6.21930782706,
			"0.012": 10.4178383933,
			"0.013": 3.91592207979,
			"0.014": 0.114657656947,
			"0.015": 0.0,
			"0.016": 0.0,
			"0.017": 0.0,
			"0.018": 0.0,
			"0.019": 0.0,
			"0.02": 0.0,
			"0.021": 0.0,
			"0.022": 0.0,
			"0.023": 0.0,
			"0.024": 0.0,
			"0.025": 0.0
		}
	}
}
