{
	 "smiles": "FC(F)(F)C(F)(C(F)(F)F)C(F)(C(F)(F)F)C(F)(F)F", 
	 "Tm": 256.45, 
	 "num_atms": 20, 
	 "gaussian": { 
		 "optdone": 1, 
		 "sigma_profile": "yes", 
		 "theory": "DFT", 
		 "functional": "B3LYP", 
		 "basiset": "6-31G**", 
		 "properties": { 
			 "R2extent": 4256.5566, 
			 "electric_dipole_moment_norm": 0.0791846576049, 
			 "electric_quadrupole_moment_norm": 0.706756598837, 
			 "total_energy": -1626.36137244, 
			 "HOMO_LUMO_gap": 0.3625, 
			 "cosmo_polarized_energy": -0.79, 
			 "cosmo_cavitation_energy": 27.92, 
			 "cosmo_dispersion_energy": -19.18, 
			 "cosmo_repulsion_energy": 1.2, 
			 "cosmo_total_nonelectrostatic_energy": 9.94, 
			 "SMD_solvation_energy": 9.23 
		},
		"coords": [
			{
				"x": 2.3968071497,
				"y": -2.1393877697,
				"z": 1.0706826613,
				"element": "F" 
			},
			{
				"x": 1.69013999,
				"y": -1.1067370041,
				"z": 1.5431523851,
				"element": "C" 
			},
			{
				"x": 0.6487686509,
				"y": -1.5719206566,
				"z": 2.2395000765,
				"element": "F" 
			},
			{
				"x": 2.488501868,
				"y": -0.4151558652,
				"z": 2.3712007127,
				"element": "F" 
			},
			{
				"x": 1.2415350299,
				"y": -0.1677025726,
				"z": 0.3737527062,
				"element": "C" 
			},
			{
				"x": 2.3891418496,
				"y": 0.0833638915,
				"z": -0.3371855598,
				"element": "F" 
			},
			{
				"x": 0.7495875719,
				"y": 1.1908233074,
				"z": 1.0236002107,
				"element": "C" 
			},
			{
				"x": 0.1201071667,
				"y": 0.9475085531,
				"z": 2.183161445,
				"element": "F" 
			},
			{
				"x": 1.820142344,
				"y": 1.9534141973,
				"z": 1.2620803263,
				"element": "F" 
			},
			{
				"x": -0.0953722272,
				"y": 1.8854312936,
				"z": 0.2548763109,
				"element": "F" 
			},
			{
				"x": 0.1832284196,
				"y": -0.746172035,
				"z": -0.6285860181,
				"element": "C" 
			},
			{
				"x": -1.0601111547,
				"y": -0.5227005529,
				"z": -0.0904386527,
				"element": "F" 
			},
			{
				"x": 0.255109147,
				"y": -0.0230077208,
				"z": -2.0363919888,
				"element": "C" 
			},
			{
				"x": 1.0697244713,
				"y": -0.6976014042,
				"z": -2.8618303298,
				"element": "F" 
			},
			{
				"x": -0.9736087009,
				"y": -0.0018400941,
				"z": -2.5601595459,
				"element": "F" 
			},
			{
				"x": 0.7062798106,
				"y": 1.2341454207,
				"z": -1.978330509,
				"element": "F" 
			},
			{
				"x": 0.235244438,
				"y": -2.2878830264,
				"z": -0.8946145581,
				"element": "C" 
			},
			{
				"x": -0.6417619072,
				"y": -2.5893810036,
				"z": -1.8648300136,
				"element": "F" 
			},
			{
				"x": -0.1264814191,
				"y": -2.965145438,
				"z": 0.200566078,
				"element": "F" 
			},
			{
				"x": 1.451617502,
				"y": -2.6896515204,
				"z": -1.2751057368,
				"element": "F" 
			}
		],
		 "valence_orbital": [ 
			{
				"type": "occ",
				"energy": -0.42958,
				"method": "rhf"
			},
			{
				"type": "occ",
				"energy": -0.42576,
				"method": "rhf"
			},
			{
				"type": "occ",
				"energy": -0.39763,
				"method": "rhf"
			},
			{
				"type": "occ",
				"energy": -0.38605,
				"method": "rhf"
			},
			{
				"type": "occ",
				"energy": -0.37336,
				"method": "rhf"
			},
			{
				"type": "unocc",
				"energy": -0.01086,
				"method": "rhf"
			},
			{
				"type": "unocc",
				"energy": 0.04205,
				"method": "rhf"
			},
			{
				"type": "unocc",
				"energy": 0.06072,
				"method": "rhf"
			},
			{
				"type": "unocc",
				"energy": 0.0734,
				"method": "rhf"
			},
			{
				"type": "unocc",
				"energy": 0.10886,
				"method": "rhf"
			}
		],
		"cosmo_sigma_profile": { 
			"-0.025": 0.0,
			"-0.024": 0.0,
			"-0.023": 0.0,
			"-0.022": 0.0,
			"-0.021": 0.0,
			"-0.02": 0.0,
			"-0.019": 0.0,
			"-0.018": 0.0,
			"-0.017": 0.0,
			"-0.016": 0.0,
			"-0.015": 0.0,
			"-0.014": 0.0,
			"-0.013": 0.0,
			"-0.012": 0.0,
			"-0.011": 0.0,
			"-0.01": 0.0,
			"-0.009": 0.0,
			"-0.008": 0.0,
			"-0.007": 0.0,
			"-0.006": 0.0,
			"-0.005": 0.570389887513,
			"-0.004": 3.38467905124,
			"-0.003": 7.41845955495,
			"-0.002": 11.7625279193,
			"-0.001": 27.299125171,
			"0.0": 85.1329893106,
			"0.001": 88.5364982053,
			"0.002": 0.833925968041,
			"0.003": 0.0,
			"0.004": 0.0,
			"0.005": 0.0,
			"0.006": 0.0,
			"0.007": 0.0,
			"0.008": 0.0,
			"0.009": 0.0,
			"0.01": 0.0,
			"0.011": 0.0,
			"0.012": 0.0,
			"0.013": 0.0,
			"0.014": 0.0,
			"0.015": 0.0,
			"0.016": 0.0,
			"0.017": 0.0,
			"0.018": 0.0,
			"0.019": 0.0,
			"0.02": 0.0,
			"0.021": 0.0,
			"0.022": 0.0,
			"0.023": 0.0,
			"0.024": 0.0,
			"0.025": 0.0
		}
	}
}
