{
	 "smiles": "CCN(CC)CN1C(=S)SC(=CC2=CC=CO2)C1=O", 
	 "Tm": 418.15, 
	 "num_atms": 35, 
	 "gaussian": { 
		 "optdone": 1, 
		 "sigma_profile": "yes", 
		 "theory": "DFT", 
		 "functional": "B3LYP", 
		 "basiset": "6-31G**", 
		 "properties": { 
			 "R2extent": 8405.7544, 
			 "electric_dipole_moment_norm": 4.207235388, 
			 "electric_quadrupole_moment_norm": 22.9478637226, 
			 "total_energy": -1561.32732986, 
			 "HOMO_LUMO_gap": 0.11927, 
			 "cosmo_polarized_energy": -11.14, 
			 "cosmo_cavitation_energy": 40.85, 
			 "cosmo_dispersion_energy": -29.04, 
			 "cosmo_repulsion_energy": 2.15, 
			 "cosmo_total_nonelectrostatic_energy": 13.96, 
			 "SMD_solvation_energy": 5.83 
		},
		"coords": [
			{
				"x": 0.7180944636,
				"y": 1.7738894997,
				"z": -2.025553077,
				"element": "C" 
			},
			{
				"x": -0.5255602657,
				"y": 2.3475389903,
				"z": -1.3451175493,
				"element": "C" 
			},
			{
				"x": -0.9307542886,
				"y": 1.5969069564,
				"z": -0.1451300796,
				"element": "N" 
			},
			{
				"x": -2.3815892843,
				"y": 1.6240831858,
				"z": 0.101676763,
				"element": "C" 
			},
			{
				"x": -3.1521302538,
				"y": 0.680907253,
				"z": -0.8229634702,
				"element": "C" 
			},
			{
				"x": -0.1471565568,
				"y": 1.9634233201,
				"z": 1.0172581666,
				"element": "C" 
			},
			{
				"x": 0.037250285,
				"y": 0.8244920173,
				"z": 1.9428798882,
				"element": "N" 
			},
			{
				"x": -0.6052567081,
				"y": 0.7016081271,
				"z": 3.1526261162,
				"element": "C" 
			},
			{
				"x": -1.6542274845,
				"y": 1.7595395937,
				"z": 3.870526065,
				"element": "S" 
			},
			{
				"x": -0.1416671713,
				"y": -0.8215571537,
				"z": 3.923068124,
				"element": "S" 
			},
			{
				"x": 0.9606007489,
				"y": -1.2549801146,
				"z": 2.6024219092,
				"element": "C" 
			},
			{
				"x": 1.6728477765,
				"y": -2.4163566551,
				"z": 2.6084581658,
				"element": "C" 
			},
			{
				"x": 2.6076434711,
				"y": -2.9642428378,
				"z": 1.6780255077,
				"element": "C" 
			},
			{
				"x": 3.1885963056,
				"y": -2.6166816065,
				"z": 0.4721111802,
				"element": "C" 
			},
			{
				"x": 4.056775047,
				"y": -3.6809796887,
				"z": 0.1131261955,
				"element": "C" 
			},
			{
				"x": 3.9593323777,
				"y": -4.6108122135,
				"z": 1.1123074105,
				"element": "C" 
			},
			{
				"x": 3.0945957767,
				"y": -4.2028922644,
				"z": 2.0650657243,
				"element": "O" 
			},
			{
				"x": 0.9608172837,
				"y": -0.1854298518,
				"z": 1.5911640797,
				"element": "C" 
			},
			{
				"x": 1.6557637992,
				"y": -0.1125952191,
				"z": 0.5894407757,
				"element": "O" 
			},
			{
				"x": 0.5356681468,
				"y": 0.7420670395,
				"z": -2.3378778651,
				"element": "H" 
			},
			{
				"x": 0.9727561219,
				"y": 2.3704804358,
				"z": -2.9084592746,
				"element": "H" 
			},
			{
				"x": 1.585016609,
				"y": 1.7614806991,
				"z": -1.360303563,
				"element": "H" 
			},
			{
				"x": -1.3600967152,
				"y": 2.3075111019,
				"z": -2.050329203,
				"element": "H" 
			},
			{
				"x": -0.3776090018,
				"y": 3.4197865989,
				"z": -1.1177524613,
				"element": "H" 
			},
			{
				"x": -2.5511309357,
				"y": 1.3157753759,
				"z": 1.1363882418,
				"element": "H" 
			},
			{
				"x": -2.7828357643,
				"y": 2.6512615462,
				"z": 0.0204620812,
				"element": "H" 
			},
			{
				"x": -4.2197339815,
				"y": 0.704645527,
				"z": -0.5806364157,
				"element": "H" 
			},
			{
				"x": -2.7908844073,
				"y": -0.3450960273,
				"z": -0.706685172,
				"element": "H" 
			},
			{
				"x": -3.0493779314,
				"y": 0.9550600549,
				"z": -1.8779091577,
				"element": "H" 
			},
			{
				"x": 0.8533867604,
				"y": 2.2539981971,
				"z": 0.6949878433,
				"element": "H" 
			},
			{
				"x": -0.5848283599,
				"y": 2.7713778486,
				"z": 1.6172307474,
				"element": "H" 
			},
			{
				"x": 1.5212000256,
				"y": -3.0721456237,
				"z": 3.4640538325,
				"element": "H" 
			},
			{
				"x": 2.993751095,
				"y": -1.7010645983,
				"z": -0.0605654084,
				"element": "H" 
			},
			{
				"x": 4.6751082881,
				"y": -3.7497008198,
				"z": -0.770075127,
				"element": "H" 
			},
			{
				"x": 4.4253347286,
				"y": -5.5706986939,
				"z": 1.2766790061,
				"element": "H" 
			}
		],
		 "valence_orbital": [ 
			{
				"type": "occ",
				"energy": -0.28032,
				"method": "rhf"
			},
			{
				"type": "occ",
				"energy": -0.25648,
				"method": "rhf"
			},
			{
				"type": "occ",
				"energy": -0.23239,
				"method": "rhf"
			},
			{
				"type": "occ",
				"energy": -0.21583,
				"method": "rhf"
			},
			{
				"type": "occ",
				"energy": -0.21291,
				"method": "rhf"
			},
			{
				"type": "unocc",
				"energy": -0.09364,
				"method": "rhf"
			},
			{
				"type": "unocc",
				"energy": -0.03737,
				"method": "rhf"
			},
			{
				"type": "unocc",
				"energy": -0.00374,
				"method": "rhf"
			},
			{
				"type": "unocc",
				"energy": 0.01325,
				"method": "rhf"
			},
			{
				"type": "unocc",
				"energy": 0.04869,
				"method": "rhf"
			}
		],
		"cosmo_sigma_profile": { 
			"-0.025": 0.0,
			"-0.024": 0.0,
			"-0.023": 0.0,
			"-0.022": 0.0,
			"-0.021": 0.0,
			"-0.02": 0.0,
			"-0.019": 0.0,
			"-0.018": 0.0,
			"-0.017": 0.0,
			"-0.016": 0.0,
			"-0.015": 0.0,
			"-0.014": 0.0,
			"-0.013": 0.0,
			"-0.012": 0.0,
			"-0.011": 0.0919693215833,
			"-0.01": 3.1726686065,
			"-0.009": 3.26961869449,
			"-0.008": 5.22996503514,
			"-0.007": 5.48022225926,
			"-0.006": 7.79709509003,
			"-0.005": 12.9694905695,
			"-0.004": 17.2699881326,
			"-0.003": 26.6315222336,
			"-0.002": 32.3479501098,
			"-0.001": 36.3306841862,
			"0.0": 37.6612423518,
			"0.001": 37.7605327211,
			"0.002": 28.472967874,
			"0.003": 19.6409560701,
			"0.004": 11.8480922999,
			"0.005": 9.26454278717,
			"0.006": 11.1565216938,
			"0.007": 10.1165709613,
			"0.008": 6.44516797984,
			"0.009": 3.3840944831,
			"0.01": 1.53393180595,
			"0.011": 0.692409082342,
			"0.012": 0.663058785741,
			"0.013": 0.473244603548,
			"0.014": 0.0157103296761,
			"0.015": 0.0,
			"0.016": 0.0,
			"0.017": 0.0,
			"0.018": 0.0,
			"0.019": 0.0,
			"0.02": 0.0,
			"0.021": 0.0,
			"0.022": 0.0,
			"0.023": 0.0,
			"0.024": 0.0,
			"0.025": 0.0
		}
	}
}
