{
	 "smiles": "CC[C@]1(O)C[C@@H]2CN(C1)CCC1=C(NC3=CC=CC=C13)[C@@](C2)(C(=O)OC)C1=C(OC)C=C2N(C)[C@@H]3[C@]4(CCN5CC=C[C@](CC)([C@@H]45)[C@@H](OC(C)=O)[C@]3(O)C(=O)OC)C2=C1", 
	 "Tm": 540.15, 
	 "num_atms": 117, 
	 "gaussian": { 
		 "optdone": 1, 
		 "sigma_profile": "yes", 
		 "theory": "DFT", 
		 "functional": "B3LYP", 
		 "basiset": "6-31G**", 
		 "properties": { 
			 "R2extent": 40939.5967, 
			 "electric_dipole_moment_norm": 5.40518802726, 
			 "electric_quadrupole_moment_norm": 37.4259849375, 
			 "total_energy": -2683.82809939, 
			 "HOMO_LUMO_gap": 0.16254, 
			 "cosmo_polarized_energy": -35.61, 
			 "cosmo_cavitation_energy": 102.47, 
			 "cosmo_dispersion_energy": -57.49, 
			 "cosmo_repulsion_energy": 4.18, 
			 "cosmo_total_nonelectrostatic_energy": 49.17, 
			 "SMD_solvation_energy": 17.32 
		},
		"coords": [
			{
				"x": -1.0761329328,
				"y": -6.9365152856,
				"z": 2.9760120395,
				"element": "C" 
			},
			{
				"x": -0.6129752034,
				"y": -5.4762554259,
				"z": 3.0053291861,
				"element": "C" 
			},
			{
				"x": -1.0950606456,
				"y": -4.6220798383,
				"z": 1.8097391347,
				"element": "C" 
			},
			{
				"x": -0.7051123086,
				"y": -5.2629262878,
				"z": 0.5824213229,
				"element": "O" 
			},
			{
				"x": -0.4713598801,
				"y": -3.2007376437,
				"z": 1.9103014117,
				"element": "C" 
			},
			{
				"x": -1.1202190115,
				"y": -2.1159290883,
				"z": 1.0081724569,
				"element": "C" 
			},
			{
				"x": -2.6313138535,
				"y": -2.200500912,
				"z": 1.294248151,
				"element": "C" 
			},
			{
				"x": -3.0870207309,
				"y": -3.5068735256,
				"z": 0.8702634861,
				"element": "N" 
			},
			{
				"x": -2.6432825957,
				"y": -4.5555010674,
				"z": 1.753747649,
				"element": "C" 
			},
			{
				"x": -4.2927962567,
				"y": -3.6210467625,
				"z": 0.074220368,
				"element": "C" 
			},
			{
				"x": -4.0830343917,
				"y": -3.1430514032,
				"z": -1.3892225631,
				"element": "C" 
			},
			{
				"x": -3.8223745495,
				"y": -1.6651904601,
				"z": -1.5213179087,
				"element": "C" 
			},
			{
				"x": -2.6271992945,
				"y": -0.9632778384,
				"z": -1.582885938,
				"element": "C" 
			},
			{
				"x": -2.9111934733,
				"y": 0.3966254517,
				"z": -1.517615685,
				"element": "N" 
			},
			{
				"x": -4.2656795414,
				"y": 0.6033887706,
				"z": -1.4463533237,
				"element": "C" 
			},
			{
				"x": -5.0082680027,
				"y": 1.7881042499,
				"z": -1.3840892713,
				"element": "C" 
			},
			{
				"x": -6.3923237611,
				"y": 1.6762521257,
				"z": -1.3118213298,
				"element": "C" 
			},
			{
				"x": -7.0206018283,
				"y": 0.4131043189,
				"z": -1.3028441769,
				"element": "C" 
			},
			{
				"x": -6.2772809739,
				"y": -0.7593492839,
				"z": -1.3648339023,
				"element": "C" 
			},
			{
				"x": -4.8740665348,
				"y": -0.6799664395,
				"z": -1.4424432192,
				"element": "C" 
			},
			{
				"x": -1.1570953218,
				"y": -1.3951895984,
				"z": -1.6490435188,
				"element": "C" 
			},
			{
				"x": -0.7460693157,
				"y": -2.3733776431,
				"z": -0.4752152569,
				"element": "C" 
			},
			{
				"x": -0.9454617508,
				"y": -2.2963942001,
				"z": -2.9016619636,
				"element": "C" 
			},
			{
				"x": -1.802799269,
				"y": -2.8546815711,
				"z": -3.5461020746,
				"element": "O" 
			},
			{
				"x": 0.3768071638,
				"y": -2.4791007771,
				"z": -3.1359892127,
				"element": "O" 
			},
			{
				"x": 0.6808375969,
				"y": -3.3618957842,
				"z": -4.2241781385,
				"element": "C" 
			},
			{
				"x": -0.2218678898,
				"y": -0.1703263921,
				"z": -1.7645011526,
				"element": "C" 
			},
			{
				"x": -0.1818814062,
				"y": 0.5753008367,
				"z": -2.9680081891,
				"element": "C" 
			},
			{
				"x": -1.0061020905,
				"y": 0.1218784809,
				"z": -3.9588165346,
				"element": "O" 
			},
			{
				"x": -1.0248007698,
				"y": 0.7766587883,
				"z": -5.2152430218,
				"element": "C" 
			},
			{
				"x": 0.6372130936,
				"y": 1.7038115212,
				"z": -3.1300052701,
				"element": "C" 
			},
			{
				"x": 1.4512488754,
				"y": 2.0844661796,
				"z": -2.0612335977,
				"element": "C" 
			},
			{
				"x": 2.3546012971,
				"y": 3.127562417,
				"z": -1.998691387,
				"element": "N" 
			},
			{
				"x": 2.4732093008,
				"y": 4.140575062,
				"z": -3.0235183787,
				"element": "C" 
			},
			{
				"x": 2.76253716,
				"y": 3.3422809236,
				"z": -0.6067012829,
				"element": "C" 
			},
			{
				"x": 2.5486346768,
				"y": 1.9239644009,
				"z": 0.0291290208,
				"element": "C" 
			},
			{
				"x": 3.8617423762,
				"y": 1.0618307369,
				"z": -0.1605651176,
				"element": "C" 
			},
			{
				"x": 4.1320839018,
				"y": 0.4558462753,
				"z": 1.2180640461,
				"element": "C" 
			},
			{
				"x": 3.6298867066,
				"y": 1.4830184162,
				"z": 2.1132212095,
				"element": "N" 
			},
			{
				"x": 3.6086053082,
				"y": 1.134242941,
				"z": 3.519453591,
				"element": "C" 
			},
			{
				"x": 2.9069623308,
				"y": 2.1992490033,
				"z": 4.3158833523,
				"element": "C" 
			},
			{
				"x": 2.1096780378,
				"y": 3.103365122,
				"z": 3.7473080803,
				"element": "C" 
			},
			{
				"x": 1.7506192584,
				"y": 3.1233209036,
				"z": 2.2721751805,
				"element": "C" 
			},
			{
				"x": 0.1886537139,
				"y": 3.1397482792,
				"z": 2.1545693036,
				"element": "C" 
			},
			{
				"x": -0.5587904725,
				"y": 2.115529845,
				"z": 3.0198090182,
				"element": "C" 
			},
			{
				"x": 2.3209837527,
				"y": 1.8638117084,
				"z": 1.5723113642,
				"element": "C" 
			},
			{
				"x": 2.3143197064,
				"y": 4.4336641291,
				"z": 1.6575810093,
				"element": "C" 
			},
			{
				"x": 3.7274369956,
				"y": 4.4992108663,
				"z": 1.9410215711,
				"element": "O" 
			},
			{
				"x": 4.2555955865,
				"y": 5.710251383,
				"z": 2.2265846891,
				"element": "C" 
			},
			{
				"x": 5.7228010052,
				"y": 5.5829717185,
				"z": 2.5507175762,
				"element": "C" 
			},
			{
				"x": 3.6290915019,
				"y": 6.7514246338,
				"z": 2.2181399163,
				"element": "O" 
			},
			{
				"x": 2.1298510239,
				"y": 4.5749955865,
				"z": 0.1189364471,
				"element": "C" 
			},
			{
				"x": 2.8975440668,
				"y": 5.685395098,
				"z": -0.3590437958,
				"element": "O" 
			},
			{
				"x": 0.6687672479,
				"y": 5.0181489583,
				"z": -0.1419952663,
				"element": "C" 
			},
			{
				"x": 0.2186774443,
				"y": 6.00446253,
				"z": 0.4065409752,
				"element": "O" 
			},
			{
				"x": -0.0184405781,
				"y": 4.3032338179,
				"z": -1.0422018971,
				"element": "O" 
			},
			{
				"x": -1.3495411819,
				"y": 4.7797568836,
				"z": -1.3234881822,
				"element": "C" 
			},
			{
				"x": 1.4430663033,
				"y": 1.3625795443,
				"z": -0.8571760815,
				"element": "C" 
			},
			{
				"x": 0.6292511936,
				"y": 0.2489299415,
				"z": -0.7255845358,
				"element": "C" 
			},
			{
				"x": -0.5961168482,
				"y": -7.5124627651,
				"z": 3.7736063931,
				"element": "H" 
			},
			{
				"x": -0.8255233308,
				"y": -7.3981406316,
				"z": 2.0171888865,
				"element": "H" 
			},
			{
				"x": -2.1584868183,
				"y": -7.0220798223,
				"z": 3.1163723661,
				"element": "H" 
			},
			{
				"x": -0.9361464214,
				"y": -4.998463368,
				"z": 3.9388991725,
				"element": "H" 
			},
			{
				"x": 0.4866186044,
				"y": -5.4452278851,
				"z": 3.0157392304,
				"element": "H" 
			},
			{
				"x": 0.257447623,
				"y": -5.2030971765,
				"z": 0.5139654416,
				"element": "H" 
			},
			{
				"x": 0.6088145495,
				"y": -3.2847899993,
				"z": 1.7171889882,
				"element": "H" 
			},
			{
				"x": -0.5657830228,
				"y": -2.8652944904,
				"z": 2.9514436684,
				"element": "H" 
			},
			{
				"x": -0.7552059521,
				"y": -1.1382258636,
				"z": 1.3473399819,
				"element": "H" 
			},
			{
				"x": -3.190416325,
				"y": -1.4187829784,
				"z": 0.7890175937,
				"element": "H" 
			},
			{
				"x": -2.789611366,
				"y": -2.0541854556,
				"z": 2.3825612057,
				"element": "H" 
			},
			{
				"x": -3.0181441379,
				"y": -4.4205727664,
				"z": 2.7904297626,
				"element": "H" 
			},
			{
				"x": -3.0081304629,
				"y": -5.5207885421,
				"z": 1.3924667028,
				"element": "H" 
			},
			{
				"x": -5.1437928344,
				"y": -3.0744409368,
				"z": 0.5193486797,
				"element": "H" 
			},
			{
				"x": -4.5778749842,
				"y": -4.6789905062,
				"z": 0.0499845685,
				"element": "H" 
			},
			{
				"x": -4.993362308,
				"y": -3.3884361725,
				"z": -1.9535878025,
				"element": "H" 
			},
			{
				"x": -3.2761147921,
				"y": -3.72346444,
				"z": -1.8384893999,
				"element": "H" 
			},
			{
				"x": -2.2007160481,
				"y": 1.1081914248,
				"z": -1.5721736988,
				"element": "H" 
			},
			{
				"x": -4.5226380228,
				"y": 2.7607117486,
				"z": -1.3901518576,
				"element": "H" 
			},
			{
				"x": -6.9995976817,
				"y": 2.5756365222,
				"z": -1.2621596572,
				"element": "H" 
			},
			{
				"x": -8.1042028979,
				"y": 0.3603278675,
				"z": -1.2460415337,
				"element": "H" 
			},
			{
				"x": -6.775925668,
				"y": -1.724731843,
				"z": -1.3583422527,
				"element": "H" 
			},
			{
				"x": -1.1657027442,
				"y": -3.3518307589,
				"z": -0.7124812605,
				"element": "H" 
			},
			{
				"x": 0.3411237922,
				"y": -2.4854218728,
				"z": -0.5450737358,
				"element": "H" 
			},
			{
				"x": 0.2665529295,
				"y": -4.3575779268,
				"z": -4.0446246654,
				"element": "H" 
			},
			{
				"x": 0.2676682038,
				"y": -2.9762618315,
				"z": -5.159918387,
				"element": "H" 
			},
			{
				"x": 1.7693704705,
				"y": -3.4029704233,
				"z": -4.2761499287,
				"element": "H" 
			},
			{
				"x": -0.0370220844,
				"y": 0.7651094968,
				"z": -5.6932745793,
				"element": "H" 
			},
			{
				"x": -1.7328120892,
				"y": 0.2189299798,
				"z": -5.8294081659,
				"element": "H" 
			},
			{
				"x": -1.3667905939,
				"y": 1.8157679216,
				"z": -5.1240159725,
				"element": "H" 
			},
			{
				"x": 0.6397633604,
				"y": 2.2617795928,
				"z": -4.0571695512,
				"element": "H" 
			},
			{
				"x": 2.6477535501,
				"y": 3.665378841,
				"z": -3.9958402162,
				"element": "H" 
			},
			{
				"x": 3.323232625,
				"y": 4.7843058731,
				"z": -2.7939864138,
				"element": "H" 
			},
			{
				"x": 1.5784522468,
				"y": 4.7754207479,
				"z": -3.1039706565,
				"element": "H" 
			},
			{
				"x": 3.8255726202,
				"y": 3.5945960147,
				"z": -0.5756096067,
				"element": "H" 
			},
			{
				"x": 4.6959320516,
				"y": 1.7066030761,
				"z": -0.4498788832,
				"element": "H" 
			},
			{
				"x": 3.7349010827,
				"y": 0.3041649991,
				"z": -0.9360301419,
				"element": "H" 
			},
			{
				"x": 5.1938875564,
				"y": 0.2573385379,
				"z": 1.4029077173,
				"element": "H" 
			},
			{
				"x": 3.5879543549,
				"y": -0.5040262835,
				"z": 1.3407191865,
				"element": "H" 
			},
			{
				"x": 3.1170739568,
				"y": 0.1518779045,
				"z": 3.7015696806,
				"element": "H" 
			},
			{
				"x": 4.6429459873,
				"y": 1.022859395,
				"z": 3.8720918152,
				"element": "H" 
			},
			{
				"x": 3.0746325318,
				"y": 2.2106077426,
				"z": 5.3904536523,
				"element": "H" 
			},
			{
				"x": 1.6375851861,
				"y": 3.8728052126,
				"z": 4.357733997,
				"element": "H" 
			},
			{
				"x": -0.1664968081,
				"y": 4.1422141915,
				"z": 2.4198025786,
				"element": "H" 
			},
			{
				"x": -0.0905700754,
				"y": 2.9720164547,
				"z": 1.1097685782,
				"element": "H" 
			},
			{
				"x": -0.2702580695,
				"y": 1.0856857058,
				"z": 2.7886762066,
				"element": "H" 
			},
			{
				"x": -0.3812023542,
				"y": 2.2751073456,
				"z": 4.0864952721,
				"element": "H" 
			},
			{
				"x": -1.6355164356,
				"y": 2.1992000527,
				"z": 2.841569257,
				"element": "H" 
			},
			{
				"x": 1.6019965442,
				"y": 1.0413402373,
				"z": 1.7546676843,
				"element": "H" 
			},
			{
				"x": 1.8345721646,
				"y": 5.295572103,
				"z": 2.1288779124,
				"element": "H" 
			},
			{
				"x": 6.2693920078,
				"y": 5.2988717489,
				"z": 1.6458346869,
				"element": "H" 
			},
			{
				"x": 6.0986898371,
				"y": 6.5370150793,
				"z": 2.9189116175,
				"element": "H" 
			},
			{
				"x": 5.8805254053,
				"y": 4.7940211052,
				"z": 3.2901660442,
				"element": "H" 
			},
			{
				"x": 2.6961030177,
				"y": 6.4467668464,
				"z": 0.2108335047,
				"element": "H" 
			},
			{
				"x": -1.9725825426,
				"y": 4.7181493725,
				"z": -0.4279547924,
				"element": "H" 
			},
			{
				"x": -1.7291037305,
				"y": 4.1246525067,
				"z": -2.106912701,
				"element": "H" 
			},
			{
				"x": -1.3197036475,
				"y": 5.8166931027,
				"z": -1.6643989615,
				"element": "H" 
			},
			{
				"x": 0.6573280276,
				"y": -0.3196486313,
				"z": 0.1950024056,
				"element": "H" 
			}
		],
		 "valence_orbital": [ 
			{
				"type": "occ",
				"energy": -0.21627,
				"method": "rhf"
			},
			{
				"type": "occ",
				"energy": -0.20225,
				"method": "rhf"
			},
			{
				"type": "occ",
				"energy": -0.1857,
				"method": "rhf"
			},
			{
				"type": "occ",
				"energy": -0.18282,
				"method": "rhf"
			},
			{
				"type": "occ",
				"energy": -0.17264,
				"method": "rhf"
			},
			{
				"type": "unocc",
				"energy": -0.0101,
				"method": "rhf"
			},
			{
				"type": "unocc",
				"energy": 0.00266,
				"method": "rhf"
			},
			{
				"type": "unocc",
				"energy": 0.00489,
				"method": "rhf"
			},
			{
				"type": "unocc",
				"energy": 0.00683,
				"method": "rhf"
			},
			{
				"type": "unocc",
				"energy": 0.01166,
				"method": "rhf"
			}
		],
		"cosmo_sigma_profile": { 
			"-0.025": 0.0,
			"-0.024": 0.0,
			"-0.023": 0.0,
			"-0.022": 0.0,
			"-0.021": 0.0,
			"-0.02": 0.0,
			"-0.019": 0.0,
			"-0.018": 0.0,
			"-0.017": 0.0,
			"-0.016": 0.0,
			"-0.015": 0.0613266350081,
			"-0.014": 0.60405698193,
			"-0.013": 0.729541782619,
			"-0.012": 0.967092825531,
			"-0.011": 0.729141443594,
			"-0.01": 1.47709367435,
			"-0.009": 3.05519004717,
			"-0.008": 3.29923279773,
			"-0.007": 4.94350189612,
			"-0.006": 22.4090546997,
			"-0.005": 46.6197568647,
			"-0.004": 68.4765879211,
			"-0.003": 91.4489548708,
			"-0.002": 98.138450452,
			"-0.001": 95.0761635377,
			"0.0": 75.8257360747,
			"0.001": 64.0030791883,
			"0.002": 40.7304956432,
			"0.003": 29.0180091523,
			"0.004": 24.4799940425,
			"0.005": 23.5637371191,
			"0.006": 20.707441448,
			"0.007": 19.598437121,
			"0.008": 14.4976753832,
			"0.009": 9.55739789177,
			"0.01": 9.30546854709,
			"0.011": 11.2869332218,
			"0.012": 8.76902849539,
			"0.013": 5.82844440049,
			"0.014": 1.60300119574,
			"0.015": 1.08277434398,
			"0.016": 0.355386944678,
			"0.017": 0.00428872770574,
			"0.018": 0.0,
			"0.019": 0.0,
			"0.02": 0.0,
			"0.021": 0.0,
			"0.022": 0.0,
			"0.023": 0.0,
			"0.024": 0.0,
			"0.025": 0.0
		}
	}
}
