{
	 "smiles": "CC1=NC(NC(=O)CCN)=CC=C1", 
	 "Tm": 379.15, 
	 "num_atms": 26, 
	 "gaussian": { 
		 "optdone": 1, 
		 "sigma_profile": "yes", 
		 "theory": "DFT", 
		 "functional": "B3LYP", 
		 "basiset": "6-31G**", 
		 "properties": { 
			 "R2extent": 3046.6259, 
			 "electric_dipole_moment_norm": 4.33414611429, 
			 "electric_quadrupole_moment_norm": 17.8071232607, 
			 "total_energy": -590.292127959, 
			 "HOMO_LUMO_gap": 0.19067, 
			 "cosmo_polarized_energy": -14.44, 
			 "cosmo_cavitation_energy": 29.12, 
			 "cosmo_dispersion_energy": -20.72, 
			 "cosmo_repulsion_energy": 1.67, 
			 "cosmo_total_nonelectrostatic_energy": 10.07, 
			 "SMD_solvation_energy": 4.39 
		},
		"coords": [
			{
				"x": 0.367310997,
				"y": 0.7092984481,
				"z": -2.6685277909,
				"element": "C" 
			},
			{
				"x": 1.2519902684,
				"y": 0.6563978154,
				"z": -1.4479588345,
				"element": "C" 
			},
			{
				"x": 0.6403223907,
				"y": 0.8768458887,
				"z": -0.2684000953,
				"element": "N" 
			},
			{
				"x": 1.366719863,
				"y": 0.8529155999,
				"z": 0.8519917712,
				"element": "C" 
			},
			{
				"x": 0.7650809644,
				"y": 1.0945451821,
				"z": 2.089034097,
				"element": "N" 
			},
			{
				"x": -0.5117833978,
				"y": 1.4689766317,
				"z": 2.515239438,
				"element": "C" 
			},
			{
				"x": -0.7190586855,
				"y": 1.4962149902,
				"z": 3.719160512,
				"element": "O" 
			},
			{
				"x": -1.5806452239,
				"y": 1.8676438944,
				"z": 1.5164104292,
				"element": "C" 
			},
			{
				"x": -2.6471386305,
				"y": 0.7668756889,
				"z": 1.3937566389,
				"element": "C" 
			},
			{
				"x": -2.0254812867,
				"y": -0.4950049972,
				"z": 0.9921080257,
				"element": "N" 
			},
			{
				"x": 2.7529405257,
				"y": 0.5865942842,
				"z": 0.8484973737,
				"element": "C" 
			},
			{
				"x": 3.3711751284,
				"y": 0.3477587619,
				"z": -0.366843798,
				"element": "C" 
			},
			{
				"x": 2.6166796479,
				"y": 0.3852761822,
				"z": -1.5435867015,
				"element": "C" 
			},
			{
				"x": -0.1470808314,
				"y": 1.6740457604,
				"z": -2.726376928,
				"element": "H" 
			},
			{
				"x": -0.4064202571,
				"y": -0.0646792675,
				"z": -2.6167914324,
				"element": "H" 
			},
			{
				"x": 0.9392169665,
				"y": 0.5626017411,
				"z": -3.5879362324,
				"element": "H" 
			},
			{
				"x": 1.3512710416,
				"y": 0.9104220024,
				"z": 2.894282552,
				"element": "H" 
			},
			{
				"x": -2.050434314,
				"y": 2.7709730449,
				"z": 1.9180741628,
				"element": "H" 
			},
			{
				"x": -1.1519541153,
				"y": 2.0848060785,
				"z": 0.5386302679,
				"element": "H" 
			},
			{
				"x": -3.4334150707,
				"y": 1.1333087617,
				"z": 0.7094804781,
				"element": "H" 
			},
			{
				"x": -3.1150581261,
				"y": 0.6234206733,
				"z": 2.3743345968,
				"element": "H" 
			},
			{
				"x": -2.7311104431,
				"y": -1.2113309713,
				"z": 0.8464589065,
				"element": "H" 
			},
			{
				"x": -1.5208020168,
				"y": -0.3676331027,
				"z": 0.1186662044,
				"element": "H" 
			},
			{
				"x": 3.3144636311,
				"y": 0.5767863951,
				"z": 1.7776452778,
				"element": "H" 
			},
			{
				"x": 4.4365696066,
				"y": 0.1388201028,
				"z": -0.4026349604,
				"element": "H" 
			},
			{
				"x": 3.0755413676,
				"y": 0.2060204105,
				"z": -2.5098139584,
				"element": "H" 
			}
		],
		 "valence_orbital": [ 
			{
				"type": "occ",
				"energy": -0.28381,
				"method": "rhf"
			},
			{
				"type": "occ",
				"energy": -0.26471,
				"method": "rhf"
			},
			{
				"type": "occ",
				"energy": -0.24691,
				"method": "rhf"
			},
			{
				"type": "occ",
				"energy": -0.22704,
				"method": "rhf"
			},
			{
				"type": "occ",
				"energy": -0.22246,
				"method": "rhf"
			},
			{
				"type": "unocc",
				"energy": -0.03179,
				"method": "rhf"
			},
			{
				"type": "unocc",
				"energy": -0.01445,
				"method": "rhf"
			},
			{
				"type": "unocc",
				"energy": 0.04231,
				"method": "rhf"
			},
			{
				"type": "unocc",
				"energy": 0.07861,
				"method": "rhf"
			},
			{
				"type": "unocc",
				"energy": 0.09284,
				"method": "rhf"
			}
		],
		"cosmo_sigma_profile": { 
			"-0.025": 0.0,
			"-0.024": 0.0,
			"-0.023": 0.0,
			"-0.022": 0.0,
			"-0.021": 0.0,
			"-0.02": 0.0,
			"-0.019": 0.0,
			"-0.018": 0.0,
			"-0.017": 0.0,
			"-0.016": 0.0,
			"-0.015": 0.0617433188382,
			"-0.014": 0.950941575919,
			"-0.013": 1.44787742701,
			"-0.012": 1.13576195745,
			"-0.011": 1.13058034811,
			"-0.01": 1.30529704984,
			"-0.009": 2.44713534498,
			"-0.008": 2.91735545107,
			"-0.007": 5.72348324453,
			"-0.006": 8.82348823415,
			"-0.005": 13.593356126,
			"-0.004": 15.8140830484,
			"-0.003": 18.2424557493,
			"-0.002": 24.5461153986,
			"-0.001": 25.9267261109,
			"0.0": 21.1323449131,
			"0.001": 13.9855512035,
			"0.002": 14.0112210979,
			"0.003": 13.1648266717,
			"0.004": 8.95431970953,
			"0.005": 3.24283584971,
			"0.006": 2.87014495677,
			"0.007": 2.5152130521,
			"0.008": 2.76208029302,
			"0.009": 2.55383241896,
			"0.01": 2.8178227607,
			"0.011": 2.20105715801,
			"0.012": 3.19641818269,
			"0.013": 6.09014191094,
			"0.014": 3.67252417189,
			"0.015": 0.670047789109,
			"0.016": 0.660763002699,
			"0.017": 0.307083443758,
			"0.018": 0.443491133074,
			"0.019": 0.0253239248284,
			"0.02": 0.0,
			"0.021": 0.0,
			"0.022": 0.0,
			"0.023": 0.0,
			"0.024": 0.0,
			"0.025": 0.0
		}
	}
}
