{
	 "smiles": "CC(C)(C)OC(=O)NC1=COC=N1", 
	 "Tm": 382.15, 
	 "num_atms": 25, 
	 "gaussian": { 
		 "optdone": 1, 
		 "sigma_profile": "yes", 
		 "theory": "DFT", 
		 "functional": "B3LYP", 
		 "basiset": "6-31G**", 
		 "properties": { 
			 "R2extent": 4212.4487, 
			 "electric_dipole_moment_norm": 3.16362639545, 
			 "electric_quadrupole_moment_norm": 10.9593510022, 
			 "total_energy": -647.261768648, 
			 "HOMO_LUMO_gap": 0.21872, 
			 "cosmo_polarized_energy": -15.64, 
			 "cosmo_cavitation_energy": 28.85, 
			 "cosmo_dispersion_energy": -20.88, 
			 "cosmo_repulsion_energy": 1.66, 
			 "cosmo_total_nonelectrostatic_energy": 9.63, 
			 "SMD_solvation_energy": 6.38 
		},
		"coords": [
			{
				"x": 1.9976328022,
				"y": 1.0101568171,
				"z": 0.7630564086,
				"element": "C" 
			},
			{
				"x": 1.2875852817,
				"y": -0.1382014968,
				"z": 0.0413296133,
				"element": "C" 
			},
			{
				"x": 1.4549716334,
				"y": -1.4519264507,
				"z": 0.8123755093,
				"element": "C" 
			},
			{
				"x": 1.7691559913,
				"y": -0.2498726011,
				"z": -1.4092138706,
				"element": "C" 
			},
			{
				"x": -0.1210072311,
				"y": 0.2882651531,
				"z": 0.0727514164,
				"element": "O" 
			},
			{
				"x": -1.0909063193,
				"y": -0.4859094296,
				"z": -0.4833527478,
				"element": "C" 
			},
			{
				"x": -0.9424136011,
				"y": -1.551375968,
				"z": -1.0384157024,
				"element": "O" 
			},
			{
				"x": -2.290349785,
				"y": 0.1811120666,
				"z": -0.2922713565,
				"element": "N" 
			},
			{
				"x": -3.5649124636,
				"y": -0.2147867565,
				"z": -0.6861264261,
				"element": "C" 
			},
			{
				"x": -4.7283029713,
				"y": 0.4709395347,
				"z": -0.4813031273,
				"element": "C" 
			},
			{
				"x": -5.7435916174,
				"y": -0.279193415,
				"z": -1.0290338107,
				"element": "O" 
			},
			{
				"x": -5.1206353873,
				"y": -1.3680292821,
				"z": -1.5274927359,
				"element": "C" 
			},
			{
				"x": -3.8357254215,
				"y": -1.3930878265,
				"z": -1.3592144457,
				"element": "N" 
			},
			{
				"x": 3.0731389202,
				"y": 0.8156034509,
				"z": 0.8101152333,
				"element": "H" 
			},
			{
				"x": 1.6203203369,
				"y": 1.117361067,
				"z": 1.7843068351,
				"element": "H" 
			},
			{
				"x": 1.8396802748,
				"y": 1.9552695185,
				"z": 0.235208206,
				"element": "H" 
			},
			{
				"x": 2.5184069265,
				"y": -1.702539728,
				"z": 0.8831243415,
				"element": "H" 
			},
			{
				"x": 0.9333354928,
				"y": -2.2686004347,
				"z": 0.312920785,
				"element": "H" 
			},
			{
				"x": 1.062326163,
				"y": -1.3485731514,
				"z": 1.8289589507,
				"element": "H" 
			},
			{
				"x": 2.8446486146,
				"y": -0.4543413583,
				"z": -1.4236990771,
				"element": "H" 
			},
			{
				"x": 1.5954530041,
				"y": 0.6911311599,
				"z": -1.9408397155,
				"element": "H" 
			},
			{
				"x": 1.2510983175,
				"y": -1.0532424006,
				"z": -1.9333858817,
				"element": "H" 
			},
			{
				"x": -2.2151852442,
				"y": 1.0618609755,
				"z": 0.1940156612,
				"element": "H" 
			},
			{
				"x": -4.999900864,
				"y": 1.4039040129,
				"z": -0.0171581752,
				"element": "H" 
			},
			{
				"x": -5.7386228532,
				"y": -2.108223457,
				"z": -2.013655888,
				"element": "H" 
			}
		],
		 "valence_orbital": [ 
			{
				"type": "occ",
				"energy": -0.29706,
				"method": "rhf"
			},
			{
				"type": "occ",
				"energy": -0.29458,
				"method": "rhf"
			},
			{
				"type": "occ",
				"energy": -0.28952,
				"method": "rhf"
			},
			{
				"type": "occ",
				"energy": -0.25895,
				"method": "rhf"
			},
			{
				"type": "occ",
				"energy": -0.21964,
				"method": "rhf"
			},
			{
				"type": "unocc",
				"energy": -0.00092,
				"method": "rhf"
			},
			{
				"type": "unocc",
				"energy": 0.03355,
				"method": "rhf"
			},
			{
				"type": "unocc",
				"energy": 0.07897,
				"method": "rhf"
			},
			{
				"type": "unocc",
				"energy": 0.09277,
				"method": "rhf"
			},
			{
				"type": "unocc",
				"energy": 0.09857,
				"method": "rhf"
			}
		],
		"cosmo_sigma_profile": { 
			"-0.025": 0.0,
			"-0.024": 0.0,
			"-0.023": 0.0,
			"-0.022": 0.0,
			"-0.021": 0.0,
			"-0.02": 0.0,
			"-0.019": 0.0,
			"-0.018": 0.0,
			"-0.017": 0.0,
			"-0.016": 0.485843136265,
			"-0.015": 1.27035226062,
			"-0.014": 0.866481929639,
			"-0.013": 1.22866827395,
			"-0.012": 0.959473037554,
			"-0.011": 2.26553436273,
			"-0.01": 4.69959268569,
			"-0.009": 4.25560897199,
			"-0.008": 3.41874691288,
			"-0.007": 3.05150853471,
			"-0.006": 3.59745310537,
			"-0.005": 4.36599350742,
			"-0.004": 13.8351329688,
			"-0.003": 17.9470475406,
			"-0.002": 19.2744563246,
			"-0.001": 26.2062837187,
			"0.0": 32.4428280757,
			"0.001": 25.1447486364,
			"0.002": 13.4199001863,
			"0.003": 6.76081784981,
			"0.004": 6.62984945478,
			"0.005": 5.29094110127,
			"0.006": 5.81536122206,
			"0.007": 4.67386177147,
			"0.008": 1.64903387637,
			"0.009": 2.0663993377,
			"0.01": 1.49031479309,
			"0.011": 2.79917608957,
			"0.012": 2.35300173353,
			"0.013": 2.53389310052,
			"0.014": 1.82014928589,
			"0.015": 1.28641336644,
			"0.016": 1.45272281083,
			"0.017": 1.21322690679,
			"0.018": 1.0871289833,
			"0.019": 0.199990065717,
			"0.02": 0.0,
			"0.021": 0.0,
			"0.022": 0.0,
			"0.023": 0.0,
			"0.024": 0.0,
			"0.025": 0.0
		}
	}
}
