{
	 "smiles": "ClC1=CC(=NC=C1)C(=O)N1CCCCC1", 
	 "Tm": 334.15, 
	 "num_atms": 28, 
	 "gaussian": { 
		 "optdone": 1, 
		 "sigma_profile": "yes", 
		 "theory": "DFT", 
		 "functional": "B3LYP", 
		 "basiset": "6-31G**", 
		 "properties": { 
			 "R2extent": 7000.2921, 
			 "electric_dipole_moment_norm": 3.6075721559, 
			 "electric_quadrupole_moment_norm": 12.6393506139, 
			 "total_energy": -1071.93624096, 
			 "HOMO_LUMO_gap": 0.18018, 
			 "cosmo_polarized_energy": -9.88, 
			 "cosmo_cavitation_energy": 31.99, 
			 "cosmo_dispersion_energy": -23.76, 
			 "cosmo_repulsion_energy": 1.87, 
			 "cosmo_total_nonelectrostatic_energy": 10.11, 
			 "SMD_solvation_energy": 3.77 
		},
		"coords": [
			{
				"x": 2.1309190797,
				"y": -0.8557707588,
				"z": 6.6111038621,
				"element": "Cl" 
			},
			{
				"x": 1.7110618249,
				"y": -1.2210031783,
				"z": 4.9508078207,
				"element": "C" 
			},
			{
				"x": 1.4921985803,
				"y": -0.1918389773,
				"z": 4.0445488263,
				"element": "C" 
			},
			{
				"x": 1.1427703979,
				"y": -0.5388893773,
				"z": 2.7319359444,
				"element": "C" 
			},
			{
				"x": 1.0333650582,
				"y": -1.807513159,
				"z": 2.3127266694,
				"element": "N" 
			},
			{
				"x": 1.2665978179,
				"y": -2.7780105941,
				"z": 3.2034997565,
				"element": "C" 
			},
			{
				"x": 1.6029870301,
				"y": -2.5483059793,
				"z": 4.5369599102,
				"element": "C" 
			},
			{
				"x": 0.9872224761,
				"y": 0.6110841,
				"z": 1.7539811962,
				"element": "C" 
			},
			{
				"x": 1.583502317,
				"y": 1.6631972596,
				"z": 2.0016863724,
				"element": "O" 
			},
			{
				"x": 0.2363554159,
				"y": 0.4597699824,
				"z": 0.6254814736,
				"element": "N" 
			},
			{
				"x": -0.7178323229,
				"y": -0.6297794927,
				"z": 0.3477306265,
				"element": "C" 
			},
			{
				"x": -1.9383872822,
				"y": -0.0780771134,
				"z": -0.3977339926,
				"element": "C" 
			},
			{
				"x": -1.5558958616,
				"y": 0.5387256701,
				"z": -1.7613172125,
				"element": "C" 
			},
			{
				"x": -0.1168203029,
				"y": 1.0999179013,
				"z": -1.7300919409,
				"element": "C" 
			},
			{
				"x": 0.2791429488,
				"y": 1.579753068,
				"z": -0.3336273476,
				"element": "C" 
			},
			{
				"x": 1.5989948534,
				"y": 0.8517393322,
				"z": 4.3106248032,
				"element": "H" 
			},
			{
				"x": 1.1819187006,
				"y": -3.7989425412,
				"z": 2.836234118,
				"element": "H" 
			},
			{
				"x": 1.776590252,
				"y": -3.3691095177,
				"z": 5.2230015289,
				"element": "H" 
			},
			{
				"x": -0.234428207,
				"y": -1.4226795572,
				"z": -0.236799766,
				"element": "H" 
			},
			{
				"x": -1.0246742222,
				"y": -1.0832478376,
				"z": 1.2886331096,
				"element": "H" 
			},
			{
				"x": -2.4169054119,
				"y": 0.6771641871,
				"z": 0.2370527559,
				"element": "H" 
			},
			{
				"x": -2.6685609983,
				"y": -0.8843503909,
				"z": -0.5261959365,
				"element": "H" 
			},
			{
				"x": -2.2678932055,
				"y": 1.3325143035,
				"z": -2.0134436837,
				"element": "H" 
			},
			{
				"x": -1.6370608199,
				"y": -0.2125211621,
				"z": -2.5548356062,
				"element": "H" 
			},
			{
				"x": 0.5953843059,
				"y": 0.327913425,
				"z": -2.0448992065,
				"element": "H" 
			},
			{
				"x": -0.0070186751,
				"y": 1.9290845617,
				"z": -2.4367935298,
				"element": "H" 
			},
			{
				"x": -0.3843983683,
				"y": 2.3901332582,
				"z": 0.0017449528,
				"element": "H" 
			},
			{
				"x": 1.2917646194,
				"y": 1.9867425879,
				"z": -0.3201155044,
				"element": "H" 
			}
		],
		 "valence_orbital": [ 
			{
				"type": "occ",
				"energy": -0.27989,
				"method": "rhf"
			},
			{
				"type": "occ",
				"energy": -0.27842,
				"method": "rhf"
			},
			{
				"type": "occ",
				"energy": -0.2729,
				"method": "rhf"
			},
			{
				"type": "occ",
				"energy": -0.24545,
				"method": "rhf"
			},
			{
				"type": "occ",
				"energy": -0.23189,
				"method": "rhf"
			},
			{
				"type": "unocc",
				"energy": -0.05171,
				"method": "rhf"
			},
			{
				"type": "unocc",
				"energy": -0.03365,
				"method": "rhf"
			},
			{
				"type": "unocc",
				"energy": 0.0203,
				"method": "rhf"
			},
			{
				"type": "unocc",
				"energy": 0.05164,
				"method": "rhf"
			},
			{
				"type": "unocc",
				"energy": 0.0753,
				"method": "rhf"
			}
		],
		"cosmo_sigma_profile": { 
			"-0.025": 0.0,
			"-0.024": 0.0,
			"-0.023": 0.0,
			"-0.022": 0.0,
			"-0.021": 0.0,
			"-0.02": 0.0,
			"-0.019": 0.0,
			"-0.018": 0.0,
			"-0.017": 0.0,
			"-0.016": 0.0,
			"-0.015": 0.0,
			"-0.014": 0.0,
			"-0.013": 0.0,
			"-0.012": 0.0,
			"-0.011": 0.0,
			"-0.01": 0.0,
			"-0.009": 0.724978565875,
			"-0.008": 2.7458078224,
			"-0.007": 5.45916532559,
			"-0.006": 4.93163472234,
			"-0.005": 4.98680909951,
			"-0.004": 14.0793885106,
			"-0.003": 32.4777355494,
			"-0.002": 39.2959055725,
			"-0.001": 34.1734560812,
			"0.0": 35.1532350781,
			"0.001": 18.8779792856,
			"0.002": 10.3820847238,
			"0.003": 13.7446673839,
			"0.004": 10.0630515205,
			"0.005": 3.24172315525,
			"0.006": 3.19388377766,
			"0.007": 2.30247950509,
			"0.008": 2.61629530756,
			"0.009": 2.83512734238,
			"0.01": 2.49811514196,
			"0.011": 2.04997721012,
			"0.012": 1.54826232819,
			"0.013": 3.01501485471,
			"0.014": 4.33422842645,
			"0.015": 0.281069191428,
			"0.016": 0.0,
			"0.017": 0.0,
			"0.018": 0.0,
			"0.019": 0.0,
			"0.02": 0.0,
			"0.021": 0.0,
			"0.022": 0.0,
			"0.023": 0.0,
			"0.024": 0.0,
			"0.025": 0.0
		}
	}
}
