{
	 "smiles": "COC1=C(N)C=C(C)C=N1", 
	 "Tm": 351.15, 
	 "num_atms": 20, 
	 "gaussian": { 
		 "optdone": 1, 
		 "sigma_profile": "yes", 
		 "theory": "DFT", 
		 "functional": "B3LYP", 
		 "basiset": "6-31G**", 
		 "properties": { 
			 "R2extent": 1623.6692, 
			 "electric_dipole_moment_norm": 1.81745680554, 
			 "electric_quadrupole_moment_norm": 7.00523623941, 
			 "total_energy": -457.501319136, 
			 "HOMO_LUMO_gap": 0.19049, 
			 "cosmo_polarized_energy": -8.86, 
			 "cosmo_cavitation_energy": 23.38, 
			 "cosmo_dispersion_energy": -17.55, 
			 "cosmo_repulsion_energy": 1.44, 
			 "cosmo_total_nonelectrostatic_energy": 7.28, 
			 "SMD_solvation_energy": 4.0 
		},
		"coords": [
			{
				"x": 1.7180232725,
				"y": -2.9182067434,
				"z": -0.639379651,
				"element": "C" 
			},
			{
				"x": 0.8130056169,
				"y": -1.9772420311,
				"z": -1.2166972541,
				"element": "O" 
			},
			{
				"x": 0.5532651535,
				"y": -0.8539954644,
				"z": -0.4876425087,
				"element": "C" 
			},
			{
				"x": -0.3619705761,
				"y": 0.0551682388,
				"z": -1.084220277,
				"element": "C" 
			},
			{
				"x": -0.8635005639,
				"y": -0.2055793002,
				"z": -2.354958611,
				"element": "N" 
			},
			{
				"x": -0.6573007118,
				"y": 1.1990492097,
				"z": -0.3507519513,
				"element": "C" 
			},
			{
				"x": -0.0611038763,
				"y": 1.4207414071,
				"z": 0.9047153043,
				"element": "C" 
			},
			{
				"x": -0.3701237982,
				"y": 2.6589826335,
				"z": 1.7090058177,
				"element": "C" 
			},
			{
				"x": 0.8212041689,
				"y": 0.4527858696,
				"z": 1.3693412947,
				"element": "C" 
			},
			{
				"x": 1.1206560355,
				"y": -0.6691676056,
				"z": 0.6837005283,
				"element": "N" 
			},
			{
				"x": 2.7005744703,
				"y": -2.4670142876,
				"z": -0.4720429316,
				"element": "H" 
			},
			{
				"x": 1.3431927441,
				"y": -3.2903047519,
				"z": 0.319071248,
				"element": "H" 
			},
			{
				"x": 1.7932800492,
				"y": -3.7338146784,
				"z": -1.3605207618,
				"element": "H" 
			},
			{
				"x": -1.7583581824,
				"y": 0.2145970636,
				"z": -2.563519877,
				"element": "H" 
			},
			{
				"x": -0.8044272331,
				"y": -1.1772332157,
				"z": -2.6266389067,
				"element": "H" 
			},
			{
				"x": -1.3532189899,
				"y": 1.9290275602,
				"z": -0.7599911024,
				"element": "H" 
			},
			{
				"x": 0.1757514734,
				"y": 2.6592502568,
				"z": 2.6567400889,
				"element": "H" 
			},
			{
				"x": -0.0946711691,
				"y": 3.5709716842,
				"z": 1.1662281784,
				"element": "H" 
			},
			{
				"x": -1.4392917276,
				"y": 2.7330635067,
				"z": 1.9408039264,
				"element": "H" 
			},
			{
				"x": 1.3127138441,
				"y": 0.5686206481,
				"z": 2.3332574458,
				"element": "H" 
			}
		],
		 "valence_orbital": [ 
			{
				"type": "occ",
				"energy": -0.32374,
				"method": "rhf"
			},
			{
				"type": "occ",
				"energy": -0.31001,
				"method": "rhf"
			},
			{
				"type": "occ",
				"energy": -0.25364,
				"method": "rhf"
			},
			{
				"type": "occ",
				"energy": -0.24336,
				"method": "rhf"
			},
			{
				"type": "occ",
				"energy": -0.19162,
				"method": "rhf"
			},
			{
				"type": "unocc",
				"energy": -0.00113,
				"method": "rhf"
			},
			{
				"type": "unocc",
				"energy": 0.02367,
				"method": "rhf"
			},
			{
				"type": "unocc",
				"energy": 0.08937,
				"method": "rhf"
			},
			{
				"type": "unocc",
				"energy": 0.10919,
				"method": "rhf"
			},
			{
				"type": "unocc",
				"energy": 0.1255,
				"method": "rhf"
			}
		],
		"cosmo_sigma_profile": { 
			"-0.025": 0.0,
			"-0.024": 0.0,
			"-0.023": 0.0,
			"-0.022": 0.0,
			"-0.021": 0.0,
			"-0.02": 0.0,
			"-0.019": 0.0,
			"-0.018": 0.0,
			"-0.017": 0.0,
			"-0.016": 0.0,
			"-0.015": 0.0,
			"-0.014": 0.0,
			"-0.013": 0.417674151622,
			"-0.012": 1.31013149887,
			"-0.011": 2.16173980292,
			"-0.01": 2.05460643769,
			"-0.009": 3.30752290204,
			"-0.008": 1.87088388888,
			"-0.007": 2.77624888902,
			"-0.006": 3.64476722587,
			"-0.005": 8.72646456231,
			"-0.004": 16.1459677037,
			"-0.003": 18.148284766,
			"-0.002": 18.5325115455,
			"-0.001": 12.8686117082,
			"0.0": 14.5851256569,
			"0.001": 12.181107294,
			"0.002": 10.4450093271,
			"0.003": 9.90719792892,
			"0.004": 12.1074270184,
			"0.005": 10.7592895612,
			"0.006": 5.636735868,
			"0.007": 4.05356535408,
			"0.008": 2.45677422057,
			"0.009": 2.37099603916,
			"0.01": 2.37531427805,
			"0.011": 1.64329804046,
			"0.012": 1.27208818146,
			"0.013": 1.46878426508,
			"0.014": 1.09210159748,
			"0.015": 0.229712560529,
			"0.016": 0.0,
			"0.017": 0.0,
			"0.018": 0.0,
			"0.019": 0.0,
			"0.02": 0.0,
			"0.021": 0.0,
			"0.022": 0.0,
			"0.023": 0.0,
			"0.024": 0.0,
			"0.025": 0.0
		}
	}
}
