{
	 "smiles": "CC1=CC(=CC(C)=C1CCNC(=O)CCl)C(C)(C)C", 
	 "Tm": 388.15, 
	 "num_atms": 43, 
	 "gaussian": { 
		 "optdone": 1, 
		 "sigma_profile": "yes", 
		 "theory": "DFT", 
		 "functional": "B3LYP", 
		 "basiset": "6-31G**", 
		 "properties": { 
			 "R2extent": 7896.8573, 
			 "electric_dipole_moment_norm": 2.23802278362, 
			 "electric_quadrupole_moment_norm": 12.1124040033, 
			 "total_energy": -1214.38708097, 
			 "HOMO_LUMO_gap": 0.2251, 
			 "cosmo_polarized_energy": -11.08, 
			 "cosmo_cavitation_energy": 44.7, 
			 "cosmo_dispersion_energy": -29.69, 
			 "cosmo_repulsion_energy": 2.33, 
			 "cosmo_total_nonelectrostatic_energy": 17.34, 
			 "SMD_solvation_energy": 7.74 
		},
		"coords": [
			{
				"x": -2.3899614231,
				"y": 0.3740274586,
				"z": -1.4353543612,
				"element": "C" 
			},
			{
				"x": -1.1960443977,
				"y": -0.2424632333,
				"z": -0.7334627061,
				"element": "C" 
			},
			{
				"x": -0.6667731035,
				"y": -1.4359085365,
				"z": -1.2472644222,
				"element": "C" 
			},
			{
				"x": 0.4034587103,
				"y": -2.1020801567,
				"z": -0.6464947546,
				"element": "C" 
			},
			{
				"x": 0.929153261,
				"y": -1.5299351797,
				"z": 0.5201355592,
				"element": "C" 
			},
			{
				"x": 0.4354648777,
				"y": -0.342478194,
				"z": 1.0648977814,
				"element": "C" 
			},
			{
				"x": 1.0465893423,
				"y": 0.1739091538,
				"z": 2.3509903063,
				"element": "C" 
			},
			{
				"x": -0.633319201,
				"y": 0.3289347659,
				"z": 0.426337975,
				"element": "C" 
			},
			{
				"x": -1.1580286673,
				"y": 1.6419175533,
				"z": 0.9832441851,
				"element": "C" 
			},
			{
				"x": -0.3142658072,
				"y": 2.8777012869,
				"z": 0.602112148,
				"element": "C" 
			},
			{
				"x": -0.2178454415,
				"y": 3.0889056265,
				"z": -0.8360549259,
				"element": "N" 
			},
			{
				"x": -0.5906630577,
				"y": 4.2493010785,
				"z": -1.4238821572,
				"element": "C" 
			},
			{
				"x": -1.0622982029,
				"y": 5.2186470522,
				"z": -0.8400197637,
				"element": "O" 
			},
			{
				"x": -0.4182848435,
				"y": 4.3800179811,
				"z": -2.9400737266,
				"element": "C" 
			},
			{
				"x": 0.2851655779,
				"y": 2.9525551619,
				"z": -3.8191870573,
				"element": "Cl" 
			},
			{
				"x": 0.9983430977,
				"y": -3.4094759151,
				"z": -1.2009939473,
				"element": "C" 
			},
			{
				"x": 0.289134606,
				"y": -3.8776703019,
				"z": -2.485873345,
				"element": "C" 
			},
			{
				"x": 2.4953107104,
				"y": -3.1946203061,
				"z": -1.5286031795,
				"element": "C" 
			},
			{
				"x": 0.8623749168,
				"y": -4.5283920791,
				"z": -0.1408456957,
				"element": "C" 
			},
			{
				"x": -2.6509021601,
				"y": -0.2023554574,
				"z": -2.326584102,
				"element": "H" 
			},
			{
				"x": -3.2744621653,
				"y": 0.3923484265,
				"z": -0.7868676035,
				"element": "H" 
			},
			{
				"x": -2.203169849,
				"y": 1.4049197982,
				"z": -1.7500325275,
				"element": "H" 
			},
			{
				"x": -1.1231769152,
				"y": -1.8424411044,
				"z": -2.1429364056,
				"element": "H" 
			},
			{
				"x": 1.7507870437,
				"y": -2.0211987509,
				"z": 1.0346070686,
				"element": "H" 
			},
			{
				"x": 0.2968823772,
				"y": 0.2777946985,
				"z": 3.1445145949,
				"element": "H" 
			},
			{
				"x": 1.8150228095,
				"y": -0.5128468512,
				"z": 2.7151778427,
				"element": "H" 
			},
			{
				"x": 1.5181166891,
				"y": 1.1555119227,
				"z": 2.2309364066,
				"element": "H" 
			},
			{
				"x": -2.1860409556,
				"y": 1.8144009551,
				"z": 0.6547919124,
				"element": "H" 
			},
			{
				"x": -1.1879823618,
				"y": 1.6014698377,
				"z": 2.07832391,
				"element": "H" 
			},
			{
				"x": 0.6968268538,
				"y": 2.7864941054,
				"z": 1.016168803,
				"element": "H" 
			},
			{
				"x": -0.7622136097,
				"y": 3.7837173846,
				"z": 1.0158465988,
				"element": "H" 
			},
			{
				"x": 0.178493446,
				"y": 2.3570270328,
				"z": -1.4103024794,
				"element": "H" 
			},
			{
				"x": -1.3957310968,
				"y": 4.577532737,
				"z": -3.3803764393,
				"element": "H" 
			},
			{
				"x": 0.2344454113,
				"y": 5.2304809504,
				"z": -3.1371330477,
				"element": "H" 
			},
			{
				"x": 0.7489127795,
				"y": -4.8046835867,
				"z": -2.8437117538,
				"element": "H" 
			},
			{
				"x": -0.7729099055,
				"y": -4.0816296265,
				"z": -2.3144221474,
				"element": "H" 
			},
			{
				"x": 0.3702151832,
				"y": -3.1377905258,
				"z": -3.2889279243,
				"element": "H" 
			},
			{
				"x": 3.0672976558,
				"y": -2.8992769895,
				"z": -0.6440163266,
				"element": "H" 
			},
			{
				"x": 2.6222017654,
				"y": -2.4126642819,
				"z": -2.2845719687,
				"element": "H" 
			},
			{
				"x": 2.9374004575,
				"y": -4.1187259299,
				"z": -1.918189224,
				"element": "H" 
			},
			{
				"x": 1.2871404861,
				"y": -5.4655560219,
				"z": -0.5183682388,
				"element": "H" 
			},
			{
				"x": -0.189221289,
				"y": -4.7073151727,
				"z": 0.1063991588,
				"element": "H" 
			},
			{
				"x": 1.3847563949,
				"y": -4.2764067662,
				"z": 0.7867659804,
				"element": "H" 
			}
		],
		 "valence_orbital": [ 
			{
				"type": "occ",
				"energy": -0.30807,
				"method": "rhf"
			},
			{
				"type": "occ",
				"energy": -0.25999,
				"method": "rhf"
			},
			{
				"type": "occ",
				"energy": -0.2566,
				"method": "rhf"
			},
			{
				"type": "occ",
				"energy": -0.23522,
				"method": "rhf"
			},
			{
				"type": "occ",
				"energy": -0.22855,
				"method": "rhf"
			},
			{
				"type": "unocc",
				"energy": -0.00345,
				"method": "rhf"
			},
			{
				"type": "unocc",
				"energy": 0.00445,
				"method": "rhf"
			},
			{
				"type": "unocc",
				"energy": 0.01657,
				"method": "rhf"
			},
			{
				"type": "unocc",
				"energy": 0.02114,
				"method": "rhf"
			},
			{
				"type": "unocc",
				"energy": 0.08119,
				"method": "rhf"
			}
		],
		"cosmo_sigma_profile": { 
			"-0.025": 0.0,
			"-0.024": 0.0,
			"-0.023": 0.0,
			"-0.022": 0.0,
			"-0.021": 0.0,
			"-0.02": 0.0,
			"-0.019": 0.0,
			"-0.018": 0.0,
			"-0.017": 0.0,
			"-0.016": 0.0,
			"-0.015": 0.0,
			"-0.014": 0.0,
			"-0.013": 0.0,
			"-0.012": 0.0,
			"-0.011": 0.0,
			"-0.01": 0.169546408343,
			"-0.009": 2.82841115221,
			"-0.008": 4.4060446871,
			"-0.007": 4.05346999057,
			"-0.006": 5.53157500318,
			"-0.005": 10.5698419227,
			"-0.004": 27.1082849893,
			"-0.003": 38.9198834681,
			"-0.002": 45.3325763231,
			"-0.001": 38.3999424641,
			"0.0": 40.9250459076,
			"0.001": 39.7179747557,
			"0.002": 24.2111727876,
			"0.003": 12.1958943385,
			"0.004": 11.7819275829,
			"0.005": 13.3898486166,
			"0.006": 10.3541522197,
			"0.007": 5.57963998035,
			"0.008": 1.99885465695,
			"0.009": 0.260152323405,
			"0.01": 1.21117834364,
			"0.011": 2.00834894316,
			"0.012": 1.88597787595,
			"0.013": 5.26300004319,
			"0.014": 2.9389259977,
			"0.015": 0.0668134663507,
			"0.016": 0.0,
			"0.017": 0.0,
			"0.018": 0.0,
			"0.019": 0.0,
			"0.02": 0.0,
			"0.021": 0.0,
			"0.022": 0.0,
			"0.023": 0.0,
			"0.024": 0.0,
			"0.025": 0.0
		}
	}
}
