{
	 "smiles": "NC1=NN2C(NC(=O)C=C2C(F)(F)F)=C1N=NC1=CC=CC(=C1)C(F)(F)F", 
	 "Tm": 564.15, 
	 "num_atms": 35, 
	 "gaussian": { 
		 "optdone": 1, 
		 "sigma_profile": "yes", 
		 "theory": "DFT", 
		 "functional": "B3LYP", 
		 "basiset": "6-31G**", 
		 "properties": { 
			 "R2extent": 15138.7204, 
			 "electric_dipole_moment_norm": 4.52051078862, 
			 "electric_quadrupole_moment_norm": 10.3952939829, 
			 "total_energy": -1541.04785275, 
			 "HOMO_LUMO_gap": 0.13231, 
			 "cosmo_polarized_energy": -16.75, 
			 "cosmo_cavitation_energy": 44.84, 
			 "cosmo_dispersion_energy": -31.15, 
			 "cosmo_repulsion_energy": 2.22, 
			 "cosmo_total_nonelectrostatic_energy": 15.91, 
			 "SMD_solvation_energy": 8.81 
		},
		"coords": [
			{
				"x": -0.0904558829,
				"y": 0.1569597103,
				"z": 3.3675857691,
				"element": "N" 
			},
			{
				"x": 0.1088164295,
				"y": -0.9471947015,
				"z": 2.6159145298,
				"element": "C" 
			},
			{
				"x": 0.4213038169,
				"y": -2.1308930754,
				"z": 3.1311909379,
				"element": "N" 
			},
			{
				"x": 0.4996884207,
				"y": -2.9672828472,
				"z": 2.0219055411,
				"element": "N" 
			},
			{
				"x": 0.2453829447,
				"y": -2.3156970065,
				"z": 0.8485671478,
				"element": "C" 
			},
			{
				"x": 0.2893413013,
				"y": -3.0056657793,
				"z": -0.3202425653,
				"element": "N" 
			},
			{
				"x": 0.5865447279,
				"y": -4.3841414329,
				"z": -0.4136021218,
				"element": "C" 
			},
			{
				"x": 0.6097619855,
				"y": -4.943731939,
				"z": -1.4964681573,
				"element": "O" 
			},
			{
				"x": 0.8465708625,
				"y": -5.009867455,
				"z": 0.8835237529,
				"element": "C" 
			},
			{
				"x": 0.7995414632,
				"y": -4.3076082029,
				"z": 2.0442955703,
				"element": "C" 
			},
			{
				"x": 1.0679668689,
				"y": -4.9425492166,
				"z": 3.3961790505,
				"element": "C" 
			},
			{
				"x": 2.1183510995,
				"y": -4.3688731529,
				"z": 4.002429009,
				"element": "F" 
			},
			{
				"x": 0.0012092936,
				"y": -4.8388382716,
				"z": 4.2026599415,
				"element": "F" 
			},
			{
				"x": 1.3441885501,
				"y": -6.2520193033,
				"z": 3.2414516021,
				"element": "F" 
			},
			{
				"x": -0.0159238899,
				"y": -0.9823150768,
				"z": 1.1688615676,
				"element": "C" 
			},
			{
				"x": -0.2955850158,
				"y": -0.025303802,
				"z": 0.2379359711,
				"element": "N" 
			},
			{
				"x": -0.4860022217,
				"y": 1.1499696357,
				"z": 0.6962666815,
				"element": "N" 
			},
			{
				"x": -0.7736200519,
				"y": 2.1274511197,
				"z": -0.2847304433,
				"element": "C" 
			},
			{
				"x": -0.9727698506,
				"y": 3.4323374865,
				"z": 0.1869051583,
				"element": "C" 
			},
			{
				"x": -1.2570044482,
				"y": 4.4688909897,
				"z": -0.7006908814,
				"element": "C" 
			},
			{
				"x": -1.3474977743,
				"y": 4.213846147,
				"z": -2.0673702819,
				"element": "C" 
			},
			{
				"x": -1.1507955421,
				"y": 2.9086645429,
				"z": -2.5399008731,
				"element": "C" 
			},
			{
				"x": -0.8660694606,
				"y": 1.8687277547,
				"z": -1.6624600249,
				"element": "C" 
			},
			{
				"x": -1.3053427985,
				"y": 2.6299600812,
				"z": -4.0124410357,
				"element": "C" 
			},
			{
				"x": -0.8088250919,
				"y": 3.637750355,
				"z": -4.7646751495,
				"element": "F" 
			},
			{
				"x": -0.6748697849,
				"y": 1.4953604242,
				"z": -4.3844788731,
				"element": "F" 
			},
			{
				"x": -2.6067985586,
				"y": 2.4914646665,
				"z": -4.3562909977,
				"element": "F" 
			},
			{
				"x": 0.1297785437,
				"y": 0.1342676875,
				"z": 4.3501151883,
				"element": "H" 
			},
			{
				"x": -0.2199225288,
				"y": 1.0265374312,
				"z": 2.869857812,
				"element": "H" 
			},
			{
				"x": 0.0995493626,
				"y": -2.5112584837,
				"z": -1.1844240649,
				"element": "H" 
			},
			{
				"x": 1.080637916,
				"y": -6.064138345,
				"z": 0.8869453971,
				"element": "H" 
			},
			{
				"x": -0.8975739632,
				"y": 3.6138147687,
				"z": 1.2544435945,
				"element": "H" 
			},
			{
				"x": -1.4050676659,
				"y": 5.4771488732,
				"z": -0.3268246515,
				"element": "H" 
			},
			{
				"x": -1.5599166053,
				"y": 5.0152989377,
				"z": -2.7666166692,
				"element": "H" 
			},
			{
				"x": -0.7075924514,
				"y": 0.8618274798,
				"z": -2.0261174319,
				"element": "H" 
			}
		],
		 "valence_orbital": [ 
			{
				"type": "occ",
				"energy": -0.28276,
				"method": "rhf"
			},
			{
				"type": "occ",
				"energy": -0.27668,
				"method": "rhf"
			},
			{
				"type": "occ",
				"energy": -0.25147,
				"method": "rhf"
			},
			{
				"type": "occ",
				"energy": -0.23301,
				"method": "rhf"
			},
			{
				"type": "occ",
				"energy": -0.22574,
				"method": "rhf"
			},
			{
				"type": "unocc",
				"energy": -0.09343,
				"method": "rhf"
			},
			{
				"type": "unocc",
				"energy": -0.06926,
				"method": "rhf"
			},
			{
				"type": "unocc",
				"energy": -0.0324,
				"method": "rhf"
			},
			{
				"type": "unocc",
				"energy": -0.00693,
				"method": "rhf"
			},
			{
				"type": "unocc",
				"energy": 0.00839,
				"method": "rhf"
			}
		],
		"cosmo_sigma_profile": { 
			"-0.025": 0.0,
			"-0.024": 0.0,
			"-0.023": 0.0,
			"-0.022": 0.0,
			"-0.021": 0.0,
			"-0.02": 0.0,
			"-0.019": 0.0,
			"-0.018": 0.0,
			"-0.017": 0.338329818419,
			"-0.016": 0.803459780282,
			"-0.015": 0.788271606515,
			"-0.014": 2.18627925271,
			"-0.013": 2.34602279759,
			"-0.012": 1.3387893065,
			"-0.011": 1.59563152858,
			"-0.01": 2.79104348029,
			"-0.009": 4.32306615756,
			"-0.008": 4.37909013251,
			"-0.007": 9.32409936688,
			"-0.006": 13.4676284471,
			"-0.005": 16.2833376915,
			"-0.004": 20.1834260508,
			"-0.003": 20.5052774803,
			"-0.002": 19.795995503,
			"-0.001": 20.789591957,
			"0.0": 25.6062667693,
			"0.001": 43.6332809272,
			"0.002": 61.286640885,
			"0.003": 44.8331131843,
			"0.004": 10.2614330796,
			"0.005": 4.31682351208,
			"0.006": 5.2299288036,
			"0.007": 2.24551504695,
			"0.008": 4.11345448128,
			"0.009": 2.60663302695,
			"0.01": 3.12459694514,
			"0.011": 4.27628221688,
			"0.012": 6.63593735916,
			"0.013": 2.39641135722,
			"0.014": 0.0767266869362,
			"0.015": 0.0,
			"0.016": 0.0,
			"0.017": 0.0,
			"0.018": 0.0,
			"0.019": 0.0,
			"0.02": 0.0,
			"0.021": 0.0,
			"0.022": 0.0,
			"0.023": 0.0,
			"0.024": 0.0,
			"0.025": 0.0
		}
	}
}
