{
	 "smiles": "OC(=O)C1=CC(=C2C=CC=CC2=C1O)S(F)(=O)=O", 
	 "Tm": 573.15, 
	 "num_atms": 25, 
	 "gaussian": { 
		 "optdone": 1, 
		 "sigma_profile": "yes", 
		 "theory": "DFT", 
		 "functional": "B3LYP", 
		 "basiset": "6-31G**", 
		 "properties": { 
			 "R2extent": 6616.1853, 
			 "electric_dipole_moment_norm": 9.64720625985, 
			 "electric_quadrupole_moment_norm": 18.7524622821, 
			 "total_energy": -1297.48605434, 
			 "HOMO_LUMO_gap": 0.16446, 
			 "cosmo_polarized_energy": -23.58, 
			 "cosmo_cavitation_energy": 31.13, 
			 "cosmo_dispersion_energy": -23.89, 
			 "cosmo_repulsion_energy": 1.73, 
			 "cosmo_total_nonelectrostatic_energy": 8.98, 
			 "SMD_solvation_energy": 5.96 
		},
		"coords": [
			{
				"x": 2.2011028639,
				"y": 0.7108729285,
				"z": -3.0826011985,
				"element": "O" 
			},
			{
				"x": 2.2573566057,
				"y": -0.2931927045,
				"z": -2.1905274594,
				"element": "C" 
			},
			{
				"x": 2.621847199,
				"y": -1.3984685772,
				"z": -2.5229640274,
				"element": "O" 
			},
			{
				"x": 1.8605288369,
				"y": -0.0042750206,
				"z": -0.76101204,
				"element": "C" 
			},
			{
				"x": 1.9982470327,
				"y": -1.0857594923,
				"z": 0.1418444727,
				"element": "C" 
			},
			{
				"x": 1.7017221441,
				"y": -0.9480934479,
				"z": 1.4744641316,
				"element": "C" 
			},
			{
				"x": 1.2172085863,
				"y": 0.2855399166,
				"z": 2.0201944453,
				"element": "C" 
			},
			{
				"x": 0.8994013972,
				"y": 0.4862440835,
				"z": 3.388665915,
				"element": "C" 
			},
			{
				"x": 0.4259909629,
				"y": 1.7016474433,
				"z": 3.8336315916,
				"element": "C" 
			},
			{
				"x": 0.2333410903,
				"y": 2.7726953478,
				"z": 2.9361622707,
				"element": "C" 
			},
			{
				"x": 0.5375024092,
				"y": 2.6119732162,
				"z": 1.6032007707,
				"element": "C" 
			},
			{
				"x": 1.0520139283,
				"y": 1.3828843268,
				"z": 1.112382802,
				"element": "C" 
			},
			{
				"x": 1.4036894664,
				"y": 1.2092032015,
				"z": -0.2655658373,
				"element": "C" 
			},
			{
				"x": 1.2763680251,
				"y": 2.2544209327,
				"z": -1.1393769415,
				"element": "O" 
			},
			{
				"x": 1.9081762101,
				"y": -2.4017777641,
				"z": 2.4796847195,
				"element": "S" 
			},
			{
				"x": 3.0788063907,
				"y": -1.8596538067,
				"z": 3.4699145852,
				"element": "F" 
			},
			{
				"x": 2.4976106173,
				"y": -3.4712485362,
				"z": 1.6997334051,
				"element": "O" 
			},
			{
				"x": 0.7555381815,
				"y": -2.6167999797,
				"z": 3.3374586487,
				"element": "O" 
			},
			{
				"x": 1.8899659267,
				"y": 1.5285337562,
				"z": -2.6572013558,
				"element": "H" 
			},
			{
				"x": 2.3634357953,
				"y": -2.0245711918,
				"z": -0.2584076485,
				"element": "H" 
			},
			{
				"x": 1.0155368495,
				"y": -0.3301791365,
				"z": 4.0889561846,
				"element": "H" 
			},
			{
				"x": 0.1874204629,
				"y": 1.8307292671,
				"z": 4.8846218832,
				"element": "H" 
			},
			{
				"x": -0.1631635045,
				"y": 3.7176203778,
				"z": 3.2933740241,
				"element": "H" 
			},
			{
				"x": 0.3408421188,
				"y": 3.4408549405,
				"z": 0.9276077639,
				"element": "H" 
			},
			{
				"x": 1.2384104037,
				"y": 3.0987999188,
				"z": -0.6725411054,
				"element": "H" 
			}
		],
		 "valence_orbital": [ 
			{
				"type": "occ",
				"energy": -0.31874,
				"method": "rhf"
			},
			{
				"type": "occ",
				"energy": -0.31029,
				"method": "rhf"
			},
			{
				"type": "occ",
				"energy": -0.28742,
				"method": "rhf"
			},
			{
				"type": "occ",
				"energy": -0.28166,
				"method": "rhf"
			},
			{
				"type": "occ",
				"energy": -0.25771,
				"method": "rhf"
			},
			{
				"type": "unocc",
				"energy": -0.09325,
				"method": "rhf"
			},
			{
				"type": "unocc",
				"energy": -0.065,
				"method": "rhf"
			},
			{
				"type": "unocc",
				"energy": -0.02536,
				"method": "rhf"
			},
			{
				"type": "unocc",
				"energy": 0.0015,
				"method": "rhf"
			},
			{
				"type": "unocc",
				"energy": 0.01459,
				"method": "rhf"
			}
		],
		"cosmo_sigma_profile": { 
			"-0.025": 0.0,
			"-0.024": 0.0,
			"-0.023": 0.0,
			"-0.022": 0.0235133013824,
			"-0.021": 0.37685962404,
			"-0.02": 1.00960644112,
			"-0.019": 0.803487319285,
			"-0.018": 1.15453450685,
			"-0.017": 0.686061826648,
			"-0.016": 0.541134584345,
			"-0.015": 1.17516098129,
			"-0.014": 1.72866465832,
			"-0.013": 0.698558712947,
			"-0.012": 1.09394347957,
			"-0.011": 1.7927895181,
			"-0.01": 1.74122097549,
			"-0.009": 2.54040179594,
			"-0.008": 3.36186440549,
			"-0.007": 10.1543285755,
			"-0.006": 12.0335122281,
			"-0.005": 10.0954275146,
			"-0.004": 13.0409532294,
			"-0.003": 17.205451833,
			"-0.002": 19.0821321939,
			"-0.001": 20.3827663332,
			"0.0": 17.615468316,
			"0.001": 17.6219067424,
			"0.002": 22.8298365494,
			"0.003": 12.6204627939,
			"0.004": 5.70158321031,
			"0.005": 5.39426376669,
			"0.006": 5.57848411061,
			"0.007": 6.71047717103,
			"0.008": 11.65083213,
			"0.009": 10.0031965835,
			"0.01": 4.65973270847,
			"0.011": 5.61873390649,
			"0.012": 3.63343795704,
			"0.013": 1.52630074189,
			"0.014": 0.0395033575939,
			"0.015": 0.0,
			"0.016": 0.0,
			"0.017": 0.0,
			"0.018": 0.0,
			"0.019": 0.0,
			"0.02": 0.0,
			"0.021": 0.0,
			"0.022": 0.0,
			"0.023": 0.0,
			"0.024": 0.0,
			"0.025": 0.0
		}
	}
}
