{
	 "smiles": "OCCN1C[C@H](O)[C@@H](O)[C@H](O)[C@H]1CO", 
	 "Tm": 387.15, 
	 "num_atms": 31, 
	 "gaussian": { 
		 "optdone": 1, 
		 "sigma_profile": "yes", 
		 "theory": "DFT", 
		 "functional": "B3LYP", 
		 "basiset": "6-31G**", 
		 "properties": { 
			 "R2extent": 3286.7326, 
			 "electric_dipole_moment_norm": 2.93475757432, 
			 "electric_quadrupole_moment_norm": 13.1651775115, 
			 "total_energy": -745.907825231, 
			 "HOMO_LUMO_gap": 0.2602, 
			 "cosmo_polarized_energy": -18.1, 
			 "cosmo_cavitation_energy": 30.75, 
			 "cosmo_dispersion_energy": -22.43, 
			 "cosmo_repulsion_energy": 1.78, 
			 "cosmo_total_nonelectrostatic_energy": 10.1, 
			 "SMD_solvation_energy": 3.48 
		},
		"coords": [
			{
				"x": -2.3406137336,
				"y": -0.1346729231,
				"z": -2.9167726588,
				"element": "O" 
			},
			{
				"x": -1.0053114455,
				"y": -0.6027998489,
				"z": -3.1081603311,
				"element": "C" 
			},
			{
				"x": 0.0866985363,
				"y": 0.403885013,
				"z": -2.7331054807,
				"element": "C" 
			},
			{
				"x": 0.3550052714,
				"y": 0.5178581922,
				"z": -1.3010290839,
				"element": "N" 
			},
			{
				"x": 1.6649817851,
				"y": 1.0913579323,
				"z": -0.9807520656,
				"element": "C" 
			},
			{
				"x": 2.1322869413,
				"y": 0.6849702012,
				"z": 0.4306328729,
				"element": "C" 
			},
			{
				"x": 3.0739417189,
				"y": -0.3745343101,
				"z": 0.3132094201,
				"element": "O" 
			},
			{
				"x": 0.9366551094,
				"y": 0.2792809366,
				"z": 1.2913004985,
				"element": "C" 
			},
			{
				"x": 1.3299807906,
				"y": 0.3323620067,
				"z": 2.6543960935,
				"element": "O" 
			},
			{
				"x": -0.2236889192,
				"y": 1.2209956976,
				"z": 1.0035339192,
				"element": "C" 
			},
			{
				"x": -1.2402405017,
				"y": 0.956275451,
				"z": 1.9601157656,
				"element": "O" 
			},
			{
				"x": -0.7336331994,
				"y": 1.0156721013,
				"z": -0.4453189108,
				"element": "C" 
			},
			{
				"x": -1.4406433054,
				"y": 2.2896404571,
				"z": -0.9411683249,
				"element": "C" 
			},
			{
				"x": -2.4092244863,
				"y": 2.6321078688,
				"z": 0.0612831303,
				"element": "O" 
			},
			{
				"x": -2.6112933449,
				"y": -0.3491406277,
				"z": -2.0167254507,
				"element": "H" 
			},
			{
				"x": -0.915111842,
				"y": -0.808927938,
				"z": -4.1808474418,
				"element": "H" 
			},
			{
				"x": -0.8280283293,
				"y": -1.5444237405,
				"z": -2.5709242995,
				"element": "H" 
			},
			{
				"x": -0.1487763774,
				"y": 1.3677124788,
				"z": -3.221909239,
				"element": "H" 
			},
			{
				"x": 1.0141791966,
				"y": 0.0448993654,
				"z": -3.1950195743,
				"element": "H" 
			},
			{
				"x": 1.6851067515,
				"y": 2.1929213386,
				"z": -1.0748995373,
				"element": "H" 
			},
			{
				"x": 2.3991311727,
				"y": 0.6998402314,
				"z": -1.6895954563,
				"element": "H" 
			},
			{
				"x": 2.6010123281,
				"y": 1.5544948954,
				"z": 0.9186208731,
				"element": "H" 
			},
			{
				"x": 3.2785207764,
				"y": -0.6602107422,
				"z": 1.2147832747,
				"element": "H" 
			},
			{
				"x": 0.6427439624,
				"y": -0.7427448311,
				"z": 1.0088114886,
				"element": "H" 
			},
			{
				"x": 0.5073071643,
				"y": 0.3079213862,
				"z": 3.1657221334,
				"element": "H" 
			},
			{
				"x": 0.1365220553,
				"y": 2.2567567564,
				"z": 1.124644471,
				"element": "H" 
			},
			{
				"x": -1.9512261596,
				"y": 1.5868402899,
				"z": 1.7655009815,
				"element": "H" 
			},
			{
				"x": -1.4957151051,
				"y": 0.2284671402,
				"z": -0.3621563104,
				"element": "H" 
			},
			{
				"x": -1.9319618605,
				"y": 2.10225056,
				"z": -1.9019644231,
				"element": "H" 
			},
			{
				"x": -0.707499369,
				"y": 3.1011435434,
				"z": -1.0685514085,
				"element": "H" 
			},
			{
				"x": -2.8847055812,
				"y": 3.4221011181,
				"z": -0.220854926,
				"element": "H" 
			}
		],
		 "valence_orbital": [ 
			{
				"type": "occ",
				"energy": -0.2732,
				"method": "rhf"
			},
			{
				"type": "occ",
				"energy": -0.26903,
				"method": "rhf"
			},
			{
				"type": "occ",
				"energy": -0.26208,
				"method": "rhf"
			},
			{
				"type": "occ",
				"energy": -0.25578,
				"method": "rhf"
			},
			{
				"type": "occ",
				"energy": -0.20878,
				"method": "rhf"
			},
			{
				"type": "unocc",
				"energy": 0.05142,
				"method": "rhf"
			},
			{
				"type": "unocc",
				"energy": 0.05572,
				"method": "rhf"
			},
			{
				"type": "unocc",
				"energy": 0.07899,
				"method": "rhf"
			},
			{
				"type": "unocc",
				"energy": 0.09245,
				"method": "rhf"
			},
			{
				"type": "unocc",
				"energy": 0.10541,
				"method": "rhf"
			}
		],
		"cosmo_sigma_profile": { 
			"-0.025": 0.0,
			"-0.024": 0.0,
			"-0.023": 0.0,
			"-0.022": 0.0,
			"-0.021": 0.0,
			"-0.02": 0.0,
			"-0.019": 0.0,
			"-0.018": 0.0,
			"-0.017": 0.104346624018,
			"-0.016": 1.36194517531,
			"-0.015": 0.822679625602,
			"-0.014": 2.26949162714,
			"-0.013": 2.22714025271,
			"-0.012": 3.26682359581,
			"-0.011": 3.61647217981,
			"-0.01": 2.59037076259,
			"-0.009": 2.96491134221,
			"-0.008": 2.50989931613,
			"-0.007": 4.39541291185,
			"-0.006": 5.23733770798,
			"-0.005": 10.395174448,
			"-0.004": 22.3523319083,
			"-0.003": 25.5652956384,
			"-0.002": 24.5411006122,
			"-0.001": 20.2910062904,
			"0.0": 12.5628082596,
			"0.001": 9.57746211786,
			"0.002": 8.07038202556,
			"0.003": 7.30317609922,
			"0.004": 7.74923382096,
			"0.005": 7.12096182294,
			"0.006": 5.96243202944,
			"0.007": 5.68965838545,
			"0.008": 6.37891205878,
			"0.009": 6.29389515234,
			"0.01": 5.03036816937,
			"0.011": 4.96847569806,
			"0.012": 4.71959018005,
			"0.013": 5.82416781293,
			"0.014": 3.63474215367,
			"0.015": 0.396553682287,
			"0.016": 0.0,
			"0.017": 0.0,
			"0.018": 0.0,
			"0.019": 0.0,
			"0.02": 0.0,
			"0.021": 0.0,
			"0.022": 0.0,
			"0.023": 0.0,
			"0.024": 0.0,
			"0.025": 0.0
		}
	}
}
