{
	 "smiles": "O=N(=O)C1=CC2=C(ON=N2)C(=C1)N(=O)=O", 
	 "Tm": 431.15, 
	 "num_atms": 17, 
	 "gaussian": { 
		 "optdone": 1, 
		 "sigma_profile": "yes", 
		 "theory": "DFT", 
		 "functional": "B3LYP", 
		 "basiset": "6-31G**", 
		 "properties": { 
			 "R2extent": 3234.4455, 
			 "electric_dipole_moment_norm": 2.16434326529, 
			 "electric_quadrupole_moment_norm": 13.9615043849, 
			 "total_energy": -824.682411399, 
			 "HOMO_LUMO_gap": 0.17918, 
			 "cosmo_polarized_energy": -13.77, 
			 "cosmo_cavitation_energy": 24.76, 
			 "cosmo_dispersion_energy": -18.22, 
			 "cosmo_repulsion_energy": 1.39, 
			 "cosmo_total_nonelectrostatic_energy": 7.93, 
			 "SMD_solvation_energy": 8.04 
		},
		"coords": [
			{
				"x": -0.3458223281,
				"y": 2.2863974249,
				"z": 1.9499274756,
				"element": "O" 
			},
			{
				"x": -1.015056935,
				"y": 1.5406569958,
				"z": 1.2390285248,
				"element": "N" 
			},
			{
				"x": -2.2396248188,
				"y": 1.5432734937,
				"z": 1.1543604656,
				"element": "O" 
			},
			{
				"x": -0.2813085055,
				"y": 0.5596671089,
				"z": 0.4187073117,
				"element": "C" 
			},
			{
				"x": 1.1063015353,
				"y": 0.5348356257,
				"z": 0.4944420856,
				"element": "C" 
			},
			{
				"x": 1.7351447767,
				"y": -0.4130843042,
				"z": -0.304104976,
				"element": "C" 
			},
			{
				"x": 1.0400616122,
				"y": -1.306814095,
				"z": -1.1477090118,
				"element": "C" 
			},
			{
				"x": 1.903166991,
				"y": -2.0806126109,
				"z": -1.77494598,
				"element": "O" 
			},
			{
				"x": 3.2714288498,
				"y": -1.6134358082,
				"z": -1.263446935,
				"element": "N" 
			},
			{
				"x": 3.0852713505,
				"y": -0.6970817475,
				"z": -0.4617315263,
				"element": "N" 
			},
			{
				"x": -0.364805109,
				"y": -1.2436608277,
				"z": -1.1905185627,
				"element": "C" 
			},
			{
				"x": -1.0160349124,
				"y": -0.3059806667,
				"z": -0.4027580757,
				"element": "C" 
			},
			{
				"x": -1.1525014491,
				"y": -2.1410748128,
				"z": -2.0437136396,
				"element": "N" 
			},
			{
				"x": -0.526408975,
				"y": -2.9514439667,
				"z": -2.7186952318,
				"element": "O" 
			},
			{
				"x": -2.3738600886,
				"y": -2.0121725539,
				"z": -2.0163110256,
				"element": "O" 
			},
			{
				"x": 1.6473106281,
				"y": 1.2162258178,
				"z": 1.1383982043,
				"element": "H" 
			},
			{
				"x": -2.0967626221,
				"y": -0.2469950734,
				"z": -0.4265291033,
				"element": "H" 
			}
		],
		 "valence_orbital": [ 
			{
				"type": "occ",
				"energy": -0.33458,
				"method": "rhf"
			},
			{
				"type": "occ",
				"energy": -0.32906,
				"method": "rhf"
			},
			{
				"type": "occ",
				"energy": -0.3238,
				"method": "rhf"
			},
			{
				"type": "occ",
				"energy": -0.31919,
				"method": "rhf"
			},
			{
				"type": "occ",
				"energy": -0.31473,
				"method": "rhf"
			},
			{
				"type": "unocc",
				"energy": -0.13555,
				"method": "rhf"
			},
			{
				"type": "unocc",
				"energy": -0.11906,
				"method": "rhf"
			},
			{
				"type": "unocc",
				"energy": -0.09358,
				"method": "rhf"
			},
			{
				"type": "unocc",
				"energy": -0.02474,
				"method": "rhf"
			},
			{
				"type": "unocc",
				"energy": -0.02132,
				"method": "rhf"
			}
		],
		"cosmo_sigma_profile": { 
			"-0.025": 0.0,
			"-0.024": 0.0,
			"-0.023": 0.0,
			"-0.022": 0.0,
			"-0.021": 0.0,
			"-0.02": 0.0,
			"-0.019": 0.0,
			"-0.018": 0.0,
			"-0.017": 0.0,
			"-0.016": 0.0,
			"-0.015": 0.0,
			"-0.014": 0.0,
			"-0.013": 0.0,
			"-0.012": 0.295198569699,
			"-0.011": 1.4954094503,
			"-0.01": 1.84219525413,
			"-0.009": 4.81744111864,
			"-0.008": 7.73412766712,
			"-0.007": 14.968219935,
			"-0.006": 15.6829897466,
			"-0.005": 19.8037170499,
			"-0.004": 10.2539435001,
			"-0.003": 6.13389718547,
			"-0.002": 6.64094108437,
			"-0.001": 6.22709928755,
			"0.0": 6.4885129937,
			"0.001": 6.85069391778,
			"0.002": 8.01709338318,
			"0.003": 10.5842316923,
			"0.004": 10.909486016,
			"0.005": 11.1498297019,
			"0.006": 18.4264879694,
			"0.007": 17.8660592164,
			"0.008": 10.9491656323,
			"0.009": 4.53211674542,
			"0.01": 0.0272267066607,
			"0.011": 0.0,
			"0.012": 0.0,
			"0.013": 0.0,
			"0.014": 0.0,
			"0.015": 0.0,
			"0.016": 0.0,
			"0.017": 0.0,
			"0.018": 0.0,
			"0.019": 0.0,
			"0.02": 0.0,
			"0.021": 0.0,
			"0.022": 0.0,
			"0.023": 0.0,
			"0.024": 0.0,
			"0.025": 0.0
		}
	}
}
