{
	 "smiles": "OC(=O)C1=CC(=O)NC2=C1C=CC(F)=C2", 
	 "Tm": 597.15, 
	 "num_atms": 21, 
	 "gaussian": { 
		 "optdone": 1, 
		 "sigma_profile": "yes", 
		 "theory": "DFT", 
		 "functional": "B3LYP", 
		 "basiset": "6-31G**", 
		 "properties": { 
			 "R2extent": 3714.1827, 
			 "electric_dipole_moment_norm": 5.19682045197, 
			 "electric_quadrupole_moment_norm": 11.7000212513, 
			 "total_energy": -764.95989581, 
			 "HOMO_LUMO_gap": 0.15762, 
			 "cosmo_polarized_energy": -20.69, 
			 "cosmo_cavitation_energy": 26.76, 
			 "cosmo_dispersion_energy": -19.64, 
			 "cosmo_repulsion_energy": 1.48, 
			 "cosmo_total_nonelectrostatic_energy": 8.6, 
			 "SMD_solvation_energy": 6.74 
		},
		"coords": [
			{
				"x": 1.5092792156,
				"y": 1.5345008672,
				"z": 0.7854597982,
				"element": "O" 
			},
			{
				"x": 1.0071414816,
				"y": 0.6602873707,
				"z": 1.6983665692,
				"element": "C" 
			},
			{
				"x": 1.3014645514,
				"y": 0.7569643165,
				"z": 2.8619958483,
				"element": "O" 
			},
			{
				"x": 0.0458223977,
				"y": -0.3768379273,
				"z": 1.1649669033,
				"element": "C" 
			},
			{
				"x": -1.0731091339,
				"y": -0.596418665,
				"z": 1.9045255109,
				"element": "C" 
			},
			{
				"x": -2.1294126213,
				"y": -1.5119186252,
				"z": 1.4771665498,
				"element": "C" 
			},
			{
				"x": -3.1656642999,
				"y": -1.7356412703,
				"z": 2.087887527,
				"element": "O" 
			},
			{
				"x": -1.8722236523,
				"y": -2.1363157809,
				"z": 0.2510648055,
				"element": "N" 
			},
			{
				"x": -0.7332363631,
				"y": -1.9964151274,
				"z": -0.5108210516,
				"element": "C" 
			},
			{
				"x": 0.2831889951,
				"y": -1.1012608314,
				"z": -0.0750748892,
				"element": "C" 
			},
			{
				"x": 1.4671637666,
				"y": -1.0190505793,
				"z": -0.8415001873,
				"element": "C" 
			},
			{
				"x": 1.6318154713,
				"y": -1.7512084022,
				"z": -2.0067575918,
				"element": "C" 
			},
			{
				"x": 0.5943060496,
				"y": -2.5933957472,
				"z": -2.4149923407,
				"element": "C" 
			},
			{
				"x": 0.7441204789,
				"y": -3.3015704296,
				"z": -3.5465300895,
				"element": "F" 
			},
			{
				"x": -0.5767067629,
				"y": -2.7355737908,
				"z": -1.6941419308,
				"element": "C" 
			},
			{
				"x": 1.0928551833,
				"y": 1.3949675966,
				"z": -0.0780617483,
				"element": "H" 
			},
			{
				"x": -1.2320061223,
				"y": -0.0757346213,
				"z": 2.841044823,
				"element": "H" 
			},
			{
				"x": -2.5999100267,
				"y": -2.77212156,
				"z": -0.0528990253,
				"element": "H" 
			},
			{
				"x": 2.2791357815,
				"y": -0.3841186035,
				"z": -0.5044887764,
				"element": "H" 
			},
			{
				"x": 2.5398892835,
				"y": -1.6925389001,
				"z": -2.5950320549,
				"element": "H" 
			},
			{
				"x": -1.3467136735,
				"y": -3.4164992895,
				"z": -2.0405786495,
				"element": "H" 
			}
		],
		 "valence_orbital": [ 
			{
				"type": "occ",
				"energy": -0.32324,
				"method": "rhf"
			},
			{
				"type": "occ",
				"energy": -0.29176,
				"method": "rhf"
			},
			{
				"type": "occ",
				"energy": -0.27125,
				"method": "rhf"
			},
			{
				"type": "occ",
				"energy": -0.26801,
				"method": "rhf"
			},
			{
				"type": "occ",
				"energy": -0.24266,
				"method": "rhf"
			},
			{
				"type": "unocc",
				"energy": -0.08504,
				"method": "rhf"
			},
			{
				"type": "unocc",
				"energy": -0.03821,
				"method": "rhf"
			},
			{
				"type": "unocc",
				"energy": -0.02809,
				"method": "rhf"
			},
			{
				"type": "unocc",
				"energy": 0.02276,
				"method": "rhf"
			},
			{
				"type": "unocc",
				"energy": 0.06076,
				"method": "rhf"
			}
		],
		"cosmo_sigma_profile": { 
			"-0.025": 0.0,
			"-0.024": 0.0,
			"-0.023": 0.0,
			"-0.022": 0.0,
			"-0.021": 0.0,
			"-0.02": 0.0,
			"-0.019": 0.0799178446943,
			"-0.018": 0.825585443978,
			"-0.017": 1.09244423273,
			"-0.016": 1.57333423481,
			"-0.015": 2.40013400882,
			"-0.014": 2.68542958029,
			"-0.013": 2.01715718894,
			"-0.012": 1.66001720241,
			"-0.011": 2.2814063223,
			"-0.01": 1.97259337768,
			"-0.009": 3.26563713733,
			"-0.008": 6.43468588563,
			"-0.007": 8.94150651772,
			"-0.006": 7.86388030984,
			"-0.005": 8.75684453916,
			"-0.004": 9.10110225269,
			"-0.003": 10.0574823974,
			"-0.002": 12.0103343237,
			"-0.001": 18.8015159226,
			"0.0": 21.2876201888,
			"0.001": 15.1108493331,
			"0.002": 10.3991904107,
			"0.003": 9.93002472687,
			"0.004": 9.82087361482,
			"0.005": 3.94418225806,
			"0.006": 3.0575596405,
			"0.007": 3.84343993149,
			"0.008": 4.03228318914,
			"0.009": 6.48119382624,
			"0.01": 6.1472768817,
			"0.011": 6.84991864813,
			"0.012": 3.97986941894,
			"0.013": 6.24748682648,
			"0.014": 2.56946870799,
			"0.015": 0.121557937394,
			"0.016": 0.0,
			"0.017": 0.0,
			"0.018": 0.0,
			"0.019": 0.0,
			"0.02": 0.0,
			"0.021": 0.0,
			"0.022": 0.0,
			"0.023": 0.0,
			"0.024": 0.0,
			"0.025": 0.0
		}
	}
}
