{
	 "smiles": "COC1=CC(=CC(OC)=C1)C1=NOC(N)=C1", 
	 "Tm": 390.15, 
	 "num_atms": 28, 
	 "gaussian": { 
		 "optdone": 1, 
		 "sigma_profile": "yes", 
		 "theory": "DFT", 
		 "functional": "B3LYP", 
		 "basiset": "6-31G**", 
		 "properties": { 
			 "R2extent": 5193.1712, 
			 "electric_dipole_moment_norm": 4.43831773198, 
			 "electric_quadrupole_moment_norm": 24.32360389, 
			 "total_energy": -761.505430779, 
			 "HOMO_LUMO_gap": 0.18469, 
			 "cosmo_polarized_energy": -18.84, 
			 "cosmo_cavitation_energy": 32.65, 
			 "cosmo_dispersion_energy": -24.03, 
			 "cosmo_repulsion_energy": 1.88, 
			 "cosmo_total_nonelectrostatic_energy": 10.5, 
			 "SMD_solvation_energy": 7.18 
		},
		"coords": [
			{
				"x": -1.9873583451,
				"y": 1.3592445819,
				"z": -3.3001467636,
				"element": "C" 
			},
			{
				"x": -2.390349575,
				"y": 0.2887308078,
				"z": -2.463070689,
				"element": "O" 
			},
			{
				"x": -1.4639468154,
				"y": -0.2565093856,
				"z": -1.6185421256,
				"element": "C" 
			},
			{
				"x": -0.1401599457,
				"y": 0.1702330583,
				"z": -1.5189543317,
				"element": "C" 
			},
			{
				"x": 0.7214762408,
				"y": -0.4702537718,
				"z": -0.6073741703,
				"element": "C" 
			},
			{
				"x": 0.2570953212,
				"y": -1.5171659675,
				"z": 0.1861703245,
				"element": "C" 
			},
			{
				"x": -1.0778902149,
				"y": -1.9333266671,
				"z": 0.076544382,
				"element": "C" 
			},
			{
				"x": -1.4392344539,
				"y": -2.9651280969,
				"z": 0.8924852285,
				"element": "O" 
			},
			{
				"x": -2.775389372,
				"y": -3.4358151715,
				"z": 0.8295815884,
				"element": "C" 
			},
			{
				"x": -1.9418349648,
				"y": -1.3105021403,
				"z": -0.8238552415,
				"element": "C" 
			},
			{
				"x": 2.1251478409,
				"y": -0.0260818753,
				"z": -0.4927740683,
				"element": "C" 
			},
			{
				"x": 2.8450304862,
				"y": -0.3778853884,
				"z": 0.5569307576,
				"element": "N" 
			},
			{
				"x": 4.1188060297,
				"y": 0.1975187087,
				"z": 0.3391349407,
				"element": "O" 
			},
			{
				"x": 4.1036154154,
				"y": 0.8665927419,
				"z": -0.8262889579,
				"element": "C" 
			},
			{
				"x": 5.2950249776,
				"y": 1.434907144,
				"z": -1.2112636269,
				"element": "N" 
			},
			{
				"x": 2.8690905796,
				"y": 0.774796222,
				"z": -1.4108210254,
				"element": "C" 
			},
			{
				"x": -2.867069161,
				"y": 1.6328465958,
				"z": -3.8851000812,
				"element": "H" 
			},
			{
				"x": -1.1804391125,
				"y": 1.060010154,
				"z": -3.981874352,
				"element": "H" 
			},
			{
				"x": -1.6581430921,
				"y": 2.2291910914,
				"z": -2.7169343881,
				"element": "H" 
			},
			{
				"x": 0.2257725759,
				"y": 0.9950867024,
				"z": -2.1155351267,
				"element": "H" 
			},
			{
				"x": 0.915824855,
				"y": -2.0171952404,
				"z": 0.885321512,
				"element": "H" 
			},
			{
				"x": -2.8431103335,
				"y": -4.2482410029,
				"z": 1.5548357519,
				"element": "H" 
			},
			{
				"x": -3.4949201275,
				"y": -2.6514872877,
				"z": 1.0981942698,
				"element": "H" 
			},
			{
				"x": -3.023342599,
				"y": -3.8211418564,
				"z": -0.168018291,
				"element": "H" 
			},
			{
				"x": -2.9765897275,
				"y": -1.6054536925,
				"z": -0.9404484851,
				"element": "H" 
			},
			{
				"x": 5.2113923927,
				"y": 2.228400203,
				"z": -1.8300298182,
				"element": "H" 
			},
			{
				"x": 5.9472289219,
				"y": 1.5856370535,
				"z": -0.4530376307,
				"element": "H" 
			},
			{
				"x": 2.5575722031,
				"y": 1.1759924796,
				"z": -2.3615295821,
				"element": "H" 
			}
		],
		 "valence_orbital": [ 
			{
				"type": "occ",
				"energy": -0.29032,
				"method": "rhf"
			},
			{
				"type": "occ",
				"energy": -0.27134,
				"method": "rhf"
			},
			{
				"type": "occ",
				"energy": -0.22366,
				"method": "rhf"
			},
			{
				"type": "occ",
				"energy": -0.21578,
				"method": "rhf"
			},
			{
				"type": "occ",
				"energy": -0.20685,
				"method": "rhf"
			},
			{
				"type": "unocc",
				"energy": -0.02216,
				"method": "rhf"
			},
			{
				"type": "unocc",
				"energy": 0.02198,
				"method": "rhf"
			},
			{
				"type": "unocc",
				"energy": 0.037,
				"method": "rhf"
			},
			{
				"type": "unocc",
				"energy": 0.06521,
				"method": "rhf"
			},
			{
				"type": "unocc",
				"energy": 0.09091,
				"method": "rhf"
			}
		],
		"cosmo_sigma_profile": { 
			"-0.025": 0.0,
			"-0.024": 0.0,
			"-0.023": 0.0,
			"-0.022": 0.0,
			"-0.021": 0.0,
			"-0.02": 0.0,
			"-0.019": 0.0,
			"-0.018": 0.0,
			"-0.017": 0.0,
			"-0.016": 0.0,
			"-0.015": 0.570274740463,
			"-0.014": 2.86381911002,
			"-0.013": 3.43467070794,
			"-0.012": 1.66630454585,
			"-0.011": 2.86273386893,
			"-0.01": 2.15469848393,
			"-0.009": 2.00577237093,
			"-0.008": 3.60576799239,
			"-0.007": 6.59472857405,
			"-0.006": 13.1310158512,
			"-0.005": 21.8778824828,
			"-0.004": 20.9818063686,
			"-0.003": 21.6927971867,
			"-0.002": 11.8280476968,
			"-0.001": 10.3483091751,
			"0.0": 9.1253343179,
			"0.001": 10.6656514712,
			"0.002": 14.2531095977,
			"0.003": 20.9419377051,
			"0.004": 25.5595021624,
			"0.005": 12.860330872,
			"0.006": 6.79546366531,
			"0.007": 5.25413437468,
			"0.008": 8.82598983237,
			"0.009": 7.1260409912,
			"0.01": 5.12549459179,
			"0.011": 3.07714296774,
			"0.012": 1.95343563804,
			"0.013": 1.0776976054,
			"0.014": 1.36668901485,
			"0.015": 0.188416730668,
			"0.016": 0.0,
			"0.017": 0.0,
			"0.018": 0.0,
			"0.019": 0.0,
			"0.02": 0.0,
			"0.021": 0.0,
			"0.022": 0.0,
			"0.023": 0.0,
			"0.024": 0.0,
			"0.025": 0.0
		}
	}
}
