{
	 "smiles": "COC1=NC=CC(=C1)C(N)=S", 
	 "Tm": 391.15, 
	 "num_atms": 19, 
	 "gaussian": { 
		 "optdone": 1, 
		 "sigma_profile": "yes", 
		 "theory": "DFT", 
		 "functional": "B3LYP", 
		 "basiset": "6-31G**", 
		 "properties": { 
			 "R2extent": 2896.594, 
			 "electric_dipole_moment_norm": 4.01523122373, 
			 "electric_quadrupole_moment_norm": 15.3239323909, 
			 "total_energy": -854.48035409, 
			 "HOMO_LUMO_gap": 0.14409, 
			 "cosmo_polarized_energy": -15.41, 
			 "cosmo_cavitation_energy": 25.11, 
			 "cosmo_dispersion_energy": -19.1, 
			 "cosmo_repulsion_energy": 1.5, 
			 "cosmo_total_nonelectrostatic_energy": 7.52, 
			 "SMD_solvation_energy": 3.48 
		},
		"coords": [
			{
				"x": 0.605595465,
				"y": -1.0687809064,
				"z": -2.9079271276,
				"element": "C" 
			},
			{
				"x": -0.1619163518,
				"y": -1.3061631593,
				"z": -1.7232667528,
				"element": "O" 
			},
			{
				"x": 0.2703551223,
				"y": -0.7232339206,
				"z": -0.5843056504,
				"element": "C" 
			},
			{
				"x": 1.3708198137,
				"y": 0.018667368,
				"z": -0.599579176,
				"element": "N" 
			},
			{
				"x": 1.7443495086,
				"y": 0.5860141828,
				"z": 0.5620532823,
				"element": "C" 
			},
			{
				"x": 1.0543611465,
				"y": 0.4410120511,
				"z": 1.7552180179,
				"element": "C" 
			},
			{
				"x": -0.1027240153,
				"y": -0.3599926721,
				"z": 1.7634573982,
				"element": "C" 
			},
			{
				"x": -0.5042496717,
				"y": -0.9538838468,
				"z": 0.568248175,
				"element": "C" 
			},
			{
				"x": -0.8817034023,
				"y": -0.5628035971,
				"z": 3.0227407307,
				"element": "C" 
			},
			{
				"x": -1.4783959436,
				"y": -1.7695661783,
				"z": 3.1301240917,
				"element": "N" 
			},
			{
				"x": -1.0372289462,
				"y": 0.6121603693,
				"z": 4.1923223781,
				"element": "S" 
			},
			{
				"x": 0.6447292654,
				"y": -0.0017381853,
				"z": -3.1443492312,
				"element": "H" 
			},
			{
				"x": 0.0902102112,
				"y": -1.6148566271,
				"z": -3.6990339773,
				"element": "H" 
			},
			{
				"x": 1.6292507429,
				"y": -1.4369313115,
				"z": -2.79503934,
				"element": "H" 
			},
			{
				"x": 2.6486235938,
				"y": 1.1895396758,
				"z": 0.5222954153,
				"element": "H" 
			},
			{
				"x": 1.3855185993,
				"y": 0.9275319644,
				"z": 2.6641669275,
				"element": "H" 
			},
			{
				"x": -1.4101659542,
				"y": -1.5432757304,
				"z": 0.4833325862,
				"element": "H" 
			},
			{
				"x": -2.0100005101,
				"y": -1.9702155138,
				"z": 3.9646873038,
				"element": "H" 
			},
			{
				"x": -1.2488286737,
				"y": -2.5276839625,
				"z": 2.5044549489,
				"element": "H" 
			}
		],
		 "valence_orbital": [ 
			{
				"type": "occ",
				"energy": -0.29504,
				"method": "rhf"
			},
			{
				"type": "occ",
				"energy": -0.27459,
				"method": "rhf"
			},
			{
				"type": "occ",
				"energy": -0.24118,
				"method": "rhf"
			},
			{
				"type": "occ",
				"energy": -0.23746,
				"method": "rhf"
			},
			{
				"type": "occ",
				"energy": -0.21463,
				"method": "rhf"
			},
			{
				"type": "unocc",
				"energy": -0.07054,
				"method": "rhf"
			},
			{
				"type": "unocc",
				"energy": -0.0116,
				"method": "rhf"
			},
			{
				"type": "unocc",
				"energy": 0.01216,
				"method": "rhf"
			},
			{
				"type": "unocc",
				"energy": 0.06906,
				"method": "rhf"
			},
			{
				"type": "unocc",
				"energy": 0.08731,
				"method": "rhf"
			}
		],
		"cosmo_sigma_profile": { 
			"-0.025": 0.0,
			"-0.024": 0.0,
			"-0.023": 0.0,
			"-0.022": 0.0,
			"-0.021": 0.0,
			"-0.02": 0.0,
			"-0.019": 0.0,
			"-0.018": 0.0,
			"-0.017": 0.0,
			"-0.016": 0.677658287473,
			"-0.015": 2.2950602347,
			"-0.014": 2.69019978223,
			"-0.013": 2.71061546676,
			"-0.012": 2.42010182364,
			"-0.011": 2.13808726488,
			"-0.01": 2.12017741241,
			"-0.009": 2.44337554378,
			"-0.008": 2.25526632172,
			"-0.007": 3.97352112356,
			"-0.006": 8.18147514802,
			"-0.005": 11.2142408282,
			"-0.004": 12.047941637,
			"-0.003": 13.787115145,
			"-0.002": 11.4045630861,
			"-0.001": 12.8151583812,
			"0.0": 15.6955173377,
			"0.001": 13.7326701094,
			"0.002": 13.8358744109,
			"0.003": 8.90937579332,
			"0.004": 8.70408917074,
			"0.005": 6.51495466443,
			"0.006": 7.28425935821,
			"0.007": 7.99706637097,
			"0.008": 9.81731749873,
			"0.009": 7.34746419867,
			"0.01": 4.82410817633,
			"0.011": 3.89762861041,
			"0.012": 1.0590774712,
			"0.013": 0.330277383469,
			"0.014": 0.0,
			"0.015": 0.0,
			"0.016": 0.0,
			"0.017": 0.0,
			"0.018": 0.0,
			"0.019": 0.0,
			"0.02": 0.0,
			"0.021": 0.0,
			"0.022": 0.0,
			"0.023": 0.0,
			"0.024": 0.0,
			"0.025": 0.0
		}
	}
}
