{
	 "smiles": "OC(=O)C1=C(C(O)=O)C(=NC=C1)C(O)=O", 
	 "Tm": 523.15, 
	 "num_atms": 20, 
	 "gaussian": { 
		 "optdone": 1, 
		 "sigma_profile": "yes", 
		 "theory": "DFT", 
		 "functional": "B3LYP", 
		 "basiset": "6-31G**", 
		 "properties": { 
			 "R2extent": 3499.9915, 
			 "electric_dipole_moment_norm": 1.83241075635, 
			 "electric_quadrupole_moment_norm": 10.899392784, 
			 "total_energy": -813.979951167, 
			 "HOMO_LUMO_gap": 0.18208, 
			 "cosmo_polarized_energy": -22.06, 
			 "cosmo_cavitation_energy": 26.76, 
			 "cosmo_dispersion_energy": -19.22, 
			 "cosmo_repulsion_energy": 1.51, 
			 "cosmo_total_nonelectrostatic_energy": 9.05, 
			 "SMD_solvation_energy": 7.01 
		},
		"coords": [
			{
				"x": 0.4737994221,
				"y": -0.9377674745,
				"z": -3.0601881566,
				"element": "O" 
			},
			{
				"x": 1.1605600891,
				"y": -0.8059778729,
				"z": -1.9111156934,
				"element": "C" 
			},
			{
				"x": 2.3721462403,
				"y": -0.8263208116,
				"z": -1.8586363662,
				"element": "O" 
			},
			{
				"x": 0.2868317904,
				"y": -0.6643621469,
				"z": -0.6983075408,
				"element": "C" 
			},
			{
				"x": -1.0886474625,
				"y": -0.3687944695,
				"z": -0.7174352505,
				"element": "C" 
			},
			{
				"x": -1.8178395565,
				"y": -0.0554325422,
				"z": -2.0059082573,
				"element": "C" 
			},
			{
				"x": -2.4787315353,
				"y": -1.1251795677,
				"z": -2.4794435745,
				"element": "O" 
			},
			{
				"x": -1.7659513786,
				"y": 1.021888625,
				"z": -2.5477976393,
				"element": "O" 
			},
			{
				"x": -1.7417879123,
				"y": -0.2833819352,
				"z": 0.5305287292,
				"element": "C" 
			},
			{
				"x": -1.1305135228,
				"y": -0.4736795812,
				"z": 1.7047701728,
				"element": "N" 
			},
			{
				"x": 0.1741977103,
				"y": -0.745687777,
				"z": 1.7022177939,
				"element": "C" 
			},
			{
				"x": 0.9220852266,
				"y": -0.8443444708,
				"z": 0.5323662281,
				"element": "C" 
			},
			{
				"x": -3.2062439914,
				"y": 0.055726539,
				"z": 0.5819334876,
				"element": "C" 
			},
			{
				"x": -3.7148765104,
				"y": 0.022152867,
				"z": 1.8243422969,
				"element": "O" 
			},
			{
				"x": -3.8676435874,
				"y": 0.3360253792,
				"z": -0.3979868519,
				"element": "O" 
			},
			{
				"x": 1.1316813369,
				"y": -0.9966096924,
				"z": -3.7731159125,
				"element": "H" 
			},
			{
				"x": -2.9485567404,
				"y": -0.8249642804,
				"z": -3.2760751478,
				"element": "H" 
			},
			{
				"x": 0.6407315832,
				"y": -0.890330805,
				"z": 2.6738794613,
				"element": "H" 
			},
			{
				"x": 1.9842476461,
				"y": -1.0594658496,
				"z": 0.5510394856,
				"element": "H" 
			},
			{
				"x": -4.6516888476,
				"y": 0.2632058667,
				"z": 1.7292327352,
				"element": "H" 
			}
		],
		 "valence_orbital": [ 
			{
				"type": "occ",
				"energy": -0.30513,
				"method": "rhf"
			},
			{
				"type": "occ",
				"energy": -0.30005,
				"method": "rhf"
			},
			{
				"type": "occ",
				"energy": -0.29586,
				"method": "rhf"
			},
			{
				"type": "occ",
				"energy": -0.28018,
				"method": "rhf"
			},
			{
				"type": "occ",
				"energy": -0.2696,
				"method": "rhf"
			},
			{
				"type": "unocc",
				"energy": -0.08752,
				"method": "rhf"
			},
			{
				"type": "unocc",
				"energy": -0.06668,
				"method": "rhf"
			},
			{
				"type": "unocc",
				"energy": 0.00615,
				"method": "rhf"
			},
			{
				"type": "unocc",
				"energy": 0.01004,
				"method": "rhf"
			},
			{
				"type": "unocc",
				"energy": 0.05578,
				"method": "rhf"
			}
		],
		"cosmo_sigma_profile": { 
			"-0.025": 0.0,
			"-0.024": 0.0,
			"-0.023": 0.0,
			"-0.022": 0.0,
			"-0.021": 0.0,
			"-0.02": 0.321651244379,
			"-0.019": 2.47233494733,
			"-0.018": 2.49126678839,
			"-0.017": 2.70947720585,
			"-0.016": 2.38809901702,
			"-0.015": 1.78030980184,
			"-0.014": 1.86439361079,
			"-0.013": 2.23323547595,
			"-0.012": 1.94728464816,
			"-0.011": 2.04028854343,
			"-0.01": 1.4166207382,
			"-0.009": 3.16820096267,
			"-0.008": 7.66351369281,
			"-0.007": 6.59320124729,
			"-0.006": 5.69635511926,
			"-0.005": 9.02987951859,
			"-0.004": 12.4179359618,
			"-0.003": 14.0467256393,
			"-0.002": 15.4180952004,
			"-0.001": 12.1605363636,
			"0.0": 8.45629429407,
			"0.001": 7.83343255493,
			"0.002": 6.33942793545,
			"0.003": 7.34063647828,
			"0.004": 6.47598647794,
			"0.005": 7.40843258044,
			"0.006": 8.19981849785,
			"0.007": 6.96224074915,
			"0.008": 8.94042914509,
			"0.009": 10.1512842534,
			"0.01": 11.4482424618,
			"0.011": 11.5095866501,
			"0.012": 2.49152285797,
			"0.013": 1.05825675692,
			"0.014": 0.791094055441,
			"0.015": 1.05677525215,
			"0.016": 0.0494548589449,
			"0.017": 0.0,
			"0.018": 0.0,
			"0.019": 0.0,
			"0.02": 0.0,
			"0.021": 0.0,
			"0.022": 0.0,
			"0.023": 0.0,
			"0.024": 0.0,
			"0.025": 0.0
		}
	}
}
