{
	 "smiles": "NC(=S)CC1=CC=C(F)C=C1", 
	 "Tm": 383.15, 
	 "num_atms": 19, 
	 "gaussian": { 
		 "optdone": 1, 
		 "sigma_profile": "yes", 
		 "theory": "DFT", 
		 "functional": "B3LYP", 
		 "basiset": "6-31G**", 
		 "properties": { 
			 "R2extent": 2927.1536, 
			 "electric_dipole_moment_norm": 3.854834274, 
			 "electric_quadrupole_moment_norm": 21.7357476338, 
			 "total_energy": -862.456945668, 
			 "HOMO_LUMO_gap": 0.17251, 
			 "cosmo_polarized_energy": -14.94, 
			 "cosmo_cavitation_energy": 25.41, 
			 "cosmo_dispersion_energy": -18.56, 
			 "cosmo_repulsion_energy": 1.44, 
			 "cosmo_total_nonelectrostatic_energy": 8.29, 
			 "SMD_solvation_energy": 3.76 
		},
		"coords": [
			{
				"x": 2.2480343493,
				"y": -0.7187415633,
				"z": -0.4337057069,
				"element": "N" 
			},
			{
				"x": 1.5862731625,
				"y": -1.886309548,
				"z": -0.3896451115,
				"element": "C" 
			},
			{
				"x": 2.3539198655,
				"y": -3.3625957591,
				"z": -0.4229716213,
				"element": "S" 
			},
			{
				"x": 0.0630152256,
				"y": -1.7761267388,
				"z": -0.2511040562,
				"element": "C" 
			},
			{
				"x": -0.558220693,
				"y": -0.4539914976,
				"z": -0.6517019966,
				"element": "C" 
			},
			{
				"x": -0.8262812847,
				"y": 0.5398981536,
				"z": 0.3016691913,
				"element": "C" 
			},
			{
				"x": -1.3857236906,
				"y": 1.76550343,
				"z": -0.0653267369,
				"element": "C" 
			},
			{
				"x": -1.6772097445,
				"y": 1.9885960519,
				"z": -1.4054606764,
				"element": "C" 
			},
			{
				"x": -2.220628326,
				"y": 3.1668074109,
				"z": -1.7709230779,
				"element": "F" 
			},
			{
				"x": -1.4263973665,
				"y": 1.028933299,
				"z": -2.3813590526,
				"element": "C" 
			},
			{
				"x": -0.8661645791,
				"y": -0.1873673403,
				"z": -1.9955818286,
				"element": "C" 
			},
			{
				"x": 3.2547635839,
				"y": -0.7310642175,
				"z": -0.5074654315,
				"element": "H" 
			},
			{
				"x": 1.7564750256,
				"y": 0.1640810644,
				"z": -0.4566961832,
				"element": "H" 
			},
			{
				"x": -0.3653854241,
				"y": -2.5993823186,
				"z": -0.8269107529,
				"element": "H" 
			},
			{
				"x": -0.1637154129,
				"y": -1.9945632097,
				"z": 0.799347249,
				"element": "H" 
			},
			{
				"x": -0.6065924838,
				"y": 0.3503464664,
				"z": 1.349358455,
				"element": "H" 
			},
			{
				"x": -1.6032247923,
				"y": 2.5352613321,
				"z": 0.667151841,
				"element": "H" 
			},
			{
				"x": -1.6729308907,
				"y": 1.240252802,
				"z": -3.4162496238,
				"element": "H" 
			},
			{
				"x": -0.6688065243,
				"y": -0.9449378173,
				"z": -2.74932488,
				"element": "H" 
			}
		],
		 "valence_orbital": [ 
			{
				"type": "occ",
				"energy": -0.35191,
				"method": "rhf"
			},
			{
				"type": "occ",
				"energy": -0.27686,
				"method": "rhf"
			},
			{
				"type": "occ",
				"energy": -0.25828,
				"method": "rhf"
			},
			{
				"type": "occ",
				"energy": -0.22907,
				"method": "rhf"
			},
			{
				"type": "occ",
				"energy": -0.20534,
				"method": "rhf"
			},
			{
				"type": "unocc",
				"energy": -0.03283,
				"method": "rhf"
			},
			{
				"type": "unocc",
				"energy": -0.0244,
				"method": "rhf"
			},
			{
				"type": "unocc",
				"energy": -0.01856,
				"method": "rhf"
			},
			{
				"type": "unocc",
				"energy": 0.06898,
				"method": "rhf"
			},
			{
				"type": "unocc",
				"energy": 0.08076,
				"method": "rhf"
			}
		],
		"cosmo_sigma_profile": { 
			"-0.025": 0.0,
			"-0.024": 0.0,
			"-0.023": 0.0,
			"-0.022": 0.0,
			"-0.021": 0.0,
			"-0.02": 0.0,
			"-0.019": 0.0,
			"-0.018": 0.0,
			"-0.017": 0.0,
			"-0.016": 0.075547176815,
			"-0.015": 0.852392931066,
			"-0.014": 2.03882682102,
			"-0.013": 1.54549399725,
			"-0.012": 2.39433862476,
			"-0.011": 1.48155363512,
			"-0.01": 1.46467930833,
			"-0.009": 1.80258780023,
			"-0.008": 1.9950236931,
			"-0.007": 10.232653649,
			"-0.006": 14.4578586651,
			"-0.005": 14.102577331,
			"-0.004": 11.9824419875,
			"-0.003": 9.46940840292,
			"-0.002": 11.0257400139,
			"-0.001": 9.59018839497,
			"0.0": 12.6643035966,
			"0.001": 14.7084850741,
			"0.002": 14.1522048056,
			"0.003": 12.9370427846,
			"0.004": 16.3564381286,
			"0.005": 6.75516889325,
			"0.006": 2.87429249001,
			"0.007": 4.58291728668,
			"0.008": 4.87420426854,
			"0.009": 6.21847368971,
			"0.01": 5.80145743497,
			"0.011": 4.50952638047,
			"0.012": 3.17869614702,
			"0.013": 1.31391578344,
			"0.014": 0.0211088442702,
			"0.015": 0.0,
			"0.016": 0.0,
			"0.017": 0.0,
			"0.018": 0.0,
			"0.019": 0.0,
			"0.02": 0.0,
			"0.021": 0.0,
			"0.022": 0.0,
			"0.023": 0.0,
			"0.024": 0.0,
			"0.025": 0.0
		}
	}
}
