{
	 "smiles": "CN1N=C(C)C2=C1SC(CO)=C2", 
	 "Tm": 407.15, 
	 "num_atms": 22, 
	 "gaussian": { 
		 "optdone": 1, 
		 "sigma_profile": "yes", 
		 "theory": "DFT", 
		 "functional": "B3LYP", 
		 "basiset": "6-31G**", 
		 "properties": { 
			 "R2extent": 2917.7529, 
			 "electric_dipole_moment_norm": 1.57356202928, 
			 "electric_quadrupole_moment_norm": 9.24242892047, 
			 "total_energy": -893.749315272, 
			 "HOMO_LUMO_gap": 0.20659, 
			 "cosmo_polarized_energy": -10.82, 
			 "cosmo_cavitation_energy": 27.42, 
			 "cosmo_dispersion_energy": -20.48, 
			 "cosmo_repulsion_energy": 1.61, 
			 "cosmo_total_nonelectrostatic_energy": 8.56, 
			 "SMD_solvation_energy": 3.48 
		},
		"coords": [
			{
				"x": 2.7365833619,
				"y": 2.7363366486,
				"z": 1.5244645673,
				"element": "C" 
			},
			{
				"x": 2.0666754502,
				"y": 1.7797580822,
				"z": 0.6702862592,
				"element": "N" 
			},
			{
				"x": 2.7364441067,
				"y": 1.1941080297,
				"z": -0.3716836444,
				"element": "N" 
			},
			{
				"x": 1.8547236994,
				"y": 0.4285452218,
				"z": -1.015384212,
				"element": "C" 
			},
			{
				"x": 2.2763141214,
				"y": -0.3737954001,
				"z": -2.2071933163,
				"element": "C" 
			},
			{
				"x": 0.574105795,
				"y": 0.5137121647,
				"z": -0.3952044108,
				"element": "C" 
			},
			{
				"x": 0.7698193494,
				"y": 1.3940255028,
				"z": 0.6664264236,
				"element": "C" 
			},
			{
				"x": -0.6685344782,
				"y": 1.6840590012,
				"z": 1.6038909555,
				"element": "S" 
			},
			{
				"x": -1.5620051718,
				"y": 0.5631114267,
				"z": 0.535094214,
				"element": "C" 
			},
			{
				"x": -3.020980985,
				"y": 0.2875572364,
				"z": 0.7974399388,
				"element": "C" 
			},
			{
				"x": -3.7000874487,
				"y": -0.1461040485,
				"z": -0.3692827124,
				"element": "O" 
			},
			{
				"x": -0.7804050073,
				"y": 0.0410501325,
				"z": -0.453255812,
				"element": "C" 
			},
			{
				"x": 2.4537775371,
				"y": 3.7657118317,
				"z": 1.2748769494,
				"element": "H" 
			},
			{
				"x": 3.8088944405,
				"y": 2.6125321701,
				"z": 1.3753364624,
				"element": "H" 
			},
			{
				"x": 2.4907169615,
				"y": 2.5426954287,
				"z": 2.5731206027,
				"element": "H" 
			},
			{
				"x": 3.3338513511,
				"y": -0.198056598,
				"z": -2.4156226302,
				"element": "H" 
			},
			{
				"x": 1.6977889224,
				"y": -0.1018990335,
				"z": -3.0975299046,
				"element": "H" 
			},
			{
				"x": 2.1304478809,
				"y": -1.4470289983,
				"z": -2.0391564788,
				"element": "H" 
			},
			{
				"x": -3.4980326329,
				"y": 1.1762947266,
				"z": 1.2428040788,
				"element": "H" 
			},
			{
				"x": -3.1383928171,
				"y": -0.5276851453,
				"z": 1.5218536594,
				"element": "H" 
			},
			{
				"x": -3.5789820652,
				"y": 0.5389689842,
				"z": -1.0410448311,
				"element": "H" 
			},
			{
				"x": -1.1739223713,
				"y": -0.6577973641,
				"z": -1.1818361585,
				"element": "H" 
			}
		],
		 "valence_orbital": [ 
			{
				"type": "occ",
				"energy": -0.28831,
				"method": "rhf"
			},
			{
				"type": "occ",
				"energy": -0.27952,
				"method": "rhf"
			},
			{
				"type": "occ",
				"energy": -0.27278,
				"method": "rhf"
			},
			{
				"type": "occ",
				"energy": -0.22609,
				"method": "rhf"
			},
			{
				"type": "occ",
				"energy": -0.20849,
				"method": "rhf"
			},
			{
				"type": "unocc",
				"energy": -0.0019,
				"method": "rhf"
			},
			{
				"type": "unocc",
				"energy": 0.0124,
				"method": "rhf"
			},
			{
				"type": "unocc",
				"energy": 0.02382,
				"method": "rhf"
			},
			{
				"type": "unocc",
				"energy": 0.06504,
				"method": "rhf"
			},
			{
				"type": "unocc",
				"energy": 0.08527,
				"method": "rhf"
			}
		],
		"cosmo_sigma_profile": { 
			"-0.025": 0.0,
			"-0.024": 0.0,
			"-0.023": 0.0,
			"-0.022": 0.0,
			"-0.021": 0.0,
			"-0.02": 0.0,
			"-0.019": 0.0,
			"-0.018": 0.0,
			"-0.017": 0.0,
			"-0.016": 0.0703951744703,
			"-0.015": 1.08987038028,
			"-0.014": 0.560300068523,
			"-0.013": 0.736487018097,
			"-0.012": 0.911467662838,
			"-0.011": 1.12261558358,
			"-0.01": 1.00921481007,
			"-0.009": 0.425347172694,
			"-0.008": 0.633568970501,
			"-0.007": 2.61600302478,
			"-0.006": 12.3530009879,
			"-0.005": 17.6629132354,
			"-0.004": 21.9923006918,
			"-0.003": 20.3956054643,
			"-0.002": 18.2998067529,
			"-0.001": 14.9242709181,
			"0.0": 14.0088828053,
			"0.001": 10.7570133398,
			"0.002": 12.0756247273,
			"0.003": 14.8648905115,
			"0.004": 16.5256035905,
			"0.005": 11.020667482,
			"0.006": 3.45305209608,
			"0.007": 3.79793593858,
			"0.008": 1.94673811532,
			"0.009": 1.9972508678,
			"0.01": 3.14009028921,
			"0.011": 2.24358854776,
			"0.012": 2.22956904446,
			"0.013": 3.00969130171,
			"0.014": 2.60815186973,
			"0.015": 0.71332563292,
			"0.016": 0.278708518014,
			"0.017": 0.0,
			"0.018": 0.0,
			"0.019": 0.0,
			"0.02": 0.0,
			"0.021": 0.0,
			"0.022": 0.0,
			"0.023": 0.0,
			"0.024": 0.0,
			"0.025": 0.0
		}
	}
}
