{
	 "smiles": "ClC1=CC2=C(OC3=C2C(Cl)=C(Cl)C(Cl)=C3Cl)C=C1", 
	 "Tm": 451.15, 
	 "num_atms": 21, 
	 "gaussian": { 
		 "optdone": 1, 
		 "sigma_profile": "yes", 
		 "theory": "DFT", 
		 "functional": "B3LYP", 
		 "basiset": "6-31G**", 
		 "properties": { 
			 "R2extent": 10238.22, 
			 "electric_dipole_moment_norm": 1.82862489866, 
			 "electric_quadrupole_moment_norm": 6.46557179683, 
			 "total_energy": -2835.25928065, 
			 "HOMO_LUMO_gap": 0.17171, 
			 "cosmo_polarized_energy": -4.93, 
			 "cosmo_cavitation_energy": 34.64, 
			 "cosmo_dispersion_energy": -26.29, 
			 "cosmo_repulsion_energy": 2.0, 
			 "cosmo_total_nonelectrostatic_energy": 10.35, 
			 "SMD_solvation_energy": 4.57 
		},
		"coords": [
			{
				"x": -0.5966108559,
				"y": -1.759665226,
				"z": 3.3690461738,
				"element": "Cl" 
			},
			{
				"x": -0.4175976553,
				"y": -1.2363989023,
				"z": 1.7011954536,
				"element": "C" 
			},
			{
				"x": 0.33371959,
				"y": -0.0962939575,
				"z": 1.4305072789,
				"element": "C" 
			},
			{
				"x": 0.4565522419,
				"y": 0.2933962323,
				"z": 0.0905444986,
				"element": "C" 
			},
			{
				"x": -0.1735856234,
				"y": -0.4703126845,
				"z": -0.9093140488,
				"element": "C" 
			},
			{
				"x": 0.0488089166,
				"y": 0.0513544278,
				"z": -2.1644183572,
				"element": "O" 
			},
			{
				"x": 0.8256212422,
				"y": 1.1568611271,
				"z": -1.9783909639,
				"element": "C" 
			},
			{
				"x": 1.1194775863,
				"y": 1.3732730732,
				"z": -0.6204648531,
				"element": "C" 
			},
			{
				"x": 1.9098102469,
				"y": 2.4728068312,
				"z": -0.2698637424,
				"element": "C" 
			},
			{
				"x": 2.2842392865,
				"y": 2.7573566105,
				"z": 1.4055927303,
				"element": "Cl" 
			},
			{
				"x": 2.3867901752,
				"y": 3.3269084964,
				"z": -1.2745127569,
				"element": "C" 
			},
			{
				"x": 3.3694540847,
				"y": 4.6959772958,
				"z": -0.8507154734,
				"element": "Cl" 
			},
			{
				"x": 2.0731883313,
				"y": 3.0818685237,
				"z": -2.6344475484,
				"element": "C" 
			},
			{
				"x": 2.6686709228,
				"y": 4.1449938146,
				"z": -3.8687675253,
				"element": "Cl" 
			},
			{
				"x": 1.2812007632,
				"y": 1.9822684473,
				"z": -2.9995115047,
				"element": "C" 
			},
			{
				"x": 0.8605180503,
				"y": 1.6251425922,
				"z": -4.6419403765,
				"element": "Cl" 
			},
			{
				"x": -0.9229147234,
				"y": -1.6065269358,
				"z": -0.6447489441,
				"element": "C" 
			},
			{
				"x": -1.040214376,
				"y": -1.9875115604,
				"z": 0.6911692455,
				"element": "C" 
			},
			{
				"x": 0.801765469,
				"y": 0.46200952,
				"z": 2.2301733097,
				"element": "H" 
			},
			{
				"x": -1.394083541,
				"y": -2.1698362194,
				"z": -1.4419578758,
				"element": "H" 
			},
			{
				"x": -1.6137101319,
				"y": -2.8673715064,
				"z": 0.9589252801,
				"element": "H" 
			}
		],
		 "valence_orbital": [ 
			{
				"type": "occ",
				"energy": -0.31299,
				"method": "rhf"
			},
			{
				"type": "occ",
				"energy": -0.29831,
				"method": "rhf"
			},
			{
				"type": "occ",
				"energy": -0.27023,
				"method": "rhf"
			},
			{
				"type": "occ",
				"energy": -0.25191,
				"method": "rhf"
			},
			{
				"type": "occ",
				"energy": -0.24412,
				"method": "rhf"
			},
			{
				"type": "unocc",
				"energy": -0.07241,
				"method": "rhf"
			},
			{
				"type": "unocc",
				"energy": -0.04011,
				"method": "rhf"
			},
			{
				"type": "unocc",
				"energy": -0.03851,
				"method": "rhf"
			},
			{
				"type": "unocc",
				"energy": -0.02058,
				"method": "rhf"
			},
			{
				"type": "unocc",
				"energy": -0.00247,
				"method": "rhf"
			}
		],
		"cosmo_sigma_profile": { 
			"-0.025": 0.0,
			"-0.024": 0.0,
			"-0.023": 0.0,
			"-0.022": 0.0,
			"-0.021": 0.0,
			"-0.02": 0.0,
			"-0.019": 0.0,
			"-0.018": 0.0,
			"-0.017": 0.0,
			"-0.016": 0.0,
			"-0.015": 0.0,
			"-0.014": 0.0,
			"-0.013": 0.0,
			"-0.012": 0.0,
			"-0.011": 0.0,
			"-0.01": 0.0,
			"-0.009": 0.701300694374,
			"-0.008": 3.83624872541,
			"-0.007": 4.58344767349,
			"-0.006": 5.32813321782,
			"-0.005": 5.12624082295,
			"-0.004": 12.1796832471,
			"-0.003": 21.598980595,
			"-0.002": 38.6234367786,
			"-0.001": 32.5537698389,
			"0.0": 29.1614982876,
			"0.001": 35.7725442942,
			"0.002": 33.7015243823,
			"0.003": 38.9747168883,
			"0.004": 22.1173065828,
			"0.005": 5.83072580219,
			"0.006": 1.53543733839,
			"0.007": 0.58288804369,
			"0.008": 0.0,
			"0.009": 0.0,
			"0.01": 0.0,
			"0.011": 0.0,
			"0.012": 0.0,
			"0.013": 0.0,
			"0.014": 0.0,
			"0.015": 0.0,
			"0.016": 0.0,
			"0.017": 0.0,
			"0.018": 0.0,
			"0.019": 0.0,
			"0.02": 0.0,
			"0.021": 0.0,
			"0.022": 0.0,
			"0.023": 0.0,
			"0.024": 0.0,
			"0.025": 0.0
		}
	}
}
