{
	 "smiles": "CS(=O)(=O)C1=CC=C(OC(F)(F)F)C=C1", 
	 "Tm": 340.15, 
	 "num_atms": 22, 
	 "gaussian": { 
		 "optdone": 1, 
		 "sigma_profile": "yes", 
		 "theory": "DFT", 
		 "functional": "B3LYP", 
		 "basiset": "6-31G**", 
		 "properties": { 
			 "R2extent": 5002.516, 
			 "electric_dipole_moment_norm": 4.03264611143, 
			 "electric_quadrupole_moment_norm": 16.4654110939, 
			 "total_energy": -1232.38597385, 
			 "HOMO_LUMO_gap": 0.22495, 
			 "cosmo_polarized_energy": -14.01, 
			 "cosmo_cavitation_energy": 29.5, 
			 "cosmo_dispersion_energy": -21.56, 
			 "cosmo_repulsion_energy": 1.58, 
			 "cosmo_total_nonelectrostatic_energy": 9.52, 
			 "SMD_solvation_energy": 6.4 
		},
		"coords": [
			{
				"x": 1.121745668,
				"y": -0.5706672827,
				"z": -3.1626364901,
				"element": "C" 
			},
			{
				"x": -0.5127282429,
				"y": 0.0098316456,
				"z": -2.648171249,
				"element": "S" 
			},
			{
				"x": -1.4280528241,
				"y": -1.1398658626,
				"z": -2.7102885712,
				"element": "O" 
			},
			{
				"x": -0.7908428587,
				"y": 1.2521132743,
				"z": -3.3850123615,
				"element": "O" 
			},
			{
				"x": -0.2881674977,
				"y": 0.4394804994,
				"z": -0.9163232131,
				"element": "C" 
			},
			{
				"x": -0.5194554789,
				"y": -0.5235469751,
				"z": 0.0651393303,
				"element": "C" 
			},
			{
				"x": -0.3492510314,
				"y": -0.2028729068,
				"z": 1.4117178213,
				"element": "C" 
			},
			{
				"x": 0.050797041,
				"y": 1.0930567258,
				"z": 1.7470628604,
				"element": "C" 
			},
			{
				"x": 0.2552417802,
				"y": 1.5470241373,
				"z": 3.0446395291,
				"element": "O" 
			},
			{
				"x": 0.1404706051,
				"y": 0.7157766193,
				"z": 4.1152974043,
				"element": "C" 
			},
			{
				"x": -1.1010801636,
				"y": 0.211628358,
				"z": 4.2419203736,
				"element": "F" 
			},
			{
				"x": 0.4229560816,
				"y": 1.430436488,
				"z": 5.2000178605,
				"element": "F" 
			},
			{
				"x": 0.9922049929,
				"y": -0.3242507243,
				"z": 4.047828485,
				"element": "F" 
			},
			{
				"x": 0.2691699801,
				"y": 2.0646931573,
				"z": 0.7668816613,
				"element": "C" 
			},
			{
				"x": 0.0959262279,
				"y": 1.7382845302,
				"z": -0.5732387841,
				"element": "C" 
			},
			{
				"x": 1.030007342,
				"y": -0.8420370395,
				"z": -4.2164076709,
				"element": "H" 
			},
			{
				"x": 1.84556249,
				"y": 0.2361697081,
				"z": -3.0401914154,
				"element": "H" 
			},
			{
				"x": 1.3975418098,
				"y": -1.4429529564,
				"z": -2.5685777353,
				"element": "H" 
			},
			{
				"x": -0.8534741253,
				"y": -1.5148466215,
				"z": -0.2221706177,
				"element": "H" 
			},
			{
				"x": -0.5374611447,
				"y": -0.9492462523,
				"z": 2.1713361516,
				"element": "H" 
			},
			{
				"x": 0.562837303,
				"y": 3.0626363918,
				"z": 1.0729923862,
				"element": "H" 
			},
			{
				"x": 0.2353520458,
				"y": 2.4839550863,
				"z": -1.3485157555,
				"element": "H" 
			}
		],
		 "valence_orbital": [ 
			{
				"type": "occ",
				"energy": -0.31635,
				"method": "rhf"
			},
			{
				"type": "occ",
				"energy": -0.30019,
				"method": "rhf"
			},
			{
				"type": "occ",
				"energy": -0.29357,
				"method": "rhf"
			},
			{
				"type": "occ",
				"energy": -0.28774,
				"method": "rhf"
			},
			{
				"type": "occ",
				"energy": -0.27186,
				"method": "rhf"
			},
			{
				"type": "unocc",
				"energy": -0.04691,
				"method": "rhf"
			},
			{
				"type": "unocc",
				"energy": -0.03768,
				"method": "rhf"
			},
			{
				"type": "unocc",
				"energy": 0.05611,
				"method": "rhf"
			},
			{
				"type": "unocc",
				"energy": 0.07252,
				"method": "rhf"
			},
			{
				"type": "unocc",
				"energy": 0.08744,
				"method": "rhf"
			}
		],
		"cosmo_sigma_profile": { 
			"-0.025": 0.0,
			"-0.024": 0.0,
			"-0.023": 0.0,
			"-0.022": 0.0,
			"-0.021": 0.0,
			"-0.02": 0.0,
			"-0.019": 0.0,
			"-0.018": 0.0,
			"-0.017": 0.0,
			"-0.016": 0.0,
			"-0.015": 0.0,
			"-0.014": 0.0,
			"-0.013": 0.0,
			"-0.012": 0.0,
			"-0.011": 0.0,
			"-0.01": 0.0143134192165,
			"-0.009": 3.08426949009,
			"-0.008": 12.3129775393,
			"-0.007": 12.3643918735,
			"-0.006": 11.800862779,
			"-0.005": 10.5768635022,
			"-0.004": 14.1999046483,
			"-0.003": 10.8309658429,
			"-0.002": 13.3313105337,
			"-0.001": 17.2575764912,
			"0.0": 23.8247732443,
			"0.001": 37.5684969949,
			"0.002": 24.9785806013,
			"0.003": 4.23627886204,
			"0.004": 4.113715618,
			"0.005": 2.78113030567,
			"0.006": 2.36406756066,
			"0.007": 2.64409507373,
			"0.008": 2.57667659406,
			"0.009": 3.03283274736,
			"0.01": 5.38507280435,
			"0.011": 8.66281149454,
			"0.012": 8.1248023272,
			"0.013": 0.721434242483,
			"0.014": 0.0,
			"0.015": 0.0,
			"0.016": 0.0,
			"0.017": 0.0,
			"0.018": 0.0,
			"0.019": 0.0,
			"0.02": 0.0,
			"0.021": 0.0,
			"0.022": 0.0,
			"0.023": 0.0,
			"0.024": 0.0,
			"0.025": 0.0
		}
	}
}
