{
	 "smiles": "FC(F)(F)S(=O)(=O)N(C1=CC=CC=N1)S(=O)(=O)C(F)(F)F", 
	 "Tm": 312.15, 
	 "num_atms": 25, 
	 "gaussian": { 
		 "optdone": 1, 
		 "sigma_profile": "yes", 
		 "theory": "DFT", 
		 "functional": "B3LYP", 
		 "basiset": "6-31G**", 
		 "properties": { 
			 "R2extent": 5811.9558, 
			 "electric_dipole_moment_norm": 6.09400333032, 
			 "electric_quadrupole_moment_norm": 14.9977673732, 
			 "total_energy": -2074.76214071, 
			 "HOMO_LUMO_gap": 0.22385, 
			 "cosmo_polarized_energy": -14.65, 
			 "cosmo_cavitation_energy": 35.21, 
			 "cosmo_dispersion_energy": -24.22, 
			 "cosmo_repulsion_energy": 1.65, 
			 "cosmo_total_nonelectrostatic_energy": 12.64, 
			 "SMD_solvation_energy": 5.31 
		},
		"coords": [
			{
				"x": -1.5207772508,
				"y": 3.5319951821,
				"z": 0.0787178255,
				"element": "F" 
			},
			{
				"x": -0.9580256555,
				"y": 2.3584772758,
				"z": -0.1911733875,
				"element": "C" 
			},
			{
				"x": -1.8751079771,
				"y": 1.5214827281,
				"z": -0.6809320004,
				"element": "F" 
			},
			{
				"x": 0.0148874742,
				"y": 2.5198102166,
				"z": -1.0878296021,
				"element": "F" 
			},
			{
				"x": -0.2583242302,
				"y": 1.6770405145,
				"z": 1.4143795556,
				"element": "S" 
			},
			{
				"x": -1.4074395655,
				"y": 1.2679159083,
				"z": 2.2022351295,
				"element": "O" 
			},
			{
				"x": 0.7387867258,
				"y": 2.6320327409,
				"z": 1.8614204365,
				"element": "O" 
			},
			{
				"x": 0.5492721936,
				"y": 0.2747383384,
				"z": 0.8086929589,
				"element": "N" 
			},
			{
				"x": -0.2223128515,
				"y": -0.9533243499,
				"z": 0.7088561667,
				"element": "C" 
			},
			{
				"x": -0.6999979388,
				"y": -1.3412908298,
				"z": -0.5419913313,
				"element": "C" 
			},
			{
				"x": -1.434743999,
				"y": -2.5242255404,
				"z": -0.6106398333,
				"element": "C" 
			},
			{
				"x": -1.6472584866,
				"y": -3.2499904789,
				"z": 0.559963882,
				"element": "C" 
			},
			{
				"x": -1.1094420062,
				"y": -2.76533398,
				"z": 1.7555370642,
				"element": "C" 
			},
			{
				"x": -0.4037241264,
				"y": -1.6337199935,
				"z": 1.8349600836,
				"element": "N" 
			},
			{
				"x": 2.2800539617,
				"y": 0.0584262062,
				"z": 0.9261549607,
				"element": "S" 
			},
			{
				"x": 2.5018830668,
				"y": -1.3338144503,
				"z": 0.5685278221,
				"element": "O" 
			},
			{
				"x": 2.8299139548,
				"y": 0.6726021287,
				"z": 2.1187556445,
				"element": "O" 
			},
			{
				"x": 2.858916247,
				"y": 1.0618925154,
				"z": -0.5539864799,
				"element": "C" 
			},
			{
				"x": 2.1839791859,
				"y": 0.675439797,
				"z": -1.6381214142,
				"element": "F" 
			},
			{
				"x": 2.675816428,
				"y": 2.3594658956,
				"z": -0.3471129185,
				"element": "F" 
			},
			{
				"x": 4.1540871978,
				"y": 0.8064576267,
				"z": -0.7177078087,
				"element": "F" 
			},
			{
				"x": -0.4936303505,
				"y": -0.7386272527,
				"z": -1.4180995796,
				"element": "H" 
			},
			{
				"x": -1.8286529573,
				"y": -2.8709445283,
				"z": -1.5608226985,
				"element": "H" 
			},
			{
				"x": -2.2126244705,
				"y": -4.1760108866,
				"z": 0.5521549051,
				"element": "H" 
			},
			{
				"x": -1.2476345697,
				"y": -3.3084947838,
				"z": 2.6872606192,
				"element": "H" 
			}
		],
		 "valence_orbital": [ 
			{
				"type": "occ",
				"energy": -0.33722,
				"method": "rhf"
			},
			{
				"type": "occ",
				"energy": -0.32894,
				"method": "rhf"
			},
			{
				"type": "occ",
				"energy": -0.31468,
				"method": "rhf"
			},
			{
				"type": "occ",
				"energy": -0.2904,
				"method": "rhf"
			},
			{
				"type": "occ",
				"energy": -0.28978,
				"method": "rhf"
			},
			{
				"type": "unocc",
				"energy": -0.06593,
				"method": "rhf"
			},
			{
				"type": "unocc",
				"energy": -0.04782,
				"method": "rhf"
			},
			{
				"type": "unocc",
				"energy": -0.03236,
				"method": "rhf"
			},
			{
				"type": "unocc",
				"energy": 0.02091,
				"method": "rhf"
			},
			{
				"type": "unocc",
				"energy": 0.0267,
				"method": "rhf"
			}
		],
		"cosmo_sigma_profile": { 
			"-0.025": 0.0,
			"-0.024": 0.0,
			"-0.023": 0.0,
			"-0.022": 0.0,
			"-0.021": 0.0,
			"-0.02": 0.0,
			"-0.019": 0.0,
			"-0.018": 0.0,
			"-0.017": 0.0,
			"-0.016": 0.0,
			"-0.015": 0.0,
			"-0.014": 0.0,
			"-0.013": 0.0,
			"-0.012": 0.0,
			"-0.011": 0.0,
			"-0.01": 0.00539190512918,
			"-0.009": 1.54825649847,
			"-0.008": 8.60403786622,
			"-0.007": 12.267742283,
			"-0.006": 11.5702700542,
			"-0.005": 10.8549304422,
			"-0.004": 14.6355840287,
			"-0.003": 16.6309885735,
			"-0.002": 23.2185422311,
			"-0.001": 33.7557519786,
			"0.0": 56.5768483902,
			"0.001": 15.8310591033,
			"0.002": 7.53001450258,
			"0.003": 7.37129462156,
			"0.004": 7.59546654086,
			"0.005": 7.94608687768,
			"0.006": 10.2602580361,
			"0.007": 20.3064625307,
			"0.008": 11.0315406127,
			"0.009": 3.78919901521,
			"0.01": 1.59619583553,
			"0.011": 0.727801653195,
			"0.012": 0.462588960772,
			"0.013": 0.426373836581,
			"0.014": 0.000678482933385,
			"0.015": 0.0,
			"0.016": 0.0,
			"0.017": 0.0,
			"0.018": 0.0,
			"0.019": 0.0,
			"0.02": 0.0,
			"0.021": 0.0,
			"0.022": 0.0,
			"0.023": 0.0,
			"0.024": 0.0,
			"0.025": 0.0
		}
	}
}
