{
	 "smiles": "CC(O)C(N)CO", 
	 "Tm": 328.65, 
	 "num_atms": 18, 
	 "gaussian": { 
		 "optdone": 1, 
		 "sigma_profile": "yes", 
		 "theory": "DFT", 
		 "functional": "B3LYP", 
		 "basiset": "6-31G**", 
		 "properties": { 
			 "R2extent": 1709.5835, 
			 "electric_dipole_moment_norm": 1.7064568468, 
			 "electric_quadrupole_moment_norm": 9.16675355129, 
			 "total_energy": -364.230084331, 
			 "HOMO_LUMO_gap": 0.28863, 
			 "cosmo_polarized_energy": -13.92, 
			 "cosmo_cavitation_energy": 19.75, 
			 "cosmo_dispersion_energy": -14.85, 
			 "cosmo_repulsion_energy": 1.29, 
			 "cosmo_total_nonelectrostatic_energy": 6.19, 
			 "SMD_solvation_energy": 2.95 
		},
		"coords": [
			{
				"x": 1.4729100569,
				"y": -0.9184628562,
				"z": -0.0949565642,
				"element": "C" 
			},
			{
				"x": 2.5785685567,
				"y": -0.0531016649,
				"z": 0.5047565731,
				"element": "C" 
			},
			{
				"x": 3.1029690462,
				"y": -0.645869712,
				"z": 1.7040256541,
				"element": "O" 
			},
			{
				"x": 2.1502963309,
				"y": 1.3622722757,
				"z": 0.9373026295,
				"element": "C" 
			},
			{
				"x": 1.0121130596,
				"y": 1.2671348841,
				"z": 1.8511465868,
				"element": "N" 
			},
			{
				"x": 1.8666571367,
				"y": 2.3177259919,
				"z": -0.2227941179,
				"element": "C" 
			},
			{
				"x": 0.7714345634,
				"y": 1.8810302094,
				"z": -1.0133290479,
				"element": "O" 
			},
			{
				"x": 1.0954374753,
				"y": -0.4755128523,
				"z": -1.0177153422,
				"element": "H" 
			},
			{
				"x": 1.8610781542,
				"y": -1.9210257382,
				"z": -0.3194024688,
				"element": "H" 
			},
			{
				"x": 0.6387699995,
				"y": -1.0054150702,
				"z": 0.6044915554,
				"element": "H" 
			},
			{
				"x": 3.3924766785,
				"y": 0.0604119276,
				"z": -0.2317536003,
				"element": "H" 
			},
			{
				"x": 3.177061566,
				"y": -1.5964862628,
				"z": 1.5532850969,
				"element": "H" 
			},
			{
				"x": 3.052589305,
				"y": 1.7847710595,
				"z": 1.4212436867,
				"element": "H" 
			},
			{
				"x": 0.7976734209,
				"y": 2.1816810776,
				"z": 2.2405533715,
				"element": "H" 
			},
			{
				"x": 1.2874756527,
				"y": 0.6687129244,
				"z": 2.6261419966,
				"element": "H" 
			},
			{
				"x": 1.668474558,
				"y": 3.316471339,
				"z": 0.2029964728,
				"element": "H" 
			},
			{
				"x": 2.7874632051,
				"y": 2.4030613881,
				"z": -0.8238160944,
				"element": "H" 
			},
			{
				"x": 0.6376512345,
				"y": 2.5287010792,
				"z": -1.7157763878,
				"element": "H" 
			}
		],
		 "valence_orbital": [ 
			{
				"type": "occ",
				"energy": -0.31873,
				"method": "rhf"
			},
			{
				"type": "occ",
				"energy": -0.31112,
				"method": "rhf"
			},
			{
				"type": "occ",
				"energy": -0.26496,
				"method": "rhf"
			},
			{
				"type": "occ",
				"energy": -0.2605,
				"method": "rhf"
			},
			{
				"type": "occ",
				"energy": -0.22136,
				"method": "rhf"
			},
			{
				"type": "unocc",
				"energy": 0.06727,
				"method": "rhf"
			},
			{
				"type": "unocc",
				"energy": 0.08853,
				"method": "rhf"
			},
			{
				"type": "unocc",
				"energy": 0.10499,
				"method": "rhf"
			},
			{
				"type": "unocc",
				"energy": 0.13303,
				"method": "rhf"
			},
			{
				"type": "unocc",
				"energy": 0.15037,
				"method": "rhf"
			}
		],
		"cosmo_sigma_profile": { 
			"-0.025": 0.0,
			"-0.024": 0.0,
			"-0.023": 0.0,
			"-0.022": 0.0,
			"-0.021": 0.0,
			"-0.02": 0.0,
			"-0.019": 0.0,
			"-0.018": 0.0,
			"-0.017": 0.0,
			"-0.016": 0.423006967876,
			"-0.015": 1.47520581662,
			"-0.014": 1.7882568815,
			"-0.013": 2.04169408265,
			"-0.012": 1.61194561186,
			"-0.011": 1.66008171021,
			"-0.01": 1.84210872915,
			"-0.009": 2.94973343326,
			"-0.008": 3.56828217434,
			"-0.007": 4.41056889078,
			"-0.006": 5.94357362561,
			"-0.005": 4.93546845184,
			"-0.004": 7.99016409918,
			"-0.003": 16.8437699437,
			"-0.002": 14.4296569997,
			"-0.001": 10.880158705,
			"0.0": 9.38984065632,
			"0.001": 9.74766366262,
			"0.002": 7.04622431744,
			"0.003": 4.17428635673,
			"0.004": 3.75188246265,
			"0.005": 3.679110557,
			"0.006": 3.70551194508,
			"0.007": 3.40894406889,
			"0.008": 3.77981704509,
			"0.009": 1.9093055682,
			"0.01": 2.10636116359,
			"0.011": 2.68395252644,
			"0.012": 2.70982187171,
			"0.013": 1.84718944348,
			"0.014": 2.03617856279,
			"0.015": 1.64697714433,
			"0.016": 0.89443423499,
			"0.017": 1.40907095799,
			"0.018": 0.724866849559,
			"0.019": 0.912055792369,
			"0.02": 0.713935673683,
			"0.021": 0.00653312775598,
			"0.022": 0.0,
			"0.023": 0.0,
			"0.024": 0.0,
			"0.025": 0.0
		}
	}
}
