{
	 "smiles": "CC1=C(SC(=N1)C(=CC1=CC=C(F)C=C1)C#N)N=NC1=C(Br)C=C(Br)C=C1Br", 
	 "Tm": 443.15, 
	 "num_atms": 38, 
	 "gaussian": { 
		 "optdone": 1, 
		 "sigma_profile": "yes", 
		 "theory": "DFT", 
		 "functional": "B3LYP", 
		 "basiset": "6-31G**", 
		 "properties": { 
			 "R2extent": 35940.8021, 
			 "electric_dipole_moment_norm": 3.92733189456, 
			 "electric_quadrupole_moment_norm": 18.9512145078, 
			 "total_energy": -9161.20061544, 
			 "HOMO_LUMO_gap": 0.10932, 
			 "cosmo_polarized_energy": -12.06, 
			 "cosmo_cavitation_energy": 55.1, 
			 "cosmo_dispersion_energy": -39.05, 
			 "cosmo_repulsion_energy": 2.86, 
			 "cosmo_total_nonelectrostatic_energy": 18.91, 
			 "SMD_solvation_energy": 5.24 
		},
		"coords": [
			{
				"x": -0.3345446665,
				"y": -0.0807696062,
				"z": 1.6294626934,
				"element": "C" 
			},
			{
				"x": -0.1736382775,
				"y": -0.1027080048,
				"z": 0.1419230907,
				"element": "C" 
			},
			{
				"x": -0.8512578615,
				"y": -0.9412984326,
				"z": -0.7508470032,
				"element": "C" 
			},
			{
				"x": -0.3441112347,
				"y": -0.6061306276,
				"z": -2.3942455608,
				"element": "S" 
			},
			{
				"x": 0.7268625677,
				"y": 0.6159548897,
				"z": -1.7656447205,
				"element": "C" 
			},
			{
				"x": 0.6978821469,
				"y": 0.7531169662,
				"z": -0.4518076149,
				"element": "N" 
			},
			{
				"x": 1.5892384608,
				"y": 1.424917995,
				"z": -2.6327881038,
				"element": "C" 
			},
			{
				"x": 2.4092450309,
				"y": 2.37099376,
				"z": -2.081386924,
				"element": "C" 
			},
			{
				"x": 3.3516384477,
				"y": 3.3016145994,
				"z": -2.6725926747,
				"element": "C" 
			},
			{
				"x": 4.042668941,
				"y": 4.1554843517,
				"z": -1.7819746677,
				"element": "C" 
			},
			{
				"x": 4.9684739627,
				"y": 5.0866408523,
				"z": -2.2338347618,
				"element": "C" 
			},
			{
				"x": 5.2100017773,
				"y": 5.1677293072,
				"z": -3.6019480807,
				"element": "C" 
			},
			{
				"x": 6.1026549189,
				"y": 6.0634190964,
				"z": -4.0542014182,
				"element": "F" 
			},
			{
				"x": 4.5536481579,
				"y": 4.3475392084,
				"z": -4.5176595865,
				"element": "C" 
			},
			{
				"x": 3.6298890156,
				"y": 3.4200998461,
				"z": -4.0544684009,
				"element": "C" 
			},
			{
				"x": 1.507594864,
				"y": 1.1586613344,
				"z": -4.0361376709,
				"element": "C" 
			},
			{
				"x": 1.4160020149,
				"y": 0.916269591,
				"z": -5.1715317932,
				"element": "N" 
			},
			{
				"x": -1.7974727515,
				"y": -1.926919231,
				"z": -0.5990528149,
				"element": "N" 
			},
			{
				"x": -2.1345582112,
				"y": -2.1849657563,
				"z": 0.5975166671,
				"element": "N" 
			},
			{
				"x": -3.1449490244,
				"y": -3.1607742725,
				"z": 0.7243349995,
				"element": "C" 
			},
			{
				"x": -4.3236718339,
				"y": -3.245826801,
				"z": -0.0489282831,
				"element": "C" 
			},
			{
				"x": -4.7279917467,
				"y": -2.0110454112,
				"z": -1.4456991765,
				"element": "Br" 
			},
			{
				"x": -5.302186355,
				"y": -4.2019816919,
				"z": 0.2183117148,
				"element": "C" 
			},
			{
				"x": -5.1129784587,
				"y": -5.1023864377,
				"z": 1.2622205257,
				"element": "C" 
			},
			{
				"x": -6.4455237916,
				"y": -6.4139459056,
				"z": 1.6195355871,
				"element": "Br" 
			},
			{
				"x": -3.9713128582,
				"y": -5.0519409849,
				"z": 2.0580106662,
				"element": "C" 
			},
			{
				"x": -3.0170101123,
				"y": -4.0791008848,
				"z": 1.7875809001,
				"element": "C" 
			},
			{
				"x": -1.4598236534,
				"y": -4.0401736922,
				"z": 2.8878902543,
				"element": "Br" 
			},
			{
				"x": -1.3712763546,
				"y": 0.1367943558,
				"z": 1.9062675788,
				"element": "H" 
			},
			{
				"x": 0.3269640797,
				"y": 0.6776178361,
				"z": 2.0521250949,
				"element": "H" 
			},
			{
				"x": -0.1092206543,
				"y": -1.0590635778,
				"z": 2.0632343389,
				"element": "H" 
			},
			{
				"x": 2.3299885883,
				"y": 2.4252549162,
				"z": -0.998167934,
				"element": "H" 
			},
			{
				"x": 3.8427511922,
				"y": 4.0796526404,
				"z": -0.7170471937,
				"element": "H" 
			},
			{
				"x": 5.4995675746,
				"y": 5.7424910357,
				"z": -1.5531338022,
				"element": "H" 
			},
			{
				"x": 4.7733631651,
				"y": 4.4454049019,
				"z": -5.5750275905,
				"element": "H" 
			},
			{
				"x": 3.1253113533,
				"y": 2.7875685922,
				"z": -4.7731902348,
				"element": "H" 
			},
			{
				"x": -6.2025398074,
				"y": -4.2342316589,
				"z": -0.3809568288,
				"element": "H" 
			},
			{
				"x": -3.8256786065,
				"y": -5.7516630991,
				"z": 2.8702587288,
				"element": "H" 
			}
		],
		 "valence_orbital": [ 
			{
				"type": "occ",
				"energy": -0.27789,
				"method": "rhf"
			},
			{
				"type": "occ",
				"energy": -0.26095,
				"method": "rhf"
			},
			{
				"type": "occ",
				"energy": -0.25648,
				"method": "rhf"
			},
			{
				"type": "occ",
				"energy": -0.23665,
				"method": "rhf"
			},
			{
				"type": "occ",
				"energy": -0.2227,
				"method": "rhf"
			},
			{
				"type": "unocc",
				"energy": -0.11338,
				"method": "rhf"
			},
			{
				"type": "unocc",
				"energy": -0.08247,
				"method": "rhf"
			},
			{
				"type": "unocc",
				"energy": -0.0397,
				"method": "rhf"
			},
			{
				"type": "unocc",
				"energy": -0.03601,
				"method": "rhf"
			},
			{
				"type": "unocc",
				"energy": -0.03261,
				"method": "rhf"
			}
		],
		"cosmo_sigma_profile": { 
			"-0.025": 0.0,
			"-0.024": 0.0,
			"-0.023": 0.0,
			"-0.022": 0.0,
			"-0.021": 0.0,
			"-0.02": 0.0,
			"-0.019": 0.0,
			"-0.018": 0.0,
			"-0.017": 0.0,
			"-0.016": 0.0,
			"-0.015": 0.0,
			"-0.014": 0.0,
			"-0.013": 0.0,
			"-0.012": 0.0,
			"-0.011": 0.00156471310844,
			"-0.01": 0.661136799055,
			"-0.009": 2.5115106822,
			"-0.008": 8.2938522745,
			"-0.007": 9.62552575632,
			"-0.006": 12.1455514449,
			"-0.005": 15.1705268217,
			"-0.004": 21.5729429977,
			"-0.003": 29.6242470181,
			"-0.002": 37.2176676309,
			"-0.001": 61.0416238661,
			"0.0": 69.4403478485,
			"0.001": 48.7470423299,
			"0.002": 39.5980730778,
			"0.003": 40.0198160071,
			"0.004": 30.6546171922,
			"0.005": 5.39393728727,
			"0.006": 5.10884628538,
			"0.007": 5.82706060654,
			"0.008": 4.81479471324,
			"0.009": 4.00263121134,
			"0.01": 2.57306530552,
			"0.011": 2.50195153521,
			"0.012": 1.69859664994,
			"0.013": 0.0614652654965,
			"0.014": 0.0,
			"0.015": 0.0,
			"0.016": 0.0,
			"0.017": 0.0,
			"0.018": 0.0,
			"0.019": 0.0,
			"0.02": 0.0,
			"0.021": 0.0,
			"0.022": 0.0,
			"0.023": 0.0,
			"0.024": 0.0,
			"0.025": 0.0
		}
	}
}
