{
	 "smiles": "CC(C)(C)OC(=O)N1CCC(CC1)OC1=CC=C(C=C1)C(O)=O", 
	 "Tm": 449.15, 
	 "num_atms": 46, 
	 "gaussian": { 
		 "optdone": 1, 
		 "sigma_profile": "yes", 
		 "theory": "DFT", 
		 "functional": "B3LYP", 
		 "basiset": "6-31G**", 
		 "properties": { 
			 "R2extent": 14356.8393, 
			 "electric_dipole_moment_norm": 5.33063478959, 
			 "electric_quadrupole_moment_norm": 49.1613164857, 
			 "total_energy": -1092.58475202, 
			 "HOMO_LUMO_gap": 0.19541, 
			 "cosmo_polarized_energy": -22.43, 
			 "cosmo_cavitation_energy": 47.57, 
			 "cosmo_dispersion_energy": -33.24, 
			 "cosmo_repulsion_energy": 2.54, 
			 "cosmo_total_nonelectrostatic_energy": 16.87, 
			 "SMD_solvation_energy": 9.19 
		},
		"coords": [
			{
				"x": 4.573207285,
				"y": -0.8805892592,
				"z": 1.7019409304,
				"element": "C" 
			},
			{
				"x": 3.824258278,
				"y": 0.2952686012,
				"z": 2.3350026107,
				"element": "C" 
			},
			{
				"x": 4.7219591047,
				"y": 1.5351366122,
				"z": 2.4079252149,
				"element": "C" 
			},
			{
				"x": 3.260134014,
				"y": -0.095183852,
				"z": 3.7053352163,
				"element": "C" 
			},
			{
				"x": 2.7251290133,
				"y": 0.5221220719,
				"z": 1.3835898534,
				"element": "O" 
			},
			{
				"x": 1.820145986,
				"y": 1.511026569,
				"z": 1.5882376952,
				"element": "C" 
			},
			{
				"x": 1.8011346485,
				"y": 2.2765655946,
				"z": 2.5434832276,
				"element": "O" 
			},
			{
				"x": 0.9124701582,
				"y": 1.5412328768,
				"z": 0.5615630779,
				"element": "N" 
			},
			{
				"x": -0.1982625164,
				"y": 2.4889531513,
				"z": 0.6359838176,
				"element": "C" 
			},
			{
				"x": -1.5228400039,
				"y": 1.7993567959,
				"z": 0.2899500221,
				"element": "C" 
			},
			{
				"x": -1.4831412941,
				"y": 1.1071574386,
				"z": -1.0989994524,
				"element": "C" 
			},
			{
				"x": -0.0494730158,
				"y": 1.0030872734,
				"z": -1.6304279261,
				"element": "C" 
			},
			{
				"x": 0.9462944695,
				"y": 0.5791319662,
				"z": -0.5495053606,
				"element": "C" 
			},
			{
				"x": -1.9676263701,
				"y": -0.2483122789,
				"z": -1.0182715337,
				"element": "O" 
			},
			{
				"x": -3.2979392799,
				"y": -0.5022094899,
				"z": -0.9190295597,
				"element": "C" 
			},
			{
				"x": -4.3042594707,
				"y": 0.4733461677,
				"z": -0.8812466892,
				"element": "C" 
			},
			{
				"x": -5.6397679288,
				"y": 0.0810098321,
				"z": -0.7891620214,
				"element": "C" 
			},
			{
				"x": -5.9993933485,
				"y": -1.2701477586,
				"z": -0.7296253024,
				"element": "C" 
			},
			{
				"x": -4.9806773168,
				"y": -2.2374901566,
				"z": -0.7884838704,
				"element": "C" 
			},
			{
				"x": -3.6509642216,
				"y": -1.8635089089,
				"z": -0.8717399525,
				"element": "C" 
			},
			{
				"x": -7.4119674223,
				"y": -1.7477476814,
				"z": -0.6474789443,
				"element": "C" 
			},
			{
				"x": -8.3432379721,
				"y": -0.8474605112,
				"z": -0.2222187288,
				"element": "O" 
			},
			{
				"x": -7.753999566,
				"y": -2.8716851351,
				"z": -0.9352827659,
				"element": "O" 
			},
			{
				"x": 3.9169526869,
				"y": -1.7506452729,
				"z": 1.607116315,
				"element": "H" 
			},
			{
				"x": 5.4296974967,
				"y": -1.1587977258,
				"z": 2.3231560805,
				"element": "H" 
			},
			{
				"x": 4.9399157965,
				"y": -0.6147597861,
				"z": 0.7060807003,
				"element": "H" 
			},
			{
				"x": 5.0741220287,
				"y": 1.8082105707,
				"z": 1.407931792,
				"element": "H" 
			},
			{
				"x": 5.5978229007,
				"y": 1.3183463653,
				"z": 3.0281408736,
				"element": "H" 
			},
			{
				"x": 4.1848313634,
				"y": 2.3807340306,
				"z": 2.837704105,
				"element": "H" 
			},
			{
				"x": 2.7066062303,
				"y": 0.7325707377,
				"z": 4.1487035233,
				"element": "H" 
			},
			{
				"x": 2.5935497316,
				"y": -0.9582500235,
				"z": 3.6092300696,
				"element": "H" 
			},
			{
				"x": 4.0806621438,
				"y": -0.3733658741,
				"z": 4.3748055703,
				"element": "H" 
			},
			{
				"x": -0.0249600742,
				"y": 3.3422336575,
				"z": -0.0361553295,
				"element": "H" 
			},
			{
				"x": -0.2180794481,
				"y": 2.8828925371,
				"z": 1.6523128519,
				"element": "H" 
			},
			{
				"x": -2.3347706658,
				"y": 2.5315800146,
				"z": 0.3469288195,
				"element": "H" 
			},
			{
				"x": -1.7262640273,
				"y": 1.0307715078,
				"z": 1.0428759023,
				"element": "H" 
			},
			{
				"x": -2.0936526049,
				"y": 1.6499209418,
				"z": -1.8310583917,
				"element": "H" 
			},
			{
				"x": -0.0280282194,
				"y": 0.2840469718,
				"z": -2.4541327557,
				"element": "H" 
			},
			{
				"x": 0.2434243866,
				"y": 1.9752934582,
				"z": -2.0422605733,
				"element": "H" 
			},
			{
				"x": 0.6989965454,
				"y": -0.4286312332,
				"z": -0.19270217,
				"element": "H" 
			},
			{
				"x": 1.957275431,
				"y": 0.5335235027,
				"z": -0.9631140971,
				"element": "H" 
			},
			{
				"x": -4.0641245667,
				"y": 1.5281045369,
				"z": -0.9275395465,
				"element": "H" 
			},
			{
				"x": -6.3999251463,
				"y": 0.8588880319,
				"z": -0.8018673913,
				"element": "H" 
			},
			{
				"x": -5.2634780862,
				"y": -3.2843802401,
				"z": -0.7657590349,
				"element": "H" 
			},
			{
				"x": -2.8576338937,
				"y": -2.6025260061,
				"z": -0.9102231408,
				"element": "H" 
			},
			{
				"x": -7.9064232391,
				"y": -0.0645206221,
				"z": 0.1395862688,
				"element": "H" 
			}
		],
		 "valence_orbital": [ 
			{
				"type": "occ",
				"energy": -0.27256,
				"method": "rhf"
			},
			{
				"type": "occ",
				"energy": -0.26718,
				"method": "rhf"
			},
			{
				"type": "occ",
				"energy": -0.26153,
				"method": "rhf"
			},
			{
				"type": "occ",
				"energy": -0.23948,
				"method": "rhf"
			},
			{
				"type": "occ",
				"energy": -0.23668,
				"method": "rhf"
			},
			{
				"type": "unocc",
				"energy": -0.04127,
				"method": "rhf"
			},
			{
				"type": "unocc",
				"energy": -0.02166,
				"method": "rhf"
			},
			{
				"type": "unocc",
				"energy": 0.04855,
				"method": "rhf"
			},
			{
				"type": "unocc",
				"energy": 0.05492,
				"method": "rhf"
			},
			{
				"type": "unocc",
				"energy": 0.06023,
				"method": "rhf"
			}
		],
		"cosmo_sigma_profile": { 
			"-0.025": 0.0,
			"-0.024": 0.0,
			"-0.023": 0.0,
			"-0.022": 0.0,
			"-0.021": 0.0,
			"-0.02": 0.0,
			"-0.019": 0.104726262496,
			"-0.018": 0.68512197862,
			"-0.017": 0.760960418518,
			"-0.016": 0.982568789834,
			"-0.015": 1.55888612749,
			"-0.014": 0.672185727325,
			"-0.013": 0.411191268876,
			"-0.012": 1.50585546816,
			"-0.011": 1.37296888387,
			"-0.01": 1.02939639947,
			"-0.009": 1.48756013094,
			"-0.008": 3.16287488394,
			"-0.007": 5.21043641089,
			"-0.006": 11.9210655845,
			"-0.005": 18.5641120919,
			"-0.004": 32.2730199084,
			"-0.003": 39.2386315428,
			"-0.002": 36.477318594,
			"-0.001": 32.4747353375,
			"0.0": 36.5136443364,
			"0.001": 31.7812571425,
			"0.002": 22.4322850991,
			"0.003": 21.624169423,
			"0.004": 12.6142128163,
			"0.005": 7.88596870983,
			"0.006": 7.65057771255,
			"0.007": 6.56603206824,
			"0.008": 5.29191242573,
			"0.009": 3.27628835667,
			"0.01": 5.41599066676,
			"0.011": 6.92326617576,
			"0.012": 7.79151235241,
			"0.013": 4.83241170038,
			"0.014": 2.54829511495,
			"0.015": 0.0,
			"0.016": 0.0,
			"0.017": 0.0,
			"0.018": 0.0,
			"0.019": 0.0,
			"0.02": 0.0,
			"0.021": 0.0,
			"0.022": 0.0,
			"0.023": 0.0,
			"0.024": 0.0,
			"0.025": 0.0
		}
	}
}
