{
	 "smiles": "COC1=NNC(Br)=C1", 
	 "Tm": 344.15, 
	 "num_atms": 13, 
	 "gaussian": { 
		 "optdone": 1, 
		 "sigma_profile": "yes", 
		 "theory": "DFT", 
		 "functional": "B3LYP", 
		 "basiset": "6-31G**", 
		 "properties": { 
			 "R2extent": 3290.0643, 
			 "electric_dipole_moment_norm": 1.01657938205, 
			 "electric_quadrupole_moment_norm": 5.40897110734, 
			 "total_energy": -2911.52540876, 
			 "HOMO_LUMO_gap": 0.22763, 
			 "cosmo_polarized_energy": -7.95, 
			 "cosmo_cavitation_energy": 19.78, 
			 "cosmo_dispersion_energy": -15.51, 
			 "cosmo_repulsion_energy": 1.31, 
			 "cosmo_total_nonelectrostatic_energy": 5.58, 
			 "SMD_solvation_energy": 2.59 
		},
		"coords": [
			{
				"x": -0.4391356086,
				"y": -2.5938890304,
				"z": 2.4592921245,
				"element": "C" 
			},
			{
				"x": 0.4187576911,
				"y": -3.047267872,
				"z": 1.4100639,
				"element": "O" 
			},
			{
				"x": 0.5943541355,
				"y": -2.1903972614,
				"z": 0.3874829575,
				"element": "C" 
			},
			{
				"x": 0.0165348673,
				"y": -0.9936512952,
				"z": 0.3360320173,
				"element": "N" 
			},
			{
				"x": 0.4567648126,
				"y": -0.4728524821,
				"z": -0.8434168262,
				"element": "N" 
			},
			{
				"x": 1.2812937614,
				"y": -1.3222811393,
				"z": -1.5003532739,
				"element": "C" 
			},
			{
				"x": 2.038469323,
				"y": -0.8646236581,
				"z": -3.1568755419,
				"element": "Br" 
			},
			{
				"x": 1.4086741923,
				"y": -2.4648497351,
				"z": -0.7412562391,
				"element": "C" 
			},
			{
				"x": -0.465448719,
				"y": -3.4023254038,
				"z": 3.1907127857,
				"element": "H" 
			},
			{
				"x": -1.447140904,
				"y": -2.3909969985,
				"z": 2.0824894745,
				"element": "H" 
			},
			{
				"x": -0.0484808949,
				"y": -1.6798723692,
				"z": 2.9188384638,
				"element": "H" 
			},
			{
				"x": 0.1617758466,
				"y": 0.4459399262,
				"z": -1.1315088919,
				"element": "H" 
			},
			{
				"x": 1.9863814967,
				"y": -3.3483326809,
				"z": -0.9561009503,
				"element": "H" 
			}
		],
		 "valence_orbital": [ 
			{
				"type": "occ",
				"energy": -0.3218,
				"method": "rhf"
			},
			{
				"type": "occ",
				"energy": -0.31617,
				"method": "rhf"
			},
			{
				"type": "occ",
				"energy": -0.29284,
				"method": "rhf"
			},
			{
				"type": "occ",
				"energy": -0.24496,
				"method": "rhf"
			},
			{
				"type": "occ",
				"energy": -0.22694,
				"method": "rhf"
			},
			{
				"type": "unocc",
				"energy": 0.00069,
				"method": "rhf"
			},
			{
				"type": "unocc",
				"energy": 0.01366,
				"method": "rhf"
			},
			{
				"type": "unocc",
				"energy": 0.08177,
				"method": "rhf"
			},
			{
				"type": "unocc",
				"energy": 0.08189,
				"method": "rhf"
			},
			{
				"type": "unocc",
				"energy": 0.11868,
				"method": "rhf"
			}
		],
		"cosmo_sigma_profile": { 
			"-0.025": 0.0,
			"-0.024": 0.0,
			"-0.023": 0.0,
			"-0.022": 0.0,
			"-0.021": 0.0,
			"-0.02": 0.0,
			"-0.019": 0.0,
			"-0.018": 0.056752723604,
			"-0.017": 1.0318851207,
			"-0.016": 1.19787432752,
			"-0.015": 1.0078563733,
			"-0.014": 1.1049086474,
			"-0.013": 0.254103498664,
			"-0.012": 1.13834421674,
			"-0.011": 1.42434732475,
			"-0.01": 0.899224788613,
			"-0.009": 0.61319877697,
			"-0.008": 1.66199893265,
			"-0.007": 3.01095379675,
			"-0.006": 4.84358222098,
			"-0.005": 10.0149830866,
			"-0.004": 9.63076710895,
			"-0.003": 12.9853596083,
			"-0.002": 9.23873695586,
			"-0.001": 8.61242364194,
			"0.0": 9.98207470025,
			"0.001": 12.439929359,
			"0.002": 16.4788009137,
			"0.003": 21.8857280603,
			"0.004": 9.9169502638,
			"0.005": 4.22723887916,
			"0.006": 3.31583698088,
			"0.007": 2.11935582344,
			"0.008": 2.21378063015,
			"0.009": 3.09486937642,
			"0.01": 3.28934563407,
			"0.011": 0.975703937837,
			"0.012": 0.872420416799,
			"0.013": 1.21084379731,
			"0.014": 0.467658492701,
			"0.015": 0.182287425944,
			"0.016": 0.0,
			"0.017": 0.0,
			"0.018": 0.0,
			"0.019": 0.0,
			"0.02": 0.0,
			"0.021": 0.0,
			"0.022": 0.0,
			"0.023": 0.0,
			"0.024": 0.0,
			"0.025": 0.0
		}
	}
}
