{
	 "smiles": "CC1=NC(SC2=CC=CC=C2)=C(C=C1)C(O)=O", 
	 "Tm": 443.15, 
	 "num_atms": 28, 
	 "gaussian": { 
		 "optdone": 1, 
		 "sigma_profile": "yes", 
		 "theory": "DFT", 
		 "functional": "B3LYP", 
		 "basiset": "6-31G**", 
		 "properties": { 
			 "R2extent": 4945.6032, 
			 "electric_dipole_moment_norm": 5.9497772681, 
			 "electric_quadrupole_moment_norm": 13.6223769248, 
			 "total_energy": -1105.41052812, 
			 "HOMO_LUMO_gap": 0.19159, 
			 "cosmo_polarized_energy": -13.05, 
			 "cosmo_cavitation_energy": 34.18, 
			 "cosmo_dispersion_energy": -24.41, 
			 "cosmo_repulsion_energy": 1.85, 
			 "cosmo_total_nonelectrostatic_energy": 11.62, 
			 "SMD_solvation_energy": 6.03 
		},
		"coords": [
			{
				"x": 0.6199620693,
				"y": 4.154139065,
				"z": -0.7793072546,
				"element": "C" 
			},
			{
				"x": 0.0576638175,
				"y": 2.7913289049,
				"z": -1.0859095685,
				"element": "C" 
			},
			{
				"x": 0.5202113068,
				"y": 1.7730651016,
				"z": -0.3448695115,
				"element": "N" 
			},
			{
				"x": 0.0494048809,
				"y": 0.545734996,
				"z": -0.5383516877,
				"element": "C" 
			},
			{
				"x": 0.8298137069,
				"y": -0.7458972596,
				"z": 0.4772766778,
				"element": "S" 
			},
			{
				"x": 0.8652093335,
				"y": -0.0056591748,
				"z": 2.1137112583,
				"element": "C" 
			},
			{
				"x": -0.0527385365,
				"y": -0.4304637453,
				"z": 3.0812940706,
				"element": "C" 
			},
			{
				"x": 0.0104329875,
				"y": 0.0957271856,
				"z": 4.3724909336,
				"element": "C" 
			},
			{
				"x": 0.9819392436,
				"y": 1.0450638574,
				"z": 4.6947207751,
				"element": "C" 
			},
			{
				"x": 1.8962888548,
				"y": 1.4660541839,
				"z": 3.7265638038,
				"element": "C" 
			},
			{
				"x": 1.8467956183,
				"y": 0.9389127269,
				"z": 2.4357937957,
				"element": "C" 
			},
			{
				"x": -0.9285892667,
				"y": 0.2288988525,
				"z": -1.5067906772,
				"element": "C" 
			},
			{
				"x": -1.36958568,
				"y": 1.2970009263,
				"z": -2.3028326415,
				"element": "C" 
			},
			{
				"x": -0.8860972534,
				"y": 2.5804653627,
				"z": -2.0985317856,
				"element": "C" 
			},
			{
				"x": -1.5938335762,
				"y": -1.1007659941,
				"z": -1.7987137003,
				"element": "C" 
			},
			{
				"x": -1.4339542682,
				"y": -2.1171100679,
				"z": -0.9371102306,
				"element": "O" 
			},
			{
				"x": -2.2873625408,
				"y": -1.2389796274,
				"z": -2.7835174059,
				"element": "O" 
			},
			{
				"x": 1.7066647747,
				"y": 4.1549997748,
				"z": -0.9129924436,
				"element": "H" 
			},
			{
				"x": 0.4256015076,
				"y": 4.4167155776,
				"z": 0.2655958362,
				"element": "H" 
			},
			{
				"x": 0.1868086631,
				"y": 4.9239331404,
				"z": -1.422138767,
				"element": "H" 
			},
			{
				"x": -0.8085170357,
				"y": -1.1660210284,
				"z": 2.8252836044,
				"element": "H" 
			},
			{
				"x": -0.7014448659,
				"y": -0.2348377444,
				"z": 5.1230155808,
				"element": "H" 
			},
			{
				"x": 1.0290124924,
				"y": 1.4535428372,
				"z": 5.6999933977,
				"element": "H" 
			},
			{
				"x": 2.6551161251,
				"y": 2.2015778862,
				"z": 3.9770662559,
				"element": "H" 
			},
			{
				"x": 2.5520744534,
				"y": 1.2584463781,
				"z": 1.6782133896,
				"element": "H" 
			},
			{
				"x": -2.1074676777,
				"y": 1.0797084327,
				"z": -3.0673820409,
				"element": "H" 
			},
			{
				"x": -1.2330322758,
				"y": 3.4088850685,
				"z": -2.7074398785,
				"element": "H" 
			},
			{
				"x": -0.8468768586,
				"y": -1.8649656163,
				"z": -0.1929317863,
				"element": "H" 
			}
		],
		 "valence_orbital": [ 
			{
				"type": "occ",
				"energy": -0.28291,
				"method": "rhf"
			},
			{
				"type": "occ",
				"energy": -0.2672,
				"method": "rhf"
			},
			{
				"type": "occ",
				"energy": -0.26613,
				"method": "rhf"
			},
			{
				"type": "occ",
				"energy": -0.26047,
				"method": "rhf"
			},
			{
				"type": "occ",
				"energy": -0.24856,
				"method": "rhf"
			},
			{
				"type": "unocc",
				"energy": -0.05697,
				"method": "rhf"
			},
			{
				"type": "unocc",
				"energy": -0.04349,
				"method": "rhf"
			},
			{
				"type": "unocc",
				"energy": -0.032,
				"method": "rhf"
			},
			{
				"type": "unocc",
				"energy": -0.01576,
				"method": "rhf"
			},
			{
				"type": "unocc",
				"energy": 0.03687,
				"method": "rhf"
			}
		],
		"cosmo_sigma_profile": { 
			"-0.025": 0.0,
			"-0.024": 0.0,
			"-0.023": 0.0,
			"-0.022": 0.0,
			"-0.021": 0.0,
			"-0.02": 0.0,
			"-0.019": 0.0,
			"-0.018": 0.0,
			"-0.017": 0.0,
			"-0.016": 0.0,
			"-0.015": 0.0,
			"-0.014": 0.0,
			"-0.013": 0.0,
			"-0.012": 0.0,
			"-0.011": 0.0,
			"-0.01": 0.0374051136053,
			"-0.009": 0.65960258732,
			"-0.008": 2.41156747473,
			"-0.007": 8.48268213329,
			"-0.006": 18.5546274926,
			"-0.005": 22.3723744427,
			"-0.004": 20.0781138543,
			"-0.003": 20.7868904162,
			"-0.002": 21.1305801771,
			"-0.001": 27.8329993728,
			"0.0": 25.1611857775,
			"0.001": 19.4178452377,
			"0.002": 14.2814729481,
			"0.003": 14.0201924921,
			"0.004": 16.2167221699,
			"0.005": 9.85775499581,
			"0.006": 5.64629359573,
			"0.007": 4.78656159897,
			"0.008": 4.71331826383,
			"0.009": 3.84740322498,
			"0.01": 3.93281969721,
			"0.011": 5.8138504064,
			"0.012": 4.27552006877,
			"0.013": 1.70806007991,
			"0.014": 0.098313289426,
			"0.015": 0.0,
			"0.016": 0.0,
			"0.017": 0.0,
			"0.018": 0.0,
			"0.019": 0.0,
			"0.02": 0.0,
			"0.021": 0.0,
			"0.022": 0.0,
			"0.023": 0.0,
			"0.024": 0.0,
			"0.025": 0.0
		}
	}
}
