{
	 "smiles": "BrCC1=CN(N=N1)C1=CC=CC=C1", 
	 "Tm": 385.15, 
	 "num_atms": 21, 
	 "gaussian": { 
		 "optdone": 1, 
		 "sigma_profile": "yes", 
		 "theory": "DFT", 
		 "functional": "B3LYP", 
		 "basiset": "6-31G**", 
		 "properties": { 
			 "R2extent": 6257.7716, 
			 "electric_dipole_moment_norm": 4.97952802784, 
			 "electric_quadrupole_moment_norm": 18.3691117564, 
			 "total_energy": -3083.39954933, 
			 "HOMO_LUMO_gap": 0.19992, 
			 "cosmo_polarized_energy": -13.23, 
			 "cosmo_cavitation_energy": 28.26, 
			 "cosmo_dispersion_energy": -21.06, 
			 "cosmo_repulsion_energy": 1.67, 
			 "cosmo_total_nonelectrostatic_energy": 8.87, 
			 "SMD_solvation_energy": 2.41 
		},
		"coords": [
			{
				"x": 3.1510564633,
				"y": 3.3745247423,
				"z": 1.2384148877,
				"element": "Br" 
			},
			{
				"x": 1.8404446646,
				"y": 2.3158223406,
				"z": 2.3258713542,
				"element": "C" 
			},
			{
				"x": 1.7438473486,
				"y": 0.9059340128,
				"z": 1.8915889845,
				"element": "C" 
			},
			{
				"x": 1.071941512,
				"y": 0.3411466187,
				"z": 0.8271898768,
				"element": "C" 
			},
			{
				"x": 1.3204135299,
				"y": -0.9904166256,
				"z": 0.933329218,
				"element": "N" 
			},
			{
				"x": 2.1076381562,
				"y": -1.2380783512,
				"z": 2.019428048,
				"element": "N" 
			},
			{
				"x": 2.3600345531,
				"y": -0.0988653326,
				"z": 2.5877043261,
				"element": "N" 
			},
			{
				"x": 0.8761579122,
				"y": -2.0582940736,
				"z": 0.1030486288,
				"element": "C" 
			},
			{
				"x": 0.5917406452,
				"y": -1.8240699098,
				"z": -1.245270302,
				"element": "C" 
			},
			{
				"x": 0.1426689531,
				"y": -2.8768432973,
				"z": -2.0420573601,
				"element": "C" 
			},
			{
				"x": -0.0047157487,
				"y": -4.1560554678,
				"z": -1.5036428599,
				"element": "C" 
			},
			{
				"x": 0.2981479779,
				"y": -4.3806070079,
				"z": -0.1585806205,
				"element": "C" 
			},
			{
				"x": 0.7335125361,
				"y": -3.3356614582,
				"z": 0.653683875,
				"element": "C" 
			},
			{
				"x": 2.2081958125,
				"y": 2.3753407983,
				"z": 3.3475266115,
				"element": "H" 
			},
			{
				"x": 0.9056079963,
				"y": 2.8624526479,
				"z": 2.2207751212,
				"element": "H" 
			},
			{
				"x": 0.4529414703,
				"y": 0.7644522695,
				"z": 0.053127944,
				"element": "H" 
			},
			{
				"x": 0.7405266429,
				"y": -0.8387832913,
				"z": -1.6745048998,
				"element": "H" 
			},
			{
				"x": -0.0785184953,
				"y": -2.6955798028,
				"z": -3.0894052294,
				"element": "H" 
			},
			{
				"x": -0.3491962676,
				"y": -4.9737506144,
				"z": -2.1291291227,
				"element": "H" 
			},
			{
				"x": 0.1878864611,
				"y": -5.3736563749,
				"z": 0.2662673482,
				"element": "H" 
			},
			{
				"x": 0.9669678764,
				"y": -3.491211823,
				"z": 1.6999341704,
				"element": "H" 
			}
		],
		 "valence_orbital": [ 
			{
				"type": "occ",
				"energy": -0.27814,
				"method": "rhf"
			},
			{
				"type": "occ",
				"energy": -0.27209,
				"method": "rhf"
			},
			{
				"type": "occ",
				"energy": -0.27016,
				"method": "rhf"
			},
			{
				"type": "occ",
				"energy": -0.26623,
				"method": "rhf"
			},
			{
				"type": "occ",
				"energy": -0.24794,
				"method": "rhf"
			},
			{
				"type": "unocc",
				"energy": -0.04802,
				"method": "rhf"
			},
			{
				"type": "unocc",
				"energy": -0.02456,
				"method": "rhf"
			},
			{
				"type": "unocc",
				"energy": -0.01976,
				"method": "rhf"
			},
			{
				"type": "unocc",
				"energy": 0.01362,
				"method": "rhf"
			},
			{
				"type": "unocc",
				"energy": 0.06059,
				"method": "rhf"
			}
		],
		"cosmo_sigma_profile": { 
			"-0.025": 0.0,
			"-0.024": 0.0,
			"-0.023": 0.0,
			"-0.022": 0.0,
			"-0.021": 0.0,
			"-0.02": 0.0,
			"-0.019": 0.0,
			"-0.018": 0.0,
			"-0.017": 0.0,
			"-0.016": 0.0,
			"-0.015": 0.0,
			"-0.014": 0.0,
			"-0.013": 0.0,
			"-0.012": 0.0605118923907,
			"-0.011": 2.10532513743,
			"-0.01": 2.30216531245,
			"-0.009": 3.71784312226,
			"-0.008": 7.07202171576,
			"-0.007": 8.66773550007,
			"-0.006": 15.3584878134,
			"-0.005": 14.5168553876,
			"-0.004": 14.6899692273,
			"-0.003": 11.3295467692,
			"-0.002": 14.5674946484,
			"-0.001": 15.3655356554,
			"0.0": 13.507337801,
			"0.001": 12.4168065757,
			"0.002": 15.9596884493,
			"0.003": 18.3476555896,
			"0.004": 17.0031396466,
			"0.005": 10.4839012051,
			"0.006": 13.3642271493,
			"0.007": 3.56159150399,
			"0.008": 2.32914291052,
			"0.009": 3.34371224272,
			"0.01": 2.94376613462,
			"0.011": 2.87199340578,
			"0.012": 1.84315101112,
			"0.013": 1.29108315111,
			"0.014": 1.00799922007,
			"0.015": 0.627324528848,
			"0.016": 0.0,
			"0.017": 0.0,
			"0.018": 0.0,
			"0.019": 0.0,
			"0.02": 0.0,
			"0.021": 0.0,
			"0.022": 0.0,
			"0.023": 0.0,
			"0.024": 0.0,
			"0.025": 0.0
		}
	}
}
