{
	 "smiles": "NC1=NOC(COC2=CC=C(F)C=C2)=N1", 
	 "Tm": 428.15, 
	 "num_atms": 23, 
	 "gaussian": { 
		 "optdone": 1, 
		 "sigma_profile": "yes", 
		 "theory": "DFT", 
		 "functional": "B3LYP", 
		 "basiset": "6-31G**", 
		 "properties": { 
			 "R2extent": 4129.4691, 
			 "electric_dipole_moment_norm": 2.18890076979, 
			 "electric_quadrupole_moment_norm": 19.0621104865, 
			 "total_energy": -762.259166336, 
			 "HOMO_LUMO_gap": 0.19337, 
			 "cosmo_polarized_energy": -14.3, 
			 "cosmo_cavitation_energy": 29.05, 
			 "cosmo_dispersion_energy": -21.04, 
			 "cosmo_repulsion_energy": 1.64, 
			 "cosmo_total_nonelectrostatic_energy": 9.66, 
			 "SMD_solvation_energy": 3.97 
		},
		"coords": [
			{
				"x": -2.2873856339,
				"y": -4.5027052717,
				"z": -1.0789015939,
				"element": "N" 
			},
			{
				"x": -2.1056716793,
				"y": -3.392699574,
				"z": -0.2980461172,
				"element": "C" 
			},
			{
				"x": -3.0891508793,
				"y": -2.6050598824,
				"z": 0.0888978456,
				"element": "N" 
			},
			{
				"x": -2.4204864621,
				"y": -1.6695367837,
				"z": 0.9189626751,
				"element": "O" 
			},
			{
				"x": -1.1285645884,
				"y": -2.0033546137,
				"z": 0.9072489641,
				"element": "C" 
			},
			{
				"x": -0.16715622,
				"y": -1.1883740898,
				"z": 1.726624717,
				"element": "C" 
			},
			{
				"x": -0.1707353776,
				"y": 0.1905568199,
				"z": 1.4010330501,
				"element": "O" 
			},
			{
				"x": 0.4834644823,
				"y": 0.6128455931,
				"z": 0.265081971,
				"element": "C" 
			},
			{
				"x": 1.0801310668,
				"y": -0.2307126123,
				"z": -0.6775916069,
				"element": "C" 
			},
			{
				"x": 1.7308168455,
				"y": 0.3238060291,
				"z": -1.7851788853,
				"element": "C" 
			},
			{
				"x": 1.7705871683,
				"y": 1.701393319,
				"z": -1.9358476204,
				"element": "C" 
			},
			{
				"x": 2.3989082871,
				"y": 2.2327464309,
				"z": -3.0082775444,
				"element": "F" 
			},
			{
				"x": 1.1741557108,
				"y": 2.5526831133,
				"z": -1.0091883307,
				"element": "C" 
			},
			{
				"x": 0.530327577,
				"y": 2.0031043925,
				"z": 0.0937669693,
				"element": "C" 
			},
			{
				"x": -0.8564984768,
				"y": -3.0500366996,
				"z": 0.1831670451,
				"element": "N" 
			},
			{
				"x": -3.1551444751,
				"y": -4.5352768739,
				"z": -1.5941885747,
				"element": "H" 
			},
			{
				"x": -1.4714291167,
				"y": -4.7906887785,
				"z": -1.5983303977,
				"element": "H" 
			},
			{
				"x": -0.4690440883,
				"y": -1.2322775198,
				"z": 2.7769990098,
				"element": "H" 
			},
			{
				"x": 0.827995773,
				"y": -1.6351721974,
				"z": 1.6285800965,
				"element": "H" 
			},
			{
				"x": 1.0337676129,
				"y": -1.3087817037,
				"z": -0.5819286944,
				"element": "H" 
			},
			{
				"x": 2.1994676136,
				"y": -0.3104459111,
				"z": -2.5298052888,
				"element": "H" 
			},
			{
				"x": 1.2213174689,
				"y": 3.6260571106,
				"z": -1.1573319181,
				"element": "H" 
			},
			{
				"x": 0.0577273913,
				"y": 2.634829703,
				"z": 0.8381542289,
				"element": "H" 
			}
		],
		 "valence_orbital": [ 
			{
				"type": "occ",
				"energy": -0.31119,
				"method": "rhf"
			},
			{
				"type": "occ",
				"energy": -0.30183,
				"method": "rhf"
			},
			{
				"type": "occ",
				"energy": -0.26312,
				"method": "rhf"
			},
			{
				"type": "occ",
				"energy": -0.2475,
				"method": "rhf"
			},
			{
				"type": "occ",
				"energy": -0.22347,
				"method": "rhf"
			},
			{
				"type": "unocc",
				"energy": -0.0301,
				"method": "rhf"
			},
			{
				"type": "unocc",
				"energy": -0.01354,
				"method": "rhf"
			},
			{
				"type": "unocc",
				"energy": 0.01115,
				"method": "rhf"
			},
			{
				"type": "unocc",
				"energy": 0.048,
				"method": "rhf"
			},
			{
				"type": "unocc",
				"energy": 0.06413,
				"method": "rhf"
			}
		],
		"cosmo_sigma_profile": { 
			"-0.025": 0.0,
			"-0.024": 0.0,
			"-0.023": 0.0,
			"-0.022": 0.0,
			"-0.021": 0.0,
			"-0.02": 0.0,
			"-0.019": 0.0,
			"-0.018": 0.0,
			"-0.017": 0.0,
			"-0.016": 0.0,
			"-0.015": 0.447434521951,
			"-0.014": 2.38872722056,
			"-0.013": 2.66919273605,
			"-0.012": 2.08314605058,
			"-0.011": 1.87129606821,
			"-0.01": 3.11966666623,
			"-0.009": 4.36452990948,
			"-0.008": 6.54583457125,
			"-0.007": 11.0929771169,
			"-0.006": 12.0960479202,
			"-0.005": 11.3522699578,
			"-0.004": 10.7356356544,
			"-0.003": 10.2031501392,
			"-0.002": 10.9977335001,
			"-0.001": 9.31543000903,
			"0.0": 12.1080115868,
			"0.001": 16.9760451515,
			"0.002": 17.0942589871,
			"0.003": 19.8041823498,
			"0.004": 21.5836305738,
			"0.005": 12.463243373,
			"0.006": 6.19036925587,
			"0.007": 8.14418118572,
			"0.008": 4.87875753895,
			"0.009": 3.47946048787,
			"0.01": 3.13394318197,
			"0.011": 2.82986426582,
			"0.012": 1.862587588,
			"0.013": 2.35908076142,
			"0.014": 0.772562715258,
			"0.015": 0.0,
			"0.016": 0.0,
			"0.017": 0.0,
			"0.018": 0.0,
			"0.019": 0.0,
			"0.02": 0.0,
			"0.021": 0.0,
			"0.022": 0.0,
			"0.023": 0.0,
			"0.024": 0.0,
			"0.025": 0.0
		}
	}
}
