{
	 "smiles": "COCCCN1C(=CC2=C1N(C)C(=O)N(C)C2=O)C(O)=O", 
	 "Tm": 439.15, 
	 "num_atms": 38, 
	 "gaussian": { 
		 "optdone": 1, 
		 "sigma_profile": "yes", 
		 "theory": "DFT", 
		 "functional": "B3LYP", 
		 "basiset": "6-31G**", 
		 "properties": { 
			 "R2extent": 6174.7185, 
			 "electric_dipole_moment_norm": 5.72926980426, 
			 "electric_quadrupole_moment_norm": 14.9948752389, 
			 "total_energy": -1046.04002082, 
			 "HOMO_LUMO_gap": 0.17414, 
			 "cosmo_polarized_energy": -19.89, 
			 "cosmo_cavitation_energy": 39.95, 
			 "cosmo_dispersion_energy": -27.51, 
			 "cosmo_repulsion_energy": 2.08, 
			 "cosmo_total_nonelectrostatic_energy": 14.52, 
			 "SMD_solvation_energy": 9.45 
		},
		"coords": [
			{
				"x": -1.0503368675,
				"y": -3.952579164,
				"z": -0.4663567454,
				"element": "C" 
			},
			{
				"x": -1.0035941145,
				"y": -3.042542673,
				"z": 0.6176248019,
				"element": "O" 
			},
			{
				"x": -1.8771607148,
				"y": -1.9371234794,
				"z": 0.4449580864,
				"element": "C" 
			},
			{
				"x": -1.7902149587,
				"y": -1.0405129001,
				"z": 1.6724874061,
				"element": "C" 
			},
			{
				"x": -0.4026494544,
				"y": -0.4364894465,
				"z": 1.9398090234,
				"element": "C" 
			},
			{
				"x": 0.0754003888,
				"y": 0.4383662536,
				"z": 0.8509117956,
				"element": "N" 
			},
			{
				"x": -0.5388339444,
				"y": 1.6777999821,
				"z": 0.5226001634,
				"element": "C" 
			},
			{
				"x": -0.0857643809,
				"y": 2.0841678842,
				"z": -0.713585042,
				"element": "C" 
			},
			{
				"x": 0.821812336,
				"y": 1.111421953,
				"z": -1.1711940052,
				"element": "C" 
			},
			{
				"x": 0.9116210468,
				"y": 0.1186119509,
				"z": -0.1897619829,
				"element": "C" 
			},
			{
				"x": 1.7629879553,
				"y": -0.9620105329,
				"z": -0.3307124791,
				"element": "N" 
			},
			{
				"x": 2.1245043448,
				"y": -1.8909192456,
				"z": 0.7492663416,
				"element": "C" 
			},
			{
				"x": 2.4914067145,
				"y": -1.1134029478,
				"z": -1.5329236039,
				"element": "C" 
			},
			{
				"x": 3.2413641025,
				"y": -2.0656263442,
				"z": -1.6995602687,
				"element": "O" 
			},
			{
				"x": 2.3383572959,
				"y": -0.141403234,
				"z": -2.5160861241,
				"element": "N" 
			},
			{
				"x": 3.1146421364,
				"y": -0.354944141,
				"z": -3.7424665433,
				"element": "C" 
			},
			{
				"x": 1.5568365758,
				"y": 1.0372180965,
				"z": -2.4116563403,
				"element": "C" 
			},
			{
				"x": 1.5223255654,
				"y": 1.864733664,
				"z": -3.3112000357,
				"element": "O" 
			},
			{
				"x": -1.4376374548,
				"y": 2.4903196867,
				"z": 1.3385920999,
				"element": "C" 
			},
			{
				"x": -1.6775830208,
				"y": 2.021435067,
				"z": 2.5986996629,
				"element": "O" 
			},
			{
				"x": -1.9409214706,
				"y": 3.5279402029,
				"z": 0.9488789042,
				"element": "O" 
			},
			{
				"x": -0.3508541634,
				"y": -4.7612552399,
				"z": -0.2435569309,
				"element": "H" 
			},
			{
				"x": -0.7537995255,
				"y": -3.4752018528,
				"z": -1.4123711485,
				"element": "H" 
			},
			{
				"x": -2.0581146041,
				"y": -4.3764057359,
				"z": -0.5920895299,
				"element": "H" 
			},
			{
				"x": -1.6134306977,
				"y": -1.3784729883,
				"z": -0.4684471296,
				"element": "H" 
			},
			{
				"x": -2.914114303,
				"y": -2.2887752177,
				"z": 0.3191385634,
				"element": "H" 
			},
			{
				"x": -2.0649175763,
				"y": -1.626436755,
				"z": 2.5578017675,
				"element": "H" 
			},
			{
				"x": -2.5292352896,
				"y": -0.2393065629,
				"z": 1.5795755839,
				"element": "H" 
			},
			{
				"x": -0.4357318143,
				"y": 0.1600470921,
				"z": 2.8498547167,
				"element": "H" 
			},
			{
				"x": 0.3185000011,
				"y": -1.2307486478,
				"z": 2.0858803708,
				"element": "H" 
			},
			{
				"x": -0.3634455829,
				"y": 3.0005734892,
				"z": -1.210970654,
				"element": "H" 
			},
			{
				"x": 2.4080645107,
				"y": -1.3299060074,
				"z": 1.6440832357,
				"element": "H" 
			},
			{
				"x": 1.29966472,
				"y": -2.5723776997,
				"z": 0.9646252197,
				"element": "H" 
			},
			{
				"x": 2.9792592646,
				"y": -2.4617837329,
				"z": 0.3938051534,
				"element": "H" 
			},
			{
				"x": 4.182494983,
				"y": -0.3749880654,
				"z": -3.5140891174,
				"element": "H" 
			},
			{
				"x": 2.8415485502,
				"y": -1.3103594166,
				"z": -4.1946824944,
				"element": "H" 
			},
			{
				"x": 2.8833966562,
				"y": 0.4695718101,
				"z": -4.4131144606,
				"element": "H" 
			},
			{
				"x": -2.2718472098,
				"y": 2.6781648985,
				"z": 2.9987317396,
				"element": "H" 
			}
		],
		 "valence_orbital": [ 
			{
				"type": "occ",
				"energy": -0.27365,
				"method": "rhf"
			},
			{
				"type": "occ",
				"energy": -0.2684,
				"method": "rhf"
			},
			{
				"type": "occ",
				"energy": -0.2648,
				"method": "rhf"
			},
			{
				"type": "occ",
				"energy": -0.25754,
				"method": "rhf"
			},
			{
				"type": "occ",
				"energy": -0.21614,
				"method": "rhf"
			},
			{
				"type": "unocc",
				"energy": -0.042,
				"method": "rhf"
			},
			{
				"type": "unocc",
				"energy": -0.01286,
				"method": "rhf"
			},
			{
				"type": "unocc",
				"energy": 0.02321,
				"method": "rhf"
			},
			{
				"type": "unocc",
				"energy": 0.06304,
				"method": "rhf"
			},
			{
				"type": "unocc",
				"energy": 0.07418,
				"method": "rhf"
			}
		],
		"cosmo_sigma_profile": { 
			"-0.025": 0.0,
			"-0.024": 0.0,
			"-0.023": 0.0,
			"-0.022": 0.0,
			"-0.021": 0.0,
			"-0.02": 0.0,
			"-0.019": 0.0,
			"-0.018": 0.53880865303,
			"-0.017": 0.941442439461,
			"-0.016": 0.748145365001,
			"-0.015": 1.1874130948,
			"-0.014": 0.799381801158,
			"-0.013": 0.348769796258,
			"-0.012": 0.108990763471,
			"-0.011": 0.84543889131,
			"-0.01": 1.09892742975,
			"-0.009": 0.78171820928,
			"-0.008": 0.931767987367,
			"-0.007": 6.17184054121,
			"-0.006": 7.26918146588,
			"-0.005": 16.9754469565,
			"-0.004": 36.4298978124,
			"-0.003": 47.2009176427,
			"-0.002": 41.5344801672,
			"-0.001": 26.0239518782,
			"0.0": 17.0054950726,
			"0.001": 15.4073852472,
			"0.002": 14.6142541365,
			"0.003": 11.3338709068,
			"0.004": 7.93456197988,
			"0.005": 6.32320446046,
			"0.006": 5.35689999029,
			"0.007": 5.36063006241,
			"0.008": 3.85383254945,
			"0.009": 5.89339190948,
			"0.01": 5.44771332139,
			"0.011": 7.92316021191,
			"0.012": 13.7174994214,
			"0.013": 5.57916454624,
			"0.014": 0.308457018978,
			"0.015": 0.0,
			"0.016": 0.0,
			"0.017": 0.0,
			"0.018": 0.0,
			"0.019": 0.0,
			"0.02": 0.0,
			"0.021": 0.0,
			"0.022": 0.0,
			"0.023": 0.0,
			"0.024": 0.0,
			"0.025": 0.0
		}
	}
}
