{
	 "smiles": "O=CC1=CC=CC2=C1N=CC=C2", 
	 "Tm": 366.15, 
	 "num_atms": 19, 
	 "gaussian": { 
		 "optdone": 1, 
		 "sigma_profile": "yes", 
		 "theory": "DFT", 
		 "functional": "B3LYP", 
		 "basiset": "6-31G**", 
		 "properties": { 
			 "R2extent": 2545.4353, 
			 "electric_dipole_moment_norm": 5.03112348884, 
			 "electric_quadrupole_moment_norm": 10.1470540868, 
			 "total_energy": -515.253444545, 
			 "HOMO_LUMO_gap": 0.15969, 
			 "cosmo_polarized_energy": -9.74, 
			 "cosmo_cavitation_energy": 23.49, 
			 "cosmo_dispersion_energy": -17.49, 
			 "cosmo_repulsion_energy": 1.36, 
			 "cosmo_total_nonelectrostatic_energy": 7.35, 
			 "SMD_solvation_energy": 3.95 
		},
		"coords": [
			{
				"x": 1.2159989232,
				"y": -2.4336496185,
				"z": -1.4576513917,
				"element": "O" 
			},
			{
				"x": 0.6910575963,
				"y": -1.4398197668,
				"z": -0.9847279812,
				"element": "C" 
			},
			{
				"x": 1.4238022459,
				"y": -0.1651896648,
				"z": -0.7598098095,
				"element": "C" 
			},
			{
				"x": 2.7644144035,
				"y": -0.0890251222,
				"z": -1.0986696741,
				"element": "C" 
			},
			{
				"x": 3.5021775154,
				"y": 1.0966254778,
				"z": -0.9046925778,
				"element": "C" 
			},
			{
				"x": 2.8913876971,
				"y": 2.2105955553,
				"z": -0.3681812172,
				"element": "C" 
			},
			{
				"x": 1.5199618336,
				"y": 2.1799757846,
				"z": -0.0057661911,
				"element": "C" 
			},
			{
				"x": 0.7659696133,
				"y": 0.9770458999,
				"z": -0.2011119183,
				"element": "C" 
			},
			{
				"x": -0.5544508728,
				"y": 0.887467719,
				"z": 0.127812386,
				"element": "N" 
			},
			{
				"x": -1.1409742785,
				"y": 1.9504005615,
				"z": 0.6407853859,
				"element": "C" 
			},
			{
				"x": -0.487229524,
				"y": 3.1860808485,
				"z": 0.8742752935,
				"element": "C" 
			},
			{
				"x": 0.8434755107,
				"y": 3.2964769992,
				"z": 0.5494660537,
				"element": "C" 
			},
			{
				"x": -0.3728896971,
				"y": -1.4294115058,
				"z": -0.6918318967,
				"element": "H" 
			},
			{
				"x": 3.2304639409,
				"y": -0.9747759438,
				"z": -1.5199019323,
				"element": "H" 
			},
			{
				"x": 4.5521416622,
				"y": 1.1288588602,
				"z": -1.1792439224,
				"element": "H" 
			},
			{
				"x": 3.4527070585,
				"y": 3.1290930167,
				"z": -0.2151369306,
				"element": "H" 
			},
			{
				"x": -2.1957971742,
				"y": 1.8456711892,
				"z": 0.892547103,
				"element": "H" 
			},
			{
				"x": -1.038413578,
				"y": 4.0178943645,
				"z": 1.3007773281,
				"element": "H" 
			},
			{
				"x": 1.3873971239,
				"y": 4.2239853455,
				"z": 0.7102618926,
				"element": "H" 
			}
		],
		 "valence_orbital": [ 
			{
				"type": "occ",
				"energy": -0.3149,
				"method": "rhf"
			},
			{
				"type": "occ",
				"energy": -0.27564,
				"method": "rhf"
			},
			{
				"type": "occ",
				"energy": -0.26465,
				"method": "rhf"
			},
			{
				"type": "occ",
				"energy": -0.2454,
				"method": "rhf"
			},
			{
				"type": "occ",
				"energy": -0.23908,
				"method": "rhf"
			},
			{
				"type": "unocc",
				"energy": -0.07939,
				"method": "rhf"
			},
			{
				"type": "unocc",
				"energy": -0.03123,
				"method": "rhf"
			},
			{
				"type": "unocc",
				"energy": -0.02798,
				"method": "rhf"
			},
			{
				"type": "unocc",
				"energy": 0.04341,
				"method": "rhf"
			},
			{
				"type": "unocc",
				"energy": 0.08554,
				"method": "rhf"
			}
		],
		"cosmo_sigma_profile": { 
			"-0.025": 0.0,
			"-0.024": 0.0,
			"-0.023": 0.0,
			"-0.022": 0.0,
			"-0.021": 0.0,
			"-0.02": 0.0,
			"-0.019": 0.0,
			"-0.018": 0.0,
			"-0.017": 0.0,
			"-0.016": 0.0,
			"-0.015": 0.0,
			"-0.014": 0.0,
			"-0.013": 0.0,
			"-0.012": 0.0,
			"-0.011": 0.0,
			"-0.01": 0.0,
			"-0.009": 0.00588555896622,
			"-0.008": 2.72476594875,
			"-0.007": 10.411050524,
			"-0.006": 13.8570699152,
			"-0.005": 12.8617730764,
			"-0.004": 10.9217570145,
			"-0.003": 12.532390631,
			"-0.002": 10.7813437303,
			"-0.001": 11.3473074515,
			"0.0": 17.7627234499,
			"0.001": 25.9839531467,
			"0.002": 18.9683874318,
			"0.003": 9.52168517473,
			"0.004": 4.35111404435,
			"0.005": 3.35565021138,
			"0.006": 2.28612134862,
			"0.007": 3.06469181151,
			"0.008": 3.08406693395,
			"0.009": 3.59171282799,
			"0.01": 3.03795047036,
			"0.011": 4.66961711353,
			"0.012": 3.59054776927,
			"0.013": 1.01589667174,
			"0.014": 0.0456536165606,
			"0.015": 0.0,
			"0.016": 0.0,
			"0.017": 0.0,
			"0.018": 0.0,
			"0.019": 0.0,
			"0.02": 0.0,
			"0.021": 0.0,
			"0.022": 0.0,
			"0.023": 0.0,
			"0.024": 0.0,
			"0.025": 0.0
		}
	}
}
