{
	 "smiles": "O=S(=O)(CC1=NC2=C(N1)C=CC=C2)C1=CC=CC=C1", 
	 "Tm": 489.15, 
	 "num_atms": 31, 
	 "gaussian": { 
		 "optdone": 1, 
		 "sigma_profile": "yes", 
		 "theory": "DFT", 
		 "functional": "B3LYP", 
		 "basiset": "6-31G**", 
		 "properties": { 
			 "R2extent": 6065.7281, 
			 "electric_dipole_moment_norm": 2.98254942457, 
			 "electric_quadrupole_moment_norm": 23.3644717916, 
			 "total_energy": -1198.81422779, 
			 "HOMO_LUMO_gap": 0.17973, 
			 "cosmo_polarized_energy": -17.66, 
			 "cosmo_cavitation_energy": 36.6, 
			 "cosmo_dispersion_energy": -26.21, 
			 "cosmo_repulsion_energy": 1.97, 
			 "cosmo_total_nonelectrostatic_energy": 12.36, 
			 "SMD_solvation_energy": 2.97 
		},
		"coords": [
			{
				"x": 0.3747918548,
				"y": 2.9718338011,
				"z": 0.1841388001,
				"element": "O" 
			},
			{
				"x": -1.1000778695,
				"y": 2.8832788203,
				"z": 0.1129006705,
				"element": "S" 
			},
			{
				"x": -1.9349094859,
				"y": 4.0753960142,
				"z": 0.3195339512,
				"element": "O" 
			},
			{
				"x": -1.6045380428,
				"y": 1.6632852741,
				"z": 1.3888063877,
				"element": "C" 
			},
			{
				"x": -0.8249402013,
				"y": 0.39364381,
				"z": 1.3748943042,
				"element": "C" 
			},
			{
				"x": -1.3636096039,
				"y": -0.8034693261,
				"z": 1.350159715,
				"element": "N" 
			},
			{
				"x": -0.2849031615,
				"y": -1.6761234116,
				"z": 1.3905941003,
				"element": "C" 
			},
			{
				"x": 0.9336878525,
				"y": -0.9524841059,
				"z": 1.4324837162,
				"element": "C" 
			},
			{
				"x": 0.5515847517,
				"y": 0.3763764933,
				"z": 1.4397295169,
				"element": "N" 
			},
			{
				"x": 2.1799485756,
				"y": -1.5832295461,
				"z": 1.4616049015,
				"element": "C" 
			},
			{
				"x": 2.1758444075,
				"y": -2.9752847276,
				"z": 1.4538863296,
				"element": "C" 
			},
			{
				"x": 0.9729257509,
				"y": -3.7114731548,
				"z": 1.4188269779,
				"element": "C" 
			},
			{
				"x": -0.2640583075,
				"y": -3.0774123554,
				"z": 1.3874895501,
				"element": "C" 
			},
			{
				"x": -1.547006861,
				"y": 2.1411852984,
				"z": -1.4596180353,
				"element": "C" 
			},
			{
				"x": -2.7974023013,
				"y": 2.4361996935,
				"z": -2.0075689096,
				"element": "C" 
			},
			{
				"x": -3.1523951264,
				"y": 1.8524690141,
				"z": -3.223407651,
				"element": "C" 
			},
			{
				"x": -2.2648369458,
				"y": 0.9898974239,
				"z": -3.8717307959,
				"element": "C" 
			},
			{
				"x": -1.0145545662,
				"y": 0.7109347036,
				"z": -3.3146892841,
				"element": "C" 
			},
			{
				"x": -0.6449081089,
				"y": 1.2893686294,
				"z": -2.1004627288,
				"element": "C" 
			},
			{
				"x": -2.6650113026,
				"y": 1.4480286814,
				"z": 1.2530843744,
				"element": "H" 
			},
			{
				"x": -1.4693755877,
				"y": 2.2314150352,
				"z": 2.3167127751,
				"element": "H" 
			},
			{
				"x": 1.1283404823,
				"y": 1.199604897,
				"z": 1.3200484046,
				"element": "H" 
			},
			{
				"x": 3.1076721026,
				"y": -1.0201521469,
				"z": 1.4925738481,
				"element": "H" 
			},
			{
				"x": 3.1221519372,
				"y": -3.5075562783,
				"z": 1.4779700839,
				"element": "H" 
			},
			{
				"x": 1.0191666119,
				"y": -4.7964190464,
				"z": 1.4167928193,
				"element": "H" 
			},
			{
				"x": -1.1930303793,
				"y": -3.637574687,
				"z": 1.3591218898,
				"element": "H" 
			},
			{
				"x": -3.4623858083,
				"y": 3.1233458463,
				"z": -1.4956052621,
				"element": "H" 
			},
			{
				"x": -4.1183752589,
				"y": 2.0750575465,
				"z": -3.666038907,
				"element": "H" 
			},
			{
				"x": -2.5466088083,
				"y": 0.5374622332,
				"z": -4.8179256202,
				"element": "H" 
			},
			{
				"x": -0.3248649149,
				"y": 0.0468772071,
				"z": -3.8262999864,
				"element": "H" 
			},
			{
				"x": 0.3283783149,
				"y": 1.0988183634,
				"z": -1.6627059362,
				"element": "H" 
			}
		],
		 "valence_orbital": [ 
			{
				"type": "occ",
				"energy": -0.2813,
				"method": "rhf"
			},
			{
				"type": "occ",
				"energy": -0.27802,
				"method": "rhf"
			},
			{
				"type": "occ",
				"energy": -0.27636,
				"method": "rhf"
			},
			{
				"type": "occ",
				"energy": -0.23067,
				"method": "rhf"
			},
			{
				"type": "occ",
				"energy": -0.22739,
				"method": "rhf"
			},
			{
				"type": "unocc",
				"energy": -0.04766,
				"method": "rhf"
			},
			{
				"type": "unocc",
				"energy": -0.02961,
				"method": "rhf"
			},
			{
				"type": "unocc",
				"energy": -0.02346,
				"method": "rhf"
			},
			{
				"type": "unocc",
				"energy": 0.01708,
				"method": "rhf"
			},
			{
				"type": "unocc",
				"energy": 0.0362,
				"method": "rhf"
			}
		],
		"cosmo_sigma_profile": { 
			"-0.025": 0.0,
			"-0.024": 0.0,
			"-0.023": 0.0,
			"-0.022": 0.0,
			"-0.021": 0.0,
			"-0.02": 0.0,
			"-0.019": 0.0,
			"-0.018": 0.0,
			"-0.017": 0.0,
			"-0.016": 0.0,
			"-0.015": 0.0299475849545,
			"-0.014": 0.281432137385,
			"-0.013": 0.732952775535,
			"-0.012": 1.35460063925,
			"-0.011": 0.9599654217,
			"-0.01": 3.5704133312,
			"-0.009": 5.86885893804,
			"-0.008": 5.31337484294,
			"-0.007": 12.4318178638,
			"-0.006": 21.5398529068,
			"-0.005": 22.5400207726,
			"-0.004": 19.3552986464,
			"-0.003": 17.881978045,
			"-0.002": 14.4043232157,
			"-0.001": 14.6742409017,
			"0.0": 17.2649191157,
			"0.001": 19.4502101066,
			"0.002": 22.3307753437,
			"0.003": 22.0873589524,
			"0.004": 14.1113124618,
			"0.005": 12.5578017552,
			"0.006": 8.8501376016,
			"0.007": 4.81346680325,
			"0.008": 4.59011486292,
			"0.009": 4.06367077068,
			"0.01": 6.48455366352,
			"0.011": 8.86802569428,
			"0.012": 3.98260739336,
			"0.013": 0.575295897223,
			"0.014": 0.739113360145,
			"0.015": 0.99019474849,
			"0.016": 0.910274349975,
			"0.017": 0.43660308941,
			"0.018": 0.0,
			"0.019": 0.0,
			"0.02": 0.0,
			"0.021": 0.0,
			"0.022": 0.0,
			"0.023": 0.0,
			"0.024": 0.0,
			"0.025": 0.0
		}
	}
}
