{
	 "smiles": "COC(N)=O", 
	 "Tm": 327.65, 
	 "num_atms": 10, 
	 "gaussian": { 
		 "optdone": 1, 
		 "sigma_profile": "yes", 
		 "theory": "DFT", 
		 "functional": "B3LYP", 
		 "basiset": "6-31G**", 
		 "properties": { 
			 "R2extent": 780.5581, 
			 "electric_dipole_moment_norm": 2.38042162232, 
			 "electric_quadrupole_moment_norm": 7.65033464105, 
			 "total_energy": -284.442903523, 
			 "HOMO_LUMO_gap": 0.32955, 
			 "cosmo_polarized_energy": -10.22, 
			 "cosmo_cavitation_energy": 14.0, 
			 "cosmo_dispersion_energy": -10.64, 
			 "cosmo_repulsion_energy": 0.98, 
			 "cosmo_total_nonelectrostatic_energy": 4.34, 
			 "SMD_solvation_energy": 4.65 
		},
		"coords": [
			{
				"x": 2.0650598189,
				"y": -0.6791934668,
				"z": -0.5638714297,
				"element": "C" 
			},
			{
				"x": 1.2018348061,
				"y": -0.9758735765,
				"z": -1.668171744,
				"element": "O" 
			},
			{
				"x": -0.1189610938,
				"y": -1.0472985745,
				"z": -1.346172893,
				"element": "C" 
			},
			{
				"x": -0.8530369411,
				"y": -1.3326989502,
				"z": -2.4580373908,
				"element": "N" 
			},
			{
				"x": -0.5676593016,
				"y": -0.8799695957,
				"z": -0.2285386561,
				"element": "O" 
			},
			{
				"x": 3.0734991464,
				"y": -0.6567181967,
				"z": -0.978110873,
				"element": "H" 
			},
			{
				"x": 1.8136831765,
				"y": 0.2882224243,
				"z": -0.1211396155,
				"element": "H" 
			},
			{
				"x": 1.9880509201,
				"y": -1.4483805843,
				"z": 0.2091181487,
				"element": "H" 
			},
			{
				"x": -1.8499040721,
				"y": -1.4145201439,
				"z": -2.3609178348,
				"element": "H" 
			},
			{
				"x": -0.4137664594,
				"y": -1.4589693357,
				"z": -3.3538577118,
				"element": "H" 
			}
		],
		 "valence_orbital": [ 
			{
				"type": "occ",
				"energy": -0.40007,
				"method": "rhf"
			},
			{
				"type": "occ",
				"energy": -0.35512,
				"method": "rhf"
			},
			{
				"type": "occ",
				"energy": -0.29111,
				"method": "rhf"
			},
			{
				"type": "occ",
				"energy": -0.26873,
				"method": "rhf"
			},
			{
				"type": "occ",
				"energy": -0.26713,
				"method": "rhf"
			},
			{
				"type": "unocc",
				"energy": 0.06242,
				"method": "rhf"
			},
			{
				"type": "unocc",
				"energy": 0.08051,
				"method": "rhf"
			},
			{
				"type": "unocc",
				"energy": 0.1215,
				"method": "rhf"
			},
			{
				"type": "unocc",
				"energy": 0.12791,
				"method": "rhf"
			},
			{
				"type": "unocc",
				"energy": 0.15503,
				"method": "rhf"
			}
		],
		"cosmo_sigma_profile": { 
			"-0.025": 0.0,
			"-0.024": 0.0,
			"-0.023": 0.0,
			"-0.022": 0.0,
			"-0.021": 0.0,
			"-0.02": 0.0,
			"-0.019": 0.0,
			"-0.018": 0.0,
			"-0.017": 0.0,
			"-0.016": 0.0,
			"-0.015": 0.515280223689,
			"-0.014": 2.15899175979,
			"-0.013": 2.28229437163,
			"-0.012": 1.77013071736,
			"-0.011": 1.78668238834,
			"-0.01": 2.16551814929,
			"-0.009": 2.40578525209,
			"-0.008": 1.15989373384,
			"-0.007": 1.63951617894,
			"-0.006": 3.37353902676,
			"-0.005": 7.76892901929,
			"-0.004": 7.9973647905,
			"-0.003": 10.3434886717,
			"-0.002": 7.03919177093,
			"-0.001": 5.22008226526,
			"0.0": 5.44770758719,
			"0.001": 4.41900946263,
			"0.002": 5.7931145959,
			"0.003": 4.87816375728,
			"0.004": 4.69822761286,
			"0.005": 3.72557668118,
			"0.006": 2.27270541035,
			"0.007": 2.60232917862,
			"0.008": 2.631910417,
			"0.009": 2.22213216077,
			"0.01": 1.17892578596,
			"0.011": 1.4137052169,
			"0.012": 2.31640523394,
			"0.013": 4.99528803295,
			"0.014": 3.62925314809,
			"0.015": 0.063307552969,
			"0.016": 0.0,
			"0.017": 0.0,
			"0.018": 0.0,
			"0.019": 0.0,
			"0.02": 0.0,
			"0.021": 0.0,
			"0.022": 0.0,
			"0.023": 0.0,
			"0.024": 0.0,
			"0.025": 0.0
		}
	}
}
