{
	 "smiles": "NNC(=O)C1=CC=C(NS(=O)(=O)C2=CC(=CC=C2)[N+]([O-])=O)C=C1", 
	 "Tm": 354.15, 
	 "num_atms": 35, 
	 "gaussian": { 
		 "optdone": 1, 
		 "sigma_profile": "yes", 
		 "theory": "DFT", 
		 "functional": "B3LYP", 
		 "basiset": "6-31G**", 
		 "properties": { 
			 "R2extent": 7709.4788, 
			 "electric_dipole_moment_norm": 7.17665061502, 
			 "electric_quadrupole_moment_norm": 11.2657000013, 
			 "total_energy": -1495.73013594, 
			 "HOMO_LUMO_gap": 0.13043, 
			 "cosmo_polarized_energy": -27.57, 
			 "cosmo_cavitation_energy": 41.26, 
			 "cosmo_dispersion_energy": -27.98, 
			 "cosmo_repulsion_energy": 2.04, 
			 "cosmo_total_nonelectrostatic_energy": 15.32, 
			 "SMD_solvation_energy": 9.01 
		},
		"coords": [
			{
				"x": 1.7290312132,
				"y": -0.2805939153,
				"z": 2.562619977,
				"element": "N" 
			},
			{
				"x": 2.5823653988,
				"y": -1.3011623163,
				"z": 2.105463003,
				"element": "N" 
			},
			{
				"x": 2.6003228051,
				"y": -1.7247360536,
				"z": 0.7908339572,
				"element": "C" 
			},
			{
				"x": 3.5802810818,
				"y": -2.3234098049,
				"z": 0.3616013528,
				"element": "O" 
			},
			{
				"x": 1.4188443369,
				"y": -1.4244527693,
				"z": -0.0837105263,
				"element": "C" 
			},
			{
				"x": 1.6875477579,
				"y": -1.1558972248,
				"z": -1.4326436735,
				"element": "C" 
			},
			{
				"x": 0.6650309686,
				"y": -0.805658609,
				"z": -2.3100328213,
				"element": "C" 
			},
			{
				"x": -0.6507994569,
				"y": -0.7322452924,
				"z": -1.8378521751,
				"element": "C" 
			},
			{
				"x": -1.6801252537,
				"y": -0.2391608297,
				"z": -2.6987396343,
				"element": "N" 
			},
			{
				"x": -1.6797381661,
				"y": 1.4210767026,
				"z": -3.095918251,
				"element": "S" 
			},
			{
				"x": -0.417132564,
				"y": 1.7088495795,
				"z": -3.7679793404,
				"element": "O" 
			},
			{
				"x": -2.9837493978,
				"y": 1.6606783954,
				"z": -3.7134038529,
				"element": "O" 
			},
			{
				"x": -1.655690943,
				"y": 2.27839032,
				"z": -1.5083868003,
				"element": "C" 
			},
			{
				"x": -0.4812955969,
				"y": 2.2801423787,
				"z": -0.7545322899,
				"element": "C" 
			},
			{
				"x": -0.5395461181,
				"y": 2.8195183346,
				"z": 0.5265251523,
				"element": "C" 
			},
			{
				"x": -1.6983832652,
				"y": 3.3953302959,
				"z": 1.0464994602,
				"element": "C" 
			},
			{
				"x": -2.8429365741,
				"y": 3.4263162677,
				"z": 0.2519439042,
				"element": "C" 
			},
			{
				"x": -2.8338600488,
				"y": 2.849890897,
				"z": -1.0211214565,
				"element": "C" 
			},
			{
				"x": 0.657245972,
				"y": 2.727544429,
				"z": 1.3782058341,
				"element": "N" 
			},
			{
				"x": 0.5320390304,
				"y": 3.0067866594,
				"z": 2.5699956784,
				"element": "O" 
			},
			{
				"x": 1.7053622264,
				"y": 2.3501282977,
				"z": 0.8560912045,
				"element": "O" 
			},
			{
				"x": -0.9393725417,
				"y": -1.0864871931,
				"z": -0.5125278782,
				"element": "C" 
			},
			{
				"x": 0.0901190701,
				"y": -1.42786565,
				"z": 0.3597368975,
				"element": "C" 
			},
			{
				"x": 1.4566458278,
				"y": -0.4811427435,
				"z": 3.5195846384,
				"element": "H" 
			},
			{
				"x": 2.1866886128,
				"y": 0.6294116136,
				"z": 2.5240582778,
				"element": "H" 
			},
			{
				"x": 3.4908587905,
				"y": -1.4239636765,
				"z": 2.5469269852,
				"element": "H" 
			},
			{
				"x": 2.7142149799,
				"y": -1.212842178,
				"z": -1.7777390745,
				"element": "H" 
			},
			{
				"x": 0.8732516491,
				"y": -0.5597380368,
				"z": -3.3444670644,
				"element": "H" 
			},
			{
				"x": -2.6241495708,
				"y": -0.5066055669,
				"z": -2.4313883709,
				"element": "H" 
			},
			{
				"x": 0.443968004,
				"y": 1.8608829843,
				"z": -1.1267042897,
				"element": "H" 
			},
			{
				"x": -1.6871870225,
				"y": 3.7999985837,
				"z": 2.0508388266,
				"element": "H" 
			},
			{
				"x": -3.7496769471,
				"y": 3.8862772764,
				"z": 0.63080817,
				"element": "H" 
			},
			{
				"x": -3.7235789699,
				"y": 2.841119163,
				"z": -1.6416035319,
				"element": "H" 
			},
			{
				"x": -1.9656150046,
				"y": -1.0531589523,
				"z": -0.1551944874,
				"element": "H" 
			},
			{
				"x": -0.1351802845,
				"y": -1.6590213661,
				"z": 1.393012199,
				"element": "H" 
			}
		],
		 "valence_orbital": [ 
			{
				"type": "occ",
				"energy": -0.28811,
				"method": "rhf"
			},
			{
				"type": "occ",
				"energy": -0.26684,
				"method": "rhf"
			},
			{
				"type": "occ",
				"energy": -0.2618,
				"method": "rhf"
			},
			{
				"type": "occ",
				"energy": -0.25262,
				"method": "rhf"
			},
			{
				"type": "occ",
				"energy": -0.24268,
				"method": "rhf"
			},
			{
				"type": "unocc",
				"energy": -0.11225,
				"method": "rhf"
			},
			{
				"type": "unocc",
				"energy": -0.06651,
				"method": "rhf"
			},
			{
				"type": "unocc",
				"energy": -0.04134,
				"method": "rhf"
			},
			{
				"type": "unocc",
				"energy": -0.02752,
				"method": "rhf"
			},
			{
				"type": "unocc",
				"energy": -0.01648,
				"method": "rhf"
			}
		],
		"cosmo_sigma_profile": { 
			"-0.025": 0.0,
			"-0.024": 0.0,
			"-0.023": 0.0,
			"-0.022": 0.0,
			"-0.021": 0.0,
			"-0.02": 0.0,
			"-0.019": 0.0,
			"-0.018": 0.0,
			"-0.017": 0.0100802691443,
			"-0.016": 1.0715653208,
			"-0.015": 1.12097494091,
			"-0.014": 1.24957787926,
			"-0.013": 2.73530251488,
			"-0.012": 3.87321900853,
			"-0.011": 4.17821805886,
			"-0.01": 3.93640299269,
			"-0.009": 7.2782969891,
			"-0.008": 12.9513621545,
			"-0.007": 12.6447662223,
			"-0.006": 13.7401654077,
			"-0.005": 14.3338428946,
			"-0.004": 15.8686287476,
			"-0.003": 16.2220113282,
			"-0.002": 23.5309189453,
			"-0.001": 26.8545664415,
			"0.0": 22.8442366198,
			"0.001": 16.9322259577,
			"0.002": 16.8151247273,
			"0.003": 19.7086608042,
			"0.004": 13.3084493543,
			"0.005": 9.91107561193,
			"0.006": 13.2747207745,
			"0.007": 13.1570110054,
			"0.008": 8.1999594605,
			"0.009": 8.56814288602,
			"0.01": 10.3537647515,
			"0.011": 4.97809778042,
			"0.012": 1.73324206237,
			"0.013": 5.23894674875,
			"0.014": 3.27669982058,
			"0.015": 0.0832521736842,
			"0.016": 0.0,
			"0.017": 0.0,
			"0.018": 0.0,
			"0.019": 0.0,
			"0.02": 0.0,
			"0.021": 0.0,
			"0.022": 0.0,
			"0.023": 0.0,
			"0.024": 0.0,
			"0.025": 0.0
		}
	}
}
