{
	 "smiles": "CCOC(=O)C1CCC(=O)NC1", 
	 "Tm": 340.15, 
	 "num_atms": 25, 
	 "gaussian": { 
		 "optdone": 1, 
		 "sigma_profile": "yes", 
		 "theory": "DFT", 
		 "functional": "B3LYP", 
		 "basiset": "6-31G**", 
		 "properties": { 
			 "R2extent": 2543.5935, 
			 "electric_dipole_moment_norm": 4.96738377217, 
			 "electric_quadrupole_moment_norm": 13.3564392216, 
			 "total_energy": -593.145291543, 
			 "HOMO_LUMO_gap": 0.23667, 
			 "cosmo_polarized_energy": -15.15, 
			 "cosmo_cavitation_energy": 27.49, 
			 "cosmo_dispersion_energy": -19.97, 
			 "cosmo_repulsion_energy": 1.65, 
			 "cosmo_total_nonelectrostatic_energy": 9.17, 
			 "SMD_solvation_energy": 5.44 
		},
		"coords": [
			{
				"x": 0.0311052724,
				"y": 1.1276482294,
				"z": -3.3756503604,
				"element": "C" 
			},
			{
				"x": 0.4050298952,
				"y": -0.0723130571,
				"z": -2.5272037332,
				"element": "C" 
			},
			{
				"x": -0.3844829191,
				"y": -0.0117102867,
				"z": -1.3138782175,
				"element": "O" 
			},
			{
				"x": -0.1696740581,
				"y": -0.9981202086,
				"z": -0.4194171728,
				"element": "C" 
			},
			{
				"x": 0.6165985986,
				"y": -1.9041164264,
				"z": -0.5997287812,
				"element": "O" 
			},
			{
				"x": -1.0781779186,
				"y": -0.8550896819,
				"z": 0.8026531218,
				"element": "C" 
			},
			{
				"x": -0.6995433798,
				"y": -1.8488810834,
				"z": 1.9098579692,
				"element": "C" 
			},
			{
				"x": 0.6647677952,
				"y": -1.5064325003,
				"z": 2.5270373996,
				"element": "C" 
			},
			{
				"x": 0.8993973438,
				"y": -0.0272573254,
				"z": 2.8099189478,
				"element": "C" 
			},
			{
				"x": 1.7685656281,
				"y": 0.359816467,
				"z": 3.5793025529,
				"element": "O" 
			},
			{
				"x": 0.1409532888,
				"y": 0.8634094164,
				"z": 2.0846835074,
				"element": "N" 
			},
			{
				"x": -1.0991239856,
				"y": 0.5700510754,
				"z": 1.3725687711,
				"element": "C" 
			},
			{
				"x": 0.6073257877,
				"y": 1.1166625028,
				"z": -4.3059540683,
				"element": "H" 
			},
			{
				"x": 0.2470630383,
				"y": 2.0620652979,
				"z": -2.8496781055,
				"element": "H" 
			},
			{
				"x": -1.0325489115,
				"y": 1.1122096671,
				"z": -3.6303604362,
				"element": "H" 
			},
			{
				"x": 1.4648836859,
				"y": -0.0725899464,
				"z": -2.2554289317,
				"element": "H" 
			},
			{
				"x": 0.1948262883,
				"y": -1.0188846076,
				"z": -3.0348019433,
				"element": "H" 
			},
			{
				"x": -2.0930789509,
				"y": -1.0707685541,
				"z": 0.4418140338,
				"element": "H" 
			},
			{
				"x": -0.6817721828,
				"y": -2.8673220888,
				"z": 1.5133022243,
				"element": "H" 
			},
			{
				"x": -1.4810124201,
				"y": -1.8115526081,
				"z": 2.6785862628,
				"element": "H" 
			},
			{
				"x": 1.4615169577,
				"y": -1.8183487966,
				"z": 1.8425472614,
				"element": "H" 
			},
			{
				"x": 0.8290220404,
				"y": -2.0419176617,
				"z": 3.4655283974,
				"element": "H" 
			},
			{
				"x": 0.3215454337,
				"y": 1.8277258529,
				"z": 2.3347517042,
				"element": "H" 
			},
			{
				"x": -1.2230674136,
				"y": 1.2970895981,
				"z": 0.5665984504,
				"element": "H" 
			},
			{
				"x": -1.9690189141,
				"y": 0.6634267264,
				"z": 2.0407511459,
				"element": "H" 
			}
		],
		 "valence_orbital": [ 
			{
				"type": "occ",
				"energy": -0.33332,
				"method": "rhf"
			},
			{
				"type": "occ",
				"energy": -0.30739,
				"method": "rhf"
			},
			{
				"type": "occ",
				"energy": -0.27822,
				"method": "rhf"
			},
			{
				"type": "occ",
				"energy": -0.24701,
				"method": "rhf"
			},
			{
				"type": "occ",
				"energy": -0.23551,
				"method": "rhf"
			},
			{
				"type": "unocc",
				"energy": 0.00116,
				"method": "rhf"
			},
			{
				"type": "unocc",
				"energy": 0.03092,
				"method": "rhf"
			},
			{
				"type": "unocc",
				"energy": 0.07716,
				"method": "rhf"
			},
			{
				"type": "unocc",
				"energy": 0.09599,
				"method": "rhf"
			},
			{
				"type": "unocc",
				"energy": 0.11107,
				"method": "rhf"
			}
		],
		"cosmo_sigma_profile": { 
			"-0.025": 0.0,
			"-0.024": 0.0,
			"-0.023": 0.0,
			"-0.022": 0.0,
			"-0.021": 0.0,
			"-0.02": 0.0,
			"-0.019": 0.0,
			"-0.018": 0.0,
			"-0.017": 0.0,
			"-0.016": 0.0,
			"-0.015": 0.0,
			"-0.014": 0.120217887847,
			"-0.013": 1.17635971837,
			"-0.012": 0.826841717895,
			"-0.011": 0.983056342056,
			"-0.01": 1.10361981533,
			"-0.009": 0.992171791728,
			"-0.008": 1.05395927886,
			"-0.007": 3.93631619343,
			"-0.006": 5.29827549576,
			"-0.005": 19.2317049589,
			"-0.004": 27.3428817228,
			"-0.003": 28.9137744592,
			"-0.002": 21.0924687439,
			"-0.001": 20.1132104748,
			"0.0": 14.1486498938,
			"0.001": 8.14492840751,
			"0.002": 7.65458641897,
			"0.003": 6.29776499032,
			"0.004": 4.61920923938,
			"0.005": 4.82073462158,
			"0.006": 3.82451021333,
			"0.007": 2.7263415666,
			"0.008": 2.39927552852,
			"0.009": 3.11758954946,
			"0.01": 3.434001969,
			"0.011": 3.83551295047,
			"0.012": 5.08050323204,
			"0.013": 2.68524949874,
			"0.014": 5.94247865837,
			"0.015": 3.17782335867,
			"0.016": 0.278489986359,
			"0.017": 0.0,
			"0.018": 0.0,
			"0.019": 0.0,
			"0.02": 0.0,
			"0.021": 0.0,
			"0.022": 0.0,
			"0.023": 0.0,
			"0.024": 0.0,
			"0.025": 0.0
		}
	}
}
