{
	 "smiles": "CC1=CC=CC(C)=C1CC(O)=O", 
	 "Tm": 391.15, 
	 "num_atms": 24, 
	 "gaussian": { 
		 "optdone": 1, 
		 "sigma_profile": "yes", 
		 "theory": "DFT", 
		 "functional": "B3LYP", 
		 "basiset": "6-31G**", 
		 "properties": { 
			 "R2extent": 2189.0984, 
			 "electric_dipole_moment_norm": 3.93798858937, 
			 "electric_quadrupole_moment_norm": 12.1339073892, 
			 "total_energy": -538.764198326, 
			 "HOMO_LUMO_gap": 0.23089, 
			 "cosmo_polarized_energy": -16.57, 
			 "cosmo_cavitation_energy": 26.94, 
			 "cosmo_dispersion_energy": -19.16, 
			 "cosmo_repulsion_energy": 1.53, 
			 "cosmo_total_nonelectrostatic_energy": 9.31, 
			 "SMD_solvation_energy": 5.63 
		},
		"coords": [
			{
				"x": 0.9004574331,
				"y": 1.4694183673,
				"z": -1.8248773012,
				"element": "C" 
			},
			{
				"x": 0.3193789675,
				"y": 0.0945073074,
				"z": -1.5841669234,
				"element": "C" 
			},
			{
				"x": -0.4624072372,
				"y": -0.5064322999,
				"z": -2.5770216556,
				"element": "C" 
			},
			{
				"x": -1.0331496693,
				"y": -1.7606864315,
				"z": -2.3777227439,
				"element": "C" 
			},
			{
				"x": -0.83195546,
				"y": -2.4253701528,
				"z": -1.1711833952,
				"element": "C" 
			},
			{
				"x": -0.0554238821,
				"y": -1.8543925081,
				"z": -0.1561326458,
				"element": "C" 
			},
			{
				"x": 0.1203103588,
				"y": -2.6016290179,
				"z": 1.1481672998,
				"element": "C" 
			},
			{
				"x": 0.5328095468,
				"y": -0.5910386116,
				"z": -0.3704815684,
				"element": "C" 
			},
			{
				"x": 1.3913070883,
				"y": 0.0349364634,
				"z": 0.7059351031,
				"element": "C" 
			},
			{
				"x": 0.6535819847,
				"y": 1.0269962196,
				"z": 1.6134362021,
				"element": "C" 
			},
			{
				"x": 1.3737451275,
				"y": 1.450319947,
				"z": 2.6905687813,
				"element": "O" 
			},
			{
				"x": -0.4563960616,
				"y": 1.4524506124,
				"z": 1.4269049431,
				"element": "O" 
			},
			{
				"x": 0.6040802139,
				"y": 1.8487152793,
				"z": -2.806031921,
				"element": "H" 
			},
			{
				"x": 1.9977756927,
				"y": 1.4674743706,
				"z": -1.7954636662,
				"element": "H" 
			},
			{
				"x": 0.5512860897,
				"y": 2.1832058767,
				"z": -1.0713657907,
				"element": "H" 
			},
			{
				"x": -0.6269672682,
				"y": 0.0217527047,
				"z": -3.5124800508,
				"element": "H" 
			},
			{
				"x": -1.6378231793,
				"y": -2.2155601086,
				"z": -3.1572136592,
				"element": "H" 
			},
			{
				"x": -1.2851990886,
				"y": -3.3993737467,
				"z": -1.0065828971,
				"element": "H" 
			},
			{
				"x": -0.2203125362,
				"y": -2.0104987623,
				"z": 2.0060876097,
				"element": "H" 
			},
			{
				"x": -0.4567381528,
				"y": -3.5296961665,
				"z": 1.1411956452,
				"element": "H" 
			},
			{
				"x": 1.1673516812,
				"y": -2.8729713977,
				"z": 1.3344985676,
				"element": "H" 
			},
			{
				"x": 1.8439134501,
				"y": -0.7350242935,
				"z": 1.3406532846,
				"element": "H" 
			},
			{
				"x": 2.2301909905,
				"y": 0.5858460054,
				"z": 0.2608054265,
				"element": "H" 
			},
			{
				"x": 2.2395839104,
				"y": 1.018350343,
				"z": 2.7058713556,
				"element": "H" 
			}
		],
		 "valence_orbital": [ 
			{
				"type": "occ",
				"energy": -0.32995,
				"method": "rhf"
			},
			{
				"type": "occ",
				"energy": -0.31647,
				"method": "rhf"
			},
			{
				"type": "occ",
				"energy": -0.27313,
				"method": "rhf"
			},
			{
				"type": "occ",
				"energy": -0.23749,
				"method": "rhf"
			},
			{
				"type": "occ",
				"energy": -0.23534,
				"method": "rhf"
			},
			{
				"type": "unocc",
				"energy": -0.00445,
				"method": "rhf"
			},
			{
				"type": "unocc",
				"energy": 0.00587,
				"method": "rhf"
			},
			{
				"type": "unocc",
				"energy": 0.01019,
				"method": "rhf"
			},
			{
				"type": "unocc",
				"energy": 0.0522,
				"method": "rhf"
			},
			{
				"type": "unocc",
				"energy": 0.08916,
				"method": "rhf"
			}
		],
		"cosmo_sigma_profile": { 
			"-0.025": 0.0,
			"-0.024": 0.0,
			"-0.023": 0.0,
			"-0.022": 0.0,
			"-0.021": 0.0,
			"-0.02": 0.0,
			"-0.019": 0.477781711735,
			"-0.018": 1.06755659188,
			"-0.017": 1.27516233949,
			"-0.016": 0.987958570311,
			"-0.015": 1.14203732531,
			"-0.014": 1.03100657354,
			"-0.013": 1.59277993111,
			"-0.012": 1.13837745283,
			"-0.011": 0.760459334688,
			"-0.01": 1.19936321944,
			"-0.009": 1.5290647786,
			"-0.008": 2.285961423,
			"-0.007": 3.81674248042,
			"-0.006": 5.99600745224,
			"-0.005": 15.1101510654,
			"-0.004": 17.5256096144,
			"-0.003": 18.2158565729,
			"-0.002": 16.4087718222,
			"-0.001": 16.8894465803,
			"0.0": 18.6952534697,
			"0.001": 11.4533228889,
			"0.002": 8.17403295039,
			"0.003": 8.88550094272,
			"0.004": 7.95756008038,
			"0.005": 8.08712031433,
			"0.006": 8.98268928773,
			"0.007": 6.42361401019,
			"0.008": 3.38945091083,
			"0.009": 3.635231904,
			"0.01": 4.45582649138,
			"0.011": 6.0809003902,
			"0.012": 5.46263238548,
			"0.013": 2.25929047568,
			"0.014": 0.0433430621226,
			"0.015": 0.0,
			"0.016": 0.0,
			"0.017": 0.0,
			"0.018": 0.0,
			"0.019": 0.0,
			"0.02": 0.0,
			"0.021": 0.0,
			"0.022": 0.0,
			"0.023": 0.0,
			"0.024": 0.0,
			"0.025": 0.0
		}
	}
}
