{
	 "smiles": "COC(=O)C1=CC(Cl)=CC(N)=C1", 
	 "Tm": 369.15, 
	 "num_atms": 20, 
	 "gaussian": { 
		 "optdone": 1, 
		 "sigma_profile": "yes", 
		 "theory": "DFT", 
		 "functional": "B3LYP", 
		 "basiset": "6-31G**", 
		 "properties": { 
			 "R2extent": 4869.9504, 
			 "electric_dipole_moment_norm": 4.71448335345, 
			 "electric_quadrupole_moment_norm": 17.7928027303, 
			 "total_energy": -975.079714145, 
			 "HOMO_LUMO_gap": 0.17017, 
			 "cosmo_polarized_energy": -12.5, 
			 "cosmo_cavitation_energy": 26.6, 
			 "cosmo_dispersion_energy": -19.7, 
			 "cosmo_repulsion_energy": 1.59, 
			 "cosmo_total_nonelectrostatic_energy": 8.49, 
			 "SMD_solvation_energy": 5.86 
		},
		"coords": [
			{
				"x": -0.5384892715,
				"y": 0.1185875937,
				"z": 2.8931551386,
				"element": "C" 
			},
			{
				"x": -0.9710400425,
				"y": -0.0990651485,
				"z": 1.5412808522,
				"element": "O" 
			},
			{
				"x": -0.7825459818,
				"y": -1.3546237027,
				"z": 1.0736115319,
				"element": "C" 
			},
			{
				"x": -0.2821739331,
				"y": -2.2406268923,
				"z": 1.7376517212,
				"element": "O" 
			},
			{
				"x": -1.2548305003,
				"y": -1.5181653855,
				"z": -0.3336696456,
				"element": "C" 
			},
			{
				"x": -1.1011102916,
				"y": -2.7837976565,
				"z": -0.9143852312,
				"element": "C" 
			},
			{
				"x": -1.5326109732,
				"y": -2.9554930853,
				"z": -2.2242981828,
				"element": "C" 
			},
			{
				"x": -1.3529012539,
				"y": -4.5297124509,
				"z": -2.9901036922,
				"element": "Cl" 
			},
			{
				"x": -2.1025717451,
				"y": -1.919102657,
				"z": -2.9587989901,
				"element": "C" 
			},
			{
				"x": -2.2540854188,
				"y": -0.6509851547,
				"z": -2.3706970313,
				"element": "C" 
			},
			{
				"x": -2.8727565174,
				"y": 0.3806394327,
				"z": -3.0713866116,
				"element": "N" 
			},
			{
				"x": -1.8232320193,
				"y": -0.4608469753,
				"z": -1.0475162715,
				"element": "C" 
			},
			{
				"x": -0.7613187179,
				"y": 1.1635500522,
				"z": 3.1088374642,
				"element": "H" 
			},
			{
				"x": 0.5329126018,
				"y": -0.0739714772,
				"z": 2.9902316568,
				"element": "H" 
			},
			{
				"x": -1.0772127036,
				"y": -0.538858619,
				"z": 3.5800582569,
				"element": "H" 
			},
			{
				"x": -0.6567656286,
				"y": -3.5897711894,
				"z": -0.3450177961,
				"element": "H" 
			},
			{
				"x": -2.4312089734,
				"y": -2.0942472018,
				"z": -3.9780721387,
				"element": "H" 
			},
			{
				"x": -2.6604706403,
				"y": 1.3142556033,
				"z": -2.7492662583,
				"element": "H" 
			},
			{
				"x": -2.8469130211,
				"y": 0.3058670113,
				"z": -4.0784918932,
				"element": "H" 
			},
			{
				"x": -1.9339749684,
				"y": 0.5077679028,
				"z": -0.5731228792,
				"element": "H" 
			}
		],
		 "valence_orbital": [ 
			{
				"type": "occ",
				"energy": -0.30697,
				"method": "rhf"
			},
			{
				"type": "occ",
				"energy": -0.30249,
				"method": "rhf"
			},
			{
				"type": "occ",
				"energy": -0.2757,
				"method": "rhf"
			},
			{
				"type": "occ",
				"energy": -0.25267,
				"method": "rhf"
			},
			{
				"type": "occ",
				"energy": -0.21822,
				"method": "rhf"
			},
			{
				"type": "unocc",
				"energy": -0.04805,
				"method": "rhf"
			},
			{
				"type": "unocc",
				"energy": -0.00197,
				"method": "rhf"
			},
			{
				"type": "unocc",
				"energy": 0.0318,
				"method": "rhf"
			},
			{
				"type": "unocc",
				"energy": 0.05598,
				"method": "rhf"
			},
			{
				"type": "unocc",
				"energy": 0.07292,
				"method": "rhf"
			}
		],
		"cosmo_sigma_profile": { 
			"-0.025": 0.0,
			"-0.024": 0.0,
			"-0.023": 0.0,
			"-0.022": 0.0,
			"-0.021": 0.0,
			"-0.02": 0.0,
			"-0.019": 0.0,
			"-0.018": 0.0,
			"-0.017": 0.0,
			"-0.016": 0.0,
			"-0.015": 0.0,
			"-0.014": 0.124996353847,
			"-0.013": 2.32919199119,
			"-0.012": 2.85955423464,
			"-0.011": 3.48251002955,
			"-0.01": 3.75528477428,
			"-0.009": 2.91137199344,
			"-0.008": 4.35951798107,
			"-0.007": 3.56735557397,
			"-0.006": 8.59694856236,
			"-0.005": 10.3505947278,
			"-0.004": 12.4142715082,
			"-0.003": 14.1633579538,
			"-0.002": 11.6884400299,
			"-0.001": 11.2802815867,
			"0.0": 10.9985929237,
			"0.001": 16.9932938669,
			"0.002": 21.2401010893,
			"0.003": 25.0834209999,
			"0.004": 15.2701306175,
			"0.005": 10.9787695149,
			"0.006": 3.57804927763,
			"0.007": 2.44286882021,
			"0.008": 1.98518274431,
			"0.009": 2.24550321182,
			"0.01": 2.77840732452,
			"0.011": 3.57611237746,
			"0.012": 4.51400489664,
			"0.013": 0.62464880006,
			"0.014": 0.0472675542528,
			"0.015": 0.0,
			"0.016": 0.0,
			"0.017": 0.0,
			"0.018": 0.0,
			"0.019": 0.0,
			"0.02": 0.0,
			"0.021": 0.0,
			"0.022": 0.0,
			"0.023": 0.0,
			"0.024": 0.0,
			"0.025": 0.0
		}
	}
}
