{
	 "smiles": "OC1CN2CCC1CC2", 
	 "Tm": 494.15, 
	 "num_atms": 22, 
	 "gaussian": { 
		 "optdone": 1, 
		 "sigma_profile": "yes", 
		 "theory": "DFT", 
		 "functional": "B3LYP", 
		 "basiset": "6-31G**", 
		 "properties": { 
			 "R2extent": 1090.3053, 
			 "electric_dipole_moment_norm": 1.05181833508, 
			 "electric_quadrupole_moment_norm": 8.79169897517, 
			 "total_energy": -404.534190185, 
			 "HOMO_LUMO_gap": 0.27347, 
			 "cosmo_polarized_energy": -7.68, 
			 "cosmo_cavitation_energy": 21.51, 
			 "cosmo_dispersion_energy": -16.8, 
			 "cosmo_repulsion_energy": 1.36, 
			 "cosmo_total_nonelectrostatic_energy": 6.07, 
			 "SMD_solvation_energy": -0.53 
		},
		"coords": [
			{
				"x": -0.7585713149,
				"y": -1.6326702828,
				"z": -1.7987529399,
				"element": "O" 
			},
			{
				"x": -0.571589483,
				"y": -0.4459755391,
				"z": -1.0285404537,
				"element": "C" 
			},
			{
				"x": 0.8568009651,
				"y": 0.1696098803,
				"z": -1.1964586795,
				"element": "C" 
			},
			{
				"x": 1.6134156526,
				"y": 0.1888958852,
				"z": 0.062588092,
				"element": "N" 
			},
			{
				"x": 1.7385931045,
				"y": -1.1880000098,
				"z": 0.5754533427,
				"element": "C" 
			},
			{
				"x": 0.3449614372,
				"y": -1.8337117284,
				"z": 0.8501187232,
				"element": "C" 
			},
			{
				"x": -0.7415514992,
				"y": -0.8136958297,
				"z": 0.4536481947,
				"element": "C" 
			},
			{
				"x": -0.5608077855,
				"y": 0.4701950615,
				"z": 1.2877530666,
				"element": "C" 
			},
			{
				"x": 0.8860459955,
				"y": 1.008757852,
				"z": 1.045661542,
				"element": "C" 
			},
			{
				"x": -0.6450848142,
				"y": -1.4039425686,
				"z": -2.7300600848,
				"element": "H" 
			},
			{
				"x": -1.3379855034,
				"y": 0.2979260926,
				"z": -1.3023948399,
				"element": "H" 
			},
			{
				"x": 1.4151893849,
				"y": -0.4296426845,
				"z": -1.9263958324,
				"element": "H" 
			},
			{
				"x": 0.8013030627,
				"y": 1.1966562759,
				"z": -1.5768689906,
				"element": "H" 
			},
			{
				"x": 2.2997294999,
				"y": -1.7690476877,
				"z": -0.1644732029,
				"element": "H" 
			},
			{
				"x": 2.3476166348,
				"y": -1.1515597464,
				"z": 1.4855732126,
				"element": "H" 
			},
			{
				"x": 0.2153052167,
				"y": -2.7503756402,
				"z": 0.2695376451,
				"element": "H" 
			},
			{
				"x": 0.2316691058,
				"y": -2.0956400917,
				"z": 1.9086116135,
				"element": "H" 
			},
			{
				"x": -1.7388271535,
				"y": -1.2390579844,
				"z": 0.605563704,
				"element": "H" 
			},
			{
				"x": -1.3111462467,
				"y": 1.2171768155,
				"z": 1.000562463,
				"element": "H" 
			},
			{
				"x": -0.7270030682,
				"y": 0.2468491974,
				"z": 2.3476883691,
				"element": "H" 
			},
			{
				"x": 0.8654724507,
				"y": 2.0409136261,
				"z": 0.6779310927,
				"element": "H" 
			},
			{
				"x": 1.4663643582,
				"y": 1.011239107,
				"z": 1.9746539626,
				"element": "H" 
			}
		],
		 "valence_orbital": [ 
			{
				"type": "occ",
				"energy": -0.32888,
				"method": "rhf"
			},
			{
				"type": "occ",
				"energy": -0.30164,
				"method": "rhf"
			},
			{
				"type": "occ",
				"energy": -0.29386,
				"method": "rhf"
			},
			{
				"type": "occ",
				"energy": -0.27206,
				"method": "rhf"
			},
			{
				"type": "occ",
				"energy": -0.20073,
				"method": "rhf"
			},
			{
				"type": "unocc",
				"energy": 0.07274,
				"method": "rhf"
			},
			{
				"type": "unocc",
				"energy": 0.08383,
				"method": "rhf"
			},
			{
				"type": "unocc",
				"energy": 0.10729,
				"method": "rhf"
			},
			{
				"type": "unocc",
				"energy": 0.11418,
				"method": "rhf"
			},
			{
				"type": "unocc",
				"energy": 0.13959,
				"method": "rhf"
			}
		],
		"cosmo_sigma_profile": { 
			"-0.025": 0.0,
			"-0.024": 0.0,
			"-0.023": 0.0,
			"-0.022": 0.0,
			"-0.021": 0.0,
			"-0.02": 0.0,
			"-0.019": 0.0,
			"-0.018": 0.0,
			"-0.017": 0.0,
			"-0.016": 0.128198749672,
			"-0.015": 0.754513313979,
			"-0.014": 1.05077958606,
			"-0.013": 0.891407656183,
			"-0.012": 1.02491071808,
			"-0.011": 0.701937952681,
			"-0.01": 0.792386029534,
			"-0.009": 1.19668722792,
			"-0.008": 0.798530603282,
			"-0.007": 0.910678716087,
			"-0.006": 1.12220334438,
			"-0.005": 1.46533738499,
			"-0.004": 4.2529569835,
			"-0.003": 26.2459897076,
			"-0.002": 29.3530759894,
			"-0.001": 23.3823888175,
			"0.0": 21.6732745882,
			"0.001": 14.006910961,
			"0.002": 5.36109729993,
			"0.003": 2.84991608626,
			"0.004": 2.7674498834,
			"0.005": 2.08899788826,
			"0.006": 2.87495238048,
			"0.007": 2.26833393111,
			"0.008": 1.90718127063,
			"0.009": 2.97035570011,
			"0.01": 1.71603748989,
			"0.011": 2.3458293863,
			"0.012": 1.96580034842,
			"0.013": 1.80077581486,
			"0.014": 1.59223009675,
			"0.015": 1.19516234597,
			"0.016": 0.512749450636,
			"0.017": 0.456133502999,
			"0.018": 0.370540611869,
			"0.019": 0.0188854011664,
			"0.02": 0.0,
			"0.021": 0.0,
			"0.022": 0.0,
			"0.023": 0.0,
			"0.024": 0.0,
			"0.025": 0.0
		}
	}
}
