{
	 "smiles": "CC(=O)NNC(N)=S", 
	 "Tm": 441.15, 
	 "num_atms": 15, 
	 "gaussian": { 
		 "optdone": 1, 
		 "sigma_profile": "yes", 
		 "theory": "DFT", 
		 "functional": "B3LYP", 
		 "basiset": "6-31G**", 
		 "properties": { 
			 "R2extent": 1933.9334, 
			 "electric_dipole_moment_norm": 7.22200462545, 
			 "electric_quadrupole_moment_norm": 15.9886620628, 
			 "total_energy": -756.202247743, 
			 "HOMO_LUMO_gap": 0.19485, 
			 "cosmo_polarized_energy": -24.71, 
			 "cosmo_cavitation_energy": 21.44, 
			 "cosmo_dispersion_energy": -15.93, 
			 "cosmo_repulsion_energy": 1.32, 
			 "cosmo_total_nonelectrostatic_energy": 6.83, 
			 "SMD_solvation_energy": 4.34 
		},
		"coords": [
			{
				"x": 1.5066608611,
				"y": 0.7355722437,
				"z": 1.5115127738,
				"element": "C" 
			},
			{
				"x": 0.5614298236,
				"y": -0.021720009,
				"z": 0.5979820691,
				"element": "C" 
			},
			{
				"x": -0.0872225212,
				"y": -0.9890588182,
				"z": 0.9415309011,
				"element": "O" 
			},
			{
				"x": 0.4892216412,
				"y": 0.4882289039,
				"z": -0.7025715834,
				"element": "N" 
			},
			{
				"x": -0.5311702923,
				"y": 0.0397054294,
				"z": -1.5394237378,
				"element": "N" 
			},
			{
				"x": -0.2622756482,
				"y": -0.8789945102,
				"z": -2.5413650529,
				"element": "C" 
			},
			{
				"x": 1.0412725581,
				"y": -1.0168321927,
				"z": -2.8640596779,
				"element": "N" 
			},
			{
				"x": -1.5149187293,
				"y": -1.6580942983,
				"z": -3.3280632925,
				"element": "S" 
			},
			{
				"x": 0.9197666525,
				"y": 1.3198288776,
				"z": 2.2275272606,
				"element": "H" 
			},
			{
				"x": 2.0922963097,
				"y": 0.0111897,
				"z": 2.0808813971,
				"element": "H" 
			},
			{
				"x": 2.1821998341,
				"y": 1.4082316955,
				"z": 0.9761874447,
				"element": "H" 
			},
			{
				"x": 0.7318376716,
				"y": 1.4642739634,
				"z": -0.8360426474,
				"element": "H" 
			},
			{
				"x": -1.4308540999,
				"y": -0.1016924855,
				"z": -1.0927381494,
				"element": "H" 
			},
			{
				"x": 1.7564424099,
				"y": -0.6691343947,
				"z": -2.2412961684,
				"element": "H" 
			},
			{
				"x": 1.2718135292,
				"y": -1.7184041048,
				"z": -3.5484615366,
				"element": "H" 
			}
		],
		 "valence_orbital": [ 
			{
				"type": "occ",
				"energy": -0.31392,
				"method": "rhf"
			},
			{
				"type": "occ",
				"energy": -0.28347,
				"method": "rhf"
			},
			{
				"type": "occ",
				"energy": -0.27975,
				"method": "rhf"
			},
			{
				"type": "occ",
				"energy": -0.21519,
				"method": "rhf"
			},
			{
				"type": "occ",
				"energy": -0.20634,
				"method": "rhf"
			},
			{
				"type": "unocc",
				"energy": -0.01149,
				"method": "rhf"
			},
			{
				"type": "unocc",
				"energy": 0.00055,
				"method": "rhf"
			},
			{
				"type": "unocc",
				"energy": 0.04963,
				"method": "rhf"
			},
			{
				"type": "unocc",
				"energy": 0.07967,
				"method": "rhf"
			},
			{
				"type": "unocc",
				"energy": 0.09256,
				"method": "rhf"
			}
		],
		"cosmo_sigma_profile": { 
			"-0.025": 0.0,
			"-0.024": 0.0,
			"-0.023": 0.0,
			"-0.022": 0.0,
			"-0.021": 0.0,
			"-0.02": 0.0,
			"-0.019": 0.0,
			"-0.018": 0.0,
			"-0.017": 0.0,
			"-0.016": 0.667711048984,
			"-0.015": 2.04796168222,
			"-0.014": 3.09007450289,
			"-0.013": 4.2673300395,
			"-0.012": 3.46585625286,
			"-0.011": 5.12453020213,
			"-0.01": 4.02064422213,
			"-0.009": 3.88065082089,
			"-0.008": 4.54280129828,
			"-0.007": 6.81693470167,
			"-0.006": 9.5713010518,
			"-0.005": 10.1402522993,
			"-0.004": 9.42957273207,
			"-0.003": 9.11900170244,
			"-0.002": 8.36249036137,
			"-0.001": 6.14324466684,
			"0.0": 3.63854102713,
			"0.001": 3.53431094935,
			"0.002": 4.26216465758,
			"0.003": 4.78005073301,
			"0.004": 6.45786694083,
			"0.005": 6.19911625738,
			"0.006": 6.49384058151,
			"0.007": 4.56819603993,
			"0.008": 5.25325621722,
			"0.009": 6.09313757245,
			"0.01": 7.72783619462,
			"0.011": 9.93600460774,
			"0.012": 8.79270774369,
			"0.013": 3.14626674008,
			"0.014": 0.367801549043,
			"0.015": 0.0,
			"0.016": 0.0,
			"0.017": 0.0,
			"0.018": 0.0,
			"0.019": 0.0,
			"0.02": 0.0,
			"0.021": 0.0,
			"0.022": 0.0,
			"0.023": 0.0,
			"0.024": 0.0,
			"0.025": 0.0
		}
	}
}
