{
	 "smiles": "CC1(C)NC(=O)N(CCOC2=CC=C(N)C=C2)C1=O", 
	 "Tm": 421.15, 
	 "num_atms": 36, 
	 "gaussian": { 
		 "optdone": 1, 
		 "sigma_profile": "yes", 
		 "theory": "DFT", 
		 "functional": "B3LYP", 
		 "basiset": "6-31G**", 
		 "properties": { 
			 "R2extent": 5276.1386, 
			 "electric_dipole_moment_norm": 3.74825515807, 
			 "electric_quadrupole_moment_norm": 17.3386743086, 
			 "total_energy": -895.599029093, 
			 "HOMO_LUMO_gap": 0.17656, 
			 "cosmo_polarized_energy": -21.04, 
			 "cosmo_cavitation_energy": 38.81, 
			 "cosmo_dispersion_energy": -25.78, 
			 "cosmo_repulsion_energy": 2.0, 
			 "cosmo_total_nonelectrostatic_energy": 15.04, 
			 "SMD_solvation_energy": 7.41 
		},
		"coords": [
			{
				"x": -1.514567734,
				"y": -1.0024184209,
				"z": -2.6179214173,
				"element": "C" 
			},
			{
				"x": -2.5177608507,
				"y": -0.2700780552,
				"z": -1.709321113,
				"element": "C" 
			},
			{
				"x": -3.9042687568,
				"y": -0.1726954863,
				"z": -2.3595172251,
				"element": "C" 
			},
			{
				"x": -2.5746815539,
				"y": -0.8521107196,
				"z": -0.3658066971,
				"element": "N" 
			},
			{
				"x": -1.9953909085,
				"y": -0.0605364978,
				"z": 0.5896005884,
				"element": "C" 
			},
			{
				"x": -1.7820706979,
				"y": -0.3198433998,
				"z": 1.7617656883,
				"element": "O" 
			},
			{
				"x": -1.6799507541,
				"y": 1.1610326909,
				"z": -0.039941801,
				"element": "N" 
			},
			{
				"x": -1.1250551867,
				"y": 2.3056845774,
				"z": 0.6669699731,
				"element": "C" 
			},
			{
				"x": 0.3252283378,
				"y": 2.1135472011,
				"z": 1.1176103165,
				"element": "C" 
			},
			{
				"x": 1.2007750491,
				"y": 1.9819846551,
				"z": 0.0065339552,
				"element": "O" 
			},
			{
				"x": 1.7620849129,
				"y": 0.7687404304,
				"z": -0.3217811395,
				"element": "C" 
			},
			{
				"x": 1.4445642248,
				"y": -0.4676756621,
				"z": 0.2494131753,
				"element": "C" 
			},
			{
				"x": 2.0983125891,
				"y": -1.6258504233,
				"z": -0.1856787516,
				"element": "C" 
			},
			{
				"x": 3.0726538859,
				"y": -1.5849081658,
				"z": -1.1906889131,
				"element": "C" 
			},
			{
				"x": 3.7734603788,
				"y": -2.7404073559,
				"z": -1.5754012221,
				"element": "N" 
			},
			{
				"x": 3.375329638,
				"y": -0.3354525834,
				"z": -1.7598355824,
				"element": "C" 
			},
			{
				"x": 2.7327836923,
				"y": 0.8191129537,
				"z": -1.3313539574,
				"element": "C" 
			},
			{
				"x": -1.9827392458,
				"y": 1.1409932659,
				"z": -1.3891192752,
				"element": "C" 
			},
			{
				"x": -1.8608101431,
				"y": 2.057744694,
				"z": -2.1757998646,
				"element": "O" 
			},
			{
				"x": -1.8770186874,
				"y": -2.0108508768,
				"z": -2.8457502158,
				"element": "H" 
			},
			{
				"x": -1.4006711816,
				"y": -0.4553454322,
				"z": -3.5574755132,
				"element": "H" 
			},
			{
				"x": -0.5352050451,
				"y": -1.0802184746,
				"z": -2.1375899244,
				"element": "H" 
			},
			{
				"x": -4.6164666002,
				"y": 0.310443898,
				"z": -1.6852581463,
				"element": "H" 
			},
			{
				"x": -4.2826743428,
				"y": -1.1700213124,
				"z": -2.6060117853,
				"element": "H" 
			},
			{
				"x": -3.8385222958,
				"y": 0.4151392537,
				"z": -3.2785448997,
				"element": "H" 
			},
			{
				"x": -2.6636859053,
				"y": -1.8419692843,
				"z": -0.1918230133,
				"element": "H" 
			},
			{
				"x": -1.7433681718,
				"y": 2.51532832,
				"z": 1.5465536649,
				"element": "H" 
			},
			{
				"x": -1.1903561891,
				"y": 3.1476049996,
				"z": -0.0261602881,
				"element": "H" 
			},
			{
				"x": 0.631070489,
				"y": 3.020889906,
				"z": 1.6524421587,
				"element": "H" 
			},
			{
				"x": 0.4055238812,
				"y": 1.2740255673,
				"z": 1.8110993927,
				"element": "H" 
			},
			{
				"x": 0.6905183887,
				"y": -0.5605830221,
				"z": 1.0224014288,
				"element": "H" 
			},
			{
				"x": 1.845078677,
				"y": -2.5770750209,
				"z": 0.2769954572,
				"element": "H" 
			},
			{
				"x": 4.1299914497,
				"y": -2.7119218027,
				"z": -2.521753391,
				"element": "H" 
			},
			{
				"x": 3.2730479622,
				"y": -3.6033601782,
				"z": -1.4072715492,
				"element": "H" 
			},
			{
				"x": 4.1304626361,
				"y": -0.2693399163,
				"z": -2.5395468909,
				"element": "H" 
			},
			{
				"x": 2.9701780577,
				"y": 1.7821896777,
				"z": -1.7715332225,
				"element": "H" 
			}
		],
		 "valence_orbital": [ 
			{
				"type": "occ",
				"energy": -0.27041,
				"method": "rhf"
			},
			{
				"type": "occ",
				"energy": -0.2633,
				"method": "rhf"
			},
			{
				"type": "occ",
				"energy": -0.25932,
				"method": "rhf"
			},
			{
				"type": "occ",
				"energy": -0.24433,
				"method": "rhf"
			},
			{
				"type": "occ",
				"energy": -0.1829,
				"method": "rhf"
			},
			{
				"type": "unocc",
				"energy": -0.00634,
				"method": "rhf"
			},
			{
				"type": "unocc",
				"energy": 0.00319,
				"method": "rhf"
			},
			{
				"type": "unocc",
				"energy": 0.03197,
				"method": "rhf"
			},
			{
				"type": "unocc",
				"energy": 0.05191,
				"method": "rhf"
			},
			{
				"type": "unocc",
				"energy": 0.07549,
				"method": "rhf"
			}
		],
		"cosmo_sigma_profile": { 
			"-0.025": 0.0,
			"-0.024": 0.0,
			"-0.023": 0.0,
			"-0.022": 0.0,
			"-0.021": 0.0,
			"-0.02": 0.0,
			"-0.019": 0.0,
			"-0.018": 0.0,
			"-0.017": 0.0,
			"-0.016": 0.0600687145539,
			"-0.015": 0.944619759286,
			"-0.014": 1.08905142366,
			"-0.013": 1.23488650151,
			"-0.012": 2.14773169681,
			"-0.011": 3.8206540692,
			"-0.01": 3.75703567309,
			"-0.009": 4.71075152714,
			"-0.008": 4.0356002961,
			"-0.007": 6.81380309052,
			"-0.006": 15.2024927278,
			"-0.005": 22.7226978265,
			"-0.004": 24.1720868258,
			"-0.003": 25.4700691103,
			"-0.002": 21.4299443908,
			"-0.001": 23.3645462866,
			"0.0": 22.9721176078,
			"0.001": 13.8718204886,
			"0.002": 13.3826818612,
			"0.003": 12.3695568613,
			"0.004": 13.3791521382,
			"0.005": 12.7474520739,
			"0.006": 12.3975599332,
			"0.007": 7.62646395833,
			"0.008": 4.50472675633,
			"0.009": 4.54723230872,
			"0.01": 4.46415648973,
			"0.011": 6.16937702628,
			"0.012": 8.90676412477,
			"0.013": 5.1503343162,
			"0.014": 0.93034189368,
			"0.015": 0.814415945429,
			"0.016": 0.277202407707,
			"0.017": 0.0,
			"0.018": 0.0,
			"0.019": 0.0,
			"0.02": 0.0,
			"0.021": 0.0,
			"0.022": 0.0,
			"0.023": 0.0,
			"0.024": 0.0,
			"0.025": 0.0
		}
	}
}
