{
	 "smiles": "FC1=CC2=C(OCOC2)C(CCl)=C1", 
	 "Tm": 352.15, 
	 "num_atms": 21, 
	 "gaussian": { 
		 "optdone": 1, 
		 "sigma_profile": "yes", 
		 "theory": "DFT", 
		 "functional": "B3LYP", 
		 "basiset": "6-31G**", 
		 "properties": { 
			 "R2extent": 3302.947, 
			 "electric_dipole_moment_norm": 3.52817583745, 
			 "electric_quadrupole_moment_norm": 10.3338996763, 
			 "total_energy": -1058.23683355, 
			 "HOMO_LUMO_gap": 0.19016, 
			 "cosmo_polarized_energy": -9.98, 
			 "cosmo_cavitation_energy": 26.72, 
			 "cosmo_dispersion_energy": -19.77, 
			 "cosmo_repulsion_energy": 1.55, 
			 "cosmo_total_nonelectrostatic_energy": 8.51, 
			 "SMD_solvation_energy": 4.99 
		},
		"coords": [
			{
				"x": 2.0942779184,
				"y": -2.0536882561,
				"z": -2.1628052416,
				"element": "F" 
			},
			{
				"x": 1.551301712,
				"y": -1.3180602676,
				"z": -1.1690219386,
				"element": "C" 
			},
			{
				"x": 0.6152174188,
				"y": -1.9046779775,
				"z": -0.3292199157,
				"element": "C" 
			},
			{
				"x": 0.0490836904,
				"y": -1.1473985388,
				"z": 0.6991247741,
				"element": "C" 
			},
			{
				"x": 0.4316228468,
				"y": 0.1926057474,
				"z": 0.855109553,
				"element": "C" 
			},
			{
				"x": -0.1111098669,
				"y": 0.9751941724,
				"z": 1.8404402799,
				"element": "O" 
			},
			{
				"x": -1.2970087731,
				"y": 0.4329234474,
				"z": 2.4161714412,
				"element": "C" 
			},
			{
				"x": -1.1375982295,
				"y": -0.8965812866,
				"z": 2.8014664302,
				"element": "O" 
			},
			{
				"x": -0.9516056565,
				"y": -1.7413026894,
				"z": 1.667379229,
				"element": "C" 
			},
			{
				"x": 1.390270935,
				"y": 0.7783860635,
				"z": 0.0076493938,
				"element": "C" 
			},
			{
				"x": 1.7929739868,
				"y": 2.2068143002,
				"z": 0.1960069536,
				"element": "C" 
			},
			{
				"x": 3.1889360799,
				"y": 2.3895568203,
				"z": 1.3766117759,
				"element": "Cl" 
			},
			{
				"x": 1.9501085978,
				"y": 0.003120321,
				"z": -1.0114628532,
				"element": "C" 
			},
			{
				"x": 0.3440615304,
				"y": -2.9459708135,
				"z": -0.4755001925,
				"element": "H" 
			},
			{
				"x": -1.4953107942,
				"y": 1.020980944,
				"z": 3.3121871327,
				"element": "H" 
			},
			{
				"x": -2.1189042884,
				"y": 0.5382410063,
				"z": 1.6875569363,
				"element": "H" 
			},
			{
				"x": -0.5932185304,
				"y": -2.6976694058,
				"z": 2.0588997462,
				"element": "H" 
			},
			{
				"x": -1.9181808139,
				"y": -1.9240533178,
				"z": 1.1689862137,
				"element": "H" 
			},
			{
				"x": 0.9834036411,
				"y": 2.8009769001,
				"z": 0.6152310243,
				"element": "H" 
			},
			{
				"x": 2.1421946488,
				"y": 2.6506763725,
				"z": -0.7356729579,
				"element": "H" 
			},
			{
				"x": 2.6942839468,
				"y": 0.420526458,
				"z": -1.6817377843,
				"element": "H" 
			}
		],
		 "valence_orbital": [ 
			{
				"type": "occ",
				"energy": -0.29733,
				"method": "rhf"
			},
			{
				"type": "occ",
				"energy": -0.28936,
				"method": "rhf"
			},
			{
				"type": "occ",
				"energy": -0.28756,
				"method": "rhf"
			},
			{
				"type": "occ",
				"energy": -0.26229,
				"method": "rhf"
			},
			{
				"type": "occ",
				"energy": -0.22933,
				"method": "rhf"
			},
			{
				"type": "unocc",
				"energy": -0.03917,
				"method": "rhf"
			},
			{
				"type": "unocc",
				"energy": -0.00305,
				"method": "rhf"
			},
			{
				"type": "unocc",
				"energy": 0.04056,
				"method": "rhf"
			},
			{
				"type": "unocc",
				"energy": 0.08679,
				"method": "rhf"
			},
			{
				"type": "unocc",
				"energy": 0.0888,
				"method": "rhf"
			}
		],
		"cosmo_sigma_profile": { 
			"-0.025": 0.0,
			"-0.024": 0.0,
			"-0.023": 0.0,
			"-0.022": 0.0,
			"-0.021": 0.0,
			"-0.02": 0.0,
			"-0.019": 0.0,
			"-0.018": 0.0,
			"-0.017": 0.0,
			"-0.016": 0.0,
			"-0.015": 0.0,
			"-0.014": 0.0,
			"-0.013": 0.0,
			"-0.012": 0.0,
			"-0.011": 0.0,
			"-0.01": 0.0,
			"-0.009": 0.119265675002,
			"-0.008": 6.89940635995,
			"-0.007": 12.9732900619,
			"-0.006": 18.6572161583,
			"-0.005": 16.9570708224,
			"-0.004": 12.9466514044,
			"-0.003": 9.29295004159,
			"-0.002": 7.2783367249,
			"-0.001": 8.64786205543,
			"0.0": 11.9191195737,
			"0.001": 15.9658709162,
			"0.002": 19.3734663764,
			"0.003": 13.8432600968,
			"0.004": 17.9462906197,
			"0.005": 12.4083084104,
			"0.006": 12.6566897548,
			"0.007": 9.86721755486,
			"0.008": 2.73629613023,
			"0.009": 1.17090456045,
			"0.01": 1.49048966224,
			"0.011": 1.74245967914,
			"0.012": 0.313932191132,
			"0.013": 0.0,
			"0.014": 0.0,
			"0.015": 0.0,
			"0.016": 0.0,
			"0.017": 0.0,
			"0.018": 0.0,
			"0.019": 0.0,
			"0.02": 0.0,
			"0.021": 0.0,
			"0.022": 0.0,
			"0.023": 0.0,
			"0.024": 0.0,
			"0.025": 0.0
		}
	}
}
