{
	 "smiles": "CCOC1=C(CBr)C=C2OC(C)CC2=C1", 
	 "Tm": 343.15, 
	 "num_atms": 30, 
	 "gaussian": { 
		 "optdone": 1, 
		 "sigma_profile": "yes", 
		 "theory": "DFT", 
		 "functional": "B3LYP", 
		 "basiset": "6-31G**", 
		 "properties": { 
			 "R2extent": 7761.5878, 
			 "electric_dipole_moment_norm": 4.56446200663, 
			 "electric_quadrupole_moment_norm": 16.4002120904, 
			 "total_energy": -3188.17362215, 
			 "HOMO_LUMO_gap": 0.16493, 
			 "cosmo_polarized_energy": -10.38, 
			 "cosmo_cavitation_energy": 34.86, 
			 "cosmo_dispersion_energy": -25.19, 
			 "cosmo_repulsion_energy": 2.02, 
			 "cosmo_total_nonelectrostatic_energy": 11.69, 
			 "SMD_solvation_energy": 4.83 
		},
		"coords": [
			{
				"x": 1.2834397432,
				"y": -2.8375676767,
				"z": -2.9495519998,
				"element": "C" 
			},
			{
				"x": 0.8890701765,
				"y": -2.0794095069,
				"z": -1.6940521457,
				"element": "C" 
			},
			{
				"x": -0.3727890634,
				"y": -1.464984187,
				"z": -1.9430100972,
				"element": "O" 
			},
			{
				"x": -0.9744485967,
				"y": -0.7512187487,
				"z": -0.944690527,
				"element": "C" 
			},
			{
				"x": -2.2527724476,
				"y": -0.2311947987,
				"z": -1.2547831609,
				"element": "C" 
			},
			{
				"x": -2.846572786,
				"y": -0.4750390511,
				"z": -2.5968279309,
				"element": "C" 
			},
			{
				"x": -3.8202178988,
				"y": -2.2407757886,
				"z": -2.700995641,
				"element": "Br" 
			},
			{
				"x": -2.9494895697,
				"y": 0.5234315135,
				"z": -0.299795611,
				"element": "C" 
			},
			{
				"x": -2.3603432139,
				"y": 0.7435441375,
				"z": 0.9375539366,
				"element": "C" 
			},
			{
				"x": -2.9278401061,
				"y": 1.452291143,
				"z": 1.9614665103,
				"element": "O" 
			},
			{
				"x": -1.9018418148,
				"y": 1.6490120791,
				"z": 2.9786156784,
				"element": "C" 
			},
			{
				"x": -2.5463163188,
				"y": 1.5436128422,
				"z": 4.3485184302,
				"element": "C" 
			},
			{
				"x": -0.7921395899,
				"y": 0.6060620224,
				"z": 2.6765872627,
				"element": "C" 
			},
			{
				"x": -1.1011984772,
				"y": 0.2324310921,
				"z": 1.246465974,
				"element": "C" 
			},
			{
				"x": -0.3959292819,
				"y": -0.5200519836,
				"z": 0.3125092766,
				"element": "C" 
			},
			{
				"x": 2.2475128299,
				"y": -3.3339648998,
				"z": -2.8020836286,
				"element": "H" 
			},
			{
				"x": 1.3709188995,
				"y": -2.1561307334,
				"z": -3.8004998189,
				"element": "H" 
			},
			{
				"x": 0.5330983308,
				"y": -3.5952811896,
				"z": -3.1905022648,
				"element": "H" 
			},
			{
				"x": 1.638186704,
				"y": -1.3129161873,
				"z": -1.4470548336,
				"element": "H" 
			},
			{
				"x": 0.8084536872,
				"y": -2.760014576,
				"z": -0.8346865433,
				"element": "H" 
			},
			{
				"x": -3.6091840776,
				"y": 0.2568096516,
				"z": -2.8532600631,
				"element": "H" 
			},
			{
				"x": -2.0997480705,
				"y": -0.552703066,
				"z": -3.3817419219,
				"element": "H" 
			},
			{
				"x": -3.9326115998,
				"y": 0.9238062486,
				"z": -0.5252672008,
				"element": "H" 
			},
			{
				"x": -1.5018653742,
				"y": 2.6616248649,
				"z": 2.8270907811,
				"element": "H" 
			},
			{
				"x": -3.3573310492,
				"y": 2.2698613549,
				"z": 4.4515208565,
				"element": "H" 
			},
			{
				"x": -2.9582903314,
				"y": 0.5413219682,
				"z": 4.5016093887,
				"element": "H" 
			},
			{
				"x": -1.8070079696,
				"y": 1.7402639449,
				"z": 5.1320295669,
				"element": "H" 
			},
			{
				"x": 0.2081845814,
				"y": 1.0272706102,
				"z": 2.8180340476,
				"element": "H" 
			},
			{
				"x": -0.877082042,
				"y": -0.2663342517,
				"z": 3.3396496529,
				"element": "H" 
			},
			{
				"x": 0.5820547268,
				"y": -0.917256828,
				"z": 0.5574520259,
				"element": "H" 
			}
		],
		 "valence_orbital": [ 
			{
				"type": "occ",
				"energy": -0.2815,
				"method": "rhf"
			},
			{
				"type": "occ",
				"energy": -0.25982,
				"method": "rhf"
			},
			{
				"type": "occ",
				"energy": -0.25478,
				"method": "rhf"
			},
			{
				"type": "occ",
				"energy": -0.2446,
				"method": "rhf"
			},
			{
				"type": "occ",
				"energy": -0.19537,
				"method": "rhf"
			},
			{
				"type": "unocc",
				"energy": -0.03044,
				"method": "rhf"
			},
			{
				"type": "unocc",
				"energy": 0.01432,
				"method": "rhf"
			},
			{
				"type": "unocc",
				"energy": 0.04294,
				"method": "rhf"
			},
			{
				"type": "unocc",
				"energy": 0.08945,
				"method": "rhf"
			},
			{
				"type": "unocc",
				"energy": 0.09516,
				"method": "rhf"
			}
		],
		"cosmo_sigma_profile": { 
			"-0.025": 0.0,
			"-0.024": 0.0,
			"-0.023": 0.0,
			"-0.022": 0.0,
			"-0.021": 0.0,
			"-0.02": 0.0,
			"-0.019": 0.0,
			"-0.018": 0.0,
			"-0.017": 0.0,
			"-0.016": 0.0,
			"-0.015": 0.0,
			"-0.014": 0.0,
			"-0.013": 0.0,
			"-0.012": 0.0,
			"-0.011": 0.0,
			"-0.01": 0.0,
			"-0.009": 0.0,
			"-0.008": 0.689832965272,
			"-0.007": 5.13584981215,
			"-0.006": 7.48214239157,
			"-0.005": 16.7907962956,
			"-0.004": 34.4694744724,
			"-0.003": 31.5696663465,
			"-0.002": 28.2587157355,
			"-0.001": 21.7371724022,
			"0.0": 23.2235438368,
			"0.001": 15.0415630822,
			"0.002": 12.0975014259,
			"0.003": 13.4633099002,
			"0.004": 18.3098853814,
			"0.005": 13.6861143007,
			"0.006": 12.6558668942,
			"0.007": 13.5868183429,
			"0.008": 3.89595710865,
			"0.009": 2.00084187859,
			"0.01": 1.14527731417,
			"0.011": 1.71361210485,
			"0.012": 0.858988395059,
			"0.013": 0.0,
			"0.014": 0.0,
			"0.015": 0.0,
			"0.016": 0.0,
			"0.017": 0.0,
			"0.018": 0.0,
			"0.019": 0.0,
			"0.02": 0.0,
			"0.021": 0.0,
			"0.022": 0.0,
			"0.023": 0.0,
			"0.024": 0.0,
			"0.025": 0.0
		}
	}
}
