{
	 "smiles": "NC1CC=CCC1C(N)=O", 
	 "Tm": 438.15, 
	 "num_atms": 22, 
	 "gaussian": { 
		 "optdone": 1, 
		 "sigma_profile": "yes", 
		 "theory": "DFT", 
		 "functional": "B3LYP", 
		 "basiset": "6-31G**", 
		 "properties": { 
			 "R2extent": 1728.3109, 
			 "electric_dipole_moment_norm": 4.67720882151, 
			 "electric_quadrupole_moment_norm": 12.2806407736, 
			 "total_energy": -458.710098812, 
			 "HOMO_LUMO_gap": 0.25948, 
			 "cosmo_polarized_energy": -13.69, 
			 "cosmo_cavitation_energy": 23.12, 
			 "cosmo_dispersion_energy": -17.49, 
			 "cosmo_repulsion_energy": 1.44, 
			 "cosmo_total_nonelectrostatic_energy": 7.07, 
			 "SMD_solvation_energy": 4.01 
		},
		"coords": [
			{
				"x": -2.3758441215,
				"y": -1.2789294258,
				"z": 0.2258357457,
				"element": "N" 
			},
			{
				"x": -0.9828929528,
				"y": -0.787916305,
				"z": 0.2218350846,
				"element": "C" 
			},
			{
				"x": -0.2720101827,
				"y": -1.2037252271,
				"z": 1.5161905213,
				"element": "C" 
			},
			{
				"x": 1.0844178266,
				"y": -0.5528548852,
				"z": 1.6294946127,
				"element": "C" 
			},
			{
				"x": 1.4583149073,
				"y": 0.4874464392,
				"z": 0.878889759,
				"element": "C" 
			},
			{
				"x": 0.56651679,
				"y": 1.1567295338,
				"z": -0.1373358278,
				"element": "C" 
			},
			{
				"x": -0.9084035799,
				"y": 0.7454085054,
				"z": 0.0201521774,
				"element": "C" 
			},
			{
				"x": -1.5843816947,
				"y": 1.6198086228,
				"z": 1.110671009,
				"element": "C" 
			},
			{
				"x": -2.7167200254,
				"y": 1.1039399384,
				"z": 1.6558886231,
				"element": "N" 
			},
			{
				"x": -1.1487616081,
				"y": 2.7276507655,
				"z": 1.4045947466,
				"element": "O" 
			},
			{
				"x": -2.7869623625,
				"y": -1.1624141087,
				"z": -0.698486927,
				"element": "H" 
			},
			{
				"x": -2.3875960504,
				"y": -2.2773459908,
				"z": 0.4233580777,
				"element": "H" 
			},
			{
				"x": -0.4114390831,
				"y": -1.2257200048,
				"z": -0.6136565759,
				"element": "H" 
			},
			{
				"x": -0.8983076816,
				"y": -0.9432177552,
				"z": 2.3810724314,
				"element": "H" 
			},
			{
				"x": -0.1645092886,
				"y": -2.2980457716,
				"z": 1.5382692698,
				"element": "H" 
			},
			{
				"x": 1.7718935755,
				"y": -0.9671128492,
				"z": 2.3641747163,
				"element": "H" 
			},
			{
				"x": 2.4574870707,
				"y": 0.9017627912,
				"z": 1.0004376057,
				"element": "H" 
			},
			{
				"x": 0.6308727717,
				"y": 2.242674039,
				"z": -0.0238042291,
				"element": "H" 
			},
			{
				"x": 0.9173731542,
				"y": 0.9197639482,
				"z": -1.1523100172,
				"element": "H" 
			},
			{
				"x": -1.440273686,
				"y": 0.9905337762,
				"z": -0.9118737573,
				"element": "H" 
			},
			{
				"x": -3.1937217223,
				"y": 1.6579925969,
				"z": 2.3509555891,
				"element": "H" 
			},
			{
				"x": -3.0204520566,
				"y": 0.1664713668,
				"z": 1.3952473649,
				"element": "H" 
			}
		],
		 "valence_orbital": [ 
			{
				"type": "occ",
				"energy": -0.3102,
				"method": "rhf"
			},
			{
				"type": "occ",
				"energy": -0.26234,
				"method": "rhf"
			},
			{
				"type": "occ",
				"energy": -0.24773,
				"method": "rhf"
			},
			{
				"type": "occ",
				"energy": -0.23637,
				"method": "rhf"
			},
			{
				"type": "occ",
				"energy": -0.22924,
				"method": "rhf"
			},
			{
				"type": "unocc",
				"energy": 0.03024,
				"method": "rhf"
			},
			{
				"type": "unocc",
				"energy": 0.0417,
				"method": "rhf"
			},
			{
				"type": "unocc",
				"energy": 0.06961,
				"method": "rhf"
			},
			{
				"type": "unocc",
				"energy": 0.10505,
				"method": "rhf"
			},
			{
				"type": "unocc",
				"energy": 0.11573,
				"method": "rhf"
			}
		],
		"cosmo_sigma_profile": { 
			"-0.025": 0.0,
			"-0.024": 0.0,
			"-0.023": 0.0,
			"-0.022": 0.0,
			"-0.021": 0.0,
			"-0.02": 0.0,
			"-0.019": 0.0,
			"-0.018": 0.0,
			"-0.017": 0.0,
			"-0.016": 0.0,
			"-0.015": 0.0,
			"-0.014": 0.0,
			"-0.013": 0.441700365694,
			"-0.012": 1.12620695018,
			"-0.011": 1.88961319031,
			"-0.01": 3.43932427578,
			"-0.009": 3.872473354,
			"-0.008": 4.37082246763,
			"-0.007": 4.97371896559,
			"-0.006": 5.61014715049,
			"-0.005": 7.01967611303,
			"-0.004": 11.954783052,
			"-0.003": 18.2208294424,
			"-0.002": 18.0796646623,
			"-0.001": 16.9139695005,
			"0.0": 14.6588760653,
			"0.001": 10.1150802722,
			"0.002": 8.99494704398,
			"0.003": 6.72380187277,
			"0.004": 6.32380496874,
			"0.005": 5.21080626435,
			"0.006": 5.52263729448,
			"0.007": 4.06498660552,
			"0.008": 2.01243178918,
			"0.009": 2.19428231982,
			"0.01": 1.45042053371,
			"0.011": 1.70231130024,
			"0.012": 1.51561871469,
			"0.013": 2.4136590129,
			"0.014": 4.58365655616,
			"0.015": 3.64216971458,
			"0.016": 0.349208706566,
			"0.017": 0.0,
			"0.018": 0.0,
			"0.019": 0.0,
			"0.02": 0.0,
			"0.021": 0.0,
			"0.022": 0.0,
			"0.023": 0.0,
			"0.024": 0.0,
			"0.025": 0.0
		}
	}
}
