{
	 "smiles": "N#CCC1=CC2=CC=CC=C2C=C1", 
	 "Tm": 356.15, 
	 "num_atms": 22, 
	 "gaussian": { 
		 "optdone": 1, 
		 "sigma_profile": "yes", 
		 "theory": "DFT", 
		 "functional": "B3LYP", 
		 "basiset": "6-31G**", 
		 "properties": { 
			 "R2extent": 3191.7681, 
			 "electric_dipole_moment_norm": 4.12529162848, 
			 "electric_quadrupole_moment_norm": 22.602514321, 
			 "total_energy": -517.44812517, 
			 "HOMO_LUMO_gap": 0.17713, 
			 "cosmo_polarized_energy": -11.21, 
			 "cosmo_cavitation_energy": 26.91, 
			 "cosmo_dispersion_energy": -19.2, 
			 "cosmo_repulsion_energy": 1.5, 
			 "cosmo_total_nonelectrostatic_energy": 9.21, 
			 "SMD_solvation_energy": 5.62 
		},
		"coords": [
			{
				"x": 1.9980395534,
				"y": -0.3637834845,
				"z": -4.735551546,
				"element": "N" 
			},
			{
				"x": 1.1715401964,
				"y": -0.41145674,
				"z": -3.9221606526,
				"element": "C" 
			},
			{
				"x": 0.1268249632,
				"y": -0.4556124432,
				"z": -2.8908418068,
				"element": "C" 
			},
			{
				"x": 0.6349052225,
				"y": -0.1029695283,
				"z": -1.4999544685,
				"element": "C" 
			},
			{
				"x": 0.438420915,
				"y": -0.9658986905,
				"z": -0.4442302807,
				"element": "C" 
			},
			{
				"x": 0.873885119,
				"y": -0.6389931114,
				"z": 0.8687628013,
				"element": "C" 
			},
			{
				"x": 0.6785043084,
				"y": -1.5142341333,
				"z": 1.9704839779,
				"element": "C" 
			},
			{
				"x": 1.1135077208,
				"y": -1.167548053,
				"z": 3.2302322664,
				"element": "C" 
			},
			{
				"x": 1.7650745092,
				"y": 0.0714814069,
				"z": 3.4465556179,
				"element": "C" 
			},
			{
				"x": 1.9697552704,
				"y": 0.9411284426,
				"z": 2.3985565286,
				"element": "C" 
			},
			{
				"x": 1.5329498424,
				"y": 0.6135568497,
				"z": 1.0874227227,
				"element": "C" 
			},
			{
				"x": 1.7271969795,
				"y": 1.4830046799,
				"z": -0.0205617405,
				"element": "C" 
			},
			{
				"x": 1.2920682401,
				"y": 1.1377678785,
				"z": -1.2775820177,
				"element": "C" 
			},
			{
				"x": -0.314902247,
				"y": -1.4576494337,
				"z": -2.8909802663,
				"element": "H" 
			},
			{
				"x": -0.6687915429,
				"y": 0.2377805032,
				"z": -3.1952336569,
				"element": "H" 
			},
			{
				"x": -0.0590904073,
				"y": -1.9199780848,
				"z": -0.6039212774,
				"element": "H" 
			},
			{
				"x": 0.1791068823,
				"y": -2.4650515094,
				"z": 1.8026371063,
				"element": "H" 
			},
			{
				"x": 0.9585858432,
				"y": -1.8451483609,
				"z": 4.064767705,
				"element": "H" 
			},
			{
				"x": 2.103702506,
				"y": 0.3325274938,
				"z": 4.4449147748,
				"element": "H" 
			},
			{
				"x": 2.4703295573,
				"y": 1.8921503633,
				"z": 2.561166132,
				"element": "H" 
			},
			{
				"x": 2.2307004077,
				"y": 2.4326133677,
				"z": 0.1405172317,
				"element": "H" 
			},
			{
				"x": 1.4570861603,
				"y": 1.8104125874,
				"z": -2.1147991512,
				"element": "H" 
			}
		],
		 "valence_orbital": [ 
			{
				"type": "occ",
				"energy": -0.32207,
				"method": "rhf"
			},
			{
				"type": "occ",
				"energy": -0.32138,
				"method": "rhf"
			},
			{
				"type": "occ",
				"energy": -0.29297,
				"method": "rhf"
			},
			{
				"type": "occ",
				"energy": -0.25029,
				"method": "rhf"
			},
			{
				"type": "occ",
				"energy": -0.22505,
				"method": "rhf"
			},
			{
				"type": "unocc",
				"energy": -0.04792,
				"method": "rhf"
			},
			{
				"type": "unocc",
				"energy": -0.02094,
				"method": "rhf"
			},
			{
				"type": "unocc",
				"energy": 0.02124,
				"method": "rhf"
			},
			{
				"type": "unocc",
				"energy": 0.03515,
				"method": "rhf"
			},
			{
				"type": "unocc",
				"energy": 0.04065,
				"method": "rhf"
			}
		],
		"cosmo_sigma_profile": { 
			"-0.025": 0.0,
			"-0.024": 0.0,
			"-0.023": 0.0,
			"-0.022": 0.0,
			"-0.021": 0.0,
			"-0.02": 0.0,
			"-0.019": 0.0,
			"-0.018": 0.0,
			"-0.017": 0.0,
			"-0.016": 0.0,
			"-0.015": 0.0,
			"-0.014": 0.0,
			"-0.013": 0.0,
			"-0.012": 0.0,
			"-0.011": 0.0,
			"-0.01": 0.0,
			"-0.009": 3.09296546438,
			"-0.008": 6.44139254066,
			"-0.007": 7.1248196383,
			"-0.006": 19.5254062062,
			"-0.005": 17.4318357332,
			"-0.004": 16.7171400938,
			"-0.003": 13.8471378272,
			"-0.002": 9.46162726129,
			"-0.001": 10.3723831544,
			"0.0": 10.3696353484,
			"0.001": 11.6452873055,
			"0.002": 12.8182026945,
			"0.003": 17.6129749174,
			"0.004": 24.8769265884,
			"0.005": 11.7881295953,
			"0.006": 4.32636759432,
			"0.007": 1.31089940628,
			"0.008": 3.49718753141,
			"0.009": 3.32752925056,
			"0.01": 3.46784967579,
			"0.011": 2.87682739111,
			"0.012": 2.60636324118,
			"0.013": 1.97230439876,
			"0.014": 0.261631984566,
			"0.015": 0.0,
			"0.016": 0.0,
			"0.017": 0.0,
			"0.018": 0.0,
			"0.019": 0.0,
			"0.02": 0.0,
			"0.021": 0.0,
			"0.022": 0.0,
			"0.023": 0.0,
			"0.024": 0.0,
			"0.025": 0.0
		}
	}
}
