{
	 "smiles": "NC1=CC(=O)OC2=CC=CC=C12", 
	 "Tm": 506.15, 
	 "num_atms": 19, 
	 "gaussian": { 
		 "optdone": 1, 
		 "sigma_profile": "yes", 
		 "theory": "DFT", 
		 "functional": "B3LYP", 
		 "basiset": "6-31G**", 
		 "properties": { 
			 "R2extent": 2240.913, 
			 "electric_dipole_moment_norm": 5.77868060806, 
			 "electric_quadrupole_moment_norm": 6.13950511849, 
			 "total_energy": -552.372787363, 
			 "HOMO_LUMO_gap": 0.17087, 
			 "cosmo_polarized_energy": -14.95, 
			 "cosmo_cavitation_energy": 23.46, 
			 "cosmo_dispersion_energy": -17.61, 
			 "cosmo_repulsion_energy": 1.38, 
			 "cosmo_total_nonelectrostatic_energy": 7.23, 
			 "SMD_solvation_energy": 5.12 
		},
		"coords": [
			{
				"x": 3.2107461329,
				"y": -0.4551202699,
				"z": -1.8210594075,
				"element": "N" 
			},
			{
				"x": 2.0224485472,
				"y": -0.2947850714,
				"z": -1.0353666333,
				"element": "C" 
			},
			{
				"x": 2.1260141231,
				"y": -0.3316149077,
				"z": 0.3144596648,
				"element": "C" 
			},
			{
				"x": 0.9773896046,
				"y": -0.1788207754,
				"z": 1.1990378693,
				"element": "C" 
			},
			{
				"x": 0.9996680543,
				"y": -0.2009420322,
				"z": 2.4065553108,
				"element": "O" 
			},
			{
				"x": -0.2574852936,
				"y": 0.0113347289,
				"z": 0.5732865918,
				"element": "O" 
			},
			{
				"x": -0.3920694074,
				"y": 0.0527881583,
				"z": -0.782439205,
				"element": "C" 
			},
			{
				"x": -1.6810474885,
				"y": 0.2485889216,
				"z": -1.2851853357,
				"element": "C" 
			},
			{
				"x": -1.8750216941,
				"y": 0.2988958831,
				"z": -2.6609678003,
				"element": "C" 
			},
			{
				"x": -0.7909347254,
				"y": 0.1551141569,
				"z": -3.5387369057,
				"element": "C" 
			},
			{
				"x": 0.4870416765,
				"y": -0.0391180167,
				"z": -3.0317785442,
				"element": "C" 
			},
			{
				"x": 0.713372179,
				"y": -0.0943634775,
				"z": -1.6442284287,
				"element": "C" 
			},
			{
				"x": 3.3507766361,
				"y": 0.3578339064,
				"z": -2.4184161398,
				"element": "H" 
			},
			{
				"x": 3.1161558152,
				"y": -1.2552036051,
				"z": -2.4441651241,
				"element": "H" 
			},
			{
				"x": 3.0874827844,
				"y": -0.4791472955,
				"z": 0.7895780596,
				"element": "H" 
			},
			{
				"x": -2.5029189086,
				"y": 0.357054417,
				"z": -0.5858498397,
				"element": "H" 
			},
			{
				"x": -2.8754665824,
				"y": 0.4508907785,
				"z": -3.0546773763,
				"element": "H" 
			},
			{
				"x": -0.9499819077,
				"y": 0.1954720887,
				"z": -4.6115922266,
				"element": "H" 
			},
			{
				"x": 1.3302304544,
				"y": -0.1510575881,
				"z": -3.7063545294,
				"element": "H" 
			}
		],
		 "valence_orbital": [ 
			{
				"type": "occ",
				"energy": -0.31454,
				"method": "rhf"
			},
			{
				"type": "occ",
				"energy": -0.27827,
				"method": "rhf"
			},
			{
				"type": "occ",
				"energy": -0.26983,
				"method": "rhf"
			},
			{
				"type": "occ",
				"energy": -0.25984,
				"method": "rhf"
			},
			{
				"type": "occ",
				"energy": -0.23803,
				"method": "rhf"
			},
			{
				"type": "unocc",
				"energy": -0.06716,
				"method": "rhf"
			},
			{
				"type": "unocc",
				"energy": -0.01604,
				"method": "rhf"
			},
			{
				"type": "unocc",
				"energy": 0.0004,
				"method": "rhf"
			},
			{
				"type": "unocc",
				"energy": 0.06026,
				"method": "rhf"
			},
			{
				"type": "unocc",
				"energy": 0.08486,
				"method": "rhf"
			}
		],
		"cosmo_sigma_profile": { 
			"-0.025": 0.0,
			"-0.024": 0.0,
			"-0.023": 0.0,
			"-0.022": 0.0,
			"-0.021": 0.0,
			"-0.02": 0.0,
			"-0.019": 0.0,
			"-0.018": 0.0,
			"-0.017": 0.0,
			"-0.016": 0.0,
			"-0.015": 0.0,
			"-0.014": 0.0,
			"-0.013": 0.236218684753,
			"-0.012": 2.35019184454,
			"-0.011": 3.32486755682,
			"-0.01": 4.46151760698,
			"-0.009": 3.86178967853,
			"-0.008": 3.38019855606,
			"-0.007": 7.0781937462,
			"-0.006": 10.2193667294,
			"-0.005": 11.4075549374,
			"-0.004": 11.9130214549,
			"-0.003": 10.0966410997,
			"-0.002": 11.9346809238,
			"-0.001": 10.7092102757,
			"0.0": 12.6525905946,
			"0.001": 15.737482874,
			"0.002": 13.5307304466,
			"0.003": 12.0167309182,
			"0.004": 8.14488662998,
			"0.005": 3.43935901116,
			"0.006": 3.62135478789,
			"0.007": 2.20560191554,
			"0.008": 2.4828584166,
			"0.009": 3.60907357657,
			"0.01": 3.54380184978,
			"0.011": 3.78015563602,
			"0.012": 6.55508348146,
			"0.013": 4.0908831708,
			"0.014": 0.658193639274,
			"0.015": 0.466346104837,
			"0.016": 0.486811215932,
			"0.017": 0.12620953593,
			"0.018": 0.0,
			"0.019": 0.0,
			"0.02": 0.0,
			"0.021": 0.0,
			"0.022": 0.0,
			"0.023": 0.0,
			"0.024": 0.0,
			"0.025": 0.0
		}
	}
}
