{
	 "smiles": "CC1=C(C=CC=C1N)C(O)=O", 
	 "Tm": 460.15, 
	 "num_atms": 20, 
	 "gaussian": { 
		 "optdone": 1, 
		 "sigma_profile": "yes", 
		 "theory": "DFT", 
		 "functional": "B3LYP", 
		 "basiset": "6-31G**", 
		 "properties": { 
			 "R2extent": 1967.7016, 
			 "electric_dipole_moment_norm": 6.24483358785, 
			 "electric_quadrupole_moment_norm": 11.2822072747, 
			 "total_energy": -515.488413655, 
			 "HOMO_LUMO_gap": 0.18072, 
			 "cosmo_polarized_energy": -17.48, 
			 "cosmo_cavitation_energy": 23.42, 
			 "cosmo_dispersion_energy": -17.46, 
			 "cosmo_repulsion_energy": 1.4, 
			 "cosmo_total_nonelectrostatic_energy": 7.36, 
			 "SMD_solvation_energy": 5.0 
		},
		"coords": [
			{
				"x": -1.6335108563,
				"y": 0.6890617072,
				"z": 0.1372872453,
				"element": "C" 
			},
			{
				"x": -0.3855199735,
				"y": -0.0009557488,
				"z": -0.3737421982,
				"element": "C" 
			},
			{
				"x": 0.5051013692,
				"y": 0.5707237693,
				"z": -1.3059873569,
				"element": "C" 
			},
			{
				"x": 1.564177591,
				"y": -0.1726413194,
				"z": -1.8467777532,
				"element": "C" 
			},
			{
				"x": 1.778222981,
				"y": -1.4801847276,
				"z": -1.4252923942,
				"element": "C" 
			},
			{
				"x": 0.9363655647,
				"y": -2.0529332503,
				"z": -0.4771032952,
				"element": "C" 
			},
			{
				"x": -0.1488595029,
				"y": -1.3332856829,
				"z": 0.0456080667,
				"element": "C" 
			},
			{
				"x": -1.0407007096,
				"y": -1.9562557011,
				"z": 0.9237254695,
				"element": "N" 
			},
			{
				"x": 0.4007214513,
				"y": 1.985991037,
				"z": -1.8051372573,
				"element": "C" 
			},
			{
				"x": 0.0916954418,
				"y": 2.9417106382,
				"z": -0.8805905326,
				"element": "O" 
			},
			{
				"x": 0.6155402078,
				"y": 2.311638869,
				"z": -2.9476624693,
				"element": "O" 
			},
			{
				"x": -2.4923353876,
				"y": 0.0144362029,
				"z": 0.0468348916,
				"element": "H" 
			},
			{
				"x": -1.868730653,
				"y": 1.5988303764,
				"z": -0.4148587783,
				"element": "H" 
			},
			{
				"x": -1.5592595553,
				"y": 0.9591820327,
				"z": 1.2022366327,
				"element": "H" 
			},
			{
				"x": 2.2036815785,
				"y": 0.2942921117,
				"z": -2.586856116,
				"element": "H" 
			},
			{
				"x": 2.6055574608,
				"y": -2.0558423543,
				"z": -1.8294499326,
				"element": "H" 
			},
			{
				"x": 1.104038402,
				"y": -3.0744273028,
				"z": -0.1436134401,
				"element": "H" 
			},
			{
				"x": -0.6990174284,
				"y": -2.8165486611,
				"z": 1.3296747058,
				"element": "H" 
			},
			{
				"x": -1.4672616159,
				"y": -1.3602173223,
				"z": 1.6190371446,
				"element": "H" 
			},
			{
				"x": 0.0852936345,
				"y": 2.5456253262,
				"z": 0.0018673679,
				"element": "H" 
			}
		],
		 "valence_orbital": [ 
			{
				"type": "occ",
				"energy": -0.32182,
				"method": "rhf"
			},
			{
				"type": "occ",
				"energy": -0.30698,
				"method": "rhf"
			},
			{
				"type": "occ",
				"energy": -0.26988,
				"method": "rhf"
			},
			{
				"type": "occ",
				"energy": -0.25223,
				"method": "rhf"
			},
			{
				"type": "occ",
				"energy": -0.2153,
				"method": "rhf"
			},
			{
				"type": "unocc",
				"energy": -0.03458,
				"method": "rhf"
			},
			{
				"type": "unocc",
				"energy": 0.00079,
				"method": "rhf"
			},
			{
				"type": "unocc",
				"energy": 0.04387,
				"method": "rhf"
			},
			{
				"type": "unocc",
				"energy": 0.06447,
				"method": "rhf"
			},
			{
				"type": "unocc",
				"energy": 0.07853,
				"method": "rhf"
			}
		],
		"cosmo_sigma_profile": { 
			"-0.025": 0.0,
			"-0.024": 0.0,
			"-0.023": 0.0,
			"-0.022": 0.0,
			"-0.021": 0.0,
			"-0.02": 0.0,
			"-0.019": 0.0,
			"-0.018": 0.186651449031,
			"-0.017": 0.54134905671,
			"-0.016": 0.834609732093,
			"-0.015": 0.892193936059,
			"-0.014": 0.480187591672,
			"-0.013": 1.2000326676,
			"-0.012": 3.85971436007,
			"-0.011": 3.26263472668,
			"-0.01": 3.87643488744,
			"-0.009": 4.34529523863,
			"-0.008": 4.5137782519,
			"-0.007": 4.64370970663,
			"-0.006": 6.57288202922,
			"-0.005": 9.62911359608,
			"-0.004": 13.2514135863,
			"-0.003": 13.1160551609,
			"-0.002": 10.9581318104,
			"-0.001": 11.7685788935,
			"0.0": 9.62024158298,
			"0.001": 7.18571880221,
			"0.002": 7.18952642555,
			"0.003": 8.95793665148,
			"0.004": 10.115033217,
			"0.005": 11.5203818582,
			"0.006": 5.99558497059,
			"0.007": 3.55445343884,
			"0.008": 3.80890614341,
			"0.009": 3.45326928533,
			"0.01": 4.76950630087,
			"0.011": 6.05319667479,
			"0.012": 6.5497397628,
			"0.013": 2.56047616276,
			"0.014": 0.368022237269,
			"0.015": 0.0,
			"0.016": 0.0,
			"0.017": 0.0,
			"0.018": 0.0,
			"0.019": 0.0,
			"0.02": 0.0,
			"0.021": 0.0,
			"0.022": 0.0,
			"0.023": 0.0,
			"0.024": 0.0,
			"0.025": 0.0
		}
	}
}
