{
	 "smiles": "C#C", 
	 "Tm": 192.35, 
	 "num_atms": 4, 
	 "gaussian": { 
		 "optdone": 1, 
		 "sigma_profile": "yes", 
		 "theory": "DFT", 
		 "functional": "B3LYP", 
		 "basiset": "6-31G**", 
		 "properties": { 
			 "R2extent": 254.4294, 
			 "electric_dipole_moment_norm": 0.00137477270849, 
			 "electric_quadrupole_moment_norm": 3.86361522023, 
			 "total_energy": -77.3278171989, 
			 "HOMO_LUMO_gap": 0.33297, 
			 "cosmo_polarized_energy": -3.72, 
			 "cosmo_cavitation_energy": 8.28, 
			 "cosmo_dispersion_energy": -5.06, 
			 "cosmo_repulsion_energy": 0.5, 
			 "cosmo_total_nonelectrostatic_energy": 3.72, 
			 "SMD_solvation_energy": 4.24 
		},
		"coords": [
			{
				"x": 2.2481357151,
				"y": 0.114545058,
				"z": 0.1617124894,
				"element": "C" 
			},
			{
				"x": 1.6433203356,
				"y": -0.343288874,
				"z": -0.7747559881,
				"element": "C" 
			},
			{
				"x": 2.782080926,
				"y": 0.5199112718,
				"z": 0.9900718233,
				"element": "H" 
			},
			{
				"x": 1.1081630234,
				"y": -0.7488674558,
				"z": -1.6022283246,
				"element": "H" 
			}
		],
		 "valence_orbital": [ 
			{
				"type": "occ",
				"energy": -0.74241,
				"method": "rhf"
			},
			{
				"type": "occ",
				"energy": -0.56403,
				"method": "rhf"
			},
			{
				"type": "occ",
				"energy": -0.49025,
				"method": "rhf"
			},
			{
				"type": "occ",
				"energy": -0.28226,
				"method": "rhf"
			},
			{
				"type": "occ",
				"energy": -0.28226,
				"method": "rhf"
			},
			{
				"type": "unocc",
				"energy": 0.05071,
				"method": "rhf"
			},
			{
				"type": "unocc",
				"energy": 0.05071,
				"method": "rhf"
			},
			{
				"type": "unocc",
				"energy": 0.10648,
				"method": "rhf"
			},
			{
				"type": "unocc",
				"energy": 0.14978,
				"method": "rhf"
			},
			{
				"type": "unocc",
				"energy": 0.42788,
				"method": "rhf"
			}
		],
		"cosmo_sigma_profile": { 
			"-0.025": 0.0,
			"-0.024": 0.0,
			"-0.023": 0.0,
			"-0.022": 0.0,
			"-0.021": 0.0,
			"-0.02": 0.0,
			"-0.019": 0.0,
			"-0.018": 0.0,
			"-0.017": 0.0,
			"-0.016": 0.0,
			"-0.015": 0.0,
			"-0.014": 0.0,
			"-0.013": 0.0,
			"-0.012": 2.00209082366,
			"-0.011": 2.70784648375,
			"-0.01": 2.09088301725,
			"-0.009": 2.50661101879,
			"-0.008": 2.63677760007,
			"-0.007": 1.17429796143,
			"-0.006": 2.55716697187,
			"-0.005": 2.15636552195,
			"-0.004": 1.91963863916,
			"-0.003": 2.23421444034,
			"-0.002": 2.8176731089,
			"-0.001": 2.69110949614,
			"0.0": 2.9999019827,
			"0.001": 3.62082555964,
			"0.002": 3.72155664265,
			"0.003": 4.69425144642,
			"0.004": 3.8114049366,
			"0.005": 5.28674907701,
			"0.006": 6.58930054365,
			"0.007": 9.15747260471,
			"0.008": 0.63341746831,
			"0.009": 0.0,
			"0.01": 0.0,
			"0.011": 0.0,
			"0.012": 0.0,
			"0.013": 0.0,
			"0.014": 0.0,
			"0.015": 0.0,
			"0.016": 0.0,
			"0.017": 0.0,
			"0.018": 0.0,
			"0.019": 0.0,
			"0.02": 0.0,
			"0.021": 0.0,
			"0.022": 0.0,
			"0.023": 0.0,
			"0.024": 0.0,
			"0.025": 0.0
		}
	}
}
