{
	 "smiles": "CC(C)OC1=C(C)C=C(C=C1)S(Cl)(=O)=O", 
	 "Tm": 324.15, 
	 "num_atms": 28, 
	 "gaussian": { 
		 "optdone": 1, 
		 "sigma_profile": "yes", 
		 "theory": "DFT", 
		 "functional": "B3LYP", 
		 "basiset": "6-31G**", 
		 "properties": { 
			 "R2extent": 5823.5138, 
			 "electric_dipole_moment_norm": 8.04057553475, 
			 "electric_quadrupole_moment_norm": 20.2097334883, 
			 "total_energy": -1472.89088424, 
			 "HOMO_LUMO_gap": 0.16653, 
			 "cosmo_polarized_energy": -11.04, 
			 "cosmo_cavitation_energy": 34.24, 
			 "cosmo_dispersion_energy": -24.82, 
			 "cosmo_repulsion_energy": 1.94, 
			 "cosmo_total_nonelectrostatic_energy": 11.36, 
			 "SMD_solvation_energy": 4.94 
		},
		"coords": [
			{
				"x": 2.7490055289,
				"y": 0.6303777575,
				"z": 3.0677463256,
				"element": "C" 
			},
			{
				"x": 1.2442325901,
				"y": 0.8845623698,
				"z": 3.1729197529,
				"element": "C" 
			},
			{
				"x": 0.8411214526,
				"y": 2.3572544504,
				"z": 3.2683092871,
				"element": "C" 
			},
			{
				"x": 0.4819257112,
				"y": 0.1584325861,
				"z": 2.1739899803,
				"element": "O" 
			},
			{
				"x": 0.5373792753,
				"y": 0.3609714756,
				"z": 0.8367157366,
				"element": "C" 
			},
			{
				"x": -0.3113107919,
				"y": -0.5035813986,
				"z": 0.0944779517,
				"element": "C" 
			},
			{
				"x": -1.1615456052,
				"y": -1.5172899718,
				"z": 0.8146607655,
				"element": "C" 
			},
			{
				"x": -0.3361500846,
				"y": -0.3856897252,
				"z": -1.2892830024,
				"element": "C" 
			},
			{
				"x": 0.4586547471,
				"y": 0.5724555374,
				"z": -1.92913886,
				"element": "C" 
			},
			{
				"x": 1.2946191118,
				"y": 1.421577899,
				"z": -1.2096707584,
				"element": "C" 
			},
			{
				"x": 1.3286973288,
				"y": 1.3158146038,
				"z": 0.1780533812,
				"element": "C" 
			},
			{
				"x": 0.4023468117,
				"y": 0.7057514213,
				"z": -3.6946112307,
				"element": "S" 
			},
			{
				"x": 1.911489292,
				"y": -0.6997305735,
				"z": -4.297564731,
				"element": "Cl" 
			},
			{
				"x": 0.8998742705,
				"y": 2.0140034462,
				"z": -4.1051796282,
				"element": "O" 
			},
			{
				"x": -0.8568275483,
				"y": 0.1619384027,
				"z": -4.1904406952,
				"element": "O" 
			},
			{
				"x": 3.2152130844,
				"y": 1.1341116251,
				"z": 2.2184264217,
				"element": "H" 
			},
			{
				"x": 2.9453687346,
				"y": -0.4418149993,
				"z": 2.9815106256,
				"element": "H" 
			},
			{
				"x": 3.2369257665,
				"y": 0.9930454212,
				"z": 3.9780553905,
				"element": "H" 
			},
			{
				"x": 0.8949145858,
				"y": 0.3929263436,
				"z": 4.0866093409,
				"element": "H" 
			},
			{
				"x": -0.2476605243,
				"y": 2.4481205823,
				"z": 3.3119419767,
				"element": "H" 
			},
			{
				"x": 1.2545587583,
				"y": 2.7816271451,
				"z": 4.188777054,
				"element": "H" 
			},
			{
				"x": 1.2029472441,
				"y": 2.9611383866,
				"z": 2.4334919963,
				"element": "H" 
			},
			{
				"x": -0.5425195134,
				"y": -2.204811926,
				"z": 1.4006481557,
				"element": "H" 
			},
			{
				"x": -1.7547991364,
				"y": -2.1007306128,
				"z": 0.1068370967,
				"element": "H" 
			},
			{
				"x": -1.8416112555,
				"y": -1.0306390085,
				"z": 1.5217211122,
				"element": "H" 
			},
			{
				"x": -0.9819466918,
				"y": -1.0292337699,
				"z": -1.8771821602,
				"element": "H" 
			},
			{
				"x": 1.8994179885,
				"y": 2.1605959833,
				"z": -1.7226511176,
				"element": "H" 
			},
			{
				"x": 1.9712788691,
				"y": 1.9829165486,
				"z": 0.7334298325,
				"element": "H" 
			}
		],
		 "valence_orbital": [ 
			{
				"type": "occ",
				"energy": -0.32392,
				"method": "rhf"
			},
			{
				"type": "occ",
				"energy": -0.31529,
				"method": "rhf"
			},
			{
				"type": "occ",
				"energy": -0.30133,
				"method": "rhf"
			},
			{
				"type": "occ",
				"energy": -0.2742,
				"method": "rhf"
			},
			{
				"type": "occ",
				"energy": -0.24529,
				"method": "rhf"
			},
			{
				"type": "unocc",
				"energy": -0.07876,
				"method": "rhf"
			},
			{
				"type": "unocc",
				"energy": -0.02649,
				"method": "rhf"
			},
			{
				"type": "unocc",
				"energy": -0.02518,
				"method": "rhf"
			},
			{
				"type": "unocc",
				"energy": 0.05806,
				"method": "rhf"
			},
			{
				"type": "unocc",
				"energy": 0.06991,
				"method": "rhf"
			}
		],
		"cosmo_sigma_profile": { 
			"-0.025": 0.0,
			"-0.024": 0.0,
			"-0.023": 0.0,
			"-0.022": 0.0,
			"-0.021": 0.0,
			"-0.02": 0.0,
			"-0.019": 0.0,
			"-0.018": 0.0,
			"-0.017": 0.0,
			"-0.016": 0.0,
			"-0.015": 0.0,
			"-0.014": 0.0,
			"-0.013": 0.0,
			"-0.012": 0.0,
			"-0.011": 0.0,
			"-0.01": 0.0,
			"-0.009": 0.402149964662,
			"-0.008": 4.21673223261,
			"-0.007": 5.73292863412,
			"-0.006": 6.9538915175,
			"-0.005": 15.0160010596,
			"-0.004": 22.7636099662,
			"-0.003": 21.4829437868,
			"-0.002": 23.3880968711,
			"-0.001": 29.5748309804,
			"0.0": 35.8088340828,
			"0.001": 23.3098262235,
			"0.002": 20.6342808423,
			"0.003": 11.5278896302,
			"0.004": 17.5616280059,
			"0.005": 7.13257611094,
			"0.006": 4.84879106578,
			"0.007": 5.85284578158,
			"0.008": 9.51482967596,
			"0.009": 7.45281801927,
			"0.01": 0.681161185612,
			"0.011": 0.0,
			"0.012": 0.0,
			"0.013": 0.0,
			"0.014": 0.0,
			"0.015": 0.0,
			"0.016": 0.0,
			"0.017": 0.0,
			"0.018": 0.0,
			"0.019": 0.0,
			"0.02": 0.0,
			"0.021": 0.0,
			"0.022": 0.0,
			"0.023": 0.0,
			"0.024": 0.0,
			"0.025": 0.0
		}
	}
}
