{
	 "smiles": "ClS(=O)(=O)C1=C(Br)C=CC(Br)=C1", 
	 "Tm": 344.15, 
	 "num_atms": 15, 
	 "gaussian": { 
		 "optdone": 1, 
		 "sigma_profile": "yes", 
		 "theory": "DFT", 
		 "functional": "B3LYP", 
		 "basiset": "6-31G**", 
		 "properties": { 
			 "R2extent": 6690.8893, 
			 "electric_dipole_moment_norm": 4.62519840223, 
			 "electric_quadrupole_moment_norm": 6.8697644996, 
			 "total_energy": -6381.99177272, 
			 "HOMO_LUMO_gap": 0.17111, 
			 "cosmo_polarized_energy": -9.21, 
			 "cosmo_cavitation_energy": 27.59, 
			 "cosmo_dispersion_energy": -21.49, 
			 "cosmo_repulsion_energy": 1.66, 
			 "cosmo_total_nonelectrostatic_energy": 7.76, 
			 "SMD_solvation_energy": 1.35 
		},
		"coords": [
			{
				"x": -0.3805024686,
				"y": -1.2482641421,
				"z": 4.4738795241,
				"element": "Cl" 
			},
			{
				"x": -1.1891450907,
				"y": -0.4536245344,
				"z": 2.6627981886,
				"element": "S" 
			},
			{
				"x": -1.4024436088,
				"y": 0.9633276936,
				"z": 2.9141056103,
				"element": "O" 
			},
			{
				"x": -2.2701134105,
				"y": -1.3513171505,
				"z": 2.2858618024,
				"element": "O" 
			},
			{
				"x": 0.1814859694,
				"y": -0.6466581336,
				"z": 1.4810403048,
				"element": "C" 
			},
			{
				"x": -0.0143479275,
				"y": -0.2135394705,
				"z": 0.1590662004,
				"element": "C" 
			},
			{
				"x": -1.6338020094,
				"y": 0.5612831483,
				"z": -0.4545536831,
				"element": "Br" 
			},
			{
				"x": 1.0265605198,
				"y": -0.3542997644,
				"z": -0.7601687091,
				"element": "C" 
			},
			{
				"x": 2.2435243681,
				"y": -0.9144325194,
				"z": -0.3806710412,
				"element": "C" 
			},
			{
				"x": 2.4204016213,
				"y": -1.3384649603,
				"z": 0.9339073766,
				"element": "C" 
			},
			{
				"x": 4.0767577014,
				"y": -2.1053796348,
				"z": 1.467564819,
				"element": "Br" 
			},
			{
				"x": 1.3970423751,
				"y": -1.2090043168,
				"z": 1.8703803595,
				"element": "C" 
			},
			{
				"x": 0.8769322822,
				"y": -0.020567337,
				"z": -1.7804235889,
				"element": "H" 
			},
			{
				"x": 3.0444118794,
				"y": -1.0184920794,
				"z": -1.1033823146,
				"element": "H" 
			},
			{
				"x": 1.5480377988,
				"y": -1.5423667987,
				"z": 2.8872951512,
				"element": "H" 
			}
		],
		 "valence_orbital": [ 
			{
				"type": "occ",
				"energy": -0.31689,
				"method": "rhf"
			},
			{
				"type": "occ",
				"energy": -0.31442,
				"method": "rhf"
			},
			{
				"type": "occ",
				"energy": -0.31014,
				"method": "rhf"
			},
			{
				"type": "occ",
				"energy": -0.30595,
				"method": "rhf"
			},
			{
				"type": "occ",
				"energy": -0.26739,
				"method": "rhf"
			},
			{
				"type": "unocc",
				"energy": -0.09628,
				"method": "rhf"
			},
			{
				"type": "unocc",
				"energy": -0.07148,
				"method": "rhf"
			},
			{
				"type": "unocc",
				"energy": -0.05709,
				"method": "rhf"
			},
			{
				"type": "unocc",
				"energy": -0.03561,
				"method": "rhf"
			},
			{
				"type": "unocc",
				"energy": -0.01392,
				"method": "rhf"
			}
		],
		"cosmo_sigma_profile": { 
			"-0.025": 0.0,
			"-0.024": 0.0,
			"-0.023": 0.0,
			"-0.022": 0.0,
			"-0.021": 0.0,
			"-0.02": 0.0,
			"-0.019": 0.0,
			"-0.018": 0.0,
			"-0.017": 0.0,
			"-0.016": 0.0,
			"-0.015": 0.0,
			"-0.014": 0.0,
			"-0.013": 0.0,
			"-0.012": 0.0,
			"-0.011": 0.0,
			"-0.01": 0.597419846929,
			"-0.009": 4.19431806441,
			"-0.008": 5.10525314123,
			"-0.007": 6.71416481518,
			"-0.006": 7.66276862379,
			"-0.005": 10.3203519326,
			"-0.004": 9.76234280944,
			"-0.003": 13.9361800668,
			"-0.002": 23.4168689095,
			"-0.001": 27.5093528436,
			"0.0": 19.3372104541,
			"0.001": 16.771367987,
			"0.002": 22.5433729804,
			"0.003": 25.5873039749,
			"0.004": 8.08722564999,
			"0.005": 4.87225236095,
			"0.006": 4.46260497876,
			"0.007": 9.20293135901,
			"0.008": 10.805872708,
			"0.009": 0.960224353498,
			"0.01": 0.0,
			"0.011": 0.0,
			"0.012": 0.0,
			"0.013": 0.0,
			"0.014": 0.0,
			"0.015": 0.0,
			"0.016": 0.0,
			"0.017": 0.0,
			"0.018": 0.0,
			"0.019": 0.0,
			"0.02": 0.0,
			"0.021": 0.0,
			"0.022": 0.0,
			"0.023": 0.0,
			"0.024": 0.0,
			"0.025": 0.0
		}
	}
}
