{
	 "smiles": "CN(C)S(=O)(=O)C1=CC=C(O1)C(O)=O", 
	 "Tm": 451.15, 
	 "num_atms": 23, 
	 "gaussian": { 
		 "optdone": 1, 
		 "sigma_profile": "yes", 
		 "theory": "DFT", 
		 "functional": "B3LYP", 
		 "basiset": "6-31G**", 
		 "properties": { 
			 "R2extent": 3503.5621, 
			 "electric_dipole_moment_norm": 4.14119107263, 
			 "electric_quadrupole_moment_norm": 28.9902805426, 
			 "total_energy": -1101.1239691, 
			 "HOMO_LUMO_gap": 0.18857, 
			 "cosmo_polarized_energy": -19.64, 
			 "cosmo_cavitation_energy": 29.45, 
			 "cosmo_dispersion_energy": -20.91, 
			 "cosmo_repulsion_energy": 1.6, 
			 "cosmo_total_nonelectrostatic_energy": 10.14, 
			 "SMD_solvation_energy": 5.6 
		},
		"coords": [
			{
				"x": -2.1669000606,
				"y": -2.7746760102,
				"z": -0.613745404,
				"element": "C" 
			},
			{
				"x": -2.6294162329,
				"y": -1.3888925753,
				"z": -0.7420687882,
				"element": "N" 
			},
			{
				"x": -2.7303796536,
				"y": -0.8777540689,
				"z": -2.112454727,
				"element": "C" 
			},
			{
				"x": -2.1312953276,
				"y": -0.3042266478,
				"z": 0.4317673256,
				"element": "S" 
			},
			{
				"x": -2.1969480908,
				"y": -0.9993215786,
				"z": 1.7129292861,
				"element": "O" 
			},
			{
				"x": -2.8135726289,
				"y": 0.9598849579,
				"z": 0.1698883983,
				"element": "O" 
			},
			{
				"x": -0.4126299228,
				"y": 0.0469134703,
				"z": 0.1122682981,
				"element": "C" 
			},
			{
				"x": 0.1958019492,
				"y": 1.1280577967,
				"z": -0.4643794439,
				"element": "C" 
			},
			{
				"x": 1.5892874175,
				"y": 0.8281617502,
				"z": -0.4862157237,
				"element": "C" 
			},
			{
				"x": 1.7292645443,
				"y": -0.4122367399,
				"z": 0.0723095795,
				"element": "C" 
			},
			{
				"x": 0.5023576469,
				"y": -0.9067636892,
				"z": 0.4414709682,
				"element": "O" 
			},
			{
				"x": 2.9221441889,
				"y": -1.2419641445,
				"z": 0.334950694,
				"element": "C" 
			},
			{
				"x": 2.6970779898,
				"y": -2.4045466017,
				"z": 0.9873640011,
				"element": "O" 
			},
			{
				"x": 4.0279045996,
				"y": -0.9033390264,
				"z": -0.0140523428,
				"element": "O" 
			},
			{
				"x": -1.1566305402,
				"y": -2.9207714775,
				"z": -1.0230196347,
				"element": "H" 
			},
			{
				"x": -2.8617287636,
				"y": -3.4140231931,
				"z": -1.1653425326,
				"element": "H" 
			},
			{
				"x": -2.1843870002,
				"y": -3.0665661552,
				"z": 0.435517684,
				"element": "H" 
			},
			{
				"x": -1.7560081148,
				"y": -0.8423222839,
				"z": -2.6220610886,
				"element": "H" 
			},
			{
				"x": -3.3926823659,
				"y": -1.5441353109,
				"z": -2.671611245,
				"element": "H" 
			},
			{
				"x": -3.1722736781,
				"y": 0.1177982169,
				"z": -2.0963968524,
				"element": "H" 
			},
			{
				"x": -0.3021891083,
				"y": 2.0227279,
				"z": -0.8061009015,
				"element": "H" 
			},
			{
				"x": 2.3972397558,
				"y": 1.4419842319,
				"z": -0.8554031923,
				"element": "H" 
			},
			{
				"x": 1.7584633966,
				"y": -2.4853888206,
				"z": 1.2193856418,
				"element": "H" 
			}
		],
		 "valence_orbital": [ 
			{
				"type": "occ",
				"energy": -0.32373,
				"method": "rhf"
			},
			{
				"type": "occ",
				"energy": -0.32075,
				"method": "rhf"
			},
			{
				"type": "occ",
				"energy": -0.29352,
				"method": "rhf"
			},
			{
				"type": "occ",
				"energy": -0.29028,
				"method": "rhf"
			},
			{
				"type": "occ",
				"energy": -0.26524,
				"method": "rhf"
			},
			{
				"type": "unocc",
				"energy": -0.07667,
				"method": "rhf"
			},
			{
				"type": "unocc",
				"energy": -0.00619,
				"method": "rhf"
			},
			{
				"type": "unocc",
				"energy": 0.04415,
				"method": "rhf"
			},
			{
				"type": "unocc",
				"energy": 0.0558,
				"method": "rhf"
			},
			{
				"type": "unocc",
				"energy": 0.07044,
				"method": "rhf"
			}
		],
		"cosmo_sigma_profile": { 
			"-0.025": 0.0,
			"-0.024": 0.0,
			"-0.023": 0.0,
			"-0.022": 0.0,
			"-0.021": 0.0,
			"-0.02": 0.0,
			"-0.019": 0.0,
			"-0.018": 0.304865907179,
			"-0.017": 0.611445272927,
			"-0.016": 0.398874782431,
			"-0.015": 0.904360472989,
			"-0.014": 0.381298030433,
			"-0.013": 0.682140457857,
			"-0.012": 1.64135910743,
			"-0.011": 1.07702441202,
			"-0.01": 2.12846160256,
			"-0.009": 4.00913021918,
			"-0.008": 4.41045347118,
			"-0.007": 6.8873038742,
			"-0.006": 12.5484629167,
			"-0.005": 19.0877066415,
			"-0.004": 20.1660966302,
			"-0.003": 27.69278708,
			"-0.002": 17.4048238403,
			"-0.001": 12.7606831545,
			"0.0": 12.1902429507,
			"0.001": 7.23844962318,
			"0.002": 6.09772514539,
			"0.003": 6.38733867634,
			"0.004": 6.65013084681,
			"0.005": 6.44867667457,
			"0.006": 6.37877821645,
			"0.007": 6.66137045472,
			"0.008": 7.23600760306,
			"0.009": 10.4914109697,
			"0.01": 13.8341564265,
			"0.011": 9.40131842122,
			"0.012": 2.54536012015,
			"0.013": 0.21405710956,
			"0.014": 0.0,
			"0.015": 0.0,
			"0.016": 0.0,
			"0.017": 0.0,
			"0.018": 0.0,
			"0.019": 0.0,
			"0.02": 0.0,
			"0.021": 0.0,
			"0.022": 0.0,
			"0.023": 0.0,
			"0.024": 0.0,
			"0.025": 0.0
		}
	}
}
