{
	 "smiles": "CC1=NN(C(N)=C1)C1=NC2=C(O1)C=CC=C2", 
	 "Tm": 495.15, 
	 "num_atms": 26, 
	 "gaussian": { 
		 "optdone": 1, 
		 "sigma_profile": "yes", 
		 "theory": "DFT", 
		 "functional": "B3LYP", 
		 "basiset": "6-31G**", 
		 "properties": { 
			 "R2extent": 4391.5694, 
			 "electric_dipole_moment_norm": 2.00715512604, 
			 "electric_quadrupole_moment_norm": 11.9022555795, 
			 "total_energy": -719.412891077, 
			 "HOMO_LUMO_gap": 0.17509, 
			 "cosmo_polarized_energy": -11.88, 
			 "cosmo_cavitation_energy": 30.51, 
			 "cosmo_dispersion_energy": -23.14, 
			 "cosmo_repulsion_energy": 1.8, 
			 "cosmo_total_nonelectrostatic_energy": 9.17, 
			 "SMD_solvation_energy": 3.68 
		},
		"coords": [
			{
				"x": -1.1582042689,
				"y": 2.6340586944,
				"z": -3.1747157699,
				"element": "C" 
			},
			{
				"x": -1.09797015,
				"y": 1.9811166285,
				"z": -1.8287993704,
				"element": "C" 
			},
			{
				"x": -0.0890460784,
				"y": 1.1802607153,
				"z": -1.5306674323,
				"element": "N" 
			},
			{
				"x": -0.3637770648,
				"y": 0.7654824361,
				"z": -0.2345649249,
				"element": "N" 
			},
			{
				"x": -1.5447802722,
				"y": 1.3161041074,
				"z": 0.2553603627,
				"element": "C" 
			},
			{
				"x": -2.0355013219,
				"y": 0.9925453246,
				"z": 1.49164229,
				"element": "N" 
			},
			{
				"x": -2.0346545803,
				"y": 2.1087405335,
				"z": -0.7624537446,
				"element": "C" 
			},
			{
				"x": 0.5116997929,
				"y": -0.0340447459,
				"z": 0.4532631161,
				"element": "C" 
			},
			{
				"x": 0.4002227653,
				"y": -0.3990785768,
				"z": 1.7001008579,
				"element": "N" 
			},
			{
				"x": 1.5293814591,
				"y": -1.1943585816,
				"z": 1.9112661737,
				"element": "C" 
			},
			{
				"x": 2.2683099054,
				"y": -1.2472014048,
				"z": 0.7217912096,
				"element": "C" 
			},
			{
				"x": 1.5979854131,
				"y": -0.4903926829,
				"z": -0.2215817911,
				"element": "O" 
			},
			{
				"x": 3.4522380562,
				"y": -1.9470016068,
				"z": 0.5722061585,
				"element": "C" 
			},
			{
				"x": 3.8980329455,
				"y": -2.6299335224,
				"z": 1.7096045848,
				"element": "C" 
			},
			{
				"x": 3.1776518022,
				"y": -2.5950241798,
				"z": 2.9153842167,
				"element": "C" 
			},
			{
				"x": 1.9843683982,
				"y": -1.8795417129,
				"z": 3.0389305281,
				"element": "C" 
			},
			{
				"x": -2.0657705025,
				"y": 2.3418789139,
				"z": -3.7146364068,
				"element": "H" 
			},
			{
				"x": -1.1702426667,
				"y": 3.7258403221,
				"z": -3.0832751507,
				"element": "H" 
			},
			{
				"x": -0.2898086529,
				"y": 2.342504238,
				"z": -3.7687298238,
				"element": "H" 
			},
			{
				"x": -1.3747721441,
				"y": 0.5530620427,
				"z": 2.1256591194,
				"element": "H" 
			},
			{
				"x": -2.6854382206,
				"y": 1.6504911248,
				"z": 1.892788225,
				"element": "H" 
			},
			{
				"x": -2.9471365933,
				"y": 2.6857342553,
				"z": -0.7474688953,
				"element": "H" 
			},
			{
				"x": 3.9954635957,
				"y": -1.9631923962,
				"z": -0.3657814336,
				"element": "H" 
			},
			{
				"x": 4.8209389742,
				"y": -3.1988904605,
				"z": 1.6567363889,
				"element": "H" 
			},
			{
				"x": 3.5601924528,
				"y": -3.1396950032,
				"z": 3.7733075452,
				"element": "H" 
			},
			{
				"x": 1.4285169559,
				"y": -1.853164463,
				"z": 3.9700339669,
				"element": "H" 
			}
		],
		 "valence_orbital": [ 
			{
				"type": "occ",
				"energy": -0.28463,
				"method": "rhf"
			},
			{
				"type": "occ",
				"energy": -0.27366,
				"method": "rhf"
			},
			{
				"type": "occ",
				"energy": -0.2478,
				"method": "rhf"
			},
			{
				"type": "occ",
				"energy": -0.21897,
				"method": "rhf"
			},
			{
				"type": "occ",
				"energy": -0.20492,
				"method": "rhf"
			},
			{
				"type": "unocc",
				"energy": -0.02983,
				"method": "rhf"
			},
			{
				"type": "unocc",
				"energy": 0.00365,
				"method": "rhf"
			},
			{
				"type": "unocc",
				"energy": 0.02036,
				"method": "rhf"
			},
			{
				"type": "unocc",
				"energy": 0.06788,
				"method": "rhf"
			},
			{
				"type": "unocc",
				"energy": 0.08046,
				"method": "rhf"
			}
		],
		"cosmo_sigma_profile": { 
			"-0.025": 0.0,
			"-0.024": 0.0,
			"-0.023": 0.0,
			"-0.022": 0.0,
			"-0.021": 0.0,
			"-0.02": 0.0,
			"-0.019": 0.0,
			"-0.018": 0.0,
			"-0.017": 0.0,
			"-0.016": 0.0,
			"-0.015": 0.055477918921,
			"-0.014": 1.02716117911,
			"-0.013": 1.67462096182,
			"-0.012": 0.767215762403,
			"-0.011": 1.46444063049,
			"-0.01": 1.62112307465,
			"-0.009": 1.91454631206,
			"-0.008": 2.64730941014,
			"-0.007": 5.65954762426,
			"-0.006": 11.376326759,
			"-0.005": 13.2730638284,
			"-0.004": 18.9271731757,
			"-0.003": 18.0007864813,
			"-0.002": 19.109639027,
			"-0.001": 20.0817238458,
			"0.0": 20.6943577849,
			"0.001": 14.1752846983,
			"0.002": 16.6927702118,
			"0.003": 18.5056738623,
			"0.004": 18.8005731325,
			"0.005": 13.1656014136,
			"0.006": 5.90899977035,
			"0.007": 4.33468378676,
			"0.008": 2.65132370712,
			"0.009": 2.43816868636,
			"0.01": 2.10609592111,
			"0.011": 1.82209128195,
			"0.012": 1.42890834951,
			"0.013": 1.74742887169,
			"0.014": 1.43996650702,
			"0.015": 0.849028189691,
			"0.016": 0.690166425069,
			"0.017": 0.00687078784126,
			"0.018": 0.0,
			"0.019": 0.0,
			"0.02": 0.0,
			"0.021": 0.0,
			"0.022": 0.0,
			"0.023": 0.0,
			"0.024": 0.0,
			"0.025": 0.0
		}
	}
}
