{
	 "smiles": "CC1=CC=C(S1)C(=O)NCC(O)=O", 
	 "Tm": 340.15, 
	 "num_atms": 22, 
	 "gaussian": { 
		 "optdone": 1, 
		 "sigma_profile": "yes", 
		 "theory": "DFT", 
		 "functional": "B3LYP", 
		 "basiset": "6-31G**", 
		 "properties": { 
			 "R2extent": 4159.2944, 
			 "electric_dipole_moment_norm": 2.56148813778, 
			 "electric_quadrupole_moment_norm": 26.6351082926, 
			 "total_energy": -988.897574941, 
			 "HOMO_LUMO_gap": 0.18949, 
			 "cosmo_polarized_energy": -18.08, 
			 "cosmo_cavitation_energy": 28.52, 
			 "cosmo_dispersion_energy": -21.21, 
			 "cosmo_repulsion_energy": 1.66, 
			 "cosmo_total_nonelectrostatic_energy": 8.98, 
			 "SMD_solvation_energy": 5.93 
		},
		"coords": [
			{
				"x": 3.2715793592,
				"y": -0.5238685671,
				"z": 2.4903790756,
				"element": "C" 
			},
			{
				"x": 1.9204687584,
				"y": -0.643815326,
				"z": 1.8502018414,
				"element": "C" 
			},
			{
				"x": 0.8959390033,
				"y": 0.2719084869,
				"z": 1.8681178601,
				"element": "C" 
			},
			{
				"x": -0.2521791002,
				"y": -0.1522369058,
				"z": 1.1439862903,
				"element": "C" 
			},
			{
				"x": -0.1004978634,
				"y": -1.3943156129,
				"z": 0.5684049767,
				"element": "C" 
			},
			{
				"x": 1.4681419178,
				"y": -2.0628158842,
				"z": 0.9507510992,
				"element": "S" 
			},
			{
				"x": -1.0256221167,
				"y": -2.270763289,
				"z": -0.1873779818,
				"element": "C" 
			},
			{
				"x": -0.8502711381,
				"y": -3.4863975871,
				"z": -0.225565429,
				"element": "O" 
			},
			{
				"x": -2.1091110618,
				"y": -1.702311622,
				"z": -0.8255579907,
				"element": "N" 
			},
			{
				"x": -2.2578846862,
				"y": -0.3367311768,
				"z": -1.2849380386,
				"element": "C" 
			},
			{
				"x": -2.7899990972,
				"y": -0.2011782686,
				"z": -2.7054239001,
				"element": "C" 
			},
			{
				"x": -3.176785475,
				"y": -1.3786569404,
				"z": -3.2440383438,
				"element": "O" 
			},
			{
				"x": -2.8849600673,
				"y": 0.858283357,
				"z": -3.2789855647,
				"element": "O" 
			},
			{
				"x": 4.0769580955,
				"y": -0.5557523875,
				"z": 1.7480361297,
				"element": "H" 
			},
			{
				"x": 3.3460013488,
				"y": 0.4258283425,
				"z": 3.0268598526,
				"element": "H" 
			},
			{
				"x": 3.455173751,
				"y": -1.3317577153,
				"z": 3.2071900294,
				"element": "H" 
			},
			{
				"x": 0.9630119909,
				"y": 1.2213256626,
				"z": 2.3887060848,
				"element": "H" 
			},
			{
				"x": -1.1632629975,
				"y": 0.4310270163,
				"z": 1.0874738784,
				"element": "H" 
			},
			{
				"x": -2.6584006715,
				"y": -2.3981147595,
				"z": -1.3144150785,
				"element": "H" 
			},
			{
				"x": -1.2982498382,
				"y": 0.1856241715,
				"z": -1.2602842089,
				"element": "H" 
			},
			{
				"x": -2.9467835976,
				"y": 0.2473667081,
				"z": -0.6563817783,
				"element": "H" 
			},
			{
				"x": -3.5139665141,
				"y": -1.1806477029,
				"z": -4.1339388036,
				"element": "H" 
			}
		],
		 "valence_orbital": [ 
			{
				"type": "occ",
				"energy": -0.30161,
				"method": "rhf"
			},
			{
				"type": "occ",
				"energy": -0.26038,
				"method": "rhf"
			},
			{
				"type": "occ",
				"energy": -0.25763,
				"method": "rhf"
			},
			{
				"type": "occ",
				"energy": -0.24941,
				"method": "rhf"
			},
			{
				"type": "occ",
				"energy": -0.23431,
				"method": "rhf"
			},
			{
				"type": "unocc",
				"energy": -0.04482,
				"method": "rhf"
			},
			{
				"type": "unocc",
				"energy": -0.00817,
				"method": "rhf"
			},
			{
				"type": "unocc",
				"energy": 0.02838,
				"method": "rhf"
			},
			{
				"type": "unocc",
				"energy": 0.0386,
				"method": "rhf"
			},
			{
				"type": "unocc",
				"energy": 0.05755,
				"method": "rhf"
			}
		],
		"cosmo_sigma_profile": { 
			"-0.025": 0.0,
			"-0.024": 0.0,
			"-0.023": 0.0,
			"-0.022": 0.0,
			"-0.021": 0.0,
			"-0.02": 0.0121795280046,
			"-0.019": 0.625414499898,
			"-0.018": 0.91586973534,
			"-0.017": 1.0685761999,
			"-0.016": 0.811475682413,
			"-0.015": 0.62698678451,
			"-0.014": 0.176576712879,
			"-0.013": 1.02240080068,
			"-0.012": 1.25041229562,
			"-0.011": 1.11051920481,
			"-0.01": 0.950971243396,
			"-0.009": 1.56667341339,
			"-0.008": 6.89482882954,
			"-0.007": 10.8286967984,
			"-0.006": 12.2359971431,
			"-0.005": 14.7847925449,
			"-0.004": 16.5696290092,
			"-0.003": 15.3786935156,
			"-0.002": 14.6173488809,
			"-0.001": 14.8653499088,
			"0.0": 12.2661774647,
			"0.001": 11.1819507851,
			"0.002": 12.7628529568,
			"0.003": 18.0999902209,
			"0.004": 15.1536069013,
			"0.005": 6.30278743924,
			"0.006": 3.12759798472,
			"0.007": 2.4972119628,
			"0.008": 3.77621442573,
			"0.009": 2.655044057,
			"0.01": 4.48719635862,
			"0.011": 6.61136816114,
			"0.012": 4.83445445878,
			"0.013": 5.31032639973,
			"0.014": 3.37900336432,
			"0.015": 0.026954177895,
			"0.016": 0.0,
			"0.017": 0.0,
			"0.018": 0.0,
			"0.019": 0.0,
			"0.02": 0.0,
			"0.021": 0.0,
			"0.022": 0.0,
			"0.023": 0.0,
			"0.024": 0.0,
			"0.025": 0.0
		}
	}
}
