{
	 "smiles": "CCOC(=O)C1=CSC(=N1)C1=C(Cl)C(Cl)=CC=C1", 
	 "Tm": 382.15, 
	 "num_atms": 27, 
	 "gaussian": { 
		 "optdone": 1, 
		 "sigma_profile": "yes", 
		 "theory": "DFT", 
		 "functional": "B3LYP", 
		 "basiset": "6-31G**", 
		 "properties": { 
			 "R2extent": 8816.1735, 
			 "electric_dipole_moment_norm": 2.51041136868, 
			 "electric_quadrupole_moment_norm": 7.2749393482, 
			 "total_energy": -1986.47523113, 
			 "HOMO_LUMO_gap": 0.16892, 
			 "cosmo_polarized_energy": -9.96, 
			 "cosmo_cavitation_energy": 37.17, 
			 "cosmo_dispersion_energy": -27.72, 
			 "cosmo_repulsion_energy": 2.11, 
			 "cosmo_total_nonelectrostatic_energy": 11.56, 
			 "SMD_solvation_energy": 6.02 
		},
		"coords": [
			{
				"x": -0.5278885351,
				"y": 0.623016714,
				"z": -4.7628153024,
				"element": "C" 
			},
			{
				"x": -1.6894811101,
				"y": 0.1073125673,
				"z": -3.9353447811,
				"element": "C" 
			},
			{
				"x": -1.2302365595,
				"y": -0.0048418881,
				"z": -2.5680866074,
				"element": "O" 
			},
			{
				"x": -2.1397234644,
				"y": -0.4545944332,
				"z": -1.6880373076,
				"element": "C" 
			},
			{
				"x": -3.2824196877,
				"y": -0.758628356,
				"z": -1.9747898659,
				"element": "O" 
			},
			{
				"x": -1.6009519491,
				"y": -0.5452554331,
				"z": -0.3046285673,
				"element": "C" 
			},
			{
				"x": -2.3722524,
				"y": -0.9831468972,
				"z": 0.7424374049,
				"element": "C" 
			},
			{
				"x": -1.460643705,
				"y": -0.9704823887,
				"z": 2.1961809091,
				"element": "S" 
			},
			{
				"x": -0.0597866436,
				"y": -0.3615853049,
				"z": 1.2883836418,
				"element": "C" 
			},
			{
				"x": -0.3164104184,
				"y": -0.2029883415,
				"z": 0.0144419848,
				"element": "N" 
			},
			{
				"x": 1.2809291619,
				"y": -0.0429416485,
				"z": 1.8289820086,
				"element": "C" 
			},
			{
				"x": 1.7016830595,
				"y": -0.1641965772,
				"z": 3.1711066864,
				"element": "C" 
			},
			{
				"x": 0.6201816564,
				"y": -0.7387344628,
				"z": 4.4173326713,
				"element": "Cl" 
			},
			{
				"x": 3.0158043173,
				"y": 0.1794789964,
				"z": 3.5345825725,
				"element": "C" 
			},
			{
				"x": 3.5627433043,
				"y": 0.0387902735,
				"z": 5.1892835245,
				"element": "Cl" 
			},
			{
				"x": 3.9209890192,
				"y": 0.6428983458,
				"z": 2.5837369077,
				"element": "C" 
			},
			{
				"x": 3.5139725328,
				"y": 0.7656038599,
				"z": 1.2566723343,
				"element": "C" 
			},
			{
				"x": 2.2206749917,
				"y": 0.4293098429,
				"z": 0.888599364,
				"element": "C" 
			},
			{
				"x": -0.1975578239,
				"y": 1.6022447337,
				"z": -4.4048511556,
				"element": "H" 
			},
			{
				"x": -0.8338465404,
				"y": 0.7231073882,
				"z": -5.8088714173,
				"element": "H" 
			},
			{
				"x": 0.3209417192,
				"y": -0.0650524508,
				"z": -4.7160247702,
				"element": "H" 
			},
			{
				"x": -2.5496959359,
				"y": 0.7836949846,
				"z": -3.963925312,
				"element": "H" 
			},
			{
				"x": -2.0337290578,
				"y": -0.8752698879,
				"z": -4.273368605,
				"element": "H" 
			},
			{
				"x": -3.4045954098,
				"y": -1.2992792101,
				"z": 0.7044592556,
				"element": "H" 
			},
			{
				"x": 4.9277516593,
				"y": 0.9006595446,
				"z": 2.8918640734,
				"element": "H" 
			},
			{
				"x": 4.2131640875,
				"y": 1.1260682102,
				"z": 0.5090042431,
				"element": "H" 
			},
			{
				"x": 1.8912837315,
				"y": 0.5198118188,
				"z": -0.1389238905,
				"element": "H" 
			}
		],
		 "valence_orbital": [ 
			{
				"type": "occ",
				"energy": -0.29043,
				"method": "rhf"
			},
			{
				"type": "occ",
				"energy": -0.28732,
				"method": "rhf"
			},
			{
				"type": "occ",
				"energy": -0.27456,
				"method": "rhf"
			},
			{
				"type": "occ",
				"energy": -0.25866,
				"method": "rhf"
			},
			{
				"type": "occ",
				"energy": -0.24019,
				"method": "rhf"
			},
			{
				"type": "unocc",
				"energy": -0.07127,
				"method": "rhf"
			},
			{
				"type": "unocc",
				"energy": -0.03886,
				"method": "rhf"
			},
			{
				"type": "unocc",
				"energy": -0.02856,
				"method": "rhf"
			},
			{
				"type": "unocc",
				"energy": -0.00615,
				"method": "rhf"
			},
			{
				"type": "unocc",
				"energy": 0.01688,
				"method": "rhf"
			}
		],
		"cosmo_sigma_profile": { 
			"-0.025": 0.0,
			"-0.024": 0.0,
			"-0.023": 0.0,
			"-0.022": 0.0,
			"-0.021": 0.0,
			"-0.02": 0.0,
			"-0.019": 0.0,
			"-0.018": 0.0,
			"-0.017": 0.0,
			"-0.016": 0.0,
			"-0.015": 0.0,
			"-0.014": 0.0,
			"-0.013": 0.0,
			"-0.012": 0.0,
			"-0.011": 0.0856243916099,
			"-0.01": 1.51896259581,
			"-0.009": 1.70310856193,
			"-0.008": 3.94653589348,
			"-0.007": 6.37448856537,
			"-0.006": 7.77994749614,
			"-0.005": 13.0252219213,
			"-0.004": 21.2729053618,
			"-0.003": 24.8449519183,
			"-0.002": 25.9486383714,
			"-0.001": 31.4586064772,
			"0.0": 42.1691230248,
			"0.001": 33.6643617391,
			"0.002": 26.8428172033,
			"0.003": 18.0011225291,
			"0.004": 15.719649923,
			"0.005": 4.43450730071,
			"0.006": 3.60513684877,
			"0.007": 3.28512980724,
			"0.008": 2.61694230681,
			"0.009": 3.10467219679,
			"0.01": 3.1882233663,
			"0.011": 4.21093867799,
			"0.012": 4.9167170814,
			"0.013": 0.687582946396,
			"0.014": 0.00637203300695,
			"0.015": 0.0,
			"0.016": 0.0,
			"0.017": 0.0,
			"0.018": 0.0,
			"0.019": 0.0,
			"0.02": 0.0,
			"0.021": 0.0,
			"0.022": 0.0,
			"0.023": 0.0,
			"0.024": 0.0,
			"0.025": 0.0
		}
	}
}
