{
	 "smiles": "FC1=CC2=C(NC(=O)CC2)C=C1", 
	 "Tm": 408.15, 
	 "num_atms": 20, 
	 "gaussian": { 
		 "optdone": 1, 
		 "sigma_profile": "yes", 
		 "theory": "DFT", 
		 "functional": "B3LYP", 
		 "basiset": "6-31G**", 
		 "properties": { 
			 "R2extent": 2283.4379, 
			 "electric_dipole_moment_norm": 1.57388921465, 
			 "electric_quadrupole_moment_norm": 20.57595006, 
			 "total_energy": -577.617301348, 
			 "HOMO_LUMO_gap": 0.19767, 
			 "cosmo_polarized_energy": -11.29, 
			 "cosmo_cavitation_energy": 23.98, 
			 "cosmo_dispersion_energy": -17.91, 
			 "cosmo_repulsion_energy": 1.4, 
			 "cosmo_total_nonelectrostatic_energy": 7.46, 
			 "SMD_solvation_energy": 4.83 
		},
		"coords": [
			{
				"x": 4.0908539176,
				"y": 0.692838658,
				"z": 1.3497420612,
				"element": "F" 
			},
			{
				"x": 2.8289557822,
				"y": 0.6332781261,
				"z": 0.8706302916,
				"element": "C" 
			},
			{
				"x": 2.2969855781,
				"y": -0.6048135067,
				"z": 0.5262515447,
				"element": "C" 
			},
			{
				"x": 0.9977493006,
				"y": -0.6857068551,
				"z": 0.0260169488,
				"element": "C" 
			},
			{
				"x": 0.2411103553,
				"y": 0.4947231378,
				"z": -0.1018434457,
				"element": "C" 
			},
			{
				"x": -1.0710496541,
				"y": 0.4098612979,
				"z": -0.6034040305,
				"element": "N" 
			},
			{
				"x": -1.839262497,
				"y": -0.7372682683,
				"z": -0.6620804204,
				"element": "C" 
			},
			{
				"x": -2.9889782676,
				"y": -0.7139327723,
				"z": -1.0705632364,
				"element": "O" 
			},
			{
				"x": -1.1421392411,
				"y": -1.9874459053,
				"z": -0.1436275577,
				"element": "C" 
			},
			{
				"x": 0.3672843003,
				"y": -1.9819525741,
				"z": -0.4275776917,
				"element": "C" 
			},
			{
				"x": 0.7927641759,
				"y": 1.7308112426,
				"z": 0.2507276989,
				"element": "C" 
			},
			{
				"x": 2.0981684739,
				"y": 1.8064866066,
				"z": 0.7354486074,
				"element": "C" 
			},
			{
				"x": 2.9048668735,
				"y": -1.4965470702,
				"z": 0.6428612159,
				"element": "H" 
			},
			{
				"x": -1.5562744827,
				"y": 1.2594316048,
				"z": -0.8619153768,
				"element": "H" 
			},
			{
				"x": -1.6426297486,
				"y": -2.8503025779,
				"z": -0.5871791105,
				"element": "H" 
			},
			{
				"x": -1.318773926,
				"y": -2.0284230922,
				"z": 0.9399706497,
				"element": "H" 
			},
			{
				"x": 0.851260828,
				"y": -2.8365677498,
				"z": 0.0550571751,
				"element": "H" 
			},
			{
				"x": 0.5292163586,
				"y": -2.1010644996,
				"z": -1.5088402348,
				"element": "H" 
			},
			{
				"x": 0.1993659507,
				"y": 2.6355800608,
				"z": 0.1511911421,
				"element": "H" 
			},
			{
				"x": 2.5432259221,
				"y": 2.7549141369,
				"z": 1.0147337692,
				"element": "H" 
			}
		],
		 "valence_orbital": [ 
			{
				"type": "occ",
				"energy": -0.34412,
				"method": "rhf"
			},
			{
				"type": "occ",
				"energy": -0.30387,
				"method": "rhf"
			},
			{
				"type": "occ",
				"energy": -0.26354,
				"method": "rhf"
			},
			{
				"type": "occ",
				"energy": -0.25512,
				"method": "rhf"
			},
			{
				"type": "occ",
				"energy": -0.21847,
				"method": "rhf"
			},
			{
				"type": "unocc",
				"energy": -0.0208,
				"method": "rhf"
			},
			{
				"type": "unocc",
				"energy": -0.0121,
				"method": "rhf"
			},
			{
				"type": "unocc",
				"energy": 0.03481,
				"method": "rhf"
			},
			{
				"type": "unocc",
				"energy": 0.07908,
				"method": "rhf"
			},
			{
				"type": "unocc",
				"energy": 0.09359,
				"method": "rhf"
			}
		],
		"cosmo_sigma_profile": { 
			"-0.025": 0.0,
			"-0.024": 0.0,
			"-0.023": 0.0,
			"-0.022": 0.0,
			"-0.021": 0.0,
			"-0.02": 0.0,
			"-0.019": 0.0,
			"-0.018": 0.0,
			"-0.017": 0.0,
			"-0.016": 0.0,
			"-0.015": 0.332060723077,
			"-0.014": 1.21137851109,
			"-0.013": 1.27994795109,
			"-0.012": 1.05858935759,
			"-0.011": 1.52198414396,
			"-0.01": 0.985306061457,
			"-0.009": 1.16806578826,
			"-0.008": 1.66605733185,
			"-0.007": 5.22519482922,
			"-0.006": 9.79073157443,
			"-0.005": 15.6870527927,
			"-0.004": 15.8385373379,
			"-0.003": 14.8117027,
			"-0.002": 14.4286260402,
			"-0.001": 10.3775086999,
			"0.0": 8.83073246071,
			"0.001": 12.7081781827,
			"0.002": 14.421777562,
			"0.003": 14.3647411279,
			"0.004": 16.7010242243,
			"0.005": 8.71486050158,
			"0.006": 0.964430774467,
			"0.007": 1.52534961245,
			"0.008": 1.67640294038,
			"0.009": 0.825575748745,
			"0.01": 1.20649475658,
			"0.011": 1.41744371918,
			"0.012": 2.58781245526,
			"0.013": 5.42702579856,
			"0.014": 3.64214801931,
			"0.015": 0.459889852159,
			"0.016": 0.0,
			"0.017": 0.0,
			"0.018": 0.0,
			"0.019": 0.0,
			"0.02": 0.0,
			"0.021": 0.0,
			"0.022": 0.0,
			"0.023": 0.0,
			"0.024": 0.0,
			"0.025": 0.0
		}
	}
}
