{
	 "smiles": "CCOC(=O)C1=C(C)N=C(S1)C1=CC=CC=C1", 
	 "Tm": 310.65, 
	 "num_atms": 30, 
	 "gaussian": { 
		 "optdone": 1, 
		 "sigma_profile": "yes", 
		 "theory": "DFT", 
		 "functional": "B3LYP", 
		 "basiset": "6-31G**", 
		 "properties": { 
			 "R2extent": 6639.3606, 
			 "electric_dipole_moment_norm": 1.34047942543, 
			 "electric_quadrupole_moment_norm": 17.3647506147, 
			 "total_energy": -1106.63056271, 
			 "HOMO_LUMO_gap": 0.15418, 
			 "cosmo_polarized_energy": -9.12, 
			 "cosmo_cavitation_energy": 35.81, 
			 "cosmo_dispersion_energy": -26.2, 
			 "cosmo_repulsion_energy": 1.99, 
			 "cosmo_total_nonelectrostatic_energy": 11.6, 
			 "SMD_solvation_energy": 5.72 
		},
		"coords": [
			{
				"x": 0.6430268476,
				"y": 3.038384442,
				"z": -4.7149416586,
				"element": "C" 
			},
			{
				"x": 1.7252838995,
				"y": 2.6933000204,
				"z": -3.7032034922,
				"element": "C" 
			},
			{
				"x": 1.4421615607,
				"y": 1.4407994188,
				"z": -3.0319111552,
				"element": "O" 
			},
			{
				"x": 0.6188721737,
				"y": 1.51168053,
				"z": -1.9588992345,
				"element": "C" 
			},
			{
				"x": 0.1281002426,
				"y": 2.5475357589,
				"z": -1.5439080822,
				"element": "O" 
			},
			{
				"x": 0.387272539,
				"y": 0.1987804919,
				"z": -1.3476379232,
				"element": "C" 
			},
			{
				"x": 0.8503133825,
				"y": -1.0674741007,
				"z": -1.6668979281,
				"element": "C" 
			},
			{
				"x": 1.7700740239,
				"y": -1.4384975264,
				"z": -2.7954101626,
				"element": "C" 
			},
			{
				"x": 0.4000919717,
				"y": -2.0623083487,
				"z": -0.8423838995,
				"element": "N" 
			},
			{
				"x": -0.3948189817,
				"y": -1.6087748241,
				"z": 0.1033837711,
				"element": "C" 
			},
			{
				"x": -0.6550748875,
				"y": 0.1220535736,
				"z": 0.0472694341,
				"element": "S" 
			},
			{
				"x": -1.0106836146,
				"y": -2.4737706958,
				"z": 1.1178056377,
				"element": "C" 
			},
			{
				"x": -0.7466348721,
				"y": -3.8550369897,
				"z": 1.0866812181,
				"element": "C" 
			},
			{
				"x": -1.3156411944,
				"y": -4.700571937,
				"z": 2.0343862304,
				"element": "C" 
			},
			{
				"x": -2.154848255,
				"y": -4.1856329227,
				"z": 3.0261533548,
				"element": "C" 
			},
			{
				"x": -2.4222330653,
				"y": -2.8151760682,
				"z": 3.0642214678,
				"element": "C" 
			},
			{
				"x": -1.8554496142,
				"y": -1.9646955201,
				"z": 2.1183083793,
				"element": "C" 
			},
			{
				"x": -0.3092707912,
				"y": 3.2190035205,
				"z": -4.2108941826,
				"element": "H" 
			},
			{
				"x": 0.5141704275,
				"y": 2.2293848511,
				"z": -5.4401082785,
				"element": "H" 
			},
			{
				"x": 0.9213774003,
				"y": 3.9468473159,
				"z": -5.2595514972,
				"element": "H" 
			},
			{
				"x": 2.6897230836,
				"y": 2.5254359109,
				"z": -4.1884273049,
				"element": "H" 
			},
			{
				"x": 1.8275359284,
				"y": 3.4793607664,
				"z": -2.9516315794,
				"element": "H" 
			},
			{
				"x": 2.7321652691,
				"y": -0.9257512383,
				"z": -2.7077560262,
				"element": "H" 
			},
			{
				"x": 1.3478772378,
				"y": -1.1518033002,
				"z": -3.7625345627,
				"element": "H" 
			},
			{
				"x": 1.9334250797,
				"y": -2.5170740615,
				"z": -2.7773917348,
				"element": "H" 
			},
			{
				"x": -0.0937759524,
				"y": -4.2402252699,
				"z": 0.3116312124,
				"element": "H" 
			},
			{
				"x": -1.1041072713,
				"y": -5.7653558798,
				"z": 1.999862773,
				"element": "H" 
			},
			{
				"x": -2.5976775945,
				"y": -4.8475137854,
				"z": 3.7646468245,
				"element": "H" 
			},
			{
				"x": -3.073238327,
				"y": -2.4074025597,
				"z": 3.8317585755,
				"element": "H" 
			},
			{
				"x": -2.0726166462,
				"y": -0.9009015721,
				"z": 2.1607798237,
				"element": "H" 
			}
		],
		 "valence_orbital": [ 
			{
				"type": "occ",
				"energy": -0.28794,
				"method": "rhf"
			},
			{
				"type": "occ",
				"energy": -0.27734,
				"method": "rhf"
			},
			{
				"type": "occ",
				"energy": -0.26303,
				"method": "rhf"
			},
			{
				"type": "occ",
				"energy": -0.25883,
				"method": "rhf"
			},
			{
				"type": "occ",
				"energy": -0.22515,
				"method": "rhf"
			},
			{
				"type": "unocc",
				"energy": -0.07097,
				"method": "rhf"
			},
			{
				"type": "unocc",
				"energy": -0.0132,
				"method": "rhf"
			},
			{
				"type": "unocc",
				"energy": -0.00626,
				"method": "rhf"
			},
			{
				"type": "unocc",
				"energy": 0.02038,
				"method": "rhf"
			},
			{
				"type": "unocc",
				"energy": 0.04658,
				"method": "rhf"
			}
		],
		"cosmo_sigma_profile": { 
			"-0.025": 0.0,
			"-0.024": 0.0,
			"-0.023": 0.0,
			"-0.022": 0.0,
			"-0.021": 0.0,
			"-0.02": 0.0,
			"-0.019": 0.0,
			"-0.018": 0.0,
			"-0.017": 0.0,
			"-0.016": 0.0,
			"-0.015": 0.0,
			"-0.014": 0.0,
			"-0.013": 0.0,
			"-0.012": 0.0,
			"-0.011": 0.0,
			"-0.01": 0.0,
			"-0.009": 0.0,
			"-0.008": 0.0934862055461,
			"-0.007": 2.67071694999,
			"-0.006": 10.2323411571,
			"-0.005": 18.5317418027,
			"-0.004": 24.4801806264,
			"-0.003": 26.3894876552,
			"-0.002": 25.231456297,
			"-0.001": 32.0197613921,
			"0.0": 35.1585264693,
			"0.001": 23.372629092,
			"0.002": 21.928849094,
			"0.003": 20.6362365855,
			"0.004": 18.177497983,
			"0.005": 6.6684315538,
			"0.006": 3.33303130061,
			"0.007": 3.28635619495,
			"0.008": 2.42858757973,
			"0.009": 2.96322796852,
			"0.01": 3.16352665206,
			"0.011": 2.91838295117,
			"0.012": 3.91633806338,
			"0.013": 0.0581073739454,
			"0.014": 0.0,
			"0.015": 0.0,
			"0.016": 0.0,
			"0.017": 0.0,
			"0.018": 0.0,
			"0.019": 0.0,
			"0.02": 0.0,
			"0.021": 0.0,
			"0.022": 0.0,
			"0.023": 0.0,
			"0.024": 0.0,
			"0.025": 0.0
		}
	}
}
