{
	 "smiles": "NC1=NC(CN2CCN(CC2)C2=CC=C(F)C=C2)=CS1", 
	 "Tm": 468.15, 
	 "num_atms": 37, 
	 "gaussian": { 
		 "optdone": 1, 
		 "sigma_profile": "yes", 
		 "theory": "DFT", 
		 "functional": "B3LYP", 
		 "basiset": "6-31G**", 
		 "properties": { 
			 "R2extent": 7021.4702, 
			 "electric_dipole_moment_norm": 1.90683694636, 
			 "electric_quadrupole_moment_norm": 9.10717816011, 
			 "total_energy": -1260.72784432, 
			 "HOMO_LUMO_gap": 0.19014, 
			 "cosmo_polarized_energy": -14.13, 
			 "cosmo_cavitation_energy": 41.07, 
			 "cosmo_dispersion_energy": -28.24, 
			 "cosmo_repulsion_energy": 2.1, 
			 "cosmo_total_nonelectrostatic_energy": 14.93, 
			 "SMD_solvation_energy": 4.15 
		},
		"coords": [
			{
				"x": 0.4068858942,
				"y": 0.0592633562,
				"z": 4.115267009,
				"element": "N" 
			},
			{
				"x": 0.950614945,
				"y": 1.0080839791,
				"z": 3.2781943479,
				"element": "C" 
			},
			{
				"x": 0.2965705698,
				"y": 1.5931917001,
				"z": 2.3184279741,
				"element": "N" 
			},
			{
				"x": 1.0795271738,
				"y": 2.5541566312,
				"z": 1.6991906369,
				"element": "C" 
			},
			{
				"x": 0.4937214784,
				"y": 3.3561035985,
				"z": 0.5653582706,
				"element": "C" 
			},
			{
				"x": 0.0916984673,
				"y": 2.5204298381,
				"z": -0.557952272,
				"element": "N" 
			},
			{
				"x": 1.2180014304,
				"y": 1.8697510454,
				"z": -1.2345293757,
				"element": "C" 
			},
			{
				"x": 0.7603828577,
				"y": 1.2870724317,
				"z": -2.5957110358,
				"element": "C" 
			},
			{
				"x": -0.6482547333,
				"y": 0.8953534615,
				"z": -2.5969548892,
				"element": "N" 
			},
			{
				"x": -1.5162218621,
				"y": 2.0539986379,
				"z": -2.3387453517,
				"element": "C" 
			},
			{
				"x": -0.8174865246,
				"y": 3.1542319193,
				"z": -1.5017672591,
				"element": "C" 
			},
			{
				"x": -0.9441369919,
				"y": -0.3354068446,
				"z": -1.9260956583,
				"element": "C" 
			},
			{
				"x": -1.3500079589,
				"y": -0.4137528892,
				"z": -0.5834328206,
				"element": "C" 
			},
			{
				"x": -1.6418971469,
				"y": -1.6486128242,
				"z": -0.0019250955,
				"element": "C" 
			},
			{
				"x": -1.497931401,
				"y": -2.8053877931,
				"z": -0.7577316557,
				"element": "C" 
			},
			{
				"x": -1.7729050053,
				"y": -4.0028658235,
				"z": -0.189684842,
				"element": "F" 
			},
			{
				"x": -1.0762436194,
				"y": -2.765188105,
				"z": -2.08170085,
				"element": "C" 
			},
			{
				"x": -0.8143185879,
				"y": -1.5244301948,
				"z": -2.6610577348,
				"element": "C" 
			},
			{
				"x": 2.3418973116,
				"y": 2.6985605347,
				"z": 2.189904206,
				"element": "C" 
			},
			{
				"x": 2.604496245,
				"y": 1.596113526,
				"z": 3.5223744532,
				"element": "S" 
			},
			{
				"x": 1.0391167395,
				"y": -0.6363898654,
				"z": 4.4851013251,
				"element": "H" 
			},
			{
				"x": -0.4569751422,
				"y": -0.326819411,
				"z": 3.7566508497,
				"element": "H" 
			},
			{
				"x": 1.2204333136,
				"y": 4.1389628763,
				"z": 0.2728171928,
				"element": "H" 
			},
			{
				"x": -0.4029316754,
				"y": 3.8696531035,
				"z": 0.9336432442,
				"element": "H" 
			},
			{
				"x": 2.0542520036,
				"y": 2.5761376958,
				"z": -1.4114284653,
				"element": "H" 
			},
			{
				"x": 1.6006000135,
				"y": 1.07685193,
				"z": -0.5832548158,
				"element": "H" 
			},
			{
				"x": 1.3799057577,
				"y": 0.4266235787,
				"z": -2.8620134629,
				"element": "H" 
			},
			{
				"x": 0.9001796457,
				"y": 2.0353923555,
				"z": -3.3861390603,
				"element": "H" 
			},
			{
				"x": -1.8420067795,
				"y": 2.4870106764,
				"z": -3.296733765,
				"element": "H" 
			},
			{
				"x": -2.4129849344,
				"y": 1.7052940625,
				"z": -1.8215551056,
				"element": "H" 
			},
			{
				"x": -0.3050583696,
				"y": 3.8787308031,
				"z": -2.1655624996,
				"element": "H" 
			},
			{
				"x": -1.5695161372,
				"y": 3.7236189776,
				"z": -0.9452906478,
				"element": "H" 
			},
			{
				"x": -1.3899800927,
				"y": 0.4897237317,
				"z": 0.0159521556,
				"element": "H" 
			},
			{
				"x": -1.9611537168,
				"y": -1.7234789845,
				"z": 1.0326415085,
				"element": "H" 
			},
			{
				"x": -0.9810325261,
				"y": -3.6880863727,
				"z": -2.6439779831,
				"element": "H" 
			},
			{
				"x": -0.5172304877,
				"y": -1.4597986447,
				"z": -3.7034198554,
				"element": "H" 
			},
			{
				"x": 3.1251898459,
				"y": 3.3633073016,
				"z": 1.8561413278,
				"element": "H" 
			}
		],
		 "valence_orbital": [ 
			{
				"type": "occ",
				"energy": -0.24784,
				"method": "rhf"
			},
			{
				"type": "occ",
				"energy": -0.24235,
				"method": "rhf"
			},
			{
				"type": "occ",
				"energy": -0.21232,
				"method": "rhf"
			},
			{
				"type": "occ",
				"energy": -0.20929,
				"method": "rhf"
			},
			{
				"type": "occ",
				"energy": -0.19462,
				"method": "rhf"
			},
			{
				"type": "unocc",
				"energy": -0.00448,
				"method": "rhf"
			},
			{
				"type": "unocc",
				"energy": -0.0001,
				"method": "rhf"
			},
			{
				"type": "unocc",
				"energy": 0.01204,
				"method": "rhf"
			},
			{
				"type": "unocc",
				"energy": 0.01424,
				"method": "rhf"
			},
			{
				"type": "unocc",
				"energy": 0.05267,
				"method": "rhf"
			}
		],
		"cosmo_sigma_profile": { 
			"-0.025": 0.0,
			"-0.024": 0.0,
			"-0.023": 0.0,
			"-0.022": 0.0,
			"-0.021": 0.0,
			"-0.02": 0.0,
			"-0.019": 0.0,
			"-0.018": 0.0,
			"-0.017": 0.0,
			"-0.016": 0.0,
			"-0.015": 0.191784763078,
			"-0.014": 1.53927942303,
			"-0.013": 2.53098194706,
			"-0.012": 2.08435134816,
			"-0.011": 2.38635414696,
			"-0.01": 3.81218902235,
			"-0.009": 1.69357906907,
			"-0.008": 2.65903208775,
			"-0.007": 5.91532823566,
			"-0.006": 7.24190180862,
			"-0.005": 12.0376303108,
			"-0.004": 19.4212799381,
			"-0.003": 26.4789168776,
			"-0.002": 41.4727352712,
			"-0.001": 31.73082802,
			"0.0": 19.731624457,
			"0.001": 20.720478746,
			"0.002": 23.5238754667,
			"0.003": 21.900065493,
			"0.004": 28.053411233,
			"0.005": 25.132785944,
			"0.006": 5.26664612685,
			"0.007": 4.93905753205,
			"0.008": 3.66674077703,
			"0.009": 3.19814167444,
			"0.01": 3.07711062324,
			"0.011": 2.73869400358,
			"0.012": 1.75803148826,
			"0.013": 0.805314073024,
			"0.014": 0.571050602913,
			"0.015": 0.138382588483,
			"0.016": 0.0,
			"0.017": 0.0,
			"0.018": 0.0,
			"0.019": 0.0,
			"0.02": 0.0,
			"0.021": 0.0,
			"0.022": 0.0,
			"0.023": 0.0,
			"0.024": 0.0,
			"0.025": 0.0
		}
	}
}
