{
	 "smiles": "COC(=O)C1=CC(I)=C(C=C1)C(=O)OC", 
	 "Tm": 354.65, 
	 "num_atms": 24, 
	 "gaussian": { 
		 "optdone": 1, 
		 "sigma_profile": "no", 
		 "theory": "DFT", 
		 "functional": "B3LYP", 
		 "basiset": "6-31G**", 
		 "properties": { 
			 "R2extent": 4567.3028, 
			 "electric_dipole_moment_norm": 1.33903710554, 
			 "electric_quadrupole_moment_norm": 25.2921372883, 
			 "total_energy": -698.78009548, 
			 "HOMO_LUMO_gap": 0.16745, 
			 "cosmo_polarized_energy": -84590.47, 
			 "cosmo_cavitation_energy": 32.38, 
			 "cosmo_dispersion_energy": -24.77, 
			 "cosmo_repulsion_energy": 1.92, 
			 "cosmo_total_nonelectrostatic_energy": 9.54, 
			 "SMD_solvation_energy": 7.89 
		},
		"coords": [
			{
				"x": 1.0696225041,
				"y": -3.3310229603,
				"z": 3.0175079487,
				"element": "C" 
			},
			{
				"x": 0.9056893501,
				"y": -2.3892649814,
				"z": 1.9440328746,
				"element": "O" 
			},
			{
				"x": 0.1276185368,
				"y": -1.3237955694,
				"z": 2.2253999659,
				"element": "C" 
			},
			{
				"x": -0.4078302247,
				"y": -1.1492264691,
				"z": 3.3018708517,
				"element": "O" 
			},
			{
				"x": 0.0002968394,
				"y": -0.3869920259,
				"z": 1.0678312654,
				"element": "C" 
			},
			{
				"x": 0.6374336775,
				"y": -0.6252670942,
				"z": -0.1541787518,
				"element": "C" 
			},
			{
				"x": 0.4882514531,
				"y": 0.268633392,
				"z": -1.217010987,
				"element": "C" 
			},
			{
				"x": 1.5642515292,
				"y": -0.2311871065,
				"z": -2.9776911236,
				"element": "I" 
			},
			{
				"x": -0.29748132,
				"y": 1.4277544167,
				"z": -1.0633571229,
				"element": "C" 
			},
			{
				"x": -0.9183920389,
				"y": 1.653251816,
				"z": 0.1799041241,
				"element": "C" 
			},
			{
				"x": -0.781383551,
				"y": 0.7609059602,
				"z": 1.2328638576,
				"element": "C" 
			},
			{
				"x": -0.5372130833,
				"y": 2.4119776831,
				"z": -2.1686725874,
				"element": "C" 
			},
			{
				"x": -0.4249315149,
				"y": 2.1846585149,
				"z": -3.353682529,
				"element": "O" 
			},
			{
				"x": -0.923759939,
				"y": 3.6141031537,
				"z": -1.6820400412,
				"element": "O" 
			},
			{
				"x": -1.2227997549,
				"y": 4.606047064,
				"z": -2.6782411793,
				"element": "C" 
			},
			{
				"x": 1.5316145846,
				"y": -2.8489901379,
				"z": 3.8824808324,
				"element": "H" 
			},
			{
				"x": 0.1025889973,
				"y": -3.742275508,
				"z": 3.3169420038,
				"element": "H" 
			},
			{
				"x": 1.715620278,
				"y": -4.114904245,
				"z": 2.6233172305,
				"element": "H" 
			},
			{
				"x": 1.2492444687,
				"y": -1.5101514985,
				"z": -0.2697739666,
				"element": "H" 
			},
			{
				"x": -1.5185077194,
				"y": 2.5468606711,
				"z": 0.298805125,
				"element": "H" 
			},
			{
				"x": -1.2675721319,
				"y": 0.934212145,
				"z": 2.1862349885,
				"element": "H" 
			},
			{
				"x": -2.0392082032,
				"y": 4.2705294332,
				"z": -3.3226234773,
				"element": "H" 
			},
			{
				"x": -0.3442595215,
				"y": 4.8042168798,
				"z": -3.2967183799,
				"element": "H" 
			},
			{
				"x": -1.5118932159,
				"y": 5.4985264665,
				"z": -2.1238009221,
				"element": "H" 
			}
		],
		 "valence_orbital": [ 
			{
				"type": "occ",
				"energy": -0.29299,
				"method": "rhf"
			},
			{
				"type": "occ",
				"energy": -0.28529,
				"method": "rhf"
			},
			{
				"type": "occ",
				"energy": -0.27659,
				"method": "rhf"
			},
			{
				"type": "occ",
				"energy": -0.25144,
				"method": "rhf"
			},
			{
				"type": "occ",
				"energy": -0.24487,
				"method": "rhf"
			},
			{
				"type": "unocc",
				"energy": -0.07742,
				"method": "rhf"
			},
			{
				"type": "unocc",
				"energy": -0.04016,
				"method": "rhf"
			},
			{
				"type": "unocc",
				"energy": -0.02783,
				"method": "rhf"
			},
			{
				"type": "unocc",
				"energy": 0.00375,
				"method": "rhf"
			},
			{
				"type": "unocc",
				"energy": 0.04818,
				"method": "rhf"
			}
		],
		"cosmo_sigma_profile": { 
			"0.0": 0.0,
			"0.0": 0.0,
			"0.0": 0.0,
			"0.0": 0.0,
			"0.0": 0.0,
			"0.0": 0.0,
			"0.0": 0.0,
			"0.0": 0.0,
			"0.0": 0.0,
			"0.0": 0.0,
			"0.0": 0.0,
			"0.0": 0.0,
			"0.0": 0.0,
			"0.0": 0.0,
			"0.0": 0.0,
			"0.0": 0.0,
			"0.0": 0.0,
			"0.0": 0.0,
			"0.0": 0.0,
			"0.0": 0.0,
			"0.0": 0.0,
			"0.0": 0.0,
			"0.0": 0.0,
			"0.0": 0.0,
			"0.0": 0.0,
			"0.0": 0.0,
			"0.0": 0.0,
			"0.0": 0.0,
			"0.0": 0.0,
			"0.0": 0.0,
			"0.0": 0.0,
			"0.0": 0.0,
			"0.0": 0.0,
			"0.0": 0.0,
			"0.0": 0.0,
			"0.0": 0.0,
			"0.0": 0.0,
			"0.0": 0.0,
			"0.0": 0.0,
			"0.0": 0.0,
			"0.0": 0.0,
			"0.0": 0.0,
			"0.0": 0.0,
			"0.0": 0.0,
			"0.0": 0.0,
			"0.0": 0.0,
			"0.0": 0.0,
			"0.0": 0.0,
			"0.0": 0.0,
			"0.0": 0.0,
			"0.0": 0.0
		}
	}
}
