{
	 "smiles": "CC1=NC(CO)=C(C)S1", 
	 "Tm": 318.15, 
	 "num_atms": 18, 
	 "gaussian": { 
		 "optdone": 1, 
		 "sigma_profile": "yes", 
		 "theory": "DFT", 
		 "functional": "B3LYP", 
		 "basiset": "6-31G**", 
		 "properties": { 
			 "R2extent": 1852.5767, 
			 "electric_dipole_moment_norm": 2.58472194636, 
			 "electric_quadrupole_moment_norm": 12.3623343055, 
			 "total_energy": -762.219936153, 
			 "HOMO_LUMO_gap": 0.20729, 
			 "cosmo_polarized_energy": -7.69, 
			 "cosmo_cavitation_energy": 22.79, 
			 "cosmo_dispersion_energy": -17.49, 
			 "cosmo_repulsion_energy": 1.42, 
			 "cosmo_total_nonelectrostatic_energy": 6.72, 
			 "SMD_solvation_energy": 2.72 
		},
		"coords": [
			{
				"x": -2.312043629,
				"y": -3.0042372872,
				"z": 0.5484778669,
				"element": "C" 
			},
			{
				"x": -1.6614594046,
				"y": -1.6664698102,
				"z": 0.3720340653,
				"element": "C" 
			},
			{
				"x": -0.8769826091,
				"y": -1.1082661182,
				"z": 1.2456008215,
				"element": "N" 
			},
			{
				"x": -0.42189213,
				"y": 0.1300046993,
				"z": 0.8268024056,
				"element": "C" 
			},
			{
				"x": 0.5106172431,
				"y": 0.8375292231,
				"z": 1.7817387739,
				"element": "C" 
			},
			{
				"x": 0.0770520547,
				"y": 0.7044397635,
				"z": 3.1224443099,
				"element": "O" 
			},
			{
				"x": -0.8611427262,
				"y": 0.5468578785,
				"z": -0.3997222355,
				"element": "C" 
			},
			{
				"x": -0.5675478671,
				"y": 1.8119445878,
				"z": -1.1476400405,
				"element": "C" 
			},
			{
				"x": -1.9028922947,
				"y": -0.6925737232,
				"z": -1.0734702549,
				"element": "S" 
			},
			{
				"x": -2.0077548672,
				"y": -3.7066645931,
				"z": -0.2347926117,
				"element": "H" 
			},
			{
				"x": -2.0143774333,
				"y": -3.4093224736,
				"z": 1.5174964739,
				"element": "H" 
			},
			{
				"x": -3.4042076712,
				"y": -2.9275902901,
				"z": 0.51928374,
				"element": "H" 
			},
			{
				"x": 1.5291757761,
				"y": 0.4303465122,
				"z": 1.6544214274,
				"element": "H" 
			},
			{
				"x": 0.5637969689,
				"y": 1.9074172043,
				"z": 1.5576813424,
				"element": "H" 
			},
			{
				"x": -0.2399607955,
				"y": -0.2085546676,
				"z": 3.201316762,
				"element": "H" 
			},
			{
				"x": -0.0497481216,
				"y": 2.5238719991,
				"z": -0.4997851222,
				"element": "H" 
			},
			{
				"x": -1.4843366072,
				"y": 2.2923612637,
				"z": -1.5053316535,
				"element": "H" 
			},
			{
				"x": 0.0719041139,
				"y": 1.6316058315,
				"z": -2.0197560704,
				"element": "H" 
			}
		],
		 "valence_orbital": [ 
			{
				"type": "occ",
				"energy": -0.32584,
				"method": "rhf"
			},
			{
				"type": "occ",
				"energy": -0.27801,
				"method": "rhf"
			},
			{
				"type": "occ",
				"energy": -0.27629,
				"method": "rhf"
			},
			{
				"type": "occ",
				"energy": -0.25858,
				"method": "rhf"
			},
			{
				"type": "occ",
				"energy": -0.23143,
				"method": "rhf"
			},
			{
				"type": "unocc",
				"energy": -0.02414,
				"method": "rhf"
			},
			{
				"type": "unocc",
				"energy": 0.0136,
				"method": "rhf"
			},
			{
				"type": "unocc",
				"energy": 0.0502,
				"method": "rhf"
			},
			{
				"type": "unocc",
				"energy": 0.08632,
				"method": "rhf"
			},
			{
				"type": "unocc",
				"energy": 0.10345,
				"method": "rhf"
			}
		],
		"cosmo_sigma_profile": { 
			"-0.025": 0.0,
			"-0.024": 0.0,
			"-0.023": 0.0,
			"-0.022": 0.0,
			"-0.021": 0.0,
			"-0.02": 0.0,
			"-0.019": 0.0,
			"-0.018": 0.0,
			"-0.017": 0.0,
			"-0.016": 0.0,
			"-0.015": 0.0,
			"-0.014": 0.0,
			"-0.013": 0.0,
			"-0.012": 0.00535813030101,
			"-0.011": 0.252725830699,
			"-0.01": 0.617619825147,
			"-0.009": 0.807791494457,
			"-0.008": 0.375454689973,
			"-0.007": 1.38220037911,
			"-0.006": 6.21807677221,
			"-0.005": 13.6159780414,
			"-0.004": 18.5895049404,
			"-0.003": 21.245679761,
			"-0.002": 20.8217514522,
			"-0.001": 18.5108805968,
			"0.0": 11.3251500532,
			"0.001": 10.043407291,
			"0.002": 13.2811543952,
			"0.003": 12.0188497773,
			"0.004": 8.05060431068,
			"0.005": 4.6960509741,
			"0.006": 2.59528704687,
			"0.007": 3.19432754774,
			"0.008": 2.04659858813,
			"0.009": 1.42151923548,
			"0.01": 2.19854682587,
			"0.011": 2.12997251257,
			"0.012": 2.08157046595,
			"0.013": 1.20372080573,
			"0.014": 2.79564482709,
			"0.015": 0.574600843553,
			"0.016": 0.0,
			"0.017": 0.0,
			"0.018": 0.0,
			"0.019": 0.0,
			"0.02": 0.0,
			"0.021": 0.0,
			"0.022": 0.0,
			"0.023": 0.0,
			"0.024": 0.0,
			"0.025": 0.0
		}
	}
}
