{
	 "smiles": "C1CC(CCN1)C1=CNC2=C1C=CC=C2", 
	 "Tm": 495.15, 
	 "num_atms": 31, 
	 "gaussian": { 
		 "optdone": 1, 
		 "sigma_profile": "yes", 
		 "theory": "DFT", 
		 "functional": "B3LYP", 
		 "basiset": "6-31G**", 
		 "properties": { 
			 "R2extent": 3850.9939, 
			 "electric_dipole_moment_norm": 1.31750060721, 
			 "electric_quadrupole_moment_norm": 14.7299982186, 
			 "total_energy": -614.526699815, 
			 "HOMO_LUMO_gap": 0.19043, 
			 "cosmo_polarized_energy": -10.5, 
			 "cosmo_cavitation_energy": 31.73, 
			 "cosmo_dispersion_energy": -23.4, 
			 "cosmo_repulsion_energy": 1.83, 
			 "cosmo_total_nonelectrostatic_energy": 10.17, 
			 "SMD_solvation_energy": 2.62 
		},
		"coords": [
			{
				"x": 1.0005844141,
				"y": 2.618544897,
				"z": 0.6973296866,
				"element": "C" 
			},
			{
				"x": 0.0909997527,
				"y": 1.928090204,
				"z": -0.3426994106,
				"element": "C" 
			},
			{
				"x": 0.6803360059,
				"y": 0.5597218857,
				"z": -0.7889284079,
				"element": "C" 
			},
			{
				"x": 1.4501815183,
				"y": -0.0728687633,
				"z": 0.391233028,
				"element": "C" 
			},
			{
				"x": 2.6344897154,
				"y": 0.822241943,
				"z": 0.8268448995,
				"element": "C" 
			},
			{
				"x": 2.3863084092,
				"y": 2.2209993993,
				"z": 0.4516412411,
				"element": "N" 
			},
			{
				"x": -0.356272254,
				"y": -0.3557808438,
				"z": -1.3859375315,
				"element": "C" 
			},
			{
				"x": -0.3514026587,
				"y": -0.8178160374,
				"z": -2.6785285706,
				"element": "C" 
			},
			{
				"x": -1.4417694795,
				"y": -1.6392395261,
				"z": -2.9028049911,
				"element": "N" 
			},
			{
				"x": -2.1848576415,
				"y": -1.7261803168,
				"z": -1.7448950383,
				"element": "C" 
			},
			{
				"x": -1.5315215707,
				"y": -0.9285679114,
				"z": -0.7616776121,
				"element": "C" 
			},
			{
				"x": -2.1046757721,
				"y": -0.855092585,
				"z": 0.5226336189,
				"element": "C" 
			},
			{
				"x": -3.2759074519,
				"y": -1.5534906228,
				"z": 0.7891637,
				"element": "C" 
			},
			{
				"x": -3.9005733615,
				"y": -2.335475605,
				"z": -0.2034529362,
				"element": "C" 
			},
			{
				"x": -3.3637487976,
				"y": -2.4320530067,
				"z": -1.4817288505,
				"element": "C" 
			},
			{
				"x": 0.9252826011,
				"y": 3.7071167355,
				"z": 0.605057676,
				"element": "H" 
			},
			{
				"x": 0.660268971,
				"y": 2.3671304288,
				"z": 1.7208850259,
				"element": "H" 
			},
			{
				"x": -0.910199408,
				"y": 1.7900893995,
				"z": 0.0796971011,
				"element": "H" 
			},
			{
				"x": -0.0257436626,
				"y": 2.5630630975,
				"z": -1.227444288,
				"element": "H" 
			},
			{
				"x": 1.4197994798,
				"y": 0.766884142,
				"z": -1.5718052373,
				"element": "H" 
			},
			{
				"x": 1.814607904,
				"y": -1.0680182018,
				"z": 0.1173634883,
				"element": "H" 
			},
			{
				"x": 0.7622495107,
				"y": -0.2207789385,
				"z": 1.2316393582,
				"element": "H" 
			},
			{
				"x": 3.5560193734,
				"y": 0.4971405095,
				"z": 0.3272500492,
				"element": "H" 
			},
			{
				"x": 2.7967804512,
				"y": 0.6923674464,
				"z": 1.9126520303,
				"element": "H" 
			},
			{
				"x": 3.0289763281,
				"y": 2.8318558486,
				"z": 0.9458463073,
				"element": "H" 
			},
			{
				"x": 0.3576590588,
				"y": -0.6189063352,
				"z": -3.4705186102,
				"element": "H" 
			},
			{
				"x": -1.660566432,
				"y": -2.0943069732,
				"z": -3.7733245157,
				"element": "H" 
			},
			{
				"x": -1.6401434859,
				"y": -0.2591763851,
				"z": 1.3022662927,
				"element": "H" 
			},
			{
				"x": -3.7198294402,
				"y": -1.4979759369,
				"z": 1.7789599337,
				"element": "H" 
			},
			{
				"x": -4.8152633584,
				"y": -2.8709406231,
				"z": 0.0339174082,
				"element": "H" 
			},
			{
				"x": -3.8428687189,
				"y": -3.0342773249,
				"z": -2.249034845,
				"element": "H" 
			}
		],
		 "valence_orbital": [ 
			{
				"type": "occ",
				"energy": -0.30059,
				"method": "rhf"
			},
			{
				"type": "occ",
				"energy": -0.26072,
				"method": "rhf"
			},
			{
				"type": "occ",
				"energy": -0.21346,
				"method": "rhf"
			},
			{
				"type": "occ",
				"energy": -0.20716,
				"method": "rhf"
			},
			{
				"type": "occ",
				"energy": -0.19257,
				"method": "rhf"
			},
			{
				"type": "unocc",
				"energy": -0.00214,
				"method": "rhf"
			},
			{
				"type": "unocc",
				"energy": 0.03382,
				"method": "rhf"
			},
			{
				"type": "unocc",
				"energy": 0.07504,
				"method": "rhf"
			},
			{
				"type": "unocc",
				"energy": 0.07829,
				"method": "rhf"
			},
			{
				"type": "unocc",
				"energy": 0.08641,
				"method": "rhf"
			}
		],
		"cosmo_sigma_profile": { 
			"-0.025": 0.0,
			"-0.024": 0.0,
			"-0.023": 0.0,
			"-0.022": 0.0,
			"-0.021": 0.0,
			"-0.02": 0.0,
			"-0.019": 0.0,
			"-0.018": 0.0,
			"-0.017": 0.0,
			"-0.016": 0.0359729758232,
			"-0.015": 1.15829811026,
			"-0.014": 1.70346528072,
			"-0.013": 1.2698257227,
			"-0.012": 1.31956079105,
			"-0.011": 1.07116619212,
			"-0.01": 1.20569810511,
			"-0.009": 3.13988578592,
			"-0.008": 2.62529528976,
			"-0.007": 4.25627837884,
			"-0.006": 5.93513475791,
			"-0.005": 7.55861446739,
			"-0.004": 13.3597192279,
			"-0.003": 18.7297167678,
			"-0.002": 25.9063592191,
			"-0.001": 33.4722417708,
			"0.0": 28.9571207696,
			"0.001": 16.5395030464,
			"0.002": 11.5182763927,
			"0.003": 9.74105285651,
			"0.004": 11.0283664191,
			"0.005": 14.1076597239,
			"0.006": 14.4411873408,
			"0.007": 10.3848580678,
			"0.008": 3.71560650503,
			"0.009": 0.828613284542,
			"0.01": 0.649391588603,
			"0.011": 0.817825886463,
			"0.012": 0.668394934149,
			"0.013": 0.641672058499,
			"0.014": 0.390788596729,
			"0.015": 0.257725759153,
			"0.016": 0.564187444099,
			"0.017": 0.44541879661,
			"0.018": 0.348064941206,
			"0.019": 0.0452672289322,
			"0.02": 0.0,
			"0.021": 0.0,
			"0.022": 0.0,
			"0.023": 0.0,
			"0.024": 0.0,
			"0.025": 0.0
		}
	}
}
