{
	 "smiles": "O=CC1=CN(N=C1)C1CCS(=O)(=O)C1", 
	 "Tm": 385.15, 
	 "num_atms": 24, 
	 "gaussian": { 
		 "optdone": 1, 
		 "sigma_profile": "yes", 
		 "theory": "DFT", 
		 "functional": "B3LYP", 
		 "basiset": "6-31G**", 
		 "properties": { 
			 "R2extent": 3543.1199, 
			 "electric_dipole_moment_norm": 4.14749116214, 
			 "electric_quadrupole_moment_norm": 26.0196159122, 
			 "total_energy": -1044.14253748, 
			 "HOMO_LUMO_gap": 0.20495, 
			 "cosmo_polarized_energy": -22.3, 
			 "cosmo_cavitation_energy": 28.78, 
			 "cosmo_dispersion_energy": -21.3, 
			 "cosmo_repulsion_energy": 1.61, 
			 "cosmo_total_nonelectrostatic_energy": 9.09, 
			 "SMD_solvation_energy": 4.32 
		},
		"coords": [
			{
				"x": 1.4122703367,
				"y": 4.1871075034,
				"z": 2.5242563924,
				"element": "O" 
			},
			{
				"x": 1.4755370465,
				"y": 3.4536125958,
				"z": 1.5530381245,
				"element": "C" 
			},
			{
				"x": 0.931583702,
				"y": 2.0982338358,
				"z": 1.5157726546,
				"element": "C" 
			},
			{
				"x": 0.9604270785,
				"y": 1.2021190185,
				"z": 0.4517240392,
				"element": "C" 
			},
			{
				"x": 0.3480514779,
				"y": 0.0712028081,
				"z": 0.8825670864,
				"element": "N" 
			},
			{
				"x": -0.095819759,
				"y": 0.1785380205,
				"z": 2.1694168243,
				"element": "N" 
			},
			{
				"x": 0.2592405278,
				"y": 1.3956225317,
				"z": 2.551422406,
				"element": "C" 
			},
			{
				"x": 0.0213473497,
				"y": -1.1679914736,
				"z": 0.1735414142,
				"element": "C" 
			},
			{
				"x": -1.4100650253,
				"y": -1.1245853698,
				"z": -0.4270372703,
				"element": "C" 
			},
			{
				"x": -1.3663824466,
				"y": -0.2887178022,
				"z": -1.7088244325,
				"element": "C" 
			},
			{
				"x": 0.2481251189,
				"y": -0.6916928943,
				"z": -2.4924269118,
				"element": "S" 
			},
			{
				"x": 0.0616477367,
				"y": -1.7272566186,
				"z": -3.5179261168,
				"element": "O" 
			},
			{
				"x": 0.9770165111,
				"y": 0.5520116435,
				"z": -2.8010272166,
				"element": "O" 
			},
			{
				"x": 0.9787895877,
				"y": -1.4657088675,
				"z": -0.9833339295,
				"element": "C" 
			},
			{
				"x": 1.9656468761,
				"y": 3.7889123883,
				"z": 0.6127687538,
				"element": "H" 
			},
			{
				"x": 1.3511092406,
				"y": 1.3041395616,
				"z": -0.5521430377,
				"element": "H" 
			},
			{
				"x": 0.0401091499,
				"y": 1.7455240273,
				"z": 3.5505493596,
				"element": "H" 
			},
			{
				"x": 0.0801392787,
				"y": -1.9517039338,
				"z": 0.9311721249,
				"element": "H" 
			},
			{
				"x": -2.1106977194,
				"y": -0.7146511805,
				"z": 0.3035844247,
				"element": "H" 
			},
			{
				"x": -1.7193751065,
				"y": -2.1498058908,
				"z": -0.6557019516,
				"element": "H" 
			},
			{
				"x": -1.3616260757,
				"y": 0.7855971785,
				"z": -1.514112179,
				"element": "H" 
			},
			{
				"x": -2.1458909657,
				"y": -0.533321613,
				"z": -2.4314768996,
				"element": "H" 
			},
			{
				"x": 1.0149103896,
				"y": -2.5379687919,
				"z": -1.1835763675,
				"element": "H" 
			},
			{
				"x": 1.9904056897,
				"y": -1.0809166771,
				"z": -0.8497272918,
				"element": "H" 
			}
		],
		 "valence_orbital": [ 
			{
				"type": "occ",
				"energy": -0.31432,
				"method": "rhf"
			},
			{
				"type": "occ",
				"energy": -0.30156,
				"method": "rhf"
			},
			{
				"type": "occ",
				"energy": -0.28154,
				"method": "rhf"
			},
			{
				"type": "occ",
				"energy": -0.26766,
				"method": "rhf"
			},
			{
				"type": "occ",
				"energy": -0.25346,
				"method": "rhf"
			},
			{
				"type": "unocc",
				"energy": -0.04851,
				"method": "rhf"
			},
			{
				"type": "unocc",
				"energy": -0.0087,
				"method": "rhf"
			},
			{
				"type": "unocc",
				"energy": 0.03061,
				"method": "rhf"
			},
			{
				"type": "unocc",
				"energy": 0.03591,
				"method": "rhf"
			},
			{
				"type": "unocc",
				"energy": 0.04983,
				"method": "rhf"
			}
		],
		"cosmo_sigma_profile": { 
			"-0.025": 0.0,
			"-0.024": 0.0,
			"-0.023": 0.0,
			"-0.022": 0.0,
			"-0.021": 0.0,
			"-0.02": 0.0,
			"-0.019": 0.0,
			"-0.018": 0.0,
			"-0.017": 0.0,
			"-0.016": 0.0,
			"-0.015": 0.0,
			"-0.014": 0.0,
			"-0.013": 0.0,
			"-0.012": 0.0,
			"-0.011": 0.00604391816727,
			"-0.01": 2.45621753826,
			"-0.009": 8.83453808462,
			"-0.008": 14.7346949746,
			"-0.007": 17.8179008102,
			"-0.006": 22.2674945611,
			"-0.005": 17.6017088242,
			"-0.004": 13.8635392654,
			"-0.003": 11.9610399952,
			"-0.002": 7.00460440784,
			"-0.001": 8.31277679948,
			"0.0": 9.54123781624,
			"0.001": 10.4883405814,
			"0.002": 9.25745275484,
			"0.003": 6.01838712327,
			"0.004": 4.73785253486,
			"0.005": 4.91033501145,
			"0.006": 5.28909743668,
			"0.007": 4.29814621765,
			"0.008": 4.98506691326,
			"0.009": 6.80530629708,
			"0.01": 8.69086221276,
			"0.011": 13.6006355738,
			"0.012": 12.05922762,
			"0.013": 2.54983144881,
			"0.014": 0.898841274251,
			"0.015": 0.0134436474938,
			"0.016": 0.0,
			"0.017": 0.0,
			"0.018": 0.0,
			"0.019": 0.0,
			"0.02": 0.0,
			"0.021": 0.0,
			"0.022": 0.0,
			"0.023": 0.0,
			"0.024": 0.0,
			"0.025": 0.0
		}
	}
}
