{
	 "smiles": "COC(=O)C(Cl)(Cl)Cl", 
	 "Tm": 255.35, 
	 "num_atms": 11, 
	 "gaussian": { 
		 "optdone": 1, 
		 "sigma_profile": "yes", 
		 "theory": "DFT", 
		 "functional": "B3LYP", 
		 "basiset": "6-31G**", 
		 "properties": { 
			 "R2extent": 2544.8469, 
			 "electric_dipole_moment_norm": 2.69550940826, 
			 "electric_quadrupole_moment_norm": 10.1545944065, 
			 "total_energy": -1647.12617235, 
			 "HOMO_LUMO_gap": 0.24759, 
			 "cosmo_polarized_energy": -5.84, 
			 "cosmo_cavitation_energy": 20.99, 
			 "cosmo_dispersion_energy": -15.51, 
			 "cosmo_repulsion_energy": 1.32, 
			 "cosmo_total_nonelectrostatic_energy": 6.79, 
			 "SMD_solvation_energy": 4.45 
		},
		"coords": [
			{
				"x": -0.535284154,
				"y": -1.588478431,
				"z": 2.6176977314,
				"element": "C" 
			},
			{
				"x": -0.5365788958,
				"y": -1.2820060583,
				"z": 1.2074761134,
				"element": "O" 
			},
			{
				"x": 0.057310671,
				"y": -2.1846577321,
				"z": 0.4296221226,
				"element": "C" 
			},
			{
				"x": 0.5799830077,
				"y": -3.2056511115,
				"z": 0.7941307097,
				"element": "O" 
			},
			{
				"x": -0.0128964623,
				"y": -1.7332879919,
				"z": -1.0633730352,
				"element": "C" 
			},
			{
				"x": 0.7783781418,
				"y": -2.9439789903,
				"z": -2.0991851138,
				"element": "Cl" 
			},
			{
				"x": -1.7418858703,
				"y": -1.5630357149,
				"z": -1.5379982343,
				"element": "Cl" 
			},
			{
				"x": 0.8262297596,
				"y": -0.1483015234,
				"z": -1.2297201792,
				"element": "Cl" 
			},
			{
				"x": -1.0589892135,
				"y": -2.5294327093,
				"z": 2.7994370023,
				"element": "H" 
			},
			{
				"x": -1.0544378519,
				"y": -0.7576390688,
				"z": 3.0925716861,
				"element": "H" 
			},
			{
				"x": 0.4900708676,
				"y": -1.6676306687,
				"z": 2.9852411969,
				"element": "H" 
			}
		],
		 "valence_orbital": [ 
			{
				"type": "occ",
				"energy": -0.33313,
				"method": "rhf"
			},
			{
				"type": "occ",
				"energy": -0.32737,
				"method": "rhf"
			},
			{
				"type": "occ",
				"energy": -0.32655,
				"method": "rhf"
			},
			{
				"type": "occ",
				"energy": -0.31254,
				"method": "rhf"
			},
			{
				"type": "occ",
				"energy": -0.30034,
				"method": "rhf"
			},
			{
				"type": "unocc",
				"energy": -0.05275,
				"method": "rhf"
			},
			{
				"type": "unocc",
				"energy": -0.0475,
				"method": "rhf"
			},
			{
				"type": "unocc",
				"energy": -0.00358,
				"method": "rhf"
			},
			{
				"type": "unocc",
				"energy": 0.04112,
				"method": "rhf"
			},
			{
				"type": "unocc",
				"energy": 0.08579,
				"method": "rhf"
			}
		],
		"cosmo_sigma_profile": { 
			"-0.025": 0.0,
			"-0.024": 0.0,
			"-0.023": 0.0,
			"-0.022": 0.0,
			"-0.021": 0.0,
			"-0.02": 0.0,
			"-0.019": 0.0,
			"-0.018": 0.0,
			"-0.017": 0.0,
			"-0.016": 0.0,
			"-0.015": 0.0,
			"-0.014": 0.0,
			"-0.013": 0.0,
			"-0.012": 0.0,
			"-0.011": 0.0,
			"-0.01": 0.0,
			"-0.009": 0.0,
			"-0.008": 0.683962285131,
			"-0.007": 6.84804012103,
			"-0.006": 8.88790772873,
			"-0.005": 13.6065669888,
			"-0.004": 13.5072917363,
			"-0.003": 11.2550403746,
			"-0.002": 8.89226462255,
			"-0.001": 11.2304826903,
			"0.0": 11.9047247085,
			"0.001": 16.5164788605,
			"0.002": 30.7922630223,
			"0.003": 14.7216660429,
			"0.004": 5.35444188489,
			"0.005": 4.48699718384,
			"0.006": 3.6847826338,
			"0.007": 1.91299002547,
			"0.008": 2.41035072146,
			"0.009": 4.20401171317,
			"0.01": 3.08112086549,
			"0.011": 0.244786051182,
			"0.012": 0.0,
			"0.013": 0.0,
			"0.014": 0.0,
			"0.015": 0.0,
			"0.016": 0.0,
			"0.017": 0.0,
			"0.018": 0.0,
			"0.019": 0.0,
			"0.02": 0.0,
			"0.021": 0.0,
			"0.022": 0.0,
			"0.023": 0.0,
			"0.024": 0.0,
			"0.025": 0.0
		}
	}
}
