{
	 "smiles": "CC1=CC(C)=C(C=C1S(Cl)(=O)=O)C(O)=O", 
	 "Tm": 463.15, 
	 "num_atms": 24, 
	 "gaussian": { 
		 "optdone": 1, 
		 "sigma_profile": "yes", 
		 "theory": "DFT", 
		 "functional": "B3LYP", 
		 "basiset": "6-31G**", 
		 "properties": { 
			 "R2extent": 5221.7523, 
			 "electric_dipole_moment_norm": 6.68824216443, 
			 "electric_quadrupole_moment_norm": 15.3452872928, 
			 "total_energy": -1507.61645216, 
			 "HOMO_LUMO_gap": 0.18979, 
			 "cosmo_polarized_energy": -13.68, 
			 "cosmo_cavitation_energy": 31.11, 
			 "cosmo_dispersion_energy": -23.12, 
			 "cosmo_repulsion_energy": 1.75, 
			 "cosmo_total_nonelectrostatic_energy": 9.75, 
			 "SMD_solvation_energy": 5.4 
		},
		"coords": [
			{
				"x": -1.2209720202,
				"y": 3.0352802526,
				"z": 0.2261021166,
				"element": "C" 
			},
			{
				"x": -0.7342610892,
				"y": 1.6439002184,
				"z": -0.0870969549,
				"element": "C" 
			},
			{
				"x": -0.806409126,
				"y": 0.6454663312,
				"z": 0.8886259654,
				"element": "C" 
			},
			{
				"x": -0.3852956881,
				"y": -0.6792573278,
				"z": 0.7008156896,
				"element": "C" 
			},
			{
				"x": -0.5305680211,
				"y": -1.6367518236,
				"z": 1.8589216553,
				"element": "C" 
			},
			{
				"x": 0.1450158844,
				"y": -1.0262852469,
				"z": -0.5639628843,
				"element": "C" 
			},
			{
				"x": 0.2293400682,
				"y": -0.0521662008,
				"z": -1.5661793028,
				"element": "C" 
			},
			{
				"x": -0.1948173376,
				"y": 1.2488173648,
				"z": -1.3278157878,
				"element": "C" 
			},
			{
				"x": 0.0146574927,
				"y": 2.3987333159,
				"z": -2.6872870769,
				"element": "S" 
			},
			{
				"x": -2.0054920667,
				"y": 2.6240113027,
				"z": -3.3669073704,
				"element": "Cl" 
			},
			{
				"x": 0.7316204237,
				"y": 1.7412462744,
				"z": -3.7711153804,
				"element": "O" 
			},
			{
				"x": 0.4177166666,
				"y": 3.7080626628,
				"z": -2.1874609936,
				"element": "O" 
			},
			{
				"x": 0.6482590435,
				"y": -2.3725833741,
				"z": -0.9750307842,
				"element": "C" 
			},
			{
				"x": 0.5681211043,
				"y": -3.3227586941,
				"z": -0.0136805115,
				"element": "O" 
			},
			{
				"x": 1.0970494628,
				"y": -2.6186953182,
				"z": -2.0764862004,
				"element": "O" 
			},
			{
				"x": -1.9658268558,
				"y": 3.3724138399,
				"z": -0.5010962526,
				"element": "H" 
			},
			{
				"x": -1.6729305456,
				"y": 3.0610573795,
				"z": 1.2197851781,
				"element": "H" 
			},
			{
				"x": -0.3998965261,
				"y": 3.755983921,
				"z": 0.1907696019,
				"element": "H" 
			},
			{
				"x": -1.2174267461,
				"y": 0.917713763,
				"z": 1.8567032556,
				"element": "H" 
			},
			{
				"x": 0.434995733,
				"y": -2.0559794165,
				"z": 2.1534066169,
				"element": "H" 
			},
			{
				"x": -1.1674431322,
				"y": -2.4857107843,
				"z": 1.5974640142,
				"element": "H" 
			},
			{
				"x": -0.9664408744,
				"y": -1.1246991421,
				"z": 2.7197435276,
				"element": "H" 
			},
			{
				"x": 0.6368174397,
				"y": -0.3332930082,
				"z": -2.5299746481,
				"element": "H" 
			},
			{
				"x": 0.9249867101,
				"y": -4.1310062893,
				"z": -0.4196434731,
				"element": "H" 
			}
		],
		 "valence_orbital": [ 
			{
				"type": "occ",
				"energy": -0.32998,
				"method": "rhf"
			},
			{
				"type": "occ",
				"energy": -0.31332,
				"method": "rhf"
			},
			{
				"type": "occ",
				"energy": -0.29471,
				"method": "rhf"
			},
			{
				"type": "occ",
				"energy": -0.2852,
				"method": "rhf"
			},
			{
				"type": "occ",
				"energy": -0.28039,
				"method": "rhf"
			},
			{
				"type": "unocc",
				"energy": -0.0906,
				"method": "rhf"
			},
			{
				"type": "unocc",
				"energy": -0.07069,
				"method": "rhf"
			},
			{
				"type": "unocc",
				"energy": -0.0423,
				"method": "rhf"
			},
			{
				"type": "unocc",
				"energy": 0.0218,
				"method": "rhf"
			},
			{
				"type": "unocc",
				"energy": 0.0557,
				"method": "rhf"
			}
		],
		"cosmo_sigma_profile": { 
			"-0.025": 0.0,
			"-0.024": 0.0,
			"-0.023": 0.0,
			"-0.022": 0.0,
			"-0.021": 0.0,
			"-0.02": 0.0,
			"-0.019": 0.214091595139,
			"-0.018": 0.844948952523,
			"-0.017": 0.632659607366,
			"-0.016": 1.09055391362,
			"-0.015": 1.22811087163,
			"-0.014": 0.321484631886,
			"-0.013": 0.364292407515,
			"-0.012": 0.554719127572,
			"-0.011": 1.14102800602,
			"-0.01": 1.04098126133,
			"-0.009": 0.174402252389,
			"-0.008": 1.56248670795,
			"-0.007": 5.60428916926,
			"-0.006": 5.62625634788,
			"-0.005": 9.35185331676,
			"-0.004": 14.8736384988,
			"-0.003": 24.5362120961,
			"-0.002": 29.0681565761,
			"-0.001": 31.7756211511,
			"0.0": 23.9521539473,
			"0.001": 14.7920595506,
			"0.002": 13.3094029735,
			"0.003": 15.3210361445,
			"0.004": 12.7546442144,
			"0.005": 5.71676767091,
			"0.006": 4.16432242337,
			"0.007": 6.87971369576,
			"0.008": 9.82655098756,
			"0.009": 5.74713043769,
			"0.01": 1.94470951469,
			"0.011": 4.55324626322,
			"0.012": 1.66750817867,
			"0.013": 0.0,
			"0.014": 0.0,
			"0.015": 0.0,
			"0.016": 0.0,
			"0.017": 0.0,
			"0.018": 0.0,
			"0.019": 0.0,
			"0.02": 0.0,
			"0.021": 0.0,
			"0.022": 0.0,
			"0.023": 0.0,
			"0.024": 0.0,
			"0.025": 0.0
		}
	}
}
