{
	 "smiles": "OC1=CC=CC=C1C(=O)N1CCOCC1", 
	 "Tm": 448.15, 
	 "num_atms": 28, 
	 "gaussian": { 
		 "optdone": 1, 
		 "sigma_profile": "yes", 
		 "theory": "DFT", 
		 "functional": "B3LYP", 
		 "basiset": "6-31G**", 
		 "properties": { 
			 "R2extent": 3539.8264, 
			 "electric_dipole_moment_norm": 4.13966371943, 
			 "electric_quadrupole_moment_norm": 11.241536347, 
			 "total_energy": -707.424401999, 
			 "HOMO_LUMO_gap": 0.17818, 
			 "cosmo_polarized_energy": -11.93, 
			 "cosmo_cavitation_energy": 29.62, 
			 "cosmo_dispersion_energy": -22.34, 
			 "cosmo_repulsion_energy": 1.73, 
			 "cosmo_total_nonelectrostatic_energy": 9.01, 
			 "SMD_solvation_energy": 4.71 
		},
		"coords": [
			{
				"x": -1.9851286806,
				"y": -1.6777665252,
				"z": 1.3201753541,
				"element": "O" 
			},
			{
				"x": -0.6836503774,
				"y": -1.8293412226,
				"z": 1.6070034362,
				"element": "C" 
			},
			{
				"x": -0.3447836226,
				"y": -2.3427622619,
				"z": 2.8704837832,
				"element": "C" 
			},
			{
				"x": 0.9805318252,
				"y": -2.5910472291,
				"z": 3.1958708101,
				"element": "C" 
			},
			{
				"x": 2.0025646823,
				"y": -2.3405045229,
				"z": 2.2694290409,
				"element": "C" 
			},
			{
				"x": 1.6797615753,
				"y": -1.7962809809,
				"z": 1.0339290854,
				"element": "C" 
			},
			{
				"x": 0.3489266112,
				"y": -1.4924790255,
				"z": 0.6869932066,
				"element": "C" 
			},
			{
				"x": -0.0523725717,
				"y": -0.9143948419,
				"z": -0.6212675523,
				"element": "C" 
			},
			{
				"x": -1.2079978918,
				"y": -1.1071188188,
				"z": -1.0580937847,
				"element": "O" 
			},
			{
				"x": 0.8440734067,
				"y": -0.1925490371,
				"z": -1.372797508,
				"element": "N" 
			},
			{
				"x": 0.3919840405,
				"y": 0.2788093689,
				"z": -2.6834396324,
				"element": "C" 
			},
			{
				"x": -0.1518041757,
				"y": 1.7148080476,
				"z": -2.567335307,
				"element": "C" 
			},
			{
				"x": 0.5438806229,
				"y": 2.4637739776,
				"z": -1.5677426645,
				"element": "O" 
			},
			{
				"x": 1.8831226411,
				"y": 2.0402378027,
				"z": -1.4207729433,
				"element": "C" 
			},
			{
				"x": 1.9369404335,
				"y": 0.6200556071,
				"z": -0.8127925459,
				"element": "C" 
			},
			{
				"x": -2.0263377816,
				"y": -1.4692429137,
				"z": 0.3514053162,
				"element": "H" 
			},
			{
				"x": -1.151923609,
				"y": -2.5640661702,
				"z": 3.5607537075,
				"element": "H" 
			},
			{
				"x": 1.2223492039,
				"y": -3.004803513,
				"z": 4.1710060629,
				"element": "H" 
			},
			{
				"x": 3.0345520719,
				"y": -2.5736318365,
				"z": 2.5106232325,
				"element": "H" 
			},
			{
				"x": 2.4677239644,
				"y": -1.6285172842,
				"z": 0.3084115093,
				"element": "H" 
			},
			{
				"x": 1.246072244,
				"y": 0.2343694981,
				"z": -3.3684651993,
				"element": "H" 
			},
			{
				"x": -0.3817156265,
				"y": -0.3924796364,
				"z": -3.0525833995,
				"element": "H" 
			},
			{
				"x": -1.1998423027,
				"y": 1.6980996814,
				"z": -2.2572173357,
				"element": "H" 
			},
			{
				"x": -0.0817669036,
				"y": 2.2197365027,
				"z": -3.5439961648,
				"element": "H" 
			},
			{
				"x": 2.422366318,
				"y": 2.0772803512,
				"z": -2.3807034033,
				"element": "H" 
			},
			{
				"x": 2.3722197072,
				"y": 2.7463436086,
				"z": -0.7440474433,
				"element": "H" 
			},
			{
				"x": 1.8099763485,
				"y": 0.6792748533,
				"z": 0.2685798657,
				"element": "H" 
			},
			{
				"x": 2.9198778468,
				"y": 0.1714965208,
				"z": -1.0169095263,
				"element": "H" 
			}
		],
		 "valence_orbital": [ 
			{
				"type": "occ",
				"energy": -0.27404,
				"method": "rhf"
			},
			{
				"type": "occ",
				"energy": -0.26524,
				"method": "rhf"
			},
			{
				"type": "occ",
				"energy": -0.25423,
				"method": "rhf"
			},
			{
				"type": "occ",
				"energy": -0.24616,
				"method": "rhf"
			},
			{
				"type": "occ",
				"energy": -0.21898,
				"method": "rhf"
			},
			{
				"type": "unocc",
				"energy": -0.0408,
				"method": "rhf"
			},
			{
				"type": "unocc",
				"energy": 0.00776,
				"method": "rhf"
			},
			{
				"type": "unocc",
				"energy": 0.04816,
				"method": "rhf"
			},
			{
				"type": "unocc",
				"energy": 0.07573,
				"method": "rhf"
			},
			{
				"type": "unocc",
				"energy": 0.09136,
				"method": "rhf"
			}
		],
		"cosmo_sigma_profile": { 
			"-0.025": 0.0,
			"-0.024": 0.0,
			"-0.023": 0.0,
			"-0.022": 0.0,
			"-0.021": 0.0,
			"-0.02": 0.0,
			"-0.019": 0.0,
			"-0.018": 0.0,
			"-0.017": 0.0,
			"-0.016": 0.0,
			"-0.015": 0.0,
			"-0.014": 0.0,
			"-0.013": 0.0,
			"-0.012": 0.0,
			"-0.011": 0.0,
			"-0.01": 0.0,
			"-0.009": 0.0,
			"-0.008": 0.0440932749676,
			"-0.007": 2.57133713898,
			"-0.006": 16.1943528702,
			"-0.005": 27.7590586915,
			"-0.004": 28.2673835866,
			"-0.003": 20.9820146753,
			"-0.002": 16.4783345845,
			"-0.001": 13.3847504151,
			"0.0": 12.1572757501,
			"0.001": 13.9798190765,
			"0.002": 13.4503497256,
			"0.003": 14.6397263537,
			"0.004": 13.5592680417,
			"0.005": 10.0667850698,
			"0.006": 4.59783666188,
			"0.007": 4.17446157151,
			"0.008": 3.29343539024,
			"0.009": 3.50268177464,
			"0.01": 4.46945793004,
			"0.011": 4.95909156501,
			"0.012": 4.0652762186,
			"0.013": 1.67184580226,
			"0.014": 0.0931330361944,
			"0.015": 0.0,
			"0.016": 0.0,
			"0.017": 0.0,
			"0.018": 0.0,
			"0.019": 0.0,
			"0.02": 0.0,
			"0.021": 0.0,
			"0.022": 0.0,
			"0.023": 0.0,
			"0.024": 0.0,
			"0.025": 0.0
		}
	}
}
