{
	 "smiles": "BrC1=C(C=CC=C1)N=C=S", 
	 "Tm": 293.15, 
	 "num_atms": 14, 
	 "gaussian": { 
		 "optdone": 1, 
		 "sigma_profile": "yes", 
		 "theory": "DFT", 
		 "functional": "B3LYP", 
		 "basiset": "6-31G**", 
		 "properties": { 
			 "R2extent": 3672.1211, 
			 "electric_dipole_moment_norm": 4.26515045573, 
			 "electric_quadrupole_moment_norm": 7.61040039551, 
			 "total_energy": -3293.4892793, 
			 "HOMO_LUMO_gap": 0.17848, 
			 "cosmo_polarized_energy": -5.73, 
			 "cosmo_cavitation_energy": 23.96, 
			 "cosmo_dispersion_energy": -18.13, 
			 "cosmo_repulsion_energy": 1.44, 
			 "cosmo_total_nonelectrostatic_energy": 7.27, 
			 "SMD_solvation_energy": 3.61 
		},
		"coords": [
			{
				"x": 2.1005604588,
				"y": -0.092034603,
				"z": -2.3799700888,
				"element": "Br" 
			},
			{
				"x": 0.357366469,
				"y": -0.0891072027,
				"z": -1.6239030938,
				"element": "C" 
			},
			{
				"x": 0.0415274211,
				"y": -0.9730037734,
				"z": -0.571526883,
				"element": "C" 
			},
			{
				"x": -1.2564443043,
				"y": -0.950353818,
				"z": -0.0298975479,
				"element": "C" 
			},
			{
				"x": -2.2112479383,
				"y": -0.0697214681,
				"z": -0.5257846218,
				"element": "C" 
			},
			{
				"x": -1.8873223165,
				"y": 0.8013023127,
				"z": -1.568454423,
				"element": "C" 
			},
			{
				"x": -0.6040507964,
				"y": 0.7901579805,
				"z": -2.1155581278,
				"element": "C" 
			},
			{
				"x": 0.9673653636,
				"y": -1.8440774488,
				"z": -0.0733039084,
				"element": "N" 
			},
			{
				"x": 1.7724085366,
				"y": -2.602439377,
				"z": 0.3592944234,
				"element": "C" 
			},
			{
				"x": 2.8450645582,
				"y": -3.6204544362,
				"z": 0.94541479,
				"element": "S" 
			},
			{
				"x": -1.4899912004,
				"y": -1.6337405404,
				"z": 0.7793027197,
				"element": "H" 
			},
			{
				"x": -3.2082664966,
				"y": -0.0644037459,
				"z": -0.0971194232,
				"element": "H" 
			},
			{
				"x": -2.6292805554,
				"y": 1.4903817884,
				"z": -1.9590724928,
				"element": "H" 
			},
			{
				"x": -0.3420891994,
				"y": 1.4618943318,
				"z": -2.9249213227,
				"element": "H" 
			}
		],
		 "valence_orbital": [ 
			{
				"type": "occ",
				"energy": -0.29999,
				"method": "rhf"
			},
			{
				"type": "occ",
				"energy": -0.29936,
				"method": "rhf"
			},
			{
				"type": "occ",
				"energy": -0.26362,
				"method": "rhf"
			},
			{
				"type": "occ",
				"energy": -0.25562,
				"method": "rhf"
			},
			{
				"type": "occ",
				"energy": -0.23495,
				"method": "rhf"
			},
			{
				"type": "unocc",
				"energy": -0.05647,
				"method": "rhf"
			},
			{
				"type": "unocc",
				"energy": -0.03101,
				"method": "rhf"
			},
			{
				"type": "unocc",
				"energy": -0.00651,
				"method": "rhf"
			},
			{
				"type": "unocc",
				"energy": 0.00112,
				"method": "rhf"
			},
			{
				"type": "unocc",
				"energy": 0.03969,
				"method": "rhf"
			}
		],
		"cosmo_sigma_profile": { 
			"-0.025": 0.0,
			"-0.024": 0.0,
			"-0.023": 0.0,
			"-0.022": 0.0,
			"-0.021": 0.0,
			"-0.02": 0.0,
			"-0.019": 0.0,
			"-0.018": 0.0,
			"-0.017": 0.0,
			"-0.016": 0.0,
			"-0.015": 0.0,
			"-0.014": 0.0,
			"-0.013": 0.0,
			"-0.012": 0.0,
			"-0.011": 0.0,
			"-0.01": 0.0,
			"-0.009": 0.0298983715914,
			"-0.008": 3.13567216879,
			"-0.007": 8.26484974887,
			"-0.006": 10.5330599506,
			"-0.005": 8.96188311871,
			"-0.004": 8.06275072957,
			"-0.003": 8.85356412324,
			"-0.002": 14.2583832562,
			"-0.001": 18.2786402434,
			"0.0": 19.6690096697,
			"0.001": 22.6979066744,
			"0.002": 24.5369672525,
			"0.003": 20.10926803,
			"0.004": 13.0596367493,
			"0.005": 10.999242965,
			"0.006": 9.33997645709,
			"0.007": 0.0,
			"0.008": 0.0,
			"0.009": 0.0,
			"0.01": 0.0,
			"0.011": 0.0,
			"0.012": 0.0,
			"0.013": 0.0,
			"0.014": 0.0,
			"0.015": 0.0,
			"0.016": 0.0,
			"0.017": 0.0,
			"0.018": 0.0,
			"0.019": 0.0,
			"0.02": 0.0,
			"0.021": 0.0,
			"0.022": 0.0,
			"0.023": 0.0,
			"0.024": 0.0,
			"0.025": 0.0
		}
	}
}
