{
	 "smiles": "ClC1=CC2=C(C=CC=C2)C(=O)N1", 
	 "Tm": 488.15, 
	 "num_atms": 18, 
	 "gaussian": { 
		 "optdone": 1, 
		 "sigma_profile": "yes", 
		 "theory": "DFT", 
		 "functional": "B3LYP", 
		 "basiset": "6-31G**", 
		 "properties": { 
			 "R2extent": 3351.9248, 
			 "electric_dipole_moment_norm": 2.7274486393, 
			 "electric_quadrupole_moment_norm": 7.29687171465, 
			 "total_energy": -936.763980023, 
			 "HOMO_LUMO_gap": 0.17485, 
			 "cosmo_polarized_energy": -10.19, 
			 "cosmo_cavitation_energy": 24.16, 
			 "cosmo_dispersion_energy": -18.35, 
			 "cosmo_repulsion_energy": 1.44, 
			 "cosmo_total_nonelectrostatic_energy": 7.25, 
			 "SMD_solvation_energy": 4.37 
		},
		"coords": [
			{
				"x": 2.7220620886,
				"y": -3.0260689493,
				"z": 2.9640798286,
				"element": "Cl" 
			},
			{
				"x": 1.9953570163,
				"y": -1.8491568692,
				"z": 1.9009167492,
				"element": "C" 
			},
			{
				"x": 2.0293761411,
				"y": -0.519174647,
				"z": 2.1423124143,
				"element": "C" 
			},
			{
				"x": 1.3966518095,
				"y": 0.3698642988,
				"z": 1.1981670731,
				"element": "C" 
			},
			{
				"x": 0.7584509399,
				"y": -0.1614918121,
				"z": 0.047914291,
				"element": "C" 
			},
			{
				"x": 0.1387247815,
				"y": 0.6903040964,
				"z": -0.8794526637,
				"element": "C" 
			},
			{
				"x": 0.1445571652,
				"y": 2.0623883467,
				"z": -0.6794426288,
				"element": "C" 
			},
			{
				"x": 0.7742444548,
				"y": 2.598497604,
				"z": 0.4571405961,
				"element": "C" 
			},
			{
				"x": 1.3904380837,
				"y": 1.7690747532,
				"z": 1.3816448337,
				"element": "C" 
			},
			{
				"x": 0.7324223144,
				"y": -1.613049721,
				"z": -0.1973600488,
				"element": "C" 
			},
			{
				"x": 0.2105886101,
				"y": -2.1717987537,
				"z": -1.1537629212,
				"element": "O" 
			},
			{
				"x": 1.3795378543,
				"y": -2.3734500392,
				"z": 0.78950715,
				"element": "N" 
			},
			{
				"x": 2.5213416912,
				"y": -0.1336846459,
				"z": 3.0255937754,
				"element": "H" 
			},
			{
				"x": -0.3370702038,
				"y": 0.2405123014,
				"z": -1.7445057524,
				"element": "H" 
			},
			{
				"x": -0.3347142907,
				"y": 2.721480418,
				"z": -1.3966321745,
				"element": "H" 
			},
			{
				"x": 0.7790902605,
				"y": 3.6734209193,
				"z": 0.6143278664,
				"element": "H" 
			},
			{
				"x": 1.8754461448,
				"y": 2.1897318558,
				"z": 2.2581260974,
				"element": "H" 
			},
			{
				"x": 1.3717951386,
				"y": -3.3739991562,
				"z": 0.6383255142,
				"element": "H" 
			}
		],
		 "valence_orbital": [ 
			{
				"type": "occ",
				"energy": -0.32257,
				"method": "rhf"
			},
			{
				"type": "occ",
				"energy": -0.28944,
				"method": "rhf"
			},
			{
				"type": "occ",
				"energy": -0.26393,
				"method": "rhf"
			},
			{
				"type": "occ",
				"energy": -0.26372,
				"method": "rhf"
			},
			{
				"type": "occ",
				"energy": -0.21884,
				"method": "rhf"
			},
			{
				"type": "unocc",
				"energy": -0.04399,
				"method": "rhf"
			},
			{
				"type": "unocc",
				"energy": -0.03829,
				"method": "rhf"
			},
			{
				"type": "unocc",
				"energy": 0.00644,
				"method": "rhf"
			},
			{
				"type": "unocc",
				"energy": 0.02943,
				"method": "rhf"
			},
			{
				"type": "unocc",
				"energy": 0.07222,
				"method": "rhf"
			}
		],
		"cosmo_sigma_profile": { 
			"-0.025": 0.0,
			"-0.024": 0.0,
			"-0.023": 0.0,
			"-0.022": 0.0,
			"-0.021": 0.0,
			"-0.02": 0.0,
			"-0.019": 0.0,
			"-0.018": 0.0,
			"-0.017": 0.033570772043,
			"-0.016": 0.641265661704,
			"-0.015": 0.826928948482,
			"-0.014": 1.01419438771,
			"-0.013": 0.705019684315,
			"-0.012": 0.786509153361,
			"-0.011": 0.746547991614,
			"-0.01": 1.30954243129,
			"-0.009": 0.873241896449,
			"-0.008": 3.15394180125,
			"-0.007": 5.42370096596,
			"-0.006": 9.26686138017,
			"-0.005": 11.7301626239,
			"-0.004": 11.1837717229,
			"-0.003": 10.1901423836,
			"-0.002": 14.6716908924,
			"-0.001": 14.980837216,
			"0.0": 15.9732027295,
			"0.001": 18.3703910593,
			"0.002": 21.6190355959,
			"0.003": 22.6542456962,
			"0.004": 11.0328863929,
			"0.005": 1.5580596394,
			"0.006": 1.13103957443,
			"0.007": 1.7711223229,
			"0.008": 0.942315119982,
			"0.009": 1.32427629017,
			"0.01": 1.38328366638,
			"0.011": 1.67093932492,
			"0.012": 2.5386421526,
			"0.013": 5.78411068843,
			"0.014": 1.54953165788,
			"0.015": 0.0,
			"0.016": 0.0,
			"0.017": 0.0,
			"0.018": 0.0,
			"0.019": 0.0,
			"0.02": 0.0,
			"0.021": 0.0,
			"0.022": 0.0,
			"0.023": 0.0,
			"0.024": 0.0,
			"0.025": 0.0
		}
	}
}
