{
	 "smiles": "CC1=CSC=C1C(O)=O", 
	 "Tm": 409.15, 
	 "num_atms": 15, 
	 "gaussian": { 
		 "optdone": 1, 
		 "sigma_profile": "yes", 
		 "theory": "DFT", 
		 "functional": "B3LYP", 
		 "basiset": "6-31G**", 
		 "properties": { 
			 "R2extent": 1586.4677, 
			 "electric_dipole_moment_norm": 4.86295484762, 
			 "electric_quadrupole_moment_norm": 16.5577083689, 
			 "total_energy": -780.885161772, 
			 "HOMO_LUMO_gap": 0.20688, 
			 "cosmo_polarized_energy": -12.96, 
			 "cosmo_cavitation_energy": 20.54, 
			 "cosmo_dispersion_energy": -15.99, 
			 "cosmo_repulsion_energy": 1.24, 
			 "cosmo_total_nonelectrostatic_energy": 5.79, 
			 "SMD_solvation_energy": 4.79 
		},
		"coords": [
			{
				"x": -0.3766967287,
				"y": -0.5126889832,
				"z": -1.9812053786,
				"element": "C" 
			},
			{
				"x": -0.1039302703,
				"y": -0.18513299,
				"z": -0.533804448,
				"element": "C" 
			},
			{
				"x": -1.1108620299,
				"y": 0.0817713725,
				"z": 0.35408795,
				"element": "C" 
			},
			{
				"x": -0.5242977747,
				"y": 0.4090138706,
				"z": 1.9531738056,
				"element": "S" 
			},
			{
				"x": 1.1003908985,
				"y": 0.181415068,
				"z": 1.4461002347,
				"element": "C" 
			},
			{
				"x": 1.1935367807,
				"y": -0.1248167069,
				"z": 0.1088819824,
				"element": "C" 
			},
			{
				"x": 2.5571468071,
				"y": -0.357058717,
				"z": -0.456824041,
				"element": "C" 
			},
			{
				"x": 2.6731622739,
				"y": -0.4851794863,
				"z": -1.8054831458,
				"element": "O" 
			},
			{
				"x": 3.5471259441,
				"y": -0.4323824277,
				"z": 0.2339759349,
				"element": "O" 
			},
			{
				"x": -0.0148115181,
				"y": 0.2718656139,
				"z": -2.6615876502,
				"element": "H" 
			},
			{
				"x": 0.0765040003,
				"y": -1.4652819511,
				"z": -2.2803462835,
				"element": "H" 
			},
			{
				"x": -1.4509986917,
				"y": -0.5983917414,
				"z": -2.1602313332,
				"element": "H" 
			},
			{
				"x": -2.1736435202,
				"y": 0.0978829644,
				"z": 0.1536817975,
				"element": "H" 
			},
			{
				"x": 1.9303930115,
				"y": 0.2727909737,
				"z": 2.1317433621,
				"element": "H" 
			},
			{
				"x": 1.8280808173,
				"y": -0.3308068595,
				"z": -2.2462627868,
				"element": "H" 
			}
		],
		 "valence_orbital": [ 
			{
				"type": "occ",
				"energy": -0.35711,
				"method": "rhf"
			},
			{
				"type": "occ",
				"energy": -0.31277,
				"method": "rhf"
			},
			{
				"type": "occ",
				"energy": -0.27174,
				"method": "rhf"
			},
			{
				"type": "occ",
				"energy": -0.26448,
				"method": "rhf"
			},
			{
				"type": "occ",
				"energy": -0.251,
				"method": "rhf"
			},
			{
				"type": "unocc",
				"energy": -0.04412,
				"method": "rhf"
			},
			{
				"type": "unocc",
				"energy": -0.00084,
				"method": "rhf"
			},
			{
				"type": "unocc",
				"energy": 0.01852,
				"method": "rhf"
			},
			{
				"type": "unocc",
				"energy": 0.05846,
				"method": "rhf"
			},
			{
				"type": "unocc",
				"energy": 0.09121,
				"method": "rhf"
			}
		],
		"cosmo_sigma_profile": { 
			"-0.025": 0.0,
			"-0.024": 0.0,
			"-0.023": 0.0,
			"-0.022": 0.0,
			"-0.021": 0.0,
			"-0.02": 0.0,
			"-0.019": 0.0,
			"-0.018": 0.0,
			"-0.017": 0.0,
			"-0.016": 0.0,
			"-0.015": 0.64145014039,
			"-0.014": 1.24797793615,
			"-0.013": 0.805469691703,
			"-0.012": 1.11823946153,
			"-0.011": 1.72020110554,
			"-0.01": 0.978510211282,
			"-0.009": 2.55903849485,
			"-0.008": 6.44541385371,
			"-0.007": 7.51997308008,
			"-0.006": 9.22807127197,
			"-0.005": 7.62074544982,
			"-0.004": 9.31682708114,
			"-0.003": 8.66127597564,
			"-0.002": 11.8685196286,
			"-0.001": 10.7470039844,
			"0.0": 9.23724061476,
			"0.001": 11.1990473307,
			"0.002": 16.519983506,
			"0.003": 14.2511724949,
			"0.004": 4.82221380768,
			"0.005": 2.11994675451,
			"0.006": 3.14244413295,
			"0.007": 1.60756837072,
			"0.008": 2.36134116152,
			"0.009": 3.31560484895,
			"0.01": 4.42715910207,
			"0.011": 4.59487092793,
			"0.012": 5.59739372056,
			"0.013": 2.40847595069,
			"0.014": 0.417965147207,
			"0.015": 0.0,
			"0.016": 0.0,
			"0.017": 0.0,
			"0.018": 0.0,
			"0.019": 0.0,
			"0.02": 0.0,
			"0.021": 0.0,
			"0.022": 0.0,
			"0.023": 0.0,
			"0.024": 0.0,
			"0.025": 0.0
		}
	}
}
