{
	 "smiles": "C[Si]1(C)O[Si](C)(C)O[Si](C)(C)O1", 
	 "Tm": 335.65, 
	 "num_atms": 30, 
	 "gaussian": { 
		 "optdone": 1, 
		 "sigma_profile": "yes", 
		 "theory": "DFT", 
		 "functional": "B3LYP", 
		 "basiset": "6-31G**", 
		 "properties": { 
			 "R2extent": 3583.4982, 
			 "electric_dipole_moment_norm": 0.00113578166916, 
			 "electric_quadrupole_moment_norm": 0.422893414468, 
			 "total_energy": -1334.02756863, 
			 "HOMO_LUMO_gap": 0.31915, 
			 "cosmo_polarized_energy": -5.83, 
			 "cosmo_cavitation_energy": 36.09, 
			 "cosmo_dispersion_energy": -19.16, 
			 "cosmo_repulsion_energy": 1.86, 
			 "cosmo_total_nonelectrostatic_energy": 18.78, 
			 "SMD_solvation_energy": 8.63 
		},
		"coords": [
			{
				"x": 0.2985151282,
				"y": 0.6524787903,
				"z": -2.75158361,
				"element": "C" 
			},
			{
				"x": -1.1138758355,
				"y": 0.4881822951,
				"z": -1.5335104052,
				"element": "Si" 
			},
			{
				"x": -2.7640766635,
				"y": 0.290312198,
				"z": -2.3956116087,
				"element": "C" 
			},
			{
				"x": -1.1598644247,
				"y": 1.8380822055,
				"z": -0.5534508263,
				"element": "O" 
			},
			{
				"x": -0.9902117571,
				"y": 2.0493636613,
				"z": 1.0932010807,
				"element": "Si" 
			},
			{
				"x": -2.5675947032,
				"y": 2.7771802444,
				"z": 1.7915291376,
				"element": "C" 
			},
			{
				"x": 0.4943826671,
				"y": 3.1392695983,
				"z": 1.4302836732,
				"element": "C" 
			},
			{
				"x": -0.7330160692,
				"y": 0.5417777035,
				"z": 1.7609118952,
				"element": "O" 
			},
			{
				"x": -0.6327772859,
				"y": -0.9878422391,
				"z": 1.101364544,
				"element": "Si" 
			},
			{
				"x": 1.0630403858,
				"y": -1.7027497411,
				"z": 1.4457184019,
				"element": "C" 
			},
			{
				"x": -2.0002894135,
				"y": -2.0575726991,
				"z": 1.8022311423,
				"element": "C" 
			},
			{
				"x": -0.8429655684,
				"y": -0.8299088843,
				"z": -0.5465556038,
				"element": "O" 
			},
			{
				"x": 0.3703797649,
				"y": -0.2326148849,
				"z": -3.3928057818,
				"element": "H" 
			},
			{
				"x": 0.1620811182,
				"y": 1.5267398973,
				"z": -3.3971625675,
				"element": "H" 
			},
			{
				"x": 1.2543044648,
				"y": 0.7668954321,
				"z": -2.2300794718,
				"element": "H" 
			},
			{
				"x": -2.9821344872,
				"y": 1.154950625,
				"z": -3.0316721435,
				"element": "H" 
			},
			{
				"x": -3.5771131462,
				"y": 0.1957115505,
				"z": -1.6685536686,
				"element": "H" 
			},
			{
				"x": -2.7735454287,
				"y": -0.604378927,
				"z": -3.0273978207,
				"element": "H" 
			},
			{
				"x": -2.7776218386,
				"y": 3.7577459831,
				"z": 1.3509738323,
				"element": "H" 
			},
			{
				"x": -2.4961894011,
				"y": 2.9032364831,
				"z": 2.8772205961,
				"element": "H" 
			},
			{
				"x": -3.4238330195,
				"y": 2.1268470745,
				"z": 1.5853160902,
				"element": "H" 
			},
			{
				"x": 1.4063246863,
				"y": 2.69899491,
				"z": 1.0142312463,
				"element": "H" 
			},
			{
				"x": 0.365481596,
				"y": 4.130060415,
				"z": 0.9814633793,
				"element": "H" 
			},
			{
				"x": 0.6477821123,
				"y": 3.2736587877,
				"z": 2.5064510127,
				"element": "H" 
			},
			{
				"x": 1.168605507,
				"y": -2.6978893109,
				"z": 1.0004346902,
				"element": "H" 
			},
			{
				"x": 1.8492814846,
				"y": -1.0644221434,
				"z": 1.0298618794,
				"element": "H" 
			},
			{
				"x": 1.2403177168,
				"y": -1.7944235512,
				"z": 2.522703289,
				"element": "H" 
			},
			{
				"x": -1.976207142,
				"y": -3.0625258348,
				"z": 1.3672488953,
				"element": "H" 
			},
			{
				"x": -2.9834740492,
				"y": -1.624652125,
				"z": 1.5912108394,
				"element": "H" 
			},
			{
				"x": -1.9043063986,
				"y": -2.1577075139,
				"z": 2.8887278831,
				"element": "H" 
			}
		],
		 "valence_orbital": [ 
			{
				"type": "occ",
				"energy": -0.31586,
				"method": "rhf"
			},
			{
				"type": "occ",
				"energy": -0.31585,
				"method": "rhf"
			},
			{
				"type": "occ",
				"energy": -0.28433,
				"method": "rhf"
			},
			{
				"type": "occ",
				"energy": -0.28433,
				"method": "rhf"
			},
			{
				"type": "occ",
				"energy": -0.26284,
				"method": "rhf"
			},
			{
				"type": "unocc",
				"energy": 0.05631,
				"method": "rhf"
			},
			{
				"type": "unocc",
				"energy": 0.07449,
				"method": "rhf"
			},
			{
				"type": "unocc",
				"energy": 0.0745,
				"method": "rhf"
			},
			{
				"type": "unocc",
				"energy": 0.09109,
				"method": "rhf"
			},
			{
				"type": "unocc",
				"energy": 0.0911,
				"method": "rhf"
			}
		],
		"cosmo_sigma_profile": { 
			"-0.025": 0.0,
			"-0.024": 0.0,
			"-0.023": 0.0,
			"-0.022": 0.0,
			"-0.021": 0.0,
			"-0.02": 0.0,
			"-0.019": 0.0,
			"-0.018": 0.0,
			"-0.017": 0.0,
			"-0.016": 0.0,
			"-0.015": 0.0,
			"-0.014": 0.0,
			"-0.013": 0.0,
			"-0.012": 0.0,
			"-0.011": 0.0,
			"-0.01": 0.0,
			"-0.009": 0.0,
			"-0.008": 0.0,
			"-0.007": 0.0,
			"-0.006": 0.0,
			"-0.005": 3.0907236644,
			"-0.004": 30.0031950262,
			"-0.003": 39.6341885482,
			"-0.002": 32.5752243295,
			"-0.001": 33.4673317243,
			"0.0": 32.6088563943,
			"0.001": 36.5455500639,
			"0.002": 20.3317401598,
			"0.003": 9.43370797013,
			"0.004": 5.7592385207,
			"0.005": 3.91836912567,
			"0.006": 3.18039876698,
			"0.007": 5.21002235084,
			"0.008": 4.05962033541,
			"0.009": 1.97922844314,
			"0.01": 4.42215181787,
			"0.011": 3.83733451753,
			"0.012": 1.01499621125,
			"0.013": 0.0,
			"0.014": 0.0,
			"0.015": 0.0,
			"0.016": 0.0,
			"0.017": 0.0,
			"0.018": 0.0,
			"0.019": 0.0,
			"0.02": 0.0,
			"0.021": 0.0,
			"0.022": 0.0,
			"0.023": 0.0,
			"0.024": 0.0,
			"0.025": 0.0
		}
	}
}
