{
	 "smiles": "CCOC(=S)SSC(=S)OCC", 
	 "Tm": 303.15, 
	 "num_atms": 22, 
	 "gaussian": { 
		 "optdone": 1, 
		 "sigma_profile": "yes", 
		 "theory": "DFT", 
		 "functional": "B3LYP", 
		 "basiset": "6-31G**", 
		 "properties": { 
			 "R2extent": 5890.1277, 
			 "electric_dipole_moment_norm": 5.28151509418, 
			 "electric_quadrupole_moment_norm": 21.0914099043, 
			 "total_energy": -1977.83822525, 
			 "HOMO_LUMO_gap": 0.16889, 
			 "cosmo_polarized_energy": -11.5, 
			 "cosmo_cavitation_energy": 33.03, 
			 "cosmo_dispersion_energy": -24.31, 
			 "cosmo_repulsion_energy": 1.84, 
			 "cosmo_total_nonelectrostatic_energy": 10.56, 
			 "SMD_solvation_energy": 4.46 
		},
		"coords": [
			{
				"x": -1.5551382007,
				"y": 2.4871617547,
				"z": -3.5904101169,
				"element": "C" 
			},
			{
				"x": -1.6828596525,
				"y": 1.3288920133,
				"z": -2.6197776571,
				"element": "C" 
			},
			{
				"x": -0.7264655984,
				"y": 0.3203247991,
				"z": -3.0450019454,
				"element": "O" 
			},
			{
				"x": -0.581575031,
				"y": -0.8607313943,
				"z": -2.4444865854,
				"element": "C" 
			},
			{
				"x": 0.4715301687,
				"y": -1.9750473073,
				"z": -3.0131566186,
				"element": "S" 
			},
			{
				"x": -1.637633412,
				"y": -1.0332905222,
				"z": -0.9607020347,
				"element": "S" 
			},
			{
				"x": -1.4170724873,
				"y": -3.0182844789,
				"z": -0.3720639076,
				"element": "S" 
			},
			{
				"x": 0.0656021714,
				"y": -3.1241408794,
				"z": 0.6186885772,
				"element": "C" 
			},
			{
				"x": 0.3776945402,
				"y": -4.5956782724,
				"z": 1.2901776051,
				"element": "S" 
			},
			{
				"x": 0.7418081225,
				"y": -1.9978003407,
				"z": 0.6942715749,
				"element": "O" 
			},
			{
				"x": 2.0088003051,
				"y": -1.9489775023,
				"z": 1.4185137707,
				"element": "C" 
			},
			{
				"x": 3.1643244599,
				"y": -2.2836486014,
				"z": 0.492238751,
				"element": "C" 
			},
			{
				"x": -2.2583919806,
				"y": 3.2777121909,
				"z": -3.3118557999,
				"element": "H" 
			},
			{
				"x": -0.5428925978,
				"y": 2.8990452443,
				"z": -3.5712011969,
				"element": "H" 
			},
			{
				"x": -1.7805397298,
				"y": 2.1637109182,
				"z": -4.6097794403,
				"element": "H" 
			},
			{
				"x": -1.4471458249,
				"y": 1.636853261,
				"z": -1.5949769387,
				"element": "H" 
			},
			{
				"x": -2.6890081698,
				"y": 0.8967969599,
				"z": -2.6370634163,
				"element": "H" 
			},
			{
				"x": 2.0557468604,
				"y": -0.918379661,
				"z": 1.7757910305,
				"element": "H" 
			},
			{
				"x": 1.9473739857,
				"y": -2.6332761382,
				"z": 2.2675100904,
				"element": "H" 
			},
			{
				"x": 3.1692203849,
				"y": -1.623120909,
				"z": -0.378542104,
				"element": "H" 
			},
			{
				"x": 3.102613019,
				"y": -3.3188901745,
				"z": 0.1494996454,
				"element": "H" 
			},
			{
				"x": 4.1075086672,
				"y": -2.1553309597,
				"z": 1.0335267165,
				"element": "H" 
			}
		],
		 "valence_orbital": [ 
			{
				"type": "occ",
				"energy": -0.29354,
				"method": "rhf"
			},
			{
				"type": "occ",
				"energy": -0.25352,
				"method": "rhf"
			},
			{
				"type": "occ",
				"energy": -0.25205,
				"method": "rhf"
			},
			{
				"type": "occ",
				"energy": -0.24038,
				"method": "rhf"
			},
			{
				"type": "occ",
				"energy": -0.22857,
				"method": "rhf"
			},
			{
				"type": "unocc",
				"energy": -0.05968,
				"method": "rhf"
			},
			{
				"type": "unocc",
				"energy": -0.05529,
				"method": "rhf"
			},
			{
				"type": "unocc",
				"energy": -0.04948,
				"method": "rhf"
			},
			{
				"type": "unocc",
				"energy": 0.01698,
				"method": "rhf"
			},
			{
				"type": "unocc",
				"energy": 0.0294,
				"method": "rhf"
			}
		],
		"cosmo_sigma_profile": { 
			"-0.025": 0.0,
			"-0.024": 0.0,
			"-0.023": 0.0,
			"-0.022": 0.0,
			"-0.021": 0.0,
			"-0.02": 0.0,
			"-0.019": 0.0,
			"-0.018": 0.0,
			"-0.017": 0.0,
			"-0.016": 0.0,
			"-0.015": 0.0,
			"-0.014": 0.0,
			"-0.013": 0.0,
			"-0.012": 0.0,
			"-0.011": 0.0,
			"-0.01": 0.0,
			"-0.009": 0.0,
			"-0.008": 0.92417462763,
			"-0.007": 9.30800638239,
			"-0.006": 11.7352321015,
			"-0.005": 21.8924369696,
			"-0.004": 21.5812484846,
			"-0.003": 21.5771544635,
			"-0.002": 22.072426322,
			"-0.001": 22.9449755288,
			"0.0": 19.197766591,
			"0.001": 19.2253766123,
			"0.002": 19.567883989,
			"0.003": 19.6969554784,
			"0.004": 16.3275381446,
			"0.005": 16.5265682958,
			"0.006": 11.7395327845,
			"0.007": 7.20811617793,
			"0.008": 4.46460450603,
			"0.009": 3.34441994217,
			"0.01": 1.75834611728,
			"0.011": 0.0225488189145,
			"0.012": 0.0,
			"0.013": 0.0,
			"0.014": 0.0,
			"0.015": 0.0,
			"0.016": 0.0,
			"0.017": 0.0,
			"0.018": 0.0,
			"0.019": 0.0,
			"0.02": 0.0,
			"0.021": 0.0,
			"0.022": 0.0,
			"0.023": 0.0,
			"0.024": 0.0,
			"0.025": 0.0
		}
	}
}
