{
	 "smiles": "COC1=CC=CC=C1Cl", 
	 "Tm": 246.35, 
	 "num_atms": 16, 
	 "gaussian": { 
		 "optdone": 1, 
		 "sigma_profile": "yes", 
		 "theory": "DFT", 
		 "functional": "B3LYP", 
		 "basiset": "6-31G**", 
		 "properties": { 
			 "R2extent": 2429.4047, 
			 "electric_dipole_moment_norm": 2.85229267432, 
			 "electric_quadrupole_moment_norm": 12.766320399, 
			 "total_energy": -806.364753859, 
			 "HOMO_LUMO_gap": 0.21347, 
			 "cosmo_polarized_energy": -6.56, 
			 "cosmo_cavitation_energy": 21.38, 
			 "cosmo_dispersion_energy": -16.17, 
			 "cosmo_repulsion_energy": 1.33, 
			 "cosmo_total_nonelectrostatic_energy": 6.54, 
			 "SMD_solvation_energy": 4.29 
		},
		"coords": [
			{
				"x": 1.9348068924,
				"y": 0.4264737289,
				"z": -2.9803868463,
				"element": "C" 
			},
			{
				"x": 2.3303955182,
				"y": 0.1313256244,
				"z": -1.6495768304,
				"element": "O" 
			},
			{
				"x": 1.5805439262,
				"y": -0.7426568232,
				"z": -0.9312220125,
				"element": "C" 
			},
			{
				"x": 0.4302492058,
				"y": -1.3856591581,
				"z": -1.4069125585,
				"element": "C" 
			},
			{
				"x": -0.2758289971,
				"y": -2.2711373236,
				"z": -0.5891197355,
				"element": "C" 
			},
			{
				"x": 0.1511832918,
				"y": -2.529073603,
				"z": 0.7106372231,
				"element": "C" 
			},
			{
				"x": 1.2968514424,
				"y": -1.8940134779,
				"z": 1.1966979541,
				"element": "C" 
			},
			{
				"x": 2.0026140308,
				"y": -1.0120189293,
				"z": 0.386118987,
				"element": "C" 
			},
			{
				"x": 3.4380119637,
				"y": -0.2222229462,
				"z": 1.0082700267,
				"element": "Cl" 
			},
			{
				"x": 0.9377153467,
				"y": 0.8835770948,
				"z": -3.0140325609,
				"element": "H" 
			},
			{
				"x": 2.6698473733,
				"y": 1.13850455,
				"z": -3.3573865516,
				"element": "H" 
			},
			{
				"x": 1.9420631075,
				"y": -0.4702735123,
				"z": -3.612895406,
				"element": "H" 
			},
			{
				"x": 0.0827831848,
				"y": -1.1972669604,
				"z": -2.4156623672,
				"element": "H" 
			},
			{
				"x": -1.1646091352,
				"y": -2.7578054531,
				"z": -0.979649676,
				"element": "H" 
			},
			{
				"x": -0.3960568666,
				"y": -3.2166029093,
				"z": 1.3473902068,
				"element": "H" 
			},
			{
				"x": 1.6505297154,
				"y": -2.0776499018,
				"z": 2.2055301473,
				"element": "H" 
			}
		],
		 "valence_orbital": [ 
			{
				"type": "occ",
				"energy": -0.33268,
				"method": "rhf"
			},
			{
				"type": "occ",
				"energy": -0.32446,
				"method": "rhf"
			},
			{
				"type": "occ",
				"energy": -0.30148,
				"method": "rhf"
			},
			{
				"type": "occ",
				"energy": -0.24906,
				"method": "rhf"
			},
			{
				"type": "occ",
				"energy": -0.22316,
				"method": "rhf"
			},
			{
				"type": "unocc",
				"energy": -0.00969,
				"method": "rhf"
			},
			{
				"type": "unocc",
				"energy": 0.00429,
				"method": "rhf"
			},
			{
				"type": "unocc",
				"energy": 0.03605,
				"method": "rhf"
			},
			{
				"type": "unocc",
				"energy": 0.09511,
				"method": "rhf"
			},
			{
				"type": "unocc",
				"energy": 0.11365,
				"method": "rhf"
			}
		],
		"cosmo_sigma_profile": { 
			"-0.025": 0.0,
			"-0.024": 0.0,
			"-0.023": 0.0,
			"-0.022": 0.0,
			"-0.021": 0.0,
			"-0.02": 0.0,
			"-0.019": 0.0,
			"-0.018": 0.0,
			"-0.017": 0.0,
			"-0.016": 0.0,
			"-0.015": 0.0,
			"-0.014": 0.0,
			"-0.013": 0.0,
			"-0.012": 0.0,
			"-0.011": 0.0,
			"-0.01": 0.0,
			"-0.009": 0.0,
			"-0.008": 0.0496030172228,
			"-0.007": 3.33871641379,
			"-0.006": 13.5268349108,
			"-0.005": 17.4070872388,
			"-0.004": 15.303384739,
			"-0.003": 13.6908627672,
			"-0.002": 9.54630115081,
			"-0.001": 7.36264620245,
			"0.0": 9.1751056264,
			"0.001": 9.98121074357,
			"0.002": 15.0186917291,
			"0.003": 14.9939416043,
			"0.004": 16.6514701269,
			"0.005": 15.3762619953,
			"0.006": 3.95237164574,
			"0.007": 1.5741344745,
			"0.008": 1.70199639339,
			"0.009": 1.88971124341,
			"0.01": 1.70577214769,
			"0.011": 0.836065270589,
			"0.012": 0.0,
			"0.013": 0.0,
			"0.014": 0.0,
			"0.015": 0.0,
			"0.016": 0.0,
			"0.017": 0.0,
			"0.018": 0.0,
			"0.019": 0.0,
			"0.02": 0.0,
			"0.021": 0.0,
			"0.022": 0.0,
			"0.023": 0.0,
			"0.024": 0.0,
			"0.025": 0.0
		}
	}
}
