{
	 "smiles": "CNS(=O)(=O)CBr", 
	 "Tm": 338.15, 
	 "num_atms": 13, 
	 "gaussian": { 
		 "optdone": 1, 
		 "sigma_profile": "yes", 
		 "theory": "DFT", 
		 "functional": "B3LYP", 
		 "basiset": "6-31G**", 
		 "properties": { 
			 "R2extent": 1886.0347, 
			 "electric_dipole_moment_norm": 2.99217870289, 
			 "electric_quadrupole_moment_norm": 9.43128759025, 
			 "total_energy": -3254.54127881, 
			 "HOMO_LUMO_gap": 0.2568, 
			 "cosmo_polarized_energy": -13.05, 
			 "cosmo_cavitation_energy": 20.05, 
			 "cosmo_dispersion_energy": -15.82, 
			 "cosmo_repulsion_energy": 1.28, 
			 "cosmo_total_nonelectrostatic_energy": 5.51, 
			 "SMD_solvation_energy": 1.55 
		},
		"coords": [
			{
				"x": -1.4666536702,
				"y": 1.9135182736,
				"z": -1.9359252829,
				"element": "C" 
			},
			{
				"x": -0.1146840679,
				"y": 1.3629744951,
				"z": -1.7454955383,
				"element": "N" 
			},
			{
				"x": 0.0939426909,
				"y": 0.1223391771,
				"z": -0.6298036085,
				"element": "S" 
			},
			{
				"x": 1.1029781672,
				"y": -0.7807738621,
				"z": -1.1942165307,
				"element": "O" 
			},
			{
				"x": -1.2007686642,
				"y": -0.3571549956,
				"z": -0.1504936362,
				"element": "O" 
			},
			{
				"x": 0.9562058137,
				"y": 0.941793236,
				"z": 0.7467538592,
				"element": "C" 
			},
			{
				"x": -0.0705083827,
				"y": 2.3502776412,
				"z": 1.6182362831,
				"element": "Br" 
			},
			{
				"x": -1.812594507,
				"y": 2.348130759,
				"z": -0.9980854108,
				"element": "H" 
			},
			{
				"x": -1.3888173066,
				"y": 2.7124622195,
				"z": -2.6771310886,
				"element": "H" 
			},
			{
				"x": -2.1949895345,
				"y": 1.1692889124,
				"z": -2.2736311922,
				"element": "H" 
			},
			{
				"x": 0.3423917521,
				"y": 1.067842575,
				"z": -2.6042823237,
				"element": "H" 
			},
			{
				"x": 1.1650485005,
				"y": 0.1671873694,
				"z": 1.4837297202,
				"element": "H" 
			},
			{
				"x": 1.8732492086,
				"y": 1.3746141995,
				"z": 0.3530447494,
				"element": "H" 
			}
		],
		 "valence_orbital": [ 
			{
				"type": "occ",
				"energy": -0.32795,
				"method": "rhf"
			},
			{
				"type": "occ",
				"energy": -0.31326,
				"method": "rhf"
			},
			{
				"type": "occ",
				"energy": -0.29622,
				"method": "rhf"
			},
			{
				"type": "occ",
				"energy": -0.29175,
				"method": "rhf"
			},
			{
				"type": "occ",
				"energy": -0.28456,
				"method": "rhf"
			},
			{
				"type": "unocc",
				"energy": -0.02776,
				"method": "rhf"
			},
			{
				"type": "unocc",
				"energy": 0.04483,
				"method": "rhf"
			},
			{
				"type": "unocc",
				"energy": 0.06991,
				"method": "rhf"
			},
			{
				"type": "unocc",
				"energy": 0.08064,
				"method": "rhf"
			},
			{
				"type": "unocc",
				"energy": 0.08428,
				"method": "rhf"
			}
		],
		"cosmo_sigma_profile": { 
			"-0.025": 0.0,
			"-0.024": 0.0,
			"-0.023": 0.0,
			"-0.022": 0.0,
			"-0.021": 0.0,
			"-0.02": 0.0,
			"-0.019": 0.0,
			"-0.018": 0.0,
			"-0.017": 0.0,
			"-0.016": 0.0,
			"-0.015": 0.634947025797,
			"-0.014": 0.988163904964,
			"-0.013": 0.976420396729,
			"-0.012": 1.72467435899,
			"-0.011": 3.98296909164,
			"-0.01": 4.28764908621,
			"-0.009": 4.93116837273,
			"-0.008": 3.8507416211,
			"-0.007": 5.3199023944,
			"-0.006": 6.79474327919,
			"-0.005": 8.57703174882,
			"-0.004": 9.89468638492,
			"-0.003": 11.880283559,
			"-0.002": 10.2074044725,
			"-0.001": 6.47097257143,
			"0.0": 7.39956145527,
			"0.001": 6.57264562716,
			"0.002": 6.78779837061,
			"0.003": 8.11500938929,
			"0.004": 11.3385299262,
			"0.005": 5.61904195666,
			"0.006": 3.76066000679,
			"0.007": 4.42649897916,
			"0.008": 3.92142129653,
			"0.009": 3.83084582583,
			"0.01": 10.6222770294,
			"0.011": 8.34203741478,
			"0.012": 0.458528872892,
			"0.013": 0.0,
			"0.014": 0.0,
			"0.015": 0.0,
			"0.016": 0.0,
			"0.017": 0.0,
			"0.018": 0.0,
			"0.019": 0.0,
			"0.02": 0.0,
			"0.021": 0.0,
			"0.022": 0.0,
			"0.023": 0.0,
			"0.024": 0.0,
			"0.025": 0.0
		}
	}
}
