{
	 "smiles": "CCOP(=S)(OCC)OC1=NN(C(C)C)C(Cl)=N1", 
	 "Tm": 298.15, 
	 "num_atms": 35, 
	 "gaussian": { 
		 "optdone": 1, 
		 "sigma_profile": "yes", 
		 "theory": "DFT", 
		 "functional": "B3LYP", 
		 "basiset": "6-31G**", 
		 "properties": { 
			 "R2extent": 7861.9988, 
			 "electric_dipole_moment_norm": 4.42086587446, 
			 "electric_quadrupole_moment_norm": 24.3222369878, 
			 "total_energy": -1942.92825392, 
			 "HOMO_LUMO_gap": 0.22929, 
			 "cosmo_polarized_energy": -14.4, 
			 "cosmo_cavitation_energy": 43.89, 
			 "cosmo_dispersion_energy": -29.77, 
			 "cosmo_repulsion_energy": 2.37, 
			 "cosmo_total_nonelectrostatic_energy": 16.5, 
			 "SMD_solvation_energy": 5.68 
		},
		"coords": [
			{
				"x": -1.5791028001,
				"y": -1.8960275015,
				"z": 3.1085855981,
				"element": "C" 
			},
			{
				"x": -0.4636199168,
				"y": -1.2505922657,
				"z": 2.3106898716,
				"element": "C" 
			},
			{
				"x": -0.1242874127,
				"y": -2.163710792,
				"z": 1.2246117792,
				"element": "O" 
			},
			{
				"x": 1.154888698,
				"y": -1.9624631561,
				"z": 0.29518314,
				"element": "P" 
			},
			{
				"x": 1.211917959,
				"y": -3.1112274664,
				"z": -1.2506926879,
				"element": "S" 
			},
			{
				"x": 2.3575777586,
				"y": -2.0207414803,
				"z": 1.3631599505,
				"element": "O" 
			},
			{
				"x": 3.7387136108,
				"y": -1.8680575804,
				"z": 0.9402694056,
				"element": "C" 
			},
			{
				"x": 4.6204622327,
				"y": -2.1196612808,
				"z": 2.1478597505,
				"element": "C" 
			},
			{
				"x": 1.2294437227,
				"y": -0.326215753,
				"z": -0.016779265,
				"element": "O" 
			},
			{
				"x": 0.4209125867,
				"y": 0.2627322323,
				"z": -0.9322628806,
				"element": "C" 
			},
			{
				"x": 0.9172972084,
				"y": 0.8284993047,
				"z": -2.0165650522,
				"element": "N" 
			},
			{
				"x": -0.2017262578,
				"y": 1.3430902532,
				"z": -2.605568531,
				"element": "N" 
			},
			{
				"x": -0.1044221386,
				"y": 2.0552401074,
				"z": -3.8917409963,
				"element": "C" 
			},
			{
				"x": 0.393070666,
				"y": 1.0977473727,
				"z": -4.9792838534,
				"element": "C" 
			},
			{
				"x": 0.7827521306,
				"y": 3.293835564,
				"z": -3.7348388123,
				"element": "C" 
			},
			{
				"x": -1.2701716284,
				"y": 1.0409206363,
				"z": -1.8352847205,
				"element": "C" 
			},
			{
				"x": -2.8822851433,
				"y": 1.5056748627,
				"z": -2.2223846359,
				"element": "Cl" 
			},
			{
				"x": -0.9211373815,
				"y": 0.3625028915,
				"z": -0.7590728381,
				"element": "N" 
			},
			{
				"x": -1.8777974758,
				"y": -1.2315247429,
				"z": 3.9259674095,
				"element": "H" 
			},
			{
				"x": -1.2539673868,
				"y": -2.8486061993,
				"z": 3.5356044029,
				"element": "H" 
			},
			{
				"x": -2.4501999482,
				"y": -2.0775839002,
				"z": 2.4735772946,
				"element": "H" 
			},
			{
				"x": 0.427194917,
				"y": -1.0841311796,
				"z": 2.9237116629,
				"element": "H" 
			},
			{
				"x": -0.7821742034,
				"y": -0.3053113319,
				"z": 1.8638852944,
				"element": "H" 
			},
			{
				"x": 3.9390902508,
				"y": -2.5851297555,
				"z": 0.1377495614,
				"element": "H" 
			},
			{
				"x": 3.8706035851,
				"y": -0.8545249183,
				"z": 0.5473740243,
				"element": "H" 
			},
			{
				"x": 5.6722161148,
				"y": -2.0106487328,
				"z": 1.8647777343,
				"element": "H" 
			},
			{
				"x": 4.4021699699,
				"y": -1.4054707535,
				"z": 2.9468758476,
				"element": "H" 
			},
			{
				"x": 4.4685240677,
				"y": -3.1313429177,
				"z": 2.5337755959,
				"element": "H" 
			},
			{
				"x": -1.1277613592,
				"y": 2.3661973175,
				"z": -4.1191053599,
				"element": "H" 
			},
			{
				"x": -0.2735609516,
				"y": 0.2368104626,
				"z": -5.0797103393,
				"element": "H" 
			},
			{
				"x": 1.3938504803,
				"y": 0.7321665706,
				"z": -4.7360358461,
				"element": "H" 
			},
			{
				"x": 0.432831846,
				"y": 1.6189092935,
				"z": -5.9403610884,
				"element": "H" 
			},
			{
				"x": 1.7968952058,
				"y": 3.0021748936,
				"z": -3.4504784635,
				"element": "H" 
			},
			{
				"x": 0.8275925857,
				"y": 3.8378628047,
				"z": -4.6827858561,
				"element": "H" 
			},
			{
				"x": 0.3873084076,
				"y": 3.9672071407,
				"z": -2.9690070965,
				"element": "H" 
			}
		],
		 "valence_orbital": [ 
			{
				"type": "occ",
				"energy": -0.29772,
				"method": "rhf"
			},
			{
				"type": "occ",
				"energy": -0.29615,
				"method": "rhf"
			},
			{
				"type": "occ",
				"energy": -0.25908,
				"method": "rhf"
			},
			{
				"type": "occ",
				"energy": -0.23862,
				"method": "rhf"
			},
			{
				"type": "occ",
				"energy": -0.23679,
				"method": "rhf"
			},
			{
				"type": "unocc",
				"energy": -0.0075,
				"method": "rhf"
			},
			{
				"type": "unocc",
				"energy": 0.01824,
				"method": "rhf"
			},
			{
				"type": "unocc",
				"energy": 0.02875,
				"method": "rhf"
			},
			{
				"type": "unocc",
				"energy": 0.05005,
				"method": "rhf"
			},
			{
				"type": "unocc",
				"energy": 0.06426,
				"method": "rhf"
			}
		],
		"cosmo_sigma_profile": { 
			"-0.025": 0.0,
			"-0.024": 0.0,
			"-0.023": 0.0,
			"-0.022": 0.0,
			"-0.021": 0.0,
			"-0.02": 0.0,
			"-0.019": 0.0,
			"-0.018": 0.0,
			"-0.017": 0.0,
			"-0.016": 0.0,
			"-0.015": 0.0,
			"-0.014": 0.0,
			"-0.013": 0.0,
			"-0.012": 0.0,
			"-0.011": 0.0,
			"-0.01": 0.0,
			"-0.009": 0.0,
			"-0.008": 0.0,
			"-0.007": 0.511360411689,
			"-0.006": 6.30943034452,
			"-0.005": 29.0049219744,
			"-0.004": 42.619922723,
			"-0.003": 36.4833915564,
			"-0.002": 34.8020456933,
			"-0.001": 37.4896271381,
			"0.0": 35.4449411092,
			"0.001": 20.5629126645,
			"0.002": 19.6310504737,
			"0.003": 14.9034134067,
			"0.004": 12.8404815874,
			"0.005": 10.9819706347,
			"0.006": 11.9685829437,
			"0.007": 12.9834192157,
			"0.008": 13.4573756747,
			"0.009": 5.49014967077,
			"0.01": 2.68465998306,
			"0.011": 1.09391376176,
			"0.012": 0.671497413388,
			"0.013": 0.0209999324096,
			"0.014": 0.0,
			"0.015": 0.0,
			"0.016": 0.0,
			"0.017": 0.0,
			"0.018": 0.0,
			"0.019": 0.0,
			"0.02": 0.0,
			"0.021": 0.0,
			"0.022": 0.0,
			"0.023": 0.0,
			"0.024": 0.0,
			"0.025": 0.0
		}
	}
}
