{
	 "smiles": "COC1=CC=C(NC2=C(N=NC(N)=N2)C2=CC=CC=C2)C=C1", 
	 "Tm": 566.15, 
	 "num_atms": 37, 
	 "gaussian": { 
		 "optdone": 1, 
		 "sigma_profile": "yes", 
		 "theory": "DFT", 
		 "functional": "B3LYP", 
		 "basiset": "6-31G**", 
		 "properties": { 
			 "R2extent": 8999.4955, 
			 "electric_dipole_moment_norm": 4.21253704435, 
			 "electric_quadrupole_moment_norm": 15.1240862293, 
			 "total_energy": -967.701127602, 
			 "HOMO_LUMO_gap": 0.15226, 
			 "cosmo_polarized_energy": -19.85, 
			 "cosmo_cavitation_energy": 41.56, 
			 "cosmo_dispersion_energy": -30.03, 
			 "cosmo_repulsion_energy": 2.28, 
			 "cosmo_total_nonelectrostatic_energy": 13.82, 
			 "SMD_solvation_energy": 5.08 
		},
		"coords": [
			{
				"x": 4.3771815336,
				"y": -1.3793825555,
				"z": 4.0507655063,
				"element": "C" 
			},
			{
				"x": 3.1224987166,
				"y": -0.7648720547,
				"z": 4.2894113237,
				"element": "O" 
			},
			{
				"x": 2.2960037223,
				"y": -0.5535594045,
				"z": 3.2214620804,
				"element": "C" 
			},
			{
				"x": 1.0695193335,
				"y": 0.0615404386,
				"z": 3.5039783849,
				"element": "C" 
			},
			{
				"x": 0.1469125654,
				"y": 0.3282364494,
				"z": 2.5000229597,
				"element": "C" 
			},
			{
				"x": 0.4377430145,
				"y": -0.0201996472,
				"z": 1.1688668151,
				"element": "C" 
			},
			{
				"x": -0.4286447,
				"y": 0.1878028265,
				"z": 0.0734595614,
				"element": "N" 
			},
			{
				"x": -1.6284554772,
				"y": 0.8323263732,
				"z": -0.0312755079,
				"element": "C" 
			},
			{
				"x": -2.277934178,
				"y": 0.928301215,
				"z": -1.3130402586,
				"element": "C" 
			},
			{
				"x": -3.3706279643,
				"y": 1.6744164656,
				"z": -1.4322244192,
				"element": "N" 
			},
			{
				"x": -3.9150493781,
				"y": 2.2851507932,
				"z": -0.3825318557,
				"element": "N" 
			},
			{
				"x": -3.3154503549,
				"y": 2.0930981208,
				"z": 0.8078004174,
				"element": "C" 
			},
			{
				"x": -3.9014546534,
				"y": 2.6991719578,
				"z": 1.8789558123,
				"element": "N" 
			},
			{
				"x": -2.1838778142,
				"y": 1.4022444436,
				"z": 1.0358301956,
				"element": "N" 
			},
			{
				"x": -1.7830805205,
				"y": 0.2803074251,
				"z": -2.5558565793,
				"element": "C" 
			},
			{
				"x": -1.7749064876,
				"y": 1.0112781974,
				"z": -3.756247997,
				"element": "C" 
			},
			{
				"x": -1.3448776076,
				"y": 0.4238835807,
				"z": -4.9435030748,
				"element": "C" 
			},
			{
				"x": -0.9145466105,
				"y": -0.9058466709,
				"z": -4.9585874737,
				"element": "C" 
			},
			{
				"x": -0.9324302534,
				"y": -1.648206793,
				"z": -3.77780375,
				"element": "C" 
			},
			{
				"x": -1.3665838014,
				"y": -1.063114607,
				"z": -2.5865012909,
				"element": "C" 
			},
			{
				"x": 1.6660718123,
				"y": -0.6355169364,
				"z": 0.8911753005,
				"element": "C" 
			},
			{
				"x": 2.5912466357,
				"y": -0.9033573141,
				"z": 1.8992463077,
				"element": "C" 
			},
			{
				"x": 5.001000989,
				"y": -0.780750585,
				"z": 3.3737500732,
				"element": "H" 
			},
			{
				"x": 4.8697270479,
				"y": -1.4495133052,
				"z": 5.0219239626,
				"element": "H" 
			},
			{
				"x": 4.2631282294,
				"y": -2.3881951663,
				"z": 3.6321224571,
				"element": "H" 
			},
			{
				"x": 0.8527682268,
				"y": 0.3290894855,
				"z": 4.5331636358,
				"element": "H" 
			},
			{
				"x": -0.7925666586,
				"y": 0.8079084999,
				"z": 2.7293112644,
				"element": "H" 
			},
			{
				"x": -0.0648781025,
				"y": -0.141630849,
				"z": -0.8098708472,
				"element": "H" 
			},
			{
				"x": -4.835739447,
				"y": 3.0518398733,
				"z": 1.7449603813,
				"element": "H" 
			},
			{
				"x": -3.6190036574,
				"y": 2.4079171596,
				"z": 2.8002557778,
				"element": "H" 
			},
			{
				"x": -2.1191822591,
				"y": 2.0397773217,
				"z": -3.7402077261,
				"element": "H" 
			},
			{
				"x": -1.3425749023,
				"y": 1.0059803488,
				"z": -5.8607282111,
				"element": "H" 
			},
			{
				"x": -0.5759065502,
				"y": -1.3606200755,
				"z": -5.884945799,
				"element": "H" 
			},
			{
				"x": -0.6232467385,
				"y": -2.6896228773,
				"z": -3.7827112055,
				"element": "H" 
			},
			{
				"x": -1.4196121777,
				"y": -1.6673677999,
				"z": -1.6847488127,
				"element": "H" 
			},
			{
				"x": 1.9100947398,
				"y": -0.9114560395,
				"z": -0.132447908,
				"element": "H" 
			},
			{
				"x": 3.5290337277,
				"y": -1.3793582948,
				"z": 1.6390704996,
				"element": "H" 
			}
		],
		 "valence_orbital": [ 
			{
				"type": "occ",
				"energy": -0.25541,
				"method": "rhf"
			},
			{
				"type": "occ",
				"energy": -0.25434,
				"method": "rhf"
			},
			{
				"type": "occ",
				"energy": -0.22273,
				"method": "rhf"
			},
			{
				"type": "occ",
				"energy": -0.21649,
				"method": "rhf"
			},
			{
				"type": "occ",
				"energy": -0.1939,
				"method": "rhf"
			},
			{
				"type": "unocc",
				"energy": -0.04164,
				"method": "rhf"
			},
			{
				"type": "unocc",
				"energy": -0.02385,
				"method": "rhf"
			},
			{
				"type": "unocc",
				"energy": -0.00813,
				"method": "rhf"
			},
			{
				"type": "unocc",
				"energy": -0.00502,
				"method": "rhf"
			},
			{
				"type": "unocc",
				"energy": 0.01862,
				"method": "rhf"
			}
		],
		"cosmo_sigma_profile": { 
			"-0.025": 0.0,
			"-0.024": 0.0,
			"-0.023": 0.0,
			"-0.022": 0.0,
			"-0.021": 0.0,
			"-0.02": 0.0,
			"-0.019": 0.0,
			"-0.018": 0.0,
			"-0.017": 0.0,
			"-0.016": 0.0,
			"-0.015": 0.0,
			"-0.014": 1.26955656044,
			"-0.013": 2.51893362886,
			"-0.012": 2.27039605334,
			"-0.011": 3.12469130064,
			"-0.01": 3.85876083997,
			"-0.009": 2.90508072868,
			"-0.008": 3.61638909185,
			"-0.007": 5.49991457675,
			"-0.006": 17.9321590828,
			"-0.005": 26.4004451372,
			"-0.004": 26.4626687713,
			"-0.003": 26.613143487,
			"-0.002": 21.4025839823,
			"-0.001": 16.8727904565,
			"0.0": 20.149675123,
			"0.001": 18.9249599632,
			"0.002": 20.3587075202,
			"0.003": 23.2018874086,
			"0.004": 24.9716844906,
			"0.005": 26.1685965593,
			"0.006": 7.88251837508,
			"0.007": 5.6023869123,
			"0.008": 4.46045304122,
			"0.009": 3.73389898088,
			"0.01": 3.81865579929,
			"0.011": 3.00968220298,
			"0.012": 1.47175074799,
			"0.013": 1.93565399791,
			"0.014": 3.06764510632,
			"0.015": 1.8196060569,
			"0.016": 1.44123282984,
			"0.017": 0.224542657666,
			"0.018": 0.0,
			"0.019": 0.0,
			"0.02": 0.0,
			"0.021": 0.0,
			"0.022": 0.0,
			"0.023": 0.0,
			"0.024": 0.0,
			"0.025": 0.0
		}
	}
}
