{
	 "smiles": "CC(C)CC=C/C(C(O)=O)C1=CC[C@@]2(C)[C@@H](CCC3C4CC[C@H](O)[C@@]4(C)CCC23)C1", 
	 "Tm": 473.15, 
	 "num_atms": 72, 
	 "gaussian": { 
		 "optdone": 1, 
		 "sigma_profile": "yes", 
		 "theory": "DFT", 
		 "functional": "B3LYP", 
		 "basiset": "6-31G**", 
		 "properties": { 
			 "R2extent": 17292.7794, 
			 "electric_dipole_moment_norm": 3.39776044771, 
			 "electric_quadrupole_moment_norm": 41.9804176569, 
			 "total_energy": -1279.84730847, 
			 "HOMO_LUMO_gap": 0.23378, 
			 "cosmo_polarized_energy": -17.59, 
			 "cosmo_cavitation_energy": 62.43, 
			 "cosmo_dispersion_energy": -41.3, 
			 "cosmo_repulsion_energy": 3.08, 
			 "cosmo_total_nonelectrostatic_energy": 24.21, 
			 "SMD_solvation_energy": 9.64 
		},
		"coords": [
			{
				"x": -0.1620894562,
				"y": -5.1021350712,
				"z": -0.8216719941,
				"element": "C" 
			},
			{
				"x": -0.456992888,
				"y": -6.2390657704,
				"z": 0.1663047645,
				"element": "C" 
			},
			{
				"x": 0.7858188721,
				"y": -7.1108437725,
				"z": 0.3928886987,
				"element": "C" 
			},
			{
				"x": -0.99560466,
				"y": -5.6989477892,
				"z": 1.5140643045,
				"element": "C" 
			},
			{
				"x": -2.3419146711,
				"y": -5.0390023591,
				"z": 1.3998119549,
				"element": "C" 
			},
			{
				"x": -2.7001583634,
				"y": -3.7924382586,
				"z": 1.7312191425,
				"element": "C" 
			},
			{
				"x": -1.8189442659,
				"y": -2.7230620521,
				"z": 2.3406463346,
				"element": "C" 
			},
			{
				"x": -2.447904644,
				"y": -2.3158640342,
				"z": 3.6946851307,
				"element": "C" 
			},
			{
				"x": -3.4919465985,
				"y": -1.4516335927,
				"z": 3.5956430528,
				"element": "O" 
			},
			{
				"x": -2.0908030448,
				"y": -2.7386294422,
				"z": 4.7643570565,
				"element": "O" 
			},
			{
				"x": -1.6041145901,
				"y": -1.4857621421,
				"z": 1.4723439401,
				"element": "C" 
			},
			{
				"x": -2.2935540813,
				"y": -1.2381977565,
				"z": 0.3488941017,
				"element": "C" 
			},
			{
				"x": -2.1004132389,
				"y": -0.0103245528,
				"z": -0.5048769852,
				"element": "C" 
			},
			{
				"x": -1.4233950319,
				"y": 1.1830553479,
				"z": 0.2247103835,
				"element": "C" 
			},
			{
				"x": -2.4730856277,
				"y": 1.7782463485,
				"z": 1.1967483806,
				"element": "C" 
			},
			{
				"x": -0.1932847062,
				"y": 0.6073764908,
				"z": 0.9837205866,
				"element": "C" 
			},
			{
				"x": 0.6982086126,
				"y": 1.669612484,
				"z": 1.6824621988,
				"element": "C" 
			},
			{
				"x": 0.4663171017,
				"y": 3.118304704,
				"z": 1.2173635037,
				"element": "C" 
			},
			{
				"x": 0.1290314793,
				"y": 3.2926588711,
				"z": -0.2771215396,
				"element": "C" 
			},
			{
				"x": 1.3984636517,
				"y": 3.3665547697,
				"z": -1.1639342892,
				"element": "C" 
			},
			{
				"x": 2.3439528876,
				"y": 2.1188803186,
				"z": -1.2272946143,
				"element": "C" 
			},
			{
				"x": 2.7077542194,
				"y": 1.9196621205,
				"z": -2.7225456752,
				"element": "C" 
			},
			{
				"x": 2.3603703088,
				"y": 3.253990205,
				"z": -3.3966844257,
				"element": "C" 
			},
			{
				"x": 3.4448519084,
				"y": 4.1809429371,
				"z": -3.3083937363,
				"element": "O" 
			},
			{
				"x": 1.0828346181,
				"y": 3.7359454361,
				"z": -2.6484999982,
				"element": "C" 
			},
			{
				"x": 0.8513391596,
				"y": 5.2400707311,
				"z": -2.8513109651,
				"element": "C" 
			},
			{
				"x": -0.1722928843,
				"y": 2.9479225752,
				"z": -3.136227049,
				"element": "C" 
			},
			{
				"x": -0.6323185863,
				"y": 1.8022891111,
				"z": -2.221407651,
				"element": "C" 
			},
			{
				"x": -0.9886918782,
				"y": 2.3051180101,
				"z": -0.8028350915,
				"element": "C" 
			},
			{
				"x": -0.5904566203,
				"y": -0.4908354041,
				"z": 1.9910314536,
				"element": "C" 
			},
			{
				"x": 0.6405168179,
				"y": -4.4573326633,
				"z": -0.4421661392,
				"element": "H" 
			},
			{
				"x": 0.1602504898,
				"y": -5.4961337766,
				"z": -1.7914719254,
				"element": "H" 
			},
			{
				"x": -1.0423415164,
				"y": -4.472997478,
				"z": -0.985002342,
				"element": "H" 
			},
			{
				"x": -1.2410933081,
				"y": -6.8751824665,
				"z": -0.2712737235,
				"element": "H" 
			},
			{
				"x": 1.1594410524,
				"y": -7.5199726966,
				"z": -0.5518936674,
				"element": "H" 
			},
			{
				"x": 1.5970678744,
				"y": -6.5265522784,
				"z": 0.844193446,
				"element": "H" 
			},
			{
				"x": 0.5700068758,
				"y": -7.9517031866,
				"z": 1.0610342792,
				"element": "H" 
			},
			{
				"x": -0.2524999426,
				"y": -5.0218399031,
				"z": 1.9508229491,
				"element": "H" 
			},
			{
				"x": -1.0872297601,
				"y": -6.5443769641,
				"z": 2.2113574023,
				"element": "H" 
			},
			{
				"x": -3.1235355893,
				"y": -5.6795786426,
				"z": 0.9878664053,
				"element": "H" 
			},
			{
				"x": -3.7424896361,
				"y": -3.5114040197,
				"z": 1.5854780662,
				"element": "H" 
			},
			{
				"x": -0.846534134,
				"y": -3.1471608802,
				"z": 2.6031901522,
				"element": "H" 
			},
			{
				"x": -3.5745543133,
				"y": -1.1721427154,
				"z": 2.6675866208,
				"element": "H" 
			},
			{
				"x": -2.9961784683,
				"y": -1.9799532755,
				"z": -0.0255964958,
				"element": "H" 
			},
			{
				"x": -3.0694636833,
				"y": 0.3065132947,
				"z": -0.9147382897,
				"element": "H" 
			},
			{
				"x": -1.5060534593,
				"y": -0.3186116175,
				"z": -1.3728053523,
				"element": "H" 
			},
			{
				"x": -3.3481765397,
				"y": 2.1239947942,
				"z": 0.6352128311,
				"element": "H" 
			},
			{
				"x": -2.8235473944,
				"y": 1.0394722296,
				"z": 1.9230531581,
				"element": "H" 
			},
			{
				"x": -2.0932899297,
				"y": 2.6309779819,
				"z": 1.761979381,
				"element": "H" 
			},
			{
				"x": 0.4146665846,
				"y": 0.1144473249,
				"z": 0.2119641808,
				"element": "H" 
			},
			{
				"x": 1.7481761508,
				"y": 1.392525874,
				"z": 1.5382301518,
				"element": "H" 
			},
			{
				"x": 0.5328707379,
				"y": 1.6305560043,
				"z": 2.7659682882,
				"element": "H" 
			},
			{
				"x": 1.3491325393,
				"y": 3.7240904159,
				"z": 1.4569001864,
				"element": "H" 
			},
			{
				"x": -0.3456435901,
				"y": 3.5538971215,
				"z": 1.8080618913,
				"element": "H" 
			},
			{
				"x": -0.3003129281,
				"y": 4.299285167,
				"z": -0.3576757832,
				"element": "H" 
			},
			{
				"x": 1.9852038078,
				"y": 4.1964238241,
				"z": -0.7445242561,
				"element": "H" 
			},
			{
				"x": 1.8805255645,
				"y": 1.2194442703,
				"z": -0.8193212437,
				"element": "H" 
			},
			{
				"x": 3.2407901798,
				"y": 2.2929812103,
				"z": -0.6223309568,
				"element": "H" 
			},
			{
				"x": 3.75838106,
				"y": 1.6619729655,
				"z": -2.8854484327,
				"element": "H" 
			},
			{
				"x": 2.1087775577,
				"y": 1.1143882831,
				"z": -3.1611520235,
				"element": "H" 
			},
			{
				"x": 2.1771229773,
				"y": 3.1519768022,
				"z": -4.4716742835,
				"element": "H" 
			},
			{
				"x": 3.7310121223,
				"y": 4.2241378312,
				"z": -2.3863791847,
				"element": "H" 
			},
			{
				"x": 1.7440013393,
				"y": 5.8183420101,
				"z": -2.6029241253,
				"element": "H" 
			},
			{
				"x": 0.6014016136,
				"y": 5.4553383865,
				"z": -3.8966639121,
				"element": "H" 
			},
			{
				"x": 0.0185579138,
				"y": 5.5973499781,
				"z": -2.2351192545,
				"element": "H" 
			},
			{
				"x": 0.0007578155,
				"y": 2.5584494876,
				"z": -4.1480011904,
				"element": "H" 
			},
			{
				"x": -1.0109052372,
				"y": 3.6501227497,
				"z": -3.230851544,
				"element": "H" 
			},
			{
				"x": 0.1287429311,
				"y": 1.0152844446,
				"z": -2.182728006,
				"element": "H" 
			},
			{
				"x": -1.5139378681,
				"y": 1.3452907647,
				"z": -2.6816278183,
				"element": "H" 
			},
			{
				"x": -1.8888862129,
				"y": 2.9186346526,
				"z": -0.9443514513,
				"element": "H" 
			},
			{
				"x": -0.9779523758,
				"y": -0.0263942976,
				"z": 2.9105035537,
				"element": "H" 
			},
			{
				"x": 0.3145448992,
				"y": -1.0276494696,
				"z": 2.3089274841,
				"element": "H" 
			}
		],
		 "valence_orbital": [ 
			{
				"type": "occ",
				"energy": -0.28203,
				"method": "rhf"
			},
			{
				"type": "occ",
				"energy": -0.27974,
				"method": "rhf"
			},
			{
				"type": "occ",
				"energy": -0.25515,
				"method": "rhf"
			},
			{
				"type": "occ",
				"energy": -0.25155,
				"method": "rhf"
			},
			{
				"type": "occ",
				"energy": -0.24198,
				"method": "rhf"
			},
			{
				"type": "unocc",
				"energy": -0.0082,
				"method": "rhf"
			},
			{
				"type": "unocc",
				"energy": 0.00828,
				"method": "rhf"
			},
			{
				"type": "unocc",
				"energy": 0.03989,
				"method": "rhf"
			},
			{
				"type": "unocc",
				"energy": 0.0499,
				"method": "rhf"
			},
			{
				"type": "unocc",
				"energy": 0.05997,
				"method": "rhf"
			}
		],
		"cosmo_sigma_profile": { 
			"-0.025": 0.0,
			"-0.024": 0.0,
			"-0.023": 0.0,
			"-0.022": 0.0,
			"-0.021": 0.0,
			"-0.02": 0.0,
			"-0.019": 0.0,
			"-0.018": 0.0,
			"-0.017": 0.0,
			"-0.016": 0.0,
			"-0.015": 0.0,
			"-0.014": 0.24459181501,
			"-0.013": 0.671440026519,
			"-0.012": 2.02109151949,
			"-0.011": 1.84002164674,
			"-0.01": 2.21875004365,
			"-0.009": 2.8347986082,
			"-0.008": 1.96475180298,
			"-0.007": 2.71346741778,
			"-0.006": 5.59717890639,
			"-0.005": 9.57264503734,
			"-0.004": 15.0918941521,
			"-0.003": 41.649607392,
			"-0.002": 80.1241451703,
			"-0.001": 86.8906192131,
			"0.0": 71.3597985461,
			"0.001": 54.4580279442,
			"0.002": 32.5424157075,
			"0.003": 11.4012844251,
			"0.004": 7.67150794078,
			"0.005": 5.34862473957,
			"0.006": 3.47786063878,
			"0.007": 4.22725144588,
			"0.008": 3.93571327507,
			"0.009": 4.62295143401,
			"0.01": 5.82339674423,
			"0.011": 6.07577643023,
			"0.012": 7.53446372318,
			"0.013": 4.02443617891,
			"0.014": 1.69315346326,
			"0.015": 1.62940356032,
			"0.016": 0.00636476832613,
			"0.017": 0.0,
			"0.018": 0.0,
			"0.019": 0.0,
			"0.02": 0.0,
			"0.021": 0.0,
			"0.022": 0.0,
			"0.023": 0.0,
			"0.024": 0.0,
			"0.025": 0.0
		}
	}
}
