{
	 "smiles": "OC(=O)CN1C(S)=NN=C1C1=CC=C(Cl)C=C1", 
	 "Tm": 290.15, 
	 "num_atms": 25, 
	 "gaussian": { 
		 "optdone": 1, 
		 "sigma_profile": "yes", 
		 "theory": "DFT", 
		 "functional": "B3LYP", 
		 "basiset": "6-31G**", 
		 "properties": { 
			 "R2extent": 6534.9588, 
			 "electric_dipole_moment_norm": 6.22815402025, 
			 "electric_quadrupole_moment_norm": 10.0052659805, 
			 "total_energy": -1558.94109775, 
			 "HOMO_LUMO_gap": 0.1857, 
			 "cosmo_polarized_energy": -28.12, 
			 "cosmo_cavitation_energy": 33.94, 
			 "cosmo_dispersion_energy": -24.56, 
			 "cosmo_repulsion_energy": 1.87, 
			 "cosmo_total_nonelectrostatic_energy": 11.25, 
			 "SMD_solvation_energy": 4.22 
		},
		"coords": [
			{
				"x": -2.5504896579,
				"y": -0.8298980904,
				"z": 1.7856443335,
				"element": "O" 
			},
			{
				"x": -1.7968877964,
				"y": -0.275755985,
				"z": 0.8084189258,
				"element": "C" 
			},
			{
				"x": -2.1228398198,
				"y": 0.749831701,
				"z": 0.2730852838,
				"element": "O" 
			},
			{
				"x": -0.4903015086,
				"y": -1.0255457871,
				"z": 0.5035768641,
				"element": "C" 
			},
			{
				"x": 0.121499176,
				"y": -0.6345300543,
				"z": -0.7460509677,
				"element": "N" 
			},
			{
				"x": -0.1098575244,
				"y": -1.2028570869,
				"z": -1.978171305,
				"element": "C" 
			},
			{
				"x": -1.4103717547,
				"y": -2.365867398,
				"z": -2.255536386,
				"element": "S" 
			},
			{
				"x": 0.7514596113,
				"y": -0.7742557804,
				"z": -2.8671118052,
				"element": "N" 
			},
			{
				"x": 1.5922578477,
				"y": 0.1074941841,
				"z": -2.2203704728,
				"element": "N" 
			},
			{
				"x": 1.2118657219,
				"y": 0.1986783062,
				"z": -0.9655712657,
				"element": "C" 
			},
			{
				"x": 1.8608205674,
				"y": 1.0417697645,
				"z": 0.0463695775,
				"element": "C" 
			},
			{
				"x": 3.2613863195,
				"y": 1.1499937943,
				"z": 0.0350645514,
				"element": "C" 
			},
			{
				"x": 3.9189672184,
				"y": 1.9575601174,
				"z": 0.9577687402,
				"element": "C" 
			},
			{
				"x": 3.170581555,
				"y": 2.6624892664,
				"z": 1.9024038455,
				"element": "C" 
			},
			{
				"x": 3.9957993251,
				"y": 3.6705867518,
				"z": 3.0788801118,
				"element": "Cl" 
			},
			{
				"x": 1.778593675,
				"y": 2.5857381955,
				"z": 1.9216925627,
				"element": "C" 
			},
			{
				"x": 1.1265939588,
				"y": 1.7808056387,
				"z": 0.9883542249,
				"element": "C" 
			},
			{
				"x": -2.1780288135,
				"y": -1.6709630677,
				"z": 2.0887726014,
				"element": "H" 
			},
			{
				"x": -0.6670211031,
				"y": -2.1076841002,
				"z": 0.4841733912,
				"element": "H" 
			},
			{
				"x": 0.2133852453,
				"y": -0.8196617321,
				"z": 1.3174293883,
				"element": "H" 
			},
			{
				"x": -0.8729013054,
				"y": -2.8071565038,
				"z": -3.4079153721,
				"element": "H" 
			},
			{
				"x": 3.8256468815,
				"y": 0.5970049224,
				"z": -0.7080060643,
				"element": "H" 
			},
			{
				"x": 5.0001668432,
				"y": 2.0384651997,
				"z": 0.9505432718,
				"element": "H" 
			},
			{
				"x": 1.2115637121,
				"y": 3.1625197552,
				"z": 2.6438007862,
				"element": "H" 
			},
			{
				"x": 0.0418116257,
				"y": 1.7683379886,
				"z": 0.9625551788,
				"element": "H" 
			}
		],
		 "valence_orbital": [ 
			{
				"type": "occ",
				"energy": -0.29795,
				"method": "rhf"
			},
			{
				"type": "occ",
				"energy": -0.27628,
				"method": "rhf"
			},
			{
				"type": "occ",
				"energy": -0.26995,
				"method": "rhf"
			},
			{
				"type": "occ",
				"energy": -0.264,
				"method": "rhf"
			},
			{
				"type": "occ",
				"energy": -0.23174,
				"method": "rhf"
			},
			{
				"type": "unocc",
				"energy": -0.04604,
				"method": "rhf"
			},
			{
				"type": "unocc",
				"energy": -0.02881,
				"method": "rhf"
			},
			{
				"type": "unocc",
				"energy": -0.02622,
				"method": "rhf"
			},
			{
				"type": "unocc",
				"energy": -0.00378,
				"method": "rhf"
			},
			{
				"type": "unocc",
				"energy": 0.00993,
				"method": "rhf"
			}
		],
		"cosmo_sigma_profile": { 
			"-0.025": 0.0,
			"-0.024": 0.0,
			"-0.023": 0.0,
			"-0.022": 0.0,
			"-0.021": 0.596179099112,
			"-0.02": 1.54332259238,
			"-0.019": 1.51037624751,
			"-0.018": 1.10036982353,
			"-0.017": 1.30832282594,
			"-0.016": 0.736456350654,
			"-0.015": 1.11692883997,
			"-0.014": 1.91875263512,
			"-0.013": 1.84873674382,
			"-0.012": 3.02896282067,
			"-0.011": 3.90016617816,
			"-0.01": 4.10762762459,
			"-0.009": 4.51753989723,
			"-0.008": 7.52898913127,
			"-0.007": 11.0955562806,
			"-0.006": 11.2581629169,
			"-0.005": 10.4684607549,
			"-0.004": 10.2256508937,
			"-0.003": 10.4060477383,
			"-0.002": 12.6359792673,
			"-0.001": 16.634292034,
			"0.0": 18.9997308084,
			"0.001": 23.3436154957,
			"0.002": 24.9032003928,
			"0.003": 17.5049481073,
			"0.004": 18.5032439502,
			"0.005": 9.47843022979,
			"0.006": 5.42416399781,
			"0.007": 4.19147253734,
			"0.008": 4.98572211821,
			"0.009": 7.01201339918,
			"0.01": 5.9333275343,
			"0.011": 6.9426210412,
			"0.012": 3.43277760914,
			"0.013": 3.62733148338,
			"0.014": 2.31422817967,
			"0.015": 2.21635927005,
			"0.016": 1.20922334719,
			"0.017": 0.000280841680049,
			"0.018": 0.0,
			"0.019": 0.0,
			"0.02": 0.0,
			"0.021": 0.0,
			"0.022": 0.0,
			"0.023": 0.0,
			"0.024": 0.0,
			"0.025": 0.0
		}
	}
}
