{
	 "smiles": "CN1CCOC2=C1N=CC(=C2)C(O)=O", 
	 "Tm": 529.15, 
	 "num_atms": 24, 
	 "gaussian": { 
		 "optdone": 1, 
		 "sigma_profile": "yes", 
		 "theory": "DFT", 
		 "functional": "B3LYP", 
		 "basiset": "6-31G**", 
		 "properties": { 
			 "R2extent": 3819.9157, 
			 "electric_dipole_moment_norm": 7.05429982706, 
			 "electric_quadrupole_moment_norm": 22.6244427052, 
			 "total_energy": -684.15829106, 
			 "HOMO_LUMO_gap": 0.17164, 
			 "cosmo_polarized_energy": -17.61, 
			 "cosmo_cavitation_energy": 27.41, 
			 "cosmo_dispersion_energy": -20.77, 
			 "cosmo_repulsion_energy": 1.62, 
			 "cosmo_total_nonelectrostatic_energy": 8.26, 
			 "SMD_solvation_energy": 4.43 
		},
		"coords": [
			{
				"x": 1.9938768698,
				"y": -1.6119636105,
				"z": 0.6288798,
				"element": "C" 
			},
			{
				"x": 1.2935389855,
				"y": -0.4638436199,
				"z": 0.0761260843,
				"element": "N" 
			},
			{
				"x": 1.6435694651,
				"y": 0.8566130142,
				"z": 0.5744606133,
				"element": "C" 
			},
			{
				"x": 1.1559728473,
				"y": 1.9137735947,
				"z": -0.4082675864,
				"element": "C" 
			},
			{
				"x": -0.254569167,
				"y": 1.8126243463,
				"z": -0.6045114308,
				"element": "O" 
			},
			{
				"x": -0.7005884601,
				"y": 0.5444816763,
				"z": -0.8701139161,
				"element": "C" 
			},
			{
				"x": 0.0608072778,
				"y": -0.612706575,
				"z": -0.5211047895,
				"element": "C" 
			},
			{
				"x": -0.3872059107,
				"y": -1.8473217726,
				"z": -0.7791841948,
				"element": "N" 
			},
			{
				"x": -1.5813367206,
				"y": -1.9904448547,
				"z": -1.3611321413,
				"element": "C" 
			},
			{
				"x": -2.4133756406,
				"y": -0.9255833826,
				"z": -1.7087612189,
				"element": "C" 
			},
			{
				"x": -1.9296607756,
				"y": 0.3753659346,
				"z": -1.4678601681,
				"element": "C" 
			},
			{
				"x": -3.742305308,
				"y": -1.0757391364,
				"z": -2.3635770218,
				"element": "C" 
			},
			{
				"x": -4.3202340456,
				"y": -2.3092343088,
				"z": -2.3126414381,
				"element": "O" 
			},
			{
				"x": -4.3137863612,
				"y": -0.1695326416,
				"z": -2.9262585786,
				"element": "O" 
			},
			{
				"x": 3.0711773382,
				"y": -1.4208489225,
				"z": 0.6009486704,
				"element": "H" 
			},
			{
				"x": 1.7013373487,
				"y": -1.8134932066,
				"z": 1.6702443546,
				"element": "H" 
			},
			{
				"x": 1.7625856004,
				"y": -2.4925877633,
				"z": 0.0320417886,
				"element": "H" 
			},
			{
				"x": 1.2111579353,
				"y": 1.0454723812,
				"z": 1.5701982889,
				"element": "H" 
			},
			{
				"x": 2.7334715432,
				"y": 0.920870164,
				"z": 0.6694186162,
				"element": "H" 
			},
			{
				"x": 1.6743150237,
				"y": 1.800778733,
				"z": -1.3696405373,
				"element": "H" 
			},
			{
				"x": 1.3364255379,
				"y": 2.9198713357,
				"z": -0.0240603178,
				"element": "H" 
			},
			{
				"x": -1.8620813532,
				"y": -3.0219761197,
				"z": -1.5753150259,
				"element": "H" 
			},
			{
				"x": -2.525982568,
				"y": 1.2362652509,
				"z": -1.7485085138,
				"element": "H" 
			},
			{
				"x": -3.838909462,
				"y": -2.8793405166,
				"z": -1.697581337,
				"element": "H" 
			}
		],
		 "valence_orbital": [ 
			{
				"type": "occ",
				"energy": -0.30152,
				"method": "rhf"
			},
			{
				"type": "occ",
				"energy": -0.2785,
				"method": "rhf"
			},
			{
				"type": "occ",
				"energy": -0.26609,
				"method": "rhf"
			},
			{
				"type": "occ",
				"energy": -0.25619,
				"method": "rhf"
			},
			{
				"type": "occ",
				"energy": -0.20992,
				"method": "rhf"
			},
			{
				"type": "unocc",
				"energy": -0.03828,
				"method": "rhf"
			},
			{
				"type": "unocc",
				"energy": -0.02233,
				"method": "rhf"
			},
			{
				"type": "unocc",
				"energy": 0.05655,
				"method": "rhf"
			},
			{
				"type": "unocc",
				"energy": 0.07009,
				"method": "rhf"
			},
			{
				"type": "unocc",
				"energy": 0.07537,
				"method": "rhf"
			}
		],
		"cosmo_sigma_profile": { 
			"-0.025": 0.0,
			"-0.024": 0.0,
			"-0.023": 0.0,
			"-0.022": 0.0,
			"-0.021": 0.0,
			"-0.02": 0.0,
			"-0.019": 0.080053671586,
			"-0.018": 0.834307813838,
			"-0.017": 1.08840565683,
			"-0.016": 1.01061231666,
			"-0.015": 0.600327315493,
			"-0.014": 0.645890548027,
			"-0.013": 1.00760283604,
			"-0.012": 2.00361503748,
			"-0.011": 1.14924235639,
			"-0.01": 0.82417344081,
			"-0.009": 0.68549611494,
			"-0.008": 1.58576642081,
			"-0.007": 5.96666200047,
			"-0.006": 14.1713759666,
			"-0.005": 17.7781868115,
			"-0.004": 18.4942396186,
			"-0.003": 18.0017008088,
			"-0.002": 15.7017168162,
			"-0.001": 13.5601542923,
			"0.0": 10.6298742947,
			"0.001": 13.2102283298,
			"0.002": 14.6366066443,
			"0.003": 8.62457632655,
			"0.004": 6.4809039207,
			"0.005": 5.88271693278,
			"0.006": 5.09540959109,
			"0.007": 5.30816423177,
			"0.008": 4.9563891414,
			"0.009": 5.8177004957,
			"0.01": 6.05711214724,
			"0.011": 6.53327450311,
			"0.012": 6.24582241482,
			"0.013": 2.72091533652,
			"0.014": 0.410727830113,
			"0.015": 0.0,
			"0.016": 0.0,
			"0.017": 0.0,
			"0.018": 0.0,
			"0.019": 0.0,
			"0.02": 0.0,
			"0.021": 0.0,
			"0.022": 0.0,
			"0.023": 0.0,
			"0.024": 0.0,
			"0.025": 0.0
		}
	}
}
