{
	 "smiles": "ClCC1=NC(=NO1)C1=CN=CC=C1", 
	 "Tm": 361.15, 
	 "num_atms": 19, 
	 "gaussian": { 
		 "optdone": 1, 
		 "sigma_profile": "yes", 
		 "theory": "DFT", 
		 "functional": "B3LYP", 
		 "basiset": "6-31G**", 
		 "properties": { 
			 "R2extent": 3684.5796, 
			 "electric_dipole_moment_norm": 3.35788169089, 
			 "electric_quadrupole_moment_norm": 10.1865452333, 
			 "total_energy": -1008.0915373, 
			 "HOMO_LUMO_gap": 0.19322, 
			 "cosmo_polarized_energy": -10.9, 
			 "cosmo_cavitation_energy": 26.5, 
			 "cosmo_dispersion_energy": -19.79, 
			 "cosmo_repulsion_energy": 1.57, 
			 "cosmo_total_nonelectrostatic_energy": 8.28, 
			 "SMD_solvation_energy": 1.29 
		},
		"coords": [
			{
				"x": -3.1652788675,
				"y": 2.7528213692,
				"z": 1.1191781614,
				"element": "Cl" 
			},
			{
				"x": -3.0717852706,
				"y": 0.9954157708,
				"z": 0.6731118384,
				"element": "C" 
			},
			{
				"x": -1.7191182349,
				"y": 0.6272448161,
				"z": 0.1788244919,
				"element": "C" 
			},
			{
				"x": -0.7645813575,
				"y": 0.0359382785,
				"z": 0.8313841579,
				"element": "N" 
			},
			{
				"x": 0.237179122,
				"y": -0.0421779676,
				"z": -0.1188283961,
				"element": "C" 
			},
			{
				"x": -0.088887731,
				"y": 0.4715314992,
				"z": -1.2863765318,
				"element": "N" 
			},
			{
				"x": -1.3999071561,
				"y": 0.9191474856,
				"z": -1.0921957871,
				"element": "O" 
			},
			{
				"x": 1.5452559424,
				"y": -0.6473450325,
				"z": 0.1537166311,
				"element": "C" 
			},
			{
				"x": 2.5340109741,
				"y": -0.7282878231,
				"z": -0.8410406837,
				"element": "C" 
			},
			{
				"x": 3.7375569459,
				"y": -1.2687985003,
				"z": -0.6422012926,
				"element": "N" 
			},
			{
				"x": 4.0025878497,
				"y": -1.7562507527,
				"z": 0.5782997175,
				"element": "C" 
			},
			{
				"x": 3.0931506363,
				"y": -1.7265483826,
				"z": 1.6367803169,
				"element": "C" 
			},
			{
				"x": 1.8397174602,
				"y": -1.1614797825,
				"z": 1.4219785087,
				"element": "C" 
			},
			{
				"x": -3.2958366949,
				"y": 0.4194798466,
				"z": 1.5688837067,
				"element": "H" 
			},
			{
				"x": -3.8273223014,
				"y": 0.8241968396,
				"z": -0.0934595646,
				"element": "H" 
			},
			{
				"x": 2.3328492923,
				"y": -0.3368740178,
				"z": -1.8355654044,
				"element": "H" 
			},
			{
				"x": 4.9910144733,
				"y": -2.1912684598,
				"z": 0.7143832978,
				"element": "H" 
			},
			{
				"x": 3.3632980719,
				"y": -2.1363044236,
				"z": 2.6047140883,
				"element": "H" 
			},
			{
				"x": 1.0947968459,
				"y": -1.1111407632,
				"z": 2.2090127436,
				"element": "H" 
			}
		],
		 "valence_orbital": [ 
			{
				"type": "occ",
				"energy": -0.31547,
				"method": "rhf"
			},
			{
				"type": "occ",
				"energy": -0.31421,
				"method": "rhf"
			},
			{
				"type": "occ",
				"energy": -0.29369,
				"method": "rhf"
			},
			{
				"type": "occ",
				"energy": -0.26336,
				"method": "rhf"
			},
			{
				"type": "occ",
				"energy": -0.26201,
				"method": "rhf"
			},
			{
				"type": "unocc",
				"energy": -0.06879,
				"method": "rhf"
			},
			{
				"type": "unocc",
				"energy": -0.04731,
				"method": "rhf"
			},
			{
				"type": "unocc",
				"energy": -0.02929,
				"method": "rhf"
			},
			{
				"type": "unocc",
				"energy": 0.02764,
				"method": "rhf"
			},
			{
				"type": "unocc",
				"energy": 0.05268,
				"method": "rhf"
			}
		],
		"cosmo_sigma_profile": { 
			"-0.025": 0.0,
			"-0.024": 0.0,
			"-0.023": 0.0,
			"-0.022": 0.0,
			"-0.021": 0.0,
			"-0.02": 0.0,
			"-0.019": 0.0,
			"-0.018": 0.0,
			"-0.017": 0.0,
			"-0.016": 0.0,
			"-0.015": 0.0,
			"-0.014": 0.0,
			"-0.013": 0.0,
			"-0.012": 0.0,
			"-0.011": 0.780809097183,
			"-0.01": 3.92513433763,
			"-0.009": 3.9850880302,
			"-0.008": 6.05054504513,
			"-0.007": 10.4915466538,
			"-0.006": 11.8662635997,
			"-0.005": 9.88454313306,
			"-0.004": 8.9199058445,
			"-0.003": 10.6012603289,
			"-0.002": 13.6493103435,
			"-0.001": 17.9996533812,
			"0.0": 21.0812024136,
			"0.001": 19.6441294005,
			"0.002": 13.4141287229,
			"0.003": 10.9998944278,
			"0.004": 11.6501863071,
			"0.005": 15.7580770899,
			"0.006": 5.72990259701,
			"0.007": 4.4127984049,
			"0.008": 2.73350871264,
			"0.009": 3.49314313352,
			"0.01": 2.83301701427,
			"0.011": 2.08191787702,
			"0.012": 1.13992328075,
			"0.013": 0.894829148672,
			"0.014": 0.886442808779,
			"0.015": 0.875089018372,
			"0.016": 0.553347962532,
			"0.017": 0.048185059853,
			"0.018": 0.0,
			"0.019": 0.0,
			"0.02": 0.0,
			"0.021": 0.0,
			"0.022": 0.0,
			"0.023": 0.0,
			"0.024": 0.0,
			"0.025": 0.0
		}
	}
}
