{
	 "smiles": "NC1=C(C=C(Cl)C=C1)C(O)=O", 
	 "Tm": 484.15, 
	 "num_atms": 17, 
	 "gaussian": { 
		 "optdone": 1, 
		 "sigma_profile": "yes", 
		 "theory": "DFT", 
		 "functional": "B3LYP", 
		 "basiset": "6-31G**", 
		 "properties": { 
			 "R2extent": 2419.1638, 
			 "electric_dipole_moment_norm": 2.82220840655, 
			 "electric_quadrupole_moment_norm": 14.6615167384, 
			 "total_energy": -935.770691943, 
			 "HOMO_LUMO_gap": 0.15958, 
			 "cosmo_polarized_energy": -14.11, 
			 "cosmo_cavitation_energy": 23.03, 
			 "cosmo_dispersion_energy": -17.66, 
			 "cosmo_repulsion_energy": 1.42, 
			 "cosmo_total_nonelectrostatic_energy": 6.78, 
			 "SMD_solvation_energy": 4.61 
		},
		"coords": [
			{
				"x": -1.9605175575,
				"y": 1.7420518891,
				"z": 0.177421428,
				"element": "N" 
			},
			{
				"x": -0.8740467181,
				"y": 0.9235753363,
				"z": 0.0861363322,
				"element": "C" 
			},
			{
				"x": -0.0064068745,
				"y": 0.944961458,
				"z": -1.0466614656,
				"element": "C" 
			},
			{
				"x": 1.1080073841,
				"y": 0.0846813395,
				"z": -1.076945518,
				"element": "C" 
			},
			{
				"x": 1.353421242,
				"y": -0.8085194462,
				"z": -0.048767661,
				"element": "C" 
			},
			{
				"x": 2.7595860585,
				"y": -1.8614744389,
				"z": -0.1111569005,
				"element": "Cl" 
			},
			{
				"x": 0.4864915084,
				"y": -0.8652922549,
				"z": 1.0499372937,
				"element": "C" 
			},
			{
				"x": -0.6017300931,
				"y": -0.0140201069,
				"z": 1.1111122198,
				"element": "C" 
			},
			{
				"x": -0.2641853535,
				"y": 1.8972717485,
				"z": -2.1570627351,
				"element": "C" 
			},
			{
				"x": 0.3602041488,
				"y": 1.6678855141,
				"z": -3.3401755049,
				"element": "O" 
			},
			{
				"x": -0.9988738741,
				"y": 2.8666096183,
				"z": -2.0704308507,
				"element": "O" 
			},
			{
				"x": -2.0000638624,
				"y": 2.5232508688,
				"z": -0.466448413,
				"element": "H" 
			},
			{
				"x": -2.443274033,
				"y": 1.806414955,
				"z": 1.0586655121,
				"element": "H" 
			},
			{
				"x": 1.82356386,
				"y": 0.1401429336,
				"z": -1.8915323576,
				"element": "H" 
			},
			{
				"x": 0.6770004769,
				"y": -1.5682458541,
				"z": 1.853776789,
				"element": "H" 
			},
			{
				"x": -1.2663482131,
				"y": -0.0557355222,
				"z": 1.9697291997,
				"element": "H" 
			},
			{
				"x": 0.7474719007,
				"y": 0.7822419619,
				"z": -3.3516973682,
				"element": "H" 
			}
		],
		 "valence_orbital": [ 
			{
				"type": "occ",
				"energy": -0.32003,
				"method": "rhf"
			},
			{
				"type": "occ",
				"energy": -0.30636,
				"method": "rhf"
			},
			{
				"type": "occ",
				"energy": -0.28448,
				"method": "rhf"
			},
			{
				"type": "occ",
				"energy": -0.27651,
				"method": "rhf"
			},
			{
				"type": "occ",
				"energy": -0.21619,
				"method": "rhf"
			},
			{
				"type": "unocc",
				"energy": -0.05661,
				"method": "rhf"
			},
			{
				"type": "unocc",
				"energy": -0.01079,
				"method": "rhf"
			},
			{
				"type": "unocc",
				"energy": 0.02126,
				"method": "rhf"
			},
			{
				"type": "unocc",
				"energy": 0.04101,
				"method": "rhf"
			},
			{
				"type": "unocc",
				"energy": 0.06799,
				"method": "rhf"
			}
		],
		"cosmo_sigma_profile": { 
			"-0.025": 0.0,
			"-0.024": 0.0,
			"-0.023": 0.0,
			"-0.022": 0.0,
			"-0.021": 0.0,
			"-0.02": 0.0,
			"-0.019": 0.323386137526,
			"-0.018": 1.38767670963,
			"-0.017": 0.610941761186,
			"-0.016": 0.801223307204,
			"-0.015": 1.37937987805,
			"-0.014": 1.21708710412,
			"-0.013": 2.4502429818,
			"-0.012": 3.06351418011,
			"-0.011": 2.25175918853,
			"-0.01": 2.42473955031,
			"-0.009": 3.44360791219,
			"-0.008": 5.47777942842,
			"-0.007": 6.1287920646,
			"-0.006": 5.95948139459,
			"-0.005": 5.55204328266,
			"-0.004": 6.60907366854,
			"-0.003": 6.95282469588,
			"-0.002": 7.93648824865,
			"-0.001": 8.5435973928,
			"0.0": 10.4914084726,
			"0.001": 14.6321980357,
			"0.002": 22.0425421608,
			"0.003": 17.6637092154,
			"0.004": 12.4171861789,
			"0.005": 10.9941568401,
			"0.006": 3.58413353412,
			"0.007": 2.96853705284,
			"0.008": 3.00720076249,
			"0.009": 4.18041149946,
			"0.01": 3.85109703581,
			"0.011": 4.11403372399,
			"0.012": 2.57480572128,
			"0.013": 1.59463516268,
			"0.014": 0.0901800600723,
			"0.015": 0.0,
			"0.016": 0.0,
			"0.017": 0.0,
			"0.018": 0.0,
			"0.019": 0.0,
			"0.02": 0.0,
			"0.021": 0.0,
			"0.022": 0.0,
			"0.023": 0.0,
			"0.024": 0.0,
			"0.025": 0.0
		}
	}
}
