{
	 "smiles": "FC(F)(F)C1=CC(Cl)=C(Cl)C=C1", 
	 "Tm": 260.95, 
	 "num_atms": 15, 
	 "gaussian": { 
		 "optdone": 1, 
		 "sigma_profile": "yes", 
		 "theory": "DFT", 
		 "functional": "B3LYP", 
		 "basiset": "6-31G**", 
		 "properties": { 
			 "R2extent": 3728.5137, 
			 "electric_dipole_moment_norm": 1.27733469772, 
			 "electric_quadrupole_moment_norm": 6.34796133652, 
			 "total_energy": -1488.46106677, 
			 "HOMO_LUMO_gap": 0.21714, 
			 "cosmo_polarized_energy": -4.04, 
			 "cosmo_cavitation_energy": 24.64, 
			 "cosmo_dispersion_energy": -17.94, 
			 "cosmo_repulsion_energy": 1.37, 
			 "cosmo_total_nonelectrostatic_energy": 8.07, 
			 "SMD_solvation_energy": 4.89 
		},
		"coords": [
			{
				"x": 0.2272573465,
				"y": -3.2369209647,
				"z": -0.3892606496,
				"element": "F" 
			},
			{
				"x": -0.5733921698,
				"y": -2.2522388031,
				"z": 0.0765594379,
				"element": "C" 
			},
			{
				"x": -1.5069235422,
				"y": -2.0226859869,
				"z": -0.8719621975,
				"element": "F" 
			},
			{
				"x": -1.2045743686,
				"y": -2.7358182181,
				"z": 1.1670207887,
				"element": "F" 
			},
			{
				"x": 0.2126542282,
				"y": -1.0057710549,
				"z": 0.3894233098,
				"element": "C" 
			},
			{
				"x": 0.6803373197,
				"y": -0.7876352118,
				"z": 1.6838329653,
				"element": "C" 
			},
			{
				"x": 1.4527149854,
				"y": 0.3396172639,
				"z": 1.9671643659,
				"element": "C" 
			},
			{
				"x": 2.0141581966,
				"y": 0.5800170653,
				"z": 3.6002853649,
				"element": "Cl" 
			},
			{
				"x": 1.7572232146,
				"y": 1.2504989799,
				"z": 0.94524751,
				"element": "C" 
			},
			{
				"x": 2.716641891,
				"y": 2.6727814006,
				"z": 1.2511326464,
				"element": "Cl" 
			},
			{
				"x": 1.2826244883,
				"y": 1.0243940422,
				"z": -0.3500358636,
				"element": "C" 
			},
			{
				"x": 0.5129487858,
				"y": -0.0991309396,
				"z": -0.6301267603,
				"element": "C" 
			},
			{
				"x": 0.442621754,
				"y": -1.4835119424,
				"z": 2.4791576055,
				"element": "H" 
			},
			{
				"x": 1.5212165316,
				"y": 1.7390248649,
				"z": -1.1294788505,
				"element": "H" 
			},
			{
				"x": 0.1402913391,
				"y": -0.2655204953,
				"z": -1.634559673,
				"element": "H" 
			}
		],
		 "valence_orbital": [ 
			{
				"type": "occ",
				"energy": -0.35353,
				"method": "rhf"
			},
			{
				"type": "occ",
				"energy": -0.3405,
				"method": "rhf"
			},
			{
				"type": "occ",
				"energy": -0.32107,
				"method": "rhf"
			},
			{
				"type": "occ",
				"energy": -0.2808,
				"method": "rhf"
			},
			{
				"type": "occ",
				"energy": -0.26693,
				"method": "rhf"
			},
			{
				"type": "unocc",
				"energy": -0.04979,
				"method": "rhf"
			},
			{
				"type": "unocc",
				"energy": -0.04065,
				"method": "rhf"
			},
			{
				"type": "unocc",
				"energy": -0.00894,
				"method": "rhf"
			},
			{
				"type": "unocc",
				"energy": 0.04976,
				"method": "rhf"
			},
			{
				"type": "unocc",
				"energy": 0.09877,
				"method": "rhf"
			}
		],
		"cosmo_sigma_profile": { 
			"-0.025": 0.0,
			"-0.024": 0.0,
			"-0.023": 0.0,
			"-0.022": 0.0,
			"-0.021": 0.0,
			"-0.02": 0.0,
			"-0.019": 0.0,
			"-0.018": 0.0,
			"-0.017": 0.0,
			"-0.016": 0.0,
			"-0.015": 0.0,
			"-0.014": 0.0,
			"-0.013": 0.0,
			"-0.012": 0.0,
			"-0.011": 0.0,
			"-0.01": 0.0,
			"-0.009": 1.17211745523,
			"-0.008": 5.30843891196,
			"-0.007": 5.54731171929,
			"-0.006": 5.3610839897,
			"-0.005": 5.16037950233,
			"-0.004": 6.16425658164,
			"-0.003": 9.64879082767,
			"-0.002": 11.8732014719,
			"-0.001": 21.470001502,
			"0.0": 28.8109709307,
			"0.001": 22.1769748469,
			"0.002": 32.5881245766,
			"0.003": 34.6461204386,
			"0.004": 11.0075680249,
			"0.005": 2.34203601199,
			"0.006": 0.00378495171648,
			"0.007": 0.0,
			"0.008": 0.0,
			"0.009": 0.0,
			"0.01": 0.0,
			"0.011": 0.0,
			"0.012": 0.0,
			"0.013": 0.0,
			"0.014": 0.0,
			"0.015": 0.0,
			"0.016": 0.0,
			"0.017": 0.0,
			"0.018": 0.0,
			"0.019": 0.0,
			"0.02": 0.0,
			"0.021": 0.0,
			"0.022": 0.0,
			"0.023": 0.0,
			"0.024": 0.0,
			"0.025": 0.0
		}
	}
}
