{
	 "smiles": "CC(C)C1=NC(C(O)=O)=C(Cl)C=N1", 
	 "Tm": 403.15, 
	 "num_atms": 22, 
	 "gaussian": { 
		 "optdone": 1, 
		 "sigma_profile": "yes", 
		 "theory": "DFT", 
		 "functional": "B3LYP", 
		 "basiset": "6-31G**", 
		 "properties": { 
			 "R2extent": 3613.1681, 
			 "electric_dipole_moment_norm": 4.67908983564, 
			 "electric_quadrupole_moment_norm": 18.5583715431, 
			 "total_energy": -1030.4330852, 
			 "HOMO_LUMO_gap": 0.17537, 
			 "cosmo_polarized_energy": -11.15, 
			 "cosmo_cavitation_energy": 28.06, 
			 "cosmo_dispersion_energy": -20.43, 
			 "cosmo_repulsion_energy": 1.65, 
			 "cosmo_total_nonelectrostatic_energy": 9.28, 
			 "SMD_solvation_energy": 4.3 
		},
		"coords": [
			{
				"x": -2.0864084779,
				"y": 1.750561678,
				"z": -1.5726519715,
				"element": "C" 
			},
			{
				"x": -1.8539679173,
				"y": 0.6818278162,
				"z": -0.4883111003,
				"element": "C" 
			},
			{
				"x": -2.4090329245,
				"y": -0.6869133991,
				"z": -0.9247596913,
				"element": "C" 
			},
			{
				"x": -0.3815542037,
				"y": 0.5762050383,
				"z": -0.1525321641,
				"element": "C" 
			},
			{
				"x": 0.0106269485,
				"y": 0.8560901176,
				"z": 1.0936965703,
				"element": "N" 
			},
			{
				"x": 1.3144871604,
				"y": 0.7688459568,
				"z": 1.4150521772,
				"element": "C" 
			},
			{
				"x": 1.6195425814,
				"y": 1.1147616391,
				"z": 2.8651022231,
				"element": "C" 
			},
			{
				"x": 0.5204630969,
				"y": 1.4444921661,
				"z": 3.5568852113,
				"element": "O" 
			},
			{
				"x": 2.7262958514,
				"y": 1.0962793667,
				"z": 3.3457786623,
				"element": "O" 
			},
			{
				"x": 2.251365333,
				"y": 0.3881364995,
				"z": 0.4520189787,
				"element": "C" 
			},
			{
				"x": 3.9568681488,
				"y": 0.2341186428,
				"z": 0.7229196276,
				"element": "Cl" 
			},
			{
				"x": 1.7490668699,
				"y": 0.1134726078,
				"z": -0.8296430607,
				"element": "C" 
			},
			{
				"x": 0.4603000118,
				"y": 0.2032989764,
				"z": -1.1340331703,
				"element": "N" 
			},
			{
				"x": -1.5571028352,
				"y": 1.4844928787,
				"z": -2.4922365438,
				"element": "H" 
			},
			{
				"x": -1.7345377986,
				"y": 2.7348688045,
				"z": -1.2475102205,
				"element": "H" 
			},
			{
				"x": -3.15411061,
				"y": 1.830847545,
				"z": -1.7992270401,
				"element": "H" 
			},
			{
				"x": -2.3582066499,
				"y": 0.9933308085,
				"z": 0.4324860888,
				"element": "H" 
			},
			{
				"x": -3.4764878782,
				"y": -0.605108099,
				"z": -1.151971336,
				"element": "H" 
			},
			{
				"x": -1.8913050192,
				"y": -1.0420907116,
				"z": -1.8205242951,
				"element": "H" 
			},
			{
				"x": -2.2871350647,
				"y": -1.4383848494,
				"z": -0.138105709,
				"element": "H" 
			},
			{
				"x": -0.2326324105,
				"y": 1.3774484511,
				"z": 2.9309083333,
				"element": "H" 
			},
			{
				"x": 2.4326657874,
				"y": -0.187781934,
				"z": -1.6207415698,
				"element": "H" 
			}
		],
		 "valence_orbital": [ 
			{
				"type": "occ",
				"energy": -0.33256,
				"method": "rhf"
			},
			{
				"type": "occ",
				"energy": -0.31873,
				"method": "rhf"
			},
			{
				"type": "occ",
				"energy": -0.2989,
				"method": "rhf"
			},
			{
				"type": "occ",
				"energy": -0.28324,
				"method": "rhf"
			},
			{
				"type": "occ",
				"energy": -0.26761,
				"method": "rhf"
			},
			{
				"type": "unocc",
				"energy": -0.09224,
				"method": "rhf"
			},
			{
				"type": "unocc",
				"energy": -0.05932,
				"method": "rhf"
			},
			{
				"type": "unocc",
				"energy": 0.01441,
				"method": "rhf"
			},
			{
				"type": "unocc",
				"energy": 0.02908,
				"method": "rhf"
			},
			{
				"type": "unocc",
				"energy": 0.08545,
				"method": "rhf"
			}
		],
		"cosmo_sigma_profile": { 
			"-0.025": 0.0,
			"-0.024": 0.0,
			"-0.023": 0.0,
			"-0.022": 0.0,
			"-0.021": 0.0,
			"-0.02": 0.0,
			"-0.019": 0.0,
			"-0.018": 0.0,
			"-0.017": 0.0,
			"-0.016": 0.0,
			"-0.015": 0.0,
			"-0.014": 0.0,
			"-0.013": 0.145267196108,
			"-0.012": 0.570617870229,
			"-0.011": 0.59244281495,
			"-0.01": 1.21688412463,
			"-0.009": 2.72661683561,
			"-0.008": 1.91271674114,
			"-0.007": 3.43094855583,
			"-0.006": 7.08478275899,
			"-0.005": 8.9124703024,
			"-0.004": 20.3044253002,
			"-0.003": 26.3873705383,
			"-0.002": 24.0415613384,
			"-0.001": 22.1687350774,
			"0.0": 24.013751656,
			"0.001": 17.6821890168,
			"0.002": 11.087137058,
			"0.003": 10.1224735537,
			"0.004": 5.25741794702,
			"0.005": 4.76956411172,
			"0.006": 4.23832703815,
			"0.007": 3.62720728378,
			"0.008": 4.59459770736,
			"0.009": 6.22577972172,
			"0.01": 5.85759091126,
			"0.011": 5.78130666008,
			"0.012": 2.41871085416,
			"0.013": 0.155613139176,
			"0.014": 0.0,
			"0.015": 0.0,
			"0.016": 0.0,
			"0.017": 0.0,
			"0.018": 0.0,
			"0.019": 0.0,
			"0.02": 0.0,
			"0.021": 0.0,
			"0.022": 0.0,
			"0.023": 0.0,
			"0.024": 0.0,
			"0.025": 0.0
		}
	}
}
