{
	 "smiles": "NC1=CC=C(C=C1)S(=O)(=O)N1CCCCCC1", 
	 "Tm": 379.15, 
	 "num_atms": 35, 
	 "gaussian": { 
		 "optdone": 1, 
		 "sigma_profile": "yes", 
		 "theory": "DFT", 
		 "functional": "B3LYP", 
		 "basiset": "6-31G**", 
		 "properties": { 
			 "R2extent": 4953.9522, 
			 "electric_dipole_moment_norm": 7.41673004295, 
			 "electric_quadrupole_moment_norm": 19.6871667779, 
			 "total_energy": -1126.19854748, 
			 "HOMO_LUMO_gap": 0.19837, 
			 "cosmo_polarized_energy": -18.83, 
			 "cosmo_cavitation_energy": 36.13, 
			 "cosmo_dispersion_energy": -26.19, 
			 "cosmo_repulsion_energy": 1.99, 
			 "cosmo_total_nonelectrostatic_energy": 11.93, 
			 "SMD_solvation_energy": 3.81 
		},
		"coords": [
			{
				"x": -2.9238526628,
				"y": 0.2338298565,
				"z": 3.5912307496,
				"element": "N" 
			},
			{
				"x": -2.5021467598,
				"y": 0.2040366497,
				"z": 2.271540974,
				"element": "C" 
			},
			{
				"x": -2.8221613405,
				"y": 1.2549676743,
				"z": 1.390614214,
				"element": "C" 
			},
			{
				"x": -2.4452698009,
				"y": 1.1989026194,
				"z": 0.0538055914,
				"element": "C" 
			},
			{
				"x": -1.7339640457,
				"y": 0.094467526,
				"z": -0.4271808006,
				"element": "C" 
			},
			{
				"x": -1.4212949333,
				"y": -0.9638789099,
				"z": 0.4335485229,
				"element": "C" 
			},
			{
				"x": -1.799837583,
				"y": -0.9098324961,
				"z": 1.7681371917,
				"element": "C" 
			},
			{
				"x": -1.2080556975,
				"y": 0.0394969869,
				"z": -2.1373604445,
				"element": "S" 
			},
			{
				"x": -2.1000094334,
				"y": 0.9371028781,
				"z": -2.8790814385,
				"element": "O" 
			},
			{
				"x": -1.0525185483,
				"y": -1.3746250417,
				"z": -2.4970168395,
				"element": "O" 
			},
			{
				"x": 0.3160205555,
				"y": 0.7268965815,
				"z": -2.2193723537,
				"element": "N" 
			},
			{
				"x": 0.3817125719,
				"y": 2.2045362442,
				"z": -2.1447296752,
				"element": "C" 
			},
			{
				"x": 1.8202429345,
				"y": 2.7317260008,
				"z": -2.1201723877,
				"element": "C" 
			},
			{
				"x": 2.6098427655,
				"y": 2.4664763886,
				"z": -0.8087512209,
				"element": "C" 
			},
			{
				"x": 2.1249253834,
				"y": 1.2719586977,
				"z": 0.030781597,
				"element": "C" 
			},
			{
				"x": 2.1593454074,
				"y": -0.0961571746,
				"z": -0.6658881172,
				"element": "C" 
			},
			{
				"x": 1.5150755573,
				"y": -0.107288311,
				"z": -2.0668190935,
				"element": "C" 
			},
			{
				"x": -3.1481598443,
				"y": 1.1397383866,
				"z": 3.9755816125,
				"element": "H" 
			},
			{
				"x": -2.4334035823,
				"y": -0.3660043423,
				"z": 4.238035234,
				"element": "H" 
			},
			{
				"x": -3.3848872551,
				"y": 2.1091270303,
				"z": 1.7583441278,
				"element": "H" 
			},
			{
				"x": -2.7228817346,
				"y": 1.9945495025,
				"z": -0.6288223009,
				"element": "H" 
			},
			{
				"x": -0.9045591827,
				"y": -1.8351374455,
				"z": 0.0453100257,
				"element": "H" 
			},
			{
				"x": -1.5689445868,
				"y": -1.7403365985,
				"z": 2.4303059812,
				"element": "H" 
			},
			{
				"x": -0.1486659098,
				"y": 2.5629263047,
				"z": -1.2499518119,
				"element": "H" 
			},
			{
				"x": -0.143660227,
				"y": 2.614002098,
				"z": -3.0118877142,
				"element": "H" 
			},
			{
				"x": 2.3591537223,
				"y": 2.3339852962,
				"z": -2.9858500096,
				"element": "H" 
			},
			{
				"x": 1.7599705407,
				"y": 3.8127963545,
				"z": -2.2896067187,
				"element": "H" 
			},
			{
				"x": 3.6729461778,
				"y": 2.3429259718,
				"z": -1.0507447808,
				"element": "H" 
			},
			{
				"x": 2.5502418492,
				"y": 3.3588253102,
				"z": -0.1738015662,
				"element": "H" 
			},
			{
				"x": 1.0984481258,
				"y": 1.4660024925,
				"z": 0.3641427883,
				"element": "H" 
			},
			{
				"x": 2.7275290846,
				"y": 1.2195101626,
				"z": 0.9458931239,
				"element": "H" 
			},
			{
				"x": 1.6538404205,
				"y": -0.8243035277,
				"z": -0.0204930238,
				"element": "H" 
			},
			{
				"x": 3.195796886,
				"y": -0.4439662585,
				"z": -0.7724408056,
				"element": "H" 
			},
			{
				"x": 1.2345605774,
				"y": -1.1209873815,
				"z": -2.3552155377,
				"element": "H" 
			},
			{
				"x": 2.241820568,
				"y": 0.2288304739,
				"z": -2.8128850932,
				"element": "H" 
			}
		],
		 "valence_orbital": [ 
			{
				"type": "occ",
				"energy": -0.2854,
				"method": "rhf"
			},
			{
				"type": "occ",
				"energy": -0.28457,
				"method": "rhf"
			},
			{
				"type": "occ",
				"energy": -0.26313,
				"method": "rhf"
			},
			{
				"type": "occ",
				"energy": -0.24095,
				"method": "rhf"
			},
			{
				"type": "occ",
				"energy": -0.21347,
				"method": "rhf"
			},
			{
				"type": "unocc",
				"energy": -0.0151,
				"method": "rhf"
			},
			{
				"type": "unocc",
				"energy": -0.01312,
				"method": "rhf"
			},
			{
				"type": "unocc",
				"energy": 0.06255,
				"method": "rhf"
			},
			{
				"type": "unocc",
				"energy": 0.06916,
				"method": "rhf"
			},
			{
				"type": "unocc",
				"energy": 0.07987,
				"method": "rhf"
			}
		],
		"cosmo_sigma_profile": { 
			"-0.025": 0.0,
			"-0.024": 0.0,
			"-0.023": 0.0,
			"-0.022": 0.0,
			"-0.021": 0.0,
			"-0.02": 0.0,
			"-0.019": 0.0,
			"-0.018": 0.0,
			"-0.017": 0.0,
			"-0.016": 0.0,
			"-0.015": 0.0,
			"-0.014": 0.034241419516,
			"-0.013": 2.10455494503,
			"-0.012": 3.14640306889,
			"-0.011": 2.85171848466,
			"-0.01": 3.6954089057,
			"-0.009": 3.15193967771,
			"-0.008": 3.15154164978,
			"-0.007": 3.986595004,
			"-0.006": 7.45142055013,
			"-0.005": 10.5636319603,
			"-0.004": 16.6139882677,
			"-0.003": 29.3991888427,
			"-0.002": 36.116420454,
			"-0.001": 29.6476167383,
			"0.0": 24.4463407165,
			"0.001": 19.9523887483,
			"0.002": 9.0934662546,
			"0.003": 12.4089164158,
			"0.004": 16.8946232617,
			"0.005": 7.74118428286,
			"0.006": 5.01151312825,
			"0.007": 4.534181738,
			"0.008": 3.89324716095,
			"0.009": 3.68854189693,
			"0.01": 5.59864086063,
			"0.011": 8.14944954643,
			"0.012": 7.92193997356,
			"0.013": 1.61792462712,
			"0.014": 0.0,
			"0.015": 0.0,
			"0.016": 0.0,
			"0.017": 0.0,
			"0.018": 0.0,
			"0.019": 0.0,
			"0.02": 0.0,
			"0.021": 0.0,
			"0.022": 0.0,
			"0.023": 0.0,
			"0.024": 0.0,
			"0.025": 0.0
		}
	}
}
