{
	 "smiles": "O=C1C(=O)C(N2CCOCC2)=C1N1CCCC1", 
	 "Tm": 525.15, 
	 "num_atms": 33, 
	 "gaussian": { 
		 "optdone": 1, 
		 "sigma_profile": "yes", 
		 "theory": "DFT", 
		 "functional": "B3LYP", 
		 "basiset": "6-31G**", 
		 "properties": { 
			 "R2extent": 5100.4344, 
			 "electric_dipole_moment_norm": 7.62361689357, 
			 "electric_quadrupole_moment_norm": 25.4905610911, 
			 "total_energy": -802.028856296, 
			 "HOMO_LUMO_gap": 0.17013, 
			 "cosmo_polarized_energy": -21.33, 
			 "cosmo_cavitation_energy": 33.91, 
			 "cosmo_dispersion_energy": -25.07, 
			 "cosmo_repulsion_energy": 1.95, 
			 "cosmo_total_nonelectrostatic_energy": 10.79, 
			 "SMD_solvation_energy": 5.0 
		},
		"coords": [
			{
				"x": -2.4418809789,
				"y": -3.1169809566,
				"z": 0.9713304464,
				"element": "O" 
			},
			{
				"x": -1.3982394475,
				"y": -2.4922421951,
				"z": 1.0054719589,
				"element": "C" 
			},
			{
				"x": 0.0737117111,
				"y": -2.7809058751,
				"z": 1.2637745884,
				"element": "C" 
			},
			{
				"x": 0.7655623681,
				"y": -3.7523454295,
				"z": 1.5177689543,
				"element": "O" 
			},
			{
				"x": 0.3388100381,
				"y": -1.3268370856,
				"z": 1.0805897057,
				"element": "C" 
			},
			{
				"x": 1.515834859,
				"y": -0.6690960923,
				"z": 1.1641808099,
				"element": "N" 
			},
			{
				"x": 1.6868572071,
				"y": 0.7559901931,
				"z": 0.8875356101,
				"element": "C" 
			},
			{
				"x": 3.1774609603,
				"y": 1.1110010073,
				"z": 0.9245943332,
				"element": "C" 
			},
			{
				"x": 3.924767347,
				"y": 0.2195285484,
				"z": 0.1227734919,
				"element": "O" 
			},
			{
				"x": 3.8524485084,
				"y": -1.1448942337,
				"z": 0.5592728315,
				"element": "C" 
			},
			{
				"x": 2.7300101437,
				"y": -1.3903070162,
				"z": 1.5715959872,
				"element": "C" 
			},
			{
				"x": -1.0294751919,
				"y": -1.0577171454,
				"z": 0.8217329159,
				"element": "C" 
			},
			{
				"x": -1.8448887475,
				"y": -0.0270330135,
				"z": 0.5351003154,
				"element": "N" 
			},
			{
				"x": -1.4911700696,
				"y": 1.3947159688,
				"z": 0.4671574599,
				"element": "C" 
			},
			{
				"x": -2.819783138,
				"y": 2.1032713608,
				"z": 0.138420355,
				"element": "C" 
			},
			{
				"x": -3.8959992095,
				"y": 1.1211988445,
				"z": 0.6309784388,
				"element": "C" 
			},
			{
				"x": -3.2896822093,
				"y": -0.2397840182,
				"z": 0.2891037403,
				"element": "C" 
			},
			{
				"x": 1.139339423,
				"y": 1.3755551833,
				"z": 1.6144583131,
				"element": "H" 
			},
			{
				"x": 1.2962832985,
				"y": 0.9823444748,
				"z": -0.1122739591,
				"element": "H" 
			},
			{
				"x": 3.546490366,
				"y": 1.1365447919,
				"z": 1.9616246038,
				"element": "H" 
			},
			{
				"x": 3.322065396,
				"y": 2.1099438229,
				"z": 0.5040648817,
				"element": "H" 
			},
			{
				"x": 3.690011562,
				"y": -1.7521757242,
				"z": -0.3379259857,
				"element": "H" 
			},
			{
				"x": 4.8129182074,
				"y": -1.4429728805,
				"z": 1.0046285976,
				"element": "H" 
			},
			{
				"x": 3.0345676604,
				"y": -1.05746548,
				"z": 2.5729551864,
				"element": "H" 
			},
			{
				"x": 2.5018770043,
				"y": -2.4555503759,
				"z": 1.635637504,
				"element": "H" 
			},
			{
				"x": -0.731867761,
				"y": 1.5838035182,
				"z": -0.3006335905,
				"element": "H" 
			},
			{
				"x": -1.0818097676,
				"y": 1.7299013252,
				"z": 1.4304819064,
				"element": "H" 
			},
			{
				"x": -2.883282235,
				"y": 3.0889193408,
				"z": 0.6063148714,
				"element": "H" 
			},
			{
				"x": -2.9094630924,
				"y": 2.2438777751,
				"z": -0.9442674468,
				"element": "H" 
			},
			{
				"x": -4.8669760045,
				"y": 1.2782992343,
				"z": 0.1542337273,
				"element": "H" 
			},
			{
				"x": -4.0308474956,
				"y": 1.2113873914,
				"z": 1.7147129911,
				"element": "H" 
			},
			{
				"x": -3.4586727422,
				"y": -0.4891177322,
				"z": -0.7682586419,
				"element": "H" 
			},
			{
				"x": -3.6555779699,
				"y": -1.0738575266,
				"z": 0.8872650983,
				"element": "H" 
			}
		],
		 "valence_orbital": [ 
			{
				"type": "occ",
				"energy": -0.28104,
				"method": "rhf"
			},
			{
				"type": "occ",
				"energy": -0.27693,
				"method": "rhf"
			},
			{
				"type": "occ",
				"energy": -0.26295,
				"method": "rhf"
			},
			{
				"type": "occ",
				"energy": -0.2137,
				"method": "rhf"
			},
			{
				"type": "occ",
				"energy": -0.18992,
				"method": "rhf"
			},
			{
				"type": "unocc",
				"energy": -0.01979,
				"method": "rhf"
			},
			{
				"type": "unocc",
				"energy": -0.01427,
				"method": "rhf"
			},
			{
				"type": "unocc",
				"energy": 0.05901,
				"method": "rhf"
			},
			{
				"type": "unocc",
				"energy": 0.08017,
				"method": "rhf"
			},
			{
				"type": "unocc",
				"energy": 0.08451,
				"method": "rhf"
			}
		],
		"cosmo_sigma_profile": { 
			"-0.025": 0.0,
			"-0.024": 0.0,
			"-0.023": 0.0,
			"-0.022": 0.0,
			"-0.021": 0.0,
			"-0.02": 0.0,
			"-0.019": 0.0,
			"-0.018": 0.0,
			"-0.017": 0.0,
			"-0.016": 0.0,
			"-0.015": 0.0,
			"-0.014": 0.0,
			"-0.013": 0.0,
			"-0.012": 0.0,
			"-0.011": 0.0,
			"-0.01": 0.0,
			"-0.009": 0.0,
			"-0.008": 0.342246401129,
			"-0.007": 4.35482269075,
			"-0.006": 13.8117901624,
			"-0.005": 26.7449703373,
			"-0.004": 37.547335792,
			"-0.003": 35.5705610333,
			"-0.002": 28.6121637035,
			"-0.001": 26.9841236036,
			"0.0": 18.8924806619,
			"0.001": 6.95200618618,
			"0.002": 4.45069200432,
			"0.003": 4.1021020493,
			"0.004": 4.77764580633,
			"0.005": 3.97080654885,
			"0.006": 3.82080376475,
			"0.007": 4.10053520535,
			"0.008": 4.3963216978,
			"0.009": 4.30696046762,
			"0.01": 4.42143315777,
			"0.011": 5.95987605558,
			"0.012": 8.85120810322,
			"0.013": 9.73574327418,
			"0.014": 3.73109416852,
			"0.015": 0.244015720322,
			"0.016": 0.0,
			"0.017": 0.0,
			"0.018": 0.0,
			"0.019": 0.0,
			"0.02": 0.0,
			"0.021": 0.0,
			"0.022": 0.0,
			"0.023": 0.0,
			"0.024": 0.0,
			"0.025": 0.0
		}
	}
}
