{
	 "smiles": "COC1=CC=C(C=CC(=O)C2=CC=C(F)C=C2)C=C1OC", 
	 "Tm": 363.65, 
	 "num_atms": 36, 
	 "gaussian": { 
		 "optdone": 1, 
		 "sigma_profile": "yes", 
		 "theory": "DFT", 
		 "functional": "B3LYP", 
		 "basiset": "6-31G**", 
		 "properties": { 
			 "R2extent": 6434.527, 
			 "electric_dipole_moment_norm": 1.84729501163, 
			 "electric_quadrupole_moment_norm": 16.7665188742, 
			 "total_energy": -982.303846536, 
			 "HOMO_LUMO_gap": 0.14655, 
			 "cosmo_polarized_energy": -12.4, 
			 "cosmo_cavitation_energy": 40.93, 
			 "cosmo_dispersion_energy": -26.67, 
			 "cosmo_repulsion_energy": 2.05, 
			 "cosmo_total_nonelectrostatic_energy": 16.31, 
			 "SMD_solvation_energy": 9.47 
		},
		"coords": [
			{
				"x": -0.5190923488,
				"y": -4.1962385605,
				"z": -0.2861673619,
				"element": "C" 
			},
			{
				"x": -0.9972879177,
				"y": -3.8501193076,
				"z": 1.0176669908,
				"element": "O" 
			},
			{
				"x": -0.9249216938,
				"y": -2.5293995101,
				"z": 1.370765948,
				"element": "C" 
			},
			{
				"x": -0.1615018552,
				"y": -2.1814042119,
				"z": 2.4827788481,
				"element": "C" 
			},
			{
				"x": -0.1092980087,
				"y": -0.8641294037,
				"z": 2.9347435407,
				"element": "C" 
			},
			{
				"x": -0.8035078532,
				"y": 0.1476225917,
				"z": 2.2558982549,
				"element": "C" 
			},
			{
				"x": -0.7080010209,
				"y": 1.5297480717,
				"z": 2.7451827026,
				"element": "C" 
			},
			{
				"x": -0.8767135588,
				"y": 2.6908409357,
				"z": 2.0823042962,
				"element": "C" 
			},
			{
				"x": -1.1926699935,
				"y": 2.9285285185,
				"z": 0.6373679574,
				"element": "C" 
			},
			{
				"x": -2.1904952481,
				"y": 3.583355475,
				"z": 0.3507438582,
				"element": "O" 
			},
			{
				"x": -0.261645188,
				"y": 2.4564048513,
				"z": -0.4364705823,
				"element": "C" 
			},
			{
				"x": -0.662377657,
				"y": 2.6229731376,
				"z": -1.7733202217,
				"element": "C" 
			},
			{
				"x": 0.1648647579,
				"y": 2.2318958674,
				"z": -2.8197107684,
				"element": "C" 
			},
			{
				"x": 1.4080837765,
				"y": 1.6820315919,
				"z": -2.5131423963,
				"element": "C" 
			},
			{
				"x": 2.2169065632,
				"y": 1.3033162997,
				"z": -3.5206596681,
				"element": "F" 
			},
			{
				"x": 1.8429770351,
				"y": 1.5151094963,
				"z": -1.2024101026,
				"element": "C" 
			},
			{
				"x": 0.9996828349,
				"y": 1.9052008186,
				"z": -0.1645545733,
				"element": "C" 
			},
			{
				"x": -1.6009375367,
				"y": -0.2071821618,
				"z": 1.1491315181,
				"element": "C" 
			},
			{
				"x": -1.6707791542,
				"y": -1.5261325397,
				"z": 0.7039775329,
				"element": "C" 
			},
			{
				"x": -2.4461006224,
				"y": -1.9467311831,
				"z": -0.3370699663,
				"element": "O" 
			},
			{
				"x": -3.219730719,
				"y": -0.9782084178,
				"z": -1.033054809,
				"element": "C" 
			},
			{
				"x": -0.5940643767,
				"y": -5.283339265,
				"z": -0.3536089865,
				"element": "H" 
			},
			{
				"x": 0.5307713483,
				"y": -3.8994366025,
				"z": -0.4066318918,
				"element": "H" 
			},
			{
				"x": -1.1223043245,
				"y": -3.7360186561,
				"z": -1.0726038896,
				"element": "H" 
			},
			{
				"x": 0.3802235818,
				"y": -2.9730726717,
				"z": 2.9902101489,
				"element": "H" 
			},
			{
				"x": 0.4908415444,
				"y": -0.6152297731,
				"z": 3.805310504,
				"element": "H" 
			},
			{
				"x": -0.4898921182,
				"y": 1.6113482153,
				"z": 3.8100049706,
				"element": "H" 
			},
			{
				"x": -0.8817032012,
				"y": 3.6104047285,
				"z": 2.6645120207,
				"element": "H" 
			},
			{
				"x": -1.6316832952,
				"y": 3.0707621401,
				"z": -1.9656144942,
				"element": "H" 
			},
			{
				"x": -0.1269505774,
				"y": 2.3492338807,
				"z": -3.8578064377,
				"element": "H" 
			},
			{
				"x": 2.8225879923,
				"y": 1.0899595747,
				"z": -1.0135395177,
				"element": "H" 
			},
			{
				"x": 1.3235105963,
				"y": 1.7857723321,
				"z": 0.8629780957,
				"element": "H" 
			},
			{
				"x": -2.2014674221,
				"y": 0.5533504392,
				"z": 0.6681274228,
				"element": "H" 
			},
			{
				"x": -2.586810675,
				"y": -0.2024616677,
				"z": -1.4816326268,
				"element": "H" 
			},
			{
				"x": -3.7401673124,
				"y": -1.5228704425,
				"z": -1.8220372387,
				"element": "H" 
			},
			{
				"x": -3.9579463523,
				"y": -0.5043845914,
				"z": -0.3743690777,
				"element": "H" 
			}
		],
		 "valence_orbital": [ 
			{
				"type": "occ",
				"energy": -0.27106,
				"method": "rhf"
			},
			{
				"type": "occ",
				"energy": -0.25825,
				"method": "rhf"
			},
			{
				"type": "occ",
				"energy": -0.25034,
				"method": "rhf"
			},
			{
				"type": "occ",
				"energy": -0.23776,
				"method": "rhf"
			},
			{
				"type": "occ",
				"energy": -0.21285,
				"method": "rhf"
			},
			{
				"type": "unocc",
				"energy": -0.0663,
				"method": "rhf"
			},
			{
				"type": "unocc",
				"energy": -0.03332,
				"method": "rhf"
			},
			{
				"type": "unocc",
				"energy": -0.01925,
				"method": "rhf"
			},
			{
				"type": "unocc",
				"energy": 0.00455,
				"method": "rhf"
			},
			{
				"type": "unocc",
				"energy": 0.03191,
				"method": "rhf"
			}
		],
		"cosmo_sigma_profile": { 
			"-0.025": 0.0,
			"-0.024": 0.0,
			"-0.023": 0.0,
			"-0.022": 0.0,
			"-0.021": 0.0,
			"-0.02": 0.0,
			"-0.019": 0.0,
			"-0.018": 0.0,
			"-0.017": 0.0,
			"-0.016": 0.0,
			"-0.015": 0.0,
			"-0.014": 0.0,
			"-0.013": 0.0,
			"-0.012": 0.0,
			"-0.011": 0.0,
			"-0.01": 0.0,
			"-0.009": 0.0,
			"-0.008": 1.56009604281,
			"-0.007": 6.25448340212,
			"-0.006": 20.0883623775,
			"-0.005": 25.3763440484,
			"-0.004": 27.2137461691,
			"-0.003": 30.8434216763,
			"-0.002": 29.7578759515,
			"-0.001": 20.8741279038,
			"0.0": 24.0477743228,
			"0.001": 24.221219035,
			"0.002": 27.9357686959,
			"0.003": 26.236868263,
			"0.004": 23.9122070145,
			"0.005": 8.18629036372,
			"0.006": 4.02145012236,
			"0.007": 3.30089394244,
			"0.008": 3.55158332554,
			"0.009": 4.09926353783,
			"0.01": 4.51141491015,
			"0.011": 4.57104123661,
			"0.012": 4.74268937868,
			"0.013": 1.66717898534,
			"0.014": 0.207334327567,
			"0.015": 0.0,
			"0.016": 0.0,
			"0.017": 0.0,
			"0.018": 0.0,
			"0.019": 0.0,
			"0.02": 0.0,
			"0.021": 0.0,
			"0.022": 0.0,
			"0.023": 0.0,
			"0.024": 0.0,
			"0.025": 0.0
		}
	}
}
