{
	 "smiles": "OC(=O)CC1=CC(Br)=CC=C1", 
	 "Tm": 374.15, 
	 "num_atms": 18, 
	 "gaussian": { 
		 "optdone": 1, 
		 "sigma_profile": "yes", 
		 "theory": "DFT", 
		 "functional": "B3LYP", 
		 "basiset": "6-31G**", 
		 "properties": { 
			 "R2extent": 5415.8637, 
			 "electric_dipole_moment_norm": 1.95299167945, 
			 "electric_quadrupole_moment_norm": 8.74265999396, 
			 "total_energy": -3030.93909836, 
			 "HOMO_LUMO_gap": 0.22306, 
			 "cosmo_polarized_energy": -10.33, 
			 "cosmo_cavitation_energy": 25.1, 
			 "cosmo_dispersion_energy": -18.74, 
			 "cosmo_repulsion_energy": 1.53, 
			 "cosmo_total_nonelectrostatic_energy": 7.88, 
			 "SMD_solvation_energy": 4.28 
		},
		"coords": [
			{
				"x": -1.1803364801,
				"y": 0.1645394499,
				"z": 2.6744252692,
				"element": "O" 
			},
			{
				"x": -0.4461478666,
				"y": 0.255351376,
				"z": 1.5407630821,
				"element": "C" 
			},
			{
				"x": 0.4324175644,
				"y": 1.0747896342,
				"z": 1.3950333286,
				"element": "O" 
			},
			{
				"x": -0.8442274409,
				"y": -0.8218450805,
				"z": 0.5420387872,
				"element": "C" 
			},
			{
				"x": -0.7716507864,
				"y": -0.3865684473,
				"z": -0.9067222303,
				"element": "C" 
			},
			{
				"x": -1.9244168194,
				"y": -0.4366578363,
				"z": -1.6984951131,
				"element": "C" 
			},
			{
				"x": -1.8619307209,
				"y": -0.0583803452,
				"z": -3.0386394127,
				"element": "C" 
			},
			{
				"x": -3.4499902334,
				"y": -0.1377678452,
				"z": -4.1036084236,
				"element": "Br" 
			},
			{
				"x": -0.6716030177,
				"y": 0.3745024985,
				"z": -3.6156281822,
				"element": "C" 
			},
			{
				"x": 0.4753613749,
				"y": 0.4250395034,
				"z": -2.8202500958,
				"element": "C" 
			},
			{
				"x": 0.4316452881,
				"y": 0.0477106756,
				"z": -1.47931392,
				"element": "C" 
			},
			{
				"x": -0.8402492768,
				"y": 0.8511037267,
				"z": 3.2735643635,
				"element": "H" 
			},
			{
				"x": -0.1546408697,
				"y": -1.6593621726,
				"z": 0.719104012,
				"element": "H" 
			},
			{
				"x": -1.8427572975,
				"y": -1.1850207839,
				"z": 0.7939874457,
				"element": "H" 
			},
			{
				"x": -2.8665744567,
				"y": -0.7692272651,
				"z": -1.275840475,
				"element": "H" 
			},
			{
				"x": -0.6412978131,
				"y": 0.6646267193,
				"z": -4.6595299359,
				"element": "H" 
			},
			{
				"x": 1.4109925271,
				"y": 0.7627013759,
				"z": -3.2562189931,
				"element": "H" 
			},
			{
				"x": 1.3244063247,
				"y": 0.1065648167,
				"z": -0.8672695065,
				"element": "H" 
			}
		],
		 "valence_orbital": [ 
			{
				"type": "occ",
				"energy": -0.3093,
				"method": "rhf"
			},
			{
				"type": "occ",
				"energy": -0.28673,
				"method": "rhf"
			},
			{
				"type": "occ",
				"energy": -0.28579,
				"method": "rhf"
			},
			{
				"type": "occ",
				"energy": -0.25873,
				"method": "rhf"
			},
			{
				"type": "occ",
				"energy": -0.24096,
				"method": "rhf"
			},
			{
				"type": "unocc",
				"energy": -0.0179,
				"method": "rhf"
			},
			{
				"type": "unocc",
				"energy": -0.01286,
				"method": "rhf"
			},
			{
				"type": "unocc",
				"energy": 0.00206,
				"method": "rhf"
			},
			{
				"type": "unocc",
				"energy": 0.00915,
				"method": "rhf"
			},
			{
				"type": "unocc",
				"energy": 0.07304,
				"method": "rhf"
			}
		],
		"cosmo_sigma_profile": { 
			"-0.025": 0.0,
			"-0.024": 0.0,
			"-0.023": 0.0,
			"-0.022": 0.0,
			"-0.021": 0.0,
			"-0.02": 0.0,
			"-0.019": 0.0642108468193,
			"-0.018": 0.646496537309,
			"-0.017": 1.54125943718,
			"-0.016": 0.27998070065,
			"-0.015": 0.614464887536,
			"-0.014": 0.441748094741,
			"-0.013": 1.55695234276,
			"-0.012": 0.747016126218,
			"-0.011": 0.547493071784,
			"-0.01": 0.38434682133,
			"-0.009": 0.491684030818,
			"-0.008": 3.16928147653,
			"-0.007": 9.10212336839,
			"-0.006": 10.2008175245,
			"-0.005": 12.3078810096,
			"-0.004": 14.1407807966,
			"-0.003": 12.0498705264,
			"-0.002": 11.1384202953,
			"-0.001": 10.654920975,
			"0.0": 11.5011737231,
			"0.001": 12.1305606615,
			"0.002": 17.7222412792,
			"0.003": 18.3619083713,
			"0.004": 19.7894941591,
			"0.005": 12.6922355032,
			"0.006": 2.83752710536,
			"0.007": 2.53826097566,
			"0.008": 3.42842746548,
			"0.009": 3.7183372093,
			"0.01": 2.45190295332,
			"0.011": 4.03519514715,
			"0.012": 2.27022596445,
			"0.013": 0.00703979848096,
			"0.014": 0.0,
			"0.015": 0.0,
			"0.016": 0.0,
			"0.017": 0.0,
			"0.018": 0.0,
			"0.019": 0.0,
			"0.02": 0.0,
			"0.021": 0.0,
			"0.022": 0.0,
			"0.023": 0.0,
			"0.024": 0.0,
			"0.025": 0.0
		}
	}
}
