{
	 "smiles": "CC1=CC(=O)C(=NN1C1=C(C=CC=C1)[N+]([O-])=O)C(O)=O", 
	 "Tm": 514.15, 
	 "num_atms": 29, 
	 "gaussian": { 
		 "optdone": 1, 
		 "sigma_profile": "yes", 
		 "theory": "DFT", 
		 "functional": "B3LYP", 
		 "basiset": "6-31G**", 
		 "properties": { 
			 "R2extent": 5548.4505, 
			 "electric_dipole_moment_norm": 9.98192737852, 
			 "electric_quadrupole_moment_norm": 16.2111982065, 
			 "total_energy": -1002.93117978, 
			 "HOMO_LUMO_gap": 0.12116, 
			 "cosmo_polarized_energy": -28.59, 
			 "cosmo_cavitation_energy": 35.71, 
			 "cosmo_dispersion_energy": -24.3, 
			 "cosmo_repulsion_energy": 1.89, 
			 "cosmo_total_nonelectrostatic_energy": 13.3, 
			 "SMD_solvation_energy": 9.8 
		},
		"coords": [
			{
				"x": -1.2037011901,
				"y": 2.8860433328,
				"z": 1.6281655424,
				"element": "C" 
			},
			{
				"x": -0.6749398681,
				"y": 2.3137042213,
				"z": 0.3444267916,
				"element": "C" 
			},
			{
				"x": -0.4394583566,
				"y": 3.053947933,
				"z": -0.7727036646,
				"element": "C" 
			},
			{
				"x": 0.0436895914,
				"y": 2.4614087256,
				"z": -2.0099660737,
				"element": "C" 
			},
			{
				"x": 0.3566354779,
				"y": 3.0991790512,
				"z": -3.0108411315,
				"element": "O" 
			},
			{
				"x": 0.144177676,
				"y": 0.9795481276,
				"z": -1.911607396,
				"element": "C" 
			},
			{
				"x": -0.0589956396,
				"y": 0.2961144506,
				"z": -0.8211343708,
				"element": "N" 
			},
			{
				"x": -0.4380871785,
				"y": 0.9482487505,
				"z": 0.294193501,
				"element": "N" 
			},
			{
				"x": -0.5916301394,
				"y": 0.0801712588,
				"z": 1.4300181468,
				"element": "C" 
			},
			{
				"x": -1.7391174381,
				"y": -0.6987541212,
				"z": 1.6413914658,
				"element": "C" 
			},
			{
				"x": -1.8094128661,
				"y": -1.6059800148,
				"z": 2.6968032871,
				"element": "C" 
			},
			{
				"x": -0.7369703799,
				"y": -1.722431106,
				"z": 3.5777907789,
				"element": "C" 
			},
			{
				"x": 0.4090313964,
				"y": -0.9502219149,
				"z": 3.3845417117,
				"element": "C" 
			},
			{
				"x": 0.4828594969,
				"y": -0.0658382341,
				"z": 2.3076280144,
				"element": "C" 
			},
			{
				"x": -2.9264687464,
				"y": -0.5855287595,
				"z": 0.7765510176,
				"element": "N" 
			},
			{
				"x": -3.6226144956,
				"y": -1.5888916606,
				"z": 0.6510877822,
				"element": "O" 
			},
			{
				"x": -3.1594859381,
				"y": 0.5081793483,
				"z": 0.2650451033,
				"element": "O" 
			},
			{
				"x": 0.4720676615,
				"y": 0.169583371,
				"z": -3.1329868991,
				"element": "C" 
			},
			{
				"x": 1.2974906195,
				"y": -0.8674304557,
				"z": -2.8607182529,
				"element": "O" 
			},
			{
				"x": 0.0375323371,
				"y": 0.4037889565,
				"z": -4.2357134899,
				"element": "O" 
			},
			{
				"x": -1.3482473,
				"y": 3.9613039557,
				"z": 1.5140798305,
				"element": "H" 
			},
			{
				"x": -2.1671639854,
				"y": 2.4295395138,
				"z": 1.8756482963,
				"element": "H" 
			},
			{
				"x": -0.5223789081,
				"y": 2.7159854819,
				"z": 2.4677267607,
				"element": "H" 
			},
			{
				"x": -0.6129193648,
				"y": 4.1239283281,
				"z": -0.7600124247,
				"element": "H" 
			},
			{
				"x": -2.7064301957,
				"y": -2.2027223048,
				"z": 2.8088535143,
				"element": "H" 
			},
			{
				"x": -0.7964836405,
				"y": -2.419191537,
				"z": 4.4073935945,
				"element": "H" 
			},
			{
				"x": 1.2535671088,
				"y": -1.0459852528,
				"z": 4.0594075751,
				"element": "H" 
			},
			{
				"x": 1.3838524903,
				"y": 0.5094187814,
				"z": 2.1217603135,
				"element": "H" 
			},
			{
				"x": 1.4074017752,
				"y": -1.3391182268,
				"z": -3.7039293242,
				"element": "H" 
			}
		],
		 "valence_orbital": [ 
			{
				"type": "occ",
				"energy": -0.30312,
				"method": "rhf"
			},
			{
				"type": "occ",
				"energy": -0.29785,
				"method": "rhf"
			},
			{
				"type": "occ",
				"energy": -0.27642,
				"method": "rhf"
			},
			{
				"type": "occ",
				"energy": -0.2378,
				"method": "rhf"
			},
			{
				"type": "occ",
				"energy": -0.2286,
				"method": "rhf"
			},
			{
				"type": "unocc",
				"energy": -0.10744,
				"method": "rhf"
			},
			{
				"type": "unocc",
				"energy": -0.06113,
				"method": "rhf"
			},
			{
				"type": "unocc",
				"energy": -0.0542,
				"method": "rhf"
			},
			{
				"type": "unocc",
				"energy": -0.0352,
				"method": "rhf"
			},
			{
				"type": "unocc",
				"energy": -0.03133,
				"method": "rhf"
			}
		],
		"cosmo_sigma_profile": { 
			"-0.025": 0.0,
			"-0.024": 0.0,
			"-0.023": 0.0,
			"-0.022": 0.0,
			"-0.021": 0.0,
			"-0.02": 0.0,
			"-0.019": 0.321897323497,
			"-0.018": 1.23761321925,
			"-0.017": 0.879934700021,
			"-0.016": 0.747546971349,
			"-0.015": 0.770019042694,
			"-0.014": 0.561083319193,
			"-0.013": 0.331016459715,
			"-0.012": 1.00859010604,
			"-0.011": 0.764394467352,
			"-0.01": 0.57838660025,
			"-0.009": 3.59491047091,
			"-0.008": 13.9962056536,
			"-0.007": 17.5193058707,
			"-0.006": 15.7280130936,
			"-0.005": 18.052795381,
			"-0.004": 16.0917522744,
			"-0.003": 21.5226960409,
			"-0.002": 21.9779393785,
			"-0.001": 20.2543586437,
			"0.0": 20.2701526195,
			"0.001": 15.2566016197,
			"0.002": 8.30386317679,
			"0.003": 7.29847132448,
			"0.004": 6.60103813066,
			"0.005": 6.86924757817,
			"0.006": 8.33630422862,
			"0.007": 11.3381105966,
			"0.008": 8.0512031115,
			"0.009": 7.62829251024,
			"0.01": 5.42967306205,
			"0.011": 7.90896725535,
			"0.012": 4.78289453061,
			"0.013": 5.12939337613,
			"0.014": 4.81476889338,
			"0.015": 2.3698376546,
			"0.016": 0.32107310199,
			"0.017": 0.0,
			"0.018": 0.0,
			"0.019": 0.0,
			"0.02": 0.0,
			"0.021": 0.0,
			"0.022": 0.0,
			"0.023": 0.0,
			"0.024": 0.0,
			"0.025": 0.0
		}
	}
}
