{
	 "smiles": "O=C1ON=C(N1CC1CO1)C1=CC=CC=C1", 
	 "Tm": 355.15, 
	 "num_atms": 26, 
	 "gaussian": { 
		 "optdone": 1, 
		 "sigma_profile": "yes", 
		 "theory": "DFT", 
		 "functional": "B3LYP", 
		 "basiset": "6-31G**", 
		 "properties": { 
			 "R2extent": 4287.0419, 
			 "electric_dipole_moment_norm": 6.15488805828, 
			 "electric_quadrupole_moment_norm": 22.844263919, 
			 "total_energy": -760.298695918, 
			 "HOMO_LUMO_gap": 0.19701, 
			 "cosmo_polarized_energy": -15.03, 
			 "cosmo_cavitation_energy": 30.54, 
			 "cosmo_dispersion_energy": -21.8, 
			 "cosmo_repulsion_energy": 1.67, 
			 "cosmo_total_nonelectrostatic_energy": 10.4, 
			 "SMD_solvation_energy": 6.05 
		},
		"coords": [
			{
				"x": -0.1302902076,
				"y": -2.6352105921,
				"z": -3.5473203025,
				"element": "O" 
			},
			{
				"x": -0.4458417296,
				"y": -1.5072885199,
				"z": -3.2452997605,
				"element": "C" 
			},
			{
				"x": -0.8992338735,
				"y": -0.5393182818,
				"z": -4.0919120676,
				"element": "O" 
			},
			{
				"x": -1.1875743508,
				"y": 0.6459375058,
				"z": -3.3612719846,
				"element": "N" 
			},
			{
				"x": -0.9111437886,
				"y": 0.3669673146,
				"z": -2.1195074439,
				"element": "C" 
			},
			{
				"x": -0.4426115192,
				"y": -0.9267753242,
				"z": -1.9820095778,
				"element": "N" 
			},
			{
				"x": -0.1452435486,
				"y": -1.7292877091,
				"z": -0.7985801538,
				"element": "C" 
			},
			{
				"x": 1.3374936905,
				"y": -1.9757444749,
				"z": -0.6249512677,
				"element": "C" 
			},
			{
				"x": 1.9194380949,
				"y": -2.1392461438,
				"z": 0.7138455202,
				"element": "C" 
			},
			{
				"x": 2.1002758742,
				"y": -0.9209883733,
				"z": -0.0223258123,
				"element": "O" 
			},
			{
				"x": -1.1222378066,
				"y": 1.3464623792,
				"z": -1.0400902175,
				"element": "C" 
			},
			{
				"x": -0.2171839024,
				"y": 1.486140481,
				"z": 0.02471209,
				"element": "C" 
			},
			{
				"x": -0.4478535052,
				"y": 2.4522666604,
				"z": 1.0046140807,
				"element": "C" 
			},
			{
				"x": -1.5666142609,
				"y": 3.2835382215,
				"z": 0.9293285378,
				"element": "C" 
			},
			{
				"x": -2.4609838971,
				"y": 3.1531186456,
				"z": -0.1361637854,
				"element": "C" 
			},
			{
				"x": -2.2432330836,
				"y": 2.1895379136,
				"z": -1.117383338,
				"element": "C" 
			},
			{
				"x": -0.5598104338,
				"y": -1.224935129,
				"z": 0.0756942072,
				"element": "H" 
			},
			{
				"x": -0.6515254561,
				"y": -2.6922661468,
				"z": -0.9266303989,
				"element": "H" 
			},
			{
				"x": 1.8215765229,
				"y": -2.4563297534,
				"z": -1.4746649948,
				"element": "H" 
			},
			{
				"x": 2.8150657951,
				"y": -2.7451245878,
				"z": 0.8416079265,
				"element": "H" 
			},
			{
				"x": 1.2797979109,
				"y": -2.0632393427,
				"z": 1.593442541,
				"element": "H" 
			},
			{
				"x": 0.6718800868,
				"y": 0.8649141691,
				"z": 0.0765026385,
				"element": "H" 
			},
			{
				"x": 0.2572111506,
				"y": 2.5607347297,
				"z": 1.823387534,
				"element": "H" 
			},
			{
				"x": -1.739854381,
				"y": 4.0332208786,
				"z": 1.6958984499,
				"element": "H" 
			},
			{
				"x": -3.3311086603,
				"y": 3.7994415368,
				"z": -0.2007523027,
				"element": "H" 
			},
			{
				"x": -2.9317947208,
				"y": 2.0772739431,
				"z": -1.9478701178,
				"element": "H" 
			}
		],
		 "valence_orbital": [ 
			{
				"type": "occ",
				"energy": -0.29465,
				"method": "rhf"
			},
			{
				"type": "occ",
				"energy": -0.28453,
				"method": "rhf"
			},
			{
				"type": "occ",
				"energy": -0.27388,
				"method": "rhf"
			},
			{
				"type": "occ",
				"energy": -0.26797,
				"method": "rhf"
			},
			{
				"type": "occ",
				"energy": -0.24345,
				"method": "rhf"
			},
			{
				"type": "unocc",
				"energy": -0.04644,
				"method": "rhf"
			},
			{
				"type": "unocc",
				"energy": -0.01952,
				"method": "rhf"
			},
			{
				"type": "unocc",
				"energy": 0.02378,
				"method": "rhf"
			},
			{
				"type": "unocc",
				"energy": 0.04286,
				"method": "rhf"
			},
			{
				"type": "unocc",
				"energy": 0.07029,
				"method": "rhf"
			}
		],
		"cosmo_sigma_profile": { 
			"-0.025": 0.0,
			"-0.024": 0.0,
			"-0.023": 0.0,
			"-0.022": 0.0,
			"-0.021": 0.0,
			"-0.02": 0.0,
			"-0.019": 0.0,
			"-0.018": 0.0,
			"-0.017": 0.0,
			"-0.016": 0.0,
			"-0.015": 0.0,
			"-0.014": 0.0,
			"-0.013": 0.0,
			"-0.012": 0.0,
			"-0.011": 0.0,
			"-0.01": 0.0,
			"-0.009": 0.205978778604,
			"-0.008": 3.36239115055,
			"-0.007": 12.9843049803,
			"-0.006": 22.860139822,
			"-0.005": 24.9797960811,
			"-0.004": 20.7282051447,
			"-0.003": 16.3101828691,
			"-0.002": 14.8473776321,
			"-0.001": 12.5739036198,
			"0.0": 11.6072746154,
			"0.001": 12.3921039321,
			"0.002": 13.1604947882,
			"0.003": 17.3320973591,
			"0.004": 12.3120158364,
			"0.005": 5.3503067345,
			"0.006": 6.98489795998,
			"0.007": 9.13628482206,
			"0.008": 5.51443694669,
			"0.009": 4.34982820304,
			"0.01": 5.04951850402,
			"0.011": 6.39914043445,
			"0.012": 5.73382109609,
			"0.013": 0.844327575683,
			"0.014": 0.0,
			"0.015": 0.0,
			"0.016": 0.0,
			"0.017": 0.0,
			"0.018": 0.0,
			"0.019": 0.0,
			"0.02": 0.0,
			"0.021": 0.0,
			"0.022": 0.0,
			"0.023": 0.0,
			"0.024": 0.0,
			"0.025": 0.0
		}
	}
}
