{
	 "smiles": "CCOC1=C(N)C=CC(=C1)C(=O)N(C)C", 
	 "Tm": 381.15, 
	 "num_atms": 31, 
	 "gaussian": { 
		 "optdone": 1, 
		 "sigma_profile": "yes", 
		 "theory": "DFT", 
		 "functional": "B3LYP", 
		 "basiset": "6-31G**", 
		 "properties": { 
			 "R2extent": 4108.1205, 
			 "electric_dipole_moment_norm": 3.59010705272, 
			 "electric_quadrupole_moment_norm": 11.4314275819, 
			 "total_energy": -688.773699136, 
			 "HOMO_LUMO_gap": 0.18141, 
			 "cosmo_polarized_energy": -14.81, 
			 "cosmo_cavitation_energy": 33.37, 
			 "cosmo_dispersion_energy": -23.97, 
			 "cosmo_repulsion_energy": 1.91, 
			 "cosmo_total_nonelectrostatic_energy": 11.32, 
			 "SMD_solvation_energy": 6.46 
		},
		"coords": [
			{
				"x": -2.9373136863,
				"y": 0.5651556893,
				"z": 2.6332437134,
				"element": "C" 
			},
			{
				"x": -1.9325715805,
				"y": -0.4570919024,
				"z": 3.1535663392,
				"element": "C" 
			},
			{
				"x": -0.5944451075,
				"y": 0.0491517637,
				"z": 3.1811842196,
				"element": "O" 
			},
			{
				"x": 0.1315980266,
				"y": 0.1128685915,
				"z": 2.0165844422,
				"element": "C" 
			},
			{
				"x": 1.4044558984,
				"y": 0.7239099865,
				"z": 2.1664469774,
				"element": "C" 
			},
			{
				"x": 1.7557262381,
				"y": 1.2531638927,
				"z": 3.3996124215,
				"element": "N" 
			},
			{
				"x": 2.2325248312,
				"y": 0.8178922762,
				"z": 1.0426296104,
				"element": "C" 
			},
			{
				"x": 1.8297967895,
				"y": 0.3126434282,
				"z": -0.1938167012,
				"element": "C" 
			},
			{
				"x": 0.5804500441,
				"y": -0.2984487366,
				"z": -0.33664401,
				"element": "C" 
			},
			{
				"x": -0.2708080429,
				"y": -0.3729460741,
				"z": 0.7819842261,
				"element": "C" 
			},
			{
				"x": 0.0138503442,
				"y": -0.7624696173,
				"z": -1.6443679735,
				"element": "C" 
			},
			{
				"x": -1.1861311562,
				"y": -0.6169689752,
				"z": -1.8834650271,
				"element": "O" 
			},
			{
				"x": 0.8685351247,
				"y": -1.3061933839,
				"z": -2.5873231347,
				"element": "N" 
			},
			{
				"x": 0.3152816852,
				"y": -1.5990792106,
				"z": -3.9024111991,
				"element": "C" 
			},
			{
				"x": 2.1029254303,
				"y": -2.0142663707,
				"z": -2.2771159295,
				"element": "C" 
			},
			{
				"x": -2.7414187611,
				"y": 0.8321759523,
				"z": 1.5918149889,
				"element": "H" 
			},
			{
				"x": -2.8962191114,
				"y": 1.4771434433,
				"z": 3.2357937985,
				"element": "H" 
			},
			{
				"x": -3.9509497007,
				"y": 0.1550804449,
				"z": 2.6952998437,
				"element": "H" 
			},
			{
				"x": -2.1487826952,
				"y": -0.7078749482,
				"z": 4.1961399992,
				"element": "H" 
			},
			{
				"x": -1.9701042234,
				"y": -1.3893108106,
				"z": 2.5760077122,
				"element": "H" 
			},
			{
				"x": 1.2170752926,
				"y": 0.8975604623,
				"z": 4.1764402409,
				"element": "H" 
			},
			{
				"x": 2.7453064746,
				"y": 1.3291616545,
				"z": 3.5831847002,
				"element": "H" 
			},
			{
				"x": 3.1972585199,
				"y": 1.3093034676,
				"z": 1.1409419331,
				"element": "H" 
			},
			{
				"x": 2.4824573753,
				"y": 0.4318869318,
				"z": -1.0523444761,
				"element": "H" 
			},
			{
				"x": -1.2523332901,
				"y": -0.805716367,
				"z": 0.635806117,
				"element": "H" 
			},
			{
				"x": -0.0208610292,
				"y": -2.6433957596,
				"z": -3.9776984714,
				"element": "H" 
			},
			{
				"x": -0.5399861786,
				"y": -0.9499571137,
				"z": -4.0815254423,
				"element": "H" 
			},
			{
				"x": 1.0824019867,
				"y": -1.4285898348,
				"z": -4.666039401,
				"element": "H" 
			},
			{
				"x": 2.0011869688,
				"y": -3.077850332,
				"z": -2.5359613004,
				"element": "H" 
			},
			{
				"x": 2.9486874327,
				"y": -1.6104747949,
				"z": -2.8490143521,
				"element": "H" 
			},
			{
				"x": 2.3323061002,
				"y": -1.9428637529,
				"z": -1.2160538651,
				"element": "H" 
			}
		],
		 "valence_orbital": [ 
			{
				"type": "occ",
				"energy": -0.30059,
				"method": "rhf"
			},
			{
				"type": "occ",
				"energy": -0.2428,
				"method": "rhf"
			},
			{
				"type": "occ",
				"energy": -0.22902,
				"method": "rhf"
			},
			{
				"type": "occ",
				"energy": -0.22177,
				"method": "rhf"
			},
			{
				"type": "occ",
				"energy": -0.19112,
				"method": "rhf"
			},
			{
				"type": "unocc",
				"energy": -0.00971,
				"method": "rhf"
			},
			{
				"type": "unocc",
				"energy": 0.01284,
				"method": "rhf"
			},
			{
				"type": "unocc",
				"energy": 0.06916,
				"method": "rhf"
			},
			{
				"type": "unocc",
				"energy": 0.08912,
				"method": "rhf"
			},
			{
				"type": "unocc",
				"energy": 0.09562,
				"method": "rhf"
			}
		],
		"cosmo_sigma_profile": { 
			"-0.025": 0.0,
			"-0.024": 0.0,
			"-0.023": 0.0,
			"-0.022": 0.0,
			"-0.021": 0.0,
			"-0.02": 0.0,
			"-0.019": 0.0,
			"-0.018": 0.0,
			"-0.017": 0.0,
			"-0.016": 0.0,
			"-0.015": 0.0,
			"-0.014": 0.0,
			"-0.013": 0.617940164836,
			"-0.012": 1.38495614734,
			"-0.011": 1.80532650447,
			"-0.01": 2.33229687284,
			"-0.009": 2.36624896667,
			"-0.008": 2.18232634301,
			"-0.007": 2.92272052526,
			"-0.006": 5.91734237492,
			"-0.005": 12.933549223,
			"-0.004": 27.8166290455,
			"-0.003": 32.7752257585,
			"-0.002": 30.8279929925,
			"-0.001": 24.9431738199,
			"0.0": 18.6800736945,
			"0.001": 13.5678705017,
			"0.002": 11.1525723458,
			"0.003": 11.7942695266,
			"0.004": 11.0146529676,
			"0.005": 12.9610189456,
			"0.006": 8.10294131304,
			"0.007": 3.6358924754,
			"0.008": 2.57407353296,
			"0.009": 2.98253945868,
			"0.01": 2.39438628285,
			"0.011": 2.82441662256,
			"0.012": 1.35423722133,
			"0.013": 3.72251346393,
			"0.014": 4.2173501138,
			"0.015": 2.62882545721,
			"0.016": 0.0910026666479,
			"0.017": 0.0,
			"0.018": 0.0,
			"0.019": 0.0,
			"0.02": 0.0,
			"0.021": 0.0,
			"0.022": 0.0,
			"0.023": 0.0,
			"0.024": 0.0,
			"0.025": 0.0
		}
	}
}
