{
	 "smiles": "COC1CCC(OC)O1", 
	 "Tm": 228.15, 
	 "num_atms": 21, 
	 "gaussian": { 
		 "optdone": 1, 
		 "sigma_profile": "yes", 
		 "theory": "DFT", 
		 "functional": "B3LYP", 
		 "basiset": "6-31G**", 
		 "properties": { 
			 "R2extent": 1384.7097, 
			 "electric_dipole_moment_norm": 1.49976622512, 
			 "electric_quadrupole_moment_norm": 5.66370917332, 
			 "total_energy": -461.514116091, 
			 "HOMO_LUMO_gap": 0.33601, 
			 "cosmo_polarized_energy": -8.55, 
			 "cosmo_cavitation_energy": 22.97, 
			 "cosmo_dispersion_energy": -17.0, 
			 "cosmo_repulsion_energy": 1.42, 
			 "cosmo_total_nonelectrostatic_energy": 7.39, 
			 "SMD_solvation_energy": 4.76 
		},
		"coords": [
			{
				"x": -2.4838623102,
				"y": -0.8027423146,
				"z": -0.2337052958,
				"element": "C" 
			},
			{
				"x": -1.1964281435,
				"y": -1.112618818,
				"z": 0.2822994384,
				"element": "O" 
			},
			{
				"x": -0.8585995553,
				"y": -0.3904058614,
				"z": 1.4354112945,
				"element": "C" 
			},
			{
				"x": 0.6019862497,
				"y": -0.6862663415,
				"z": 1.7636287751,
				"element": "C" 
			},
			{
				"x": 1.3347230594,
				"y": 0.3053714182,
				"z": 0.8426808264,
				"element": "C" 
			},
			{
				"x": 0.3134190744,
				"y": 1.458683741,
				"z": 0.6614950881,
				"element": "C" 
			},
			{
				"x": 0.0572450213,
				"y": 1.7689267699,
				"z": -0.6933269495,
				"element": "O" 
			},
			{
				"x": 1.064930415,
				"y": 2.5600706603,
				"z": -1.2894547566,
				"element": "C" 
			},
			{
				"x": -0.8965757944,
				"y": 1.0205587118,
				"z": 1.2412535603,
				"element": "O" 
			},
			{
				"x": -2.5355126297,
				"y": 0.2382580614,
				"z": -0.5681223911,
				"element": "H" 
			},
			{
				"x": -2.6512394278,
				"y": -1.470459142,
				"z": -1.0815402882,
				"element": "H" 
			},
			{
				"x": -3.268836287,
				"y": -0.9762951054,
				"z": 0.5186346918,
				"element": "H" 
			},
			{
				"x": -1.5760075002,
				"y": -0.5953096601,
				"z": 2.2432547731,
				"element": "H" 
			},
			{
				"x": 0.7888667233,
				"y": -0.4599699957,
				"z": 2.8179135849,
				"element": "H" 
			},
			{
				"x": 0.8579478582,
				"y": -1.7310594231,
				"z": 1.5770628784,
				"element": "H" 
			},
			{
				"x": 1.5213655339,
				"y": -0.1451601527,
				"z": -0.1355315363,
				"element": "H" 
			},
			{
				"x": 2.2855335248,
				"y": 0.6505346252,
				"z": 1.2565656872,
				"element": "H" 
			},
			{
				"x": 0.6147599244,
				"y": 2.3810589638,
				"z": 1.1847863748,
				"element": "H" 
			},
			{
				"x": 1.2376405473,
				"y": 3.4918563115,
				"z": -0.7270494279,
				"element": "H" 
			},
			{
				"x": 0.7195962357,
				"y": 2.8144676564,
				"z": -2.2939117735,
				"element": "H" 
			},
			{
				"x": 2.0244474805,
				"y": 2.027299895,
				"z": -1.3746445541,
				"element": "H" 
			}
		],
		 "valence_orbital": [ 
			{
				"type": "occ",
				"energy": -0.32141,
				"method": "rhf"
			},
			{
				"type": "occ",
				"energy": -0.30429,
				"method": "rhf"
			},
			{
				"type": "occ",
				"energy": -0.28396,
				"method": "rhf"
			},
			{
				"type": "occ",
				"energy": -0.26242,
				"method": "rhf"
			},
			{
				"type": "occ",
				"energy": -0.24735,
				"method": "rhf"
			},
			{
				"type": "unocc",
				"energy": 0.08866,
				"method": "rhf"
			},
			{
				"type": "unocc",
				"energy": 0.10575,
				"method": "rhf"
			},
			{
				"type": "unocc",
				"energy": 0.11547,
				"method": "rhf"
			},
			{
				"type": "unocc",
				"energy": 0.1244,
				"method": "rhf"
			},
			{
				"type": "unocc",
				"energy": 0.13528,
				"method": "rhf"
			}
		],
		"cosmo_sigma_profile": { 
			"-0.025": 0.0,
			"-0.024": 0.0,
			"-0.023": 0.0,
			"-0.022": 0.0,
			"-0.021": 0.0,
			"-0.02": 0.0,
			"-0.019": 0.0,
			"-0.018": 0.0,
			"-0.017": 0.0,
			"-0.016": 0.0,
			"-0.015": 0.0,
			"-0.014": 0.0,
			"-0.013": 0.0,
			"-0.012": 0.0,
			"-0.011": 0.0,
			"-0.01": 0.0,
			"-0.009": 0.0,
			"-0.008": 0.0,
			"-0.007": 0.0,
			"-0.006": 0.827053807609,
			"-0.005": 12.7119800738,
			"-0.004": 28.7171336387,
			"-0.003": 28.7657669054,
			"-0.002": 29.0538240025,
			"-0.001": 16.6289756794,
			"0.0": 10.5218375024,
			"0.001": 4.72522961759,
			"0.002": 4.47030484055,
			"0.003": 3.82483315577,
			"0.004": 3.16830027569,
			"0.005": 3.56825544272,
			"0.006": 4.10318631352,
			"0.007": 3.53179809775,
			"0.008": 4.53020498936,
			"0.009": 3.99754478838,
			"0.01": 5.65138379235,
			"0.011": 4.88475073463,
			"0.012": 3.81749484298,
			"0.013": 0.858203749921,
			"0.014": 0.0,
			"0.015": 0.0,
			"0.016": 0.0,
			"0.017": 0.0,
			"0.018": 0.0,
			"0.019": 0.0,
			"0.02": 0.0,
			"0.021": 0.0,
			"0.022": 0.0,
			"0.023": 0.0,
			"0.024": 0.0,
			"0.025": 0.0
		}
	}
}
