{
	 "smiles": "CN1C(C)=NN=C1C1=CC(N)=CC=C1", 
	 "Tm": 463.15, 
	 "num_atms": 26, 
	 "gaussian": { 
		 "optdone": 1, 
		 "sigma_profile": "yes", 
		 "theory": "DFT", 
		 "functional": "B3LYP", 
		 "basiset": "6-31G**", 
		 "properties": { 
			 "R2extent": 3603.009, 
			 "electric_dipole_moment_norm": 7.27215754574, 
			 "electric_quadrupole_moment_norm": 14.6092201239, 
			 "total_energy": -607.295677211, 
			 "HOMO_LUMO_gap": 0.18325, 
			 "cosmo_polarized_energy": -23.47, 
			 "cosmo_cavitation_energy": 29.52, 
			 "cosmo_dispersion_energy": -21.49, 
			 "cosmo_repulsion_energy": 1.69, 
			 "cosmo_total_nonelectrostatic_energy": 9.71, 
			 "SMD_solvation_energy": 2.95 
		},
		"coords": [
			{
				"x": -1.5475613852,
				"y": -0.9124629744,
				"z": 0.815123206,
				"element": "C" 
			},
			{
				"x": -0.876403165,
				"y": 0.3766585774,
				"z": 0.7557262568,
				"element": "N" 
			},
			{
				"x": -0.7832930747,
				"y": 1.2898025564,
				"z": 1.7816108603,
				"element": "C" 
			},
			{
				"x": -1.2726808918,
				"y": 1.05724289,
				"z": 3.1710771884,
				"element": "C" 
			},
			{
				"x": -0.207540968,
				"y": 2.3923035445,
				"z": 1.3567759344,
				"element": "N" 
			},
			{
				"x": 0.0904134787,
				"y": 2.2224472346,
				"z": 0.025952225,
				"element": "N" 
			},
			{
				"x": -0.3064523106,
				"y": 1.0163382228,
				"z": -0.3311204068,
				"element": "C" 
			},
			{
				"x": -0.1691023408,
				"y": 0.474687695,
				"z": -1.6916295668,
				"element": "C" 
			},
			{
				"x": 0.1139864894,
				"y": -0.8770643175,
				"z": -1.934997062,
				"element": "C" 
			},
			{
				"x": 0.2642568335,
				"y": -1.3594323292,
				"z": -3.2458213029,
				"element": "C" 
			},
			{
				"x": 0.6098106665,
				"y": -2.6934162807,
				"z": -3.4738691265,
				"element": "N" 
			},
			{
				"x": 0.1302110938,
				"y": -0.4599555901,
				"z": -4.3162137926,
				"element": "C" 
			},
			{
				"x": -0.1335116326,
				"y": 0.886271852,
				"z": -4.0711827564,
				"element": "C" 
			},
			{
				"x": -0.2865363244,
				"y": 1.3642257191,
				"z": -2.7724002269,
				"element": "C" 
			},
			{
				"x": -0.8704191743,
				"y": -1.705974243,
				"z": 1.150180802,
				"element": "H" 
			},
			{
				"x": -2.3863582736,
				"y": -0.8542622815,
				"z": 1.5120386635,
				"element": "H" 
			},
			{
				"x": -1.9303806654,
				"y": -1.1690057821,
				"z": -0.1730846212,
				"element": "H" 
			},
			{
				"x": -2.356683302,
				"y": 0.8940774018,
				"z": 3.2067783636,
				"element": "H" 
			},
			{
				"x": -0.7899312214,
				"y": 0.1918509193,
				"z": 3.6396715063,
				"element": "H" 
			},
			{
				"x": -1.0420732145,
				"y": 1.9449844755,
				"z": 3.7617197092,
				"element": "H" 
			},
			{
				"x": 0.2709774536,
				"y": -1.5620798407,
				"z": -1.1067477312,
				"element": "H" 
			},
			{
				"x": 0.3408274132,
				"y": -3.3421721496,
				"z": -2.7474514083,
				"element": "H" 
			},
			{
				"x": 0.3855877713,
				"y": -3.0439935551,
				"z": -4.3947145707,
				"element": "H" 
			},
			{
				"x": 0.2471698188,
				"y": -0.8187775191,
				"z": -5.3358328961,
				"element": "H" 
			},
			{
				"x": -0.2277679844,
				"y": 1.5702182046,
				"z": -4.9099374243,
				"element": "H" 
			},
			{
				"x": -0.4892450902,
				"y": 2.4099875697,
				"z": -2.5746518225,
				"element": "H" 
			}
		],
		 "valence_orbital": [ 
			{
				"type": "occ",
				"energy": -0.27767,
				"method": "rhf"
			},
			{
				"type": "occ",
				"energy": -0.26812,
				"method": "rhf"
			},
			{
				"type": "occ",
				"energy": -0.23635,
				"method": "rhf"
			},
			{
				"type": "occ",
				"energy": -0.22552,
				"method": "rhf"
			},
			{
				"type": "occ",
				"energy": -0.20456,
				"method": "rhf"
			},
			{
				"type": "unocc",
				"energy": -0.02131,
				"method": "rhf"
			},
			{
				"type": "unocc",
				"energy": 0.0095,
				"method": "rhf"
			},
			{
				"type": "unocc",
				"energy": 0.0409,
				"method": "rhf"
			},
			{
				"type": "unocc",
				"energy": 0.06447,
				"method": "rhf"
			},
			{
				"type": "unocc",
				"energy": 0.07697,
				"method": "rhf"
			}
		],
		"cosmo_sigma_profile": { 
			"-0.025": 0.0,
			"-0.024": 0.0,
			"-0.023": 0.0,
			"-0.022": 0.0,
			"-0.021": 0.0,
			"-0.02": 0.0,
			"-0.019": 0.0,
			"-0.018": 0.0,
			"-0.017": 0.0,
			"-0.016": 0.0,
			"-0.015": 0.0,
			"-0.014": 0.0,
			"-0.013": 0.413599107179,
			"-0.012": 2.95264040431,
			"-0.011": 2.84223241533,
			"-0.01": 2.5061513639,
			"-0.009": 3.6978291303,
			"-0.008": 4.03286320563,
			"-0.007": 9.69645949186,
			"-0.006": 17.0734671408,
			"-0.005": 20.4741717236,
			"-0.004": 21.8967989281,
			"-0.003": 19.0623453246,
			"-0.002": 14.2288217954,
			"-0.001": 13.8105801528,
			"0.0": 9.49339679306,
			"0.001": 9.45745154757,
			"0.002": 8.647209713,
			"0.003": 8.36587499683,
			"0.004": 9.0026864986,
			"0.005": 11.8794767673,
			"0.006": 10.3607504191,
			"0.007": 4.48104209868,
			"0.008": 2.75775565687,
			"0.009": 3.56074591206,
			"0.01": 1.93310477642,
			"0.011": 2.48917694492,
			"0.012": 3.58804539016,
			"0.013": 2.84618937339,
			"0.014": 4.41669157648,
			"0.015": 3.28321190231,
			"0.016": 2.35496560211,
			"0.017": 2.19679581686,
			"0.018": 0.62986198047,
			"0.019": 0.0,
			"0.02": 0.0,
			"0.021": 0.0,
			"0.022": 0.0,
			"0.023": 0.0,
			"0.024": 0.0,
			"0.025": 0.0
		}
	}
}
