{
	 "smiles": "OC(=O)C1=NNC2=C1C=CC=C2", 
	 "Tm": 533.15, 
	 "num_atms": 18, 
	 "gaussian": { 
		 "optdone": 1, 
		 "sigma_profile": "yes", 
		 "theory": "DFT", 
		 "functional": "B3LYP", 
		 "basiset": "6-31G**", 
		 "properties": { 
			 "R2extent": 2066.8009, 
			 "electric_dipole_moment_norm": 3.78250297554, 
			 "electric_quadrupole_moment_norm": 16.3188623142, 
			 "total_energy": -568.417539591, 
			 "HOMO_LUMO_gap": 0.18204, 
			 "cosmo_polarized_energy": -16.56, 
			 "cosmo_cavitation_energy": 22.97, 
			 "cosmo_dispersion_energy": -17.4, 
			 "cosmo_repulsion_energy": 1.38, 
			 "cosmo_total_nonelectrostatic_energy": 6.96, 
			 "SMD_solvation_energy": 4.15 
		},
		"coords": [
			{
				"x": 2.3166195859,
				"y": 0.2623182032,
				"z": -2.0334576529,
				"element": "O" 
			},
			{
				"x": 1.6777521763,
				"y": 1.3668067682,
				"z": -1.5569204756,
				"element": "C" 
			},
			{
				"x": 2.1085838243,
				"y": 2.4869754935,
				"z": -1.7184857848,
				"element": "O" 
			},
			{
				"x": 0.4366093168,
				"y": 1.0006993498,
				"z": -0.8470495239,
				"element": "C" 
			},
			{
				"x": -0.3108918194,
				"y": 1.965238119,
				"z": -0.3179443437,
				"element": "N" 
			},
			{
				"x": -1.35727883,
				"y": 1.3507621264,
				"z": 0.2543105079,
				"element": "N" 
			},
			{
				"x": -1.3245061799,
				"y": -0.0159913669,
				"z": 0.1176331842,
				"element": "C" 
			},
			{
				"x": -0.1426844738,
				"y": -0.2946271176,
				"z": -0.6120508311,
				"element": "C" 
			},
			{
				"x": 0.1780216196,
				"y": -1.6307313393,
				"z": -0.9180953802,
				"element": "C" 
			},
			{
				"x": -0.6840148733,
				"y": -2.6273058605,
				"z": -0.4887088984,
				"element": "C" 
			},
			{
				"x": -1.8592321664,
				"y": -2.3254611556,
				"z": 0.2390180523,
				"element": "C" 
			},
			{
				"x": -2.2011777815,
				"y": -1.0197809459,
				"z": 0.5551579268,
				"element": "C" 
			},
			{
				"x": 3.1122510916,
				"y": 0.594610037,
				"z": -2.4803990933,
				"element": "H" 
			},
			{
				"x": -2.0533776417,
				"y": 1.9138533571,
				"z": 0.7182532848,
				"element": "H" 
			},
			{
				"x": 1.0779236767,
				"y": -1.8615736149,
				"z": -1.4753329619,
				"element": "H" 
			},
			{
				"x": -0.4569136018,
				"y": -3.6651045143,
				"z": -0.7133016088,
				"element": "H" 
			},
			{
				"x": -2.507798227,
				"y": -3.1364045299,
				"z": 0.5568325741,
				"element": "H" 
			},
			{
				"x": -3.1026856964,
				"y": -0.7877830092,
				"z": 1.1134410246,
				"element": "H" 
			}
		],
		 "valence_orbital": [ 
			{
				"type": "occ",
				"energy": -0.3066,
				"method": "rhf"
			},
			{
				"type": "occ",
				"energy": -0.29828,
				"method": "rhf"
			},
			{
				"type": "occ",
				"energy": -0.2725,
				"method": "rhf"
			},
			{
				"type": "occ",
				"energy": -0.25231,
				"method": "rhf"
			},
			{
				"type": "occ",
				"energy": -0.23292,
				"method": "rhf"
			},
			{
				"type": "unocc",
				"energy": -0.05088,
				"method": "rhf"
			},
			{
				"type": "unocc",
				"energy": -0.00646,
				"method": "rhf"
			},
			{
				"type": "unocc",
				"energy": 0.01021,
				"method": "rhf"
			},
			{
				"type": "unocc",
				"energy": 0.07351,
				"method": "rhf"
			},
			{
				"type": "unocc",
				"energy": 0.08269,
				"method": "rhf"
			}
		],
		"cosmo_sigma_profile": { 
			"-0.025": 0.0,
			"-0.024": 0.0,
			"-0.023": 0.0,
			"-0.022": 0.0,
			"-0.021": 0.0,
			"-0.02": 0.0,
			"-0.019": 0.0871486488096,
			"-0.018": 0.768555713906,
			"-0.017": 2.78092735211,
			"-0.016": 2.42060622988,
			"-0.015": 1.88772530001,
			"-0.014": 1.94268517795,
			"-0.013": 2.00960888801,
			"-0.012": 1.13496717887,
			"-0.011": 1.93496174575,
			"-0.01": 1.43480500508,
			"-0.009": 1.79049844096,
			"-0.008": 2.08722301659,
			"-0.007": 4.46822274898,
			"-0.006": 7.75962907014,
			"-0.005": 8.26192782197,
			"-0.004": 10.0466671752,
			"-0.003": 8.81922452007,
			"-0.002": 9.88926163712,
			"-0.001": 8.28330312191,
			"0.0": 13.5473242362,
			"0.001": 14.3348836489,
			"0.002": 13.9148801406,
			"0.003": 14.6896999354,
			"0.004": 13.4196795849,
			"0.005": 8.14052757127,
			"0.006": 3.16328961155,
			"0.007": 2.69342774903,
			"0.008": 1.63114516623,
			"0.009": 2.6128210554,
			"0.01": 2.81979028882,
			"0.011": 5.0952878523,
			"0.012": 4.93825632314,
			"0.013": 2.81227643028,
			"0.014": 2.17389962254,
			"0.015": 0.837203194003,
			"0.016": 0.0,
			"0.017": 0.0,
			"0.018": 0.0,
			"0.019": 0.0,
			"0.02": 0.0,
			"0.021": 0.0,
			"0.022": 0.0,
			"0.023": 0.0,
			"0.024": 0.0,
			"0.025": 0.0
		}
	}
}
