{
	 "smiles": "OC1=CC(=C(C=C1)C#N)C(F)(F)F", 
	 "Tm": 395.15, 
	 "num_atms": 17, 
	 "gaussian": { 
		 "optdone": 1, 
		 "sigma_profile": "yes", 
		 "theory": "DFT", 
		 "functional": "B3LYP", 
		 "basiset": "6-31G**", 
		 "properties": { 
			 "R2extent": 2631.2309, 
			 "electric_dipole_moment_norm": 5.87735084711, 
			 "electric_quadrupole_moment_norm": 11.0443097222, 
			 "total_energy": -736.740170782, 
			 "HOMO_LUMO_gap": 0.1949, 
			 "cosmo_polarized_energy": -14.45, 
			 "cosmo_cavitation_energy": 24.2, 
			 "cosmo_dispersion_energy": -16.79, 
			 "cosmo_repulsion_energy": 1.27, 
			 "cosmo_total_nonelectrostatic_energy": 8.68, 
			 "SMD_solvation_energy": 6.88 
		},
		"coords": [
			{
				"x": 2.8264582499,
				"y": -0.6692398838,
				"z": 1.7533648195,
				"element": "O" 
			},
			{
				"x": 1.7582776306,
				"y": -1.0489763191,
				"z": 1.0093044632,
				"element": "C" 
			},
			{
				"x": 0.5485666701,
				"y": -0.3427218475,
				"z": 1.0110974495,
				"element": "C" 
			},
			{
				"x": -0.5171568706,
				"y": -0.7744132305,
				"z": 0.2294930471,
				"element": "C" 
			},
			{
				"x": -0.3869029784,
				"y": -1.9277084983,
				"z": -0.5712765442,
				"element": "C" 
			},
			{
				"x": 0.834405649,
				"y": -2.6252821141,
				"z": -0.56152638,
				"element": "C" 
			},
			{
				"x": 1.8981394893,
				"y": -2.1952762321,
				"z": 0.2179403514,
				"element": "C" 
			},
			{
				"x": -1.4537509134,
				"y": -2.4138408119,
				"z": -1.3938700324,
				"element": "C" 
			},
			{
				"x": -2.288367151,
				"y": -2.8487516132,
				"z": -2.0771709051,
				"element": "N" 
			},
			{
				"x": -1.8148030924,
				"y": 0.0028094487,
				"z": 0.245939471,
				"element": "C" 
			},
			{
				"x": -2.8401368797,
				"y": -0.7638131528,
				"z": 0.6652941369,
				"element": "F" 
			},
			{
				"x": -1.7443351449,
				"y": 1.071081242,
				"z": 1.0709575332,
				"element": "F" 
			},
			{
				"x": -2.1273227846,
				"y": 0.4611508528,
				"z": -0.9817145533,
				"element": "F" 
			},
			{
				"x": 2.6127249385,
				"y": 0.1293262514,
				"z": 2.2544351845,
				"element": "H" 
			},
			{
				"x": 0.4332816434,
				"y": 0.5465103948,
				"z": 1.6221079475,
				"element": "H" 
			},
			{
				"x": 0.9364976529,
				"y": -3.5126196181,
				"z": -1.1767847987,
				"element": "H" 
			},
			{
				"x": 2.8410238913,
				"y": -2.7306348683,
				"z": 0.2278088099,
				"element": "H" 
			}
		],
		 "valence_orbital": [ 
			{
				"type": "occ",
				"energy": -0.36071,
				"method": "rhf"
			},
			{
				"type": "occ",
				"energy": -0.33824,
				"method": "rhf"
			},
			{
				"type": "occ",
				"energy": -0.33315,
				"method": "rhf"
			},
			{
				"type": "occ",
				"energy": -0.29548,
				"method": "rhf"
			},
			{
				"type": "occ",
				"energy": -0.25574,
				"method": "rhf"
			},
			{
				"type": "unocc",
				"energy": -0.06084,
				"method": "rhf"
			},
			{
				"type": "unocc",
				"energy": -0.04379,
				"method": "rhf"
			},
			{
				"type": "unocc",
				"energy": 0.03029,
				"method": "rhf"
			},
			{
				"type": "unocc",
				"energy": 0.04345,
				"method": "rhf"
			},
			{
				"type": "unocc",
				"energy": 0.07326,
				"method": "rhf"
			}
		],
		"cosmo_sigma_profile": { 
			"-0.025": 0.0,
			"-0.024": 0.0,
			"-0.023": 0.0,
			"-0.022": 0.0,
			"-0.021": 0.0,
			"-0.02": 0.0284486331882,
			"-0.019": 1.01190548069,
			"-0.018": 1.74193277447,
			"-0.017": 1.04381560808,
			"-0.016": 1.05790709424,
			"-0.015": 1.09180729438,
			"-0.014": 1.31086194253,
			"-0.013": 1.08147747841,
			"-0.012": 0.373264837806,
			"-0.011": 1.09723464305,
			"-0.01": 1.45442774704,
			"-0.009": 2.07282305586,
			"-0.008": 5.34345345208,
			"-0.007": 6.17204480456,
			"-0.006": 5.01900346271,
			"-0.005": 4.66705291072,
			"-0.004": 7.02666115082,
			"-0.003": 6.5465657123,
			"-0.002": 11.5876903994,
			"-0.001": 16.7218127388,
			"0.0": 20.1930287013,
			"0.001": 18.5781902414,
			"0.002": 29.5563574222,
			"0.003": 13.9549815352,
			"0.004": 4.95917813672,
			"0.005": 4.34541612916,
			"0.006": 3.74400992079,
			"0.007": 4.17178326272,
			"0.008": 4.83070257467,
			"0.009": 4.73902167511,
			"0.01": 4.21046177418,
			"0.011": 2.59968070118,
			"0.012": 2.29649858889,
			"0.013": 1.14489456026,
			"0.014": 0.0,
			"0.015": 0.0,
			"0.016": 0.0,
			"0.017": 0.0,
			"0.018": 0.0,
			"0.019": 0.0,
			"0.02": 0.0,
			"0.021": 0.0,
			"0.022": 0.0,
			"0.023": 0.0,
			"0.024": 0.0,
			"0.025": 0.0
		}
	}
}
