{
	 "smiles": "CC1=CC=C(NC(=O)C(C(F)(F)F)C(F)(F)F)C=C1C", 
	 "Tm": 462.15, 
	 "num_atms": 31, 
	 "gaussian": { 
		 "optdone": 1, 
		 "sigma_profile": "yes", 
		 "theory": "DFT", 
		 "functional": "B3LYP", 
		 "basiset": "6-31G**", 
		 "properties": { 
			 "R2extent": 6778.2644, 
			 "electric_dipole_moment_norm": 4.05741805339, 
			 "electric_quadrupole_moment_norm": 6.79173547335, 
			 "total_energy": -1192.95042666, 
			 "HOMO_LUMO_gap": 0.22971, 
			 "cosmo_polarized_energy": -10.07, 
			 "cosmo_cavitation_energy": 36.28, 
			 "cosmo_dispersion_energy": -24.21, 
			 "cosmo_repulsion_energy": 1.76, 
			 "cosmo_total_nonelectrostatic_energy": 13.83, 
			 "SMD_solvation_energy": 8.73 
		},
		"coords": [
			{
				"x": -1.3680545149,
				"y": -1.3326212008,
				"z": 3.3615558169,
				"element": "C" 
			},
			{
				"x": -0.7425627559,
				"y": -0.9893441632,
				"z": 2.0313545463,
				"element": "C" 
			},
			{
				"x": -0.1301532817,
				"y": -1.9847780932,
				"z": 1.2625922892,
				"element": "C" 
			},
			{
				"x": 0.4562751115,
				"y": -1.7011143878,
				"z": 0.0299418811,
				"element": "C" 
			},
			{
				"x": 0.4200228228,
				"y": -0.3964537751,
				"z": -0.4578478495,
				"element": "C" 
			},
			{
				"x": 1.0923991832,
				"y": -0.0588089102,
				"z": -1.6836614085,
				"element": "N" 
			},
			{
				"x": 0.6683187252,
				"y": 0.0729793217,
				"z": -2.9774548792,
				"element": "C" 
			},
			{
				"x": 1.404591279,
				"y": 0.5418738092,
				"z": -3.8326843887,
				"element": "O" 
			},
			{
				"x": -0.7302127317,
				"y": -0.4150327336,
				"z": -3.4428008839,
				"element": "C" 
			},
			{
				"x": -0.792227514,
				"y": -1.930680179,
				"z": -3.6479450146,
				"element": "C" 
			},
			{
				"x": -0.747460092,
				"y": -2.626424291,
				"z": -2.4968543778,
				"element": "F" 
			},
			{
				"x": -1.9286860883,
				"y": -2.2760611247,
				"z": -4.2843997327,
				"element": "F" 
			},
			{
				"x": 0.2451743577,
				"y": -2.3315791679,
				"z": -4.4052213455,
				"element": "F" 
			},
			{
				"x": -1.9571271997,
				"y": 0.1352615667,
				"z": -2.7106555172,
				"element": "C" 
			},
			{
				"x": -2.3116329275,
				"y": -0.5750569039,
				"z": -1.6277587131,
				"element": "F" 
			},
			{
				"x": -3.019317222,
				"y": 0.1560844233,
				"z": -3.5399320247,
				"element": "F" 
			},
			{
				"x": -1.7262626811,
				"y": 1.4089771053,
				"z": -2.3203483184,
				"element": "F" 
			},
			{
				"x": -0.1745376151,
				"y": 0.6124521899,
				"z": 0.3063704806,
				"element": "C" 
			},
			{
				"x": -0.7626707314,
				"y": 0.3361545647,
				"z": 1.5429800359,
				"element": "C" 
			},
			{
				"x": -1.4081178735,
				"y": 1.4459556162,
				"z": 2.337892507,
				"element": "C" 
			},
			{
				"x": -0.9088312708,
				"y": -0.7683316469,
				"z": 4.1822047425,
				"element": "H" 
			},
			{
				"x": -2.4384905755,
				"y": -1.0947360075,
				"z": 3.3769282682,
				"element": "H" 
			},
			{
				"x": -1.2595767206,
				"y": -2.3966654322,
				"z": 3.5859824698,
				"element": "H" 
			},
			{
				"x": -0.1081094589,
				"y": -3.0042257095,
				"z": 1.6385769657,
				"element": "H" 
			},
			{
				"x": 0.9300504678,
				"y": -2.4817610091,
				"z": -0.5539427375,
				"element": "H" 
			},
			{
				"x": 2.0323022665,
				"y": 0.3125007336,
				"z": -1.591521928,
				"element": "H" 
			},
			{
				"x": -0.7904707938,
				"y": 0.0073267646,
				"z": -4.4477209611,
				"element": "H" 
			},
			{
				"x": -0.1881285978,
				"y": 1.6261257757,
				"z": -0.0823147094,
				"element": "H" 
			},
			{
				"x": -0.9442403878,
				"y": 1.5595937023,
				"z": 3.3251022403,
				"element": "H" 
			},
			{
				"x": -1.3261659296,
				"y": 2.4036075745,
				"z": 1.8178396514,
				"element": "H" 
			},
			{
				"x": -2.47319725,
				"y": 1.2502815879,
				"z": 2.5108428952,
				"element": "H" 
			}
		],
		 "valence_orbital": [ 
			{
				"type": "occ",
				"energy": -0.34825,
				"method": "rhf"
			},
			{
				"type": "occ",
				"energy": -0.27348,
				"method": "rhf"
			},
			{
				"type": "occ",
				"energy": -0.27028,
				"method": "rhf"
			},
			{
				"type": "occ",
				"energy": -0.25575,
				"method": "rhf"
			},
			{
				"type": "occ",
				"energy": -0.24722,
				"method": "rhf"
			},
			{
				"type": "unocc",
				"energy": -0.01751,
				"method": "rhf"
			},
			{
				"type": "unocc",
				"energy": -0.01114,
				"method": "rhf"
			},
			{
				"type": "unocc",
				"energy": 0.00117,
				"method": "rhf"
			},
			{
				"type": "unocc",
				"energy": 0.08287,
				"method": "rhf"
			},
			{
				"type": "unocc",
				"energy": 0.08528,
				"method": "rhf"
			}
		],
		"cosmo_sigma_profile": { 
			"-0.025": 0.0,
			"-0.024": 0.0,
			"-0.023": 0.0,
			"-0.022": 0.0,
			"-0.021": 0.0,
			"-0.02": 0.0,
			"-0.019": 0.0,
			"-0.018": 0.0,
			"-0.017": 0.0,
			"-0.016": 0.0,
			"-0.015": 0.428161704168,
			"-0.014": 1.24945427552,
			"-0.013": 0.528859190588,
			"-0.012": 0.919322111413,
			"-0.011": 1.90715145179,
			"-0.01": 3.41925846593,
			"-0.009": 1.81723217226,
			"-0.008": 1.79769375868,
			"-0.007": 1.95856172903,
			"-0.006": 4.2714637561,
			"-0.005": 12.5005993734,
			"-0.004": 21.7167003739,
			"-0.003": 19.785407865,
			"-0.002": 23.5983944206,
			"-0.001": 24.1591082122,
			"0.0": 30.8583695254,
			"0.001": 31.6764171819,
			"0.002": 50.6082777986,
			"0.003": 17.9780654088,
			"0.004": 11.2614844102,
			"0.005": 8.4663811571,
			"0.006": 1.88501779657,
			"0.007": 0.611719563964,
			"0.008": 1.18669163743,
			"0.009": 1.71844992945,
			"0.01": 1.6610545017,
			"0.011": 2.04932846115,
			"0.012": 5.0993035577,
			"0.013": 2.3053158725,
			"0.014": 0.0,
			"0.015": 0.0,
			"0.016": 0.0,
			"0.017": 0.0,
			"0.018": 0.0,
			"0.019": 0.0,
			"0.02": 0.0,
			"0.021": 0.0,
			"0.022": 0.0,
			"0.023": 0.0,
			"0.024": 0.0,
			"0.025": 0.0
		}
	}
}
