{
	 "smiles": "OC1=CC=C(C=C1)C(=O)CCl", 
	 "Tm": 416.15, 
	 "num_atms": 18, 
	 "gaussian": { 
		 "optdone": 1, 
		 "sigma_profile": "yes", 
		 "theory": "DFT", 
		 "functional": "B3LYP", 
		 "basiset": "6-31G**", 
		 "properties": { 
			 "R2extent": 2789.5051, 
			 "electric_dipole_moment_norm": 3.41121624937, 
			 "electric_quadrupole_moment_norm": 11.5679428569, 
			 "total_energy": -919.705317083, 
			 "HOMO_LUMO_gap": 0.17527, 
			 "cosmo_polarized_energy": -13.28, 
			 "cosmo_cavitation_energy": 24.26, 
			 "cosmo_dispersion_energy": -17.93, 
			 "cosmo_repulsion_energy": 1.45, 
			 "cosmo_total_nonelectrostatic_energy": 7.77, 
			 "SMD_solvation_energy": 4.85 
		},
		"coords": [
			{
				"x": 2.6873997712,
				"y": 2.8763573374,
				"z": 0.3698543606,
				"element": "O" 
			},
			{
				"x": 2.0213050374,
				"y": 1.7103677359,
				"z": 0.1650265269,
				"element": "C" 
			},
			{
				"x": 2.3206210987,
				"y": 0.6399604611,
				"z": 1.0188330734,
				"element": "C" 
			},
			{
				"x": 1.6686736919,
				"y": -0.5744421984,
				"z": 0.8545624638,
				"element": "C" 
			},
			{
				"x": 0.710772068,
				"y": -0.7498828792,
				"z": -0.1609515386,
				"element": "C" 
			},
			{
				"x": 0.4232787822,
				"y": 0.3345479265,
				"z": -1.0076943549,
				"element": "C" 
			},
			{
				"x": 1.0665844839,
				"y": 1.5531984173,
				"z": -0.8513863245,
				"element": "C" 
			},
			{
				"x": 0.0009380635,
				"y": -2.0285640284,
				"z": -0.4089312773,
				"element": "C" 
			},
			{
				"x": -0.7841255507,
				"y": -2.1672754566,
				"z": -1.3358716835,
				"element": "O" 
			},
			{
				"x": 0.2765308003,
				"y": -3.2425584508,
				"z": 0.4859384905,
				"element": "C" 
			},
			{
				"x": -0.3965765882,
				"y": -3.0240494904,
				"z": 2.1597173737,
				"element": "Cl" 
			},
			{
				"x": 2.3920113795,
				"y": 3.5344027941,
				"z": -0.2735328537,
				"element": "H" 
			},
			{
				"x": 3.0588508121,
				"y": 0.7841305074,
				"z": 1.800175698,
				"element": "H" 
			},
			{
				"x": 1.9018543465,
				"y": -1.3852793939,
				"z": 1.5360207554,
				"element": "H" 
			},
			{
				"x": -0.3146138841,
				"y": 0.1923521728,
				"z": -1.7899901265,
				"element": "H" 
			},
			{
				"x": 0.8350000032,
				"y": 2.385455508,
				"z": -1.5127791137,
				"element": "H" 
			},
			{
				"x": -0.2277778004,
				"y": -4.1015692134,
				"z": 0.047905372,
				"element": "H" 
			},
			{
				"x": 1.3438734851,
				"y": -3.4433517496,
				"z": 0.5967031584,
				"element": "H" 
			}
		],
		 "valence_orbital": [ 
			{
				"type": "occ",
				"energy": -0.31427,
				"method": "rhf"
			},
			{
				"type": "occ",
				"energy": -0.30359,
				"method": "rhf"
			},
			{
				"type": "occ",
				"energy": -0.26974,
				"method": "rhf"
			},
			{
				"type": "occ",
				"energy": -0.25672,
				"method": "rhf"
			},
			{
				"type": "occ",
				"energy": -0.2401,
				"method": "rhf"
			},
			{
				"type": "unocc",
				"energy": -0.06483,
				"method": "rhf"
			},
			{
				"type": "unocc",
				"energy": -0.01748,
				"method": "rhf"
			},
			{
				"type": "unocc",
				"energy": 0.0083,
				"method": "rhf"
			},
			{
				"type": "unocc",
				"energy": 0.0557,
				"method": "rhf"
			},
			{
				"type": "unocc",
				"energy": 0.05767,
				"method": "rhf"
			}
		],
		"cosmo_sigma_profile": { 
			"-0.025": 0.0,
			"-0.024": 0.0,
			"-0.023": 0.0,
			"-0.022": 0.0,
			"-0.021": 0.0,
			"-0.02": 0.0,
			"-0.019": 0.120445759594,
			"-0.018": 1.20700157824,
			"-0.017": 1.33598408328,
			"-0.016": 0.841970483626,
			"-0.015": 1.1613727861,
			"-0.014": 1.13702365575,
			"-0.013": 1.45979864851,
			"-0.012": 0.759306933243,
			"-0.011": 0.72831947888,
			"-0.01": 0.894042769542,
			"-0.009": 3.84137512999,
			"-0.008": 5.71332114505,
			"-0.007": 8.1444060169,
			"-0.006": 9.49209156422,
			"-0.005": 11.2874314736,
			"-0.004": 8.0325207531,
			"-0.003": 7.07043773941,
			"-0.002": 7.39653457575,
			"-0.001": 8.3057073539,
			"0.0": 11.7718618162,
			"0.001": 13.4962734666,
			"0.002": 16.9051850124,
			"0.003": 22.7785751088,
			"0.004": 14.0227320823,
			"0.005": 11.760112337,
			"0.006": 6.08562519642,
			"0.007": 2.49623709322,
			"0.008": 3.05936039355,
			"0.009": 3.10089415335,
			"0.01": 4.44457823431,
			"0.011": 4.35102554147,
			"0.012": 2.52088943421,
			"0.013": 0.252275645477,
			"0.014": 0.0,
			"0.015": 0.0,
			"0.016": 0.0,
			"0.017": 0.0,
			"0.018": 0.0,
			"0.019": 0.0,
			"0.02": 0.0,
			"0.021": 0.0,
			"0.022": 0.0,
			"0.023": 0.0,
			"0.024": 0.0,
			"0.025": 0.0
		}
	}
}
