{
	 "smiles": "NC1=C(C(O)=O)C(Cl)=CC=C1F", 
	 "Tm": 435.15, 
	 "num_atms": 17, 
	 "gaussian": { 
		 "optdone": 1, 
		 "sigma_profile": "yes", 
		 "theory": "DFT", 
		 "functional": "B3LYP", 
		 "basiset": "6-31G**", 
		 "properties": { 
			 "R2extent": 3241.4387, 
			 "electric_dipole_moment_norm": 1.12229848525, 
			 "electric_quadrupole_moment_norm": 4.86777844915, 
			 "total_energy": -1034.99997436, 
			 "HOMO_LUMO_gap": 0.15951, 
			 "cosmo_polarized_energy": -9.19, 
			 "cosmo_cavitation_energy": 23.33, 
			 "cosmo_dispersion_energy": -17.97, 
			 "cosmo_repulsion_energy": 1.4, 
			 "cosmo_total_nonelectrostatic_energy": 6.76, 
			 "SMD_solvation_energy": 5.24 
		},
		"coords": [
			{
				"x": -0.4683348565,
				"y": 1.9347281602,
				"z": 1.1269939114,
				"element": "N" 
			},
			{
				"x": -0.682096629,
				"y": 0.7175517002,
				"z": 0.569137607,
				"element": "C" 
			},
			{
				"x": -1.8794072105,
				"y": -0.0542429082,
				"z": 0.7373745742,
				"element": "C" 
			},
			{
				"x": -2.9375266859,
				"y": 0.5410704095,
				"z": 1.5829677229,
				"element": "C" 
			},
			{
				"x": -4.1311982036,
				"y": -0.0785582544,
				"z": 1.5670542302,
				"element": "O" 
			},
			{
				"x": -2.7909101876,
				"y": 1.5551186306,
				"z": 2.2629163394,
				"element": "O" 
			},
			{
				"x": -1.946078766,
				"y": -1.3158534939,
				"z": 0.0775888102,
				"element": "C" 
			},
			{
				"x": -3.3122242886,
				"y": -2.4101642727,
				"z": 0.2323977777,
				"element": "Cl" 
			},
			{
				"x": -0.9133420184,
				"y": -1.7900500068,
				"z": -0.7166542524,
				"element": "C" 
			},
			{
				"x": 0.2449901739,
				"y": -1.0198157246,
				"z": -0.8885663754,
				"element": "C" 
			},
			{
				"x": 0.337972641,
				"y": 0.191028665,
				"z": -0.2560022431,
				"element": "C" 
			},
			{
				"x": 1.4533424598,
				"y": 0.9541027464,
				"z": -0.3935158513,
				"element": "F" 
			},
			{
				"x": 0.4361828646,
				"y": 2.358073034,
				"z": 1.0068688726,
				"element": "H" 
			},
			{
				"x": -1.1358251605,
				"y": 2.2685761684,
				"z": 1.8092325549,
				"element": "H" 
			},
			{
				"x": -4.6922555794,
				"y": 0.4425267619,
				"z": 2.1661920178,
				"element": "H" 
			},
			{
				"x": -1.0048843331,
				"y": -2.7569126456,
				"z": -1.194390874,
				"element": "H" 
			},
			{
				"x": 1.0679957798,
				"y": -1.3667789698,
				"z": -1.5038948222,
				"element": "H" 
			}
		],
		 "valence_orbital": [ 
			{
				"type": "occ",
				"energy": -0.3111,
				"method": "rhf"
			},
			{
				"type": "occ",
				"energy": -0.30333,
				"method": "rhf"
			},
			{
				"type": "occ",
				"energy": -0.28623,
				"method": "rhf"
			},
			{
				"type": "occ",
				"energy": -0.25874,
				"method": "rhf"
			},
			{
				"type": "occ",
				"energy": -0.21401,
				"method": "rhf"
			},
			{
				"type": "unocc",
				"energy": -0.0545,
				"method": "rhf"
			},
			{
				"type": "unocc",
				"energy": -0.00089,
				"method": "rhf"
			},
			{
				"type": "unocc",
				"energy": 0.02633,
				"method": "rhf"
			},
			{
				"type": "unocc",
				"energy": 0.04838,
				"method": "rhf"
			},
			{
				"type": "unocc",
				"energy": 0.08094,
				"method": "rhf"
			}
		],
		"cosmo_sigma_profile": { 
			"-0.025": 0.0,
			"-0.024": 0.0,
			"-0.023": 0.0,
			"-0.022": 0.0,
			"-0.021": 0.0,
			"-0.02": 0.0,
			"-0.019": 0.0115942787274,
			"-0.018": 0.68727295629,
			"-0.017": 1.15425151408,
			"-0.016": 0.628801342183,
			"-0.015": 0.703089139997,
			"-0.014": 0.795450243517,
			"-0.013": 0.923635159251,
			"-0.012": 1.80729484299,
			"-0.011": 2.58631195951,
			"-0.01": 1.15448483558,
			"-0.009": 2.39925423375,
			"-0.008": 4.7108518017,
			"-0.007": 5.31457694144,
			"-0.006": 6.41414596392,
			"-0.005": 6.21494150285,
			"-0.004": 5.320145106,
			"-0.003": 5.59181154046,
			"-0.002": 9.61284819795,
			"-0.001": 13.364425713,
			"0.0": 17.4967481148,
			"0.001": 23.0325905901,
			"0.002": 19.6862431152,
			"0.003": 17.5675214547,
			"0.004": 15.4230801158,
			"0.005": 7.08903194246,
			"0.006": 4.44348686738,
			"0.007": 4.21609834307,
			"0.008": 3.12682768554,
			"0.009": 3.39676839322,
			"0.01": 1.85469660588,
			"0.011": 2.03829011073,
			"0.012": 0.68745073587,
			"0.013": 0.0,
			"0.014": 0.0,
			"0.015": 0.0,
			"0.016": 0.0,
			"0.017": 0.0,
			"0.018": 0.0,
			"0.019": 0.0,
			"0.02": 0.0,
			"0.021": 0.0,
			"0.022": 0.0,
			"0.023": 0.0,
			"0.024": 0.0,
			"0.025": 0.0
		}
	}
}
