{
	 "smiles": "CC1=CC(=CC(=C1)C(O)=O)[N+]([O-])=O", 
	 "Tm": 443.15, 
	 "num_atms": 20, 
	 "gaussian": { 
		 "optdone": 1, 
		 "sigma_profile": "yes", 
		 "theory": "DFT", 
		 "functional": "B3LYP", 
		 "basiset": "6-31G**", 
		 "properties": { 
			 "R2extent": 3368.6528, 
			 "electric_dipole_moment_norm": 6.66490050113, 
			 "electric_quadrupole_moment_norm": 17.0400047793, 
			 "total_energy": -664.628538479, 
			 "HOMO_LUMO_gap": 0.1794, 
			 "cosmo_polarized_energy": -18.5, 
			 "cosmo_cavitation_energy": 25.74, 
			 "cosmo_dispersion_energy": -18.69, 
			 "cosmo_repulsion_energy": 1.48, 
			 "cosmo_total_nonelectrostatic_energy": 8.54, 
			 "SMD_solvation_energy": 8.0 
		},
		"coords": [
			{
				"x": -2.2071492637,
				"y": 2.3454100048,
				"z": 2.2202308412,
				"element": "C" 
			},
			{
				"x": -1.0090551373,
				"y": 1.8925858944,
				"z": 1.4205006181,
				"element": "C" 
			},
			{
				"x": 0.2026887331,
				"y": 1.6012007813,
				"z": 2.0557296381,
				"element": "C" 
			},
			{
				"x": 1.2943643659,
				"y": 1.1843785616,
				"z": 1.2979211277,
				"element": "C" 
			},
			{
				"x": 1.2366631538,
				"y": 1.0422319218,
				"z": -0.0820553746,
				"element": "C" 
			},
			{
				"x": 0.0234238162,
				"y": 1.3095936634,
				"z": -0.7222164388,
				"element": "C" 
			},
			{
				"x": -1.0792617336,
				"y": 1.7401819172,
				"z": 0.0295570163,
				"element": "C" 
			},
			{
				"x": -0.0136226373,
				"y": 1.1626850069,
				"z": -2.2181923752,
				"element": "C" 
			},
			{
				"x": -1.2359425576,
				"y": 0.989669057,
				"z": -2.7854918322,
				"element": "O" 
			},
			{
				"x": 0.9777993964,
				"y": 1.1962693173,
				"z": -2.9051895528,
				"element": "O" 
			},
			{
				"x": 2.5657009252,
				"y": 0.8920351418,
				"z": 1.9917238086,
				"element": "N" 
			},
			{
				"x": 3.5124303187,
				"y": 0.5157175564,
				"z": 1.3059661972,
				"element": "O" 
			},
			{
				"x": 2.5928235222,
				"y": 1.0431687095,
				"z": 3.2121369672,
				"element": "O" 
			},
			{
				"x": -2.9482768896,
				"y": 2.8391927124,
				"z": 1.5861656313,
				"element": "H" 
			},
			{
				"x": -1.916528846,
				"y": 3.0439311286,
				"z": 3.0101281991,
				"element": "H" 
			},
			{
				"x": -2.6995543832,
				"y": 1.4936750901,
				"z": 2.7043298659,
				"element": "H" 
			},
			{
				"x": 0.3160771917,
				"y": 1.7007913309,
				"z": 3.1288432735,
				"element": "H" 
			},
			{
				"x": 2.1048857103,
				"y": 0.7361338405,
				"z": -0.6510454792,
				"element": "H" 
			},
			{
				"x": -2.0090252126,
				"y": 2.0050989668,
				"z": -0.4693033056,
				"element": "H" 
			},
			{
				"x": -1.9022404728,
				"y": 0.8072493973,
				"z": -2.108738826,
				"element": "H" 
			}
		],
		 "valence_orbital": [ 
			{
				"type": "occ",
				"energy": -0.31672,
				"method": "rhf"
			},
			{
				"type": "occ",
				"energy": -0.3012,
				"method": "rhf"
			},
			{
				"type": "occ",
				"energy": -0.30069,
				"method": "rhf"
			},
			{
				"type": "occ",
				"energy": -0.29174,
				"method": "rhf"
			},
			{
				"type": "occ",
				"energy": -0.28083,
				"method": "rhf"
			},
			{
				"type": "unocc",
				"energy": -0.10143,
				"method": "rhf"
			},
			{
				"type": "unocc",
				"energy": -0.06814,
				"method": "rhf"
			},
			{
				"type": "unocc",
				"energy": -0.02277,
				"method": "rhf"
			},
			{
				"type": "unocc",
				"energy": 0.03416,
				"method": "rhf"
			},
			{
				"type": "unocc",
				"energy": 0.04605,
				"method": "rhf"
			}
		],
		"cosmo_sigma_profile": { 
			"-0.025": 0.0,
			"-0.024": 0.0,
			"-0.023": 0.0,
			"-0.022": 0.0,
			"-0.021": 0.0,
			"-0.02": 0.0302175349407,
			"-0.019": 0.646947220121,
			"-0.018": 1.29019310886,
			"-0.017": 0.77869339373,
			"-0.016": 1.38732957923,
			"-0.015": 0.703669170343,
			"-0.014": 1.16620005073,
			"-0.013": 1.13368249894,
			"-0.012": 1.44890802691,
			"-0.011": 0.656976308716,
			"-0.01": 1.23367032546,
			"-0.009": 2.32944026789,
			"-0.008": 2.69117212625,
			"-0.007": 5.75861191296,
			"-0.006": 7.7106621468,
			"-0.005": 13.4373825091,
			"-0.004": 14.0316088076,
			"-0.003": 15.3179691105,
			"-0.002": 19.5664840384,
			"-0.001": 20.4781929268,
			"0.0": 17.6843503491,
			"0.001": 7.76835553021,
			"0.002": 4.01146511979,
			"0.003": 4.03744146825,
			"0.004": 4.55315749092,
			"0.005": 5.76475294902,
			"0.006": 6.76716072278,
			"0.007": 11.7248379505,
			"0.008": 8.49797014199,
			"0.009": 7.86871974136,
			"0.01": 6.88264581074,
			"0.011": 5.31268216723,
			"0.012": 2.79896905166,
			"0.013": 0.512529992148,
			"0.014": 0.0,
			"0.015": 0.0,
			"0.016": 0.0,
			"0.017": 0.0,
			"0.018": 0.0,
			"0.019": 0.0,
			"0.02": 0.0,
			"0.021": 0.0,
			"0.022": 0.0,
			"0.023": 0.0,
			"0.024": 0.0,
			"0.025": 0.0
		}
	}
}
