{
	 "smiles": "CC1=NN=C(C=C1)N1CCC2=C(C1)C=CC=C2N", 
	 "Tm": 418.15, 
	 "num_atms": 34, 
	 "gaussian": { 
		 "optdone": 1, 
		 "sigma_profile": "yes", 
		 "theory": "DFT", 
		 "functional": "B3LYP", 
		 "basiset": "6-31G**", 
		 "properties": { 
			 "R2extent": 6938.0872, 
			 "electric_dipole_moment_norm": 3.28819921994, 
			 "electric_quadrupole_moment_norm": 20.8382824223, 
			 "total_energy": -762.116786816, 
			 "HOMO_LUMO_gap": 0.16516, 
			 "cosmo_polarized_energy": -16.73, 
			 "cosmo_cavitation_energy": 35.82, 
			 "cosmo_dispersion_energy": -26.7, 
			 "cosmo_repulsion_energy": 2.04, 
			 "cosmo_total_nonelectrostatic_energy": 11.16, 
			 "SMD_solvation_energy": 3.1 
		},
		"coords": [
			{
				"x": -1.0855701155,
				"y": -6.7587668728,
				"z": 2.3386062331,
				"element": "C" 
			},
			{
				"x": -0.7736502981,
				"y": -5.3590766913,
				"z": 1.8781476681,
				"element": "C" 
			},
			{
				"x": -1.7752859866,
				"y": -4.6729117585,
				"z": 1.3197043608,
				"element": "N" 
			},
			{
				"x": -1.5926413213,
				"y": -3.4346456001,
				"z": 0.8756472901,
				"element": "N" 
			},
			{
				"x": -0.3891389234,
				"y": -2.8336771553,
				"z": 0.9660926956,
				"element": "C" 
			},
			{
				"x": 0.7066459981,
				"y": -3.4957676086,
				"z": 1.576921804,
				"element": "C" 
			},
			{
				"x": 0.4987457794,
				"y": -4.7786225174,
				"z": 2.0299393434,
				"element": "C" 
			},
			{
				"x": -0.2859245642,
				"y": -1.5665988851,
				"z": 0.4252997715,
				"element": "N" 
			},
			{
				"x": -1.4902173029,
				"y": -0.7937682732,
				"z": 0.1215100269,
				"element": "C" 
			},
			{
				"x": -1.3005708154,
				"y": -0.0156873387,
				"z": -1.1784135245,
				"element": "C" 
			},
			{
				"x": -0.0174391219,
				"y": 0.7833623573,
				"z": -1.1611137249,
				"element": "C" 
			},
			{
				"x": 1.015518916,
				"y": 0.4368496341,
				"z": -0.2839440333,
				"element": "C" 
			},
			{
				"x": 0.9339792231,
				"y": -0.7945756282,
				"z": 0.6034061704,
				"element": "C" 
			},
			{
				"x": 2.1801687479,
				"y": 1.2137657961,
				"z": -0.2129890507,
				"element": "C" 
			},
			{
				"x": 2.3187079002,
				"y": 2.3313943413,
				"z": -1.0293648338,
				"element": "C" 
			},
			{
				"x": 1.3121588193,
				"y": 2.6731156708,
				"z": -1.93063291,
				"element": "C" 
			},
			{
				"x": 0.1427117943,
				"y": 1.9054759201,
				"z": -2.0089693941,
				"element": "C" 
			},
			{
				"x": -0.8932387518,
				"y": 2.2780489268,
				"z": -2.8748293356,
				"element": "N" 
			},
			{
				"x": -0.4705914218,
				"y": -7.5005644431,
				"z": 1.8153672388,
				"element": "H" 
			},
			{
				"x": -0.8990381356,
				"y": -6.8808108417,
				"z": 3.41207507,
				"element": "H" 
			},
			{
				"x": -2.136565507,
				"y": -6.9768090151,
				"z": 2.1404300667,
				"element": "H" 
			},
			{
				"x": 1.669940521,
				"y": -3.0169847597,
				"z": 1.7009347138,
				"element": "H" 
			},
			{
				"x": 1.3021857162,
				"y": -5.3325829419,
				"z": 2.5083060914,
				"element": "H" 
			},
			{
				"x": -1.700447037,
				"y": -0.0907735772,
				"z": 0.9437841619,
				"element": "H" 
			},
			{
				"x": -2.3231317545,
				"y": -1.4901293412,
				"z": 0.0523802065,
				"element": "H" 
			},
			{
				"x": -1.3146353452,
				"y": -0.720218343,
				"z": -2.0236913663,
				"element": "H" 
			},
			{
				"x": -2.1558643017,
				"y": 0.6586997189,
				"z": -1.3123388541,
				"element": "H" 
			},
			{
				"x": 1.79212543,
				"y": -1.4311371498,
				"z": 0.3582609226,
				"element": "H" 
			},
			{
				"x": 1.064291208,
				"y": -0.4897316299,
				"z": 1.6581848841,
				"element": "H" 
			},
			{
				"x": 2.9729422669,
				"y": 0.9379694128,
				"z": 0.4779505572,
				"element": "H" 
			},
			{
				"x": 3.2200485115,
				"y": 2.935584945,
				"z": -0.9774057006,
				"element": "H" 
			},
			{
				"x": 1.4272492934,
				"y": 3.539692346,
				"z": -2.5775037254,
				"element": "H" 
			},
			{
				"x": -0.6168800811,
				"y": 2.9363869107,
				"z": -3.5908654087,
				"element": "H" 
			},
			{
				"x": -1.4234893406,
				"y": 1.512594392,
				"z": -3.2682874151,
				"element": "H" 
			}
		],
		 "valence_orbital": [ 
			{
				"type": "occ",
				"energy": -0.28727,
				"method": "rhf"
			},
			{
				"type": "occ",
				"energy": -0.23658,
				"method": "rhf"
			},
			{
				"type": "occ",
				"energy": -0.21274,
				"method": "rhf"
			},
			{
				"type": "occ",
				"energy": -0.20699,
				"method": "rhf"
			},
			{
				"type": "occ",
				"energy": -0.19848,
				"method": "rhf"
			},
			{
				"type": "unocc",
				"energy": -0.03332,
				"method": "rhf"
			},
			{
				"type": "unocc",
				"energy": 0.00308,
				"method": "rhf"
			},
			{
				"type": "unocc",
				"energy": 0.0057,
				"method": "rhf"
			},
			{
				"type": "unocc",
				"energy": 0.01531,
				"method": "rhf"
			},
			{
				"type": "unocc",
				"energy": 0.07804,
				"method": "rhf"
			}
		],
		"cosmo_sigma_profile": { 
			"-0.025": 0.0,
			"-0.024": 0.0,
			"-0.023": 0.0,
			"-0.022": 0.0,
			"-0.021": 0.0,
			"-0.02": 0.0,
			"-0.019": 0.0,
			"-0.018": 0.0,
			"-0.017": 0.0,
			"-0.016": 0.0,
			"-0.015": 0.0,
			"-0.014": 0.0,
			"-0.013": 0.0,
			"-0.012": 1.19987624732,
			"-0.011": 2.70266673419,
			"-0.01": 2.35660611104,
			"-0.009": 3.90363579655,
			"-0.008": 4.79372814898,
			"-0.007": 7.89499247757,
			"-0.006": 9.22772975713,
			"-0.005": 15.1888020365,
			"-0.004": 27.7009711149,
			"-0.003": 29.0207092014,
			"-0.002": 25.4598349134,
			"-0.001": 21.2372760743,
			"0.0": 21.4168902189,
			"0.001": 18.5549722494,
			"0.002": 15.037557184,
			"0.003": 12.1362770156,
			"0.004": 10.8315724943,
			"0.005": 9.68293867381,
			"0.006": 11.0988788674,
			"0.007": 9.64849080967,
			"0.008": 4.06203273405,
			"0.009": 2.76035807607,
			"0.01": 2.68722997184,
			"0.011": 2.65928169823,
			"0.012": 2.77075804363,
			"0.013": 2.07774636325,
			"0.014": 2.4566281129,
			"0.015": 2.84018804872,
			"0.016": 1.52825404835,
			"0.017": 0.514314810233,
			"0.018": 0.00875723950073,
			"0.019": 0.0,
			"0.02": 0.0,
			"0.021": 0.0,
			"0.022": 0.0,
			"0.023": 0.0,
			"0.024": 0.0,
			"0.025": 0.0
		}
	}
}
