{
	 "smiles": "OC(=O)CCC12CC3CC(CC(C3)C1)C2", 
	 "Tm": 421.15, 
	 "num_atms": 35, 
	 "gaussian": { 
		 "optdone": 1, 
		 "sigma_profile": "yes", 
		 "theory": "DFT", 
		 "functional": "B3LYP", 
		 "basiset": "6-31G**", 
		 "properties": { 
			 "R2extent": 3312.1874, 
			 "electric_dipole_moment_norm": 1.61659245019, 
			 "electric_quadrupole_moment_norm": 9.66441138301, 
			 "total_energy": -657.936823427, 
			 "HOMO_LUMO_gap": 0.27871, 
			 "cosmo_polarized_energy": -7.9, 
			 "cosmo_cavitation_energy": 32.15, 
			 "cosmo_dispersion_energy": -23.53, 
			 "cosmo_repulsion_energy": 1.81, 
			 "cosmo_total_nonelectrostatic_energy": 10.43, 
			 "SMD_solvation_energy": 4.84 
		},
		"coords": [
			{
				"x": -0.3283859148,
				"y": -1.7009484351,
				"z": -3.4402978923,
				"element": "O" 
			},
			{
				"x": -0.6788503626,
				"y": -0.3886745128,
				"z": -3.4251173573,
				"element": "C" 
			},
			{
				"x": -0.1487328879,
				"y": 0.4257492464,
				"z": -4.149801327,
				"element": "O" 
			},
			{
				"x": -1.8075726233,
				"y": -0.1101496259,
				"z": -2.4559525467,
				"element": "C" 
			},
			{
				"x": -1.6359606602,
				"y": -0.6722534989,
				"z": -1.028378181,
				"element": "C" 
			},
			{
				"x": -0.6548326781,
				"y": 0.0533058732,
				"z": -0.0795770354,
				"element": "C" 
			},
			{
				"x": -0.6433534163,
				"y": -0.7103718117,
				"z": 1.2709452756,
				"element": "C" 
			},
			{
				"x": 0.3054022815,
				"y": -0.0393638266,
				"z": 2.2835169242,
				"element": "C" 
			},
			{
				"x": -0.1602859938,
				"y": 1.4087071787,
				"z": 2.5373947341,
				"element": "C" 
			},
			{
				"x": -0.1486375676,
				"y": 2.1911334011,
				"z": 1.2085600778,
				"element": "C" 
			},
			{
				"x": 1.2827994387,
				"y": 2.2034304485,
				"z": 0.6335097424,
				"element": "C" 
			},
			{
				"x": 1.748596286,
				"y": 0.7547641302,
				"z": 0.3803606673,
				"element": "C" 
			},
			{
				"x": 1.7365113446,
				"y": -0.0274125453,
				"z": 1.7090235572,
				"element": "C" 
			},
			{
				"x": 0.7942157971,
				"y": 0.081544235,
				"z": -0.6294035763,
				"element": "C" 
			},
			{
				"x": -1.0996302829,
				"y": 1.5116581807,
				"z": 0.2000724771,
				"element": "C" 
			},
			{
				"x": 0.3801722412,
				"y": -1.7776101842,
				"z": -4.1011681262,
				"element": "H" 
			},
			{
				"x": -2.7012779278,
				"y": -0.5720493967,
				"z": -2.8956464145,
				"element": "H" 
			},
			{
				"x": -1.9710301825,
				"y": 0.9691786917,
				"z": -2.4599242392,
				"element": "H" 
			},
			{
				"x": -2.6258287797,
				"y": -0.6628776331,
				"z": -0.5535167367,
				"element": "H" 
			},
			{
				"x": -1.3439731382,
				"y": -1.7260569436,
				"z": -1.1061489749,
				"element": "H" 
			},
			{
				"x": -0.334147494,
				"y": -1.7507645069,
				"z": 1.0998546031,
				"element": "H" 
			},
			{
				"x": -1.6626510926,
				"y": -0.747754349,
				"z": 1.6801120524,
				"element": "H" 
			},
			{
				"x": 0.2894158138,
				"y": -0.6033584649,
				"z": 3.2250160074,
				"element": "H" 
			},
			{
				"x": 0.498859217,
				"y": 1.8955374145,
				"z": 3.2681740008,
				"element": "H" 
			},
			{
				"x": -1.1703559056,
				"y": 1.4103965374,
				"z": 2.9683321302,
				"element": "H" 
			},
			{
				"x": -0.4844905203,
				"y": 3.221203583,
				"z": 1.3838552198,
				"element": "H" 
			},
			{
				"x": 1.3091019984,
				"y": 2.7768596682,
				"z": -0.3023374574,
				"element": "H" 
			},
			{
				"x": 1.9656572326,
				"y": 2.7029546383,
				"z": 1.3332964173,
				"element": "H" 
			},
			{
				"x": 2.7645863382,
				"y": 0.7622446031,
				"z": -0.0344901961,
				"element": "H" 
			},
			{
				"x": 2.4281195247,
				"y": 0.4345091437,
				"z": 2.4259108339,
				"element": "H" 
			},
			{
				"x": 2.0860869072,
				"y": -1.0555013317,
				"z": 1.5456893143,
				"element": "H" 
			},
			{
				"x": 0.8286544437,
				"y": 0.6324506088,
				"z": -1.5769009893,
				"element": "H" 
			},
			{
				"x": 1.1287405058,
				"y": -0.9429070016,
				"z": -0.8415171592,
				"element": "H" 
			},
			{
				"x": -1.1134285908,
				"y": 2.0911921263,
				"z": -0.7317479192,
				"element": "H" 
			},
			{
				"x": -2.1266933516,
				"y": 1.5145343591,
				"z": 0.5917020937,
				"element": "H" 
			}
		],
		 "valence_orbital": [ 
			{
				"type": "occ",
				"energy": -0.3105,
				"method": "rhf"
			},
			{
				"type": "occ",
				"energy": -0.27779,
				"method": "rhf"
			},
			{
				"type": "occ",
				"energy": -0.2755,
				"method": "rhf"
			},
			{
				"type": "occ",
				"energy": -0.27403,
				"method": "rhf"
			},
			{
				"type": "occ",
				"energy": -0.26744,
				"method": "rhf"
			},
			{
				"type": "unocc",
				"energy": 0.01127,
				"method": "rhf"
			},
			{
				"type": "unocc",
				"energy": 0.06516,
				"method": "rhf"
			},
			{
				"type": "unocc",
				"energy": 0.07955,
				"method": "rhf"
			},
			{
				"type": "unocc",
				"energy": 0.10886,
				"method": "rhf"
			},
			{
				"type": "unocc",
				"energy": 0.11314,
				"method": "rhf"
			}
		],
		"cosmo_sigma_profile": { 
			"-0.025": 0.0,
			"-0.024": 0.0,
			"-0.023": 0.0,
			"-0.022": 0.0,
			"-0.021": 0.0,
			"-0.02": 0.0,
			"-0.019": 0.0,
			"-0.018": 0.463216218965,
			"-0.017": 0.905957001964,
			"-0.016": 1.14516128625,
			"-0.015": 0.317797457279,
			"-0.014": 0.698741002774,
			"-0.013": 0.164282836456,
			"-0.012": 0.808478455305,
			"-0.011": 1.16241648161,
			"-0.01": 0.845019367801,
			"-0.009": 0.392065987395,
			"-0.008": 0.321914338159,
			"-0.007": 1.18463431386,
			"-0.006": 3.69721681407,
			"-0.005": 3.51552688384,
			"-0.004": 5.13789572856,
			"-0.003": 8.73426374077,
			"-0.002": 34.1708487629,
			"-0.001": 55.8734366817,
			"0.0": 43.7685163024,
			"0.001": 37.2113939879,
			"0.002": 14.0384557857,
			"0.003": 3.41996188145,
			"0.004": 3.05241088579,
			"0.005": 2.5468096735,
			"0.006": 2.76230198932,
			"0.007": 2.92148050652,
			"0.008": 2.58839534357,
			"0.009": 2.13213374497,
			"0.01": 1.95441537375,
			"0.011": 2.76894284113,
			"0.012": 5.12256413515,
			"0.013": 1.91733435882,
			"0.014": 0.20088725932,
			"0.015": 0.0,
			"0.016": 0.0,
			"0.017": 0.0,
			"0.018": 0.0,
			"0.019": 0.0,
			"0.02": 0.0,
			"0.021": 0.0,
			"0.022": 0.0,
			"0.023": 0.0,
			"0.024": 0.0,
			"0.025": 0.0
		}
	}
}
