{
	 "smiles": "C1=CC2=CC3=CC=CC=C3C=C2C=C1", 
	 "Tm": 489.15, 
	 "num_atms": 24, 
	 "gaussian": { 
		 "optdone": 1, 
		 "sigma_profile": "yes", 
		 "theory": "DFT", 
		 "functional": "B3LYP", 
		 "basiset": "6-31G**", 
		 "properties": { 
			 "R2extent": 2989.4, 
			 "electric_dipole_moment_norm": 0.0, 
			 "electric_quadrupole_moment_norm": 9.94633953623, 
			 "total_energy": -539.53458911, 
			 "HOMO_LUMO_gap": 0.13188, 
			 "cosmo_polarized_energy": -5.64, 
			 "cosmo_cavitation_energy": 27.28, 
			 "cosmo_dispersion_energy": -20.51, 
			 "cosmo_repulsion_energy": 1.55, 
			 "cosmo_total_nonelectrostatic_energy": 8.32, 
			 "SMD_solvation_energy": 4.03 
		},
		"coords": [
			{
				"x": -0.4772535293,
				"y": -4.123101893,
				"z": -0.4926140761,
				"element": "C" 
			},
			{
				"x": -1.1087024921,
				"y": -3.174526564,
				"z": 0.2678756957,
				"element": "C" 
			},
			{
				"x": -0.7951613759,
				"y": -1.7866513477,
				"z": 0.1228680197,
				"element": "C" 
			},
			{
				"x": -1.4231594561,
				"y": -0.7936165102,
				"z": 0.8854193075,
				"element": "C" 
			},
			{
				"x": -1.1078510905,
				"y": 0.5627910121,
				"z": 0.7346717161,
				"element": "C" 
			},
			{
				"x": -1.742225749,
				"y": 1.5855194171,
				"z": 1.507410353,
				"element": "C" 
			},
			{
				"x": -1.4125559271,
				"y": 2.9043301846,
				"z": 1.337353046,
				"element": "C" 
			},
			{
				"x": -0.4248794148,
				"y": 3.2847851446,
				"z": 0.3811149001,
				"element": "C" 
			},
			{
				"x": 0.206569993,
				"y": 2.3362096753,
				"z": -0.3793748329,
				"element": "C" 
			},
			{
				"x": -0.1069728754,
				"y": 0.9483349175,
				"z": -0.2343686881,
				"element": "C" 
			},
			{
				"x": 0.5210247914,
				"y": -0.0447003345,
				"z": -0.9969208943,
				"element": "C" 
			},
			{
				"x": 0.2057169256,
				"y": -1.4011073522,
				"z": -0.8461724154,
				"element": "C" 
			},
			{
				"x": 0.8400934233,
				"y": -2.423836305,
				"z": -1.618909568,
				"element": "C" 
			},
			{
				"x": 0.510423451,
				"y": -3.7426468404,
				"z": -1.4488522747,
				"element": "C" 
			},
			{
				"x": -0.7256745063,
				"y": -5.1735461115,
				"z": -0.3715781348,
				"element": "H" 
			},
			{
				"x": -1.861751467,
				"y": -3.4621433444,
				"z": 0.9972378021,
				"element": "H" 
			},
			{
				"x": -2.1764747292,
				"y": -1.083795614,
				"z": 1.6147410632,
				"element": "H" 
			},
			{
				"x": -2.4946453245,
				"y": 1.2932263513,
				"z": 2.2355611003,
				"element": "H" 
			},
			{
				"x": -1.9027194414,
				"y": 3.6702745137,
				"z": 1.9313767316,
				"element": "H" 
			},
			{
				"x": -0.176459076,
				"y": 4.3352294055,
				"z": 0.2600774311,
				"element": "H" 
			},
			{
				"x": 0.9596184565,
				"y": 2.623826857,
				"z": -1.1087372577,
				"element": "H" 
			},
			{
				"x": 1.2743408228,
				"y": 0.2454785418,
				"z": -1.7262419538,
				"element": "H" 
			},
			{
				"x": 1.5925126362,
				"y": -2.1315425003,
				"z": -2.3470605617,
				"element": "H" 
			},
			{
				"x": 1.0005859549,
				"y": -4.5085913034,
				"z": -2.0428765089,
				"element": "H" 
			}
		],
		 "valence_orbital": [ 
			{
				"type": "occ",
				"energy": -0.30047,
				"method": "rhf"
			},
			{
				"type": "occ",
				"energy": -0.29551,
				"method": "rhf"
			},
			{
				"type": "occ",
				"energy": -0.25413,
				"method": "rhf"
			},
			{
				"type": "occ",
				"energy": -0.23748,
				"method": "rhf"
			},
			{
				"type": "occ",
				"energy": -0.19245,
				"method": "rhf"
			},
			{
				"type": "unocc",
				"energy": -0.06057,
				"method": "rhf"
			},
			{
				"type": "unocc",
				"energy": -0.01098,
				"method": "rhf"
			},
			{
				"type": "unocc",
				"energy": 0.00791,
				"method": "rhf"
			},
			{
				"type": "unocc",
				"energy": 0.04475,
				"method": "rhf"
			},
			{
				"type": "unocc",
				"energy": 0.06725,
				"method": "rhf"
			}
		],
		"cosmo_sigma_profile": { 
			"-0.025": 0.0,
			"-0.024": 0.0,
			"-0.023": 0.0,
			"-0.022": 0.0,
			"-0.021": 0.0,
			"-0.02": 0.0,
			"-0.019": 0.0,
			"-0.018": 0.0,
			"-0.017": 0.0,
			"-0.016": 0.0,
			"-0.015": 0.0,
			"-0.014": 0.0,
			"-0.013": 0.0,
			"-0.012": 0.0,
			"-0.011": 0.0,
			"-0.01": 0.0,
			"-0.009": 0.0,
			"-0.008": 0.0,
			"-0.007": 0.000612379131672,
			"-0.006": 14.4749333859,
			"-0.005": 23.5831152313,
			"-0.004": 20.0753940377,
			"-0.003": 17.7960245442,
			"-0.002": 12.8000891656,
			"-0.001": 12.3631189791,
			"0.0": 10.0668208886,
			"0.001": 12.4704184166,
			"0.002": 13.3497844207,
			"0.003": 19.6599915947,
			"0.004": 40.0908815068,
			"0.005": 19.6539531066,
			"0.006": 3.04911823404,
			"0.007": 0.0,
			"0.008": 0.0,
			"0.009": 0.0,
			"0.01": 0.0,
			"0.011": 0.0,
			"0.012": 0.0,
			"0.013": 0.0,
			"0.014": 0.0,
			"0.015": 0.0,
			"0.016": 0.0,
			"0.017": 0.0,
			"0.018": 0.0,
			"0.019": 0.0,
			"0.02": 0.0,
			"0.021": 0.0,
			"0.022": 0.0,
			"0.023": 0.0,
			"0.024": 0.0,
			"0.025": 0.0
		}
	}
}
