{
	 "smiles": "ON=CNC1=CC=C(Cl)N=N1", 
	 "Tm": 482.15, 
	 "num_atms": 16, 
	 "gaussian": { 
		 "optdone": 1, 
		 "sigma_profile": "yes", 
		 "theory": "DFT", 
		 "functional": "B3LYP", 
		 "basiset": "6-31G**", 
		 "properties": { 
			 "R2extent": 3545.023, 
			 "electric_dipole_moment_norm": 5.08934945646, 
			 "electric_quadrupole_moment_norm": 9.68711557018, 
			 "total_energy": -947.863310689, 
			 "HOMO_LUMO_gap": 0.15207, 
			 "cosmo_polarized_energy": -17.9, 
			 "cosmo_cavitation_energy": 23.79, 
			 "cosmo_dispersion_energy": -17.95, 
			 "cosmo_repulsion_energy": 1.47, 
			 "cosmo_total_nonelectrostatic_energy": 7.31, 
			 "SMD_solvation_energy": 2.92 
		},
		"coords": [
			{
				"x": 3.5475515941,
				"y": 2.2064667482,
				"z": 0.8445695175,
				"element": "O" 
			},
			{
				"x": 2.5041226908,
				"y": 1.9075063567,
				"z": -0.0534733168,
				"element": "N" 
			},
			{
				"x": 1.9328364748,
				"y": 0.8133850132,
				"z": 0.2853235514,
				"element": "C" 
			},
			{
				"x": 0.8759440147,
				"y": 0.3552434858,
				"z": -0.4861714505,
				"element": "N" 
			},
			{
				"x": 0.162450449,
				"y": -0.8005593249,
				"z": -0.2494242979,
				"element": "C" 
			},
			{
				"x": -0.8998956665,
				"y": -1.1699851076,
				"z": -1.1074777229,
				"element": "C" 
			},
			{
				"x": -1.5690832336,
				"y": -2.3333504414,
				"z": -0.8145151027,
				"element": "C" 
			},
			{
				"x": -1.1308190991,
				"y": -3.0478697102,
				"z": 0.3153903401,
				"element": "C" 
			},
			{
				"x": -1.9360044902,
				"y": -4.5415140512,
				"z": 0.7520884413,
				"element": "Cl" 
			},
			{
				"x": -0.1340783099,
				"y": -2.6653578122,
				"z": 1.0881654325,
				"element": "N" 
			},
			{
				"x": 0.5211235065,
				"y": -1.5368280919,
				"z": 0.8113629042,
				"element": "N" 
			},
			{
				"x": 3.8903072748,
				"y": 3.0357716022,
				"z": 0.4875199061,
				"element": "H" 
			},
			{
				"x": 2.2082964242,
				"y": 0.2015062484,
				"z": 1.1392874337,
				"element": "H" 
			},
			{
				"x": 0.6237926337,
				"y": 0.9277834456,
				"z": -1.2797067827,
				"element": "H" 
			},
			{
				"x": -1.1721814823,
				"y": -0.5565218498,
				"z": -1.9614879411,
				"element": "H" 
			},
			{
				"x": -2.3951627811,
				"y": -2.6925765109,
				"z": -1.4170509122,
				"element": "H" 
			}
		],
		 "valence_orbital": [ 
			{
				"type": "occ",
				"energy": -0.32136,
				"method": "rhf"
			},
			{
				"type": "occ",
				"energy": -0.2873,
				"method": "rhf"
			},
			{
				"type": "occ",
				"energy": -0.27823,
				"method": "rhf"
			},
			{
				"type": "occ",
				"energy": -0.24997,
				"method": "rhf"
			},
			{
				"type": "occ",
				"energy": -0.21843,
				"method": "rhf"
			},
			{
				"type": "unocc",
				"energy": -0.06636,
				"method": "rhf"
			},
			{
				"type": "unocc",
				"energy": -0.03439,
				"method": "rhf"
			},
			{
				"type": "unocc",
				"energy": 0.02284,
				"method": "rhf"
			},
			{
				"type": "unocc",
				"energy": 0.02639,
				"method": "rhf"
			},
			{
				"type": "unocc",
				"energy": 0.0667,
				"method": "rhf"
			}
		],
		"cosmo_sigma_profile": { 
			"-0.025": 0.0,
			"-0.024": 0.0,
			"-0.023": 0.0,
			"-0.022": 0.0,
			"-0.021": 0.0,
			"-0.02": 0.0,
			"-0.019": 0.0,
			"-0.018": 0.0266399384386,
			"-0.017": 0.984306212083,
			"-0.016": 2.8280222411,
			"-0.015": 1.80578389219,
			"-0.014": 1.6404166935,
			"-0.013": 2.66389893692,
			"-0.012": 2.01004943656,
			"-0.011": 1.92049555758,
			"-0.01": 3.12174903796,
			"-0.009": 5.26066042156,
			"-0.008": 5.60110403043,
			"-0.007": 5.3987581621,
			"-0.006": 5.08165668644,
			"-0.005": 4.94806587961,
			"-0.004": 5.02797988712,
			"-0.003": 10.1995900883,
			"-0.002": 16.6938257288,
			"-0.001": 16.8436447787,
			"0.0": 13.0812535702,
			"0.001": 9.6115406844,
			"0.002": 9.60179234725,
			"0.003": 10.4737204885,
			"0.004": 11.9558706699,
			"0.005": 7.46248661444,
			"0.006": 6.44881874798,
			"0.007": 5.81402128157,
			"0.008": 4.93892413336,
			"0.009": 4.22733856187,
			"0.01": 5.55298206279,
			"0.011": 4.77891482664,
			"0.012": 3.61651487613,
			"0.013": 2.33361643975,
			"0.014": 1.2182685955,
			"0.015": 0.216068506448,
			"0.016": 0.0,
			"0.017": 0.0,
			"0.018": 0.0,
			"0.019": 0.0,
			"0.02": 0.0,
			"0.021": 0.0,
			"0.022": 0.0,
			"0.023": 0.0,
			"0.024": 0.0,
			"0.025": 0.0
		}
	}
}
