{
	 "smiles": "ClC(C(=O)C1=CNC2=C1C=CC=C2)C1=CC=CC=C1", 
	 "Tm": 398.15, 
	 "num_atms": 31, 
	 "gaussian": { 
		 "optdone": 1, 
		 "sigma_profile": "yes", 
		 "theory": "DFT", 
		 "functional": "B3LYP", 
		 "basiset": "6-31G**", 
		 "properties": { 
			 "R2extent": 7003.4528, 
			 "electric_dipole_moment_norm": 4.74402164624, 
			 "electric_quadrupole_moment_norm": 15.3212854852, 
			 "total_energy": -1207.11041492, 
			 "HOMO_LUMO_gap": 0.16637, 
			 "cosmo_polarized_energy": -15.28, 
			 "cosmo_cavitation_energy": 36.43, 
			 "cosmo_dispersion_energy": -26.08, 
			 "cosmo_repulsion_energy": 2.0, 
			 "cosmo_total_nonelectrostatic_energy": 12.35, 
			 "SMD_solvation_energy": 5.87 
		},
		"coords": [
			{
				"x": 0.0979232695,
				"y": 1.3230686415,
				"z": -4.4399668082,
				"element": "Cl" 
			},
			{
				"x": -0.8148862299,
				"y": 0.1576112498,
				"z": -3.3678494195,
				"element": "C" 
			},
			{
				"x": -1.2644545582,
				"y": 0.8432341994,
				"z": -2.050706327,
				"element": "C" 
			},
			{
				"x": -2.4657334141,
				"y": 0.8049361518,
				"z": -1.8014382142,
				"element": "O" 
			},
			{
				"x": -0.2992583786,
				"y": 1.4338987189,
				"z": -1.1351980522,
				"element": "C" 
			},
			{
				"x": 1.0814016113,
				"y": 1.4748260923,
				"z": -1.2527237375,
				"element": "C" 
			},
			{
				"x": 1.6160635338,
				"y": 2.0963724626,
				"z": -0.1632061387,
				"element": "N" 
			},
			{
				"x": 0.6019740836,
				"y": 2.4868071125,
				"z": 0.70443677,
				"element": "C" 
			},
			{
				"x": -0.6241725361,
				"y": 2.0811945431,
				"z": 0.122928147,
				"element": "C" 
			},
			{
				"x": -1.8220819123,
				"y": 2.3525239615,
				"z": 0.8031433526,
				"element": "C" 
			},
			{
				"x": -1.7577467478,
				"y": 3.0135073644,
				"z": 2.0250110907,
				"element": "C" 
			},
			{
				"x": -0.5260882653,
				"y": 3.4086227577,
				"z": 2.5836116,
				"element": "C" 
			},
			{
				"x": 0.6750295038,
				"y": 3.1507097519,
				"z": 1.9311270975,
				"element": "C" 
			},
			{
				"x": -0.0868182978,
				"y": -1.15698846,
				"z": -3.1218401059,
				"element": "C" 
			},
			{
				"x": 1.1902511376,
				"y": -1.4529718211,
				"z": -3.6060704821,
				"element": "C" 
			},
			{
				"x": 1.7784858221,
				"y": -2.691550179,
				"z": -3.3354429579,
				"element": "C" 
			},
			{
				"x": 1.0987318512,
				"y": -3.6468144179,
				"z": -2.5815003902,
				"element": "C" 
			},
			{
				"x": -0.1806821071,
				"y": -3.3588796358,
				"z": -2.0997894461,
				"element": "C" 
			},
			{
				"x": -0.7702531671,
				"y": -2.1254597641,
				"z": -2.3679891301,
				"element": "C" 
			},
			{
				"x": -1.7431710598,
				"y": -0.0294056199,
				"z": -3.9085632872,
				"element": "H" 
			},
			{
				"x": 1.7160862608,
				"y": 1.0988522343,
				"z": -2.0399302292,
				"element": "H" 
			},
			{
				"x": 2.6009577233,
				"y": 2.2504875222,
				"z": -0.0146230026,
				"element": "H" 
			},
			{
				"x": -2.7658614983,
				"y": 2.0442488435,
				"z": 0.3703064349,
				"element": "H" 
			},
			{
				"x": -2.6757852707,
				"y": 3.2308996902,
				"z": 2.5630550803,
				"element": "H" 
			},
			{
				"x": -0.5128887426,
				"y": 3.922998437,
				"z": 3.5399213614,
				"element": "H" 
			},
			{
				"x": 1.6268829428,
				"y": 3.4530137289,
				"z": 2.3583603109,
				"element": "H" 
			},
			{
				"x": 1.7208740467,
				"y": -0.7225752124,
				"z": -4.2066238522,
				"element": "H" 
			},
			{
				"x": 2.7703302782,
				"y": -2.9072775149,
				"z": -3.7226630692,
				"element": "H" 
			},
			{
				"x": 1.5575612147,
				"y": -4.6091019566,
				"z": -2.3741387888,
				"element": "H" 
			},
			{
				"x": -0.7231234071,
				"y": -4.0963182621,
				"z": -1.5152224285,
				"element": "H" 
			},
			{
				"x": -1.7654476866,
				"y": -1.9066706198,
				"z": -1.9911153781,
				"element": "H" 
			}
		],
		 "valence_orbital": [ 
			{
				"type": "occ",
				"energy": -0.26093,
				"method": "rhf"
			},
			{
				"type": "occ",
				"energy": -0.25657,
				"method": "rhf"
			},
			{
				"type": "occ",
				"energy": -0.24096,
				"method": "rhf"
			},
			{
				"type": "occ",
				"energy": -0.23197,
				"method": "rhf"
			},
			{
				"type": "occ",
				"energy": -0.21675,
				"method": "rhf"
			},
			{
				"type": "unocc",
				"energy": -0.05038,
				"method": "rhf"
			},
			{
				"type": "unocc",
				"energy": -0.01394,
				"method": "rhf"
			},
			{
				"type": "unocc",
				"energy": -0.00948,
				"method": "rhf"
			},
			{
				"type": "unocc",
				"energy": -0.00367,
				"method": "rhf"
			},
			{
				"type": "unocc",
				"energy": 0.02114,
				"method": "rhf"
			}
		],
		"cosmo_sigma_profile": { 
			"-0.025": 0.0,
			"-0.024": 0.0,
			"-0.023": 0.0,
			"-0.022": 0.0,
			"-0.021": 0.0,
			"-0.02": 0.0,
			"-0.019": 0.0,
			"-0.018": 0.0,
			"-0.017": 0.940702714733,
			"-0.016": 1.86647077557,
			"-0.015": 1.27895464267,
			"-0.014": 1.81351738569,
			"-0.013": 1.23738966741,
			"-0.012": 1.05849032366,
			"-0.011": 1.53282140288,
			"-0.01": 1.45980428337,
			"-0.009": 1.71583063486,
			"-0.008": 2.65623324558,
			"-0.007": 5.57059903388,
			"-0.006": 11.6101255394,
			"-0.005": 19.0344775078,
			"-0.004": 21.9325858551,
			"-0.003": 18.8807405384,
			"-0.002": 15.3365193914,
			"-0.001": 17.9953415294,
			"0.0": 17.9959490515,
			"0.001": 21.1493089685,
			"0.002": 26.1404441923,
			"0.003": 25.585570947,
			"0.004": 27.2649662948,
			"0.005": 26.0965413909,
			"0.006": 11.2288488973,
			"0.007": 2.47306989067,
			"0.008": 1.38885417175,
			"0.009": 2.33653187164,
			"0.01": 1.38274950793,
			"0.011": 2.22930756759,
			"0.012": 2.56847489057,
			"0.013": 0.645763810899,
			"0.014": 0.0,
			"0.015": 0.0,
			"0.016": 0.0,
			"0.017": 0.0,
			"0.018": 0.0,
			"0.019": 0.0,
			"0.02": 0.0,
			"0.021": 0.0,
			"0.022": 0.0,
			"0.023": 0.0,
			"0.024": 0.0,
			"0.025": 0.0
		}
	}
}
