{
	 "smiles": "CC1(C)N(O)C(C2=CC=CC=C2)[N+]([O-])=C1N", 
	 "Tm": 482.15, 
	 "num_atms": 31, 
	 "gaussian": { 
		 "optdone": 1, 
		 "sigma_profile": "yes", 
		 "theory": "DFT", 
		 "functional": "B3LYP", 
		 "basiset": "6-31G**", 
		 "properties": { 
			 "R2extent": 3657.6715, 
			 "electric_dipole_moment_norm": 3.83278768131, 
			 "electric_quadrupole_moment_norm": 10.0459615961, 
			 "total_energy": -742.78715174, 
			 "HOMO_LUMO_gap": 0.18072, 
			 "cosmo_polarized_energy": -20.05, 
			 "cosmo_cavitation_energy": 32.62, 
			 "cosmo_dispersion_energy": -22.87, 
			 "cosmo_repulsion_energy": 1.77, 
			 "cosmo_total_nonelectrostatic_energy": 11.52, 
			 "SMD_solvation_energy": 5.78 
		},
		"coords": [
			{
				"x": 1.4565954272,
				"y": -1.8007029349,
				"z": -0.0314728731,
				"element": "C" 
			},
			{
				"x": 0.898001025,
				"y": -0.9927021287,
				"z": -1.22219804,
				"element": "C" 
			},
			{
				"x": 1.6765234261,
				"y": -1.3505767498,
				"z": -2.4932841299,
				"element": "C" 
			},
			{
				"x": -0.5785779887,
				"y": -1.3017192964,
				"z": -1.3545752088,
				"element": "N" 
			},
			{
				"x": -0.9978993231,
				"y": -1.1481354905,
				"z": -2.7145088844,
				"element": "O" 
			},
			{
				"x": -1.2787386065,
				"y": -0.2812531662,
				"z": -0.5531418574,
				"element": "C" 
			},
			{
				"x": -1.651609616,
				"y": -0.7452652772,
				"z": 0.8484712216,
				"element": "C" 
			},
			{
				"x": -1.6428534422,
				"y": 0.1427657935,
				"z": 1.9321855389,
				"element": "C" 
			},
			{
				"x": -2.0399390791,
				"y": -0.2986658682,
				"z": 3.1958580728,
				"element": "C" 
			},
			{
				"x": -2.457296658,
				"y": -1.6168672147,
				"z": 3.3868523964,
				"element": "C" 
			},
			{
				"x": -2.4751254993,
				"y": -2.4993901337,
				"z": 2.3048079806,
				"element": "C" 
			},
			{
				"x": -2.0753862654,
				"y": -2.0670293848,
				"z": 1.0401232236,
				"element": "C" 
			},
			{
				"x": -0.3293515378,
				"y": 0.878164412,
				"z": -0.5562229556,
				"element": "N" 
			},
			{
				"x": -0.6530588891,
				"y": 2.0801506384,
				"z": -0.1921735038,
				"element": "O" 
			},
			{
				"x": 0.8687895526,
				"y": 0.4889282243,
				"z": -0.9182217651,
				"element": "C" 
			},
			{
				"x": 1.8765618866,
				"y": 1.4100228793,
				"z": -0.9967189015,
				"element": "N" 
			},
			{
				"x": 1.4014355281,
				"y": -2.8695375156,
				"z": -0.2546672589,
				"element": "H" 
			},
			{
				"x": 2.5052195837,
				"y": -1.5366307185,
				"z": 0.1437291319,
				"element": "H" 
			},
			{
				"x": 0.895946341,
				"y": -1.608176454,
				"z": 0.8843902144,
				"element": "H" 
			},
			{
				"x": 1.3975698601,
				"y": -0.733643241,
				"z": -3.3477137074,
				"element": "H" 
			},
			{
				"x": 2.7475232568,
				"y": -1.215844642,
				"z": -2.3121138244,
				"element": "H" 
			},
			{
				"x": 1.500388257,
				"y": -2.3975303861,
				"z": -2.7513246095,
				"element": "H" 
			},
			{
				"x": -0.8257291521,
				"y": -0.2195131562,
				"z": -2.9656059057,
				"element": "H" 
			},
			{
				"x": -2.1766171408,
				"y": 0.0243015001,
				"z": -1.0976740741,
				"element": "H" 
			},
			{
				"x": -1.3297639634,
				"y": 1.1688709829,
				"z": 1.7681033787,
				"element": "H" 
			},
			{
				"x": -2.0261807986,
				"y": 0.3942882112,
				"z": 4.0325414981,
				"element": "H" 
			},
			{
				"x": -2.7681875348,
				"y": -1.9545607659,
				"z": 4.3715545212,
				"element": "H" 
			},
			{
				"x": -2.7977697955,
				"y": -3.5273877558,
				"z": 2.4444313913,
				"element": "H" 
			},
			{
				"x": -2.0737556565,
				"y": -2.7510430827,
				"z": 0.1980276503,
				"element": "H" 
			},
			{
				"x": 1.604080964,
				"y": 2.2764071453,
				"z": -0.5355904975,
				"element": "H" 
			},
			{
				"x": 2.8137058388,
				"y": 1.0874755759,
				"z": -0.8039682227,
				"element": "H" 
			}
		],
		 "valence_orbital": [ 
			{
				"type": "occ",
				"energy": -0.27175,
				"method": "rhf"
			},
			{
				"type": "occ",
				"energy": -0.24683,
				"method": "rhf"
			},
			{
				"type": "occ",
				"energy": -0.24649,
				"method": "rhf"
			},
			{
				"type": "occ",
				"energy": -0.22484,
				"method": "rhf"
			},
			{
				"type": "occ",
				"energy": -0.18579,
				"method": "rhf"
			},
			{
				"type": "unocc",
				"energy": -0.00507,
				"method": "rhf"
			},
			{
				"type": "unocc",
				"energy": 0.00014,
				"method": "rhf"
			},
			{
				"type": "unocc",
				"energy": 0.00699,
				"method": "rhf"
			},
			{
				"type": "unocc",
				"energy": 0.05501,
				"method": "rhf"
			},
			{
				"type": "unocc",
				"energy": 0.062,
				"method": "rhf"
			}
		],
		"cosmo_sigma_profile": { 
			"-0.025": 0.0,
			"-0.024": 0.0,
			"-0.023": 0.0,
			"-0.022": 0.0,
			"-0.021": 0.0,
			"-0.02": 0.0,
			"-0.019": 0.0,
			"-0.018": 0.0,
			"-0.017": 0.0,
			"-0.016": 0.236573778709,
			"-0.015": 0.756551570674,
			"-0.014": 1.9120742143,
			"-0.013": 2.502823568,
			"-0.012": 2.99675469783,
			"-0.011": 4.34899001978,
			"-0.01": 4.27456518376,
			"-0.009": 3.51366349621,
			"-0.008": 4.94253019734,
			"-0.007": 4.68050647527,
			"-0.006": 7.88531708518,
			"-0.005": 13.3664493942,
			"-0.004": 20.7281614736,
			"-0.003": 18.3242868068,
			"-0.002": 21.7569086161,
			"-0.001": 20.6486568608,
			"0.0": 17.9274555786,
			"0.001": 13.0529211651,
			"0.002": 13.1028085644,
			"0.003": 12.865426308,
			"0.004": 12.8353919931,
			"0.005": 12.1202817513,
			"0.006": 7.16873616949,
			"0.007": 3.36914846632,
			"0.008": 4.02092864575,
			"0.009": 4.13022675209,
			"0.01": 3.38440807786,
			"0.011": 3.63391020989,
			"0.012": 3.94593581339,
			"0.013": 2.65229330643,
			"0.014": 3.58912463847,
			"0.015": 2.70560457523,
			"0.016": 2.27737303768,
			"0.017": 0.709177021375,
			"0.018": 0.0,
			"0.019": 0.0,
			"0.02": 0.0,
			"0.021": 0.0,
			"0.022": 0.0,
			"0.023": 0.0,
			"0.024": 0.0,
			"0.025": 0.0
		}
	}
}
