{
	 "smiles": "CC(C)(C)OC(=O)NCC1CCCCC11NC(=O)NC1=O", 
	 "Tm": 503.15, 
	 "num_atms": 44, 
	 "gaussian": { 
		 "optdone": 1, 
		 "sigma_profile": "yes", 
		 "theory": "DFT", 
		 "functional": "B3LYP", 
		 "basiset": "6-31G**", 
		 "properties": { 
			 "R2extent": 8565.7869, 
			 "electric_dipole_moment_norm": 4.45043800316, 
			 "electric_quadrupole_moment_norm": 14.8378248635, 
			 "total_energy": -1012.58745157, 
			 "HOMO_LUMO_gap": 0.23917, 
			 "cosmo_polarized_energy": -21.5, 
			 "cosmo_cavitation_energy": 44.0, 
			 "cosmo_dispersion_energy": -30.18, 
			 "cosmo_repulsion_energy": 2.35, 
			 "cosmo_total_nonelectrostatic_energy": 16.17, 
			 "SMD_solvation_energy": 8.65 
		},
		"coords": [
			{
				"x": 1.7894147565,
				"y": -4.3965120006,
				"z": -1.6085862967,
				"element": "C" 
			},
			{
				"x": 1.9288947243,
				"y": -3.2201739499,
				"z": -0.6387286108,
				"element": "C" 
			},
			{
				"x": 1.2231615798,
				"y": -3.5222320828,
				"z": 0.6877477307,
				"element": "C" 
			},
			{
				"x": 3.4028141571,
				"y": -2.8502531245,
				"z": -0.440534266,
				"element": "C" 
			},
			{
				"x": 1.2287171731,
				"y": -2.1373617743,
				"z": -1.3471735383,
				"element": "O" 
			},
			{
				"x": 1.1260710497,
				"y": -0.9009136297,
				"z": -0.8007268613,
				"element": "C" 
			},
			{
				"x": 1.5754291544,
				"y": -0.5399341723,
				"z": 0.2775442492,
				"element": "O" 
			},
			{
				"x": 0.4250806837,
				"y": -0.0849840916,
				"z": -1.6425537195,
				"element": "N" 
			},
			{
				"x": 0.2439950123,
				"y": 1.3292370508,
				"z": -1.3504080064,
				"element": "C" 
			},
			{
				"x": -0.862580557,
				"y": 1.5742652583,
				"z": -0.2915779403,
				"element": "C" 
			},
			{
				"x": -2.2155696263,
				"y": 0.9727097332,
				"z": -0.7126178395,
				"element": "C" 
			},
			{
				"x": -2.8550541008,
				"y": 1.6930882216,
				"z": -1.9172688567,
				"element": "C" 
			},
			{
				"x": -2.6775936816,
				"y": 3.230462103,
				"z": -1.8360693226,
				"element": "C" 
			},
			{
				"x": -2.3763191043,
				"y": 3.6808339126,
				"z": -0.4022785107,
				"element": "C" 
			},
			{
				"x": -1.0382141479,
				"y": 3.0899700854,
				"z": 0.1254677075,
				"element": "C" 
			},
			{
				"x": -0.9378457043,
				"y": 3.2650843755,
				"z": 1.577915903,
				"element": "N" 
			},
			{
				"x": 0.1441566413,
				"y": 3.9992709947,
				"z": 1.9868827122,
				"element": "C" 
			},
			{
				"x": 0.5226152869,
				"y": 4.2408095219,
				"z": 3.1135379373,
				"element": "O" 
			},
			{
				"x": 0.7479258228,
				"y": 4.455658356,
				"z": 0.7930335234,
				"element": "N" 
			},
			{
				"x": 0.121530019,
				"y": 4.0026166684,
				"z": -0.3439248878,
				"element": "C" 
			},
			{
				"x": 0.4050061733,
				"y": 4.2942330187,
				"z": -1.4909278703,
				"element": "O" 
			},
			{
				"x": 0.7351841767,
				"y": -4.6308301986,
				"z": -1.7832566824,
				"element": "H" 
			},
			{
				"x": 2.2777576685,
				"y": -5.2840862566,
				"z": -1.1955434938,
				"element": "H" 
			},
			{
				"x": 2.2544604864,
				"y": -4.1613278259,
				"z": -2.5704070336,
				"element": "H" 
			},
			{
				"x": 1.3019803579,
				"y": -2.6776569525,
				"z": 1.372673893,
				"element": "H" 
			},
			{
				"x": 1.6793789764,
				"y": -4.4007816435,
				"z": 1.1554200607,
				"element": "H" 
			},
			{
				"x": 0.1649392259,
				"y": -3.7421699309,
				"z": 0.5134339592,
				"element": "H" 
			},
			{
				"x": 3.5041511848,
				"y": -1.9983593455,
				"z": 0.2321934204,
				"element": "H" 
			},
			{
				"x": 3.9423303643,
				"y": -3.7031822036,
				"z": -0.0160020451,
				"element": "H" 
			},
			{
				"x": 3.8641301263,
				"y": -2.6011591191,
				"z": -1.4014946143,
				"element": "H" 
			},
			{
				"x": 0.1368589867,
				"y": -0.4664717101,
				"z": -2.5295122344,
				"element": "H" 
			},
			{
				"x": 0.0271675058,
				"y": 1.8442545394,
				"z": -2.2875770077,
				"element": "H" 
			},
			{
				"x": 1.1930994082,
				"y": 1.7238224759,
				"z": -0.9783179295,
				"element": "H" 
			},
			{
				"x": -0.5136350893,
				"y": 1.0517436123,
				"z": 0.6045752238,
				"element": "H" 
			},
			{
				"x": -2.9000896553,
				"y": 1.0165892676,
				"z": 0.1435911657,
				"element": "H" 
			},
			{
				"x": -2.0811910652,
				"y": -0.0913593619,
				"z": -0.9304699177,
				"element": "H" 
			},
			{
				"x": -3.9188869049,
				"y": 1.432975259,
				"z": -1.9559260779,
				"element": "H" 
			},
			{
				"x": -2.4220241493,
				"y": 1.3212686961,
				"z": -2.8532575486,
				"element": "H" 
			},
			{
				"x": -1.8545568764,
				"y": 3.5607508842,
				"z": -2.4769519514,
				"element": "H" 
			},
			{
				"x": -3.5763338396,
				"y": 3.7399580241,
				"z": -2.1989090839,
				"element": "H" 
			},
			{
				"x": -3.1769601616,
				"y": 3.3582020754,
				"z": 0.2742456684,
				"element": "H" 
			},
			{
				"x": -2.3377976419,
				"y": 4.7728377792,
				"z": -0.3323433832,
				"element": "H" 
			},
			{
				"x": -1.4213318296,
				"y": 2.6818659573,
				"z": 2.243755443,
				"element": "H" 
			},
			{
				"x": 1.5321334333,
				"y": 5.0919415032,
				"z": 0.7933269332,
				"element": "H" 
			}
		],
		 "valence_orbital": [ 
			{
				"type": "occ",
				"energy": -0.28463,
				"method": "rhf"
			},
			{
				"type": "occ",
				"energy": -0.26642,
				"method": "rhf"
			},
			{
				"type": "occ",
				"energy": -0.2631,
				"method": "rhf"
			},
			{
				"type": "occ",
				"energy": -0.25951,
				"method": "rhf"
			},
			{
				"type": "occ",
				"energy": -0.24814,
				"method": "rhf"
			},
			{
				"type": "unocc",
				"energy": -0.00897,
				"method": "rhf"
			},
			{
				"type": "unocc",
				"energy": 0.05013,
				"method": "rhf"
			},
			{
				"type": "unocc",
				"energy": 0.06085,
				"method": "rhf"
			},
			{
				"type": "unocc",
				"energy": 0.0668,
				"method": "rhf"
			},
			{
				"type": "unocc",
				"energy": 0.0721,
				"method": "rhf"
			}
		],
		"cosmo_sigma_profile": { 
			"-0.025": 0.0,
			"-0.024": 0.0,
			"-0.023": 0.0,
			"-0.022": 0.0,
			"-0.021": 0.0,
			"-0.02": 0.0,
			"-0.019": 0.0,
			"-0.018": 0.0,
			"-0.017": 0.193296778141,
			"-0.016": 1.22548034375,
			"-0.015": 1.45916603435,
			"-0.014": 2.88585040398,
			"-0.013": 3.28965833906,
			"-0.012": 2.44947052407,
			"-0.011": 2.90831377188,
			"-0.01": 2.80929450418,
			"-0.009": 2.94335928224,
			"-0.008": 3.27569850382,
			"-0.007": 4.57281167956,
			"-0.006": 5.44431382878,
			"-0.005": 8.62353706586,
			"-0.004": 21.5880473835,
			"-0.003": 33.159282067,
			"-0.002": 36.4557734527,
			"-0.001": 42.3109578865,
			"0.0": 44.1395808791,
			"0.001": 34.8000386007,
			"0.002": 11.2218887667,
			"0.003": 9.21595861442,
			"0.004": 8.03297529549,
			"0.005": 6.31623547945,
			"0.006": 6.01805586153,
			"0.007": 5.81233498202,
			"0.008": 4.59335365092,
			"0.009": 3.41622415441,
			"0.01": 5.03143986744,
			"0.011": 5.62430310075,
			"0.012": 9.12052150811,
			"0.013": 9.95103892136,
			"0.014": 2.50493275318,
			"0.015": 0.0,
			"0.016": 0.0,
			"0.017": 0.0,
			"0.018": 0.0,
			"0.019": 0.0,
			"0.02": 0.0,
			"0.021": 0.0,
			"0.022": 0.0,
			"0.023": 0.0,
			"0.024": 0.0,
			"0.025": 0.0
		}
	}
}
