{
	 "smiles": "CC(Cl)C(=O)C1=CC2=C(OCC(=O)N2)C=C1", 
	 "Tm": 460.15, 
	 "num_atms": 26, 
	 "gaussian": { 
		 "optdone": 1, 
		 "sigma_profile": "yes", 
		 "theory": "DFT", 
		 "functional": "B3LYP", 
		 "basiset": "6-31G**", 
		 "properties": { 
			 "R2extent": 5940.56, 
			 "electric_dipole_moment_norm": 2.35170867881, 
			 "electric_quadrupole_moment_norm": 15.4945110246, 
			 "total_energy": -1165.82513834, 
			 "HOMO_LUMO_gap": 0.15914, 
			 "cosmo_polarized_energy": -16.02, 
			 "cosmo_cavitation_energy": 31.94, 
			 "cosmo_dispersion_energy": -23.56, 
			 "cosmo_repulsion_energy": 1.83, 
			 "cosmo_total_nonelectrostatic_energy": 10.2, 
			 "SMD_solvation_energy": 6.46 
		},
		"coords": [
			{
				"x": 3.3480393271,
				"y": -2.685201309,
				"z": 3.7607105986,
				"element": "C" 
			},
			{
				"x": 3.0020045254,
				"y": -1.6816561781,
				"z": 2.6763453214,
				"element": "C" 
			},
			{
				"x": 3.8122952763,
				"y": -2.1557269001,
				"z": 1.094868866,
				"element": "Cl" 
			},
			{
				"x": 1.485883016,
				"y": -1.5905755531,
				"z": 2.4123520547,
				"element": "C" 
			},
			{
				"x": 0.7557602824,
				"y": -2.4680201216,
				"z": 2.8470625245,
				"element": "O" 
			},
			{
				"x": 0.9366135349,
				"y": -0.4241855507,
				"z": 1.6656774606,
				"element": "C" 
			},
			{
				"x": -0.4581383509,
				"y": -0.3736511947,
				"z": 1.5006859017,
				"element": "C" 
			},
			{
				"x": -1.0552699288,
				"y": 0.6912278289,
				"z": 0.8409954101,
				"element": "C" 
			},
			{
				"x": -0.251793597,
				"y": 1.7248183969,
				"z": 0.3193990782,
				"element": "C" 
			},
			{
				"x": -0.817685811,
				"y": 2.80110927,
				"z": -0.2940062667,
				"element": "O" 
			},
			{
				"x": -2.0849537249,
				"y": 2.5792572827,
				"z": -0.9243483172,
				"element": "C" 
			},
			{
				"x": -3.0568530909,
				"y": 1.7187761482,
				"z": -0.1213479041,
				"element": "C" 
			},
			{
				"x": -4.2645227592,
				"y": 1.8079355327,
				"z": -0.2542200288,
				"element": "O" 
			},
			{
				"x": -2.4482046449,
				"y": 0.8088791008,
				"z": 0.7043342772,
				"element": "N" 
			},
			{
				"x": 1.1321313503,
				"y": 1.6811954709,
				"z": 0.4750995948,
				"element": "C" 
			},
			{
				"x": 1.7249004489,
				"y": 0.6162583421,
				"z": 1.148794218,
				"element": "C" 
			},
			{
				"x": 2.9400585163,
				"y": -3.6677014376,
				"z": 3.5202536511,
				"element": "H" 
			},
			{
				"x": 4.4308553285,
				"y": -2.7559405966,
				"z": 3.8828523678,
				"element": "H" 
			},
			{
				"x": 2.9063621858,
				"y": -2.3589330045,
				"z": 4.7081053322,
				"element": "H" 
			},
			{
				"x": 3.4084966135,
				"y": -0.6953247521,
				"z": 2.9083650663,
				"element": "H" 
			},
			{
				"x": -1.0563227398,
				"y": -1.1805752442,
				"z": 1.9124961414,
				"element": "H" 
			},
			{
				"x": -1.9368337903,
				"y": 2.1063657247,
				"z": -1.9065949801,
				"element": "H" 
			},
			{
				"x": -2.5374604978,
				"y": 3.559033637,
				"z": -1.0755080109,
				"element": "H" 
			},
			{
				"x": -3.0582613086,
				"y": 0.1725049834,
				"z": 1.2018880411,
				"element": "H" 
			},
			{
				"x": 1.724675641,
				"y": 2.4912554331,
				"z": 0.0641320348,
				"element": "H" 
			},
			{
				"x": 2.8044241978,
				"y": 0.5919746908,
				"z": 1.2381075669,
				"element": "H" 
			}
		],
		 "valence_orbital": [ 
			{
				"type": "occ",
				"energy": -0.30459,
				"method": "rhf"
			},
			{
				"type": "occ",
				"energy": -0.27469,
				"method": "rhf"
			},
			{
				"type": "occ",
				"energy": -0.26404,
				"method": "rhf"
			},
			{
				"type": "occ",
				"energy": -0.25815,
				"method": "rhf"
			},
			{
				"type": "occ",
				"energy": -0.23301,
				"method": "rhf"
			},
			{
				"type": "unocc",
				"energy": -0.07387,
				"method": "rhf"
			},
			{
				"type": "unocc",
				"energy": -0.03024,
				"method": "rhf"
			},
			{
				"type": "unocc",
				"energy": -0.00531,
				"method": "rhf"
			},
			{
				"type": "unocc",
				"energy": 0.01449,
				"method": "rhf"
			},
			{
				"type": "unocc",
				"energy": 0.0553,
				"method": "rhf"
			}
		],
		"cosmo_sigma_profile": { 
			"-0.025": 0.0,
			"-0.024": 0.0,
			"-0.023": 0.0,
			"-0.022": 0.0,
			"-0.021": 0.0,
			"-0.02": 0.0,
			"-0.019": 0.0,
			"-0.018": 0.0,
			"-0.017": 0.0,
			"-0.016": 0.688883013325,
			"-0.015": 1.42317078381,
			"-0.014": 1.37365549747,
			"-0.013": 1.24908175082,
			"-0.012": 1.01572486827,
			"-0.011": 1.38702142545,
			"-0.01": 1.28825659642,
			"-0.009": 4.16952818187,
			"-0.008": 10.0367194971,
			"-0.007": 11.0957389409,
			"-0.006": 12.2049766632,
			"-0.005": 14.2058008961,
			"-0.004": 14.48532598,
			"-0.003": 13.6245326409,
			"-0.002": 12.7376080687,
			"-0.001": 17.6605241239,
			"0.0": 19.4834542632,
			"0.001": 19.5220379697,
			"0.002": 19.1230556911,
			"0.003": 16.1536996611,
			"0.004": 11.1531605381,
			"0.005": 12.302887248,
			"0.006": 8.0379898125,
			"0.007": 3.56246338604,
			"0.008": 4.46889673958,
			"0.009": 4.35596105408,
			"0.01": 4.06375868485,
			"0.011": 5.92013400417,
			"0.012": 6.10548319373,
			"0.013": 3.43497811953,
			"0.014": 0.248708636147,
			"0.015": 0.0,
			"0.016": 0.0,
			"0.017": 0.0,
			"0.018": 0.0,
			"0.019": 0.0,
			"0.02": 0.0,
			"0.021": 0.0,
			"0.022": 0.0,
			"0.023": 0.0,
			"0.024": 0.0,
			"0.025": 0.0
		}
	}
}
