{
	 "smiles": "NC(=O)C1=C(N)SC2=C1CCN(CC1=CC=CC=C1)C2", 
	 "Tm": 350.15, 
	 "num_atms": 37, 
	 "gaussian": { 
		 "optdone": 1, 
		 "sigma_profile": "yes", 
		 "theory": "DFT", 
		 "functional": "B3LYP", 
		 "basiset": "6-31G**", 
		 "properties": { 
			 "R2extent": 8042.754, 
			 "electric_dipole_moment_norm": 1.62434206681, 
			 "electric_quadrupole_moment_norm": 14.3949558131, 
			 "total_energy": -1219.51783626, 
			 "HOMO_LUMO_gap": 0.17917, 
			 "cosmo_polarized_energy": -16.02, 
			 "cosmo_cavitation_energy": 39.93, 
			 "cosmo_dispersion_energy": -29.24, 
			 "cosmo_repulsion_energy": 2.2, 
			 "cosmo_total_nonelectrostatic_energy": 12.9, 
			 "SMD_solvation_energy": 4.52 
		},
		"coords": [
			{
				"x": -2.5088009163,
				"y": 1.1576982917,
				"z": -3.4597090893,
				"element": "N" 
			},
			{
				"x": -2.4628842029,
				"y": -0.2194619579,
				"z": -3.4751567865,
				"element": "C" 
			},
			{
				"x": -3.3033758295,
				"y": -0.8398114514,
				"z": -4.1477148304,
				"element": "O" 
			},
			{
				"x": -1.4001751867,
				"y": -0.8979836079,
				"z": -2.7180715681,
				"element": "C" 
			},
			{
				"x": -1.4232736723,
				"y": -2.2914928009,
				"z": -2.629670501,
				"element": "C" 
			},
			{
				"x": -2.371205931,
				"y": -3.1305885078,
				"z": -3.1260350156,
				"element": "N" 
			},
			{
				"x": -0.0813915425,
				"y": -2.9048736825,
				"z": -1.6858249632,
				"element": "S" 
			},
			{
				"x": 0.5402982846,
				"y": -1.2763620784,
				"z": -1.4326502751,
				"element": "C" 
			},
			{
				"x": -0.2446293518,
				"y": -0.337482896,
				"z": -2.0317791791,
				"element": "C" 
			},
			{
				"x": 0.164502814,
				"y": 1.1181378899,
				"z": -1.960341257,
				"element": "C" 
			},
			{
				"x": 1.6234864734,
				"y": 1.2579242064,
				"z": -1.4687738549,
				"element": "C" 
			},
			{
				"x": 1.9646452805,
				"y": 0.4054866884,
				"z": -0.3289286634,
				"element": "N" 
			},
			{
				"x": 1.2463000079,
				"y": 0.7553954411,
				"z": 0.9014929626,
				"element": "C" 
			},
			{
				"x": 1.9021092836,
				"y": 0.1844170527,
				"z": 2.1466294097,
				"element": "C" 
			},
			{
				"x": 3.2940114246,
				"y": 0.2320189626,
				"z": 2.3067284144,
				"element": "C" 
			},
			{
				"x": 3.8908941769,
				"y": -0.2495880073,
				"z": 3.4711423691,
				"element": "C" 
			},
			{
				"x": 3.105046232,
				"y": -0.7850309169,
				"z": 4.4955087021,
				"element": "C" 
			},
			{
				"x": 1.7193272048,
				"y": -0.8399422627,
				"z": 4.343914863,
				"element": "C" 
			},
			{
				"x": 1.1244266115,
				"y": -0.3609748936,
				"z": 3.1742250465,
				"element": "C" 
			},
			{
				"x": 1.831782698,
				"y": -1.008838452,
				"z": -0.6960475497,
				"element": "C" 
			},
			{
				"x": -2.1010305215,
				"y": 1.672640006,
				"z": -2.6964100962,
				"element": "H" 
			},
			{
				"x": -3.3476698223,
				"y": 1.5431610055,
				"z": -3.8700632248,
				"element": "H" 
			},
			{
				"x": -2.1361258085,
				"y": -4.0992245124,
				"z": -3.2757453594,
				"element": "H" 
			},
			{
				"x": -2.9967416665,
				"y": -2.6641702738,
				"z": -3.7830376853,
				"element": "H" 
			},
			{
				"x": -0.5036525506,
				"y": 1.6706636426,
				"z": -1.2800625788,
				"element": "H" 
			},
			{
				"x": 0.0727419809,
				"y": 1.594522615,
				"z": -2.9433411301,
				"element": "H" 
			},
			{
				"x": 2.30052767,
				"y": 0.9919398099,
				"z": -2.2897448873,
				"element": "H" 
			},
			{
				"x": 1.8305027063,
				"y": 2.3007511696,
				"z": -1.2040396256,
				"element": "H" 
			},
			{
				"x": 0.1856772075,
				"y": 0.4502723204,
				"z": 0.8833992377,
				"element": "H" 
			},
			{
				"x": 1.2523598646,
				"y": 1.8519804549,
				"z": 0.9685777189,
				"element": "H" 
			},
			{
				"x": 3.8986022191,
				"y": 0.6377001177,
				"z": 1.501265828,
				"element": "H" 
			},
			{
				"x": 4.9711867005,
				"y": -0.2073790195,
				"z": 3.5810601839,
				"element": "H" 
			},
			{
				"x": 3.5709276768,
				"y": -1.1604364019,
				"z": 5.4022743739,
				"element": "H" 
			},
			{
				"x": 1.1004675825,
				"y": -1.2617669244,
				"z": 5.1310265121,
				"element": "H" 
			},
			{
				"x": 0.0443202939,
				"y": -0.4127140665,
				"z": 3.0572997506,
				"element": "H" 
			},
			{
				"x": 1.9045446719,
				"y": -1.6125719977,
				"z": 0.2147338536,
				"element": "H" 
			},
			{
				"x": 2.6923679366,
				"y": -1.2871149629,
				"z": -1.3226311054,
				"element": "H" 
			}
		],
		 "valence_orbital": [ 
			{
				"type": "occ",
				"energy": -0.24665,
				"method": "rhf"
			},
			{
				"type": "occ",
				"energy": -0.24495,
				"method": "rhf"
			},
			{
				"type": "occ",
				"energy": -0.24095,
				"method": "rhf"
			},
			{
				"type": "occ",
				"energy": -0.21659,
				"method": "rhf"
			},
			{
				"type": "occ",
				"energy": -0.18818,
				"method": "rhf"
			},
			{
				"type": "unocc",
				"energy": -0.00901,
				"method": "rhf"
			},
			{
				"type": "unocc",
				"energy": -0.00122,
				"method": "rhf"
			},
			{
				"type": "unocc",
				"energy": 0.00238,
				"method": "rhf"
			},
			{
				"type": "unocc",
				"energy": 0.01441,
				"method": "rhf"
			},
			{
				"type": "unocc",
				"energy": 0.02116,
				"method": "rhf"
			}
		],
		"cosmo_sigma_profile": { 
			"-0.025": 0.0,
			"-0.024": 0.0,
			"-0.023": 0.0,
			"-0.022": 0.0,
			"-0.021": 0.0,
			"-0.02": 0.0,
			"-0.019": 0.0,
			"-0.018": 0.0,
			"-0.017": 0.0,
			"-0.016": 0.0,
			"-0.015": 0.231855891253,
			"-0.014": 0.936994744338,
			"-0.013": 2.20080917418,
			"-0.012": 3.40135262163,
			"-0.011": 3.00259500215,
			"-0.01": 3.69891766906,
			"-0.009": 4.0166193699,
			"-0.008": 5.07243698693,
			"-0.007": 3.6260658041,
			"-0.006": 5.61082276802,
			"-0.005": 15.4938481688,
			"-0.004": 28.6220090529,
			"-0.003": 33.5737927575,
			"-0.002": 25.5866987065,
			"-0.001": 22.9658516727,
			"0.0": 17.3508947299,
			"0.001": 17.8388155108,
			"0.002": 19.264533137,
			"0.003": 20.6576365318,
			"0.004": 24.461533762,
			"0.005": 20.9756652071,
			"0.006": 13.3702888677,
			"0.007": 6.3496905269,
			"0.008": 3.6368851888,
			"0.009": 3.38445012246,
			"0.01": 2.57365223585,
			"0.011": 2.31468017055,
			"0.012": 1.82042408792,
			"0.013": 2.5361680105,
			"0.014": 1.98840281041,
			"0.015": 1.05917706331,
			"0.016": 0.0,
			"0.017": 0.0,
			"0.018": 0.0,
			"0.019": 0.0,
			"0.02": 0.0,
			"0.021": 0.0,
			"0.022": 0.0,
			"0.023": 0.0,
			"0.024": 0.0,
			"0.025": 0.0
		}
	}
}
