{
	 "smiles": "CC1(C)C2CCC1(C)C(=O)C2=CC(=O)NC(N)=O", 
	 "Tm": 479.15, 
	 "num_atms": 36, 
	 "gaussian": { 
		 "optdone": 1, 
		 "sigma_profile": "yes", 
		 "theory": "DFT", 
		 "functional": "B3LYP", 
		 "basiset": "6-31G**", 
		 "properties": { 
			 "R2extent": 6334.91, 
			 "electric_dipole_moment_norm": 8.6039086205, 
			 "electric_quadrupole_moment_norm": 45.9039964975, 
			 "total_energy": -841.428698585, 
			 "HOMO_LUMO_gap": 0.14131, 
			 "cosmo_polarized_energy": -23.87, 
			 "cosmo_cavitation_energy": 37.14, 
			 "cosmo_dispersion_energy": -25.7, 
			 "cosmo_repulsion_energy": 1.98, 
			 "cosmo_total_nonelectrostatic_energy": 13.41, 
			 "SMD_solvation_energy": 8.01 
		},
		"coords": [
			{
				"x": 3.0439905674,
				"y": 1.1592561796,
				"z": -2.3158783393,
				"element": "C" 
			},
			{
				"x": 2.3037120671,
				"y": 0.5188565377,
				"z": -1.1311926746,
				"element": "C" 
			},
			{
				"x": 2.2227856739,
				"y": -0.9965819168,
				"z": -1.3888946912,
				"element": "C" 
			},
			{
				"x": 2.9065020217,
				"y": 0.8780600697,
				"z": 0.2677357328,
				"element": "C" 
			},
			{
				"x": 2.7079081198,
				"y": 2.4181950996,
				"z": 0.3467654007,
				"element": "C" 
			},
			{
				"x": 1.3286557112,
				"y": 2.6191497082,
				"z": -0.3484471329,
				"element": "C" 
			},
			{
				"x": 0.9111098318,
				"y": 1.1764688879,
				"z": -0.8055753193,
				"element": "C" 
			},
			{
				"x": -0.2035853822,
				"y": 1.1263674645,
				"z": -1.8357691241,
				"element": "C" 
			},
			{
				"x": 0.5746701287,
				"y": 0.4860710283,
				"z": 0.5154319634,
				"element": "C" 
			},
			{
				"x": -0.5570723455,
				"y": 0.2073094965,
				"z": 0.8971854833,
				"element": "O" 
			},
			{
				"x": 1.8870887792,
				"y": 0.2721328131,
				"z": 1.2211491223,
				"element": "C" 
			},
			{
				"x": 2.1945508448,
				"y": -0.3041576285,
				"z": 2.4003964358,
				"element": "C" 
			},
			{
				"x": 1.3938585874,
				"y": -0.9708801508,
				"z": 3.4886834267,
				"element": "C" 
			},
			{
				"x": 2.0061514781,
				"y": -1.4733223637,
				"z": 4.4159117022,
				"element": "O" 
			},
			{
				"x": 0.0205506456,
				"y": -0.9598656159,
				"z": 3.3406431089,
				"element": "N" 
			},
			{
				"x": -0.9178510106,
				"y": -1.4994593386,
				"z": 4.245271883,
				"element": "C" 
			},
			{
				"x": -2.2088353747,
				"y": -1.3558565043,
				"z": 3.766402463,
				"element": "N" 
			},
			{
				"x": -0.6579447687,
				"y": -1.9902015177,
				"z": 5.3235530591,
				"element": "O" 
			},
			{
				"x": 2.5376147237,
				"y": 0.9197000315,
				"z": -3.2567963494,
				"element": "H" 
			},
			{
				"x": 4.0608041722,
				"y": 0.7565780834,
				"z": -2.3824708145,
				"element": "H" 
			},
			{
				"x": 3.1237112469,
				"y": 2.2460888971,
				"z": -2.252770555,
				"element": "H" 
			},
			{
				"x": 1.6985476723,
				"y": -1.2019787312,
				"z": -2.3279207703,
				"element": "H" 
			},
			{
				"x": 1.7074485226,
				"y": -1.5439536704,
				"z": -0.5944871289,
				"element": "H" 
			},
			{
				"x": 3.228918672,
				"y": -1.4206517679,
				"z": -1.4762194813,
				"element": "H" 
			},
			{
				"x": 3.9308740932,
				"y": 0.5421695594,
				"z": 0.4470997795,
				"element": "H" 
			},
			{
				"x": 2.7144261689,
				"y": 2.7700932765,
				"z": 1.3814141518,
				"element": "H" 
			},
			{
				"x": 3.5088353607,
				"y": 2.9441052266,
				"z": -0.1797909818,
				"element": "H" 
			},
			{
				"x": 0.5771110851,
				"y": 3.0613514594,
				"z": 0.3125433026,
				"element": "H" 
			},
			{
				"x": 1.3996702958,
				"y": 3.2687763037,
				"z": -1.2256642196,
				"element": "H" 
			},
			{
				"x": -1.1189221171,
				"y": 1.5674625998,
				"z": -1.4303873753,
				"element": "H" 
			},
			{
				"x": 0.0725753164,
				"y": 1.6805900568,
				"z": -2.7380391642,
				"element": "H" 
			},
			{
				"x": -0.4388870484,
				"y": 0.0969895587,
				"z": -2.1229559118,
				"element": "H" 
			},
			{
				"x": 3.2482561132,
				"y": -0.342111005,
				"z": 2.6703797709,
				"element": "H" 
			},
			{
				"x": -0.3435144435,
				"y": -0.5003933758,
				"z": 2.5029139508,
				"element": "H" 
			},
			{
				"x": -2.3782655638,
				"y": -1.2495035199,
				"z": 2.7766315588,
				"element": "H" 
			},
			{
				"x": -2.901649845,
				"y": -1.8697552314,
				"z": 4.2891477379,
				"element": "H" 
			}
		],
		 "valence_orbital": [ 
			{
				"type": "occ",
				"energy": -0.27873,
				"method": "rhf"
			},
			{
				"type": "occ",
				"energy": -0.26665,
				"method": "rhf"
			},
			{
				"type": "occ",
				"energy": -0.2664,
				"method": "rhf"
			},
			{
				"type": "occ",
				"energy": -0.26017,
				"method": "rhf"
			},
			{
				"type": "occ",
				"energy": -0.2359,
				"method": "rhf"
			},
			{
				"type": "unocc",
				"energy": -0.09459,
				"method": "rhf"
			},
			{
				"type": "unocc",
				"energy": 0.00175,
				"method": "rhf"
			},
			{
				"type": "unocc",
				"energy": 0.05603,
				"method": "rhf"
			},
			{
				"type": "unocc",
				"energy": 0.05815,
				"method": "rhf"
			},
			{
				"type": "unocc",
				"energy": 0.08658,
				"method": "rhf"
			}
		],
		"cosmo_sigma_profile": { 
			"-0.025": 0.0,
			"-0.024": 0.0,
			"-0.023": 0.0,
			"-0.022": 0.0,
			"-0.021": 0.0,
			"-0.02": 0.0,
			"-0.019": 0.0,
			"-0.018": 0.0,
			"-0.017": 0.0,
			"-0.016": 0.0,
			"-0.015": 0.0,
			"-0.014": 0.761432585425,
			"-0.013": 2.03516623496,
			"-0.012": 1.88791818989,
			"-0.011": 2.34274077394,
			"-0.01": 2.65546697119,
			"-0.009": 2.0779449455,
			"-0.008": 2.44670666933,
			"-0.007": 3.13163582203,
			"-0.006": 5.604980788,
			"-0.005": 12.0938838493,
			"-0.004": 23.6881475478,
			"-0.003": 41.960368019,
			"-0.002": 39.2907807462,
			"-0.001": 34.2968254463,
			"0.0": 33.8208255852,
			"0.001": 16.4622198643,
			"0.002": 5.12015903718,
			"0.003": 5.24118962285,
			"0.004": 4.06341419282,
			"0.005": 4.6388238395,
			"0.006": 4.32553999473,
			"0.007": 3.42489551146,
			"0.008": 3.60409905457,
			"0.009": 3.84888659591,
			"0.01": 4.60118810083,
			"0.011": 3.12319507606,
			"0.012": 5.82259821843,
			"0.013": 8.84082961887,
			"0.014": 4.03570305022,
			"0.015": 1.52916802526,
			"0.016": 1.40402043625,
			"0.017": 1.43251037723,
			"0.018": 0.691545994838,
			"0.019": 0.102597922577,
			"0.02": 0.0,
			"0.021": 0.0,
			"0.022": 0.0,
			"0.023": 0.0,
			"0.024": 0.0,
			"0.025": 0.0
		}
	}
}
