{
	 "smiles": "CC(C)([N+]([O-])=O)C(C)(C)[N+]([O-])=O", 
	 "Tm": 485.15, 
	 "num_atms": 24, 
	 "gaussian": { 
		 "optdone": 1, 
		 "sigma_profile": "yes", 
		 "theory": "DFT", 
		 "functional": "B3LYP", 
		 "basiset": "6-31G**", 
		 "properties": { 
			 "R2extent": 2041.3643, 
			 "electric_dipole_moment_norm": 0.00110453610172, 
			 "electric_quadrupole_moment_norm": 16.9393890728, 
			 "total_energy": -646.081689097, 
			 "HOMO_LUMO_gap": 0.21367, 
			 "cosmo_polarized_energy": -9.75, 
			 "cosmo_cavitation_energy": 25.52, 
			 "cosmo_dispersion_energy": -18.09, 
			 "cosmo_repulsion_energy": 1.39, 
			 "cosmo_total_nonelectrostatic_energy": 8.82, 
			 "SMD_solvation_energy": 8.36 
		},
		"coords": [
			{
				"x": 2.2025390878,
				"y": -0.5190681533,
				"z": -0.9315978728,
				"element": "C" 
			},
			{
				"x": 1.3274535219,
				"y": -0.3520318347,
				"z": 0.3158093718,
				"element": "C" 
			},
			{
				"x": 2.2015922989,
				"y": -0.1214556661,
				"z": 1.5535901926,
				"element": "C" 
			},
			{
				"x": 0.5714167595,
				"y": -1.6978404784,
				"z": 0.5307306285,
				"element": "N" 
			},
			{
				"x": 0.2868254414,
				"y": -2.0142685675,
				"z": 1.6812809687,
				"element": "O" 
			},
			{
				"x": 0.2865088834,
				"y": -2.3566489779,
				"z": -0.4641049199,
				"element": "O" 
			},
			{
				"x": 0.1730072301,
				"y": 0.7343752218,
				"z": 0.1413978298,
				"element": "C" 
			},
			{
				"x": -0.7014187529,
				"y": 0.5034395215,
				"z": -1.0961096988,
				"element": "C" 
			},
			{
				"x": -0.7017979754,
				"y": 0.9017843306,
				"z": 1.388953337,
				"element": "C" 
			},
			{
				"x": 0.9290137182,
				"y": 2.0801112143,
				"z": -0.0740872163,
				"element": "N" 
			},
			{
				"x": 1.2135015692,
				"y": 2.3961172995,
				"z": -1.224777963,
				"element": "O" 
			},
			{
				"x": 1.2140223832,
				"y": 2.7392843058,
				"z": 0.9204788819,
				"element": "O" 
			},
			{
				"x": 1.6234036362,
				"y": -0.7840021334,
				"z": -1.8135581645,
				"element": "H" 
			},
			{
				"x": 2.743407546,
				"y": 0.4077822575,
				"z": -1.1291492591,
				"element": "H" 
			},
			{
				"x": 2.9337254231,
				"y": -1.3125110023,
				"z": -0.756938967,
				"element": "H" 
			},
			{
				"x": 2.7425040242,
				"y": 0.8207400302,
				"z": 1.4523518671,
				"element": "H" 
			},
			{
				"x": 1.6217851004,
				"y": -0.0978760133,
				"z": 2.4737557271,
				"element": "H" 
			},
			{
				"x": 2.932739141,
				"y": -0.9297817266,
				"z": 1.6357578207,
				"element": "H" 
			},
			{
				"x": -1.2422986671,
				"y": -0.4387336259,
				"z": -0.9944618261,
				"element": "H" 
			},
			{
				"x": -0.1218375769,
				"y": 0.4795931769,
				"z": -2.0164101765,
				"element": "H" 
			},
			{
				"x": -1.4325939691,
				"y": 1.3117322431,
				"z": -1.1783386023,
				"element": "H" 
			},
			{
				"x": -1.2426384056,
				"y": -0.0249965858,
				"z": 1.5868971596,
				"element": "H" 
			},
			{
				"x": -0.1224527903,
				"y": 1.1669623437,
				"z": 2.2707027673,
				"element": "H" 
			},
			{
				"x": -1.4330076272,
				"y": 1.6951928202,
				"z": 1.2142281143,
				"element": "H" 
			}
		],
		 "valence_orbital": [ 
			{
				"type": "occ",
				"energy": -0.32503,
				"method": "rhf"
			},
			{
				"type": "occ",
				"energy": -0.3213,
				"method": "rhf"
			},
			{
				"type": "occ",
				"energy": -0.30487,
				"method": "rhf"
			},
			{
				"type": "occ",
				"energy": -0.30176,
				"method": "rhf"
			},
			{
				"type": "occ",
				"energy": -0.30175,
				"method": "rhf"
			},
			{
				"type": "unocc",
				"energy": -0.08808,
				"method": "rhf"
			},
			{
				"type": "unocc",
				"energy": -0.07449,
				"method": "rhf"
			},
			{
				"type": "unocc",
				"energy": 0.05802,
				"method": "rhf"
			},
			{
				"type": "unocc",
				"energy": 0.06891,
				"method": "rhf"
			},
			{
				"type": "unocc",
				"energy": 0.10616,
				"method": "rhf"
			}
		],
		"cosmo_sigma_profile": { 
			"-0.025": 0.0,
			"-0.024": 0.0,
			"-0.023": 0.0,
			"-0.022": 0.0,
			"-0.021": 0.0,
			"-0.02": 0.0,
			"-0.019": 0.0,
			"-0.018": 0.0,
			"-0.017": 0.0,
			"-0.016": 0.0,
			"-0.015": 0.0,
			"-0.014": 0.0,
			"-0.013": 0.0,
			"-0.012": 0.0,
			"-0.011": 0.0779923141754,
			"-0.01": 0.872788191297,
			"-0.009": 2.37219314927,
			"-0.008": 3.29212622508,
			"-0.007": 5.19515680952,
			"-0.006": 12.405120909,
			"-0.005": 15.3980078644,
			"-0.004": 15.5914825147,
			"-0.003": 17.9005917644,
			"-0.002": 20.8808775686,
			"-0.001": 19.848545639,
			"0.0": 8.58238476717,
			"0.001": 7.70798421756,
			"0.002": 5.79430057429,
			"0.003": 5.23688284486,
			"0.004": 7.00336099599,
			"0.005": 7.51948845761,
			"0.006": 7.95573081153,
			"0.007": 18.8199395743,
			"0.008": 9.31629364936,
			"0.009": 6.36352664523,
			"0.01": 1.09965935056,
			"0.011": 0.0,
			"0.012": 0.0,
			"0.013": 0.0,
			"0.014": 0.0,
			"0.015": 0.0,
			"0.016": 0.0,
			"0.017": 0.0,
			"0.018": 0.0,
			"0.019": 0.0,
			"0.02": 0.0,
			"0.021": 0.0,
			"0.022": 0.0,
			"0.023": 0.0,
			"0.024": 0.0,
			"0.025": 0.0
		}
	}
}
