{
	 "smiles": "OC(=O)CCCSC1=NC2=C(S1)C=CC=C2", 
	 "Tm": 377.15, 
	 "num_atms": 27, 
	 "gaussian": { 
		 "optdone": 1, 
		 "sigma_profile": "yes", 
		 "theory": "DFT", 
		 "functional": "B3LYP", 
		 "basiset": "6-31G**", 
		 "properties": { 
			 "R2extent": 5933.0783, 
			 "electric_dipole_moment_norm": 2.1488285739, 
			 "electric_quadrupole_moment_norm": 10.3818610095, 
			 "total_energy": -1427.40092692, 
			 "HOMO_LUMO_gap": 0.18743, 
			 "cosmo_polarized_energy": -12.77, 
			 "cosmo_cavitation_energy": 34.78, 
			 "cosmo_dispersion_energy": -25.68, 
			 "cosmo_repulsion_energy": 1.96, 
			 "cosmo_total_nonelectrostatic_energy": 11.06, 
			 "SMD_solvation_energy": 5.01 
		},
		"coords": [
			{
				"x": 2.8184409854,
				"y": -1.1273930979,
				"z": 2.865342161,
				"element": "O" 
			},
			{
				"x": 3.7906778374,
				"y": -1.5189076355,
				"z": 2.0029944168,
				"element": "C" 
			},
			{
				"x": 4.8095996808,
				"y": -2.0564167679,
				"z": 2.3768626171,
				"element": "O" 
			},
			{
				"x": 3.4392023211,
				"y": -1.1900383236,
				"z": 0.5692146107,
				"element": "C" 
			},
			{
				"x": 2.0806698799,
				"y": -1.7581674197,
				"z": 0.1267805731,
				"element": "C" 
			},
			{
				"x": 1.735031401,
				"y": -1.4527496849,
				"z": -1.3328447126,
				"element": "C" 
			},
			{
				"x": 1.5084788415,
				"y": 0.3335621848,
				"z": -1.72511473,
				"element": "S" 
			},
			{
				"x": -0.1190249585,
				"y": 0.5901677348,
				"z": -1.0977692939,
				"element": "C" 
			},
			{
				"x": -0.8776036068,
				"y": -0.318154302,
				"z": -0.5765925672,
				"element": "N" 
			},
			{
				"x": -2.105014092,
				"y": 0.2128961144,
				"z": -0.2003802129,
				"element": "C" 
			},
			{
				"x": -2.2727411275,
				"y": 1.5951470852,
				"z": -0.4545991151,
				"element": "C" 
			},
			{
				"x": -0.8104597863,
				"y": 2.2322344414,
				"z": -1.1939467927,
				"element": "S" 
			},
			{
				"x": -3.45635142,
				"y": 2.2590693756,
				"z": -0.1295566256,
				"element": "C" 
			},
			{
				"x": -4.4817505743,
				"y": 1.5207361826,
				"z": 0.4593302639,
				"element": "C" 
			},
			{
				"x": -4.3279275448,
				"y": 0.1488960581,
				"z": 0.7175160633,
				"element": "C" 
			},
			{
				"x": -3.147800192,
				"y": -0.5116672092,
				"z": 0.3927279776,
				"element": "C" 
			},
			{
				"x": 3.1323587041,
				"y": -1.3726170665,
				"z": 3.7519315896,
				"element": "H" 
			},
			{
				"x": 4.2524480455,
				"y": -1.5725672381,
				"z": -0.0532470821,
				"element": "H" 
			},
			{
				"x": 3.4232012934,
				"y": -0.0974902925,
				"z": 0.470271616,
				"element": "H" 
			},
			{
				"x": 2.0900036193,
				"y": -2.8510362381,
				"z": 0.2345736288,
				"element": "H" 
			},
			{
				"x": 1.2847620727,
				"y": -1.3838427206,
				"z": 0.7743907279,
				"element": "H" 
			},
			{
				"x": 2.5339941202,
				"y": -1.7696718407,
				"z": -2.0109458988,
				"element": "H" 
			},
			{
				"x": 0.8116889379,
				"y": -1.9569775793,
				"z": -1.6231723315,
				"element": "H" 
			},
			{
				"x": -3.5788401506,
				"y": 3.3190341793,
				"z": -0.3275196677,
				"element": "H" 
			},
			{
				"x": -5.4116840656,
				"y": 2.0163482409,
				"z": 0.7211287923,
				"element": "H" 
			},
			{
				"x": -5.1423147173,
				"y": -0.4030044827,
				"z": 1.1770280226,
				"element": "H" 
			},
			{
				"x": -3.0153455046,
				"y": -1.5709896979,
				"z": 0.5861959693,
				"element": "H" 
			}
		],
		 "valence_orbital": [ 
			{
				"type": "occ",
				"energy": -0.28534,
				"method": "rhf"
			},
			{
				"type": "occ",
				"energy": -0.28029,
				"method": "rhf"
			},
			{
				"type": "occ",
				"energy": -0.272,
				"method": "rhf"
			},
			{
				"type": "occ",
				"energy": -0.23885,
				"method": "rhf"
			},
			{
				"type": "occ",
				"energy": -0.22304,
				"method": "rhf"
			},
			{
				"type": "unocc",
				"energy": -0.03561,
				"method": "rhf"
			},
			{
				"type": "unocc",
				"energy": -0.00914,
				"method": "rhf"
			},
			{
				"type": "unocc",
				"energy": -0.00586,
				"method": "rhf"
			},
			{
				"type": "unocc",
				"energy": 0.00893,
				"method": "rhf"
			},
			{
				"type": "unocc",
				"energy": 0.02596,
				"method": "rhf"
			}
		],
		"cosmo_sigma_profile": { 
			"-0.025": 0.0,
			"-0.024": 0.0,
			"-0.023": 0.0,
			"-0.022": 0.0,
			"-0.021": 0.0,
			"-0.02": 0.0,
			"-0.019": 0.0,
			"-0.018": 0.672753478214,
			"-0.017": 0.743483368084,
			"-0.016": 0.854512042224,
			"-0.015": 0.55705509749,
			"-0.014": 1.21434753697,
			"-0.013": 0.875827584098,
			"-0.012": 0.262505502194,
			"-0.011": 0.349480824953,
			"-0.01": 1.17318296831,
			"-0.009": 0.242654368459,
			"-0.008": 1.34128451886,
			"-0.007": 7.5448086856,
			"-0.006": 15.5819551152,
			"-0.005": 20.3275515604,
			"-0.004": 22.3933297203,
			"-0.003": 19.0412687817,
			"-0.002": 16.9946187655,
			"-0.001": 19.6518743604,
			"0.0": 20.9479515878,
			"0.001": 21.5990521455,
			"0.002": 21.5539814127,
			"0.003": 24.2280496671,
			"0.004": 20.0508598218,
			"0.005": 12.8267679972,
			"0.006": 6.16554577525,
			"0.007": 4.65322934805,
			"0.008": 3.21196482749,
			"0.009": 3.4533007519,
			"0.01": 2.75095654795,
			"0.011": 3.40469823514,
			"0.012": 5.13116246346,
			"0.013": 1.35285343047,
			"0.014": 0.00392629823897,
			"0.015": 0.0,
			"0.016": 0.0,
			"0.017": 0.0,
			"0.018": 0.0,
			"0.019": 0.0,
			"0.02": 0.0,
			"0.021": 0.0,
			"0.022": 0.0,
			"0.023": 0.0,
			"0.024": 0.0,
			"0.0": 0.0
		}
	}
}
