{
	 "smiles": "CC1=CC=C2C(NC=C2C=O)=C1", 
	 "Tm": 460.15, 
	 "num_atms": 21, 
	 "gaussian": { 
		 "optdone": 1, 
		 "sigma_profile": "yes", 
		 "theory": "DFT", 
		 "functional": "B3LYP", 
		 "basiset": "6-31G**", 
		 "properties": { 
			 "R2extent": 2847.4602, 
			 "electric_dipole_moment_norm": 4.64615397399, 
			 "electric_quadrupole_moment_norm": 16.3643920626, 
			 "total_energy": -516.467542248, 
			 "HOMO_LUMO_gap": 0.17366, 
			 "cosmo_polarized_energy": -13.73, 
			 "cosmo_cavitation_energy": 25.34, 
			 "cosmo_dispersion_energy": -18.56, 
			 "cosmo_repulsion_energy": 1.46, 
			 "cosmo_total_nonelectrostatic_energy": 8.24, 
			 "SMD_solvation_energy": 5.32 
		},
		"coords": [
			{
				"x": 0.897122004,
				"y": 2.3641445467,
				"z": -3.3831207875,
				"element": "C" 
			},
			{
				"x": 0.9439251759,
				"y": 1.2581061072,
				"z": -2.3545177381,
				"element": "C" 
			},
			{
				"x": 1.7497488604,
				"y": 1.4039334174,
				"z": -1.1990031931,
				"element": "C" 
			},
			{
				"x": 1.8310773204,
				"y": 0.4216448254,
				"z": -0.22228777,
				"element": "C" 
			},
			{
				"x": 1.0894101861,
				"y": -0.7617438535,
				"z": -0.3807480645,
				"element": "C" 
			},
			{
				"x": 0.2866166655,
				"y": -0.8969902575,
				"z": -1.5405196717,
				"element": "C" 
			},
			{
				"x": -0.3381408078,
				"y": -2.1355400467,
				"z": -1.4649553798,
				"element": "N" 
			},
			{
				"x": 0.0371442122,
				"y": -2.7743705729,
				"z": -0.3176615011,
				"element": "C" 
			},
			{
				"x": 0.9164333891,
				"y": -1.9753918944,
				"z": 0.391220625,
				"element": "C" 
			},
			{
				"x": 1.5172449803,
				"y": -2.3445986958,
				"z": 1.6652378095,
				"element": "C" 
			},
			{
				"x": 1.3129729919,
				"y": -3.3987449657,
				"z": 2.2503230529,
				"element": "O" 
			},
			{
				"x": 0.2028090145,
				"y": 0.0909383462,
				"z": -2.5260071598,
				"element": "C" 
			},
			{
				"x": 0.5342090853,
				"y": 3.3014277499,
				"z": -2.945298241,
				"element": "H" 
			},
			{
				"x": 0.2372253168,
				"y": 2.1089637627,
				"z": -4.2170037698,
				"element": "H" 
			},
			{
				"x": 1.8921958163,
				"y": 2.5681030507,
				"z": -3.7955702579,
				"element": "H" 
			},
			{
				"x": 2.3228121025,
				"y": 2.3197859739,
				"z": -1.0778689266,
				"element": "H" 
			},
			{
				"x": 2.4606646064,
				"y": 0.5712115975,
				"z": 0.6497900701,
				"element": "H" 
			},
			{
				"x": -0.9720572282,
				"y": -2.5083675559,
				"z": -2.154290797,
				"element": "H" 
			},
			{
				"x": -0.3345337656,
				"y": -3.755736041,
				"z": -0.0619372552,
				"element": "H" 
			},
			{
				"x": 2.2030488524,
				"y": -1.5838654557,
				"z": 2.0989835314,
				"element": "H" 
			},
			{
				"x": -0.4228287786,
				"y": -0.0435100385,
				"z": -3.4047645759,
				"element": "H" 
			}
		],
		 "valence_orbital": [ 
			{
				"type": "occ",
				"energy": -0.33458,
				"method": "rhf"
			},
			{
				"type": "occ",
				"energy": -0.27998,
				"method": "rhf"
			},
			{
				"type": "occ",
				"energy": -0.23777,
				"method": "rhf"
			},
			{
				"type": "occ",
				"energy": -0.2317,
				"method": "rhf"
			},
			{
				"type": "occ",
				"energy": -0.21341,
				"method": "rhf"
			},
			{
				"type": "unocc",
				"energy": -0.03975,
				"method": "rhf"
			},
			{
				"type": "unocc",
				"energy": -0.00484,
				"method": "rhf"
			},
			{
				"type": "unocc",
				"energy": 0.01479,
				"method": "rhf"
			},
			{
				"type": "unocc",
				"energy": 0.06729,
				"method": "rhf"
			},
			{
				"type": "unocc",
				"energy": 0.09831,
				"method": "rhf"
			}
		],
		"cosmo_sigma_profile": { 
			"-0.025": 0.0,
			"-0.024": 0.0,
			"-0.023": 0.0,
			"-0.022": 0.0,
			"-0.021": 0.0,
			"-0.02": 0.0,
			"-0.019": 0.0,
			"-0.018": 0.0,
			"-0.017": 0.346419537393,
			"-0.016": 2.01124357733,
			"-0.015": 1.37509352317,
			"-0.014": 1.25612229719,
			"-0.013": 1.5005525146,
			"-0.012": 1.15126995316,
			"-0.011": 1.29984872734,
			"-0.01": 1.74777436699,
			"-0.009": 2.99411040698,
			"-0.008": 2.6444837377,
			"-0.007": 2.47010491254,
			"-0.006": 7.24563996362,
			"-0.005": 11.0001464057,
			"-0.004": 14.3112633247,
			"-0.003": 13.9558728789,
			"-0.002": 15.8278469183,
			"-0.001": 14.1581725946,
			"0.0": 15.3809939471,
			"0.001": 13.6016132988,
			"0.002": 12.9726601499,
			"0.003": 14.3980143914,
			"0.004": 11.8903647794,
			"0.005": 10.6657407726,
			"0.006": 8.36205078643,
			"0.007": 2.97404122267,
			"0.008": 1.00970954095,
			"0.009": 1.51467581289,
			"0.01": 2.18359171337,
			"0.011": 1.96325828214,
			"0.012": 4.23745913355,
			"0.013": 4.18191960427,
			"0.014": 1.52638020092,
			"0.015": 0.151507610294,
			"0.016": 0.0,
			"0.017": 0.0,
			"0.018": 0.0,
			"0.019": 0.0,
			"0.02": 0.0,
			"0.021": 0.0,
			"0.022": 0.0,
			"0.023": 0.0,
			"0.024": 0.0,
			"0.025": 0.0
		}
	}
}
