{
	 "smiles": "NNC(=O)CSC1=CC=NC2=CC(Cl)=CC=C12", 
	 "Tm": 487.15, 
	 "num_atms": 27, 
	 "gaussian": { 
		 "optdone": 1, 
		 "sigma_profile": "yes", 
		 "theory": "DFT", 
		 "functional": "B3LYP", 
		 "basiset": "6-31G**", 
		 "properties": { 
			 "R2extent": 7181.3004, 
			 "electric_dipole_moment_norm": 5.043874138, 
			 "electric_quadrupole_moment_norm": 13.4540871991, 
			 "total_energy": -1523.03521719, 
			 "HOMO_LUMO_gap": 0.16798, 
			 "cosmo_polarized_energy": -17.54, 
			 "cosmo_cavitation_energy": 34.33, 
			 "cosmo_dispersion_energy": -25.73, 
			 "cosmo_repulsion_energy": 1.94, 
			 "cosmo_total_nonelectrostatic_energy": 10.54, 
			 "SMD_solvation_energy": 4.7 
		},
		"coords": [
			{
				"x": 0.9381104951,
				"y": -3.6917255959,
				"z": -2.1212380348,
				"element": "N" 
			},
			{
				"x": 2.1298912473,
				"y": -3.1499726731,
				"z": -1.6224099737,
				"element": "N" 
			},
			{
				"x": 2.3943879965,
				"y": -2.7281442926,
				"z": -0.3490124767,
				"element": "C" 
			},
			{
				"x": 3.4501238843,
				"y": -2.1730686146,
				"z": -0.0678562595,
				"element": "O" 
			},
			{
				"x": 1.3307114705,
				"y": -3.0066184525,
				"z": 0.7136610675,
				"element": "C" 
			},
			{
				"x": -0.2039525503,
				"y": -2.0033374419,
				"z": 0.5962505825,
				"element": "S" 
			},
			{
				"x": 0.2525159097,
				"y": -0.4164032666,
				"z": 1.2752662848,
				"element": "C" 
			},
			{
				"x": 1.5536659588,
				"y": -0.0254877482,
				"z": 1.5220001914,
				"element": "C" 
			},
			{
				"x": 1.7868808944,
				"y": 1.260501855,
				"z": 2.0681605644,
				"element": "C" 
			},
			{
				"x": 0.8526996012,
				"y": 2.1416438136,
				"z": 2.3556327341,
				"element": "N" 
			},
			{
				"x": -0.4390786411,
				"y": 1.7761633357,
				"z": 2.1100355268,
				"element": "C" 
			},
			{
				"x": -1.4511098655,
				"y": 2.7250823194,
				"z": 2.4140123192,
				"element": "C" 
			},
			{
				"x": -2.7708355421,
				"y": 2.4132174731,
				"z": 2.1941781144,
				"element": "C" 
			},
			{
				"x": -4.0246753729,
				"y": 3.5849002997,
				"z": 2.5680671333,
				"element": "Cl" 
			},
			{
				"x": -3.1543844196,
				"y": 1.1564978992,
				"z": 1.6726913164,
				"element": "C" 
			},
			{
				"x": -2.1870842328,
				"y": 0.2241315221,
				"z": 1.3729058036,
				"element": "C" 
			},
			{
				"x": -0.8089814787,
				"y": 0.5001128417,
				"z": 1.5730504643,
				"element": "C" 
			},
			{
				"x": 0.7759808794,
				"y": -4.6206563798,
				"z": -1.742201827,
				"element": "H" 
			},
			{
				"x": 0.1513930791,
				"y": -3.086016677,
				"z": -1.9009100522,
				"element": "H" 
			},
			{
				"x": 2.8256759068,
				"y": -2.9067341279,
				"z": -2.3162199667,
				"element": "H" 
			},
			{
				"x": 0.9706412057,
				"y": -4.0376399861,
				"z": 0.6508009097,
				"element": "H" 
			},
			{
				"x": 1.7891896017,
				"y": -2.8596429272,
				"z": 1.6918886773,
				"element": "H" 
			},
			{
				"x": 2.4036871311,
				"y": -0.6549045853,
				"z": 1.2855449206,
				"element": "H" 
			},
			{
				"x": 2.8152141858,
				"y": 1.5625876938,
				"z": 2.2633655901,
				"element": "H" 
			},
			{
				"x": -1.1450965398,
				"y": 3.6826694294,
				"z": 2.8177142751,
				"element": "H" 
			},
			{
				"x": -4.2047494952,
				"y": 0.9375620283,
				"z": 1.5176417892,
				"element": "H" 
			},
			{
				"x": -2.4930213092,
				"y": -0.7408177422,
				"z": 0.9817803261,
				"element": "H" 
			}
		],
		 "valence_orbital": [ 
			{
				"type": "occ",
				"energy": -0.27641,
				"method": "rhf"
			},
			{
				"type": "occ",
				"energy": -0.26189,
				"method": "rhf"
			},
			{
				"type": "occ",
				"energy": -0.25856,
				"method": "rhf"
			},
			{
				"type": "occ",
				"energy": -0.25003,
				"method": "rhf"
			},
			{
				"type": "occ",
				"energy": -0.23075,
				"method": "rhf"
			},
			{
				"type": "unocc",
				"energy": -0.06277,
				"method": "rhf"
			},
			{
				"type": "unocc",
				"energy": -0.02735,
				"method": "rhf"
			},
			{
				"type": "unocc",
				"energy": -0.02001,
				"method": "rhf"
			},
			{
				"type": "unocc",
				"energy": 0.00744,
				"method": "rhf"
			},
			{
				"type": "unocc",
				"energy": 0.02271,
				"method": "rhf"
			}
		],
		"cosmo_sigma_profile": { 
			"-0.025": 0.0,
			"-0.024": 0.0,
			"-0.023": 0.0,
			"-0.022": 0.0,
			"-0.021": 0.0,
			"-0.02": 0.0,
			"-0.019": 0.0,
			"-0.018": 0.0,
			"-0.017": 0.0,
			"-0.016": 0.0,
			"-0.015": 0.0,
			"-0.014": 0.560172596327,
			"-0.013": 1.82136659875,
			"-0.012": 3.42204235372,
			"-0.011": 4.12314279142,
			"-0.01": 4.2430724134,
			"-0.009": 5.06753721869,
			"-0.008": 5.82758579878,
			"-0.007": 10.5151971514,
			"-0.006": 13.1174556524,
			"-0.005": 13.3660010426,
			"-0.004": 12.0186239498,
			"-0.003": 12.5855840777,
			"-0.002": 13.4103272011,
			"-0.001": 15.128558173,
			"0.0": 23.5529892653,
			"0.001": 36.052506618,
			"0.002": 30.7984187858,
			"0.003": 15.4400414226,
			"0.004": 16.3575262509,
			"0.005": 8.03558115138,
			"0.006": 4.18721199279,
			"0.007": 2.84676833655,
			"0.008": 3.53646423154,
			"0.009": 2.92202833129,
			"0.01": 2.91797800482,
			"0.011": 3.26071214692,
			"0.012": 4.22850938059,
			"0.013": 5.24215515622,
			"0.014": 2.40666196397,
			"0.015": 1.41569627828,
			"0.016": 0.365431344803,
			"0.017": 0.0,
			"0.018": 0.0,
			"0.019": 0.0,
			"0.02": 0.0,
			"0.021": 0.0,
			"0.022": 0.0,
			"0.023": 0.0,
			"0.024": 0.0,
			"0.025": 0.0
		}
	}
}
