{
	 "smiles": "CC1=NN(N=C1CBr)C1=CC=CC=C1", 
	 "Tm": 345.65, 
	 "num_atms": 24, 
	 "gaussian": { 
		 "optdone": 1, 
		 "sigma_profile": "yes", 
		 "theory": "DFT", 
		 "functional": "B3LYP", 
		 "basiset": "6-31G**", 
		 "properties": { 
			 "R2extent": 6230.2818, 
			 "electric_dipole_moment_norm": 1.98682983167, 
			 "electric_quadrupole_moment_norm": 11.814942481, 
			 "total_energy": -3122.73409085, 
			 "HOMO_LUMO_gap": 0.1816, 
			 "cosmo_polarized_energy": -8.62, 
			 "cosmo_cavitation_energy": 30.79, 
			 "cosmo_dispersion_energy": -22.72, 
			 "cosmo_repulsion_energy": 1.8, 
			 "cosmo_total_nonelectrostatic_energy": 9.87, 
			 "SMD_solvation_energy": 2.52 
		},
		"coords": [
			{
				"x": 2.3259647363,
				"y": 1.9217525978,
				"z": 0.1971384976,
				"element": "C" 
			},
			{
				"x": 1.5418789759,
				"y": 0.6528423934,
				"z": 0.2786814459,
				"element": "C" 
			},
			{
				"x": 0.2919693468,
				"y": 0.6118533323,
				"z": 0.7357172996,
				"element": "N" 
			},
			{
				"x": -0.0455501859,
				"y": -0.685270206,
				"z": 0.6632596395,
				"element": "N" 
			},
			{
				"x": 0.904259002,
				"y": -1.4908702301,
				"z": 0.1905834194,
				"element": "N" 
			},
			{
				"x": 1.9254234521,
				"y": -0.6689501654,
				"z": -0.0654918634,
				"element": "C" 
			},
			{
				"x": 3.1967877458,
				"y": -1.1729679906,
				"z": -0.6253937919,
				"element": "C" 
			},
			{
				"x": 4.661588922,
				"y": -1.2303384982,
				"z": 0.7459696078,
				"element": "Br" 
			},
			{
				"x": -1.3266838418,
				"y": -1.1612473607,
				"z": 1.0571369399,
				"element": "C" 
			},
			{
				"x": -1.6096147678,
				"y": -2.5278403471,
				"z": 0.9723840498,
				"element": "C" 
			},
			{
				"x": -2.8677221358,
				"y": -2.9839024634,
				"z": 1.3609334227,
				"element": "C" 
			},
			{
				"x": -3.834494514,
				"y": -2.0916313752,
				"z": 1.8296635106,
				"element": "C" 
			},
			{
				"x": -3.5352325983,
				"y": -0.7299656117,
				"z": 1.908884021,
				"element": "C" 
			},
			{
				"x": -2.2828642435,
				"y": -0.2545947129,
				"z": 1.5242408361,
				"element": "C" 
			},
			{
				"x": 2.5823123347,
				"y": 2.1672949995,
				"z": -0.8399883908,
				"element": "H" 
			},
			{
				"x": 1.7447905285,
				"y": 2.7479631209,
				"z": 0.610837775,
				"element": "H" 
			},
			{
				"x": 3.2645944398,
				"y": 1.8340504188,
				"z": 0.7539395296,
				"element": "H" 
			},
			{
				"x": 3.5987642568,
				"y": -0.5328992626,
				"z": -1.4087145324,
				"element": "H" 
			},
			{
				"x": 3.096025538,
				"y": -2.1961449716,
				"z": -0.9790616505,
				"element": "H" 
			},
			{
				"x": -0.849822858,
				"y": -3.2083448674,
				"z": 0.6085604932,
				"element": "H" 
			},
			{
				"x": -3.0903676339,
				"y": -4.0448111322,
				"z": 1.296559564,
				"element": "H" 
			},
			{
				"x": -4.8123582717,
				"y": -2.4545362833,
				"z": 2.1310709956,
				"element": "H" 
			},
			{
				"x": -4.2799672499,
				"y": -0.0282499732,
				"z": 2.2725132143,
				"element": "H" 
			},
			{
				"x": -2.035880978,
				"y": 0.7982085889,
				"z": 1.5802759676,
				"element": "H" 
			}
		],
		 "valence_orbital": [ 
			{
				"type": "occ",
				"energy": -0.29324,
				"method": "rhf"
			},
			{
				"type": "occ",
				"energy": -0.27566,
				"method": "rhf"
			},
			{
				"type": "occ",
				"energy": -0.27414,
				"method": "rhf"
			},
			{
				"type": "occ",
				"energy": -0.25906,
				"method": "rhf"
			},
			{
				"type": "occ",
				"energy": -0.22885,
				"method": "rhf"
			},
			{
				"type": "unocc",
				"energy": -0.04725,
				"method": "rhf"
			},
			{
				"type": "unocc",
				"energy": -0.01821,
				"method": "rhf"
			},
			{
				"type": "unocc",
				"energy": -0.00811,
				"method": "rhf"
			},
			{
				"type": "unocc",
				"energy": 0.02978,
				"method": "rhf"
			},
			{
				"type": "unocc",
				"energy": 0.06166,
				"method": "rhf"
			}
		],
		"cosmo_sigma_profile": { 
			"-0.025": 0.0,
			"-0.024": 0.0,
			"-0.023": 0.0,
			"-0.022": 0.0,
			"-0.021": 0.0,
			"-0.02": 0.0,
			"-0.019": 0.0,
			"-0.018": 0.0,
			"-0.017": 0.0,
			"-0.016": 0.0,
			"-0.015": 0.0,
			"-0.014": 0.0,
			"-0.013": 0.0,
			"-0.012": 0.0,
			"-0.011": 0.0,
			"-0.01": 0.0,
			"-0.009": 0.853333258257,
			"-0.008": 3.99450562787,
			"-0.007": 5.56147275062,
			"-0.006": 13.9856098632,
			"-0.005": 18.010084927,
			"-0.004": 18.239050564,
			"-0.003": 16.6371275958,
			"-0.002": 16.9706688866,
			"-0.001": 20.752105973,
			"0.0": 20.3200553016,
			"0.001": 19.3314838882,
			"0.002": 19.0280980223,
			"0.003": 18.9350994076,
			"0.004": 20.2433214952,
			"0.005": 15.6304862782,
			"0.006": 10.9450681179,
			"0.007": 3.87195767139,
			"0.008": 2.0580046007,
			"0.009": 2.68649853043,
			"0.01": 1.61115950392,
			"0.011": 0.127352508238,
			"0.012": 0.0,
			"0.013": 0.0,
			"0.014": 0.0,
			"0.015": 0.0,
			"0.016": 0.0,
			"0.017": 0.0,
			"0.018": 0.0,
			"0.019": 0.0,
			"0.02": 0.0,
			"0.021": 0.0,
			"0.022": 0.0,
			"0.023": 0.0,
			"0.024": 0.0,
			"0.025": 0.0
		}
	}
}
