{
	 "smiles": "ClC1=CC=CC2=C1OC1=C2C(Cl)=CC(Cl)=C1Cl", 
	 "Tm": 450.15, 
	 "num_atms": 21, 
	 "gaussian": { 
		 "optdone": 1, 
		 "sigma_profile": "yes", 
		 "theory": "DFT", 
		 "functional": "B3LYP", 
		 "basiset": "6-31G**", 
		 "properties": { 
			 "R2extent": 8029.9698, 
			 "electric_dipole_moment_norm": 2.78611808795, 
			 "electric_quadrupole_moment_norm": 7.26970071048, 
			 "total_energy": -2375.67837194, 
			 "HOMO_LUMO_gap": 0.17814, 
			 "cosmo_polarized_energy": -5.21, 
			 "cosmo_cavitation_energy": 33.03, 
			 "cosmo_dispersion_energy": -24.78, 
			 "cosmo_repulsion_energy": 1.9, 
			 "cosmo_total_nonelectrostatic_energy": 10.15, 
			 "SMD_solvation_energy": 4.49 
		},
		"coords": [
			{
				"x": 1.4238236613,
				"y": 4.0090723231,
				"z": 1.7364425674,
				"element": "Cl" 
			},
			{
				"x": 0.3942675377,
				"y": 2.9433022038,
				"z": 0.8185411217,
				"element": "C" 
			},
			{
				"x": -0.2569382197,
				"y": 3.3714208542,
				"z": -0.3380367179,
				"element": "C" 
			},
			{
				"x": -1.0811126628,
				"y": 2.4949712953,
				"z": -1.0606269541,
				"element": "C" 
			},
			{
				"x": -1.2797358401,
				"y": 1.1768860256,
				"z": -0.6563556654,
				"element": "C" 
			},
			{
				"x": -0.6304383428,
				"y": 0.736468606,
				"z": 0.5039117124,
				"element": "C" 
			},
			{
				"x": 0.1935078188,
				"y": 1.6272459103,
				"z": 1.218707694,
				"element": "C" 
			},
			{
				"x": 0.7515826513,
				"y": 1.0383633998,
				"z": 2.3259577574,
				"element": "O" 
			},
			{
				"x": 0.2916380426,
				"y": -0.2477028546,
				"z": 2.3391836326,
				"element": "C" 
			},
			{
				"x": -0.5631676558,
				"y": -0.5074162942,
				"z": 1.2503217009,
				"element": "C" 
			},
			{
				"x": -1.1083654156,
				"y": -1.7908386173,
				"z": 1.1399062191,
				"element": "C" 
			},
			{
				"x": -2.1791049397,
				"y": -2.196613889,
				"z": -0.1820296886,
				"element": "Cl" 
			},
			{
				"x": -0.8005820402,
				"y": -2.7602935171,
				"z": 2.0874587618,
				"element": "C" 
			},
			{
				"x": 0.0557844862,
				"y": -2.4634388023,
				"z": 3.1591976524,
				"element": "C" 
			},
			{
				"x": 0.3982962296,
				"y": -3.7266745248,
				"z": 4.3099369146,
				"element": "Cl" 
			},
			{
				"x": 0.624283288,
				"y": -1.1908665376,
				"z": 3.3086313179,
				"element": "C" 
			},
			{
				"x": 1.6870121254,
				"y": -0.7658858914,
				"z": 4.6089475519,
				"element": "Cl" 
			},
			{
				"x": -0.1166693563,
				"y": 4.393732102,
				"z": -0.6713296141,
				"element": "H" 
			},
			{
				"x": -1.572870717,
				"y": 2.8608665688,
				"z": -1.9562796266,
				"element": "H" 
			},
			{
				"x": -1.9181891371,
				"y": 0.5098264229,
				"z": -1.2223668535,
				"element": "H" 
			},
			{
				"x": -1.2204215139,
				"y": -3.7550247836,
				"z": 2.0057805163,
				"element": "H" 
			}
		],
		 "valence_orbital": [ 
			{
				"type": "occ",
				"energy": -0.32126,
				"method": "rhf"
			},
			{
				"type": "occ",
				"energy": -0.29302,
				"method": "rhf"
			},
			{
				"type": "occ",
				"energy": -0.27203,
				"method": "rhf"
			},
			{
				"type": "occ",
				"energy": -0.24626,
				"method": "rhf"
			},
			{
				"type": "occ",
				"energy": -0.24306,
				"method": "rhf"
			},
			{
				"type": "unocc",
				"energy": -0.06492,
				"method": "rhf"
			},
			{
				"type": "unocc",
				"energy": -0.03312,
				"method": "rhf"
			},
			{
				"type": "unocc",
				"energy": -0.01706,
				"method": "rhf"
			},
			{
				"type": "unocc",
				"energy": -0.01423,
				"method": "rhf"
			},
			{
				"type": "unocc",
				"energy": 0.0043,
				"method": "rhf"
			}
		],
		"cosmo_sigma_profile": { 
			"-0.025": 0.0,
			"-0.024": 0.0,
			"-0.023": 0.0,
			"-0.022": 0.0,
			"-0.021": 0.0,
			"-0.02": 0.0,
			"-0.019": 0.0,
			"-0.018": 0.0,
			"-0.017": 0.0,
			"-0.016": 0.0,
			"-0.015": 0.0,
			"-0.014": 0.0,
			"-0.013": 0.0,
			"-0.012": 0.0,
			"-0.011": 0.0,
			"-0.01": 0.0409614951354,
			"-0.009": 1.04081918058,
			"-0.008": 2.49449237017,
			"-0.007": 5.87624971833,
			"-0.006": 7.60943496953,
			"-0.005": 7.56463939937,
			"-0.004": 10.4265827236,
			"-0.003": 15.4239023493,
			"-0.002": 26.5597587142,
			"-0.001": 38.2270721801,
			"0.0": 35.0789893017,
			"0.001": 29.5184305159,
			"0.002": 29.8804351274,
			"0.003": 37.0534646836,
			"0.004": 22.6036663454,
			"0.005": 4.20440571196,
			"0.006": 2.42503972687,
			"0.007": 0.951883961824,
			"0.008": 0.0,
			"0.009": 0.0,
			"0.01": 0.0,
			"0.011": 0.0,
			"0.012": 0.0,
			"0.013": 0.0,
			"0.014": 0.0,
			"0.015": 0.0,
			"0.016": 0.0,
			"0.017": 0.0,
			"0.018": 0.0,
			"0.019": 0.0,
			"0.02": 0.0,
			"0.021": 0.0,
			"0.022": 0.0,
			"0.023": 0.0,
			"0.024": 0.0,
			"0.025": 0.0
		}
	}
}
