{
	 "smiles": "CC1=C2OC(=CC2=CC=C1)C(O)=O", 
	 "Tm": 490.15, 
	 "num_atms": 21, 
	 "gaussian": { 
		 "optdone": 1, 
		 "sigma_profile": "yes", 
		 "theory": "DFT", 
		 "functional": "B3LYP", 
		 "basiset": "6-31G**", 
		 "properties": { 
			 "R2extent": 4213.763, 
			 "electric_dipole_moment_norm": 2.00634813031, 
			 "electric_quadrupole_moment_norm": 12.0767743785, 
			 "total_energy": -611.568442866, 
			 "HOMO_LUMO_gap": 0.16978, 
			 "cosmo_polarized_energy": -10.1, 
			 "cosmo_cavitation_energy": 26.0, 
			 "cosmo_dispersion_energy": -19.13, 
			 "cosmo_repulsion_energy": 1.52, 
			 "cosmo_total_nonelectrostatic_energy": 8.39, 
			 "SMD_solvation_energy": 6.13 
		},
		"coords": [
			{
				"x": -1.2943893344,
				"y": 1.1287111682,
				"z": 1.7436333544,
				"element": "C" 
			},
			{
				"x": -1.4077718818,
				"y": 0.1660938788,
				"z": 0.5877120686,
				"element": "C" 
			},
			{
				"x": -1.4474767903,
				"y": 0.5963211673,
				"z": -0.7401859084,
				"element": "C" 
			},
			{
				"x": -1.3904854202,
				"y": 1.9010580888,
				"z": -1.1460974513,
				"element": "O" 
			},
			{
				"x": -1.4593809421,
				"y": 1.8750534527,
				"z": -2.520147405,
				"element": "C" 
			},
			{
				"x": -1.5580394168,
				"y": 0.6021249351,
				"z": -3.0011935705,
				"element": "C" 
			},
			{
				"x": -1.5527588431,
				"y": -0.2616811006,
				"z": -1.8558370172,
				"element": "C" 
			},
			{
				"x": -1.624313388,
				"y": -1.6491034082,
				"z": -1.6465197526,
				"element": "C" 
			},
			{
				"x": -1.5871916909,
				"y": -2.1083546273,
				"z": -0.3361706376,
				"element": "C" 
			},
			{
				"x": -1.4814418156,
				"y": -1.2197242793,
				"z": 0.7522989211,
				"element": "C" 
			},
			{
				"x": -1.4217834629,
				"y": 3.1357728931,
				"z": -3.267784329,
				"element": "C" 
			},
			{
				"x": -1.3194349474,
				"y": 4.2228436121,
				"z": -2.4709450836,
				"element": "O" 
			},
			{
				"x": -1.4785425258,
				"y": 3.1957613394,
				"z": -4.4809164754,
				"element": "O" 
			},
			{
				"x": -2.1517360843,
				"y": 1.0348035482,
				"z": 2.4190214401,
				"element": "H" 
			},
			{
				"x": -1.2507453264,
				"y": 2.1621569667,
				"z": 1.3945574253,
				"element": "H" 
			},
			{
				"x": -0.3920942872,
				"y": 0.9313264559,
				"z": 2.3326336551,
				"element": "H" 
			},
			{
				"x": -1.624981689,
				"y": 0.3358922981,
				"z": -4.0457678755,
				"element": "H" 
			},
			{
				"x": -1.70585596,
				"y": -2.3375068542,
				"z": -2.4817618711,
				"element": "H" 
			},
			{
				"x": -1.640455901,
				"y": -3.1749671749,
				"z": -0.1393098106,
				"element": "H" 
			},
			{
				"x": -1.4559435743,
				"y": -1.625167401,
				"z": 1.7607386152,
				"element": "H" 
			},
			{
				"x": -1.3044767186,
				"y": 4.9867850409,
				"z": -3.0712582922,
				"element": "H" 
			}
		],
		 "valence_orbital": [ 
			{
				"type": "occ",
				"energy": -0.32267,
				"method": "rhf"
			},
			{
				"type": "occ",
				"energy": -0.29538,
				"method": "rhf"
			},
			{
				"type": "occ",
				"energy": -0.28306,
				"method": "rhf"
			},
			{
				"type": "occ",
				"energy": -0.24348,
				"method": "rhf"
			},
			{
				"type": "occ",
				"energy": -0.22808,
				"method": "rhf"
			},
			{
				"type": "unocc",
				"energy": -0.0583,
				"method": "rhf"
			},
			{
				"type": "unocc",
				"energy": 0.00479,
				"method": "rhf"
			},
			{
				"type": "unocc",
				"energy": 0.01709,
				"method": "rhf"
			},
			{
				"type": "unocc",
				"energy": 0.0778,
				"method": "rhf"
			},
			{
				"type": "unocc",
				"energy": 0.09924,
				"method": "rhf"
			}
		],
		"cosmo_sigma_profile": { 
			"-0.025": 0.0,
			"-0.024": 0.0,
			"-0.023": 0.0,
			"-0.022": 0.0,
			"-0.021": 0.0,
			"-0.02": 0.0,
			"-0.019": 0.423586762479,
			"-0.018": 0.702623270701,
			"-0.017": 1.35428111307,
			"-0.016": 0.74536894594,
			"-0.015": 0.107832834807,
			"-0.014": 0.624904295648,
			"-0.013": 0.769691591645,
			"-0.012": 1.03725413968,
			"-0.011": 1.06442658134,
			"-0.01": 0.49894002617,
			"-0.009": 0.619676779021,
			"-0.008": 1.98903187319,
			"-0.007": 3.11184477649,
			"-0.006": 7.79006336773,
			"-0.005": 11.0182592281,
			"-0.004": 14.5576544543,
			"-0.003": 18.1543049479,
			"-0.002": 14.5944823327,
			"-0.001": 17.0324605684,
			"0.0": 21.7731310774,
			"0.001": 17.8115077149,
			"0.002": 14.6111299051,
			"0.003": 11.399889961,
			"0.004": 11.9136654432,
			"0.005": 9.02164982697,
			"0.006": 3.22197971953,
			"0.007": 2.8743577382,
			"0.008": 3.05004777305,
			"0.009": 4.77598846652,
			"0.01": 3.05554719729,
			"0.011": 5.00104319337,
			"0.012": 3.51097380661,
			"0.013": 0.0131841235449,
			"0.014": 0.0,
			"0.015": 0.0,
			"0.016": 0.0,
			"0.017": 0.0,
			"0.018": 0.0,
			"0.019": 0.0,
			"0.02": 0.0,
			"0.021": 0.0,
			"0.022": 0.0,
			"0.023": 0.0,
			"0.024": 0.0,
			"0.025": 0.0
		}
	}
}
