{
	 "smiles": "CC1(C)C2CCC1(C)C(C2CC(O)C1=CC=CC=C1)C(O)=O", 
	 "Tm": 392.15, 
	 "num_atms": 48, 
	 "gaussian": { 
		 "optdone": 1, 
		 "sigma_profile": "yes", 
		 "theory": "DFT", 
		 "functional": "B3LYP", 
		 "basiset": "6-31G**", 
		 "properties": { 
			 "R2extent": 7192.1965, 
			 "electric_dipole_moment_norm": 2.29854642981, 
			 "electric_quadrupole_moment_norm": 4.13513887917, 
			 "total_energy": -965.373068746, 
			 "HOMO_LUMO_gap": 0.2339, 
			 "cosmo_polarized_energy": -13.42, 
			 "cosmo_cavitation_energy": 44.41, 
			 "cosmo_dispersion_energy": -29.65, 
			 "cosmo_repulsion_energy": 2.23, 
			 "cosmo_total_nonelectrostatic_energy": 17.0, 
			 "SMD_solvation_energy": 7.77 
		},
		"coords": [
			{
				"x": 1.4059219084,
				"y": 0.8056804017,
				"z": -0.8542283581,
				"element": "C" 
			},
			{
				"x": 0.0096463474,
				"y": 0.7700873548,
				"z": -1.502528295,
				"element": "C" 
			},
			{
				"x": 0.2258133924,
				"y": 0.1671695652,
				"z": -2.9084664563,
				"element": "C" 
			},
			{
				"x": -1.0941649784,
				"y": 0.0299796955,
				"z": -0.6837782785,
				"element": "C" 
			},
			{
				"x": -2.3543736713,
				"y": 0.2457159199,
				"z": -1.558764758,
				"element": "C" 
			},
			{
				"x": -2.1413338461,
				"y": 1.6871311974,
				"z": -2.1172755329,
				"element": "C" 
			},
			{
				"x": -0.7779290346,
				"y": 2.133058763,
				"z": -1.5040477211,
				"element": "C" 
			},
			{
				"x": -0.1546190741,
				"y": 3.3185660973,
				"z": -2.2348814816,
				"element": "C" 
			},
			{
				"x": -1.1132933098,
				"y": 2.3672545772,
				"z": 0.0122583081,
				"element": "C" 
			},
			{
				"x": -1.3009010983,
				"y": 0.8932707325,
				"z": 0.5957932212,
				"element": "C" 
			},
			{
				"x": -0.4655914725,
				"y": 0.5073077273,
				"z": 1.8357287161,
				"element": "C" 
			},
			{
				"x": -1.1304510474,
				"y": -0.5391504728,
				"z": 2.7570933194,
				"element": "C" 
			},
			{
				"x": -2.3433714497,
				"y": 0.042811306,
				"z": 3.2284504489,
				"element": "O" 
			},
			{
				"x": -1.3527558568,
				"y": -1.9065605323,
				"z": 2.1214596164,
				"element": "C" 
			},
			{
				"x": -2.6127757382,
				"y": -2.2986324684,
				"z": 1.6544648252,
				"element": "C" 
			},
			{
				"x": -2.7956883499,
				"y": -3.5535863255,
				"z": 1.0683221117,
				"element": "C" 
			},
			{
				"x": -1.7208481383,
				"y": -4.4338090073,
				"z": 0.9420094696,
				"element": "C" 
			},
			{
				"x": -0.4604714465,
				"y": -4.0540500648,
				"z": 1.4117215999,
				"element": "C" 
			},
			{
				"x": -0.2817414985,
				"y": -2.8032159175,
				"z": 2.0011860032,
				"element": "C" 
			},
			{
				"x": -0.1926296923,
				"y": 3.2627952027,
				"z": 0.8163100612,
				"element": "C" 
			},
			{
				"x": -0.8710918382,
				"y": 3.828341582,
				"z": 1.8517020858,
				"element": "O" 
			},
			{
				"x": 0.9849134848,
				"y": 3.5033773532,
				"z": 0.6406833816,
				"element": "O" 
			},
			{
				"x": 1.775657806,
				"y": -0.2167150396,
				"z": -0.7095411996,
				"element": "H" 
			},
			{
				"x": 2.1137778805,
				"y": 1.3136550742,
				"z": -1.5183807438,
				"element": "H" 
			},
			{
				"x": 1.4500294513,
				"y": 1.3316736055,
				"z": 0.0950137294,
				"element": "H" 
			},
			{
				"x": 0.6737663256,
				"y": -0.8290508437,
				"z": -2.8184471336,
				"element": "H" 
			},
			{
				"x": -0.6827810693,
				"y": 0.0623344881,
				"z": -3.5027816228,
				"element": "H" 
			},
			{
				"x": 0.926084981,
				"y": 0.7825871155,
				"z": -3.4836909835,
				"element": "H" 
			},
			{
				"x": -0.8838736645,
				"y": -1.019373411,
				"z": -0.4652376698,
				"element": "H" 
			},
			{
				"x": -3.2724971424,
				"y": 0.153036553,
				"z": -0.9706763593,
				"element": "H" 
			},
			{
				"x": -2.4199795279,
				"y": -0.4927496799,
				"z": -2.362546459,
				"element": "H" 
			},
			{
				"x": -2.9476853695,
				"y": 2.3743121117,
				"z": -1.8402599722,
				"element": "H" 
			},
			{
				"x": -2.0884928206,
				"y": 1.6940290449,
				"z": -3.2101848864,
				"element": "H" 
			},
			{
				"x": 0.8057054115,
				"y": 3.6041941632,
				"z": -1.801432676,
				"element": "H" 
			},
			{
				"x": -0.0033671849,
				"y": 3.079312951,
				"z": -3.293051544,
				"element": "H" 
			},
			{
				"x": -0.814143888,
				"y": 4.1942142724,
				"z": -2.1934422395,
				"element": "H" 
			},
			{
				"x": -2.0818357211,
				"y": 2.8715587993,
				"z": 0.0796505707,
				"element": "H" 
			},
			{
				"x": -2.3428198424,
				"y": 0.8163572298,
				"z": 0.9157228288,
				"element": "H" 
			},
			{
				"x": -0.3131064131,
				"y": 1.3876222699,
				"z": 2.4689994217,
				"element": "H" 
			},
			{
				"x": 0.5230262523,
				"y": 0.1322424344,
				"z": 1.5610272761,
				"element": "H" 
			},
			{
				"x": -0.4360847147,
				"y": -0.6816385591,
				"z": 3.6023140561,
				"element": "H" 
			},
			{
				"x": -2.7648286062,
				"y": -0.5935134721,
				"z": 3.8211591785,
				"element": "H" 
			},
			{
				"x": -3.4482852315,
				"y": -1.6124357239,
				"z": 1.7503285706,
				"element": "H" 
			},
			{
				"x": -3.7801644867,
				"y": -3.8419603029,
				"z": 0.7101109089,
				"element": "H" 
			},
			{
				"x": -1.8628976877,
				"y": -5.4100038901,
				"z": 0.487402161,
				"element": "H" 
			},
			{
				"x": 0.3807329065,
				"y": -4.7363731098,
				"z": 1.3264798837,
				"element": "H" 
			},
			{
				"x": 0.6997390051,
				"y": -2.5194624754,
				"z": 2.3753074328,
				"element": "H" 
			},
			{
				"x": -0.2191402411,
				"y": 4.3669037074,
				"z": 2.3316451844,
				"element": "H" 
			}
		],
		 "valence_orbital": [ 
			{
				"type": "occ",
				"energy": -0.27922,
				"method": "rhf"
			},
			{
				"type": "occ",
				"energy": -0.27485,
				"method": "rhf"
			},
			{
				"type": "occ",
				"energy": -0.25811,
				"method": "rhf"
			},
			{
				"type": "occ",
				"energy": -0.25253,
				"method": "rhf"
			},
			{
				"type": "occ",
				"energy": -0.24167,
				"method": "rhf"
			},
			{
				"type": "unocc",
				"energy": -0.00777,
				"method": "rhf"
			},
			{
				"type": "unocc",
				"energy": -0.00346,
				"method": "rhf"
			},
			{
				"type": "unocc",
				"energy": 0.00974,
				"method": "rhf"
			},
			{
				"type": "unocc",
				"energy": 0.07428,
				"method": "rhf"
			},
			{
				"type": "unocc",
				"energy": 0.08011,
				"method": "rhf"
			}
		],
		"cosmo_sigma_profile": { 
			"-0.025": 0.0,
			"-0.024": 0.0,
			"-0.023": 0.0,
			"-0.022": 0.0,
			"-0.021": 0.0,
			"-0.02": 0.0,
			"-0.019": 0.0,
			"-0.018": 0.219490430312,
			"-0.017": 0.753594333562,
			"-0.016": 1.34048746128,
			"-0.015": 1.38218459455,
			"-0.014": 1.40279179581,
			"-0.013": 1.61064471544,
			"-0.012": 0.94975016544,
			"-0.011": 1.83441370322,
			"-0.01": 2.27142945738,
			"-0.009": 0.824648425438,
			"-0.008": 1.60580925716,
			"-0.007": 1.94547346686,
			"-0.006": 4.61591365761,
			"-0.005": 12.9458904669,
			"-0.004": 20.6860049307,
			"-0.003": 31.2376761054,
			"-0.002": 38.7793839498,
			"-0.001": 39.4792484978,
			"0.0": 39.0941201842,
			"0.001": 36.2154740304,
			"0.002": 28.0145810424,
			"0.003": 15.6296471375,
			"0.004": 12.6986733326,
			"0.005": 12.9879824243,
			"0.006": 9.15151129616,
			"0.007": 4.61951105311,
			"0.008": 4.00781248906,
			"0.009": 4.55278146493,
			"0.01": 4.20268773203,
			"0.011": 3.41133891227,
			"0.012": 3.8563860932,
			"0.013": 1.85018633217,
			"0.014": 0.539401408968,
			"0.015": 0.0,
			"0.016": 0.0,
			"0.017": 0.0,
			"0.018": 0.0,
			"0.019": 0.0,
			"0.02": 0.0,
			"0.021": 0.0,
			"0.022": 0.0,
			"0.023": 0.0,
			"0.024": 0.0,
			"0.025": 0.0
		}
	}
}
