{
	 "smiles": "NC1=CC2=CC=CC=C2C(Br)=N1", 
	 "Tm": 418.15, 
	 "num_atms": 19, 
	 "gaussian": { 
		 "optdone": 1, 
		 "sigma_profile": "yes", 
		 "theory": "DFT", 
		 "functional": "B3LYP", 
		 "basiset": "6-31G**", 
		 "properties": { 
			 "R2extent": 5259.491, 
			 "electric_dipole_moment_norm": 4.80252576255, 
			 "electric_quadrupole_moment_norm": 18.7394177476, 
			 "total_energy": -3028.08217714, 
			 "HOMO_LUMO_gap": 0.16971, 
			 "cosmo_polarized_energy": -13.36, 
			 "cosmo_cavitation_energy": 25.32, 
			 "cosmo_dispersion_energy": -19.44, 
			 "cosmo_repulsion_energy": 1.54, 
			 "cosmo_total_nonelectrostatic_energy": 7.42, 
			 "SMD_solvation_energy": 1.51 
		},
		"coords": [
			{
				"x": -2.6768771584,
				"y": 0.3771408098,
				"z": -3.6900871694,
				"element": "N" 
			},
			{
				"x": -1.7894496085,
				"y": 0.8770784055,
				"z": -2.6822933782,
				"element": "C" 
			},
			{
				"x": -0.5331778098,
				"y": 0.358350574,
				"z": -2.4503795147,
				"element": "C" 
			},
			{
				"x": 0.288208507,
				"y": 0.9076775111,
				"z": -1.4332969132,
				"element": "C" 
			},
			{
				"x": 1.5903623772,
				"y": 0.415633186,
				"z": -1.1484619044,
				"element": "C" 
			},
			{
				"x": 2.3493358504,
				"y": 0.9827428058,
				"z": -0.1508108519,
				"element": "C" 
			},
			{
				"x": 1.8436109198,
				"y": 2.0666651859,
				"z": 0.6080828086,
				"element": "C" 
			},
			{
				"x": 0.5857826543,
				"y": 2.5678923563,
				"z": 0.3582422273,
				"element": "C" 
			},
			{
				"x": -0.2187712415,
				"y": 2.0033954478,
				"z": -0.663555014,
				"element": "C" 
			},
			{
				"x": -1.5340902126,
				"y": 2.4329955387,
				"z": -1.0168344561,
				"element": "C" 
			},
			{
				"x": -2.3260097696,
				"y": 3.9091316401,
				"z": -0.0435447957,
				"element": "Br" 
			},
			{
				"x": -2.2726024463,
				"y": 1.9199291599,
				"z": -1.9499324424,
				"element": "N" 
			},
			{
				"x": -2.8805619707,
				"y": -0.6057545067,
				"z": -3.5297041439,
				"element": "H" 
			},
			{
				"x": -2.2474183813,
				"y": 0.4457596468,
				"z": -4.6088647423,
				"element": "H" 
			},
			{
				"x": -0.1651667833,
				"y": -0.47351248,
				"z": -3.0447358824,
				"element": "H" 
			},
			{
				"x": 1.9743291895,
				"y": -0.4159255438,
				"z": -1.7330503227,
				"element": "H" 
			},
			{
				"x": 3.3436785974,
				"y": 0.5996466668,
				"z": 0.0595251465,
				"element": "H" 
			},
			{
				"x": 2.454769658,
				"y": 2.5033990335,
				"z": 1.3919661621,
				"element": "H" 
			},
			{
				"x": 0.1927476285,
				"y": 3.3968545624,
				"z": 0.9349351866,
				"element": "H" 
			}
		],
		 "valence_orbital": [ 
			{
				"type": "occ",
				"energy": -0.27873,
				"method": "rhf"
			},
			{
				"type": "occ",
				"energy": -0.27039,
				"method": "rhf"
			},
			{
				"type": "occ",
				"energy": -0.26791,
				"method": "rhf"
			},
			{
				"type": "occ",
				"energy": -0.25526,
				"method": "rhf"
			},
			{
				"type": "occ",
				"energy": -0.2309,
				"method": "rhf"
			},
			{
				"type": "unocc",
				"energy": -0.06119,
				"method": "rhf"
			},
			{
				"type": "unocc",
				"energy": -0.03133,
				"method": "rhf"
			},
			{
				"type": "unocc",
				"energy": 0.01241,
				"method": "rhf"
			},
			{
				"type": "unocc",
				"energy": 0.01544,
				"method": "rhf"
			},
			{
				"type": "unocc",
				"energy": 0.07509,
				"method": "rhf"
			}
		],
		"cosmo_sigma_profile": { 
			"-0.025": 0.0,
			"-0.024": 0.0,
			"-0.023": 0.0,
			"-0.022": 0.0,
			"-0.021": 0.0,
			"-0.02": 0.0,
			"-0.019": 0.0,
			"-0.018": 0.0,
			"-0.017": 0.0,
			"-0.016": 0.0,
			"-0.015": 0.0,
			"-0.014": 0.0,
			"-0.013": 0.0,
			"-0.012": 0.866824428924,
			"-0.011": 2.53271992562,
			"-0.01": 3.27634531475,
			"-0.009": 2.4129999651,
			"-0.008": 3.51423469584,
			"-0.007": 9.78719292876,
			"-0.006": 13.5588809759,
			"-0.005": 12.2192916847,
			"-0.004": 9.85138808398,
			"-0.003": 9.47346334003,
			"-0.002": 9.57272580169,
			"-0.001": 12.2200807546,
			"0.0": 19.7767019802,
			"0.001": 20.2218249891,
			"0.002": 20.3587065572,
			"0.003": 17.6025085659,
			"0.004": 11.5211849162,
			"0.005": 6.66804334783,
			"0.006": 3.16426473538,
			"0.007": 2.19523813511,
			"0.008": 1.50446371302,
			"0.009": 1.77168848164,
			"0.01": 1.49611807444,
			"0.011": 1.29647829787,
			"0.012": 1.45207358152,
			"0.013": 1.32905172281,
			"0.014": 1.12583231573,
			"0.015": 1.39173970171,
			"0.016": 1.29314937507,
			"0.017": 1.07623372892,
			"0.018": 0.983533515522,
			"0.019": 0.82259629876,
			"0.02": 0.0990802372288,
			"0.021": 0.0,
			"0.022": 0.0,
			"0.023": 0.0,
			"0.024": 0.0,
			"0.025": 0.0
		}
	}
}
