{
	 "smiles": "CCN(CC)S(=O)(=O)C1=CC(=C(C=C1)N1CCC(CC1)C(O)=O)[N+]([O-])=O", 
	 "Tm": 478.15, 
	 "num_atms": 49, 
	 "gaussian": { 
		 "optdone": 1, 
		 "sigma_profile": "yes", 
		 "theory": "DFT", 
		 "functional": "B3LYP", 
		 "basiset": "6-31G**", 
		 "properties": { 
			 "R2extent": 14470.2002, 
			 "electric_dipole_moment_norm": 10.4142987613, 
			 "electric_quadrupole_moment_norm": 28.4747010904, 
			 "total_energy": -1637.17814327, 
			 "HOMO_LUMO_gap": 0.14105, 
			 "cosmo_polarized_energy": -34.29, 
			 "cosmo_cavitation_energy": 51.59, 
			 "cosmo_dispersion_energy": -35.37, 
			 "cosmo_repulsion_energy": 2.64, 
			 "cosmo_total_nonelectrostatic_energy": 18.86, 
			 "SMD_solvation_energy": 9.69 
		},
		"coords": [
			{
				"x": 0.0793203498,
				"y": 3.669599121,
				"z": -4.4135690667,
				"element": "C" 
			},
			{
				"x": -0.0317543727,
				"y": 3.0878693634,
				"z": -3.0035322719,
				"element": "C" 
			},
			{
				"x": -1.3342723456,
				"y": 2.439409299,
				"z": -2.7786828089,
				"element": "N" 
			},
			{
				"x": -1.608999375,
				"y": 1.1765284173,
				"z": -3.4989577249,
				"element": "C" 
			},
			{
				"x": -2.7544801375,
				"y": 1.2995023526,
				"z": -4.502749832,
				"element": "C" 
			},
			{
				"x": -2.0710849337,
				"y": 2.6357442391,
				"z": -1.2825521137,
				"element": "S" 
			},
			{
				"x": -1.8138263172,
				"y": 4.0165149362,
				"z": -0.8642143511,
				"element": "O" 
			},
			{
				"x": -3.425520664,
				"y": 2.0967277762,
				"z": -1.422819313,
				"element": "O" 
			},
			{
				"x": -1.210508837,
				"y": 1.5755869237,
				"z": -0.1195788251,
				"element": "C" 
			},
			{
				"x": -1.6680803465,
				"y": 0.2876547929,
				"z": 0.1220508709,
				"element": "C" 
			},
			{
				"x": -0.9896741724,
				"y": -0.5396473527,
				"z": 1.0187943182,
				"element": "C" 
			},
			{
				"x": 0.2242882801,
				"y": -0.1382357473,
				"z": 1.652561728,
				"element": "C" 
			},
			{
				"x": 0.6138332618,
				"y": 1.2108715154,
				"z": 1.4238386848,
				"element": "C" 
			},
			{
				"x": -0.0820213493,
				"y": 2.0453379665,
				"z": 0.567680281,
				"element": "C" 
			},
			{
				"x": 1.0153991416,
				"y": -0.9681396353,
				"z": 2.4063963471,
				"element": "N" 
			},
			{
				"x": 1.0795833238,
				"y": -2.4198072592,
				"z": 2.1806441659,
				"element": "C" 
			},
			{
				"x": 2.5353552999,
				"y": -2.8957684779,
				"z": 2.2141575859,
				"element": "C" 
			},
			{
				"x": 3.1769134144,
				"y": -2.6601117202,
				"z": 3.6141288315,
				"element": "C" 
			},
			{
				"x": 2.5383041549,
				"y": -1.4312346259,
				"z": 4.2891581917,
				"element": "C" 
			},
			{
				"x": 2.0569286636,
				"y": -0.3967991668,
				"z": 3.2713043924,
				"element": "C" 
			},
			{
				"x": 3.0141754887,
				"y": -3.9074559192,
				"z": 4.4898413606,
				"element": "C" 
			},
			{
				"x": 3.8261064613,
				"y": -4.9513192251,
				"z": 4.1707542352,
				"element": "O" 
			},
			{
				"x": 2.214035531,
				"y": -4.0208493478,
				"z": 5.3839576211,
				"element": "O" 
			},
			{
				"x": -1.7053506169,
				"y": -1.7672171934,
				"z": 1.3803592504,
				"element": "N" 
			},
			{
				"x": -2.3769495022,
				"y": -2.317089676,
				"z": 0.5051952729,
				"element": "O" 
			},
			{
				"x": -1.6439996009,
				"y": -2.1440250371,
				"z": 2.5529278637,
				"element": "O" 
			},
			{
				"x": -0.0042609585,
				"y": 2.8961633588,
				"z": -5.183480944,
				"element": "H" 
			},
			{
				"x": -0.7065283615,
				"y": 4.410321304,
				"z": -4.5835633312,
				"element": "H" 
			},
			{
				"x": 1.0521573349,
				"y": 4.1567800984,
				"z": -4.5378348403,
				"element": "H" 
			},
			{
				"x": 0.0591595623,
				"y": 3.8959372952,
				"z": -2.2761665668,
				"element": "H" 
			},
			{
				"x": 0.7865682309,
				"y": 2.3730001055,
				"z": -2.8219399485,
				"element": "H" 
			},
			{
				"x": -1.8244980341,
				"y": 0.3745025435,
				"z": -2.7838049222,
				"element": "H" 
			},
			{
				"x": -0.680666351,
				"y": 0.8908565766,
				"z": -4.0059617322,
				"element": "H" 
			},
			{
				"x": -2.5411742397,
				"y": 2.0712046267,
				"z": -5.2481666988,
				"element": "H" 
			},
			{
				"x": -2.9033903671,
				"y": 0.3470230532,
				"z": -5.0235044888,
				"element": "H" 
			},
			{
				"x": -3.6787219798,
				"y": 1.5639567371,
				"z": -3.9854022461,
				"element": "H" 
			},
			{
				"x": -2.5890668562,
				"y": -0.068004058,
				"z": -0.3230190291,
				"element": "H" 
			},
			{
				"x": 1.5047112644,
				"y": 1.5938486151,
				"z": 1.9036770872,
				"element": "H" 
			},
			{
				"x": 0.2435227287,
				"y": 3.0703878328,
				"z": 0.4271654035,
				"element": "H" 
			},
			{
				"x": 0.6574812363,
				"y": -2.6358996645,
				"z": 1.1954657913,
				"element": "H" 
			},
			{
				"x": 0.4763045489,
				"y": -2.9631645187,
				"z": 2.9159425752,
				"element": "H" 
			},
			{
				"x": 2.5663794798,
				"y": -3.9558425542,
				"z": 1.9401522121,
				"element": "H" 
			},
			{
				"x": 3.1085130386,
				"y": -2.3549575557,
				"z": 1.4531216275,
				"element": "H" 
			},
			{
				"x": 4.253303882,
				"y": -2.4908912178,
				"z": 3.4739268673,
				"element": "H" 
			},
			{
				"x": 3.2500920337,
				"y": -0.9558041953,
				"z": 4.9707399838,
				"element": "H" 
			},
			{
				"x": 1.6947246695,
				"y": -1.7687272772,
				"z": 4.8975593801,
				"element": "H" 
			},
			{
				"x": 2.9083994782,
				"y": -0.0234385069,
				"z": 2.6781318843,
				"element": "H" 
			},
			{
				"x": 1.6357371236,
				"y": 0.4610522919,
				"z": 3.8040660246,
				"element": "H" 
			},
			{
				"x": 4.4344317363,
				"y": -4.7033512097,
				"z": 3.460101217,
				"element": "H" 
			}
		],
		 "valence_orbital": [ 
			{
				"type": "occ",
				"energy": -0.29331,
				"method": "rhf"
			},
			{
				"type": "occ",
				"energy": -0.28546,
				"method": "rhf"
			},
			{
				"type": "occ",
				"energy": -0.27814,
				"method": "rhf"
			},
			{
				"type": "occ",
				"energy": -0.25799,
				"method": "rhf"
			},
			{
				"type": "occ",
				"energy": -0.22662,
				"method": "rhf"
			},
			{
				"type": "unocc",
				"energy": -0.08557,
				"method": "rhf"
			},
			{
				"type": "unocc",
				"energy": -0.03765,
				"method": "rhf"
			},
			{
				"type": "unocc",
				"energy": -0.02169,
				"method": "rhf"
			},
			{
				"type": "unocc",
				"energy": -0.00981,
				"method": "rhf"
			},
			{
				"type": "unocc",
				"energy": 0.03463,
				"method": "rhf"
			}
		],
		"cosmo_sigma_profile": { 
			"-0.025": 0.0,
			"-0.024": 0.0,
			"-0.023": 0.0,
			"-0.022": 0.0,
			"-0.021": 0.0,
			"-0.02": 0.0,
			"-0.019": 0.275280763757,
			"-0.018": 1.31171635492,
			"-0.017": 0.7497303964,
			"-0.016": 1.33023918716,
			"-0.015": 1.32766754852,
			"-0.014": 1.09198365791,
			"-0.013": 0.777810593367,
			"-0.012": 1.30354778681,
			"-0.011": 1.353564506,
			"-0.01": 1.0429786987,
			"-0.009": 1.27765453764,
			"-0.008": 3.45387035964,
			"-0.007": 9.91789306993,
			"-0.006": 20.7712258412,
			"-0.005": 37.9160280881,
			"-0.004": 39.2762178865,
			"-0.003": 40.0603313613,
			"-0.002": 33.673731828,
			"-0.001": 27.8047823304,
			"0.0": 29.3504347917,
			"0.001": 23.6823318328,
			"0.002": 12.7954723816,
			"0.003": 9.28150934033,
			"0.004": 10.3899033003,
			"0.005": 9.0605307609,
			"0.006": 9.62598047006,
			"0.007": 11.8266086142,
			"0.008": 15.7986645565,
			"0.009": 12.3202845585,
			"0.01": 13.6982500506,
			"0.011": 13.119224903,
			"0.012": 8.40503068411,
			"0.013": 1.28557495913,
			"0.014": 0.0,
			"0.015": 0.0,
			"0.016": 0.0,
			"0.017": 0.0,
			"0.018": 0.0,
			"0.019": 0.0,
			"0.02": 0.0,
			"0.021": 0.0,
			"0.022": 0.0,
			"0.023": 0.0,
			"0.024": 0.0,
			"0.025": 0.0
		}
	}
}
