{
	 "smiles": "ClCC(=O)N1CCC(CC1)C(=O)NC1=CC=CC=C1", 
	 "Tm": 417.15, 
	 "num_atms": 36, 
	 "gaussian": { 
		 "optdone": 1, 
		 "sigma_profile": "yes", 
		 "theory": "DFT", 
		 "functional": "B3LYP", 
		 "basiset": "6-31G**", 
		 "properties": { 
			 "R2extent": 8949.2159, 
			 "electric_dipole_moment_norm": 7.228279583, 
			 "electric_quadrupole_moment_norm": 30.4235216254, 
			 "total_energy": -1263.90231777, 
			 "HOMO_LUMO_gap": 0.20913, 
			 "cosmo_polarized_energy": -21.64, 
			 "cosmo_cavitation_energy": 39.98, 
			 "cosmo_dispersion_energy": -28.22, 
			 "cosmo_repulsion_energy": 2.2, 
			 "cosmo_total_nonelectrostatic_energy": 13.96, 
			 "SMD_solvation_energy": 6.35 
		},
		"coords": [
			{
				"x": 0.2065174993,
				"y": -6.4322540999,
				"z": -2.7098059994,
				"element": "Cl" 
			},
			{
				"x": -0.3798088222,
				"y": -5.104040333,
				"z": -1.6619676352,
				"element": "C" 
			},
			{
				"x": 0.0156038473,
				"y": -3.7158803414,
				"z": -2.1985524457,
				"element": "C" 
			},
			{
				"x": 0.5803981597,
				"y": -3.5638405906,
				"z": -3.2714478366,
				"element": "O" 
			},
			{
				"x": -0.3220393638,
				"y": -2.668784916,
				"z": -1.379444915,
				"element": "N" 
			},
			{
				"x": -0.9589966043,
				"y": -2.8124949487,
				"z": -0.0600375818,
				"element": "C" 
			},
			{
				"x": -1.6411958187,
				"y": -1.503702988,
				"z": 0.3471714868,
				"element": "C" 
			},
			{
				"x": -0.6516161999,
				"y": -0.3190573573,
				"z": 0.4380941151,
				"element": "C" 
			},
			{
				"x": 0.5372329974,
				"y": -0.5166517033,
				"z": -0.5504017154,
				"element": "C" 
			},
			{
				"x": 0.1134587348,
				"y": -1.321941062,
				"z": -1.778568915,
				"element": "C" 
			},
			{
				"x": -0.0898199087,
				"y": -0.1864368415,
				"z": 1.8533148446,
				"element": "C" 
			},
			{
				"x": -0.0183417297,
				"y": -1.1461328695,
				"z": 2.6130234795,
				"element": "O" 
			},
			{
				"x": 0.4268286236,
				"y": 1.0335856595,
				"z": 2.2376089096,
				"element": "N" 
			},
			{
				"x": 0.4300761364,
				"y": 2.2840688678,
				"z": 1.5541619701,
				"element": "C" 
			},
			{
				"x": 1.6517714818,
				"y": 2.8975780942,
				"z": 1.2478704528,
				"element": "C" 
			},
			{
				"x": 1.6727702814,
				"y": 4.142791258,
				"z": 0.6194865661,
				"element": "C" 
			},
			{
				"x": 0.4773339679,
				"y": 4.7774531227,
				"z": 0.2761676937,
				"element": "C" 
			},
			{
				"x": -0.7413680768,
				"y": 4.1690021191,
				"z": 0.5826465206,
				"element": "C" 
			},
			{
				"x": -0.7684540536,
				"y": 2.9355846354,
				"z": 1.2340488314,
				"element": "C" 
			},
			{
				"x": -1.4671408331,
				"y": -5.1963279284,
				"z": -1.603580256,
				"element": "H" 
			},
			{
				"x": 0.0301319232,
				"y": -5.2701293077,
				"z": -0.6635962062,
				"element": "H" 
			},
			{
				"x": -0.2271469708,
				"y": -3.0869136076,
				"z": 0.711029722,
				"element": "H" 
			},
			{
				"x": -1.7113440149,
				"y": -3.6052025062,
				"z": -0.1005558428,
				"element": "H" 
			},
			{
				"x": -2.1313034761,
				"y": -1.6570938047,
				"z": 1.3115532129,
				"element": "H" 
			},
			{
				"x": -2.419366336,
				"y": -1.2691753559,
				"z": -0.3873896893,
				"element": "H" 
			},
			{
				"x": -1.1754064299,
				"y": 0.5979119051,
				"z": 0.1574453673,
				"element": "H" 
			},
			{
				"x": 1.3522758245,
				"y": -1.0528433586,
				"z": -0.0502426189,
				"element": "H" 
			},
			{
				"x": 0.9362480354,
				"y": 0.4533193074,
				"z": -0.8618104585,
				"element": "H" 
			},
			{
				"x": 0.939805475,
				"y": -1.4449839693,
				"z": -2.4801221313,
				"element": "H" 
			},
			{
				"x": -0.691978007,
				"y": -0.8039247921,
				"z": -2.3189031868,
				"element": "H" 
			},
			{
				"x": 0.9240347955,
				"y": 0.9800026942,
				"z": 3.1190583377,
				"element": "H" 
			},
			{
				"x": 2.5785594989,
				"y": 2.3904698925,
				"z": 1.5003502869,
				"element": "H" 
			},
			{
				"x": 2.6249353155,
				"y": 4.6112856434,
				"z": 0.3887116849,
				"element": "H" 
			},
			{
				"x": 0.4952983086,
				"y": 5.7425352347,
				"z": -0.2208987567,
				"element": "H" 
			},
			{
				"x": -1.6754678879,
				"y": 4.6638274572,
				"z": 0.3336049368,
				"element": "H" 
			},
			{
				"x": -1.7135863725,
				"y": 2.4817967906,
				"z": 1.5153777718,
				"element": "H" 
			}
		],
		 "valence_orbital": [ 
			{
				"type": "occ",
				"energy": -0.2717,
				"method": "rhf"
			},
			{
				"type": "occ",
				"energy": -0.26215,
				"method": "rhf"
			},
			{
				"type": "occ",
				"energy": -0.25013,
				"method": "rhf"
			},
			{
				"type": "occ",
				"energy": -0.24766,
				"method": "rhf"
			},
			{
				"type": "occ",
				"energy": -0.23649,
				"method": "rhf"
			},
			{
				"type": "unocc",
				"energy": -0.02736,
				"method": "rhf"
			},
			{
				"type": "unocc",
				"energy": -0.02378,
				"method": "rhf"
			},
			{
				"type": "unocc",
				"energy": 0.01638,
				"method": "rhf"
			},
			{
				"type": "unocc",
				"energy": 0.02488,
				"method": "rhf"
			},
			{
				"type": "unocc",
				"energy": 0.03555,
				"method": "rhf"
			}
		],
		"cosmo_sigma_profile": { 
			"-0.025": 0.0,
			"-0.024": 0.0,
			"-0.023": 0.0,
			"-0.022": 0.0,
			"-0.021": 0.0,
			"-0.02": 0.0,
			"-0.019": 0.0,
			"-0.018": 0.0,
			"-0.017": 0.0,
			"-0.016": 0.0,
			"-0.015": 0.0,
			"-0.014": 0.439951652971,
			"-0.013": 1.35075252541,
			"-0.012": 0.821359113269,
			"-0.011": 1.05162844494,
			"-0.01": 1.50279278945,
			"-0.009": 4.89349745768,
			"-0.008": 6.63077926852,
			"-0.007": 7.59526190166,
			"-0.006": 16.7054760342,
			"-0.005": 19.9822206554,
			"-0.004": 34.7451279159,
			"-0.003": 32.165972807,
			"-0.002": 25.8991658053,
			"-0.001": 22.1472187516,
			"0.0": 18.7110082472,
			"0.001": 14.0756160082,
			"0.002": 14.4687871881,
			"0.003": 14.4249448147,
			"0.004": 15.1606233099,
			"0.005": 15.5032952127,
			"0.006": 10.1503148537,
			"0.007": 4.52804833673,
			"0.008": 4.51641848598,
			"0.009": 3.25561880327,
			"0.01": 2.56810111053,
			"0.011": 2.96451458716,
			"0.012": 4.50535151697,
			"0.013": 8.09443569178,
			"0.014": 7.07004674327,
			"0.015": 1.47327783706,
			"0.016": 0.000419014424564,
			"0.017": 0.0,
			"0.018": 0.0,
			"0.019": 0.0,
			"0.02": 0.0,
			"0.021": 0.0,
			"0.022": 0.0,
			"0.023": 0.0,
			"0.024": 0.0,
			"0.025": 0.0
		}
	}
}
