{
	 "smiles": "O=C(C=CC1=CC=CC=C1)C=CC1=CC=CC=C1", 
	 "Tm": 384.15, 
	 "num_atms": 32, 
	 "gaussian": { 
		 "optdone": 1, 
		 "sigma_profile": "yes", 
		 "theory": "DFT", 
		 "functional": "B3LYP", 
		 "basiset": "6-31G**", 
		 "properties": { 
			 "R2extent": 8821.4128, 
			 "electric_dipole_moment_norm": 2.0642324312, 
			 "electric_quadrupole_moment_norm": 20.0648332502, 
			 "total_energy": -731.442803786, 
			 "HOMO_LUMO_gap": 0.14075, 
			 "cosmo_polarized_energy": -10.82, 
			 "cosmo_cavitation_energy": 37.03, 
			 "cosmo_dispersion_energy": -26.94, 
			 "cosmo_repulsion_energy": 2.04, 
			 "cosmo_total_nonelectrostatic_energy": 12.13, 
			 "SMD_solvation_energy": 6.71 
		},
		"coords": [
			{
				"x": -0.2747227633,
				"y": -0.5138760678,
				"z": 0.2986678754,
				"element": "O" 
			},
			{
				"x": 0.4630620239,
				"y": 0.1848646073,
				"z": -0.4031842891,
				"element": "C" 
			},
			{
				"x": 1.3381427422,
				"y": -0.3209912476,
				"z": -1.481318158,
				"element": "C" 
			},
			{
				"x": 1.5673479564,
				"y": -1.5693168261,
				"z": -1.9699920314,
				"element": "C" 
			},
			{
				"x": 1.0882620928,
				"y": -2.921307923,
				"z": -1.681071372,
				"element": "C" 
			},
			{
				"x": 1.6273983647,
				"y": -3.9559251558,
				"z": -2.4789564935,
				"element": "C" 
			},
			{
				"x": 1.2497656253,
				"y": -5.2821274869,
				"z": -2.2995591053,
				"element": "C" 
			},
			{
				"x": 0.317706332,
				"y": -5.6096573345,
				"z": -1.3118296221,
				"element": "C" 
			},
			{
				"x": -0.2262435003,
				"y": -4.6005421092,
				"z": -0.513332781,
				"element": "C" 
			},
			{
				"x": 0.148202788,
				"y": -3.2704088534,
				"z": -0.688320745,
				"element": "C" 
			},
			{
				"x": 0.5244836024,
				"y": 1.657793885,
				"z": -0.2010481663,
				"element": "C" 
			},
			{
				"x": -0.2231883784,
				"y": 2.2509841471,
				"z": 0.7508536656,
				"element": "C" 
			},
			{
				"x": -0.2928557828,
				"y": 3.6709649289,
				"z": 1.0909832303,
				"element": "C" 
			},
			{
				"x": -1.1507784627,
				"y": 4.0721112447,
				"z": 2.1324452817,
				"element": "C" 
			},
			{
				"x": -1.2590086255,
				"y": 5.4113979484,
				"z": 2.5012934774,
				"element": "C" 
			},
			{
				"x": -0.5090436318,
				"y": 6.380951994,
				"z": 1.8341211451,
				"element": "C" 
			},
			{
				"x": 0.3489523208,
				"y": 6.0005659273,
				"z": 0.796346635,
				"element": "C" 
			},
			{
				"x": 0.4567136734,
				"y": 4.6638742041,
				"z": 0.4285205409,
				"element": "C" 
			},
			{
				"x": 1.9063814574,
				"y": 0.464577572,
				"z": -1.9753229833,
				"element": "H" 
			},
			{
				"x": 2.2916596231,
				"y": -1.5745461385,
				"z": -2.7856283028,
				"element": "H" 
			},
			{
				"x": 2.3531311176,
				"y": -3.7059888886,
				"z": -3.2490785097,
				"element": "H" 
			},
			{
				"x": 1.6796452177,
				"y": -6.0578753633,
				"z": -2.9265810989,
				"element": "H" 
			},
			{
				"x": 0.0180919885,
				"y": -6.6437901971,
				"z": -1.1661955261,
				"element": "H" 
			},
			{
				"x": -0.951372641,
				"y": -4.8512497143,
				"z": 0.255820346,
				"element": "H" 
			},
			{
				"x": -0.2719060379,
				"y": -2.4871294755,
				"z": -0.0708060323,
				"element": "H" 
			},
			{
				"x": 1.1879958464,
				"y": 2.2303254996,
				"z": -0.8432657966,
				"element": "H" 
			},
			{
				"x": -0.8537193905,
				"y": 1.5849190347,
				"z": 1.338895148,
				"element": "H" 
			},
			{
				"x": -1.7352463192,
				"y": 3.3178125551,
				"z": 2.6526231735,
				"element": "H" 
			},
			{
				"x": -1.9274964337,
				"y": 5.6977499667,
				"z": 3.3079734911,
				"element": "H" 
			},
			{
				"x": -0.5902697383,
				"y": 7.4260719162,
				"z": 2.1182927891,
				"element": "H" 
			},
			{
				"x": 0.9346992361,
				"y": 6.7516128733,
				"z": 0.2740917518,
				"element": "H" 
			},
			{
				"x": 1.1271096964,
				"y": 4.3860544774,
				"z": -0.3788375372,
				"element": "H" 
			}
		],
		 "valence_orbital": [ 
			{
				"type": "occ",
				"energy": -0.25887,
				"method": "rhf"
			},
			{
				"type": "occ",
				"energy": -0.24904,
				"method": "rhf"
			},
			{
				"type": "occ",
				"energy": -0.24023,
				"method": "rhf"
			},
			{
				"type": "occ",
				"energy": -0.23441,
				"method": "rhf"
			},
			{
				"type": "occ",
				"energy": -0.22531,
				"method": "rhf"
			},
			{
				"type": "unocc",
				"energy": -0.08456,
				"method": "rhf"
			},
			{
				"type": "unocc",
				"energy": -0.03564,
				"method": "rhf"
			},
			{
				"type": "unocc",
				"energy": -0.00757,
				"method": "rhf"
			},
			{
				"type": "unocc",
				"energy": 0.00218,
				"method": "rhf"
			},
			{
				"type": "unocc",
				"energy": 0.01821,
				"method": "rhf"
			}
		],
		"cosmo_sigma_profile": { 
			"-0.025": 0.0,
			"-0.024": 0.0,
			"-0.023": 0.0,
			"-0.022": 0.0,
			"-0.021": 0.0,
			"-0.02": 0.0,
			"-0.019": 0.0,
			"-0.018": 0.0,
			"-0.017": 0.0,
			"-0.016": 0.0,
			"-0.015": 0.0,
			"-0.014": 0.0,
			"-0.013": 0.0,
			"-0.012": 0.0,
			"-0.011": 0.0,
			"-0.01": 0.0,
			"-0.009": 0.0,
			"-0.008": 1.08653722451,
			"-0.007": 8.92079965106,
			"-0.006": 23.7141536088,
			"-0.005": 23.6756717459,
			"-0.004": 24.7528928984,
			"-0.003": 18.7138328188,
			"-0.002": 16.6255587842,
			"-0.001": 16.0908589888,
			"0.0": 18.9947242281,
			"0.001": 20.3342184556,
			"0.002": 25.0700041589,
			"0.003": 33.1403808018,
			"0.004": 31.9127758749,
			"0.005": 19.8869427623,
			"0.006": 2.18041314075,
			"0.007": 2.38094427103,
			"0.008": 2.18231693707,
			"0.009": 1.68317205596,
			"0.01": 1.6443295851,
			"0.011": 1.89432099677,
			"0.012": 2.07320427055,
			"0.013": 0.956923984749,
			"0.014": 0.0,
			"0.015": 0.0,
			"0.016": 0.0,
			"0.017": 0.0,
			"0.018": 0.0,
			"0.019": 0.0,
			"0.02": 0.0,
			"0.021": 0.0,
			"0.022": 0.0,
			"0.023": 0.0,
			"0.024": 0.0,
			"0.025": 0.0
		}
	}
}
