{
	 "smiles": "FC1=C(Cl)C=CC2=C1NC(=O)C2=O", 
	 "Tm": 474.15, 
	 "num_atms": 16, 
	 "gaussian": { 
		 "optdone": 1, 
		 "sigma_profile": "yes", 
		 "theory": "DFT", 
		 "functional": "B3LYP", 
		 "basiset": "6-31G**", 
		 "properties": { 
			 "R2extent": 3082.1227, 
			 "electric_dipole_moment_norm": 3.64665438724, 
			 "electric_quadrupole_moment_norm": 20.8300804033, 
			 "total_energy": -1071.87584732, 
			 "HOMO_LUMO_gap": 0.1433, 
			 "cosmo_polarized_energy": -13.41, 
			 "cosmo_cavitation_energy": 24.26, 
			 "cosmo_dispersion_energy": -17.88, 
			 "cosmo_repulsion_energy": 1.39, 
			 "cosmo_total_nonelectrostatic_energy": 7.77, 
			 "SMD_solvation_energy": 5.7 
		},
		"coords": [
			{
				"x": 2.1642441219,
				"y": 0.1190135183,
				"z": -1.4938075516,
				"element": "F" 
			},
			{
				"x": 1.3706703496,
				"y": -0.5239067306,
				"z": -0.6211468508,
				"element": "C" 
			},
			{
				"x": 1.8986887496,
				"y": -1.1939694551,
				"z": 0.4889575447,
				"element": "C" 
			},
			{
				"x": 3.6222075968,
				"y": -1.1805600996,
				"z": 0.7232530771,
				"element": "Cl" 
			},
			{
				"x": 1.065381017,
				"y": -1.8632219667,
				"z": 1.3964171394,
				"element": "C" 
			},
			{
				"x": -0.3152063507,
				"y": -1.8673367259,
				"z": 1.1983813741,
				"element": "C" 
			},
			{
				"x": -0.8411051223,
				"y": -1.2010478123,
				"z": 0.0942802868,
				"element": "C" 
			},
			{
				"x": -0.0013199292,
				"y": -0.5305997087,
				"z": -0.8138952238,
				"element": "C" 
			},
			{
				"x": -0.7319479413,
				"y": 0.0665658533,
				"z": -1.841614693,
				"element": "N" 
			},
			{
				"x": -2.0960894847,
				"y": -0.1605020286,
				"z": -1.6934075175,
				"element": "C" 
			},
			{
				"x": -2.9824877088,
				"y": 0.2246043485,
				"z": -2.4178019427,
				"element": "O" 
			},
			{
				"x": -2.2237345835,
				"y": -1.0231897832,
				"z": -0.3847346346,
				"element": "C" 
			},
			{
				"x": -3.2703320917,
				"y": -1.4213803203,
				"z": 0.0742425297,
				"element": "O" 
			},
			{
				"x": 1.5132628832,
				"y": -2.3698940438,
				"z": 2.2430534285,
				"element": "H" 
			},
			{
				"x": -0.977189821,
				"y": -2.3793918859,
				"z": 1.8889667425,
				"element": "H" 
			},
			{
				"x": -0.3292416848,
				"y": 0.5976168405,
				"z": -2.5998437087,
				"element": "H" 
			}
		],
		 "valence_orbital": [ 
			{
				"type": "occ",
				"energy": -0.33332,
				"method": "rhf"
			},
			{
				"type": "occ",
				"energy": -0.32258,
				"method": "rhf"
			},
			{
				"type": "occ",
				"energy": -0.27685,
				"method": "rhf"
			},
			{
				"type": "occ",
				"energy": -0.25922,
				"method": "rhf"
			},
			{
				"type": "occ",
				"energy": -0.25431,
				"method": "rhf"
			},
			{
				"type": "unocc",
				"energy": -0.11101,
				"method": "rhf"
			},
			{
				"type": "unocc",
				"energy": -0.03355,
				"method": "rhf"
			},
			{
				"type": "unocc",
				"energy": -0.01239,
				"method": "rhf"
			},
			{
				"type": "unocc",
				"energy": -0.00079,
				"method": "rhf"
			},
			{
				"type": "unocc",
				"energy": 0.06684,
				"method": "rhf"
			}
		],
		"cosmo_sigma_profile": { 
			"-0.025": 0.0,
			"-0.024": 0.0,
			"-0.023": 0.0,
			"-0.022": 0.0,
			"-0.021": 0.0,
			"-0.02": 0.0,
			"-0.019": 0.0,
			"-0.018": 0.0367773838786,
			"-0.017": 0.758223912539,
			"-0.016": 1.34211512454,
			"-0.015": 0.791789792668,
			"-0.014": 0.512371484926,
			"-0.013": 0.616928032014,
			"-0.012": 1.31780360178,
			"-0.011": 1.58754569101,
			"-0.01": 0.997846787412,
			"-0.009": 2.24640686122,
			"-0.008": 7.05809774376,
			"-0.007": 6.61116160812,
			"-0.006": 7.38772366877,
			"-0.005": 6.50741291857,
			"-0.004": 9.35256221982,
			"-0.003": 14.8586489581,
			"-0.002": 18.9210157657,
			"-0.001": 16.344336687,
			"0.0": 14.4205382386,
			"0.001": 14.0166305717,
			"0.002": 13.9763669492,
			"0.003": 17.0511493068,
			"0.004": 6.54840447795,
			"0.005": 2.23776844909,
			"0.006": 2.82634583749,
			"0.007": 2.78151603349,
			"0.008": 4.72005059698,
			"0.009": 5.77604385365,
			"0.01": 9.38290882054,
			"0.011": 6.53063676744,
			"0.012": 1.4041263753,
			"0.013": 0.0,
			"0.014": 0.0,
			"0.015": 0.0,
			"0.016": 0.0,
			"0.017": 0.0,
			"0.018": 0.0,
			"0.019": 0.0,
			"0.02": 0.0,
			"0.021": 0.0,
			"0.022": 0.0,
			"0.023": 0.0,
			"0.024": 0.0,
			"0.025": 0.0
		}
	}
}
