{
	 "smiles": "CN(C)C1=CC=C(C=C2C3=C(CCCC3)OC3=C2CCCC3)C=C1", 
	 "Tm": 437.15, 
	 "num_atms": 51, 
	 "gaussian": { 
		 "optdone": 1, 
		 "sigma_profile": "yes", 
		 "theory": "DFT", 
		 "functional": "B3LYP", 
		 "basiset": "6-31G**", 
		 "properties": { 
			 "R2extent": 11407.5219, 
			 "electric_dipole_moment_norm": 1.27131227871, 
			 "electric_quadrupole_moment_norm": 14.255683158, 
			 "total_energy": -984.579200949, 
			 "HOMO_LUMO_gap": 0.14624, 
			 "cosmo_polarized_energy": -8.0, 
			 "cosmo_cavitation_energy": 48.71, 
			 "cosmo_dispersion_energy": -35.1, 
			 "cosmo_repulsion_energy": 2.69, 
			 "cosmo_total_nonelectrostatic_energy": 16.3, 
			 "SMD_solvation_energy": 6.16 
		},
		"coords": [
			{
				"x": 1.890717846,
				"y": 5.3405531384,
				"z": 1.6929886413,
				"element": "C" 
			},
			{
				"x": 0.4535127272,
				"y": 5.1413252688,
				"z": 1.6259564474,
				"element": "N" 
			},
			{
				"x": -0.3613127966,
				"y": 5.7686339099,
				"z": 2.6517691549,
				"element": "C" 
			},
			{
				"x": -0.0413397321,
				"y": 4.0175596688,
				"z": 0.9637711435,
				"element": "C" 
			},
			{
				"x": -1.3982910778,
				"y": 3.6356734297,
				"z": 1.0682676582,
				"element": "C" 
			},
			{
				"x": -1.8881366584,
				"y": 2.532646107,
				"z": 0.3791382005,
				"element": "C" 
			},
			{
				"x": -1.0691091712,
				"y": 1.7247358192,
				"z": -0.4312377008,
				"element": "C" 
			},
			{
				"x": -1.6449856899,
				"y": 0.6113838281,
				"z": -1.2014675842,
				"element": "C" 
			},
			{
				"x": -1.1580834213,
				"y": -0.6392242363,
				"z": -1.4615836637,
				"element": "C" 
			},
			{
				"x": -1.8003110689,
				"y": -1.4733741953,
				"z": -2.4972612833,
				"element": "C" 
			},
			{
				"x": -1.1769950337,
				"y": -2.5807244489,
				"z": -2.9526201204,
				"element": "C" 
			},
			{
				"x": -1.639419809,
				"y": -3.4686952861,
				"z": -4.0728181905,
				"element": "C" 
			},
			{
				"x": -2.7438757171,
				"y": -2.8035609048,
				"z": -4.9022105148,
				"element": "C" 
			},
			{
				"x": -3.7710446796,
				"y": -2.148602942,
				"z": -3.9742367627,
				"element": "C" 
			},
			{
				"x": -3.1205316522,
				"y": -1.0558139261,
				"z": -3.1138572356,
				"element": "C" 
			},
			{
				"x": 0.0086246538,
				"y": -3.03202422,
				"z": -2.4260809957,
				"element": "O" 
			},
			{
				"x": 0.4746200865,
				"y": -2.450992091,
				"z": -1.2732392013,
				"element": "C" 
			},
			{
				"x": -0.0455868881,
				"y": -1.3125853059,
				"z": -0.7587989507,
				"element": "C" 
			},
			{
				"x": 0.4335309247,
				"y": -0.843491997,
				"z": 0.6053500565,
				"element": "C" 
			},
			{
				"x": 1.1621211283,
				"y": -1.9388047643,
				"z": 1.395063019,
				"element": "C" 
			},
			{
				"x": 2.2355627229,
				"y": -2.5982982866,
				"z": 0.5247379225,
				"element": "C" 
			},
			{
				"x": 1.5791273011,
				"y": -3.2803890133,
				"z": -0.680936486,
				"element": "C" 
			},
			{
				"x": 0.2747083075,
				"y": 2.123680366,
				"z": -0.5461447503,
				"element": "C" 
			},
			{
				"x": 0.7834542033,
				"y": 3.2250919338,
				"z": 0.1349961465,
				"element": "C" 
			},
			{
				"x": 2.3194001029,
				"y": 5.4501369206,
				"z": 0.6905643546,
				"element": "H" 
			},
			{
				"x": 2.419623348,
				"y": 4.5155122498,
				"z": 2.1975957835,
				"element": "H" 
			},
			{
				"x": 2.0987752458,
				"y": 6.2632696009,
				"z": 2.2377825067,
				"element": "H" 
			},
			{
				"x": -1.3077339261,
				"y": 6.1299403506,
				"z": 2.2344428827,
				"element": "H" 
			},
			{
				"x": -0.5981166491,
				"y": 5.0942904458,
				"z": 3.4910008679,
				"element": "H" 
			},
			{
				"x": 0.1699152392,
				"y": 6.635169537,
				"z": 3.049836905,
				"element": "H" 
			},
			{
				"x": -2.0809088033,
				"y": 4.2017910329,
				"z": 1.6905013578,
				"element": "H" 
			},
			{
				"x": -2.9400355633,
				"y": 2.2770065906,
				"z": 0.4846176288,
				"element": "H" 
			},
			{
				"x": -2.5839086856,
				"y": 0.8714436345,
				"z": -1.6836098385,
				"element": "H" 
			},
			{
				"x": -0.7723187274,
				"y": -3.7224697791,
				"z": -4.6948305845,
				"element": "H" 
			},
			{
				"x": -1.9970172449,
				"y": -4.4206767522,
				"z": -3.6529052791,
				"element": "H" 
			},
			{
				"x": -3.2188383244,
				"y": -3.5430150648,
				"z": -5.556281405,
				"element": "H" 
			},
			{
				"x": -2.3022217318,
				"y": -2.0383962027,
				"z": -5.5538510337,
				"element": "H" 
			},
			{
				"x": -4.5982018755,
				"y": -1.7195164487,
				"z": -4.5509911312,
				"element": "H" 
			},
			{
				"x": -4.2069798306,
				"y": -2.9172938609,
				"z": -3.322071218,
				"element": "H" 
			},
			{
				"x": -3.8119984515,
				"y": -0.7628112235,
				"z": -2.3137268679,
				"element": "H" 
			},
			{
				"x": -2.9666854943,
				"y": -0.1489593733,
				"z": -3.7174726314,
				"element": "H" 
			},
			{
				"x": 1.0955911252,
				"y": 0.0241870162,
				"z": 0.5079735276,
				"element": "H" 
			},
			{
				"x": -0.4326698781,
				"y": -0.4795365512,
				"z": 1.1689356593,
				"element": "H" 
			},
			{
				"x": 0.4449417108,
				"y": -2.7015430463,
				"z": 1.727674238,
				"element": "H" 
			},
			{
				"x": 1.6067022388,
				"y": -1.5060491128,
				"z": 2.298522411,
				"element": "H" 
			},
			{
				"x": 2.9399168802,
				"y": -1.8309316625,
				"z": 0.1778511243,
				"element": "H" 
			},
			{
				"x": 2.8192756703,
				"y": -3.3299289893,
				"z": 1.0941680608,
				"element": "H" 
			},
			{
				"x": 1.1587539205,
				"y": -4.2537159091,
				"z": -0.3880315427,
				"element": "H" 
			},
			{
				"x": 2.3138689276,
				"y": -3.4992910685,
				"z": -1.4663660848,
				"element": "H" 
			},
			{
				"x": 0.9336668193,
				"y": 1.569097048,
				"z": -1.2082104642,
				"element": "H" 
			},
			{
				"x": 1.8287474519,
				"y": 3.4764887661,
				"z": 0.0011358223,
				"element": "H" 
			}
		],
		 "valence_orbital": [ 
			{
				"type": "occ",
				"energy": -0.26389,
				"method": "rhf"
			},
			{
				"type": "occ",
				"energy": -0.23537,
				"method": "rhf"
			},
			{
				"type": "occ",
				"energy": -0.23018,
				"method": "rhf"
			},
			{
				"type": "occ",
				"energy": -0.19552,
				"method": "rhf"
			},
			{
				"type": "occ",
				"energy": -0.15675,
				"method": "rhf"
			},
			{
				"type": "unocc",
				"energy": -0.01051,
				"method": "rhf"
			},
			{
				"type": "unocc",
				"energy": 0.01568,
				"method": "rhf"
			},
			{
				"type": "unocc",
				"energy": 0.02361,
				"method": "rhf"
			},
			{
				"type": "unocc",
				"energy": 0.04775,
				"method": "rhf"
			},
			{
				"type": "unocc",
				"energy": 0.08991,
				"method": "rhf"
			}
		],
		"cosmo_sigma_profile": { 
			"-0.025": 0.0,
			"-0.024": 0.0,
			"-0.023": 0.0,
			"-0.022": 0.0,
			"-0.021": 0.0,
			"-0.02": 0.0,
			"-0.019": 0.0,
			"-0.018": 0.0,
			"-0.017": 0.0,
			"-0.016": 0.0,
			"-0.015": 0.0,
			"-0.014": 0.0,
			"-0.013": 0.0,
			"-0.012": 0.0,
			"-0.011": 0.0,
			"-0.01": 0.0,
			"-0.009": 0.0,
			"-0.008": 0.0,
			"-0.007": 0.203509842247,
			"-0.006": 2.59894336831,
			"-0.005": 9.61475390396,
			"-0.004": 20.1167272084,
			"-0.003": 43.1418543246,
			"-0.002": 64.6058550275,
			"-0.001": 67.6186553412,
			"0.0": 47.2310916672,
			"0.001": 28.9324346512,
			"0.002": 16.9423222655,
			"0.003": 15.6607714507,
			"0.004": 17.7236076798,
			"0.005": 14.2194798152,
			"0.006": 14.5014422037,
			"0.007": 11.7812249718,
			"0.008": 5.11090775355,
			"0.009": 0.80473494602,
			"0.01": 0.0208164373325,
			"0.011": 0.0,
			"0.012": 0.0,
			"0.013": 0.0,
			"0.014": 0.0,
			"0.015": 0.0,
			"0.016": 0.0,
			"0.017": 0.0,
			"0.018": 0.0,
			"0.019": 0.0,
			"0.02": 0.0,
			"0.021": 0.0,
			"0.022": 0.0,
			"0.023": 0.0,
			"0.024": 0.0,
			"0.025": 0.0
		}
	}
}
