{
	 "smiles": "ClC1=C2C3=C(CCC3)SC2=NC(CN2CCCCC2)=N1", 
	 "Tm": 349.15, 
	 "num_atms": 38, 
	 "gaussian": { 
		 "optdone": 1, 
		 "sigma_profile": "yes", 
		 "theory": "DFT", 
		 "functional": "B3LYP", 
		 "basiset": "6-31G**", 
		 "properties": { 
			 "R2extent": 9189.5832, 
			 "electric_dipole_moment_norm": 2.69597469202, 
			 "electric_quadrupole_moment_norm": 21.6534439799, 
			 "total_energy": -1605.07774131, 
			 "HOMO_LUMO_gap": 0.15318, 
			 "cosmo_polarized_energy": -8.19, 
			 "cosmo_cavitation_energy": 41.91, 
			 "cosmo_dispersion_energy": -30.85, 
			 "cosmo_repulsion_energy": 2.37, 
			 "cosmo_total_nonelectrostatic_energy": 13.42, 
			 "SMD_solvation_energy": 0.25 
		},
		"coords": [
			{
				"x": 2.4482246994,
				"y": -3.0447295337,
				"z": -1.3919838164,
				"element": "Cl" 
			},
			{
				"x": 1.8112526646,
				"y": -1.8927875212,
				"z": -0.2204883691,
				"element": "C" 
			},
			{
				"x": 1.0779449238,
				"y": -2.3595343281,
				"z": 0.8829918391,
				"element": "C" 
			},
			{
				"x": 0.6680978881,
				"y": -3.6454340629,
				"z": 1.3683454079,
				"element": "C" 
			},
			{
				"x": -0.0487124001,
				"y": -3.5576241338,
				"z": 2.5228898857,
				"element": "C" 
			},
			{
				"x": -0.5500778562,
				"y": -4.8823567104,
				"z": 3.0223482597,
				"element": "C" 
			},
			{
				"x": 0.2774513807,
				"y": -5.8742673157,
				"z": 2.1480804655,
				"element": "C" 
			},
			{
				"x": 0.7734583069,
				"y": -5.0774909334,
				"z": 0.9026393796,
				"element": "C" 
			},
			{
				"x": -0.2789128699,
				"y": -1.9257040388,
				"z": 3.1092327415,
				"element": "S" 
			},
			{
				"x": 0.6395527884,
				"y": -1.3090017102,
				"z": 1.7344192939,
				"element": "C" 
			},
			{
				"x": 0.8838888132,
				"y": -0.0156110557,
				"z": 1.5455822583,
				"element": "N" 
			},
			{
				"x": 1.5906120559,
				"y": 0.2797361242,
				"z": 0.4499798544,
				"element": "C" 
			},
			{
				"x": 1.8808755378,
				"y": 1.7353244593,
				"z": 0.1570973047,
				"element": "C" 
			},
			{
				"x": 0.9619590906,
				"y": 2.2803453339,
				"z": -0.8384767343,
				"element": "N" 
			},
			{
				"x": 1.5237609104,
				"y": 3.4668142434,
				"z": -1.4981910791,
				"element": "C" 
			},
			{
				"x": 0.4560048969,
				"y": 4.1968837512,
				"z": -2.343819856,
				"element": "C" 
			},
			{
				"x": -0.6597406892,
				"y": 3.2322954482,
				"z": -2.7609791428,
				"element": "C" 
			},
			{
				"x": -1.3707748472,
				"y": 2.6773238447,
				"z": -1.5080862274,
				"element": "C" 
			},
			{
				"x": -0.3851989662,
				"y": 2.5390038669,
				"z": -0.3264472793,
				"element": "C" 
			},
			{
				"x": 2.0617404017,
				"y": -0.6236812794,
				"z": -0.4393430217,
				"element": "N" 
			},
			{
				"x": -0.3885677808,
				"y": -5.0367302034,
				"z": 4.0945709914,
				"element": "H" 
			},
			{
				"x": -1.6299570696,
				"y": -4.9807745292,
				"z": 2.8456303704,
				"element": "H" 
			},
			{
				"x": -0.3000493533,
				"y": -6.7604017406,
				"z": 1.8726008817,
				"element": "H" 
			},
			{
				"x": 1.1436945579,
				"y": -6.2154801025,
				"z": 2.7232050607,
				"element": "H" 
			},
			{
				"x": 0.1335484859,
				"y": -5.2482117874,
				"z": 0.0271349343,
				"element": "H" 
			},
			{
				"x": 1.7874776553,
				"y": -5.3623914617,
				"z": 0.6081071746,
				"element": "H" 
			},
			{
				"x": 2.8924694494,
				"y": 1.7924970969,
				"z": -0.2563250176,
				"element": "H" 
			},
			{
				"x": 1.8643710632,
				"y": 2.2985947517,
				"z": 1.1070318011,
				"element": "H" 
			},
			{
				"x": 2.350805685,
				"y": 3.1297653018,
				"z": -2.1358004173,
				"element": "H" 
			},
			{
				"x": 1.9533562825,
				"y": 4.1751955708,
				"z": -0.7624770931,
				"element": "H" 
			},
			{
				"x": 0.0185685428,
				"y": 5.0190788813,
				"z": -1.7635927179,
				"element": "H" 
			},
			{
				"x": 0.9320444156,
				"y": 4.6558883156,
				"z": -3.216966054,
				"element": "H" 
			},
			{
				"x": -1.377757737,
				"y": 3.7329082776,
				"z": -3.4200869716,
				"element": "H" 
			},
			{
				"x": -0.2236652459,
				"y": 2.4058157182,
				"z": -3.3323616602,
				"element": "H" 
			},
			{
				"x": -2.1929062917,
				"y": 3.3395989794,
				"z": -1.2103370812,
				"element": "H" 
			},
			{
				"x": -1.8162618437,
				"y": 1.7038080677,
				"z": -1.7396755317,
				"element": "H" 
			},
			{
				"x": -0.4033265589,
				"y": 3.4492000288,
				"z": 0.3058778101,
				"element": "H" 
			},
			{
				"x": -0.6817509861,
				"y": 1.7134343866,
				"z": 0.3254723559,
				"element": "H" 
			}
		],
		 "valence_orbital": [ 
			{
				"type": "occ",
				"energy": -0.29794,
				"method": "rhf"
			},
			{
				"type": "occ",
				"energy": -0.26959,
				"method": "rhf"
			},
			{
				"type": "occ",
				"energy": -0.26352,
				"method": "rhf"
			},
			{
				"type": "occ",
				"energy": -0.2283,
				"method": "rhf"
			},
			{
				"type": "occ",
				"energy": -0.2032,
				"method": "rhf"
			},
			{
				"type": "unocc",
				"energy": -0.05002,
				"method": "rhf"
			},
			{
				"type": "unocc",
				"energy": -0.03751,
				"method": "rhf"
			},
			{
				"type": "unocc",
				"energy": 0.00524,
				"method": "rhf"
			},
			{
				"type": "unocc",
				"energy": 0.0273,
				"method": "rhf"
			},
			{
				"type": "unocc",
				"energy": 0.04049,
				"method": "rhf"
			}
		],
		"cosmo_sigma_profile": { 
			"-0.025": 0.0,
			"-0.024": 0.0,
			"-0.023": 0.0,
			"-0.022": 0.0,
			"-0.021": 0.0,
			"-0.02": 0.0,
			"-0.019": 0.0,
			"-0.018": 0.0,
			"-0.017": 0.0,
			"-0.016": 0.0,
			"-0.015": 0.0,
			"-0.014": 0.0,
			"-0.013": 0.0,
			"-0.012": 0.0,
			"-0.011": 0.0,
			"-0.01": 0.0,
			"-0.009": 0.0,
			"-0.008": 0.0,
			"-0.007": 0.0,
			"-0.006": 0.096274466679,
			"-0.005": 6.52386810878,
			"-0.004": 17.1096641004,
			"-0.003": 33.8970496293,
			"-0.002": 57.9874904082,
			"-0.001": 63.8440397254,
			"0.0": 48.5000520082,
			"0.001": 36.0113318721,
			"0.002": 18.3630464316,
			"0.003": 14.6079390335,
			"0.004": 10.1112521789,
			"0.005": 5.20546178673,
			"0.006": 3.56869700499,
			"0.007": 3.33988577008,
			"0.008": 2.18666918742,
			"0.009": 2.53645144914,
			"0.01": 2.67968387688,
			"0.011": 1.90923170143,
			"0.012": 2.13524218684,
			"0.013": 2.4364480277,
			"0.014": 0.759602044169,
			"0.015": 0.11059471568,
			"0.016": 0.0,
			"0.017": 0.0,
			"0.018": 0.0,
			"0.019": 0.0,
			"0.02": 0.0,
			"0.021": 0.0,
			"0.022": 0.0,
			"0.023": 0.0,
			"0.024": 0.0,
			"0.025": 0.0
		}
	}
}
