{
	 "smiles": "COC(=O)C1=C(Cl)C=C(N)C=C1", 
	 "Tm": 381.15, 
	 "num_atms": 20, 
	 "gaussian": { 
		 "optdone": 1, 
		 "sigma_profile": "yes", 
		 "theory": "DFT", 
		 "functional": "B3LYP", 
		 "basiset": "6-31G**", 
		 "properties": { 
			 "R2extent": 2915.4436, 
			 "electric_dipole_moment_norm": 4.91697308616, 
			 "electric_quadrupole_moment_norm": 16.5471938485, 
			 "total_energy": -975.073459218, 
			 "HOMO_LUMO_gap": 0.18579, 
			 "cosmo_polarized_energy": -14.88, 
			 "cosmo_cavitation_energy": 26.14, 
			 "cosmo_dispersion_energy": -19.57, 
			 "cosmo_repulsion_energy": 1.57, 
			 "cosmo_total_nonelectrostatic_energy": 8.13, 
			 "SMD_solvation_energy": 5.76 
		},
		"coords": [
			{
				"x": -4.1306531768,
				"y": -0.8566768224,
				"z": -1.8666463941,
				"element": "C" 
			},
			{
				"x": -3.038972259,
				"y": -0.4858625406,
				"z": -1.0156145948,
				"element": "O" 
			},
			{
				"x": -1.846530166,
				"y": -0.3199723858,
				"z": -1.6549289876,
				"element": "C" 
			},
			{
				"x": -1.7340216255,
				"y": -0.4777189691,
				"z": -2.8530935537,
				"element": "O" 
			},
			{
				"x": -0.7715643443,
				"y": 0.0632340431,
				"z": -0.701903691,
				"element": "C" 
			},
			{
				"x": 0.5692093608,
				"y": 0.2902092398,
				"z": -1.0804822453,
				"element": "C" 
			},
			{
				"x": 1.1308787129,
				"y": 0.1445417955,
				"z": -2.7344180928,
				"element": "Cl" 
			},
			{
				"x": 1.5360869994,
				"y": 0.6506527925,
				"z": -0.14777608,
				"element": "C" 
			},
			{
				"x": 1.2094398343,
				"y": 0.8011970946,
				"z": 1.2101532543,
				"element": "C" 
			},
			{
				"x": 2.1857027049,
				"y": 1.1122047963,
				"z": 2.1378697647,
				"element": "N" 
			},
			{
				"x": -0.1231793345,
				"y": 0.5783354425,
				"z": 1.6055554641,
				"element": "C" 
			},
			{
				"x": -1.0733993091,
				"y": 0.2202161677,
				"z": 0.6666554209,
				"element": "C" 
			},
			{
				"x": -3.9272416287,
				"y": -1.8070072132,
				"z": -2.3671205344,
				"element": "H" 
			},
			{
				"x": -4.3060193934,
				"y": -0.0926673177,
				"z": -2.6285961589,
				"element": "H" 
			},
			{
				"x": -4.9968152705,
				"y": -0.9480652509,
				"z": -1.210591465,
				"element": "H" 
			},
			{
				"x": 2.5555032193,
				"y": 0.8116905678,
				"z": -0.4822314612,
				"element": "H" 
			},
			{
				"x": 1.8734747116,
				"y": 1.4946593363,
				"z": 3.017971228,
				"element": "H" 
			},
			{
				"x": 3.0335125237,
				"y": 1.5341471464,
				"z": 1.7890367566,
				"element": "H" 
			},
			{
				"x": -0.4023459187,
				"y": 0.6840677648,
				"z": 2.6502177736,
				"element": "H" 
			},
			{
				"x": -2.0954656403,
				"y": 0.0528143125,
				"z": 0.9822435966,
				"element": "H" 
			}
		],
		 "valence_orbital": [ 
			{
				"type": "occ",
				"energy": -0.30628,
				"method": "rhf"
			},
			{
				"type": "occ",
				"energy": -0.29149,
				"method": "rhf"
			},
			{
				"type": "occ",
				"energy": -0.25456,
				"method": "rhf"
			},
			{
				"type": "occ",
				"energy": -0.2485,
				"method": "rhf"
			},
			{
				"type": "occ",
				"energy": -0.22052,
				"method": "rhf"
			},
			{
				"type": "unocc",
				"energy": -0.03473,
				"method": "rhf"
			},
			{
				"type": "unocc",
				"energy": -0.01191,
				"method": "rhf"
			},
			{
				"type": "unocc",
				"energy": 0.03861,
				"method": "rhf"
			},
			{
				"type": "unocc",
				"energy": 0.06008,
				"method": "rhf"
			},
			{
				"type": "unocc",
				"energy": 0.07378,
				"method": "rhf"
			}
		],
		"cosmo_sigma_profile": { 
			"-0.025": 0.0,
			"-0.024": 0.0,
			"-0.023": 0.0,
			"-0.022": 0.0,
			"-0.021": 0.0,
			"-0.02": 0.0,
			"-0.019": 0.0,
			"-0.018": 0.0,
			"-0.017": 0.0,
			"-0.016": 0.0,
			"-0.015": 0.0,
			"-0.014": 0.902952737826,
			"-0.013": 3.04154187531,
			"-0.012": 3.36530450429,
			"-0.011": 2.8299656367,
			"-0.01": 3.31938567397,
			"-0.009": 3.36678608937,
			"-0.008": 3.44726329425,
			"-0.007": 3.84911363104,
			"-0.006": 7.79707385812,
			"-0.005": 11.8760196141,
			"-0.004": 12.0450921071,
			"-0.003": 13.1941157389,
			"-0.002": 11.8615386981,
			"-0.001": 11.337908909,
			"0.0": 11.9186646415,
			"0.001": 15.0381708996,
			"0.002": 17.8674250838,
			"0.003": 23.1214265245,
			"0.004": 14.6796328763,
			"0.005": 8.92036950954,
			"0.006": 5.64820405424,
			"0.007": 2.90069424101,
			"0.008": 2.5261033787,
			"0.009": 2.56164350825,
			"0.01": 2.19674720066,
			"0.011": 3.6988354815,
			"0.012": 4.39273702716,
			"0.013": 2.64128846818,
			"0.014": 0.0,
			"0.015": 0.0,
			"0.016": 0.0,
			"0.017": 0.0,
			"0.018": 0.0,
			"0.019": 0.0,
			"0.02": 0.0,
			"0.021": 0.0,
			"0.022": 0.0,
			"0.023": 0.0,
			"0.024": 0.0,
			"0.025": 0.0
		}
	}
}
