{
	 "smiles": "OC(=O)C1=CC=CC2=C1C=CN=C2", 
	 "Tm": 552.65, 
	 "num_atms": 20, 
	 "gaussian": { 
		 "optdone": 1, 
		 "sigma_profile": "yes", 
		 "theory": "DFT", 
		 "functional": "B3LYP", 
		 "basiset": "6-31G**", 
		 "properties": { 
			 "R2extent": 2366.4878, 
			 "electric_dipole_moment_norm": 4.77081708411, 
			 "electric_quadrupole_moment_norm": 14.1589044054, 
			 "total_energy": -590.489969697, 
			 "HOMO_LUMO_gap": 0.16577, 
			 "cosmo_polarized_energy": -16.08, 
			 "cosmo_cavitation_energy": 24.37, 
			 "cosmo_dispersion_energy": -18.32, 
			 "cosmo_repulsion_energy": 1.41, 
			 "cosmo_total_nonelectrostatic_energy": 7.46, 
			 "SMD_solvation_energy": 3.65 
		},
		"coords": [
			{
				"x": -0.7584822585,
				"y": -3.6295245997,
				"z": 1.0958663549,
				"element": "O" 
			},
			{
				"x": -0.9197530575,
				"y": -2.4668174582,
				"z": 0.4057570408,
				"element": "C" 
			},
			{
				"x": -1.7577211563,
				"y": -2.4003981786,
				"z": -0.4629915398,
				"element": "O" 
			},
			{
				"x": -0.0259298026,
				"y": -1.3336635844,
				"z": 0.8194306151,
				"element": "C" 
			},
			{
				"x": 0.3418735902,
				"y": -1.2030311937,
				"z": 2.1499820544,
				"element": "C" 
			},
			{
				"x": 1.1525096531,
				"y": -0.136924375,
				"z": 2.5995377966,
				"element": "C" 
			},
			{
				"x": 1.6075296178,
				"y": 0.7992596686,
				"z": 1.7005251182,
				"element": "C" 
			},
			{
				"x": 1.2534623731,
				"y": 0.7079670521,
				"z": 0.3307791064,
				"element": "C" 
			},
			{
				"x": 0.4145608793,
				"y": -0.3535583535,
				"z": -0.132673973,
				"element": "C" 
			},
			{
				"x": 0.1022665043,
				"y": -0.3627692839,
				"z": -1.5177502361,
				"element": "C" 
			},
			{
				"x": 0.6132795153,
				"y": 0.62504915,
				"z": -2.3297732568,
				"element": "C" 
			},
			{
				"x": 1.4161074837,
				"y": 1.6375997631,
				"z": -1.9013731559,
				"element": "N" 
			},
			{
				"x": 1.7120889547,
				"y": 1.6622320224,
				"z": -0.6202917313,
				"element": "C" 
			},
			{
				"x": 0.0473710714,
				"y": -3.5866454068,
				"z": 1.6294202759,
				"element": "H" 
			},
			{
				"x": -0.0309709176,
				"y": -1.9142608753,
				"z": 2.8827439408,
				"element": "H" 
			},
			{
				"x": 1.4066744568,
				"y": -0.0645061081,
				"z": 3.6521421253,
				"element": "H" 
			},
			{
				"x": 2.2371039326,
				"y": 1.6228980076,
				"z": 2.0269054814,
				"element": "H" 
			},
			{
				"x": -0.5458857361,
				"y": -1.1284821528,
				"z": -1.9223439182,
				"element": "H" 
			},
			{
				"x": 0.3799766109,
				"y": 0.6317244717,
				"z": -3.3918137976,
				"element": "H" 
			},
			{
				"x": 2.3548382854,
				"y": 2.4741514346,
				"z": -0.277178301,
				"element": "H" 
			}
		],
		 "valence_orbital": [ 
			{
				"type": "occ",
				"energy": -0.30914,
				"method": "rhf"
			},
			{
				"type": "occ",
				"energy": -0.28178,
				"method": "rhf"
			},
			{
				"type": "occ",
				"energy": -0.27978,
				"method": "rhf"
			},
			{
				"type": "occ",
				"energy": -0.26106,
				"method": "rhf"
			},
			{
				"type": "occ",
				"energy": -0.24406,
				"method": "rhf"
			},
			{
				"type": "unocc",
				"energy": -0.07829,
				"method": "rhf"
			},
			{
				"type": "unocc",
				"energy": -0.04022,
				"method": "rhf"
			},
			{
				"type": "unocc",
				"energy": -0.01585,
				"method": "rhf"
			},
			{
				"type": "unocc",
				"energy": 0.03868,
				"method": "rhf"
			},
			{
				"type": "unocc",
				"energy": 0.06123,
				"method": "rhf"
			}
		],
		"cosmo_sigma_profile": { 
			"-0.025": 0.0,
			"-0.024": 0.0,
			"-0.023": 0.0,
			"-0.022": 0.0,
			"-0.021": 0.0,
			"-0.02": 0.0,
			"-0.019": 0.137861679745,
			"-0.018": 0.683302259071,
			"-0.017": 1.17875312215,
			"-0.016": 1.0654580913,
			"-0.015": 0.689647841318,
			"-0.014": 1.03603444571,
			"-0.013": 1.00404007561,
			"-0.012": 1.13848603512,
			"-0.011": 1.10907760889,
			"-0.01": 1.30033552027,
			"-0.009": 1.64049194408,
			"-0.008": 4.83874940426,
			"-0.007": 10.3527774466,
			"-0.006": 11.3916864869,
			"-0.005": 11.2789843585,
			"-0.004": 10.6684735798,
			"-0.003": 10.1024311829,
			"-0.002": 9.46123616053,
			"-0.001": 8.79213804751,
			"0.0": 17.0418538724,
			"0.001": 21.4148819433,
			"0.002": 16.6550710936,
			"0.003": 8.58342672657,
			"0.004": 4.46884884513,
			"0.005": 4.09256510477,
			"0.006": 3.3556959239,
			"0.007": 4.47779680302,
			"0.008": 3.91806388788,
			"0.009": 4.13405864741,
			"0.01": 6.02634373346,
			"0.011": 6.63465691426,
			"0.012": 3.4154106079,
			"0.013": 1.97393964233,
			"0.014": 0.925129982991,
			"0.015": 0.537990715181,
			"0.016": 1.02916161744,
			"0.017": 0.0554044731196,
			"0.018": 0.0,
			"0.019": 0.0,
			"0.02": 0.0,
			"0.021": 0.0,
			"0.022": 0.0,
			"0.023": 0.0,
			"0.024": 0.0,
			"0.025": 0.0
		}
	}
}
