{
	 "smiles": "COC1=CC(NC2=NN=C(S)S2)=CC=C1", 
	 "Tm": 482.15, 
	 "num_atms": 24, 
	 "gaussian": { 
		 "optdone": 1, 
		 "sigma_profile": "yes", 
		 "theory": "DFT", 
		 "functional": "B3LYP", 
		 "basiset": "6-31G**", 
		 "properties": { 
			 "R2extent": 8467.509, 
			 "electric_dipole_moment_norm": 5.83197521685, 
			 "electric_quadrupole_moment_norm": 22.315267393, 
			 "total_energy": -1384.18079518, 
			 "HOMO_LUMO_gap": 0.17194, 
			 "cosmo_polarized_energy": -15.83, 
			 "cosmo_cavitation_energy": 32.1, 
			 "cosmo_dispersion_energy": -24.87, 
			 "cosmo_repulsion_energy": 1.85, 
			 "cosmo_total_nonelectrostatic_energy": 9.08, 
			 "SMD_solvation_energy": 3.61 
		},
		"coords": [
			{
				"x": -1.494895761,
				"y": -2.642165643,
				"z": -2.0859604835,
				"element": "C" 
			},
			{
				"x": -0.8031560723,
				"y": -2.4511217628,
				"z": -0.8605153781,
				"element": "O" 
			},
			{
				"x": -0.2593377541,
				"y": -1.2274629262,
				"z": -0.6090332476,
				"element": "C" 
			},
			{
				"x": 0.3913125705,
				"y": -1.1064974111,
				"z": 0.6236029617,
				"element": "C" 
			},
			{
				"x": 0.9919641047,
				"y": 0.1006571249,
				"z": 0.993388112,
				"element": "C" 
			},
			{
				"x": 1.6467820246,
				"y": 0.1407660217,
				"z": 2.23644258,
				"element": "N" 
			},
			{
				"x": 1.9650675755,
				"y": 1.1914284179,
				"z": 3.0473551276,
				"element": "C" 
			},
			{
				"x": 2.7211998248,
				"y": 0.9995692335,
				"z": 4.1085932243,
				"element": "N" 
			},
			{
				"x": 2.8459652701,
				"y": 2.1131499968,
				"z": 4.880866839,
				"element": "N" 
			},
			{
				"x": 2.2175070711,
				"y": 3.1496443812,
				"z": 4.4183526876,
				"element": "C" 
			},
			{
				"x": 2.3425694991,
				"y": 4.758063547,
				"z": 5.1446358342,
				"element": "S" 
			},
			{
				"x": 1.3629562647,
				"y": 2.8380092174,
				"z": 2.8926991453,
				"element": "S" 
			},
			{
				"x": 0.9477439441,
				"y": 1.1988881037,
				"z": 0.1179081848,
				"element": "C" 
			},
			{
				"x": 0.2811785786,
				"y": 1.0660077813,
				"z": -1.0968362784,
				"element": "C" 
			},
			{
				"x": -0.3271738456,
				"y": -0.1308732315,
				"z": -1.4790475436,
				"element": "C" 
			},
			{
				"x": -0.8354035044,
				"y": -2.4930114528,
				"z": -2.9501869758,
				"element": "H" 
			},
			{
				"x": -2.3582800437,
				"y": -1.9704180231,
				"z": -2.1719606677,
				"element": "H" 
			},
			{
				"x": -1.8439300734,
				"y": -3.675633158,
				"z": -2.0752186789,
				"element": "H" 
			},
			{
				"x": 0.4069139289,
				"y": -1.9655724594,
				"z": 1.2870967727,
				"element": "H" 
			},
			{
				"x": 1.9213127067,
				"y": -0.7464669152,
				"z": 2.6389276951,
				"element": "H" 
			},
			{
				"x": 1.0197278589,
				"y": 4.955248816,
				"z": 5.3321748976,
				"element": "H" 
			},
			{
				"x": 1.4554051536,
				"y": 2.1249854114,
				"z": 0.3561237688,
				"element": "H" 
			},
			{
				"x": 0.2480233738,
				"y": 1.9144426036,
				"z": -1.7740487616,
				"element": "H" 
			},
			{
				"x": -0.8320526953,
				"y": -0.1995376733,
				"z": -2.4342598156,
				"element": "H" 
			}
		],
		 "valence_orbital": [ 
			{
				"type": "occ",
				"energy": -0.2845,
				"method": "rhf"
			},
			{
				"type": "occ",
				"energy": -0.26496,
				"method": "rhf"
			},
			{
				"type": "occ",
				"energy": -0.25762,
				"method": "rhf"
			},
			{
				"type": "occ",
				"energy": -0.23409,
				"method": "rhf"
			},
			{
				"type": "occ",
				"energy": -0.2134,
				"method": "rhf"
			},
			{
				"type": "unocc",
				"energy": -0.04146,
				"method": "rhf"
			},
			{
				"type": "unocc",
				"energy": -0.01748,
				"method": "rhf"
			},
			{
				"type": "unocc",
				"energy": 0.00244,
				"method": "rhf"
			},
			{
				"type": "unocc",
				"energy": 0.00504,
				"method": "rhf"
			},
			{
				"type": "unocc",
				"energy": 0.02117,
				"method": "rhf"
			}
		],
		"cosmo_sigma_profile": { 
			"-0.025": 0.0,
			"-0.024": 0.0,
			"-0.023": 0.0,
			"-0.022": 0.0,
			"-0.021": 0.0,
			"-0.02": 0.0,
			"-0.019": 0.0,
			"-0.018": 0.0,
			"-0.017": 0.0,
			"-0.016": 0.288498055446,
			"-0.015": 0.92348050577,
			"-0.014": 0.927746257607,
			"-0.013": 1.14977010187,
			"-0.012": 2.51299055307,
			"-0.011": 3.91008751682,
			"-0.01": 2.89181416012,
			"-0.009": 2.8434026286,
			"-0.008": 2.9448010417,
			"-0.007": 3.73332479281,
			"-0.006": 12.1368067924,
			"-0.005": 19.9363906356,
			"-0.004": 17.9806961308,
			"-0.003": 17.6317482406,
			"-0.002": 17.8928302792,
			"-0.001": 18.6913583593,
			"0.0": 18.7408230023,
			"0.001": 18.1887333768,
			"0.002": 16.3105532724,
			"0.003": 16.2241817641,
			"0.004": 15.9970612298,
			"0.005": 13.1737151493,
			"0.006": 6.95187971993,
			"0.007": 4.8395072735,
			"0.008": 5.17751320377,
			"0.009": 4.40824416077,
			"0.01": 3.77124800045,
			"0.011": 3.38407549425,
			"0.012": 3.19494942854,
			"0.013": 2.64047482371,
			"0.014": 1.95310839474,
			"0.015": 0.535344369103,
			"0.016": 0.0,
			"0.017": 0.0,
			"0.018": 0.0,
			"0.019": 0.0,
			"0.02": 0.0,
			"0.021": 0.0,
			"0.022": 0.0,
			"0.023": 0.0,
			"0.024": 0.0,
			"0.025": 0.0
		}
	}
}
