{
	 "smiles": "COC1=C2OCCC(=O)C2=CC=C1", 
	 "Tm": 354.15, 
	 "num_atms": 23, 
	 "gaussian": { 
		 "optdone": 1, 
		 "sigma_profile": "yes", 
		 "theory": "DFT", 
		 "functional": "B3LYP", 
		 "basiset": "6-31G**", 
		 "properties": { 
			 "R2extent": 2921.7569, 
			 "electric_dipole_moment_norm": 2.4811602951, 
			 "electric_quadrupole_moment_norm": 15.8782196467, 
			 "total_energy": -612.739924578, 
			 "HOMO_LUMO_gap": 0.16997, 
			 "cosmo_polarized_energy": -10.19, 
			 "cosmo_cavitation_energy": 26.23, 
			 "cosmo_dispersion_energy": -19.51, 
			 "cosmo_repulsion_energy": 1.55, 
			 "cosmo_total_nonelectrostatic_energy": 8.27, 
			 "SMD_solvation_energy": 5.88 
		},
		"coords": [
			{
				"x": 0.2302272397,
				"y": 0.632275169,
				"z": -2.0428803482,
				"element": "C" 
			},
			{
				"x": 1.1517382911,
				"y": -0.2481400716,
				"z": -1.3929627024,
				"element": "O" 
			},
			{
				"x": 0.9460049036,
				"y": -0.458467966,
				"z": -0.0535923643,
				"element": "C" 
			},
			{
				"x": -0.190565892,
				"y": -1.1438758918,
				"z": 0.4276807712,
				"element": "C" 
			},
			{
				"x": -1.1139432593,
				"y": -1.5510427333,
				"z": -0.4893743762,
				"element": "O" 
			},
			{
				"x": -1.9735295566,
				"y": -2.618971855,
				"z": -0.06142005,
				"element": "C" 
			},
			{
				"x": -2.6283041613,
				"y": -2.305571235,
				"z": 1.2774778499,
				"element": "C" 
			},
			{
				"x": -1.5681841786,
				"y": -2.0114779792,
				"z": 2.3325719422,
				"element": "C" 
			},
			{
				"x": -1.7481399236,
				"y": -2.2457271203,
				"z": 3.5174589603,
				"element": "O" 
			},
			{
				"x": -0.3320543794,
				"y": -1.3799329593,
				"z": 1.8100155273,
				"element": "C" 
			},
			{
				"x": 0.6778497375,
				"y": -0.968031968,
				"z": 2.6970322089,
				"element": "C" 
			},
			{
				"x": 1.805920458,
				"y": -0.3188723528,
				"z": 2.2208402095,
				"element": "C" 
			},
			{
				"x": 1.927744294,
				"y": -0.057650162,
				"z": 0.8489116283,
				"element": "C" 
			},
			{
				"x": -0.7880388679,
				"y": 0.2333985368,
				"z": -2.0275376362,
				"element": "H" 
			},
			{
				"x": 0.5729990284,
				"y": 0.7182348531,
				"z": -3.0758790857,
				"element": "H" 
			},
			{
				"x": 0.2426293627,
				"y": 1.625295008,
				"z": -1.5751249172,
				"element": "H" 
			},
			{
				"x": -2.7066058252,
				"y": -2.7414268529,
				"z": -0.8611634493,
				"element": "H" 
			},
			{
				"x": -1.3763008167,
				"y": -3.5391776078,
				"z": 0.0090010183,
				"element": "H" 
			},
			{
				"x": -3.2666268238,
				"y": -1.4166800492,
				"z": 1.1802653242,
				"element": "H" 
			},
			{
				"x": -3.2588263772,
				"y": -3.1309145967,
				"z": 1.6194830045,
				"element": "H" 
			},
			{
				"x": 0.533231396,
				"y": -1.1703672514,
				"z": 3.7529776333,
				"element": "H" 
			},
			{
				"x": 2.5888765454,
				"y": -0.0014296313,
				"z": 2.9021839049,
				"element": "H" 
			},
			{
				"x": 2.8000988051,
				"y": 0.4492547168,
				"z": 0.4481349466,
				"element": "H" 
			}
		],
		 "valence_orbital": [ 
			{
				"type": "occ",
				"energy": -0.32305,
				"method": "rhf"
			},
			{
				"type": "occ",
				"energy": -0.28429,
				"method": "rhf"
			},
			{
				"type": "occ",
				"energy": -0.25088,
				"method": "rhf"
			},
			{
				"type": "occ",
				"energy": -0.2466,
				"method": "rhf"
			},
			{
				"type": "occ",
				"energy": -0.22587,
				"method": "rhf"
			},
			{
				"type": "unocc",
				"energy": -0.0559,
				"method": "rhf"
			},
			{
				"type": "unocc",
				"energy": 0.00055,
				"method": "rhf"
			},
			{
				"type": "unocc",
				"energy": 0.04089,
				"method": "rhf"
			},
			{
				"type": "unocc",
				"energy": 0.08155,
				"method": "rhf"
			},
			{
				"type": "unocc",
				"energy": 0.09896,
				"method": "rhf"
			}
		],
		"cosmo_sigma_profile": { 
			"-0.025": 0.0,
			"-0.024": 0.0,
			"-0.023": 0.0,
			"-0.022": 0.0,
			"-0.021": 0.0,
			"-0.02": 0.0,
			"-0.019": 0.0,
			"-0.018": 0.0,
			"-0.017": 0.0,
			"-0.016": 0.0,
			"-0.015": 0.0,
			"-0.014": 0.0,
			"-0.013": 0.0,
			"-0.012": 0.0,
			"-0.011": 0.0,
			"-0.01": 0.0,
			"-0.009": 0.0,
			"-0.008": 0.0,
			"-0.007": 4.85897468018,
			"-0.006": 18.4311180458,
			"-0.005": 20.7225485319,
			"-0.004": 20.7166931851,
			"-0.003": 19.6099515962,
			"-0.002": 15.4515538605,
			"-0.001": 10.9013425226,
			"0.0": 13.0969361607,
			"0.001": 11.5804349113,
			"0.002": 13.3832644852,
			"0.003": 13.8639382068,
			"0.004": 10.4981150081,
			"0.005": 5.88157741048,
			"0.006": 3.31240483943,
			"0.007": 2.89071177151,
			"0.008": 4.65449540909,
			"0.009": 3.54440668376,
			"0.01": 3.7785699399,
			"0.011": 4.7916639548,
			"0.012": 4.94108603709,
			"0.013": 1.63955662158,
			"0.014": 0.0635679559726,
			"0.015": 0.0,
			"0.016": 0.0,
			"0.017": 0.0,
			"0.018": 0.0,
			"0.019": 0.0,
			"0.02": 0.0,
			"0.021": 0.0,
			"0.022": 0.0,
			"0.023": 0.0,
			"0.024": 0.0,
			"0.025": 0.0
		}
	}
}
