{
	 "smiles": "FC1=CC2=C(CNC2=O)C=C1", 
	 "Tm": 477.15, 
	 "num_atms": 17, 
	 "gaussian": { 
		 "optdone": 1, 
		 "sigma_profile": "yes", 
		 "theory": "DFT", 
		 "functional": "B3LYP", 
		 "basiset": "6-31G**", 
		 "properties": { 
			 "R2extent": 1866.34, 
			 "electric_dipole_moment_norm": 4.67334489739, 
			 "electric_quadrupole_moment_norm": 7.39129859903, 
			 "total_energy": -538.29434857, 
			 "HOMO_LUMO_gap": 0.20931, 
			 "cosmo_polarized_energy": -12.62, 
			 "cosmo_cavitation_energy": 21.74, 
			 "cosmo_dispersion_energy": -16.28, 
			 "cosmo_repulsion_energy": 1.29, 
			 "cosmo_total_nonelectrostatic_energy": 6.75, 
			 "SMD_solvation_energy": 3.95 
		},
		"coords": [
			{
				"x": -1.3898229707,
				"y": -3.2248436966,
				"z": -1.397283033,
				"element": "F" 
			},
			{
				"x": -1.1421544836,
				"y": -2.2756154223,
				"z": -0.4720847221,
				"element": "C" 
			},
			{
				"x": -0.1437148726,
				"y": -1.3400313073,
				"z": -0.7147559018,
				"element": "C" 
			},
			{
				"x": 0.0649453297,
				"y": -0.3864768722,
				"z": 0.2761557598,
				"element": "C" 
			},
			{
				"x": -0.6810806752,
				"y": -0.3593564206,
				"z": 1.4552616088,
				"element": "C" 
			},
			{
				"x": -0.2100615423,
				"y": 0.7927866136,
				"z": 2.3172911363,
				"element": "C" 
			},
			{
				"x": 0.8441750724,
				"y": 1.3689895638,
				"z": 1.4955181836,
				"element": "N" 
			},
			{
				"x": 1.0571943527,
				"y": 0.729769089,
				"z": 0.2912207926,
				"element": "C" 
			},
			{
				"x": 1.8806188473,
				"y": 1.0292357089,
				"z": -0.5578207973,
				"element": "O" 
			},
			{
				"x": -1.6769078142,
				"y": -1.3067339436,
				"z": 1.6777727977,
				"element": "C" 
			},
			{
				"x": -1.9064748604,
				"y": -2.2758688755,
				"z": 0.6975098867,
				"element": "C" 
			},
			{
				"x": 0.4403747346,
				"y": -1.3541983796,
				"z": -1.6282770807,
				"element": "H" 
			},
			{
				"x": -1.0142626616,
				"y": 1.5155112242,
				"z": 2.5140795246,
				"element": "H" 
			},
			{
				"x": 0.172038276,
				"y": 0.4505659319,
				"z": 3.2892396828,
				"element": "H" 
			},
			{
				"x": 1.3917591813,
				"y": 2.1725950909,
				"z": 1.761364074,
				"element": "H" 
			},
			{
				"x": -2.2702983695,
				"y": -1.305384005,
				"z": 2.587900162,
				"element": "H" 
			},
			{
				"x": -2.6703275439,
				"y": -3.0357442998,
				"z": 0.822607926,
				"element": "H" 
			}
		],
		 "valence_orbital": [ 
			{
				"type": "occ",
				"energy": -0.3586,
				"method": "rhf"
			},
			{
				"type": "occ",
				"energy": -0.27006,
				"method": "rhf"
			},
			{
				"type": "occ",
				"energy": -0.25773,
				"method": "rhf"
			},
			{
				"type": "occ",
				"energy": -0.25095,
				"method": "rhf"
			},
			{
				"type": "occ",
				"energy": -0.25051,
				"method": "rhf"
			},
			{
				"type": "unocc",
				"energy": -0.0412,
				"method": "rhf"
			},
			{
				"type": "unocc",
				"energy": -0.01375,
				"method": "rhf"
			},
			{
				"type": "unocc",
				"energy": 0.0646,
				"method": "rhf"
			},
			{
				"type": "unocc",
				"energy": 0.08618,
				"method": "rhf"
			},
			{
				"type": "unocc",
				"energy": 0.08981,
				"method": "rhf"
			}
		],
		"cosmo_sigma_profile": { 
			"-0.025": 0.0,
			"-0.024": 0.0,
			"-0.023": 0.0,
			"-0.022": 0.0,
			"-0.021": 0.0,
			"-0.02": 0.0,
			"-0.019": 0.0,
			"-0.018": 0.0,
			"-0.017": 0.0,
			"-0.016": 0.0,
			"-0.015": 0.504480511197,
			"-0.014": 1.28536842253,
			"-0.013": 1.13287507876,
			"-0.012": 1.03397636522,
			"-0.011": 0.979998607744,
			"-0.01": 0.89880284009,
			"-0.009": 0.911785647501,
			"-0.008": 2.32609599866,
			"-0.007": 8.15582548707,
			"-0.006": 13.6134206986,
			"-0.005": 14.487678101,
			"-0.004": 9.52855166029,
			"-0.003": 6.95014844758,
			"-0.002": 6.83111514164,
			"-0.001": 9.60778843025,
			"0.0": 13.5199113206,
			"0.001": 16.7019685075,
			"0.002": 18.4796398214,
			"0.003": 11.4107236431,
			"0.004": 11.226633241,
			"0.005": 3.88619039479,
			"0.006": 1.81281668795,
			"0.007": 0.690331374307,
			"0.008": 1.45799751346,
			"0.009": 1.02501006709,
			"0.01": 1.40901394137,
			"0.011": 2.08404553737,
			"0.012": 1.39956694942,
			"0.013": 4.71331589881,
			"0.014": 5.3918897932,
			"0.015": 0.829359309581,
			"0.016": 0.0,
			"0.017": 0.0,
			"0.018": 0.0,
			"0.019": 0.0,
			"0.02": 0.0,
			"0.021": 0.0,
			"0.022": 0.0,
			"0.023": 0.0,
			"0.024": 0.0,
			"0.025": 0.0
		}
	}
}
