{
	 "smiles": "CC1(NN2C(S1)=NN=C2C(F)(F)F)C1=CC=C(C=C1)[N+]([O-])=O", 
	 "Tm": 528.15, 
	 "num_atms": 30, 
	 "gaussian": { 
		 "optdone": 1, 
		 "sigma_profile": "yes", 
		 "theory": "DFT", 
		 "functional": "B3LYP", 
		 "basiset": "6-31G**", 
		 "properties": { 
			 "R2extent": 10469.746, 
			 "electric_dipole_moment_norm": 3.35358644141, 
			 "electric_quadrupole_moment_norm": 33.485467423, 
			 "total_energy": -1545.72330793, 
			 "HOMO_LUMO_gap": 0.14091, 
			 "cosmo_polarized_energy": -22.0, 
			 "cosmo_cavitation_energy": 38.54, 
			 "cosmo_dispersion_energy": -26.96, 
			 "cosmo_repulsion_energy": 1.91, 
			 "cosmo_total_nonelectrostatic_energy": 13.49, 
			 "SMD_solvation_energy": 6.93 
		},
		"coords": [
			{
				"x": 0.0398362162,
				"y": 1.6170451723,
				"z": -1.6595639792,
				"element": "C" 
			},
			{
				"x": -0.683523977,
				"y": 1.1542339713,
				"z": -0.3956984652,
				"element": "C" 
			},
			{
				"x": 0.2955155664,
				"y": 1.0401839966,
				"z": 0.7043747981,
				"element": "N" 
			},
			{
				"x": 0.9030396823,
				"y": -0.2146426003,
				"z": 0.5551356508,
				"element": "N" 
			},
			{
				"x": 0.2411330531,
				"y": -1.2095087831,
				"z": -0.1113531136,
				"element": "C" 
			},
			{
				"x": -1.3109593779,
				"y": -0.6638897276,
				"z": -0.7253093014,
				"element": "S" 
			},
			{
				"x": 0.9600200525,
				"y": -2.306129486,
				"z": -0.1434686505,
				"element": "N" 
			},
			{
				"x": 2.133080974,
				"y": -2.0256544658,
				"z": 0.5454183325,
				"element": "N" 
			},
			{
				"x": 2.0904790559,
				"y": -0.7750000246,
				"z": 0.9409212372,
				"element": "C" 
			},
			{
				"x": 3.1500257703,
				"y": -0.0275243813,
				"z": 1.6868859174,
				"element": "C" 
			},
			{
				"x": 3.7429137548,
				"y": 0.8959912398,
				"z": 0.9030580483,
				"element": "F" 
			},
			{
				"x": 4.0876625749,
				"y": -0.8533905345,
				"z": 2.1523656735,
				"element": "F" 
			},
			{
				"x": 2.5972847711,
				"y": 0.6363929699,
				"z": 2.7317424466,
				"element": "F" 
			},
			{
				"x": -1.8462464642,
				"y": 2.0316085635,
				"z": 0.0505600464,
				"element": "C" 
			},
			{
				"x": -2.6642329539,
				"y": 1.6226511115,
				"z": 1.1191262231,
				"element": "C" 
			},
			{
				"x": -3.7036444635,
				"y": 2.4254900422,
				"z": 1.5758455974,
				"element": "C" 
			},
			{
				"x": -3.9287392227,
				"y": 3.646677416,
				"z": 0.9452155042,
				"element": "C" 
			},
			{
				"x": -3.1477526561,
				"y": 4.0785098254,
				"z": -0.1207359533,
				"element": "C" 
			},
			{
				"x": -2.1057284082,
				"y": 3.2652231757,
				"z": -0.5626072959,
				"element": "C" 
			},
			{
				"x": -5.0319220718,
				"y": 4.5041002938,
				"z": 1.4186955816,
				"element": "N" 
			},
			{
				"x": -5.2093297653,
				"y": 5.5717676515,
				"z": 0.8362121498,
				"element": "O" 
			},
			{
				"x": -5.7001436372,
				"y": 4.0944827959,
				"z": 2.3654617574,
				"element": "O" 
			},
			{
				"x": 0.4841869736,
				"y": 2.6028980028,
				"z": -1.4938709779,
				"element": "H" 
			},
			{
				"x": -0.6448685899,
				"y": 1.6567156396,
				"z": -2.5090472897,
				"element": "H" 
			},
			{
				"x": 0.8460304418,
				"y": 0.9237490861,
				"z": -1.9062175859,
				"element": "H" 
			},
			{
				"x": -0.1767478904,
				"y": 1.051079894,
				"z": 1.6093647188,
				"element": "H" 
			},
			{
				"x": -2.507091593,
				"y": 0.6529489487,
				"z": 1.5808288331,
				"element": "H" 
			},
			{
				"x": -4.3418359692,
				"y": 2.1204202749,
				"z": 2.3955216808,
				"element": "H" 
			},
			{
				"x": -3.3585018073,
				"y": 5.0335255045,
				"z": -0.5852929423,
				"element": "H" 
			},
			{
				"x": -1.4965400393,
				"y": 3.607544427,
				"z": -1.3895686421,
				"element": "H" 
			}
		],
		 "valence_orbital": [ 
			{
				"type": "occ",
				"energy": -0.30867,
				"method": "rhf"
			},
			{
				"type": "occ",
				"energy": -0.30553,
				"method": "rhf"
			},
			{
				"type": "occ",
				"energy": -0.29265,
				"method": "rhf"
			},
			{
				"type": "occ",
				"energy": -0.2777,
				"method": "rhf"
			},
			{
				"type": "occ",
				"energy": -0.2545,
				"method": "rhf"
			},
			{
				"type": "unocc",
				"energy": -0.11359,
				"method": "rhf"
			},
			{
				"type": "unocc",
				"energy": -0.06045,
				"method": "rhf"
			},
			{
				"type": "unocc",
				"energy": -0.0495,
				"method": "rhf"
			},
			{
				"type": "unocc",
				"energy": -0.02251,
				"method": "rhf"
			},
			{
				"type": "unocc",
				"energy": -0.01974,
				"method": "rhf"
			}
		],
		"cosmo_sigma_profile": { 
			"-0.025": 0.0,
			"-0.024": 0.0,
			"-0.023": 0.0,
			"-0.022": 0.0,
			"-0.021": 0.0,
			"-0.02": 0.0,
			"-0.019": 0.0,
			"-0.018": 0.0,
			"-0.017": 0.0,
			"-0.016": 0.181790497773,
			"-0.015": 1.52926966769,
			"-0.014": 1.79263264102,
			"-0.013": 1.21321597788,
			"-0.012": 1.12739305747,
			"-0.011": 1.20091364156,
			"-0.01": 1.77929801855,
			"-0.009": 2.26807864437,
			"-0.008": 8.18687800207,
			"-0.007": 13.3078824219,
			"-0.006": 16.6481468358,
			"-0.005": 15.4176167041,
			"-0.004": 14.2770099125,
			"-0.003": 18.2757855051,
			"-0.002": 23.9698433904,
			"-0.001": 24.5298729995,
			"0.0": 27.0287193378,
			"0.001": 28.5185433641,
			"0.002": 33.4888359629,
			"0.003": 12.7003216197,
			"0.004": 6.77322557206,
			"0.005": 7.62535200395,
			"0.006": 6.91015861098,
			"0.007": 11.9605597078,
			"0.008": 7.57106263967,
			"0.009": 6.98715605741,
			"0.01": 4.01930905915,
			"0.011": 2.71987361529,
			"0.012": 3.76151155077,
			"0.013": 2.74882080162,
			"0.014": 2.27207416604,
			"0.015": 1.19403270014,
			"0.016": 0.0869847298868,
			"0.017": 0.0,
			"0.018": 0.0,
			"0.019": 0.0,
			"0.02": 0.0,
			"0.021": 0.0,
			"0.022": 0.0,
			"0.023": 0.0,
			"0.024": 0.0,
			"0.025": 0.0
		}
	}
}
