{
	 "smiles": "CSC1=NC(N=CC2=CC=C(C=C2)[N+]([O-])=O)=NN1C", 
	 "Tm": 468.15, 
	 "num_atms": 30, 
	 "gaussian": { 
		 "optdone": 1, 
		 "sigma_profile": "yes", 
		 "theory": "DFT", 
		 "functional": "B3LYP", 
		 "basiset": "6-31G**", 
		 "properties": { 
			 "R2extent": 10595.9478, 
			 "electric_dipole_moment_norm": 7.63569883377, 
			 "electric_quadrupole_moment_norm": 25.4217042892, 
			 "total_energy": -1248.07454287, 
			 "HOMO_LUMO_gap": 0.12828, 
			 "cosmo_polarized_energy": -16.21, 
			 "cosmo_cavitation_energy": 38.3, 
			 "cosmo_dispersion_energy": -28.05, 
			 "cosmo_repulsion_energy": 2.11, 
			 "cosmo_total_nonelectrostatic_energy": 12.37, 
			 "SMD_solvation_energy": 5.87 
		},
		"coords": [
			{
				"x": 3.5034023348,
				"y": -1.1154712523,
				"z": 2.4390789519,
				"element": "C" 
			},
			{
				"x": 3.7806209855,
				"y": -2.2129493371,
				"z": 1.0051240969,
				"element": "S" 
			},
			{
				"x": 2.3907157609,
				"y": -1.7486568744,
				"z": 0.0287670242,
				"element": "C" 
			},
			{
				"x": 1.4647770987,
				"y": -0.8555801173,
				"z": 0.3241726868,
				"element": "N" 
			},
			{
				"x": 0.6401572897,
				"y": -0.9010171813,
				"z": -0.7749616447,
				"element": "C" 
			},
			{
				"x": -0.5010646259,
				"y": -0.1417536547,
				"z": -0.9641459268,
				"element": "N" 
			},
			{
				"x": -0.8484504965,
				"y": 0.689869959,
				"z": -0.049017025,
				"element": "C" 
			},
			{
				"x": -2.0471378959,
				"y": 1.5231673679,
				"z": -0.1901839943,
				"element": "C" 
			},
			{
				"x": -2.8635795432,
				"y": 1.442393225,
				"z": -1.3347176199,
				"element": "C" 
			},
			{
				"x": -3.993465185,
				"y": 2.2389836342,
				"z": -1.4500432858,
				"element": "C" 
			},
			{
				"x": -4.3044963121,
				"y": 3.1204651228,
				"z": -0.4112376151,
				"element": "C" 
			},
			{
				"x": -3.517691242,
				"y": 3.2244686191,
				"z": 0.7340824634,
				"element": "C" 
			},
			{
				"x": -2.3877597975,
				"y": 2.4200186392,
				"z": 0.8368600402,
				"element": "C" 
			},
			{
				"x": -5.5014023932,
				"y": 3.9669013544,
				"z": -0.5292242003,
				"element": "N" 
			},
			{
				"x": -6.1800701695,
				"y": 3.856948713,
				"z": -1.5501762247,
				"element": "O" 
			},
			{
				"x": -5.7524897804,
				"y": 4.7344204499,
				"z": 0.4002396299,
				"element": "O" 
			},
			{
				"x": 1.0131726053,
				"y": -1.7669055944,
				"z": -1.7141484102,
				"element": "N" 
			},
			{
				"x": 2.1417485403,
				"y": -2.3081245259,
				"z": -1.1873202004,
				"element": "N" 
			},
			{
				"x": 2.8923287183,
				"y": -3.3251250144,
				"z": -1.9016452882,
				"element": "C" 
			},
			{
				"x": 2.5473702201,
				"y": -1.3440918409,
				"z": 2.9097150919,
				"element": "H" 
			},
			{
				"x": 4.32358751,
				"y": -1.3181338532,
				"z": 3.1300847233,
				"element": "H" 
			},
			{
				"x": 3.5229554043,
				"y": -0.0721168984,
				"z": 2.1247727421,
				"element": "H" 
			},
			{
				"x": -0.2658724847,
				"y": 0.8110243253,
				"z": 0.8715527784,
				"element": "H" 
			},
			{
				"x": -2.5880071059,
				"y": 0.7457991286,
				"z": -2.1187199729,
				"element": "H" 
			},
			{
				"x": -4.6375296673,
				"y": 2.1959675532,
				"z": -2.3193728096,
				"element": "H" 
			},
			{
				"x": -3.7992890018,
				"y": 3.9222364936,
				"z": 1.5124323454,
				"element": "H" 
			},
			{
				"x": -1.7597829512,
				"y": 2.4845718003,
				"z": 1.7211164233,
				"element": "H" 
			},
			{
				"x": 3.9106064988,
				"y": -2.9802812965,
				"z": -2.1054610586,
				"element": "H" 
			},
			{
				"x": 2.3728410296,
				"y": -3.5064767751,
				"z": -2.8412765899,
				"element": "H" 
			},
			{
				"x": 2.9350046556,
				"y": -4.2514521697,
				"z": -1.3207471314,
				"element": "H" 
			}
		],
		 "valence_orbital": [ 
			{
				"type": "occ",
				"energy": -0.28833,
				"method": "rhf"
			},
			{
				"type": "occ",
				"energy": -0.27783,
				"method": "rhf"
			},
			{
				"type": "occ",
				"energy": -0.27484,
				"method": "rhf"
			},
			{
				"type": "occ",
				"energy": -0.26166,
				"method": "rhf"
			},
			{
				"type": "occ",
				"energy": -0.22787,
				"method": "rhf"
			},
			{
				"type": "unocc",
				"energy": -0.09959,
				"method": "rhf"
			},
			{
				"type": "unocc",
				"energy": -0.0486,
				"method": "rhf"
			},
			{
				"type": "unocc",
				"energy": -0.02532,
				"method": "rhf"
			},
			{
				"type": "unocc",
				"energy": 0.00437,
				"method": "rhf"
			},
			{
				"type": "unocc",
				"energy": 0.0052,
				"method": "rhf"
			}
		],
		"cosmo_sigma_profile": { 
			"-0.025": 0.0,
			"-0.024": 0.0,
			"-0.023": 0.0,
			"-0.022": 0.0,
			"-0.021": 0.0,
			"-0.02": 0.0,
			"-0.019": 0.0,
			"-0.018": 0.0,
			"-0.017": 0.0,
			"-0.016": 0.0,
			"-0.015": 0.0,
			"-0.014": 0.0,
			"-0.013": 0.0,
			"-0.012": 0.0,
			"-0.011": 0.0,
			"-0.01": 0.0,
			"-0.009": 0.92660503454,
			"-0.008": 6.56439946892,
			"-0.007": 15.6484371374,
			"-0.006": 21.1691002364,
			"-0.005": 20.1047084895,
			"-0.004": 23.9606881377,
			"-0.003": 21.8150146594,
			"-0.002": 23.3940996965,
			"-0.001": 21.1933855328,
			"0.0": 28.0351623477,
			"0.001": 27.2443190218,
			"0.002": 15.3927719976,
			"0.003": 9.96968121469,
			"0.004": 10.6396376072,
			"0.005": 9.04699264919,
			"0.006": 10.7439527134,
			"0.007": 12.5056105196,
			"0.008": 9.82481686884,
			"0.009": 8.25921347879,
			"0.01": 5.29808198264,
			"0.011": 2.30835670594,
			"0.012": 2.28943433097,
			"0.013": 2.24217199142,
			"0.014": 0.689312508372,
			"0.015": 0.129854868652,
			"0.016": 0.0,
			"0.017": 0.0,
			"0.018": 0.0,
			"0.019": 0.0,
			"0.02": 0.0,
			"0.021": 0.0,
			"0.022": 0.0,
			"0.023": 0.0,
			"0.024": 0.0,
			"0.025": 0.0
		}
	}
}
