{
	 "smiles": "CCOC(=O)C1=NNC(=C1)C1=CC=CO1", 
	 "Tm": 411.15, 
	 "num_atms": 25, 
	 "gaussian": { 
		 "optdone": 1, 
		 "sigma_profile": "yes", 
		 "theory": "DFT", 
		 "functional": "B3LYP", 
		 "basiset": "6-31G**", 
		 "properties": { 
			 "R2extent": 4670.8491, 
			 "electric_dipole_moment_norm": 4.50838871106, 
			 "electric_quadrupole_moment_norm": 18.4231630799, 
			 "total_energy": -722.23317112, 
			 "HOMO_LUMO_gap": 0.18065, 
			 "cosmo_polarized_energy": -17.3, 
			 "cosmo_cavitation_energy": 31.0, 
			 "cosmo_dispersion_energy": -22.49, 
			 "cosmo_repulsion_energy": 1.78, 
			 "cosmo_total_nonelectrostatic_energy": 10.29, 
			 "SMD_solvation_energy": 6.43 
		},
		"coords": [
			{
				"x": -0.4514300547,
				"y": 4.642543425,
				"z": -2.8127056477,
				"element": "C" 
			},
			{
				"x": 0.6772469849,
				"y": 4.2460063397,
				"z": -1.8798011186,
				"element": "C" 
			},
			{
				"x": 0.3890404764,
				"y": 2.9190718945,
				"z": -1.3886357593,
				"element": "O" 
			},
			{
				"x": 1.3050019153,
				"y": 2.4016629009,
				"z": -0.533584125,
				"element": "C" 
			},
			{
				"x": 2.3082440816,
				"y": 2.9841965471,
				"z": -0.1835796357,
				"element": "O" 
			},
			{
				"x": 0.8974242155,
				"y": 1.0432538613,
				"z": -0.1032723109,
				"element": "C" 
			},
			{
				"x": 1.6710665946,
				"y": 0.3554669094,
				"z": 0.7458521301,
				"element": "N" 
			},
			{
				"x": 1.0188254551,
				"y": -0.8017378477,
				"z": 0.9159396849,
				"element": "N" 
			},
			{
				"x": -0.151164169,
				"y": -0.8886746893,
				"z": 0.2065940128,
				"element": "C" 
			},
			{
				"x": -0.2568100986,
				"y": 0.3136977085,
				"z": -0.4747860538,
				"element": "C" 
			},
			{
				"x": -1.011337361,
				"y": -2.0474120065,
				"z": 0.2434879516,
				"element": "C" 
			},
			{
				"x": -0.9572622782,
				"y": -3.2540036481,
				"z": 0.893670896,
				"element": "C" 
			},
			{
				"x": -2.1297930267,
				"y": -3.9756287157,
				"z": 0.506427345,
				"element": "C" 
			},
			{
				"x": -2.8111194003,
				"y": -3.1624051165,
				"z": -0.347125679,
				"element": "C" 
			},
			{
				"x": -2.1454572671,
				"y": -1.9855311703,
				"z": -0.5185674979,
				"element": "O" 
			},
			{
				"x": -0.2708465682,
				"y": 5.646795863,
				"z": -3.2086804,
				"element": "H" 
			},
			{
				"x": -1.4104855129,
				"y": 4.64775981,
				"z": -2.2865737489,
				"element": "H" 
			},
			{
				"x": -0.5246678496,
				"y": 3.9487851724,
				"z": -3.6552990801,
				"element": "H" 
			},
			{
				"x": 1.646459416,
				"y": 4.2326294854,
				"z": -2.3887436244,
				"element": "H" 
			},
			{
				"x": 0.7656969855,
				"y": 4.9277064182,
				"z": -1.0277089783,
				"element": "H" 
			},
			{
				"x": 1.4190340061,
				"y": -1.4963782484,
				"z": 1.5280257412,
				"element": "H" 
			},
			{
				"x": -1.0474141262,
				"y": 0.6193535545,
				"z": -1.1399962606,
				"element": "H" 
			},
			{
				"x": -0.1824077509,
				"y": -3.5941464666,
				"z": 1.5662200684,
				"element": "H" 
			},
			{
				"x": -2.4212370875,
				"y": -4.9661649834,
				"z": 0.8238480879,
				"element": "H" 
			},
			{
				"x": -3.7363075801,
				"y": -3.2611469976,
				"z": -0.8927059976,
				"element": "H" 
			}
		],
		 "valence_orbital": [ 
			{
				"type": "occ",
				"energy": -0.29177,
				"method": "rhf"
			},
			{
				"type": "occ",
				"energy": -0.28711,
				"method": "rhf"
			},
			{
				"type": "occ",
				"energy": -0.26714,
				"method": "rhf"
			},
			{
				"type": "occ",
				"energy": -0.26351,
				"method": "rhf"
			},
			{
				"type": "occ",
				"energy": -0.21618,
				"method": "rhf"
			},
			{
				"type": "unocc",
				"energy": -0.03553,
				"method": "rhf"
			},
			{
				"type": "unocc",
				"energy": -0.01858,
				"method": "rhf"
			},
			{
				"type": "unocc",
				"energy": 0.04052,
				"method": "rhf"
			},
			{
				"type": "unocc",
				"energy": 0.06173,
				"method": "rhf"
			},
			{
				"type": "unocc",
				"energy": 0.10315,
				"method": "rhf"
			}
		],
		"cosmo_sigma_profile": { 
			"-0.025": 0.0,
			"-0.024": 0.0,
			"-0.023": 0.0,
			"-0.022": 0.0,
			"-0.021": 0.0,
			"-0.02": 0.0,
			"-0.019": 0.0,
			"-0.018": 0.00718238613392,
			"-0.017": 1.09632740121,
			"-0.016": 1.34988059719,
			"-0.015": 1.44763220838,
			"-0.014": 1.49390191967,
			"-0.013": 1.45249898034,
			"-0.012": 1.3305273708,
			"-0.011": 1.48420604939,
			"-0.01": 1.20711475194,
			"-0.009": 3.04708277552,
			"-0.008": 4.42260944466,
			"-0.007": 6.11398646931,
			"-0.006": 6.88953407675,
			"-0.005": 11.9156355181,
			"-0.004": 18.166001471,
			"-0.003": 20.3460590096,
			"-0.002": 17.459790875,
			"-0.001": 16.3568063031,
			"0.0": 18.3131412584,
			"0.001": 21.5479843554,
			"0.002": 21.6256304645,
			"0.003": 17.2690267844,
			"0.004": 12.5179236135,
			"0.005": 8.23930557329,
			"0.006": 6.13141785914,
			"0.007": 2.65830270155,
			"0.008": 1.90862442172,
			"0.009": 2.78207135904,
			"0.01": 2.96478627302,
			"0.011": 4.11450841716,
			"0.012": 5.28312416948,
			"0.013": 3.1866035908,
			"0.014": 2.11619410954,
			"0.015": 1.57836479431,
			"0.016": 0.0426079977011,
			"0.017": 0.0,
			"0.018": 0.0,
			"0.019": 0.0,
			"0.02": 0.0,
			"0.021": 0.0,
			"0.022": 0.0,
			"0.023": 0.0,
			"0.024": 0.0,
			"0.025": 0.0
		}
	}
}
