{
	 "smiles": "COC(=O)C1=NNC(C)=C1Br", 
	 "Tm": 422.15, 
	 "num_atms": 18, 
	 "gaussian": { 
		 "optdone": 1, 
		 "sigma_profile": "yes", 
		 "theory": "DFT", 
		 "functional": "B3LYP", 
		 "basiset": "6-31G**", 
		 "properties": { 
			 "R2extent": 2660.2009, 
			 "electric_dipole_moment_norm": 3.76960891075, 
			 "electric_quadrupole_moment_norm": 22.3215250682, 
			 "total_energy": -3064.19441414, 
			 "HOMO_LUMO_gap": 0.21225, 
			 "cosmo_polarized_energy": -16.39, 
			 "cosmo_cavitation_energy": 25.17, 
			 "cosmo_dispersion_energy": -18.67, 
			 "cosmo_repulsion_energy": 1.52, 
			 "cosmo_total_nonelectrostatic_energy": 8.03, 
			 "SMD_solvation_energy": 4.22 
		},
		"coords": [
			{
				"x": -2.4590407258,
				"y": -1.1488890684,
				"z": 1.4973159807,
				"element": "C" 
			},
			{
				"x": -1.212022162,
				"y": -0.7062421374,
				"z": 0.9417786902,
				"element": "O" 
			},
			{
				"x": -0.8383736628,
				"y": -1.3317380836,
				"z": -0.1950611339,
				"element": "C" 
			},
			{
				"x": -1.4856681459,
				"y": -2.2047081354,
				"z": -0.7304651184,
				"element": "O" 
			},
			{
				"x": 0.4589828397,
				"y": -0.8117722,
				"z": -0.6973731363,
				"element": "C" 
			},
			{
				"x": 0.9529740793,
				"y": -1.343666994,
				"z": -1.8221464915,
				"element": "N" 
			},
			{
				"x": 2.1044640428,
				"y": -0.6941693542,
				"z": -2.0272942572,
				"element": "N" 
			},
			{
				"x": 2.3982886255,
				"y": 0.2475410451,
				"z": -1.0873686983,
				"element": "C" 
			},
			{
				"x": 3.6287536731,
				"y": 1.0916189876,
				"z": -1.1149641089,
				"element": "C" 
			},
			{
				"x": 1.3359646194,
				"y": 0.1931792125,
				"z": -0.2012594615,
				"element": "C" 
			},
			{
				"x": 1.2111295762,
				"y": 1.295138622,
				"z": 1.3197009251,
				"element": "Br" 
			},
			{
				"x": -2.6074413657,
				"y": -0.5511142921,
				"z": 2.3963060128,
				"element": "H" 
			},
			{
				"x": -3.2754976024,
				"y": -0.987964887,
				"z": 0.7885683416,
				"element": "H" 
			},
			{
				"x": -2.4147011795,
				"y": -2.2126176289,
				"z": 1.7449847371,
				"element": "H" 
			},
			{
				"x": 2.6594325553,
				"y": -0.935835432,
				"z": -2.8355938873,
				"element": "H" 
			},
			{
				"x": 3.3733731039,
				"y": 2.1549645063,
				"z": -1.1615578824,
				"element": "H" 
			},
			{
				"x": 4.2284368292,
				"y": 0.9396400724,
				"z": -0.2119785912,
				"element": "H" 
			},
			{
				"x": 4.2514448997,
				"y": 0.852335767,
				"z": -1.9818919205,
				"element": "H" 
			}
		],
		 "valence_orbital": [ 
			{
				"type": "occ",
				"energy": -0.29563,
				"method": "rhf"
			},
			{
				"type": "occ",
				"energy": -0.28132,
				"method": "rhf"
			},
			{
				"type": "occ",
				"energy": -0.26847,
				"method": "rhf"
			},
			{
				"type": "occ",
				"energy": -0.26733,
				"method": "rhf"
			},
			{
				"type": "occ",
				"energy": -0.24011,
				"method": "rhf"
			},
			{
				"type": "unocc",
				"energy": -0.02786,
				"method": "rhf"
			},
			{
				"type": "unocc",
				"energy": 0.01254,
				"method": "rhf"
			},
			{
				"type": "unocc",
				"energy": 0.01581,
				"method": "rhf"
			},
			{
				"type": "unocc",
				"energy": 0.0694,
				"method": "rhf"
			},
			{
				"type": "unocc",
				"energy": 0.11048,
				"method": "rhf"
			}
		],
		"cosmo_sigma_profile": { 
			"-0.025": 0.0,
			"-0.024": 0.0,
			"-0.023": 0.0,
			"-0.022": 0.0,
			"-0.021": 0.0,
			"-0.02": 0.0,
			"-0.019": 0.0,
			"-0.018": 0.362873182976,
			"-0.017": 1.73355146244,
			"-0.016": 1.26329143826,
			"-0.015": 1.16575437549,
			"-0.014": 1.33044781269,
			"-0.013": 1.2804614327,
			"-0.012": 1.39961617093,
			"-0.011": 0.953022907475,
			"-0.01": 1.12283366241,
			"-0.009": 1.33112789728,
			"-0.008": 0.540968354184,
			"-0.007": 2.32978764079,
			"-0.006": 10.1546219411,
			"-0.005": 13.0002519346,
			"-0.004": 16.8777099409,
			"-0.003": 19.3917722839,
			"-0.002": 18.5403667475,
			"-0.001": 11.4577221469,
			"0.0": 11.8380842224,
			"0.001": 13.2909552882,
			"0.002": 12.7678746364,
			"0.003": 9.94888019245,
			"0.004": 11.0297350717,
			"0.005": 7.50304312888,
			"0.006": 4.24277598231,
			"0.007": 4.2657958038,
			"0.008": 3.56544341735,
			"0.009": 2.48074107765,
			"0.01": 2.52609922047,
			"0.011": 4.22133627383,
			"0.012": 5.2395170694,
			"0.013": 2.41447752155,
			"0.014": 2.04853754304,
			"0.015": 1.84398554217,
			"0.016": 0.201997495778,
			"0.017": 0.0,
			"0.018": 0.0,
			"0.019": 0.0,
			"0.02": 0.0,
			"0.021": 0.0,
			"0.022": 0.0,
			"0.023": 0.0,
			"0.024": 0.0,
			"0.025": 0.0
		}
	}
}
