{
	 "smiles": "CC1=CC=C(C=C1)S(N)(=O)=O", 
	 "Tm": 411.15, 
	 "num_atms": 20, 
	 "gaussian": { 
		 "optdone": 1, 
		 "sigma_profile": "yes", 
		 "theory": "DFT", 
		 "functional": "B3LYP", 
		 "basiset": "6-31G**", 
		 "properties": { 
			 "R2extent": 4574.3752, 
			 "electric_dipole_moment_norm": 6.47282446155, 
			 "electric_quadrupole_moment_norm": 29.9477781318, 
			 "total_energy": -875.49282656, 
			 "HOMO_LUMO_gap": 0.22254, 
			 "cosmo_polarized_energy": -18.03, 
			 "cosmo_cavitation_energy": 25.25, 
			 "cosmo_dispersion_energy": -19.08, 
			 "cosmo_repulsion_energy": 1.49, 
			 "cosmo_total_nonelectrostatic_energy": 7.66, 
			 "SMD_solvation_energy": 4.09 
		},
		"coords": [
			{
				"x": 0.7934327167,
				"y": -0.8569384094,
				"z": 2.2041890376,
				"element": "C" 
			},
			{
				"x": 0.8800233728,
				"y": -1.1179801904,
				"z": 0.7197979038,
				"element": "C" 
			},
			{
				"x": 2.0335498984,
				"y": -0.7793180601,
				"z": -0.0026257044,
				"element": "C" 
			},
			{
				"x": 2.134932269,
				"y": -1.0455840279,
				"z": -1.3666684488,
				"element": "C" 
			},
			{
				"x": 1.0634675857,
				"y": -1.6548533799,
				"z": -2.0230981637,
				"element": "C" 
			},
			{
				"x": -0.0934669135,
				"y": -2.01091707,
				"z": -1.3267351538,
				"element": "C" 
			},
			{
				"x": -0.1772275513,
				"y": -1.7370556834,
				"z": 0.0369644112,
				"element": "C" 
			},
			{
				"x": 1.1677494122,
				"y": -1.9688049694,
				"z": -3.7894433565,
				"element": "S" 
			},
			{
				"x": 0.5616851777,
				"y": -0.6022326836,
				"z": -4.5649400517,
				"element": "N" 
			},
			{
				"x": 2.585297766,
				"y": -2.0212298463,
				"z": -4.1432798301,
				"element": "O" 
			},
			{
				"x": 0.226667469,
				"y": -3.0434381987,
				"z": -4.1008173688,
				"element": "O" 
			},
			{
				"x": -0.239308819,
				"y": -0.6862511102,
				"z": 2.5216152117,
				"element": "H" 
			},
			{
				"x": 1.1720723645,
				"y": -1.7143666995,
				"z": 2.7742838735,
				"element": "H" 
			},
			{
				"x": 1.3885741217,
				"y": 0.0140042622,
				"z": 2.4934564,
				"element": "H" 
			},
			{
				"x": 2.8668867454,
				"y": -0.3076552752,
				"z": 0.5115906207,
				"element": "H" 
			},
			{
				"x": 3.0384001846,
				"y": -0.8049438749,
				"z": -1.9171104567,
				"element": "H" 
			},
			{
				"x": -0.9030820498,
				"y": -2.5124538986,
				"z": -1.8464747247,
				"element": "H" 
			},
			{
				"x": -1.0753102516,
				"y": -2.0155065466,
				"z": 0.5821648424,
				"element": "H" 
			},
			{
				"x": 1.1294065607,
				"y": 0.2236586058,
				"z": -4.4031389045,
				"element": "H" 
			},
			{
				"x": -0.4236500593,
				"y": -0.4489329439,
				"z": -4.3747301372,
				"element": "H" 
			}
		],
		 "valence_orbital": [ 
			{
				"type": "occ",
				"energy": -0.31426,
				"method": "rhf"
			},
			{
				"type": "occ",
				"energy": -0.30113,
				"method": "rhf"
			},
			{
				"type": "occ",
				"energy": -0.29964,
				"method": "rhf"
			},
			{
				"type": "occ",
				"energy": -0.27216,
				"method": "rhf"
			},
			{
				"type": "occ",
				"energy": -0.26031,
				"method": "rhf"
			},
			{
				"type": "unocc",
				"energy": -0.03777,
				"method": "rhf"
			},
			{
				"type": "unocc",
				"energy": -0.02358,
				"method": "rhf"
			},
			{
				"type": "unocc",
				"energy": 0.05247,
				"method": "rhf"
			},
			{
				"type": "unocc",
				"energy": 0.07486,
				"method": "rhf"
			},
			{
				"type": "unocc",
				"energy": 0.08878,
				"method": "rhf"
			}
		],
		"cosmo_sigma_profile": { 
			"-0.025": 0.0,
			"-0.024": 0.0,
			"-0.023": 0.0,
			"-0.022": 0.0,
			"-0.021": 0.0,
			"-0.02": 0.0,
			"-0.019": 0.0,
			"-0.018": 0.0,
			"-0.017": 0.0,
			"-0.016": 0.0818252724716,
			"-0.015": 1.99474120419,
			"-0.014": 2.46087808868,
			"-0.013": 2.82903798496,
			"-0.012": 2.16467686547,
			"-0.011": 3.20818853876,
			"-0.01": 2.54948121985,
			"-0.009": 1.84277688002,
			"-0.008": 1.38269139383,
			"-0.007": 4.16307749015,
			"-0.006": 10.0521647882,
			"-0.005": 15.1571881127,
			"-0.004": 13.93406451,
			"-0.003": 12.9198322792,
			"-0.002": 12.2024867825,
			"-0.001": 15.0302506505,
			"0.0": 12.4135447291,
			"0.001": 9.29775320107,
			"0.002": 11.4627141732,
			"0.003": 13.5212798786,
			"0.004": 8.3231244554,
			"0.005": 3.17036563864,
			"0.006": 2.86627329282,
			"0.007": 3.59861368188,
			"0.008": 4.66212718163,
			"0.009": 5.19913241722,
			"0.01": 6.49753568149,
			"0.011": 10.1794524858,
			"0.012": 7.020842243,
			"0.013": 0.332203022579,
			"0.014": 0.0,
			"0.015": 0.0,
			"0.016": 0.0,
			"0.017": 0.0,
			"0.018": 0.0,
			"0.019": 0.0,
			"0.02": 0.0,
			"0.021": 0.0,
			"0.022": 0.0,
			"0.023": 0.0,
			"0.024": 0.0,
			"0.025": 0.0
		}
	}
}
