{
	 "smiles": "CC(C)CNC(=O)N1CCNC1=O", 
	 "Tm": 368.65, 
	 "num_atms": 28, 
	 "gaussian": { 
		 "optdone": 1, 
		 "sigma_profile": "yes", 
		 "theory": "DFT", 
		 "functional": "B3LYP", 
		 "basiset": "6-31G**", 
		 "properties": { 
			 "R2extent": 2969.4002, 
			 "electric_dipole_moment_norm": 3.3600989658, 
			 "electric_quadrupole_moment_norm": 20.3869596267, 
			 "total_energy": -628.64580111, 
			 "HOMO_LUMO_gap": 0.26334, 
			 "cosmo_polarized_energy": -15.54, 
			 "cosmo_cavitation_energy": 29.83, 
			 "cosmo_dispersion_energy": -21.65, 
			 "cosmo_repulsion_energy": 1.74, 
			 "cosmo_total_nonelectrostatic_energy": 9.93, 
			 "SMD_solvation_energy": 4.66 
		},
		"coords": [
			{
				"x": -2.5933767364,
				"y": 1.7726624271,
				"z": 1.838480215,
				"element": "C" 
			},
			{
				"x": -2.4048353805,
				"y": 0.3933210229,
				"z": 1.1927628823,
				"element": "C" 
			},
			{
				"x": -3.7575958641,
				"y": -0.2532976773,
				"z": 0.8626765018,
				"element": "C" 
			},
			{
				"x": -1.5109921767,
				"y": 0.526336197,
				"z": -0.0515656329,
				"element": "C" 
			},
			{
				"x": -1.1896964827,
				"y": -0.7579580577,
				"z": -0.6733377836,
				"element": "N" 
			},
			{
				"x": 0.0087985704,
				"y": -1.232836307,
				"z": -1.1156128818,
				"element": "C" 
			},
			{
				"x": 0.0967394724,
				"y": -2.0780134318,
				"z": -1.9998969156,
				"element": "O" 
			},
			{
				"x": 1.1963675385,
				"y": -0.7000332863,
				"z": -0.5436366934,
				"element": "N" 
			},
			{
				"x": 2.4513622576,
				"y": -1.0418954745,
				"z": -1.2342786643,
				"element": "C" 
			},
			{
				"x": 3.5111075643,
				"y": -0.4487242158,
				"z": -0.2929057235,
				"element": "C" 
			},
			{
				"x": 2.8230311241,
				"y": -0.5459153466,
				"z": 0.9855005058,
				"element": "N" 
			},
			{
				"x": 1.451256164,
				"y": -0.5323643924,
				"z": 0.8376812038,
				"element": "C" 
			},
			{
				"x": 0.6370460595,
				"y": -0.4062651142,
				"z": 1.7344858463,
				"element": "O" 
			},
			{
				"x": -3.0891830858,
				"y": 2.4714659848,
				"z": 1.1524403725,
				"element": "H" 
			},
			{
				"x": -3.2120218376,
				"y": 1.7019884378,
				"z": 2.7390562638,
				"element": "H" 
			},
			{
				"x": -1.6312573884,
				"y": 2.2085084328,
				"z": 2.1279873643,
				"element": "H" 
			},
			{
				"x": -1.8628601291,
				"y": -0.2507732835,
				"z": 1.8925861445,
				"element": "H" 
			},
			{
				"x": -4.3758601359,
				"y": -0.3433467842,
				"z": 1.7619772956,
				"element": "H" 
			},
			{
				"x": -4.3199131691,
				"y": 0.3467771594,
				"z": 0.1351546874,
				"element": "H" 
			},
			{
				"x": -3.6387085271,
				"y": -1.2621144636,
				"z": 0.4524964986,
				"element": "H" 
			},
			{
				"x": -2.0137619923,
				"y": 1.1623891358,
				"z": -0.7974186196,
				"element": "H" 
			},
			{
				"x": -0.5784072416,
				"y": 1.0156141613,
				"z": 0.2222474329,
				"element": "H" 
			},
			{
				"x": -1.9424826916,
				"y": -1.2175170154,
				"z": -1.1678315634,
				"element": "H" 
			},
			{
				"x": 2.5482317335,
				"y": -2.1280131082,
				"z": -1.326183503,
				"element": "H" 
			},
			{
				"x": 2.4750863832,
				"y": -0.6092624455,
				"z": -2.2356140158,
				"element": "H" 
			},
			{
				"x": 4.4390099077,
				"y": -1.0269383021,
				"z": -0.3027371408,
				"element": "H" 
			},
			{
				"x": 3.7450159194,
				"y": 0.5926905249,
				"z": -0.5579067193,
				"element": "H" 
			},
			{
				"x": 3.1950001442,
				"y": -0.1530847777,
				"z": 1.8374926423,
				"element": "H" 
			}
		],
		 "valence_orbital": [ 
			{
				"type": "occ",
				"energy": -0.28184,
				"method": "rhf"
			},
			{
				"type": "occ",
				"energy": -0.26674,
				"method": "rhf"
			},
			{
				"type": "occ",
				"energy": -0.26263,
				"method": "rhf"
			},
			{
				"type": "occ",
				"energy": -0.25209,
				"method": "rhf"
			},
			{
				"type": "occ",
				"energy": -0.24171,
				"method": "rhf"
			},
			{
				"type": "unocc",
				"energy": 0.02163,
				"method": "rhf"
			},
			{
				"type": "unocc",
				"energy": 0.06238,
				"method": "rhf"
			},
			{
				"type": "unocc",
				"energy": 0.07605,
				"method": "rhf"
			},
			{
				"type": "unocc",
				"energy": 0.08726,
				"method": "rhf"
			},
			{
				"type": "unocc",
				"energy": 0.10681,
				"method": "rhf"
			}
		],
		"cosmo_sigma_profile": { 
			"-0.025": 0.0,
			"-0.024": 0.0,
			"-0.023": 0.0,
			"-0.022": 0.0,
			"-0.021": 0.0,
			"-0.02": 0.0,
			"-0.019": 0.0,
			"-0.018": 0.0,
			"-0.017": 0.0,
			"-0.016": 0.0,
			"-0.015": 0.183670533291,
			"-0.014": 1.50313509453,
			"-0.013": 1.12238485178,
			"-0.012": 2.19679800225,
			"-0.011": 1.8692392368,
			"-0.01": 1.84957739156,
			"-0.009": 1.95586279433,
			"-0.008": 2.06722936218,
			"-0.007": 2.74481363223,
			"-0.006": 8.02849879774,
			"-0.005": 14.8491525455,
			"-0.004": 18.1055973537,
			"-0.003": 23.0387659628,
			"-0.002": 25.160050821,
			"-0.001": 22.4662734018,
			"0.0": 19.8145150153,
			"0.001": 21.3295866067,
			"0.002": 11.5914363358,
			"0.003": 5.35087648464,
			"0.004": 4.99132696339,
			"0.005": 4.44368660171,
			"0.006": 4.15454327665,
			"0.007": 3.92817253948,
			"0.008": 4.43346131911,
			"0.009": 2.51442240118,
			"0.01": 2.83635607792,
			"0.011": 3.82892689346,
			"0.012": 4.1196564488,
			"0.013": 5.99528982627,
			"0.014": 5.60288749,
			"0.015": 0.221306262133,
			"0.016": 0.0,
			"0.017": 0.0,
			"0.018": 0.0,
			"0.019": 0.0,
			"0.02": 0.0,
			"0.021": 0.0,
			"0.022": 0.0,
			"0.023": 0.0,
			"0.024": 0.0,
			"0.025": 0.0
		}
	}
}
