{
	 "smiles": "OC(=O)C1=CC=CC=C1N1C=CC=N1", 
	 "Tm": 465.15, 
	 "num_atms": 22, 
	 "gaussian": { 
		 "optdone": 1, 
		 "sigma_profile": "yes", 
		 "theory": "DFT", 
		 "functional": "B3LYP", 
		 "basiset": "6-31G**", 
		 "properties": { 
			 "R2extent": 2883.457, 
			 "electric_dipole_moment_norm": 3.63073853231, 
			 "electric_quadrupole_moment_norm": 18.1877356229, 
			 "total_energy": -645.813949219, 
			 "HOMO_LUMO_gap": 0.19674, 
			 "cosmo_polarized_energy": -13.7, 
			 "cosmo_cavitation_energy": 26.72, 
			 "cosmo_dispersion_energy": -19.27, 
			 "cosmo_repulsion_energy": 1.49, 
			 "cosmo_total_nonelectrostatic_energy": 8.94, 
			 "SMD_solvation_energy": 5.63 
		},
		"coords": [
			{
				"x": -2.2072335665,
				"y": -1.8765864981,
				"z": 1.1867040941,
				"element": "O" 
			},
			{
				"x": -1.0003133022,
				"y": -1.8963278953,
				"z": 1.797394138,
				"element": "C" 
			},
			{
				"x": -0.6089050317,
				"y": -2.9090548484,
				"z": 2.3294614967,
				"element": "O" 
			},
			{
				"x": -0.2138646436,
				"y": -0.6099892385,
				"z": 1.8455933632,
				"element": "C" 
			},
			{
				"x": 0.6145603271,
				"y": -0.4463963956,
				"z": 2.9667082471,
				"element": "C" 
			},
			{
				"x": 1.3083426739,
				"y": 0.7395200374,
				"z": 3.1817235328,
				"element": "C" 
			},
			{
				"x": 1.1940231117,
				"y": 1.7866499452,
				"z": 2.2633928703,
				"element": "C" 
			},
			{
				"x": 0.4156376535,
				"y": 1.6292771263,
				"z": 1.1201046964,
				"element": "C" 
			},
			{
				"x": -0.2750547426,
				"y": 0.4338063294,
				"z": 0.9030766644,
				"element": "C" 
			},
			{
				"x": -1.0142024404,
				"y": 0.3012958959,
				"z": -0.3117486448,
				"element": "N" 
			},
			{
				"x": -0.8625492234,
				"y": -0.652990207,
				"z": -1.2853953813,
				"element": "C" 
			},
			{
				"x": -1.678035793,
				"y": -0.2868887681,
				"z": -2.3317656179,
				"element": "C" 
			},
			{
				"x": -2.2799815664,
				"y": 0.9225770995,
				"z": -1.9088118426,
				"element": "C" 
			},
			{
				"x": -1.8764478983,
				"y": 1.2881472511,
				"z": -0.6961115086,
				"element": "N" 
			},
			{
				"x": -2.4023220883,
				"y": -0.9974111602,
				"z": 0.8284143521,
				"element": "H" 
			},
			{
				"x": 0.677037051,
				"y": -1.2694257533,
				"z": 3.6699454175,
				"element": "H" 
			},
			{
				"x": 1.9300222129,
				"y": 0.8508637565,
				"z": 4.0645578434,
				"element": "H" 
			},
			{
				"x": 1.7254334036,
				"y": 2.719324231,
				"z": 2.4263734191,
				"element": "H" 
			},
			{
				"x": 0.3342081548,
				"y": 2.4159474583,
				"z": 0.3788592056,
				"element": "H" 
			},
			{
				"x": -0.1980005319,
				"y": -1.493013206,
				"z": -1.1495735197,
				"element": "H" 
			},
			{
				"x": -1.8176565684,
				"y": -0.8125708473,
				"z": -3.2642161548,
				"element": "H" 
			},
			{
				"x": -2.996097192,
				"y": 1.5378456871,
				"z": -2.4373866712,
				"element": "H" 
			}
		],
		 "valence_orbital": [ 
			{
				"type": "occ",
				"energy": -0.29669,
				"method": "rhf"
			},
			{
				"type": "occ",
				"energy": -0.28463,
				"method": "rhf"
			},
			{
				"type": "occ",
				"energy": -0.26951,
				"method": "rhf"
			},
			{
				"type": "occ",
				"energy": -0.26385,
				"method": "rhf"
			},
			{
				"type": "occ",
				"energy": -0.25416,
				"method": "rhf"
			},
			{
				"type": "unocc",
				"energy": -0.05742,
				"method": "rhf"
			},
			{
				"type": "unocc",
				"energy": -0.03237,
				"method": "rhf"
			},
			{
				"type": "unocc",
				"energy": 0.00405,
				"method": "rhf"
			},
			{
				"type": "unocc",
				"energy": 0.03818,
				"method": "rhf"
			},
			{
				"type": "unocc",
				"energy": 0.05597,
				"method": "rhf"
			}
		],
		"cosmo_sigma_profile": { 
			"-0.025": 0.0,
			"-0.024": 0.0,
			"-0.023": 0.0,
			"-0.022": 0.0,
			"-0.021": 0.0,
			"-0.02": 0.0,
			"-0.019": 0.0,
			"-0.018": 0.0,
			"-0.017": 0.0,
			"-0.016": 0.0,
			"-0.015": 0.0751892331771,
			"-0.014": 0.829366836697,
			"-0.013": 0.750720926511,
			"-0.012": 1.04788335572,
			"-0.011": 0.995429389018,
			"-0.01": 2.20518748619,
			"-0.009": 3.25689678954,
			"-0.008": 5.23694402223,
			"-0.007": 12.4407743426,
			"-0.006": 13.5586898508,
			"-0.005": 14.1251441366,
			"-0.004": 11.7695571239,
			"-0.003": 13.8281726773,
			"-0.002": 13.2368784312,
			"-0.001": 11.4352717043,
			"0.0": 13.4038140963,
			"0.001": 14.7167643611,
			"0.002": 18.6405612089,
			"0.003": 14.6668833149,
			"0.004": 7.33996687562,
			"0.005": 6.04930564933,
			"0.006": 3.63694981005,
			"0.007": 3.91097605559,
			"0.008": 3.57796657665,
			"0.009": 4.54002068739,
			"0.01": 6.2449960461,
			"0.011": 5.92078260727,
			"0.012": 4.88520177723,
			"0.013": 1.75873834363,
			"0.014": 0.796798011908,
			"0.015": 0.454517652268,
			"0.016": 0.0,
			"0.017": 0.0,
			"0.018": 0.0,
			"0.019": 0.0,
			"0.02": 0.0,
			"0.021": 0.0,
			"0.022": 0.0,
			"0.023": 0.0,
			"0.024": 0.0,
			"0.025": 0.0
		}
	}
}
