{
	 "smiles": "CN(C)NN=C1N=CN=C1C(N)=O", 
	 "Tm": 478.15, 
	 "num_atms": 23, 
	 "gaussian": { 
		 "optdone": 1, 
		 "sigma_profile": "yes", 
		 "theory": "DFT", 
		 "functional": "B3LYP", 
		 "basiset": "6-31G**", 
		 "properties": { 
			 "R2extent": 3024.5151, 
			 "electric_dipole_moment_norm": 5.36308317668, 
			 "electric_quadrupole_moment_norm": 17.0957903061, 
			 "total_energy": -638.336833875, 
			 "HOMO_LUMO_gap": 0.12369, 
			 "cosmo_polarized_energy": -19.81, 
			 "cosmo_cavitation_energy": 27.21, 
			 "cosmo_dispersion_energy": -20.18, 
			 "cosmo_repulsion_energy": 1.6, 
			 "cosmo_total_nonelectrostatic_energy": 8.63, 
			 "SMD_solvation_energy": 0.61 
		},
		"coords": [
			{
				"x": 2.4664807849,
				"y": 2.344294083,
				"z": 0.2588981645,
				"element": "C" 
			},
			{
				"x": 1.1110527033,
				"y": 1.9670158667,
				"z": -0.1197070657,
				"element": "N" 
			},
			{
				"x": 0.0261793294,
				"y": 2.6714538716,
				"z": 0.5650187319,
				"element": "C" 
			},
			{
				"x": 0.879829828,
				"y": 0.6099849573,
				"z": -0.1624769438,
				"element": "N" 
			},
			{
				"x": 1.8482703623,
				"y": -0.2061419293,
				"z": -0.0803410596,
				"element": "N" 
			},
			{
				"x": 1.5836436521,
				"y": -1.5292536073,
				"z": -0.2708235979,
				"element": "C" 
			},
			{
				"x": 2.6120226989,
				"y": -2.4229174982,
				"z": -0.1789147943,
				"element": "N" 
			},
			{
				"x": 2.0194906787,
				"y": -3.5932978902,
				"z": -0.4098480445,
				"element": "C" 
			},
			{
				"x": 0.6787762399,
				"y": -3.5593040875,
				"z": -0.6503787756,
				"element": "N" 
			},
			{
				"x": 0.3773052919,
				"y": -2.2512449269,
				"z": -0.5646730806,
				"element": "C" 
			},
			{
				"x": -0.986388754,
				"y": -1.774169144,
				"z": -0.7693760783,
				"element": "C" 
			},
			{
				"x": -1.8952462339,
				"y": -2.7236917973,
				"z": -1.0525340854,
				"element": "N" 
			},
			{
				"x": -1.3143788228,
				"y": -0.5573565635,
				"z": -0.6918497018,
				"element": "O" 
			},
			{
				"x": 2.5263152279,
				"y": 3.432869803,
				"z": 0.2070150002,
				"element": "H" 
			},
			{
				"x": 2.7266527583,
				"y": 2.0066779877,
				"z": 1.2728672519,
				"element": "H" 
			},
			{
				"x": 3.1794921296,
				"y": 1.9035353319,
				"z": -0.438495405,
				"element": "H" 
			},
			{
				"x": 0.1121112662,
				"y": 3.7357264697,
				"z": 0.3380445887,
				"element": "H" 
			},
			{
				"x": 0.0536964253,
				"y": 2.529957845,
				"z": 1.6559788307,
				"element": "H" 
			},
			{
				"x": -0.9340285899,
				"y": 2.3138720052,
				"z": 0.1854331341,
				"element": "H" 
			},
			{
				"x": -0.1374913154,
				"y": 0.2526844753,
				"z": -0.3983711536,
				"element": "H" 
			},
			{
				"x": 2.5672392929,
				"y": -4.5284241482,
				"z": -0.409072575,
				"element": "H" 
			},
			{
				"x": -1.5783895017,
				"y": -3.6824922489,
				"z": -1.1060464967,
				"element": "H" 
			},
			{
				"x": -2.8565354518,
				"y": -2.4671788551,
				"z": -1.2082468441,
				"element": "H" 
			}
		],
		 "valence_orbital": [ 
			{
				"type": "occ",
				"energy": -0.28511,
				"method": "rhf"
			},
			{
				"type": "occ",
				"energy": -0.2732,
				"method": "rhf"
			},
			{
				"type": "occ",
				"energy": -0.24465,
				"method": "rhf"
			},
			{
				"type": "occ",
				"energy": -0.24387,
				"method": "rhf"
			},
			{
				"type": "occ",
				"energy": -0.2039,
				"method": "rhf"
			},
			{
				"type": "unocc",
				"energy": -0.08021,
				"method": "rhf"
			},
			{
				"type": "unocc",
				"energy": 0.00331,
				"method": "rhf"
			},
			{
				"type": "unocc",
				"energy": 0.07682,
				"method": "rhf"
			},
			{
				"type": "unocc",
				"energy": 0.0849,
				"method": "rhf"
			},
			{
				"type": "unocc",
				"energy": 0.09126,
				"method": "rhf"
			}
		],
		"cosmo_sigma_profile": { 
			"-0.025": 0.0,
			"-0.024": 0.0,
			"-0.023": 0.0,
			"-0.022": 0.0,
			"-0.021": 0.0,
			"-0.02": 0.0,
			"-0.019": 0.0,
			"-0.018": 0.0,
			"-0.017": 0.0,
			"-0.016": 0.0713431901487,
			"-0.015": 0.94552941452,
			"-0.014": 1.03128671966,
			"-0.013": 1.67311739763,
			"-0.012": 1.33005281886,
			"-0.011": 1.89510801501,
			"-0.01": 1.94404192952,
			"-0.009": 1.86068109608,
			"-0.008": 3.36398214408,
			"-0.007": 7.46348372738,
			"-0.006": 14.5543309836,
			"-0.005": 22.5420892079,
			"-0.004": 19.1231931729,
			"-0.003": 21.417916809,
			"-0.002": 11.2231585561,
			"-0.001": 8.09172025444,
			"0.0": 8.6724387133,
			"0.001": 9.24969293013,
			"0.002": 10.8224754097,
			"0.003": 9.72763075882,
			"0.004": 9.66284715725,
			"0.005": 6.27431316468,
			"0.006": 6.13372906,
			"0.007": 5.61315034691,
			"0.008": 3.98228913475,
			"0.009": 5.11423108934,
			"0.01": 4.60622506147,
			"0.011": 3.85232934038,
			"0.012": 4.42625744545,
			"0.013": 3.11353602954,
			"0.014": 1.90430503217,
			"0.015": 1.64450095519,
			"0.016": 1.12440658135,
			"0.017": 1.46716030611,
			"0.018": 0.684604949421,
			"0.019": 0.0179096402623,
			"0.02": 0.0,
			"0.021": 0.0,
			"0.022": 0.0,
			"0.023": 0.0,
			"0.024": 0.0,
			"0.025": 0.0
		}
	}
}
