{
	 "smiles": "OC(=O)C1=CC=C(C(O)=O)C(Br)=C1", 
	 "Tm": 569.15, 
	 "num_atms": 18, 
	 "gaussian": { 
		 "optdone": 1, 
		 "sigma_profile": "yes", 
		 "theory": "DFT", 
		 "functional": "B3LYP", 
		 "basiset": "6-31G**", 
		 "properties": { 
			 "R2extent": 6468.0481, 
			 "electric_dipole_moment_norm": 3.27163094037, 
			 "electric_quadrupole_moment_norm": 10.4518749911, 
			 "total_energy": -3180.17730698, 
			 "HOMO_LUMO_gap": 0.17824, 
			 "cosmo_polarized_energy": -18.43, 
			 "cosmo_cavitation_energy": 25.92, 
			 "cosmo_dispersion_energy": -19.55, 
			 "cosmo_repulsion_energy": 1.54, 
			 "cosmo_total_nonelectrostatic_energy": 7.92, 
			 "SMD_solvation_energy": 5.92 
		},
		"coords": [
			{
				"x": -1.3579274447,
				"y": -2.2913657505,
				"z": 1.0321585219,
				"element": "O" 
			},
			{
				"x": -1.5078876467,
				"y": -1.3415346897,
				"z": 0.0743224071,
				"element": "C" 
			},
			{
				"x": -1.7855155287,
				"y": -1.6544975839,
				"z": -1.0579381909,
				"element": "O" 
			},
			{
				"x": -1.3085829939,
				"y": 0.086052528,
				"z": 0.5037440216,
				"element": "C" 
			},
			{
				"x": -0.5728621297,
				"y": 0.454784012,
				"z": 1.6372694498,
				"element": "C" 
			},
			{
				"x": -0.4261960766,
				"y": 1.7978656791,
				"z": 1.952356647,
				"element": "C" 
			},
			{
				"x": -0.9912547468,
				"y": 2.8134590855,
				"z": 1.1613626702,
				"element": "C" 
			},
			{
				"x": -0.7193173248,
				"y": 4.2006385642,
				"z": 1.6658160817,
				"element": "C" 
			},
			{
				"x": -0.9565526539,
				"y": 5.1862973116,
				"z": 0.7837143873,
				"element": "O" 
			},
			{
				"x": -0.2866235127,
				"y": 4.4186992213,
				"z": 2.7808107559,
				"element": "O" 
			},
			{
				"x": -1.7270066182,
				"y": 2.4296450691,
				"z": 0.0215184633,
				"element": "C" 
			},
			{
				"x": -2.6151195762,
				"y": 3.6430835694,
				"z": -1.150835439,
				"element": "Br" 
			},
			{
				"x": -1.8710199339,
				"y": 1.0799526444,
				"z": -0.2999709527,
				"element": "C" 
			},
			{
				"x": -1.2986545381,
				"y": -1.8855890324,
				"z": 1.9081915862,
				"element": "H" 
			},
			{
				"x": -0.0795334678,
				"y": -0.2887193315,
				"z": 2.2573714194,
				"element": "H" 
			},
			{
				"x": 0.1378691317,
				"y": 2.1060103909,
				"z": 2.8251074155,
				"element": "H" 
			},
			{
				"x": -0.7297030712,
				"y": 6.0129116947,
				"z": 1.2432049935,
				"element": "H" 
			},
			{
				"x": -2.4271118677,
				"y": 0.7840066175,
				"z": -1.1809042377,
				"element": "H" 
			}
		],
		 "valence_orbital": [ 
			{
				"type": "occ",
				"energy": -0.30196,
				"method": "rhf"
			},
			{
				"type": "occ",
				"energy": -0.29676,
				"method": "rhf"
			},
			{
				"type": "occ",
				"energy": -0.2877,
				"method": "rhf"
			},
			{
				"type": "occ",
				"energy": -0.28259,
				"method": "rhf"
			},
			{
				"type": "occ",
				"energy": -0.26746,
				"method": "rhf"
			},
			{
				"type": "unocc",
				"energy": -0.08922,
				"method": "rhf"
			},
			{
				"type": "unocc",
				"energy": -0.04249,
				"method": "rhf"
			},
			{
				"type": "unocc",
				"energy": -0.01086,
				"method": "rhf"
			},
			{
				"type": "unocc",
				"energy": -0.00441,
				"method": "rhf"
			},
			{
				"type": "unocc",
				"energy": 0.04969,
				"method": "rhf"
			}
		],
		"cosmo_sigma_profile": { 
			"-0.025": 0.0,
			"-0.024": 0.0,
			"-0.023": 0.0,
			"-0.022": 0.0,
			"-0.021": 0.0,
			"-0.02": 0.0721464891383,
			"-0.019": 1.28200920405,
			"-0.018": 1.89899018312,
			"-0.017": 1.60324022395,
			"-0.016": 2.37414055036,
			"-0.015": 1.68285648783,
			"-0.014": 1.29660528057,
			"-0.013": 1.87177886813,
			"-0.012": 2.58759677598,
			"-0.011": 2.1436290805,
			"-0.01": 1.82764538559,
			"-0.009": 2.11404285638,
			"-0.008": 3.5854024541,
			"-0.007": 5.39696948957,
			"-0.006": 5.55860030132,
			"-0.005": 8.13072164441,
			"-0.004": 10.2300136089,
			"-0.003": 11.4737641797,
			"-0.002": 12.6612117769,
			"-0.001": 17.0080260118,
			"0.0": 22.61083664,
			"0.001": 12.9689546998,
			"0.002": 9.0001367989,
			"0.003": 10.6446742659,
			"0.004": 10.546831998,
			"0.005": 6.26526754174,
			"0.006": 6.29372652219,
			"0.007": 5.64755148516,
			"0.008": 5.57590900816,
			"0.009": 5.94611266831,
			"0.01": 7.72115951711,
			"0.011": 10.0198344345,
			"0.012": 3.19184818375,
			"0.013": 0.277423026304,
			"0.014": 0.0,
			"0.015": 0.0,
			"0.016": 0.0,
			"0.017": 0.0,
			"0.018": 0.0,
			"0.019": 0.0,
			"0.02": 0.0,
			"0.021": 0.0,
			"0.022": 0.0,
			"0.023": 0.0,
			"0.024": 0.0,
			"0.025": 0.0
		}
	}
}
