{
	 "smiles": "ClCCS(=O)C1=C(Cl)C=CC(Cl)=C1", 
	 "Tm": 342.15, 
	 "num_atms": 20, 
	 "gaussian": { 
		 "optdone": 1, 
		 "sigma_profile": "yes", 
		 "theory": "DFT", 
		 "functional": "B3LYP", 
		 "basiset": "6-31G**", 
		 "properties": { 
			 "R2extent": 5389.7342, 
			 "electric_dipole_moment_norm": 4.302478753, 
			 "electric_quadrupole_moment_norm": 13.1296001203, 
			 "total_energy": -2163.00012344, 
			 "HOMO_LUMO_gap": 0.18262, 
			 "cosmo_polarized_energy": -14.51, 
			 "cosmo_cavitation_energy": 30.8, 
			 "cosmo_dispersion_energy": -22.83, 
			 "cosmo_repulsion_energy": 1.79, 
			 "cosmo_total_nonelectrostatic_energy": 9.76, 
			 "SMD_solvation_energy": 3.84 
		},
		"coords": [
			{
				"x": 3.6716684908,
				"y": 3.8346869305,
				"z": -0.5389432487,
				"element": "Cl" 
			},
			{
				"x": 2.3185371772,
				"y": 3.5350193422,
				"z": 0.6349781108,
				"element": "C" 
			},
			{
				"x": 1.4329577337,
				"y": 2.3801445107,
				"z": 0.2074866264,
				"element": "C" 
			},
			{
				"x": 2.3642258831,
				"y": 0.7751634805,
				"z": 0.3624863134,
				"element": "S" 
			},
			{
				"x": 2.7963571762,
				"y": 0.6781346098,
				"z": 1.8024685517,
				"element": "O" 
			},
			{
				"x": 0.919351889,
				"y": -0.3124406551,
				"z": 0.0203754869,
				"element": "C" 
			},
			{
				"x": -0.1492297865,
				"y": -0.5869329402,
				"z": 0.8840793598,
				"element": "C" 
			},
			{
				"x": -0.3041460351,
				"y": 0.1854625515,
				"z": 2.4479416587,
				"element": "Cl" 
			},
			{
				"x": -1.1412158194,
				"y": -1.4933337631,
				"z": 0.5040366835,
				"element": "C" 
			},
			{
				"x": -1.0810303,
				"y": -2.1283107394,
				"z": -0.7349105082,
				"element": "C" 
			},
			{
				"x": -0.0156714939,
				"y": -1.8551466334,
				"z": -1.5915426077,
				"element": "C" 
			},
			{
				"x": 0.0744661308,
				"y": -2.6515504062,
				"z": -3.1493841452,
				"element": "Cl" 
			},
			{
				"x": 0.9881243487,
				"y": -0.9658951743,
				"z": -1.2143484714,
				"element": "C" 
			},
			{
				"x": 1.7431663232,
				"y": 4.4601728971,
				"z": 0.6884747977,
				"element": "H" 
			},
			{
				"x": 2.7760199385,
				"y": 3.3290662775,
				"z": 1.6040632608,
				"element": "H" 
			},
			{
				"x": 1.0949863328,
				"y": 2.4741058491,
				"z": -0.8281780283,
				"element": "H" 
			},
			{
				"x": 0.5711564438,
				"y": 2.3262492688,
				"z": 0.8785928012,
				"element": "H" 
			},
			{
				"x": -1.9630423727,
				"y": -1.6971895239,
				"z": 1.181768651,
				"element": "H" 
			},
			{
				"x": -1.8522511385,
				"y": -2.831463628,
				"z": -1.0283659513,
				"element": "H" 
			},
			{
				"x": 1.8293690785,
				"y": -0.781642254,
				"z": -1.8753793411,
				"element": "H" 
			}
		],
		 "valence_orbital": [ 
			{
				"type": "occ",
				"energy": -0.30383,
				"method": "rhf"
			},
			{
				"type": "occ",
				"energy": -0.29615,
				"method": "rhf"
			},
			{
				"type": "occ",
				"energy": -0.28076,
				"method": "rhf"
			},
			{
				"type": "occ",
				"energy": -0.26271,
				"method": "rhf"
			},
			{
				"type": "occ",
				"energy": -0.23914,
				"method": "rhf"
			},
			{
				"type": "unocc",
				"energy": -0.05652,
				"method": "rhf"
			},
			{
				"type": "unocc",
				"energy": -0.04396,
				"method": "rhf"
			},
			{
				"type": "unocc",
				"energy": -0.00679,
				"method": "rhf"
			},
			{
				"type": "unocc",
				"energy": 0.01438,
				"method": "rhf"
			},
			{
				"type": "unocc",
				"energy": 0.02088,
				"method": "rhf"
			}
		],
		"cosmo_sigma_profile": { 
			"-0.025": 0.0,
			"-0.024": 0.0,
			"-0.023": 0.0,
			"-0.022": 0.0,
			"-0.021": 0.0,
			"-0.02": 0.0,
			"-0.019": 0.0,
			"-0.018": 0.0,
			"-0.017": 0.0,
			"-0.016": 0.0,
			"-0.015": 0.0,
			"-0.014": 0.0,
			"-0.013": 0.0,
			"-0.012": 0.0,
			"-0.011": 0.0,
			"-0.01": 0.0448381756369,
			"-0.009": 4.08222872513,
			"-0.008": 11.90850771,
			"-0.007": 13.667552834,
			"-0.006": 14.022885029,
			"-0.005": 12.8703065801,
			"-0.004": 11.991309503,
			"-0.003": 11.7723415983,
			"-0.002": 12.8577094775,
			"-0.001": 18.6521949371,
			"0.0": 28.6286940042,
			"0.001": 21.6488128493,
			"0.002": 16.6271715813,
			"0.003": 19.7738938895,
			"0.004": 18.4381727972,
			"0.005": 9.74894116865,
			"0.006": 8.47679352248,
			"0.007": 1.83158002664,
			"0.008": 1.36816704847,
			"0.009": 1.11420308557,
			"0.01": 1.74188320424,
			"0.011": 1.80876288349,
			"0.012": 1.78624746015,
			"0.013": 5.12033316731,
			"0.014": 3.31966004379,
			"0.015": 0.729368095823,
			"0.016": 0.0,
			"0.017": 0.0,
			"0.018": 0.0,
			"0.019": 0.0,
			"0.02": 0.0,
			"0.021": 0.0,
			"0.022": 0.0,
			"0.023": 0.0,
			"0.024": 0.0,
			"0.025": 0.0
		}
	}
}
