{
	 "smiles": "CN(C)C(=O)NC1=CC(=CC=C1)C(F)(F)F", 
	 "Tm": 437.15, 
	 "num_atms": 27, 
	 "gaussian": { 
		 "optdone": 1, 
		 "sigma_profile": "yes", 
		 "theory": "DFT", 
		 "functional": "B3LYP", 
		 "basiset": "6-31G**", 
		 "properties": { 
			 "R2extent": 5666.2922, 
			 "electric_dipole_moment_norm": 6.89341355861, 
			 "electric_quadrupole_moment_norm": 12.9125182226, 
			 "total_energy": -871.96996705, 
			 "HOMO_LUMO_gap": 0.20255, 
			 "cosmo_polarized_energy": -14.41, 
			 "cosmo_cavitation_energy": 32.08, 
			 "cosmo_dispersion_energy": -22.85, 
			 "cosmo_repulsion_energy": 1.71, 
			 "cosmo_total_nonelectrostatic_energy": 10.94, 
			 "SMD_solvation_energy": 7.1 
		},
		"coords": [
			{
				"x": -2.0255166742,
				"y": -0.1885577429,
				"z": 2.6567724022,
				"element": "C" 
			},
			{
				"x": -0.7982523124,
				"y": 0.5892897191,
				"z": 2.6952142245,
				"element": "N" 
			},
			{
				"x": -0.3308172968,
				"y": 1.0424371315,
				"z": 3.9991505294,
				"element": "C" 
			},
			{
				"x": 0.044369876,
				"y": 0.7582387237,
				"z": 1.6099807359,
				"element": "C" 
			},
			{
				"x": 1.0878794698,
				"y": 1.4012385502,
				"z": 1.6779750965,
				"element": "O" 
			},
			{
				"x": -0.3963962836,
				"y": 0.1508266826,
				"z": 0.4371368725,
				"element": "N" 
			},
			{
				"x": 0.2146979849,
				"y": 0.1809384782,
				"z": -0.8288090382,
				"element": "C" 
			},
			{
				"x": 1.3646658528,
				"y": 0.92880346,
				"z": -1.1232413567,
				"element": "C" 
			},
			{
				"x": 1.8837985646,
				"y": 0.9003078066,
				"z": -2.4186682259,
				"element": "C" 
			},
			{
				"x": 1.2888865944,
				"y": 0.1469838074,
				"z": -3.4325524278,
				"element": "C" 
			},
			{
				"x": 0.1461140972,
				"y": -0.5930969523,
				"z": -3.1331795289,
				"element": "C" 
			},
			{
				"x": -0.386006899,
				"y": -0.5787268593,
				"z": -1.8480051122,
				"element": "C" 
			},
			{
				"x": 3.1545634677,
				"y": 1.6565773421,
				"z": -2.7067536629,
				"element": "C" 
			},
			{
				"x": 3.2261564577,
				"y": 2.0437449533,
				"z": -4.0017449753,
				"element": "F" 
			},
			{
				"x": 4.2500037481,
				"y": 0.8972629891,
				"z": -2.4668467335,
				"element": "F" 
			},
			{
				"x": 3.2723273249,
				"y": 2.7656109075,
				"z": -1.9465275773,
				"element": "F" 
			},
			{
				"x": -2.6695791646,
				"y": 0.1159068974,
				"z": 1.8233720829,
				"element": "H" 
			},
			{
				"x": -2.5876670454,
				"y": 0.0009987619,
				"z": 3.5733619635,
				"element": "H" 
			},
			{
				"x": -1.8490189354,
				"y": -1.273461769,
				"z": 2.5955034849,
				"element": "H" 
			},
			{
				"x": -0.1079022065,
				"y": 0.1948000664,
				"z": 4.661058473,
				"element": "H" 
			},
			{
				"x": 0.5758895564,
				"y": 1.6259507464,
				"z": 3.8520625851,
				"element": "H" 
			},
			{
				"x": -1.0914913378,
				"y": 1.6688290454,
				"z": 4.4789468278,
				"element": "H" 
			},
			{
				"x": -1.2141131664,
				"y": -0.4347525467,
				"z": 0.4886927164,
				"element": "H" 
			},
			{
				"x": 1.8309379573,
				"y": 1.5170081864,
				"z": -0.3470071558,
				"element": "H" 
			},
			{
				"x": 1.7067632676,
				"y": 0.1479016654,
				"z": -4.4325086525,
				"element": "H" 
			},
			{
				"x": -0.3373341957,
				"y": -1.183857525,
				"z": -3.9053153694,
				"element": "H" 
			},
			{
				"x": -1.2797587018,
				"y": -1.1595025258,
				"z": -1.6292681781,
				"element": "H" 
			}
		],
		 "valence_orbital": [ 
			{
				"type": "occ",
				"energy": -0.31375,
				"method": "rhf"
			},
			{
				"type": "occ",
				"energy": -0.26406,
				"method": "rhf"
			},
			{
				"type": "occ",
				"energy": -0.26088,
				"method": "rhf"
			},
			{
				"type": "occ",
				"energy": -0.2465,
				"method": "rhf"
			},
			{
				"type": "occ",
				"energy": -0.22224,
				"method": "rhf"
			},
			{
				"type": "unocc",
				"energy": -0.01969,
				"method": "rhf"
			},
			{
				"type": "unocc",
				"energy": -0.00749,
				"method": "rhf"
			},
			{
				"type": "unocc",
				"energy": 0.05672,
				"method": "rhf"
			},
			{
				"type": "unocc",
				"energy": 0.06076,
				"method": "rhf"
			},
			{
				"type": "unocc",
				"energy": 0.09204,
				"method": "rhf"
			}
		],
		"cosmo_sigma_profile": { 
			"-0.025": 0.0,
			"-0.024": 0.0,
			"-0.023": 0.0,
			"-0.022": 0.0,
			"-0.021": 0.0,
			"-0.02": 0.0,
			"-0.019": 0.0,
			"-0.018": 0.0,
			"-0.017": 0.0,
			"-0.016": 0.0,
			"-0.015": 0.275665397673,
			"-0.014": 0.952441332212,
			"-0.013": 1.66259463473,
			"-0.012": 0.967521936075,
			"-0.011": 1.39596651742,
			"-0.01": 1.4245131953,
			"-0.009": 2.21269853918,
			"-0.008": 2.00025940557,
			"-0.007": 4.69703712043,
			"-0.006": 10.7028405377,
			"-0.005": 15.1818275395,
			"-0.004": 17.4579411131,
			"-0.003": 19.7821126841,
			"-0.002": 18.5531957614,
			"-0.001": 16.0440957029,
			"0.0": 13.4386427261,
			"0.001": 16.2321301028,
			"0.002": 29.4480240329,
			"0.003": 46.5366254309,
			"0.004": 16.6177790786,
			"0.005": 3.46031332316,
			"0.006": 1.90736516423,
			"0.007": 2.02916741699,
			"0.008": 1.40297713304,
			"0.009": 1.80188622311,
			"0.01": 1.2885086142,
			"0.011": 1.87355996988,
			"0.012": 1.68077306513,
			"0.013": 3.14687287886,
			"0.014": 1.50201416565,
			"0.015": 0.0,
			"0.016": 0.0,
			"0.017": 0.0,
			"0.018": 0.0,
			"0.019": 0.0,
			"0.02": 0.0,
			"0.021": 0.0,
			"0.022": 0.0,
			"0.023": 0.0,
			"0.024": 0.0,
			"0.025": 0.0
		}
	}
}
