{
	 "smiles": "CC1=C(OC(Br)=C1)C(O)=O", 
	 "Tm": 443.15, 
	 "num_atms": 15, 
	 "gaussian": { 
		 "optdone": 1, 
		 "sigma_profile": "yes", 
		 "theory": "DFT", 
		 "functional": "B3LYP", 
		 "basiset": "6-31G**", 
		 "properties": { 
			 "R2extent": 4977.8554, 
			 "electric_dipole_moment_norm": 3.44867282009, 
			 "electric_quadrupole_moment_norm": 13.0334083347, 
			 "total_energy": -3028.71386001, 
			 "HOMO_LUMO_gap": 0.18839, 
			 "cosmo_polarized_energy": -10.36, 
			 "cosmo_cavitation_energy": 22.64, 
			 "cosmo_dispersion_energy": -17.1, 
			 "cosmo_repulsion_energy": 1.42, 
			 "cosmo_total_nonelectrostatic_energy": 6.95, 
			 "SMD_solvation_energy": 4.81 
		},
		"coords": [
			{
				"x": 0.2579889678,
				"y": 0.610958744,
				"z": 1.260351006,
				"element": "C" 
			},
			{
				"x": -0.5106722625,
				"y": -0.6671698878,
				"z": 1.097891549,
				"element": "C" 
			},
			{
				"x": -0.3661689002,
				"y": -1.6354973355,
				"z": 0.1263188857,
				"element": "C" 
			},
			{
				"x": -1.267532406,
				"y": -2.6569637421,
				"z": 0.3315646055,
				"element": "O" 
			},
			{
				"x": -1.9695125001,
				"y": -2.3249425195,
				"z": 1.4262842467,
				"element": "C" 
			},
			{
				"x": -3.2923632063,
				"y": -3.519125911,
				"z": 1.980077213,
				"element": "Br" 
			},
			{
				"x": -1.5643095461,
				"y": -1.1278719055,
				"z": 1.945843764,
				"element": "C" 
			},
			{
				"x": 0.5100734628,
				"y": -1.7962156661,
				"z": -1.0299118047,
				"element": "C" 
			},
			{
				"x": 1.3634012806,
				"y": -0.7414732971,
				"z": -1.1515858452,
				"element": "O" 
			},
			{
				"x": 0.5041608944,
				"y": -2.7334975609,
				"z": -1.8001201776,
				"element": "O" 
			},
			{
				"x": 0.1536003229,
				"y": 1.2500024243,
				"z": 0.3788777545,
				"element": "H" 
			},
			{
				"x": -0.0978885634,
				"y": 1.1631956817,
				"z": 2.1332871222,
				"element": "H" 
			},
			{
				"x": 1.3270914769,
				"y": 0.4164325949,
				"z": 1.3846532963,
				"element": "H" 
			},
			{
				"x": -1.9649416226,
				"y": -0.6373909484,
				"z": 2.8202102479,
				"element": "H" 
			},
			{
				"x": 1.9000726017,
				"y": -0.934340671,
				"z": -1.9380418633,
				"element": "H" 
			}
		],
		 "valence_orbital": [ 
			{
				"type": "occ",
				"energy": -0.31934,
				"method": "rhf"
			},
			{
				"type": "occ",
				"energy": -0.31066,
				"method": "rhf"
			},
			{
				"type": "occ",
				"energy": -0.29094,
				"method": "rhf"
			},
			{
				"type": "occ",
				"energy": -0.28028,
				"method": "rhf"
			},
			{
				"type": "occ",
				"energy": -0.23748,
				"method": "rhf"
			},
			{
				"type": "unocc",
				"energy": -0.04909,
				"method": "rhf"
			},
			{
				"type": "unocc",
				"energy": 0.00079,
				"method": "rhf"
			},
			{
				"type": "unocc",
				"energy": 0.03013,
				"method": "rhf"
			},
			{
				"type": "unocc",
				"energy": 0.07345,
				"method": "rhf"
			},
			{
				"type": "unocc",
				"energy": 0.09444,
				"method": "rhf"
			}
		],
		"cosmo_sigma_profile": { 
			"-0.025": 0.0,
			"-0.024": 0.0,
			"-0.023": 0.0,
			"-0.022": 0.0,
			"-0.021": 0.0,
			"-0.02": 0.0,
			"-0.019": 0.0,
			"-0.018": 1.03486946515,
			"-0.017": 0.575744233923,
			"-0.016": 0.807270329097,
			"-0.015": 1.28211715059,
			"-0.014": 0.474896709624,
			"-0.013": 0.372419566744,
			"-0.012": 0.61603915686,
			"-0.011": 0.961207453058,
			"-0.01": 1.09320895421,
			"-0.009": 0.979529168948,
			"-0.008": 2.46578038153,
			"-0.007": 3.35613057737,
			"-0.006": 5.99700017617,
			"-0.005": 8.24385509106,
			"-0.004": 8.8362948418,
			"-0.003": 10.3569370628,
			"-0.002": 14.7271249856,
			"-0.001": 23.8405591888,
			"0.0": 19.8155556349,
			"0.001": 16.5354761321,
			"0.002": 18.3608852542,
			"0.003": 12.190082783,
			"0.004": 4.2019716526,
			"0.005": 3.54239024332,
			"0.006": 4.16328859149,
			"0.007": 2.24050176314,
			"0.008": 2.77577336382,
			"0.009": 1.60785563752,
			"0.01": 2.54265541917,
			"0.011": 4.20415358154,
			"0.012": 5.22434890134,
			"0.013": 1.06220525139,
			"0.014": 0.0,
			"0.015": 0.0,
			"0.016": 0.0,
			"0.017": 0.0,
			"0.018": 0.0,
			"0.019": 0.0,
			"0.02": 0.0,
			"0.021": 0.0,
			"0.022": 0.0,
			"0.023": 0.0,
			"0.024": 0.0,
			"0.025": 0.0
		}
	}
}
