{
	 "smiles": "CC(Cl)C(=O)NCCC1=CC=C(C=C1)S(N)(=O)=O", 
	 "Tm": 433.15, 
	 "num_atms": 33, 
	 "gaussian": { 
		 "optdone": 1, 
		 "sigma_profile": "yes", 
		 "theory": "DFT", 
		 "functional": "B3LYP", 
		 "basiset": "6-31G**", 
		 "properties": { 
			 "R2extent": 8167.6429, 
			 "electric_dipole_moment_norm": 4.34530932961, 
			 "electric_quadrupole_moment_norm": 31.5948329654, 
			 "total_energy": -1621.7291329, 
			 "HOMO_LUMO_gap": 0.21855, 
			 "cosmo_polarized_energy": -23.7, 
			 "cosmo_cavitation_energy": 40.27, 
			 "cosmo_dispersion_energy": -27.54, 
			 "cosmo_repulsion_energy": 2.15, 
			 "cosmo_total_nonelectrostatic_energy": 14.88, 
			 "SMD_solvation_energy": 6.15 
		},
		"coords": [
			{
				"x": 0.6948148313,
				"y": 2.2910557856,
				"z": 4.3213267749,
				"element": "C" 
			},
			{
				"x": 0.3729525974,
				"y": 0.9277477099,
				"z": 3.7187855715,
				"element": "C" 
			},
			{
				"x": -0.2099653547,
				"y": -0.2168067637,
				"z": 5.0379737266,
				"element": "Cl" 
			},
			{
				"x": -0.58956258,
				"y": 1.0599218131,
				"z": 2.5251264906,
				"element": "C" 
			},
			{
				"x": -0.2201105415,
				"y": 1.7577274204,
				"z": 1.5872417861,
				"element": "O" 
			},
			{
				"x": -1.7807612988,
				"y": 0.4152031417,
				"z": 2.5817036074,
				"element": "N" 
			},
			{
				"x": -2.7304603605,
				"y": 0.4408709587,
				"z": 1.4815192956,
				"element": "C" 
			},
			{
				"x": -2.9155582873,
				"y": -0.935883932,
				"z": 0.8058360697,
				"element": "C" 
			},
			{
				"x": -1.6540517093,
				"y": -1.4743489051,
				"z": 0.1685708797,
				"element": "C" 
			},
			{
				"x": -0.8530781876,
				"y": -2.4109972402,
				"z": 0.8381491458,
				"element": "C" 
			},
			{
				"x": 0.3243657857,
				"y": -2.8890509618,
				"z": 0.2677785727,
				"element": "C" 
			},
			{
				"x": 0.7058716336,
				"y": -2.4191511535,
				"z": -0.9895080322,
				"element": "C" 
			},
			{
				"x": -0.0764525209,
				"y": -1.496474395,
				"z": -1.6841822981,
				"element": "C" 
			},
			{
				"x": -1.2512426274,
				"y": -1.0297645286,
				"z": -1.0980828928,
				"element": "C" 
			},
			{
				"x": 2.2136047329,
				"y": -3.0316435979,
				"z": -1.7357596531,
				"element": "S" 
			},
			{
				"x": 3.4184338288,
				"y": -2.137447145,
				"z": -0.9420711399,
				"element": "N" 
			},
			{
				"x": 2.1894614311,
				"y": -2.6530438851,
				"z": -3.1529359172,
				"element": "O" 
			},
			{
				"x": 2.4172926234,
				"y": -4.4185988952,
				"z": -1.3073146121,
				"element": "O" 
			},
			{
				"x": -0.1945809186,
				"y": 2.7375339393,
				"z": 4.774294569,
				"element": "H" 
			},
			{
				"x": 1.0458128692,
				"y": 2.9429767193,
				"z": 3.5176613736,
				"element": "H" 
			},
			{
				"x": 1.4717627609,
				"y": 2.2034986841,
				"z": 5.0835278361,
				"element": "H" 
			},
			{
				"x": 1.2778414039,
				"y": 0.4547072959,
				"z": 3.3331689101,
				"element": "H" 
			},
			{
				"x": -1.9817201482,
				"y": -0.1408829833,
				"z": 3.4009533352,
				"element": "H" 
			},
			{
				"x": -3.7020692365,
				"y": 0.7947924049,
				"z": 1.8472834204,
				"element": "H" 
			},
			{
				"x": -2.3509764377,
				"y": 1.1727261072,
				"z": 0.7651594133,
				"element": "H" 
			},
			{
				"x": -3.7011878114,
				"y": -0.827334125,
				"z": 0.0483910246,
				"element": "H" 
			},
			{
				"x": -3.2930812891,
				"y": -1.6518415512,
				"z": 1.5459788814,
				"element": "H" 
			},
			{
				"x": -1.1591918258,
				"y": -2.7783533763,
				"z": 1.8138127028,
				"element": "H" 
			},
			{
				"x": 0.9320396031,
				"y": -3.6271390686,
				"z": 0.7798731334,
				"element": "H" 
			},
			{
				"x": 0.2281731941,
				"y": -1.1678878115,
				"z": -2.6715076484,
				"element": "H" 
			},
			{
				"x": -1.8658533353,
				"y": -0.3130578891,
				"z": -1.6364719304,
				"element": "H" 
			},
			{
				"x": 3.7407036968,
				"y": -1.378256126,
				"z": -1.5374206241,
				"element": "H" 
			},
			{
				"x": 4.1809734781,
				"y": -2.770797646,
				"z": -0.713261772,
				"element": "H" 
			}
		],
		 "valence_orbital": [ 
			{
				"type": "occ",
				"energy": -0.29498,
				"method": "rhf"
			},
			{
				"type": "occ",
				"energy": -0.27136,
				"method": "rhf"
			},
			{
				"type": "occ",
				"energy": -0.26666,
				"method": "rhf"
			},
			{
				"type": "occ",
				"energy": -0.26186,
				"method": "rhf"
			},
			{
				"type": "occ",
				"energy": -0.256,
				"method": "rhf"
			},
			{
				"type": "unocc",
				"energy": -0.03745,
				"method": "rhf"
			},
			{
				"type": "unocc",
				"energy": -0.01895,
				"method": "rhf"
			},
			{
				"type": "unocc",
				"energy": 0.00697,
				"method": "rhf"
			},
			{
				"type": "unocc",
				"energy": 0.01442,
				"method": "rhf"
			},
			{
				"type": "unocc",
				"energy": 0.05565,
				"method": "rhf"
			}
		],
		"cosmo_sigma_profile": { 
			"-0.025": 0.0,
			"-0.024": 0.0,
			"-0.023": 0.0,
			"-0.022": 0.0,
			"-0.021": 0.0,
			"-0.02": 0.0,
			"-0.019": 0.0,
			"-0.018": 0.0,
			"-0.017": 0.0,
			"-0.016": 0.0,
			"-0.015": 0.929684045271,
			"-0.014": 2.42055380245,
			"-0.013": 2.58558807363,
			"-0.012": 3.79387150403,
			"-0.011": 3.43007965379,
			"-0.01": 2.76110762216,
			"-0.009": 3.27845459516,
			"-0.008": 4.46315217229,
			"-0.007": 8.19409076664,
			"-0.006": 18.7413735354,
			"-0.005": 25.3905515246,
			"-0.004": 25.3508734759,
			"-0.003": 21.257841953,
			"-0.002": 21.1362138177,
			"-0.001": 21.9719166187,
			"0.0": 17.4789189399,
			"0.001": 17.4836953513,
			"0.002": 17.3991282451,
			"0.003": 17.6988951244,
			"0.004": 13.0949684812,
			"0.005": 12.1185663216,
			"0.006": 10.1533994746,
			"0.007": 5.2435433337,
			"0.008": 5.30348195317,
			"0.009": 5.84011197516,
			"0.01": 8.18439764355,
			"0.011": 11.9089668027,
			"0.012": 6.60615041459,
			"0.013": 4.45016093225,
			"0.014": 1.62577750503,
			"0.015": 0.0,
			"0.016": 0.0,
			"0.017": 0.0,
			"0.018": 0.0,
			"0.019": 0.0,
			"0.02": 0.0,
			"0.021": 0.0,
			"0.022": 0.0,
			"0.023": 0.0,
			"0.024": 0.0,
			"0.025": 0.0
		}
	}
}
