{
	 "smiles": "COC1=CSC=C1C(O)=O", 
	 "Tm": 379.15, 
	 "num_atms": 16, 
	 "gaussian": { 
		 "optdone": 1, 
		 "sigma_profile": "yes", 
		 "theory": "DFT", 
		 "functional": "B3LYP", 
		 "basiset": "6-31G**", 
		 "properties": { 
			 "R2extent": 2249.65, 
			 "electric_dipole_moment_norm": 1.75391505496, 
			 "electric_quadrupole_moment_norm": 8.79644083934, 
			 "total_energy": -856.091341894, 
			 "HOMO_LUMO_gap": 0.19145, 
			 "cosmo_polarized_energy": -10.06, 
			 "cosmo_cavitation_energy": 22.07, 
			 "cosmo_dispersion_energy": -16.97, 
			 "cosmo_repulsion_energy": 1.33, 
			 "cosmo_total_nonelectrostatic_energy": 6.43, 
			 "SMD_solvation_energy": 6.03 
		},
		"coords": [
			{
				"x": -0.0255877509,
				"y": 0.5565403359,
				"z": 1.3507453111,
				"element": "C" 
			},
			{
				"x": 0.3776691386,
				"y": 0.6746667302,
				"z": -0.0204571913,
				"element": "O" 
			},
			{
				"x": -0.3514415763,
				"y": -0.039897906,
				"z": -0.9207865092,
				"element": "C" 
			},
			{
				"x": -1.217678169,
				"y": 0.5699092834,
				"z": -1.7884746126,
				"element": "C" 
			},
			{
				"x": -1.9250741437,
				"y": -0.5607811954,
				"z": -2.8969550087,
				"element": "S" 
			},
			{
				"x": -1.0614489051,
				"y": -1.8715118197,
				"z": -2.1927774239,
				"element": "C" 
			},
			{
				"x": -0.2585157659,
				"y": -1.4689513606,
				"z": -1.151095202,
				"element": "C" 
			},
			{
				"x": 0.6123342201,
				"y": -2.3989365233,
				"z": -0.4089856355,
				"element": "C" 
			},
			{
				"x": 0.610280425,
				"y": -3.64654474,
				"z": -0.9496415667,
				"element": "O" 
			},
			{
				"x": 1.2729621491,
				"y": -2.132446954,
				"z": 0.5767585423,
				"element": "O" 
			},
			{
				"x": 0.1094075684,
				"y": -0.4655598963,
				"z": 1.7117842809,
				"element": "H" 
			},
			{
				"x": -1.0689325036,
				"y": 0.8732397514,
				"z": 1.474486562,
				"element": "H" 
			},
			{
				"x": 0.6261671336,
				"y": 1.2285959451,
				"z": 1.9118403346,
				"element": "H" 
			},
			{
				"x": -1.450482598,
				"y": 1.6234168837,
				"z": -1.8366776187,
				"element": "H" 
			},
			{
				"x": -1.1720871017,
				"y": -2.8752918542,
				"z": -2.575393524,
				"element": "H" 
			},
			{
				"x": 1.2003278795,
				"y": -4.1742466802,
				"z": -0.3869707383,
				"element": "H" 
			}
		],
		 "valence_orbital": [ 
			{
				"type": "occ",
				"energy": -0.32146,
				"method": "rhf"
			},
			{
				"type": "occ",
				"energy": -0.27846,
				"method": "rhf"
			},
			{
				"type": "occ",
				"energy": -0.27631,
				"method": "rhf"
			},
			{
				"type": "occ",
				"energy": -0.26005,
				"method": "rhf"
			},
			{
				"type": "occ",
				"energy": -0.23811,
				"method": "rhf"
			},
			{
				"type": "unocc",
				"energy": -0.04666,
				"method": "rhf"
			},
			{
				"type": "unocc",
				"energy": 0.0084,
				"method": "rhf"
			},
			{
				"type": "unocc",
				"energy": 0.02193,
				"method": "rhf"
			},
			{
				"type": "unocc",
				"energy": 0.07705,
				"method": "rhf"
			},
			{
				"type": "unocc",
				"energy": 0.08629,
				"method": "rhf"
			}
		],
		"cosmo_sigma_profile": { 
			"-0.025": 0.0,
			"-0.024": 0.0,
			"-0.023": 0.0,
			"-0.022": 0.0,
			"-0.021": 0.0,
			"-0.02": 0.0,
			"-0.019": 0.0,
			"-0.018": 0.74777925905,
			"-0.017": 0.830109326988,
			"-0.016": 0.870770330311,
			"-0.015": 1.31538144105,
			"-0.014": 0.223421020605,
			"-0.013": 0.156188230337,
			"-0.012": 0.657798302491,
			"-0.011": 1.47009874731,
			"-0.01": 1.06556779765,
			"-0.009": 3.08443224447,
			"-0.008": 3.96947182612,
			"-0.007": 3.47784691799,
			"-0.006": 5.10087029712,
			"-0.005": 8.15333163709,
			"-0.004": 8.90459505238,
			"-0.003": 12.2505810824,
			"-0.002": 18.8678769704,
			"-0.001": 11.1351373285,
			"0.0": 13.2619622292,
			"0.001": 16.1049977998,
			"0.002": 18.6109700979,
			"0.003": 11.5672109294,
			"0.004": 5.36048867808,
			"0.005": 4.91955332494,
			"0.006": 2.85839982909,
			"0.007": 4.69662718727,
			"0.008": 3.11810886928,
			"0.009": 2.84286950288,
			"0.01": 3.80085692403,
			"0.011": 6.18978330421,
			"0.012": 3.01789679063,
			"0.013": 0.0495616329667,
			"0.014": 0.0,
			"0.015": 0.0,
			"0.016": 0.0,
			"0.017": 0.0,
			"0.018": 0.0,
			"0.019": 0.0,
			"0.02": 0.0,
			"0.021": 0.0,
			"0.022": 0.0,
			"0.023": 0.0,
			"0.024": 0.0,
			"0.025": 0.0
		}
	}
}
