{
	 "smiles": "OC(=O)C1(CCC1)C1=CC=CC=C1", 
	 "Tm": 379.15, 
	 "num_atms": 25, 
	 "gaussian": { 
		 "optdone": 1, 
		 "sigma_profile": "yes", 
		 "theory": "DFT", 
		 "functional": "B3LYP", 
		 "basiset": "6-31G**", 
		 "properties": { 
			 "R2extent": 2754.6356, 
			 "electric_dipole_moment_norm": 4.45531626038, 
			 "electric_quadrupole_moment_norm": 15.4781404545, 
			 "total_energy": -576.836443784, 
			 "HOMO_LUMO_gap": 0.22561, 
			 "cosmo_polarized_energy": -11.25, 
			 "cosmo_cavitation_energy": 27.36, 
			 "cosmo_dispersion_energy": -19.68, 
			 "cosmo_repulsion_energy": 1.55, 
			 "cosmo_total_nonelectrostatic_energy": 9.23, 
			 "SMD_solvation_energy": 5.34 
		},
		"coords": [
			{
				"x": 0.6641650617,
				"y": 1.5747663175,
				"z": 2.3155483673,
				"element": "O" 
			},
			{
				"x": -0.6019520547,
				"y": 1.1332025978,
				"z": 2.1292268554,
				"element": "C" 
			},
			{
				"x": -1.5083145361,
				"y": 1.5972067634,
				"z": 2.7799427863,
				"element": "O" 
			},
			{
				"x": -0.8016909881,
				"y": 0.093424614,
				"z": 1.0083391364,
				"element": "C" 
			},
			{
				"x": -1.2905498447,
				"y": 0.8507772237,
				"z": -0.285461416,
				"element": "C" 
			},
			{
				"x": -2.7529481776,
				"y": 0.5330986747,
				"z": 0.1138167514,
				"element": "C" 
			},
			{
				"x": -2.2267416783,
				"y": -0.5380183583,
				"z": 1.1017313513,
				"element": "C" 
			},
			{
				"x": 0.3871361379,
				"y": -0.8394013302,
				"z": 0.8831459492,
				"element": "C" 
			},
			{
				"x": 1.4287607488,
				"y": -0.5805570033,
				"z": -0.0221172887,
				"element": "C" 
			},
			{
				"x": 2.540391951,
				"y": -1.4255213334,
				"z": -0.0969957758,
				"element": "C" 
			},
			{
				"x": 2.6255328891,
				"y": -2.5447539635,
				"z": 0.7299598712,
				"element": "C" 
			},
			{
				"x": 1.5946290394,
				"y": -2.8137586695,
				"z": 1.6347585491,
				"element": "C" 
			},
			{
				"x": 0.4896412196,
				"y": -1.9679680635,
				"z": 1.7127427011,
				"element": "C" 
			},
			{
				"x": 1.2761448158,
				"y": 1.0426535625,
				"z": 1.7812088757,
				"element": "H" 
			},
			{
				"x": -1.0043536237,
				"y": 1.9013530254,
				"z": -0.3900263885,
				"element": "H" 
			},
			{
				"x": -0.978707617,
				"y": 0.3084559453,
				"z": -1.182566145,
				"element": "H" 
			},
			{
				"x": -3.4153388825,
				"y": 0.1923740545,
				"z": -0.6859284482,
				"element": "H" 
			},
			{
				"x": -3.221993907,
				"y": 1.3654494086,
				"z": 0.641231455,
				"element": "H" 
			},
			{
				"x": -2.2342709962,
				"y": -1.5432033636,
				"z": 0.6717062359,
				"element": "H" 
			},
			{
				"x": -2.6750970018,
				"y": -0.5540534451,
				"z": 2.0964622715,
				"element": "H" 
			},
			{
				"x": 1.3641541918,
				"y": 0.2771941005,
				"z": -0.6869086825,
				"element": "H" 
			},
			{
				"x": 3.3329456724,
				"y": -1.2101223219,
				"z": -0.8079137053,
				"element": "H" 
			},
			{
				"x": 3.4857369786,
				"y": -3.2048057052,
				"z": 0.6700101194,
				"element": "H" 
			},
			{
				"x": 1.6530473761,
				"y": -3.6840815763,
				"z": 2.2821278592,
				"element": "H" 
			},
			{
				"x": -0.3053267746,
				"y": -2.1830111541,
				"z": 2.4216587147,
				"element": "H" 
			}
		],
		 "valence_orbital": [ 
			{
				"type": "occ",
				"energy": -0.31315,
				"method": "rhf"
			},
			{
				"type": "occ",
				"energy": -0.30572,
				"method": "rhf"
			},
			{
				"type": "occ",
				"energy": -0.27613,
				"method": "rhf"
			},
			{
				"type": "occ",
				"energy": -0.2667,
				"method": "rhf"
			},
			{
				"type": "occ",
				"energy": -0.24756,
				"method": "rhf"
			},
			{
				"type": "unocc",
				"energy": -0.02195,
				"method": "rhf"
			},
			{
				"type": "unocc",
				"energy": -0.0203,
				"method": "rhf"
			},
			{
				"type": "unocc",
				"energy": 0.01555,
				"method": "rhf"
			},
			{
				"type": "unocc",
				"energy": 0.07865,
				"method": "rhf"
			},
			{
				"type": "unocc",
				"energy": 0.0924,
				"method": "rhf"
			}
		],
		"cosmo_sigma_profile": { 
			"-0.025": 0.0,
			"-0.024": 0.0,
			"-0.023": 0.0,
			"-0.022": 0.0,
			"-0.021": 0.0,
			"-0.02": 0.0,
			"-0.019": 0.0,
			"-0.018": 0.0,
			"-0.017": 0.0,
			"-0.016": 0.0,
			"-0.015": 0.0,
			"-0.014": 0.0,
			"-0.013": 0.0,
			"-0.012": 0.435814162356,
			"-0.011": 1.59717147873,
			"-0.01": 1.60213006292,
			"-0.009": 1.32740510931,
			"-0.008": 1.04871243201,
			"-0.007": 1.47408027006,
			"-0.006": 9.05119357063,
			"-0.005": 15.1182632575,
			"-0.004": 21.8749142476,
			"-0.003": 22.9137842061,
			"-0.002": 22.4004827183,
			"-0.001": 18.0497804456,
			"0.0": 17.9889304539,
			"0.001": 16.2996600013,
			"0.002": 9.80280630969,
			"0.003": 8.90791544962,
			"0.004": 9.64256557385,
			"0.005": 8.85474902752,
			"0.006": 2.96502029477,
			"0.007": 2.63470122564,
			"0.008": 2.99018346859,
			"0.009": 3.0614407264,
			"0.01": 4.28756621854,
			"0.011": 4.69700046535,
			"0.012": 5.2248453071,
			"0.013": 1.89390364074,
			"0.014": 0.144417328868,
			"0.015": 0.0,
			"0.016": 0.0,
			"0.017": 0.0,
			"0.018": 0.0,
			"0.019": 0.0,
			"0.02": 0.0,
			"0.021": 0.0,
			"0.022": 0.0,
			"0.023": 0.0,
			"0.024": 0.0,
			"0.025": 0.0
		}
	}
}
