{
	 "smiles": "OCCNC1CCCCC1", 
	 "Tm": 309.15, 
	 "num_atms": 27, 
	 "gaussian": { 
		 "optdone": 1, 
		 "sigma_profile": "yes", 
		 "theory": "DFT", 
		 "functional": "B3LYP", 
		 "basiset": "6-31G**", 
		 "properties": { 
			 "R2extent": 2305.3368, 
			 "electric_dipole_moment_norm": 1.58578567593, 
			 "electric_quadrupole_moment_norm": 10.3794507061, 
			 "total_energy": -445.059118453, 
			 "HOMO_LUMO_gap": 0.28886, 
			 "cosmo_polarized_energy": -8.4, 
			 "cosmo_cavitation_energy": 26.95, 
			 "cosmo_dispersion_energy": -19.95, 
			 "cosmo_repulsion_energy": 1.65, 
			 "cosmo_total_nonelectrostatic_energy": 8.65, 
			 "SMD_solvation_energy": 1.94 
		},
		"coords": [
			{
				"x": -1.6005671962,
				"y": 3.4507611477,
				"z": 2.3618833951,
				"element": "O" 
			},
			{
				"x": -2.1091836861,
				"y": 2.27544367,
				"z": 1.7457434783,
				"element": "C" 
			},
			{
				"x": -1.0590607524,
				"y": 1.5594226164,
				"z": 0.8912401142,
				"element": "C" 
			},
			{
				"x": -1.6566521632,
				"y": 0.3954180933,
				"z": 0.2399460947,
				"element": "N" 
			},
			{
				"x": -0.7447677184,
				"y": -0.5470763039,
				"z": -0.429225737,
				"element": "C" 
			},
			{
				"x": 0.2874973898,
				"y": 0.0716397983,
				"z": -1.394129701,
				"element": "C" 
			},
			{
				"x": 0.9988729118,
				"y": -1.0227761067,
				"z": -2.2264382984,
				"element": "C" 
			},
			{
				"x": 1.1775976795,
				"y": -2.3436861233,
				"z": -1.436802329,
				"element": "C" 
			},
			{
				"x": 1.2703016945,
				"y": -2.0769963285,
				"z": 0.0713843585,
				"element": "C" 
			},
			{
				"x": -0.0386398934,
				"y": -1.4556809476,
				"z": 0.6094934459,
				"element": "C" 
			},
			{
				"x": -0.9329066898,
				"y": 3.179136065,
				"z": 3.0046691349,
				"element": "H" 
			},
			{
				"x": -2.5255110787,
				"y": 1.5672363877,
				"z": 2.477255152,
				"element": "H" 
			},
			{
				"x": -2.9396682826,
				"y": 2.6090555905,
				"z": 1.1122093533,
				"element": "H" 
			},
			{
				"x": -0.2487382035,
				"y": 1.2172833756,
				"z": 1.5484708136,
				"element": "H" 
			},
			{
				"x": -0.6113489982,
				"y": 2.2939542644,
				"z": 0.2004307628,
				"element": "H" 
			},
			{
				"x": -2.3408565055,
				"y": 0.7213630979,
				"z": -0.4383298396,
				"element": "H" 
			},
			{
				"x": -1.4008990424,
				"y": -1.186980004,
				"z": -1.0349569785,
				"element": "H" 
			},
			{
				"x": -0.2038531237,
				"y": 0.7922134967,
				"z": -2.0596871125,
				"element": "H" 
			},
			{
				"x": 1.0266933605,
				"y": 0.641733252,
				"z": -0.817287518,
				"element": "H" 
			},
			{
				"x": 1.9762210191,
				"y": -0.6473187879,
				"z": -2.5516313413,
				"element": "H" 
			},
			{
				"x": 0.428963083,
				"y": -1.220968852,
				"z": -3.1421071951,
				"element": "H" 
			},
			{
				"x": 0.3261693977,
				"y": -3.0108424558,
				"z": -1.6253980857,
				"element": "H" 
			},
			{
				"x": 2.0658834065,
				"y": -2.8780996325,
				"z": -1.7917859566,
				"element": "H" 
			},
			{
				"x": 2.1124100185,
				"y": -1.3978972377,
				"z": 0.2600302297,
				"element": "H" 
			},
			{
				"x": 1.498349478,
				"y": -3.0004680983,
				"z": 0.6155688983,
				"element": "H" 
			},
			{
				"x": -0.7390333101,
				"y": -2.2417385204,
				"z": 0.9131747637,
				"element": "H" 
			},
			{
				"x": 0.1772272054,
				"y": -0.8788314569,
				"z": 1.5157800976,
				"element": "H" 
			}
		],
		 "valence_orbital": [ 
			{
				"type": "occ",
				"energy": -0.31042,
				"method": "rhf"
			},
			{
				"type": "occ",
				"energy": -0.30224,
				"method": "rhf"
			},
			{
				"type": "occ",
				"energy": -0.29447,
				"method": "rhf"
			},
			{
				"type": "occ",
				"energy": -0.26302,
				"method": "rhf"
			},
			{
				"type": "occ",
				"energy": -0.21447,
				"method": "rhf"
			},
			{
				"type": "unocc",
				"energy": 0.07439,
				"method": "rhf"
			},
			{
				"type": "unocc",
				"energy": 0.07522,
				"method": "rhf"
			},
			{
				"type": "unocc",
				"energy": 0.09456,
				"method": "rhf"
			},
			{
				"type": "unocc",
				"energy": 0.10264,
				"method": "rhf"
			},
			{
				"type": "unocc",
				"energy": 0.11957,
				"method": "rhf"
			}
		],
		"cosmo_sigma_profile": { 
			"-0.025": 0.0,
			"-0.024": 0.0,
			"-0.023": 0.0,
			"-0.022": 0.0,
			"-0.021": 0.0,
			"-0.02": 0.0,
			"-0.019": 0.0,
			"-0.018": 0.0,
			"-0.017": 0.0,
			"-0.016": 0.031606912539,
			"-0.015": 0.686281143155,
			"-0.014": 1.48089552875,
			"-0.013": 0.439449929668,
			"-0.012": 1.05625358666,
			"-0.011": 0.927236585768,
			"-0.01": 1.50027977785,
			"-0.009": 2.19609666564,
			"-0.008": 1.88865927982,
			"-0.007": 2.5291851819,
			"-0.006": 3.03644091457,
			"-0.005": 3.91645412053,
			"-0.004": 5.83852903077,
			"-0.003": 10.693428702,
			"-0.002": 28.6171658114,
			"-0.001": 38.5556747479,
			"0.0": 35.3908189409,
			"0.001": 24.5250171663,
			"0.002": 13.0221535754,
			"0.003": 3.07563569924,
			"0.004": 2.44245107678,
			"0.005": 2.70504118759,
			"0.006": 1.49510078608,
			"0.007": 2.44278526448,
			"0.008": 1.47747349735,
			"0.009": 2.06564324485,
			"0.01": 2.26736779877,
			"0.011": 1.97493666664,
			"0.012": 1.99383747504,
			"0.013": 1.99267017571,
			"0.014": 2.9618402053,
			"0.015": 1.72898384829,
			"0.016": 0.313690549065,
			"0.017": 0.418452135686,
			"0.018": 0.204416036621,
			"0.019": 0.0,
			"0.02": 0.0,
			"0.021": 0.0,
			"0.022": 0.0,
			"0.023": 0.0,
			"0.024": 0.0,
			"0.025": 0.0
		}
	}
}
