{
	 "smiles": "OC(=O)CCCOC1=CC=C(Cl)C=C1Cl", 
	 "Tm": 391.15, 
	 "num_atms": 25, 
	 "gaussian": { 
		 "optdone": 1, 
		 "sigma_profile": "yes", 
		 "theory": "DFT", 
		 "functional": "B3LYP", 
		 "basiset": "6-31G**", 
		 "properties": { 
			 "R2extent": 5810.6447, 
			 "electric_dipole_moment_norm": 1.89062967553, 
			 "electric_quadrupole_moment_norm": 10.6453446821, 
			 "total_energy": -1533.15548524, 
			 "HOMO_LUMO_gap": 0.21719, 
			 "cosmo_polarized_energy": -11.37, 
			 "cosmo_cavitation_energy": 33.5, 
			 "cosmo_dispersion_energy": -23.38, 
			 "cosmo_repulsion_energy": 1.85, 
			 "cosmo_total_nonelectrostatic_energy": 11.97, 
			 "SMD_solvation_energy": 6.1 
		},
		"coords": [
			{
				"x": -2.8122020771,
				"y": 2.453250757,
				"z": -0.0321456222,
				"element": "O" 
			},
			{
				"x": -2.5919556617,
				"y": 1.3138585078,
				"z": 0.6647718239,
				"element": "C" 
			},
			{
				"x": -3.2635968802,
				"y": 0.3158219483,
				"z": 0.5077908692,
				"element": "O" 
			},
			{
				"x": -1.4453689701,
				"y": 1.4699289008,
				"z": 1.6404942698,
				"element": "C" 
			},
			{
				"x": -1.0579222968,
				"y": 0.1558902139,
				"z": 2.3243714488,
				"element": "C" 
			},
			{
				"x": -0.3762661351,
				"y": -0.8343464011,
				"z": 1.3909085454,
				"element": "C" 
			},
			{
				"x": 0.8658393184,
				"y": -0.2415772748,
				"z": 0.9511111292,
				"element": "O" 
			},
			{
				"x": 1.5616882536,
				"y": -0.9594814025,
				"z": 0.018685988,
				"element": "C" 
			},
			{
				"x": 2.4591825706,
				"y": -1.9549363323,
				"z": 0.4182231288,
				"element": "C" 
			},
			{
				"x": 3.2172649609,
				"y": -2.6613354594,
				"z": -0.5128018636,
				"element": "C" 
			},
			{
				"x": 3.0722500775,
				"y": -2.3631091672,
				"z": -1.8672541174,
				"element": "C" 
			},
			{
				"x": 4.0210345181,
				"y": -3.2402098178,
				"z": -3.0563953404,
				"element": "Cl" 
			},
			{
				"x": 2.1902169276,
				"y": -1.3745331814,
				"z": -2.2998619384,
				"element": "C" 
			},
			{
				"x": 1.4375709295,
				"y": -0.6815531149,
				"z": -1.3520791235,
				"element": "C" 
			},
			{
				"x": 0.3345426907,
				"y": 0.5673474348,
				"z": -1.8894004811,
				"element": "Cl" 
			},
			{
				"x": -3.5634836837,
				"y": 2.2688321636,
				"z": -0.6208208986,
				"element": "H" 
			},
			{
				"x": -1.7509186902,
				"y": 2.2192868135,
				"z": 2.3811589364,
				"element": "H" 
			},
			{
				"x": -0.5923451299,
				"y": 1.899759187,
				"z": 1.1066401491,
				"element": "H" 
			},
			{
				"x": -1.9522464231,
				"y": -0.326160439,
				"z": 2.7322711281,
				"element": "H" 
			},
			{
				"x": -0.3844435594,
				"y": 0.3705939814,
				"z": 3.1610736232,
				"element": "H" 
			},
			{
				"x": -0.1640291689,
				"y": -1.7762046408,
				"z": 1.9145733057,
				"element": "H" 
			},
			{
				"x": -1.0108017908,
				"y": -1.0549055144,
				"z": 0.5256562571,
				"element": "H" 
			},
			{
				"x": 2.5636613124,
				"y": -2.1556070952,
				"z": 1.4797384282,
				"element": "H" 
			},
			{
				"x": 3.913809131,
				"y": -3.4282721122,
				"z": -0.1941427509,
				"element": "H" 
			},
			{
				"x": 2.0871197767,
				"y": -1.1444379552,
				"z": -3.3531668947,
				"element": "H" 
			}
		],
		 "valence_orbital": [ 
			{
				"type": "occ",
				"energy": -0.31628,
				"method": "rhf"
			},
			{
				"type": "occ",
				"energy": -0.28534,
				"method": "rhf"
			},
			{
				"type": "occ",
				"energy": -0.27674,
				"method": "rhf"
			},
			{
				"type": "occ",
				"energy": -0.26504,
				"method": "rhf"
			},
			{
				"type": "occ",
				"energy": -0.24442,
				"method": "rhf"
			},
			{
				"type": "unocc",
				"energy": -0.02723,
				"method": "rhf"
			},
			{
				"type": "unocc",
				"energy": -0.02083,
				"method": "rhf"
			},
			{
				"type": "unocc",
				"energy": 0.00501,
				"method": "rhf"
			},
			{
				"type": "unocc",
				"energy": 0.00843,
				"method": "rhf"
			},
			{
				"type": "unocc",
				"energy": 0.04792,
				"method": "rhf"
			}
		],
		"cosmo_sigma_profile": { 
			"-0.025": 0.0,
			"-0.024": 0.0,
			"-0.023": 0.0,
			"-0.022": 0.0,
			"-0.021": 0.0,
			"-0.02": 0.0,
			"-0.019": 0.0,
			"-0.018": 0.565554170283,
			"-0.017": 0.948099538166,
			"-0.016": 0.852346271959,
			"-0.015": 0.490956943108,
			"-0.014": 1.35313158391,
			"-0.013": 0.501782150484,
			"-0.012": 0.222505028627,
			"-0.011": 0.968805361937,
			"-0.01": 0.995569463893,
			"-0.009": 0.815996007439,
			"-0.008": 3.23587528431,
			"-0.007": 6.85865297281,
			"-0.006": 9.64770214563,
			"-0.005": 11.8851029586,
			"-0.004": 19.4000472145,
			"-0.003": 20.7557393035,
			"-0.002": 20.4450038433,
			"-0.001": 20.8477320321,
			"0.0": 20.9687196478,
			"0.001": 29.346409156,
			"0.002": 25.8347034073,
			"0.003": 18.1981222497,
			"0.004": 21.2635332682,
			"0.005": 8.68503356655,
			"0.006": 3.46365573657,
			"0.007": 3.44036721533,
			"0.008": 3.67926799791,
			"0.009": 4.22451325206,
			"0.01": 3.12004706318,
			"0.011": 3.27055566179,
			"0.012": 3.86630932331,
			"0.013": 0.251180057671,
			"0.014": 0.0,
			"0.015": 0.0,
			"0.016": 0.0,
			"0.017": 0.0,
			"0.018": 0.0,
			"0.019": 0.0,
			"0.02": 0.0,
			"0.021": 0.0,
			"0.022": 0.0,
			"0.023": 0.0,
			"0.024": 0.0,
			"0.025": 0.0
		}
	}
}
