{
	 "smiles": "OC(=O)C(F)F", 
	 "Tm": 272.15, 
	 "num_atms": 8, 
	 "gaussian": { 
		 "optdone": 1, 
		 "sigma_profile": "yes", 
		 "theory": "DFT", 
		 "functional": "B3LYP", 
		 "basiset": "6-31G**", 
		 "properties": { 
			 "R2extent": 600.7415, 
			 "electric_dipole_moment_norm": 2.46800872567, 
			 "electric_quadrupole_moment_norm": 6.8127233967, 
			 "total_energy": -427.535224754, 
			 "HOMO_LUMO_gap": 0.27132, 
			 "cosmo_polarized_energy": -9.64, 
			 "cosmo_cavitation_energy": 13.72, 
			 "cosmo_dispersion_energy": -9.91, 
			 "cosmo_repulsion_energy": 0.86, 
			 "cosmo_total_nonelectrostatic_energy": 4.67, 
			 "SMD_solvation_energy": 4.99 
		},
		"coords": [
			{
				"x": -0.3634874529,
				"y": 1.8043691416,
				"z": -0.9710620016,
				"element": "O" 
			},
			{
				"x": -0.6503049019,
				"y": 0.5099922727,
				"z": -0.7402964253,
				"element": "C" 
			},
			{
				"x": -1.6744161313,
				"y": 0.0998372545,
				"z": -0.2582898526,
				"element": "O" 
			},
			{
				"x": 0.5176214136,
				"y": -0.3728376591,
				"z": -1.2067700359,
				"element": "C" 
			},
			{
				"x": 0.2270535566,
				"y": -1.6642275578,
				"z": -0.9428624416,
				"element": "F" 
			},
			{
				"x": 1.6384760551,
				"y": -0.0153062556,
				"z": -0.518417172,
				"element": "F" 
			},
			{
				"x": -1.1238482401,
				"y": 2.3236482688,
				"z": -0.6581982819,
				"element": "H" 
			},
			{
				"x": 0.7120057009,
				"y": -0.2520754651,
				"z": -2.2796037892,
				"element": "H" 
			}
		],
		 "valence_orbital": [ 
			{
				"type": "occ",
				"energy": -0.41581,
				"method": "rhf"
			},
			{
				"type": "occ",
				"energy": -0.40621,
				"method": "rhf"
			},
			{
				"type": "occ",
				"energy": -0.36883,
				"method": "rhf"
			},
			{
				"type": "occ",
				"energy": -0.3451,
				"method": "rhf"
			},
			{
				"type": "occ",
				"energy": -0.29814,
				"method": "rhf"
			},
			{
				"type": "unocc",
				"energy": -0.02682,
				"method": "rhf"
			},
			{
				"type": "unocc",
				"energy": 0.05668,
				"method": "rhf"
			},
			{
				"type": "unocc",
				"energy": 0.11006,
				"method": "rhf"
			},
			{
				"type": "unocc",
				"energy": 0.14042,
				"method": "rhf"
			},
			{
				"type": "unocc",
				"energy": 0.18183,
				"method": "rhf"
			}
		],
		"cosmo_sigma_profile": { 
			"-0.025": 0.0,
			"-0.024": 0.0,
			"-0.023": 0.0,
			"-0.022": 0.0,
			"-0.021": 0.0,
			"-0.02": 0.10697591502,
			"-0.019": 1.17589699294,
			"-0.018": 0.886505502892,
			"-0.017": 0.859574306496,
			"-0.016": 1.08483288342,
			"-0.015": 0.749794792639,
			"-0.014": 0.49930249315,
			"-0.013": 1.14004138852,
			"-0.012": 1.54254128477,
			"-0.011": 2.770646997,
			"-0.01": 3.31438338679,
			"-0.009": 2.77540522058,
			"-0.008": 1.90783739607,
			"-0.007": 2.68740706492,
			"-0.006": 1.85298242185,
			"-0.005": 3.52322636768,
			"-0.004": 4.31175476853,
			"-0.003": 2.92984017751,
			"-0.002": 4.05263515906,
			"-0.001": 3.80802826133,
			"0.0": 3.26285366575,
			"0.001": 4.06716738392,
			"0.002": 5.68504663966,
			"0.003": 16.9986914306,
			"0.004": 12.9646341181,
			"0.005": 3.87660317419,
			"0.006": 3.49570546429,
			"0.007": 3.56761052076,
			"0.008": 3.38377478229,
			"0.009": 2.75594435366,
			"0.01": 5.14320913166,
			"0.011": 2.23104157549,
			"0.012": 0.0115930724685,
			"0.013": 0.0,
			"0.014": 0.0,
			"0.015": 0.0,
			"0.016": 0.0,
			"0.017": 0.0,
			"0.018": 0.0,
			"0.019": 0.0,
			"0.02": 0.0,
			"0.021": 0.0,
			"0.022": 0.0,
			"0.023": 0.0,
			"0.024": 0.0,
			"0.025": 0.0
		}
	}
}
