{
	 "smiles": "OC(=O)C1=C(SCC2=CC=CS2)C=CC=C1", 
	 "Tm": 452.15, 
	 "num_atms": 26, 
	 "gaussian": { 
		 "optdone": 1, 
		 "sigma_profile": "yes", 
		 "theory": "DFT", 
		 "functional": "B3LYP", 
		 "basiset": "6-31G**", 
		 "properties": { 
			 "R2extent": 4586.3351, 
			 "electric_dipole_moment_norm": 5.02081834266, 
			 "electric_quadrupole_moment_norm": 15.281328581, 
			 "total_energy": -1410.11972338, 
			 "HOMO_LUMO_gap": 0.17628, 
			 "cosmo_polarized_energy": -14.78, 
			 "cosmo_cavitation_energy": 32.85, 
			 "cosmo_dispersion_energy": -23.44, 
			 "cosmo_repulsion_energy": 1.72, 
			 "cosmo_total_nonelectrostatic_energy": 11.13, 
			 "SMD_solvation_energy": 6.04 
		},
		"coords": [
			{
				"x": 2.901637153,
				"y": -1.3187955185,
				"z": -0.1775660764,
				"element": "O" 
			},
			{
				"x": 2.3806586387,
				"y": -1.0972838723,
				"z": 1.0359937222,
				"element": "C" 
			},
			{
				"x": 3.10925046,
				"y": -0.9570977407,
				"z": 1.9955007654,
				"element": "O" 
			},
			{
				"x": 0.867195145,
				"y": -1.0533212407,
				"z": 1.2032227527,
				"element": "C" 
			},
			{
				"x": -0.1252885885,
				"y": -1.0951646078,
				"z": 0.1961961227,
				"element": "C" 
			},
			{
				"x": 0.2231504851,
				"y": -1.2093385469,
				"z": -1.5688143255,
				"element": "S" 
			},
			{
				"x": 0.1522018469,
				"y": 0.5998448289,
				"z": -2.0760056095,
				"element": "C" 
			},
			{
				"x": 1.2644996598,
				"y": 1.4548834471,
				"z": -1.5826698221,
				"element": "C" 
			},
			{
				"x": 1.2994149631,
				"y": 2.2127873664,
				"z": -0.4369754502,
				"element": "C" 
			},
			{
				"x": 2.5425870869,
				"y": 2.8838524505,
				"z": -0.2403257777,
				"element": "C" 
			},
			{
				"x": 3.4425131124,
				"y": 2.6283920709,
				"z": -1.2378810661,
				"element": "C" 
			},
			{
				"x": 2.785499995,
				"y": 1.5637014379,
				"z": -2.4353316851,
				"element": "S" 
			},
			{
				"x": -1.4820559879,
				"y": -1.0660948853,
				"z": 0.5544992831,
				"element": "C" 
			},
			{
				"x": -1.8730842515,
				"y": -0.982645592,
				"z": 1.8881887277,
				"element": "C" 
			},
			{
				"x": -0.8998240348,
				"y": -0.9339699267,
				"z": 2.8870815219,
				"element": "C" 
			},
			{
				"x": 0.4462557893,
				"y": -0.9708908138,
				"z": 2.5415297113,
				"element": "C" 
			},
			{
				"x": 2.1974512242,
				"y": -1.3800986169,
				"z": -0.8602600038,
				"element": "H" 
			},
			{
				"x": -0.8106373491,
				"y": 0.9783783173,
				"z": -1.7260878157,
				"element": "H" 
			},
			{
				"x": 0.1182647032,
				"y": 0.5460665513,
				"z": -3.1675162574,
				"element": "H" 
			},
			{
				"x": 0.4584998863,
				"y": 2.28595028,
				"z": 0.2440112531,
				"element": "H" 
			},
			{
				"x": 2.7565017402,
				"y": 3.5256473861,
				"z": 0.6062509015,
				"element": "H" 
			},
			{
				"x": 4.4518333006,
				"y": 3.0009660256,
				"z": -1.3430412684,
				"element": "H" 
			},
			{
				"x": -2.2299357693,
				"y": -1.1178139337,
				"z": -0.230598794,
				"element": "H" 
			},
			{
				"x": -2.9287538062,
				"y": -0.9633895559,
				"z": 2.1425231815,
				"element": "H" 
			},
			{
				"x": -1.1881948737,
				"y": -0.8733059166,
				"z": 3.9322055131,
				"element": "H" 
			},
			{
				"x": 1.2207594713,
				"y": -0.9361593942,
				"z": 3.2989704959,
				"element": "H" 
			}
		],
		 "valence_orbital": [ 
			{
				"type": "occ",
				"energy": -0.26971,
				"method": "rhf"
			},
			{
				"type": "occ",
				"energy": -0.2658,
				"method": "rhf"
			},
			{
				"type": "occ",
				"energy": -0.26022,
				"method": "rhf"
			},
			{
				"type": "occ",
				"energy": -0.25538,
				"method": "rhf"
			},
			{
				"type": "occ",
				"energy": -0.23404,
				"method": "rhf"
			},
			{
				"type": "unocc",
				"energy": -0.05776,
				"method": "rhf"
			},
			{
				"type": "unocc",
				"energy": -0.03684,
				"method": "rhf"
			},
			{
				"type": "unocc",
				"energy": -0.0209,
				"method": "rhf"
			},
			{
				"type": "unocc",
				"energy": 0.01755,
				"method": "rhf"
			},
			{
				"type": "unocc",
				"energy": 0.03292,
				"method": "rhf"
			}
		],
		"cosmo_sigma_profile": { 
			"-0.025": 0.0,
			"-0.024": 0.0,
			"-0.023": 0.0,
			"-0.022": 0.0,
			"-0.021": 0.0,
			"-0.02": 0.0,
			"-0.019": 0.0,
			"-0.018": 0.0,
			"-0.017": 0.0,
			"-0.016": 0.0,
			"-0.015": 0.0,
			"-0.014": 0.0,
			"-0.013": 0.0,
			"-0.012": 0.0,
			"-0.011": 0.0,
			"-0.01": 0.0,
			"-0.009": 0.980629480409,
			"-0.008": 5.03256511666,
			"-0.007": 12.4831756835,
			"-0.006": 21.8272334313,
			"-0.005": 20.6092424489,
			"-0.004": 18.464813294,
			"-0.003": 18.0531998691,
			"-0.002": 14.8745230276,
			"-0.001": 15.2758793046,
			"0.0": 16.405476201,
			"0.001": 22.6533389817,
			"0.002": 23.2253565543,
			"0.003": 21.0682279277,
			"0.004": 14.2133680324,
			"0.005": 11.092006574,
			"0.006": 4.58069721241,
			"0.007": 3.84422758586,
			"0.008": 3.12665852609,
			"0.009": 2.71906906799,
			"0.01": 3.50978071189,
			"0.011": 5.34131403002,
			"0.012": 5.17869031429,
			"0.013": 2.29701588759,
			"0.014": 0.53043591084,
			"0.015": 0.0,
			"0.016": 0.0,
			"0.017": 0.0,
			"0.018": 0.0,
			"0.019": 0.0,
			"0.02": 0.0,
			"0.021": 0.0,
			"0.022": 0.0,
			"0.023": 0.0,
			"0.024": 0.0,
			"0.025": 0.0
		}
	}
}
