{
	 "smiles": "CC1=NN(C2CC3CCC2C3)C(N)=C1", 
	 "Tm": 333.15, 
	 "num_atms": 31, 
	 "gaussian": { 
		 "optdone": 1, 
		 "sigma_profile": "yes", 
		 "theory": "DFT", 
		 "functional": "B3LYP", 
		 "basiset": "6-31G**", 
		 "properties": { 
			 "R2extent": 2823.6861, 
			 "electric_dipole_moment_norm": 2.70711339437, 
			 "electric_quadrupole_moment_norm": 7.64712589016, 
			 "total_energy": -593.658246829, 
			 "HOMO_LUMO_gap": 0.2417, 
			 "cosmo_polarized_energy": -10.67, 
			 "cosmo_cavitation_energy": 30.93, 
			 "cosmo_dispersion_energy": -22.6, 
			 "cosmo_repulsion_energy": 1.8, 
			 "cosmo_total_nonelectrostatic_energy": 10.13, 
			 "SMD_solvation_energy": 3.91 
		},
		"coords": [
			{
				"x": -0.2419368643,
				"y": -2.6257960145,
				"z": 2.7754238014,
				"element": "C" 
			},
			{
				"x": 0.4548528022,
				"y": -1.7609233585,
				"z": 1.7688735522,
				"element": "C" 
			},
			{
				"x": -0.2468257883,
				"y": -1.1277367795,
				"z": 0.8301567577,
				"element": "N" 
			},
			{
				"x": 0.677216191,
				"y": -0.4529918695,
				"z": 0.0830046291,
				"element": "N" 
			},
			{
				"x": 0.3003680175,
				"y": 0.3643699582,
				"z": -1.0638036666,
				"element": "C" 
			},
			{
				"x": -0.9398873822,
				"y": -0.1708748031,
				"z": -1.8500936985,
				"element": "C" 
			},
			{
				"x": -1.8523949564,
				"y": 1.0732251981,
				"z": -1.9538024958,
				"element": "C" 
			},
			{
				"x": -2.4710691873,
				"y": 1.3469629744,
				"z": -0.5621062501,
				"element": "C" 
			},
			{
				"x": -1.2553589997,
				"y": 1.8692785237,
				"z": 0.2701106158,
				"element": "C" 
			},
			{
				"x": -0.0940950021,
				"y": 1.8381147325,
				"z": -0.7489558338,
				"element": "C" 
			},
			{
				"x": -0.8137470009,
				"y": 2.213394203,
				"z": -2.0626951441,
				"element": "C" 
			},
			{
				"x": 1.9405657339,
				"y": -0.634627551,
				"z": 0.565249065,
				"element": "C" 
			},
			{
				"x": 3.0514911954,
				"y": -0.0715387582,
				"z": -0.0797166381,
				"element": "N" 
			},
			{
				"x": 1.8392212357,
				"y": -1.4839256792,
				"z": 1.6554306522,
				"element": "C" 
			},
			{
				"x": -0.0638717168,
				"y": -2.2768348355,
				"z": 3.7991759046,
				"element": "H" 
			},
			{
				"x": -1.318560885,
				"y": -2.6134707974,
				"z": 2.5904019968,
				"element": "H" 
			},
			{
				"x": 0.1053568226,
				"y": -3.6640398711,
				"z": 2.7212979695,
				"element": "H" 
			},
			{
				"x": 1.1843023567,
				"y": 0.3682262466,
				"z": -1.7095650247,
				"element": "H" 
			},
			{
				"x": -1.4121972431,
				"y": -0.9967067054,
				"z": -1.316122672,
				"element": "H" 
			},
			{
				"x": -0.6371465761,
				"y": -0.529072348,
				"z": -2.8393705455,
				"element": "H" 
			},
			{
				"x": -2.585643535,
				"y": 1.0118794376,
				"z": -2.7625763404,
				"element": "H" 
			},
			{
				"x": -3.2606624215,
				"y": 2.1033414975,
				"z": -0.6301957517,
				"element": "H" 
			},
			{
				"x": -2.9097862126,
				"y": 0.4450569642,
				"z": -0.1262635943,
				"element": "H" 
			},
			{
				"x": -1.0555515258,
				"y": 1.2465123249,
				"z": 1.1440084638,
				"element": "H" 
			},
			{
				"x": -1.4198354808,
				"y": 2.8951511048,
				"z": 0.6168198848,
				"element": "H" 
			},
			{
				"x": 0.7602580285,
				"y": 2.4635970289,
				"z": -0.4691516034,
				"element": "H" 
			},
			{
				"x": -0.1744571353,
				"y": 2.1372156424,
				"z": -2.9500229785,
				"element": "H" 
			},
			{
				"x": -1.2580570916,
				"y": 3.2142157944,
				"z": -2.0346325556,
				"element": "H" 
			},
			{
				"x": 3.017206913,
				"y": 0.9418491955,
				"z": -0.129962981,
				"element": "H" 
			},
			{
				"x": 3.9157321237,
				"y": -0.352694575,
				"z": 0.3666495697,
				"element": "H" 
			},
			{
				"x": 2.6463135847,
				"y": -1.8421568809,
				"z": 2.2784349116,
				"element": "H" 
			}
		],
		 "valence_orbital": [ 
			{
				"type": "occ",
				"energy": -0.30274,
				"method": "rhf"
			},
			{
				"type": "occ",
				"energy": -0.28982,
				"method": "rhf"
			},
			{
				"type": "occ",
				"energy": -0.2654,
				"method": "rhf"
			},
			{
				"type": "occ",
				"energy": -0.22025,
				"method": "rhf"
			},
			{
				"type": "occ",
				"energy": -0.20154,
				"method": "rhf"
			},
			{
				"type": "unocc",
				"energy": 0.04016,
				"method": "rhf"
			},
			{
				"type": "unocc",
				"energy": 0.06546,
				"method": "rhf"
			},
			{
				"type": "unocc",
				"energy": 0.08538,
				"method": "rhf"
			},
			{
				"type": "unocc",
				"energy": 0.09269,
				"method": "rhf"
			},
			{
				"type": "unocc",
				"energy": 0.11761,
				"method": "rhf"
			}
		],
		"cosmo_sigma_profile": { 
			"-0.025": 0.0,
			"-0.024": 0.0,
			"-0.023": 0.0,
			"-0.022": 0.0,
			"-0.021": 0.0,
			"-0.02": 0.0,
			"-0.019": 0.0,
			"-0.018": 0.0,
			"-0.017": 0.0,
			"-0.016": 0.0,
			"-0.015": 0.0,
			"-0.014": 0.0,
			"-0.013": 0.330961052374,
			"-0.012": 2.16978539591,
			"-0.011": 2.67291549313,
			"-0.01": 3.189292484,
			"-0.009": 3.01340491537,
			"-0.008": 3.4382153281,
			"-0.007": 2.40438125499,
			"-0.006": 3.75154905297,
			"-0.005": 4.77861446318,
			"-0.004": 9.10286232943,
			"-0.003": 20.3572116279,
			"-0.002": 25.7270610934,
			"-0.001": 30.7199780845,
			"0.0": 32.6716736699,
			"0.001": 29.2015020304,
			"0.002": 17.0315515983,
			"0.003": 7.57087249396,
			"0.004": 6.74223708603,
			"0.005": 6.95200184971,
			"0.006": 7.23372595856,
			"0.007": 6.69398999392,
			"0.008": 3.95649504511,
			"0.009": 2.09402992034,
			"0.01": 2.87372607435,
			"0.011": 2.17028283244,
			"0.012": 1.54458165995,
			"0.013": 1.52125863231,
			"0.014": 0.537278331857,
			"0.015": 0.17724387863,
			"0.016": 0.0,
			"0.017": 0.0,
			"0.018": 0.0,
			"0.019": 0.0,
			"0.02": 0.0,
			"0.021": 0.0,
			"0.022": 0.0,
			"0.023": 0.0,
			"0.024": 0.0,
			"0.025": 0.0
		}
	}
}
