{
	 "smiles": "CCOC1=CC2=C(C=C1)N=CC(C#N)=C2Cl", 
	 "Tm": 399.15, 
	 "num_atms": 25, 
	 "gaussian": { 
		 "optdone": 1, 
		 "sigma_profile": "yes", 
		 "theory": "DFT", 
		 "functional": "B3LYP", 
		 "basiset": "6-31G**", 
		 "properties": { 
			 "R2extent": 5666.6763, 
			 "electric_dipole_moment_norm": 7.17521802665, 
			 "electric_quadrupole_moment_norm": 15.9640528404, 
			 "total_energy": -1107.59907512, 
			 "HOMO_LUMO_gap": 0.14784, 
			 "cosmo_polarized_energy": -11.29, 
			 "cosmo_cavitation_energy": 31.92, 
			 "cosmo_dispersion_energy": -23.06, 
			 "cosmo_repulsion_energy": 1.78, 
			 "cosmo_total_nonelectrostatic_energy": 10.63, 
			 "SMD_solvation_energy": 5.28 
		},
		"coords": [
			{
				"x": 1.4296071717,
				"y": 3.8861118309,
				"z": -1.2302270705,
				"element": "C" 
			},
			{
				"x": 0.7888948803,
				"y": 2.743400106,
				"z": -2.0096152784,
				"element": "C" 
			},
			{
				"x": 1.2319864666,
				"y": 1.4561093536,
				"z": -1.560197893,
				"element": "O" 
			},
			{
				"x": 0.6980433413,
				"y": 0.8858154641,
				"z": -0.4485456919,
				"element": "C" 
			},
			{
				"x": 1.2407069435,
				"y": -0.3347986539,
				"z": -0.0776593904,
				"element": "C" 
			},
			{
				"x": 0.7506476435,
				"y": -1.0271761882,
				"z": 1.0494953886,
				"element": "C" 
			},
			{
				"x": -0.3210663846,
				"y": -0.460563167,
				"z": 1.8211867029,
				"element": "C" 
			},
			{
				"x": -0.8508064043,
				"y": 0.7879002137,
				"z": 1.4153387485,
				"element": "C" 
			},
			{
				"x": -0.3610835741,
				"y": 1.4513447751,
				"z": 0.3132699265,
				"element": "C" 
			},
			{
				"x": -0.8548281963,
				"y": -1.059464979,
				"z": 2.9247543739,
				"element": "N" 
			},
			{
				"x": -0.3626410578,
				"y": -2.2137045401,
				"z": 3.2978037828,
				"element": "C" 
			},
			{
				"x": 0.7026701662,
				"y": -2.8856947278,
				"z": 2.6181077188,
				"element": "C" 
			},
			{
				"x": 1.156452999,
				"y": -4.1437565375,
				"z": 3.1205761779,
				"element": "C" 
			},
			{
				"x": 1.4895159992,
				"y": -5.1642532194,
				"z": 3.56863678,
				"element": "N" 
			},
			{
				"x": 1.2512837699,
				"y": -2.2831589588,
				"z": 1.4957766158,
				"element": "C" 
			},
			{
				"x": 2.5496871911,
				"y": -3.0639155999,
				"z": 0.6374504766,
				"element": "Cl" 
			},
			{
				"x": 2.5195138405,
				"y": 3.8159052673,
				"z": -1.283760797,
				"element": "H" 
			},
			{
				"x": 1.1241868057,
				"y": 4.846531597,
				"z": -1.6583377124,
				"element": "H" 
			},
			{
				"x": 1.1388502113,
				"y": 3.8757491269,
				"z": -0.1760126137,
				"element": "H" 
			},
			{
				"x": -0.3064228275,
				"y": 2.7984834412,
				"z": -1.9895981817,
				"element": "H" 
			},
			{
				"x": 1.096474617,
				"y": 2.778469828,
				"z": -3.057897967,
				"element": "H" 
			},
			{
				"x": 2.0457009827,
				"y": -0.7479889617,
				"z": -0.6723966515,
				"element": "H" 
			},
			{
				"x": -1.6577883365,
				"y": 1.2040924434,
				"z": 2.0087405791,
				"element": "H" 
			},
			{
				"x": -0.7903089103,
				"y": 2.4065292365,
				"z": 0.0366866158,
				"element": "H" 
			},
			{
				"x": -0.7924773385,
				"y": -2.6866671501,
				"z": 4.1781253603,
				"element": "H" 
			}
		],
		 "valence_orbital": [ 
			{
				"type": "occ",
				"energy": -0.32101,
				"method": "rhf"
			},
			{
				"type": "occ",
				"energy": -0.3022,
				"method": "rhf"
			},
			{
				"type": "occ",
				"energy": -0.27771,
				"method": "rhf"
			},
			{
				"type": "occ",
				"energy": -0.26297,
				"method": "rhf"
			},
			{
				"type": "occ",
				"energy": -0.23329,
				"method": "rhf"
			},
			{
				"type": "unocc",
				"energy": -0.08545,
				"method": "rhf"
			},
			{
				"type": "unocc",
				"energy": -0.04415,
				"method": "rhf"
			},
			{
				"type": "unocc",
				"energy": -0.00183,
				"method": "rhf"
			},
			{
				"type": "unocc",
				"energy": 0.01254,
				"method": "rhf"
			},
			{
				"type": "unocc",
				"energy": 0.02983,
				"method": "rhf"
			}
		],
		"cosmo_sigma_profile": { 
			"-0.025": 0.0,
			"-0.024": 0.0,
			"-0.023": 0.0,
			"-0.022": 0.0,
			"-0.021": 0.0,
			"-0.02": 0.0,
			"-0.019": 0.0,
			"-0.018": 0.0,
			"-0.017": 0.0,
			"-0.016": 0.0,
			"-0.015": 0.0,
			"-0.014": 0.0,
			"-0.013": 0.0,
			"-0.012": 0.0,
			"-0.011": 0.0,
			"-0.01": 0.0,
			"-0.009": 1.26190388089,
			"-0.008": 4.70686562605,
			"-0.007": 6.84953976576,
			"-0.006": 10.3664453959,
			"-0.005": 12.1878698636,
			"-0.004": 21.0364110964,
			"-0.003": 24.7348677978,
			"-0.002": 28.2641710424,
			"-0.001": 22.6334705663,
			"0.0": 24.9504414666,
			"0.001": 24.1073976627,
			"0.002": 22.1550508971,
			"0.003": 10.2727971753,
			"0.004": 5.77953300092,
			"0.005": 5.85158912331,
			"0.006": 5.38808367721,
			"0.007": 5.4091335802,
			"0.008": 5.98244431734,
			"0.009": 5.15740275987,
			"0.01": 4.24543852606,
			"0.011": 3.7035268828,
			"0.012": 2.41353112797,
			"0.013": 1.05430145734,
			"0.014": 0.809549320471,
			"0.015": 0.0978381397726,
			"0.016": 0.0,
			"0.017": 0.0,
			"0.018": 0.0,
			"0.019": 0.0,
			"0.02": 0.0,
			"0.021": 0.0,
			"0.022": 0.0,
			"0.023": 0.0,
			"0.024": 0.0,
			"0.025": 0.0
		}
	}
}
