{
	 "smiles": "CN1C=NC(=C1N)C1=CC=CC=C1", 
	 "Tm": 433.15, 
	 "num_atms": 24, 
	 "gaussian": { 
		 "optdone": 1, 
		 "sigma_profile": "yes", 
		 "theory": "DFT", 
		 "functional": "B3LYP", 
		 "basiset": "6-31G**", 
		 "properties": { 
			 "R2extent": 3373.5029, 
			 "electric_dipole_moment_norm": 4.51817954712, 
			 "electric_quadrupole_moment_norm": 10.1937470069, 
			 "total_energy": -551.946994381, 
			 "HOMO_LUMO_gap": 0.18257, 
			 "cosmo_polarized_energy": -15.89, 
			 "cosmo_cavitation_energy": 27.38, 
			 "cosmo_dispersion_energy": -20.3, 
			 "cosmo_repulsion_energy": 1.59, 
			 "cosmo_total_nonelectrostatic_energy": 8.67, 
			 "SMD_solvation_energy": 3.54 
		},
		"coords": [
			{
				"x": -0.5766764555,
				"y": -2.963045621,
				"z": -0.2811751377,
				"element": "C" 
			},
			{
				"x": -0.3269373901,
				"y": -1.6216138179,
				"z": 0.2089363838,
				"element": "N" 
			},
			{
				"x": -1.1980903323,
				"y": -0.8006875601,
				"z": 0.8914404093,
				"element": "C" 
			},
			{
				"x": -0.6492845829,
				"y": 0.3398284453,
				"z": 1.2167585191,
				"element": "N" 
			},
			{
				"x": 0.6510051525,
				"y": 0.293457861,
				"z": 0.7329662609,
				"element": "C" 
			},
			{
				"x": 0.855494355,
				"y": -0.9201150147,
				"z": 0.089705583,
				"element": "C" 
			},
			{
				"x": 1.9541227057,
				"y": -1.4960623004,
				"z": -0.5638613752,
				"element": "N" 
			},
			{
				"x": 1.5780112032,
				"y": 1.4171741529,
				"z": 0.8967694781,
				"element": "C" 
			},
			{
				"x": 1.0735090261,
				"y": 2.7267479135,
				"z": 1.0056710534,
				"element": "C" 
			},
			{
				"x": 1.9333192351,
				"y": 3.8133282415,
				"z": 1.1371443568,
				"element": "C" 
			},
			{
				"x": 3.3188546479,
				"y": 3.6241774671,
				"z": 1.1608656683,
				"element": "C" 
			},
			{
				"x": 3.8327822865,
				"y": 2.330260159,
				"z": 1.075050586,
				"element": "C" 
			},
			{
				"x": 2.9727387276,
				"y": 1.2372859282,
				"z": 0.9554934941,
				"element": "C" 
			},
			{
				"x": 0.2552168958,
				"y": -3.6199812434,
				"z": -0.0120035809,
				"element": "H" 
			},
			{
				"x": -0.7037847106,
				"y": -2.982478683,
				"z": -1.3706020857,
				"element": "H" 
			},
			{
				"x": -1.4914372557,
				"y": -3.3428193453,
				"z": 0.1775196252,
				"element": "H" 
			},
			{
				"x": -2.2108461556,
				"y": -1.1112141953,
				"z": 1.1119763793,
				"element": "H" 
			},
			{
				"x": 2.7112357905,
				"y": -0.8277975482,
				"z": -0.6474193039,
				"element": "H" 
			},
			{
				"x": 1.7211752304,
				"y": -1.8351826191,
				"z": -1.4939923345,
				"element": "H" 
			},
			{
				"x": -0.0019300148,
				"y": 2.8684104221,
				"z": 0.9861757303,
				"element": "H" 
			},
			{
				"x": 1.5217888803,
				"y": 4.8160315907,
				"z": 1.2172672539,
				"element": "H" 
			},
			{
				"x": 3.9875077148,
				"y": 4.4745967757,
				"z": 1.2584058487,
				"element": "H" 
			},
			{
				"x": 4.9060022633,
				"y": 2.1656388042,
				"z": 1.122101253,
				"element": "H" 
			},
			{
				"x": 3.3900227825,
				"y": 0.2336601873,
				"z": 0.9701059348,
				"element": "H" 
			}
		],
		 "valence_orbital": [ 
			{
				"type": "occ",
				"energy": -0.27324,
				"method": "rhf"
			},
			{
				"type": "occ",
				"energy": -0.2587,
				"method": "rhf"
			},
			{
				"type": "occ",
				"energy": -0.23838,
				"method": "rhf"
			},
			{
				"type": "occ",
				"energy": -0.23582,
				"method": "rhf"
			},
			{
				"type": "occ",
				"energy": -0.18255,
				"method": "rhf"
			},
			{
				"type": "unocc",
				"energy": 2e-05,
				"method": "rhf"
			},
			{
				"type": "unocc",
				"energy": 0.00944,
				"method": "rhf"
			},
			{
				"type": "unocc",
				"energy": 0.0395,
				"method": "rhf"
			},
			{
				"type": "unocc",
				"energy": 0.06412,
				"method": "rhf"
			},
			{
				"type": "unocc",
				"energy": 0.09756,
				"method": "rhf"
			}
		],
		"cosmo_sigma_profile": { 
			"-0.025": 0.0,
			"-0.024": 0.0,
			"-0.023": 0.0,
			"-0.022": 0.0,
			"-0.021": 0.0,
			"-0.02": 0.0,
			"-0.019": 0.0,
			"-0.018": 0.0,
			"-0.017": 0.0,
			"-0.016": 0.0,
			"-0.015": 0.0,
			"-0.014": 0.0,
			"-0.013": 0.704944869096,
			"-0.012": 1.41538262124,
			"-0.011": 3.00470369882,
			"-0.01": 3.29750832989,
			"-0.009": 3.33400160272,
			"-0.008": 6.16272506547,
			"-0.007": 6.5686175539,
			"-0.006": 10.3674691521,
			"-0.005": 15.7010667933,
			"-0.004": 18.0872363245,
			"-0.003": 20.7124070482,
			"-0.002": 12.8810346281,
			"-0.001": 10.9423264915,
			"0.0": 9.41590804836,
			"0.001": 8.12151557167,
			"0.002": 10.717116064,
			"0.003": 10.9135767146,
			"0.004": 12.2153998182,
			"0.005": 14.5820438344,
			"0.006": 14.399146944,
			"0.007": 6.88129348565,
			"0.008": 3.18677147947,
			"0.009": 1.8390364798,
			"0.01": 2.2587738878,
			"0.011": 2.36811966075,
			"0.012": 1.97870950012,
			"0.013": 1.91224660398,
			"0.014": 1.10628945896,
			"0.015": 1.38501577627,
			"0.016": 1.0039239558,
			"0.017": 0.667849601629,
			"0.018": 0.254201870604,
			"0.019": 0.0,
			"0.02": 0.0,
			"0.021": 0.0,
			"0.022": 0.0,
			"0.023": 0.0,
			"0.024": 0.0,
			"0.025": 0.0
		}
	}
}
