{
	 "smiles": "CCN(CC)CCN1C(N)=NC2=C1C=CC=C2", 
	 "Tm": 403.15, 
	 "num_atms": 37, 
	 "gaussian": { 
		 "optdone": 1, 
		 "sigma_profile": "yes", 
		 "theory": "DFT", 
		 "functional": "B3LYP", 
		 "basiset": "6-31G**", 
		 "properties": { 
			 "R2extent": 5111.3453, 
			 "electric_dipole_moment_norm": 5.40716363078, 
			 "electric_quadrupole_moment_norm": 10.9821831236, 
			 "total_energy": -726.463626058, 
			 "HOMO_LUMO_gap": 0.19999, 
			 "cosmo_polarized_energy": -13.75, 
			 "cosmo_cavitation_energy": 37.59, 
			 "cosmo_dispersion_energy": -25.73, 
			 "cosmo_repulsion_energy": 1.97, 
			 "cosmo_total_nonelectrostatic_energy": 13.83, 
			 "SMD_solvation_energy": 4.1 
		},
		"coords": [
			{
				"x": -2.2311714319,
				"y": 1.8186188605,
				"z": -3.1684863319,
				"element": "C" 
			},
			{
				"x": -2.6868629721,
				"y": 0.7439085399,
				"z": -2.1809409634,
				"element": "C" 
			},
			{
				"x": -1.8028405201,
				"y": 0.6203734995,
				"z": -1.008969195,
				"element": "N" 
			},
			{
				"x": -2.4480610126,
				"y": -0.1024007857,
				"z": 0.1079382971,
				"element": "C" 
			},
			{
				"x": -3.5468836305,
				"y": 0.6934062242,
				"z": 0.8129105885,
				"element": "C" 
			},
			{
				"x": -0.4954835785,
				"y": 0.0212326613,
				"z": -1.3570803592,
				"element": "C" 
			},
			{
				"x": 0.6959827189,
				"y": 0.9208933071,
				"z": -0.9968063179,
				"element": "C" 
			},
			{
				"x": 0.8387712058,
				"y": 1.1858052711,
				"z": 0.4255692014,
				"element": "N" 
			},
			{
				"x": 0.2673092479,
				"y": 2.2374791645,
				"z": 1.1260834,
				"element": "C" 
			},
			{
				"x": -0.6075330093,
				"y": 3.0889781229,
				"z": 0.4843442497,
				"element": "N" 
			},
			{
				"x": 0.6713535418,
				"y": 2.3369297526,
				"z": 2.3716706798,
				"element": "N" 
			},
			{
				"x": 1.5810556577,
				"y": 1.297723091,
				"z": 2.526345007,
				"element": "C" 
			},
			{
				"x": 1.6989222452,
				"y": 0.5544193932,
				"z": 1.3250782484,
				"element": "C" 
			},
			{
				"x": 2.5362753179,
				"y": -0.5511092274,
				"z": 1.2046708548,
				"element": "C" 
			},
			{
				"x": 3.2799447321,
				"y": -0.9092755672,
				"z": 2.3332822476,
				"element": "C" 
			},
			{
				"x": 3.1755842135,
				"y": -0.1856016182,
				"z": 3.5325061754,
				"element": "C" 
			},
			{
				"x": 2.3300690978,
				"y": 0.9195628397,
				"z": 3.6440185822,
				"element": "C" 
			},
			{
				"x": -2.1801137107,
				"y": 2.7978963427,
				"z": -2.6824156005,
				"element": "H" 
			},
			{
				"x": -1.2449950579,
				"y": 1.6019133994,
				"z": -3.5917194795,
				"element": "H" 
			},
			{
				"x": -2.9362590303,
				"y": 1.8859212097,
				"z": -4.0032740559,
				"element": "H" 
			},
			{
				"x": -2.7886360571,
				"y": -0.2265983476,
				"z": -2.7018143345,
				"element": "H" 
			},
			{
				"x": -3.6855277784,
				"y": 1.0064138265,
				"z": -1.8218309633,
				"element": "H" 
			},
			{
				"x": -2.8498263223,
				"y": -1.074611481,
				"z": -0.2340728726,
				"element": "H" 
			},
			{
				"x": -1.6663890089,
				"y": -0.326981623,
				"z": 0.8390149634,
				"element": "H" 
			},
			{
				"x": -3.929980886,
				"y": 0.1166729731,
				"z": 1.6606792604,
				"element": "H" 
			},
			{
				"x": -3.1545173857,
				"y": 1.6390886621,
				"z": 1.1980669619,
				"element": "H" 
			},
			{
				"x": -4.3972308761,
				"y": 0.9144564032,
				"z": 0.1609125951,
				"element": "H" 
			},
			{
				"x": -0.3774677522,
				"y": -0.9514618898,
				"z": -0.8616576262,
				"element": "H" 
			},
			{
				"x": -0.4467426533,
				"y": -0.1772801464,
				"z": -2.4348711941,
				"element": "H" 
			},
			{
				"x": 1.623780538,
				"y": 0.4539487167,
				"z": -1.3458128227,
				"element": "H" 
			},
			{
				"x": 0.5977296407,
				"y": 1.8833479117,
				"z": -1.5093586588,
				"element": "H" 
			},
			{
				"x": -1.2762448067,
				"y": 2.5925453425,
				"z": -0.1051686217,
				"element": "H" 
			},
			{
				"x": -1.0314062518,
				"y": 3.7404099816,
				"z": 1.1319876626,
				"element": "H" 
			},
			{
				"x": 2.6157983066,
				"y": -1.117023636,
				"z": 0.280644167,
				"element": "H" 
			},
			{
				"x": 3.9475997956,
				"y": -1.7642119015,
				"z": 2.2797119927,
				"element": "H" 
			},
			{
				"x": 3.7662582001,
				"y": -0.494228415,
				"z": 4.39038681,
				"element": "H" 
			},
			{
				"x": 2.2488392725,
				"y": 1.481139142,
				"z": 4.5693574522,
				"element": "H" 
			}
		],
		 "valence_orbital": [ 
			{
				"type": "occ",
				"energy": -0.27317,
				"method": "rhf"
			},
			{
				"type": "occ",
				"energy": -0.25513,
				"method": "rhf"
			},
			{
				"type": "occ",
				"energy": -0.23509,
				"method": "rhf"
			},
			{
				"type": "occ",
				"energy": -0.20761,
				"method": "rhf"
			},
			{
				"type": "occ",
				"energy": -0.18909,
				"method": "rhf"
			},
			{
				"type": "unocc",
				"energy": 0.0109,
				"method": "rhf"
			},
			{
				"type": "unocc",
				"energy": 0.03575,
				"method": "rhf"
			},
			{
				"type": "unocc",
				"energy": 0.06605,
				"method": "rhf"
			},
			{
				"type": "unocc",
				"energy": 0.0828,
				"method": "rhf"
			},
			{
				"type": "unocc",
				"energy": 0.08892,
				"method": "rhf"
			}
		],
		"cosmo_sigma_profile": { 
			"-0.025": 0.0,
			"-0.024": 0.0,
			"-0.023": 0.0,
			"-0.022": 0.0,
			"-0.021": 0.0,
			"-0.02": 0.0,
			"-0.019": 0.0,
			"-0.018": 0.0,
			"-0.017": 0.0,
			"-0.016": 0.0,
			"-0.015": 0.0,
			"-0.014": 0.0,
			"-0.013": 0.360779558096,
			"-0.012": 1.03267903687,
			"-0.011": 0.974837065465,
			"-0.01": 0.814342509175,
			"-0.009": 1.06166106315,
			"-0.008": 1.10646733077,
			"-0.007": 2.05274523465,
			"-0.006": 6.16950967595,
			"-0.005": 13.8093030748,
			"-0.004": 26.3791484276,
			"-0.003": 32.7952311156,
			"-0.002": 40.0518540285,
			"-0.001": 41.2825894672,
			"0.0": 29.7004725949,
			"0.001": 21.093603742,
			"0.002": 11.051435745,
			"0.003": 7.47018109048,
			"0.004": 8.24566288356,
			"0.005": 10.5054987767,
			"0.006": 11.3620516883,
			"0.007": 9.87161971596,
			"0.008": 4.08994953028,
			"0.009": 1.564966715,
			"0.01": 1.91283734193,
			"0.011": 1.60374029335,
			"0.012": 1.68161518114,
			"0.013": 1.40616758491,
			"0.014": 1.23841615236,
			"0.015": 1.10260044904,
			"0.016": 0.844634998318,
			"0.017": 1.1590443634,
			"0.018": 0.709238069775,
			"0.019": 0.205688338787,
			"0.02": 0.0,
			"0.021": 0.0,
			"0.022": 0.0,
			"0.023": 0.0,
			"0.024": 0.0,
			"0.025": 0.0
		}
	}
}
