{
	 "smiles": "OC(=O)C1=CC2=C(S1)C=CC=C2F", 
	 "Tm": 488.15, 
	 "num_atms": 18, 
	 "gaussian": { 
		 "optdone": 1, 
		 "sigma_profile": "yes", 
		 "theory": "DFT", 
		 "functional": "B3LYP", 
		 "basiset": "6-31G**", 
		 "properties": { 
			 "R2extent": 3054.8215, 
			 "electric_dipole_moment_norm": 4.75280451734, 
			 "electric_quadrupole_moment_norm": 16.1968667124, 
			 "total_energy": -994.446374928, 
			 "HOMO_LUMO_gap": 0.16326, 
			 "cosmo_polarized_energy": -14.66, 
			 "cosmo_cavitation_energy": 25.12, 
			 "cosmo_dispersion_energy": -19.05, 
			 "cosmo_repulsion_energy": 1.42, 
			 "cosmo_total_nonelectrostatic_energy": 7.48, 
			 "SMD_solvation_energy": 5.46 
		},
		"coords": [
			{
				"x": 2.1522183593,
				"y": 0.2316126008,
				"z": -3.4965849654,
				"element": "O" 
			},
			{
				"x": 1.6731471083,
				"y": 1.2891704071,
				"z": -2.7928976484,
				"element": "C" 
			},
			{
				"x": 2.0125290794,
				"y": 2.4162280791,
				"z": -3.0705113387,
				"element": "O" 
			},
			{
				"x": 0.7338969103,
				"y": 0.9843772254,
				"z": -1.6877643379,
				"element": "C" 
			},
			{
				"x": 0.400844912,
				"y": -0.2157763872,
				"z": -1.1217750491,
				"element": "C" 
			},
			{
				"x": -0.5364536664,
				"y": -0.0771180636,
				"z": -0.0507132434,
				"element": "C" 
			},
			{
				"x": -0.901416331,
				"y": 1.2733613746,
				"z": 0.1828194581,
				"element": "C" 
			},
			{
				"x": -0.07100004,
				"y": 2.3471104344,
				"z": -0.9228204823,
				"element": "S" 
			},
			{
				"x": -1.8121342461,
				"y": 1.6213767821,
				"z": 1.1894938907,
				"element": "C" 
			},
			{
				"x": -2.3554827606,
				"y": 0.6045381834,
				"z": 1.9653361421,
				"element": "C" 
			},
			{
				"x": -2.0114577061,
				"y": -0.746271768,
				"z": 1.7594581531,
				"element": "C" 
			},
			{
				"x": -1.1133890963,
				"y": -1.0659416843,
				"z": 0.7626146527,
				"element": "C" 
			},
			{
				"x": -0.7674117909,
				"y": -2.3513092118,
				"z": 0.5442737191,
				"element": "F" 
			},
			{
				"x": 1.702903727,
				"y": -0.5854099361,
				"z": -3.2400411061,
				"element": "H" 
			},
			{
				"x": 0.8073825237,
				"y": -1.1776885582,
				"z": -1.415281111,
				"element": "H" 
			},
			{
				"x": -2.0859684102,
				"y": 2.6568990449,
				"z": 1.3607890464,
				"element": "H" 
			},
			{
				"x": -3.0625386364,
				"y": 0.8518795452,
				"z": 2.7509670659,
				"element": "H" 
			},
			{
				"x": -2.4378699361,
				"y": -1.536338068,
				"z": 2.3671371542,
				"element": "H" 
			}
		],
		 "valence_orbital": [ 
			{
				"type": "occ",
				"energy": -0.32268,
				"method": "rhf"
			},
			{
				"type": "occ",
				"energy": -0.30012,
				"method": "rhf"
			},
			{
				"type": "occ",
				"energy": -0.28491,
				"method": "rhf"
			},
			{
				"type": "occ",
				"energy": -0.26006,
				"method": "rhf"
			},
			{
				"type": "occ",
				"energy": -0.23754,
				"method": "rhf"
			},
			{
				"type": "unocc",
				"energy": -0.07428,
				"method": "rhf"
			},
			{
				"type": "unocc",
				"energy": -0.01975,
				"method": "rhf"
			},
			{
				"type": "unocc",
				"energy": 0.00186,
				"method": "rhf"
			},
			{
				"type": "unocc",
				"energy": 0.00762,
				"method": "rhf"
			},
			{
				"type": "unocc",
				"energy": 0.04654,
				"method": "rhf"
			}
		],
		"cosmo_sigma_profile": { 
			"-0.025": 0.0,
			"-0.024": 0.0,
			"-0.023": 0.0,
			"-0.022": 0.0,
			"-0.021": 0.0,
			"-0.02": 0.242239343827,
			"-0.019": 0.881483850071,
			"-0.018": 1.0373946869,
			"-0.017": 1.20947998669,
			"-0.016": 1.51561997731,
			"-0.015": 0.783436497629,
			"-0.014": 0.442338259719,
			"-0.013": 1.55859831388,
			"-0.012": 1.41967222984,
			"-0.011": 0.992264053071,
			"-0.01": 1.06137147449,
			"-0.009": 1.54434036831,
			"-0.008": 3.55014344141,
			"-0.007": 7.97861819532,
			"-0.006": 8.05144732695,
			"-0.005": 9.97432876342,
			"-0.004": 7.79340985494,
			"-0.003": 9.42597094392,
			"-0.002": 8.70455344379,
			"-0.001": 12.1089779644,
			"0.0": 19.4323297541,
			"0.001": 23.6395726786,
			"0.002": 18.1929916854,
			"0.003": 20.5837819184,
			"0.004": 13.3624563572,
			"0.005": 2.40263142842,
			"0.006": 2.53274794018,
			"0.007": 3.30286376087,
			"0.008": 2.96757246218,
			"0.009": 3.85868468426,
			"0.01": 5.34981191237,
			"0.011": 5.40106803309,
			"0.012": 3.00480325038,
			"0.013": 0.750537298645,
			"0.014": 0.0,
			"0.015": 0.0,
			"0.016": 0.0,
			"0.017": 0.0,
			"0.018": 0.0,
			"0.019": 0.0,
			"0.02": 0.0,
			"0.021": 0.0,
			"0.022": 0.0,
			"0.023": 0.0,
			"0.024": 0.0,
			"0.025": 0.0
		}
	}
}
