{
	 "smiles": "COC1=C(N)C=C(C=C1)S(=O)(=O)NC(C)(C)C", 
	 "Tm": 393.15, 
	 "num_atms": 35, 
	 "gaussian": { 
		 "optdone": 1, 
		 "sigma_profile": "yes", 
		 "theory": "DFT", 
		 "functional": "B3LYP", 
		 "basiset": "6-31G**", 
		 "properties": { 
			 "R2extent": 5597.5838, 
			 "electric_dipole_moment_norm": 7.5438375917, 
			 "electric_quadrupole_moment_norm": 21.9407200682, 
			 "total_energy": -1163.31373052, 
			 "HOMO_LUMO_gap": 0.18819, 
			 "cosmo_polarized_energy": -21.13, 
			 "cosmo_cavitation_energy": 37.96, 
			 "cosmo_dispersion_energy": -26.65, 
			 "cosmo_repulsion_energy": 2.03, 
			 "cosmo_total_nonelectrostatic_energy": 13.35, 
			 "SMD_solvation_energy": 6.19 
		},
		"coords": [
			{
				"x": -0.9724802594,
				"y": 2.4679730083,
				"z": 4.9358701972,
				"element": "C" 
			},
			{
				"x": 0.2031925461,
				"y": 2.1946454259,
				"z": 4.1877867933,
				"element": "O" 
			},
			{
				"x": 0.0903828176,
				"y": 2.0400675394,
				"z": 2.8332913452,
				"element": "C" 
			},
			{
				"x": 1.3246678115,
				"y": 1.7921290072,
				"z": 2.1740545688,
				"element": "C" 
			},
			{
				"x": 2.4975073384,
				"y": 1.8092193126,
				"z": 2.9148696031,
				"element": "N" 
			},
			{
				"x": 1.3103323352,
				"y": 1.6002219244,
				"z": 0.7920195755,
				"element": "C" 
			},
			{
				"x": 0.1038671214,
				"y": 1.6609420271,
				"z": 0.0847195938,
				"element": "C" 
			},
			{
				"x": -1.1008591433,
				"y": 1.9251905685,
				"z": 0.7266356067,
				"element": "C" 
			},
			{
				"x": -1.0996139432,
				"y": 2.1126944969,
				"z": 2.1144594545,
				"element": "C" 
			},
			{
				"x": 0.1250024591,
				"y": 1.3835918092,
				"z": -1.6895107691,
				"element": "S" 
			},
			{
				"x": 1.3964186475,
				"y": 1.9137409424,
				"z": -2.1941342071,
				"element": "O" 
			},
			{
				"x": -1.1663204459,
				"y": 1.841169282,
				"z": -2.2060985917,
				"element": "O" 
			},
			{
				"x": 0.2546541439,
				"y": -0.2633824353,
				"z": -1.9940066761,
				"element": "N" 
			},
			{
				"x": -0.6737414087,
				"y": -1.3682359802,
				"z": -1.6241479307,
				"element": "C" 
			},
			{
				"x": -0.2258857691,
				"y": -2.5568078351,
				"z": -2.495769158,
				"element": "C" 
			},
			{
				"x": -2.1232367633,
				"y": -1.0003735907,
				"z": -1.9731942203,
				"element": "C" 
			},
			{
				"x": -0.5547474348,
				"y": -1.7469490953,
				"z": -0.1342135861,
				"element": "C" 
			},
			{
				"x": -1.4393663366,
				"y": 3.4079359293,
				"z": 4.6171768562,
				"element": "H" 
			},
			{
				"x": -1.7031928689,
				"y": 1.6540711166,
				"z": 4.8480203932,
				"element": "H" 
			},
			{
				"x": -0.6554362396,
				"y": 2.5575053839,
				"z": 5.9757921561,
				"element": "H" 
			},
			{
				"x": 3.2796307735,
				"y": 1.3085365912,
				"z": 2.5200195677,
				"element": "H" 
			},
			{
				"x": 2.3753877919,
				"y": 1.6695607472,
				"z": 3.9072680353,
				"element": "H" 
			},
			{
				"x": 2.2429845355,
				"y": 1.4428114575,
				"z": 0.2591029319,
				"element": "H" 
			},
			{
				"x": -2.0168321621,
				"y": 2.0056975459,
				"z": 0.1540248298,
				"element": "H" 
			},
			{
				"x": -2.033925191,
				"y": 2.3207979542,
				"z": 2.6222626491,
				"element": "H" 
			},
			{
				"x": 1.2360125102,
				"y": -0.5196904301,
				"z": -1.9497724915,
				"element": "H" 
			},
			{
				"x": 0.8141529326,
				"y": -2.8337764216,
				"z": -2.2853072226,
				"element": "H" 
			},
			{
				"x": -0.307081085,
				"y": -2.3087473202,
				"z": -3.5572988307,
				"element": "H" 
			},
			{
				"x": -0.849540398,
				"y": -3.4321416442,
				"z": -2.2894567537,
				"element": "H" 
			},
			{
				"x": -2.203755245,
				"y": -0.6824935213,
				"z": -3.0148900069,
				"element": "H" 
			},
			{
				"x": -2.5019986627,
				"y": -0.1895752257,
				"z": -1.3486680891,
				"element": "H" 
			},
			{
				"x": -2.7594059818,
				"y": -1.8777293194,
				"z": -1.8185322856,
				"element": "H" 
			},
			{
				"x": 0.4792818737,
				"y": -2.0035594385,
				"z": 0.1223587588,
				"element": "H" 
			},
			{
				"x": -0.872587718,
				"y": -0.9268372669,
				"z": 0.513778316,
				"element": "H" 
			},
			{
				"x": -1.1807685815,
				"y": -2.6179025449,
				"z": 0.0877895874,
				"element": "H" 
			}
		],
		 "valence_orbital": [ 
			{
				"type": "occ",
				"energy": -0.28689,
				"method": "rhf"
			},
			{
				"type": "occ",
				"energy": -0.28562,
				"method": "rhf"
			},
			{
				"type": "occ",
				"energy": -0.26621,
				"method": "rhf"
			},
			{
				"type": "occ",
				"energy": -0.24078,
				"method": "rhf"
			},
			{
				"type": "occ",
				"energy": -0.20564,
				"method": "rhf"
			},
			{
				"type": "unocc",
				"energy": -0.01745,
				"method": "rhf"
			},
			{
				"type": "unocc",
				"energy": -0.00103,
				"method": "rhf"
			},
			{
				"type": "unocc",
				"energy": 0.06062,
				"method": "rhf"
			},
			{
				"type": "unocc",
				"energy": 0.07473,
				"method": "rhf"
			},
			{
				"type": "unocc",
				"energy": 0.08045,
				"method": "rhf"
			}
		],
		"cosmo_sigma_profile": { 
			"-0.025": 0.0,
			"-0.024": 0.0,
			"-0.023": 0.0,
			"-0.022": 0.0,
			"-0.021": 0.0,
			"-0.02": 0.0,
			"-0.019": 0.0,
			"-0.018": 0.0,
			"-0.017": 0.0,
			"-0.016": 0.0,
			"-0.015": 0.0,
			"-0.014": 0.220926655717,
			"-0.013": 1.71990158369,
			"-0.012": 2.34647539731,
			"-0.011": 3.19653260057,
			"-0.01": 3.96817533302,
			"-0.009": 3.23033157786,
			"-0.008": 4.27954716036,
			"-0.007": 6.05470829679,
			"-0.006": 12.8102193714,
			"-0.005": 16.7251873151,
			"-0.004": 24.0092842734,
			"-0.003": 26.7251379094,
			"-0.002": 22.763776266,
			"-0.001": 21.0916768539,
			"0.0": 27.1934340934,
			"0.001": 23.7597516002,
			"0.002": 15.5980437579,
			"0.003": 14.4388580662,
			"0.004": 11.6637735566,
			"0.005": 7.47848330287,
			"0.006": 6.38740015645,
			"0.007": 6.1305802754,
			"0.008": 4.64016992044,
			"0.009": 6.44484696247,
			"0.01": 5.12149466212,
			"0.011": 8.3969601723,
			"0.012": 8.65877910294,
			"0.013": 2.35550905219,
			"0.014": 0.0799163209848,
			"0.015": 0.0,
			"0.016": 0.0,
			"0.017": 0.0,
			"0.018": 0.0,
			"0.019": 0.0,
			"0.02": 0.0,
			"0.021": 0.0,
			"0.022": 0.0,
			"0.023": 0.0,
			"0.024": 0.0,
			"0.025": 0.0
		}
	}
}
