{
	 "smiles": "CCCCC1=NC(Cl)=C(CO)N1CC1=CC=C(C=C1)C1=CC=CC=C1C1=NNN=N1", 
	 "Tm": 457.15, 
	 "num_atms": 53, 
	 "gaussian": { 
		 "optdone": 1, 
		 "sigma_profile": "yes", 
		 "theory": "DFT", 
		 "functional": "B3LYP", 
		 "basiset": "6-31G**", 
		 "properties": { 
			 "R2extent": 16638.0495, 
			 "electric_dipole_moment_norm": 3.97632291068, 
			 "electric_quadrupole_moment_norm": 23.794208952, 
			 "total_energy": -1716.08958984, 
			 "HOMO_LUMO_gap": 0.17162, 
			 "cosmo_polarized_energy": -25.17, 
			 "cosmo_cavitation_energy": 58.69, 
			 "cosmo_dispersion_energy": -38.44, 
			 "cosmo_repulsion_energy": 2.98, 
			 "cosmo_total_nonelectrostatic_energy": 23.22, 
			 "SMD_solvation_energy": 5.42 
		},
		"coords": [
			{
				"x": 0.6252780855,
				"y": 5.2982980413,
				"z": 3.2252695068,
				"element": "C" 
			},
			{
				"x": 0.7200371897,
				"y": 4.1033663212,
				"z": 2.2714177934,
				"element": "C" 
			},
			{
				"x": 2.0235674318,
				"y": 4.0954629045,
				"z": 1.4626246815,
				"element": "C" 
			},
			{
				"x": 2.1394434368,
				"y": 2.9284840105,
				"z": 0.4683524208,
				"element": "C" 
			},
			{
				"x": 2.3328118534,
				"y": 1.5924167774,
				"z": 1.1324149562,
				"element": "C" 
			},
			{
				"x": 2.6839315023,
				"y": 1.4162505697,
				"z": 2.3976284555,
				"element": "N" 
			},
			{
				"x": 2.7882403561,
				"y": 0.0698280658,
				"z": 2.5509951051,
				"element": "C" 
			},
			{
				"x": 3.2344176885,
				"y": -0.632781379,
				"z": 4.0800629404,
				"element": "Cl" 
			},
			{
				"x": 2.5005867458,
				"y": -0.6166839395,
				"z": 1.3938294693,
				"element": "C" 
			},
			{
				"x": 2.5064938385,
				"y": -2.0684287367,
				"z": 1.0506631574,
				"element": "C" 
			},
			{
				"x": 3.487953271,
				"y": -2.4064344295,
				"z": 0.0611069564,
				"element": "O" 
			},
			{
				"x": 2.2110352642,
				"y": 0.3923104984,
				"z": 0.4778386727,
				"element": "N" 
			},
			{
				"x": 1.8474297817,
				"y": 0.1682517808,
				"z": -0.9191717201,
				"element": "C" 
			},
			{
				"x": 0.3898017317,
				"y": -0.2075999338,
				"z": -1.1380599859,
				"element": "C" 
			},
			{
				"x": 0.0375474074,
				"y": -0.9344641743,
				"z": -2.281151554,
				"element": "C" 
			},
			{
				"x": -1.2916536924,
				"y": -1.2654102693,
				"z": -2.5345461494,
				"element": "C" 
			},
			{
				"x": -2.307048725,
				"y": -0.8935033129,
				"z": -1.6415867371,
				"element": "C" 
			},
			{
				"x": -1.9498194573,
				"y": -0.1629189709,
				"z": -0.4993235271,
				"element": "C" 
			},
			{
				"x": -0.6217098969,
				"y": 0.1763955089,
				"z": -0.2509591273,
				"element": "C" 
			},
			{
				"x": -3.7314245767,
				"y": -1.2170705913,
				"z": -1.9358665379,
				"element": "C" 
			},
			{
				"x": -4.2741142739,
				"y": -0.780989903,
				"z": -3.1551928523,
				"element": "C" 
			},
			{
				"x": -5.6169817382,
				"y": -0.9757558651,
				"z": -3.4709506761,
				"element": "C" 
			},
			{
				"x": -6.4574741752,
				"y": -1.6141872133,
				"z": -2.5584635031,
				"element": "C" 
			},
			{
				"x": -5.9372938518,
				"y": -2.0733484145,
				"z": -1.3523389779,
				"element": "C" 
			},
			{
				"x": -4.5815629801,
				"y": -1.8961573805,
				"z": -1.0316513705,
				"element": "C" 
			},
			{
				"x": -4.1002521768,
				"y": -2.4854626228,
				"z": 0.2306016361,
				"element": "C" 
			},
			{
				"x": -4.8531058165,
				"y": -2.563701449,
				"z": 1.332395144,
				"element": "N" 
			},
			{
				"x": -4.0405546072,
				"y": -3.2198712971,
				"z": 2.1521554304,
				"element": "N" 
			},
			{
				"x": -2.85978377,
				"y": -3.5404145849,
				"z": 1.6300967205,
				"element": "N" 
			},
			{
				"x": -2.8834109502,
				"y": -3.0834322545,
				"z": 0.4071326485,
				"element": "N" 
			},
			{
				"x": 1.4466845008,
				"y": 5.2883400034,
				"z": 3.9502992287,
				"element": "H" 
			},
			{
				"x": -0.3138879465,
				"y": 5.286046358,
				"z": 3.7880169794,
				"element": "H" 
			},
			{
				"x": 0.6745830641,
				"y": 6.2491543877,
				"z": 2.6814861339,
				"element": "H" 
			},
			{
				"x": -0.1351412383,
				"y": 4.1173934117,
				"z": 1.5805146417,
				"element": "H" 
			},
			{
				"x": 0.6502625076,
				"y": 3.1722215233,
				"z": 2.8439353314,
				"element": "H" 
			},
			{
				"x": 2.104408973,
				"y": 5.0321589926,
				"z": 0.8961083036,
				"element": "H" 
			},
			{
				"x": 2.8768826838,
				"y": 4.0614424668,
				"z": 2.1485006413,
				"element": "H" 
			},
			{
				"x": 2.986158043,
				"y": 3.1142036992,
				"z": -0.2087480646,
				"element": "H" 
			},
			{
				"x": 1.2452657578,
				"y": 2.8984618579,
				"z": -0.1685651251,
				"element": "H" 
			},
			{
				"x": 1.5497673833,
				"y": -2.3774605773,
				"z": 0.6179623328,
				"element": "H" 
			},
			{
				"x": 2.6510450195,
				"y": -2.6401002358,
				"z": 1.9759462292,
				"element": "H" 
			},
			{
				"x": 4.3495721141,
				"y": -2.1489264467,
				"z": 0.4166827673,
				"element": "H" 
			},
			{
				"x": 2.0901182829,
				"y": 1.082299312,
				"z": -1.4708008476,
				"element": "H" 
			},
			{
				"x": 2.4976726594,
				"y": -0.623505212,
				"z": -1.3008850371,
				"element": "H" 
			},
			{
				"x": 0.8108341747,
				"y": -1.2555785356,
				"z": -2.9750217398,
				"element": "H" 
			},
			{
				"x": -1.5435897365,
				"y": -1.8457861832,
				"z": -3.4172877463,
				"element": "H" 
			},
			{
				"x": -2.7210313197,
				"y": 0.1498644359,
				"z": 0.1984361839,
				"element": "H" 
			},
			{
				"x": -0.3718819012,
				"y": 0.7356419312,
				"z": 0.6455901957,
				"element": "H" 
			},
			{
				"x": -3.6275825596,
				"y": -0.2521141784,
				"z": -3.849114399,
				"element": "H" 
			},
			{
				"x": -6.0064646827,
				"y": -0.6193688945,
				"z": -4.4201465542,
				"element": "H" 
			},
			{
				"x": -7.5078207638,
				"y": -1.7652148774,
				"z": -2.7884132927,
				"element": "H" 
			},
			{
				"x": -6.5734545508,
				"y": -2.5965315602,
				"z": -0.6460218856,
				"element": "H" 
			},
			{
				"x": -4.291085361,
				"y": -3.4495894352,
				"z": 3.1043027467,
				"element": "H" 
			}
		],
		 "valence_orbital": [ 
			{
				"type": "occ",
				"energy": -0.26621,
				"method": "rhf"
			},
			{
				"type": "occ",
				"energy": -0.25538,
				"method": "rhf"
			},
			{
				"type": "occ",
				"energy": -0.25215,
				"method": "rhf"
			},
			{
				"type": "occ",
				"energy": -0.2321,
				"method": "rhf"
			},
			{
				"type": "occ",
				"energy": -0.21494,
				"method": "rhf"
			},
			{
				"type": "unocc",
				"energy": -0.04332,
				"method": "rhf"
			},
			{
				"type": "unocc",
				"energy": -0.02901,
				"method": "rhf"
			},
			{
				"type": "unocc",
				"energy": -0.01927,
				"method": "rhf"
			},
			{
				"type": "unocc",
				"energy": -0.00713,
				"method": "rhf"
			},
			{
				"type": "unocc",
				"energy": 0.00628,
				"method": "rhf"
			}
		],
		"cosmo_sigma_profile": { 
			"-0.025": 0.0,
			"-0.024": 0.0,
			"-0.023": 0.0,
			"-0.022": 0.0,
			"-0.021": 0.0,
			"-0.02": 0.373574075629,
			"-0.019": 1.9865101697,
			"-0.018": 1.51174734343,
			"-0.017": 1.06485505933,
			"-0.016": 1.04950792786,
			"-0.015": 2.36522598041,
			"-0.014": 1.95013100954,
			"-0.013": 1.43984783922,
			"-0.012": 1.41171275847,
			"-0.011": 1.02557642553,
			"-0.01": 2.02857342964,
			"-0.009": 1.68166349251,
			"-0.008": 1.66116360886,
			"-0.007": 6.04294581023,
			"-0.006": 17.4413698344,
			"-0.005": 26.5375513862,
			"-0.004": 34.6793419289,
			"-0.003": 36.6608883379,
			"-0.002": 43.761585443,
			"-0.001": 42.207030303,
			"0.0": 36.6221599277,
			"0.001": 38.1143727961,
			"0.002": 31.2434435767,
			"0.003": 29.1103155685,
			"0.004": 29.752683308,
			"0.005": 20.456816061,
			"0.006": 9.88924390258,
			"0.007": 7.10249795132,
			"0.008": 7.34571968747,
			"0.009": 7.28599690999,
			"0.01": 7.17595471186,
			"0.011": 6.15072605092,
			"0.012": 4.72368008811,
			"0.013": 3.30309089659,
			"0.014": 1.91950053472,
			"0.015": 0.73750042999,
			"0.016": 0.156982146603,
			"0.017": 0.0,
			"0.018": 0.0,
			"0.019": 0.0,
			"0.02": 0.0,
			"0.021": 0.0,
			"0.022": 0.0,
			"0.023": 0.0,
			"0.024": 0.0,
			"0.025": 0.0
		}
	}
}
