{
	 "smiles": "CCCCCCCCCCCCI", 
	 "Tm": 271.8, 
	 "num_atms": 38, 
	 "gaussian": { 
		 "optdone": 1, 
		 "sigma_profile": "no", 
		 "theory": "DFT", 
		 "functional": "B3LYP", 
		 "basiset": "6-31G**", 
		 "properties": { 
			 "R2extent": 4596.1638, 
			 "electric_dipole_moment_norm": 2.3723650773, 
			 "electric_quadrupole_moment_norm": 9.66352968692, 
			 "total_energy": -483.770402396, 
			 "HOMO_LUMO_gap": 0.21452, 
			 "cosmo_polarized_energy": -98457.03, 
			 "cosmo_cavitation_energy": 40.4, 
			 "cosmo_dispersion_energy": -27.75, 
			 "cosmo_repulsion_energy": 2.25, 
			 "cosmo_total_nonelectrostatic_energy": 14.9, 
			 "SMD_solvation_energy": 4.57 
		},
		"coords": [
			{
				"x": 3.6905682706,
				"y": 0.4306066676,
				"z": -2.4597280123,
				"element": "C" 
			},
			{
				"x": 2.1635790698,
				"y": 0.5585536103,
				"z": -2.4677092106,
				"element": "C" 
			},
			{
				"x": 1.4536256879,
				"y": -0.7663685382,
				"z": -2.7790541083,
				"element": "C" 
			},
			{
				"x": -0.0784149011,
				"y": -0.6669977006,
				"z": -2.8872167683,
				"element": "C" 
			},
			{
				"x": -0.8215440703,
				"y": -0.2423889206,
				"z": -1.6078942654,
				"element": "C" 
			},
			{
				"x": -0.687855728,
				"y": -1.222227258,
				"z": -0.4335191299,
				"element": "C" 
			},
			{
				"x": -1.5273342829,
				"y": -0.8148624633,
				"z": 0.7863925937,
				"element": "C" 
			},
			{
				"x": -1.4388041904,
				"y": -1.7935449925,
				"z": 1.973724206,
				"element": "C" 
			},
			{
				"x": -0.0927063921,
				"y": -1.8428318578,
				"z": 2.7340523513,
				"element": "C" 
			},
			{
				"x": 0.0176721987,
				"y": -0.919638802,
				"z": 3.9626877359,
				"element": "C" 
			},
			{
				"x": -0.0112210679,
				"y": 0.5951924192,
				"z": 3.7083191241,
				"element": "C" 
			},
			{
				"x": 1.0965398169,
				"y": 1.1570644533,
				"z": 2.8261361517,
				"element": "C" 
			},
			{
				"x": 3.1072030875,
				"y": 0.9649332177,
				"z": 3.693566145,
				"element": "I" 
			},
			{
				"x": 4.1725544736,
				"y": 1.3878155911,
				"z": -2.235598083,
				"element": "H" 
			},
			{
				"x": 4.0236987135,
				"y": -0.2926369063,
				"z": -1.7065295114,
				"element": "H" 
			},
			{
				"x": 4.0642439622,
				"y": 0.0888494665,
				"z": -3.4318665302,
				"element": "H" 
			},
			{
				"x": 1.8304580959,
				"y": 0.9424303365,
				"z": -1.4947213547,
				"element": "H" 
			},
			{
				"x": 1.8618882025,
				"y": 1.3116550233,
				"z": -3.2090190005,
				"element": "H" 
			},
			{
				"x": 1.7299756426,
				"y": -1.5115444107,
				"z": -2.0207826796,
				"element": "H" 
			},
			{
				"x": 1.8408049082,
				"y": -1.1560178079,
				"z": -3.7305178304,
				"element": "H" 
			},
			{
				"x": -0.3277219073,
				"y": 0.042943461,
				"z": -3.6877718778,
				"element": "H" 
			},
			{
				"x": -0.4714620457,
				"y": -1.6395625207,
				"z": -3.2138549151,
				"element": "H" 
			},
			{
				"x": -0.4817227621,
				"y": 0.7528998617,
				"z": -1.2908235714,
				"element": "H" 
			},
			{
				"x": -1.8868670195,
				"y": -0.1276286239,
				"z": -1.8505433497,
				"element": "H" 
			},
			{
				"x": 0.3673223337,
				"y": -1.3127545059,
				"z": -0.1454944348,
				"element": "H" 
			},
			{
				"x": -0.9969248332,
				"y": -2.2254415945,
				"z": -0.7615419798,
				"element": "H" 
			},
			{
				"x": -2.5783566323,
				"y": -0.7404197114,
				"z": 0.4755686591,
				"element": "H" 
			},
			{
				"x": -1.2400385114,
				"y": 0.1973309213,
				"z": 1.1004529999,
				"element": "H" 
			},
			{
				"x": -1.665785341,
				"y": -2.7975448219,
				"z": 1.5914711314,
				"element": "H" 
			},
			{
				"x": -2.2399988101,
				"y": -1.5640504342,
				"z": 2.6894835558,
				"element": "H" 
			},
			{
				"x": 0.7404363901,
				"y": -1.6550904741,
				"z": 2.044806536,
				"element": "H" 
			},
			{
				"x": 0.0647719151,
				"y": -2.865984787,
				"z": 3.0959694895,
				"element": "H" 
			},
			{
				"x": 0.9428819445,
				"y": -1.1616461302,
				"z": 4.4997251772,
				"element": "H" 
			},
			{
				"x": -0.8037916837,
				"y": -1.1573631932,
				"z": 4.6513454296,
				"element": "H" 
			},
			{
				"x": -0.957037259,
				"y": 0.8716837563,
				"z": 3.2197193122,
				"element": "H" 
			},
			{
				"x": -0.0040209515,
				"y": 1.1207006893,
				"z": 4.669887612,
				"element": "H" 
			},
			{
				"x": 0.9877015454,
				"y": 2.2290670703,
				"z": 2.6681760812,
				"element": "H" 
			},
			{
				"x": 1.1752821307,
				"y": 0.6567199096,
				"z": 1.8620023216,
				"element": "H" 
			}
		],
		 "valence_orbital": [ 
			{
				"type": "occ",
				"energy": -0.3082,
				"method": "rhf"
			},
			{
				"type": "occ",
				"energy": -0.3076,
				"method": "rhf"
			},
			{
				"type": "occ",
				"energy": -0.30285,
				"method": "rhf"
			},
			{
				"type": "occ",
				"energy": -0.25538,
				"method": "rhf"
			},
			{
				"type": "occ",
				"energy": -0.2536,
				"method": "rhf"
			},
			{
				"type": "unocc",
				"energy": -0.03908,
				"method": "rhf"
			},
			{
				"type": "unocc",
				"energy": 0.03243,
				"method": "rhf"
			},
			{
				"type": "unocc",
				"energy": 0.04255,
				"method": "rhf"
			},
			{
				"type": "unocc",
				"energy": 0.05605,
				"method": "rhf"
			},
			{
				"type": "unocc",
				"energy": 0.08017,
				"method": "rhf"
			}
		],
		"cosmo_sigma_profile": { 
			"0.0": 0.0,
			"0.0": 0.0,
			"0.0": 0.0,
			"0.0": 0.0,
			"0.0": 0.0,
			"0.0": 0.0,
			"0.0": 0.0,
			"0.0": 0.0,
			"0.0": 0.0,
			"0.0": 0.0,
			"0.0": 0.0,
			"0.0": 0.0,
			"0.0": 0.0,
			"0.0": 0.0,
			"0.0": 0.0,
			"0.0": 0.0,
			"0.0": 0.0,
			"0.0": 0.0,
			"0.0": 0.0,
			"0.0": 0.0,
			"0.0": 0.0,
			"0.0": 0.0,
			"0.0": 0.0,
			"0.0": 0.0,
			"0.0": 0.0,
			"0.0": 0.0,
			"0.0": 0.0,
			"0.0": 0.0,
			"0.0": 0.0,
			"0.0": 0.0,
			"0.0": 0.0,
			"0.0": 0.0,
			"0.0": 0.0,
			"0.0": 0.0,
			"0.0": 0.0,
			"0.0": 0.0,
			"0.0": 0.0,
			"0.0": 0.0,
			"0.0": 0.0,
			"0.0": 0.0,
			"0.0": 0.0,
			"0.0": 0.0,
			"0.0": 0.0,
			"0.0": 0.0,
			"0.0": 0.0,
			"0.0": 0.0,
			"0.0": 0.0,
			"0.0": 0.0,
			"0.0": 0.0,
			"0.0": 0.0,
			"0.0": 0.0
		}
	}
}
