{
	 "smiles": "BrC1=CC=C(C=C1)N=C=O", 
	 "Tm": 314.15, 
	 "num_atms": 14, 
	 "gaussian": { 
		 "optdone": 1, 
		 "sigma_profile": "yes", 
		 "theory": "DFT", 
		 "functional": "B3LYP", 
		 "basiset": "6-31G**", 
		 "properties": { 
			 "R2extent": 4144.3687, 
			 "electric_dipole_moment_norm": 0.655682995052, 
			 "electric_quadrupole_moment_norm": 10.421048939, 
			 "total_energy": -2970.53295479, 
			 "HOMO_LUMO_gap": 0.20126, 
			 "cosmo_polarized_energy": -5.24, 
			 "cosmo_cavitation_energy": 22.39, 
			 "cosmo_dispersion_energy": -16.63, 
			 "cosmo_repulsion_energy": 1.35, 
			 "cosmo_total_nonelectrostatic_energy": 7.1, 
			 "SMD_solvation_energy": 5.08 
		},
		"coords": [
			{
				"x": -3.7945827538,
				"y": 1.0108280089,
				"z": -0.8384855333,
				"element": "Br" 
			},
			{
				"x": -2.3157844491,
				"y": 0.4556031803,
				"z": 0.2337100094,
				"element": "C" 
			},
			{
				"x": -2.0610504885,
				"y": 1.1044903329,
				"z": 1.4419297842,
				"element": "C" 
			},
			{
				"x": -0.9829137275,
				"y": 0.6998566506,
				"z": 2.2244415102,
				"element": "C" 
			},
			{
				"x": -0.159533672,
				"y": -0.3534849139,
				"z": 1.7989445794,
				"element": "C" 
			},
			{
				"x": -0.4271715944,
				"y": -0.9956375108,
				"z": 0.5837602663,
				"element": "C" 
			},
			{
				"x": -1.505252918,
				"y": -0.59235193,
				"z": -0.2005152906,
				"element": "C" 
			},
			{
				"x": 0.9315207617,
				"y": -0.7915664029,
				"z": 2.5518115439,
				"element": "N" 
			},
			{
				"x": 1.4996527975,
				"y": -0.5484427109,
				"z": 3.5923185648,
				"element": "C" 
			},
			{
				"x": 2.1410809661,
				"y": -0.4163855349,
				"z": 4.5714236078,
				"element": "O" 
			},
			{
				"x": -2.6980513275,
				"y": 1.918080796,
				"z": 1.7694262233,
				"element": "H" 
			},
			{
				"x": -0.7781099051,
				"y": 1.1999376208,
				"z": 3.1661743279,
				"element": "H" 
			},
			{
				"x": 0.2146405602,
				"y": -1.8088270327,
				"z": 0.2628459078,
				"element": "H" 
			},
			{
				"x": -1.7130442497,
				"y": -1.0890005534,
				"z": -1.1411855009,
				"element": "H" 
			}
		],
		 "valence_orbital": [ 
			{
				"type": "occ",
				"energy": -0.31659,
				"method": "rhf"
			},
			{
				"type": "occ",
				"energy": -0.30018,
				"method": "rhf"
			},
			{
				"type": "occ",
				"energy": -0.2941,
				"method": "rhf"
			},
			{
				"type": "occ",
				"energy": -0.27761,
				"method": "rhf"
			},
			{
				"type": "occ",
				"energy": -0.23777,
				"method": "rhf"
			},
			{
				"type": "unocc",
				"energy": -0.03651,
				"method": "rhf"
			},
			{
				"type": "unocc",
				"energy": -0.02669,
				"method": "rhf"
			},
			{
				"type": "unocc",
				"energy": -0.00522,
				"method": "rhf"
			},
			{
				"type": "unocc",
				"energy": 0.01056,
				"method": "rhf"
			},
			{
				"type": "unocc",
				"energy": 0.0668,
				"method": "rhf"
			}
		],
		"cosmo_sigma_profile": { 
			"-0.025": 0.0,
			"-0.024": 0.0,
			"-0.023": 0.0,
			"-0.022": 0.0,
			"-0.021": 0.0,
			"-0.02": 0.0,
			"-0.019": 0.0,
			"-0.018": 0.0,
			"-0.017": 0.0,
			"-0.016": 0.0,
			"-0.015": 0.0,
			"-0.014": 0.0,
			"-0.013": 0.0,
			"-0.012": 0.0,
			"-0.011": 0.0,
			"-0.01": 0.0,
			"-0.009": 0.936899084638,
			"-0.008": 4.26564920172,
			"-0.007": 8.48163872526,
			"-0.006": 9.11459648553,
			"-0.005": 8.21449796571,
			"-0.004": 9.68102019627,
			"-0.003": 11.7424876206,
			"-0.002": 12.0530156409,
			"-0.001": 10.8149144388,
			"0.0": 13.8997213428,
			"0.001": 18.0793453097,
			"0.002": 24.7628359203,
			"0.003": 18.7641404227,
			"0.004": 14.4853699164,
			"0.005": 7.72330170131,
			"0.006": 2.99567422882,
			"0.007": 7.30912965754,
			"0.008": 1.80540102597,
			"0.009": 0.0,
			"0.01": 0.0,
			"0.011": 0.0,
			"0.012": 0.0,
			"0.013": 0.0,
			"0.014": 0.0,
			"0.015": 0.0,
			"0.016": 0.0,
			"0.017": 0.0,
			"0.018": 0.0,
			"0.019": 0.0,
			"0.02": 0.0,
			"0.021": 0.0,
			"0.022": 0.0,
			"0.023": 0.0,
			"0.024": 0.0,
			"0.025": 0.0
		}
	}
}
