{
	 "smiles": "CC(C)CN1C=C(C(O)=O)C2=C1C=CC=C2", 
	 "Tm": 425.15, 
	 "num_atms": 31, 
	 "gaussian": { 
		 "optdone": 1, 
		 "sigma_profile": "yes", 
		 "theory": "DFT", 
		 "functional": "B3LYP", 
		 "basiset": "6-31G**", 
		 "properties": { 
			 "R2extent": 4517.0401, 
			 "electric_dipole_moment_norm": 6.2764269278, 
			 "electric_quadrupole_moment_norm": 29.3621546903, 
			 "total_energy": -709.654039142, 
			 "HOMO_LUMO_gap": 0.1851, 
			 "cosmo_polarized_energy": -16.05, 
			 "cosmo_cavitation_energy": 33.75, 
			 "cosmo_dispersion_energy": -23.66, 
			 "cosmo_repulsion_energy": 1.83, 
			 "cosmo_total_nonelectrostatic_energy": 11.92, 
			 "SMD_solvation_energy": 6.59 
		},
		"coords": [
			{
				"x": 1.0276324697,
				"y": -0.0837596296,
				"z": 3.090656673,
				"element": "C" 
			},
			{
				"x": -0.158509688,
				"y": -0.7839287339,
				"z": 2.4158578169,
				"element": "C" 
			},
			{
				"x": -0.8603320784,
				"y": -1.7532447125,
				"z": 3.3778707102,
				"element": "C" 
			},
			{
				"x": 0.2694382133,
				"y": -1.5478737246,
				"z": 1.1452709509,
				"element": "C" 
			},
			{
				"x": 0.8249231214,
				"y": -0.7049878791,
				"z": 0.0918641917,
				"element": "N" 
			},
			{
				"x": 2.1554088878,
				"y": -0.5356622616,
				"z": -0.1796986677,
				"element": "C" 
			},
			{
				"x": 2.3309752342,
				"y": 0.3458488232,
				"z": -1.2261552783,
				"element": "C" 
			},
			{
				"x": 3.6625557715,
				"y": 0.6801517345,
				"z": -1.7568035705,
				"element": "C" 
			},
			{
				"x": 3.6876679652,
				"y": 1.2346897664,
				"z": -3.0059157056,
				"element": "O" 
			},
			{
				"x": 4.7006617649,
				"y": 0.4839628218,
				"z": -1.1639397316,
				"element": "O" 
			},
			{
				"x": 1.0097748565,
				"y": 0.7783194858,
				"z": -1.6247518327,
				"element": "C" 
			},
			{
				"x": 0.0917120128,
				"y": 0.0929944585,
				"z": -0.7806715935,
				"element": "C" 
			},
			{
				"x": -1.2927080489,
				"y": 0.2602883073,
				"z": -0.8901104597,
				"element": "C" 
			},
			{
				"x": -1.7619839607,
				"y": 1.1406775602,
				"z": -1.8591990863,
				"element": "C" 
			},
			{
				"x": -0.8721515658,
				"y": 1.8506054363,
				"z": -2.6875599592,
				"element": "C" 
			},
			{
				"x": 0.5029781933,
				"y": 1.6828541605,
				"z": -2.5758068308,
				"element": "C" 
			},
			{
				"x": 1.7754407055,
				"y": -0.8133268967,
				"z": 3.4258604926,
				"element": "H" 
			},
			{
				"x": 1.521998637,
				"y": 0.6206656336,
				"z": 2.4156210332,
				"element": "H" 
			},
			{
				"x": 0.6952806467,
				"y": 0.4761115243,
				"z": 3.9705466953,
				"element": "H" 
			},
			{
				"x": -0.8822042124,
				"y": -0.0161609945,
				"z": 2.1107931999,
				"element": "H" 
			},
			{
				"x": -1.2059208259,
				"y": -1.2288168855,
				"z": 4.2738695604,
				"element": "H" 
			},
			{
				"x": -1.730792597,
				"y": -2.2286201554,
				"z": 2.9121844543,
				"element": "H" 
			},
			{
				"x": -0.1786259525,
				"y": -2.5484095564,
				"z": 3.7033680718,
				"element": "H" 
			},
			{
				"x": -0.5866125156,
				"y": -2.0903632306,
				"z": 0.7281879537,
				"element": "H" 
			},
			{
				"x": 1.0285239926,
				"y": -2.295601254,
				"z": 1.3995738245,
				"element": "H" 
			},
			{
				"x": 2.914493523,
				"y": -1.0679882337,
				"z": 0.3751865219,
				"element": "H" 
			},
			{
				"x": 2.8170977551,
				"y": 1.1438377522,
				"z": -3.4180867876,
				"element": "H" 
			},
			{
				"x": -1.9817174154,
				"y": -0.2713967265,
				"z": -0.2415342045,
				"element": "H" 
			},
			{
				"x": -2.8314177993,
				"y": 1.2919987901,
				"z": -1.9694042607,
				"element": "H" 
			},
			{
				"x": -1.2676607488,
				"y": 2.549000926,
				"z": -3.4187996086,
				"element": "H" 
			},
			{
				"x": 1.1689736581,
				"y": 2.2776336938,
				"z": -3.1955745733,
				"element": "H" 
			}
		],
		 "valence_orbital": [ 
			{
				"type": "occ",
				"energy": -0.30144,
				"method": "rhf"
			},
			{
				"type": "occ",
				"energy": -0.28543,
				"method": "rhf"
			},
			{
				"type": "occ",
				"energy": -0.25825,
				"method": "rhf"
			},
			{
				"type": "occ",
				"energy": -0.23705,
				"method": "rhf"
			},
			{
				"type": "occ",
				"energy": -0.21761,
				"method": "rhf"
			},
			{
				"type": "unocc",
				"energy": -0.03251,
				"method": "rhf"
			},
			{
				"type": "unocc",
				"energy": -0.00163,
				"method": "rhf"
			},
			{
				"type": "unocc",
				"energy": 0.00956,
				"method": "rhf"
			},
			{
				"type": "unocc",
				"energy": 0.06327,
				"method": "rhf"
			},
			{
				"type": "unocc",
				"energy": 0.07908,
				"method": "rhf"
			}
		],
		"cosmo_sigma_profile": { 
			"-0.025": 0.0,
			"-0.024": 0.0,
			"-0.023": 0.0,
			"-0.022": 0.0,
			"-0.021": 0.0,
			"-0.02": 0.0,
			"-0.019": 0.0,
			"-0.018": 0.0,
			"-0.017": 0.0,
			"-0.016": 0.338454130304,
			"-0.015": 0.506484435268,
			"-0.014": 1.11595304193,
			"-0.013": 1.00565384265,
			"-0.012": 0.545241256647,
			"-0.011": 1.25408384035,
			"-0.01": 1.53217155018,
			"-0.009": 2.09248434746,
			"-0.008": 3.23887977951,
			"-0.007": 4.9181606701,
			"-0.006": 11.595763708,
			"-0.005": 16.0407449116,
			"-0.004": 17.3718813907,
			"-0.003": 26.2022558053,
			"-0.002": 25.2049106629,
			"-0.001": 26.0958718534,
			"0.0": 22.9126244892,
			"0.001": 22.5958846894,
			"0.002": 14.1438232775,
			"0.003": 10.9063748812,
			"0.004": 10.8279618737,
			"0.005": 11.1480510988,
			"0.006": 7.10422937957,
			"0.007": 2.73645890536,
			"0.008": 2.33414820502,
			"0.009": 2.38980552851,
			"0.01": 3.77219743593,
			"0.011": 4.83684029962,
			"0.012": 5.40269161367,
			"0.013": 4.88015280549,
			"0.014": 1.57051267532,
			"0.015": 0.0619856814297,
			"0.016": 0.0,
			"0.017": 0.0,
			"0.018": 0.0,
			"0.019": 0.0,
			"0.02": 0.0,
			"0.021": 0.0,
			"0.022": 0.0,
			"0.023": 0.0,
			"0.024": 0.0,
			"0.025": 0.0
		}
	}
}
