{
	 "smiles": "CC1=NC2=C(C=CC=C2)N1CC1=C(Cl)C=CC(N)=C1", 
	 "Tm": 465.15, 
	 "num_atms": 33, 
	 "gaussian": { 
		 "optdone": 1, 
		 "sigma_profile": "yes", 
		 "theory": "DFT", 
		 "functional": "B3LYP", 
		 "basiset": "6-31G**", 
		 "properties": { 
			 "R2extent": 5947.5215, 
			 "electric_dipole_moment_norm": 5.93308734219, 
			 "electric_quadrupole_moment_norm": 24.0455440618, 
			 "total_energy": -1204.50212594, 
			 "HOMO_LUMO_gap": 0.18697, 
			 "cosmo_polarized_energy": -18.54, 
			 "cosmo_cavitation_energy": 37.49, 
			 "cosmo_dispersion_energy": -26.46, 
			 "cosmo_repulsion_energy": 2.01, 
			 "cosmo_total_nonelectrostatic_energy": 13.04, 
			 "SMD_solvation_energy": 3.77 
		},
		"coords": [
			{
				"x": 2.7103711313,
				"y": 1.3801742401,
				"z": 1.0275951422,
				"element": "C" 
			},
			{
				"x": 2.2257292185,
				"y": 1.0749063797,
				"z": -0.3521743739,
				"element": "C" 
			},
			{
				"x": 2.4654962302,
				"y": 1.8393633098,
				"z": -1.3908824273,
				"element": "N" 
			},
			{
				"x": 1.8824839727,
				"y": 1.1894075267,
				"z": -2.4677147358,
				"element": "C" 
			},
			{
				"x": 1.2701320466,
				"y": -0.0121332351,
				"z": -2.0426277438,
				"element": "C" 
			},
			{
				"x": 0.6272243928,
				"y": -0.8733169491,
				"z": -2.934868575,
				"element": "C" 
			},
			{
				"x": 0.6085577959,
				"y": -0.495065832,
				"z": -4.2759526563,
				"element": "C" 
			},
			{
				"x": 1.2086121902,
				"y": 0.7020653838,
				"z": -4.7130591254,
				"element": "C" 
			},
			{
				"x": 1.8485306949,
				"y": 1.5545221777,
				"z": -3.8190134343,
				"element": "C" 
			},
			{
				"x": 1.4883364468,
				"y": -0.0621364113,
				"z": -0.6680200039,
				"element": "N" 
			},
			{
				"x": 1.1503937075,
				"y": -1.1792521083,
				"z": 0.2125843013,
				"element": "C" 
			},
			{
				"x": 0.2360429805,
				"y": -0.8551698057,
				"z": 1.3836332776,
				"element": "C" 
			},
			{
				"x": -1.1122932469,
				"y": -0.5005821087,
				"z": 1.2301259749,
				"element": "C" 
			},
			{
				"x": -1.8449134626,
				"y": -0.3954416202,
				"z": -0.3652146577,
				"element": "Cl" 
			},
			{
				"x": -1.9120832588,
				"y": -0.2449259149,
				"z": 2.3435108862,
				"element": "C" 
			},
			{
				"x": -1.388095645,
				"y": -0.3464120181,
				"z": 3.6272642184,
				"element": "C" 
			},
			{
				"x": -0.0468726325,
				"y": -0.7157157133,
				"z": 3.8196816362,
				"element": "C" 
			},
			{
				"x": 0.4739921866,
				"y": -0.887984853,
				"z": 5.0998269625,
				"element": "N" 
			},
			{
				"x": 0.7407159017,
				"y": -0.963744041,
				"z": 2.6836271709,
				"element": "C" 
			},
			{
				"x": 3.3334958867,
				"y": 0.5713834658,
				"z": 1.4285047571,
				"element": "H" 
			},
			{
				"x": 1.8846292854,
				"y": 1.5355855686,
				"z": 1.7287271974,
				"element": "H" 
			},
			{
				"x": 3.3113854282,
				"y": 2.2886984044,
				"z": 0.9770070663,
				"element": "H" 
			},
			{
				"x": 0.1515845145,
				"y": -1.7936636217,
				"z": -2.611453916,
				"element": "H" 
			},
			{
				"x": 0.1167138848,
				"y": -1.1387987879,
				"z": -4.9994237081,
				"element": "H" 
			},
			{
				"x": 1.1689690481,
				"y": 0.9599311973,
				"z": -5.7673756477,
				"element": "H" 
			},
			{
				"x": 2.3168472922,
				"y": 2.4779484952,
				"z": -4.1446126179,
				"element": "H" 
			},
			{
				"x": 0.6806826088,
				"y": -1.9391680735,
				"z": -0.41641034,
				"element": "H" 
			},
			{
				"x": 2.0742890637,
				"y": -1.6194195829,
				"z": 0.6051542005,
				"element": "H" 
			},
			{
				"x": -2.9512034146,
				"y": 0.0307152868,
				"z": 2.2001678615,
				"element": "H" 
			},
			{
				"x": -2.0246362409,
				"y": -0.1484674516,
				"z": 4.4854702796,
				"element": "H" 
			},
			{
				"x": -0.0058964099,
				"y": -0.3906103024,
				"z": 5.8366879387,
				"element": "H" 
			},
			{
				"x": 1.4782554805,
				"y": -0.8119705855,
				"z": 5.179006006,
				"element": "H" 
			},
			{
				"x": 1.7804229221,
				"y": -1.2541224197,
				"z": 2.8165290859,
				"element": "H" 
			}
		],
		 "valence_orbital": [ 
			{
				"type": "occ",
				"energy": -0.26687,
				"method": "rhf"
			},
			{
				"type": "occ",
				"energy": -0.25638,
				"method": "rhf"
			},
			{
				"type": "occ",
				"energy": -0.21637,
				"method": "rhf"
			},
			{
				"type": "occ",
				"energy": -0.21084,
				"method": "rhf"
			},
			{
				"type": "occ",
				"energy": -0.20908,
				"method": "rhf"
			},
			{
				"type": "unocc",
				"energy": -0.02211,
				"method": "rhf"
			},
			{
				"type": "unocc",
				"energy": -0.00608,
				"method": "rhf"
			},
			{
				"type": "unocc",
				"energy": -0.00265,
				"method": "rhf"
			},
			{
				"type": "unocc",
				"energy": 0.03001,
				"method": "rhf"
			},
			{
				"type": "unocc",
				"energy": 0.03472,
				"method": "rhf"
			}
		],
		"cosmo_sigma_profile": { 
			"-0.025": 0.0,
			"-0.024": 0.0,
			"-0.023": 0.0,
			"-0.022": 0.0,
			"-0.021": 0.0,
			"-0.02": 0.0,
			"-0.019": 0.0,
			"-0.018": 0.0,
			"-0.017": 0.0,
			"-0.016": 0.0,
			"-0.015": 0.0,
			"-0.014": 0.0,
			"-0.013": 1.18549494734,
			"-0.012": 2.87336711268,
			"-0.011": 2.79450941564,
			"-0.01": 3.28139756572,
			"-0.009": 3.64380933889,
			"-0.008": 4.45187427708,
			"-0.007": 13.3446587615,
			"-0.006": 13.3191089083,
			"-0.005": 19.2556751611,
			"-0.004": 20.9204864645,
			"-0.003": 19.09448593,
			"-0.002": 19.3899770737,
			"-0.001": 21.0428305738,
			"0.0": 17.1488703542,
			"0.001": 14.9602408932,
			"0.002": 19.2487727576,
			"0.003": 20.1259928334,
			"0.004": 23.7931101498,
			"0.005": 24.8697967425,
			"0.006": 13.8821713196,
			"0.007": 5.98698071196,
			"0.008": 2.26541710103,
			"0.009": 1.4826789239,
			"0.01": 1.88629902165,
			"0.011": 1.85480759605,
			"0.012": 2.20000630875,
			"0.013": 1.52886393271,
			"0.014": 1.58302641032,
			"0.015": 0.511663046924,
			"0.016": 1.03051680649,
			"0.017": 1.06354111011,
			"0.018": 0.520851112701,
			"0.019": 0.0,
			"0.02": 0.0,
			"0.021": 0.0,
			"0.022": 0.0,
			"0.023": 0.0,
			"0.024": 0.0,
			"0.025": 0.0
		}
	}
}
