{
	 "smiles": "CC1=NN(CC2=CC=C(C)C=C2)C(C)=C1C=CC(O)=O", 
	 "Tm": 435.15, 
	 "num_atms": 38, 
	 "gaussian": { 
		 "optdone": 1, 
		 "sigma_profile": "yes", 
		 "theory": "DFT", 
		 "functional": "B3LYP", 
		 "basiset": "6-31G**", 
		 "properties": { 
			 "R2extent": 7795.9882, 
			 "electric_dipole_moment_norm": 3.19639802434, 
			 "electric_quadrupole_moment_norm": 7.48576219232, 
			 "total_energy": -880.505599517, 
			 "HOMO_LUMO_gap": 0.17195, 
			 "cosmo_polarized_energy": -15.79, 
			 "cosmo_cavitation_energy": 41.77, 
			 "cosmo_dispersion_energy": -28.5, 
			 "cosmo_repulsion_energy": 2.22, 
			 "cosmo_total_nonelectrostatic_energy": 15.49, 
			 "SMD_solvation_energy": 7.21 
		},
		"coords": [
			{
				"x": 3.7192874948,
				"y": 1.7705063317,
				"z": -1.0694856559,
				"element": "C" 
			},
			{
				"x": 2.5032622075,
				"y": 0.9129037018,
				"z": -0.9222219322,
				"element": "C" 
			},
			{
				"x": 1.4427139031,
				"y": 1.1422676952,
				"z": -1.6894357522,
				"element": "N" 
			},
			{
				"x": 0.5483839018,
				"y": 0.1600173226,
				"z": -1.3860179612,
				"element": "N" 
			},
			{
				"x": -0.7781294577,
				"y": 0.2057530001,
				"z": -1.988441473,
				"element": "C" 
			},
			{
				"x": -1.8386871425,
				"y": 0.8179501219,
				"z": -1.0897732803,
				"element": "C" 
			},
			{
				"x": -3.0755407124,
				"y": 0.192287199,
				"z": -0.9181019269,
				"element": "C" 
			},
			{
				"x": -4.0649201736,
				"y": 0.7740939299,
				"z": -0.1212137069,
				"element": "C" 
			},
			{
				"x": -3.8410595278,
				"y": 1.9904447815,
				"z": 0.5311645608,
				"element": "C" 
			},
			{
				"x": -4.8971005286,
				"y": 2.6158484622,
				"z": 1.4118889683,
				"element": "C" 
			},
			{
				"x": -2.593832231,
				"y": 2.6114407928,
				"z": 0.3560770976,
				"element": "C" 
			},
			{
				"x": -1.6071908619,
				"y": 2.0393734427,
				"z": -0.4411299527,
				"element": "C" 
			},
			{
				"x": 1.0212967925,
				"y": -0.705524601,
				"z": -0.4568383153,
				"element": "C" 
			},
			{
				"x": 0.2279541604,
				"y": -1.8688970607,
				"z": 0.0453578823,
				"element": "C" 
			},
			{
				"x": 2.2979147208,
				"y": -0.2474186912,
				"z": -0.1044854753,
				"element": "C" 
			},
			{
				"x": 3.1915359184,
				"y": -0.9615322667,
				"z": 0.7889517063,
				"element": "C" 
			},
			{
				"x": 4.115928291,
				"y": -0.5320592376,
				"z": 1.6795808649,
				"element": "C" 
			},
			{
				"x": 4.3163289463,
				"y": 0.8433282856,
				"z": 2.1557602991,
				"element": "C" 
			},
			{
				"x": 5.3837073926,
				"y": 0.9075226631,
				"z": 3.0030092958,
				"element": "O" 
			},
			{
				"x": 3.6376174034,
				"y": 1.8265965972,
				"z": 1.9175298846,
				"element": "O" 
			},
			{
				"x": 3.7825719365,
				"y": 2.4989679878,
				"z": -0.257127603,
				"element": "H" 
			},
			{
				"x": 3.682006488,
				"y": 2.2959901307,
				"z": -2.026440616,
				"element": "H" 
			},
			{
				"x": 4.6314618225,
				"y": 1.165508476,
				"z": -1.0323221786,
				"element": "H" 
			},
			{
				"x": -1.0710988646,
				"y": -0.8079412481,
				"z": -2.27979402,
				"element": "H" 
			},
			{
				"x": -0.6552780039,
				"y": 0.7913518103,
				"z": -2.9037860109,
				"element": "H" 
			},
			{
				"x": -3.2746959034,
				"y": -0.7556608319,
				"z": -1.4134346268,
				"element": "H" 
			},
			{
				"x": -5.0212283494,
				"y": 0.2706355082,
				"z": -0.0024068113,
				"element": "H" 
			},
			{
				"x": -5.8581956967,
				"y": 2.1042037769,
				"z": 1.3098144228,
				"element": "H" 
			},
			{
				"x": -4.6093868874,
				"y": 2.5729922109,
				"z": 2.4693817307,
				"element": "H" 
			},
			{
				"x": -5.0495401289,
				"y": 3.6719521893,
				"z": 1.1641469036,
				"element": "H" 
			},
			{
				"x": -2.3953652008,
				"y": 3.5589809093,
				"z": 0.8514850055,
				"element": "H" 
			},
			{
				"x": -0.6480240204,
				"y": 2.5341849648,
				"z": -0.5647477873,
				"element": "H" 
			},
			{
				"x": -0.6774027788,
				"y": -1.5416404854,
				"z": 0.5689344589,
				"element": "H" 
			},
			{
				"x": -0.0851225334,
				"y": -2.5298196222,
				"z": -0.7716710619,
				"element": "H" 
			},
			{
				"x": 0.8208376152,
				"y": -2.4591090015,
				"z": 0.7467964934,
				"element": "H" 
			},
			{
				"x": 3.1104600329,
				"y": -2.0475389422,
				"z": 0.7190263182,
				"element": "H" 
			},
			{
				"x": 4.7257645635,
				"y": -1.2748522861,
				"z": 2.1839919823,
				"element": "H" 
			},
			{
				"x": 5.4192654121,
				"y": 1.830391983,
				"z": 3.3035782728,
				"element": "H" 
			}
		],
		 "valence_orbital": [ 
			{
				"type": "occ",
				"energy": -0.26151,
				"method": "rhf"
			},
			{
				"type": "occ",
				"energy": -0.25086,
				"method": "rhf"
			},
			{
				"type": "occ",
				"energy": -0.24189,
				"method": "rhf"
			},
			{
				"type": "occ",
				"energy": -0.23107,
				"method": "rhf"
			},
			{
				"type": "occ",
				"energy": -0.21854,
				"method": "rhf"
			},
			{
				"type": "unocc",
				"energy": -0.04659,
				"method": "rhf"
			},
			{
				"type": "unocc",
				"energy": -0.00555,
				"method": "rhf"
			},
			{
				"type": "unocc",
				"energy": -0.0033,
				"method": "rhf"
			},
			{
				"type": "unocc",
				"energy": 0.02566,
				"method": "rhf"
			},
			{
				"type": "unocc",
				"energy": 0.06569,
				"method": "rhf"
			}
		],
		"cosmo_sigma_profile": { 
			"-0.025": 0.0,
			"-0.024": 0.0,
			"-0.023": 0.0,
			"-0.022": 0.0,
			"-0.021": 0.0,
			"-0.02": 0.0,
			"-0.019": 0.0,
			"-0.018": 0.0913840023588,
			"-0.017": 0.950262983976,
			"-0.016": 1.10727137411,
			"-0.015": 0.447270788667,
			"-0.014": 0.390516356246,
			"-0.013": 0.551246636717,
			"-0.012": 1.10235595434,
			"-0.011": 0.60528845952,
			"-0.01": 0.91309962271,
			"-0.009": 1.01914666524,
			"-0.008": 0.390711165148,
			"-0.007": 6.5186297685,
			"-0.006": 14.5485307179,
			"-0.005": 19.6179892637,
			"-0.004": 25.8278517718,
			"-0.003": 29.4166449103,
			"-0.002": 28.9094095404,
			"-0.001": 34.484835863,
			"0.0": 29.9288665055,
			"0.001": 26.2566288406,
			"0.002": 20.6939650054,
			"0.003": 17.8497646731,
			"0.004": 15.8739583165,
			"0.005": 13.5017456895,
			"0.006": 10.6005455181,
			"0.007": 2.90983888338,
			"0.008": 5.88105714776,
			"0.009": 4.55327925362,
			"0.01": 3.86978809098,
			"0.011": 3.4814033493,
			"0.012": 4.42474564924,
			"0.013": 2.34258146529,
			"0.014": 0.759337202304,
			"0.015": 0.598626708947,
			"0.016": 0.235852906752,
			"0.017": 0.0,
			"0.018": 0.0,
			"0.019": 0.0,
			"0.02": 0.0,
			"0.021": 0.0,
			"0.022": 0.0,
			"0.023": 0.0,
			"0.024": 0.0,
			"0.025": 0.0
		}
	}
}
