{
	 "smiles": "O=C1CC2CCC(C1)N2C1=CC=CC=C1", 
	 "Tm": 363.15, 
	 "num_atms": 30, 
	 "gaussian": { 
		 "optdone": 1, 
		 "sigma_profile": "yes", 
		 "theory": "DFT", 
		 "functional": "B3LYP", 
		 "basiset": "6-31G**", 
		 "properties": { 
			 "R2extent": 3491.4202, 
			 "electric_dipole_moment_norm": 2.25831248945, 
			 "electric_quadrupole_moment_norm": 13.9278551443, 
			 "total_energy": -634.392126688, 
			 "HOMO_LUMO_gap": 0.18343, 
			 "cosmo_polarized_energy": -9.93, 
			 "cosmo_cavitation_energy": 30.63, 
			 "cosmo_dispersion_energy": -22.35, 
			 "cosmo_repulsion_energy": 1.72, 
			 "cosmo_total_nonelectrostatic_energy": 10.0, 
			 "SMD_solvation_energy": 3.92 
		},
		"coords": [
			{
				"x": 2.908364981,
				"y": -0.59295285,
				"z": 3.7654342762,
				"element": "O" 
			},
			{
				"x": 2.1568112327,
				"y": -0.6865668648,
				"z": 2.8143666913,
				"element": "C" 
			},
			{
				"x": 2.6137180843,
				"y": -1.2363431663,
				"z": 1.4662599139,
				"element": "C" 
			},
			{
				"x": 1.9197996285,
				"y": -0.5289745498,
				"z": 0.2816370964,
				"element": "C" 
			},
			{
				"x": 2.190829696,
				"y": 1.0013755917,
				"z": 0.2882908361,
				"element": "C" 
			},
			{
				"x": 1.0268626589,
				"y": 1.5787135724,
				"z": 1.1436886869,
				"element": "C" 
			},
			{
				"x": 0.2000156425,
				"y": 0.3268212824,
				"z": 1.5580846924,
				"element": "C" 
			},
			{
				"x": 0.6898647091,
				"y": -0.2724081623,
				"z": 2.8902932404,
				"element": "C" 
			},
			{
				"x": 0.4669645792,
				"y": -0.658222862,
				"z": 0.4843943551,
				"element": "N" 
			},
			{
				"x": -0.4184359562,
				"y": -0.7053715264,
				"z": -0.6176905418,
				"element": "C" 
			},
			{
				"x": -1.795185428,
				"y": -0.8865306793,
				"z": -0.3723155098,
				"element": "C" 
			},
			{
				"x": -2.706057441,
				"y": -0.9704266315,
				"z": -1.4205269056,
				"element": "C" 
			},
			{
				"x": -2.2751441458,
				"y": -0.8984291566,
				"z": -2.7479383974,
				"element": "C" 
			},
			{
				"x": -0.914763353,
				"y": -0.7357982031,
				"z": -3.0025646276,
				"element": "C" 
			},
			{
				"x": 0.0047653835,
				"y": -0.6316123673,
				"z": -1.9569360421,
				"element": "C" 
			},
			{
				"x": 3.7034093277,
				"y": -1.15657038,
				"z": 1.4103408505,
				"element": "H" 
			},
			{
				"x": 2.351043772,
				"y": -2.3019824143,
				"z": 1.4367776088,
				"element": "H" 
			},
			{
				"x": 2.2280875225,
				"y": -1.0155431516,
				"z": -0.6441629208,
				"element": "H" 
			},
			{
				"x": 3.1768438074,
				"y": 1.2394871584,
				"z": 0.6982302241,
				"element": "H" 
			},
			{
				"x": 2.1564385719,
				"y": 1.3994091385,
				"z": -0.7297544383,
				"element": "H" 
			},
			{
				"x": 0.4058053561,
				"y": 2.2517767025,
				"z": 0.5461764254,
				"element": "H" 
			},
			{
				"x": 1.378559319,
				"y": 2.1432112003,
				"z": 2.0125319222,
				"element": "H" 
			},
			{
				"x": -0.8674308634,
				"y": 0.5422405733,
				"z": 1.6174302979,
				"element": "H" 
			},
			{
				"x": 0.1014773116,
				"y": -1.1733414066,
				"z": 3.109089337,
				"element": "H" 
			},
			{
				"x": 0.5672592629,
				"y": 0.421850198,
				"z": 3.7268103795,
				"element": "H" 
			},
			{
				"x": -2.1435577204,
				"y": -0.9905369869,
				"z": 0.6506446505,
				"element": "H" 
			},
			{
				"x": -3.7600468907,
				"y": -1.1113757921,
				"z": -1.1967357365,
				"element": "H" 
			},
			{
				"x": -2.9858752887,
				"y": -0.9734572907,
				"z": -3.5649660736,
				"element": "H" 
			},
			{
				"x": -0.5561903542,
				"y": -0.6747674036,
				"z": -4.0266313094,
				"element": "H" 
			},
			{
				"x": 1.0509665945,
				"y": -0.4802735723,
				"z": -2.1973589818,
				"element": "H" 
			}
		],
		 "valence_orbital": [ 
			{
				"type": "occ",
				"energy": -0.32454,
				"method": "rhf"
			},
			{
				"type": "occ",
				"energy": -0.28172,
				"method": "rhf"
			},
			{
				"type": "occ",
				"energy": -0.24816,
				"method": "rhf"
			},
			{
				"type": "occ",
				"energy": -0.24025,
				"method": "rhf"
			},
			{
				"type": "occ",
				"energy": -0.20166,
				"method": "rhf"
			},
			{
				"type": "unocc",
				"energy": -0.01823,
				"method": "rhf"
			},
			{
				"type": "unocc",
				"energy": -0.00043,
				"method": "rhf"
			},
			{
				"type": "unocc",
				"energy": 0.00974,
				"method": "rhf"
			},
			{
				"type": "unocc",
				"energy": 0.07781,
				"method": "rhf"
			},
			{
				"type": "unocc",
				"energy": 0.094,
				"method": "rhf"
			}
		],
		"cosmo_sigma_profile": { 
			"-0.025": 0.0,
			"-0.024": 0.0,
			"-0.023": 0.0,
			"-0.022": 0.0,
			"-0.021": 0.0,
			"-0.02": 0.0,
			"-0.019": 0.0,
			"-0.018": 0.0,
			"-0.017": 0.0,
			"-0.016": 0.0,
			"-0.015": 0.0,
			"-0.014": 0.0,
			"-0.013": 0.0,
			"-0.012": 0.0,
			"-0.011": 0.0,
			"-0.01": 0.0,
			"-0.009": 0.0,
			"-0.008": 0.00233693389001,
			"-0.007": 1.10858915407,
			"-0.006": 8.42274263446,
			"-0.005": 20.2461962812,
			"-0.004": 30.7631729994,
			"-0.003": 34.2602629387,
			"-0.002": 25.8535401483,
			"-0.001": 19.9304108746,
			"0.0": 16.5372875258,
			"0.001": 11.7775939189,
			"0.002": 8.36407630297,
			"0.003": 8.47846689773,
			"0.004": 7.85654908938,
			"0.005": 9.5380283241,
			"0.006": 10.8519528812,
			"0.007": 9.01590384647,
			"0.008": 2.38739720299,
			"0.009": 2.4193429551,
			"0.01": 2.11882648791,
			"0.011": 3.37368998803,
			"0.012": 4.51593492513,
			"0.013": 2.78040625211,
			"0.014": 0.355077923583,
			"0.015": 0.0,
			"0.016": 0.0,
			"0.017": 0.0,
			"0.018": 0.0,
			"0.019": 0.0,
			"0.02": 0.0,
			"0.021": 0.0,
			"0.022": 0.0,
			"0.023": 0.0,
			"0.024": 0.0,
			"0.025": 0.0
		}
	}
}
