{
	 "smiles": "CC1=C(N)C=CC(SC2=NC=CC=N2)=C1", 
	 "Tm": 400.15, 
	 "num_atms": 26, 
	 "gaussian": { 
		 "optdone": 1, 
		 "sigma_profile": "yes", 
		 "theory": "DFT", 
		 "functional": "B3LYP", 
		 "basiset": "6-31G**", 
		 "properties": { 
			 "R2extent": 4727.3791, 
			 "electric_dipole_moment_norm": 4.50809124131, 
			 "electric_quadrupole_moment_norm": 11.3584517479, 
			 "total_energy": -988.241330945, 
			 "HOMO_LUMO_gap": 0.16649, 
			 "cosmo_polarized_energy": -15.73, 
			 "cosmo_cavitation_energy": 32.04, 
			 "cosmo_dispersion_energy": -23.52, 
			 "cosmo_repulsion_energy": 1.82, 
			 "cosmo_total_nonelectrostatic_energy": 10.34, 
			 "SMD_solvation_energy": 2.6 
		},
		"coords": [
			{
				"x": 2.8197335317,
				"y": -1.5435948309,
				"z": 1.2093216785,
				"element": "C" 
			},
			{
				"x": 1.637582127,
				"y": -1.6604535697,
				"z": 0.2793300316,
				"element": "C" 
			},
			{
				"x": 1.3298439131,
				"y": -2.9006579755,
				"z": -0.3297490743,
				"element": "C" 
			},
			{
				"x": 2.1419642482,
				"y": -4.0116067521,
				"z": -0.1079645052,
				"element": "N" 
			},
			{
				"x": 0.2374505355,
				"y": -2.9865003525,
				"z": -1.2088832451,
				"element": "C" 
			},
			{
				"x": -0.5465439428,
				"y": -1.8722351945,
				"z": -1.4842069977,
				"element": "C" 
			},
			{
				"x": -0.258818943,
				"y": -0.6447666246,
				"z": -0.8786066041,
				"element": "C" 
			},
			{
				"x": -1.2107364765,
				"y": 0.8120342942,
				"z": -1.2837518313,
				"element": "S" 
			},
			{
				"x": -2.4954885967,
				"y": 0.8393513555,
				"z": -0.0443991457,
				"element": "C" 
			},
			{
				"x": -3.3303275132,
				"y": 1.8815236469,
				"z": -0.1850017203,
				"element": "N" 
			},
			{
				"x": -4.3167351827,
				"y": 1.963861553,
				"z": 0.7092665964,
				"element": "C" 
			},
			{
				"x": -4.4826783667,
				"y": 1.030765296,
				"z": 1.7337278362,
				"element": "C" 
			},
			{
				"x": -3.5512221352,
				"y": -0.0037759773,
				"z": 1.7731741394,
				"element": "C" 
			},
			{
				"x": -2.5514578536,
				"y": -0.1131817148,
				"z": 0.8909217232,
				"element": "N" 
			},
			{
				"x": 0.8354778337,
				"y": -0.5572864736,
				"z": -0.0092880596,
				"element": "C" 
			},
			{
				"x": 2.9486188359,
				"y": -0.514181192,
				"z": 1.5521499552,
				"element": "H" 
			},
			{
				"x": 3.7503811932,
				"y": -1.8545018129,
				"z": 0.7181597289,
				"element": "H" 
			},
			{
				"x": 2.7031896982,
				"y": -2.1700952912,
				"z": 2.1055136317,
				"element": "H" 
			},
			{
				"x": 2.6257743314,
				"y": -4.0376569211,
				"z": 0.7781675462,
				"element": "H" 
			},
			{
				"x": 1.726234812,
				"y": -4.9022057836,
				"z": -0.3423277617,
				"element": "H" 
			},
			{
				"x": 0.0086309998,
				"y": -3.9391669198,
				"z": -1.6809097736,
				"element": "H" 
			},
			{
				"x": -1.3864587771,
				"y": -1.9549722618,
				"z": -2.1664135544,
				"element": "H" 
			},
			{
				"x": -4.9968320731,
				"y": 2.8074077463,
				"z": 0.5995598461,
				"element": "H" 
			},
			{
				"x": -5.2880838157,
				"y": 1.1070461381,
				"z": 2.4551771281,
				"element": "H" 
			},
			{
				"x": -3.6019107512,
				"y": -0.7777587393,
				"z": 2.5378834473,
				"element": "H" 
			},
			{
				"x": 1.0679123678,
				"y": 0.3975083572,
				"z": 0.4536489841,
				"element": "H" 
			}
		],
		 "valence_orbital": [ 
			{
				"type": "occ",
				"energy": -0.29409,
				"method": "rhf"
			},
			{
				"type": "occ",
				"energy": -0.24742,
				"method": "rhf"
			},
			{
				"type": "occ",
				"energy": -0.24182,
				"method": "rhf"
			},
			{
				"type": "occ",
				"energy": -0.22313,
				"method": "rhf"
			},
			{
				"type": "occ",
				"energy": -0.20305,
				"method": "rhf"
			},
			{
				"type": "unocc",
				"energy": -0.03656,
				"method": "rhf"
			},
			{
				"type": "unocc",
				"energy": -0.01874,
				"method": "rhf"
			},
			{
				"type": "unocc",
				"energy": 0.00106,
				"method": "rhf"
			},
			{
				"type": "unocc",
				"energy": 0.0061,
				"method": "rhf"
			},
			{
				"type": "unocc",
				"energy": 0.06169,
				"method": "rhf"
			}
		],
		"cosmo_sigma_profile": { 
			"-0.025": 0.0,
			"-0.024": 0.0,
			"-0.023": 0.0,
			"-0.022": 0.0,
			"-0.021": 0.0,
			"-0.02": 0.0,
			"-0.019": 0.0,
			"-0.018": 0.0,
			"-0.017": 0.0,
			"-0.016": 0.0,
			"-0.015": 0.0,
			"-0.014": 0.0,
			"-0.013": 0.349851490674,
			"-0.012": 2.09336959853,
			"-0.011": 2.49698509837,
			"-0.01": 3.39047511779,
			"-0.009": 3.48938408553,
			"-0.008": 7.10396768665,
			"-0.007": 11.0623447635,
			"-0.006": 12.2630812613,
			"-0.005": 14.5049388738,
			"-0.004": 14.6610457242,
			"-0.003": 14.3924976967,
			"-0.002": 15.2108336891,
			"-0.001": 19.5550237709,
			"0.0": 23.3700059037,
			"0.001": 19.2555227073,
			"0.002": 14.8732900046,
			"0.003": 11.7796904833,
			"0.004": 11.850514092,
			"0.005": 15.6628746236,
			"0.006": 11.6062440179,
			"0.007": 9.02870217868,
			"0.008": 4.26006207694,
			"0.009": 2.97678325474,
			"0.01": 2.87641157704,
			"0.011": 2.74613443005,
			"0.012": 2.92316381922,
			"0.013": 2.0861449518,
			"0.014": 1.82441797572,
			"0.015": 0.200042445303,
			"0.016": 0.0,
			"0.017": 0.0,
			"0.018": 0.0,
			"0.019": 0.0,
			"0.02": 0.0,
			"0.021": 0.0,
			"0.022": 0.0,
			"0.023": 0.0,
			"0.024": 0.0,
			"0.025": 0.0
		}
	}
}
