{
	 "smiles": "OC(=O)C1=CC(Cl)=NNC1=O", 
	 "Tm": 486.15, 
	 "num_atms": 14, 
	 "gaussian": { 
		 "optdone": 1, 
		 "sigma_profile": "yes", 
		 "theory": "DFT", 
		 "functional": "B3LYP", 
		 "basiset": "6-31G**", 
		 "properties": { 
			 "R2extent": 3483.6362, 
			 "electric_dipole_moment_norm": 4.02357696211, 
			 "electric_quadrupole_moment_norm": 15.753417601, 
			 "total_energy": -987.695018198, 
			 "HOMO_LUMO_gap": 0.16144, 
			 "cosmo_polarized_energy": -14.92, 
			 "cosmo_cavitation_energy": 21.34, 
			 "cosmo_dispersion_energy": -16.48, 
			 "cosmo_repulsion_energy": 1.32, 
			 "cosmo_total_nonelectrostatic_energy": 6.19, 
			 "SMD_solvation_energy": 4.64 
		},
		"coords": [
			{
				"x": 3.3853818492,
				"y": 1.1803562764,
				"z": 0.9104442555,
				"element": "O" 
			},
			{
				"x": 2.5828657654,
				"y": 1.3193365066,
				"z": 1.9644004714,
				"element": "C" 
			},
			{
				"x": 2.9744346339,
				"y": 1.636132641,
				"z": 3.0658205581,
				"element": "O" 
			},
			{
				"x": 1.1144464636,
				"y": 1.0539013416,
				"z": 1.7090404558,
				"element": "C" 
			},
			{
				"x": 0.2198791327,
				"y": 1.1719245762,
				"z": 2.7301341215,
				"element": "C" 
			},
			{
				"x": -1.1615429903,
				"y": 0.917935081,
				"z": 2.472132956,
				"element": "C" 
			},
			{
				"x": -2.3132375797,
				"y": 1.0659555847,
				"z": 3.7701575181,
				"element": "Cl" 
			},
			{
				"x": -1.6280889713,
				"y": 0.5759120921,
				"z": 1.3073030414,
				"element": "N" 
			},
			{
				"x": -0.7272726614,
				"y": 0.4668596064,
				"z": 0.3202182086,
				"element": "N" 
			},
			{
				"x": 0.6415917846,
				"y": 0.6729634428,
				"z": 0.3843134074,
				"element": "C" 
			},
			{
				"x": 1.3463951691,
				"y": 0.5312305972,
				"z": -0.6254307245,
				"element": "O" 
			},
			{
				"x": 2.8480155955,
				"y": 0.9169384759,
				"z": 0.1188917702,
				"element": "H" 
			},
			{
				"x": 0.5665446717,
				"y": 1.4552018992,
				"z": 3.7182862134,
				"element": "H" 
			},
			{
				"x": -1.109312863,
				"y": 0.1993518789,
				"z": -0.5809122531,
				"element": "H" 
			}
		],
		 "valence_orbital": [ 
			{
				"type": "occ",
				"energy": -0.34222,
				"method": "rhf"
			},
			{
				"type": "occ",
				"energy": -0.31648,
				"method": "rhf"
			},
			{
				"type": "occ",
				"energy": -0.30497,
				"method": "rhf"
			},
			{
				"type": "occ",
				"energy": -0.28804,
				"method": "rhf"
			},
			{
				"type": "occ",
				"energy": -0.27886,
				"method": "rhf"
			},
			{
				"type": "unocc",
				"energy": -0.11742,
				"method": "rhf"
			},
			{
				"type": "unocc",
				"energy": -0.04656,
				"method": "rhf"
			},
			{
				"type": "unocc",
				"energy": -0.00214,
				"method": "rhf"
			},
			{
				"type": "unocc",
				"energy": 0.01213,
				"method": "rhf"
			},
			{
				"type": "unocc",
				"energy": 0.06318,
				"method": "rhf"
			}
		],
		"cosmo_sigma_profile": { 
			"-0.025": 0.0,
			"-0.024": 0.0,
			"-0.023": 0.0,
			"-0.022": 0.0,
			"-0.021": 0.0,
			"-0.02": 0.0,
			"-0.019": 0.0170739509986,
			"-0.018": 1.04377395061,
			"-0.017": 1.32280049871,
			"-0.016": 1.24497223057,
			"-0.015": 1.09832047399,
			"-0.014": 0.328327946538,
			"-0.013": 1.01736833345,
			"-0.012": 0.726832528909,
			"-0.011": 0.871497516596,
			"-0.01": 1.70848987235,
			"-0.009": 2.67305715329,
			"-0.008": 5.74562020955,
			"-0.007": 7.11598527847,
			"-0.006": 9.44195601778,
			"-0.005": 12.3916000335,
			"-0.004": 12.8944108184,
			"-0.003": 11.1544337074,
			"-0.002": 7.11958471725,
			"-0.001": 7.41664641168,
			"0.0": 8.72897189451,
			"0.001": 8.73697303041,
			"0.002": 11.2380862183,
			"0.003": 11.4103477994,
			"0.004": 4.85130885128,
			"0.005": 4.87976623621,
			"0.006": 5.04863283521,
			"0.007": 4.66744469013,
			"0.008": 4.69786384509,
			"0.009": 5.9029377108,
			"0.01": 7.94798042192,
			"0.011": 7.28357925451,
			"0.012": 3.33795342895,
			"0.013": 0.708635765255,
			"0.014": 0.0,
			"0.015": 0.0,
			"0.016": 0.0,
			"0.017": 0.0,
			"0.018": 0.0,
			"0.019": 0.0,
			"0.02": 0.0,
			"0.021": 0.0,
			"0.022": 0.0,
			"0.023": 0.0,
			"0.024": 0.0,
			"0.025": 0.0
		}
	}
}
