{
	 "smiles": "OC(=O)C1=CC(=CC(O)=C1)C(O)=O", 
	 "Tm": 566.15, 
	 "num_atms": 19, 
	 "gaussian": { 
		 "optdone": 1, 
		 "sigma_profile": "yes", 
		 "theory": "DFT", 
		 "functional": "B3LYP", 
		 "basiset": "6-31G**", 
		 "properties": { 
			 "R2extent": 2753.3596, 
			 "electric_dipole_moment_norm": 5.98096296678, 
			 "electric_quadrupole_moment_norm": 12.3019419016, 
			 "total_energy": -684.607899948, 
			 "HOMO_LUMO_gap": 0.18048, 
			 "cosmo_polarized_energy": -22.1, 
			 "cosmo_cavitation_energy": 24.95, 
			 "cosmo_dispersion_energy": -18.41, 
			 "cosmo_repulsion_energy": 1.46, 
			 "cosmo_total_nonelectrostatic_energy": 8.0, 
			 "SMD_solvation_energy": 7.16 
		},
		"coords": [
			{
				"x": 0.912942917,
				"y": -2.2349125274,
				"z": 2.8728422131,
				"element": "O" 
			},
			{
				"x": 0.2010944853,
				"y": -2.5640807784,
				"z": 1.7655041981,
				"element": "C" 
			},
			{
				"x": -0.3483047099,
				"y": -3.637441397,
				"z": 1.6935409759,
				"element": "O" 
			},
			{
				"x": 0.1433193626,
				"y": -1.5387072431,
				"z": 0.6665768777,
				"element": "C" 
			},
			{
				"x": 0.4292673878,
				"y": -0.1851443504,
				"z": 0.8740027582,
				"element": "C" 
			},
			{
				"x": 0.3413385458,
				"y": 0.7118606268,
				"z": -0.1943682157,
				"element": "C" 
			},
			{
				"x": -0.029764818,
				"y": 0.2647287712,
				"z": -1.4672577725,
				"element": "C" 
			},
			{
				"x": -0.3259073766,
				"y": -1.0875521328,
				"z": -1.6673177908,
				"element": "C" 
			},
			{
				"x": -0.697148554,
				"y": -1.5881737571,
				"z": -2.8768629536,
				"element": "O" 
			},
			{
				"x": -0.247004872,
				"y": -1.9855724553,
				"z": -0.5990902427,
				"element": "C" 
			},
			{
				"x": 0.6515861573,
				"y": 2.1426203065,
				"z": 0.0772506732,
				"element": "C" 
			},
			{
				"x": 0.5283790794,
				"y": 2.9298272146,
				"z": -1.0186531883,
				"element": "O" 
			},
			{
				"x": 0.9846993675,
				"y": 2.5816393569,
				"z": 1.159605148,
				"element": "O" 
			},
			{
				"x": 1.4035683436,
				"y": -1.4135173583,
				"z": 2.7305778712,
				"element": "H" 
			},
			{
				"x": 0.6848009114,
				"y": 0.2209688645,
				"z": 1.8476564671,
				"element": "H" 
			},
			{
				"x": -0.0900625724,
				"y": 0.9722901314,
				"z": -2.2884833236,
				"element": "H" 
			},
			{
				"x": -0.7268255965,
				"y": -0.8757334862,
				"z": -3.5288812176,
				"element": "H" 
			},
			{
				"x": -0.4884305068,
				"y": -3.0317149546,
				"z": -0.7477791308,
				"element": "H" 
			},
			{
				"x": 0.7525524484,
				"y": 3.8295151687,
				"z": -0.7287633468,
				"element": "H" 
			}
		],
		 "valence_orbital": [ 
			{
				"type": "occ",
				"energy": -0.31986,
				"method": "rhf"
			},
			{
				"type": "occ",
				"energy": -0.29583,
				"method": "rhf"
			},
			{
				"type": "occ",
				"energy": -0.28591,
				"method": "rhf"
			},
			{
				"type": "occ",
				"energy": -0.27451,
				"method": "rhf"
			},
			{
				"type": "occ",
				"energy": -0.25257,
				"method": "rhf"
			},
			{
				"type": "unocc",
				"energy": -0.07209,
				"method": "rhf"
			},
			{
				"type": "unocc",
				"energy": -0.04818,
				"method": "rhf"
			},
			{
				"type": "unocc",
				"energy": 0.02853,
				"method": "rhf"
			},
			{
				"type": "unocc",
				"energy": 0.05017,
				"method": "rhf"
			},
			{
				"type": "unocc",
				"energy": 0.05738,
				"method": "rhf"
			}
		],
		"cosmo_sigma_profile": { 
			"-0.025": 0.0,
			"-0.024": 0.0,
			"-0.023": 0.0,
			"-0.022": 0.0,
			"-0.021": 0.0,
			"-0.02": 0.0,
			"-0.019": 0.920215254591,
			"-0.018": 3.26024529369,
			"-0.017": 3.49776078435,
			"-0.016": 2.65293346024,
			"-0.015": 2.88964363299,
			"-0.014": 2.33449395367,
			"-0.013": 2.65285551101,
			"-0.012": 2.82385933497,
			"-0.011": 2.99490401589,
			"-0.01": 2.76080387146,
			"-0.009": 2.37353953636,
			"-0.008": 2.66137713038,
			"-0.007": 4.98748118612,
			"-0.006": 4.40300123438,
			"-0.005": 4.7238487467,
			"-0.004": 6.40037637944,
			"-0.003": 8.5609227692,
			"-0.002": 10.9895394896,
			"-0.001": 10.8201607094,
			"0.0": 15.2647183677,
			"0.001": 21.619662146,
			"0.002": 10.3853673398,
			"0.003": 6.44805568396,
			"0.004": 6.00888179755,
			"0.005": 5.65673859474,
			"0.006": 7.14575487053,
			"0.007": 5.92735533728,
			"0.008": 5.87777739547,
			"0.009": 6.34860357535,
			"0.01": 9.48333274645,
			"0.011": 10.6833578718,
			"0.012": 5.1818399347,
			"0.013": 0.924002827249,
			"0.014": 0.0,
			"0.015": 0.0,
			"0.016": 0.0,
			"0.017": 0.0,
			"0.018": 0.0,
			"0.019": 0.0,
			"0.02": 0.0,
			"0.021": 0.0,
			"0.022": 0.0,
			"0.023": 0.0,
			"0.024": 0.0,
			"0.025": 0.0
		}
	}
}
