{
	 "smiles": "CC(=O)CC(=O)C1=CC=C(F)C=C1", 
	 "Tm": 323.15, 
	 "num_atms": 22, 
	 "gaussian": { 
		 "optdone": 1, 
		 "sigma_profile": "yes", 
		 "theory": "DFT", 
		 "functional": "B3LYP", 
		 "basiset": "6-31G**", 
		 "properties": { 
			 "R2extent": 3523.1351, 
			 "electric_dipole_moment_norm": 3.38509397654, 
			 "electric_quadrupole_moment_norm": 16.4980269569, 
			 "total_energy": -636.768626183, 
			 "HOMO_LUMO_gap": 0.17921, 
			 "cosmo_polarized_energy": -11.96, 
			 "cosmo_cavitation_energy": 27.3, 
			 "cosmo_dispersion_energy": -19.47, 
			 "cosmo_repulsion_energy": 1.51, 
			 "cosmo_total_nonelectrostatic_energy": 9.35, 
			 "SMD_solvation_energy": 6.47 
		},
		"coords": [
			{
				"x": -2.4179353465,
				"y": -3.4746402249,
				"z": -2.1910075025,
				"element": "C" 
			},
			{
				"x": -1.3035420484,
				"y": -3.4106724496,
				"z": -1.1710247635,
				"element": "C" 
			},
			{
				"x": -0.5754768678,
				"y": -4.354472884,
				"z": -0.9354747731,
				"element": "O" 
			},
			{
				"x": -1.12015971,
				"y": -2.0977430024,
				"z": -0.4029312663,
				"element": "C" 
			},
			{
				"x": -0.6097791813,
				"y": -0.9376373608,
				"z": -1.264175665,
				"element": "C" 
			},
			{
				"x": -0.5320235965,
				"y": -1.0385226944,
				"z": -2.4801387726,
				"element": "O" 
			},
			{
				"x": -0.2093785132,
				"y": 0.3286912096,
				"z": -0.5770965115,
				"element": "C" 
			},
			{
				"x": 0.2769428336,
				"y": 1.3802631546,
				"z": -1.373828569,
				"element": "C" 
			},
			{
				"x": 0.6603748375,
				"y": 2.5882275647,
				"z": -0.8053555852,
				"element": "C" 
			},
			{
				"x": 0.5507132981,
				"y": 2.737731502,
				"z": 0.5756184736,
				"element": "C" 
			},
			{
				"x": 0.9186216512,
				"y": 3.9038826522,
				"z": 1.1343844227,
				"element": "F" 
			},
			{
				"x": 0.0729715238,
				"y": 1.7209216547,
				"z": 1.3963485785,
				"element": "C" 
			},
			{
				"x": -0.3052372094,
				"y": 0.5147086018,
				"z": 0.8115725301,
				"element": "C" 
			},
			{
				"x": -2.492038538,
				"y": -4.4864958699,
				"z": -2.5916498024,
				"element": "H" 
			},
			{
				"x": -2.1994023991,
				"y": -2.7649530828,
				"z": -2.9950185901,
				"element": "H" 
			},
			{
				"x": -3.3739981174,
				"y": -3.1796125858,
				"z": -1.7426727123,
				"element": "H" 
			},
			{
				"x": -0.4164230035,
				"y": -2.2917716528,
				"z": 0.4121437764,
				"element": "H" 
			},
			{
				"x": -2.0742469988,
				"y": -1.7914956363,
				"z": 0.0490104152,
				"element": "H" 
			},
			{
				"x": 0.3448313812,
				"y": 1.2221958476,
				"z": -2.4446116548,
				"element": "H" 
			},
			{
				"x": 1.0391989247,
				"y": 3.4092239402,
				"z": -1.4042354939,
				"element": "H" 
			},
			{
				"x": 0.0058269762,
				"y": 1.8831303346,
				"z": 2.4663549183,
				"element": "H" 
			},
			{
				"x": -0.6764398964,
				"y": -0.2793590184,
				"z": 1.4503885474,
				"element": "H" 
			}
		],
		 "valence_orbital": [ 
			{
				"type": "occ",
				"energy": -0.35307,
				"method": "rhf"
			},
			{
				"type": "occ",
				"energy": -0.27989,
				"method": "rhf"
			},
			{
				"type": "occ",
				"energy": -0.26732,
				"method": "rhf"
			},
			{
				"type": "occ",
				"energy": -0.26395,
				"method": "rhf"
			},
			{
				"type": "occ",
				"energy": -0.2469,
				"method": "rhf"
			},
			{
				"type": "unocc",
				"energy": -0.06769,
				"method": "rhf"
			},
			{
				"type": "unocc",
				"energy": -0.02841,
				"method": "rhf"
			},
			{
				"type": "unocc",
				"energy": -0.01616,
				"method": "rhf"
			},
			{
				"type": "unocc",
				"energy": 0.02927,
				"method": "rhf"
			},
			{
				"type": "unocc",
				"energy": 0.07425,
				"method": "rhf"
			}
		],
		"cosmo_sigma_profile": { 
			"-0.025": 0.0,
			"-0.024": 0.0,
			"-0.023": 0.0,
			"-0.022": 0.0,
			"-0.021": 0.0,
			"-0.02": 0.0,
			"-0.019": 0.0,
			"-0.018": 0.0,
			"-0.017": 0.0,
			"-0.016": 0.0,
			"-0.015": 0.0,
			"-0.014": 0.0,
			"-0.013": 0.0,
			"-0.012": 0.0,
			"-0.011": 0.0,
			"-0.01": 0.0,
			"-0.009": 0.271243949449,
			"-0.008": 10.0654005382,
			"-0.007": 12.7147855521,
			"-0.006": 12.4994948737,
			"-0.005": 12.7323018638,
			"-0.004": 13.0782600701,
			"-0.003": 11.9259969715,
			"-0.002": 12.7658902496,
			"-0.001": 19.8018521702,
			"0.0": 17.2988887771,
			"0.001": 17.1560417665,
			"0.002": 20.1797659091,
			"0.003": 13.1286455317,
			"0.004": 12.1038333647,
			"0.005": 2.95997230416,
			"0.006": 3.26932511395,
			"0.007": 3.00049467703,
			"0.008": 2.77936186074,
			"0.009": 3.91604545857,
			"0.01": 4.39548543064,
			"0.011": 6.08322357029,
			"0.012": 4.726324448,
			"0.013": 1.32235093431,
			"0.014": 0.00584338548195,
			"0.015": 0.0,
			"0.016": 0.0,
			"0.017": 0.0,
			"0.018": 0.0,
			"0.019": 0.0,
			"0.02": 0.0,
			"0.021": 0.0,
			"0.022": 0.0,
			"0.023": 0.0,
			"0.024": 0.0,
			"0.025": 0.0
		}
	}
}
