{
	 "smiles": "COC1=C(OCC2=CC(=CC=C2)C#N)C=CC(CCl)=C1", 
	 "Tm": 369.15, 
	 "num_atms": 34, 
	 "gaussian": { 
		 "optdone": 1, 
		 "sigma_profile": "yes", 
		 "theory": "DFT", 
		 "functional": "B3LYP", 
		 "basiset": "6-31G**", 
		 "properties": { 
			 "R2extent": 10554.8751, 
			 "electric_dipole_moment_norm": 2.94676334136, 
			 "electric_quadrupole_moment_norm": 31.3844299134, 
			 "total_energy": -1283.49591441, 
			 "HOMO_LUMO_gap": 0.18014, 
			 "cosmo_polarized_energy": -16.17, 
			 "cosmo_cavitation_energy": 41.64, 
			 "cosmo_dispersion_energy": -28.23, 
			 "cosmo_repulsion_energy": 2.2, 
			 "cosmo_total_nonelectrostatic_energy": 15.6, 
			 "SMD_solvation_energy": 8.85 
		},
		"coords": [
			{
				"x": -1.5158746915,
				"y": -2.9400084238,
				"z": 0.8334807699,
				"element": "C" 
			},
			{
				"x": -0.5498228335,
				"y": -2.1799166412,
				"z": 0.1179657957,
				"element": "O" 
			},
			{
				"x": 0.0484610081,
				"y": -2.7525517876,
				"z": -0.9673649868,
				"element": "C" 
			},
			{
				"x": 0.9843191228,
				"y": -1.9411442455,
				"z": -1.6521439775,
				"element": "C" 
			},
			{
				"x": 1.2047293218,
				"y": -0.6430990075,
				"z": -1.2591441186,
				"element": "O" 
			},
			{
				"x": 1.9216703502,
				"y": -0.4633322454,
				"z": -0.0275295176,
				"element": "C" 
			},
			{
				"x": 1.5548558467,
				"y": 0.8765333885,
				"z": 0.562970856,
				"element": "C" 
			},
			{
				"x": 0.2129977312,
				"y": 1.2627547318,
				"z": 0.6229297083,
				"element": "C" 
			},
			{
				"x": -0.1403346177,
				"y": 2.4868390905,
				"z": 1.2083202892,
				"element": "C" 
			},
			{
				"x": 0.8500287662,
				"y": 3.3319122095,
				"z": 1.7408058322,
				"element": "C" 
			},
			{
				"x": 2.1839135543,
				"y": 2.9432077773,
				"z": 1.6770359886,
				"element": "C" 
			},
			{
				"x": 2.5343093644,
				"y": 1.7254925157,
				"z": 1.0875493734,
				"element": "C" 
			},
			{
				"x": -1.5206667375,
				"y": 2.8752661545,
				"z": 1.2706038881,
				"element": "C" 
			},
			{
				"x": -2.6395245266,
				"y": 3.1888524654,
				"z": 1.3267677378,
				"element": "N" 
			},
			{
				"x": 1.6242809967,
				"y": -2.4328165629,
				"z": -2.7834923283,
				"element": "C" 
			},
			{
				"x": 1.3590645197,
				"y": -3.7233613896,
				"z": -3.24804063,
				"element": "C" 
			},
			{
				"x": 0.4464727243,
				"y": -4.5350964511,
				"z": -2.5734744036,
				"element": "C" 
			},
			{
				"x": 0.1537523456,
				"y": -5.9209797123,
				"z": -3.0605123731,
				"element": "C" 
			},
			{
				"x": 1.0958898411,
				"y": -7.2088318599,
				"z": -2.1401714524,
				"element": "Cl" 
			},
			{
				"x": -0.2081349344,
				"y": -4.0412744474,
				"z": -1.4322936409,
				"element": "C" 
			},
			{
				"x": -1.0772691333,
				"y": -3.8518157306,
				"z": 1.2572201436,
				"element": "H" 
			},
			{
				"x": -1.8642263805,
				"y": -2.2962881654,
				"z": 1.6419182127,
				"element": "H" 
			},
			{
				"x": -2.3652459493,
				"y": -3.2100767472,
				"z": 0.1942341226,
				"element": "H" 
			},
			{
				"x": 1.6593316859,
				"y": -1.2637815886,
				"z": 0.6737046005,
				"element": "H" 
			},
			{
				"x": 3.0016913736,
				"y": -0.5189785051,
				"z": -0.2199002308,
				"element": "H" 
			},
			{
				"x": -0.5484301524,
				"y": 0.6115770566,
				"z": 0.2092921758,
				"element": "H" 
			},
			{
				"x": 0.5657400798,
				"y": 4.2769899346,
				"z": 2.1909964428,
				"element": "H" 
			},
			{
				"x": 2.955321728,
				"y": 3.5927170346,
				"z": 2.0790071749,
				"element": "H" 
			},
			{
				"x": 3.5804939343,
				"y": 1.4356322048,
				"z": 1.0321445881,
				"element": "H" 
			},
			{
				"x": 2.3231623582,
				"y": -1.7814053388,
				"z": -3.2980970074,
				"element": "H" 
			},
			{
				"x": 1.868436832,
				"y": -4.0959396612,
				"z": -4.1318291435,
				"element": "H" 
			},
			{
				"x": -0.8937268123,
				"y": -6.1938442481,
				"z": -2.9295891546,
				"element": "H" 
			},
			{
				"x": 0.4333663379,
				"y": -6.0515509874,
				"z": -4.1055105695,
				"element": "H" 
			},
			{
				"x": -0.9180330538,
				"y": -4.6778808173,
				"z": -0.9164541657,
				"element": "H" 
			}
		],
		 "valence_orbital": [ 
			{
				"type": "occ",
				"energy": -0.29364,
				"method": "rhf"
			},
			{
				"type": "occ",
				"energy": -0.26685,
				"method": "rhf"
			},
			{
				"type": "occ",
				"energy": -0.2621,
				"method": "rhf"
			},
			{
				"type": "occ",
				"energy": -0.2537,
				"method": "rhf"
			},
			{
				"type": "occ",
				"energy": -0.22902,
				"method": "rhf"
			},
			{
				"type": "unocc",
				"energy": -0.04888,
				"method": "rhf"
			},
			{
				"type": "unocc",
				"energy": -0.03176,
				"method": "rhf"
			},
			{
				"type": "unocc",
				"energy": -0.02536,
				"method": "rhf"
			},
			{
				"type": "unocc",
				"energy": -0.00462,
				"method": "rhf"
			},
			{
				"type": "unocc",
				"energy": 0.04003,
				"method": "rhf"
			}
		],
		"cosmo_sigma_profile": { 
			"-0.025": 0.0,
			"-0.024": 0.0,
			"-0.023": 0.0,
			"-0.022": 0.0,
			"-0.021": 0.0,
			"-0.02": 0.0,
			"-0.019": 0.0,
			"-0.018": 0.0,
			"-0.017": 0.0,
			"-0.016": 0.0,
			"-0.015": 0.0,
			"-0.014": 0.0,
			"-0.013": 0.0,
			"-0.012": 0.0,
			"-0.011": 0.0,
			"-0.01": 0.0,
			"-0.009": 0.0,
			"-0.008": 3.10915444583,
			"-0.007": 17.5455586189,
			"-0.006": 25.6043459347,
			"-0.005": 28.0954590918,
			"-0.004": 28.9968260998,
			"-0.003": 23.0322200781,
			"-0.002": 18.0162454738,
			"-0.001": 19.6643487482,
			"0.0": 20.3246729031,
			"0.001": 19.3559382208,
			"0.002": 27.2112198831,
			"0.003": 24.4128768801,
			"0.004": 16.9070060215,
			"0.005": 15.5069202829,
			"0.006": 12.950774042,
			"0.007": 13.4130425647,
			"0.008": 4.8583970852,
			"0.009": 4.89082254502,
			"0.01": 3.92655986248,
			"0.011": 3.69322216338,
			"0.012": 2.63692237141,
			"0.013": 1.6278408344,
			"0.014": 0.0432253275621,
			"0.015": 0.0,
			"0.016": 0.0,
			"0.017": 0.0,
			"0.018": 0.0,
			"0.019": 0.0,
			"0.02": 0.0,
			"0.021": 0.0,
			"0.022": 0.0,
			"0.023": 0.0,
			"0.024": 0.0,
			"0.025": 0.0
		}
	}
}
