{
	 "smiles": "CC(C)(OC1CCCCC1)C(O)=O", 
	 "Tm": 348.15, 
	 "num_atms": 31, 
	 "gaussian": { 
		 "optdone": 1, 
		 "sigma_profile": "yes", 
		 "theory": "DFT", 
		 "functional": "B3LYP", 
		 "basiset": "6-31G**", 
		 "properties": { 
			 "R2extent": 3009.6022, 
			 "electric_dipole_moment_norm": 1.82673050558, 
			 "electric_quadrupole_moment_norm": 5.90171939269, 
			 "total_energy": -617.603532811, 
			 "HOMO_LUMO_gap": 0.25132, 
			 "cosmo_polarized_energy": -9.55, 
			 "cosmo_cavitation_energy": 30.97, 
			 "cosmo_dispersion_energy": -22.0, 
			 "cosmo_repulsion_energy": 1.76, 
			 "cosmo_total_nonelectrostatic_energy": 10.74, 
			 "SMD_solvation_energy": 5.58 
		},
		"coords": [
			{
				"x": 0.5098561167,
				"y": -0.8566232351,
				"z": -2.6334682455,
				"element": "C" 
			},
			{
				"x": -0.0119562859,
				"y": -1.7892161434,
				"z": -1.5224293912,
				"element": "C" 
			},
			{
				"x": 0.3661105507,
				"y": -3.2500362815,
				"z": -1.8272895901,
				"element": "C" 
			},
			{
				"x": 0.5669074045,
				"y": -1.5273125845,
				"z": -0.2588471428,
				"element": "O" 
			},
			{
				"x": 0.4093248247,
				"y": -0.2292579859,
				"z": 0.3426104295,
				"element": "C" 
			},
			{
				"x": -0.0393821573,
				"y": -0.4469319517,
				"z": 1.8018308441,
				"element": "C" 
			},
			{
				"x": 0.3914434697,
				"y": 0.7042372903,
				"z": 2.7408601014,
				"element": "C" 
			},
			{
				"x": 0.4661534103,
				"y": 2.0384939537,
				"z": 1.9860273467,
				"element": "C" 
			},
			{
				"x": 1.5357176543,
				"y": 1.9844582448,
				"z": 0.8675434916,
				"element": "C" 
			},
			{
				"x": 1.723580548,
				"y": 0.5576158149,
				"z": 0.2955108421,
				"element": "C" 
			},
			{
				"x": -1.5511156704,
				"y": -1.7063395659,
				"z": -1.4357155704,
				"element": "C" 
			},
			{
				"x": -2.1315589229,
				"y": -1.925641468,
				"z": -2.64378722,
				"element": "O" 
			},
			{
				"x": -2.2047937089,
				"y": -1.4990324654,
				"z": -0.4387766739,
				"element": "O" 
			},
			{
				"x": 1.59891475,
				"y": -0.940956394,
				"z": -2.6849958363,
				"element": "H" 
			},
			{
				"x": 0.2528311458,
				"y": 0.1889198537,
				"z": -2.4410963918,
				"element": "H" 
			},
			{
				"x": 0.0863549212,
				"y": -1.1344549684,
				"z": -3.6009071186,
				"element": "H" 
			},
			{
				"x": 1.4555782923,
				"y": -3.3300998697,
				"z": -1.8701134577,
				"element": "H" 
			},
			{
				"x": -0.0578968884,
				"y": -3.5762223516,
				"z": -2.7792756481,
				"element": "H" 
			},
			{
				"x": 0.0059913787,
				"y": -3.9038171465,
				"z": -1.0285507897,
				"element": "H" 
			},
			{
				"x": -0.365178716,
				"y": 0.3316532596,
				"z": -0.1949648074,
				"element": "H" 
			},
			{
				"x": 0.4009950378,
				"y": -1.392480953,
				"z": 2.1365165575,
				"element": "H" 
			},
			{
				"x": -1.1239605198,
				"y": -0.5849997665,
				"z": 1.8134184213,
				"element": "H" 
			},
			{
				"x": 1.3770561513,
				"y": 0.48806174,
				"z": 3.1736741788,
				"element": "H" 
			},
			{
				"x": -0.3016675899,
				"y": 0.7768936081,
				"z": 3.5862924708,
				"element": "H" 
			},
			{
				"x": -0.5186292444,
				"y": 2.2543748401,
				"z": 1.5509552026,
				"element": "H" 
			},
			{
				"x": 0.6821643189,
				"y": 2.8637715416,
				"z": 2.6738657133,
				"element": "H" 
			},
			{
				"x": 2.4976344643,
				"y": 2.3411119282,
				"z": 1.2538013179,
				"element": "H" 
			},
			{
				"x": 1.2561931771,
				"y": 2.6750319139,
				"z": 0.0626773427,
				"element": "H" 
			},
			{
				"x": 2.1077039396,
				"y": 0.6041894882,
				"z": -0.7281171393,
				"element": "H" 
			},
			{
				"x": 2.4687466419,
				"y": 0.0035579638,
				"z": 0.8798472665,
				"element": "H" 
			},
			{
				"x": -3.0907184936,
				"y": -1.8824483098,
				"z": -2.490396504,
				"element": "H" 
			}
		],
		 "valence_orbital": [ 
			{
				"type": "occ",
				"energy": -0.30765,
				"method": "rhf"
			},
			{
				"type": "occ",
				"energy": -0.30358,
				"method": "rhf"
			},
			{
				"type": "occ",
				"energy": -0.28867,
				"method": "rhf"
			},
			{
				"type": "occ",
				"energy": -0.27221,
				"method": "rhf"
			},
			{
				"type": "occ",
				"energy": -0.24493,
				"method": "rhf"
			},
			{
				"type": "unocc",
				"energy": 0.00639,
				"method": "rhf"
			},
			{
				"type": "unocc",
				"energy": 0.07072,
				"method": "rhf"
			},
			{
				"type": "unocc",
				"energy": 0.07995,
				"method": "rhf"
			},
			{
				"type": "unocc",
				"energy": 0.09773,
				"method": "rhf"
			},
			{
				"type": "unocc",
				"energy": 0.11709,
				"method": "rhf"
			}
		],
		"cosmo_sigma_profile": { 
			"-0.025": 0.0,
			"-0.024": 0.0,
			"-0.023": 0.0,
			"-0.022": 0.0,
			"-0.021": 0.0,
			"-0.02": 0.0,
			"-0.019": 0.0541398037255,
			"-0.018": 0.796848350153,
			"-0.017": 0.778266943014,
			"-0.016": 0.529972426579,
			"-0.015": 1.15567530269,
			"-0.014": 0.7635742149,
			"-0.013": 0.506994667834,
			"-0.012": 0.833263141652,
			"-0.011": 0.802503644449,
			"-0.01": 0.46136446508,
			"-0.009": 0.538195476618,
			"-0.008": 0.670021034637,
			"-0.007": 1.1756398714,
			"-0.006": 2.18045370619,
			"-0.005": 3.5867682564,
			"-0.004": 11.247402481,
			"-0.003": 18.8919189773,
			"-0.002": 35.4820919312,
			"-0.001": 39.9150535323,
			"0.0": 38.1552809598,
			"0.001": 26.6059934567,
			"0.002": 11.6488200351,
			"0.003": 4.50359940409,
			"0.004": 3.53945251929,
			"0.005": 5.13472409986,
			"0.006": 4.37433242036,
			"0.007": 4.66178603434,
			"0.008": 3.4140671219,
			"0.009": 3.84395081422,
			"0.01": 4.00513202066,
			"0.011": 5.3218394276,
			"0.012": 2.67560163664,
			"0.013": 0.300759144348,
			"0.014": 0.0,
			"0.015": 0.0,
			"0.016": 0.0,
			"0.017": 0.0,
			"0.018": 0.0,
			"0.019": 0.0,
			"0.02": 0.0,
			"0.021": 0.0,
			"0.022": 0.0,
			"0.023": 0.0,
			"0.024": 0.0,
			"0.025": 0.0
		}
	}
}
