{
	 "smiles": "OC(=O)C1=CSC(=N1)C1=CC=C2OCCC2=C1", 
	 "Tm": 485.15, 
	 "num_atms": 26, 
	 "gaussian": { 
		 "optdone": 1, 
		 "sigma_profile": "yes", 
		 "theory": "DFT", 
		 "functional": "B3LYP", 
		 "basiset": "6-31G**", 
		 "properties": { 
			 "R2extent": 6365.0837, 
			 "electric_dipole_moment_norm": 4.29322298629, 
			 "electric_quadrupole_moment_norm": 29.4648459034, 
			 "total_energy": -1141.30449969, 
			 "HOMO_LUMO_gap": 0.15223, 
			 "cosmo_polarized_energy": -20.38, 
			 "cosmo_cavitation_energy": 32.51, 
			 "cosmo_dispersion_energy": -24.78, 
			 "cosmo_repulsion_energy": 1.87, 
			 "cosmo_total_nonelectrostatic_energy": 9.6, 
			 "SMD_solvation_energy": 5.37 
		},
		"coords": [
			{
				"x": -0.0985437502,
				"y": 5.8409725708,
				"z": -0.0129433075,
				"element": "O" 
			},
			{
				"x": 0.3880014031,
				"y": 4.6525574033,
				"z": 0.4457036799,
				"element": "C" 
			},
			{
				"x": 1.5387145278,
				"y": 4.5462205287,
				"z": 0.7821528187,
				"element": "O" 
			},
			{
				"x": -0.6135264845,
				"y": 3.5421426383,
				"z": 0.5232306019,
				"element": "C" 
			},
			{
				"x": -1.9661645161,
				"y": 3.7057007269,
				"z": 0.6974643424,
				"element": "C" 
			},
			{
				"x": -2.740810647,
				"y": 2.1659610722,
				"z": 0.814095791,
				"element": "S" 
			},
			{
				"x": -1.1523117723,
				"y": 1.3893728352,
				"z": 0.6046506217,
				"element": "C" 
			},
			{
				"x": -0.1736014741,
				"y": 2.2439807085,
				"z": 0.4789282291,
				"element": "N" 
			},
			{
				"x": -0.9830065271,
				"y": -0.0644295613,
				"z": 0.5810793972,
				"element": "C" 
			},
			{
				"x": -2.0725455961,
				"y": -0.947279612,
				"z": 0.681608073,
				"element": "C" 
			},
			{
				"x": -1.8983222635,
				"y": -2.3307013383,
				"z": 0.6666969336,
				"element": "C" 
			},
			{
				"x": -0.59772828,
				"y": -2.8133306635,
				"z": 0.5468271046,
				"element": "C" 
			},
			{
				"x": -0.267454826,
				"y": -4.1297471474,
				"z": 0.5153038287,
				"element": "O" 
			},
			{
				"x": 1.1835338191,
				"y": -4.2253093593,
				"z": 0.5697778896,
				"element": "C" 
			},
			{
				"x": 1.7422256135,
				"y": -2.8116196825,
				"z": 0.2726930774,
				"element": "C" 
			},
			{
				"x": 0.5055165496,
				"y": -1.9565049812,
				"z": 0.4391975231,
				"element": "C" 
			},
			{
				"x": 0.3243686504,
				"y": -0.5866719724,
				"z": 0.4526458104,
				"element": "C" 
			},
			{
				"x": -0.9661795327,
				"y": 5.7037098343,
				"z": -0.4187949608,
				"element": "H" 
			},
			{
				"x": -2.530841712,
				"y": 4.6196838639,
				"z": 0.8205825759,
				"element": "H" 
			},
			{
				"x": -3.0809741909,
				"y": -0.5537891042,
				"z": 0.7765869957,
				"element": "H" 
			},
			{
				"x": -2.7387844864,
				"y": -3.0105186567,
				"z": 0.7484382885,
				"element": "H" 
			},
			{
				"x": 1.4548935526,
				"y": -4.5672886212,
				"z": 1.574797292,
				"element": "H" 
			},
			{
				"x": 1.4890954457,
				"y": -4.982451518,
				"z": -0.1551439198,
				"element": "H" 
			},
			{
				"x": 2.550766198,
				"y": -2.5414120647,
				"z": 0.9582113488,
				"element": "H" 
			},
			{
				"x": 2.1385988456,
				"y": -2.738408765,
				"z": -0.7471074876,
				"element": "H" 
			},
			{
				"x": 1.1569814535,
				"y": 0.1036608657,
				"z": 0.3692174527,
				"element": "H" 
			}
		],
		 "valence_orbital": [ 
			{
				"type": "occ",
				"energy": -0.28399,
				"method": "rhf"
			},
			{
				"type": "occ",
				"energy": -0.27594,
				"method": "rhf"
			},
			{
				"type": "occ",
				"energy": -0.26712,
				"method": "rhf"
			},
			{
				"type": "occ",
				"energy": -0.26044,
				"method": "rhf"
			},
			{
				"type": "occ",
				"energy": -0.21476,
				"method": "rhf"
			},
			{
				"type": "unocc",
				"energy": -0.06253,
				"method": "rhf"
			},
			{
				"type": "unocc",
				"energy": -0.02974,
				"method": "rhf"
			},
			{
				"type": "unocc",
				"energy": -0.01558,
				"method": "rhf"
			},
			{
				"type": "unocc",
				"energy": 0.00469,
				"method": "rhf"
			},
			{
				"type": "unocc",
				"energy": 0.04309,
				"method": "rhf"
			}
		],
		"cosmo_sigma_profile": { 
			"-0.025": 0.0,
			"-0.024": 0.0,
			"-0.023": 0.0,
			"-0.022": 0.0,
			"-0.021": 0.0,
			"-0.02": 0.0,
			"-0.019": 0.29548124356,
			"-0.018": 0.988571156127,
			"-0.017": 1.71673148795,
			"-0.016": 0.582543163553,
			"-0.015": 0.795403613645,
			"-0.014": 1.11806667513,
			"-0.013": 1.67921369123,
			"-0.012": 1.38907976327,
			"-0.011": 2.31669901143,
			"-0.01": 2.46968046872,
			"-0.009": 1.63823481346,
			"-0.008": 2.31703787057,
			"-0.007": 5.8101840958,
			"-0.006": 11.635526406,
			"-0.005": 22.2060875175,
			"-0.004": 19.0798472137,
			"-0.003": 18.6028155572,
			"-0.002": 16.7915882032,
			"-0.001": 16.5839629365,
			"0.0": 20.2830376198,
			"0.001": 17.1528924889,
			"0.002": 17.2063809533,
			"0.003": 16.890014366,
			"0.004": 13.9022496254,
			"0.005": 5.92454647986,
			"0.006": 4.45449959064,
			"0.007": 3.94431408021,
			"0.008": 5.07420609063,
			"0.009": 5.91822438733,
			"0.01": 7.50036567303,
			"0.011": 7.39032469607,
			"0.012": 5.69115663576,
			"0.013": 2.63581826693,
			"0.014": 1.1601150265,
			"0.015": 0.0420752250347,
			"0.016": 0.0,
			"0.017": 0.0,
			"0.018": 0.0,
			"0.019": 0.0,
			"0.02": 0.0,
			"0.021": 0.0,
			"0.022": 0.0,
			"0.023": 0.0,
			"0.024": 0.0,
			"0.025": 0.0
		}
	}
}
