{
	 "smiles": "OC1(CCNCC1)C1=CC=C(Br)C=C1", 
	 "Tm": 439.15, 
	 "num_atms": 28, 
	 "gaussian": { 
		 "optdone": 1, 
		 "sigma_profile": "yes", 
		 "theory": "DFT", 
		 "functional": "B3LYP", 
		 "basiset": "6-31G**", 
		 "properties": { 
			 "R2extent": 7379.2152, 
			 "electric_dipole_moment_norm": 1.91426446971, 
			 "electric_quadrupole_moment_norm": 16.0000439696, 
			 "total_energy": -3128.97200349, 
			 "HOMO_LUMO_gap": 0.19583, 
			 "cosmo_polarized_energy": -11.0, 
			 "cosmo_cavitation_energy": 31.3, 
			 "cosmo_dispersion_energy": -23.43, 
			 "cosmo_repulsion_energy": 1.83, 
			 "cosmo_total_nonelectrostatic_energy": 9.7, 
			 "SMD_solvation_energy": 1.26 
		},
		"coords": [
			{
				"x": -1.165100513,
				"y": -0.6492986126,
				"z": -1.2599995759,
				"element": "O" 
			},
			{
				"x": -0.3470038109,
				"y": 0.2181139032,
				"z": -0.4607182225,
				"element": "C" 
			},
			{
				"x": -0.9419849674,
				"y": 1.637850163,
				"z": -0.7130993045,
				"element": "C" 
			},
			{
				"x": -0.9478171246,
				"y": 2.5037474149,
				"z": 0.5458142398,
				"element": "C" 
			},
			{
				"x": -1.8279075862,
				"y": 1.9099225041,
				"z": 1.5651181628,
				"element": "N" 
			},
			{
				"x": -1.8323596976,
				"y": 0.4356236715,
				"z": 1.5708858683,
				"element": "C" 
			},
			{
				"x": -0.5282148602,
				"y": -0.1649048241,
				"z": 1.0328909107,
				"element": "C" 
			},
			{
				"x": 1.1147075011,
				"y": 0.1412649866,
				"z": -0.9258405613,
				"element": "C" 
			},
			{
				"x": 2.1824181873,
				"y": 0.6118971301,
				"z": -0.1468272379,
				"element": "C" 
			},
			{
				"x": 3.4970691249,
				"y": 0.570906001,
				"z": -0.6126243803,
				"element": "C" 
			},
			{
				"x": 3.7559168714,
				"y": 0.0509754475,
				"z": -1.8784287825,
				"element": "C" 
			},
			{
				"x": 5.5560096784,
				"y": -0.0200068054,
				"z": -2.520487807,
				"element": "Br" 
			},
			{
				"x": 2.7181531108,
				"y": -0.4158240882,
				"z": -2.6808423805,
				"element": "C" 
			},
			{
				"x": 1.4094810299,
				"y": -0.3626337983,
				"z": -2.2009194159,
				"element": "C" 
			},
			{
				"x": -0.8425989507,
				"y": -1.5532067676,
				"z": -1.1336794668,
				"element": "H" 
			},
			{
				"x": -0.3996238908,
				"y": 2.1392175796,
				"z": -1.5189546871,
				"element": "H" 
			},
			{
				"x": -1.9730789069,
				"y": 1.494516959,
				"z": -1.0516904528,
				"element": "H" 
			},
			{
				"x": -1.3151024379,
				"y": 3.5071740006,
				"z": 0.2978002015,
				"element": "H" 
			},
			{
				"x": 0.0924986027,
				"y": 2.6343407379,
				"z": 0.8952074583,
				"element": "H" 
			},
			{
				"x": -1.5639824554,
				"y": 2.2555622554,
				"z": 2.4815455322,
				"element": "H" 
			},
			{
				"x": -2.0279349892,
				"y": 0.0909817622,
				"z": 2.591231223,
				"element": "H" 
			},
			{
				"x": -2.6613567149,
				"y": 0.0691131253,
				"z": 0.9517809089,
				"element": "H" 
			},
			{
				"x": -0.5306522302,
				"y": -1.2592958504,
				"z": 1.1182574898,
				"element": "H" 
			},
			{
				"x": 0.3100633216,
				"y": 0.1908559028,
				"z": 1.6401139907,
				"element": "H" 
			},
			{
				"x": 2.0052843448,
				"y": 1.0238239672,
				"z": 0.8411422991,
				"element": "H" 
			},
			{
				"x": 4.3102807995,
				"y": 0.9365601015,
				"z": 0.0042003515,
				"element": "H" 
			},
			{
				"x": 2.9268746648,
				"y": -0.8133703189,
				"z": -3.6678218507,
				"element": "H" 
			},
			{
				"x": 0.5958618986,
				"y": -0.7105065478,
				"z": -2.8277545107,
				"element": "H" 
			}
		],
		 "valence_orbital": [ 
			{
				"type": "occ",
				"energy": -0.28649,
				"method": "rhf"
			},
			{
				"type": "occ",
				"energy": -0.2773,
				"method": "rhf"
			},
			{
				"type": "occ",
				"energy": -0.2634,
				"method": "rhf"
			},
			{
				"type": "occ",
				"energy": -0.23797,
				"method": "rhf"
			},
			{
				"type": "occ",
				"energy": -0.21217,
				"method": "rhf"
			},
			{
				"type": "unocc",
				"energy": -0.01634,
				"method": "rhf"
			},
			{
				"type": "unocc",
				"energy": -0.01457,
				"method": "rhf"
			},
			{
				"type": "unocc",
				"energy": 0.0082,
				"method": "rhf"
			},
			{
				"type": "unocc",
				"energy": 0.06988,
				"method": "rhf"
			},
			{
				"type": "unocc",
				"energy": 0.08659,
				"method": "rhf"
			}
		],
		"cosmo_sigma_profile": { 
			"-0.025": 0.0,
			"-0.024": 0.0,
			"-0.023": 0.0,
			"-0.022": 0.0,
			"-0.021": 0.0,
			"-0.02": 0.0,
			"-0.019": 0.0,
			"-0.018": 0.0,
			"-0.017": 0.0,
			"-0.016": 0.0,
			"-0.015": 0.567215404698,
			"-0.014": 0.750897569613,
			"-0.013": 1.01171996511,
			"-0.012": 0.661992389637,
			"-0.011": 0.885177475433,
			"-0.01": 1.40626873115,
			"-0.009": 2.54173584208,
			"-0.008": 1.91912317818,
			"-0.007": 6.7258378819,
			"-0.006": 9.26501428368,
			"-0.005": 11.3852958102,
			"-0.004": 16.8552122812,
			"-0.003": 19.5544397366,
			"-0.002": 21.6958309851,
			"-0.001": 24.3757253994,
			"0.0": 22.9582638828,
			"0.001": 17.132588582,
			"0.002": 17.1169452539,
			"0.003": 18.1729416896,
			"0.004": 23.1536607187,
			"0.005": 12.7939083376,
			"0.006": 1.93315981518,
			"0.007": 1.69618243879,
			"0.008": 2.00056345883,
			"0.009": 2.25847534262,
			"0.01": 1.74428208224,
			"0.011": 1.27136587801,
			"0.012": 1.69410466482,
			"0.013": 2.00953270878,
			"0.014": 0.748343889238,
			"0.015": 0.742279506429,
			"0.016": 0.469364611504,
			"0.017": 0.575853694081,
			"0.018": 0.500423321327,
			"0.019": 0.315514823527,
			"0.02": 0.0,
			"0.021": 0.0,
			"0.022": 0.0,
			"0.023": 0.0,
			"0.024": 0.0,
			"0.025": 0.0
		}
	}
}
