{
	 "smiles": "CN(C)C(C1=CC=CC=C1)C1=CC=CC=C1", 
	 "Tm": 342.15, 
	 "num_atms": 33, 
	 "gaussian": { 
		 "optdone": 1, 
		 "sigma_profile": "yes", 
		 "theory": "DFT", 
		 "functional": "B3LYP", 
		 "basiset": "6-31G**", 
		 "properties": { 
			 "R2extent": 3963.7616, 
			 "electric_dipole_moment_norm": 0.832349025349, 
			 "electric_quadrupole_moment_norm": 4.06841684934, 
			 "total_energy": -636.582369626, 
			 "HOMO_LUMO_gap": 0.20283, 
			 "cosmo_polarized_energy": -5.66, 
			 "cosmo_cavitation_energy": 34.12, 
			 "cosmo_dispersion_energy": -23.89, 
			 "cosmo_repulsion_energy": 1.86, 
			 "cosmo_total_nonelectrostatic_energy": 12.1, 
			 "SMD_solvation_energy": 5.03 
		},
		"coords": [
			{
				"x": -0.0352452367,
				"y": 1.1915295102,
				"z": -1.5774063193,
				"element": "C" 
			},
			{
				"x": 1.2143458727,
				"y": 0.5979293288,
				"z": -1.1150312444,
				"element": "N" 
			},
			{
				"x": 2.0575860769,
				"y": 0.1883461959,
				"z": -2.2295685596,
				"element": "C" 
			},
			{
				"x": 1.0827985438,
				"y": -0.4352526324,
				"z": -0.0645120702,
				"element": "C" 
			},
			{
				"x": 0.240032826,
				"y": -1.6422866046,
				"z": -0.4888359954,
				"element": "C" 
			},
			{
				"x": 0.8761564496,
				"y": -2.7950177583,
				"z": -0.9698709537,
				"element": "C" 
			},
			{
				"x": 0.1413918875,
				"y": -3.886705233,
				"z": -1.4373640313,
				"element": "C" 
			},
			{
				"x": -1.2528139254,
				"y": -3.8426209981,
				"z": -1.4326946533,
				"element": "C" 
			},
			{
				"x": -1.9027306162,
				"y": -2.7034637978,
				"z": -0.9521757863,
				"element": "C" 
			},
			{
				"x": -1.1641641398,
				"y": -1.6162410205,
				"z": -0.4844073854,
				"element": "C" 
			},
			{
				"x": 0.6841309347,
				"y": 0.1849567505,
				"z": 1.2816035528,
				"element": "C" 
			},
			{
				"x": 0.105586278,
				"y": -0.5888248654,
				"z": 2.2976179299,
				"element": "C" 
			},
			{
				"x": -0.1696898527,
				"y": -0.0365377207,
				"z": 3.5500148647,
				"element": "C" 
			},
			{
				"x": 0.1283095725,
				"y": 1.3014035806,
				"z": 3.8107003503,
				"element": "C" 
			},
			{
				"x": 0.7140535319,
				"y": 2.0783252175,
				"z": 2.8098723863,
				"element": "C" 
			},
			{
				"x": 0.994349589,
				"y": 1.523533647,
				"z": 1.5605721955,
				"element": "C" 
			},
			{
				"x": 0.1971036135,
				"y": 2.0666463703,
				"z": -2.1942052119,
				"element": "H" 
			},
			{
				"x": -0.6582875159,
				"y": 0.5087183103,
				"z": -2.1798279747,
				"element": "H" 
			},
			{
				"x": -0.625954978,
				"y": 1.5316861914,
				"z": -0.7226757105,
				"element": "H" 
			},
			{
				"x": 2.236462172,
				"y": 1.0524465938,
				"z": -2.8785783562,
				"element": "H" 
			},
			{
				"x": 1.6241528791,
				"y": -0.6154989418,
				"z": -2.8509060059,
				"element": "H" 
			},
			{
				"x": 3.0272361474,
				"y": -0.1576410492,
				"z": -1.8557464709,
				"element": "H" 
			},
			{
				"x": 2.1059346684,
				"y": -0.8130560636,
				"z": 0.07275224,
				"element": "H" 
			},
			{
				"x": 1.9628284725,
				"y": -2.8409015211,
				"z": -0.9714787399,
				"element": "H" 
			},
			{
				"x": 0.6587753674,
				"y": -4.7705746256,
				"z": -1.8001630416,
				"element": "H" 
			},
			{
				"x": -1.82897452,
				"y": -4.6897620475,
				"z": -1.7938022926,
				"element": "H" 
			},
			{
				"x": -2.9884446038,
				"y": -2.6626660924,
				"z": -0.9365678354,
				"element": "H" 
			},
			{
				"x": -1.6829190638,
				"y": -0.7469033225,
				"z": -0.0923195423,
				"element": "H" 
			},
			{
				"x": -0.131419608,
				"y": -1.6313304519,
				"z": 2.1113693134,
				"element": "H" 
			},
			{
				"x": -0.6196587607,
				"y": -0.6553611423,
				"z": 4.3216325404,
				"element": "H" 
			},
			{
				"x": -0.090127589,
				"y": 1.7324681846,
				"z": 4.7837245669,
				"element": "H" 
			},
			{
				"x": 0.9580727608,
				"y": 3.1198452732,
				"z": 3.0017118941,
				"element": "H" 
			},
			{
				"x": 1.4621227663,
				"y": 2.1193107344,
				"z": 0.7841663464,
				"element": "H" 
			}
		],
		 "valence_orbital": [ 
			{
				"type": "occ",
				"energy": -0.24934,
				"method": "rhf"
			},
			{
				"type": "occ",
				"energy": -0.24807,
				"method": "rhf"
			},
			{
				"type": "occ",
				"energy": -0.24058,
				"method": "rhf"
			},
			{
				"type": "occ",
				"energy": -0.23437,
				"method": "rhf"
			},
			{
				"type": "occ",
				"energy": -0.20796,
				"method": "rhf"
			},
			{
				"type": "unocc",
				"energy": -0.00513,
				"method": "rhf"
			},
			{
				"type": "unocc",
				"energy": -0.00132,
				"method": "rhf"
			},
			{
				"type": "unocc",
				"energy": 0.00377,
				"method": "rhf"
			},
			{
				"type": "unocc",
				"energy": 0.0103,
				"method": "rhf"
			},
			{
				"type": "unocc",
				"energy": 0.08768,
				"method": "rhf"
			}
		],
		"cosmo_sigma_profile": { 
			"-0.025": 0.0,
			"-0.024": 0.0,
			"-0.023": 0.0,
			"-0.022": 0.0,
			"-0.021": 0.0,
			"-0.02": 0.0,
			"-0.019": 0.0,
			"-0.018": 0.0,
			"-0.017": 0.0,
			"-0.016": 0.0,
			"-0.015": 0.0,
			"-0.014": 0.0,
			"-0.013": 0.0,
			"-0.012": 0.0,
			"-0.011": 0.0,
			"-0.01": 0.0,
			"-0.009": 0.0,
			"-0.008": 0.0,
			"-0.007": 0.0,
			"-0.006": 3.84956949815,
			"-0.005": 18.1034624157,
			"-0.004": 23.5966233112,
			"-0.003": 32.6220943619,
			"-0.002": 23.9923303428,
			"-0.001": 27.9073724548,
			"0.0": 32.7157508662,
			"0.001": 21.2422961013,
			"0.002": 16.859801766,
			"0.003": 16.2130720558,
			"0.004": 16.2824026898,
			"0.005": 15.1557397497,
			"0.006": 14.5504680197,
			"0.007": 4.69726559348,
			"0.008": 0.583565847336,
			"0.009": 0.707325844744,
			"0.01": 0.576030573393,
			"0.011": 0.131507916075,
			"0.012": 0.0,
			"0.013": 0.0,
			"0.014": 0.0,
			"0.015": 0.0,
			"0.016": 0.0,
			"0.017": 0.0,
			"0.018": 0.0,
			"0.019": 0.0,
			"0.02": 0.0,
			"0.021": 0.0,
			"0.022": 0.0,
			"0.023": 0.0,
			"0.024": 0.0,
			"0.025": 0.0
		}
	}
}
