{
	 "smiles": "CCN1C2=C(C=CC=C2)C2=C1C=CC(=C2)N=C=S", 
	 "Tm": 392.15, 
	 "num_atms": 30, 
	 "gaussian": { 
		 "optdone": 1, 
		 "sigma_profile": "yes", 
		 "theory": "DFT", 
		 "functional": "B3LYP", 
		 "basiset": "6-31G**", 
		 "properties": { 
			 "R2extent": 7143.4374, 
			 "electric_dipole_moment_norm": 6.61175720819, 
			 "electric_quadrupole_moment_norm": 27.590640857, 
			 "total_energy": -1086.54463806, 
			 "HOMO_LUMO_gap": 0.16033, 
			 "cosmo_polarized_energy": -9.73, 
			 "cosmo_cavitation_energy": 36.81, 
			 "cosmo_dispersion_energy": -26.55, 
			 "cosmo_repulsion_energy": 1.99, 
			 "cosmo_total_nonelectrostatic_energy": 12.25, 
			 "SMD_solvation_energy": 6.13 
		},
		"coords": [
			{
				"x": 2.2279133185,
				"y": 2.6020106512,
				"z": 1.7653139226,
				"element": "C" 
			},
			{
				"x": 0.7911939021,
				"y": 2.076577358,
				"z": 1.8567947578,
				"element": "C" 
			},
			{
				"x": 0.4075916312,
				"y": 1.2378630685,
				"z": 0.7305826416,
				"element": "N" 
			},
			{
				"x": -0.119913964,
				"y": 1.6927457914,
				"z": -0.475810997,
				"element": "C" 
			},
			{
				"x": -0.2955574092,
				"y": 0.5901952551,
				"z": -1.353465859,
				"element": "C" 
			},
			{
				"x": -0.8304442151,
				"y": 0.7994331324,
				"z": -2.6298356705,
				"element": "C" 
			},
			{
				"x": -1.1763413498,
				"y": 2.0916412339,
				"z": -3.0142959385,
				"element": "C" 
			},
			{
				"x": -0.9922296206,
				"y": 3.173733661,
				"z": -2.1356434901,
				"element": "C" 
			},
			{
				"x": -0.4622847354,
				"y": 2.9932507311,
				"z": -0.8597468662,
				"element": "C" 
			},
			{
				"x": 0.1651661181,
				"y": -0.5815230711,
				"z": -0.6387766815,
				"element": "C" 
			},
			{
				"x": 0.5991265519,
				"y": -0.1325987291,
				"z": 0.6400875701,
				"element": "C" 
			},
			{
				"x": 1.1168999218,
				"y": -1.0248341558,
				"z": 1.5862681522,
				"element": "C" 
			},
			{
				"x": 1.1906694229,
				"y": -2.3704496277,
				"z": 1.2508065292,
				"element": "C" 
			},
			{
				"x": 0.7571693253,
				"y": -2.8274971342,
				"z": -0.0151298904,
				"element": "C" 
			},
			{
				"x": 0.2431077287,
				"y": -1.9351794821,
				"z": -0.9649839422,
				"element": "C" 
			},
			{
				"x": 0.8470033748,
				"y": -4.1668866066,
				"z": -0.3124642666,
				"element": "N" 
			},
			{
				"x": 0.92445444,
				"y": -5.3217742062,
				"z": -0.5688378652,
				"element": "C" 
			},
			{
				"x": 1.0282543149,
				"y": -6.8789835812,
				"z": -0.9128022429,
				"element": "S" 
			},
			{
				"x": 2.4598875958,
				"y": 3.2260437047,
				"z": 2.6344400778,
				"element": "H" 
			},
			{
				"x": 2.366143305,
				"y": 3.2047023339,
				"z": 0.8630800801,
				"element": "H" 
			},
			{
				"x": 2.944782763,
				"y": 1.7763389234,
				"z": 1.7344719419,
				"element": "H" 
			},
			{
				"x": 0.6522432323,
				"y": 1.4926705355,
				"z": 2.7722084378,
				"element": "H" 
			},
			{
				"x": 0.0805385449,
				"y": 2.9072980988,
				"z": 1.9115854062,
				"element": "H" 
			},
			{
				"x": -0.9722685801,
				"y": -0.0347241912,
				"z": -3.3111967088,
				"element": "H" 
			},
			{
				"x": -1.5908115024,
				"y": 2.2686032479,
				"z": -4.0018632012,
				"element": "H" 
			},
			{
				"x": -1.2660861165,
				"y": 4.174308372,
				"z": -2.457310844,
				"element": "H" 
			},
			{
				"x": -0.3206965295,
				"y": 3.8395006359,
				"z": -0.195166322,
				"element": "H" 
			},
			{
				"x": 1.4590349594,
				"y": -0.6890647521,
				"z": 2.5595517146,
				"element": "H" 
			},
			{
				"x": 1.5861365699,
				"y": -3.091197975,
				"z": 1.9580003282,
				"element": "H" 
			},
			{
				"x": -0.0817829979,
				"y": -2.3068032225,
				"z": -1.930960774,
				"element": "H" 
			}
		],
		 "valence_orbital": [ 
			{
				"type": "occ",
				"energy": -0.2761,
				"method": "rhf"
			},
			{
				"type": "occ",
				"energy": -0.24278,
				"method": "rhf"
			},
			{
				"type": "occ",
				"energy": -0.24198,
				"method": "rhf"
			},
			{
				"type": "occ",
				"energy": -0.22364,
				"method": "rhf"
			},
			{
				"type": "occ",
				"energy": -0.20186,
				"method": "rhf"
			},
			{
				"type": "unocc",
				"energy": -0.04153,
				"method": "rhf"
			},
			{
				"type": "unocc",
				"energy": -0.03123,
				"method": "rhf"
			},
			{
				"type": "unocc",
				"energy": 0.00777,
				"method": "rhf"
			},
			{
				"type": "unocc",
				"energy": 0.01462,
				"method": "rhf"
			},
			{
				"type": "unocc",
				"energy": 0.02731,
				"method": "rhf"
			}
		],
		"cosmo_sigma_profile": { 
			"-0.025": 0.0,
			"-0.024": 0.0,
			"-0.023": 0.0,
			"-0.022": 0.0,
			"-0.021": 0.0,
			"-0.02": 0.0,
			"-0.019": 0.0,
			"-0.018": 0.0,
			"-0.017": 0.0,
			"-0.016": 0.0,
			"-0.015": 0.0,
			"-0.014": 0.0,
			"-0.013": 0.0,
			"-0.012": 0.0,
			"-0.011": 0.0,
			"-0.01": 0.0,
			"-0.009": 0.0,
			"-0.008": 0.748247802715,
			"-0.007": 8.70279843207,
			"-0.006": 15.4963017476,
			"-0.005": 18.7653220448,
			"-0.004": 21.1553959995,
			"-0.003": 26.5802947534,
			"-0.002": 21.3558330113,
			"-0.001": 22.5878014956,
			"0.0": 29.8781309557,
			"0.001": 22.4223323478,
			"0.002": 21.8781734309,
			"0.003": 26.0951281217,
			"0.004": 20.3442080032,
			"0.005": 15.625691171,
			"0.006": 16.5841017748,
			"0.007": 10.883047695,
			"0.008": 0.0,
			"0.009": 0.0,
			"0.01": 0.0,
			"0.011": 0.0,
			"0.012": 0.0,
			"0.013": 0.0,
			"0.014": 0.0,
			"0.015": 0.0,
			"0.016": 0.0,
			"0.017": 0.0,
			"0.018": 0.0,
			"0.019": 0.0,
			"0.02": 0.0,
			"0.021": 0.0,
			"0.022": 0.0,
			"0.023": 0.0,
			"0.024": 0.0,
			"0.0": 0.0
		}
	}
}
