{
	 "smiles": "CCCCCCCCCCCCCCCCCCCCCCCO", 
	 "Tm": 348.15, 
	 "num_atms": 72, 
	 "gaussian": { 
		 "optdone": 1, 
		 "sigma_profile": "yes", 
		 "theory": "DFT", 
		 "functional": "B3LYP", 
		 "basiset": "6-31G**", 
		 "properties": { 
			 "R2extent": 17015.8431, 
			 "electric_dipole_moment_norm": 1.55579103031, 
			 "electric_quadrupole_moment_norm": 10.5146463673, 
			 "total_energy": -980.649295203, 
			 "HOMO_LUMO_gap": 0.32428, 
			 "cosmo_polarized_energy": -6.51, 
			 "cosmo_cavitation_energy": 67.07, 
			 "cosmo_dispersion_energy": -41.55, 
			 "cosmo_repulsion_energy": 3.28, 
			 "cosmo_total_nonelectrostatic_energy": 28.8, 
			 "SMD_solvation_energy": 8.15 
		},
		"coords": [
			{
				"x": -0.4383044682,
				"y": 1.9372944354,
				"z": -3.7513140072,
				"element": "C" 
			},
			{
				"x": -1.9315465052,
				"y": 2.2309759528,
				"z": -3.9365039621,
				"element": "C" 
			},
			{
				"x": -2.8997028801,
				"y": 1.1295379285,
				"z": -3.4675701067,
				"element": "C" 
			},
			{
				"x": -2.821669233,
				"y": -0.2147556315,
				"z": -4.2247259621,
				"element": "C" 
			},
			{
				"x": -1.8559116401,
				"y": -1.2524497334,
				"z": -3.630220447,
				"element": "C" 
			},
			{
				"x": -1.8546679442,
				"y": -2.5782815013,
				"z": -4.4049025575,
				"element": "C" 
			},
			{
				"x": -0.8630651729,
				"y": -3.6321583429,
				"z": -3.8831783599,
				"element": "C" 
			},
			{
				"x": -1.1873651127,
				"y": -4.1763442111,
				"z": -2.4831337701,
				"element": "C" 
			},
			{
				"x": -0.2485152046,
				"y": -5.3066673802,
				"z": -2.017873387,
				"element": "C" 
			},
			{
				"x": 1.2052186571,
				"y": -4.9005720467,
				"z": -1.68070687,
				"element": "C" 
			},
			{
				"x": 1.4738064194,
				"y": -4.5546547602,
				"z": -0.2024000054,
				"element": "C" 
			},
			{
				"x": 0.775521585,
				"y": -3.3104907417,
				"z": 0.3754363488,
				"element": "C" 
			},
			{
				"x": 1.2120542849,
				"y": -1.9835702908,
				"z": -0.2631271279,
				"element": "C" 
			},
			{
				"x": 0.5221346432,
				"y": -0.7341620412,
				"z": 0.3134885298,
				"element": "C" 
			},
			{
				"x": 0.8932739828,
				"y": -0.4100847087,
				"z": 1.7684093514,
				"element": "C" 
			},
			{
				"x": 0.177394545,
				"y": 0.822677285,
				"z": 2.3502980669,
				"element": "C" 
			},
			{
				"x": 0.4680439519,
				"y": 2.1657136151,
				"z": 1.6516104346,
				"element": "C" 
			},
			{
				"x": 1.946615118,
				"y": 2.5908397384,
				"z": 1.5790996416,
				"element": "C" 
			},
			{
				"x": 2.7033944819,
				"y": 2.7844464119,
				"z": 2.9082504306,
				"element": "C" 
			},
			{
				"x": 2.2221587123,
				"y": 3.9546446389,
				"z": 3.7961101681,
				"element": "C" 
			},
			{
				"x": 1.1132003457,
				"y": 3.6197218632,
				"z": 4.811657293,
				"element": "C" 
			},
			{
				"x": 1.5800636189,
				"y": 2.7318336229,
				"z": 5.9745843376,
				"element": "C" 
			},
			{
				"x": 0.4354162159,
				"y": 2.2042437868,
				"z": 6.8432465336,
				"element": "C" 
			},
			{
				"x": -0.4067909818,
				"y": 1.2827908541,
				"z": 6.1549726771,
				"element": "O" 
			},
			{
				"x": -0.1046305762,
				"y": 1.1033980721,
				"z": -4.3766248792,
				"element": "H" 
			},
			{
				"x": 0.166924739,
				"y": 2.8092824511,
				"z": -4.0220328926,
				"element": "H" 
			},
			{
				"x": -0.2082845935,
				"y": 1.6844453984,
				"z": -2.7094627786,
				"element": "H" 
			},
			{
				"x": -2.1270949623,
				"y": 2.4448549186,
				"z": -4.9965027224,
				"element": "H" 
			},
			{
				"x": -2.1780925433,
				"y": 3.1536474619,
				"z": -3.3946745437,
				"element": "H" 
			},
			{
				"x": -2.7543387006,
				"y": 0.9499350298,
				"z": -2.3925993948,
				"element": "H" 
			},
			{
				"x": -3.9174719003,
				"y": 1.5277660988,
				"z": -3.5666747963,
				"element": "H" 
			},
			{
				"x": -2.559140773,
				"y": -0.0272433423,
				"z": -5.2761160001,
				"element": "H" 
			},
			{
				"x": -3.8229047794,
				"y": -0.6656544537,
				"z": -4.2473272706,
				"element": "H" 
			},
			{
				"x": -2.1377890066,
				"y": -1.430607664,
				"z": -2.5841116477,
				"element": "H" 
			},
			{
				"x": -0.8346194265,
				"y": -0.8522909921,
				"z": -3.6036795625,
				"element": "H" 
			},
			{
				"x": -2.8696501244,
				"y": -3.0018858038,
				"z": -4.3990544151,
				"element": "H" 
			},
			{
				"x": -1.6225133093,
				"y": -2.3689565792,
				"z": -5.4582559541,
				"element": "H" 
			},
			{
				"x": -0.8426611915,
				"y": -4.4753200802,
				"z": -4.5876049896,
				"element": "H" 
			},
			{
				"x": 0.1493474789,
				"y": -3.2055021811,
				"z": -3.8958643949,
				"element": "H" 
			},
			{
				"x": -2.2169039562,
				"y": -4.5611814561,
				"z": -2.4928848395,
				"element": "H" 
			},
			{
				"x": -1.1787398755,
				"y": -3.3589218844,
				"z": -1.7536675893,
				"element": "H" 
			},
			{
				"x": -0.6885457093,
				"y": -5.8002570301,
				"z": -1.1406094071,
				"element": "H" 
			},
			{
				"x": -0.2303338583,
				"y": -6.0702396804,
				"z": -2.8073212879,
				"element": "H" 
			},
			{
				"x": 1.5252013987,
				"y": -4.0734597474,
				"z": -2.3264229429,
				"element": "H" 
			},
			{
				"x": 1.8669816789,
				"y": -5.7376294367,
				"z": -1.936325298,
				"element": "H" 
			},
			{
				"x": 2.5582373145,
				"y": -4.4342783853,
				"z": -0.0691960425,
				"element": "H" 
			},
			{
				"x": 1.1928241965,
				"y": -5.4246894751,
				"z": 0.4071044857,
				"element": "H" 
			},
			{
				"x": 0.9844281942,
				"y": -3.2811194306,
				"z": 1.4520719788,
				"element": "H" 
			},
			{
				"x": -0.314232665,
				"y": -3.4162123,
				"z": 0.2884190901,
				"element": "H" 
			},
			{
				"x": 2.3018249543,
				"y": -1.875903806,
				"z": -0.1589448523,
				"element": "H" 
			},
			{
				"x": 1.0159118023,
				"y": -2.0178326661,
				"z": -1.3419902528,
				"element": "H" 
			},
			{
				"x": -0.5686674984,
				"y": -0.8555896084,
				"z": 0.237682262,
				"element": "H" 
			},
			{
				"x": 0.7739640633,
				"y": 0.1226992257,
				"z": -0.3244622869,
				"element": "H" 
			},
			{
				"x": 0.6539710524,
				"y": -1.2683399398,
				"z": 2.4077352072,
				"element": "H" 
			},
			{
				"x": 1.9819648584,
				"y": -0.2798789984,
				"z": 1.8402301529,
				"element": "H" 
			},
			{
				"x": 0.420642621,
				"y": 0.893118545,
				"z": 3.4179058601,
				"element": "H" 
			},
			{
				"x": -0.907035753,
				"y": 0.646586707,
				"z": 2.3073557759,
				"element": "H" 
			},
			{
				"x": -0.1157500696,
				"y": 2.9516755299,
				"z": 2.1478573553,
				"element": "H" 
			},
			{
				"x": 0.0806560184,
				"y": 2.1277175794,
				"z": 0.6252963923,
				"element": "H" 
			},
			{
				"x": 2.497442269,
				"y": 1.853355375,
				"z": 0.9807886993,
				"element": "H" 
			},
			{
				"x": 2.0031532505,
				"y": 3.5300913881,
				"z": 1.0114170621,
				"element": "H" 
			},
			{
				"x": 2.6952870169,
				"y": 1.8494191531,
				"z": 3.4820925902,
				"element": "H" 
			},
			{
				"x": 3.7562652514,
				"y": 2.9584552649,
				"z": 2.6532423151,
				"element": "H" 
			},
			{
				"x": 1.8830180856,
				"y": 4.7744136334,
				"z": 3.148521092,
				"element": "H" 
			},
			{
				"x": 3.079324066,
				"y": 4.3536899181,
				"z": 4.3550740127,
				"element": "H" 
			},
			{
				"x": 0.2809904082,
				"y": 3.1331663284,
				"z": 4.2891664581,
				"element": "H" 
			},
			{
				"x": 0.7087537816,
				"y": 4.5550027915,
				"z": 5.222622965,
				"element": "H" 
			},
			{
				"x": 2.1352072487,
				"y": 1.8654809632,
				"z": 5.5958297642,
				"element": "H" 
			},
			{
				"x": 2.2756760125,
				"y": 3.2991485989,
				"z": 6.6086055563,
				"element": "H" 
			},
			{
				"x": 0.8409743436,
				"y": 1.6479374924,
				"z": 7.6945446959,
				"element": "H" 
			},
			{
				"x": -0.1500052782,
				"y": 3.0434877619,
				"z": 7.2538814017,
				"element": "H" 
			},
			{
				"x": -0.9085229739,
				"y": 1.7731905114,
				"z": 5.4925586184,
				"element": "H" 
			}
		],
		 "valence_orbital": [ 
			{
				"type": "occ",
				"energy": -0.29672,
				"method": "rhf"
			},
			{
				"type": "occ",
				"energy": -0.29612,
				"method": "rhf"
			},
			{
				"type": "occ",
				"energy": -0.29458,
				"method": "rhf"
			},
			{
				"type": "occ",
				"energy": -0.29013,
				"method": "rhf"
			},
			{
				"type": "occ",
				"energy": -0.26305,
				"method": "rhf"
			},
			{
				"type": "unocc",
				"energy": 0.06123,
				"method": "rhf"
			},
			{
				"type": "unocc",
				"energy": 0.06595,
				"method": "rhf"
			},
			{
				"type": "unocc",
				"energy": 0.08081,
				"method": "rhf"
			},
			{
				"type": "unocc",
				"energy": 0.0859,
				"method": "rhf"
			},
			{
				"type": "unocc",
				"energy": 0.09435,
				"method": "rhf"
			}
		],
		"cosmo_sigma_profile": { 
			"-0.025": 0.0,
			"-0.024": 0.0,
			"-0.023": 0.0,
			"-0.022": 0.0,
			"-0.021": 0.0,
			"-0.02": 0.0,
			"-0.019": 0.0,
			"-0.018": 0.0,
			"-0.017": 0.0,
			"-0.016": 0.0,
			"-0.015": 0.0,
			"-0.014": 0.425341389044,
			"-0.013": 0.824200946239,
			"-0.012": 0.531904066403,
			"-0.011": 0.640180992884,
			"-0.01": 1.26927587453,
			"-0.009": 0.892016409379,
			"-0.008": 0.896697452087,
			"-0.007": 0.782356059475,
			"-0.006": 1.06823419637,
			"-0.005": 1.87270588451,
			"-0.004": 3.97420025403,
			"-0.003": 11.6588032387,
			"-0.002": 58.5188736264,
			"-0.001": 125.137651076,
			"0.0": 129.660977214,
			"0.001": 105.533170588,
			"0.002": 47.1489522989,
			"0.003": 3.67967332661,
			"0.004": 1.94364382773,
			"0.005": 1.45209693215,
			"0.006": 1.32061288375,
			"0.007": 1.32644083802,
			"0.008": 1.26478822438,
			"0.009": 1.03380227837,
			"0.01": 1.20836351791,
			"0.011": 1.03540349465,
			"0.012": 1.43869452376,
			"0.013": 1.40247264164,
			"0.014": 1.97535873307,
			"0.015": 1.35497597829,
			"0.016": 0.0,
			"0.017": 0.0,
			"0.018": 0.0,
			"0.019": 0.0,
			"0.02": 0.0,
			"0.021": 0.0,
			"0.022": 0.0,
			"0.023": 0.0,
			"0.024": 0.0,
			"0.025": 0.0
		}
	}
}
