{
	 "smiles": "COC1=CC(OC)=C(C(C)=O)C(OC)=C1", 
	 "Tm": 376.15, 
	 "num_atms": 29, 
	 "gaussian": { 
		 "optdone": 1, 
		 "sigma_profile": "yes", 
		 "theory": "DFT", 
		 "functional": "B3LYP", 
		 "basiset": "6-31G**", 
		 "properties": { 
			 "R2extent": 3806.3297, 
			 "electric_dipole_moment_norm": 3.61874035819, 
			 "electric_quadrupole_moment_norm": 11.2168852678, 
			 "total_energy": -728.457414881, 
			 "HOMO_LUMO_gap": 0.18688, 
			 "cosmo_polarized_energy": -12.05, 
			 "cosmo_cavitation_energy": 31.94, 
			 "cosmo_dispersion_energy": -22.93, 
			 "cosmo_repulsion_energy": 1.79, 
			 "cosmo_total_nonelectrostatic_energy": 10.81, 
			 "SMD_solvation_energy": 8.44 
		},
		"coords": [
			{
				"x": -1.2518724054,
				"y": -1.8195145593,
				"z": -4.1735603433,
				"element": "C" 
			},
			{
				"x": -1.106207649,
				"y": -0.4757689341,
				"z": -3.7343837039,
				"element": "O" 
			},
			{
				"x": -0.5183361339,
				"y": -0.2528308734,
				"z": -2.5282432494,
				"element": "C" 
			},
			{
				"x": -0.4323525223,
				"y": 1.0958644417,
				"z": -2.1481588723,
				"element": "C" 
			},
			{
				"x": 0.1485679892,
				"y": 1.4247463094,
				"z": -0.9309652334,
				"element": "C" 
			},
			{
				"x": 0.2178460431,
				"y": 2.7138484229,
				"z": -0.4878276857,
				"element": "O" 
			},
			{
				"x": -0.3174833931,
				"y": 3.7488695124,
				"z": -1.2989828397,
				"element": "C" 
			},
			{
				"x": 0.6612639926,
				"y": 0.4344955384,
				"z": -0.0398263985,
				"element": "C" 
			},
			{
				"x": 1.0678288345,
				"y": 0.7902418947,
				"z": 1.3561715437,
				"element": "C" 
			},
			{
				"x": 1.8367214812,
				"y": 2.0733492301,
				"z": 1.637749322,
				"element": "C" 
			},
			{
				"x": 0.7979318251,
				"y": 0.0432517819,
				"z": 2.2891072301,
				"element": "O" 
			},
			{
				"x": 0.5867224282,
				"y": -0.9092936274,
				"z": -0.479162468,
				"element": "C" 
			},
			{
				"x": 1.0702938781,
				"y": -1.994037133,
				"z": 0.1811242424,
				"element": "O" 
			},
			{
				"x": 2.2707968137,
				"y": -1.9469480619,
				"z": 0.949793484,
				"element": "C" 
			},
			{
				"x": -0.0014049755,
				"y": -1.2485550625,
				"z": -1.7092721183,
				"element": "C" 
			},
			{
				"x": -1.8507949515,
				"y": -2.409819923,
				"z": -3.4695607958,
				"element": "H" 
			},
			{
				"x": -1.7681946642,
				"y": -1.7669902619,
				"z": -5.1331530557,
				"element": "H" 
			},
			{
				"x": -0.2782046036,
				"y": -2.3055039666,
				"z": -4.3124963132,
				"element": "H" 
			},
			{
				"x": -0.844204253,
				"y": 1.8402615414,
				"z": -2.8151440712,
				"element": "H" 
			},
			{
				"x": 0.1932735479,
				"y": 3.8077819364,
				"z": -2.2678912472,
				"element": "H" 
			},
			{
				"x": -1.3929195406,
				"y": 3.6132528659,
				"z": -1.4659411814,
				"element": "H" 
			},
			{
				"x": -0.151565752,
				"y": 4.6753218399,
				"z": -0.7471393596,
				"element": "H" 
			},
			{
				"x": 2.4567037634,
				"y": 2.3898431563,
				"z": 0.7965665565,
				"element": "H" 
			},
			{
				"x": 1.1347368073,
				"y": 2.8849031741,
				"z": 1.8499290728,
				"element": "H" 
			},
			{
				"x": 2.4474022068,
				"y": 1.9046226995,
				"z": 2.5279104266,
				"element": "H" 
			},
			{
				"x": 2.9475584398,
				"y": -1.1681564928,
				"z": 0.5790099912,
				"element": "H" 
			},
			{
				"x": 2.0548130091,
				"y": -1.762952341,
				"z": 2.0030580683,
				"element": "H" 
			},
			{
				"x": 2.7448381686,
				"y": -2.9238728999,
				"z": 0.8227834935,
				"element": "H" 
			},
			{
				"x": -0.0006583844,
				"y": -2.2938102082,
				"z": -1.9864944946,
				"element": "H" 
			}
		],
		 "valence_orbital": [ 
			{
				"type": "occ",
				"energy": -0.30508,
				"method": "rhf"
			},
			{
				"type": "occ",
				"energy": -0.27221,
				"method": "rhf"
			},
			{
				"type": "occ",
				"energy": -0.23479,
				"method": "rhf"
			},
			{
				"type": "occ",
				"energy": -0.21772,
				"method": "rhf"
			},
			{
				"type": "occ",
				"energy": -0.21669,
				"method": "rhf"
			},
			{
				"type": "unocc",
				"energy": -0.02981,
				"method": "rhf"
			},
			{
				"type": "unocc",
				"energy": 0.01418,
				"method": "rhf"
			},
			{
				"type": "unocc",
				"energy": 0.03981,
				"method": "rhf"
			},
			{
				"type": "unocc",
				"energy": 0.09287,
				"method": "rhf"
			},
			{
				"type": "unocc",
				"energy": 0.09746,
				"method": "rhf"
			}
		],
		"cosmo_sigma_profile": { 
			"-0.025": 0.0,
			"-0.024": 0.0,
			"-0.023": 0.0,
			"-0.022": 0.0,
			"-0.021": 0.0,
			"-0.02": 0.0,
			"-0.019": 0.0,
			"-0.018": 0.0,
			"-0.017": 0.0,
			"-0.016": 0.0,
			"-0.015": 0.0,
			"-0.014": 0.0,
			"-0.013": 0.0,
			"-0.012": 0.0,
			"-0.011": 0.0,
			"-0.01": 0.0,
			"-0.009": 0.0,
			"-0.008": 0.0,
			"-0.007": 1.60351202257,
			"-0.006": 14.4848560343,
			"-0.005": 25.3822933394,
			"-0.004": 28.529932969,
			"-0.003": 30.1002274493,
			"-0.002": 20.8790110757,
			"-0.001": 16.8315193416,
			"0.0": 15.4061012691,
			"0.001": 12.1945537486,
			"0.002": 13.9672426347,
			"0.003": 18.7061361225,
			"0.004": 15.4386953871,
			"0.005": 6.5893833997,
			"0.006": 5.64725838418,
			"0.007": 3.15676659371,
			"0.008": 4.5535939181,
			"0.009": 5.01921984666,
			"0.01": 4.35578024672,
			"0.011": 2.58394648677,
			"0.012": 3.84147917192,
			"0.013": 2.57801773423,
			"0.014": 0.579786166013,
			"0.015": 0.0,
			"0.016": 0.0,
			"0.017": 0.0,
			"0.018": 0.0,
			"0.019": 0.0,
			"0.02": 0.0,
			"0.021": 0.0,
			"0.022": 0.0,
			"0.023": 0.0,
			"0.024": 0.0,
			"0.025": 0.0
		}
	}
}
