{
	 "smiles": "OC(=O)C1=CN(N=C1)C1=CC=C(Br)C=C1", 
	 "Tm": 528.15, 
	 "num_atms": 22, 
	 "gaussian": { 
		 "optdone": 1, 
		 "sigma_profile": "yes", 
		 "theory": "DFT", 
		 "functional": "B3LYP", 
		 "basiset": "6-31G**", 
		 "properties": { 
			 "R2extent": 7300.1271, 
			 "electric_dipole_moment_norm": 2.79975765201, 
			 "electric_quadrupole_moment_norm": 25.8420123307, 
			 "total_energy": -3216.62167453, 
			 "HOMO_LUMO_gap": 0.18431, 
			 "cosmo_polarized_energy": -17.5, 
			 "cosmo_cavitation_energy": 30.01, 
			 "cosmo_dispersion_energy": -22.59, 
			 "cosmo_repulsion_energy": 1.74, 
			 "cosmo_total_nonelectrostatic_energy": 9.16, 
			 "SMD_solvation_energy": 4.87 
		},
		"coords": [
			{
				"x": -2.1641301588,
				"y": -3.9926406853,
				"z": -2.9838765791,
				"element": "O" 
			},
			{
				"x": -1.9819347796,
				"y": -3.4180675027,
				"z": -1.7643199738,
				"element": "C" 
			},
			{
				"x": -2.5368850105,
				"y": -3.8736911534,
				"z": -0.7908512019,
				"element": "O" 
			},
			{
				"x": -1.0920466373,
				"y": -2.2405669582,
				"z": -1.7094398789,
				"element": "C" 
			},
			{
				"x": -0.8113097514,
				"y": -1.551251093,
				"z": -0.5419320386,
				"element": "C" 
			},
			{
				"x": 0.032215259,
				"y": -0.5387372716,
				"z": -0.8650343525,
				"element": "N" 
			},
			{
				"x": 0.3228201275,
				"y": -0.5276130124,
				"z": -2.1979385252,
				"element": "N" 
			},
			{
				"x": -0.3510300606,
				"y": -1.5477643361,
				"z": -2.7046378444,
				"element": "C" 
			},
			{
				"x": 0.6063579293,
				"y": 0.4466728006,
				"z": -0.0124945217,
				"element": "C" 
			},
			{
				"x": 1.4607504528,
				"y": 1.4096787312,
				"z": -0.5601424617,
				"element": "C" 
			},
			{
				"x": 2.0299602447,
				"y": 2.3795855372,
				"z": 0.2604746054,
				"element": "C" 
			},
			{
				"x": 1.7446895179,
				"y": 2.3853749796,
				"z": 1.6251311333,
				"element": "C" 
			},
			{
				"x": 2.5249518916,
				"y": 3.7144885529,
				"z": 2.7488633627,
				"element": "Br" 
			},
			{
				"x": 0.8945562561,
				"y": 1.4293519849,
				"z": 2.1775721094,
				"element": "C" 
			},
			{
				"x": 0.3241406118,
				"y": 0.4580562053,
				"z": 1.3575617254,
				"element": "C" 
			},
			{
				"x": -1.6620546251,
				"y": -3.5248938878,
				"z": -3.6650501385,
				"element": "H" 
			},
			{
				"x": -1.1684072767,
				"y": -1.7418028717,
				"z": 0.456803584,
				"element": "H" 
			},
			{
				"x": -0.2751909708,
				"y": -1.742580057,
				"z": -3.7678778429,
				"element": "H" 
			},
			{
				"x": 1.6696766253,
				"y": 1.38810172,
				"z": -1.6219150882,
				"element": "H" 
			},
			{
				"x": 2.6921879466,
				"y": 3.1266676139,
				"z": -0.1614861793,
				"element": "H" 
			},
			{
				"x": 0.6766976943,
				"y": 1.4392430218,
				"z": 3.2390945723,
				"element": "H" 
			},
			{
				"x": -0.3350152861,
				"y": -0.278712318,
				"z": 1.801795534,
				"element": "H" 
			}
		],
		 "valence_orbital": [ 
			{
				"type": "occ",
				"energy": -0.29663,
				"method": "rhf"
			},
			{
				"type": "occ",
				"energy": -0.28379,
				"method": "rhf"
			},
			{
				"type": "occ",
				"energy": -0.27521,
				"method": "rhf"
			},
			{
				"type": "occ",
				"energy": -0.27507,
				"method": "rhf"
			},
			{
				"type": "occ",
				"energy": -0.24177,
				"method": "rhf"
			},
			{
				"type": "unocc",
				"energy": -0.05746,
				"method": "rhf"
			},
			{
				"type": "unocc",
				"energy": -0.03366,
				"method": "rhf"
			},
			{
				"type": "unocc",
				"energy": -0.0197,
				"method": "rhf"
			},
			{
				"type": "unocc",
				"energy": -0.00326,
				"method": "rhf"
			},
			{
				"type": "unocc",
				"energy": 0.01459,
				"method": "rhf"
			}
		],
		"cosmo_sigma_profile": { 
			"-0.025": 0.0,
			"-0.024": 0.0,
			"-0.023": 0.0,
			"-0.022": 0.0,
			"-0.021": 0.0,
			"-0.02": 0.0,
			"-0.019": 0.593446141061,
			"-0.018": 1.30789748049,
			"-0.017": 1.50191486627,
			"-0.016": 0.751521607492,
			"-0.015": 0.65843580519,
			"-0.014": 0.704323987989,
			"-0.013": 2.19843066993,
			"-0.012": 3.05058674805,
			"-0.011": 3.1446866473,
			"-0.01": 2.30727874272,
			"-0.009": 3.57825738879,
			"-0.008": 5.04147893854,
			"-0.007": 8.56518283196,
			"-0.006": 9.76393428288,
			"-0.005": 8.79114793532,
			"-0.004": 9.54683815213,
			"-0.003": 11.4758996226,
			"-0.002": 12.2996108368,
			"-0.001": 15.4469699081,
			"0.0": 19.8397336238,
			"0.001": 25.7514240401,
			"0.002": 25.4779048661,
			"0.003": 16.4364166945,
			"0.004": 14.9919646132,
			"0.005": 7.25418613911,
			"0.006": 4.03420387,
			"0.007": 3.25994154894,
			"0.008": 4.49113492594,
			"0.009": 4.17460294693,
			"0.01": 5.84416504892,
			"0.011": 5.5191877203,
			"0.012": 5.59576834472,
			"0.013": 2.02726035873,
			"0.014": 0.1748157591,
			"0.015": 0.0,
			"0.016": 0.0,
			"0.017": 0.0,
			"0.018": 0.0,
			"0.019": 0.0,
			"0.02": 0.0,
			"0.021": 0.0,
			"0.022": 0.0,
			"0.023": 0.0,
			"0.024": 0.0,
			"0.025": 0.0
		}
	}
}
