{
	 "smiles": "COC1=CC=C(CCCCCC(O)=O)C=C1", 
	 "Tm": 320.15, 
	 "num_atms": 34, 
	 "gaussian": { 
		 "optdone": 1, 
		 "sigma_profile": "yes", 
		 "theory": "DFT", 
		 "functional": "B3LYP", 
		 "basiset": "6-31G**", 
		 "properties": { 
			 "R2extent": 5558.1975, 
			 "electric_dipole_moment_norm": 2.08222348704, 
			 "electric_quadrupole_moment_norm": 15.6587860848, 
			 "total_energy": -731.924262585, 
			 "HOMO_LUMO_gap": 0.20761, 
			 "cosmo_polarized_energy": -11.75, 
			 "cosmo_cavitation_energy": 36.18, 
			 "cosmo_dispersion_energy": -25.38, 
			 "cosmo_repulsion_energy": 2.0, 
			 "cosmo_total_nonelectrostatic_energy": 12.8, 
			 "SMD_solvation_energy": 7.06 
		},
		"coords": [
			{
				"x": -0.9771426701,
				"y": 5.6243136435,
				"z": -0.0041550099,
				"element": "C" 
			},
			{
				"x": -1.9491319843,
				"y": 4.7668980643,
				"z": 0.5673170937,
				"element": "O" 
			},
			{
				"x": -1.8264501834,
				"y": 3.4206843814,
				"z": 0.3526995088,
				"element": "C" 
			},
			{
				"x": -0.8047075161,
				"y": 2.8208509473,
				"z": -0.3911641099,
				"element": "C" 
			},
			{
				"x": -0.7862066749,
				"y": 1.4307982828,
				"z": -0.5453613635,
				"element": "C" 
			},
			{
				"x": -1.7670155402,
				"y": 0.614632576,
				"z": 0.0265187446,
				"element": "C" 
			},
			{
				"x": -1.7102529491,
				"y": -0.8909214201,
				"z": -0.1222491613,
				"element": "C" 
			},
			{
				"x": -0.9658418044,
				"y": -1.579968133,
				"z": 1.0401534745,
				"element": "C" 
			},
			{
				"x": -0.8673462062,
				"y": -3.1098734024,
				"z": 0.9134619818,
				"element": "C" 
			},
			{
				"x": -0.0008754195,
				"y": -3.6552555565,
				"z": -0.2374387411,
				"element": "C" 
			},
			{
				"x": 1.4939639651,
				"y": -3.3103432832,
				"z": -0.133751974,
				"element": "C" 
			},
			{
				"x": 1.8478050849,
				"y": -1.9308237201,
				"z": -0.6482008852,
				"element": "C" 
			},
			{
				"x": 2.906249065,
				"y": -1.4002877878,
				"z": 0.0083583148,
				"element": "O" 
			},
			{
				"x": 1.2989688609,
				"y": -1.3528652255,
				"z": -1.5643563643,
				"element": "O" 
			},
			{
				"x": -2.7833060551,
				"y": 1.2388134778,
				"z": 0.76790819,
				"element": "C" 
			},
			{
				"x": -2.8191764875,
				"y": 2.6182162515,
				"z": 0.9327492009,
				"element": "C" 
			},
			{
				"x": -0.9643599702,
				"y": 5.5529019809,
				"z": -1.0999160806,
				"element": "H" 
			},
			{
				"x": -1.2597369645,
				"y": 6.638264858,
				"z": 0.284499222,
				"element": "H" 
			},
			{
				"x": 0.030269314,
				"y": 5.409964738,
				"z": 0.3771019356,
				"element": "H" 
			},
			{
				"x": -0.0290846822,
				"y": 3.4178003897,
				"z": -0.8570568754,
				"element": "H" 
			},
			{
				"x": 0.0091353729,
				"y": 0.9715539682,
				"z": -1.1275767179,
				"element": "H" 
			},
			{
				"x": -2.7291725957,
				"y": -1.2974591794,
				"z": -0.1757610703,
				"element": "H" 
			},
			{
				"x": -1.216533968,
				"y": -1.1385920218,
				"z": -1.0665959031,
				"element": "H" 
			},
			{
				"x": -1.4823985672,
				"y": -1.3409901464,
				"z": 1.9786466518,
				"element": "H" 
			},
			{
				"x": 0.0343644926,
				"y": -1.1387353186,
				"z": 1.140088758,
				"element": "H" 
			},
			{
				"x": -1.880288251,
				"y": -3.520220983,
				"z": 0.8025685107,
				"element": "H" 
			},
			{
				"x": -0.4805926052,
				"y": -3.5159925789,
				"z": 1.8584321448,
				"element": "H" 
			},
			{
				"x": -0.0962677527,
				"y": -4.7471188977,
				"z": -0.2448993605,
				"element": "H" 
			},
			{
				"x": -0.3717031058,
				"y": -3.3054814282,
				"z": -1.2064586443,
				"element": "H" 
			},
			{
				"x": 1.8675911716,
				"y": -3.4181943728,
				"z": 0.8893536488,
				"element": "H" 
			},
			{
				"x": 2.0771742092,
				"y": -4.0086275361,
				"z": -0.7495307948,
				"element": "H" 
			},
			{
				"x": 3.084301804,
				"y": -0.5418753963,
				"z": -0.4123505483,
				"element": "H" 
			},
			{
				"x": -3.5653000596,
				"y": 0.6320215529,
				"z": 1.2193870901,
				"element": "H" 
			},
			{
				"x": -3.6085313273,
				"y": 3.1000112754,
				"z": 1.5009791332,
				"element": "H" 
			}
		],
		 "valence_orbital": [ 
			{
				"type": "occ",
				"energy": -0.31038,
				"method": "rhf"
			},
			{
				"type": "occ",
				"energy": -0.29788,
				"method": "rhf"
			},
			{
				"type": "occ",
				"energy": -0.27918,
				"method": "rhf"
			},
			{
				"type": "occ",
				"energy": -0.23917,
				"method": "rhf"
			},
			{
				"type": "occ",
				"energy": -0.2034,
				"method": "rhf"
			},
			{
				"type": "unocc",
				"energy": 0.00421,
				"method": "rhf"
			},
			{
				"type": "unocc",
				"energy": 0.0091,
				"method": "rhf"
			},
			{
				"type": "unocc",
				"energy": 0.02376,
				"method": "rhf"
			},
			{
				"type": "unocc",
				"energy": 0.07047,
				"method": "rhf"
			},
			{
				"type": "unocc",
				"energy": 0.0898,
				"method": "rhf"
			}
		],
		"cosmo_sigma_profile": { 
			"-0.025": 0.0,
			"-0.024": 0.0,
			"-0.023": 0.0,
			"-0.022": 0.0,
			"-0.021": 0.0,
			"-0.02": 0.0,
			"-0.019": 0.0,
			"-0.018": 0.403223112074,
			"-0.017": 1.11438749743,
			"-0.016": 0.751106201065,
			"-0.015": 0.753365075987,
			"-0.014": 0.982802630479,
			"-0.013": 0.310827271967,
			"-0.012": 0.249591713561,
			"-0.011": 0.958221279904,
			"-0.01": 1.17238646366,
			"-0.009": 0.433599605888,
			"-0.008": 0.235446022908,
			"-0.007": 1.73770300382,
			"-0.006": 7.58448393368,
			"-0.005": 17.3043747111,
			"-0.004": 19.0431924933,
			"-0.003": 28.5617181482,
			"-0.002": 35.00208682,
			"-0.001": 30.78624336,
			"0.0": 25.5185676059,
			"0.001": 22.0353339999,
			"0.002": 12.1916173386,
			"0.003": 12.0017888233,
			"0.004": 12.2676902961,
			"0.005": 13.7332166389,
			"0.006": 13.8337962652,
			"0.007": 6.97384830997,
			"0.008": 3.07554290925,
			"0.009": 4.78788728106,
			"0.01": 3.85672492907,
			"0.011": 3.37985556708,
			"0.012": 2.1567047501,
			"0.013": 0.15743995756,
			"0.014": 0.0,
			"0.015": 0.0,
			"0.016": 0.0,
			"0.017": 0.0,
			"0.018": 0.0,
			"0.019": 0.0,
			"0.02": 0.0,
			"0.021": 0.0,
			"0.022": 0.0,
			"0.023": 0.0,
			"0.024": 0.0,
			"0.025": 0.0
		}
	}
}
