{
	 "smiles": "ClC(=O)C1=CC2=CC(Cl)=CC=C2OC1", 
	 "Tm": 366.15, 
	 "num_atms": 20, 
	 "gaussian": { 
		 "optdone": 1, 
		 "sigma_profile": "yes", 
		 "theory": "DFT", 
		 "functional": "B3LYP", 
		 "basiset": "6-31G**", 
		 "properties": { 
			 "R2extent": 4801.7208, 
			 "electric_dipole_moment_norm": 2.82199912651, 
			 "electric_quadrupole_moment_norm": 14.2126130856, 
			 "total_energy": -1455.50140206, 
			 "HOMO_LUMO_gap": 0.13463, 
			 "cosmo_polarized_energy": -8.21, 
			 "cosmo_cavitation_energy": 28.45, 
			 "cosmo_dispersion_energy": -21.38, 
			 "cosmo_repulsion_energy": 1.68, 
			 "cosmo_total_nonelectrostatic_energy": 8.75, 
			 "SMD_solvation_energy": 5.18 
		},
		"coords": [
			{
				"x": -0.7687688705,
				"y": 2.3576143443,
				"z": -4.0438308523,
				"element": "Cl" 
			},
			{
				"x": 0.7958964012,
				"y": 1.7218093597,
				"z": -3.3346694224,
				"element": "C" 
			},
			{
				"x": 1.7980533694,
				"y": 1.7762421867,
				"z": -3.9898623646,
				"element": "O" 
			},
			{
				"x": 0.7006760003,
				"y": 1.1686050925,
				"z": -1.984100718,
				"element": "C" 
			},
			{
				"x": -0.4335397499,
				"y": 1.0600772073,
				"z": -1.2569363874,
				"element": "C" 
			},
			{
				"x": -0.3854131201,
				"y": 0.5033073102,
				"z": 0.0783837567,
				"element": "C" 
			},
			{
				"x": -1.5416469467,
				"y": 0.2098879299,
				"z": 0.8206446691,
				"element": "C" 
			},
			{
				"x": -1.4257297441,
				"y": -0.2477636707,
				"z": 2.1264071219,
				"element": "C" 
			},
			{
				"x": -2.8713760443,
				"y": -0.6284828158,
				"z": 3.0471505897,
				"element": "Cl" 
			},
			{
				"x": -0.1685844165,
				"y": -0.399422342,
				"z": 2.7225842113,
				"element": "C" 
			},
			{
				"x": 0.9846394465,
				"y": -0.1049542257,
				"z": 1.9993006294,
				"element": "C" 
			},
			{
				"x": 0.8831017967,
				"y": 0.3299079235,
				"z": 0.6768940214,
				"element": "C" 
			},
			{
				"x": 2.0244597821,
				"y": 0.654331732,
				"z": 0.0166167039,
				"element": "O" 
			},
			{
				"x": 1.9913237011,
				"y": 0.609281782,
				"z": -1.4191314645,
				"element": "C" 
			},
			{
				"x": -1.3818425787,
				"y": 1.4098424486,
				"z": -1.6512940454,
				"element": "H" 
			},
			{
				"x": -2.5198918851,
				"y": 0.3447039011,
				"z": 0.371068804,
				"element": "H" 
			},
			{
				"x": -0.0966375888,
				"y": -0.7503708787,
				"z": 3.7460667674,
				"element": "H" 
			},
			{
				"x": 1.967480405,
				"y": -0.2120315787,
				"z": 2.4448335078,
				"element": "H" 
			},
			{
				"x": 2.8507480522,
				"y": 1.1885014203,
				"z": -1.7573292718,
				"element": "H" 
			},
			{
				"x": 2.1332519902,
				"y": -0.4320871265,
				"z": -1.7478962561,
				"element": "H" 
			}
		],
		 "valence_orbital": [ 
			{
				"type": "occ",
				"energy": -0.32293,
				"method": "rhf"
			},
			{
				"type": "occ",
				"energy": -0.31208,
				"method": "rhf"
			},
			{
				"type": "occ",
				"energy": -0.29812,
				"method": "rhf"
			},
			{
				"type": "occ",
				"energy": -0.26982,
				"method": "rhf"
			},
			{
				"type": "occ",
				"energy": -0.23569,
				"method": "rhf"
			},
			{
				"type": "unocc",
				"energy": -0.10106,
				"method": "rhf"
			},
			{
				"type": "unocc",
				"energy": -0.02571,
				"method": "rhf"
			},
			{
				"type": "unocc",
				"energy": -0.01333,
				"method": "rhf"
			},
			{
				"type": "unocc",
				"energy": 0.01249,
				"method": "rhf"
			},
			{
				"type": "unocc",
				"energy": 0.01803,
				"method": "rhf"
			}
		],
		"cosmo_sigma_profile": { 
			"-0.025": 0.0,
			"-0.024": 0.0,
			"-0.023": 0.0,
			"-0.022": 0.0,
			"-0.021": 0.0,
			"-0.02": 0.0,
			"-0.019": 0.0,
			"-0.018": 0.0,
			"-0.017": 0.0,
			"-0.016": 0.0,
			"-0.015": 0.0,
			"-0.014": 0.0,
			"-0.013": 0.0,
			"-0.012": 0.0,
			"-0.011": 0.0,
			"-0.01": 0.661944641833,
			"-0.009": 2.58561462786,
			"-0.008": 5.24887903756,
			"-0.007": 9.18337784721,
			"-0.006": 12.2393146488,
			"-0.005": 10.7889287323,
			"-0.004": 13.4059596758,
			"-0.003": 11.9012998132,
			"-0.002": 15.1712545046,
			"-0.001": 19.2460360342,
			"0.0": 20.5395733307,
			"0.001": 25.0482897491,
			"0.002": 22.8362379837,
			"0.003": 13.8573057566,
			"0.004": 18.9140972931,
			"0.005": 13.6758687567,
			"0.006": 4.37049184689,
			"0.007": 3.21891473035,
			"0.008": 4.80727094839,
			"0.009": 4.95152997561,
			"0.01": 1.12033443346,
			"0.011": 0.0,
			"0.012": 0.0,
			"0.013": 0.0,
			"0.014": 0.0,
			"0.015": 0.0,
			"0.016": 0.0,
			"0.017": 0.0,
			"0.018": 0.0,
			"0.019": 0.0,
			"0.02": 0.0,
			"0.021": 0.0,
			"0.022": 0.0,
			"0.023": 0.0,
			"0.024": 0.0,
			"0.025": 0.0
		}
	}
}
