{
	 "smiles": "ClC1=CC=C(C=C1)C1=CSC(=N1)C(=C/C1=CN=CC=C1)C#N", 
	 "Tm": 526.15, 
	 "num_atms": 32, 
	 "gaussian": { 
		 "optdone": 1, 
		 "sigma_profile": "yes", 
		 "theory": "DFT", 
		 "functional": "B3LYP", 
		 "basiset": "6-31G**", 
		 "properties": { 
			 "R2extent": 10604.3775, 
			 "electric_dipole_moment_norm": 3.16521092662, 
			 "electric_quadrupole_moment_norm": 25.5503158916, 
			 "total_energy": -1676.42922418, 
			 "HOMO_LUMO_gap": 0.12796, 
			 "cosmo_polarized_energy": -14.02, 
			 "cosmo_cavitation_energy": 42.41, 
			 "cosmo_dispersion_energy": -29.62, 
			 "cosmo_repulsion_energy": 2.16, 
			 "cosmo_total_nonelectrostatic_energy": 14.96, 
			 "SMD_solvation_energy": 5.9 
		},
		"coords": [
			{
				"x": 4.8471320907,
				"y": -1.802741823,
				"z": -1.5965937563,
				"element": "Cl" 
			},
			{
				"x": 3.4225321143,
				"y": -0.8109755419,
				"z": -1.3328477328,
				"element": "C" 
			},
			{
				"x": 2.4022524596,
				"y": -1.2776628055,
				"z": -0.5043724859,
				"element": "C" 
			},
			{
				"x": 1.2742912041,
				"y": -0.4866426092,
				"z": -0.3006768226,
				"element": "C" 
			},
			{
				"x": 1.1509472941,
				"y": 0.7700153669,
				"z": -0.9150093032,
				"element": "C" 
			},
			{
				"x": 2.1904726906,
				"y": 1.2115449331,
				"z": -1.7491554568,
				"element": "C" 
			},
			{
				"x": 3.3245511966,
				"y": 0.4316966155,
				"z": -1.959348229,
				"element": "C" 
			},
			{
				"x": -0.0445040358,
				"y": 1.5996270187,
				"z": -0.6729217759,
				"element": "C" 
			},
			{
				"x": -0.1243316773,
				"y": 2.9677239096,
				"z": -0.8076618913,
				"element": "C" 
			},
			{
				"x": -1.6949233689,
				"y": 3.5375901536,
				"z": -0.3993976987,
				"element": "S" 
			},
			{
				"x": -2.176426935,
				"y": 1.8679596363,
				"z": -0.0630202535,
				"element": "C" 
			},
			{
				"x": -1.2116612571,
				"y": 1.0056885723,
				"z": -0.2482313314,
				"element": "N" 
			},
			{
				"x": -3.5452854415,
				"y": 1.5883071663,
				"z": 0.3853248975,
				"element": "C" 
			},
			{
				"x": -4.2234004546,
				"y": 0.4071787496,
				"z": 0.5536163498,
				"element": "C" 
			},
			{
				"x": -3.9528751044,
				"y": -1.003107798,
				"z": 0.3252890269,
				"element": "C" 
			},
			{
				"x": -5.0032018795,
				"y": -1.8886007554,
				"z": 0.669856774,
				"element": "C" 
			},
			{
				"x": -4.9681709244,
				"y": -3.2098711235,
				"z": 0.5214799465,
				"element": "N" 
			},
			{
				"x": -3.8517356117,
				"y": -3.7353152526,
				"z": -0.0034746412,
				"element": "C" 
			},
			{
				"x": -2.7518596997,
				"y": -2.9671039492,
				"z": -0.3892499248,
				"element": "C" 
			},
			{
				"x": -2.7928223244,
				"y": -1.587457377,
				"z": -0.2216510856,
				"element": "C" 
			},
			{
				"x": -4.3090972566,
				"y": 2.7666636273,
				"z": 0.7080056151,
				"element": "C" 
			},
			{
				"x": -4.9253265957,
				"y": 3.7211314746,
				"z": 0.961463268,
				"element": "N" 
			},
			{
				"x": 2.4941540929,
				"y": -2.2442400512,
				"z": -0.0214550932,
				"element": "H" 
			},
			{
				"x": 0.4820180003,
				"y": -0.8360866854,
				"z": 0.3521865491,
				"element": "H" 
			},
			{
				"x": 2.1077785982,
				"y": 2.1654683387,
				"z": -2.2610435822,
				"element": "H" 
			},
			{
				"x": 4.1202425642,
				"y": 0.7769863858,
				"z": -2.6099433193,
				"element": "H" 
			},
			{
				"x": 0.6579198548,
				"y": 3.6587922576,
				"z": -1.0859328519,
				"element": "H" 
			},
			{
				"x": -5.2300567964,
				"y": 0.5627641826,
				"z": 0.9369879,
				"element": "H" 
			},
			{
				"x": -5.9235445469,
				"y": -1.4822880638,
				"z": 1.0901351465,
				"element": "H" 
			},
			{
				"x": -3.8395047111,
				"y": -4.8175632859,
				"z": -0.1182970773,
				"element": "H" 
			},
			{
				"x": -1.8737795348,
				"y": -3.4456211033,
				"z": -0.81166681,
				"element": "H" 
			},
			{
				"x": -1.9537840045,
				"y": -0.9598601637,
				"z": -0.4914943502,
				"element": "H" 
			}
		],
		 "valence_orbital": [ 
			{
				"type": "occ",
				"energy": -0.29123,
				"method": "rhf"
			},
			{
				"type": "occ",
				"energy": -0.27584,
				"method": "rhf"
			},
			{
				"type": "occ",
				"energy": -0.26864,
				"method": "rhf"
			},
			{
				"type": "occ",
				"energy": -0.25612,
				"method": "rhf"
			},
			{
				"type": "occ",
				"energy": -0.22984,
				"method": "rhf"
			},
			{
				"type": "unocc",
				"energy": -0.10188,
				"method": "rhf"
			},
			{
				"type": "unocc",
				"energy": -0.05339,
				"method": "rhf"
			},
			{
				"type": "unocc",
				"energy": -0.03547,
				"method": "rhf"
			},
			{
				"type": "unocc",
				"energy": -0.0274,
				"method": "rhf"
			},
			{
				"type": "unocc",
				"energy": -0.02088,
				"method": "rhf"
			}
		],
		"cosmo_sigma_profile": { 
			"-0.025": 0.0,
			"-0.024": 0.0,
			"-0.023": 0.0,
			"-0.022": 0.0,
			"-0.021": 0.0,
			"-0.02": 0.0,
			"-0.019": 0.0,
			"-0.018": 0.0,
			"-0.017": 0.0,
			"-0.016": 0.0,
			"-0.015": 0.0,
			"-0.014": 0.0,
			"-0.013": 0.0,
			"-0.012": 0.0,
			"-0.011": 0.0431361629969,
			"-0.01": 3.10847524534,
			"-0.009": 5.30095765556,
			"-0.008": 6.45117319134,
			"-0.007": 14.762479523,
			"-0.006": 14.6139465992,
			"-0.005": 16.2438812651,
			"-0.004": 14.7062521961,
			"-0.003": 18.5216863317,
			"-0.002": 25.0039490828,
			"-0.001": 30.7920964831,
			"0.0": 38.8421561989,
			"0.001": 44.652452988,
			"0.002": 33.6853817418,
			"0.003": 25.2045205405,
			"0.004": 17.1795314928,
			"0.005": 9.60522226873,
			"0.006": 3.64111069218,
			"0.007": 4.22428889712,
			"0.008": 4.07383895679,
			"0.009": 3.66297777335,
			"0.01": 3.97281144412,
			"0.011": 3.80529707127,
			"0.012": 3.17773646369,
			"0.013": 1.23193993518,
			"0.014": 1.0045232348,
			"0.015": 0.793830391396,
			"0.016": 0.477236540708,
			"0.017": 0.0137817095042,
			"0.018": 0.0,
			"0.019": 0.0,
			"0.02": 0.0,
			"0.021": 0.0,
			"0.022": 0.0,
			"0.023": 0.0,
			"0.024": 0.0,
			"0.025": 0.0
		}
	}
}
