{
	 "smiles": "O=C1N2C(CCC3=CC=CC=C23)CC2=CC=CC=C12", 
	 "Tm": 403.15, 
	 "num_atms": 34, 
	 "gaussian": { 
		 "optdone": 1, 
		 "sigma_profile": "yes", 
		 "theory": "DFT", 
		 "functional": "B3LYP", 
		 "basiset": "6-31G**", 
		 "properties": { 
			 "R2extent": 5287.9523, 
			 "electric_dipole_moment_norm": 3.97455362777, 
			 "electric_quadrupole_moment_norm": 9.48255152108, 
			 "total_energy": -786.859717823, 
			 "HOMO_LUMO_gap": 0.17132, 
			 "cosmo_polarized_energy": -11.62, 
			 "cosmo_cavitation_energy": 35.0, 
			 "cosmo_dispersion_energy": -25.96, 
			 "cosmo_repulsion_energy": 1.93, 
			 "cosmo_total_nonelectrostatic_energy": 10.96, 
			 "SMD_solvation_energy": 5.18 
		},
		"coords": [
			{
				"x": 0.9752655792,
				"y": -0.0650476707,
				"z": -2.0257134483,
				"element": "O" 
			},
			{
				"x": 0.8638148795,
				"y": -0.0394703902,
				"z": -0.8030966844,
				"element": "C" 
			},
			{
				"x": -0.1556963482,
				"y": 0.6429461655,
				"z": -0.1447448523,
				"element": "N" 
			},
			{
				"x": -0.3238244142,
				"y": 0.453809611,
				"z": 1.3298844112,
				"element": "C" 
			},
			{
				"x": -1.3207033012,
				"y": 1.464289303,
				"z": 1.9261460779,
				"element": "C" 
			},
			{
				"x": -1.248957215,
				"y": 2.8079676173,
				"z": 1.1891528206,
				"element": "C" 
			},
			{
				"x": -1.6552749092,
				"y": 2.5510253363,
				"z": -0.2365510184,
				"element": "C" 
			},
			{
				"x": -2.5927994194,
				"y": 3.3377309265,
				"z": -0.9071317954,
				"element": "C" 
			},
			{
				"x": -2.9994291755,
				"y": 3.0203469218,
				"z": -2.2026208984,
				"element": "C" 
			},
			{
				"x": -2.4770642659,
				"y": 1.8846352743,
				"z": -2.8210002149,
				"element": "C" 
			},
			{
				"x": -1.5504267914,
				"y": 1.0752920388,
				"z": -2.1643047243,
				"element": "C" 
			},
			{
				"x": -1.1221632051,
				"y": 1.410928979,
				"z": -0.870890822,
				"element": "C" 
			},
			{
				"x": 1.03915731,
				"y": 0.5365354348,
				"z": 2.0238571175,
				"element": "C" 
			},
			{
				"x": 1.9997902369,
				"y": -0.4543271721,
				"z": 1.4244751225,
				"element": "C" 
			},
			{
				"x": 3.0009841615,
				"y": -1.0881185607,
				"z": 2.1657232671,
				"element": "C" 
			},
			{
				"x": 3.8645353073,
				"y": -1.9963336985,
				"z": 1.5528852901,
				"element": "C" 
			},
			{
				"x": 3.7380782248,
				"y": -2.27509451,
				"z": 0.1883198902,
				"element": "C" 
			},
			{
				"x": 2.7488912227,
				"y": -1.6419525374,
				"z": -0.558302972,
				"element": "C" 
			},
			{
				"x": 1.8739083896,
				"y": -0.7374660375,
				"z": 0.057125495,
				"element": "C" 
			},
			{
				"x": -0.7158815181,
				"y": -0.560755574,
				"z": 1.4901274746,
				"element": "H" 
			},
			{
				"x": -2.3416691137,
				"y": 1.0776067501,
				"z": 1.8431631404,
				"element": "H" 
			},
			{
				"x": -1.1052407411,
				"y": 1.57334948,
				"z": 2.9948445818,
				"element": "H" 
			},
			{
				"x": -1.9076594719,
				"y": 3.5477564553,
				"z": 1.6542188078,
				"element": "H" 
			},
			{
				"x": -0.2268672385,
				"y": 3.209298938,
				"z": 1.24262478,
				"element": "H" 
			},
			{
				"x": -3.0053215436,
				"y": 4.2077062028,
				"z": -0.4017639609,
				"element": "H" 
			},
			{
				"x": -3.7219419779,
				"y": 3.6462804557,
				"z": -2.7179615136,
				"element": "H" 
			},
			{
				"x": -2.7932073597,
				"y": 1.616019274,
				"z": -3.8249191911,
				"element": "H" 
			},
			{
				"x": -1.142361074,
				"y": 0.2054115015,
				"z": -2.6559315673,
				"element": "H" 
			},
			{
				"x": 0.9040408398,
				"y": 0.3409053384,
				"z": 3.0931477953,
				"element": "H" 
			},
			{
				"x": 1.4350873349,
				"y": 1.5585463149,
				"z": 1.9327545488,
				"element": "H" 
			},
			{
				"x": 3.1010038435,
				"y": -0.8718301185,
				"z": 3.2265322095,
				"element": "H" 
			},
			{
				"x": 4.6348338581,
				"y": -2.488734983,
				"z": 2.1398224892,
				"element": "H" 
			},
			{
				"x": 4.4112765262,
				"y": -2.9814119504,
				"z": -0.2883430474,
				"element": "H" 
			},
			{
				"x": 2.6352213696,
				"y": -1.8224451159,
				"z": -1.621628609,
				"element": "H" 
			}
		],
		 "valence_orbital": [ 
			{
				"type": "occ",
				"energy": -0.25708,
				"method": "rhf"
			},
			{
				"type": "occ",
				"energy": -0.25052,
				"method": "rhf"
			},
			{
				"type": "occ",
				"energy": -0.24596,
				"method": "rhf"
			},
			{
				"type": "occ",
				"energy": -0.23563,
				"method": "rhf"
			},
			{
				"type": "occ",
				"energy": -0.21189,
				"method": "rhf"
			},
			{
				"type": "unocc",
				"energy": -0.04057,
				"method": "rhf"
			},
			{
				"type": "unocc",
				"energy": -0.00663,
				"method": "rhf"
			},
			{
				"type": "unocc",
				"energy": 0.00719,
				"method": "rhf"
			},
			{
				"type": "unocc",
				"energy": 0.0091,
				"method": "rhf"
			},
			{
				"type": "unocc",
				"energy": 0.06299,
				"method": "rhf"
			}
		],
		"cosmo_sigma_profile": { 
			"-0.025": 0.0,
			"-0.024": 0.0,
			"-0.023": 0.0,
			"-0.022": 0.0,
			"-0.021": 0.0,
			"-0.02": 0.0,
			"-0.019": 0.0,
			"-0.018": 0.0,
			"-0.017": 0.0,
			"-0.016": 0.0,
			"-0.015": 0.0,
			"-0.014": 0.0,
			"-0.013": 0.0,
			"-0.012": 0.0,
			"-0.011": 0.0,
			"-0.01": 0.0,
			"-0.009": 0.0,
			"-0.008": 0.0,
			"-0.007": 0.179417574328,
			"-0.006": 6.7542127269,
			"-0.005": 27.8517801583,
			"-0.004": 34.2688776967,
			"-0.003": 31.355889302,
			"-0.002": 27.5094472539,
			"-0.001": 23.9060050441,
			"0.0": 17.0457786487,
			"0.001": 15.5192594116,
			"0.002": 15.0771842454,
			"0.003": 16.6738735753,
			"0.004": 19.1704593673,
			"0.005": 15.3176706169,
			"0.006": 9.7110348909,
			"0.007": 3.21059605503,
			"0.008": 2.42676788519,
			"0.009": 1.77433996816,
			"0.01": 1.41015801584,
			"0.011": 1.82189037689,
			"0.012": 2.87179050103,
			"0.013": 3.20294207754,
			"0.014": 1.15577956113,
			"0.015": 0.0,
			"0.016": 0.0,
			"0.017": 0.0,
			"0.018": 0.0,
			"0.019": 0.0,
			"0.02": 0.0,
			"0.021": 0.0,
			"0.022": 0.0,
			"0.023": 0.0,
			"0.024": 0.0,
			"0.025": 0.0
		}
	}
}
