{
	 "smiles": "OC(=O)CC1=CC=C(S1)S(=O)(=O)N1CCCCC1", 
	 "Tm": 355.15, 
	 "num_atms": 33, 
	 "gaussian": { 
		 "optdone": 1, 
		 "sigma_profile": "yes", 
		 "theory": "DFT", 
		 "functional": "B3LYP", 
		 "basiset": "6-31G**", 
		 "properties": { 
			 "R2extent": 6867.9044, 
			 "electric_dipole_moment_norm": 5.32862582098, 
			 "electric_quadrupole_moment_norm": 21.9274590144, 
			 "total_energy": -1580.15831744, 
			 "HOMO_LUMO_gap": 0.19157, 
			 "cosmo_polarized_energy": -19.61, 
			 "cosmo_cavitation_energy": 38.37, 
			 "cosmo_dispersion_energy": -27.94, 
			 "cosmo_repulsion_energy": 2.11, 
			 "cosmo_total_nonelectrostatic_energy": 12.54, 
			 "SMD_solvation_energy": 5.28 
		},
		"coords": [
			{
				"x": 1.1482060457,
				"y": -2.8009792374,
				"z": 4.6554179256,
				"element": "O" 
			},
			{
				"x": 1.2652874408,
				"y": -1.9309678709,
				"z": 3.6281967008,
				"element": "C" 
			},
			{
				"x": 0.9019167267,
				"y": -0.7786323879,
				"z": 3.6939047103,
				"element": "O" 
			},
			{
				"x": 1.9566015527,
				"y": -2.5798384448,
				"z": 2.442063194,
				"element": "C" 
			},
			{
				"x": 1.6521706136,
				"y": -1.9751886515,
				"z": 1.1015135611,
				"element": "C" 
			},
			{
				"x": 1.4572402112,
				"y": -2.6740256265,
				"z": -0.0656697669,
				"element": "C" 
			},
			{
				"x": 1.288530526,
				"y": -1.8379563422,
				"z": -1.2036806446,
				"element": "C" 
			},
			{
				"x": 1.3629921681,
				"y": -0.5088246627,
				"z": -0.877430577,
				"element": "C" 
			},
			{
				"x": 1.6239746112,
				"y": -0.25357367,
				"z": 0.8247929328,
				"element": "S" 
			},
			{
				"x": 1.2271445417,
				"y": 0.8292420853,
				"z": -2.0351955693,
				"element": "S" 
			},
			{
				"x": 1.072774752,
				"y": 0.196497121,
				"z": -3.352189824,
				"element": "O" 
			},
			{
				"x": 2.3126245691,
				"y": 1.7823247136,
				"z": -1.7858651309,
				"element": "O" 
			},
			{
				"x": -0.2012003261,
				"y": 1.5758487572,
				"z": -1.5566226785,
				"element": "N" 
			},
			{
				"x": -1.4413957409,
				"y": 0.8902025131,
				"z": -1.9868058488,
				"element": "C" 
			},
			{
				"x": -2.6495753263,
				"y": 1.7289992165,
				"z": -1.5660521073,
				"element": "C" 
			},
			{
				"x": -2.6607164855,
				"y": 3.1044119203,
				"z": -2.2705960455,
				"element": "C" 
			},
			{
				"x": -1.2247163613,
				"y": 3.6240809362,
				"z": -2.5249469673,
				"element": "C" 
			},
			{
				"x": -0.2380311045,
				"y": 3.0583237364,
				"z": -1.5000988908,
				"element": "C" 
			},
			{
				"x": 0.7513412854,
				"y": -2.3053674675,
				"z": 5.3920511443,
				"element": "H" 
			},
			{
				"x": 1.7156993211,
				"y": -3.6461591904,
				"z": 2.4264573454,
				"element": "H" 
			},
			{
				"x": 3.0340931291,
				"y": -2.5163011883,
				"z": 2.657505922,
				"element": "H" 
			},
			{
				"x": 1.4457381741,
				"y": -3.7578994468,
				"z": -0.1073615137,
				"element": "H" 
			},
			{
				"x": 1.1247644596,
				"y": -2.1827846392,
				"z": -2.2168407835,
				"element": "H" 
			},
			{
				"x": -1.4723962361,
				"y": -0.0969687529,
				"z": -1.5128395084,
				"element": "H" 
			},
			{
				"x": -1.4455647167,
				"y": 0.7339920254,
				"z": -3.0737364633,
				"element": "H" 
			},
			{
				"x": -2.6231832533,
				"y": 1.8575605042,
				"z": -0.4778352834,
				"element": "H" 
			},
			{
				"x": -3.5642672969,
				"y": 1.1711672163,
				"z": -1.7922346246,
				"element": "H" 
			},
			{
				"x": -3.195957777,
				"y": 3.0324048203,
				"z": -3.223961509,
				"element": "H" 
			},
			{
				"x": -3.2197179669,
				"y": 3.8182516356,
				"z": -1.6553477834,
				"element": "H" 
			},
			{
				"x": -0.8873148429,
				"y": 3.3346963605,
				"z": -3.5268565022,
				"element": "H" 
			},
			{
				"x": -1.1962012552,
				"y": 4.7186939278,
				"z": -2.489475694,
				"element": "H" 
			},
			{
				"x": 0.7726300655,
				"y": 3.4307176686,
				"z": -1.6672054948,
				"element": "H" 
			},
			{
				"x": -0.5304915038,
				"y": 3.3566524208,
				"z": -0.4849542253,
				"element": "H" 
			}
		],
		 "valence_orbital": [ 
			{
				"type": "occ",
				"energy": -0.29566,
				"method": "rhf"
			},
			{
				"type": "occ",
				"energy": -0.29261,
				"method": "rhf"
			},
			{
				"type": "occ",
				"energy": -0.26113,
				"method": "rhf"
			},
			{
				"type": "occ",
				"energy": -0.25319,
				"method": "rhf"
			},
			{
				"type": "occ",
				"energy": -0.23249,
				"method": "rhf"
			},
			{
				"type": "unocc",
				"energy": -0.04092,
				"method": "rhf"
			},
			{
				"type": "unocc",
				"energy": -0.00728,
				"method": "rhf"
			},
			{
				"type": "unocc",
				"energy": 0.0283,
				"method": "rhf"
			},
			{
				"type": "unocc",
				"energy": 0.04401,
				"method": "rhf"
			},
			{
				"type": "unocc",
				"energy": 0.05594,
				"method": "rhf"
			}
		],
		"cosmo_sigma_profile": { 
			"-0.025": 0.0,
			"-0.024": 0.0,
			"-0.023": 0.0,
			"-0.022": 0.0,
			"-0.021": 0.0,
			"-0.02": 0.0,
			"-0.019": 0.195397192595,
			"-0.018": 1.04911366162,
			"-0.017": 1.00283311574,
			"-0.016": 0.715458960934,
			"-0.015": 0.584987246564,
			"-0.014": 0.753574599147,
			"-0.013": 1.15781969301,
			"-0.012": 0.868614765063,
			"-0.011": 0.475585010156,
			"-0.01": 0.802195155365,
			"-0.009": 2.3218114949,
			"-0.008": 8.02331299306,
			"-0.007": 8.28716368563,
			"-0.006": 7.98056289585,
			"-0.005": 10.1351547687,
			"-0.004": 20.6696020123,
			"-0.003": 37.9081169383,
			"-0.002": 37.7302767182,
			"-0.001": 22.7174859948,
			"0.0": 23.0263640989,
			"0.001": 17.9873246878,
			"0.002": 17.3570302718,
			"0.003": 13.677362361,
			"0.004": 8.88223829503,
			"0.005": 8.02635069414,
			"0.006": 6.54084429752,
			"0.007": 5.3613871079,
			"0.008": 6.71772036877,
			"0.009": 6.91173096323,
			"0.01": 10.0580350047,
			"0.011": 11.8582980175,
			"0.012": 4.36759523657,
			"0.013": 0.0,
			"0.014": 0.0,
			"0.015": 0.0,
			"0.016": 0.0,
			"0.017": 0.0,
			"0.018": 0.0,
			"0.019": 0.0,
			"0.02": 0.0,
			"0.021": 0.0,
			"0.022": 0.0,
			"0.023": 0.0,
			"0.024": 0.0,
			"0.0": 0.0
		}
	}
}
