{
	 "smiles": "C1CCN(CC1)SSN1CCCCC1", 
	 "Tm": 337.35, 
	 "num_atms": 34, 
	 "gaussian": { 
		 "optdone": 1, 
		 "sigma_profile": "yes", 
		 "theory": "DFT", 
		 "functional": "B3LYP", 
		 "basiset": "6-31G**", 
		 "properties": { 
			 "R2extent": 4388.3349, 
			 "electric_dipole_moment_norm": 3.02479966113, 
			 "electric_quadrupole_moment_norm": 11.5488910407, 
			 "total_energy": -1298.97302548, 
			 "HOMO_LUMO_gap": 0.18097, 
			 "cosmo_polarized_energy": -6.29, 
			 "cosmo_cavitation_energy": 36.1, 
			 "cosmo_dispersion_energy": -26.06, 
			 "cosmo_repulsion_energy": 2.0, 
			 "cosmo_total_nonelectrostatic_energy": 12.04, 
			 "SMD_solvation_energy": 1.47 
		},
		"coords": [
			{
				"x": 0.8217833684,
				"y": -0.7180746765,
				"z": -3.8138586222,
				"element": "C" 
			},
			{
				"x": -0.5849973221,
				"y": -0.2669190421,
				"z": -3.3555196388,
				"element": "C" 
			},
			{
				"x": -0.5423771294,
				"y": 1.1363688687,
				"z": -2.7412873549,
				"element": "C" 
			},
			{
				"x": 0.3445655348,
				"y": 1.1890140595,
				"z": -1.5571556269,
				"element": "N" 
			},
			{
				"x": 1.4393834367,
				"y": 0.2106564436,
				"z": -1.5279816723,
				"element": "C" 
			},
			{
				"x": 1.9306755613,
				"y": -0.0705973801,
				"z": -2.950955479,
				"element": "C" 
			},
			{
				"x": -0.2703698321,
				"y": 1.7437774654,
				"z": -0.086112647,
				"element": "S" 
			},
			{
				"x": -1.6421107189,
				"y": 0.3029722229,
				"z": 0.8367386995,
				"element": "S" 
			},
			{
				"x": -0.8748077615,
				"y": -0.6620613846,
				"z": 1.9901879526,
				"element": "N" 
			},
			{
				"x": -0.4809847586,
				"y": -0.0679071052,
				"z": 3.2877787255,
				"element": "C" 
			},
			{
				"x": 1.0136779981,
				"y": -0.2573674462,
				"z": 3.5678683559,
				"element": "C" 
			},
			{
				"x": 1.3860269289,
				"y": -1.757881618,
				"z": 3.6168059834,
				"element": "C" 
			},
			{
				"x": 0.4551231412,
				"y": -2.5997708405,
				"z": 2.7122652975,
				"element": "C" 
			},
			{
				"x": -0.0528853208,
				"y": -1.7843668142,
				"z": 1.5196954957,
				"element": "C" 
			},
			{
				"x": 0.8901635275,
				"y": -1.8104131642,
				"z": -3.7573269259,
				"element": "H" 
			},
			{
				"x": 0.9803797516,
				"y": -0.4531428928,
				"z": -4.8652894397,
				"element": "H" 
			},
			{
				"x": -0.9822188628,
				"y": -0.9602379817,
				"z": -2.605451018,
				"element": "H" 
			},
			{
				"x": -1.2885675959,
				"y": -0.2777617438,
				"z": -4.1955047148,
				"element": "H" 
			},
			{
				"x": -0.1813423095,
				"y": 1.8574613517,
				"z": -3.4899510386,
				"element": "H" 
			},
			{
				"x": -1.5394355052,
				"y": 1.4618115489,
				"z": -2.4387449749,
				"element": "H" 
			},
			{
				"x": 2.2437532217,
				"y": 0.6168307518,
				"z": -0.9062036451,
				"element": "H" 
			},
			{
				"x": 1.1168007573,
				"y": -0.7361224209,
				"z": -1.0601151427,
				"element": "H" 
			},
			{
				"x": 2.2561477803,
				"y": 0.876425251,
				"z": -3.3970563741,
				"element": "H" 
			},
			{
				"x": 2.8149016826,
				"y": -0.7155249561,
				"z": -2.9072260257,
				"element": "H" 
			},
			{
				"x": -0.7460196052,
				"y": 0.9909490326,
				"z": 3.2756257889,
				"element": "H" 
			},
			{
				"x": -1.0703112025,
				"y": -0.538500293,
				"z": 4.0890542442,
				"element": "H" 
			},
			{
				"x": 1.5800830365,
				"y": 0.2505804231,
				"z": 2.7790269477,
				"element": "H" 
			},
			{
				"x": 1.2754300767,
				"y": 0.2380240333,
				"z": 4.5095588097,
				"element": "H" 
			},
			{
				"x": 2.4291199155,
				"y": -1.8845119901,
				"z": 3.3053595263,
				"element": "H" 
			},
			{
				"x": 1.324096798,
				"y": -2.1298578833,
				"z": 4.6457187064,
				"element": "H" 
			},
			{
				"x": 0.9733448979,
				"y": -3.4923190279,
				"z": 2.3455281215,
				"element": "H" 
			},
			{
				"x": -0.4117641094,
				"y": -2.9536512689,
				"z": 3.2824192146,
				"element": "H" 
			},
			{
				"x": 0.8087061872,
				"y": -1.4274608978,
				"z": 0.9284560215,
				"element": "H" 
			},
			{
				"x": -0.6653715682,
				"y": -2.4000206244,
				"z": 0.8530524496,
				"element": "H" 
			}
		],
		 "valence_orbital": [ 
			{
				"type": "occ",
				"energy": -0.30881,
				"method": "rhf"
			},
			{
				"type": "occ",
				"energy": -0.24898,
				"method": "rhf"
			},
			{
				"type": "occ",
				"energy": -0.23648,
				"method": "rhf"
			},
			{
				"type": "occ",
				"energy": -0.23,
				"method": "rhf"
			},
			{
				"type": "occ",
				"energy": -0.19496,
				"method": "rhf"
			},
			{
				"type": "unocc",
				"energy": -0.01399,
				"method": "rhf"
			},
			{
				"type": "unocc",
				"energy": 0.03572,
				"method": "rhf"
			},
			{
				"type": "unocc",
				"energy": 0.05071,
				"method": "rhf"
			},
			{
				"type": "unocc",
				"energy": 0.07071,
				"method": "rhf"
			},
			{
				"type": "unocc",
				"energy": 0.08454,
				"method": "rhf"
			}
		],
		"cosmo_sigma_profile": { 
			"-0.025": 0.0,
			"-0.024": 0.0,
			"-0.023": 0.0,
			"-0.022": 0.0,
			"-0.021": 0.0,
			"-0.02": 0.0,
			"-0.019": 0.0,
			"-0.018": 0.0,
			"-0.017": 0.0,
			"-0.016": 0.0,
			"-0.015": 0.0,
			"-0.014": 0.0,
			"-0.013": 0.0,
			"-0.012": 0.0,
			"-0.011": 0.0,
			"-0.01": 0.0,
			"-0.009": 0.0,
			"-0.008": 0.0,
			"-0.007": 0.0,
			"-0.006": 0.0,
			"-0.005": 0.357445562478,
			"-0.004": 9.36932369685,
			"-0.003": 37.5988398158,
			"-0.002": 63.7992273253,
			"-0.001": 51.251385662,
			"0.0": 34.9531008725,
			"0.001": 22.3775666174,
			"0.002": 9.7064315724,
			"0.003": 7.30876045596,
			"0.004": 9.76680424703,
			"0.005": 13.8745647704,
			"0.006": 9.08660735745,
			"0.007": 6.47232649238,
			"0.008": 4.98852255237,
			"0.009": 1.90385917501,
			"0.01": 0.530930816582,
			"0.011": 0.0,
			"0.012": 0.0,
			"0.013": 0.0,
			"0.014": 0.0,
			"0.015": 0.0,
			"0.016": 0.0,
			"0.017": 0.0,
			"0.018": 0.0,
			"0.019": 0.0,
			"0.02": 0.0,
			"0.021": 0.0,
			"0.022": 0.0,
			"0.023": 0.0,
			"0.024": 0.0,
			"0.025": 0.0
		}
	}
}
