{
	 "smiles": "COC1=CC=C(C=C1)C1=CC=C(C=C1)S(=O)(=O)NC(C)C(O)=O", 
	 "Tm": 452.15, 
	 "num_atms": 40, 
	 "gaussian": { 
		 "optdone": 1, 
		 "sigma_profile": "yes", 
		 "theory": "DFT", 
		 "functional": "B3LYP", 
		 "basiset": "6-31G**", 
		 "properties": { 
			 "R2extent": 13289.0327, 
			 "electric_dipole_moment_norm": 5.10698751222, 
			 "electric_quadrupole_moment_norm": 19.3907353806, 
			 "total_energy": -1448.94862149, 
			 "HOMO_LUMO_gap": 0.1722, 
			 "cosmo_polarized_energy": -22.83, 
			 "cosmo_cavitation_energy": 45.43, 
			 "cosmo_dispersion_energy": -32.77, 
			 "cosmo_repulsion_energy": 2.43, 
			 "cosmo_total_nonelectrostatic_energy": 15.09, 
			 "SMD_solvation_energy": 8.23 
		},
		"coords": [
			{
				"x": 3.1690836981,
				"y": -0.76034449,
				"z": 7.4421249578,
				"element": "C" 
			},
			{
				"x": 3.8447614593,
				"y": -0.3128972768,
				"z": 6.2769435152,
				"element": "O" 
			},
			{
				"x": 3.1610902887,
				"y": -0.2997257293,
				"z": 5.0980893445,
				"element": "C" 
			},
			{
				"x": 1.8311367741,
				"y": -0.7079125275,
				"z": 4.9408732748,
				"element": "C" 
			},
			{
				"x": 1.2346949063,
				"y": -0.6478524102,
				"z": 3.6805249338,
				"element": "C" 
			},
			{
				"x": 1.9317995669,
				"y": -0.1896819771,
				"z": 2.553911798,
				"element": "C" 
			},
			{
				"x": 3.2690824521,
				"y": 0.2144956636,
				"z": 2.7365112078,
				"element": "C" 
			},
			{
				"x": 3.8756703433,
				"y": 0.1636064888,
				"z": 3.9825489265,
				"element": "C" 
			},
			{
				"x": 1.2880514136,
				"y": -0.1333666747,
				"z": 1.2199677944,
				"element": "C" 
			},
			{
				"x": 2.0176068469,
				"y": -0.4219542493,
				"z": 0.0531439965,
				"element": "C" 
			},
			{
				"x": 1.4182195487,
				"y": -0.371559788,
				"z": -1.2028891798,
				"element": "C" 
			},
			{
				"x": 0.0679078267,
				"y": -0.0327034827,
				"z": -1.298605289,
				"element": "C" 
			},
			{
				"x": -0.6885428932,
				"y": 0.2596100456,
				"z": -0.1599855747,
				"element": "C" 
			},
			{
				"x": -0.0723292138,
				"y": 0.2062181046,
				"z": 1.0856485116,
				"element": "C" 
			},
			{
				"x": -0.6653168206,
				"y": 0.0979557357,
				"z": -2.9240940675,
				"element": "S" 
			},
			{
				"x": 0.2529148992,
				"y": -0.5457758258,
				"z": -3.873722408,
				"element": "O" 
			},
			{
				"x": -1.1421391753,
				"y": 1.466556836,
				"z": -3.1546423301,
				"element": "O" 
			},
			{
				"x": -2.0685924998,
				"y": -0.8564538004,
				"z": -2.7822229294,
				"element": "N" 
			},
			{
				"x": -3.3011749842,
				"y": -0.3274265267,
				"z": -3.3748928591,
				"element": "C" 
			},
			{
				"x": -4.2903052843,
				"y": -1.4882585302,
				"z": -3.57173201,
				"element": "C" 
			},
			{
				"x": -3.9348172187,
				"y": 0.7153119551,
				"z": -2.4533450659,
				"element": "C" 
			},
			{
				"x": -4.7999693054,
				"y": 1.4828359517,
				"z": -3.1511899048,
				"element": "O" 
			},
			{
				"x": -3.7656951904,
				"y": 0.8315125732,
				"z": -1.2612427667,
				"element": "O" 
			},
			{
				"x": 2.8460404713,
				"y": -1.8050056784,
				"z": 7.3470214151,
				"element": "H" 
			},
			{
				"x": 3.8897617731,
				"y": -0.6810667473,
				"z": 8.2573231333,
				"element": "H" 
			},
			{
				"x": 2.2966252428,
				"y": -0.1344835961,
				"z": 7.6695691214,
				"element": "H" 
			},
			{
				"x": 1.2576331714,
				"y": -1.0801844691,
				"z": 5.7813935433,
				"element": "H" 
			},
			{
				"x": 0.2108144108,
				"y": -0.9932316842,
				"z": 3.5722370756,
				"element": "H" 
			},
			{
				"x": 3.8316350458,
				"y": 0.6014669647,
				"z": 1.8921687366,
				"element": "H" 
			},
			{
				"x": 4.901728364,
				"y": 0.4874028481,
				"z": 4.1229783421,
				"element": "H" 
			},
			{
				"x": 3.0593387019,
				"y": -0.7166941114,
				"z": 0.131338565,
				"element": "H" 
			},
			{
				"x": 1.9782780017,
				"y": -0.6061692308,
				"z": -2.1011288268,
				"element": "H" 
			},
			{
				"x": -1.7391970699,
				"y": 0.5146798589,
				"z": -0.2537931039,
				"element": "H" 
			},
			{
				"x": -0.6493073948,
				"y": 0.4568371125,
				"z": 1.970313805,
				"element": "H" 
			},
			{
				"x": -1.8509572319,
				"y": -1.7950715465,
				"z": -3.1059250175,
				"element": "H" 
			},
			{
				"x": -3.128096438,
				"y": 0.1632977505,
				"z": -4.3392370163,
				"element": "H" 
			},
			{
				"x": -4.488103769,
				"y": -1.9888392071,
				"z": -2.6195362716,
				"element": "H" 
			},
			{
				"x": -5.2319344902,
				"y": -1.1121829943,
				"z": -3.9776016787,
				"element": "H" 
			},
			{
				"x": -3.8823893517,
				"y": -2.2184415355,
				"z": -4.2778562185,
				"element": "H" 
			},
			{
				"x": -5.1911068754,
				"y": 2.1044962006,
				"z": -2.5147894797,
				"element": "H" 
			}
		],
		 "valence_orbital": [ 
			{
				"type": "occ",
				"energy": -0.27735,
				"method": "rhf"
			},
			{
				"type": "occ",
				"energy": -0.26283,
				"method": "rhf"
			},
			{
				"type": "occ",
				"energy": -0.25889,
				"method": "rhf"
			},
			{
				"type": "occ",
				"energy": -0.25636,
				"method": "rhf"
			},
			{
				"type": "occ",
				"energy": -0.21408,
				"method": "rhf"
			},
			{
				"type": "unocc",
				"energy": -0.04188,
				"method": "rhf"
			},
			{
				"type": "unocc",
				"energy": -0.01203,
				"method": "rhf"
			},
			{
				"type": "unocc",
				"energy": -0.00625,
				"method": "rhf"
			},
			{
				"type": "unocc",
				"energy": 0.00096,
				"method": "rhf"
			},
			{
				"type": "unocc",
				"energy": 0.02045,
				"method": "rhf"
			}
		],
		"cosmo_sigma_profile": { 
			"-0.025": 0.0,
			"-0.024": 0.0,
			"-0.023": 0.0,
			"-0.022": 0.0,
			"-0.021": 0.0,
			"-0.02": 0.0,
			"-0.019": 0.173182610751,
			"-0.018": 1.1286734065,
			"-0.017": 0.942923919019,
			"-0.016": 0.742684203361,
			"-0.015": 1.47581966033,
			"-0.014": 1.18230437962,
			"-0.013": 1.75825729864,
			"-0.012": 1.93192237754,
			"-0.011": 2.06766044884,
			"-0.01": 2.28558953464,
			"-0.009": 1.83029976242,
			"-0.008": 1.74536361343,
			"-0.007": 7.2642794192,
			"-0.006": 25.0703709406,
			"-0.005": 29.8150831952,
			"-0.004": 29.3707189101,
			"-0.003": 29.4958440199,
			"-0.002": 22.715478843,
			"-0.001": 18.2622766814,
			"0.0": 17.7649089077,
			"0.001": 17.7277807416,
			"0.002": 23.8885728774,
			"0.003": 29.3575360621,
			"0.004": 18.8477639887,
			"0.005": 17.3257429887,
			"0.006": 7.43300141501,
			"0.007": 7.90588719835,
			"0.008": 7.44068356093,
			"0.009": 9.26326277548,
			"0.01": 11.6759037734,
			"0.011": 10.4620507854,
			"0.012": 2.9961715739,
			"0.013": 0.0,
			"0.014": 0.0,
			"0.015": 0.0,
			"0.016": 0.0,
			"0.017": 0.0,
			"0.018": 0.0,
			"0.019": 0.0,
			"0.02": 0.0,
			"0.021": 0.0,
			"0.022": 0.0,
			"0.023": 0.0,
			"0.024": 0.0,
			"0.025": 0.0
		}
	}
}
