{
	 "smiles": "FC1=CC2=C(C=C1)C(C=O)=CN2", 
	 "Tm": 450.15, 
	 "num_atms": 18, 
	 "gaussian": { 
		 "optdone": 1, 
		 "sigma_profile": "yes", 
		 "theory": "DFT", 
		 "functional": "B3LYP", 
		 "basiset": "6-31G**", 
		 "properties": { 
			 "R2extent": 2342.4138, 
			 "electric_dipole_moment_norm": 3.25152390273, 
			 "electric_quadrupole_moment_norm": 26.8724779525, 
			 "total_energy": -576.377881558, 
			 "HOMO_LUMO_gap": 0.17301, 
			 "cosmo_polarized_energy": -14.03, 
			 "cosmo_cavitation_energy": 23.5, 
			 "cosmo_dispersion_energy": -17.15, 
			 "cosmo_repulsion_energy": 1.32, 
			 "cosmo_total_nonelectrostatic_energy": 7.67, 
			 "SMD_solvation_energy": 5.5 
		},
		"coords": [
			{
				"x": -3.0247314506,
				"y": 1.1047398834,
				"z": 0.5312203888,
				"element": "F" 
			},
			{
				"x": -1.7896690044,
				"y": 0.5868072738,
				"z": 0.3541343735,
				"element": "C" 
			},
			{
				"x": -1.523234225,
				"y": -0.6753007125,
				"z": 0.8577260468,
				"element": "C" 
			},
			{
				"x": -0.2283517938,
				"y": -1.156372891,
				"z": 0.6428559146,
				"element": "C" 
			},
			{
				"x": 0.7684941181,
				"y": -0.4155376875,
				"z": -0.0458612405,
				"element": "C" 
			},
			{
				"x": 0.4408851252,
				"y": 0.8600551954,
				"z": -0.5348868568,
				"element": "C" 
			},
			{
				"x": -0.8402184195,
				"y": 1.3581451626,
				"z": -0.3327677345,
				"element": "C" 
			},
			{
				"x": 1.9600752173,
				"y": -1.2406127529,
				"z": -0.0635458225,
				"element": "C" 
			},
			{
				"x": 3.2653997215,
				"y": -0.9524559905,
				"z": -0.6442633569,
				"element": "C" 
			},
			{
				"x": 4.2205768938,
				"y": -1.7139722132,
				"z": -0.6124581927,
				"element": "O" 
			},
			{
				"x": 1.6419888894,
				"y": -2.4118510121,
				"z": 0.5964548171,
				"element": "C" 
			},
			{
				"x": 0.341504318,
				"y": -2.3635920829,
				"z": 1.0170805597,
				"element": "N" 
			},
			{
				"x": -2.2894392273,
				"y": -1.2349786074,
				"z": 1.3825070559,
				"element": "H" 
			},
			{
				"x": 1.1743920116,
				"y": 1.4580084234,
				"z": -1.0664776768,
				"element": "H" 
			},
			{
				"x": -1.1308460334,
				"y": 2.3379011631,
				"z": -0.6950668161,
				"element": "H" 
			},
			{
				"x": 3.3508687615,
				"y": 0.038911146,
				"z": -1.1411915334,
				"element": "H" 
			},
			{
				"x": 2.2710105217,
				"y": -3.2691556921,
				"z": 0.7857466888,
				"element": "H" 
			},
			{
				"x": -0.1310054241,
				"y": -3.0962386056,
				"z": 1.5231933852,
				"element": "H" 
			}
		],
		 "valence_orbital": [ 
			{
				"type": "occ",
				"energy": -0.34329,
				"method": "rhf"
			},
			{
				"type": "occ",
				"energy": -0.28914,
				"method": "rhf"
			},
			{
				"type": "occ",
				"energy": -0.24428,
				"method": "rhf"
			},
			{
				"type": "occ",
				"energy": -0.24309,
				"method": "rhf"
			},
			{
				"type": "occ",
				"energy": -0.22055,
				"method": "rhf"
			},
			{
				"type": "unocc",
				"energy": -0.04754,
				"method": "rhf"
			},
			{
				"type": "unocc",
				"energy": -0.01359,
				"method": "rhf"
			},
			{
				"type": "unocc",
				"energy": 0.01112,
				"method": "rhf"
			},
			{
				"type": "unocc",
				"energy": 0.06124,
				"method": "rhf"
			},
			{
				"type": "unocc",
				"energy": 0.08674,
				"method": "rhf"
			}
		],
		"cosmo_sigma_profile": { 
			"-0.025": 0.0,
			"-0.024": 0.0,
			"-0.023": 0.0,
			"-0.022": 0.0,
			"-0.021": 0.0,
			"-0.02": 0.0,
			"-0.019": 0.0,
			"-0.018": 0.0,
			"-0.017": 1.12763151374,
			"-0.016": 1.72309818284,
			"-0.015": 1.86881380021,
			"-0.014": 1.26976797731,
			"-0.013": 1.29903218743,
			"-0.012": 1.16640826756,
			"-0.011": 1.33169001836,
			"-0.01": 2.04989633728,
			"-0.009": 3.68406775986,
			"-0.008": 3.56404666695,
			"-0.007": 6.01890793793,
			"-0.006": 9.7313028523,
			"-0.005": 9.35973217798,
			"-0.004": 8.55552771777,
			"-0.003": 8.21370311908,
			"-0.002": 7.69602760347,
			"-0.001": 7.78235881462,
			"0.0": 10.0179122047,
			"0.001": 15.56054556,
			"0.002": 19.336403762,
			"0.003": 18.7004432013,
			"0.004": 19.7197469304,
			"0.005": 9.81511645304,
			"0.006": 1.65484561701,
			"0.007": 1.24765779948,
			"0.008": 1.41833871626,
			"0.009": 1.75794718826,
			"0.01": 1.99774349544,
			"0.011": 2.71051120692,
			"0.012": 4.2327573844,
			"0.013": 3.6192463015,
			"0.014": 1.11877281731,
			"0.015": 0.0283008592966,
			"0.016": 0.0,
			"0.017": 0.0,
			"0.018": 0.0,
			"0.019": 0.0,
			"0.02": 0.0,
			"0.021": 0.0,
			"0.022": 0.0,
			"0.023": 0.0,
			"0.024": 0.0,
			"0.025": 0.0
		}
	}
}
