{
	 "smiles": "CC(C)(C)C#C", 
	 "Tm": 195.05, 
	 "num_atms": 16, 
	 "gaussian": { 
		 "optdone": 1, 
		 "sigma_profile": "yes", 
		 "theory": "DFT", 
		 "functional": "B3LYP", 
		 "basiset": "6-31G**", 
		 "properties": { 
			 "R2extent": 905.7984, 
			 "electric_dipole_moment_norm": 0.614126737734, 
			 "electric_quadrupole_moment_norm": 1.83458171527, 
			 "total_energy": -234.604858312, 
			 "HOMO_LUMO_gap": 0.31995, 
			 "cosmo_polarized_energy": -3.41, 
			 "cosmo_cavitation_energy": 19.08, 
			 "cosmo_dispersion_energy": -13.02, 
			 "cosmo_repulsion_energy": 1.11, 
			 "cosmo_total_nonelectrostatic_energy": 7.18, 
			 "SMD_solvation_energy": 5.12 
		},
		"coords": [
			{
				"x": -1.6089071434,
				"y": 0.9180007639,
				"z": 0.3767785884,
				"element": "C" 
			},
			{
				"x": -0.8743553633,
				"y": -0.0359122561,
				"z": -0.5943226461,
				"element": "C" 
			},
			{
				"x": -1.2182508037,
				"y": -1.5027341445,
				"z": -0.2439655844,
				"element": "C" 
			},
			{
				"x": 0.6529800348,
				"y": 0.1821813261,
				"z": -0.4837247565,
				"element": "C" 
			},
			{
				"x": -1.306982815,
				"y": 0.248179113,
				"z": -1.9744006265,
				"element": "C" 
			},
			{
				"x": -1.6616818395,
				"y": 0.4811255929,
				"z": -3.1059082867,
				"element": "C" 
			},
			{
				"x": -1.2965099728,
				"y": 0.7174635751,
				"z": 1.407569769,
				"element": "H" 
			},
			{
				"x": -2.6926611049,
				"y": 0.7831320357,
				"z": 0.3130017809,
				"element": "H" 
			},
			{
				"x": -1.3822146598,
				"y": 1.9629059583,
				"z": 0.1453580942,
				"element": "H" 
			},
			{
				"x": -0.7111598553,
				"y": -2.1961930707,
				"z": -0.9212756704,
				"element": "H" 
			},
			{
				"x": -2.2950265881,
				"y": -1.6809001374,
				"z": -0.3187088606,
				"element": "H" 
			},
			{
				"x": -0.9017588677,
				"y": -1.7278567812,
				"z": 0.780480856,
				"element": "H" 
			},
			{
				"x": 0.9885212667,
				"y": -0.0255937982,
				"z": 0.5383210158,
				"element": "H" 
			},
			{
				"x": 0.9200215572,
				"y": 1.2138915038,
				"z": -0.730783624,
				"element": "H" 
			},
			{
				"x": 1.1934782855,
				"y": -0.4813271212,
				"z": -1.1651887462,
				"element": "H" 
			},
			{
				"x": -1.9742921307,
				"y": 0.6864374405,
				"z": -4.1032313028,
				"element": "H" 
			}
		],
		 "valence_orbital": [ 
			{
				"type": "occ",
				"energy": -0.35889,
				"method": "rhf"
			},
			{
				"type": "occ",
				"energy": -0.33996,
				"method": "rhf"
			},
			{
				"type": "occ",
				"energy": -0.33996,
				"method": "rhf"
			},
			{
				"type": "occ",
				"energy": -0.25695,
				"method": "rhf"
			},
			{
				"type": "occ",
				"energy": -0.25695,
				"method": "rhf"
			},
			{
				"type": "unocc",
				"energy": 0.063,
				"method": "rhf"
			},
			{
				"type": "unocc",
				"energy": 0.063,
				"method": "rhf"
			},
			{
				"type": "unocc",
				"energy": 0.08448,
				"method": "rhf"
			},
			{
				"type": "unocc",
				"energy": 0.12756,
				"method": "rhf"
			},
			{
				"type": "unocc",
				"energy": 0.13844,
				"method": "rhf"
			}
		],
		"cosmo_sigma_profile": { 
			"-0.025": 0.0,
			"-0.024": 0.0,
			"-0.023": 0.0,
			"-0.022": 0.0,
			"-0.021": 0.0,
			"-0.02": 0.0,
			"-0.019": 0.0,
			"-0.018": 0.0,
			"-0.017": 0.0,
			"-0.016": 0.0,
			"-0.015": 0.0,
			"-0.014": 0.0,
			"-0.013": 0.0,
			"-0.012": 0.0212040563173,
			"-0.011": 0.780208996209,
			"-0.01": 1.24321497564,
			"-0.009": 1.03364237541,
			"-0.008": 0.649575322588,
			"-0.007": 1.60673877534,
			"-0.006": 0.756576288571,
			"-0.005": 0.766394809879,
			"-0.004": 5.19087947708,
			"-0.003": 22.6560276291,
			"-0.002": 18.7285039666,
			"-0.001": 18.2897735022,
			"0.0": 23.0924637952,
			"0.001": 19.695583076,
			"0.002": 5.39561913756,
			"0.003": 4.24287549011,
			"0.004": 3.90881419393,
			"0.005": 4.52418547333,
			"0.006": 4.36704514592,
			"0.007": 7.92072696791,
			"0.008": 4.60198613414,
			"0.009": 0.0,
			"0.01": 0.0,
			"0.011": 0.0,
			"0.012": 0.0,
			"0.013": 0.0,
			"0.014": 0.0,
			"0.015": 0.0,
			"0.016": 0.0,
			"0.017": 0.0,
			"0.018": 0.0,
			"0.019": 0.0,
			"0.02": 0.0,
			"0.021": 0.0,
			"0.022": 0.0,
			"0.023": 0.0,
			"0.024": 0.0,
			"0.025": 0.0
		}
	}
}
