{
	 "smiles": "COC1=C(OCC(F)(F)F)C(Br)=CC(CC#N)=C1", 
	 "Tm": 390.15, 
	 "num_atms": 27, 
	 "gaussian": { 
		 "optdone": 1, 
		 "sigma_profile": "yes", 
		 "theory": "DFT", 
		 "functional": "B3LYP", 
		 "basiset": "6-31G**", 
		 "properties": { 
			 "R2extent": 8490.5533, 
			 "electric_dipole_moment_norm": 2.19500175171, 
			 "electric_quadrupole_moment_norm": 28.1489267128, 
			 "total_energy": -3500.67196462, 
			 "HOMO_LUMO_gap": 0.22367, 
			 "cosmo_polarized_energy": -13.64, 
			 "cosmo_cavitation_energy": 36.21, 
			 "cosmo_dispersion_energy": -24.38, 
			 "cosmo_repulsion_energy": 1.85, 
			 "cosmo_total_nonelectrostatic_energy": 13.68, 
			 "SMD_solvation_energy": 8.35 
		},
		"coords": [
			{
				"x": 2.2168545615,
				"y": -1.0456581258,
				"z": -0.040900702,
				"element": "C" 
			},
			{
				"x": 1.0769764441,
				"y": -0.6783640545,
				"z": -0.8397828843,
				"element": "O" 
			},
			{
				"x": -0.0687155593,
				"y": -0.3918214655,
				"z": -0.143390614,
				"element": "C" 
			},
			{
				"x": -0.8032069574,
				"y": -1.4173251981,
				"z": 0.4832265949,
				"element": "C" 
			},
			{
				"x": -0.3386768411,
				"y": -2.7087133954,
				"z": 0.4918127548,
				"element": "O" 
			},
			{
				"x": -0.4161991838,
				"y": -3.3881911698,
				"z": -0.7574808874,
				"element": "C" 
			},
			{
				"x": 0.3933467133,
				"y": -4.6645421926,
				"z": -0.6319975406,
				"element": "C" 
			},
			{
				"x": -0.0676417201,
				"y": -5.4641133815,
				"z": 0.3425564308,
				"element": "F" 
			},
			{
				"x": 1.6921351048,
				"y": -4.4057487023,
				"z": -0.3740908301,
				"element": "F" 
			},
			{
				"x": 0.3297212875,
				"y": -5.3418692164,
				"z": -1.7983000757,
				"element": "F" 
			},
			{
				"x": -1.9886032243,
				"y": -1.0823654985,
				"z": 1.1453486172,
				"element": "C" 
			},
			{
				"x": -3.0027467166,
				"y": -2.449043813,
				"z": 1.9984102111,
				"element": "Br" 
			},
			{
				"x": -2.4419148397,
				"y": 0.2350837394,
				"z": 1.1885627887,
				"element": "C" 
			},
			{
				"x": -1.7184739982,
				"y": 1.2435751538,
				"z": 0.5467761829,
				"element": "C" 
			},
			{
				"x": -2.2719735637,
				"y": 2.6642728,
				"z": 0.5565438054,
				"element": "C" 
			},
			{
				"x": -1.2483816134,
				"y": 3.7072575889,
				"z": 0.4470201512,
				"element": "C" 
			},
			{
				"x": -0.4349781782,
				"y": 4.5287867507,
				"z": 0.347799304,
				"element": "N" 
			},
			{
				"x": -0.5310030413,
				"y": 0.9236218797,
				"z": -0.1157979698,
				"element": "C" 
			},
			{
				"x": 3.0435984386,
				"y": -1.1689748997,
				"z": -0.7420192126,
				"element": "H" 
			},
			{
				"x": 2.0428857622,
				"y": -1.9830324783,
				"z": 0.4923959133,
				"element": "H" 
			},
			{
				"x": 2.4574897502,
				"y": -0.2472677334,
				"z": 0.6701000541,
				"element": "H" 
			},
			{
				"x": 0.0106410514,
				"y": -2.7888178178,
				"z": -1.5667812446,
				"element": "H" 
			},
			{
				"x": -1.4521849283,
				"y": -3.655355467,
				"z": -0.9953667911,
				"element": "H" 
			},
			{
				"x": -3.3620773151,
				"y": 0.4621834791,
				"z": 1.7158445429,
				"element": "H" 
			},
			{
				"x": -2.9768538796,
				"y": 2.8001521594,
				"z": -0.2750926519,
				"element": "H" 
			},
			{
				"x": -2.8430738463,
				"y": 2.8387874912,
				"z": 1.47514002,
				"element": "H" 
			},
			{
				"x": 0.0623562929,
				"y": 1.6860835673,
				"z": -0.609635967,
				"element": "H" 
			}
		],
		 "valence_orbital": [ 
			{
				"type": "occ",
				"energy": -0.31666,
				"method": "rhf"
			},
			{
				"type": "occ",
				"energy": -0.29607,
				"method": "rhf"
			},
			{
				"type": "occ",
				"energy": -0.28902,
				"method": "rhf"
			},
			{
				"type": "occ",
				"energy": -0.25734,
				"method": "rhf"
			},
			{
				"type": "occ",
				"energy": -0.25506,
				"method": "rhf"
			},
			{
				"type": "unocc",
				"energy": -0.03139,
				"method": "rhf"
			},
			{
				"type": "unocc",
				"energy": -0.03076,
				"method": "rhf"
			},
			{
				"type": "unocc",
				"energy": -0.01043,
				"method": "rhf"
			},
			{
				"type": "unocc",
				"energy": 0.02624,
				"method": "rhf"
			},
			{
				"type": "unocc",
				"energy": 0.03142,
				"method": "rhf"
			}
		],
		"cosmo_sigma_profile": { 
			"-0.025": 0.0,
			"-0.024": 0.0,
			"-0.023": 0.0,
			"-0.022": 0.0,
			"-0.021": 0.0,
			"-0.02": 0.0,
			"-0.019": 0.0,
			"-0.018": 0.0,
			"-0.017": 0.0,
			"-0.016": 0.0,
			"-0.015": 0.0,
			"-0.014": 0.0,
			"-0.013": 0.0,
			"-0.012": 0.0,
			"-0.011": 0.0,
			"-0.01": 1.36329863659,
			"-0.009": 7.45249830489,
			"-0.008": 10.2565928588,
			"-0.007": 9.60671123671,
			"-0.006": 14.8478291438,
			"-0.005": 15.5145098124,
			"-0.004": 15.4269129489,
			"-0.003": 18.8554178526,
			"-0.002": 15.7831965277,
			"-0.001": 17.5982774065,
			"0.0": 19.5035842852,
			"0.001": 24.6692477413,
			"0.002": 38.9873568675,
			"0.003": 31.3223182181,
			"0.004": 14.5832358093,
			"0.005": 6.54027208744,
			"0.006": 4.9345088007,
			"0.007": 5.68991991431,
			"0.008": 5.05022240949,
			"0.009": 4.41688835513,
			"0.01": 3.91023119533,
			"0.011": 3.49862216387,
			"0.012": 2.14696299113,
			"0.013": 1.56707266671,
			"0.014": 0.0543216386121,
			"0.015": 0.0,
			"0.016": 0.0,
			"0.017": 0.0,
			"0.018": 0.0,
			"0.019": 0.0,
			"0.02": 0.0,
			"0.021": 0.0,
			"0.022": 0.0,
			"0.023": 0.0,
			"0.024": 0.0,
			"0.025": 0.0
		}
	}
}
