{
	 "smiles": "CCOC1=CC(=CC=C1OC)C(O)=O", 
	 "Tm": 431.15, 
	 "num_atms": 26, 
	 "gaussian": { 
		 "optdone": 1, 
		 "sigma_profile": "yes", 
		 "theory": "DFT", 
		 "functional": "B3LYP", 
		 "basiset": "6-31G**", 
		 "properties": { 
			 "R2extent": 3478.3983, 
			 "electric_dipole_moment_norm": 3.65348873544, 
			 "electric_quadrupole_moment_norm": 21.1989508898, 
			 "total_energy": -689.176805298, 
			 "HOMO_LUMO_gap": 0.18515, 
			 "cosmo_polarized_energy": -15.33, 
			 "cosmo_cavitation_energy": 29.79, 
			 "cosmo_dispersion_energy": -21.29, 
			 "cosmo_repulsion_energy": 1.7, 
			 "cosmo_total_nonelectrostatic_energy": 10.2, 
			 "SMD_solvation_energy": 7.54 
		},
		"coords": [
			{
				"x": -1.3801594224,
				"y": -2.447743726,
				"z": 0.4102423907,
				"element": "C" 
			},
			{
				"x": -0.0271434136,
				"y": -2.5064113239,
				"z": -0.2895400184,
				"element": "C" 
			},
			{
				"x": 0.8829120383,
				"y": -1.5009153696,
				"z": 0.1791793895,
				"element": "O" 
			},
			{
				"x": 0.7988071095,
				"y": -0.2309151633,
				"z": -0.306370376,
				"element": "C" 
			},
			{
				"x": -0.117724144,
				"y": 0.202130978,
				"z": -1.26265205,
				"element": "C" 
			},
			{
				"x": -0.0834649644,
				"y": 1.5166773716,
				"z": -1.7528345811,
				"element": "C" 
			},
			{
				"x": 0.8637892875,
				"y": 2.4177279068,
				"z": -1.2568187107,
				"element": "C" 
			},
			{
				"x": 1.7679434295,
				"y": 1.9982362283,
				"z": -0.2814862228,
				"element": "C" 
			},
			{
				"x": 1.7523283029,
				"y": 0.6905892687,
				"z": 0.1997552319,
				"element": "C" 
			},
			{
				"x": 2.7140522271,
				"y": 0.3274737122,
				"z": 1.1002078144,
				"element": "O" 
			},
			{
				"x": 2.2713571654,
				"y": -0.1194996334,
				"z": 2.3871765644,
				"element": "C" 
			},
			{
				"x": -1.1101726897,
				"y": 1.8815686028,
				"z": -2.7785581524,
				"element": "C" 
			},
			{
				"x": -0.8634080965,
				"y": 2.993239445,
				"z": -3.5233723278,
				"element": "O" 
			},
			{
				"x": -2.1206715197,
				"y": 1.2433596575,
				"z": -2.9685162567,
				"element": "O" 
			},
			{
				"x": -1.9062857106,
				"y": -1.5117849992,
				"z": 0.2055853718,
				"element": "H" 
			},
			{
				"x": -2.0111811232,
				"y": -3.2736575321,
				"z": 0.0657713772,
				"element": "H" 
			},
			{
				"x": -1.2534913731,
				"y": -2.5415818986,
				"z": 1.4927295981,
				"element": "H" 
			},
			{
				"x": 0.4787817154,
				"y": -3.4489737512,
				"z": -0.0639840662,
				"element": "H" 
			},
			{
				"x": -0.1301597548,
				"y": -2.4391623565,
				"z": -1.3790309866,
				"element": "H" 
			},
			{
				"x": -0.8771478401,
				"y": -0.456226138,
				"z": -1.6641519109,
				"element": "H" 
			},
			{
				"x": 0.8776583687,
				"y": 3.4574778379,
				"z": -1.5728911507,
				"element": "H" 
			},
			{
				"x": 2.5072141212,
				"y": 2.6770853275,
				"z": 0.1305027291,
				"element": "H" 
			},
			{
				"x": 3.1777855406,
				"y": -0.2841340239,
				"z": 2.972539103,
				"element": "H" 
			},
			{
				"x": 1.6615663292,
				"y": 0.650935282,
				"z": 2.8757850662,
				"element": "H" 
			},
			{
				"x": 1.7023789127,
				"y": -1.0491287937,
				"z": 2.3168596274,
				"element": "H" 
			},
			{
				"x": 0.0438355043,
				"y": 3.294233091,
				"z": -3.3761274536,
				"element": "H" 
			}
		],
		 "valence_orbital": [ 
			{
				"type": "occ",
				"energy": -0.31026,
				"method": "rhf"
			},
			{
				"type": "occ",
				"energy": -0.28822,
				"method": "rhf"
			},
			{
				"type": "occ",
				"energy": -0.27069,
				"method": "rhf"
			},
			{
				"type": "occ",
				"energy": -0.25197,
				"method": "rhf"
			},
			{
				"type": "occ",
				"energy": -0.22837,
				"method": "rhf"
			},
			{
				"type": "unocc",
				"energy": -0.04322,
				"method": "rhf"
			},
			{
				"type": "unocc",
				"energy": -0.00904,
				"method": "rhf"
			},
			{
				"type": "unocc",
				"energy": 0.0571,
				"method": "rhf"
			},
			{
				"type": "unocc",
				"energy": 0.06418,
				"method": "rhf"
			},
			{
				"type": "unocc",
				"energy": 0.08862,
				"method": "rhf"
			}
		],
		"cosmo_sigma_profile": { 
			"-0.025": 0.0,
			"-0.024": 0.0,
			"-0.023": 0.0,
			"-0.022": 0.0,
			"-0.021": 0.0,
			"-0.02": 0.0,
			"-0.019": 0.0290645273726,
			"-0.018": 0.655069048978,
			"-0.017": 1.10635810984,
			"-0.016": 0.991170442547,
			"-0.015": 0.678912603679,
			"-0.014": 0.907249743788,
			"-0.013": 1.15889508194,
			"-0.012": 1.14664707882,
			"-0.011": 1.14028156594,
			"-0.01": 1.14165440272,
			"-0.009": 1.10267117549,
			"-0.008": 2.14029232965,
			"-0.007": 3.81907859747,
			"-0.006": 8.89994537416,
			"-0.005": 13.7611132939,
			"-0.004": 22.7727435402,
			"-0.003": 23.0863007683,
			"-0.002": 21.6750880035,
			"-0.001": 17.5909616502,
			"0.0": 17.3340276525,
			"0.001": 14.3232478953,
			"0.002": 14.8030076934,
			"0.003": 14.697636165,
			"0.004": 6.32264867277,
			"0.005": 5.12459467923,
			"0.006": 4.616740207,
			"0.007": 3.93622824977,
			"0.008": 4.73726520984,
			"0.009": 5.93031775921,
			"0.01": 6.7101927824,
			"0.011": 5.98118794439,
			"0.012": 5.69925413338,
			"0.013": 2.07382090936,
			"0.014": 0.198953009013,
			"0.015": 0.0,
			"0.016": 0.0,
			"0.017": 0.0,
			"0.018": 0.0,
			"0.019": 0.0,
			"0.02": 0.0,
			"0.021": 0.0,
			"0.022": 0.0,
			"0.023": 0.0,
			"0.024": 0.0,
			"0.025": 0.0
		}
	}
}
