{
	 "smiles": "CCOC1=C(OC2=C(C=CC=C2)C(O)=O)C=CC=C1", 
	 "Tm": 370.15, 
	 "num_atms": 33, 
	 "gaussian": { 
		 "optdone": 1, 
		 "sigma_profile": "yes", 
		 "theory": "DFT", 
		 "functional": "B3LYP", 
		 "basiset": "6-31G**", 
		 "properties": { 
			 "R2extent": 5265.9299, 
			 "electric_dipole_moment_norm": 2.19529134513, 
			 "electric_quadrupole_moment_norm": 11.1609129479, 
			 "total_energy": -880.922902329, 
			 "HOMO_LUMO_gap": 0.17235, 
			 "cosmo_polarized_energy": -12.38, 
			 "cosmo_cavitation_energy": 37.18, 
			 "cosmo_dispersion_energy": -25.83, 
			 "cosmo_repulsion_energy": 2.03, 
			 "cosmo_total_nonelectrostatic_energy": 13.39, 
			 "SMD_solvation_energy": 8.06 
		},
		"coords": [
			{
				"x": -1.2340435719,
				"y": -3.4481860943,
				"z": 0.2365662661,
				"element": "C" 
			},
			{
				"x": -0.7676305293,
				"y": -2.009016262,
				"z": 0.1008406877,
				"element": "C" 
			},
			{
				"x": -0.7539435529,
				"y": -1.7114771439,
				"z": -1.3072794635,
				"element": "O" 
			},
			{
				"x": -0.6536382581,
				"y": -0.4410092181,
				"z": -1.7804987399,
				"element": "C" 
			},
			{
				"x": -0.1132018912,
				"y": 0.6735843083,
				"z": -1.1111533517,
				"element": "C" 
			},
			{
				"x": 0.4599009685,
				"y": 0.5163032432,
				"z": 0.1468223578,
				"element": "O" 
			},
			{
				"x": -0.0597606964,
				"y": 1.1474414765,
				"z": 1.2433030666,
				"element": "C" 
			},
			{
				"x": 0.690056374,
				"y": 1.121634176,
				"z": 2.4429127791,
				"element": "C" 
			},
			{
				"x": 0.1695699192,
				"y": 1.7760300946,
				"z": 3.5720131879,
				"element": "C" 
			},
			{
				"x": -1.0609895983,
				"y": 2.4192034963,
				"z": 3.5432089929,
				"element": "C" 
			},
			{
				"x": -1.7991905092,
				"y": 2.415649742,
				"z": 2.3576787513,
				"element": "C" 
			},
			{
				"x": -1.3062520339,
				"y": 1.7882562081,
				"z": 1.2166052831,
				"element": "C" 
			},
			{
				"x": 2.0099351665,
				"y": 0.4581016577,
				"z": 2.6421285652,
				"element": "C" 
			},
			{
				"x": 2.4039327265,
				"y": -0.3630491117,
				"z": 1.6419610021,
				"element": "O" 
			},
			{
				"x": 2.6910550297,
				"y": 0.6088707151,
				"z": 3.6404493189,
				"element": "O" 
			},
			{
				"x": -0.0291043685,
				"y": 1.9134700471,
				"z": -1.752435813,
				"element": "C" 
			},
			{
				"x": -0.4866260253,
				"y": 2.0753389982,
				"z": -3.0561786764,
				"element": "C" 
			},
			{
				"x": -1.0232601454,
				"y": 0.974954242,
				"z": -3.7316546374,
				"element": "C" 
			},
			{
				"x": -1.1034402087,
				"y": -0.2599913699,
				"z": -3.0999838819,
				"element": "C" 
			},
			{
				"x": -0.5594011119,
				"y": -4.1232111463,
				"z": -0.2980595086,
				"element": "H" 
			},
			{
				"x": -1.2470650994,
				"y": -3.7381665023,
				"z": 1.2919936299,
				"element": "H" 
			},
			{
				"x": -2.2409238435,
				"y": -3.5736543156,
				"z": -0.1718376031,
				"element": "H" 
			},
			{
				"x": 0.2312519358,
				"y": -1.8725224389,
				"z": 0.5233933892,
				"element": "H" 
			},
			{
				"x": -1.454580937,
				"y": -1.3260632455,
				"z": 0.6161721178,
				"element": "H" 
			},
			{
				"x": 0.7709438242,
				"y": 1.7548942392,
				"z": 4.4741097261,
				"element": "H" 
			},
			{
				"x": -1.4419868044,
				"y": 2.9135200254,
				"z": 4.4307794539,
				"element": "H" 
			},
			{
				"x": -2.7684125769,
				"y": 2.9045516536,
				"z": 2.3145856812,
				"element": "H" 
			},
			{
				"x": -1.8791242235,
				"y": 1.7959037535,
				"z": 0.2973751381,
				"element": "H" 
			},
			{
				"x": 3.2629724815,
				"y": -0.7142426598,
				"z": 1.9321775663,
				"element": "H" 
			},
			{
				"x": 0.4148889816,
				"y": 2.7414401332,
				"z": -1.2084813185,
				"element": "H" 
			},
			{
				"x": -0.4126243869,
				"y": 3.043092811,
				"z": -3.5416185074,
				"element": "H" 
			},
			{
				"x": -1.3809899951,
				"y": 1.0787490734,
				"z": -4.7516358834,
				"element": "H" 
			},
			{
				"x": -1.5152170396,
				"y": -1.1274005861,
				"z": -3.6054595764,
				"element": "H" 
			}
		],
		 "valence_orbital": [ 
			{
				"type": "occ",
				"energy": -0.27597,
				"method": "rhf"
			},
			{
				"type": "occ",
				"energy": -0.2635,
				"method": "rhf"
			},
			{
				"type": "occ",
				"energy": -0.25473,
				"method": "rhf"
			},
			{
				"type": "occ",
				"energy": -0.23219,
				"method": "rhf"
			},
			{
				"type": "occ",
				"energy": -0.21981,
				"method": "rhf"
			},
			{
				"type": "unocc",
				"energy": -0.04746,
				"method": "rhf"
			},
			{
				"type": "unocc",
				"energy": -0.01084,
				"method": "rhf"
			},
			{
				"type": "unocc",
				"energy": 0.0005,
				"method": "rhf"
			},
			{
				"type": "unocc",
				"energy": 0.00766,
				"method": "rhf"
			},
			{
				"type": "unocc",
				"energy": 0.05449,
				"method": "rhf"
			}
		],
		"cosmo_sigma_profile": { 
			"-0.025": 0.0,
			"-0.024": 0.0,
			"-0.023": 0.0,
			"-0.022": 0.0,
			"-0.021": 0.0,
			"-0.02": 0.0,
			"-0.019": 0.0,
			"-0.018": 0.593101077281,
			"-0.017": 0.709738610024,
			"-0.016": 0.943013845918,
			"-0.015": 0.781106067741,
			"-0.014": 1.10531815618,
			"-0.013": 0.642323614883,
			"-0.012": 0.086515405488,
			"-0.011": 0.852506951726,
			"-0.01": 0.69240605947,
			"-0.009": 0.512951399158,
			"-0.008": 0.483973728654,
			"-0.007": 3.99954499108,
			"-0.006": 13.1973758839,
			"-0.005": 17.0769074171,
			"-0.004": 25.015880633,
			"-0.003": 25.0401956076,
			"-0.002": 26.4264597937,
			"-0.001": 25.0045757569,
			"0.0": 24.8594493498,
			"0.001": 20.7705470442,
			"0.002": 21.0085138229,
			"0.003": 24.4507047739,
			"0.004": 20.8547030464,
			"0.005": 11.6547815216,
			"0.006": 4.81858465406,
			"0.007": 3.78075401224,
			"0.008": 4.34056948091,
			"0.009": 3.92440203783,
			"0.01": 3.45726194163,
			"0.011": 4.08014178703,
			"0.012": 5.14858009967,
			"0.013": 0.210777170058,
			"0.014": 0.0,
			"0.015": 0.0,
			"0.016": 0.0,
			"0.017": 0.0,
			"0.018": 0.0,
			"0.019": 0.0,
			"0.02": 0.0,
			"0.021": 0.0,
			"0.022": 0.0,
			"0.023": 0.0,
			"0.024": 0.0,
			"0.025": 0.0
		}
	}
}
