{
	 "smiles": "ClCC(=O)NC1=C(Cl)C=C(Cl)C=C1", 
	 "Tm": 379.15, 
	 "num_atms": 19, 
	 "gaussian": { 
		 "optdone": 1, 
		 "sigma_profile": "yes", 
		 "theory": "DFT", 
		 "functional": "B3LYP", 
		 "basiset": "6-31G**", 
		 "properties": { 
			 "R2extent": 4811.8197, 
			 "electric_dipole_moment_norm": 2.35360471193, 
			 "electric_quadrupole_moment_norm": 15.7492035021, 
			 "total_energy": -1819.02718417, 
			 "HOMO_LUMO_gap": 0.19445, 
			 "cosmo_polarized_energy": -10.95, 
			 "cosmo_cavitation_energy": 28.89, 
			 "cosmo_dispersion_energy": -21.26, 
			 "cosmo_repulsion_energy": 1.7, 
			 "cosmo_total_nonelectrostatic_energy": 9.34, 
			 "SMD_solvation_energy": 4.82 
		},
		"coords": [
			{
				"x": -1.5396837934,
				"y": -4.1567845417,
				"z": 1.1390566322,
				"element": "Cl" 
			},
			{
				"x": -2.4958974161,
				"y": -2.6460789688,
				"z": 1.4458787301,
				"element": "C" 
			},
			{
				"x": -1.8949164223,
				"y": -1.8387340519,
				"z": 2.5928065836,
				"element": "C" 
			},
			{
				"x": -2.1602858778,
				"y": -2.1062622005,
				"z": 3.751392747,
				"element": "O" 
			},
			{
				"x": -1.0812444991,
				"y": -0.7600053305,
				"z": 2.2938039189,
				"element": "N" 
			},
			{
				"x": -0.6403027875,
				"y": -0.2287613414,
				"z": 1.0682347552,
				"element": "C" 
			},
			{
				"x": -0.6035521801,
				"y": 1.1675355353,
				"z": 0.8821842752,
				"element": "C" 
			},
			{
				"x": -1.1395172531,
				"y": 2.2343765277,
				"z": 2.1686500496,
				"element": "Cl" 
			},
			{
				"x": -0.1442825955,
				"y": 1.7365725742,
				"z": -0.3023901333,
				"element": "C" 
			},
			{
				"x": 0.2778442343,
				"y": 0.900162574,
				"z": -1.3340980577,
				"element": "C" 
			},
			{
				"x": 0.8405477721,
				"y": 1.6083022356,
				"z": -2.8348082479,
				"element": "Cl" 
			},
			{
				"x": 0.267200703,
				"y": -0.4846827636,
				"z": -1.1795107246,
				"element": "C" 
			},
			{
				"x": -0.1700255314,
				"y": -1.0366889125,
				"z": 0.0217155547,
				"element": "C" 
			},
			{
				"x": -2.552035447,
				"y": -2.1009230412,
				"z": 0.5045419745,
				"element": "H" 
			},
			{
				"x": -3.4857682321,
				"y": -2.9671463953,
				"z": 1.7651294902,
				"element": "H" 
			},
			{
				"x": -0.8884773439,
				"y": -0.2058421968,
				"z": 3.1210442179,
				"element": "H" 
			},
			{
				"x": -0.1276079133,
				"y": 2.8132599234,
				"z": -0.4176244696,
				"element": "H" 
			},
			{
				"x": 0.6205616795,
				"y": -1.1263914368,
				"z": -1.9783251844,
				"element": "H" 
			},
			{
				"x": -0.1257570965,
				"y": -2.1108081892,
				"z": 0.1606178883,
				"element": "H" 
			}
		],
		 "valence_orbital": [ 
			{
				"type": "occ",
				"energy": -0.31747,
				"method": "rhf"
			},
			{
				"type": "occ",
				"energy": -0.30748,
				"method": "rhf"
			},
			{
				"type": "occ",
				"energy": -0.27928,
				"method": "rhf"
			},
			{
				"type": "occ",
				"energy": -0.27613,
				"method": "rhf"
			},
			{
				"type": "occ",
				"energy": -0.24635,
				"method": "rhf"
			},
			{
				"type": "unocc",
				"energy": -0.0519,
				"method": "rhf"
			},
			{
				"type": "unocc",
				"energy": -0.04207,
				"method": "rhf"
			},
			{
				"type": "unocc",
				"energy": -0.02293,
				"method": "rhf"
			},
			{
				"type": "unocc",
				"energy": -0.00807,
				"method": "rhf"
			},
			{
				"type": "unocc",
				"energy": 0.03508,
				"method": "rhf"
			}
		],
		"cosmo_sigma_profile": { 
			"-0.025": 0.0,
			"-0.024": 0.0,
			"-0.023": 0.0,
			"-0.022": 0.0,
			"-0.021": 0.0,
			"-0.02": 0.0,
			"-0.019": 0.0,
			"-0.018": 0.0,
			"-0.017": 0.0,
			"-0.016": 0.0,
			"-0.015": 0.0,
			"-0.014": 0.146662416908,
			"-0.013": 0.605412154244,
			"-0.012": 0.711848797556,
			"-0.011": 1.25071238236,
			"-0.01": 0.885560817048,
			"-0.009": 3.69318620557,
			"-0.008": 8.61321402784,
			"-0.007": 9.82739118375,
			"-0.006": 10.1613080131,
			"-0.005": 9.32350009584,
			"-0.004": 9.50716898534,
			"-0.003": 12.4527591632,
			"-0.002": 15.2882119844,
			"-0.001": 17.1092666474,
			"0.0": 25.7511025381,
			"0.001": 26.1154417716,
			"0.002": 19.7303961108,
			"0.003": 19.5309586714,
			"0.004": 19.4999658523,
			"0.005": 10.284216529,
			"0.006": 2.07353496701,
			"0.007": 1.65388541102,
			"0.008": 1.20882863849,
			"0.009": 1.7819929056,
			"0.01": 1.6865125515,
			"0.011": 2.5092530617,
			"0.012": 5.45818015196,
			"0.013": 1.91241186598,
			"0.014": 0.0,
			"0.015": 0.0,
			"0.016": 0.0,
			"0.017": 0.0,
			"0.018": 0.0,
			"0.019": 0.0,
			"0.02": 0.0,
			"0.021": 0.0,
			"0.022": 0.0,
			"0.023": 0.0,
			"0.024": 0.0,
			"0.025": 0.0
		}
	}
}
