{
	 "smiles": "BrC1CCS(=O)(=O)CC1", 
	 "Tm": 401.15, 
	 "num_atms": 18, 
	 "gaussian": { 
		 "optdone": 1, 
		 "sigma_profile": "yes", 
		 "theory": "DFT", 
		 "functional": "B3LYP", 
		 "basiset": "6-31G**", 
		 "properties": { 
			 "R2extent": 3432.4363, 
			 "electric_dipole_moment_norm": 3.91068565472, 
			 "electric_quadrupole_moment_norm": 14.0899097215, 
			 "total_energy": -3315.94052113, 
			 "HOMO_LUMO_gap": 0.2605, 
			 "cosmo_polarized_energy": -16.74, 
			 "cosmo_cavitation_energy": 23.3, 
			 "cosmo_dispersion_energy": -18.32, 
			 "cosmo_repulsion_energy": 1.43, 
			 "cosmo_total_nonelectrostatic_energy": 6.41, 
			 "SMD_solvation_energy": 1.51 
		},
		"coords": [
			{
				"x": 3.6920447355,
				"y": -1.4608735119,
				"z": -1.3890649739,
				"element": "Br" 
			},
			{
				"x": 1.7260841018,
				"y": -1.7788759152,
				"z": -1.2211654898,
				"element": "C" 
			},
			{
				"x": 0.9652581652,
				"y": -1.0222578609,
				"z": -2.3225133558,
				"element": "C" 
			},
			{
				"x": 0.6104612234,
				"y": 0.4103278316,
				"z": -1.9235523713,
				"element": "C" 
			},
			{
				"x": -0.6532613339,
				"y": 0.3963504105,
				"z": -0.6003266883,
				"element": "S" 
			},
			{
				"x": -0.4043797624,
				"y": 1.539006522,
				"z": 0.2925509588,
				"element": "O" 
			},
			{
				"x": -1.9710211398,
				"y": 0.196605066,
				"z": -1.2255083519,
				"element": "O" 
			},
			{
				"x": -0.2137767681,
				"y": -1.1400009843,
				"z": 0.2971301946,
				"element": "C" 
			},
			{
				"x": 1.2946071156,
				"y": -1.3984234845,
				"z": 0.2062887702,
				"element": "C" 
			},
			{
				"x": 1.6369883086,
				"y": -2.8531768759,
				"z": -1.3834432805,
				"element": "H" 
			},
			{
				"x": 0.0391026394,
				"y": -1.5695568296,
				"z": -2.5417826496,
				"element": "H" 
			},
			{
				"x": 1.5459022172,
				"y": -1.0206832712,
				"z": -3.2477672954,
				"element": "H" 
			},
			{
				"x": 1.4747565654,
				"y": 0.9657777297,
				"z": -1.5522499154,
				"element": "H" 
			},
			{
				"x": 0.1472980112,
				"y": 0.9661844035,
				"z": -2.7421505013,
				"element": "H" 
			},
			{
				"x": -0.5322892035,
				"y": -0.9578112681,
				"z": 1.3265072279,
				"element": "H" 
			},
			{
				"x": -0.8171931492,
				"y": -1.9467955209,
				"z": -0.125795642,
				"element": "H" 
			},
			{
				"x": 1.8253372564,
				"y": -0.4978678264,
				"z": 0.5297808372,
				"element": "H" 
			},
			{
				"x": 1.5806810172,
				"y": -2.1904286141,
				"z": 0.9041625264,
				"element": "H" 
			}
		],
		 "valence_orbital": [ 
			{
				"type": "occ",
				"energy": -0.31249,
				"method": "rhf"
			},
			{
				"type": "occ",
				"energy": -0.29845,
				"method": "rhf"
			},
			{
				"type": "occ",
				"energy": -0.29005,
				"method": "rhf"
			},
			{
				"type": "occ",
				"energy": -0.28926,
				"method": "rhf"
			},
			{
				"type": "occ",
				"energy": -0.28428,
				"method": "rhf"
			},
			{
				"type": "unocc",
				"energy": -0.02378,
				"method": "rhf"
			},
			{
				"type": "unocc",
				"energy": 0.04872,
				"method": "rhf"
			},
			{
				"type": "unocc",
				"energy": 0.06019,
				"method": "rhf"
			},
			{
				"type": "unocc",
				"energy": 0.06646,
				"method": "rhf"
			},
			{
				"type": "unocc",
				"energy": 0.07528,
				"method": "rhf"
			}
		],
		"cosmo_sigma_profile": { 
			"-0.025": 0.0,
			"-0.024": 0.0,
			"-0.023": 0.0,
			"-0.022": 0.0,
			"-0.021": 0.0,
			"-0.02": 0.0,
			"-0.019": 0.0,
			"-0.018": 0.0,
			"-0.017": 0.0,
			"-0.016": 0.0,
			"-0.015": 0.0,
			"-0.014": 0.0,
			"-0.013": 0.0,
			"-0.012": 0.0,
			"-0.011": 0.0,
			"-0.01": 0.446122466605,
			"-0.009": 3.37471381689,
			"-0.008": 10.967348306,
			"-0.007": 13.968354723,
			"-0.006": 17.1312218266,
			"-0.005": 18.4398054301,
			"-0.004": 15.8145557498,
			"-0.003": 9.80361085203,
			"-0.002": 7.62113138115,
			"-0.001": 5.85651846551,
			"0.0": 5.27570121859,
			"0.001": 5.39225926792,
			"0.002": 6.09389240406,
			"0.003": 6.88451830526,
			"0.004": 6.27017436753,
			"0.005": 9.24414540678,
			"0.006": 9.85332393326,
			"0.007": 2.32463994734,
			"0.008": 2.10063568305,
			"0.009": 2.45939710205,
			"0.01": 3.62986675402,
			"0.011": 9.43576622491,
			"0.012": 10.7701076564,
			"0.013": 2.63471094614,
			"0.014": 0.0,
			"0.015": 0.0,
			"0.016": 0.0,
			"0.017": 0.0,
			"0.018": 0.0,
			"0.019": 0.0,
			"0.02": 0.0,
			"0.021": 0.0,
			"0.022": 0.0,
			"0.023": 0.0,
			"0.024": 0.0,
			"0.025": 0.0
		}
	}
}
