{
	 "smiles": "CCC1=CC(C(=O)OC)=C(N)C=C1", 
	 "Tm": 357.15, 
	 "num_atms": 26, 
	 "gaussian": { 
		 "optdone": 1, 
		 "sigma_profile": "yes", 
		 "theory": "DFT", 
		 "functional": "B3LYP", 
		 "basiset": "6-31G**", 
		 "properties": { 
			 "R2extent": 3273.5066, 
			 "electric_dipole_moment_norm": 3.01629673275, 
			 "electric_quadrupole_moment_norm": 13.4067002167, 
			 "total_energy": -594.125961195, 
			 "HOMO_LUMO_gap": 0.1653, 
			 "cosmo_polarized_energy": -10.53, 
			 "cosmo_cavitation_energy": 29.3, 
			 "cosmo_dispersion_energy": -21.31, 
			 "cosmo_repulsion_energy": 1.71, 
			 "cosmo_total_nonelectrostatic_energy": 9.7, 
			 "SMD_solvation_energy": 6.36 
		},
		"coords": [
			{
				"x": -2.5901649008,
				"y": -0.2578911277,
				"z": -2.5960183184,
				"element": "C" 
			},
			{
				"x": -2.1363283739,
				"y": 1.1279662779,
				"z": -2.1036707921,
				"element": "C" 
			},
			{
				"x": -1.4585154663,
				"y": 1.0882515492,
				"z": -0.7504839791,
				"element": "C" 
			},
			{
				"x": -0.0770009787,
				"y": 1.0333073817,
				"z": -0.626606953,
				"element": "C" 
			},
			{
				"x": 0.5826829355,
				"y": 0.9567747133,
				"z": 0.617071832,
				"element": "C" 
			},
			{
				"x": 2.060981475,
				"y": 0.8873414812,
				"z": 0.5365841011,
				"element": "C" 
			},
			{
				"x": 2.7046450671,
				"y": 0.9451221016,
				"z": -0.4945393855,
				"element": "O" 
			},
			{
				"x": 2.6832027906,
				"y": 0.7347143921,
				"z": 1.7460941715,
				"element": "O" 
			},
			{
				"x": 4.1167489399,
				"y": 0.6623452751,
				"z": 1.6862224202,
				"element": "C" 
			},
			{
				"x": -0.1884293813,
				"y": 0.9453910609,
				"z": 1.8125580906,
				"element": "C" 
			},
			{
				"x": 0.3544664684,
				"y": 0.9374090731,
				"z": 3.0780585292,
				"element": "N" 
			},
			{
				"x": -1.5948885429,
				"y": 1.0001497353,
				"z": 1.6803185417,
				"element": "C" 
			},
			{
				"x": -2.2069405137,
				"y": 1.0678712736,
				"z": 0.4412556431,
				"element": "C" 
			},
			{
				"x": -3.2971052438,
				"y": -0.7133386443,
				"z": -1.8942183543,
				"element": "H" 
			},
			{
				"x": -3.0811512395,
				"y": -0.1883933883,
				"z": -3.5727666823,
				"element": "H" 
			},
			{
				"x": -1.7363488746,
				"y": -0.9365089151,
				"z": -2.6916335305,
				"element": "H" 
			},
			{
				"x": -1.4512914066,
				"y": 1.5651481729,
				"z": -2.8393470408,
				"element": "H" 
			},
			{
				"x": -3.0065997401,
				"y": 1.7952327321,
				"z": -2.0583419505,
				"element": "H" 
			},
			{
				"x": 0.5532807101,
				"y": 1.0462033262,
				"z": -1.5104618494,
				"element": "H" 
			},
			{
				"x": 4.5289177141,
				"y": 1.5714751196,
				"z": 1.2425459303,
				"element": "H" 
			},
			{
				"x": 4.434402165,
				"y": -0.1953395797,
				"z": 1.0885628581,
				"element": "H" 
			},
			{
				"x": 4.4496560948,
				"y": 0.5547469545,
				"z": 2.7189373739,
				"element": "H" 
			},
			{
				"x": -0.2548492186,
				"y": 0.6608631404,
				"z": 3.8317571628,
				"element": "H" 
			},
			{
				"x": 1.3262341812,
				"y": 0.6835022093,
				"z": 3.1624642787,
				"element": "H" 
			},
			{
				"x": -2.1999512246,
				"y": 1.0016866435,
				"z": 2.5839393801,
				"element": "H" 
			},
			{
				"x": -3.2930534361,
				"y": 1.1122690416,
				"z": 0.3925185222,
				"element": "H" 
			}
		],
		 "valence_orbital": [ 
			{
				"type": "occ",
				"energy": -0.30523,
				"method": "rhf"
			},
			{
				"type": "occ",
				"energy": -0.29444,
				"method": "rhf"
			},
			{
				"type": "occ",
				"energy": -0.26866,
				"method": "rhf"
			},
			{
				"type": "occ",
				"energy": -0.24816,
				"method": "rhf"
			},
			{
				"type": "occ",
				"energy": -0.19826,
				"method": "rhf"
			},
			{
				"type": "unocc",
				"energy": -0.03296,
				"method": "rhf"
			},
			{
				"type": "unocc",
				"energy": 0.01639,
				"method": "rhf"
			},
			{
				"type": "unocc",
				"energy": 0.06341,
				"method": "rhf"
			},
			{
				"type": "unocc",
				"energy": 0.09043,
				"method": "rhf"
			},
			{
				"type": "unocc",
				"energy": 0.10289,
				"method": "rhf"
			}
		],
		"cosmo_sigma_profile": { 
			"-0.025": 0.0,
			"-0.024": 0.0,
			"-0.023": 0.0,
			"-0.022": 0.0,
			"-0.021": 0.0,
			"-0.02": 0.0,
			"-0.019": 0.0,
			"-0.018": 0.0,
			"-0.017": 0.0,
			"-0.016": 0.0,
			"-0.015": 0.0,
			"-0.014": 0.0,
			"-0.013": 0.822774869753,
			"-0.012": 1.5133177649,
			"-0.011": 1.10756459932,
			"-0.01": 1.55679746478,
			"-0.009": 2.74106442629,
			"-0.008": 2.64077324292,
			"-0.007": 2.83379425956,
			"-0.006": 7.06747044464,
			"-0.005": 11.0912481042,
			"-0.004": 15.5508851496,
			"-0.003": 24.4013108744,
			"-0.002": 21.2729312467,
			"-0.001": 21.5372498696,
			"0.0": 22.8280716922,
			"0.001": 19.4015342349,
			"0.002": 13.7934731839,
			"0.003": 11.9467250979,
			"0.004": 11.9039298075,
			"0.005": 12.1439434357,
			"0.006": 6.5527326953,
			"0.007": 2.05627772162,
			"0.008": 2.96351212838,
			"0.009": 1.87873322021,
			"0.01": 2.02478037403,
			"0.011": 2.92678865118,
			"0.012": 4.47581248067,
			"0.013": 2.06785406388,
			"0.014": 0.0,
			"0.015": 0.0,
			"0.016": 0.0,
			"0.017": 0.0,
			"0.018": 0.0,
			"0.019": 0.0,
			"0.02": 0.0,
			"0.021": 0.0,
			"0.022": 0.0,
			"0.023": 0.0,
			"0.024": 0.0,
			"0.025": 0.0
		}
	}
}
