{
	 "smiles": "CC1(C)CCC2(C)CCC3(C)C(=CCC4C5(C)CCC(O)C(C)(C)C5CCC34C)C2C1", 
	 "Tm": 470.15, 
	 "num_atms": 81, 
	 "gaussian": { 
		 "optdone": 1, 
		 "sigma_profile": "yes", 
		 "theory": "DFT", 
		 "functional": "B3LYP", 
		 "basiset": "6-31G**", 
		 "properties": { 
			 "R2extent": 15252.2704, 
			 "electric_dipole_moment_norm": 1.35893504628, 
			 "electric_quadrupole_moment_norm": 12.8971329678, 
			 "total_energy": -1248.5356882, 
			 "HOMO_LUMO_gap": 0.24387, 
			 "cosmo_polarized_energy": -7.06, 
			 "cosmo_cavitation_energy": 61.4, 
			 "cosmo_dispersion_energy": -42.27, 
			 "cosmo_repulsion_energy": 3.01, 
			 "cosmo_total_nonelectrostatic_energy": 22.15, 
			 "SMD_solvation_energy": 9.0 
		},
		"coords": [
			{
				"x": -2.0179080941,
				"y": 0.0887554505,
				"z": -5.0236881055,
				"element": "C" 
			},
			{
				"x": -1.9846555982,
				"y": -1.208791464,
				"z": -4.1949960234,
				"element": "C" 
			},
			{
				"x": -3.4283601296,
				"y": -1.7049306317,
				"z": -3.9889455774,
				"element": "C" 
			},
			{
				"x": -1.1521773396,
				"y": -2.287312914,
				"z": -4.946915594,
				"element": "C" 
			},
			{
				"x": -0.4387147189,
				"y": -3.2243919476,
				"z": -3.96970823,
				"element": "C" 
			},
			{
				"x": 0.6742288073,
				"y": -2.5113893229,
				"z": -3.1450414081,
				"element": "C" 
			},
			{
				"x": 1.9524388771,
				"y": -2.4375081485,
				"z": -4.0082411145,
				"element": "C" 
			},
			{
				"x": 0.9711234604,
				"y": -3.3562176926,
				"z": -1.8629200119,
				"element": "C" 
			},
			{
				"x": 0.575053172,
				"y": -2.7031543963,
				"z": -0.5289875481,
				"element": "C" 
			},
			{
				"x": 1.2078253694,
				"y": -1.2990152584,
				"z": -0.3399032416,
				"element": "C" 
			},
			{
				"x": 2.755301018,
				"y": -1.4561723995,
				"z": -0.3688954608,
				"element": "C" 
			},
			{
				"x": 0.7949779684,
				"y": -0.4330887696,
				"z": -1.5304013271,
				"element": "C" 
			},
			{
				"x": 0.8778365938,
				"y": 0.8967480103,
				"z": -1.4289859738,
				"element": "C" 
			},
			{
				"x": 1.2085287657,
				"y": 1.6595959436,
				"z": -0.1799861398,
				"element": "C" 
			},
			{
				"x": 1.3803897211,
				"y": 0.8367285175,
				"z": 1.1345969256,
				"element": "C" 
			},
			{
				"x": 0.9780293103,
				"y": 1.6529538006,
				"z": 2.4581000641,
				"element": "C" 
			},
			{
				"x": 2.0389856973,
				"y": 1.3030621624,
				"z": 3.5374480876,
				"element": "C" 
			},
			{
				"x": 1.1071779688,
				"y": 3.205582399,
				"z": 2.2617940537,
				"element": "C" 
			},
			{
				"x": -0.181795219,
				"y": 3.9778049665,
				"z": 1.935247574,
				"element": "C" 
			},
			{
				"x": -1.3893329664,
				"y": 3.6853435885,
				"z": 2.8655580502,
				"element": "C" 
			},
			{
				"x": -1.6794344884,
				"y": 4.7883537052,
				"z": 3.7321657692,
				"element": "O" 
			},
			{
				"x": -1.2132830774,
				"y": 2.4271116038,
				"z": 3.7577931021,
				"element": "C" 
			},
			{
				"x": -0.4577982202,
				"y": 2.7795067362,
				"z": 5.0639526013,
				"element": "C" 
			},
			{
				"x": -2.6130456373,
				"y": 1.9544173502,
				"z": 4.2197801338,
				"element": "C" 
			},
			{
				"x": -0.4871379784,
				"y": 1.2962565011,
				"z": 2.937426833,
				"element": "C" 
			},
			{
				"x": -1.3240600093,
				"y": 0.8142154863,
				"z": 1.7300193325,
				"element": "C" 
			},
			{
				"x": -0.8075970912,
				"y": -0.487107127,
				"z": 1.0892556163,
				"element": "C" 
			},
			{
				"x": 0.7458196465,
				"y": -0.6016913876,
				"z": 1.0254563304,
				"element": "C" 
			},
			{
				"x": 1.2021588754,
				"y": -1.493812959,
				"z": 2.2073759921,
				"element": "C" 
			},
			{
				"x": 0.2083882031,
				"y": -1.0491278863,
				"z": -2.8056861413,
				"element": "C" 
			},
			{
				"x": -1.3410759687,
				"y": -0.9437355804,
				"z": -2.8034340052,
				"element": "C" 
			},
			{
				"x": -2.66886261,
				"y": 0.8394002293,
				"z": -4.5605453559,
				"element": "H" 
			},
			{
				"x": -2.3953894546,
				"y": -0.1029317089,
				"z": -6.0350279904,
				"element": "H" 
			},
			{
				"x": -1.0186211241,
				"y": 0.5277606079,
				"z": -5.1235073228,
				"element": "H" 
			},
			{
				"x": -3.4480365799,
				"y": -2.6763823959,
				"z": -3.4815641495,
				"element": "H" 
			},
			{
				"x": -4.0041416744,
				"y": -1.0006378116,
				"z": -3.3770453703,
				"element": "H" 
			},
			{
				"x": -3.9477545209,
				"y": -1.8175653015,
				"z": -4.947767922,
				"element": "H" 
			},
			{
				"x": -0.4095272531,
				"y": -1.8001918727,
				"z": -5.591634989,
				"element": "H" 
			},
			{
				"x": -1.8047035005,
				"y": -2.856755961,
				"z": -5.6202881416,
				"element": "H" 
			},
			{
				"x": 0.00624169,
				"y": -4.0760090129,
				"z": -4.4999092403,
				"element": "H" 
			},
			{
				"x": -1.1824625615,
				"y": -3.6543627687,
				"z": -3.286123348,
				"element": "H" 
			},
			{
				"x": 1.7550050933,
				"y": -1.9728847996,
				"z": -4.9808163646,
				"element": "H" 
			},
			{
				"x": 2.7320872228,
				"y": -1.8448783726,
				"z": -3.51809686,
				"element": "H" 
			},
			{
				"x": 2.3578749478,
				"y": -3.4387965476,
				"z": -4.1940727224,
				"element": "H" 
			},
			{
				"x": 2.0378018424,
				"y": -3.6003837011,
				"z": -1.8267590565,
				"element": "H" 
			},
			{
				"x": 0.4601851011,
				"y": -4.3234972238,
				"z": -1.94081123,
				"element": "H" 
			},
			{
				"x": 0.8900694974,
				"y": -3.3754766386,
				"z": 0.2748683526,
				"element": "H" 
			},
			{
				"x": -0.5159048149,
				"y": -2.6332551118,
				"z": -0.4593506469,
				"element": "H" 
			},
			{
				"x": 3.2619923719,
				"y": -0.5075717285,
				"z": -0.1822521642,
				"element": "H" 
			},
			{
				"x": 3.0983858681,
				"y": -1.8017420433,
				"z": -1.3453021765,
				"element": "H" 
			},
			{
				"x": 3.1023651604,
				"y": -2.1824770092,
				"z": 0.3736165222,
				"element": "H" 
			},
			{
				"x": 0.6141680231,
				"y": 1.5126136808,
				"z": -2.2908403196,
				"element": "H" 
			},
			{
				"x": 2.1200122127,
				"y": 2.2506674008,
				"z": -0.3502988018,
				"element": "H" 
			},
			{
				"x": 0.4195249628,
				"y": 2.4075424567,
				"z": -0.0687901,
				"element": "H" 
			},
			{
				"x": 2.4572399868,
				"y": 0.6778906048,
				"z": 1.24260438,
				"element": "H" 
			},
			{
				"x": 2.1137241203,
				"y": 0.235242616,
				"z": 3.7366889404,
				"element": "H" 
			},
			{
				"x": 3.027158772,
				"y": 1.6414559812,
				"z": 3.2019934436,
				"element": "H" 
			},
			{
				"x": 1.8330861892,
				"y": 1.7987062017,
				"z": 4.486446897,
				"element": "H" 
			},
			{
				"x": 1.5127048424,
				"y": 3.6258003153,
				"z": 3.1866712437,
				"element": "H" 
			},
			{
				"x": 1.8638291647,
				"y": 3.4274548175,
				"z": 1.5027765022,
				"element": "H" 
			},
			{
				"x": -0.4863696905,
				"y": 3.7915780653,
				"z": 0.8998624965,
				"element": "H" 
			},
			{
				"x": 0.0348241916,
				"y": 5.0517928022,
				"z": 1.9935134447,
				"element": "H" 
			},
			{
				"x": -2.2661146954,
				"y": 3.5079733538,
				"z": 2.2237823641,
				"element": "H" 
			},
			{
				"x": -1.9502204293,
				"y": 5.530545327,
				"z": 3.1775914576,
				"element": "H" 
			},
			{
				"x": -0.247946486,
				"y": 1.8676127808,
				"z": 5.6337467173,
				"element": "H" 
			},
			{
				"x": 0.4822729097,
				"y": 3.3059538236,
				"z": 4.90218277,
				"element": "H" 
			},
			{
				"x": -1.0775577579,
				"y": 3.4306698447,
				"z": 5.682866399,
				"element": "H" 
			},
			{
				"x": -3.2894048685,
				"y": 1.7394307048,
				"z": 3.3886742934,
				"element": "H" 
			},
			{
				"x": -2.5387434769,
				"y": 1.0513922669,
				"z": 4.8368487746,
				"element": "H" 
			},
			{
				"x": -3.0797259058,
				"y": 2.7389149129,
				"z": 4.8219824609,
				"element": "H" 
			},
			{
				"x": -0.4150549367,
				"y": 0.4496866906,
				"z": 3.6337760951,
				"element": "H" 
			},
			{
				"x": -2.3627744594,
				"y": 0.6476913252,
				"z": 2.0243223591,
				"element": "H" 
			},
			{
				"x": -1.3557552854,
				"y": 1.6012086464,
				"z": 0.9684632821,
				"element": "H" 
			},
			{
				"x": -1.2037277682,
				"y": -1.3411403685,
				"z": 1.6527457118,
				"element": "H" 
			},
			{
				"x": -1.2409181099,
				"y": -0.5571821621,
				"z": 0.0881941372,
				"element": "H" 
			},
			{
				"x": 0.8686264841,
				"y": -2.5245651225,
				"z": 2.0635377329,
				"element": "H" 
			},
			{
				"x": 0.765750423,
				"y": -1.1660733654,
				"z": 3.1509170627,
				"element": "H" 
			},
			{
				"x": 2.2885102084,
				"y": -1.5096388661,
				"z": 2.3303981592,
				"element": "H" 
			},
			{
				"x": 0.5481929928,
				"y": -0.4094920569,
				"z": -3.6309894572,
				"element": "H" 
			},
			{
				"x": -1.752606285,
				"y": -1.6499710956,
				"z": -2.0722546428,
				"element": "H" 
			},
			{
				"x": -1.6314969481,
				"y": 0.053589254,
				"z": -2.4557581912,
				"element": "H" 
			}
		],
		 "valence_orbital": [ 
			{
				"type": "occ",
				"energy": -0.27307,
				"method": "rhf"
			},
			{
				"type": "occ",
				"energy": -0.2691,
				"method": "rhf"
			},
			{
				"type": "occ",
				"energy": -0.2595,
				"method": "rhf"
			},
			{
				"type": "occ",
				"energy": -0.25282,
				"method": "rhf"
			},
			{
				"type": "occ",
				"energy": -0.21621,
				"method": "rhf"
			},
			{
				"type": "unocc",
				"energy": 0.02766,
				"method": "rhf"
			},
			{
				"type": "unocc",
				"energy": 0.06762,
				"method": "rhf"
			},
			{
				"type": "unocc",
				"energy": 0.07439,
				"method": "rhf"
			},
			{
				"type": "unocc",
				"energy": 0.08285,
				"method": "rhf"
			},
			{
				"type": "unocc",
				"energy": 0.09031,
				"method": "rhf"
			}
		],
		"cosmo_sigma_profile": { 
			"-0.025": 0.0,
			"-0.024": 0.0,
			"-0.023": 0.0,
			"-0.022": 0.0,
			"-0.021": 0.0,
			"-0.02": 0.0,
			"-0.019": 0.0,
			"-0.018": 0.0,
			"-0.017": 0.0,
			"-0.016": 0.0,
			"-0.015": 0.346527271127,
			"-0.014": 0.995848345303,
			"-0.013": 0.973544692187,
			"-0.012": 0.84682235641,
			"-0.011": 0.677192322324,
			"-0.01": 0.928715318501,
			"-0.009": 0.940823205185,
			"-0.008": 1.70165348475,
			"-0.007": 0.626817803516,
			"-0.006": 0.688508823428,
			"-0.005": 1.31082591328,
			"-0.004": 4.17607103145,
			"-0.003": 18.8384301635,
			"-0.002": 71.7095222526,
			"-0.001": 94.2758285544,
			"0.0": 94.6836784618,
			"0.001": 81.4058905792,
			"0.002": 57.5610981159,
			"0.003": 12.412851476,
			"0.004": 3.93248266536,
			"0.005": 2.77717044486,
			"0.006": 2.50454448075,
			"0.007": 2.6565353392,
			"0.008": 2.56611633584,
			"0.009": 1.29643115549,
			"0.01": 1.01925948893,
			"0.011": 1.71827659329,
			"0.012": 1.85649337173,
			"0.013": 1.28732869996,
			"0.014": 0.499294257182,
			"0.015": 0.0740415296007,
			"0.016": 0.0,
			"0.017": 0.0,
			"0.018": 0.0,
			"0.019": 0.0,
			"0.02": 0.0,
			"0.021": 0.0,
			"0.022": 0.0,
			"0.023": 0.0,
			"0.024": 0.0,
			"0.025": 0.0
		}
	}
}
