{
	 "smiles": "FC(F)(F)OC1=C(Cl)C=CC(=C1)C#N", 
	 "Tm": 310.15, 
	 "num_atms": 17, 
	 "gaussian": { 
		 "optdone": 1, 
		 "sigma_profile": "yes", 
		 "theory": "DFT", 
		 "functional": "B3LYP", 
		 "basiset": "6-31G**", 
		 "properties": { 
			 "R2extent": 5268.5642, 
			 "electric_dipole_moment_norm": 2.69965376113, 
			 "electric_quadrupole_moment_norm": 11.7515769274, 
			 "total_energy": -1196.32493105, 
			 "HOMO_LUMO_gap": 0.20034, 
			 "cosmo_polarized_energy": -8.58, 
			 "cosmo_cavitation_energy": 26.7, 
			 "cosmo_dispersion_energy": -18.32, 
			 "cosmo_repulsion_energy": 1.39, 
			 "cosmo_total_nonelectrostatic_energy": 9.77, 
			 "SMD_solvation_energy": 7.27 
		},
		"coords": [
			{
				"x": -4.750105216,
				"y": -0.3834600313,
				"z": 0.8433299615,
				"element": "F" 
			},
			{
				"x": -4.4835149782,
				"y": 0.2411711926,
				"z": -0.3135308013,
				"element": "C" 
			},
			{
				"x": -5.4564135752,
				"y": 1.102660077,
				"z": -0.5852842509,
				"element": "F" 
			},
			{
				"x": -4.4565326328,
				"y": -0.6988641986,
				"z": -1.2797895077,
				"element": "F" 
			},
			{
				"x": -3.3161243606,
				"y": 0.9487244449,
				"z": -0.2570093865,
				"element": "O" 
			},
			{
				"x": -2.1673284428,
				"y": 0.2700684243,
				"z": 0.1311307545,
				"element": "C" 
			},
			{
				"x": -1.6204199445,
				"y": 0.5173972765,
				"z": 1.3978669709,
				"element": "C" 
			},
			{
				"x": -2.424436594,
				"y": 1.5859457136,
				"z": 2.5089545086,
				"element": "Cl" 
			},
			{
				"x": -0.4203128474,
				"y": -0.0950733046,
				"z": 1.7667500991,
				"element": "C" 
			},
			{
				"x": 0.2279354185,
				"y": -0.9508360135,
				"z": 0.8833913065,
				"element": "C" 
			},
			{
				"x": -0.3197845993,
				"y": -1.1957870216,
				"z": -0.3865022534,
				"element": "C" 
			},
			{
				"x": -1.5206630515,
				"y": -0.5763861776,
				"z": -0.7626984563,
				"element": "C" 
			},
			{
				"x": 0.3495644445,
				"y": -2.0712783734,
				"z": -1.3036078502,
				"element": "C" 
			},
			{
				"x": 0.8959862689,
				"y": -2.7822877826,
				"z": -2.0440526856,
				"element": "N" 
			},
			{
				"x": -0.0044516335,
				"y": 0.1029857514,
				"z": 2.7479170961,
				"element": "H" 
			},
			{
				"x": 1.1584941718,
				"y": -1.4274827251,
				"z": 1.1704270405,
				"element": "H" 
			},
			{
				"x": -1.9506924278,
				"y": -0.7446972521,
				"z": -1.7419925458,
				"element": "H" 
			}
		],
		 "valence_orbital": [ 
			{
				"type": "occ",
				"energy": -0.34662,
				"method": "rhf"
			},
			{
				"type": "occ",
				"energy": -0.34266,
				"method": "rhf"
			},
			{
				"type": "occ",
				"energy": -0.33913,
				"method": "rhf"
			},
			{
				"type": "occ",
				"energy": -0.29729,
				"method": "rhf"
			},
			{
				"type": "occ",
				"energy": -0.27532,
				"method": "rhf"
			},
			{
				"type": "unocc",
				"energy": -0.07498,
				"method": "rhf"
			},
			{
				"type": "unocc",
				"energy": -0.05007,
				"method": "rhf"
			},
			{
				"type": "unocc",
				"energy": 0.00046,
				"method": "rhf"
			},
			{
				"type": "unocc",
				"energy": 0.02042,
				"method": "rhf"
			},
			{
				"type": "unocc",
				"energy": 0.05368,
				"method": "rhf"
			}
		],
		"cosmo_sigma_profile": { 
			"-0.025": 0.0,
			"-0.024": 0.0,
			"-0.023": 0.0,
			"-0.022": 0.0,
			"-0.021": 0.0,
			"-0.02": 0.0,
			"-0.019": 0.0,
			"-0.018": 0.0,
			"-0.017": 0.0,
			"-0.016": 0.0,
			"-0.015": 0.0,
			"-0.014": 0.0,
			"-0.013": 0.0,
			"-0.012": 0.0,
			"-0.011": 0.0,
			"-0.01": 1.05103965391,
			"-0.009": 5.99595032448,
			"-0.008": 6.19627924433,
			"-0.007": 5.79574660354,
			"-0.006": 5.53598777972,
			"-0.005": 5.16931677785,
			"-0.004": 7.20263995223,
			"-0.003": 14.3841730133,
			"-0.002": 22.1821855853,
			"-0.001": 24.4963929277,
			"0.0": 20.7236250078,
			"0.001": 29.418882535,
			"0.002": 28.7718885853,
			"0.003": 11.7062237415,
			"0.004": 4.91937987393,
			"0.005": 4.27222947101,
			"0.006": 3.68849458187,
			"0.007": 2.95421817586,
			"0.008": 3.6021602419,
			"0.009": 3.24818391232,
			"0.01": 2.88066419494,
			"0.011": 2.42519859809,
			"0.012": 2.12600279003,
			"0.013": 0.529187549163,
			"0.014": 0.0,
			"0.015": 0.0,
			"0.016": 0.0,
			"0.017": 0.0,
			"0.018": 0.0,
			"0.019": 0.0,
			"0.02": 0.0,
			"0.021": 0.0,
			"0.022": 0.0,
			"0.023": 0.0,
			"0.024": 0.0,
			"0.025": 0.0
		}
	}
}
