{
	 "smiles": "ClC1=CC(=NC=C1)C(=O)NCC1=CC=CC=C1", 
	 "Tm": 340.15, 
	 "num_atms": 28, 
	 "gaussian": { 
		 "optdone": 1, 
		 "sigma_profile": "yes", 
		 "theory": "DFT", 
		 "functional": "B3LYP", 
		 "basiset": "6-31G**", 
		 "properties": { 
			 "R2extent": 6714.9058, 
			 "electric_dipole_moment_norm": 3.29652738499, 
			 "electric_quadrupole_moment_norm": 11.9128330535, 
			 "total_energy": -1146.94187141, 
			 "HOMO_LUMO_gap": 0.1794, 
			 "cosmo_polarized_energy": -12.01, 
			 "cosmo_cavitation_energy": 34.72, 
			 "cosmo_dispersion_energy": -24.9, 
			 "cosmo_repulsion_energy": 1.94, 
			 "cosmo_total_nonelectrostatic_energy": 11.76, 
			 "SMD_solvation_energy": 5.69 
		},
		"coords": [
			{
				"x": 1.7074728021,
				"y": 2.3463787066,
				"z": -4.9544627916,
				"element": "Cl" 
			},
			{
				"x": 1.5794486697,
				"y": 1.4227478257,
				"z": -3.4742301684,
				"element": "C" 
			},
			{
				"x": 0.3312444848,
				"y": 1.0507662008,
				"z": -2.9905589519,
				"element": "C" 
			},
			{
				"x": 0.2837598751,
				"y": 0.323203897,
				"z": -1.7944435948,
				"element": "C" 
			},
			{
				"x": 1.3801073292,
				"y": -0.0423109629,
				"z": -1.1143977698,
				"element": "N" 
			},
			{
				"x": 2.569624528,
				"y": 0.3170098167,
				"z": -1.610041548,
				"element": "C" 
			},
			{
				"x": 2.7325658934,
				"y": 1.0537428006,
				"z": -2.7824928836,
				"element": "C" 
			},
			{
				"x": -1.0936596741,
				"y": -0.1145605495,
				"z": -1.3336770572,
				"element": "C" 
			},
			{
				"x": -2.0017311503,
				"y": -0.1583723454,
				"z": -2.1630868845,
				"element": "O" 
			},
			{
				"x": -1.3143179989,
				"y": -0.4787832866,
				"z": -0.0379122402,
				"element": "N" 
			},
			{
				"x": -0.5300910271,
				"y": -0.2937893083,
				"z": 1.184645773,
				"element": "C" 
			},
			{
				"x": -0.3022800698,
				"y": -1.5958182578,
				"z": 1.9306406214,
				"element": "C" 
			},
			{
				"x": 0.389946878,
				"y": -2.6506825517,
				"z": 1.3186723181,
				"element": "C" 
			},
			{
				"x": 0.6089282416,
				"y": -3.8434602696,
				"z": 2.0051205269,
				"element": "C" 
			},
			{
				"x": 0.1396469352,
				"y": -3.9995326407,
				"z": 3.3131231631,
				"element": "C" 
			},
			{
				"x": -0.5488795075,
				"y": -2.9551962289,
				"z": 3.9293774188,
				"element": "C" 
			},
			{
				"x": -0.769267365,
				"y": -1.7606802523,
				"z": 3.2382679311,
				"element": "C" 
			},
			{
				"x": -0.5898299516,
				"y": 1.2871899888,
				"z": -3.5072735,
				"element": "H" 
			},
			{
				"x": 3.4426958514,
				"y": 0.0006978707,
				"z": -1.0432810809,
				"element": "H" 
			},
			{
				"x": 3.7177914486,
				"y": 1.3260377139,
				"z": -3.1424859731,
				"element": "H" 
			},
			{
				"x": -2.2690594168,
				"y": -0.7939354992,
				"z": 0.0895810033,
				"element": "H" 
			},
			{
				"x": -1.0551909366,
				"y": 0.4141976264,
				"z": 1.8390721107,
				"element": "H" 
			},
			{
				"x": 0.424210666,
				"y": 0.1486383077,
				"z": 0.9050067079,
				"element": "H" 
			},
			{
				"x": 0.7574194395,
				"y": -2.522926311,
				"z": 0.3047566053,
				"element": "H" 
			},
			{
				"x": 1.1478848769,
				"y": -4.6535253651,
				"z": 1.5215292806,
				"element": "H" 
			},
			{
				"x": 0.3100996676,
				"y": -4.930560189,
				"z": 3.8462170733,
				"element": "H" 
			},
			{
				"x": -0.9188013051,
				"y": -3.0687556278,
				"z": 4.9445200374,
				"element": "H" 
			},
			{
				"x": -1.3088391846,
				"y": -0.9489211088,
				"z": 3.7212138728,
				"element": "H" 
			}
		],
		 "valence_orbital": [ 
			{
				"type": "occ",
				"energy": -0.2803,
				"method": "rhf"
			},
			{
				"type": "occ",
				"energy": -0.25952,
				"method": "rhf"
			},
			{
				"type": "occ",
				"energy": -0.25307,
				"method": "rhf"
			},
			{
				"type": "occ",
				"energy": -0.2506,
				"method": "rhf"
			},
			{
				"type": "occ",
				"energy": -0.23907,
				"method": "rhf"
			},
			{
				"type": "unocc",
				"energy": -0.05967,
				"method": "rhf"
			},
			{
				"type": "unocc",
				"energy": -0.04016,
				"method": "rhf"
			},
			{
				"type": "unocc",
				"energy": -0.00556,
				"method": "rhf"
			},
			{
				"type": "unocc",
				"energy": -0.0008,
				"method": "rhf"
			},
			{
				"type": "unocc",
				"energy": 0.01605,
				"method": "rhf"
			}
		],
		"cosmo_sigma_profile": { 
			"-0.025": 0.0,
			"-0.024": 0.0,
			"-0.023": 0.0,
			"-0.022": 0.0,
			"-0.021": 0.0,
			"-0.02": 0.0,
			"-0.019": 0.0,
			"-0.018": 0.0,
			"-0.017": 0.0,
			"-0.016": 0.0,
			"-0.015": 0.0,
			"-0.014": 0.208772150651,
			"-0.013": 1.07751655537,
			"-0.012": 0.740661239983,
			"-0.011": 0.898594557118,
			"-0.01": 0.870026577481,
			"-0.009": 1.93931453365,
			"-0.008": 4.39668445989,
			"-0.007": 6.56434107695,
			"-0.006": 10.410831587,
			"-0.005": 17.9367227035,
			"-0.004": 19.2094441054,
			"-0.003": 22.1224116924,
			"-0.002": 20.7439544599,
			"-0.001": 28.6638380241,
			"0.0": 27.9379613719,
			"0.001": 20.2232407946,
			"0.002": 17.5803092439,
			"0.003": 21.6489547823,
			"0.004": 18.1060984322,
			"0.005": 11.6355857924,
			"0.006": 10.3083934443,
			"0.007": 2.04206521232,
			"0.008": 1.92573354036,
			"0.009": 1.41529707527,
			"0.01": 1.20152655414,
			"0.011": 1.20867049801,
			"0.012": 2.44813750956,
			"0.013": 4.42415345801,
			"0.014": 2.85457949138,
			"0.015": 0.127880034985,
			"0.016": 0.0,
			"0.017": 0.0,
			"0.018": 0.0,
			"0.019": 0.0,
			"0.02": 0.0,
			"0.021": 0.0,
			"0.022": 0.0,
			"0.023": 0.0,
			"0.024": 0.0,
			"0.025": 0.0
		}
	}
}
