{
	 "smiles": "ClCCC(=O)C1=CC=C(Cl)C=C1", 
	 "Tm": 323.15, 
	 "num_atms": 20, 
	 "gaussian": { 
		 "optdone": 1, 
		 "sigma_profile": "yes", 
		 "theory": "DFT", 
		 "functional": "B3LYP", 
		 "basiset": "6-31G**", 
		 "properties": { 
			 "R2extent": 4189.1372, 
			 "electric_dipole_moment_norm": 3.43545849778, 
			 "electric_quadrupole_moment_norm": 12.7816156979, 
			 "total_energy": -1343.39142782, 
			 "HOMO_LUMO_gap": 0.18743, 
			 "cosmo_polarized_energy": -12.19, 
			 "cosmo_cavitation_energy": 27.79, 
			 "cosmo_dispersion_energy": -20.17, 
			 "cosmo_repulsion_energy": 1.63, 
			 "cosmo_total_nonelectrostatic_energy": 9.25, 
			 "SMD_solvation_energy": 4.54 
		},
		"coords": [
			{
				"x": -3.180564772,
				"y": -2.1235122632,
				"z": 2.1985417871,
				"element": "Cl" 
			},
			{
				"x": -2.3262969579,
				"y": -2.2062367116,
				"z": 0.6001980779,
				"element": "C" 
			},
			{
				"x": -0.8041134407,
				"y": -2.2131150393,
				"z": 0.7557226924,
				"element": "C" 
			},
			{
				"x": -0.2244374288,
				"y": -0.9572688349,
				"z": 1.4082433468,
				"element": "C" 
			},
			{
				"x": 0.2731401099,
				"y": -1.0254799232,
				"z": 2.5199714115,
				"element": "O" 
			},
			{
				"x": -0.2780903275,
				"y": 0.3514251798,
				"z": 0.6780071903,
				"element": "C" 
			},
			{
				"x": -0.6052180552,
				"y": 0.4682630342,
				"z": -0.6815082871,
				"element": "C" 
			},
			{
				"x": -0.6186409725,
				"y": 1.712418417,
				"z": -1.3100594724,
				"element": "C" 
			},
			{
				"x": -0.3064617719,
				"y": 2.8502819136,
				"z": -0.5663427468,
				"element": "C" 
			},
			{
				"x": -0.3272618714,
				"y": 4.4193818861,
				"z": -1.3474442707,
				"element": "Cl" 
			},
			{
				"x": 0.0251846064,
				"y": 2.7622010486,
				"z": 0.7883563145,
				"element": "C" 
			},
			{
				"x": 0.0413318068,
				"y": 1.5138619103,
				"z": 1.3985861773,
				"element": "C" 
			},
			{
				"x": -2.6652075666,
				"y": -3.1246892658,
				"z": 0.1191473843,
				"element": "H" 
			},
			{
				"x": -2.6789793765,
				"y": -1.3507147785,
				"z": 0.0235078319,
				"element": "H" 
			},
			{
				"x": -0.3735519508,
				"y": -2.3503002701,
				"z": -0.2454102084,
				"element": "H" 
			},
			{
				"x": -0.4954881693,
				"y": -3.0593455111,
				"z": 1.3729889547,
				"element": "H" 
			},
			{
				"x": -0.8379362034,
				"y": -0.410870335,
				"z": -1.2734569129,
				"element": "H" 
			},
			{
				"x": -0.8649293929,
				"y": 1.8012223228,
				"z": -2.3621284102,
				"element": "H" 
			},
			{
				"x": 0.2660404703,
				"y": 3.6595158049,
				"z": 1.3474062333,
				"element": "H" 
			},
			{
				"x": 0.3016812641,
				"y": 1.4115614153,
				"z": 2.4465729066,
				"element": "H" 
			}
		],
		 "valence_orbital": [ 
			{
				"type": "occ",
				"energy": -0.30287,
				"method": "rhf"
			},
			{
				"type": "occ",
				"energy": -0.30035,
				"method": "rhf"
			},
			{
				"type": "occ",
				"energy": -0.27988,
				"method": "rhf"
			},
			{
				"type": "occ",
				"energy": -0.26312,
				"method": "rhf"
			},
			{
				"type": "occ",
				"energy": -0.25826,
				"method": "rhf"
			},
			{
				"type": "unocc",
				"energy": -0.07083,
				"method": "rhf"
			},
			{
				"type": "unocc",
				"energy": -0.02977,
				"method": "rhf"
			},
			{
				"type": "unocc",
				"energy": 0.0139,
				"method": "rhf"
			},
			{
				"type": "unocc",
				"energy": 0.01916,
				"method": "rhf"
			},
			{
				"type": "unocc",
				"energy": 0.0242,
				"method": "rhf"
			}
		],
		"cosmo_sigma_profile": { 
			"-0.025": 0.0,
			"-0.024": 0.0,
			"-0.023": 0.0,
			"-0.022": 0.0,
			"-0.021": 0.0,
			"-0.02": 0.0,
			"-0.019": 0.0,
			"-0.018": 0.0,
			"-0.017": 0.0,
			"-0.016": 0.0,
			"-0.015": 0.0,
			"-0.014": 0.0,
			"-0.013": 0.0,
			"-0.012": 0.0,
			"-0.011": 0.0207947780775,
			"-0.01": 1.15529500711,
			"-0.009": 2.58491087118,
			"-0.008": 7.07865791951,
			"-0.007": 14.0954041992,
			"-0.006": 13.5634442049,
			"-0.005": 13.8560438024,
			"-0.004": 12.2530648777,
			"-0.003": 12.4168666157,
			"-0.002": 8.61450744217,
			"-0.001": 12.7866403916,
			"0.0": 17.3637169479,
			"0.001": 19.2864428553,
			"0.002": 23.4516176854,
			"0.003": 14.0532468929,
			"0.004": 15.2622549394,
			"0.005": 9.86893438849,
			"0.006": 10.2040503993,
			"0.007": 5.4444720784,
			"0.008": 1.9013259237,
			"0.009": 2.05191959716,
			"0.01": 2.299940696,
			"0.011": 3.84818104104,
			"0.012": 2.53802262068,
			"0.013": 0.507079789648,
			"0.014": 0.0,
			"0.015": 0.0,
			"0.016": 0.0,
			"0.017": 0.0,
			"0.018": 0.0,
			"0.019": 0.0,
			"0.02": 0.0,
			"0.021": 0.0,
			"0.022": 0.0,
			"0.023": 0.0,
			"0.024": 0.0,
			"0.025": 0.0
		}
	}
}
