{
	 "smiles": "OC1=C(Br)C=C(C=O)C=C1Br", 
	 "Tm": 455.15, 
	 "num_atms": 15, 
	 "gaussian": { 
		 "optdone": 1, 
		 "sigma_profile": "yes", 
		 "theory": "DFT", 
		 "functional": "B3LYP", 
		 "basiset": "6-31G**", 
		 "properties": { 
			 "R2extent": 3932.7054, 
			 "electric_dipole_moment_norm": 1.620935921, 
			 "electric_quadrupole_moment_norm": 14.2898754375, 
			 "total_energy": -5562.3974982, 
			 "HOMO_LUMO_gap": 0.17751, 
			 "cosmo_polarized_energy": -9.72, 
			 "cosmo_cavitation_energy": 24.7, 
			 "cosmo_dispersion_energy": -19.04, 
			 "cosmo_repulsion_energy": 1.52, 
			 "cosmo_total_nonelectrostatic_energy": 7.19, 
			 "SMD_solvation_energy": 3.52 
		},
		"coords": [
			{
				"x": 0.1566660203,
				"y": 1.9344155449,
				"z": -0.2334129557,
				"element": "O" 
			},
			{
				"x": 0.2362368369,
				"y": 0.5956451538,
				"z": -0.2010304102,
				"element": "C" 
			},
			{
				"x": -0.21797861,
				"y": -0.0908105412,
				"z": 0.9407581646,
				"element": "C" 
			},
			{
				"x": -0.9287353624,
				"y": 0.9025998574,
				"z": 2.3972107735,
				"element": "Br" 
			},
			{
				"x": -0.1515313408,
				"y": -1.4754027258,
				"z": 1.0105687423,
				"element": "C" 
			},
			{
				"x": 0.3702861564,
				"y": -2.2149288409,
				"z": -0.0576402692,
				"element": "C" 
			},
			{
				"x": 0.4394780034,
				"y": -3.6897726006,
				"z": 0.0202431106,
				"element": "C" 
			},
			{
				"x": 0.8774091205,
				"y": -4.4037081581,
				"z": -0.8614100824,
				"element": "O" 
			},
			{
				"x": 0.828662508,
				"y": -1.5530791042,
				"z": -1.2052327362,
				"element": "C" 
			},
			{
				"x": 0.7575578906,
				"y": -0.1740363436,
				"z": -1.2634474889,
				"element": "C" 
			},
			{
				"x": 1.3753283755,
				"y": 0.762313115,
				"z": -2.8170896009,
				"element": "Br" 
			},
			{
				"x": 0.5089999096,
				"y": 2.2481346789,
				"z": -1.0840773277,
				"element": "H" 
			},
			{
				"x": -0.5080773231,
				"y": -1.9822517162,
				"z": 1.9018151942,
				"element": "H" 
			},
			{
				"x": 0.0521754518,
				"y": -4.1204029954,
				"z": 0.9697456532,
				"element": "H" 
			},
			{
				"x": 1.2305223632,
				"y": -2.1364153241,
				"z": -2.0258007674,
				"element": "H" 
			}
		],
		 "valence_orbital": [ 
			{
				"type": "occ",
				"energy": -0.31513,
				"method": "rhf"
			},
			{
				"type": "occ",
				"energy": -0.298,
				"method": "rhf"
			},
			{
				"type": "occ",
				"energy": -0.26613,
				"method": "rhf"
			},
			{
				"type": "occ",
				"energy": -0.26554,
				"method": "rhf"
			},
			{
				"type": "occ",
				"energy": -0.25017,
				"method": "rhf"
			},
			{
				"type": "unocc",
				"energy": -0.07266,
				"method": "rhf"
			},
			{
				"type": "unocc",
				"energy": -0.04036,
				"method": "rhf"
			},
			{
				"type": "unocc",
				"energy": -0.03301,
				"method": "rhf"
			},
			{
				"type": "unocc",
				"energy": 0.00948,
				"method": "rhf"
			},
			{
				"type": "unocc",
				"energy": 0.02697,
				"method": "rhf"
			}
		],
		"cosmo_sigma_profile": { 
			"-0.025": 0.0,
			"-0.024": 0.0,
			"-0.023": 0.0,
			"-0.022": 0.0,
			"-0.021": 0.0,
			"-0.02": 0.0,
			"-0.019": 0.0,
			"-0.018": 0.0,
			"-0.017": 0.0,
			"-0.016": 0.308889174552,
			"-0.015": 0.390036363018,
			"-0.014": 0.514542252677,
			"-0.013": 0.817386405975,
			"-0.012": 0.827660615918,
			"-0.011": 1.30529285793,
			"-0.01": 0.783230119503,
			"-0.009": 3.6318679742,
			"-0.008": 5.34806063404,
			"-0.007": 5.16271471972,
			"-0.006": 7.16552538995,
			"-0.005": 9.68566949862,
			"-0.004": 10.4671911982,
			"-0.003": 11.455714357,
			"-0.002": 13.6929365996,
			"-0.001": 20.3029750815,
			"0.0": 24.6520865231,
			"0.001": 18.3125662173,
			"0.002": 14.3244336644,
			"0.003": 14.8211795957,
			"0.004": 12.790010546,
			"0.005": 4.36974080065,
			"0.006": 3.02139019503,
			"0.007": 3.04604954251,
			"0.008": 4.06005986666,
			"0.009": 4.54249413441,
			"0.01": 2.72831628032,
			"0.011": 4.50512685587,
			"0.012": 2.16755240347,
			"0.013": 0.388168530201,
			"0.014": 0.0,
			"0.015": 0.0,
			"0.016": 0.0,
			"0.017": 0.0,
			"0.018": 0.0,
			"0.019": 0.0,
			"0.02": 0.0,
			"0.021": 0.0,
			"0.022": 0.0,
			"0.023": 0.0,
			"0.024": 0.0,
			"0.025": 0.0
		}
	}
}
