{
	 "smiles": "CN(C)C(=O)OC1N=C(C2=CC=CC=C2)C2=C(C=CC(Cl)=C2)N(C)C1=O", 
	 "Tm": 447.15, 
	 "num_atms": 44, 
	 "gaussian": { 
		 "optdone": 1, 
		 "sigma_profile": "yes", 
		 "theory": "DFT", 
		 "functional": "B3LYP", 
		 "basiset": "6-31G**", 
		 "properties": { 
			 "R2extent": 9522.6023, 
			 "electric_dipole_moment_norm": 4.97620879887, 
			 "electric_quadrupole_moment_norm": 25.4148034206, 
			 "total_energy": -1585.00122121, 
			 "HOMO_LUMO_gap": 0.16595, 
			 "cosmo_polarized_energy": -19.1, 
			 "cosmo_cavitation_energy": 49.22, 
			 "cosmo_dispersion_energy": -32.39, 
			 "cosmo_repulsion_energy": 2.49, 
			 "cosmo_total_nonelectrostatic_energy": 19.32, 
			 "SMD_solvation_energy": 7.36 
		},
		"coords": [
			{
				"x": 0.2776046733,
				"y": 4.9470168286,
				"z": -1.1967844842,
				"element": "C" 
			},
			{
				"x": 0.7117017652,
				"y": 3.695166586,
				"z": -0.5961389325,
				"element": "N" 
			},
			{
				"x": 2.1055151875,
				"y": 3.3274888774,
				"z": -0.793009995,
				"element": "C" 
			},
			{
				"x": -0.1743781285,
				"y": 3.0024176768,
				"z": 0.1765151423,
				"element": "C" 
			},
			{
				"x": -1.332357019,
				"y": 3.3209212138,
				"z": 0.3795499816,
				"element": "O" 
			},
			{
				"x": 0.4045734805,
				"y": 1.87246814,
				"z": 0.710819275,
				"element": "O" 
			},
			{
				"x": -0.4722729237,
				"y": 1.0516730307,
				"z": 1.5073223712,
				"element": "C" 
			},
			{
				"x": -1.1880083126,
				"y": 0.0371768614,
				"z": 0.7723262281,
				"element": "N" 
			},
			{
				"x": -0.5619520364,
				"y": -0.7706097385,
				"z": -0.0110562956,
				"element": "C" 
			},
			{
				"x": -1.3957346114,
				"y": -1.7671513275,
				"z": -0.746992709,
				"element": "C" 
			},
			{
				"x": -2.7376852145,
				"y": -1.4574027672,
				"z": -1.0280698872,
				"element": "C" 
			},
			{
				"x": -3.554863243,
				"y": -2.3797538059,
				"z": -1.6747835779,
				"element": "C" 
			},
			{
				"x": -3.0502455673,
				"y": -3.6306974331,
				"z": -2.0424597959,
				"element": "C" 
			},
			{
				"x": -1.7225768027,
				"y": -3.9529714863,
				"z": -1.7586755284,
				"element": "C" 
			},
			{
				"x": -0.8980936714,
				"y": -3.0267800964,
				"z": -1.1194649879,
				"element": "C" 
			},
			{
				"x": 0.913772209,
				"y": -0.7789393326,
				"z": -0.2189727223,
				"element": "C" 
			},
			{
				"x": 1.8222793395,
				"y": -0.6197105033,
				"z": 0.8568822614,
				"element": "C" 
			},
			{
				"x": 3.201444248,
				"y": -0.6757736338,
				"z": 0.5905582289,
				"element": "C" 
			},
			{
				"x": 3.6886992584,
				"y": -0.8538578595,
				"z": -0.6991351853,
				"element": "C" 
			},
			{
				"x": 2.7862588637,
				"y": -0.9809027599,
				"z": -1.7544706462,
				"element": "C" 
			},
			{
				"x": 3.3842565134,
				"y": -1.1837864948,
				"z": -3.3933122935,
				"element": "Cl" 
			},
			{
				"x": 1.4183084329,
				"y": -0.953797502,
				"z": -1.5178414246,
				"element": "C" 
			},
			{
				"x": 1.3962559993,
				"y": -0.4559183529,
				"z": 2.1951330923,
				"element": "N" 
			},
			{
				"x": 2.2077521628,
				"y": -1.0348915004,
				"z": 3.2733362733,
				"element": "C" 
			},
			{
				"x": 0.3737691984,
				"y": 0.3960045968,
				"z": 2.6071435277,
				"element": "C" 
			},
			{
				"x": 0.1351662685,
				"y": 0.588042297,
				"z": 3.7862993542,
				"element": "O" 
			},
			{
				"x": -0.7803864791,
				"y": 5.0901688478,
				"z": -0.9852269209,
				"element": "H" 
			},
			{
				"x": 0.4336308585,
				"y": 4.921313281,
				"z": -2.282209603,
				"element": "H" 
			},
			{
				"x": 0.8464042294,
				"y": 5.7921422202,
				"z": -0.7873412361,
				"element": "H" 
			},
			{
				"x": 2.3041837655,
				"y": 2.3480060813,
				"z": -0.3665693329,
				"element": "H" 
			},
			{
				"x": 2.7715379287,
				"y": 4.0632167342,
				"z": -0.3219965062,
				"element": "H" 
			},
			{
				"x": 2.335241334,
				"y": 3.3000362005,
				"z": -1.8652126984,
				"element": "H" 
			},
			{
				"x": -1.1966198402,
				"y": 1.6991044749,
				"z": 1.9965339813,
				"element": "H" 
			},
			{
				"x": -3.1171754026,
				"y": -0.4867978959,
				"z": -0.7285499295,
				"element": "H" 
			},
			{
				"x": -4.5871313137,
				"y": -2.1234335599,
				"z": -1.8948181985,
				"element": "H" 
			},
			{
				"x": -3.689406093,
				"y": -4.349695792,
				"z": -2.5469400943,
				"element": "H" 
			},
			{
				"x": -1.3269177973,
				"y": -4.9269449655,
				"z": -2.0314438877,
				"element": "H" 
			},
			{
				"x": 0.1291911605,
				"y": -3.2920322873,
				"z": -0.8926332424,
				"element": "H" 
			},
			{
				"x": 3.9076129198,
				"y": -0.557300467,
				"z": 1.4039616584,
				"element": "H" 
			},
			{
				"x": 4.7567409125,
				"y": -0.8828841984,
				"z": -0.8840678565,
				"element": "H" 
			},
			{
				"x": 0.7264399125,
				"y": -1.0686033826,
				"z": -2.3435948281,
				"element": "H" 
			},
			{
				"x": 3.020933039,
				"y": -0.3670715997,
				"z": 3.5809676303,
				"element": "H" 
			},
			{
				"x": 1.5587923806,
				"y": -1.1908027589,
				"z": 4.1337905494,
				"element": "H" 
			},
			{
				"x": 2.6245384147,
				"y": -1.9856524473,
				"z": 2.9377332444,
				"element": "H" 
			}
		],
		 "valence_orbital": [ 
			{
				"type": "occ",
				"energy": -0.25796,
				"method": "rhf"
			},
			{
				"type": "occ",
				"energy": -0.25142,
				"method": "rhf"
			},
			{
				"type": "occ",
				"energy": -0.24625,
				"method": "rhf"
			},
			{
				"type": "occ",
				"energy": -0.24207,
				"method": "rhf"
			},
			{
				"type": "occ",
				"energy": -0.23285,
				"method": "rhf"
			},
			{
				"type": "unocc",
				"energy": -0.0669,
				"method": "rhf"
			},
			{
				"type": "unocc",
				"energy": -0.03284,
				"method": "rhf"
			},
			{
				"type": "unocc",
				"energy": -0.02831,
				"method": "rhf"
			},
			{
				"type": "unocc",
				"energy": -0.0056,
				"method": "rhf"
			},
			{
				"type": "unocc",
				"energy": 0.00874,
				"method": "rhf"
			}
		],
		"cosmo_sigma_profile": { 
			"-0.025": 0.0,
			"-0.024": 0.0,
			"-0.023": 0.0,
			"-0.022": 0.0,
			"-0.021": 0.0,
			"-0.02": 0.0,
			"-0.019": 0.0,
			"-0.018": 0.0,
			"-0.017": 0.0,
			"-0.016": 0.0,
			"-0.015": 0.0,
			"-0.014": 0.0,
			"-0.013": 0.0,
			"-0.012": 0.0,
			"-0.011": 0.0,
			"-0.01": 0.0,
			"-0.009": 0.0780179537177,
			"-0.008": 3.516223195,
			"-0.007": 6.97540664873,
			"-0.006": 17.6824155253,
			"-0.005": 30.5179180879,
			"-0.004": 35.9159747927,
			"-0.003": 35.1918293193,
			"-0.002": 41.444634898,
			"-0.001": 38.3132724671,
			"0.0": 32.7800732212,
			"0.001": 32.1418217364,
			"0.002": 23.3129425596,
			"0.003": 19.0282681601,
			"0.004": 24.7444579018,
			"0.005": 12.5174157419,
			"0.006": 4.39266372929,
			"0.007": 3.96399116969,
			"0.008": 4.23841481244,
			"0.009": 4.84770524151,
			"0.01": 3.7482351903,
			"0.011": 5.22096957322,
			"0.012": 8.74855929214,
			"0.013": 5.70875065169,
			"0.014": 0.0677769329222,
			"0.015": 0.0,
			"0.016": 0.0,
			"0.017": 0.0,
			"0.018": 0.0,
			"0.019": 0.0,
			"0.02": 0.0,
			"0.021": 0.0,
			"0.022": 0.0,
			"0.023": 0.0,
			"0.024": 0.0,
			"0.025": 0.0
		}
	}
}
