{
	 "smiles": "CN(C)C(=O)NC1=NOC(=C1)C(C)(C)C", 
	 "Tm": 393.15, 
	 "num_atms": 32, 
	 "gaussian": { 
		 "optdone": 1, 
		 "sigma_profile": "yes", 
		 "theory": "DFT", 
		 "functional": "B3LYP", 
		 "basiset": "6-31G**", 
		 "properties": { 
			 "R2extent": 4753.2374, 
			 "electric_dipole_moment_norm": 3.63666108539, 
			 "electric_quadrupole_moment_norm": 15.1968970359, 
			 "total_energy": -705.990164813, 
			 "HOMO_LUMO_gap": 0.22673, 
			 "cosmo_polarized_energy": -13.97, 
			 "cosmo_cavitation_energy": 34.37, 
			 "cosmo_dispersion_energy": -24.1, 
			 "cosmo_repulsion_energy": 1.9, 
			 "cosmo_total_nonelectrostatic_energy": 12.17, 
			 "SMD_solvation_energy": 7.02 
		},
		"coords": [
			{
				"x": -2.5842681066,
				"y": 4.2100909155,
				"z": 2.1311634624,
				"element": "C" 
			},
			{
				"x": -2.2959489252,
				"y": 2.8379793343,
				"z": 1.7399866157,
				"element": "N" 
			},
			{
				"x": -1.6879472807,
				"y": 1.9909305428,
				"z": 2.7562674008,
				"element": "C" 
			},
			{
				"x": -2.7444065086,
				"y": 2.4087298901,
				"z": 0.5266261665,
				"element": "C" 
			},
			{
				"x": -3.5255705167,
				"y": 3.0322328922,
				"z": -0.1836356835,
				"element": "O" 
			},
			{
				"x": -2.3088171426,
				"y": 1.1173460013,
				"z": 0.1030597596,
				"element": "N" 
			},
			{
				"x": -0.9809588766,
				"y": 0.7226032371,
				"z": -0.0627858968,
				"element": "C" 
			},
			{
				"x": 0.0427621404,
				"y": 1.3918843248,
				"z": 0.4275826942,
				"element": "N" 
			},
			{
				"x": 1.1724519669,
				"y": 0.6396967739,
				"z": 0.0518497277,
				"element": "O" 
			},
			{
				"x": 0.7878128064,
				"y": -0.4417772106,
				"z": -0.6602087771,
				"element": "C" 
			},
			{
				"x": -0.570272704,
				"y": -0.4524613806,
				"z": -0.7675762856,
				"element": "C" 
			},
			{
				"x": 1.8852836936,
				"y": -1.3538532794,
				"z": -1.1522655218,
				"element": "C" 
			},
			{
				"x": 1.2677654898,
				"y": -2.5279712867,
				"z": -1.9323882671,
				"element": "C" 
			},
			{
				"x": 2.6781945552,
				"y": -1.8906244723,
				"z": 0.0624157773,
				"element": "C" 
			},
			{
				"x": 2.8316141115,
				"y": -0.5507876152,
				"z": -2.0754074531,
				"element": "C" 
			},
			{
				"x": -2.9698412795,
				"y": 4.7495569817,
				"z": 1.268035575,
				"element": "H" 
			},
			{
				"x": -3.3346162929,
				"y": 4.2410235042,
				"z": 2.9323157378,
				"element": "H" 
			},
			{
				"x": -1.6697792498,
				"y": 4.6935029804,
				"z": 2.4933928809,
				"element": "H" 
			},
			{
				"x": -0.6145773944,
				"y": 2.1815304917,
				"z": 2.8503315176,
				"element": "H" 
			},
			{
				"x": -2.1780528863,
				"y": 2.1880897401,
				"z": 3.7172360817,
				"element": "H" 
			},
			{
				"x": -1.8339700759,
				"y": 0.9406090807,
				"z": 2.5070963235,
				"element": "H" 
			},
			{
				"x": -2.8950825995,
				"y": 0.8370785083,
				"z": -0.6738385484,
				"element": "H" 
			},
			{
				"x": -1.198267435,
				"y": -1.1774268065,
				"z": -1.2609582767,
				"element": "H" 
			},
			{
				"x": 0.7039055467,
				"y": -2.1773671322,
				"z": -2.8029005388,
				"element": "H" 
			},
			{
				"x": 2.0595055588,
				"y": -3.1926338339,
				"z": -2.2917363283,
				"element": "H" 
			},
			{
				"x": 0.5953564221,
				"y": -3.1182788619,
				"z": -1.3013826069,
				"element": "H" 
			},
			{
				"x": 3.1120800093,
				"y": -1.0713940156,
				"z": 0.6416536244,
				"element": "H" 
			},
			{
				"x": 3.490958379,
				"y": -2.5401401115,
				"z": -0.2792073106,
				"element": "H" 
			},
			{
				"x": 2.0326320725,
				"y": -2.473334483,
				"z": 0.7274350198,
				"element": "H" 
			},
			{
				"x": 2.2962156898,
				"y": -0.1673488572,
				"z": -2.9498528387,
				"element": "H" 
			},
			{
				"x": 3.6447083756,
				"y": -1.1940973229,
				"z": -2.4278951268,
				"element": "H" 
			},
			{
				"x": 3.2692304566,
				"y": 0.2993114705,
				"z": -1.5456089047,
				"element": "H" 
			}
		],
		 "valence_orbital": [ 
			{
				"type": "occ",
				"energy": -0.29919,
				"method": "rhf"
			},
			{
				"type": "occ",
				"energy": -0.26883,
				"method": "rhf"
			},
			{
				"type": "occ",
				"energy": -0.25539,
				"method": "rhf"
			},
			{
				"type": "occ",
				"energy": -0.23431,
				"method": "rhf"
			},
			{
				"type": "occ",
				"energy": -0.23166,
				"method": "rhf"
			},
			{
				"type": "unocc",
				"energy": -0.00493,
				"method": "rhf"
			},
			{
				"type": "unocc",
				"energy": 0.04084,
				"method": "rhf"
			},
			{
				"type": "unocc",
				"energy": 0.07087,
				"method": "rhf"
			},
			{
				"type": "unocc",
				"energy": 0.07967,
				"method": "rhf"
			},
			{
				"type": "unocc",
				"energy": 0.08867,
				"method": "rhf"
			}
		],
		"cosmo_sigma_profile": { 
			"-0.025": 0.0,
			"-0.024": 0.0,
			"-0.023": 0.0,
			"-0.022": 0.0,
			"-0.021": 0.0,
			"-0.02": 0.0,
			"-0.019": 0.0,
			"-0.018": 0.0,
			"-0.017": 0.0,
			"-0.016": 0.0,
			"-0.015": 0.146807581538,
			"-0.014": 1.03449883618,
			"-0.013": 1.06914337692,
			"-0.012": 1.19258373974,
			"-0.011": 0.760961186755,
			"-0.01": 1.06974780492,
			"-0.009": 1.60898738057,
			"-0.008": 2.6929454445,
			"-0.007": 1.91671739299,
			"-0.006": 2.06101768571,
			"-0.005": 10.046642891,
			"-0.004": 20.7064409847,
			"-0.003": 39.0010848332,
			"-0.002": 37.140738806,
			"-0.001": 29.2537490764,
			"0.0": 29.0609708125,
			"0.001": 24.7457449964,
			"0.002": 11.1806062752,
			"0.003": 7.66189295863,
			"0.004": 5.14974938373,
			"0.005": 4.64506480933,
			"0.006": 4.03726775066,
			"0.007": 4.21707507912,
			"0.008": 4.70471317769,
			"0.009": 5.44446764931,
			"0.01": 2.46751202881,
			"0.011": 2.78774827845,
			"0.012": 2.85413195168,
			"0.013": 5.68790474134,
			"0.014": 4.24321791319,
			"0.015": 0.108751094831,
			"0.016": 0.0,
			"0.017": 0.0,
			"0.018": 0.0,
			"0.019": 0.0,
			"0.02": 0.0,
			"0.021": 0.0,
			"0.022": 0.0,
			"0.023": 0.0,
			"0.024": 0.0,
			"0.025": 0.0
		}
	}
}
