{
	 "smiles": "C(NC1=CN=CC=C1)C1=NC=CC=C1", 
	 "Tm": 324.15, 
	 "num_atms": 25, 
	 "gaussian": { 
		 "optdone": 1, 
		 "sigma_profile": "yes", 
		 "theory": "DFT", 
		 "functional": "B3LYP", 
		 "basiset": "6-31G**", 
		 "properties": { 
			 "R2extent": 3457.4088, 
			 "electric_dipole_moment_norm": 3.01622324273, 
			 "electric_quadrupole_moment_norm": 14.1821711726, 
			 "total_energy": -590.042992528, 
			 "HOMO_LUMO_gap": 0.17833, 
			 "cosmo_polarized_energy": -12.43, 
			 "cosmo_cavitation_energy": 28.98, 
			 "cosmo_dispersion_energy": -21.01, 
			 "cosmo_repulsion_energy": 1.65, 
			 "cosmo_total_nonelectrostatic_energy": 9.62, 
			 "SMD_solvation_energy": 1.81 
		},
		"coords": [
			{
				"x": 0.7488305788,
				"y": -1.1713454048,
				"z": -0.9608367648,
				"element": "C" 
			},
			{
				"x": 0.0391523738,
				"y": -2.0001319062,
				"z": -0.0011257955,
				"element": "N" 
			},
			{
				"x": 0.3257486867,
				"y": -1.9542615714,
				"z": 1.3598810621,
				"element": "C" 
			},
			{
				"x": -0.1086869662,
				"y": -2.9999315865,
				"z": 2.2024870682,
				"element": "C" 
			},
			{
				"x": 0.0911704377,
				"y": -3.0380965092,
				"z": 3.5164062946,
				"element": "N" 
			},
			{
				"x": 0.7496796299,
				"y": -2.0147561868,
				"z": 4.0810369625,
				"element": "C" 
			},
			{
				"x": 1.2242722394,
				"y": -0.9316593432,
				"z": 3.3442013017,
				"element": "C" 
			},
			{
				"x": 1.0144511308,
				"y": -0.8920568242,
				"z": 1.9666089943,
				"element": "C" 
			},
			{
				"x": 0.1947801004,
				"y": 0.2405284372,
				"z": -1.1095963735,
				"element": "C" 
			},
			{
				"x": 1.0600732703,
				"y": 1.140404039,
				"z": -1.6016539275,
				"element": "N" 
			},
			{
				"x": 0.6203699062,
				"y": 2.3889840249,
				"z": -1.7974751336,
				"element": "C" 
			},
			{
				"x": -0.680746331,
				"y": 2.8041724287,
				"z": -1.5118992034,
				"element": "C" 
			},
			{
				"x": -1.5709343733,
				"y": 1.8639295787,
				"z": -0.9938219955,
				"element": "C" 
			},
			{
				"x": -1.1290429797,
				"y": 0.5582175508,
				"z": -0.7890829137,
				"element": "C" 
			},
			{
				"x": 1.8199131692,
				"y": -1.0879274638,
				"z": -0.7293022348,
				"element": "H" 
			},
			{
				"x": 0.6836462606,
				"y": -1.6661965532,
				"z": -1.9369388127,
				"element": "H" 
			},
			{
				"x": -0.216991169,
				"y": -2.9173063674,
				"z": -0.3356858319,
				"element": "H" 
			},
			{
				"x": -0.6460013383,
				"y": -3.8449161915,
				"z": 1.7673843627,
				"element": "H" 
			},
			{
				"x": 0.9000519553,
				"y": -2.068657217,
				"z": 5.1569076237,
				"element": "H" 
			},
			{
				"x": 1.7545116254,
				"y": -0.1233360844,
				"z": 3.8390650685,
				"element": "H" 
			},
			{
				"x": 1.37090531,
				"y": -0.0517814296,
				"z": 1.3809142545,
				"element": "H" 
			},
			{
				"x": 1.3475685003,
				"y": 3.0937281961,
				"z": -2.1978300518,
				"element": "H" 
			},
			{
				"x": -0.9805243868,
				"y": 3.83271314,
				"z": -1.685841727,
				"element": "H" 
			},
			{
				"x": -2.5926190996,
				"y": 2.1428682046,
				"z": -0.7513142576,
				"element": "H" 
			},
			{
				"x": -1.7801785307,
				"y": -0.2075849609,
				"z": -0.3823879693,
				"element": "H" 
			}
		],
		 "valence_orbital": [ 
			{
				"type": "occ",
				"energy": -0.27022,
				"method": "rhf"
			},
			{
				"type": "occ",
				"energy": -0.25869,
				"method": "rhf"
			},
			{
				"type": "occ",
				"energy": -0.25814,
				"method": "rhf"
			},
			{
				"type": "occ",
				"energy": -0.24387,
				"method": "rhf"
			},
			{
				"type": "occ",
				"energy": -0.207,
				"method": "rhf"
			},
			{
				"type": "unocc",
				"energy": -0.02867,
				"method": "rhf"
			},
			{
				"type": "unocc",
				"energy": -0.01375,
				"method": "rhf"
			},
			{
				"type": "unocc",
				"energy": -0.01106,
				"method": "rhf"
			},
			{
				"type": "unocc",
				"energy": 0.01051,
				"method": "rhf"
			},
			{
				"type": "unocc",
				"energy": 0.07487,
				"method": "rhf"
			}
		],
		"cosmo_sigma_profile": { 
			"-0.025": 0.0,
			"-0.024": 0.0,
			"-0.023": 0.0,
			"-0.022": 0.0,
			"-0.021": 0.0,
			"-0.02": 0.0,
			"-0.019": 0.0,
			"-0.018": 0.0,
			"-0.017": 0.0,
			"-0.016": 0.0,
			"-0.015": 0.0,
			"-0.014": 0.09393376379,
			"-0.013": 1.51365936966,
			"-0.012": 1.32887470551,
			"-0.011": 1.80510717538,
			"-0.01": 1.61992153777,
			"-0.009": 2.1294209083,
			"-0.008": 1.42924225964,
			"-0.007": 5.74585809032,
			"-0.006": 13.9326905257,
			"-0.005": 18.0348666599,
			"-0.004": 18.8909098987,
			"-0.003": 16.4420487903,
			"-0.002": 15.7068417703,
			"-0.001": 13.5506161333,
			"0.0": 12.9025058631,
			"0.001": 14.5477787653,
			"0.002": 20.3331531908,
			"0.003": 24.164655769,
			"0.004": 15.7789051759,
			"0.005": 6.760898224,
			"0.006": 3.86741332672,
			"0.007": 2.24734995366,
			"0.008": 3.05551095789,
			"0.009": 3.02865990753,
			"0.01": 1.7124912125,
			"0.011": 1.3711862531,
			"0.012": 2.06693185562,
			"0.013": 1.93289906796,
			"0.014": 1.86931996843,
			"0.015": 1.5411323621,
			"0.016": 1.43996658361,
			"0.017": 0.806774058542,
			"0.018": 0.129300543726,
			"0.019": 0.0,
			"0.02": 0.0,
			"0.021": 0.0,
			"0.022": 0.0,
			"0.023": 0.0,
			"0.024": 0.0,
			"0.025": 0.0
		}
	}
}
