{
	 "smiles": "CC(C)C1=NC(C)=C(S1)C(O)=O", 
	 "Tm": 443.15, 
	 "num_atms": 23, 
	 "gaussian": { 
		 "optdone": 1, 
		 "sigma_profile": "yes", 
		 "theory": "DFT", 
		 "functional": "B3LYP", 
		 "basiset": "6-31G**", 
		 "properties": { 
			 "R2extent": 3171.3871, 
			 "electric_dipole_moment_norm": 4.88124942817, 
			 "electric_quadrupole_moment_norm": 16.0626644726, 
			 "total_energy": -914.886159354, 
			 "HOMO_LUMO_gap": 0.18652, 
			 "cosmo_polarized_energy": -12.88, 
			 "cosmo_cavitation_energy": 27.97, 
			 "cosmo_dispersion_energy": -20.61, 
			 "cosmo_repulsion_energy": 1.62, 
			 "cosmo_total_nonelectrostatic_energy": 8.98, 
			 "SMD_solvation_energy": 4.27 
		},
		"coords": [
			{
				"x": 1.1154141769,
				"y": 0.0791438852,
				"z": 2.6097419405,
				"element": "C" 
			},
			{
				"x": -0.0648301334,
				"y": 0.7061243668,
				"z": 1.8436125214,
				"element": "C" 
			},
			{
				"x": -1.3728212703,
				"y": -0.0703700738,
				"z": 2.0869240702,
				"element": "C" 
			},
			{
				"x": 0.2352706794,
				"y": 0.8549430127,
				"z": 0.3730969752,
				"element": "C" 
			},
			{
				"x": 0.2985150518,
				"y": 1.9984519738,
				"z": -0.2494219166,
				"element": "N" 
			},
			{
				"x": 0.5878804465,
				"y": 1.8657622436,
				"z": -1.5884705716,
				"element": "C" 
			},
			{
				"x": 0.6922917184,
				"y": 3.1014646933,
				"z": -2.4317112136,
				"element": "C" 
			},
			{
				"x": 0.7552735758,
				"y": 0.5622336026,
				"z": -2.0184545907,
				"element": "C" 
			},
			{
				"x": 0.5358585599,
				"y": -0.5331198492,
				"z": -0.668711146,
				"element": "S" 
			},
			{
				"x": 1.0702700568,
				"y": 0.1427036177,
				"z": -3.3981216543,
				"element": "C" 
			},
			{
				"x": 1.1991129352,
				"y": -1.1897442666,
				"z": -3.642825592,
				"element": "O" 
			},
			{
				"x": 1.215820138,
				"y": 0.9318163407,
				"z": -4.305912485,
				"element": "O" 
			},
			{
				"x": 1.2939696062,
				"y": -0.9535187578,
				"z": 2.2902764371,
				"element": "H" 
			},
			{
				"x": 0.9003501945,
				"y": 0.0637005969,
				"z": 3.6828465619,
				"element": "H" 
			},
			{
				"x": 2.0373319837,
				"y": 0.646620019,
				"z": 2.4537185011,
				"element": "H" 
			},
			{
				"x": -0.1999381301,
				"y": 1.7359331189,
				"z": 2.1923202017,
				"element": "H" 
			},
			{
				"x": -1.2883322922,
				"y": -1.1088580857,
				"z": 1.7481907003,
				"element": "H" 
			},
			{
				"x": -2.2131168345,
				"y": 0.3908716579,
				"z": 1.560173943,
				"element": "H" 
			},
			{
				"x": -1.606269055,
				"y": -0.0864397653,
				"z": 3.1561684188,
				"element": "H" 
			},
			{
				"x": -0.0274563305,
				"y": 3.0773599163,
				"z": -3.2545780746,
				"element": "H" 
			},
			{
				"x": 0.5093791829,
				"y": 3.9768443126,
				"z": -1.8066491385,
				"element": "H" 
			},
			{
				"x": 1.67941152,
				"y": 3.177805031,
				"z": -2.8958975844,
				"element": "H" 
			},
			{
				"x": 1.06111422,
				"y": -1.7192275907,
				"z": -2.844716304,
				"element": "H" 
			}
		],
		 "valence_orbital": [ 
			{
				"type": "occ",
				"energy": -0.3174,
				"method": "rhf"
			},
			{
				"type": "occ",
				"energy": -0.2969,
				"method": "rhf"
			},
			{
				"type": "occ",
				"energy": -0.28464,
				"method": "rhf"
			},
			{
				"type": "occ",
				"energy": -0.27555,
				"method": "rhf"
			},
			{
				"type": "occ",
				"energy": -0.25014,
				"method": "rhf"
			},
			{
				"type": "unocc",
				"energy": -0.06362,
				"method": "rhf"
			},
			{
				"type": "unocc",
				"energy": -0.01354,
				"method": "rhf"
			},
			{
				"type": "unocc",
				"energy": 0.01363,
				"method": "rhf"
			},
			{
				"type": "unocc",
				"energy": 0.05153,
				"method": "rhf"
			},
			{
				"type": "unocc",
				"energy": 0.08285,
				"method": "rhf"
			}
		],
		"cosmo_sigma_profile": { 
			"-0.025": 0.0,
			"-0.024": 0.0,
			"-0.023": 0.0,
			"-0.022": 0.0,
			"-0.021": 0.0,
			"-0.02": 0.0,
			"-0.019": 0.0182656501701,
			"-0.018": 0.413624429853,
			"-0.017": 0.560429501444,
			"-0.016": 1.14047830841,
			"-0.015": 0.738924119941,
			"-0.014": 0.488284165705,
			"-0.013": 1.24195471054,
			"-0.012": 1.08952426,
			"-0.011": 1.49006985526,
			"-0.01": 0.958809899541,
			"-0.009": 0.771228197826,
			"-0.008": 0.774716275978,
			"-0.007": 1.59820032244,
			"-0.006": 2.12175325431,
			"-0.005": 6.47246431273,
			"-0.004": 19.4305299964,
			"-0.003": 23.9463191955,
			"-0.002": 26.0508583432,
			"-0.001": 30.6524708781,
			"0.0": 33.2088253717,
			"0.001": 14.5763653919,
			"0.002": 7.32977796488,
			"0.003": 5.2953360467,
			"0.004": 4.27873975903,
			"0.005": 4.03607511215,
			"0.006": 3.86456662318,
			"0.007": 3.36198841842,
			"0.008": 3.90583447728,
			"0.009": 4.36220292381,
			"0.01": 5.32246981121,
			"0.011": 5.34062154248,
			"0.012": 4.53651102967,
			"0.013": 2.475675416,
			"0.014": 0.580914295434,
			"0.015": 0.0431013537821,
			"0.016": 0.0,
			"0.017": 0.0,
			"0.018": 0.0,
			"0.019": 0.0,
			"0.02": 0.0,
			"0.021": 0.0,
			"0.022": 0.0,
			"0.023": 0.0,
			"0.024": 0.0,
			"0.025": 0.0
		}
	}
}
