{
	 "smiles": "OC(=O)CONS(=O)(=O)C1=CC=C(F)C=C1", 
	 "Tm": 442.15, 
	 "num_atms": 24, 
	 "gaussian": { 
		 "optdone": 1, 
		 "sigma_profile": "yes", 
		 "theory": "DFT", 
		 "functional": "B3LYP", 
		 "basiset": "6-31G**", 
		 "properties": { 
			 "R2extent": 4265.9416, 
			 "electric_dipole_moment_norm": 3.42889985856, 
			 "electric_quadrupole_moment_norm": 26.1364313962, 
			 "total_energy": -1238.41936778, 
			 "HOMO_LUMO_gap": 0.22438, 
			 "cosmo_polarized_energy": -25.33, 
			 "cosmo_cavitation_energy": 30.62, 
			 "cosmo_dispersion_energy": -22.39, 
			 "cosmo_repulsion_energy": 1.66, 
			 "cosmo_total_nonelectrostatic_energy": 9.89, 
			 "SMD_solvation_energy": 6.82 
		},
		"coords": [
			{
				"x": 3.99468074,
				"y": -1.8680800972,
				"z": 0.3018161763,
				"element": "O" 
			},
			{
				"x": 2.7706388701,
				"y": -1.5216167088,
				"z": 0.767481389,
				"element": "C" 
			},
			{
				"x": 1.8508806262,
				"y": -2.2936167741,
				"z": 0.7173166259,
				"element": "O" 
			},
			{
				"x": 2.7136133972,
				"y": -0.1346592376,
				"z": 1.4149371702,
				"element": "C" 
			},
			{
				"x": 1.3771457855,
				"y": 0.2021877769,
				"z": 1.800276688,
				"element": "O" 
			},
			{
				"x": 0.8232820593,
				"y": 1.3443714221,
				"z": 1.1997986598,
				"element": "N" 
			},
			{
				"x": 0.4293405977,
				"y": 1.1645179241,
				"z": -0.4877322887,
				"element": "S" 
			},
			{
				"x": 0.1890256842,
				"y": 2.5502745981,
				"z": -0.9016062802,
				"element": "O" 
			},
			{
				"x": 1.4427063681,
				"y": 0.3363829456,
				"z": -1.1548842125,
				"element": "O" 
			},
			{
				"x": -1.1104376871,
				"y": 0.2733756501,
				"z": -0.4290558291,
				"element": "C" 
			},
			{
				"x": -1.1037631339,
				"y": -1.1072784703,
				"z": -0.2031047756,
				"element": "C" 
			},
			{
				"x": -2.3205619878,
				"y": -1.7837515101,
				"z": -0.1659593163,
				"element": "C" 
			},
			{
				"x": -3.4975412886,
				"y": -1.066202356,
				"z": -0.362147573,
				"element": "C" 
			},
			{
				"x": -4.6690403078,
				"y": -1.7244417955,
				"z": -0.3313877284,
				"element": "F" 
			},
			{
				"x": -3.5094943443,
				"y": 0.3071957286,
				"z": -0.5908269638,
				"element": "C" 
			},
			{
				"x": -2.2956946066,
				"y": 0.988486339,
				"z": -0.6202487822,
				"element": "C" 
			},
			{
				"x": 4.6135931654,
				"y": -1.1246490029,
				"z": 0.349610363,
				"element": "H" 
			},
			{
				"x": 3.321415971,
				"y": -0.1576100831,
				"z": 2.3305545578,
				"element": "H" 
			},
			{
				"x": 3.1320031522,
				"y": 0.6097979787,
				"z": 0.7307495008,
				"element": "H" 
			},
			{
				"x": 1.4681876213,
				"y": 2.1392729754,
				"z": 1.2642103585,
				"element": "H" 
			},
			{
				"x": -0.1724863547,
				"y": -1.6413458282,
				"z": -0.0469710244,
				"element": "H" 
			},
			{
				"x": -2.3664685813,
				"y": -2.8525853137,
				"z": 0.0097762677,
				"element": "H" 
			},
			{
				"x": -4.4533627786,
				"y": 0.8187417238,
				"z": -0.7418458142,
				"element": "H" 
			},
			{
				"x": -2.2588629675,
				"y": 2.057232115,
				"z": -0.7978571687,
				"element": "H" 
			}
		],
		 "valence_orbital": [ 
			{
				"type": "occ",
				"energy": -0.31007,
				"method": "rhf"
			},
			{
				"type": "occ",
				"energy": -0.29437,
				"method": "rhf"
			},
			{
				"type": "occ",
				"energy": -0.28017,
				"method": "rhf"
			},
			{
				"type": "occ",
				"energy": -0.27804,
				"method": "rhf"
			},
			{
				"type": "occ",
				"energy": -0.26502,
				"method": "rhf"
			},
			{
				"type": "unocc",
				"energy": -0.04064,
				"method": "rhf"
			},
			{
				"type": "unocc",
				"energy": -0.02798,
				"method": "rhf"
			},
			{
				"type": "unocc",
				"energy": -0.00579,
				"method": "rhf"
			},
			{
				"type": "unocc",
				"energy": 0.02638,
				"method": "rhf"
			},
			{
				"type": "unocc",
				"energy": 0.04025,
				"method": "rhf"
			}
		],
		"cosmo_sigma_profile": { 
			"-0.025": 0.0,
			"-0.024": 0.0,
			"-0.023": 0.0,
			"-0.022": 0.0,
			"-0.021": 0.232420927099,
			"-0.02": 1.14790414132,
			"-0.019": 1.34241757531,
			"-0.018": 1.52731097331,
			"-0.017": 1.19419307765,
			"-0.016": 2.6524000328,
			"-0.015": 3.26473889009,
			"-0.014": 1.94885777571,
			"-0.013": 1.5716611104,
			"-0.012": 3.14244976028,
			"-0.011": 2.47975540217,
			"-0.01": 3.35912771597,
			"-0.009": 5.88054769432,
			"-0.008": 9.51605851639,
			"-0.007": 8.30478851784,
			"-0.006": 8.30731711452,
			"-0.005": 6.45420869754,
			"-0.004": 7.81083005865,
			"-0.003": 7.37978434476,
			"-0.002": 10.0537129005,
			"-0.001": 16.0131471235,
			"0.0": 17.0488379059,
			"0.001": 17.9887334034,
			"0.002": 12.3817652441,
			"0.003": 13.8253654996,
			"0.004": 13.2717919213,
			"0.005": 6.72315394924,
			"0.006": 8.68572944046,
			"0.007": 7.89672111827,
			"0.008": 8.52614600672,
			"0.009": 13.4008722697,
			"0.01": 14.6820190253,
			"0.011": 5.54057244584,
			"0.012": 1.47309119126,
			"0.013": 0.14159936274,
			"0.014": 0.0,
			"0.015": 0.0,
			"0.016": 0.0,
			"0.017": 0.0,
			"0.018": 0.0,
			"0.019": 0.0,
			"0.02": 0.0,
			"0.021": 0.0,
			"0.022": 0.0,
			"0.023": 0.0,
			"0.024": 0.0,
			"0.025": 0.0
		}
	}
}
