{
	 "smiles": "OC(=O)C1=CC=C(C=C1)S(=O)(=O)N1CCCCCC1", 
	 "Tm": 509.15, 
	 "num_atms": 36, 
	 "gaussian": { 
		 "optdone": 1, 
		 "sigma_profile": "yes", 
		 "theory": "DFT", 
		 "functional": "B3LYP", 
		 "basiset": "6-31G**", 
		 "properties": { 
			 "R2extent": 7721.2143, 
			 "electric_dipole_moment_norm": 5.36399032251, 
			 "electric_quadrupole_moment_norm": 30.1590800466, 
			 "total_energy": -1259.40416056, 
			 "HOMO_LUMO_gap": 0.17389, 
			 "cosmo_polarized_energy": -21.4, 
			 "cosmo_cavitation_energy": 38.59, 
			 "cosmo_dispersion_energy": -27.87, 
			 "cosmo_repulsion_energy": 2.08, 
			 "cosmo_total_nonelectrostatic_energy": 12.8, 
			 "SMD_solvation_energy": 5.75 
		},
		"coords": [
			{
				"x": -4.990045076,
				"y": 1.0938412967,
				"z": 4.2725995357,
				"element": "O" 
			},
			{
				"x": -5.1617792201,
				"y": 1.0167920118,
				"z": 2.9271905252,
				"element": "C" 
			},
			{
				"x": -6.2706972504,
				"y": 0.9012750173,
				"z": 2.4628829634,
				"element": "O" 
			},
			{
				"x": -3.9227414302,
				"y": 1.0799333354,
				"z": 2.0795832754,
				"element": "C" 
			},
			{
				"x": -2.7161601194,
				"y": 1.6307395949,
				"z": 2.5303942505,
				"element": "C" 
			},
			{
				"x": -1.6022195879,
				"y": 1.6748807122,
				"z": 1.6910956304,
				"element": "C" 
			},
			{
				"x": -1.7041825808,
				"y": 1.1560487128,
				"z": 0.4008939278,
				"element": "C" 
			},
			{
				"x": -2.9087265055,
				"y": 0.6274832843,
				"z": -0.0750022218,
				"element": "C" 
			},
			{
				"x": -4.0153612053,
				"y": 0.5981081374,
				"z": 0.7647959948,
				"element": "C" 
			},
			{
				"x": -0.26739713,
				"y": 1.1961056905,
				"z": -0.6887207038,
				"element": "S" 
			},
			{
				"x": 0.716004535,
				"y": 2.0709791958,
				"z": -0.0370129774,
				"element": "O" 
			},
			{
				"x": -0.7464867592,
				"y": 1.4595608791,
				"z": -2.0490111467,
				"element": "O" 
			},
			{
				"x": 0.2699796063,
				"y": -0.3828052323,
				"z": -0.6766125774,
				"element": "N" 
			},
			{
				"x": 1.037170222,
				"y": -0.8677652173,
				"z": 0.4828038897,
				"element": "C" 
			},
			{
				"x": 2.5527259525,
				"y": -0.6369460113,
				"z": 0.4295054971,
				"element": "C" 
			},
			{
				"x": 3.2506846897,
				"y": -1.1296455753,
				"z": -0.8504357861,
				"element": "C" 
			},
			{
				"x": 2.8829332019,
				"y": -0.3163458931,
				"z": -2.1080008543,
				"element": "C" 
			},
			{
				"x": 1.5943239325,
				"y": -0.734975447,
				"z": -2.8427625246,
				"element": "C" 
			},
			{
				"x": 0.4004232507,
				"y": -1.1182149192,
				"z": -1.9462411046,
				"element": "C" 
			},
			{
				"x": -4.0527564963,
				"y": 1.0215809684,
				"z": 4.4994175415,
				"element": "H" 
			},
			{
				"x": -2.6393219148,
				"y": 2.0737012988,
				"z": 3.5203093077,
				"element": "H" 
			},
			{
				"x": -0.6711377681,
				"y": 2.1263300201,
				"z": 2.0145645132,
				"element": "H" 
			},
			{
				"x": -2.9762064259,
				"y": 0.2649384507,
				"z": -1.0949080937,
				"element": "H" 
			},
			{
				"x": -4.9685661911,
				"y": 0.2097819397,
				"z": 0.4232737595,
				"element": "H" 
			},
			{
				"x": 0.8222324536,
				"y": -1.9415762981,
				"z": 0.5567355391,
				"element": "H" 
			},
			{
				"x": 0.6229555561,
				"y": -0.4076110075,
				"z": 1.3857747568,
				"element": "H" 
			},
			{
				"x": 2.7472827663,
				"y": 0.4343540771,
				"z": 0.5493529877,
				"element": "H" 
			},
			{
				"x": 2.987384525,
				"y": -1.1406927518,
				"z": 1.303596611,
				"element": "H" 
			},
			{
				"x": 4.332000554,
				"y": -1.0499842936,
				"z": -0.6874513193,
				"element": "H" 
			},
			{
				"x": 3.0516234361,
				"y": -2.1996496875,
				"z": -1.0097232967,
				"element": "H" 
			},
			{
				"x": 3.7065239702,
				"y": -0.370191275,
				"z": -2.8296534535,
				"element": "H" 
			},
			{
				"x": 2.8062551195,
				"y": 0.7393554624,
				"z": -1.8209547526,
				"element": "H" 
			},
			{
				"x": 1.7976765177,
				"y": -1.6005306302,
				"z": -3.4874165849,
				"element": "H" 
			},
			{
				"x": 1.2916110109,
				"y": 0.0825174926,
				"z": -3.5048166799,
				"element": "H" 
			},
			{
				"x": -0.529182753,
				"y": -1.0098866362,
				"z": -2.5096639553,
				"element": "H" 
			},
			{
				"x": 0.473477114,
				"y": -2.1696867025,
				"z": -1.6475824735,
				"element": "H" 
			}
		],
		 "valence_orbital": [ 
			{
				"type": "occ",
				"energy": -0.30719,
				"method": "rhf"
			},
			{
				"type": "occ",
				"energy": -0.29341,
				"method": "rhf"
			},
			{
				"type": "occ",
				"energy": -0.28806,
				"method": "rhf"
			},
			{
				"type": "occ",
				"energy": -0.28089,
				"method": "rhf"
			},
			{
				"type": "occ",
				"energy": -0.24818,
				"method": "rhf"
			},
			{
				"type": "unocc",
				"energy": -0.07429,
				"method": "rhf"
			},
			{
				"type": "unocc",
				"energy": -0.03826,
				"method": "rhf"
			},
			{
				"type": "unocc",
				"energy": 0.02167,
				"method": "rhf"
			},
			{
				"type": "unocc",
				"energy": 0.04342,
				"method": "rhf"
			},
			{
				"type": "unocc",
				"energy": 0.06425,
				"method": "rhf"
			}
		],
		"cosmo_sigma_profile": { 
			"-0.025": 0.0,
			"-0.024": 0.0,
			"-0.023": 0.0,
			"-0.022": 0.0,
			"-0.021": 0.0,
			"-0.02": 0.0,
			"-0.019": 0.67784894259,
			"-0.018": 0.942156625809,
			"-0.017": 1.40146200224,
			"-0.016": 0.837248618146,
			"-0.015": 0.940768409387,
			"-0.014": 0.751396792575,
			"-0.013": 1.30407468157,
			"-0.012": 1.14956712714,
			"-0.011": 1.54103659512,
			"-0.01": 1.01414726361,
			"-0.009": 1.85176975711,
			"-0.008": 3.88116727631,
			"-0.007": 7.46413189758,
			"-0.006": 8.50892869583,
			"-0.005": 14.9342435607,
			"-0.004": 18.0568848018,
			"-0.003": 28.2478349979,
			"-0.002": 31.4285694995,
			"-0.001": 34.07322048,
			"0.0": 32.314917268,
			"0.001": 28.2429120462,
			"0.002": 10.7835928269,
			"0.003": 8.0879006346,
			"0.004": 5.59431844519,
			"0.005": 6.0870452846,
			"0.006": 5.49923946534,
			"0.007": 5.53476261919,
			"0.008": 6.34887462344,
			"0.009": 7.27103011999,
			"0.01": 11.2042963225,
			"0.011": 11.5768571229,
			"0.012": 5.52412732242,
			"0.013": 0.667944803816,
			"0.014": 0.0,
			"0.015": 0.0,
			"0.016": 0.0,
			"0.017": 0.0,
			"0.018": 0.0,
			"0.019": 0.0,
			"0.02": 0.0,
			"0.021": 0.0,
			"0.022": 0.0,
			"0.023": 0.0,
			"0.024": 0.0,
			"0.0": 0.0
		}
	}
}
