{
	 "smiles": "OC(=O)C1=CC=C(S1)C1=CC2=C(OCCO2)C=C1", 
	 "Tm": 478.15, 
	 "num_atms": 28, 
	 "gaussian": { 
		 "optdone": 1, 
		 "sigma_profile": "yes", 
		 "theory": "DFT", 
		 "functional": "B3LYP", 
		 "basiset": "6-31G**", 
		 "properties": { 
			 "R2extent": 8537.9656, 
			 "electric_dipole_moment_norm": 7.73013956795, 
			 "electric_quadrupole_moment_norm": 35.6043442835, 
			 "total_energy": -1200.47353046, 
			 "HOMO_LUMO_gap": 0.14727, 
			 "cosmo_polarized_energy": -17.3, 
			 "cosmo_cavitation_energy": 34.09, 
			 "cosmo_dispersion_energy": -25.97, 
			 "cosmo_repulsion_energy": 1.93, 
			 "cosmo_total_nonelectrostatic_energy": 10.05, 
			 "SMD_solvation_energy": 6.87 
		},
		"coords": [
			{
				"x": 5.8752807368,
				"y": -1.1234104411,
				"z": -3.4309783526,
				"element": "O" 
			},
			{
				"x": 5.1570399857,
				"y": -2.2168450252,
				"z": -3.0526030517,
				"element": "C" 
			},
			{
				"x": 5.5352951282,
				"y": -3.3241224511,
				"z": -3.3602528262,
				"element": "O" 
			},
			{
				"x": 3.9272394536,
				"y": -1.9875644695,
				"z": -2.2654750438,
				"element": "C" 
			},
			{
				"x": 3.0051925114,
				"y": -2.9608738068,
				"z": -1.958296501,
				"element": "C" 
			},
			{
				"x": 1.9053284089,
				"y": -2.4785058818,
				"z": -1.2097199029,
				"element": "C" 
			},
			{
				"x": 1.9711941539,
				"y": -1.1277481065,
				"z": -0.9262747805,
				"element": "C" 
			},
			{
				"x": 3.4424816374,
				"y": -0.4479085231,
				"z": -1.5874759384,
				"element": "S" 
			},
			{
				"x": 1.0233110773,
				"y": -0.3043672895,
				"z": -0.1701749458,
				"element": "C" 
			},
			{
				"x": 0.8975509493,
				"y": 1.0728745593,
				"z": -0.4126410101,
				"element": "C" 
			},
			{
				"x": -0.006688899,
				"y": 1.8470102301,
				"z": 0.3084334642,
				"element": "C" 
			},
			{
				"x": -0.8089714661,
				"y": 1.2512321753,
				"z": 1.2986003913,
				"element": "C" 
			},
			{
				"x": -1.7017249835,
				"y": 1.9759894299,
				"z": 2.0422130075,
				"element": "O" 
			},
			{
				"x": -1.5075017931,
				"y": 3.3904419466,
				"z": 1.9682260584,
				"element": "C" 
			},
			{
				"x": -1.2708348381,
				"y": 3.8119190685,
				"z": 0.5273948511,
				"element": "C" 
			},
			{
				"x": -0.0916359983,
				"y": 3.1855802032,
				"z": 0.0191348956,
				"element": "O" 
			},
			{
				"x": -0.7002524578,
				"y": -0.1205277341,
				"z": 1.5352240441,
				"element": "C" 
			},
			{
				"x": 0.2036377867,
				"y": -0.890828845,
				"z": 0.8140308947,
				"element": "C" 
			},
			{
				"x": 5.4048912852,
				"y": -0.3021932891,
				"z": -3.2275709133,
				"element": "H" 
			},
			{
				"x": 3.1310785816,
				"y": -3.9844367987,
				"z": -2.2898586586,
				"element": "H" 
			},
			{
				"x": 1.0669193302,
				"y": -3.0960211732,
				"z": -0.9097349299,
				"element": "H" 
			},
			{
				"x": 1.4786685789,
				"y": 1.5643446582,
				"z": -1.1863608827,
				"element": "H" 
			},
			{
				"x": -0.6494264877,
				"y": 3.6799853713,
				"z": 2.5894982625,
				"element": "H" 
			},
			{
				"x": -2.4128177628,
				"y": 3.8483719351,
				"z": 2.3739684497,
				"element": "H" 
			},
			{
				"x": -2.1357853393,
				"y": 3.5362905701,
				"z": -0.0910234193,
				"element": "H" 
			},
			{
				"x": -1.1065751967,
				"y": 4.8894355528,
				"z": 0.4507484761,
				"element": "H" 
			},
			{
				"x": -1.3231597594,
				"y": -0.5595495548,
				"z": 2.3076698359,
				"element": "H" 
			},
			{
				"x": 0.3002653768,
				"y": -1.9477723109,
				"z": 1.0370985257,
				"element": "H" 
			}
		],
		 "valence_orbital": [ 
			{
				"type": "occ",
				"energy": -0.2727,
				"method": "rhf"
			},
			{
				"type": "occ",
				"energy": -0.26856,
				"method": "rhf"
			},
			{
				"type": "occ",
				"energy": -0.26531,
				"method": "rhf"
			},
			{
				"type": "occ",
				"energy": -0.24314,
				"method": "rhf"
			},
			{
				"type": "occ",
				"energy": -0.21327,
				"method": "rhf"
			},
			{
				"type": "unocc",
				"energy": -0.066,
				"method": "rhf"
			},
			{
				"type": "unocc",
				"energy": -0.0154,
				"method": "rhf"
			},
			{
				"type": "unocc",
				"energy": -0.00513,
				"method": "rhf"
			},
			{
				"type": "unocc",
				"energy": 0.00453,
				"method": "rhf"
			},
			{
				"type": "unocc",
				"energy": 0.04556,
				"method": "rhf"
			}
		],
		"cosmo_sigma_profile": { 
			"-0.025": 0.0,
			"-0.024": 0.0,
			"-0.023": 0.0,
			"-0.022": 0.0,
			"-0.021": 0.0,
			"-0.02": 0.0,
			"-0.019": 0.0,
			"-0.018": 0.284218492731,
			"-0.017": 0.617104490968,
			"-0.016": 1.23762785376,
			"-0.015": 1.1113473444,
			"-0.014": 0.476808409826,
			"-0.013": 0.742983357417,
			"-0.012": 1.39252230315,
			"-0.011": 1.09631285702,
			"-0.01": 0.391124960127,
			"-0.009": 0.822528116206,
			"-0.008": 3.22147881507,
			"-0.007": 15.0131044669,
			"-0.006": 21.5835550041,
			"-0.005": 20.1403724367,
			"-0.004": 17.1781414428,
			"-0.003": 14.2879448948,
			"-0.002": 12.5325798437,
			"-0.001": 13.702902433,
			"0.0": 16.1729811211,
			"0.001": 20.2633517095,
			"0.002": 27.1246755842,
			"0.003": 25.927453237,
			"0.004": 13.151313035,
			"0.005": 5.29394889544,
			"0.006": 5.81381294357,
			"0.007": 4.06966687609,
			"0.008": 5.7855480186,
			"0.009": 6.24886161267,
			"0.01": 6.56826878342,
			"0.011": 5.56041983495,
			"0.012": 5.44965488291,
			"0.013": 1.76573522266,
			"0.014": 0.0558488713234,
			"0.015": 0.0,
			"0.016": 0.0,
			"0.017": 0.0,
			"0.018": 0.0,
			"0.019": 0.0,
			"0.02": 0.0,
			"0.021": 0.0,
			"0.022": 0.0,
			"0.023": 0.0,
			"0.024": 0.0,
			"0.025": 0.0
		}
	}
}
