{
	 "smiles": "COC1=C(CBr)C=C(Cl)C=C1", 
	 "Tm": 351.15, 
	 "num_atms": 19, 
	 "gaussian": { 
		 "optdone": 1, 
		 "sigma_profile": "yes", 
		 "theory": "DFT", 
		 "functional": "B3LYP", 
		 "basiset": "6-31G**", 
		 "properties": { 
			 "R2extent": 4239.7716, 
			 "electric_dipole_moment_norm": 3.64007713242, 
			 "electric_quadrupole_moment_norm": 11.1869657008, 
			 "total_energy": -3416.48748251, 
			 "HOMO_LUMO_gap": 0.18448, 
			 "cosmo_polarized_energy": -8.51, 
			 "cosmo_cavitation_energy": 26.99, 
			 "cosmo_dispersion_energy": -19.93, 
			 "cosmo_repulsion_energy": 1.63, 
			 "cosmo_total_nonelectrostatic_energy": 8.69, 
			 "SMD_solvation_energy": 3.88 
		},
		"coords": [
			{
				"x": 2.6028211602,
				"y": -0.6578269425,
				"z": 0.1461255076,
				"element": "C" 
			},
			{
				"x": 1.2875277787,
				"y": -0.6656030661,
				"z": 0.6831220966,
				"element": "O" 
			},
			{
				"x": 0.2370917795,
				"y": -0.4608956186,
				"z": -0.156491777,
				"element": "C" 
			},
			{
				"x": -1.0423608236,
				"y": -0.5090901594,
				"z": 0.4423195076,
				"element": "C" 
			},
			{
				"x": -1.1801656117,
				"y": -0.7659210321,
				"z": 1.90351757,
				"element": "C" 
			},
			{
				"x": -1.1535348146,
				"y": -2.7280359086,
				"z": 2.3371133084,
				"element": "Br" 
			},
			{
				"x": -2.1711770382,
				"y": -0.3060114542,
				"z": -0.3539638364,
				"element": "C" 
			},
			{
				"x": -2.0378336084,
				"y": -0.0541954168,
				"z": -1.7183292351,
				"element": "C" 
			},
			{
				"x": -3.474797552,
				"y": 0.2052205297,
				"z": -2.6981261341,
				"element": "Cl" 
			},
			{
				"x": -0.7793861927,
				"y": -0.005231933,
				"z": -2.3090745134,
				"element": "C" 
			},
			{
				"x": 0.3594246241,
				"y": -0.2075692056,
				"z": -1.5263775341,
				"element": "C" 
			},
			{
				"x": 3.2695430446,
				"y": -0.8564278682,
				"z": 0.9859365684,
				"element": "H" 
			},
			{
				"x": 2.7308782927,
				"y": -1.4412773778,
				"z": -0.6106589207,
				"element": "H" 
			},
			{
				"x": 2.8530838169,
				"y": 0.3159356188,
				"z": -0.2934325137,
				"element": "H" 
			},
			{
				"x": -0.3522685177,
				"y": -0.3609620282,
				"z": 2.4791491422,
				"element": "H" 
			},
			{
				"x": -2.1329928019,
				"y": -0.4175913051,
				"z": 2.2958616874,
				"element": "H" 
			},
			{
				"x": -3.1585007858,
				"y": -0.3480796575,
				"z": 0.0941923542,
				"element": "H" 
			},
			{
				"x": -0.6827963255,
				"y": 0.1908567357,
				"z": -3.3711638272,
				"element": "H" 
			},
			{
				"x": 1.3337435752,
				"y": -0.1655939106,
				"z": -1.9975194506,
				"element": "H" 
			}
		],
		 "valence_orbital": [ 
			{
				"type": "occ",
				"energy": -0.31006,
				"method": "rhf"
			},
			{
				"type": "occ",
				"energy": -0.2734,
				"method": "rhf"
			},
			{
				"type": "occ",
				"energy": -0.26546,
				"method": "rhf"
			},
			{
				"type": "occ",
				"energy": -0.26067,
				"method": "rhf"
			},
			{
				"type": "occ",
				"energy": -0.22725,
				"method": "rhf"
			},
			{
				"type": "unocc",
				"energy": -0.04277,
				"method": "rhf"
			},
			{
				"type": "unocc",
				"energy": -0.00786,
				"method": "rhf"
			},
			{
				"type": "unocc",
				"energy": 0.02371,
				"method": "rhf"
			},
			{
				"type": "unocc",
				"energy": 0.02955,
				"method": "rhf"
			},
			{
				"type": "unocc",
				"energy": 0.08964,
				"method": "rhf"
			}
		],
		"cosmo_sigma_profile": { 
			"-0.025": 0.0,
			"-0.024": 0.0,
			"-0.023": 0.0,
			"-0.022": 0.0,
			"-0.021": 0.0,
			"-0.02": 0.0,
			"-0.019": 0.0,
			"-0.018": 0.0,
			"-0.017": 0.0,
			"-0.016": 0.0,
			"-0.015": 0.0,
			"-0.014": 0.0,
			"-0.013": 0.0,
			"-0.012": 0.0,
			"-0.011": 0.0,
			"-0.01": 0.0,
			"-0.009": 0.724360448921,
			"-0.008": 4.30311866543,
			"-0.007": 9.52265897354,
			"-0.006": 15.413237219,
			"-0.005": 14.7616151123,
			"-0.004": 16.344283262,
			"-0.003": 13.8304711848,
			"-0.002": 10.0779918528,
			"-0.001": 12.1029637179,
			"0.0": 12.0215521277,
			"0.001": 14.3511068501,
			"0.002": 20.421257193,
			"0.003": 21.884506707,
			"0.004": 17.3623604793,
			"0.005": 15.8838450416,
			"0.006": 12.7970706897,
			"0.007": 6.98774951193,
			"0.008": 1.9847633845,
			"0.009": 0.0484364665438,
			"0.01": 0.0,
			"0.011": 0.0,
			"0.012": 0.0,
			"0.013": 0.0,
			"0.014": 0.0,
			"0.015": 0.0,
			"0.016": 0.0,
			"0.017": 0.0,
			"0.018": 0.0,
			"0.019": 0.0,
			"0.02": 0.0,
			"0.021": 0.0,
			"0.022": 0.0,
			"0.023": 0.0,
			"0.024": 0.0,
			"0.025": 0.0
		}
	}
}
