{
	 "smiles": "COCC(C)NS(=O)(=O)C1=CC(=C(Cl)C=C1)[N+]([O-])=O", 
	 "Tm": 483.15, 
	 "num_atms": 32, 
	 "gaussian": { 
		 "optdone": 1, 
		 "sigma_profile": "yes", 
		 "theory": "DFT", 
		 "functional": "B3LYP", 
		 "basiset": "6-31G**", 
		 "properties": { 
			 "R2extent": 8845.2759, 
			 "electric_dipole_moment_norm": 4.1073866509, 
			 "electric_quadrupole_moment_norm": 18.3871574244, 
			 "total_energy": -1732.69989914, 
			 "HOMO_LUMO_gap": 0.16346, 
			 "cosmo_polarized_energy": -17.64, 
			 "cosmo_cavitation_energy": 39.61, 
			 "cosmo_dispersion_energy": -27.8, 
			 "cosmo_repulsion_energy": 2.14, 
			 "cosmo_total_nonelectrostatic_energy": 13.94, 
			 "SMD_solvation_energy": 8.29 
		},
		"coords": [
			{
				"x": 1.7352497134,
				"y": 4.6137751624,
				"z": -1.7147277944,
				"element": "C" 
			},
			{
				"x": 1.8416112416,
				"y": 3.2802095951,
				"z": -1.2586375775,
				"element": "O" 
			},
			{
				"x": 0.8842113263,
				"y": 2.9571274811,
				"z": -0.2702034542,
				"element": "C" 
			},
			{
				"x": 1.0762810342,
				"y": 1.4730454775,
				"z": 0.0799594272,
				"element": "C" 
			},
			{
				"x": 0.7686675015,
				"y": 0.5478022217,
				"z": -1.0967651511,
				"element": "C" 
			},
			{
				"x": 0.3475624422,
				"y": 1.0843419447,
				"z": 1.3113357766,
				"element": "N" 
			},
			{
				"x": -1.3248312732,
				"y": 0.9889892278,
				"z": 1.4142498634,
				"element": "S" 
			},
			{
				"x": -1.628388583,
				"y": 1.2709448477,
				"z": 2.8200785666,
				"element": "O" 
			},
			{
				"x": -1.9865664113,
				"y": 1.7236489202,
				"z": 0.3290400993,
				"element": "O" 
			},
			{
				"x": -1.6572790617,
				"y": -0.7538893547,
				"z": 1.1102299571,
				"element": "C" 
			},
			{
				"x": -0.961696778,
				"y": -1.7281936889,
				"z": 1.8168729376,
				"element": "C" 
			},
			{
				"x": -1.2911689815,
				"y": -3.0699333163,
				"z": 1.63895397,
				"element": "C" 
			},
			{
				"x": -2.3031496914,
				"y": -3.4479489548,
				"z": 0.7389975346,
				"element": "C" 
			},
			{
				"x": -2.716506182,
				"y": -5.1006015301,
				"z": 0.3962674828,
				"element": "Cl" 
			},
			{
				"x": -2.9806668962,
				"y": -2.450735158,
				"z": 0.0309201446,
				"element": "C" 
			},
			{
				"x": -2.6717787274,
				"y": -1.1063681784,
				"z": 0.2203487897,
				"element": "C" 
			},
			{
				"x": -0.5238447305,
				"y": -4.0374648866,
				"z": 2.4478141973,
				"element": "N" 
			},
			{
				"x": 0.6374440436,
				"y": -3.7300743903,
				"z": 2.7135766971,
				"element": "O" 
			},
			{
				"x": -1.0942234995,
				"y": -5.0546478451,
				"z": 2.822877665,
				"element": "O" 
			},
			{
				"x": 2.5076501825,
				"y": 4.7592873127,
				"z": -2.4735059087,
				"element": "H" 
			},
			{
				"x": 1.8960729201,
				"y": 5.3370803926,
				"z": -0.9001195622,
				"element": "H" 
			},
			{
				"x": 0.7502498384,
				"y": 4.8136312269,
				"z": -2.1634562874,
				"element": "H" 
			},
			{
				"x": -0.1398419164,
				"y": 3.1365325509,
				"z": -0.6279598953,
				"element": "H" 
			},
			{
				"x": 1.0347235467,
				"y": 3.5734121246,
				"z": 0.6340937299,
				"element": "H" 
			},
			{
				"x": 2.1322343111,
				"y": 1.3437378837,
				"z": 0.3457108442,
				"element": "H" 
			},
			{
				"x": -0.2771791963,
				"y": 0.6299488183,
				"z": -1.4052446351,
				"element": "H" 
			},
			{
				"x": 0.9859363159,
				"y": -0.4932713422,
				"z": -0.8433493035,
				"element": "H" 
			},
			{
				"x": 1.3931325082,
				"y": 0.8438030427,
				"z": -1.9420043135,
				"element": "H" 
			},
			{
				"x": 0.6690454712,
				"y": 1.5532857264,
				"z": 2.1543112928,
				"element": "H" 
			},
			{
				"x": -0.1577128645,
				"y": -1.472569413,
				"z": 2.4956269915,
				"element": "H" 
			},
			{
				"x": -3.7502566931,
				"y": -2.7429533051,
				"z": -0.6742401523,
				"element": "H" 
			},
			{
				"x": -3.199780911,
				"y": -0.3323525936,
				"z": -0.325151932,
				"element": "H" 
			}
		],
		 "valence_orbital": [ 
			{
				"type": "occ",
				"energy": -0.31041,
				"method": "rhf"
			},
			{
				"type": "occ",
				"energy": -0.29551,
				"method": "rhf"
			},
			{
				"type": "occ",
				"energy": -0.29331,
				"method": "rhf"
			},
			{
				"type": "occ",
				"energy": -0.27513,
				"method": "rhf"
			},
			{
				"type": "occ",
				"energy": -0.26589,
				"method": "rhf"
			},
			{
				"type": "unocc",
				"energy": -0.10243,
				"method": "rhf"
			},
			{
				"type": "unocc",
				"energy": -0.06625,
				"method": "rhf"
			},
			{
				"type": "unocc",
				"energy": -0.03348,
				"method": "rhf"
			},
			{
				"type": "unocc",
				"energy": -0.00073,
				"method": "rhf"
			},
			{
				"type": "unocc",
				"energy": 0.045,
				"method": "rhf"
			}
		],
		"cosmo_sigma_profile": { 
			"-0.025": 0.0,
			"-0.024": 0.0,
			"-0.023": 0.0,
			"-0.022": 0.0,
			"-0.021": 0.0,
			"-0.02": 0.0,
			"-0.019": 0.0,
			"-0.018": 0.0,
			"-0.017": 0.0,
			"-0.016": 0.0,
			"-0.015": 0.49815144816,
			"-0.014": 1.07055174562,
			"-0.013": 1.20925548327,
			"-0.012": 1.32741887741,
			"-0.011": 0.933500441456,
			"-0.01": 1.7968917698,
			"-0.009": 5.92114897711,
			"-0.008": 8.39168738206,
			"-0.007": 7.19856459341,
			"-0.006": 8.42880143045,
			"-0.005": 12.5635972849,
			"-0.004": 21.6791307935,
			"-0.003": 33.4552055229,
			"-0.002": 40.3821201168,
			"-0.001": 29.9334549211,
			"0.0": 20.4828869036,
			"0.001": 15.067709582,
			"0.002": 15.4775894517,
			"0.003": 12.7691551813,
			"0.004": 7.8245009084,
			"0.005": 7.99759906851,
			"0.006": 12.0183221584,
			"0.007": 14.2535136561,
			"0.008": 10.1288117304,
			"0.009": 8.13104573039,
			"0.01": 8.75453862363,
			"0.011": 7.18423833599,
			"0.012": 1.27416564847,
			"0.013": 0.0870805481977,
			"0.014": 0.0,
			"0.015": 0.0,
			"0.016": 0.0,
			"0.017": 0.0,
			"0.018": 0.0,
			"0.019": 0.0,
			"0.02": 0.0,
			"0.021": 0.0,
			"0.022": 0.0,
			"0.023": 0.0,
			"0.024": 0.0,
			"0.025": 0.0
		}
	}
}
