{
	 "smiles": "ClC1=CC=C(Cl)C(=C1)N1C(=O)C2ON=C(C2C1=O)C(=O)C1=CC=CS1", 
	 "Tm": 494.15, 
	 "num_atms": 33, 
	 "gaussian": { 
		 "optdone": 1, 
		 "sigma_profile": "yes", 
		 "theory": "DFT", 
		 "functional": "B3LYP", 
		 "basiset": "6-31G**", 
		 "properties": { 
			 "R2extent": 12805.4705, 
			 "electric_dipole_moment_norm": 1.09441577565, 
			 "electric_quadrupole_moment_norm": 31.4156843632, 
			 "total_energy": -2343.42166057, 
			 "HOMO_LUMO_gap": 0.15863, 
			 "cosmo_polarized_energy": -20.93, 
			 "cosmo_cavitation_energy": 45.29, 
			 "cosmo_dispersion_energy": -31.65, 
			 "cosmo_repulsion_energy": 2.37, 
			 "cosmo_total_nonelectrostatic_energy": 16.02, 
			 "SMD_solvation_energy": 8.99 
		},
		"coords": [
			{
				"x": -2.5965044012,
				"y": 0.3118885928,
				"z": 5.5525145578,
				"element": "Cl" 
			},
			{
				"x": -3.2185073257,
				"y": 0.6057379937,
				"z": 3.9422152795,
				"element": "C" 
			},
			{
				"x": -4.4683957717,
				"y": 1.2035294807,
				"z": 3.7819097833,
				"element": "C" 
			},
			{
				"x": -4.9592973878,
				"y": 1.4307797579,
				"z": 2.4982946739,
				"element": "C" 
			},
			{
				"x": -4.2063090086,
				"y": 1.0633452501,
				"z": 1.3835380775,
				"element": "C" 
			},
			{
				"x": -4.8614875975,
				"y": 1.3263844066,
				"z": -0.2142975928,
				"element": "Cl" 
			},
			{
				"x": -2.9454670739,
				"y": 0.4752446653,
				"z": 1.5518044415,
				"element": "C" 
			},
			{
				"x": -2.4533740847,
				"y": 0.2429584648,
				"z": 2.8373659553,
				"element": "C" 
			},
			{
				"x": -2.1540743599,
				"y": 0.0960665787,
				"z": 0.4278783039,
				"element": "N" 
			},
			{
				"x": -2.0088531073,
				"y": -1.2363915449,
				"z": 0.0126454606,
				"element": "C" 
			},
			{
				"x": -2.5219587352,
				"y": -2.1980438605,
				"z": 0.5290503617,
				"element": "O" 
			},
			{
				"x": -1.069803498,
				"y": -1.2307652813,
				"z": -1.1994593368,
				"element": "C" 
			},
			{
				"x": 0.2088632032,
				"y": -1.8300490937,
				"z": -0.8127874249,
				"element": "O" 
			},
			{
				"x": 1.2156667506,
				"y": -0.8977529363,
				"z": -0.9501278655,
				"element": "N" 
			},
			{
				"x": 0.7460570847,
				"y": 0.2321902772,
				"z": -1.3393425245,
				"element": "C" 
			},
			{
				"x": -0.7582501355,
				"y": 0.2362252158,
				"z": -1.4896893858,
				"element": "C" 
			},
			{
				"x": -1.4611663912,
				"y": 1.0299259311,
				"z": -0.3703967829,
				"element": "C" 
			},
			{
				"x": -1.4361232834,
				"y": 2.2180890793,
				"z": -0.1805866108,
				"element": "O" 
			},
			{
				"x": 1.5987921099,
				"y": 1.4002628259,
				"z": -1.7097868869,
				"element": "C" 
			},
			{
				"x": 1.0707529496,
				"y": 2.2910136657,
				"z": -2.369480049,
				"element": "O" 
			},
			{
				"x": 3.0111012835,
				"y": 1.4717834716,
				"z": -1.3132034397,
				"element": "C" 
			},
			{
				"x": 3.8219173411,
				"y": 2.5454782325,
				"z": -1.6328136392,
				"element": "C" 
			},
			{
				"x": 5.1382052236,
				"y": 2.4250679272,
				"z": -1.1282826882,
				"element": "C" 
			},
			{
				"x": 5.3191633991,
				"y": 1.2589499669,
				"z": -0.4235268181,
				"element": "C" 
			},
			{
				"x": 3.8954036104,
				"y": 0.2882919523,
				"z": -0.3706687387,
				"element": "S" 
			},
			{
				"x": -5.0532640765,
				"y": 1.485773245,
				"z": 4.6498576703,
				"element": "H" 
			},
			{
				"x": -5.9312634642,
				"y": 1.8895369335,
				"z": 2.357807858,
				"element": "H" 
			},
			{
				"x": -1.4804844033,
				"y": -0.2168638203,
				"z": 2.9634292211,
				"element": "H" 
			},
			{
				"x": -1.4859196106,
				"y": -1.824632536,
				"z": -2.0156764547,
				"element": "H" 
			},
			{
				"x": -1.0722531221,
				"y": 0.630334884,
				"z": -2.4585405938,
				"element": "H" 
			},
			{
				"x": 3.4470082902,
				"y": 3.3815355093,
				"z": -2.2102958836,
				"element": "H" 
			},
			{
				"x": 5.9167375018,
				"y": 3.1643142612,
				"z": -1.2750191568,
				"element": "H" 
			},
			{
				"x": 6.2210880907,
				"y": 0.911690504,
				"z": 0.0632702282,
				"element": "H" 
			}
		],
		 "valence_orbital": [ 
			{
				"type": "occ",
				"energy": -0.27565,
				"method": "rhf"
			},
			{
				"type": "occ",
				"energy": -0.2697,
				"method": "rhf"
			},
			{
				"type": "occ",
				"energy": -0.26497,
				"method": "rhf"
			},
			{
				"type": "occ",
				"energy": -0.25818,
				"method": "rhf"
			},
			{
				"type": "occ",
				"energy": -0.25226,
				"method": "rhf"
			},
			{
				"type": "unocc",
				"energy": -0.09363,
				"method": "rhf"
			},
			{
				"type": "unocc",
				"energy": -0.05152,
				"method": "rhf"
			},
			{
				"type": "unocc",
				"energy": -0.0463,
				"method": "rhf"
			},
			{
				"type": "unocc",
				"energy": -0.03836,
				"method": "rhf"
			},
			{
				"type": "unocc",
				"energy": -0.03367,
				"method": "rhf"
			}
		],
		"cosmo_sigma_profile": { 
			"-0.025": 0.0,
			"-0.024": 0.0,
			"-0.023": 0.0,
			"-0.022": 0.0,
			"-0.021": 0.0,
			"-0.02": 0.0,
			"-0.019": 0.0,
			"-0.018": 0.0,
			"-0.017": 0.0,
			"-0.016": 0.0,
			"-0.015": 0.0,
			"-0.014": 0.0,
			"-0.013": 0.0578937697184,
			"-0.012": 0.321369349859,
			"-0.011": 3.37237313252,
			"-0.01": 11.080493549,
			"-0.009": 11.7402833609,
			"-0.008": 13.6270500146,
			"-0.007": 14.573550627,
			"-0.006": 13.4206983201,
			"-0.005": 13.2207257656,
			"-0.004": 16.3242230249,
			"-0.003": 17.0133709124,
			"-0.002": 18.7723395652,
			"-0.001": 24.2977565282,
			"0.0": 31.977864981,
			"0.001": 33.9353814624,
			"0.002": 31.4330982201,
			"0.003": 31.2275748104,
			"0.004": 20.731132246,
			"0.005": 9.48189389155,
			"0.006": 8.80306218715,
			"0.007": 9.10880928622,
			"0.008": 9.02398802035,
			"0.009": 8.22776043346,
			"0.01": 13.4140855382,
			"0.011": 6.95747595697,
			"0.012": 0.177234472234,
			"0.013": 0.0,
			"0.014": 0.0,
			"0.015": 0.0,
			"0.016": 0.0,
			"0.017": 0.0,
			"0.018": 0.0,
			"0.019": 0.0,
			"0.02": 0.0,
			"0.021": 0.0,
			"0.022": 0.0,
			"0.023": 0.0,
			"0.024": 0.0,
			"0.025": 0.0
		}
	}
}
