{
	 "smiles": "ClC1=CC(Cl)=C(Br)C=C1", 
	 "Tm": 299.65, 
	 "num_atms": 12, 
	 "gaussian": { 
		 "optdone": 1, 
		 "sigma_profile": "yes", 
		 "theory": "DFT", 
		 "functional": "B3LYP", 
		 "basiset": "6-31G**", 
		 "properties": { 
			 "R2extent": 5225.8854, 
			 "electric_dipole_moment_norm": 1.32470835281, 
			 "electric_quadrupole_moment_norm": 2.83149067807, 
			 "total_energy": -3722.22977327, 
			 "HOMO_LUMO_gap": 0.21363, 
			 "cosmo_polarized_energy": -3.9, 
			 "cosmo_cavitation_energy": 22.27, 
			 "cosmo_dispersion_energy": -17.3, 
			 "cosmo_repulsion_energy": 1.41, 
			 "cosmo_total_nonelectrostatic_energy": 6.39, 
			 "SMD_solvation_energy": 2.22 
		},
		"coords": [
			{
				"x": -3.1777682995,
				"y": 3.4629295211,
				"z": 0.3410155477,
				"element": "Cl" 
			},
			{
				"x": -1.5691890465,
				"y": 2.8037999351,
				"z": 0.5626614512,
				"element": "C" 
			},
			{
				"x": -0.8270915319,
				"y": 3.1863508089,
				"z": 1.6767947369,
				"element": "C" 
			},
			{
				"x": 0.4559709989,
				"y": 2.6641957384,
				"z": 1.85892007,
				"element": "C" 
			},
			{
				"x": 1.3538487036,
				"y": 3.1681216218,
				"z": 3.2673236063,
				"element": "Cl" 
			},
			{
				"x": 0.9885466926,
				"y": 1.7638106008,
				"z": 0.9270948515,
				"element": "C" 
			},
			{
				"x": 2.7257467935,
				"y": 1.0242162497,
				"z": 1.1256597407,
				"element": "Br" 
			},
			{
				"x": 0.2258620915,
				"y": 1.3943516505,
				"z": -0.1830528282,
				"element": "C" 
			},
			{
				"x": -1.0535488243,
				"y": 1.908644355,
				"z": -0.3740699532,
				"element": "C" 
			},
			{
				"x": -1.2333050934,
				"y": 3.8820036664,
				"z": 2.4006553637,
				"element": "H" 
			},
			{
				"x": 0.6430900138,
				"y": 0.6973998081,
				"z": -0.900670678,
				"element": "H" 
			},
			{
				"x": -1.6408624983,
				"y": 1.6183760443,
				"z": -1.2374319086,
				"element": "H" 
			}
		],
		 "valence_orbital": [ 
			{
				"type": "occ",
				"energy": -0.32581,
				"method": "rhf"
			},
			{
				"type": "occ",
				"energy": -0.313,
				"method": "rhf"
			},
			{
				"type": "occ",
				"energy": -0.29561,
				"method": "rhf"
			},
			{
				"type": "occ",
				"energy": -0.27331,
				"method": "rhf"
			},
			{
				"type": "occ",
				"energy": -0.25128,
				"method": "rhf"
			},
			{
				"type": "unocc",
				"energy": -0.03765,
				"method": "rhf"
			},
			{
				"type": "unocc",
				"energy": -0.03686,
				"method": "rhf"
			},
			{
				"type": "unocc",
				"energy": -0.02365,
				"method": "rhf"
			},
			{
				"type": "unocc",
				"energy": 0.01816,
				"method": "rhf"
			},
			{
				"type": "unocc",
				"energy": 0.05071,
				"method": "rhf"
			}
		],
		"cosmo_sigma_profile": { 
			"-0.025": 0.0,
			"-0.024": 0.0,
			"-0.023": 0.0,
			"-0.022": 0.0,
			"-0.021": 0.0,
			"-0.02": 0.0,
			"-0.019": 0.0,
			"-0.018": 0.0,
			"-0.017": 0.0,
			"-0.016": 0.0,
			"-0.015": 0.0,
			"-0.014": 0.0,
			"-0.013": 0.0,
			"-0.012": 0.0,
			"-0.011": 0.0,
			"-0.01": 0.0,
			"-0.009": 1.3555132028,
			"-0.008": 5.54629175745,
			"-0.007": 5.72579978064,
			"-0.006": 4.67896293644,
			"-0.005": 6.15722108,
			"-0.004": 6.59295276423,
			"-0.003": 7.87227306159,
			"-0.002": 11.83317491,
			"-0.001": 15.2214422661,
			"0.0": 28.9818470513,
			"0.001": 25.9836301717,
			"0.002": 17.7786362248,
			"0.003": 22.6792192583,
			"0.004": 22.9081841809,
			"0.005": 4.03560625583,
			"0.006": 0.116533555878,
			"0.007": 0.0,
			"0.008": 0.0,
			"0.009": 0.0,
			"0.01": 0.0,
			"0.011": 0.0,
			"0.012": 0.0,
			"0.013": 0.0,
			"0.014": 0.0,
			"0.015": 0.0,
			"0.016": 0.0,
			"0.017": 0.0,
			"0.018": 0.0,
			"0.019": 0.0,
			"0.02": 0.0,
			"0.021": 0.0,
			"0.022": 0.0,
			"0.023": 0.0,
			"0.024": 0.0,
			"0.025": 0.0
		}
	}
}
