{
	 "smiles": "CC1=CC(=NN1C1=C(Cl)C=CC=C1)C(O)=O", 
	 "Tm": 453.15, 
	 "num_atms": 25, 
	 "gaussian": { 
		 "optdone": 1, 
		 "sigma_profile": "yes", 
		 "theory": "DFT", 
		 "functional": "B3LYP", 
		 "basiset": "6-31G**", 
		 "properties": { 
			 "R2extent": 4690.6435, 
			 "electric_dipole_moment_norm": 7.98620006386, 
			 "electric_quadrupole_moment_norm": 30.7749179063, 
			 "total_energy": -1144.73403459, 
			 "HOMO_LUMO_gap": 0.2123, 
			 "cosmo_polarized_energy": -14.45, 
			 "cosmo_cavitation_energy": 31.86, 
			 "cosmo_dispersion_energy": -22.47, 
			 "cosmo_repulsion_energy": 1.76, 
			 "cosmo_total_nonelectrostatic_energy": 11.15, 
			 "SMD_solvation_energy": 6.1 
		},
		"coords": [
			{
				"x": -1.3300569213,
				"y": 1.9661867721,
				"z": 0.7967676957,
				"element": "C" 
			},
			{
				"x": -1.0122863012,
				"y": 1.5853631958,
				"z": -0.6128985844,
				"element": "C" 
			},
			{
				"x": -1.2695666425,
				"y": 2.2307586089,
				"z": -1.8057491397,
				"element": "C" 
			},
			{
				"x": -0.7030161675,
				"y": 1.4069861717,
				"z": -2.8010087302,
				"element": "C" 
			},
			{
				"x": -0.1275652232,
				"y": 0.3226618391,
				"z": -2.2788586399,
				"element": "N" 
			},
			{
				"x": -0.3302867726,
				"y": 0.4333852552,
				"z": -0.9457587988,
				"element": "N" 
			},
			{
				"x": 0.2256917889,
				"y": -0.5458060101,
				"z": -0.070854621,
				"element": "C" 
			},
			{
				"x": -0.5771369179,
				"y": -1.4726641583,
				"z": 0.6097201245,
				"element": "C" 
			},
			{
				"x": -2.3136433505,
				"y": -1.4871874912,
				"z": 0.3896514841,
				"element": "Cl" 
			},
			{
				"x": 0.0032209962,
				"y": -2.4192965559,
				"z": 1.4554404196,
				"element": "C" 
			},
			{
				"x": 1.3882222527,
				"y": -2.453592581,
				"z": 1.6102505058,
				"element": "C" 
			},
			{
				"x": 2.1970517715,
				"y": -1.5477607738,
				"z": 0.9215617377,
				"element": "C" 
			},
			{
				"x": 1.6142545297,
				"y": -0.5975647535,
				"z": 0.0870512789,
				"element": "C" 
			},
			{
				"x": -0.6795994327,
				"y": 1.6141017518,
				"z": -4.2719084369,
				"element": "C" 
			},
			{
				"x": -0.0698923106,
				"y": 0.6256089446,
				"z": -4.9640738991,
				"element": "O" 
			},
			{
				"x": -1.159479214,
				"y": 2.5812799331,
				"z": -4.8165733198,
				"element": "O" 
			},
			{
				"x": -0.4442986046,
				"y": 1.9111110336,
				"z": 1.4384034537,
				"element": "H" 
			},
			{
				"x": -2.0959370349,
				"y": 1.3146586123,
				"z": 1.2300582719,
				"element": "H" 
			},
			{
				"x": -1.7039166566,
				"y": 2.9916555711,
				"z": 0.8210898633,
				"element": "H" 
			},
			{
				"x": -1.7854132584,
				"y": 3.1672023251,
				"z": -1.9508249874,
				"element": "H" 
			},
			{
				"x": -0.6328865176,
				"y": -3.1276301171,
				"z": 1.9741467246,
				"element": "H" 
			},
			{
				"x": 1.8326648188,
				"y": -3.1955466769,
				"z": 2.2663459487,
				"element": "H" 
			},
			{
				"x": 3.2757441656,
				"y": -1.5780926738,
				"z": 1.0355827582,
				"element": "H" 
			},
			{
				"x": 2.2202159743,
				"y": 0.1168185055,
				"z": -0.4599976319,
				"element": "H" 
			},
			{
				"x": 0.2302150285,
				"y": -0.0464367282,
				"z": -4.3259634773,
				"element": "H" 
			}
		],
		 "valence_orbital": [ 
			{
				"type": "occ",
				"energy": -0.29202,
				"method": "rhf"
			},
			{
				"type": "occ",
				"energy": -0.27307,
				"method": "rhf"
			},
			{
				"type": "occ",
				"energy": -0.26497,
				"method": "rhf"
			},
			{
				"type": "occ",
				"energy": -0.26148,
				"method": "rhf"
			},
			{
				"type": "occ",
				"energy": -0.25801,
				"method": "rhf"
			},
			{
				"type": "unocc",
				"energy": -0.04571,
				"method": "rhf"
			},
			{
				"type": "unocc",
				"energy": -0.03782,
				"method": "rhf"
			},
			{
				"type": "unocc",
				"energy": -0.02634,
				"method": "rhf"
			},
			{
				"type": "unocc",
				"energy": 0.00938,
				"method": "rhf"
			},
			{
				"type": "unocc",
				"energy": 0.01993,
				"method": "rhf"
			}
		],
		"cosmo_sigma_profile": { 
			"-0.025": 0.0,
			"-0.024": 0.0,
			"-0.023": 0.0,
			"-0.022": 0.0,
			"-0.021": 0.0,
			"-0.02": 0.0,
			"-0.019": 0.0,
			"-0.018": 0.0,
			"-0.017": 0.0,
			"-0.016": 0.0,
			"-0.015": 0.214190366034,
			"-0.014": 0.447832281526,
			"-0.013": 0.382221494448,
			"-0.012": 0.63677046981,
			"-0.011": 0.916579293032,
			"-0.01": 0.410873729106,
			"-0.009": 0.337227524286,
			"-0.008": 3.95343087844,
			"-0.007": 11.3590230441,
			"-0.006": 13.5804285104,
			"-0.005": 17.3652586081,
			"-0.004": 15.9996023051,
			"-0.003": 18.2332670697,
			"-0.002": 20.8639987382,
			"-0.001": 19.6653186283,
			"0.0": 19.4015297239,
			"0.001": 21.7376996753,
			"0.002": 26.1655382309,
			"0.003": 21.1008996935,
			"0.004": 8.84442491588,
			"0.005": 3.88586742696,
			"0.006": 3.74710336966,
			"0.007": 3.57634137804,
			"0.008": 4.40832535379,
			"0.009": 3.0947115529,
			"0.01": 5.25466911444,
			"0.011": 5.23605421589,
			"0.012": 5.22473125362,
			"0.013": 1.68417388407,
			"0.014": 0.0790941025707,
			"0.015": 0.0,
			"0.016": 0.0,
			"0.017": 0.0,
			"0.018": 0.0,
			"0.019": 0.0,
			"0.02": 0.0,
			"0.021": 0.0,
			"0.022": 0.0,
			"0.023": 0.0,
			"0.024": 0.0,
			"0.025": 0.0
		}
	}
}
