{
	 "smiles": "CN1C2CC(O)C1CC(=O)C2", 
	 "Tm": 395.15, 
	 "num_atms": 24, 
	 "gaussian": { 
		 "optdone": 1, 
		 "sigma_profile": "yes", 
		 "theory": "DFT", 
		 "functional": "B3LYP", 
		 "basiset": "6-31G**", 
		 "properties": { 
			 "R2extent": 1932.0584, 
			 "electric_dipole_moment_norm": 2.79982626247, 
			 "electric_quadrupole_moment_norm": 10.5898828832, 
			 "total_energy": -517.862383073, 
			 "HOMO_LUMO_gap": 0.20306, 
			 "cosmo_polarized_energy": -11.79, 
			 "cosmo_cavitation_energy": 24.48, 
			 "cosmo_dispersion_energy": -18.27, 
			 "cosmo_repulsion_energy": 1.46, 
			 "cosmo_total_nonelectrostatic_energy": 7.67, 
			 "SMD_solvation_energy": 2.11 
		},
		"coords": [
			{
				"x": -0.4515735282,
				"y": 0.7966547285,
				"z": 2.4089564611,
				"element": "C" 
			},
			{
				"x": -0.6214149303,
				"y": -0.1684270306,
				"z": 1.3195622741,
				"element": "N" 
			},
			{
				"x": 0.2175186858,
				"y": 0.1019046417,
				"z": 0.1372839334,
				"element": "C" 
			},
			{
				"x": -0.5512356968,
				"y": 1.1812356545,
				"z": -0.6858170798,
				"element": "C" 
			},
			{
				"x": -2.0379518345,
				"y": 0.9892965318,
				"z": -0.2676698372,
				"element": "C" 
			},
			{
				"x": -2.5722402464,
				"y": 2.1130133783,
				"z": 0.4316243619,
				"element": "O" 
			},
			{
				"x": -1.9732276401,
				"y": -0.1973577004,
				"z": 0.7319304633,
				"element": "C" 
			},
			{
				"x": -2.1315926049,
				"y": -1.5475636622,
				"z": 0.0023339142,
				"element": "C" 
			},
			{
				"x": -1.0289192455,
				"y": -1.7698711136,
				"z": -1.0297299939,
				"element": "C" 
			},
			{
				"x": -1.230932734,
				"y": -2.3480788551,
				"z": -2.080638759,
				"element": "O" 
			},
			{
				"x": 0.3429281788,
				"y": -1.2167012358,
				"z": -0.653559544,
				"element": "C" 
			},
			{
				"x": 0.5759020264,
				"y": 0.7320355985,
				"z": 2.7819176693,
				"element": "H" 
			},
			{
				"x": -0.6660392526,
				"y": 1.8398466756,
				"z": 2.1351752301,
				"element": "H" 
			},
			{
				"x": -1.120278069,
				"y": 0.52350711,
				"z": 3.2310776827,
				"element": "H" 
			},
			{
				"x": 1.2100427642,
				"y": 0.4408965424,
				"z": 0.4482774449,
				"element": "H" 
			},
			{
				"x": -0.2320458238,
				"y": 2.1893121355,
				"z": -0.4037173817,
				"element": "H" 
			},
			{
				"x": -0.3949223718,
				"y": 1.0717171409,
				"z": -1.7637106095,
				"element": "H" 
			},
			{
				"x": -2.67540254,
				"y": 0.7502478673,
				"z": -1.1315425579,
				"element": "H" 
			},
			{
				"x": -2.5818905572,
				"y": 2.8642411155,
				"z": -0.1756646246,
				"element": "H" 
			},
			{
				"x": -2.7394627592,
				"y": -0.0876028775,
				"z": 1.5035993186,
				"element": "H" 
			},
			{
				"x": -3.1007007528,
				"y": -1.6484016324,
				"z": -0.4950297616,
				"element": "H" 
			},
			{
				"x": -2.0479210459,
				"y": -2.3467236109,
				"z": 0.7496195457,
				"element": "H" 
			},
			{
				"x": 0.9349469659,
				"y": -1.1044247402,
				"z": -1.5667891421,
				"element": "H" 
			},
			{
				"x": 0.8382130119,
				"y": -1.9585566619,
				"z": -0.0140890082,
				"element": "H" 
			}
		],
		 "valence_orbital": [ 
			{
				"type": "occ",
				"energy": -0.33288,
				"method": "rhf"
			},
			{
				"type": "occ",
				"energy": -0.32159,
				"method": "rhf"
			},
			{
				"type": "occ",
				"energy": -0.27166,
				"method": "rhf"
			},
			{
				"type": "occ",
				"energy": -0.23653,
				"method": "rhf"
			},
			{
				"type": "occ",
				"energy": -0.21803,
				"method": "rhf"
			},
			{
				"type": "unocc",
				"energy": -0.01497,
				"method": "rhf"
			},
			{
				"type": "unocc",
				"energy": 0.07212,
				"method": "rhf"
			},
			{
				"type": "unocc",
				"energy": 0.0854,
				"method": "rhf"
			},
			{
				"type": "unocc",
				"energy": 0.10298,
				"method": "rhf"
			},
			{
				"type": "unocc",
				"energy": 0.12443,
				"method": "rhf"
			}
		],
		"cosmo_sigma_profile": { 
			"-0.025": 0.0,
			"-0.024": 0.0,
			"-0.023": 0.0,
			"-0.022": 0.0,
			"-0.021": 0.0,
			"-0.02": 0.0,
			"-0.019": 0.0,
			"-0.018": 0.0,
			"-0.017": 0.0,
			"-0.016": 0.168563826961,
			"-0.015": 1.07103523922,
			"-0.014": 0.838931541586,
			"-0.013": 0.807971825437,
			"-0.012": 1.29307837469,
			"-0.011": 0.924973959402,
			"-0.01": 0.331304940688,
			"-0.009": 0.497443681264,
			"-0.008": 0.997019389993,
			"-0.007": 1.33454636059,
			"-0.006": 3.54074369341,
			"-0.005": 10.4949791845,
			"-0.004": 29.3488722043,
			"-0.003": 25.1630868508,
			"-0.002": 21.8793350498,
			"-0.001": 18.44092416,
			"0.0": 13.7958774935,
			"0.001": 6.62776458254,
			"0.002": 5.56788189837,
			"0.003": 3.30017969059,
			"0.004": 4.23570437949,
			"0.005": 3.3918258509,
			"0.006": 2.87403583315,
			"0.007": 3.63987438725,
			"0.008": 3.56296994567,
			"0.009": 3.81296425874,
			"0.01": 3.47383667865,
			"0.011": 4.94190610549,
			"0.012": 6.37447458386,
			"0.013": 4.22471961407,
			"0.014": 1.95790305837,
			"0.015": 0.28046238753,
			"0.016": 0.0780918781283,
			"0.017": 0.0,
			"0.018": 0.0,
			"0.019": 0.0,
			"0.02": 0.0,
			"0.021": 0.0,
			"0.022": 0.0,
			"0.023": 0.0,
			"0.024": 0.0,
			"0.025": 0.0
		}
	}
}
