{
	 "smiles": "SC1=NN=NN1CCC1=NC=CC=C1", 
	 "Tm": 467.15, 
	 "num_atms": 23, 
	 "gaussian": { 
		 "optdone": 1, 
		 "sigma_profile": "yes", 
		 "theory": "DFT", 
		 "functional": "B3LYP", 
		 "basiset": "6-31G**", 
		 "properties": { 
			 "R2extent": 3182.2417, 
			 "electric_dipole_moment_norm": 8.05704928246, 
			 "electric_quadrupole_moment_norm": 16.3611919434, 
			 "total_energy": -982.161364766, 
			 "HOMO_LUMO_gap": 0.19665, 
			 "cosmo_polarized_energy": -16.49, 
			 "cosmo_cavitation_energy": 28.67, 
			 "cosmo_dispersion_energy": -20.94, 
			 "cosmo_repulsion_energy": 1.58, 
			 "cosmo_total_nonelectrostatic_energy": 9.31, 
			 "SMD_solvation_energy": 1.74 
		},
		"coords": [
			{
				"x": -1.1538936797,
				"y": -1.9015470273,
				"z": 2.222968967,
				"element": "S" 
			},
			{
				"x": 0.0474816649,
				"y": -2.3600246518,
				"z": 1.0233465603,
				"element": "C" 
			},
			{
				"x": 1.1597408356,
				"y": -3.0321803578,
				"z": 1.2709407264,
				"element": "N" 
			},
			{
				"x": 1.7619208379,
				"y": -3.2109620874,
				"z": 0.0659887187,
				"element": "N" 
			},
			{
				"x": 1.0741631766,
				"y": -2.6744188356,
				"z": -0.8884520405,
				"element": "N" 
			},
			{
				"x": -0.0292479069,
				"y": -2.1332693563,
				"z": -0.3130927162,
				"element": "N" 
			},
			{
				"x": -1.0562685192,
				"y": -1.5004583007,
				"z": -1.133486352,
				"element": "C" 
			},
			{
				"x": -0.6040431063,
				"y": -0.1744135659,
				"z": -1.7492657186,
				"element": "C" 
			},
			{
				"x": -0.3862434654,
				"y": 0.9760786198,
				"z": -0.7835907923,
				"element": "C" 
			},
			{
				"x": -0.9820834859,
				"y": 0.9309454778,
				"z": 0.4186908641,
				"element": "N" 
			},
			{
				"x": -0.8325601992,
				"y": 1.9752249451,
				"z": 1.2486921423,
				"element": "C" 
			},
			{
				"x": -0.0961060416,
				"y": 3.1113564163,
				"z": 0.9294969349,
				"element": "C" 
			},
			{
				"x": 0.5328509678,
				"y": 3.1560328035,
				"z": -0.3155094388,
				"element": "C" 
			},
			{
				"x": 0.3890980953,
				"y": 2.0753188988,
				"z": -1.1792292712,
				"element": "C" 
			},
			{
				"x": -1.4137417377,
				"y": -0.7061729486,
				"z": 1.6181208308,
				"element": "H" 
			},
			{
				"x": -1.3053462208,
				"y": -2.2021167033,
				"z": -1.9336084508,
				"element": "H" 
			},
			{
				"x": -1.9383791683,
				"y": -1.3666772711,
				"z": -0.5067011623,
				"element": "H" 
			},
			{
				"x": 0.311232417,
				"y": -0.34547968,
				"z": -2.3252806647,
				"element": "H" 
			},
			{
				"x": -1.3727482407,
				"y": 0.1232747013,
				"z": -2.476058649,
				"element": "H" 
			},
			{
				"x": -1.3230899833,
				"y": 1.8891224076,
				"z": 2.2161092923,
				"element": "H" 
			},
			{
				"x": -0.009971304,
				"y": 3.9273927023,
				"z": 1.6389833551,
				"element": "H" 
			},
			{
				"x": 1.1297257399,
				"y": 4.0158328904,
				"z": -0.6052107447,
				"element": "H" 
			},
			{
				"x": 0.8699093241,
				"y": 2.073940923,
				"z": -2.1527523908,
				"element": "H" 
			}
		],
		 "valence_orbital": [ 
			{
				"type": "occ",
				"energy": -0.29091,
				"method": "rhf"
			},
			{
				"type": "occ",
				"energy": -0.28231,
				"method": "rhf"
			},
			{
				"type": "occ",
				"energy": -0.27887,
				"method": "rhf"
			},
			{
				"type": "occ",
				"energy": -0.27246,
				"method": "rhf"
			},
			{
				"type": "occ",
				"energy": -0.24657,
				"method": "rhf"
			},
			{
				"type": "unocc",
				"energy": -0.04992,
				"method": "rhf"
			},
			{
				"type": "unocc",
				"energy": -0.03569,
				"method": "rhf"
			},
			{
				"type": "unocc",
				"energy": -0.01223,
				"method": "rhf"
			},
			{
				"type": "unocc",
				"energy": 0.02333,
				"method": "rhf"
			},
			{
				"type": "unocc",
				"energy": 0.03745,
				"method": "rhf"
			}
		],
		"cosmo_sigma_profile": { 
			"-0.025": 0.0,
			"-0.024": 0.0,
			"-0.023": 0.0,
			"-0.022": 0.0,
			"-0.021": 0.0,
			"-0.02": 0.0,
			"-0.019": 0.0,
			"-0.018": 0.0,
			"-0.017": 0.0,
			"-0.016": 0.0,
			"-0.015": 0.0,
			"-0.014": 0.0,
			"-0.013": 0.0,
			"-0.012": 0.0,
			"-0.011": 0.0,
			"-0.01": 0.0,
			"-0.009": 0.0,
			"-0.008": 2.15387593779,
			"-0.007": 14.4535231197,
			"-0.006": 22.5701632465,
			"-0.005": 21.7012743836,
			"-0.004": 17.9703467917,
			"-0.003": 14.6566318714,
			"-0.002": 13.3110535911,
			"-0.001": 12.8093839152,
			"0.0": 14.8170178984,
			"0.001": 16.0023645772,
			"0.002": 17.4780139515,
			"0.003": 12.4177418055,
			"0.004": 6.55799397245,
			"0.005": 5.72587510251,
			"0.006": 6.79625239293,
			"0.007": 5.46584349686,
			"0.008": 5.46153321218,
			"0.009": 5.0223350675,
			"0.01": 4.8920258816,
			"0.011": 4.63820630246,
			"0.012": 2.59080329052,
			"0.013": 2.7453053831,
			"0.014": 1.77868893125,
			"0.015": 0.770332311036,
			"0.016": 0.00298280289877,
			"0.017": 0.0,
			"0.018": 0.0,
			"0.019": 0.0,
			"0.02": 0.0,
			"0.021": 0.0,
			"0.022": 0.0,
			"0.023": 0.0,
			"0.024": 0.0,
			"0.025": 0.0
		}
	}
}
