{
	 "smiles": "CC(C)SC1OC(CO)C(O)C(O)C1O", 
	 "Tm": 394.15, 
	 "num_atms": 33, 
	 "gaussian": { 
		 "optdone": 1, 
		 "sigma_profile": "yes", 
		 "theory": "DFT", 
		 "functional": "B3LYP", 
		 "basiset": "6-31G**", 
		 "properties": { 
			 "R2extent": 3836.9389, 
			 "electric_dipole_moment_norm": 2.00838012836, 
			 "electric_quadrupole_moment_norm": 14.8372103254, 
			 "total_energy": -1128.07695154, 
			 "HOMO_LUMO_gap": 0.27044, 
			 "cosmo_polarized_energy": -17.03, 
			 "cosmo_cavitation_energy": 33.91, 
			 "cosmo_dispersion_energy": -24.28, 
			 "cosmo_repulsion_energy": 1.87, 
			 "cosmo_total_nonelectrostatic_energy": 11.51, 
			 "SMD_solvation_energy": 4.85 
		},
		"coords": [
			{
				"x": -0.0741619638,
				"y": -2.0917891093,
				"z": -2.7608662091,
				"element": "C" 
			},
			{
				"x": -0.8665518037,
				"y": -1.3901037558,
				"z": -1.6499640969,
				"element": "C" 
			},
			{
				"x": -2.3394671093,
				"y": -1.8071101677,
				"z": -1.6642289178,
				"element": "C" 
			},
			{
				"x": -0.6328581004,
				"y": 0.4379667288,
				"z": -1.9479384437,
				"element": "S" 
			},
			{
				"x": -0.8504669262,
				"y": 1.4210349156,
				"z": -0.3940007132,
				"element": "C" 
			},
			{
				"x": 0.3442859573,
				"y": 1.6580113448,
				"z": 0.3436473253,
				"element": "O" 
			},
			{
				"x": 0.8314062681,
				"y": 0.5363944089,
				"z": 1.1072383311,
				"element": "C" 
			},
			{
				"x": 2.1886226853,
				"y": 0.9641250197,
				"z": 1.6508592908,
				"element": "C" 
			},
			{
				"x": 3.0988351196,
				"y": 1.2418952166,
				"z": 0.6061201971,
				"element": "O" 
			},
			{
				"x": -0.1984384248,
				"y": 0.2003813482,
				"z": 2.1857318281,
				"element": "C" 
			},
			{
				"x": 0.2458122783,
				"y": -0.9238321077,
				"z": 2.9209820023,
				"element": "O" 
			},
			{
				"x": -1.5694887848,
				"y": -0.0753255998,
				"z": 1.551308732,
				"element": "C" 
			},
			{
				"x": -2.5492014286,
				"y": -0.2515586378,
				"z": 2.5643782484,
				"element": "O" 
			},
			{
				"x": -1.9775266621,
				"y": 1.0495575232,
				"z": 0.5854953649,
				"element": "C" 
			},
			{
				"x": -2.3232437579,
				"y": 2.2065758392,
				"z": 1.3618839438,
				"element": "O" 
			},
			{
				"x": -0.4438987462,
				"y": -1.8039065678,
				"z": -3.7511153945,
				"element": "H" 
			},
			{
				"x": -0.1891759853,
				"y": -3.1770379306,
				"z": -2.6655587342,
				"element": "H" 
			},
			{
				"x": 0.9899915008,
				"y": -1.8493900785,
				"z": -2.709313532,
				"element": "H" 
			},
			{
				"x": -0.4094385388,
				"y": -1.6412998142,
				"z": -0.6895555432,
				"element": "H" 
			},
			{
				"x": -2.9163632566,
				"y": -1.3374605264,
				"z": -0.8637508577,
				"element": "H" 
			},
			{
				"x": -2.805725329,
				"y": -1.5375445955,
				"z": -2.6168741443,
				"element": "H" 
			},
			{
				"x": -2.4215116397,
				"y": -2.8935677109,
				"z": -1.53858871,
				"element": "H" 
			},
			{
				"x": -1.1042140066,
				"y": 2.3958639286,
				"z": -0.8209032187,
				"element": "H" 
			},
			{
				"x": 0.9794484895,
				"y": -0.3225193989,
				"z": 0.4397249527,
				"element": "H" 
			},
			{
				"x": 2.6061487376,
				"y": 0.1506028239,
				"z": 2.2492889343,
				"element": "H" 
			},
			{
				"x": 2.0452468876,
				"y": 1.8350353995,
				"z": 2.3130988958,
				"element": "H" 
			},
			{
				"x": 2.6378286793,
				"y": 1.8381856705,
				"z": -0.0011722188,
				"element": "H" 
			},
			{
				"x": -0.2955685343,
				"y": 1.0804337312,
				"z": 2.8469865343,
				"element": "H" 
			},
			{
				"x": -0.504167802,
				"y": -1.1943719618,
				"z": 3.4715186901,
				"element": "H" 
			},
			{
				"x": -1.5039433929,
				"y": -1.0299260344,
				"z": 1.0208000365,
				"element": "H" 
			},
			{
				"x": -2.8375203838,
				"y": 0.6469359622,
				"z": 2.7962960789,
				"element": "H" 
			},
			{
				"x": -2.8869570127,
				"y": 0.7782533635,
				"z": 0.0444632317,
				"element": "H" 
			},
			{
				"x": -1.4906370138,
				"y": 2.6417907727,
				"z": 1.6004081161,
				"element": "H" 
			}
		],
		 "valence_orbital": [ 
			{
				"type": "occ",
				"energy": -0.29968,
				"method": "rhf"
			},
			{
				"type": "occ",
				"energy": -0.27728,
				"method": "rhf"
			},
			{
				"type": "occ",
				"energy": -0.26736,
				"method": "rhf"
			},
			{
				"type": "occ",
				"energy": -0.26102,
				"method": "rhf"
			},
			{
				"type": "occ",
				"energy": -0.23906,
				"method": "rhf"
			},
			{
				"type": "unocc",
				"energy": 0.03138,
				"method": "rhf"
			},
			{
				"type": "unocc",
				"energy": 0.03959,
				"method": "rhf"
			},
			{
				"type": "unocc",
				"energy": 0.0598,
				"method": "rhf"
			},
			{
				"type": "unocc",
				"energy": 0.06262,
				"method": "rhf"
			},
			{
				"type": "unocc",
				"energy": 0.0779,
				"method": "rhf"
			}
		],
		"cosmo_sigma_profile": { 
			"-0.025": 0.0,
			"-0.024": 0.0,
			"-0.023": 0.0,
			"-0.022": 0.0,
			"-0.021": 0.0,
			"-0.02": 0.0,
			"-0.019": 0.0,
			"-0.018": 0.0,
			"-0.017": 0.0,
			"-0.016": 0.0,
			"-0.015": 0.095830378138,
			"-0.014": 0.757598947797,
			"-0.013": 1.80415069673,
			"-0.012": 2.393929331,
			"-0.011": 2.45566429941,
			"-0.01": 3.02798865995,
			"-0.009": 1.84618498625,
			"-0.008": 4.32908371348,
			"-0.007": 9.4254950606,
			"-0.006": 12.5220778737,
			"-0.005": 11.0120120417,
			"-0.004": 23.2873311334,
			"-0.003": 27.2700669154,
			"-0.002": 23.5809680097,
			"-0.001": 20.8623029259,
			"0.0": 22.9475150199,
			"0.001": 12.3059547297,
			"0.002": 9.04205004108,
			"0.003": 8.22708298121,
			"0.004": 7.12363924765,
			"0.005": 7.28090121077,
			"0.006": 8.61535203761,
			"0.007": 7.67511271016,
			"0.008": 6.64275154289,
			"0.009": 6.69444165949,
			"0.01": 4.74339505792,
			"0.011": 3.96751414349,
			"0.012": 5.98278266655,
			"0.013": 4.51124744981,
			"0.014": 3.00311239359,
			"0.015": 0.318832200108,
			"0.016": 0.0,
			"0.017": 0.0,
			"0.018": 0.0,
			"0.019": 0.0,
			"0.02": 0.0,
			"0.021": 0.0,
			"0.022": 0.0,
			"0.023": 0.0,
			"0.024": 0.0,
			"0.025": 0.0
		}
	}
}
