{
	 "smiles": "OC(=O)C1=C(Cl)C=C(Cl)C(=C1)S(=O)(=O)N1CCOCC1", 
	 "Tm": 457.15, 
	 "num_atms": 31, 
	 "gaussian": { 
		 "optdone": 1, 
		 "sigma_profile": "yes", 
		 "theory": "DFT", 
		 "functional": "B3LYP", 
		 "basiset": "6-31G**", 
		 "properties": { 
			 "R2extent": 8190.8875, 
			 "electric_dipole_moment_norm": 3.60754774327, 
			 "electric_quadrupole_moment_norm": 8.12305314152, 
			 "total_energy": -2175.14259141, 
			 "HOMO_LUMO_gap": 0.17553, 
			 "cosmo_polarized_energy": -19.53, 
			 "cosmo_cavitation_energy": 39.33, 
			 "cosmo_dispersion_energy": -28.15, 
			 "cosmo_repulsion_energy": 2.11, 
			 "cosmo_total_nonelectrostatic_energy": 13.29, 
			 "SMD_solvation_energy": 6.54 
		},
		"coords": [
			{
				"x": -0.6378682812,
				"y": 1.3734829762,
				"z": 3.9330384519,
				"element": "O" 
			},
			{
				"x": -0.6539515685,
				"y": 0.8104423028,
				"z": 2.7128453583,
				"element": "C" 
			},
			{
				"x": -1.1818406592,
				"y": -0.2655791093,
				"z": 2.5031726339,
				"element": "O" 
			},
			{
				"x": 0.0274861386,
				"y": 1.598383236,
				"z": 1.6367134153,
				"element": "C" 
			},
			{
				"x": 0.6293211312,
				"y": 2.8675752525,
				"z": 1.7267464534,
				"element": "C" 
			},
			{
				"x": 0.6955332942,
				"y": 3.8180592228,
				"z": 3.189517528,
				"element": "Cl" 
			},
			{
				"x": 1.2198989633,
				"y": 3.4493670997,
				"z": 0.6014430632,
				"element": "C" 
			},
			{
				"x": 1.2246760661,
				"y": 2.7896317112,
				"z": -0.6243919697,
				"element": "C" 
			},
			{
				"x": 1.9834348918,
				"y": 3.585824502,
				"z": -1.9716239786,
				"element": "Cl" 
			},
			{
				"x": 0.6293449514,
				"y": 1.52210851,
				"z": -0.7403911021,
				"element": "C" 
			},
			{
				"x": 0.048240525,
				"y": 0.9598019549,
				"z": 0.3860661893,
				"element": "C" 
			},
			{
				"x": 0.6066209321,
				"y": 0.6197309915,
				"z": -2.3162299505,
				"element": "S" 
			},
			{
				"x": -0.219178783,
				"y": 1.3971542231,
				"z": -3.2410677016,
				"element": "O" 
			},
			{
				"x": 1.9957620359,
				"y": 0.2728697546,
				"z": -2.6247631451,
				"element": "O" 
			},
			{
				"x": -0.2201627633,
				"y": -0.7804183419,
				"z": -1.9544155623,
				"element": "N" 
			},
			{
				"x": 0.5085282365,
				"y": -2.052340182,
				"z": -1.7674556849,
				"element": "C" 
			},
			{
				"x": -0.1380490001,
				"y": -3.1348387193,
				"z": -2.626266354,
				"element": "C" 
			},
			{
				"x": -1.5144979101,
				"y": -3.3406186227,
				"z": -2.3155433158,
				"element": "O" 
			},
			{
				"x": -2.192003105,
				"y": -2.1947502988,
				"z": -1.8108226223,
				"element": "C" 
			},
			{
				"x": -1.6393730339,
				"y": -0.8822361027,
				"z": -2.35931275,
				"element": "C" 
			},
			{
				"x": -1.1094514632,
				"y": 0.753745383,
				"z": 4.5155121724,
				"element": "H" 
			},
			{
				"x": 1.6790996609,
				"y": 4.4265481249,
				"z": 0.6840804227,
				"element": "H" 
			},
			{
				"x": -0.4163745551,
				"y": -0.0157139641,
				"z": 0.3200299485,
				"element": "H" 
			},
			{
				"x": 0.4854831424,
				"y": -2.3458243664,
				"z": -0.7099916503,
				"element": "H" 
			},
			{
				"x": 1.5497536891,
				"y": -1.9124696622,
				"z": -2.0631707289,
				"element": "H" 
			},
			{
				"x": 0.3717752417,
				"y": -4.0897837896,
				"z": -2.4610383577,
				"element": "H" 
			},
			{
				"x": -0.0240599698,
				"y": -2.870630151,
				"z": -3.6883086252,
				"element": "H" 
			},
			{
				"x": -2.1490089848,
				"y": -2.1782197103,
				"z": -0.7105812178,
				"element": "H" 
			},
			{
				"x": -3.242706538,
				"y": -2.2934880799,
				"z": -2.1015582495,
				"element": "H" 
			},
			{
				"x": -2.2047845253,
				"y": -0.0432097992,
				"z": -1.9441362422,
				"element": "H" 
			},
			{
				"x": -1.7438477599,
				"y": -0.8475043456,
				"z": -3.4494964282,
				"element": "H" 
			}
		],
		 "valence_orbital": [ 
			{
				"type": "occ",
				"energy": -0.3003,
				"method": "rhf"
			},
			{
				"type": "occ",
				"energy": -0.28327,
				"method": "rhf"
			},
			{
				"type": "occ",
				"energy": -0.27389,
				"method": "rhf"
			},
			{
				"type": "occ",
				"energy": -0.26874,
				"method": "rhf"
			},
			{
				"type": "occ",
				"energy": -0.25788,
				"method": "rhf"
			},
			{
				"type": "unocc",
				"energy": -0.08235,
				"method": "rhf"
			},
			{
				"type": "unocc",
				"energy": -0.05271,
				"method": "rhf"
			},
			{
				"type": "unocc",
				"energy": -0.00835,
				"method": "rhf"
			},
			{
				"type": "unocc",
				"energy": 0.01628,
				"method": "rhf"
			},
			{
				"type": "unocc",
				"energy": 0.02649,
				"method": "rhf"
			}
		],
		"cosmo_sigma_profile": { 
			"-0.025": 0.0,
			"-0.024": 0.0,
			"-0.023": 0.0,
			"-0.022": 0.0,
			"-0.021": 0.0,
			"-0.02": 0.0,
			"-0.019": 0.729176854385,
			"-0.018": 0.946350441712,
			"-0.017": 0.728550721559,
			"-0.016": 0.94040898906,
			"-0.015": 0.570650792012,
			"-0.014": 0.301846552077,
			"-0.013": 0.667713466498,
			"-0.012": 1.48132806689,
			"-0.011": 0.793748842573,
			"-0.01": 0.700909834087,
			"-0.009": 1.7172740099,
			"-0.008": 2.32038024126,
			"-0.007": 4.78054422382,
			"-0.006": 18.5214600559,
			"-0.005": 30.003338,
			"-0.004": 28.9463128076,
			"-0.003": 27.0653583185,
			"-0.002": 31.5817111347,
			"-0.001": 23.1643781042,
			"0.0": 14.1560215648,
			"0.001": 13.9744961366,
			"0.002": 17.8232425971,
			"0.003": 16.401173097,
			"0.004": 10.2048639755,
			"0.005": 7.85702837717,
			"0.006": 7.47847698372,
			"0.007": 9.49101685413,
			"0.008": 8.17802125569,
			"0.009": 7.75377643358,
			"0.01": 13.7433161535,
			"0.011": 10.1961056453,
			"0.012": 2.3948421048,
			"0.013": 1.46486135755,
			"0.014": 0.130190815791,
			"0.015": 0.0,
			"0.016": 0.0,
			"0.017": 0.0,
			"0.018": 0.0,
			"0.019": 0.0,
			"0.02": 0.0,
			"0.021": 0.0,
			"0.022": 0.0,
			"0.023": 0.0,
			"0.024": 0.0,
			"0.0": 0.0
		}
	}
}
