{
	 "smiles": "CC1=CC2=C(N=C1)C(C(O)=O)=C(Cl)C=C2", 
	 "Tm": 526.15, 
	 "num_atms": 23, 
	 "gaussian": { 
		 "optdone": 1, 
		 "sigma_profile": "yes", 
		 "theory": "DFT", 
		 "functional": "B3LYP", 
		 "basiset": "6-31G**", 
		 "properties": { 
			 "R2extent": 3890.8083, 
			 "electric_dipole_moment_norm": 4.62246771865, 
			 "electric_quadrupole_moment_norm": 13.4749626356, 
			 "total_energy": -1089.40265847, 
			 "HOMO_LUMO_gap": 0.17401, 
			 "cosmo_polarized_energy": -14.47, 
			 "cosmo_cavitation_energy": 29.85, 
			 "cosmo_dispersion_energy": -21.58, 
			 "cosmo_repulsion_energy": 1.69, 
			 "cosmo_total_nonelectrostatic_energy": 9.96, 
			 "SMD_solvation_energy": 4.69 
		},
		"coords": [
			{
				"x": -0.171455849,
				"y": -4.3868570397,
				"z": -0.9282771172,
				"element": "C" 
			},
			{
				"x": 0.1349445757,
				"y": -2.9356701161,
				"z": -0.6617424042,
				"element": "C" 
			},
			{
				"x": 1.4178460459,
				"y": -2.4361691574,
				"z": -0.616160512,
				"element": "C" 
			},
			{
				"x": 1.6422325319,
				"y": -1.0590564819,
				"z": -0.3620570888,
				"element": "C" 
			},
			{
				"x": 0.4970881555,
				"y": -0.2325193107,
				"z": -0.1589133785,
				"element": "C" 
			},
			{
				"x": -0.7735427348,
				"y": -0.7251487126,
				"z": -0.2040026027,
				"element": "N" 
			},
			{
				"x": -0.9268674166,
				"y": -2.0090060116,
				"z": -0.4438008057,
				"element": "C" 
			},
			{
				"x": 0.6650073641,
				"y": 1.1603787816,
				"z": 0.0957819052,
				"element": "C" 
			},
			{
				"x": -0.5648062691,
				"y": 2.0144936517,
				"z": 0.2512886966,
				"element": "C" 
			},
			{
				"x": -1.0452927421,
				"y": 1.9717781431,
				"z": 1.5097692888,
				"element": "O" 
			},
			{
				"x": -1.0590280951,
				"y": 2.6685607456,
				"z": -0.6359861818,
				"element": "O" 
			},
			{
				"x": 1.9411610903,
				"y": 1.6814848911,
				"z": 0.1422246667,
				"element": "C" 
			},
			{
				"x": 2.1957965933,
				"y": 3.3870243189,
				"z": 0.4655995459,
				"element": "Cl" 
			},
			{
				"x": 3.0837684803,
				"y": 0.869196939,
				"z": -0.0548929316,
				"element": "C" 
			},
			{
				"x": 2.9332399599,
				"y": -0.4745831222,
				"z": -0.3033612325,
				"element": "C" 
			},
			{
				"x": -0.7254623851,
				"y": -4.8354514198,
				"z": -0.0957028622,
				"element": "H" 
			},
			{
				"x": -0.7902835536,
				"y": -4.5037836179,
				"z": -1.8253251283,
				"element": "H" 
			},
			{
				"x": 0.7437516911,
				"y": -4.9665824068,
				"z": -1.0737550018,
				"element": "H" 
			},
			{
				"x": 2.2718818013,
				"y": -3.0909363672,
				"z": -0.7757461704,
				"element": "H" 
			},
			{
				"x": -1.9553486324,
				"y": -2.3710829092,
				"z": -0.4742569984,
				"element": "H" 
			},
			{
				"x": -1.8419708612,
				"y": 2.5302362315,
				"z": 1.5142146472,
				"element": "H" 
			},
			{
				"x": 4.0670102066,
				"y": 1.3230983952,
				"z": -0.0061961496,
				"element": "H" 
			},
			{
				"x": 3.807730043,
				"y": -1.1009054248,
				"z": -0.4569021847,
				"element": "H" 
			}
		],
		 "valence_orbital": [ 
			{
				"type": "occ",
				"energy": -0.30424,
				"method": "rhf"
			},
			{
				"type": "occ",
				"energy": -0.27834,
				"method": "rhf"
			},
			{
				"type": "occ",
				"energy": -0.26508,
				"method": "rhf"
			},
			{
				"type": "occ",
				"energy": -0.25649,
				"method": "rhf"
			},
			{
				"type": "occ",
				"energy": -0.23906,
				"method": "rhf"
			},
			{
				"type": "unocc",
				"energy": -0.06505,
				"method": "rhf"
			},
			{
				"type": "unocc",
				"energy": -0.0307,
				"method": "rhf"
			},
			{
				"type": "unocc",
				"energy": 0.00074,
				"method": "rhf"
			},
			{
				"type": "unocc",
				"energy": 0.01301,
				"method": "rhf"
			},
			{
				"type": "unocc",
				"energy": 0.02589,
				"method": "rhf"
			}
		],
		"cosmo_sigma_profile": { 
			"-0.025": 0.0,
			"-0.024": 0.0,
			"-0.023": 0.0,
			"-0.022": 0.0,
			"-0.021": 0.0,
			"-0.02": 0.0,
			"-0.019": 0.425785344555,
			"-0.018": 0.936857148454,
			"-0.017": 1.13464595799,
			"-0.016": 0.655469878081,
			"-0.015": 0.59972161385,
			"-0.014": 1.05012070001,
			"-0.013": 0.329838173628,
			"-0.012": 0.293730417706,
			"-0.011": 0.883092458048,
			"-0.01": 0.641999952788,
			"-0.009": 0.830597266782,
			"-0.008": 4.3582781766,
			"-0.007": 9.92195704976,
			"-0.006": 10.0010871166,
			"-0.005": 13.1935407135,
			"-0.004": 13.8098172899,
			"-0.003": 13.0264417558,
			"-0.002": 14.9888313197,
			"-0.001": 17.6991325857,
			"0.0": 26.2437787245,
			"0.001": 28.2637008005,
			"0.002": 18.7487687607,
			"0.003": 13.0229957078,
			"0.004": 11.1001513554,
			"0.005": 4.69119040826,
			"0.006": 3.9654042893,
			"0.007": 5.60742606516,
			"0.008": 5.11009583209,
			"0.009": 5.21071528256,
			"0.01": 5.18336995374,
			"0.011": 6.62774205731,
			"0.012": 2.51218715432,
			"0.013": 0.185387442858,
			"0.014": 0.0,
			"0.015": 0.0,
			"0.016": 0.0,
			"0.017": 0.0,
			"0.018": 0.0,
			"0.019": 0.0,
			"0.02": 0.0,
			"0.021": 0.0,
			"0.022": 0.0,
			"0.023": 0.0,
			"0.024": 0.0,
			"0.025": 0.0
		}
	}
}
