{
	 "smiles": "COC1=CC(=CC=C1)C1=NN(C=C1C(O)=O)C1=CC=C(C)C=C1", 
	 "Tm": 436.15, 
	 "num_atms": 39, 
	 "gaussian": { 
		 "optdone": 1, 
		 "sigma_profile": "yes", 
		 "theory": "DFT", 
		 "functional": "B3LYP", 
		 "basiset": "6-31G**", 
		 "properties": { 
			 "R2extent": 10242.3571, 
			 "electric_dipole_moment_norm": 2.07357654549, 
			 "electric_quadrupole_moment_norm": 21.8366779252, 
			 "total_energy": -1030.73260568, 
			 "HOMO_LUMO_gap": 0.17091, 
			 "cosmo_polarized_energy": -15.97, 
			 "cosmo_cavitation_energy": 44.0, 
			 "cosmo_dispersion_energy": -31.12, 
			 "cosmo_repulsion_energy": 2.35, 
			 "cosmo_total_nonelectrostatic_energy": 15.24, 
			 "SMD_solvation_energy": 8.85 
		},
		"coords": [
			{
				"x": 1.5467917933,
				"y": 0.4706419824,
				"z": 5.386052699,
				"element": "C" 
			},
			{
				"x": 0.5394274291,
				"y": -0.5244624818,
				"z": 5.3124830444,
				"element": "O" 
			},
			{
				"x": 0.1388557477,
				"y": -0.9475567959,
				"z": 4.075788654,
				"element": "C" 
			},
			{
				"x": 0.6456962326,
				"y": -0.4495497814,
				"z": 2.8728155274,
				"element": "C" 
			},
			{
				"x": 0.1717564788,
				"y": -0.9516546754,
				"z": 1.6498897904,
				"element": "C" 
			},
			{
				"x": -0.8213257506,
				"y": -1.9404648941,
				"z": 1.6437071562,
				"element": "C" 
			},
			{
				"x": -1.3221884482,
				"y": -2.4284934769,
				"z": 2.8517511555,
				"element": "C" 
			},
			{
				"x": -0.849431997,
				"y": -1.9422504882,
				"z": 4.0655086551,
				"element": "C" 
			},
			{
				"x": 0.6536985023,
				"y": -0.4119757944,
				"z": 0.3598916071,
				"element": "C" 
			},
			{
				"x": -0.2338020287,
				"y": -0.2647110032,
				"z": -0.6245601463,
				"element": "N" 
			},
			{
				"x": 0.4559028789,
				"y": 0.2334592813,
				"z": -1.6872705608,
				"element": "N" 
			},
			{
				"x": 1.7618386561,
				"y": 0.4164496731,
				"z": -1.3958938077,
				"element": "C" 
			},
			{
				"x": 1.9552934321,
				"y": 0.0072179091,
				"z": -0.0849553567,
				"element": "C" 
			},
			{
				"x": 3.3063604926,
				"y": 0.0094878121,
				"z": 0.4873710607,
				"element": "C" 
			},
			{
				"x": 3.4008043959,
				"y": -0.5249207092,
				"z": 1.7302965842,
				"element": "O" 
			},
			{
				"x": 4.2871320454,
				"y": 0.4353753803,
				"z": -0.0978148948,
				"element": "O" 
			},
			{
				"x": -0.2242893128,
				"y": 0.5174550758,
				"z": -2.9047247023,
				"element": "C" 
			},
			{
				"x": 0.4834380187,
				"y": 0.6226537759,
				"z": -4.1048708831,
				"element": "C" 
			},
			{
				"x": -0.1993898011,
				"y": 0.9228447096,
				"z": -5.2822842921,
				"element": "C" 
			},
			{
				"x": -1.5875696402,
				"y": 1.1053609429,
				"z": -5.2965263131,
				"element": "C" 
			},
			{
				"x": -2.3256571786,
				"y": 1.3953357599,
				"z": -6.5816144758,
				"element": "C" 
			},
			{
				"x": -2.2753055346,
				"y": 0.982344979,
				"z": -4.0806706007,
				"element": "C" 
			},
			{
				"x": -1.611242261,
				"y": 0.694251178,
				"z": -2.8921223749,
				"element": "C" 
			},
			{
				"x": 1.7317334482,
				"y": 0.6350519957,
				"z": 6.4489507629,
				"element": "H" 
			},
			{
				"x": 2.4762689957,
				"y": 0.1433542244,
				"z": 4.9025153465,
				"element": "H" 
			},
			{
				"x": 1.2209856916,
				"y": 1.4137310519,
				"z": 4.9277329846,
				"element": "H" 
			},
			{
				"x": 1.4041270524,
				"y": 0.3196900785,
				"z": 2.8692125294,
				"element": "H" 
			},
			{
				"x": -1.1893035782,
				"y": -2.3173090483,
				"z": 0.6964335057,
				"element": "H" 
			},
			{
				"x": -2.0873510673,
				"y": -3.1995273398,
				"z": 2.845855244,
				"element": "H" 
			},
			{
				"x": -1.2249020576,
				"y": -2.3121232371,
				"z": 5.0139771979,
				"element": "H" 
			},
			{
				"x": 2.4786912426,
				"y": 0.819526871,
				"z": -2.0930507884,
				"element": "H" 
			},
			{
				"x": 4.3459676272,
				"y": -0.4818978243,
				"z": 1.9527483856,
				"element": "H" 
			},
			{
				"x": 1.5552937025,
				"y": 0.4576655341,
				"z": -4.1320577103,
				"element": "H" 
			},
			{
				"x": 0.3614668197,
				"y": 1.0049266497,
				"z": -6.2095301207,
				"element": "H" 
			},
			{
				"x": -3.1493781373,
				"y": 2.0976600266,
				"z": -6.4197352724,
				"element": "H" 
			},
			{
				"x": -1.6608170947,
				"y": 1.8222320323,
				"z": -7.3379341443,
				"element": "H" 
			},
			{
				"x": -2.7591954302,
				"y": 0.4807089742,
				"z": -7.0051519907,
				"element": "H" 
			},
			{
				"x": -3.3531439572,
				"y": 1.122071977,
				"z": -4.0600828267,
				"element": "H" 
			},
			{
				"x": -2.1455374082,
				"y": 0.6042996755,
				"z": -1.9544306285,
				"element": "H" 
			}
		],
		 "valence_orbital": [ 
			{
				"type": "occ",
				"energy": -0.26456,
				"method": "rhf"
			},
			{
				"type": "occ",
				"energy": -0.26073,
				"method": "rhf"
			},
			{
				"type": "occ",
				"energy": -0.24478,
				"method": "rhf"
			},
			{
				"type": "occ",
				"energy": -0.22519,
				"method": "rhf"
			},
			{
				"type": "occ",
				"energy": -0.21049,
				"method": "rhf"
			},
			{
				"type": "unocc",
				"energy": -0.03958,
				"method": "rhf"
			},
			{
				"type": "unocc",
				"energy": -0.02818,
				"method": "rhf"
			},
			{
				"type": "unocc",
				"energy": -0.01218,
				"method": "rhf"
			},
			{
				"type": "unocc",
				"energy": 0.01169,
				"method": "rhf"
			},
			{
				"type": "unocc",
				"energy": 0.01791,
				"method": "rhf"
			}
		],
		"cosmo_sigma_profile": { 
			"-0.025": 0.0,
			"-0.024": 0.0,
			"-0.023": 0.0,
			"-0.022": 0.0,
			"-0.021": 0.0,
			"-0.02": 0.0,
			"-0.019": 0.0417040134475,
			"-0.018": 0.584452926296,
			"-0.017": 0.781911542037,
			"-0.016": 1.13927679648,
			"-0.015": 0.768449561654,
			"-0.014": 0.544777107089,
			"-0.013": 0.37128032771,
			"-0.012": 0.378383600924,
			"-0.011": 1.18341842896,
			"-0.01": 3.10872737602,
			"-0.009": 2.28427469506,
			"-0.008": 2.95727949912,
			"-0.007": 2.53050570158,
			"-0.006": 13.1253868886,
			"-0.005": 24.1710090737,
			"-0.004": 30.7888551089,
			"-0.003": 30.2780042761,
			"-0.002": 26.9184082093,
			"-0.001": 26.5420316707,
			"0.0": 29.3516665593,
			"0.001": 26.1145215302,
			"0.002": 21.0678651888,
			"0.003": 22.6800821591,
			"0.004": 25.2880112798,
			"0.005": 19.8071138381,
			"0.006": 8.96410545638,
			"0.007": 5.34255275507,
			"0.008": 6.03623135111,
			"0.009": 4.845755906,
			"0.01": 4.58290001944,
			"0.011": 3.41713365781,
			"0.012": 5.24313782234,
			"0.013": 0.49206747284,
			"0.014": 0.0,
			"0.015": 0.0,
			"0.016": 0.0,
			"0.017": 0.0,
			"0.018": 0.0,
			"0.019": 0.0,
			"0.02": 0.0,
			"0.021": 0.0,
			"0.022": 0.0,
			"0.023": 0.0,
			"0.024": 0.0,
			"0.025": 0.0
		}
	}
}
