{
	 "smiles": "ClC(N(=O)=O)(N(=O)=O)N(=O)=O", 
	 "Tm": 277.65, 
	 "num_atms": 11, 
	 "gaussian": { 
		 "optdone": 1, 
		 "sigma_profile": "yes", 
		 "theory": "DFT", 
		 "functional": "B3LYP", 
		 "basiset": "6-31G**", 
		 "properties": { 
			 "R2extent": 2400.4316, 
			 "electric_dipole_moment_norm": 2.1557000951, 
			 "electric_quadrupole_moment_norm": 5.69592674812, 
			 "total_energy": -1113.51690669, 
			 "HOMO_LUMO_gap": 0.21759, 
			 "cosmo_polarized_energy": -6.53, 
			 "cosmo_cavitation_energy": 20.51, 
			 "cosmo_dispersion_energy": -14.2, 
			 "cosmo_repulsion_energy": 1.15, 
			 "cosmo_total_nonelectrostatic_energy": 7.46, 
			 "SMD_solvation_energy": 9.76 
		},
		"coords": [
			{
				"x": 0.5379009055,
				"y": 0.5082944346,
				"z": -2.4015886151,
				"element": "Cl" 
			},
			{
				"x": -0.7565837832,
				"y": 0.7991108258,
				"z": -1.3035911128,
				"element": "C" 
			},
			{
				"x": -1.9846367813,
				"y": -0.1184207841,
				"z": -1.58696669,
				"element": "N" 
			},
			{
				"x": -1.7222402146,
				"y": -1.2755279189,
				"z": -1.8376496215,
				"element": "O" 
			},
			{
				"x": -3.069981805,
				"y": 0.4231713309,
				"z": -1.5014453161,
				"element": "O" 
			},
			{
				"x": -0.3397224276,
				"y": 0.5441414278,
				"z": 0.1767609121,
				"element": "N" 
			},
			{
				"x": 0.7550639849,
				"y": 0.9625934029,
				"z": 0.4880952564,
				"element": "O" 
			},
			{
				"x": -1.1671429382,
				"y": -0.0285341578,
				"z": 0.8594255562,
				"element": "O" 
			},
			{
				"x": -1.2700624791,
				"y": 2.269196259,
				"z": -1.3770026608,
				"element": "N" 
			},
			{
				"x": -1.3773964553,
				"y": 2.7272205701,
				"z": -2.4947180062,
				"element": "O" 
			},
			{
				"x": -1.521498006,
				"y": 2.7870546098,
				"z": -0.3059197024,
				"element": "O" 
			}
		],
		 "valence_orbital": [ 
			{
				"type": "occ",
				"energy": -0.35933,
				"method": "rhf"
			},
			{
				"type": "occ",
				"energy": -0.35662,
				"method": "rhf"
			},
			{
				"type": "occ",
				"energy": -0.35661,
				"method": "rhf"
			},
			{
				"type": "occ",
				"energy": -0.3491,
				"method": "rhf"
			},
			{
				"type": "occ",
				"energy": -0.34909,
				"method": "rhf"
			},
			{
				"type": "unocc",
				"energy": -0.1315,
				"method": "rhf"
			},
			{
				"type": "unocc",
				"energy": -0.13131,
				"method": "rhf"
			},
			{
				"type": "unocc",
				"energy": -0.13054,
				"method": "rhf"
			},
			{
				"type": "unocc",
				"energy": -0.029,
				"method": "rhf"
			},
			{
				"type": "unocc",
				"energy": 0.02888,
				"method": "rhf"
			}
		],
		"cosmo_sigma_profile": { 
			"-0.025": 0.0,
			"-0.024": 0.0,
			"-0.023": 0.0,
			"-0.022": 0.0,
			"-0.021": 0.0,
			"-0.02": 0.0,
			"-0.019": 0.0,
			"-0.018": 0.0,
			"-0.017": 0.0,
			"-0.016": 0.0,
			"-0.015": 0.0,
			"-0.014": 0.0,
			"-0.013": 0.547740506927,
			"-0.012": 2.21667210888,
			"-0.011": 1.68849559942,
			"-0.01": 1.38718663613,
			"-0.009": 2.96237991175,
			"-0.008": 3.30586130714,
			"-0.007": 4.08860266534,
			"-0.006": 3.63645715187,
			"-0.005": 5.02987690825,
			"-0.004": 6.96853427451,
			"-0.003": 9.85020961365,
			"-0.002": 13.0893423369,
			"-0.001": 12.9805953342,
			"0.0": 11.6175321673,
			"0.001": 11.7568037763,
			"0.002": 14.0591024241,
			"0.003": 20.1261432293,
			"0.004": 25.3615742498,
			"0.005": 12.2286514585,
			"0.006": 4.46922380881,
			"0.007": 0.0,
			"0.008": 0.0,
			"0.009": 0.0,
			"0.01": 0.0,
			"0.011": 0.0,
			"0.012": 0.0,
			"0.013": 0.0,
			"0.014": 0.0,
			"0.015": 0.0,
			"0.016": 0.0,
			"0.017": 0.0,
			"0.018": 0.0,
			"0.019": 0.0,
			"0.02": 0.0,
			"0.021": 0.0,
			"0.022": 0.0,
			"0.023": 0.0,
			"0.024": 0.0,
			"0.025": 0.0
		}
	}
}
