{
	 "smiles": "SC1=NN=NN1C1CCOCC1", 
	 "Tm": 428.15, 
	 "num_atms": 22, 
	 "gaussian": { 
		 "optdone": 1, 
		 "sigma_profile": "yes", 
		 "theory": "DFT", 
		 "functional": "B3LYP", 
		 "basiset": "6-31G**", 
		 "properties": { 
			 "R2extent": 2601.4011, 
			 "electric_dipole_moment_norm": 3.99786838828, 
			 "electric_quadrupole_moment_norm": 25.3580387791, 
			 "total_energy": -927.0121794, 
			 "HOMO_LUMO_gap": 0.2454, 
			 "cosmo_polarized_energy": -14.87, 
			 "cosmo_cavitation_energy": 26.04, 
			 "cosmo_dispersion_energy": -19.81, 
			 "cosmo_repulsion_energy": 1.53, 
			 "cosmo_total_nonelectrostatic_energy": 7.76, 
			 "SMD_solvation_energy": 1.79 
		},
		"coords": [
			{
				"x": 2.0478194621,
				"y": 1.4391711452,
				"z": 1.3129015012,
				"element": "S" 
			},
			{
				"x": 0.6063372427,
				"y": 2.2495288605,
				"z": 0.7081611583,
				"element": "C" 
			},
			{
				"x": 0.3042381056,
				"y": 3.519681499,
				"z": 0.9281154037,
				"element": "N" 
			},
			{
				"x": -0.8764271877,
				"y": 3.7310822757,
				"z": 0.2907278356,
				"element": "N" 
			},
			{
				"x": -1.2919760099,
				"y": 2.6617225222,
				"z": -0.2952761258,
				"element": "N" 
			},
			{
				"x": -0.3659347429,
				"y": 1.6893210393,
				"z": -0.0488464209,
				"element": "N" 
			},
			{
				"x": -0.5745201432,
				"y": 0.3413603415,
				"z": -0.5969867873,
				"element": "C" 
			},
			{
				"x": 0.5203095967,
				"y": -0.0656306645,
				"z": -1.5952526707,
				"element": "C" 
			},
			{
				"x": 0.2336466834,
				"y": -1.4840288844,
				"z": -2.1059137902,
				"element": "C" 
			},
			{
				"x": 0.1312486392,
				"y": -2.4151031939,
				"z": -1.0392262985,
				"element": "O" 
			},
			{
				"x": -0.933414302,
				"y": -2.0956646838,
				"z": -0.1562952937,
				"element": "C" 
			},
			{
				"x": -0.733747905,
				"y": -0.7229564708,
				"z": 0.4997955504,
				"element": "C" 
			},
			{
				"x": 2.4909056402,
				"y": 2.552174657,
				"z": 1.9289619311,
				"element": "H" 
			},
			{
				"x": -1.5233301498,
				"y": 0.4378768363,
				"z": -1.1346383601,
				"element": "H" 
			},
			{
				"x": 0.5530964167,
				"y": 0.6413537446,
				"z": -2.4314217186,
				"element": "H" 
			},
			{
				"x": 1.501799335,
				"y": -0.055737015,
				"z": -1.108905313,
				"element": "H" 
			},
			{
				"x": -0.6948987408,
				"y": -1.4866245685,
				"z": -2.7029183162,
				"element": "H" 
			},
			{
				"x": 1.0462301662,
				"y": -1.8349075467,
				"z": -2.7473301155,
				"element": "H" 
			},
			{
				"x": -0.9572459723,
				"y": -2.8849506256,
				"z": 0.5995458737,
				"element": "H" 
			},
			{
				"x": -1.8951136128,
				"y": -2.1156603025,
				"z": -0.697905465,
				"element": "H" 
			},
			{
				"x": -1.5864900353,
				"y": -0.4800723228,
				"z": 1.1431475706,
				"element": "H" 
			},
			{
				"x": 0.162167514,
				"y": -0.7579366427,
				"z": 1.129159851,
				"element": "H" 
			}
		],
		 "valence_orbital": [ 
			{
				"type": "occ",
				"energy": -0.30698,
				"method": "rhf"
			},
			{
				"type": "occ",
				"energy": -0.29711,
				"method": "rhf"
			},
			{
				"type": "occ",
				"energy": -0.28631,
				"method": "rhf"
			},
			{
				"type": "occ",
				"energy": -0.27205,
				"method": "rhf"
			},
			{
				"type": "occ",
				"energy": -0.26006,
				"method": "rhf"
			},
			{
				"type": "unocc",
				"energy": -0.01466,
				"method": "rhf"
			},
			{
				"type": "unocc",
				"energy": -0.00917,
				"method": "rhf"
			},
			{
				"type": "unocc",
				"energy": 0.02023,
				"method": "rhf"
			},
			{
				"type": "unocc",
				"energy": 0.04234,
				"method": "rhf"
			},
			{
				"type": "unocc",
				"energy": 0.07065,
				"method": "rhf"
			}
		],
		"cosmo_sigma_profile": { 
			"-0.025": 0.0,
			"-0.024": 0.0,
			"-0.023": 0.0,
			"-0.022": 0.0,
			"-0.021": 0.0,
			"-0.02": 0.0,
			"-0.019": 0.0,
			"-0.018": 0.0,
			"-0.017": 0.0,
			"-0.016": 0.0,
			"-0.015": 0.0,
			"-0.014": 0.0281751179038,
			"-0.013": 1.22619988567,
			"-0.012": 1.59014996991,
			"-0.011": 1.4686517261,
			"-0.01": 1.09645633557,
			"-0.009": 1.1363629533,
			"-0.008": 1.68134759347,
			"-0.007": 5.02247563526,
			"-0.006": 7.59518813677,
			"-0.005": 21.217667768,
			"-0.004": 28.3342649252,
			"-0.003": 23.5377477253,
			"-0.002": 18.8828395724,
			"-0.001": 10.7525114063,
			"0.0": 9.93084151549,
			"0.001": 8.17808191731,
			"0.002": 6.16870098256,
			"0.003": 6.00984614443,
			"0.004": 5.12226016819,
			"0.005": 5.91700761029,
			"0.006": 4.45598454887,
			"0.007": 4.50134105058,
			"0.008": 6.18106600544,
			"0.009": 6.01027146634,
			"0.01": 6.03032999125,
			"0.011": 5.78782925941,
			"0.012": 4.26981489835,
			"0.013": 4.01449063258,
			"0.014": 1.47707345777,
			"0.015": 0.247994599915,
			"0.016": 0.0,
			"0.017": 0.0,
			"0.018": 0.0,
			"0.019": 0.0,
			"0.02": 0.0,
			"0.021": 0.0,
			"0.022": 0.0,
			"0.023": 0.0,
			"0.024": 0.0,
			"0.025": 0.0
		}
	}
}
