{
	 "smiles": "ClCC(Cl)(Cl)Cl", 
	 "Tm": 203.05, 
	 "num_atms": 8, 
	 "gaussian": { 
		 "optdone": 1, 
		 "sigma_profile": "yes", 
		 "theory": "DFT", 
		 "functional": "B3LYP", 
		 "basiset": "6-31G**", 
		 "properties": { 
			 "R2extent": 2246.5375, 
			 "electric_dipole_moment_norm": 1.57078943847, 
			 "electric_quadrupole_moment_norm": 3.01862068667, 
			 "total_energy": -1918.17112777, 
			 "HOMO_LUMO_gap": 0.2621, 
			 "cosmo_polarized_energy": -4.71, 
			 "cosmo_cavitation_energy": 18.67, 
			 "cosmo_dispersion_energy": -14.28, 
			 "cosmo_repulsion_energy": 1.22, 
			 "cosmo_total_nonelectrostatic_energy": 5.61, 
			 "SMD_solvation_energy": 1.93 
		},
		"coords": [
			{
				"x": -2.1405575531,
				"y": 1.1085429287,
				"z": 0.0825502028,
				"element": "Cl" 
			},
			{
				"x": -0.9498204903,
				"y": -0.1831290574,
				"z": -0.2761162216,
				"element": "C" 
			},
			{
				"x": -1.1610447541,
				"y": -1.4716194241,
				"z": 0.5308934672,
				"element": "C" 
			},
			{
				"x": -2.7591539458,
				"y": -2.2058200022,
				"z": 0.1808550903,
				"element": "Cl" 
			},
			{
				"x": 0.1442196034,
				"y": -2.6079663083,
				"z": 0.0005367061,
				"element": "Cl" 
			},
			{
				"x": -1.0014175558,
				"y": -1.1719980678,
				"z": 2.2916652636,
				"element": "Cl" 
			},
			{
				"x": -1.0272389126,
				"y": -0.4227078483,
				"z": -1.3364500942,
				"element": "H" 
			},
			{
				"x": 0.0427136084,
				"y": 0.2067977793,
				"z": -0.0513344142,
				"element": "H" 
			}
		],
		 "valence_orbital": [ 
			{
				"type": "occ",
				"energy": -0.33387,
				"method": "rhf"
			},
			{
				"type": "occ",
				"energy": -0.33057,
				"method": "rhf"
			},
			{
				"type": "occ",
				"energy": -0.32043,
				"method": "rhf"
			},
			{
				"type": "occ",
				"energy": -0.32035,
				"method": "rhf"
			},
			{
				"type": "occ",
				"energy": -0.31465,
				"method": "rhf"
			},
			{
				"type": "unocc",
				"energy": -0.05255,
				"method": "rhf"
			},
			{
				"type": "unocc",
				"energy": -0.02946,
				"method": "rhf"
			},
			{
				"type": "unocc",
				"energy": -0.00566,
				"method": "rhf"
			},
			{
				"type": "unocc",
				"energy": 0.02722,
				"method": "rhf"
			},
			{
				"type": "unocc",
				"energy": 0.0983,
				"method": "rhf"
			}
		],
		"cosmo_sigma_profile": { 
			"-0.025": 0.0,
			"-0.024": 0.0,
			"-0.023": 0.0,
			"-0.022": 0.0,
			"-0.021": 0.0,
			"-0.02": 0.0,
			"-0.019": 0.0,
			"-0.018": 0.0,
			"-0.017": 0.0,
			"-0.016": 0.0,
			"-0.015": 0.0,
			"-0.014": 0.0,
			"-0.013": 0.0,
			"-0.012": 0.0,
			"-0.011": 0.390839112015,
			"-0.01": 3.70073937405,
			"-0.009": 3.23976359111,
			"-0.008": 4.46630634781,
			"-0.007": 3.62785250826,
			"-0.006": 3.74636516443,
			"-0.005": 3.470944329,
			"-0.004": 5.50405357558,
			"-0.003": 7.45821672675,
			"-0.002": 9.30801522736,
			"-0.001": 9.09273294327,
			"0.0": 13.6679717402,
			"0.001": 14.8066830211,
			"0.002": 26.3115212775,
			"0.003": 29.1493461214,
			"0.004": 10.8323104139,
			"0.005": 8.47105458206,
			"0.006": 0.309224655169,
			"0.007": 0.0,
			"0.008": 0.0,
			"0.009": 0.0,
			"0.01": 0.0,
			"0.011": 0.0,
			"0.012": 0.0,
			"0.013": 0.0,
			"0.014": 0.0,
			"0.015": 0.0,
			"0.016": 0.0,
			"0.017": 0.0,
			"0.018": 0.0,
			"0.019": 0.0,
			"0.02": 0.0,
			"0.021": 0.0,
			"0.022": 0.0,
			"0.023": 0.0,
			"0.024": 0.0,
			"0.025": 0.0
		}
	}
}
