{
	 "smiles": "COC(=O)C1=C(NC(=O)OCC(F)(F)F)C=CC=C1", 
	 "Tm": 360.15, 
	 "num_atms": 29, 
	 "gaussian": { 
		 "optdone": 1, 
		 "sigma_profile": "yes", 
		 "theory": "DFT", 
		 "functional": "B3LYP", 
		 "basiset": "6-31G**", 
		 "properties": { 
			 "R2extent": 7815.7086, 
			 "electric_dipole_moment_norm": 3.28133991382, 
			 "electric_quadrupole_moment_norm": 10.759227746, 
			 "total_energy": -1080.40518109, 
			 "HOMO_LUMO_gap": 0.17344, 
			 "cosmo_polarized_energy": -10.84, 
			 "cosmo_cavitation_energy": 35.89, 
			 "cosmo_dispersion_energy": -24.98, 
			 "cosmo_repulsion_energy": 1.86, 
			 "cosmo_total_nonelectrostatic_energy": 12.77, 
			 "SMD_solvation_energy": 9.79 
		},
		"coords": [
			{
				"x": 0.4271323261,
				"y": -4.8215456905,
				"z": 0.0436552092,
				"element": "C" 
			},
			{
				"x": 0.6539107658,
				"y": -3.5779863026,
				"z": -0.6406160723,
				"element": "O" 
			},
			{
				"x": -0.1350319524,
				"y": -2.5535896468,
				"z": -0.2618673926,
				"element": "C" 
			},
			{
				"x": -0.9862085412,
				"y": -2.6948244257,
				"z": 0.6115981068,
				"element": "O" 
			},
			{
				"x": 0.1437850625,
				"y": -1.299166172,
				"z": -1.0023201768,
				"element": "C" 
			},
			{
				"x": -0.5896362964,
				"y": -0.1014678031,
				"z": -0.7445075295,
				"element": "C" 
			},
			{
				"x": -1.5890277728,
				"y": -0.1403213752,
				"z": 0.234642874,
				"element": "N" 
			},
			{
				"x": -2.4661231943,
				"y": 0.7902792268,
				"z": 0.7300861779,
				"element": "C" 
			},
			{
				"x": -3.2737337703,
				"y": 0.5436881101,
				"z": 1.6042464348,
				"element": "O" 
			},
			{
				"x": -2.3511064879,
				"y": 2.0186557575,
				"z": 0.1535591797,
				"element": "O" 
			},
			{
				"x": -3.2560068292,
				"y": 2.9940109248,
				"z": 0.6606010181,
				"element": "C" 
			},
			{
				"x": -2.9764479151,
				"y": 4.2743360357,
				"z": -0.1002460716,
				"element": "C" 
			},
			{
				"x": -1.7096566574,
				"y": 4.6946893629,
				"z": 0.0782494012,
				"element": "F" 
			},
			{
				"x": -3.1726942183,
				"y": 4.1215977731,
				"z": -1.4236403283,
				"element": "F" 
			},
			{
				"x": -3.8060254463,
				"y": 5.2425922564,
				"z": 0.3384133455,
				"element": "F" 
			},
			{
				"x": -0.268927395,
				"y": 1.050774686,
				"z": -1.4865813495,
				"element": "C" 
			},
			{
				"x": 0.7369785863,
				"y": 1.0188619988,
				"z": -2.4453822545,
				"element": "C" 
			},
			{
				"x": 1.4579068403,
				"y": -0.1496957381,
				"z": -2.7023584748,
				"element": "C" 
			},
			{
				"x": 1.1545931866,
				"y": -1.2936853188,
				"z": -1.9799077573,
				"element": "C" 
			},
			{
				"x": 0.596144582,
				"y": -4.7062387782,
				"z": 1.1168427984,
				"element": "H" 
			},
			{
				"x": -0.5963128226,
				"y": -5.168105572,
				"z": -0.1177314819,
				"element": "H" 
			},
			{
				"x": 1.1426507098,
				"y": -5.5226093562,
				"z": -0.3851748809,
				"element": "H" 
			},
			{
				"x": -1.6929551715,
				"y": -1.055068926,
				"z": 0.6800624406,
				"element": "H" 
			},
			{
				"x": -3.09958261,
				"y": 3.1626064097,
				"z": 1.7288775352,
				"element": "H" 
			},
			{
				"x": -4.2941925104,
				"y": 2.693252188,
				"z": 0.5000569347,
				"element": "H" 
			},
			{
				"x": -0.808769425,
				"y": 1.9676752434,
				"z": -1.3095544064,
				"element": "H" 
			},
			{
				"x": 0.9573958428,
				"y": 1.927143496,
				"z": -2.9991086962,
				"element": "H" 
			},
			{
				"x": 2.2414881815,
				"y": -0.1655577873,
				"z": -3.4526561023,
				"element": "H" 
			},
			{
				"x": 1.6979529324,
				"y": -2.2131005766,
				"z": -2.1588384813,
				"element": "H" 
			}
		],
		 "valence_orbital": [ 
			{
				"type": "occ",
				"energy": -0.31183,
				"method": "rhf"
			},
			{
				"type": "occ",
				"energy": -0.28999,
				"method": "rhf"
			},
			{
				"type": "occ",
				"energy": -0.28902,
				"method": "rhf"
			},
			{
				"type": "occ",
				"energy": -0.26702,
				"method": "rhf"
			},
			{
				"type": "occ",
				"energy": -0.22987,
				"method": "rhf"
			},
			{
				"type": "unocc",
				"energy": -0.05643,
				"method": "rhf"
			},
			{
				"type": "unocc",
				"energy": -0.01561,
				"method": "rhf"
			},
			{
				"type": "unocc",
				"energy": 0.04702,
				"method": "rhf"
			},
			{
				"type": "unocc",
				"energy": 0.05345,
				"method": "rhf"
			},
			{
				"type": "unocc",
				"energy": 0.08092,
				"method": "rhf"
			}
		],
		"cosmo_sigma_profile": { 
			"-0.025": 0.0,
			"-0.024": 0.0,
			"-0.023": 0.0,
			"-0.022": 0.0,
			"-0.021": 0.0,
			"-0.02": 0.0,
			"-0.019": 0.0,
			"-0.018": 0.0,
			"-0.017": 0.0,
			"-0.016": 0.0,
			"-0.015": 0.0,
			"-0.014": 0.0,
			"-0.013": 0.0,
			"-0.012": 0.0,
			"-0.011": 0.0,
			"-0.01": 0.577233691377,
			"-0.009": 4.1670693222,
			"-0.008": 4.186220769,
			"-0.007": 6.22629285657,
			"-0.006": 14.103773978,
			"-0.005": 17.9855917486,
			"-0.004": 18.9344502093,
			"-0.003": 21.6505982137,
			"-0.002": 21.4361587235,
			"-0.001": 21.5703326654,
			"0.0": 20.0205798936,
			"0.001": 24.197204085,
			"0.002": 41.182344102,
			"0.003": 32.5947804685,
			"0.004": 10.9656615443,
			"0.005": 4.32194209964,
			"0.006": 1.95499975722,
			"0.007": 2.12440848314,
			"0.008": 3.42779239185,
			"0.009": 2.52863277395,
			"0.01": 3.41781678854,
			"0.011": 4.21167988488,
			"0.012": 5.22148395256,
			"0.013": 0.557852092079,
			"0.014": 0.0,
			"0.015": 0.0,
			"0.016": 0.0,
			"0.017": 0.0,
			"0.018": 0.0,
			"0.019": 0.0,
			"0.02": 0.0,
			"0.021": 0.0,
			"0.022": 0.0,
			"0.023": 0.0,
			"0.024": 0.0,
			"0.025": 0.0
		}
	}
}
