{
	 "smiles": "ClC1=NC(=CC=N1)N1CCCC1", 
	 "Tm": 395.15, 
	 "num_atms": 22, 
	 "gaussian": { 
		 "optdone": 1, 
		 "sigma_profile": "yes", 
		 "theory": "DFT", 
		 "functional": "B3LYP", 
		 "basiset": "6-31G**", 
		 "properties": { 
			 "R2extent": 2846.8842, 
			 "electric_dipole_moment_norm": 6.37718201402, 
			 "electric_quadrupole_moment_norm": 5.22563035336, 
			 "total_energy": -935.334149446, 
			 "HOMO_LUMO_gap": 0.19874, 
			 "cosmo_polarized_energy": -11.0, 
			 "cosmo_cavitation_energy": 26.51, 
			 "cosmo_dispersion_energy": -20.16, 
			 "cosmo_repulsion_energy": 1.63, 
			 "cosmo_total_nonelectrostatic_energy": 7.98, 
			 "SMD_solvation_energy": 0.63 
		},
		"coords": [
			{
				"x": -2.1420413491,
				"y": -1.9392429909,
				"z": 2.0088574521,
				"element": "Cl" 
			},
			{
				"x": -1.73397421,
				"y": -0.4757165523,
				"z": 1.1123203006,
				"element": "C" 
			},
			{
				"x": -0.5447994716,
				"y": -0.4875576136,
				"z": 0.5369196591,
				"element": "N" 
			},
			{
				"x": -0.2090379998,
				"y": 0.6233449015,
				"z": -0.1607059878,
				"element": "C" 
			},
			{
				"x": -1.1130849014,
				"y": 1.713787648,
				"z": -0.2460938744,
				"element": "C" 
			},
			{
				"x": -2.315752206,
				"y": 1.5697948515,
				"z": 0.4165623569,
				"element": "C" 
			},
			{
				"x": -2.660799367,
				"y": 0.4699571973,
				"z": 1.1168602546,
				"element": "N" 
			},
			{
				"x": 1.0068704973,
				"y": 0.6253134632,
				"z": -0.7553499857,
				"element": "N" 
			},
			{
				"x": 1.5495442004,
				"y": 1.7532517908,
				"z": -1.5165153283,
				"element": "C" 
			},
			{
				"x": 3.0137830273,
				"y": 1.3509094283,
				"z": -1.7567695919,
				"element": "C" 
			},
			{
				"x": 2.960985285,
				"y": -0.1860129444,
				"z": -1.7865291485,
				"element": "C" 
			},
			{
				"x": 1.9189766054,
				"y": -0.5280966378,
				"z": -0.7127964876,
				"element": "C" 
			},
			{
				"x": -0.8851518612,
				"y": 2.6124117266,
				"z": -0.8045478212,
				"element": "H" 
			},
			{
				"x": -3.0557715817,
				"y": 2.3674175068,
				"z": 0.3942569319,
				"element": "H" 
			},
			{
				"x": 1.0061260761,
				"y": 1.8822797395,
				"z": -2.4643159239,
				"element": "H" 
			},
			{
				"x": 1.4615153496,
				"y": 2.6892115836,
				"z": -0.9528479392,
				"element": "H" 
			},
			{
				"x": 3.4186132636,
				"y": 1.7904762353,
				"z": -2.6718608434,
				"element": "H" 
			},
			{
				"x": 3.6334120403,
				"y": 1.6903195784,
				"z": -0.919374512,
				"element": "H" 
			},
			{
				"x": 3.9294530302,
				"y": -0.6524235651,
				"z": -1.589061475,
				"element": "H" 
			},
			{
				"x": 2.6158923339,
				"y": -0.5326762311,
				"z": -2.7672049201,
				"element": "H" 
			},
			{
				"x": 1.3722707942,
				"y": -1.4534083139,
				"z": -0.9072204392,
				"element": "H" 
			},
			{
				"x": 2.3713704446,
				"y": -0.6207408018,
				"z": 0.2834173229,
				"element": "H" 
			}
		],
		 "valence_orbital": [ 
			{
				"type": "occ",
				"energy": -0.30604,
				"method": "rhf"
			},
			{
				"type": "occ",
				"energy": -0.30151,
				"method": "rhf"
			},
			{
				"type": "occ",
				"energy": -0.27171,
				"method": "rhf"
			},
			{
				"type": "occ",
				"energy": -0.2529,
				"method": "rhf"
			},
			{
				"type": "occ",
				"energy": -0.22462,
				"method": "rhf"
			},
			{
				"type": "unocc",
				"energy": -0.02588,
				"method": "rhf"
			},
			{
				"type": "unocc",
				"energy": -0.00983,
				"method": "rhf"
			},
			{
				"type": "unocc",
				"energy": 0.05158,
				"method": "rhf"
			},
			{
				"type": "unocc",
				"energy": 0.06974,
				"method": "rhf"
			},
			{
				"type": "unocc",
				"energy": 0.10037,
				"method": "rhf"
			}
		],
		"cosmo_sigma_profile": { 
			"-0.025": 0.0,
			"-0.024": 0.0,
			"-0.023": 0.0,
			"-0.022": 0.0,
			"-0.021": 0.0,
			"-0.02": 0.0,
			"-0.019": 0.0,
			"-0.018": 0.0,
			"-0.017": 0.0,
			"-0.016": 0.0,
			"-0.015": 0.0,
			"-0.014": 0.0,
			"-0.013": 0.0,
			"-0.012": 0.0,
			"-0.011": 0.0,
			"-0.01": 0.0,
			"-0.009": 0.0,
			"-0.008": 1.25636494343,
			"-0.007": 4.8014520665,
			"-0.006": 6.12574618054,
			"-0.005": 9.60761062347,
			"-0.004": 22.4741615383,
			"-0.003": 28.7412051009,
			"-0.002": 22.4877143978,
			"-0.001": 20.8432554952,
			"0.0": 19.5263292902,
			"0.001": 13.6643574229,
			"0.002": 10.605926761,
			"0.003": 7.33874479233,
			"0.004": 9.75062541133,
			"0.005": 9.9538064354,
			"0.006": 6.47598898491,
			"0.007": 3.53744042687,
			"0.008": 2.80766077024,
			"0.009": 3.43777054533,
			"0.01": 2.4027464676,
			"0.011": 1.64678298397,
			"0.012": 1.74965028828,
			"0.013": 1.39525465559,
			"0.014": 0.605397198649,
			"0.015": 1.10218736643,
			"0.016": 0.132013602888,
			"0.017": 0.0,
			"0.018": 0.0,
			"0.019": 0.0,
			"0.02": 0.0,
			"0.021": 0.0,
			"0.022": 0.0,
			"0.023": 0.0,
			"0.024": 0.0,
			"0.025": 0.0
		}
	}
}
