{
	 "smiles": "ClC1=C2C=CC=CC2=NC=C1", 
	 "Tm": 307.65, 
	 "num_atms": 17, 
	 "gaussian": { 
		 "optdone": 1, 
		 "sigma_profile": "yes", 
		 "theory": "DFT", 
		 "functional": "B3LYP", 
		 "basiset": "6-31G**", 
		 "properties": { 
			 "R2extent": 2410.2575, 
			 "electric_dipole_moment_norm": 0.730771742749, 
			 "electric_quadrupole_moment_norm": 10.918592118, 
			 "total_energy": -861.522879301, 
			 "HOMO_LUMO_gap": 0.17552, 
			 "cosmo_polarized_energy": -5.64, 
			 "cosmo_cavitation_energy": 22.65, 
			 "cosmo_dispersion_energy": -17.32, 
			 "cosmo_repulsion_energy": 1.36, 
			 "cosmo_total_nonelectrostatic_energy": 6.69, 
			 "SMD_solvation_energy": 2.04 
		},
		"coords": [
			{
				"x": 3.5082367576,
				"y": -0.6158853288,
				"z": -0.8411805265,
				"element": "Cl" 
			},
			{
				"x": 1.8548083665,
				"y": -0.7314490446,
				"z": -0.2633638696,
				"element": "C" 
			},
			{
				"x": 0.7713561122,
				"y": -0.7321288299,
				"z": -1.1849088279,
				"element": "C" 
			},
			{
				"x": 0.9050754098,
				"y": -0.6440288823,
				"z": -2.5947908928,
				"element": "C" 
			},
			{
				"x": -0.2104467414,
				"y": -0.6529326986,
				"z": -3.401737868,
				"element": "C" 
			},
			{
				"x": -1.506900445,
				"y": -0.7499021409,
				"z": -2.8397346388,
				"element": "C" 
			},
			{
				"x": -1.6680139172,
				"y": -0.8366627668,
				"z": -1.4763161081,
				"element": "C" 
			},
			{
				"x": -0.5420903646,
				"y": -0.830664903,
				"z": -0.6101434329,
				"element": "C" 
			},
			{
				"x": -0.76795621,
				"y": -0.9194197326,
				"z": 0.732332513,
				"element": "N" 
			},
			{
				"x": 0.2794223627,
				"y": -0.9133152835,
				"z": 1.5294832185,
				"element": "C" 
			},
			{
				"x": 1.6218462158,
				"y": -0.8210139807,
				"z": 1.0876081646,
				"element": "C" 
			},
			{
				"x": 1.8969615329,
				"y": -0.5697132612,
				"z": -3.0261328916,
				"element": "H" 
			},
			{
				"x": -0.0964643513,
				"y": -0.5849944852,
				"z": -4.479483551,
				"element": "H" 
			},
			{
				"x": -2.3750484965,
				"y": -0.7554066629,
				"z": -3.4922351451,
				"element": "H" 
			},
			{
				"x": -2.6472506338,
				"y": -0.9119950514,
				"z": -1.0154304063,
				"element": "H" 
			},
			{
				"x": 0.0814145168,
				"y": -0.9848619694,
				"z": 2.5982398056,
				"element": "H" 
			},
			{
				"x": 2.4392498857,
				"y": -0.821424978,
				"z": 1.7990944568,
				"element": "H" 
			}
		],
		 "valence_orbital": [ 
			{
				"type": "occ",
				"energy": -0.32354,
				"method": "rhf"
			},
			{
				"type": "occ",
				"energy": -0.29201,
				"method": "rhf"
			},
			{
				"type": "occ",
				"energy": -0.26333,
				"method": "rhf"
			},
			{
				"type": "occ",
				"energy": -0.26083,
				"method": "rhf"
			},
			{
				"type": "occ",
				"energy": -0.23791,
				"method": "rhf"
			},
			{
				"type": "unocc",
				"energy": -0.06239,
				"method": "rhf"
			},
			{
				"type": "unocc",
				"energy": -0.02558,
				"method": "rhf"
			},
			{
				"type": "unocc",
				"energy": 0.0144,
				"method": "rhf"
			},
			{
				"type": "unocc",
				"energy": 0.02262,
				"method": "rhf"
			},
			{
				"type": "unocc",
				"energy": 0.07985,
				"method": "rhf"
			}
		],
		"cosmo_sigma_profile": { 
			"-0.025": 0.0,
			"-0.024": 0.0,
			"-0.023": 0.0,
			"-0.022": 0.0,
			"-0.021": 0.0,
			"-0.02": 0.0,
			"-0.019": 0.0,
			"-0.018": 0.0,
			"-0.017": 0.0,
			"-0.016": 0.0,
			"-0.015": 0.0,
			"-0.014": 0.0,
			"-0.013": 0.0,
			"-0.012": 0.0,
			"-0.011": 0.0,
			"-0.01": 0.0,
			"-0.009": 0.0900025370651,
			"-0.008": 1.88516312946,
			"-0.007": 6.55238568681,
			"-0.006": 10.6287905046,
			"-0.005": 12.2726147964,
			"-0.004": 10.5356142014,
			"-0.003": 8.88021692376,
			"-0.002": 10.1107814505,
			"-0.001": 13.9294882276,
			"0.0": 23.3758282109,
			"0.001": 21.9864159113,
			"0.002": 19.2472352964,
			"0.003": 19.9168099244,
			"0.004": 13.4848376,
			"0.005": 1.80249696554,
			"0.006": 1.2026243539,
			"0.007": 1.86394557044,
			"0.008": 1.55862980388,
			"0.009": 0.770993018506,
			"0.01": 0.624424429908,
			"0.011": 0.700739458929,
			"0.012": 0.99436938798,
			"0.013": 0.892681069464,
			"0.014": 0.882296893869,
			"0.015": 0.608894414804,
			"0.016": 0.400501707408,
			"0.017": 0.0126630937924,
			"0.018": 0.0,
			"0.019": 0.0,
			"0.02": 0.0,
			"0.021": 0.0,
			"0.022": 0.0,
			"0.023": 0.0,
			"0.024": 0.0,
			"0.025": 0.0
		}
	}
}
