{
	 "smiles": "BrC1=C(Br)C=CS1", 
	 "Tm": 255.65, 
	 "num_atms": 9, 
	 "gaussian": { 
		 "optdone": 1, 
		 "sigma_profile": "yes", 
		 "theory": "DFT", 
		 "functional": "B3LYP", 
		 "basiset": "6-31G**", 
		 "properties": { 
			 "R2extent": 3485.4139, 
			 "electric_dipole_moment_norm": 1.89268651921, 
			 "electric_quadrupole_moment_norm": 5.93414361977, 
			 "total_energy": -5694.59606573, 
			 "HOMO_LUMO_gap": 0.20229, 
			 "cosmo_polarized_energy": -3.67, 
			 "cosmo_cavitation_energy": 19.47, 
			 "cosmo_dispersion_energy": -15.98, 
			 "cosmo_repulsion_energy": 1.28, 
			 "cosmo_total_nonelectrostatic_energy": 4.78, 
			 "SMD_solvation_energy": 1.21 
		},
		"coords": [
			{
				"x": 2.4976684264,
				"y": -0.0657654963,
				"z": -2.5049127678,
				"element": "Br" 
			},
			{
				"x": 0.7435537208,
				"y": 0.1917477986,
				"z": -1.8910820698,
				"element": "C" 
			},
			{
				"x": 0.2797021803,
				"y": 1.147384973,
				"z": -1.0266414303,
				"element": "C" 
			},
			{
				"x": 1.3539308748,
				"y": 2.4781767845,
				"z": -0.2251203382,
				"element": "Br" 
			},
			{
				"x": -1.124858485,
				"y": 1.0448407416,
				"z": -0.7791984731,
				"element": "C" 
			},
			{
				"x": -1.6987771165,
				"y": 0.012597637,
				"z": -1.4617106037,
				"element": "C" 
			},
			{
				"x": -0.5415814319,
				"y": -0.8579565727,
				"z": -2.4203342604,
				"element": "S" 
			},
			{
				"x": -1.6592990506,
				"y": 1.7182760848,
				"z": -0.1215279089,
				"element": "H" 
			},
			{
				"x": -2.7356391183,
				"y": -0.2936019505,
				"z": -1.4615721476,
				"element": "H" 
			}
		],
		 "valence_orbital": [ 
			{
				"type": "occ",
				"energy": -0.32365,
				"method": "rhf"
			},
			{
				"type": "occ",
				"energy": -0.30603,
				"method": "rhf"
			},
			{
				"type": "occ",
				"energy": -0.29141,
				"method": "rhf"
			},
			{
				"type": "occ",
				"energy": -0.25954,
				"method": "rhf"
			},
			{
				"type": "occ",
				"energy": -0.23634,
				"method": "rhf"
			},
			{
				"type": "unocc",
				"energy": -0.03405,
				"method": "rhf"
			},
			{
				"type": "unocc",
				"energy": -0.01944,
				"method": "rhf"
			},
			{
				"type": "unocc",
				"energy": -0.00567,
				"method": "rhf"
			},
			{
				"type": "unocc",
				"energy": 0.03436,
				"method": "rhf"
			},
			{
				"type": "unocc",
				"energy": 0.04238,
				"method": "rhf"
			}
		],
		"cosmo_sigma_profile": { 
			"-0.025": 0.0,
			"-0.024": 0.0,
			"-0.023": 0.0,
			"-0.022": 0.0,
			"-0.021": 0.0,
			"-0.02": 0.0,
			"-0.019": 0.0,
			"-0.018": 0.0,
			"-0.017": 0.0,
			"-0.016": 0.0,
			"-0.015": 0.0,
			"-0.014": 0.0,
			"-0.013": 0.0,
			"-0.012": 0.0,
			"-0.011": 0.0,
			"-0.01": 0.774851106621,
			"-0.009": 2.75426298026,
			"-0.008": 3.59889441001,
			"-0.007": 3.48670164576,
			"-0.006": 5.62849432024,
			"-0.005": 5.84502546023,
			"-0.004": 6.91213072617,
			"-0.003": 7.0195933428,
			"-0.002": 8.13611300807,
			"-0.001": 11.4967862062,
			"0.0": 16.7292277196,
			"0.001": 25.1984325802,
			"0.002": 26.5324930031,
			"0.003": 24.1819282492,
			"0.004": 16.1835684824,
			"0.005": 1.6619769141,
			"0.006": 0.0,
			"0.007": 0.0,
			"0.008": 0.0,
			"0.009": 0.0,
			"0.01": 0.0,
			"0.011": 0.0,
			"0.012": 0.0,
			"0.013": 0.0,
			"0.014": 0.0,
			"0.015": 0.0,
			"0.016": 0.0,
			"0.017": 0.0,
			"0.018": 0.0,
			"0.019": 0.0,
			"0.02": 0.0,
			"0.021": 0.0,
			"0.022": 0.0,
			"0.023": 0.0,
			"0.024": 0.0,
			"0.025": 0.0
		}
	}
}
