{
	 "smiles": "FC1=CC=CC=C1C=O", 
	 "Tm": 228.35, 
	 "num_atms": 14, 
	 "gaussian": { 
		 "optdone": 1, 
		 "sigma_profile": "yes", 
		 "theory": "DFT", 
		 "functional": "B3LYP", 
		 "basiset": "6-31G**", 
		 "properties": { 
			 "R2extent": 1815.9857, 
			 "electric_dipole_moment_norm": 4.28887773666, 
			 "electric_quadrupole_moment_norm": 12.9307852101, 
			 "total_energy": -444.801284333, 
			 "HOMO_LUMO_gap": 0.18682, 
			 "cosmo_polarized_energy": -8.83, 
			 "cosmo_cavitation_energy": 19.07, 
			 "cosmo_dispersion_energy": -13.96, 
			 "cosmo_repulsion_energy": 1.12, 
			 "cosmo_total_nonelectrostatic_energy": 6.23, 
			 "SMD_solvation_energy": 4.89 
		},
		"coords": [
			{
				"x": -0.6107749831,
				"y": 1.5578652073,
				"z": -0.3722542492,
				"element": "F" 
			},
			{
				"x": 0.2604703484,
				"y": 0.6651990859,
				"z": -0.8566910228,
				"element": "C" 
			},
			{
				"x": 0.0528039398,
				"y": -0.6786082374,
				"z": -0.5683039267,
				"element": "C" 
			},
			{
				"x": 0.9483421595,
				"y": -1.6277146672,
				"z": -1.0627685372,
				"element": "C" 
			},
			{
				"x": 2.0425229962,
				"y": -1.2348317734,
				"z": -1.839385272,
				"element": "C" 
			},
			{
				"x": 2.232548106,
				"y": 0.1152381801,
				"z": -2.1166707328,
				"element": "C" 
			},
			{
				"x": 1.3491506681,
				"y": 1.0947394354,
				"z": -1.6337053191,
				"element": "C" 
			},
			{
				"x": 1.6117058408,
				"y": 2.5139266516,
				"z": -1.9672591868,
				"element": "C" 
			},
			{
				"x": 0.945514125,
				"y": 3.4695326786,
				"z": -1.6271519732,
				"element": "O" 
			},
			{
				"x": -0.8028724607,
				"y": -0.9593535341,
				"z": 0.0360699756,
				"element": "H" 
			},
			{
				"x": 0.7883169314,
				"y": -2.6782377948,
				"z": -0.8388516271,
				"element": "H" 
			},
			{
				"x": 2.7366474978,
				"y": -1.9758568362,
				"z": -2.2220116377,
				"element": "H" 
			},
			{
				"x": 3.0790361531,
				"y": 0.4365190771,
				"z": -2.7194095718,
				"element": "H" 
			},
			{
				"x": 2.5240886775,
				"y": 2.6473825271,
				"z": -2.5934069193,
				"element": "H" 
			}
		],
		 "valence_orbital": [ 
			{
				"type": "occ",
				"energy": -0.36639,
				"method": "rhf"
			},
			{
				"type": "occ",
				"energy": -0.365,
				"method": "rhf"
			},
			{
				"type": "occ",
				"energy": -0.27673,
				"method": "rhf"
			},
			{
				"type": "occ",
				"energy": -0.26039,
				"method": "rhf"
			},
			{
				"type": "occ",
				"energy": -0.25397,
				"method": "rhf"
			},
			{
				"type": "unocc",
				"energy": -0.06715,
				"method": "rhf"
			},
			{
				"type": "unocc",
				"energy": -0.01788,
				"method": "rhf"
			},
			{
				"type": "unocc",
				"energy": 0.03264,
				"method": "rhf"
			},
			{
				"type": "unocc",
				"energy": 0.07715,
				"method": "rhf"
			},
			{
				"type": "unocc",
				"energy": 0.10825,
				"method": "rhf"
			}
		],
		"cosmo_sigma_profile": { 
			"-0.025": 0.0,
			"-0.024": 0.0,
			"-0.023": 0.0,
			"-0.022": 0.0,
			"-0.021": 0.0,
			"-0.02": 0.0,
			"-0.019": 0.0,
			"-0.018": 0.0,
			"-0.017": 0.0,
			"-0.016": 0.0,
			"-0.015": 0.0,
			"-0.014": 0.0,
			"-0.013": 0.0,
			"-0.012": 0.0,
			"-0.011": 0.0,
			"-0.01": 0.0,
			"-0.009": 0.0167155542667,
			"-0.008": 3.77861254337,
			"-0.007": 10.1923662339,
			"-0.006": 11.4054519405,
			"-0.005": 11.1420346789,
			"-0.004": 8.98822469851,
			"-0.003": 8.31540622509,
			"-0.002": 8.5188085196,
			"-0.001": 11.202412393,
			"0.0": 12.5591782477,
			"0.001": 12.7098913418,
			"0.002": 12.0219549397,
			"0.003": 12.5169498161,
			"0.004": 6.96813432239,
			"0.005": 3.16441751723,
			"0.006": 1.67655784515,
			"0.007": 1.8647681438,
			"0.008": 2.32663550069,
			"0.009": 2.57676246774,
			"0.01": 2.6703207605,
			"0.011": 5.09640471861,
			"0.012": 3.37151756989,
			"0.013": 0.673742795575,
			"0.014": 0.0,
			"0.015": 0.0,
			"0.016": 0.0,
			"0.017": 0.0,
			"0.018": 0.0,
			"0.019": 0.0,
			"0.02": 0.0,
			"0.021": 0.0,
			"0.022": 0.0,
			"0.023": 0.0,
			"0.024": 0.0,
			"0.025": 0.0
		}
	}
}
