{
	 "smiles": "CS(=O)(=O)CC1=C(CN)C=C(F)C=C1", 
	 "Tm": 351.15, 
	 "num_atms": 26, 
	 "gaussian": { 
		 "optdone": 1, 
		 "sigma_profile": "yes", 
		 "theory": "DFT", 
		 "functional": "B3LYP", 
		 "basiset": "6-31G**", 
		 "properties": { 
			 "R2extent": 3559.8386, 
			 "electric_dipole_moment_norm": 2.91288884271, 
			 "electric_quadrupole_moment_norm": 20.6488770302, 
			 "total_energy": -1053.35063594, 
			 "HOMO_LUMO_gap": 0.20864, 
			 "cosmo_polarized_energy": -17.9, 
			 "cosmo_cavitation_energy": 30.18, 
			 "cosmo_dispersion_energy": -21.89, 
			 "cosmo_repulsion_energy": 1.65, 
			 "cosmo_total_nonelectrostatic_energy": 9.94, 
			 "SMD_solvation_energy": 4.01 
		},
		"coords": [
			{
				"x": 0.070560312,
				"y": 1.697568102,
				"z": -1.829228994,
				"element": "C" 
			},
			{
				"x": 1.177037726,
				"y": 0.4588780351,
				"z": -1.1177141906,
				"element": "S" 
			},
			{
				"x": 2.5423166224,
				"y": 0.7235473073,
				"z": -1.5984198597,
				"element": "O" 
			},
			{
				"x": 0.5575738579,
				"y": -0.8606882142,
				"z": -1.3440706514,
				"element": "O" 
			},
			{
				"x": 1.1728163035,
				"y": 0.820586279,
				"z": 0.6891369479,
				"element": "C" 
			},
			{
				"x": -0.159335617,
				"y": 0.6652181022,
				"z": 1.3709685268,
				"element": "C" 
			},
			{
				"x": -0.685941333,
				"y": -0.5869318914,
				"z": 1.7552197969,
				"element": "C" 
			},
			{
				"x": 0.043771434,
				"y": -1.9095072887,
				"z": 1.5779590518,
				"element": "C" 
			},
			{
				"x": -0.7355723373,
				"y": -2.8094358021,
				"z": 0.7206323637,
				"element": "N" 
			},
			{
				"x": -1.9593120879,
				"y": -0.6370260629,
				"z": 2.3362993258,
				"element": "C" 
			},
			{
				"x": -2.6785049458,
				"y": 0.5286101942,
				"z": 2.5471628326,
				"element": "C" 
			},
			{
				"x": -3.899480308,
				"y": 0.4536066381,
				"z": 3.113588122,
				"element": "F" 
			},
			{
				"x": -2.1747833954,
				"y": 1.7769455927,
				"z": 2.1973227767,
				"element": "C" 
			},
			{
				"x": -0.9160544932,
				"y": 1.8268561847,
				"z": 1.6082708629,
				"element": "C" 
			},
			{
				"x": 0.4913529263,
				"y": 2.6918536774,
				"z": -1.6723466286,
				"element": "H" 
			},
			{
				"x": 0.0220500931,
				"y": 1.4725457378,
				"z": -2.8961247117,
				"element": "H" 
			},
			{
				"x": -0.9161915428,
				"y": 1.6043407587,
				"z": -1.3749359374,
				"element": "H" 
			},
			{
				"x": 1.5592737517,
				"y": 1.8398990969,
				"z": 0.7711594984,
				"element": "H" 
			},
			{
				"x": 1.9477838772,
				"y": 0.1451398398,
				"z": 1.0592269502,
				"element": "H" 
			},
			{
				"x": 1.0672430919,
				"y": -1.7374729481,
				"z": 1.220232979,
				"element": "H" 
			},
			{
				"x": 0.1319759171,
				"y": -2.3813181293,
				"z": 2.5653345397,
				"element": "H" 
			},
			{
				"x": -0.2871063141,
				"y": -3.7227164239,
				"z": 0.7039257108,
				"element": "H" 
			},
			{
				"x": -0.6863937776,
				"y": -2.4483356861,
				"z": -0.2306443525,
				"element": "H" 
			},
			{
				"x": -2.392442997,
				"y": -1.5944556746,
				"z": 2.60389429,
				"element": "H" 
			},
			{
				"x": -2.7567155113,
				"y": 2.6719475066,
				"z": 2.3869821467,
				"element": "H" 
			},
			{
				"x": -0.5035212526,
				"y": 2.7937450688,
				"z": 1.3307686042,
				"element": "H" 
			}
		],
		 "valence_orbital": [ 
			{
				"type": "occ",
				"energy": -0.30031,
				"method": "rhf"
			},
			{
				"type": "occ",
				"energy": -0.29727,
				"method": "rhf"
			},
			{
				"type": "occ",
				"energy": -0.26522,
				"method": "rhf"
			},
			{
				"type": "occ",
				"energy": -0.24726,
				"method": "rhf"
			},
			{
				"type": "occ",
				"energy": -0.23293,
				"method": "rhf"
			},
			{
				"type": "unocc",
				"energy": -0.02429,
				"method": "rhf"
			},
			{
				"type": "unocc",
				"energy": -0.02138,
				"method": "rhf"
			},
			{
				"type": "unocc",
				"energy": 0.0569,
				"method": "rhf"
			},
			{
				"type": "unocc",
				"energy": 0.06341,
				"method": "rhf"
			},
			{
				"type": "unocc",
				"energy": 0.07573,
				"method": "rhf"
			}
		],
		"cosmo_sigma_profile": { 
			"-0.025": 0.0,
			"-0.024": 0.0,
			"-0.023": 0.0,
			"-0.022": 0.0,
			"-0.021": 0.0,
			"-0.02": 0.0,
			"-0.019": 0.0,
			"-0.018": 0.0,
			"-0.017": 0.0,
			"-0.016": 0.0,
			"-0.015": 0.0,
			"-0.014": 0.0,
			"-0.013": 0.0,
			"-0.012": 0.0400008740368,
			"-0.011": 0.693400730732,
			"-0.01": 2.64216706315,
			"-0.009": 7.71905317457,
			"-0.008": 10.5268423592,
			"-0.007": 11.6255593545,
			"-0.006": 13.5483501223,
			"-0.005": 16.5200486898,
			"-0.004": 19.1939753695,
			"-0.003": 15.5675142738,
			"-0.002": 13.6251296517,
			"-0.001": 11.2416452615,
			"0.0": 10.1091730306,
			"0.001": 13.9514701878,
			"0.002": 13.1042294908,
			"0.003": 16.2625225913,
			"0.004": 16.0344899618,
			"0.005": 6.67963155845,
			"0.006": 3.27366917154,
			"0.007": 3.62110264709,
			"0.008": 3.36127818579,
			"0.009": 3.63602600481,
			"0.01": 4.14899053288,
			"0.011": 7.76095446945,
			"0.012": 9.0644049421,
			"0.013": 2.32109541223,
			"0.014": 0.432207088339,
			"0.015": 0.423737930365,
			"0.016": 0.740954521774,
			"0.017": 0.59277589038,
			"0.018": 0.208649749793,
			"0.019": 0.0,
			"0.02": 0.0,
			"0.021": 0.0,
			"0.022": 0.0,
			"0.023": 0.0,
			"0.024": 0.0,
			"0.025": 0.0
		}
	}
}
