{
	 "smiles": "CC(C)N(C(C)C)C(=O)SCC(Cl)=C(Cl)Cl", 
	 "Tm": 302.15, 
	 "num_atms": 32, 
	 "gaussian": { 
		 "optdone": 1, 
		 "sigma_profile": "yes", 
		 "theory": "DFT", 
		 "functional": "B3LYP", 
		 "basiset": "6-31G**", 
		 "properties": { 
			 "R2extent": 11755.4025, 
			 "electric_dipole_moment_norm": 3.96050212221, 
			 "electric_quadrupole_moment_norm": 7.70125697338, 
			 "total_energy": -2299.4407641, 
			 "HOMO_LUMO_gap": 0.21298, 
			 "cosmo_polarized_energy": -7.79, 
			 "cosmo_cavitation_energy": 40.2, 
			 "cosmo_dispersion_energy": -28.1, 
			 "cosmo_repulsion_energy": 2.18, 
			 "cosmo_total_nonelectrostatic_energy": 14.28, 
			 "SMD_solvation_energy": 6.76 
		},
		"coords": [
			{
				"x": 1.2908531735,
				"y": -0.6256941242,
				"z": -2.132449447,
				"element": "C" 
			},
			{
				"x": 1.0889552107,
				"y": 0.5621775667,
				"z": -1.178681046,
				"element": "C" 
			},
			{
				"x": 2.4123096303,
				"y": 1.1437873218,
				"z": -0.6700989916,
				"element": "C" 
			},
			{
				"x": 0.0998841753,
				"y": 0.2613867759,
				"z": -0.0987073082,
				"element": "N" 
			},
			{
				"x": 0.4423559662,
				"y": -0.398439935,
				"z": 1.184723577,
				"element": "C" 
			},
			{
				"x": 1.3051886677,
				"y": -1.6572317128,
				"z": 1.0172634011,
				"element": "C" 
			},
			{
				"x": 1.0136150952,
				"y": 0.5711604558,
				"z": 2.2329634726,
				"element": "C" 
			},
			{
				"x": -1.1853788737,
				"y": 0.6225245307,
				"z": -0.392805467,
				"element": "C" 
			},
			{
				"x": -1.5363716691,
				"y": 1.1150868299,
				"z": -1.4549259489,
				"element": "O" 
			},
			{
				"x": -2.4315214343,
				"y": 0.3392009369,
				"z": 0.9447459321,
				"element": "S" 
			},
			{
				"x": -3.9030991213,
				"y": 1.0253122918,
				"z": 0.0760382478,
				"element": "C" 
			},
			{
				"x": -4.4640164334,
				"y": 2.2359422168,
				"z": 0.7574751,
				"element": "C" 
			},
			{
				"x": -3.5382620576,
				"y": 3.7005390058,
				"z": 0.5378315689,
				"element": "Cl" 
			},
			{
				"x": -5.5897253279,
				"y": 2.2604330644,
				"z": 1.4943074894,
				"element": "C" 
			},
			{
				"x": -6.5401333879,
				"y": 0.8220172849,
				"z": 1.7709014729,
				"element": "Cl" 
			},
			{
				"x": -6.2314827432,
				"y": 3.6800210169,
				"z": 2.2513577213,
				"element": "Cl" 
			},
			{
				"x": 0.3253499745,
				"y": -0.9914344897,
				"z": -2.491801186,
				"element": "H" 
			},
			{
				"x": 1.8281802022,
				"y": -1.4549125356,
				"z": -1.6655551786,
				"element": "H" 
			},
			{
				"x": 1.8710182397,
				"y": -0.300398275,
				"z": -3.0027695638,
				"element": "H" 
			},
			{
				"x": 0.5996031777,
				"y": 1.346478919,
				"z": -1.7578828045,
				"element": "H" 
			},
			{
				"x": 2.2476807439,
				"y": 2.0268112382,
				"z": -0.0473148699,
				"element": "H" 
			},
			{
				"x": 3.0052259636,
				"y": 1.4537731764,
				"z": -1.5366627889,
				"element": "H" 
			},
			{
				"x": 3.0159591287,
				"y": 0.4268101322,
				"z": -0.1074841233,
				"element": "H" 
			},
			{
				"x": -0.5106117118,
				"y": -0.7599439828,
				"z": 1.5802809123,
				"element": "H" 
			},
			{
				"x": 0.8431382542,
				"y": -2.3636613914,
				"z": 0.3229759531,
				"element": "H" 
			},
			{
				"x": 1.3971470885,
				"y": -2.1506922438,
				"z": 1.9899328213,
				"element": "H" 
			},
			{
				"x": 2.316533866,
				"y": -1.436214998,
				"z": 0.6680924372,
				"element": "H" 
			},
			{
				"x": 1.0402594792,
				"y": 0.0774738814,
				"z": 3.2101967617,
				"element": "H" 
			},
			{
				"x": 2.0305309828,
				"y": 0.8900002511,
				"z": 1.9944842193,
				"element": "H" 
			},
			{
				"x": 0.3814136874,
				"y": 1.4587568441,
				"z": 2.320363878,
				"element": "H" 
			},
			{
				"x": -4.6513994465,
				"y": 0.237022534,
				"z": 0.0130762625,
				"element": "H" 
			},
			{
				"x": -3.5415005005,
				"y": 1.2772074136,
				"z": -0.9261725048,
				"element": "H" 
			}
		],
		 "valence_orbital": [ 
			{
				"type": "occ",
				"energy": -0.30696,
				"method": "rhf"
			},
			{
				"type": "occ",
				"energy": -0.26644,
				"method": "rhf"
			},
			{
				"type": "occ",
				"energy": -0.25763,
				"method": "rhf"
			},
			{
				"type": "occ",
				"energy": -0.24958,
				"method": "rhf"
			},
			{
				"type": "occ",
				"energy": -0.24374,
				"method": "rhf"
			},
			{
				"type": "unocc",
				"energy": -0.03076,
				"method": "rhf"
			},
			{
				"type": "unocc",
				"energy": -0.00912,
				"method": "rhf"
			},
			{
				"type": "unocc",
				"energy": -0.00096,
				"method": "rhf"
			},
			{
				"type": "unocc",
				"energy": 0.02484,
				"method": "rhf"
			},
			{
				"type": "unocc",
				"energy": 0.02882,
				"method": "rhf"
			}
		],
		"cosmo_sigma_profile": { 
			"-0.025": 0.0,
			"-0.024": 0.0,
			"-0.023": 0.0,
			"-0.022": 0.0,
			"-0.021": 0.0,
			"-0.02": 0.0,
			"-0.019": 0.0,
			"-0.018": 0.0,
			"-0.017": 0.0,
			"-0.016": 0.0,
			"-0.015": 0.0,
			"-0.014": 0.0,
			"-0.013": 0.0,
			"-0.012": 0.0,
			"-0.011": 0.0,
			"-0.01": 0.0,
			"-0.009": 0.0,
			"-0.008": 0.0573887141002,
			"-0.007": 1.1571185439,
			"-0.006": 1.96261641235,
			"-0.005": 8.3673736736,
			"-0.004": 25.3974485656,
			"-0.003": 39.0448151926,
			"-0.002": 36.4396201837,
			"-0.001": 43.7813290783,
			"0.0": 45.4276408983,
			"0.001": 32.6380738904,
			"0.002": 28.0302398897,
			"0.003": 25.6151726798,
			"0.004": 14.2397747273,
			"0.005": 6.16225294619,
			"0.006": 4.45183405194,
			"0.007": 2.78825676899,
			"0.008": 1.6034186948,
			"0.009": 1.01063878639,
			"0.01": 2.23829982865,
			"0.011": 1.90725872181,
			"0.012": 2.62680972433,
			"0.013": 0.08187742217,
			"0.014": 0.0,
			"0.015": 0.0,
			"0.016": 0.0,
			"0.017": 0.0,
			"0.018": 0.0,
			"0.019": 0.0,
			"0.02": 0.0,
			"0.021": 0.0,
			"0.022": 0.0,
			"0.023": 0.0,
			"0.024": 0.0,
			"0.025": 0.0
		}
	}
}
