{
	 "smiles": "CN1C(=O)CC(C(O)=O)C2=C1C=CC=C2", 
	 "Tm": 436.15, 
	 "num_atms": 26, 
	 "gaussian": { 
		 "optdone": 1, 
		 "sigma_profile": "yes", 
		 "theory": "DFT", 
		 "functional": "B3LYP", 
		 "basiset": "6-31G**", 
		 "properties": { 
			 "R2extent": 3203.1415, 
			 "electric_dipole_moment_norm": 5.13314615124, 
			 "electric_quadrupole_moment_norm": 11.2117784673, 
			 "total_energy": -706.251048572, 
			 "HOMO_LUMO_gap": 0.20218, 
			 "cosmo_polarized_energy": -19.02, 
			 "cosmo_cavitation_energy": 28.91, 
			 "cosmo_dispersion_energy": -21.18, 
			 "cosmo_repulsion_energy": 1.63, 
			 "cosmo_total_nonelectrostatic_energy": 9.36, 
			 "SMD_solvation_energy": 6.32 
		},
		"coords": [
			{
				"x": 1.5714102671,
				"y": -0.0267462669,
				"z": 2.7041841188,
				"element": "C" 
			},
			{
				"x": 0.6081555858,
				"y": -0.088023789,
				"z": 1.6066823263,
				"element": "N" 
			},
			{
				"x": -0.5202672645,
				"y": 0.7226479381,
				"z": 1.6990959294,
				"element": "C" 
			},
			{
				"x": -0.7348959403,
				"y": 1.4255412563,
				"z": 2.6752472795,
				"element": "O" 
			},
			{
				"x": -1.452807996,
				"y": 0.6897700112,
				"z": 0.5045439696,
				"element": "C" 
			},
			{
				"x": -1.5280870616,
				"y": -0.701796681,
				"z": -0.1275273114,
				"element": "C" 
			},
			{
				"x": -2.4670568724,
				"y": -0.6864060222,
				"z": -1.3367976324,
				"element": "C" 
			},
			{
				"x": -2.9618234856,
				"y": -1.8977302282,
				"z": -1.7131205147,
				"element": "O" 
			},
			{
				"x": -2.7723163671,
				"y": 0.3060471584,
				"z": -1.9458410243,
				"element": "O" 
			},
			{
				"x": -0.1177312273,
				"y": -1.1726949803,
				"z": -0.4679728062,
				"element": "C" 
			},
			{
				"x": 0.9084779429,
				"y": -0.8377398102,
				"z": 0.4450995956,
				"element": "C" 
			},
			{
				"x": 2.2173574202,
				"y": -1.2769281928,
				"z": 0.1984937911,
				"element": "C" 
			},
			{
				"x": 2.5109273435,
				"y": -2.0270186699,
				"z": -0.9400432513,
				"element": "C" 
			},
			{
				"x": 1.5072416849,
				"y": -2.3462970657,
				"z": -1.849672621,
				"element": "C" 
			},
			{
				"x": 0.2012329002,
				"y": -1.9161122106,
				"z": -1.6055160005,
				"element": "C" 
			},
			{
				"x": 2.4495402581,
				"y": 0.5723198676,
				"z": 2.436417234,
				"element": "H" 
			},
			{
				"x": 1.0727121108,
				"y": 0.4455860659,
				"z": 3.5481306119,
				"element": "H" 
			},
			{
				"x": 1.8960728216,
				"y": -1.0352200232,
				"z": 2.974014725,
				"element": "H" 
			},
			{
				"x": -1.1000187836,
				"y": 1.4041093122,
				"z": -0.2488522454,
				"element": "H" 
			},
			{
				"x": -2.4292267402,
				"y": 1.0378946563,
				"z": 0.8439598047,
				"element": "H" 
			},
			{
				"x": -1.9524515107,
				"y": -1.3957786765,
				"z": 0.6177033853,
				"element": "H" 
			},
			{
				"x": -2.6376260664,
				"y": -2.5921537294,
				"z": -1.1215646035,
				"element": "H" 
			},
			{
				"x": 3.0142870025,
				"y": -1.0238332275,
				"z": 0.8867116471,
				"element": "H" 
			},
			{
				"x": 3.5325459193,
				"y": -2.352014372,
				"z": -1.1128335731,
				"element": "H" 
			},
			{
				"x": 1.7306165048,
				"y": -2.922049712,
				"z": -2.7420251325,
				"element": "H" 
			},
			{
				"x": -0.5785684459,
				"y": -2.1648726084,
				"z": -2.3184177019,
				"element": "H" 
			}
		],
		 "valence_orbital": [ 
			{
				"type": "occ",
				"energy": -0.30691,
				"method": "rhf"
			},
			{
				"type": "occ",
				"energy": -0.28578,
				"method": "rhf"
			},
			{
				"type": "occ",
				"energy": -0.26393,
				"method": "rhf"
			},
			{
				"type": "occ",
				"energy": -0.26131,
				"method": "rhf"
			},
			{
				"type": "occ",
				"energy": -0.22667,
				"method": "rhf"
			},
			{
				"type": "unocc",
				"energy": -0.02449,
				"method": "rhf"
			},
			{
				"type": "unocc",
				"energy": -0.02036,
				"method": "rhf"
			},
			{
				"type": "unocc",
				"energy": -0.00581,
				"method": "rhf"
			},
			{
				"type": "unocc",
				"energy": 0.02749,
				"method": "rhf"
			},
			{
				"type": "unocc",
				"energy": 0.051,
				"method": "rhf"
			}
		],
		"cosmo_sigma_profile": { 
			"-0.025": 0.0,
			"-0.024": 0.0,
			"-0.023": 0.0,
			"-0.022": 0.0,
			"-0.021": 0.0,
			"-0.02": 0.0115254768866,
			"-0.019": 0.789488663179,
			"-0.018": 0.930368304325,
			"-0.017": 0.928977951834,
			"-0.016": 1.51061063708,
			"-0.015": 0.787904409857,
			"-0.014": 0.887589305505,
			"-0.013": 1.4009787022,
			"-0.012": 1.04471753516,
			"-0.011": 1.3791203056,
			"-0.01": 0.605841620944,
			"-0.009": 1.7896969627,
			"-0.008": 3.70344436018,
			"-0.007": 6.0847326083,
			"-0.006": 15.1160670714,
			"-0.005": 18.350312115,
			"-0.004": 19.9619059473,
			"-0.003": 16.5214286335,
			"-0.002": 16.0366140156,
			"-0.001": 14.8552566864,
			"0.0": 11.5756894506,
			"0.001": 9.08301503583,
			"0.002": 9.80019130006,
			"0.003": 10.1216353899,
			"0.004": 11.6249138018,
			"0.005": 10.6052287148,
			"0.006": 5.1157097952,
			"0.007": 3.97786458177,
			"0.008": 3.98928807996,
			"0.009": 4.63445202599,
			"0.01": 7.07296836636,
			"0.011": 7.38146138368,
			"0.012": 6.02642384444,
			"0.013": 4.47728670617,
			"0.014": 1.3092462053,
			"0.015": 0.0285924822815,
			"0.016": 0.0,
			"0.017": 0.0,
			"0.018": 0.0,
			"0.019": 0.0,
			"0.02": 0.0,
			"0.021": 0.0,
			"0.022": 0.0,
			"0.023": 0.0,
			"0.024": 0.0,
			"0.025": 0.0
		}
	}
}
