{
	 "smiles": "COC1=CC=CC(O)=C1C=O", 
	 "Tm": 344.15, 
	 "num_atms": 19, 
	 "gaussian": { 
		 "optdone": 1, 
		 "sigma_profile": "yes", 
		 "theory": "DFT", 
		 "functional": "B3LYP", 
		 "basiset": "6-31G**", 
		 "properties": { 
			 "R2extent": 1977.462, 
			 "electric_dipole_moment_norm": 4.76543241585, 
			 "electric_quadrupole_moment_norm": 6.11863737281, 
			 "total_energy": -535.333661931, 
			 "HOMO_LUMO_gap": 0.1615, 
			 "cosmo_polarized_energy": -8.52, 
			 "cosmo_cavitation_energy": 22.79, 
			 "cosmo_dispersion_energy": -17.26, 
			 "cosmo_repulsion_energy": 1.37, 
			 "cosmo_total_nonelectrostatic_energy": 6.89, 
			 "SMD_solvation_energy": 6.01 
		},
		"coords": [
			{
				"x": 1.9334216816,
				"y": 0.2262220324,
				"z": 1.7366573279,
				"element": "C" 
			},
			{
				"x": 1.2225868797,
				"y": -0.5560227918,
				"z": 0.7852471688,
				"element": "O" 
			},
			{
				"x": -0.0410293251,
				"y": -0.1851020129,
				"z": 0.4487045806,
				"element": "C" 
			},
			{
				"x": -0.6972999429,
				"y": 0.922717534,
				"z": 0.9775094848,
				"element": "C" 
			},
			{
				"x": -2.0052274275,
				"y": 1.2044958806,
				"z": 0.5505615142,
				"element": "C" 
			},
			{
				"x": -2.6679824648,
				"y": 0.4192794172,
				"z": -0.3792123673,
				"element": "C" 
			},
			{
				"x": -2.0133457546,
				"y": -0.7000725449,
				"z": -0.9175642419,
				"element": "C" 
			},
			{
				"x": -2.6560237842,
				"y": -1.4541529576,
				"z": -1.8132611717,
				"element": "O" 
			},
			{
				"x": -0.6869299324,
				"y": -1.0174944343,
				"z": -0.5089863664,
				"element": "C" 
			},
			{
				"x": -0.0256299847,
				"y": -2.1767463242,
				"z": -1.0746829851,
				"element": "C" 
			},
			{
				"x": -0.5520620757,
				"y": -2.9270120406,
				"z": -1.9106230974,
				"element": "O" 
			},
			{
				"x": 1.4213505512,
				"y": 0.2392170947,
				"z": 2.7061159441,
				"element": "H" 
			},
			{
				"x": 2.9072131965,
				"y": -0.252094787,
				"z": 1.8479282853,
				"element": "H" 
			},
			{
				"x": 2.0715422866,
				"y": 1.2554967623,
				"z": 1.3848583125,
				"element": "H" 
			},
			{
				"x": -0.2203396379,
				"y": 1.5649775881,
				"z": 1.7060616906,
				"element": "H" 
			},
			{
				"x": -2.5114019144,
				"y": 2.0708211929,
				"z": 0.967555709,
				"element": "H" 
			},
			{
				"x": -3.6775379958,
				"y": 0.641546259,
				"z": -0.70502501,
				"element": "H" 
			},
			{
				"x": -2.0325665083,
				"y": -2.187117012,
				"z": -2.0696504204,
				"element": "H" 
			},
			{
				"x": 0.9988621527,
				"y": -2.3847588558,
				"z": -0.7301943575,
				"element": "H" 
			}
		],
		 "valence_orbital": [ 
			{
				"type": "occ",
				"energy": -0.34923,
				"method": "rhf"
			},
			{
				"type": "occ",
				"energy": -0.31661,
				"method": "rhf"
			},
			{
				"type": "occ",
				"energy": -0.26039,
				"method": "rhf"
			},
			{
				"type": "occ",
				"energy": -0.2478,
				"method": "rhf"
			},
			{
				"type": "occ",
				"energy": -0.22388,
				"method": "rhf"
			},
			{
				"type": "unocc",
				"energy": -0.06238,
				"method": "rhf"
			},
			{
				"type": "unocc",
				"energy": 0.01172,
				"method": "rhf"
			},
			{
				"type": "unocc",
				"energy": 0.03722,
				"method": "rhf"
			},
			{
				"type": "unocc",
				"energy": 0.08318,
				"method": "rhf"
			},
			{
				"type": "unocc",
				"energy": 0.09391,
				"method": "rhf"
			}
		],
		"cosmo_sigma_profile": { 
			"-0.025": 0.0,
			"-0.024": 0.0,
			"-0.023": 0.0,
			"-0.022": 0.0,
			"-0.021": 0.0,
			"-0.02": 0.0,
			"-0.019": 0.0,
			"-0.018": 0.0,
			"-0.017": 0.0,
			"-0.016": 0.0,
			"-0.015": 0.0,
			"-0.014": 0.0,
			"-0.013": 0.0,
			"-0.012": 0.0,
			"-0.011": 0.0,
			"-0.01": 0.0,
			"-0.009": 0.0,
			"-0.008": 0.0,
			"-0.007": 4.20146166931,
			"-0.006": 15.9316325538,
			"-0.005": 16.3991608288,
			"-0.004": 15.8579743686,
			"-0.003": 16.2610990435,
			"-0.002": 11.9520549105,
			"-0.001": 11.3465841104,
			"0.0": 10.4322216157,
			"0.001": 12.5213931848,
			"0.002": 15.4106921614,
			"0.003": 12.5987266661,
			"0.004": 11.6375362833,
			"0.005": 5.12417971605,
			"0.006": 4.64682671746,
			"0.007": 2.47427264055,
			"0.008": 3.18805834201,
			"0.009": 2.82568828269,
			"0.01": 3.70680728002,
			"0.011": 3.49277390575,
			"0.012": 1.8196429491,
			"0.013": 0.488518465147,
			"0.014": 0.0,
			"0.015": 0.0,
			"0.016": 0.0,
			"0.017": 0.0,
			"0.018": 0.0,
			"0.019": 0.0,
			"0.02": 0.0,
			"0.021": 0.0,
			"0.022": 0.0,
			"0.023": 0.0,
			"0.024": 0.0,
			"0.025": 0.0
		}
	}
}
