{
	 "smiles": "CC(C)OC1=CC=CC(OC(C)C)=C1C1=CC=CC=C1P(C1CCCCC1)C1CCCCC1", 
	 "Tm": 397.65, 
	 "num_atms": 76, 
	 "gaussian": { 
		 "optdone": 1, 
		 "sigma_profile": "yes", 
		 "theory": "DFT", 
		 "functional": "B3LYP", 
		 "basiset": "6-31G**", 
		 "properties": { 
			 "R2extent": 15357.4502, 
			 "electric_dipole_moment_norm": 1.96312685785, 
			 "electric_quadrupole_moment_norm": 7.23935929002, 
			 "total_energy": -1660.92193488, 
			 "HOMO_LUMO_gap": 0.1891, 
			 "cosmo_polarized_energy": -13.25, 
			 "cosmo_cavitation_energy": 70.77, 
			 "cosmo_dispersion_energy": -42.58, 
			 "cosmo_repulsion_energy": 3.27, 
			 "cosmo_total_nonelectrostatic_energy": 31.46, 
			 "SMD_solvation_energy": 10.17 
		},
		"coords": [
			{
				"x": 3.7291205893,
				"y": 0.303843399,
				"z": 2.9551480369,
				"element": "C" 
			},
			{
				"x": 3.8372743535,
				"y": -0.660600902,
				"z": 1.7792116517,
				"element": "C" 
			},
			{
				"x": 4.3727248137,
				"y": -2.0311621763,
				"z": 2.1970491249,
				"element": "C" 
			},
			{
				"x": 2.5040754531,
				"y": -0.7744734405,
				"z": 1.2492243971,
				"element": "O" 
			},
			{
				"x": 2.2845273638,
				"y": -1.2845663236,
				"z": -0.0021892246,
				"element": "C" 
			},
			{
				"x": 3.2996356389,
				"y": -1.5605718072,
				"z": -0.9264609543,
				"element": "C" 
			},
			{
				"x": 2.9621659584,
				"y": -2.0449851829,
				"z": -2.1901002735,
				"element": "C" 
			},
			{
				"x": 1.6356238051,
				"y": -2.2668371224,
				"z": -2.5429989576,
				"element": "C" 
			},
			{
				"x": 0.6227773269,
				"y": -2.0107869543,
				"z": -1.6091573742,
				"element": "C" 
			},
			{
				"x": -0.7062046275,
				"y": -2.1654394847,
				"z": -1.9256806525,
				"element": "O" 
			},
			{
				"x": -1.2633647865,
				"y": -3.4740387542,
				"z": -2.2101696904,
				"element": "C" 
			},
			{
				"x": -0.7838454992,
				"y": -4.5430133237,
				"z": -1.2303451905,
				"element": "C" 
			},
			{
				"x": -1.0777332367,
				"y": -3.881645714,
				"z": -3.6740563235,
				"element": "C" 
			},
			{
				"x": 0.9281348429,
				"y": -1.504092634,
				"z": -0.3327460507,
				"element": "C" 
			},
			{
				"x": -0.1479724389,
				"y": -1.2628849266,
				"z": 0.6815822907,
				"element": "C" 
			},
			{
				"x": -0.2320237138,
				"y": -2.156631259,
				"z": 1.7623285597,
				"element": "C" 
			},
			{
				"x": -1.2261780213,
				"y": -2.0371852908,
				"z": 2.7296516426,
				"element": "C" 
			},
			{
				"x": -2.1601604794,
				"y": -1.0062206713,
				"z": 2.629193309,
				"element": "C" 
			},
			{
				"x": -2.0757800495,
				"y": -0.1027195971,
				"z": 1.5712652895,
				"element": "C" 
			},
			{
				"x": -1.0751895628,
				"y": -0.198228702,
				"z": 0.5870061631,
				"element": "C" 
			},
			{
				"x": -0.9378546642,
				"y": 1.0133099609,
				"z": -0.828331392,
				"element": "P" 
			},
			{
				"x": -0.4474112411,
				"y": 2.6276023572,
				"z": 0.0366210214,
				"element": "C" 
			},
			{
				"x": 1.0560734248,
				"y": 2.5623039921,
				"z": 0.4230234847,
				"element": "C" 
			},
			{
				"x": 1.453465244,
				"y": 3.6543992679,
				"z": 1.4475416135,
				"element": "C" 
			},
			{
				"x": 0.596159303,
				"y": 4.9148055783,
				"z": 1.281841976,
				"element": "C" 
			},
			{
				"x": -0.8923273494,
				"y": 4.6069199264,
				"z": 1.5712314069,
				"element": "C" 
			},
			{
				"x": -1.27375038,
				"y": 3.1436287122,
				"z": 1.2265852195,
				"element": "C" 
			},
			{
				"x": -2.7469118341,
				"y": 1.3351312863,
				"z": -1.2534356351,
				"element": "C" 
			},
			{
				"x": -3.4035296675,
				"y": 0.0804341764,
				"z": -1.8603153289,
				"element": "C" 
			},
			{
				"x": -4.9202852709,
				"y": 0.2940610792,
				"z": -2.0805041935,
				"element": "C" 
			},
			{
				"x": -5.265564949,
				"y": 1.7570820949,
				"z": -2.4512114963,
				"element": "C" 
			},
			{
				"x": -4.0895797748,
				"y": 2.4286714355,
				"z": -3.1703057535,
				"element": "C" 
			},
			{
				"x": -2.8514853548,
				"y": 2.5274322677,
				"z": -2.2468913608,
				"element": "C" 
			},
			{
				"x": 3.0411539159,
				"y": -0.0923846298,
				"z": 3.7083342766,
				"element": "H" 
			},
			{
				"x": 4.7095266639,
				"y": 0.4466736304,
				"z": 3.4200322027,
				"element": "H" 
			},
			{
				"x": 3.3547887362,
				"y": 1.2763423381,
				"z": 2.6253726257,
				"element": "H" 
			},
			{
				"x": 4.4908820953,
				"y": -0.2165303918,
				"z": 1.0164683209,
				"element": "H" 
			},
			{
				"x": 5.3899422718,
				"y": -1.9384499359,
				"z": 2.5914500087,
				"element": "H" 
			},
			{
				"x": 3.7369954034,
				"y": -2.4576333893,
				"z": 2.979553815,
				"element": "H" 
			},
			{
				"x": 4.3953756784,
				"y": -2.7282883724,
				"z": 1.3556755454,
				"element": "H" 
			},
			{
				"x": 4.340175128,
				"y": -1.3913147268,
				"z": -0.6802305333,
				"element": "H" 
			},
			{
				"x": 3.7507316445,
				"y": -2.2421867658,
				"z": -2.9108689924,
				"element": "H" 
			},
			{
				"x": 1.3780383408,
				"y": -2.6059305747,
				"z": -3.5380958566,
				"element": "H" 
			},
			{
				"x": -2.3325721837,
				"y": -3.3024116656,
				"z": -2.0432677269,
				"element": "H" 
			},
			{
				"x": -0.9645867551,
				"y": -4.2309974734,
				"z": -0.1985828749,
				"element": "H" 
			},
			{
				"x": -1.3255738359,
				"y": -5.4773844353,
				"z": -1.4103051942,
				"element": "H" 
			},
			{
				"x": 0.2851756529,
				"y": -4.7432836103,
				"z": -1.351857392,
				"element": "H" 
			},
			{
				"x": -0.0527436319,
				"y": -4.2003207251,
				"z": -3.8845876846,
				"element": "H" 
			},
			{
				"x": -1.3307032785,
				"y": -3.0489077896,
				"z": -4.3363175686,
				"element": "H" 
			},
			{
				"x": -1.7403395297,
				"y": -4.7216849656,
				"z": -3.9102852623,
				"element": "H" 
			},
			{
				"x": 0.4962872562,
				"y": -2.9594273869,
				"z": 1.8319991464,
				"element": "H" 
			},
			{
				"x": -1.2738477858,
				"y": -2.746240226,
				"z": 3.5516710172,
				"element": "H" 
			},
			{
				"x": -2.947489228,
				"y": -0.9021385207,
				"z": 3.3709759548,
				"element": "H" 
			},
			{
				"x": -2.8088413661,
				"y": 0.694812976,
				"z": 1.5136581784,
				"element": "H" 
			},
			{
				"x": -0.5527425707,
				"y": 3.3600799769,
				"z": -0.7767668698,
				"element": "H" 
			},
			{
				"x": 1.6569828823,
				"y": 2.6648899709,
				"z": -0.4879447496,
				"element": "H" 
			},
			{
				"x": 1.2976303863,
				"y": 1.5789362097,
				"z": 0.8413616405,
				"element": "H" 
			},
			{
				"x": 2.5186808113,
				"y": 3.8932213043,
				"z": 1.3443448711,
				"element": "H" 
			},
			{
				"x": 1.3241915168,
				"y": 3.2714905598,
				"z": 2.4687086588,
				"element": "H" 
			},
			{
				"x": 0.9510286438,
				"y": 5.7184220035,
				"z": 1.9373145515,
				"element": "H" 
			},
			{
				"x": 0.7088457313,
				"y": 5.2872923924,
				"z": 0.2552027273,
				"element": "H" 
			},
			{
				"x": -1.1123995749,
				"y": 4.7927883105,
				"z": 2.6298584888,
				"element": "H" 
			},
			{
				"x": -1.5244088495,
				"y": 5.2989792795,
				"z": 1.0013806741,
				"element": "H" 
			},
			{
				"x": -1.0924036183,
				"y": 2.4963720943,
				"z": 2.0922671734,
				"element": "H" 
			},
			{
				"x": -2.3490317752,
				"y": 3.0901241442,
				"z": 1.0237535846,
				"element": "H" 
			},
			{
				"x": -3.3059169739,
				"y": 1.5970790992,
				"z": -0.3458014109,
				"element": "H" 
			},
			{
				"x": -2.9082106007,
				"y": -0.1490369103,
				"z": -2.811354544,
				"element": "H" 
			},
			{
				"x": -3.2370444627,
				"y": -0.7905991093,
				"z": -1.2193485131,
				"element": "H" 
			},
			{
				"x": -5.2639181208,
				"y": -0.3820403225,
				"z": -2.873261637,
				"element": "H" 
			},
			{
				"x": -5.4705862577,
				"y": 0.0079566052,
				"z": -1.1757533275,
				"element": "H" 
			},
			{
				"x": -6.1698838824,
				"y": 1.789865242,
				"z": -3.0695979401,
				"element": "H" 
			},
			{
				"x": -5.4973522828,
				"y": 2.3291551249,
				"z": -1.5429781698,
				"element": "H" 
			},
			{
				"x": -3.8396147591,
				"y": 1.8447743175,
				"z": -4.0655980554,
				"element": "H" 
			},
			{
				"x": -4.3677961809,
				"y": 3.4275001527,
				"z": -3.5260134257,
				"element": "H" 
			},
			{
				"x": -1.9479176975,
				"y": 2.5833155758,
				"z": -2.8682712434,
				"element": "H" 
			},
			{
				"x": -2.8929127735,
				"y": 3.4639793515,
				"z": -1.6780998251,
				"element": "H" 
			}
		],
		 "valence_orbital": [ 
			{
				"type": "occ",
				"energy": -0.24152,
				"method": "rhf"
			},
			{
				"type": "occ",
				"energy": -0.23596,
				"method": "rhf"
			},
			{
				"type": "occ",
				"energy": -0.22182,
				"method": "rhf"
			},
			{
				"type": "occ",
				"energy": -0.20953,
				"method": "rhf"
			},
			{
				"type": "occ",
				"energy": -0.19596,
				"method": "rhf"
			},
			{
				"type": "unocc",
				"energy": -0.00686,
				"method": "rhf"
			},
			{
				"type": "unocc",
				"energy": -0.00248,
				"method": "rhf"
			},
			{
				"type": "unocc",
				"energy": 0.01629,
				"method": "rhf"
			},
			{
				"type": "unocc",
				"energy": 0.02059,
				"method": "rhf"
			},
			{
				"type": "unocc",
				"energy": 0.06903,
				"method": "rhf"
			}
		],
		"cosmo_sigma_profile": { 
			"-0.025": 0.0,
			"-0.024": 0.0,
			"-0.023": 0.0,
			"-0.022": 0.0,
			"-0.021": 0.0,
			"-0.02": 0.0,
			"-0.019": 0.0,
			"-0.018": 0.0,
			"-0.017": 0.0,
			"-0.016": 0.0,
			"-0.015": 0.0,
			"-0.014": 0.0,
			"-0.013": 0.0,
			"-0.012": 0.0,
			"-0.011": 0.0,
			"-0.01": 0.0,
			"-0.009": 0.0,
			"-0.008": 0.0218781655851,
			"-0.007": 1.00021429013,
			"-0.006": 5.95976202559,
			"-0.005": 15.1761481676,
			"-0.004": 31.1528933818,
			"-0.003": 42.9077952175,
			"-0.002": 72.6460850999,
			"-0.001": 98.3457250132,
			"0.0": 93.3451421583,
			"0.001": 70.1840790317,
			"0.002": 32.5024851713,
			"0.003": 18.3540967251,
			"0.004": 14.8187451371,
			"0.005": 14.2859773975,
			"0.006": 11.9951910227,
			"0.007": 7.33249746369,
			"0.008": 4.85338219913,
			"0.009": 2.45370877093,
			"0.01": 2.46582925034,
			"0.011": 1.71342720127,
			"0.012": 1.982543465,
			"0.013": 1.34515155348,
			"0.014": 1.05875721573,
			"0.015": 0.550039396049,
			"0.016": 0.119293296237,
			"0.017": 0.0,
			"0.018": 0.0,
			"0.019": 0.0,
			"0.02": 0.0,
			"0.021": 0.0,
			"0.022": 0.0,
			"0.023": 0.0,
			"0.024": 0.0,
			"0.025": 0.0
		}
	}
}
