{
	 "smiles": "OCC(I)CC(F)(F)C(F)(F)C(F)(F)C(F)(F)C(F)(F)C(F)(F)C(F)(F)C(F)(F)F", 
	 "Tm": 327.65, 
	 "num_atms": 36, 
	 "gaussian": { 
		 "optdone": 1, 
		 "sigma_profile": "no", 
		 "theory": "DFT", 
		 "functional": "B3LYP", 
		 "basiset": "6-31G**", 
		 "properties": { 
			 "R2extent": 15245.8682, 
			 "electric_dipole_moment_norm": 1.70959599321, 
			 "electric_quadrupole_moment_norm": 7.53540918133, 
			 "total_energy": -2206.61321663, 
			 "HOMO_LUMO_gap": 0.21244, 
			 "cosmo_polarized_energy": -78796.17, 
			 "cosmo_cavitation_energy": 47.76, 
			 "cosmo_dispersion_energy": -32.06, 
			 "cosmo_repulsion_energy": 2.11, 
			 "cosmo_total_nonelectrostatic_energy": 17.82, 
			 "SMD_solvation_energy": 12.03 
		},
		"coords": [
			{
				"x": 3.8049604338,
				"y": -2.54534522,
				"z": -4.6375771609,
				"element": "O" 
			},
			{
				"x": 2.7466805924,
				"y": -2.2726671999,
				"z": -3.7549778776,
				"element": "C" 
			},
			{
				"x": 3.1342355854,
				"y": -1.368545775,
				"z": -2.5780424088,
				"element": "C" 
			},
			{
				"x": 3.8093335779,
				"y": 0.5786090474,
				"z": -3.3871686847,
				"element": "I" 
			},
			{
				"x": 1.9829972321,
				"y": -1.2108711984,
				"z": -1.5837764699,
				"element": "C" 
			},
			{
				"x": 2.4020000728,
				"y": -0.7587860368,
				"z": -0.1910958513,
				"element": "C" 
			},
			{
				"x": 3.4525642764,
				"y": -1.5207982349,
				"z": 0.2396205197,
				"element": "F" 
			},
			{
				"x": 2.8109160975,
				"y": 0.5399793744,
				"z": -0.1711285825,
				"element": "F" 
			},
			{
				"x": 1.3169495232,
				"y": -0.9132042318,
				"z": 0.9099730091,
				"element": "C" 
			},
			{
				"x": 1.8474504368,
				"y": -0.5259650214,
				"z": 2.0892672745,
				"element": "F" 
			},
			{
				"x": 0.9995525031,
				"y": -2.2347729172,
				"z": 0.9890511389,
				"element": "F" 
			},
			{
				"x": -0.04285035,
				"y": -0.1727825001,
				"z": 0.7296818572,
				"element": "C" 
			},
			{
				"x": -0.7738798956,
				"y": -0.4433130227,
				"z": 1.8361049674,
				"element": "F" 
			},
			{
				"x": -0.6725601077,
				"y": -0.7085655968,
				"z": -0.3482449824,
				"element": "F" 
			},
			{
				"x": 0.011975604,
				"y": 1.3711013525,
				"z": 0.5344281686,
				"element": "C" 
			},
			{
				"x": 0.398370973,
				"y": 1.6104118426,
				"z": -0.7433517964,
				"element": "F" 
			},
			{
				"x": 0.9170166831,
				"y": 1.9029297529,
				"z": 1.3806219841,
				"element": "F" 
			},
			{
				"x": -1.3605934451,
				"y": 2.0696314219,
				"z": 0.7991158565,
				"element": "C" 
			},
			{
				"x": -1.5435202006,
				"y": 2.1039162329,
				"z": 2.1401635201,
				"element": "F" 
			},
			{
				"x": -2.348922163,
				"y": 1.3433370346,
				"z": 0.2286841518,
				"element": "F" 
			},
			{
				"x": -1.4493616603,
				"y": 3.5223441891,
				"z": 0.2603296943,
				"element": "C" 
			},
			{
				"x": -0.4113962691,
				"y": 4.2301530954,
				"z": 0.7592694781,
				"element": "F" 
			},
			{
				"x": -1.3545136569,
				"y": 3.4838226964,
				"z": -1.0890985153,
				"element": "F" 
			},
			{
				"x": -2.7702882766,
				"y": 4.3008562191,
				"z": 0.5563957343,
				"element": "C" 
			},
			{
				"x": -2.6017065961,
				"y": 5.5186337241,
				"z": -0.0087001478,
				"element": "F" 
			},
			{
				"x": -3.7889851881,
				"y": 3.6627956354,
				"z": -0.0612651999,
				"element": "F" 
			},
			{
				"x": -3.1809575593,
				"y": 4.5335273152,
				"z": 2.0355873322,
				"element": "C" 
			},
			{
				"x": -4.0657392342,
				"y": 5.5360258474,
				"z": 2.0832349441,
				"element": "F" 
			},
			{
				"x": -2.1176159956,
				"y": 4.8590511745,
				"z": 2.7808820373,
				"element": "F" 
			},
			{
				"x": -3.7564664763,
				"y": 3.4359306105,
				"z": 2.5392153498,
				"element": "F" 
			},
			{
				"x": 4.0522116606,
				"y": -1.7145033163,
				"z": -5.0703107243,
				"element": "H" 
			},
			{
				"x": 2.4537596966,
				"y": -3.2416447357,
				"z": -3.3294098549,
				"element": "H" 
			},
			{
				"x": 1.8650434109,
				"y": -1.8566935202,
				"z": -4.2673219201,
				"element": "H" 
			},
			{
				"x": 4.0292287116,
				"y": -1.7576469311,
				"z": -2.0938088333,
				"element": "H" 
			},
			{
				"x": 1.519193258,
				"y": -2.1968772516,
				"z": -1.4559044993,
				"element": "H" 
			},
			{
				"x": 1.2128167454,
				"y": -0.5381738563,
				"z": -1.9638435086,
				"element": "H" 
			}
		],
		 "valence_orbital": [ 
			{
				"type": "occ",
				"energy": -0.34516,
				"method": "rhf"
			},
			{
				"type": "occ",
				"energy": -0.33525,
				"method": "rhf"
			},
			{
				"type": "occ",
				"energy": -0.29224,
				"method": "rhf"
			},
			{
				"type": "occ",
				"energy": -0.27401,
				"method": "rhf"
			},
			{
				"type": "occ",
				"energy": -0.27162,
				"method": "rhf"
			},
			{
				"type": "unocc",
				"energy": -0.05918,
				"method": "rhf"
			},
			{
				"type": "unocc",
				"energy": -0.00526,
				"method": "rhf"
			},
			{
				"type": "unocc",
				"energy": 0.01246,
				"method": "rhf"
			},
			{
				"type": "unocc",
				"energy": 0.03454,
				"method": "rhf"
			},
			{
				"type": "unocc",
				"energy": 0.03712,
				"method": "rhf"
			}
		],
		"cosmo_sigma_profile": { 
			"0.0": 0.0,
			"0.0": 0.0,
			"0.0": 0.0,
			"0.0": 0.0,
			"0.0": 0.0,
			"0.0": 0.0,
			"0.0": 0.0,
			"0.0": 0.0,
			"0.0": 0.0,
			"0.0": 0.0,
			"0.0": 0.0,
			"0.0": 0.0,
			"0.0": 0.0,
			"0.0": 0.0,
			"0.0": 0.0,
			"0.0": 0.0,
			"0.0": 0.0,
			"0.0": 0.0,
			"0.0": 0.0,
			"0.0": 0.0,
			"0.0": 0.0,
			"0.0": 0.0,
			"0.0": 0.0,
			"0.0": 0.0,
			"0.0": 0.0,
			"0.0": 0.0,
			"0.0": 0.0,
			"0.0": 0.0,
			"0.0": 0.0,
			"0.0": 0.0,
			"0.0": 0.0,
			"0.0": 0.0,
			"0.0": 0.0,
			"0.0": 0.0,
			"0.0": 0.0,
			"0.0": 0.0,
			"0.0": 0.0,
			"0.0": 0.0,
			"0.0": 0.0,
			"0.0": 0.0,
			"0.0": 0.0,
			"0.0": 0.0,
			"0.0": 0.0,
			"0.0": 0.0,
			"0.0": 0.0,
			"0.0": 0.0,
			"0.0": 0.0,
			"0.0": 0.0,
			"0.0": 0.0,
			"0.0": 0.0,
			"0.0": 0.0
		}
	}
}
