{
	 "smiles": "COC1=CC(O)=C(CCN)C=C1", 
	 "Tm": 372.15, 
	 "num_atms": 25, 
	 "gaussian": { 
		 "optdone": 1, 
		 "sigma_profile": "yes", 
		 "theory": "DFT", 
		 "functional": "B3LYP", 
		 "basiset": "6-31G**", 
		 "properties": { 
			 "R2extent": 2805.3239, 
			 "electric_dipole_moment_norm": 2.62493549826, 
			 "electric_quadrupole_moment_norm": 14.6316856408, 
			 "total_energy": -555.975258667, 
			 "HOMO_LUMO_gap": 0.21322, 
			 "cosmo_polarized_energy": -13.25, 
			 "cosmo_cavitation_energy": 27.66, 
			 "cosmo_dispersion_energy": -20.14, 
			 "cosmo_repulsion_energy": 1.61, 
			 "cosmo_total_nonelectrostatic_energy": 9.13, 
			 "SMD_solvation_energy": 4.09 
		},
		"coords": [
			{
				"x": -2.4332369809,
				"y": 3.1722714938,
				"z": -1.0778107158,
				"element": "C" 
			},
			{
				"x": -1.6626581234,
				"y": 2.2600273327,
				"z": -1.8423544389,
				"element": "O" 
			},
			{
				"x": -1.3291408708,
				"y": 1.0641317159,
				"z": -1.2744809242,
				"element": "C" 
			},
			{
				"x": -0.57039059,
				"y": 0.2078920049,
				"z": -2.080067228,
				"element": "C" 
			},
			{
				"x": -0.1731348942,
				"y": -1.0357590856,
				"z": -1.5986470539,
				"element": "C" 
			},
			{
				"x": 0.5742556231,
				"y": -1.8058330916,
				"z": -2.4485346257,
				"element": "O" 
			},
			{
				"x": -0.5282327809,
				"y": -1.468554551,
				"z": -0.3011603223,
				"element": "C" 
			},
			{
				"x": -0.0580972896,
				"y": -2.7992685073,
				"z": 0.2432941131,
				"element": "C" 
			},
			{
				"x": 1.4117673046,
				"y": -2.787741386,
				"z": 0.7444993703,
				"element": "C" 
			},
			{
				"x": 1.70607543,
				"y": -1.8821648922,
				"z": 1.8501773592,
				"element": "N" 
			},
			{
				"x": -1.2886696128,
				"y": -0.5893998529,
				"z": 0.4741108235,
				"element": "C" 
			},
			{
				"x": -1.6966911547,
				"y": 0.6661881474,
				"z": 0.0166117235,
				"element": "C" 
			},
			{
				"x": -1.9116441607,
				"y": 3.475835847,
				"z": -0.1607803176,
				"element": "H" 
			},
			{
				"x": -3.4116418742,
				"y": 2.7527079723,
				"z": -0.809786121,
				"element": "H" 
			},
			{
				"x": -2.5809392602,
				"y": 4.0478822776,
				"z": -1.7120331426,
				"element": "H" 
			},
			{
				"x": -0.2909175647,
				"y": 0.5145276134,
				"z": -3.0813590826,
				"element": "H" 
			},
			{
				"x": 0.7271290263,
				"y": -2.6703202257,
				"z": -2.0478947312,
				"element": "H" 
			},
			{
				"x": -0.1730012587,
				"y": -3.5970041934,
				"z": -0.5094004223,
				"element": "H" 
			},
			{
				"x": -0.7099204552,
				"y": -3.0968936296,
				"z": 1.0737552438,
				"element": "H" 
			},
			{
				"x": 1.6883916155,
				"y": -3.8038474378,
				"z": 1.0515417275,
				"element": "H" 
			},
			{
				"x": 2.0757432538,
				"y": -2.5225400914,
				"z": -0.0882816048,
				"element": "H" 
			},
			{
				"x": 1.1420654927,
				"y": -2.1294808022,
				"z": 2.6607616452,
				"element": "H" 
			},
			{
				"x": 1.4381752716,
				"y": -0.9338560406,
				"z": 1.5952961938,
				"element": "H" 
			},
			{
				"x": -1.5836510945,
				"y": -0.9014532463,
				"z": 1.4732485656,
				"element": "H" 
			},
			{
				"x": -2.2891350522,
				"y": 1.3052526284,
				"z": 0.6591939653,
				"element": "H" 
			}
		],
		 "valence_orbital": [ 
			{
				"type": "occ",
				"energy": -0.32411,
				"method": "rhf"
			},
			{
				"type": "occ",
				"energy": -0.3013,
				"method": "rhf"
			},
			{
				"type": "occ",
				"energy": -0.23638,
				"method": "rhf"
			},
			{
				"type": "occ",
				"energy": -0.22599,
				"method": "rhf"
			},
			{
				"type": "occ",
				"energy": -0.20905,
				"method": "rhf"
			},
			{
				"type": "unocc",
				"energy": 0.00417,
				"method": "rhf"
			},
			{
				"type": "unocc",
				"energy": 0.01993,
				"method": "rhf"
			},
			{
				"type": "unocc",
				"energy": 0.06171,
				"method": "rhf"
			},
			{
				"type": "unocc",
				"energy": 0.08645,
				"method": "rhf"
			},
			{
				"type": "unocc",
				"energy": 0.10128,
				"method": "rhf"
			}
		],
		"cosmo_sigma_profile": { 
			"-0.025": 0.0,
			"-0.024": 0.0,
			"-0.023": 0.0,
			"-0.022": 0.0,
			"-0.021": 0.0,
			"-0.02": 0.0,
			"-0.019": 0.0,
			"-0.018": 0.0,
			"-0.017": 0.00028465230495,
			"-0.016": 0.484367725717,
			"-0.015": 0.481201162566,
			"-0.014": 1.19728317741,
			"-0.013": 0.842509119472,
			"-0.012": 0.706399159965,
			"-0.011": 0.820607354056,
			"-0.01": 1.49757795198,
			"-0.009": 2.28524454701,
			"-0.008": 2.97025054114,
			"-0.007": 3.08715729727,
			"-0.006": 8.06801467855,
			"-0.005": 19.694051178,
			"-0.004": 21.7307268888,
			"-0.003": 23.9358576986,
			"-0.002": 19.1190435203,
			"-0.001": 13.0586462036,
			"0.0": 10.524211681,
			"0.001": 8.80899027662,
			"0.002": 7.57133220924,
			"0.003": 9.73288084947,
			"0.004": 11.9204404973,
			"0.005": 14.4151707565,
			"0.006": 8.11395803945,
			"0.007": 4.16995297905,
			"0.008": 4.08738311949,
			"0.009": 3.42486431925,
			"0.01": 4.11645954528,
			"0.011": 3.70713401776,
			"0.012": 1.84275478383,
			"0.013": 0.131346487134,
			"0.014": 0.33894922076,
			"0.015": 1.02735928372,
			"0.016": 0.768742235186,
			"0.017": 0.664298353498,
			"0.018": 0.427637704683,
			"0.019": 0.725226560311,
			"0.02": 0.437650103689,
			"0.021": 0.0,
			"0.022": 0.0,
			"0.023": 0.0,
			"0.024": 0.0,
			"0.025": 0.0
		}
	}
}
