{
	 "smiles": "OC(=O)C1=CNC2=C(C=C(I)C=C2)C1=O", 
	 "Tm": 560.15, 
	 "num_atms": 21, 
	 "gaussian": { 
		 "optdone": 1, 
		 "sigma_profile": "yes", 
		 "theory": "DFT", 
		 "functional": "B3LYP", 
		 "basiset": "6-31G**", 
		 "properties": { 
			 "R2extent": 3903.0765, 
			 "electric_dipole_moment_norm": 5.69079992005, 
			 "electric_quadrupole_moment_norm": 10.2142331425, 
			 "total_energy": -676.512893802, 
			 "HOMO_LUMO_gap": 0.16956, 
			 "cosmo_polarized_energy": -25.03, 
			 "cosmo_cavitation_energy": 29.54, 
			 "cosmo_dispersion_energy": -23.41, 
			 "cosmo_repulsion_energy": 1.78, 
			 "cosmo_total_nonelectrostatic_energy": 7.9, 
			 "SMD_solvation_energy": 5.86 
		},
		"coords": [
			{
				"x": 4.1989147151,
				"y": 0.2573691032,
				"z": -1.3764677968,
				"element": "O" 
			},
			{
				"x": 3.365519539,
				"y": -0.5195100677,
				"z": -2.0895055497,
				"element": "C" 
			},
			{
				"x": 3.768060054,
				"y": -1.2634696999,
				"z": -2.9714867941,
				"element": "O" 
			},
			{
				"x": 1.9336365838,
				"y": -0.396451727,
				"z": -1.7171418342,
				"element": "C" 
			},
			{
				"x": 1.0885186332,
				"y": -1.191296543,
				"z": -2.4481806554,
				"element": "C" 
			},
			{
				"x": -0.2507327957,
				"y": -1.224739399,
				"z": -2.2630612743,
				"element": "N" 
			},
			{
				"x": -0.8813030054,
				"y": -0.443018758,
				"z": -1.3017558605,
				"element": "C" 
			},
			{
				"x": -0.0901148216,
				"y": 0.4039321487,
				"z": -0.5045773712,
				"element": "C" 
			},
			{
				"x": -0.7131472877,
				"y": 1.1989021352,
				"z": 0.46985535,
				"element": "C" 
			},
			{
				"x": -2.0882232311,
				"y": 1.1439038277,
				"z": 0.63724239,
				"element": "C" 
			},
			{
				"x": -3.0256726992,
				"y": 2.345448875,
				"z": 2.1091441283,
				"element": "I" 
			},
			{
				"x": -2.8758094948,
				"y": 0.2967122714,
				"z": -0.1608187384,
				"element": "C" 
			},
			{
				"x": -2.2733843107,
				"y": -0.4943950718,
				"z": -1.1275948971,
				"element": "C" 
			},
			{
				"x": 1.3966807141,
				"y": 0.4828696697,
				"z": -0.664110653,
				"element": "C" 
			},
			{
				"x": 2.0613576411,
				"y": 1.2308830462,
				"z": 0.0460137111,
				"element": "O" 
			},
			{
				"x": 5.0853912063,
				"y": 0.0697331831,
				"z": -1.7292156614,
				"element": "H" 
			},
			{
				"x": 1.4937787917,
				"y": -1.8352705701,
				"z": -3.2210827404,
				"element": "H" 
			},
			{
				"x": -0.812181498,
				"y": -1.8355713429,
				"z": -2.8382795844,
				"element": "H" 
			},
			{
				"x": -0.0756808873,
				"y": 1.8403975994,
				"z": 1.0674362845,
				"element": "H" 
			},
			{
				"x": -3.9506919263,
				"y": 0.2574463367,
				"z": -0.0258953759,
				"element": "H" 
			},
			{
				"x": -2.8781159205,
				"y": -1.1513750169,
				"z": -1.747517077,
				"element": "H" 
			}
		],
		 "valence_orbital": [ 
			{
				"type": "occ",
				"energy": -0.27627,
				"method": "rhf"
			},
			{
				"type": "occ",
				"energy": -0.2738,
				"method": "rhf"
			},
			{
				"type": "occ",
				"energy": -0.26303,
				"method": "rhf"
			},
			{
				"type": "occ",
				"energy": -0.2422,
				"method": "rhf"
			},
			{
				"type": "occ",
				"energy": -0.2315,
				"method": "rhf"
			},
			{
				"type": "unocc",
				"energy": -0.06194,
				"method": "rhf"
			},
			{
				"type": "unocc",
				"energy": -0.0539,
				"method": "rhf"
			},
			{
				"type": "unocc",
				"energy": -0.04468,
				"method": "rhf"
			},
			{
				"type": "unocc",
				"energy": -0.00998,
				"method": "rhf"
			},
			{
				"type": "unocc",
				"energy": 0.02272,
				"method": "rhf"
			}
		],
		"cosmo_sigma_profile": { 
			"-0.025": 0.0,
			"-0.024": 0.0,
			"-0.023": 0.0,
			"-0.022": 0.0,
			"-0.021": 0.0,
			"-0.02": 0.0,
			"-0.019": 0.024288868277,
			"-0.018": 1.43313583419,
			"-0.017": 3.29006255478,
			"-0.016": 3.05871999662,
			"-0.015": 2.08160564064,
			"-0.014": 1.87571715753,
			"-0.013": 1.79200787097,
			"-0.012": 2.40539276458,
			"-0.011": 3.01035308686,
			"-0.01": 3.32588526228,
			"-0.009": 2.80622705016,
			"-0.008": 4.49320977748,
			"-0.007": 7.54570722129,
			"-0.006": 6.34228551317,
			"-0.005": 7.29688823149,
			"-0.004": 9.76334559005,
			"-0.003": 11.0570029827,
			"-0.002": 17.6616142075,
			"-0.001": 18.6320672538,
			"0.0": 18.6016425272,
			"0.001": 21.3289297324,
			"0.002": 20.8597246767,
			"0.003": 12.5846717607,
			"0.004": 17.4506214581,
			"0.005": 4.95035657147,
			"0.006": 3.44291369125,
			"0.007": 3.4271783089,
			"0.008": 2.74631123529,
			"0.009": 2.59910614009,
			"0.01": 3.25336792531,
			"0.011": 4.86292911887,
			"0.012": 7.25734459925,
			"0.013": 5.16179034879,
			"0.014": 2.71039516747,
			"0.015": 1.44372178846,
			"0.016": 1.8313251859,
			"0.017": 0.413510099533,
			"0.018": 0.0,
			"0.019": 0.0,
			"0.02": 0.0,
			"0.021": 0.0,
			"0.022": 0.0,
			"0.023": 0.0,
			"0.024": 0.0,
			"0.025": 0.0
		}
	}
}
