{
	 "smiles": "BrCC(=O)C1=CC=CS1", 
	 "Tm": 383.15, 
	 "num_atms": 14, 
	 "gaussian": { 
		 "optdone": 1, 
		 "sigma_profile": "yes", 
		 "theory": "DFT", 
		 "functional": "B3LYP", 
		 "basiset": "6-31G**", 
		 "properties": { 
			 "R2extent": 3974.07, 
			 "electric_dipole_moment_norm": 3.16443235668, 
			 "electric_quadrupole_moment_norm": 9.31859712242, 
			 "total_energy": -3276.44660375, 
			 "HOMO_LUMO_gap": 0.1736, 
			 "cosmo_polarized_energy": -8.71, 
			 "cosmo_cavitation_energy": 22.28, 
			 "cosmo_dispersion_energy": -17.17, 
			 "cosmo_repulsion_energy": 1.36, 
			 "cosmo_total_nonelectrostatic_energy": 6.47, 
			 "SMD_solvation_energy": 3.44 
		},
		"coords": [
			{
				"x": 3.7208578801,
				"y": -2.5886841274,
				"z": 0.344836132,
				"element": "Br" 
			},
			{
				"x": 2.8469991697,
				"y": -1.1098227979,
				"z": 1.3289217563,
				"element": "C" 
			},
			{
				"x": 2.1815908103,
				"y": -0.134420521,
				"z": 0.3640919871,
				"element": "C" 
			},
			{
				"x": 2.6953140744,
				"y": 0.9574118076,
				"z": 0.1696546177,
				"element": "O" 
			},
			{
				"x": 0.9112856101,
				"y": -0.5019783099,
				"z": -0.2842394901,
				"element": "C" 
			},
			{
				"x": 0.1976757551,
				"y": 0.3279970766,
				"z": -1.1252670706,
				"element": "C" 
			},
			{
				"x": -1.0149290775,
				"y": -0.2447607437,
				"z": -1.5823444567,
				"element": "C" 
			},
			{
				"x": -1.2186563389,
				"y": -1.5087428179,
				"z": -1.0838376273,
				"element": "C" 
			},
			{
				"x": 0.0717683361,
				"y": -2.021439497,
				"z": -0.0605887702,
				"element": "S" 
			},
			{
				"x": 3.6369349677,
				"y": -0.5897936247,
				"z": 1.8649391253,
				"element": "H" 
			},
			{
				"x": 2.144524952,
				"y": -1.5811856522,
				"z": 2.0169266954,
				"element": "H" 
			},
			{
				"x": 0.5584252524,
				"y": 1.3164281702,
				"z": -1.3824016467,
				"element": "H" 
			},
			{
				"x": -1.7095709105,
				"y": 0.251907413,
				"z": -2.2495170071,
				"element": "H" 
			},
			{
				"x": -2.0518204808,
				"y": -2.1728163757,
				"z": -1.2710742452,
				"element": "H" 
			}
		],
		 "valence_orbital": [ 
			{
				"type": "occ",
				"energy": -0.29426,
				"method": "rhf"
			},
			{
				"type": "occ",
				"energy": -0.28571,
				"method": "rhf"
			},
			{
				"type": "occ",
				"energy": -0.26775,
				"method": "rhf"
			},
			{
				"type": "occ",
				"energy": -0.26156,
				"method": "rhf"
			},
			{
				"type": "occ",
				"energy": -0.2529,
				"method": "rhf"
			},
			{
				"type": "unocc",
				"energy": -0.0793,
				"method": "rhf"
			},
			{
				"type": "unocc",
				"energy": -0.01916,
				"method": "rhf"
			},
			{
				"type": "unocc",
				"energy": 0.01388,
				"method": "rhf"
			},
			{
				"type": "unocc",
				"energy": 0.02952,
				"method": "rhf"
			},
			{
				"type": "unocc",
				"energy": 0.0749,
				"method": "rhf"
			}
		],
		"cosmo_sigma_profile": { 
			"-0.025": 0.0,
			"-0.024": 0.0,
			"-0.023": 0.0,
			"-0.022": 0.0,
			"-0.021": 0.0,
			"-0.02": 0.0,
			"-0.019": 0.0,
			"-0.018": 0.0,
			"-0.017": 0.0,
			"-0.016": 0.0,
			"-0.015": 0.0,
			"-0.014": 0.0,
			"-0.013": 0.0,
			"-0.012": 0.0,
			"-0.011": 0.0,
			"-0.01": 0.841197617484,
			"-0.009": 4.49830573735,
			"-0.008": 7.71789083034,
			"-0.007": 9.22058030744,
			"-0.006": 9.96857075241,
			"-0.005": 10.2503980409,
			"-0.004": 8.79824600084,
			"-0.003": 8.55549427872,
			"-0.002": 7.63705782054,
			"-0.001": 9.18189121326,
			"0.0": 11.2980400701,
			"0.001": 17.1444036052,
			"0.002": 20.640563928,
			"0.003": 18.158599662,
			"0.004": 13.0976241568,
			"0.005": 11.7722256058,
			"0.006": 0.893619612959,
			"0.007": 1.53791007489,
			"0.008": 2.16746216882,
			"0.009": 1.94882893926,
			"0.01": 2.30275406366,
			"0.011": 4.5324469507,
			"0.012": 1.78033055814,
			"0.013": 0.0728627644331,
			"0.014": 0.0,
			"0.015": 0.0,
			"0.016": 0.0,
			"0.017": 0.0,
			"0.018": 0.0,
			"0.019": 0.0,
			"0.02": 0.0,
			"0.021": 0.0,
			"0.022": 0.0,
			"0.023": 0.0,
			"0.024": 0.0,
			"0.025": 0.0
		}
	}
}
