{
	 "smiles": "CN1C2=C(C=CC=C2)N=C1C(=NNC1=C(Cl)C=C(Cl)C=C1)C#N", 
	 "Tm": 433.15, 
	 "num_atms": 34, 
	 "gaussian": { 
		 "optdone": 1, 
		 "sigma_profile": "yes", 
		 "theory": "DFT", 
		 "functional": "B3LYP", 
		 "basiset": "6-31G**", 
		 "properties": { 
			 "R2extent": 12969.3258, 
			 "electric_dipole_moment_norm": 5.32015460866, 
			 "electric_quadrupole_moment_norm": 13.0041197192, 
			 "total_energy": -1810.43383754, 
			 "HOMO_LUMO_gap": 0.12547, 
			 "cosmo_polarized_energy": -16.67, 
			 "cosmo_cavitation_energy": 43.96, 
			 "cosmo_dispersion_energy": -30.97, 
			 "cosmo_repulsion_energy": 2.31, 
			 "cosmo_total_nonelectrostatic_energy": 15.3, 
			 "SMD_solvation_energy": 5.68 
		},
		"coords": [
			{
				"x": -1.6144367196,
				"y": -1.2045225853,
				"z": -0.7152701609,
				"element": "C" 
			},
			{
				"x": -0.7086976228,
				"y": -2.2653989758,
				"z": -0.2998311212,
				"element": "N" 
			},
			{
				"x": -0.9478204068,
				"y": -3.6261999866,
				"z": -0.4272715964,
				"element": "C" 
			},
			{
				"x": 0.2001627201,
				"y": -4.2645900429,
				"z": 0.1058815292,
				"element": "C" 
			},
			{
				"x": 0.2812481744,
				"y": -5.6656392962,
				"z": 0.1276492631,
				"element": "C" 
			},
			{
				"x": -0.7884345468,
				"y": -6.3871390955,
				"z": -0.3843847475,
				"element": "C" 
			},
			{
				"x": -1.9254367556,
				"y": -5.7373310819,
				"z": -0.9119533922,
				"element": "C" 
			},
			{
				"x": -2.0273323595,
				"y": -4.3498480105,
				"z": -0.9436104666,
				"element": "C" 
			},
			{
				"x": 1.1057862619,
				"y": -3.3256415465,
				"z": 0.5432327212,
				"element": "N" 
			},
			{
				"x": 0.5412162134,
				"y": -2.1586215229,
				"z": 0.291112706,
				"element": "C" 
			},
			{
				"x": 1.221404653,
				"y": -0.9163247049,
				"z": 0.6271293672,
				"element": "C" 
			},
			{
				"x": 0.6925656529,
				"y": 0.2576058409,
				"z": 0.4020001584,
				"element": "N" 
			},
			{
				"x": 1.3701728354,
				"y": 1.3520326524,
				"z": 0.7338239263,
				"element": "N" 
			},
			{
				"x": 0.8420423732,
				"y": 2.6216398285,
				"z": 0.5129676736,
				"element": "C" 
			},
			{
				"x": 1.5841599397,
				"y": 3.7634431224,
				"z": 0.8693046151,
				"element": "C" 
			},
			{
				"x": 3.1750468377,
				"y": 3.5806379891,
				"z": 1.5920083214,
				"element": "Cl" 
			},
			{
				"x": 1.0862765033,
				"y": 5.0462365113,
				"z": 0.6622652322,
				"element": "C" 
			},
			{
				"x": -0.1742781707,
				"y": 5.2003234766,
				"z": 0.0896274131,
				"element": "C" 
			},
			{
				"x": -0.808201451,
				"y": 6.8133552408,
				"z": -0.1745758769,
				"element": "Cl" 
			},
			{
				"x": -0.9319226823,
				"y": 4.0861493284,
				"z": -0.273070804,
				"element": "C" 
			},
			{
				"x": -0.4249236283,
				"y": 2.8096650067,
				"z": -0.0615065758,
				"element": "C" 
			},
			{
				"x": 2.5254566506,
				"y": -1.0297910377,
				"z": 1.2304829007,
				"element": "C" 
			},
			{
				"x": 3.5768785931,
				"y": -0.9301794005,
				"z": 1.7197507374,
				"element": "N" 
			},
			{
				"x": -1.1391904788,
				"y": -0.5532446124,
				"z": -1.4521736083,
				"element": "H" 
			},
			{
				"x": -1.9244208401,
				"y": -0.5979622377,
				"z": 0.1391047112,
				"element": "H" 
			},
			{
				"x": -2.496500538,
				"y": -1.662369348,
				"z": -1.1636054699,
				"element": "H" 
			},
			{
				"x": 1.1603651378,
				"y": -6.1530583455,
				"z": 0.5358400889,
				"element": "H" 
			},
			{
				"x": -0.7554482905,
				"y": -7.4723732192,
				"z": -0.381479936,
				"element": "H" 
			},
			{
				"x": -2.7429396078,
				"y": -6.3353544508,
				"z": -1.3034419579,
				"element": "H" 
			},
			{
				"x": -2.9092338569,
				"y": -3.8665874395,
				"z": -1.3521789971,
				"element": "H" 
			},
			{
				"x": 2.2940005813,
				"y": 1.2758380246,
				"z": 1.158737536,
				"element": "H" 
			},
			{
				"x": 1.6781234359,
				"y": 5.9078269603,
				"z": 0.9456376934,
				"element": "H" 
			},
			{
				"x": -1.9118757585,
				"y": 4.216944109,
				"z": -0.7176278573,
				"element": "H" 
			},
			{
				"x": -1.0027128496,
				"y": 1.9370788492,
				"z": -0.3375740262,
				"element": "H" 
			}
		],
		 "valence_orbital": [ 
			{
				"type": "occ",
				"energy": -0.28273,
				"method": "rhf"
			},
			{
				"type": "occ",
				"energy": -0.27621,
				"method": "rhf"
			},
			{
				"type": "occ",
				"energy": -0.25014,
				"method": "rhf"
			},
			{
				"type": "occ",
				"energy": -0.23244,
				"method": "rhf"
			},
			{
				"type": "occ",
				"energy": -0.21397,
				"method": "rhf"
			},
			{
				"type": "unocc",
				"energy": -0.0885,
				"method": "rhf"
			},
			{
				"type": "unocc",
				"energy": -0.03731,
				"method": "rhf"
			},
			{
				"type": "unocc",
				"energy": -0.01636,
				"method": "rhf"
			},
			{
				"type": "unocc",
				"energy": -0.01116,
				"method": "rhf"
			},
			{
				"type": "unocc",
				"energy": -0.00603,
				"method": "rhf"
			}
		],
		"cosmo_sigma_profile": { 
			"-0.025": 0.0,
			"-0.024": 0.0,
			"-0.023": 0.0,
			"-0.022": 0.0,
			"-0.021": 0.0,
			"-0.02": 0.0,
			"-0.019": 0.0,
			"-0.018": 0.0,
			"-0.017": 0.0,
			"-0.016": 0.0,
			"-0.015": 0.0,
			"-0.014": 0.0,
			"-0.013": 0.0,
			"-0.012": 0.0,
			"-0.011": 0.0,
			"-0.01": 0.394346530222,
			"-0.009": 2.63387170978,
			"-0.008": 7.50017730593,
			"-0.007": 9.01508117611,
			"-0.006": 17.850557202,
			"-0.005": 23.9231858944,
			"-0.004": 25.2618433432,
			"-0.003": 29.6940017625,
			"-0.002": 24.2959920725,
			"-0.001": 29.6386878055,
			"0.0": 31.1939467563,
			"0.001": 32.292627915,
			"0.002": 26.939143396,
			"0.003": 24.2070785313,
			"0.004": 25.6846135823,
			"0.005": 14.9134046248,
			"0.006": 9.09378561193,
			"0.007": 4.85217292228,
			"0.008": 5.01218310934,
			"0.009": 3.73587163739,
			"0.01": 3.79579826535,
			"0.011": 3.38476865364,
			"0.012": 2.01265582055,
			"0.013": 1.02648370938,
			"0.014": 1.06731487722,
			"0.015": 0.6826656503,
			"0.016": 0.095114595733,
			"0.017": 0.0,
			"0.018": 0.0,
			"0.019": 0.0,
			"0.02": 0.0,
			"0.021": 0.0,
			"0.022": 0.0,
			"0.023": 0.0,
			"0.024": 0.0,
			"0.025": 0.0
		}
	}
}
