{
	 "smiles": "ClC(=O)C1=CC=C(C=C1)C1=CC=CO1", 
	 "Tm": 375.15, 
	 "num_atms": 21, 
	 "gaussian": { 
		 "optdone": 1, 
		 "sigma_profile": "yes", 
		 "theory": "DFT", 
		 "functional": "B3LYP", 
		 "basiset": "6-31G**", 
		 "properties": { 
			 "R2extent": 5266.2438, 
			 "electric_dipole_moment_norm": 5.81601016763, 
			 "electric_quadrupole_moment_norm": 16.3909047969, 
			 "total_energy": -1034.01956997, 
			 "HOMO_LUMO_gap": 0.14341, 
			 "cosmo_polarized_energy": -8.15, 
			 "cosmo_cavitation_energy": 28.14, 
			 "cosmo_dispersion_energy": -20.86, 
			 "cosmo_repulsion_energy": 1.6, 
			 "cosmo_total_nonelectrostatic_energy": 8.89, 
			 "SMD_solvation_energy": 6.25 
		},
		"coords": [
			{
				"x": -0.0961865865,
				"y": 1.7638949508,
				"z": -5.3711799475,
				"element": "Cl" 
			},
			{
				"x": 0.3429048644,
				"y": 0.3402301031,
				"z": -4.2945818159,
				"element": "C" 
			},
			{
				"x": 0.6337887079,
				"y": -0.6967779091,
				"z": -4.8128406019,
				"element": "O" 
			},
			{
				"x": 0.2957971246,
				"y": 0.6123065477,
				"z": -2.8449516072,
				"element": "C" 
			},
			{
				"x": 0.6278164425,
				"y": -0.4610151405,
				"z": -1.9947024047,
				"element": "C" 
			},
			{
				"x": 0.6115131328,
				"y": -0.2994698736,
				"z": -0.6201965203,
				"element": "C" 
			},
			{
				"x": 0.2627786433,
				"y": 0.9406902983,
				"z": -0.0460272935,
				"element": "C" 
			},
			{
				"x": -0.0681108644,
				"y": 2.0094733599,
				"z": -0.9013355023,
				"element": "C" 
			},
			{
				"x": -0.0520258559,
				"y": 1.8483123439,
				"z": -2.2801424776,
				"element": "C" 
			},
			{
				"x": 0.2465457287,
				"y": 1.1074491462,
				"z": 1.3967388332,
				"element": "C" 
			},
			{
				"x": 0.5142321669,
				"y": 0.268060476,
				"z": 2.4514103497,
				"element": "C" 
			},
			{
				"x": 0.3203637852,
				"y": 1.0269627936,
				"z": 3.6438420068,
				"element": "C" 
			},
			{
				"x": -0.0517639499,
				"y": 2.2751318354,
				"z": 3.2401662704,
				"element": "C" 
			},
			{
				"x": -0.1017222666,
				"y": 2.3424438008,
				"z": 1.8840627168,
				"element": "O" 
			},
			{
				"x": 0.8958864265,
				"y": -1.4141945805,
				"z": -2.4367807997,
				"element": "H" 
			},
			{
				"x": 0.8704042233,
				"y": -1.1379594654,
				"z": 0.0181407523,
				"element": "H" 
			},
			{
				"x": -0.337990487,
				"y": 2.9676477396,
				"z": -0.4728041142,
				"element": "H" 
			},
			{
				"x": -0.3092647029,
				"y": 2.6806636406,
				"z": -2.9238334379,
				"element": "H" 
			},
			{
				"x": 0.8139600786,
				"y": -0.7676794576,
				"z": 2.3875993204,
				"element": "H" 
			},
			{
				"x": 0.4416151373,
				"y": 0.6887110595,
				"z": 4.6625401687,
				"element": "H" 
			},
			{
				"x": -0.3039417489,
				"y": 3.1828183313,
				"z": 3.7661761045,
				"element": "H" 
			}
		],
		 "valence_orbital": [ 
			{
				"type": "occ",
				"energy": -0.30434,
				"method": "rhf"
			},
			{
				"type": "occ",
				"energy": -0.29318,
				"method": "rhf"
			},
			{
				"type": "occ",
				"energy": -0.28803,
				"method": "rhf"
			},
			{
				"type": "occ",
				"energy": -0.27431,
				"method": "rhf"
			},
			{
				"type": "occ",
				"energy": -0.22619,
				"method": "rhf"
			},
			{
				"type": "unocc",
				"energy": -0.08278,
				"method": "rhf"
			},
			{
				"type": "unocc",
				"energy": -0.02135,
				"method": "rhf"
			},
			{
				"type": "unocc",
				"energy": -0.01033,
				"method": "rhf"
			},
			{
				"type": "unocc",
				"energy": 0.02318,
				"method": "rhf"
			},
			{
				"type": "unocc",
				"energy": 0.03662,
				"method": "rhf"
			}
		],
		"cosmo_sigma_profile": { 
			"-0.025": 0.0,
			"-0.024": 0.0,
			"-0.023": 0.0,
			"-0.022": 0.0,
			"-0.021": 0.0,
			"-0.02": 0.0,
			"-0.019": 0.0,
			"-0.018": 0.0,
			"-0.017": 0.0,
			"-0.016": 0.0,
			"-0.015": 0.0,
			"-0.014": 0.0,
			"-0.013": 0.0,
			"-0.012": 0.0,
			"-0.011": 0.0,
			"-0.01": 0.401734284546,
			"-0.009": 3.17135941662,
			"-0.008": 5.11034231333,
			"-0.007": 9.10671752188,
			"-0.006": 10.0683910502,
			"-0.005": 11.6964315183,
			"-0.004": 10.5931697716,
			"-0.003": 12.4145261754,
			"-0.002": 13.438658852,
			"-0.001": 17.0601762288,
			"0.0": 20.6122888571,
			"0.001": 25.6341459133,
			"0.002": 30.4507538652,
			"0.003": 18.1714678131,
			"0.004": 15.4397857994,
			"0.005": 11.0621417549,
			"0.006": 4.33919113168,
			"0.007": 2.73627924811,
			"0.008": 3.35688941168,
			"0.009": 4.16854466981,
			"0.01": 0.986583309132,
			"0.011": 0.0,
			"0.012": 0.0,
			"0.013": 0.0,
			"0.014": 0.0,
			"0.015": 0.0,
			"0.016": 0.0,
			"0.017": 0.0,
			"0.018": 0.0,
			"0.019": 0.0,
			"0.02": 0.0,
			"0.021": 0.0,
			"0.022": 0.0,
			"0.023": 0.0,
			"0.024": 0.0,
			"0.025": 0.0
		}
	}
}
