{
	 "smiles": "O=C1NCNC(=O)N1", 
	 "Tm": 564.15, 
	 "num_atms": 13, 
	 "gaussian": { 
		 "optdone": 1, 
		 "sigma_profile": "yes", 
		 "theory": "DFT", 
		 "functional": "B3LYP", 
		 "basiset": "6-31G**", 
		 "properties": { 
			 "R2extent": 1194.2059, 
			 "electric_dipole_moment_norm": 4.67555494995, 
			 "electric_quadrupole_moment_norm": 11.4777705893, 
			 "total_energy": -432.075804655, 
			 "HOMO_LUMO_gap": 0.27107, 
			 "cosmo_polarized_energy": -18.88, 
			 "cosmo_cavitation_energy": 17.17, 
			 "cosmo_dispersion_energy": -13.42, 
			 "cosmo_repulsion_energy": 1.14, 
			 "cosmo_total_nonelectrostatic_energy": 4.9, 
			 "SMD_solvation_energy": 3.16 
		},
		"coords": [
			{
				"x": -1.1863599845,
				"y": 0.5457343989,
				"z": -1.4443604327,
				"element": "O" 
			},
			{
				"x": -0.372202854,
				"y": 0.6929382894,
				"z": -0.5512819208,
				"element": "C" 
			},
			{
				"x": -0.5052491349,
				"y": 0.1773755675,
				"z": 0.7194555458,
				"element": "N" 
			},
			{
				"x": 0.6516368201,
				"y": 0.0586125825,
				"z": 1.5896827482,
				"element": "C" 
			},
			{
				"x": 1.3865523093,
				"y": 1.3095665771,
				"z": 1.5203075278,
				"element": "N" 
			},
			{
				"x": 1.6449888533,
				"y": 1.9000933699,
				"z": 0.3026181238,
				"element": "C" 
			},
			{
				"x": 2.4962656118,
				"y": 2.749867996,
				"z": 0.1146813986,
				"element": "O" 
			},
			{
				"x": 0.8010171982,
				"y": 1.4406722211,
				"z": -0.717026643,
				"element": "N" 
			},
			{
				"x": -1.2581013648,
				"y": -0.4883972374,
				"z": 0.816104626,
				"element": "H" 
			},
			{
				"x": 1.286214922,
				"y": -0.7995582234,
				"z": 1.3039345166,
				"element": "H" 
			},
			{
				"x": 0.3102265461,
				"y": -0.0972028179,
				"z": 2.6164375252,
				"element": "H" 
			},
			{
				"x": 2.0781389073,
				"y": 1.5083727628,
				"z": 2.228515957,
				"element": "H" 
			},
			{
				"x": 0.8944721702,
				"y": 1.9132245135,
				"z": -1.6058689723,
				"element": "H" 
			}
		],
		 "valence_orbital": [ 
			{
				"type": "occ",
				"energy": -0.29433,
				"method": "rhf"
			},
			{
				"type": "occ",
				"energy": -0.28421,
				"method": "rhf"
			},
			{
				"type": "occ",
				"energy": -0.28188,
				"method": "rhf"
			},
			{
				"type": "occ",
				"energy": -0.26867,
				"method": "rhf"
			},
			{
				"type": "occ",
				"energy": -0.26393,
				"method": "rhf"
			},
			{
				"type": "unocc",
				"energy": 0.00714,
				"method": "rhf"
			},
			{
				"type": "unocc",
				"energy": 0.05423,
				"method": "rhf"
			},
			{
				"type": "unocc",
				"energy": 0.06725,
				"method": "rhf"
			},
			{
				"type": "unocc",
				"energy": 0.09554,
				"method": "rhf"
			},
			{
				"type": "unocc",
				"energy": 0.10981,
				"method": "rhf"
			}
		],
		"cosmo_sigma_profile": { 
			"-0.025": 0.0,
			"-0.024": 0.0,
			"-0.023": 0.0,
			"-0.022": 0.0,
			"-0.021": 0.0,
			"-0.02": 0.0,
			"-0.019": 0.0,
			"-0.018": 0.0,
			"-0.017": 0.0,
			"-0.016": 0.193016792427,
			"-0.015": 2.82385862734,
			"-0.014": 3.79603593828,
			"-0.013": 3.06772211136,
			"-0.012": 2.23384386962,
			"-0.011": 2.78780689661,
			"-0.01": 3.12127204816,
			"-0.009": 4.38186835783,
			"-0.008": 6.38243132962,
			"-0.007": 4.49091475035,
			"-0.006": 8.60420641797,
			"-0.005": 9.09843886985,
			"-0.004": 5.3822894727,
			"-0.003": 4.4786028163,
			"-0.002": 4.91975702453,
			"-0.001": 4.3614998855,
			"0.0": 4.20405853956,
			"0.001": 5.45288033377,
			"0.002": 5.1722633458,
			"0.003": 4.01618095487,
			"0.004": 4.35612459663,
			"0.005": 2.96332934339,
			"0.006": 3.47120404199,
			"0.007": 2.83311198546,
			"0.008": 2.23502122763,
			"0.009": 2.23289663485,
			"0.01": 3.24602240823,
			"0.011": 3.65747148034,
			"0.012": 5.17514360406,
			"0.013": 13.1135867902,
			"0.014": 3.42780749873,
			"0.015": 0.0,
			"0.016": 0.0,
			"0.017": 0.0,
			"0.018": 0.0,
			"0.019": 0.0,
			"0.02": 0.0,
			"0.021": 0.0,
			"0.022": 0.0,
			"0.023": 0.0,
			"0.024": 0.0,
			"0.025": 0.0
		}
	}
}
