{
	 "smiles": "CCCCCCCCCCC(C)C(O)=O", 
	 "Tm": 295.15, 
	 "num_atms": 41, 
	 "gaussian": { 
		 "optdone": 1, 
		 "sigma_profile": "yes", 
		 "theory": "DFT", 
		 "functional": "B3LYP", 
		 "basiset": "6-31G**", 
		 "properties": { 
			 "R2extent": 6572.5326, 
			 "electric_dipole_moment_norm": 4.21998561253, 
			 "electric_quadrupole_moment_norm": 23.7154551226, 
			 "total_energy": -661.546086385, 
			 "HOMO_LUMO_gap": 0.27644, 
			 "cosmo_polarized_energy": -12.78, 
			 "cosmo_cavitation_energy": 41.19, 
			 "cosmo_dispersion_energy": -27.53, 
			 "cosmo_repulsion_energy": 2.25, 
			 "cosmo_total_nonelectrostatic_energy": 15.92, 
			 "SMD_solvation_energy": 6.87 
		},
		"coords": [
			{
				"x": 2.5524176714,
				"y": 3.8598944855,
				"z": -2.291927887,
				"element": "C" 
			},
			{
				"x": 2.415970193,
				"y": 2.3406715074,
				"z": -2.1360804366,
				"element": "C" 
			},
			{
				"x": 3.4995544373,
				"y": 1.6926050083,
				"z": -1.2562177545,
				"element": "C" 
			},
			{
				"x": 3.5367522616,
				"y": 2.1568501162,
				"z": 0.2120987686,
				"element": "C" 
			},
			{
				"x": 2.2586566091,
				"y": 1.9029505193,
				"z": 1.0307216979,
				"element": "C" 
			},
			{
				"x": 1.8868449077,
				"y": 0.4227665418,
				"z": 1.1997191136,
				"element": "C" 
			},
			{
				"x": 0.6608222744,
				"y": 0.2136957271,
				"z": 2.0999860488,
				"element": "C" 
			},
			{
				"x": 0.3068686459,
				"y": -1.2582982335,
				"z": 2.3762172545,
				"element": "C" 
			},
			{
				"x": -0.0935196316,
				"y": -2.1033178613,
				"z": 1.1528359678,
				"element": "C" 
			},
			{
				"x": -1.3723175253,
				"y": -1.6240402935,
				"z": 0.4505544889,
				"element": "C" 
			},
			{
				"x": -1.8148967036,
				"y": -2.4882472243,
				"z": -0.7564890763,
				"element": "C" 
			},
			{
				"x": -3.0049471417,
				"y": -1.8576021283,
				"z": -1.4913255685,
				"element": "C" 
			},
			{
				"x": -2.1949533142,
				"y": -3.8894476344,
				"z": -0.2685345407,
				"element": "C" 
			},
			{
				"x": -1.2212142003,
				"y": -4.8402773962,
				"z": -0.3336007868,
				"element": "O" 
			},
			{
				"x": -3.2751019699,
				"y": -4.1697513803,
				"z": 0.1895043401,
				"element": "O" 
			},
			{
				"x": 3.5369996347,
				"y": 4.1283186828,
				"z": -2.6926220261,
				"element": "H" 
			},
			{
				"x": 1.7962254435,
				"y": 4.2553638233,
				"z": -2.9780907575,
				"element": "H" 
			},
			{
				"x": 2.4320531396,
				"y": 4.3818421497,
				"z": -1.33696269,
				"element": "H" 
			},
			{
				"x": 2.4566238467,
				"y": 1.875727827,
				"z": -3.1295809294,
				"element": "H" 
			},
			{
				"x": 1.4206452078,
				"y": 2.1036630472,
				"z": -1.7377512074,
				"element": "H" 
			},
			{
				"x": 4.4820641443,
				"y": 1.8944338231,
				"z": -1.7046717051,
				"element": "H" 
			},
			{
				"x": 3.3764123569,
				"y": 0.6024760151,
				"z": -1.2907058856,
				"element": "H" 
			},
			{
				"x": 3.7673923147,
				"y": 3.2290214575,
				"z": 0.2472679256,
				"element": "H" 
			},
			{
				"x": 4.3785716218,
				"y": 1.6563110817,
				"z": 0.7098959797,
				"element": "H" 
			},
			{
				"x": 1.4121797453,
				"y": 2.4386075605,
				"z": 0.5796092806,
				"element": "H" 
			},
			{
				"x": 2.3930146293,
				"y": 2.3475370044,
				"z": 2.0262035614,
				"element": "H" 
			},
			{
				"x": 2.7444054623,
				"y": -0.119702714,
				"z": 1.6245239289,
				"element": "H" 
			},
			{
				"x": 1.70357089,
				"y": -0.0246925329,
				"z": 0.2146824405,
				"element": "H" 
			},
			{
				"x": -0.2029366875,
				"y": 0.7335407996,
				"z": 1.6638136356,
				"element": "H" 
			},
			{
				"x": 0.8440022908,
				"y": 0.7064909629,
				"z": 3.0642663979,
				"element": "H" 
			},
			{
				"x": 1.1650288357,
				"y": -1.7405801247,
				"z": 2.8630511541,
				"element": "H" 
			},
			{
				"x": -0.5128164689,
				"y": -1.2934434015,
				"z": 3.106136994,
				"element": "H" 
			},
			{
				"x": -0.226764674,
				"y": -3.1396364036,
				"z": 1.4868983784,
				"element": "H" 
			},
			{
				"x": 0.7333570817,
				"y": -2.1203392813,
				"z": 0.4281008556,
				"element": "H" 
			},
			{
				"x": -1.2361078428,
				"y": -0.5990818848,
				"z": 0.0860012098,
				"element": "H" 
			},
			{
				"x": -2.2009360198,
				"y": -1.5936263757,
				"z": 1.1698568762,
				"element": "H" 
			},
			{
				"x": -0.9658341215,
				"y": -2.5659876841,
				"z": -1.4524766991,
				"element": "H" 
			},
			{
				"x": -3.8764948984,
				"y": -1.8277553813,
				"z": -0.8328275833,
				"element": "H" 
			},
			{
				"x": -2.7636561521,
				"y": -0.8382597908,
				"z": -1.8076212999,
				"element": "H" 
			},
			{
				"x": -3.2779622055,
				"y": -2.4360569363,
				"z": -2.3790194234,
				"element": "H" 
			},
			{
				"x": -0.4190740885,
				"y": -4.4615234778,
				"z": -0.7191400413,
				"element": "H" 
			}
		],
		 "valence_orbital": [ 
			{
				"type": "occ",
				"energy": -0.31307,
				"method": "rhf"
			},
			{
				"type": "occ",
				"energy": -0.30929,
				"method": "rhf"
			},
			{
				"type": "occ",
				"energy": -0.30803,
				"method": "rhf"
			},
			{
				"type": "occ",
				"energy": -0.30441,
				"method": "rhf"
			},
			{
				"type": "occ",
				"energy": -0.26558,
				"method": "rhf"
			},
			{
				"type": "unocc",
				"energy": 0.01086,
				"method": "rhf"
			},
			{
				"type": "unocc",
				"energy": 0.05133,
				"method": "rhf"
			},
			{
				"type": "unocc",
				"energy": 0.06891,
				"method": "rhf"
			},
			{
				"type": "unocc",
				"energy": 0.08872,
				"method": "rhf"
			},
			{
				"type": "unocc",
				"energy": 0.09764,
				"method": "rhf"
			}
		],
		"cosmo_sigma_profile": { 
			"-0.025": 0.0,
			"-0.024": 0.0,
			"-0.023": 0.0,
			"-0.022": 0.0,
			"-0.021": 0.0,
			"-0.02": 0.0,
			"-0.019": 0.0,
			"-0.018": 0.620930068765,
			"-0.017": 0.797106746966,
			"-0.016": 0.869118734997,
			"-0.015": 0.870697605819,
			"-0.014": 0.919264401701,
			"-0.013": 1.31853686994,
			"-0.012": 1.14398099793,
			"-0.011": 0.832819212066,
			"-0.01": 1.48080860029,
			"-0.009": 0.942353385567,
			"-0.008": 1.0862381231,
			"-0.007": 1.42742802093,
			"-0.006": 2.39344030304,
			"-0.005": 2.89793673041,
			"-0.004": 6.73109794012,
			"-0.003": 16.4512665403,
			"-0.002": 46.0723905294,
			"-0.001": 60.470755099,
			"0.0": 62.6812062779,
			"0.001": 51.14066395,
			"0.002": 19.2495391547,
			"0.003": 2.52149932731,
			"0.004": 2.39635899265,
			"0.005": 2.74173206614,
			"0.006": 1.887451667,
			"0.007": 2.43101392488,
			"0.008": 2.61460904913,
			"0.009": 2.71171539106,
			"0.01": 4.28159333,
			"0.011": 5.23145892286,
			"0.012": 5.63849070025,
			"0.013": 2.81845126745,
			"0.014": 0.271409730351,
			"0.015": 0.0,
			"0.016": 0.0,
			"0.017": 0.0,
			"0.018": 0.0,
			"0.019": 0.0,
			"0.02": 0.0,
			"0.021": 0.0,
			"0.022": 0.0,
			"0.023": 0.0,
			"0.024": 0.0,
			"0.025": 0.0
		}
	}
}
