{
	 "smiles": "CC(C)(C)OC(=O)N1CCC(I)CC1", 
	 "Tm": 318.15, 
	 "num_atms": 32, 
	 "gaussian": { 
		 "optdone": 1, 
		 "sigma_profile": "yes", 
		 "theory": "DFT", 
		 "functional": "B3LYP", 
		 "basiset": "6-31G**", 
		 "properties": { 
			 "R2extent": 3948.3639, 
			 "electric_dipole_moment_norm": 1.80752124192, 
			 "electric_quadrupole_moment_norm": 12.2702280399, 
			 "total_energy": -608.542931479, 
			 "HOMO_LUMO_gap": 0.18809, 
			 "cosmo_polarized_energy": -9.76, 
			 "cosmo_cavitation_energy": 35.34, 
			 "cosmo_dispersion_energy": -26.26, 
			 "cosmo_repulsion_energy": 2.06, 
			 "cosmo_total_nonelectrostatic_energy": 11.14, 
			 "SMD_solvation_energy": 4.95 
		},
		"coords": [
			{
				"x": -2.078705748,
				"y": -2.3262958415,
				"z": -0.4368768066,
				"element": "C" 
			},
			{
				"x": -1.9560036199,
				"y": -0.8804511406,
				"z": -0.9297539677,
				"element": "C" 
			},
			{
				"x": -1.9544165731,
				"y": -0.8269790314,
				"z": -2.4599716089,
				"element": "C" 
			},
			{
				"x": -3.052367732,
				"y": 0.0239912462,
				"z": -0.356569092,
				"element": "C" 
			},
			{
				"x": -0.6298283159,
				"y": -0.3405351096,
				"z": -0.5910106522,
				"element": "O" 
			},
			{
				"x": -0.2317037746,
				"y": -0.2341072125,
				"z": 0.701087406,
				"element": "C" 
			},
			{
				"x": -0.9004011845,
				"y": -0.532421261,
				"z": 1.6821339115,
				"element": "O" 
			},
			{
				"x": 1.0445645228,
				"y": 0.2600706494,
				"z": 0.7736166372,
				"element": "N" 
			},
			{
				"x": 1.8197134246,
				"y": 0.6553562297,
				"z": -0.4102887868,
				"element": "C" 
			},
			{
				"x": 3.307603771,
				"y": 0.6915412194,
				"z": -0.0597203285,
				"element": "C" 
			},
			{
				"x": 3.6211710199,
				"y": 1.6681913107,
				"z": 1.0871862143,
				"element": "C" 
			},
			{
				"x": 4.2649186411,
				"y": 3.6496801076,
				"z": 0.3235666996,
				"element": "I" 
			},
			{
				"x": 2.4287017075,
				"y": 1.8393315903,
				"z": 2.0440912298,
				"element": "C" 
			},
			{
				"x": 1.5987800267,
				"y": 0.5496156752,
				"z": 2.099227293,
				"element": "C" 
			},
			{
				"x": -1.2577208111,
				"y": -2.9331837081,
				"z": -0.8321951517,
				"element": "H" 
			},
			{
				"x": -2.0595616036,
				"y": -2.3702554009,
				"z": 0.6521388811,
				"element": "H" 
			},
			{
				"x": -3.0202675035,
				"y": -2.756824929,
				"z": -0.7931434536,
				"element": "H" 
			},
			{
				"x": -1.14645008,
				"y": -1.4414792732,
				"z": -2.8680991538,
				"element": "H" 
			},
			{
				"x": -2.9050804496,
				"y": -1.202434663,
				"z": -2.8500752263,
				"element": "H" 
			},
			{
				"x": -1.8176413677,
				"y": 0.2002006351,
				"z": -2.8104223113,
				"element": "H" 
			},
			{
				"x": -4.031564827,
				"y": -0.3182924158,
				"z": -0.7071075845,
				"element": "H" 
			},
			{
				"x": -2.9110452906,
				"y": 1.0544167184,
				"z": -0.6981379548,
				"element": "H" 
			},
			{
				"x": -3.0406099429,
				"y": 0.0070232436,
				"z": 0.733241397,
				"element": "H" 
			},
			{
				"x": 1.6397675875,
				"y": -0.0663620995,
				"z": -1.2083131153,
				"element": "H" 
			},
			{
				"x": 1.4944962492,
				"y": 1.6368935694,
				"z": -0.7846801203,
				"element": "H" 
			},
			{
				"x": 3.8964184172,
				"y": 0.9146262484,
				"z": -0.9516548169,
				"element": "H" 
			},
			{
				"x": 3.6104061158,
				"y": -0.3106631747,
				"z": 0.2726962759,
				"element": "H" 
			},
			{
				"x": 4.5144379497,
				"y": 1.3465003341,
				"z": 1.62155107,
				"element": "H" 
			},
			{
				"x": 2.7806392359,
				"y": 2.111053062,
				"z": 3.0435831286,
				"element": "H" 
			},
			{
				"x": 1.7756193663,
				"y": 2.6476731979,
				"z": 1.7032441967,
				"element": "H" 
			},
			{
				"x": 2.210460424,
				"y": -0.2903131417,
				"z": 2.4603450178,
				"element": "H" 
			},
			{
				"x": 0.7629703646,
				"y": 0.655633365,
				"z": 2.7924107726,
				"element": "H" 
			}
		],
		 "valence_orbital": [ 
			{
				"type": "occ",
				"energy": -0.2866,
				"method": "rhf"
			},
			{
				"type": "occ",
				"energy": -0.2624,
				"method": "rhf"
			},
			{
				"type": "occ",
				"energy": -0.25965,
				"method": "rhf"
			},
			{
				"type": "occ",
				"energy": -0.25734,
				"method": "rhf"
			},
			{
				"type": "occ",
				"energy": -0.2374,
				"method": "rhf"
			},
			{
				"type": "unocc",
				"energy": -0.04931,
				"method": "rhf"
			},
			{
				"type": "unocc",
				"energy": 0.03218,
				"method": "rhf"
			},
			{
				"type": "unocc",
				"energy": 0.04139,
				"method": "rhf"
			},
			{
				"type": "unocc",
				"energy": 0.05099,
				"method": "rhf"
			},
			{
				"type": "unocc",
				"energy": 0.05671,
				"method": "rhf"
			}
		],
		"cosmo_sigma_profile": { 
			"-0.025": 0.0,
			"-0.024": 0.0,
			"-0.023": 0.0,
			"-0.022": 0.0,
			"-0.021": 0.0,
			"-0.02": 0.0,
			"-0.019": 0.0,
			"-0.018": 0.0,
			"-0.017": 0.0,
			"-0.016": 0.0,
			"-0.015": 0.0,
			"-0.014": 0.0,
			"-0.013": 0.0,
			"-0.012": 0.0,
			"-0.011": 0.0,
			"-0.01": 0.0,
			"-0.009": 0.0,
			"-0.008": 0.0,
			"-0.007": 1.74713679956,
			"-0.006": 6.22835239494,
			"-0.005": 12.9458243712,
			"-0.004": 29.7488957762,
			"-0.003": 36.6474598777,
			"-0.002": 32.1295178674,
			"-0.001": 26.1530109976,
			"0.0": 30.4266612179,
			"0.001": 28.9576787032,
			"0.002": 12.7169337927,
			"0.003": 9.57808504048,
			"0.004": 9.57150576999,
			"0.005": 11.5383740782,
			"0.006": 14.5659702307,
			"0.007": 4.35271175894,
			"0.008": 1.75166743222,
			"0.009": 0.947851266154,
			"0.01": 1.59275873054,
			"0.011": 1.78240303651,
			"0.012": 1.67537542541,
			"0.013": 2.42817438673,
			"0.014": 2.13884010062,
			"0.015": 0.0,
			"0.016": 0.0,
			"0.017": 0.0,
			"0.018": 0.0,
			"0.019": 0.0,
			"0.02": 0.0,
			"0.021": 0.0,
			"0.022": 0.0,
			"0.023": 0.0,
			"0.024": 0.0,
			"0.025": 0.0
		}
	}
}
