{
	 "smiles": "COC1=CC=CC2=C1N(C)C(=O)C(CC(O)C(C)C)=C2OC", 
	 "Tm": 359.65, 
	 "num_atms": 45, 
	 "gaussian": { 
		 "optdone": 1, 
		 "sigma_profile": "yes", 
		 "theory": "DFT", 
		 "functional": "B3LYP", 
		 "basiset": "6-31G**", 
		 "properties": { 
			 "R2extent": 7731.2536, 
			 "electric_dipole_moment_norm": 4.79682964259, 
			 "electric_quadrupole_moment_norm": 9.13644337749, 
			 "total_energy": -1017.30706804, 
			 "HOMO_LUMO_gap": 0.16526, 
			 "cosmo_polarized_energy": -14.62, 
			 "cosmo_cavitation_energy": 44.5, 
			 "cosmo_dispersion_energy": -30.63, 
			 "cosmo_repulsion_energy": 2.31, 
			 "cosmo_total_nonelectrostatic_energy": 16.19, 
			 "SMD_solvation_energy": 8.93 
		},
		"coords": [
			{
				"x": 4.4216425697,
				"y": 2.7434550639,
				"z": 0.7508123979,
				"element": "C" 
			},
			{
				"x": 3.7792781698,
				"y": 2.7394916014,
				"z": -0.5238274523,
				"element": "O" 
			},
			{
				"x": 3.2351962967,
				"y": 1.5219938242,
				"z": -0.8882957845,
				"element": "C" 
			},
			{
				"x": 4.1017201837,
				"y": 0.5521554049,
				"z": -1.3806030693,
				"element": "C" 
			},
			{
				"x": 3.6413288621,
				"y": -0.7065212887,
				"z": -1.774592425,
				"element": "C" 
			},
			{
				"x": 2.2977843766,
				"y": -1.0017722258,
				"z": -1.6304102938,
				"element": "C" 
			},
			{
				"x": 1.3963622083,
				"y": -0.0470701336,
				"z": -1.1225705397,
				"element": "C" 
			},
			{
				"x": 1.8370260878,
				"y": 1.2681906755,
				"z": -0.798829696,
				"element": "C" 
			},
			{
				"x": 0.8916980585,
				"y": 2.2279222277,
				"z": -0.4352100281,
				"element": "N" 
			},
			{
				"x": 1.2330540475,
				"y": 3.6527260475,
				"z": -0.276581454,
				"element": "C" 
			},
			{
				"x": -0.4826433215,
				"y": 1.9335598321,
				"z": -0.3220992694,
				"element": "C" 
			},
			{
				"x": -1.2923737105,
				"y": 2.8243421823,
				"z": -0.048124664,
				"element": "O" 
			},
			{
				"x": -0.9140557675,
				"y": 0.5492133952,
				"z": -0.5392125789,
				"element": "C" 
			},
			{
				"x": -2.3933648539,
				"y": 0.2896207056,
				"z": -0.4098652392,
				"element": "C" 
			},
			{
				"x": -2.9832760974,
				"y": 0.4665642627,
				"z": 1.0147335641,
				"element": "C" 
			},
			{
				"x": -4.4057076379,
				"y": 0.5906752087,
				"z": 0.9324493458,
				"element": "O" 
			},
			{
				"x": -2.6890325875,
				"y": -0.6873406412,
				"z": 1.9913050733,
				"element": "C" 
			},
			{
				"x": -3.0360362182,
				"y": -0.2692947146,
				"z": 3.4290891883,
				"element": "C" 
			},
			{
				"x": -3.4229397547,
				"y": -1.9850247918,
				"z": 1.6166109387,
				"element": "C" 
			},
			{
				"x": -0.0016065724,
				"y": -0.3803066553,
				"z": -0.9342349214,
				"element": "C" 
			},
			{
				"x": -0.3970972434,
				"y": -1.6630517391,
				"z": -1.237686987,
				"element": "O" 
			},
			{
				"x": -0.1345113109,
				"y": -2.6535390456,
				"z": -0.2355360325,
				"element": "C" 
			},
			{
				"x": 3.7055881279,
				"y": 2.5517734891,
				"z": 1.5612606765,
				"element": "H" 
			},
			{
				"x": 5.2195805303,
				"y": 1.9922476246,
				"z": 0.8009425123,
				"element": "H" 
			},
			{
				"x": 4.8538592154,
				"y": 3.7381899725,
				"z": 0.8775809159,
				"element": "H" 
			},
			{
				"x": 5.151906807,
				"y": 0.8150951571,
				"z": -1.4628605621,
				"element": "H" 
			},
			{
				"x": 4.3294322351,
				"y": -1.4392863634,
				"z": -2.1833687901,
				"element": "H" 
			},
			{
				"x": 1.906285918,
				"y": -1.9648662626,
				"z": -1.9338851786,
				"element": "H" 
			},
			{
				"x": 1.8490701845,
				"y": 3.9890807207,
				"z": -1.1077517002,
				"element": "H" 
			},
			{
				"x": 1.7701298307,
				"y": 3.8290361307,
				"z": 0.6580497457,
				"element": "H" 
			},
			{
				"x": 0.2891662061,
				"y": 4.1916296713,
				"z": -0.2508337012,
				"element": "H" 
			},
			{
				"x": -2.6327381798,
				"y": -0.6996827695,
				"z": -0.8039768148,
				"element": "H" 
			},
			{
				"x": -2.9015398049,
				"y": 1.0275770345,
				"z": -1.0428117257,
				"element": "H" 
			},
			{
				"x": -2.5572243164,
				"y": 1.3863347967,
				"z": 1.4338703756,
				"element": "H" 
			},
			{
				"x": -4.596817842,
				"y": 1.4415030652,
				"z": 0.517996311,
				"element": "H" 
			},
			{
				"x": -1.6044307802,
				"y": -0.8637489758,
				"z": 1.9438692902,
				"element": "H" 
			},
			{
				"x": -2.8190367187,
				"y": -1.0747518033,
				"z": 4.1391614529,
				"element": "H" 
			},
			{
				"x": -2.4636229257,
				"y": 0.6131516705,
				"z": 3.7361168698,
				"element": "H" 
			},
			{
				"x": -4.0994913964,
				"y": -0.0233071731,
				"z": 3.5047406795,
				"element": "H" 
			},
			{
				"x": -3.1710208221,
				"y": -2.7864037185,
				"z": 2.3200292602,
				"element": "H" 
			},
			{
				"x": -4.5045943176,
				"y": -1.8304869589,
				"z": 1.6484525291,
				"element": "H" 
			},
			{
				"x": -3.1687607934,
				"y": -2.3338437248,
				"z": 0.6107283838,
				"element": "H" 
			},
			{
				"x": -0.7303359165,
				"y": -2.4695725844,
				"z": 0.6635358808,
				"element": "H" 
			},
			{
				"x": 0.9266880119,
				"y": -2.684051889,
				"z": 0.0352813152,
				"element": "H" 
			},
			{
				"x": -0.4247390379,
				"y": -3.6110063059,
				"z": -0.6721477992,
				"element": "H" 
			}
		],
		 "valence_orbital": [ 
			{
				"type": "occ",
				"energy": -0.2753,
				"method": "rhf"
			},
			{
				"type": "occ",
				"energy": -0.25703,
				"method": "rhf"
			},
			{
				"type": "occ",
				"energy": -0.2499,
				"method": "rhf"
			},
			{
				"type": "occ",
				"energy": -0.22903,
				"method": "rhf"
			},
			{
				"type": "occ",
				"energy": -0.21503,
				"method": "rhf"
			},
			{
				"type": "unocc",
				"energy": -0.04977,
				"method": "rhf"
			},
			{
				"type": "unocc",
				"energy": -0.01068,
				"method": "rhf"
			},
			{
				"type": "unocc",
				"energy": 0.01568,
				"method": "rhf"
			},
			{
				"type": "unocc",
				"energy": 0.0706,
				"method": "rhf"
			},
			{
				"type": "unocc",
				"energy": 0.08239,
				"method": "rhf"
			}
		],
		"cosmo_sigma_profile": { 
			"-0.025": 0.0,
			"-0.024": 0.0,
			"-0.023": 0.0,
			"-0.022": 0.0,
			"-0.021": 0.0,
			"-0.02": 0.0,
			"-0.019": 0.0,
			"-0.018": 0.0,
			"-0.017": 0.0,
			"-0.016": 0.0,
			"-0.015": 0.629132316925,
			"-0.014": 1.02994425913,
			"-0.013": 0.480014115324,
			"-0.012": 0.624063552634,
			"-0.011": 1.24090561768,
			"-0.01": 0.729960456728,
			"-0.009": 0.622082538903,
			"-0.008": 0.669496315123,
			"-0.007": 2.26504476916,
			"-0.006": 8.70249681876,
			"-0.005": 20.0856704346,
			"-0.004": 29.9560400887,
			"-0.003": 36.0280615846,
			"-0.002": 42.0108449568,
			"-0.001": 39.8406787828,
			"0.0": 33.510529116,
			"0.001": 29.5705790704,
			"0.002": 25.8351864113,
			"0.003": 15.9291557711,
			"0.004": 12.4217184482,
			"0.005": 8.16392951724,
			"0.006": 5.39114761925,
			"0.007": 5.22058812127,
			"0.008": 5.017054211,
			"0.009": 4.16649081182,
			"0.01": 4.92785446915,
			"0.011": 4.73631212997,
			"0.012": 3.23720198737,
			"0.013": 4.2401392855,
			"0.014": 2.14664865554,
			"0.015": 0.0,
			"0.016": 0.0,
			"0.017": 0.0,
			"0.018": 0.0,
			"0.019": 0.0,
			"0.02": 0.0,
			"0.021": 0.0,
			"0.022": 0.0,
			"0.023": 0.0,
			"0.024": 0.0,
			"0.025": 0.0
		}
	}
}
