{
	 "smiles": "COC1=C(NC(=O)C(C)Cl)C=C(C=C1)[N+]([O-])=O", 
	 "Tm": 405.15, 
	 "num_atms": 28, 
	 "gaussian": { 
		 "optdone": 1, 
		 "sigma_profile": "yes", 
		 "theory": "DFT", 
		 "functional": "B3LYP", 
		 "basiset": "6-31G**", 
		 "properties": { 
			 "R2extent": 5924.5861, 
			 "electric_dipole_moment_norm": 5.46822149972, 
			 "electric_quadrupole_moment_norm": 19.9097944881, 
			 "total_energy": -1258.19303295, 
			 "HOMO_LUMO_gap": 0.16229, 
			 "cosmo_polarized_energy": -17.23, 
			 "cosmo_cavitation_energy": 34.92, 
			 "cosmo_dispersion_energy": -24.65, 
			 "cosmo_repulsion_energy": 1.95, 
			 "cosmo_total_nonelectrostatic_energy": 12.21, 
			 "SMD_solvation_energy": 9.34 
		},
		"coords": [
			{
				"x": -0.2760295053,
				"y": -1.1108576205,
				"z": -3.3960981097,
				"element": "C" 
			},
			{
				"x": -0.1570612418,
				"y": -0.1675381396,
				"z": -2.3360320056,
				"element": "O" 
			},
			{
				"x": -1.0148720804,
				"y": -0.2352895049,
				"z": -1.3008088613,
				"element": "C" 
			},
			{
				"x": -0.7679096136,
				"y": 0.6537259364,
				"z": -0.2223056906,
				"element": "C" 
			},
			{
				"x": 0.3538656198,
				"y": 1.520774703,
				"z": -0.2502766164,
				"element": "N" 
			},
			{
				"x": 1.6441531592,
				"y": 1.0775016196,
				"z": -0.3209646101,
				"element": "C" 
			},
			{
				"x": 1.9698613357,
				"y": -0.0974315723,
				"z": -0.3765654871,
				"element": "O" 
			},
			{
				"x": 2.7649016428,
				"y": 2.1341706589,
				"z": -0.3473395821,
				"element": "C" 
			},
			{
				"x": 3.811210007,
				"y": 1.8546200419,
				"z": 0.7258078809,
				"element": "C" 
			},
			{
				"x": 2.1726587569,
				"y": 3.8693608121,
				"z": -0.2066450126,
				"element": "Cl" 
			},
			{
				"x": -1.6524231276,
				"y": 0.7018656028,
				"z": 0.8456676157,
				"element": "C" 
			},
			{
				"x": -2.7688333265,
				"y": -0.1358389861,
				"z": 0.8570785145,
				"element": "C" 
			},
			{
				"x": -3.0057406818,
				"y": -1.0424261581,
				"z": -0.1711807384,
				"element": "C" 
			},
			{
				"x": -2.1247059486,
				"y": -1.0930000147,
				"z": -1.2463935852,
				"element": "C" 
			},
			{
				"x": -3.6961504933,
				"y": -0.0681655638,
				"z": 1.985442936,
				"element": "N" 
			},
			{
				"x": -4.6596256808,
				"y": -0.8362137131,
				"z": 1.9821538306,
				"element": "O" 
			},
			{
				"x": -3.4604765475,
				"y": 0.7547913516,
				"z": 2.8721758402,
				"element": "O" 
			},
			{
				"x": -0.1770514298,
				"y": -2.1371209145,
				"z": -3.0252569272,
				"element": "H" 
			},
			{
				"x": -1.2293407305,
				"y": -1.0001541615,
				"z": -3.9267189048,
				"element": "H" 
			},
			{
				"x": 0.5449372547,
				"y": -0.8918366264,
				"z": -4.0788340049,
				"element": "H" 
			},
			{
				"x": 0.2030202189,
				"y": 2.5101563552,
				"z": -0.1048429383,
				"element": "H" 
			},
			{
				"x": 3.2130252905,
				"y": 2.0839337035,
				"z": -1.3421418122,
				"element": "H" 
			},
			{
				"x": 4.6638279628,
				"y": 2.5278572784,
				"z": 0.6171128168,
				"element": "H" 
			},
			{
				"x": 4.1466077447,
				"y": 0.8208723929,
				"z": 0.6145195567,
				"element": "H" 
			},
			{
				"x": 3.3880021152,
				"y": 1.9806076555,
				"z": 1.7259444362,
				"element": "H" 
			},
			{
				"x": -1.4803611442,
				"y": 1.3734606406,
				"z": 1.6778051361,
				"element": "H" 
			},
			{
				"x": -3.8734954869,
				"y": -1.6880004498,
				"z": -0.1225444685,
				"element": "H" 
			},
			{
				"x": -2.3165940698,
				"y": -1.7880253271,
				"z": -2.0539592085,
				"element": "H" 
			}
		],
		 "valence_orbital": [ 
			{
				"type": "occ",
				"energy": -0.2995,
				"method": "rhf"
			},
			{
				"type": "occ",
				"energy": -0.28641,
				"method": "rhf"
			},
			{
				"type": "occ",
				"energy": -0.26908,
				"method": "rhf"
			},
			{
				"type": "occ",
				"energy": -0.26622,
				"method": "rhf"
			},
			{
				"type": "occ",
				"energy": -0.24568,
				"method": "rhf"
			},
			{
				"type": "unocc",
				"energy": -0.08339,
				"method": "rhf"
			},
			{
				"type": "unocc",
				"energy": -0.03625,
				"method": "rhf"
			},
			{
				"type": "unocc",
				"energy": 0.00431,
				"method": "rhf"
			},
			{
				"type": "unocc",
				"energy": 0.0059,
				"method": "rhf"
			},
			{
				"type": "unocc",
				"energy": 0.01681,
				"method": "rhf"
			}
		],
		"cosmo_sigma_profile": { 
			"-0.025": 0.0,
			"-0.024": 0.0,
			"-0.023": 0.0,
			"-0.022": 0.0,
			"-0.021": 0.0,
			"-0.02": 0.0,
			"-0.019": 0.0,
			"-0.018": 0.0,
			"-0.017": 0.0,
			"-0.016": 0.0,
			"-0.015": 0.0,
			"-0.014": 0.119117051656,
			"-0.013": 0.961226197031,
			"-0.012": 0.728498246913,
			"-0.011": 1.45696613511,
			"-0.01": 0.863702267392,
			"-0.009": 2.68633396406,
			"-0.008": 8.01522890069,
			"-0.007": 11.5594182837,
			"-0.006": 17.1734250442,
			"-0.005": 20.2326869476,
			"-0.004": 21.6020440852,
			"-0.003": 18.9826543022,
			"-0.002": 18.2039413753,
			"-0.001": 22.1107316961,
			"0.0": 21.1247016712,
			"0.001": 17.4775605264,
			"0.002": 12.7715186708,
			"0.003": 10.1053648019,
			"0.004": 9.59853723055,
			"0.005": 11.4198675014,
			"0.006": 10.3353674477,
			"0.007": 7.58603789213,
			"0.008": 11.9949916104,
			"0.009": 6.75675366859,
			"0.01": 6.04372813494,
			"0.011": 3.29344337414,
			"0.012": 3.59784922582,
			"0.013": 3.2312689089,
			"0.014": 0.0424345540324,
			"0.015": 0.0,
			"0.016": 0.0,
			"0.017": 0.0,
			"0.018": 0.0,
			"0.019": 0.0,
			"0.02": 0.0,
			"0.021": 0.0,
			"0.022": 0.0,
			"0.023": 0.0,
			"0.024": 0.0,
			"0.025": 0.0
		}
	}
}
