{
	 "smiles": "[O-][N+](=O)C1=CC=C(C=C1)C(F)(F)F", 
	 "Tm": 312.65, 
	 "num_atms": 17, 
	 "gaussian": { 
		 "optdone": 1, 
		 "sigma_profile": "yes", 
		 "theory": "DFT", 
		 "functional": "B3LYP", 
		 "basiset": "6-31G**", 
		 "properties": { 
			 "R2extent": 3154.5346, 
			 "electric_dipole_moment_norm": 2.01793293496, 
			 "electric_quadrupole_moment_norm": 19.0992892156, 
			 "total_energy": -773.779539507, 
			 "HOMO_LUMO_gap": 0.19081, 
			 "cosmo_polarized_energy": -7.4, 
			 "cosmo_cavitation_energy": 23.95, 
			 "cosmo_dispersion_energy": -17.13, 
			 "cosmo_repulsion_energy": 1.28, 
			 "cosmo_total_nonelectrostatic_energy": 8.1, 
			 "SMD_solvation_energy": 7.63 
		},
		"coords": [
			{
				"x": 1.376641736,
				"y": -4.344210669,
				"z": -1.510585135,
				"element": "O" 
			},
			{
				"x": 1.8469178768,
				"y": -3.6184191422,
				"z": -0.6367642207,
				"element": "N" 
			},
			{
				"x": 2.8707585661,
				"y": -3.8541319607,
				"z": 0.0017345038,
				"element": "O" 
			},
			{
				"x": 1.1262349174,
				"y": -2.3680240792,
				"z": -0.3299394384,
				"element": "C" 
			},
			{
				"x": 1.6351825018,
				"y": -1.5241811055,
				"z": 0.6545055681,
				"element": "C" 
			},
			{
				"x": 0.951934994,
				"y": -0.3453945775,
				"z": 0.9390250575,
				"element": "C" 
			},
			{
				"x": -0.2182057388,
				"y": -0.0310643566,
				"z": 0.2408920542,
				"element": "C" 
			},
			{
				"x": -0.7114832972,
				"y": -0.8909032496,
				"z": -0.7453879641,
				"element": "C" 
			},
			{
				"x": -0.0362474234,
				"y": -2.0723138651,
				"z": -1.0380335804,
				"element": "C" 
			},
			{
				"x": -0.985388985,
				"y": 1.2196900572,
				"z": 0.5934674646,
				"element": "C" 
			},
			{
				"x": -1.6624089187,
				"y": 1.7049769442,
				"z": -0.4679681023,
				"element": "F" 
			},
			{
				"x": -1.8901195566,
				"y": 0.9776804724,
				"z": 1.5670336265,
				"element": "F" 
			},
			{
				"x": -0.1686642449,
				"y": 2.1954558803,
				"z": 1.042153331,
				"element": "F" 
			},
			{
				"x": 2.5453963454,
				"y": -1.796889593,
				"z": 1.1732565987,
				"element": "H" 
			},
			{
				"x": 1.3297448214,
				"y": 0.3336982824,
				"z": 1.6949036213,
				"element": "H" 
			},
			{
				"x": -1.6144402498,
				"y": -0.631816434,
				"z": -1.2864867404,
				"element": "H" 
			},
			{
				"x": -0.3881533445,
				"y": -2.758952604,
				"z": -1.7974066445,
				"element": "H" 
			}
		],
		 "valence_orbital": [ 
			{
				"type": "occ",
				"energy": -0.32195,
				"method": "rhf"
			},
			{
				"type": "occ",
				"energy": -0.31904,
				"method": "rhf"
			},
			{
				"type": "occ",
				"energy": -0.30344,
				"method": "rhf"
			},
			{
				"type": "occ",
				"energy": -0.30143,
				"method": "rhf"
			},
			{
				"type": "occ",
				"energy": -0.29568,
				"method": "rhf"
			},
			{
				"type": "unocc",
				"energy": -0.10487,
				"method": "rhf"
			},
			{
				"type": "unocc",
				"energy": -0.04487,
				"method": "rhf"
			},
			{
				"type": "unocc",
				"energy": -0.02346,
				"method": "rhf"
			},
			{
				"type": "unocc",
				"energy": 0.07123,
				"method": "rhf"
			},
			{
				"type": "unocc",
				"energy": 0.10868,
				"method": "rhf"
			}
		],
		"cosmo_sigma_profile": { 
			"-0.025": 0.0,
			"-0.024": 0.0,
			"-0.023": 0.0,
			"-0.022": 0.0,
			"-0.021": 0.0,
			"-0.02": 0.0,
			"-0.019": 0.0,
			"-0.018": 0.0,
			"-0.017": 0.0,
			"-0.016": 0.0,
			"-0.015": 0.0,
			"-0.014": 0.0,
			"-0.013": 0.0,
			"-0.012": 0.0,
			"-0.011": 0.0,
			"-0.01": 0.0,
			"-0.009": 1.16524670916,
			"-0.008": 6.64040304712,
			"-0.007": 9.23980014372,
			"-0.006": 7.27017700471,
			"-0.005": 8.61681833547,
			"-0.004": 9.30429632245,
			"-0.003": 10.0477424364,
			"-0.002": 14.0278455339,
			"-0.001": 18.5178380105,
			"0.0": 21.8909400025,
			"0.001": 12.7632423084,
			"0.002": 26.1493415168,
			"0.003": 17.1031013545,
			"0.004": 2.69056145338,
			"0.005": 3.3420555413,
			"0.006": 4.47242144084,
			"0.007": 9.46335083472,
			"0.008": 5.69614763311,
			"0.009": 3.65571233567,
			"0.01": 1.20957570438,
			"0.011": 0.0,
			"0.012": 0.0,
			"0.013": 0.0,
			"0.014": 0.0,
			"0.015": 0.0,
			"0.016": 0.0,
			"0.017": 0.0,
			"0.018": 0.0,
			"0.019": 0.0,
			"0.02": 0.0,
			"0.021": 0.0,
			"0.022": 0.0,
			"0.023": 0.0,
			"0.024": 0.0,
			"0.025": 0.0
		}
	}
}
