{
	 "smiles": "CC1=CC(C=O)=C(C)N1C1=CC2=C(CCC2)C=C1", 
	 "Tm": 346.15, 
	 "num_atms": 35, 
	 "gaussian": { 
		 "optdone": 1, 
		 "sigma_profile": "yes", 
		 "theory": "DFT", 
		 "functional": "B3LYP", 
		 "basiset": "6-31G**", 
		 "properties": { 
			 "R2extent": 6437.6556, 
			 "electric_dipole_moment_norm": 6.32673593332, 
			 "electric_quadrupole_moment_norm": 19.3751895077, 
			 "total_energy": -749.936276318, 
			 "HOMO_LUMO_gap": 0.18056, 
			 "cosmo_polarized_energy": -10.24, 
			 "cosmo_cavitation_energy": 37.83, 
			 "cosmo_dispersion_energy": -25.99, 
			 "cosmo_repulsion_energy": 2.04, 
			 "cosmo_total_nonelectrostatic_energy": 13.88, 
			 "SMD_solvation_energy": 6.91 
		},
		"coords": [
			{
				"x": 3.0651475607,
				"y": 2.8667992141,
				"z": -0.1133040741,
				"element": "C" 
			},
			{
				"x": 1.742783044,
				"y": 3.1642271962,
				"z": 0.5163171512,
				"element": "C" 
			},
			{
				"x": 1.2279129064,
				"y": 4.3325399632,
				"z": 1.0117547295,
				"element": "C" 
			},
			{
				"x": -0.0887605403,
				"y": 4.0649673316,
				"z": 1.5138649889,
				"element": "C" 
			},
			{
				"x": -0.9707952252,
				"y": 5.0490030598,
				"z": 2.1200605542,
				"element": "C" 
			},
			{
				"x": -2.0983532306,
				"y": 4.8519529846,
				"z": 2.5571489094,
				"element": "O" 
			},
			{
				"x": -0.3462969553,
				"y": 2.7086965671,
				"z": 1.3065760063,
				"element": "C" 
			},
			{
				"x": -1.5601958377,
				"y": 1.900594293,
				"z": 1.6296888529,
				"element": "C" 
			},
			{
				"x": 0.7680257665,
				"y": 2.1730246956,
				"z": 0.7023275218,
				"element": "N" 
			},
			{
				"x": 0.9155739657,
				"y": 0.7987752388,
				"z": 0.3177772262,
				"element": "C" 
			},
			{
				"x": 1.3741383676,
				"y": -0.1369973976,
				"z": 1.2531316517,
				"element": "C" 
			},
			{
				"x": 1.502592672,
				"y": -1.4686060969,
				"z": 0.8664406422,
				"element": "C" 
			},
			{
				"x": 1.1851195892,
				"y": -1.8645708106,
				"z": -0.441798449,
				"element": "C" 
			},
			{
				"x": 1.4265066632,
				"y": -3.349369507,
				"z": -0.6172504563,
				"element": "C" 
			},
			{
				"x": 1.5028755651,
				"y": -3.8680076373,
				"z": 0.8415164729,
				"element": "C" 
			},
			{
				"x": 1.9837135446,
				"y": -2.6541007662,
				"z": 1.6771680729,
				"element": "C" 
			},
			{
				"x": 0.7349464889,
				"y": -0.9292263614,
				"z": -1.3717075731,
				"element": "C" 
			},
			{
				"x": 0.5969394505,
				"y": 0.4071744166,
				"z": -0.9872155433,
				"element": "C" 
			},
			{
				"x": 3.6643198331,
				"y": 3.7798665954,
				"z": -0.1439036586,
				"element": "H" 
			},
			{
				"x": 3.6303312127,
				"y": 2.1116416308,
				"z": 0.4460980889,
				"element": "H" 
			},
			{
				"x": 2.9643287896,
				"y": 2.4958077307,
				"z": -1.1401974394,
				"element": "H" 
			},
			{
				"x": 1.7327333147,
				"y": 5.2896334877,
				"z": 1.0214886576,
				"element": "H" 
			},
			{
				"x": -0.5297124261,
				"y": 6.0711701279,
				"z": 2.1683752208,
				"element": "H" 
			},
			{
				"x": -1.3328500116,
				"y": 1.088780368,
				"z": 2.3308773322,
				"element": "H" 
			},
			{
				"x": -2.3022459999,
				"y": 2.5593747947,
				"z": 2.0803738434,
				"element": "H" 
			},
			{
				"x": -1.9881418228,
				"y": 1.4386128633,
				"z": 0.732009778,
				"element": "H" 
			},
			{
				"x": 1.6146268855,
				"y": 0.18907439,
				"z": 2.2611372193,
				"element": "H" 
			},
			{
				"x": 2.3768108154,
				"y": -3.5169726033,
				"z": -1.1438658053,
				"element": "H" 
			},
			{
				"x": 0.6484232103,
				"y": -3.8464330782,
				"z": -1.2058680627,
				"element": "H" 
			},
			{
				"x": 0.5001768873,
				"y": -4.1591844899,
				"z": 1.1733716878,
				"element": "H" 
			},
			{
				"x": 2.1506131865,
				"y": -4.742137872,
				"z": 0.9493293847,
				"element": "H" 
			},
			{
				"x": 1.5973377287,
				"y": -2.6621435346,
				"z": 2.701595892,
				"element": "H" 
			},
			{
				"x": 3.0802740539,
				"y": -2.6390053966,
				"z": 1.7527629444,
				"element": "H" 
			},
			{
				"x": 0.4828012179,
				"y": -1.2295658364,
				"z": -2.3852243994,
				"element": "H" 
			},
			{
				"x": 0.2350993294,
				"y": 1.1525044385,
				"z": -1.6886573679,
				"element": "H" 
			}
		],
		 "valence_orbital": [ 
			{
				"type": "occ",
				"energy": -0.26203,
				"method": "rhf"
			},
			{
				"type": "occ",
				"energy": -0.2494,
				"method": "rhf"
			},
			{
				"type": "occ",
				"energy": -0.24047,
				"method": "rhf"
			},
			{
				"type": "occ",
				"energy": -0.22735,
				"method": "rhf"
			},
			{
				"type": "occ",
				"energy": -0.20205,
				"method": "rhf"
			},
			{
				"type": "unocc",
				"energy": -0.02149,
				"method": "rhf"
			},
			{
				"type": "unocc",
				"energy": -0.02112,
				"method": "rhf"
			},
			{
				"type": "unocc",
				"energy": -0.0137,
				"method": "rhf"
			},
			{
				"type": "unocc",
				"energy": 0.0436,
				"method": "rhf"
			},
			{
				"type": "unocc",
				"energy": 0.08799,
				"method": "rhf"
			}
		],
		"cosmo_sigma_profile": { 
			"-0.025": 0.0,
			"-0.024": 0.0,
			"-0.023": 0.0,
			"-0.022": 0.0,
			"-0.021": 0.0,
			"-0.02": 0.0,
			"-0.019": 0.0,
			"-0.018": 0.0,
			"-0.017": 0.0,
			"-0.016": 0.0,
			"-0.015": 0.0,
			"-0.014": 0.0,
			"-0.013": 0.0,
			"-0.012": 0.0,
			"-0.011": 0.0,
			"-0.01": 0.0,
			"-0.009": 0.0,
			"-0.008": 0.0,
			"-0.007": 0.530445297445,
			"-0.006": 5.62511456452,
			"-0.005": 11.8888314359,
			"-0.004": 26.9071839008,
			"-0.003": 35.497979892,
			"-0.002": 42.2167876605,
			"-0.001": 43.1104006176,
			"0.0": 34.8252961318,
			"0.001": 20.47718754,
			"0.002": 14.9111118667,
			"0.003": 13.1585020488,
			"0.004": 13.7746756402,
			"0.005": 11.0291631147,
			"0.006": 5.79081555542,
			"0.007": 3.73420658308,
			"0.008": 1.63671216632,
			"0.009": 1.8888745981,
			"0.01": 2.0598298357,
			"0.011": 1.71883578572,
			"0.012": 3.44127369923,
			"0.013": 3.11251222916,
			"0.014": 1.70967576949,
			"0.015": 0.248150339854,
			"0.016": 0.0,
			"0.017": 0.0,
			"0.018": 0.0,
			"0.019": 0.0,
			"0.02": 0.0,
			"0.021": 0.0,
			"0.022": 0.0,
			"0.023": 0.0,
			"0.024": 0.0,
			"0.025": 0.0
		}
	}
}
