{
	 "smiles": "CC1=C2CCCC2=C(OC2=NC=CC=C2N)C=C1", 
	 "Tm": 423.15, 
	 "num_atms": 34, 
	 "gaussian": { 
		 "optdone": 1, 
		 "sigma_profile": "yes", 
		 "theory": "DFT", 
		 "functional": "B3LYP", 
		 "basiset": "6-31G**", 
		 "properties": { 
			 "R2extent": 7067.6169, 
			 "electric_dipole_moment_norm": 2.0709953549, 
			 "electric_quadrupole_moment_norm": 15.1596563094, 
			 "total_energy": -765.980458678, 
			 "HOMO_LUMO_gap": 0.18633, 
			 "cosmo_polarized_energy": -11.34, 
			 "cosmo_cavitation_energy": 36.66, 
			 "cosmo_dispersion_energy": -26.28, 
			 "cosmo_repulsion_energy": 2.06, 
			 "cosmo_total_nonelectrostatic_energy": 12.43, 
			 "SMD_solvation_energy": 4.81 
		},
		"coords": [
			{
				"x": -0.1647287853,
				"y": 2.1446629741,
				"z": -1.8506833838,
				"element": "C" 
			},
			{
				"x": -0.1959414019,
				"y": 1.2203948571,
				"z": -0.6573273629,
				"element": "C" 
			},
			{
				"x": 0.7244459417,
				"y": 0.1744413512,
				"z": -0.5188963072,
				"element": "C" 
			},
			{
				"x": 1.8606781091,
				"y": -0.2105011996,
				"z": -1.4455877698,
				"element": "C" 
			},
			{
				"x": 2.2452419156,
				"y": -1.6349673547,
				"z": -0.9705679388,
				"element": "C" 
			},
			{
				"x": 1.808365731,
				"y": -1.7061588822,
				"z": 0.5150568851,
				"element": "C" 
			},
			{
				"x": 0.7003607149,
				"y": -0.6808968835,
				"z": 0.5896491729,
				"element": "C" 
			},
			{
				"x": -0.2525258293,
				"y": -0.4981599944,
				"z": 1.5868400373,
				"element": "C" 
			},
			{
				"x": -0.1603739254,
				"y": -1.3092136064,
				"z": 2.7142044528,
				"element": "O" 
			},
			{
				"x": -1.2580432476,
				"y": -1.9629828524,
				"z": 3.2266246172,
				"element": "C" 
			},
			{
				"x": -2.3713145532,
				"y": -2.0605534654,
				"z": 2.5361701167,
				"element": "N" 
			},
			{
				"x": -3.395335893,
				"y": -2.7490479283,
				"z": 3.074381882,
				"element": "C" 
			},
			{
				"x": -3.3088591448,
				"y": -3.3624490037,
				"z": 4.3165068599,
				"element": "C" 
			},
			{
				"x": -2.1159673193,
				"y": -3.2540558098,
				"z": 5.0403769952,
				"element": "C" 
			},
			{
				"x": -1.0454687409,
				"y": -2.536210862,
				"z": 4.5072109408,
				"element": "C" 
			},
			{
				"x": 0.1527011686,
				"y": -2.3230032616,
				"z": 5.1774755515,
				"element": "N" 
			},
			{
				"x": -1.1863904095,
				"y": 0.5327098695,
				"z": 1.4735266393,
				"element": "C" 
			},
			{
				"x": -1.1499469989,
				"y": 1.3728360661,
				"z": 0.3598890153,
				"element": "C" 
			},
			{
				"x": 0.7895160509,
				"y": 2.6810300902,
				"z": -1.9218255513,
				"element": "H" 
			},
			{
				"x": -0.9619271997,
				"y": 2.8911269171,
				"z": -1.7949499932,
				"element": "H" 
			},
			{
				"x": -0.2889272009,
				"y": 1.5945315321,
				"z": -2.7915306952,
				"element": "H" 
			},
			{
				"x": 2.7025826492,
				"y": 0.4880305658,
				"z": -1.3282853067,
				"element": "H" 
			},
			{
				"x": 1.581974772,
				"y": -0.1830817678,
				"z": -2.5049588447,
				"element": "H" 
			},
			{
				"x": 1.6750655046,
				"y": -2.371464672,
				"z": -1.5474878632,
				"element": "H" 
			},
			{
				"x": 3.3062331288,
				"y": -1.8594238533,
				"z": -1.1130101517,
				"element": "H" 
			},
			{
				"x": 1.4855849519,
				"y": -2.7075862754,
				"z": 0.8168595821,
				"element": "H" 
			},
			{
				"x": 2.6339132069,
				"y": -1.4268138328,
				"z": 1.1855230826,
				"element": "H" 
			},
			{
				"x": -4.3014659569,
				"y": -2.8057854236,
				"z": 2.4765504941,
				"element": "H" 
			},
			{
				"x": -4.1511125698,
				"y": -3.9154547707,
				"z": 4.7194781584,
				"element": "H" 
			},
			{
				"x": -2.016373515,
				"y": -3.7167895123,
				"z": 6.0190516741,
				"element": "H" 
			},
			{
				"x": 0.9182388217,
				"y": -2.0449599517,
				"z": 4.5797742339,
				"element": "H" 
			},
			{
				"x": 0.4054476287,
				"y": -3.027729727,
				"z": 5.8555641218,
				"element": "H" 
			},
			{
				"x": -1.9378443259,
				"y": 0.6690987204,
				"z": 2.2419628293,
				"element": "H" 
			},
			{
				"x": -1.8850032782,
				"y": 2.170027947,
				"z": 0.2809338262,
				"element": "H" 
			}
		],
		 "valence_orbital": [ 
			{
				"type": "occ",
				"energy": -0.25956,
				"method": "rhf"
			},
			{
				"type": "occ",
				"energy": -0.25798,
				"method": "rhf"
			},
			{
				"type": "occ",
				"energy": -0.22536,
				"method": "rhf"
			},
			{
				"type": "occ",
				"energy": -0.21986,
				"method": "rhf"
			},
			{
				"type": "occ",
				"energy": -0.19547,
				"method": "rhf"
			},
			{
				"type": "unocc",
				"energy": -0.00914,
				"method": "rhf"
			},
			{
				"type": "unocc",
				"energy": 0.01079,
				"method": "rhf"
			},
			{
				"type": "unocc",
				"energy": 0.01355,
				"method": "rhf"
			},
			{
				"type": "unocc",
				"energy": 0.02205,
				"method": "rhf"
			},
			{
				"type": "unocc",
				"energy": 0.085,
				"method": "rhf"
			}
		],
		"cosmo_sigma_profile": { 
			"-0.025": 0.0,
			"-0.024": 0.0,
			"-0.023": 0.0,
			"-0.022": 0.0,
			"-0.021": 0.0,
			"-0.02": 0.0,
			"-0.019": 0.0,
			"-0.018": 0.0,
			"-0.017": 0.0,
			"-0.016": 0.0,
			"-0.015": 0.0,
			"-0.014": 0.0220902063294,
			"-0.013": 0.98286728231,
			"-0.012": 1.55367565668,
			"-0.011": 1.50066447972,
			"-0.01": 2.71665218178,
			"-0.009": 2.73424921461,
			"-0.008": 2.4694838045,
			"-0.007": 3.49052490358,
			"-0.006": 5.92680990622,
			"-0.005": 11.0117467347,
			"-0.004": 17.6696576262,
			"-0.003": 28.8662689142,
			"-0.002": 30.7703978981,
			"-0.001": 30.9636050966,
			"0.0": 30.4351260346,
			"0.001": 24.6918813113,
			"0.002": 16.6543443985,
			"0.003": 17.6032135144,
			"0.004": 19.5948112428,
			"0.005": 13.9967033153,
			"0.006": 9.08392111363,
			"0.007": 3.3172145855,
			"0.008": 2.90382024888,
			"0.009": 1.94040241184,
			"0.01": 2.27988474661,
			"0.011": 1.7936917837,
			"0.012": 1.65328733752,
			"0.013": 1.44539434124,
			"0.014": 1.37500478316,
			"0.015": 0.508364717493,
			"0.016": 0.0,
			"0.017": 0.0,
			"0.018": 0.0,
			"0.019": 0.0,
			"0.02": 0.0,
			"0.021": 0.0,
			"0.022": 0.0,
			"0.023": 0.0,
			"0.024": 0.0,
			"0.025": 0.0
		}
	}
}
