{
	 "smiles": "[O-][N+](=O)C1=CC=C(N2N=CC3=C2N=CC=C3)C(=C1)[N+]([O-])=O", 
	 "Tm": 457.15, 
	 "num_atms": 28, 
	 "gaussian": { 
		 "optdone": 1, 
		 "sigma_profile": "yes", 
		 "theory": "DFT", 
		 "functional": "B3LYP", 
		 "basiset": "6-31G**", 
		 "properties": { 
			 "R2extent": 7628.2836, 
			 "electric_dipole_moment_norm": 7.66028657558, 
			 "electric_quadrupole_moment_norm": 15.0238217278, 
			 "total_energy": -1035.91293199, 
			 "HOMO_LUMO_gap": 0.14842, 
			 "cosmo_polarized_energy": -15.72, 
			 "cosmo_cavitation_energy": 35.05, 
			 "cosmo_dispersion_energy": -25.07, 
			 "cosmo_repulsion_energy": 1.87, 
			 "cosmo_total_nonelectrostatic_energy": 11.86, 
			 "SMD_solvation_energy": 9.31 
		},
		"coords": [
			{
				"x": -4.5700192103,
				"y": 1.506281359,
				"z": -0.5663113557,
				"element": "O" 
			},
			{
				"x": -4.0852148311,
				"y": 1.8164966446,
				"z": 0.5208640984,
				"element": "N" 
			},
			{
				"x": -4.6832734146,
				"y": 2.4011602813,
				"z": 1.4219609137,
				"element": "O" 
			},
			{
				"x": -2.6795059988,
				"y": 1.4594971711,
				"z": 0.7592248997,
				"element": "C" 
			},
			{
				"x": -1.9633715715,
				"y": 0.7978413131,
				"z": -0.2364915652,
				"element": "C" 
			},
			{
				"x": -0.6265986605,
				"y": 0.4914818568,
				"z": -0.0187438812,
				"element": "C" 
			},
			{
				"x": -0.0062396902,
				"y": 0.8097758444,
				"z": 1.1999002892,
				"element": "C" 
			},
			{
				"x": 1.3664938371,
				"y": 0.5741914852,
				"z": 1.3635692802,
				"element": "N" 
			},
			{
				"x": 2.1333960045,
				"y": 1.4632632152,
				"z": 2.0766586597,
				"element": "N" 
			},
			{
				"x": 3.3628086599,
				"y": 0.9995735517,
				"z": 2.0670399407,
				"element": "C" 
			},
			{
				"x": 3.455887473,
				"y": -0.2280039543,
				"z": 1.3384696341,
				"element": "C" 
			},
			{
				"x": 2.1385291133,
				"y": -0.4717385636,
				"z": 0.8844369922,
				"element": "C" 
			},
			{
				"x": 1.7234379874,
				"y": -1.5042012012,
				"z": 0.1501164744,
				"element": "N" 
			},
			{
				"x": 2.6861741566,
				"y": -2.3766614285,
				"z": -0.1596489819,
				"element": "C" 
			},
			{
				"x": 4.0353010704,
				"y": -2.2528003724,
				"z": 0.2324536535,
				"element": "C" 
			},
			{
				"x": 4.4401120606,
				"y": -1.1630876967,
				"z": 0.9933182151,
				"element": "C" 
			},
			{
				"x": -0.7788549333,
				"y": 1.4261695702,
				"z": 2.2044380062,
				"element": "C" 
			},
			{
				"x": -2.101340479,
				"y": 1.7852165289,
				"z": 1.979778509,
				"element": "C" 
			},
			{
				"x": -0.2802020728,
				"y": 1.6283759184,
				"z": 3.579134384,
				"element": "N" 
			},
			{
				"x": -0.5945288098,
				"y": 2.6758103028,
				"z": 4.1360031223,
				"element": "O" 
			},
			{
				"x": 0.3469426918,
				"y": 0.7042604246,
				"z": 4.0848404734,
				"element": "O" 
			},
			{
				"x": -2.4505806898,
				"y": 0.5582552746,
				"z": -1.1731143155,
				"element": "H" 
			},
			{
				"x": -0.0442500458,
				"y": 0.0017190274,
				"z": -0.7877759664,
				"element": "H" 
			},
			{
				"x": 4.1458429361,
				"y": 1.5536005064,
				"z": 2.5674876297,
				"element": "H" 
			},
			{
				"x": 2.3765502174,
				"y": -3.2305328107,
				"z": -0.7580847733,
				"element": "H" 
			},
			{
				"x": 4.7457165166,
				"y": -3.0150102379,
				"z": -0.068718242,
				"element": "H" 
			},
			{
				"x": 5.4727238558,
				"y": -1.0445260605,
				"z": 1.3073588866,
				"element": "H" 
			},
			{
				"x": -2.673936173,
				"y": 2.2844920502,
				"z": 2.7501350193,
				"element": "H" 
			}
		],
		 "valence_orbital": [ 
			{
				"type": "occ",
				"energy": -0.3019,
				"method": "rhf"
			},
			{
				"type": "occ",
				"energy": -0.29275,
				"method": "rhf"
			},
			{
				"type": "occ",
				"energy": -0.28785,
				"method": "rhf"
			},
			{
				"type": "occ",
				"energy": -0.27533,
				"method": "rhf"
			},
			{
				"type": "occ",
				"energy": -0.25525,
				"method": "rhf"
			},
			{
				"type": "unocc",
				"energy": -0.10683,
				"method": "rhf"
			},
			{
				"type": "unocc",
				"energy": -0.08824,
				"method": "rhf"
			},
			{
				"type": "unocc",
				"energy": -0.07033,
				"method": "rhf"
			},
			{
				"type": "unocc",
				"energy": -0.03911,
				"method": "rhf"
			},
			{
				"type": "unocc",
				"energy": -0.02848,
				"method": "rhf"
			}
		],
		"cosmo_sigma_profile": { 
			"-0.025": 0.0,
			"-0.024": 0.0,
			"-0.023": 0.0,
			"-0.022": 0.0,
			"-0.021": 0.0,
			"-0.02": 0.0,
			"-0.019": 0.0,
			"-0.018": 0.0,
			"-0.017": 0.0,
			"-0.016": 0.0,
			"-0.015": 0.0,
			"-0.014": 0.0,
			"-0.013": 0.0,
			"-0.012": 0.0,
			"-0.011": 0.0,
			"-0.01": 0.381409055493,
			"-0.009": 4.93503092188,
			"-0.008": 11.1327793437,
			"-0.007": 17.0528100617,
			"-0.006": 14.3532272246,
			"-0.005": 14.175712151,
			"-0.004": 15.6763222844,
			"-0.003": 22.2211538332,
			"-0.002": 21.8524908312,
			"-0.001": 20.6631774963,
			"0.0": 21.0852599491,
			"0.001": 18.3689048112,
			"0.002": 12.776173187,
			"0.003": 9.94659137821,
			"0.004": 9.32341966243,
			"0.005": 10.1877501859,
			"0.006": 14.6610221016,
			"0.007": 22.0898951039,
			"0.008": 11.9209693983,
			"0.009": 7.94979684785,
			"0.01": 2.53008723048,
			"0.011": 0.852712548562,
			"0.012": 0.111895133755,
			"0.013": 0.0,
			"0.014": 0.0,
			"0.015": 0.0,
			"0.016": 0.0,
			"0.017": 0.0,
			"0.018": 0.0,
			"0.019": 0.0,
			"0.02": 0.0,
			"0.021": 0.0,
			"0.022": 0.0,
			"0.023": 0.0,
			"0.024": 0.0,
			"0.025": 0.0
		}
	}
}
