{
	 "smiles": "CCOC(=O)C(C(C)=O)C(=O)C=CC1=CC(OCC2=CC=CC=C2)=C(OC)C=C1", 
	 "Tm": 481.15, 
	 "num_atms": 53, 
	 "gaussian": { 
		 "optdone": 1, 
		 "sigma_profile": "yes", 
		 "theory": "DFT", 
		 "functional": "B3LYP", 
		 "basiset": "6-31G**", 
		 "properties": { 
			 "R2extent": 17362.0615, 
			 "electric_dipole_moment_norm": 3.99747320566, 
			 "electric_quadrupole_moment_norm": 18.345876208, 
			 "total_energy": -1342.21976962, 
			 "HOMO_LUMO_gap": 0.15237, 
			 "cosmo_polarized_energy": -19.93, 
			 "cosmo_cavitation_energy": 58.46, 
			 "cosmo_dispersion_energy": -37.67, 
			 "cosmo_repulsion_energy": 2.92, 
			 "cosmo_total_nonelectrostatic_energy": 23.71, 
			 "SMD_solvation_energy": 12.78 
		},
		"coords": [
			{
				"x": 0.3151453744,
				"y": 4.4304219677,
				"z": 0.230690072,
				"element": "C" 
			},
			{
				"x": 0.8729698785,
				"y": 4.9535422571,
				"z": -1.0832447765,
				"element": "C" 
			},
			{
				"x": 0.3606816679,
				"y": 4.1899031763,
				"z": -2.2081174185,
				"element": "O" 
			},
			{
				"x": 1.0333192077,
				"y": 3.0778225759,
				"z": -2.5469340914,
				"element": "C" 
			},
			{
				"x": 2.0551687451,
				"y": 2.698061217,
				"z": -2.0095768112,
				"element": "O" 
			},
			{
				"x": 0.3372592993,
				"y": 2.3702934974,
				"z": -3.7074990449,
				"element": "C" 
			},
			{
				"x": 1.2291674888,
				"y": 1.239450072,
				"z": -4.264640679,
				"element": "C" 
			},
			{
				"x": 2.4200780377,
				"y": 1.6871123716,
				"z": -5.0855308344,
				"element": "C" 
			},
			{
				"x": 0.9757339276,
				"y": 0.0696256988,
				"z": -4.0684132173,
				"element": "O" 
			},
			{
				"x": -1.1140143961,
				"y": 1.930461842,
				"z": -3.3672070305,
				"element": "C" 
			},
			{
				"x": -2.0050882417,
				"y": 2.281177474,
				"z": -4.1275826239,
				"element": "O" 
			},
			{
				"x": -1.4226317287,
				"y": 1.1468806656,
				"z": -2.1638618604,
				"element": "C" 
			},
			{
				"x": -0.5227097603,
				"y": 0.5605442762,
				"z": -1.3452088121,
				"element": "C" 
			},
			{
				"x": -0.8108343245,
				"y": -0.238128419,
				"z": -0.1549905924,
				"element": "C" 
			},
			{
				"x": 0.2720025169,
				"y": -0.755667563,
				"z": 0.5797564114,
				"element": "C" 
			},
			{
				"x": 0.0772275443,
				"y": -1.5225388712,
				"z": 1.7248552006,
				"element": "C" 
			},
			{
				"x": 1.17512302,
				"y": -2.019399752,
				"z": 2.3921848227,
				"element": "O" 
			},
			{
				"x": 1.421754405,
				"y": -1.422186195,
				"z": 3.6805934555,
				"element": "C" 
			},
			{
				"x": 2.6566618254,
				"y": -2.042142605,
				"z": 4.2864493392,
				"element": "C" 
			},
			{
				"x": 3.748699496,
				"y": -2.4039876833,
				"z": 3.4876713606,
				"element": "C" 
			},
			{
				"x": 4.9005511526,
				"y": -2.9353714181,
				"z": 4.0676287752,
				"element": "C" 
			},
			{
				"x": 4.9791636184,
				"y": -3.1031530567,
				"z": 5.4521635788,
				"element": "C" 
			},
			{
				"x": 3.8948694815,
				"y": -2.7438365501,
				"z": 6.2539231181,
				"element": "C" 
			},
			{
				"x": 2.7381270498,
				"y": -2.2224224195,
				"z": 5.6718947365,
				"element": "C" 
			},
			{
				"x": -1.2328302722,
				"y": -1.8085846009,
				"z": 2.156164609,
				"element": "C" 
			},
			{
				"x": -1.4870558998,
				"y": -2.5455396051,
				"z": 3.28433384,
				"element": "O" 
			},
			{
				"x": -1.0620600493,
				"y": -3.9173387831,
				"z": 3.2427659038,
				"element": "C" 
			},
			{
				"x": -2.3157653736,
				"y": -1.2823420726,
				"z": 1.4422055885,
				"element": "C" 
			},
			{
				"x": -2.1137063624,
				"y": -0.5067572757,
				"z": 0.3079852376,
				"element": "C" 
			},
			{
				"x": 0.6589747949,
				"y": 3.4104801578,
				"z": 0.4196147109,
				"element": "H" 
			},
			{
				"x": 0.6566962482,
				"y": 5.0655322426,
				"z": 1.0547080167,
				"element": "H" 
			},
			{
				"x": -0.7782726908,
				"y": 4.437375808,
				"z": 0.2202165351,
				"element": "H" 
			},
			{
				"x": 1.964206102,
				"y": 4.911027226,
				"z": -1.0998457037,
				"element": "H" 
			},
			{
				"x": 0.5438840478,
				"y": 5.9756310452,
				"z": -1.2825475888,
				"element": "H" 
			},
			{
				"x": 0.199005774,
				"y": 3.1195541474,
				"z": -4.4945242354,
				"element": "H" 
			},
			{
				"x": 3.0609160306,
				"y": 2.3400308277,
				"z": -4.484367589,
				"element": "H" 
			},
			{
				"x": 2.985190763,
				"y": 0.8137568223,
				"z": -5.4133294804,
				"element": "H" 
			},
			{
				"x": 2.0862965793,
				"y": 2.259866465,
				"z": -5.9585961293,
				"element": "H" 
			},
			{
				"x": -2.4920943939,
				"y": 1.0428096863,
				"z": -2.0014298666,
				"element": "H" 
			},
			{
				"x": 0.5339934151,
				"y": 0.6621470762,
				"z": -1.5729009124,
				"element": "H" 
			},
			{
				"x": 1.2927248585,
				"y": -0.562797328,
				"z": 0.2626328267,
				"element": "H" 
			},
			{
				"x": 0.5545268558,
				"y": -1.5666630283,
				"z": 4.3346527905,
				"element": "H" 
			},
			{
				"x": 1.5597336072,
				"y": -0.3395560266,
				"z": 3.5395352628,
				"element": "H" 
			},
			{
				"x": 3.6824948192,
				"y": -2.2800719538,
				"z": 2.4118454585,
				"element": "H" 
			},
			{
				"x": 5.7390583081,
				"y": -3.2182670896,
				"z": 3.4373740576,
				"element": "H" 
			},
			{
				"x": 5.8777036689,
				"y": -3.5156415114,
				"z": 5.9020792929,
				"element": "H" 
			},
			{
				"x": 3.9439823029,
				"y": -2.8781330208,
				"z": 7.3308170974,
				"element": "H" 
			},
			{
				"x": 1.8910598861,
				"y": -1.9551690707,
				"z": 6.2994607977,
				"element": "H" 
			},
			{
				"x": -1.3468198053,
				"y": -4.3490550921,
				"z": 4.2038228752,
				"element": "H" 
			},
			{
				"x": -1.5781796945,
				"y": -4.4527561347,
				"z": 2.4368629399,
				"element": "H" 
			},
			{
				"x": 0.0190168269,
				"y": -3.9978383974,
				"z": 3.1025331966,
				"element": "H" 
			},
			{
				"x": -3.3161543296,
				"y": -1.5057240427,
				"z": 1.7988726006,
				"element": "H" 
			},
			{
				"x": -2.9740513031,
				"y": -0.1212390294,
				"z": -0.2286452106,
				"element": "H" 
			}
		],
		 "valence_orbital": [ 
			{
				"type": "occ",
				"energy": -0.25409,
				"method": "rhf"
			},
			{
				"type": "occ",
				"energy": -0.2508,
				"method": "rhf"
			},
			{
				"type": "occ",
				"energy": -0.24471,
				"method": "rhf"
			},
			{
				"type": "occ",
				"energy": -0.24369,
				"method": "rhf"
			},
			{
				"type": "occ",
				"energy": -0.22364,
				"method": "rhf"
			},
			{
				"type": "unocc",
				"energy": -0.07127,
				"method": "rhf"
			},
			{
				"type": "unocc",
				"energy": -0.02402,
				"method": "rhf"
			},
			{
				"type": "unocc",
				"energy": -0.01103,
				"method": "rhf"
			},
			{
				"type": "unocc",
				"energy": -0.00776,
				"method": "rhf"
			},
			{
				"type": "unocc",
				"energy": -0.00512,
				"method": "rhf"
			}
		],
		"cosmo_sigma_profile": { 
			"-0.025": 0.0,
			"-0.024": 0.0,
			"-0.023": 0.0,
			"-0.022": 0.0,
			"-0.021": 0.0,
			"-0.02": 0.0,
			"-0.019": 0.0,
			"-0.018": 0.0,
			"-0.017": 0.0,
			"-0.016": 0.0,
			"-0.015": 0.0,
			"-0.014": 0.0,
			"-0.013": 0.0,
			"-0.012": 0.0,
			"-0.011": 0.0,
			"-0.01": 0.203146001441,
			"-0.009": 3.11545087947,
			"-0.008": 5.87071253489,
			"-0.007": 9.39700076082,
			"-0.006": 20.3550734166,
			"-0.005": 35.6135600501,
			"-0.004": 44.4336303395,
			"-0.003": 46.5916016969,
			"-0.002": 39.7060521985,
			"-0.001": 37.6991918885,
			"0.0": 33.9122788962,
			"0.001": 29.9161833786,
			"0.002": 31.8007768337,
			"0.003": 26.2295763087,
			"0.004": 19.6676909036,
			"0.005": 17.6955984,
			"0.006": 15.5565213499,
			"0.007": 7.96065932439,
			"0.008": 6.96974410308,
			"0.009": 6.75423706308,
			"0.01": 8.02666692293,
			"0.011": 10.4785253494,
			"0.012": 5.12574923306,
			"0.013": 1.14001106567,
			"0.014": 0.0,
			"0.015": 0.0,
			"0.016": 0.0,
			"0.017": 0.0,
			"0.018": 0.0,
			"0.019": 0.0,
			"0.02": 0.0,
			"0.021": 0.0,
			"0.022": 0.0,
			"0.023": 0.0,
			"0.024": 0.0,
			"0.025": 0.0
		}
	}
}
