{
	 "smiles": "CC1=C(C(C)=NN1)S(=O)(=O)N1CCCCC1", 
	 "Tm": 345.65, 
	 "num_atms": 33, 
	 "gaussian": { 
		 "optdone": 1, 
		 "sigma_profile": "yes", 
		 "theory": "DFT", 
		 "functional": "B3LYP", 
		 "basiset": "6-31G**", 
		 "properties": { 
			 "R2extent": 3944.191, 
			 "electric_dipole_moment_norm": 4.7469932273, 
			 "electric_quadrupole_moment_norm": 12.6835097997, 
			 "total_energy": -1104.13230811, 
			 "HOMO_LUMO_gap": 0.23444, 
			 "cosmo_polarized_energy": -17.15, 
			 "cosmo_cavitation_energy": 34.75, 
			 "cosmo_dispersion_energy": -24.81, 
			 "cosmo_repulsion_energy": 1.89, 
			 "cosmo_total_nonelectrostatic_energy": 11.83, 
			 "SMD_solvation_energy": 3.39 
		},
		"coords": [
			{
				"x": 2.0122196497,
				"y": 0.5571008114,
				"z": -2.5533630078,
				"element": "C" 
			},
			{
				"x": 1.4693610873,
				"y": -0.763678935,
				"z": -2.119508275,
				"element": "C" 
			},
			{
				"x": 0.5211927804,
				"y": -1.1088565613,
				"z": -1.1582297694,
				"element": "C" 
			},
			{
				"x": 0.4070310357,
				"y": -2.5320890478,
				"z": -1.198193554,
				"element": "C" 
			},
			{
				"x": -0.4714514886,
				"y": -3.4473988527,
				"z": -0.4041499802,
				"element": "C" 
			},
			{
				"x": 1.237592806,
				"y": -3.0276324431,
				"z": -2.1115512848,
				"element": "N" 
			},
			{
				"x": 1.8607233095,
				"y": -1.9439894998,
				"z": -2.6443399883,
				"element": "N" 
			},
			{
				"x": -0.3996193022,
				"y": 0.0447496797,
				"z": -0.2048094442,
				"element": "S" 
			},
			{
				"x": -1.3598708387,
				"y": -0.7298076849,
				"z": 0.5986249326,
				"element": "O" 
			},
			{
				"x": -0.8874795571,
				"y": 1.1263608256,
				"z": -1.0722938728,
				"element": "O" 
			},
			{
				"x": 0.816310775,
				"y": 0.7476791345,
				"z": 0.7535669125,
				"element": "N" 
			},
			{
				"x": 1.3670035039,
				"y": -0.1101780064,
				"z": 1.8248725839,
				"element": "C" 
			},
			{
				"x": 0.562827384,
				"y": -0.0540079981,
				"z": 3.1318504137,
				"element": "C" 
			},
			{
				"x": 0.3636777926,
				"y": 1.3986463664,
				"z": 3.5917256369,
				"element": "C" 
			},
			{
				"x": -0.2518565208,
				"y": 2.2479885476,
				"z": 2.4689812679,
				"element": "C" 
			},
			{
				"x": 0.5815821697,
				"y": 2.1436600262,
				"z": 1.1845082507,
				"element": "C" 
			},
			{
				"x": 2.5833338888,
				"y": 1.0220051948,
				"z": -1.7433189628,
				"element": "H" 
			},
			{
				"x": 2.6645133192,
				"y": 0.450377841,
				"z": -3.4247856539,
				"element": "H" 
			},
			{
				"x": 1.1923832492,
				"y": 1.2355095945,
				"z": -2.8030524854,
				"element": "H" 
			},
			{
				"x": -0.2907224042,
				"y": -4.4768078071,
				"z": -0.7201260586,
				"element": "H" 
			},
			{
				"x": -0.2740167143,
				"y": -3.3615124137,
				"z": 0.6683812318,
				"element": "H" 
			},
			{
				"x": -1.5266400442,
				"y": -3.201180284,
				"z": -0.5471729253,
				"element": "H" 
			},
			{
				"x": 2.5382036316,
				"y": -2.084435021,
				"z": -3.379007849,
				"element": "H" 
			},
			{
				"x": 2.3925808188,
				"y": 0.2430532452,
				"z": 1.9992461039,
				"element": "H" 
			},
			{
				"x": 1.4465405353,
				"y": -1.1330461372,
				"z": 1.4460795302,
				"element": "H" 
			},
			{
				"x": 1.0893514539,
				"y": -0.6335742973,
				"z": 3.9000706995,
				"element": "H" 
			},
			{
				"x": -0.4094206423,
				"y": -0.5298379652,
				"z": 2.967819965,
				"element": "H" 
			},
			{
				"x": -0.267943353,
				"y": 1.4305699939,
				"z": 4.4864892811,
				"element": "H" 
			},
			{
				"x": 1.3350424469,
				"y": 1.8281353682,
				"z": 3.878604306,
				"element": "H" 
			},
			{
				"x": -0.3161790863,
				"y": 3.3005776484,
				"z": 2.7706746151,
				"element": "H" 
			},
			{
				"x": -1.274443813,
				"y": 1.9093958928,
				"z": 2.2625234584,
				"element": "H" 
			},
			{
				"x": 1.5771692002,
				"y": 2.5783433298,
				"z": 1.3495268951,
				"element": "H" 
			},
			{
				"x": 0.1179029267,
				"y": 2.6793794549,
				"z": 0.3554570271,
				"element": "H" 
			}
		],
		 "valence_orbital": [ 
			{
				"type": "occ",
				"energy": -0.29123,
				"method": "rhf"
			},
			{
				"type": "occ",
				"energy": -0.28945,
				"method": "rhf"
			},
			{
				"type": "occ",
				"energy": -0.26622,
				"method": "rhf"
			},
			{
				"type": "occ",
				"energy": -0.25432,
				"method": "rhf"
			},
			{
				"type": "occ",
				"energy": -0.2356,
				"method": "rhf"
			},
			{
				"type": "unocc",
				"energy": -0.00116,
				"method": "rhf"
			},
			{
				"type": "unocc",
				"energy": 0.02971,
				"method": "rhf"
			},
			{
				"type": "unocc",
				"energy": 0.06487,
				"method": "rhf"
			},
			{
				"type": "unocc",
				"energy": 0.07732,
				"method": "rhf"
			},
			{
				"type": "unocc",
				"energy": 0.08276,
				"method": "rhf"
			}
		],
		"cosmo_sigma_profile": { 
			"-0.025": 0.0,
			"-0.024": 0.0,
			"-0.023": 0.0,
			"-0.022": 0.0,
			"-0.021": 0.0,
			"-0.02": 0.0,
			"-0.019": 0.0,
			"-0.018": 0.0245347399549,
			"-0.017": 1.10153632003,
			"-0.016": 1.60842048892,
			"-0.015": 1.3194718661,
			"-0.014": 1.0267366396,
			"-0.013": 1.04682489059,
			"-0.012": 1.15269378021,
			"-0.011": 1.6465521637,
			"-0.01": 1.09897689428,
			"-0.009": 0.96727551506,
			"-0.008": 0.776703043713,
			"-0.007": 1.88965282389,
			"-0.006": 2.86408518593,
			"-0.005": 10.3121223201,
			"-0.004": 21.7104694065,
			"-0.003": 30.6607858414,
			"-0.002": 38.2222992356,
			"-0.001": 33.4272166769,
			"0.0": 27.9664466614,
			"0.001": 16.6438369518,
			"0.002": 11.7290376369,
			"0.003": 10.6899289106,
			"0.004": 7.75206623078,
			"0.005": 5.25289168993,
			"0.006": 5.08058556712,
			"0.007": 4.83064697588,
			"0.008": 3.456205241,
			"0.009": 5.46506915847,
			"0.01": 5.43637848701,
			"0.011": 6.06077026485,
			"0.012": 6.81893640009,
			"0.013": 1.72050230923,
			"0.014": 1.08640383432,
			"0.015": 0.709361771769,
			"0.016": 0.168187288528,
			"0.017": 0.0,
			"0.018": 0.0,
			"0.019": 0.0,
			"0.02": 0.0,
			"0.021": 0.0,
			"0.022": 0.0,
			"0.023": 0.0,
			"0.024": 0.0,
			"0.025": 0.0
		}
	}
}
