{
	 "smiles": "[O-][N+](=O)C1=C(NC2CC2)C=CN=C1", 
	 "Tm": 379.15, 
	 "num_atms": 22, 
	 "gaussian": { 
		 "optdone": 1, 
		 "sigma_profile": "yes", 
		 "theory": "DFT", 
		 "functional": "B3LYP", 
		 "basiset": "6-31G**", 
		 "properties": { 
			 "R2extent": 3071.3668, 
			 "electric_dipole_moment_norm": 5.46332505897, 
			 "electric_quadrupole_moment_norm": 10.245582755, 
			 "total_energy": -624.845739249, 
			 "HOMO_LUMO_gap": 0.15066, 
			 "cosmo_polarized_energy": -11.05, 
			 "cosmo_cavitation_energy": 26.19, 
			 "cosmo_dispersion_energy": -19.27, 
			 "cosmo_repulsion_energy": 1.52, 
			 "cosmo_total_nonelectrostatic_energy": 8.44, 
			 "SMD_solvation_energy": 4.14 
		},
		"coords": [
			{
				"x": -2.2915341555,
				"y": -0.0099214458,
				"z": -4.0068758076,
				"element": "O" 
			},
			{
				"x": -1.6141586913,
				"y": 0.4001158448,
				"z": -3.0658645172,
				"element": "N" 
			},
			{
				"x": -1.2005349397,
				"y": 1.5746535174,
				"z": -2.995920295,
				"element": "O" 
			},
			{
				"x": -1.2821147465,
				"y": -0.5168237232,
				"z": -1.9967955977,
				"element": "C" 
			},
			{
				"x": -0.509019808,
				"y": -0.1296688796,
				"z": -0.8608892279,
				"element": "C" 
			},
			{
				"x": -0.0280427144,
				"y": 1.121843005,
				"z": -0.6690016239,
				"element": "N" 
			},
			{
				"x": 0.8324679893,
				"y": 1.4962667322,
				"z": 0.4140663631,
				"element": "C" 
			},
			{
				"x": 0.7262040907,
				"y": 2.9071339034,
				"z": 0.9232442723,
				"element": "C" 
			},
			{
				"x": 0.2415093223,
				"y": 1.7667753847,
				"z": 1.7821309423,
				"element": "C" 
			},
			{
				"x": -0.2772004003,
				"y": -1.1683441593,
				"z": 0.0773759187,
				"element": "C" 
			},
			{
				"x": -0.7894381247,
				"y": -2.4307027088,
				"z": -0.1448030826,
				"element": "C" 
			},
			{
				"x": -1.5221474531,
				"y": -2.7914400742,
				"z": -1.2206672044,
				"element": "N" 
			},
			{
				"x": -1.7486313027,
				"y": -1.836164213,
				"z": -2.112359333,
				"element": "C" 
			},
			{
				"x": -0.1931179327,
				"y": 1.7662516543,
				"z": -1.4344774529,
				"element": "H" 
			},
			{
				"x": 1.8274749916,
				"y": 1.0514712553,
				"z": 0.3865052413,
				"element": "H" 
			},
			{
				"x": -0.025068379,
				"y": 3.544912682,
				"z": 0.4671730855,
				"element": "H" 
			},
			{
				"x": 1.6444956175,
				"y": 3.4163916189,
				"z": 1.1963736206,
				"element": "H" 
			},
			{
				"x": -0.8306680597,
				"y": 1.6398704127,
				"z": 1.8897916406,
				"element": "H" 
			},
			{
				"x": 0.8255559905,
				"y": 1.4851089336,
				"z": 2.6529133441,
				"element": "H" 
			},
			{
				"x": 0.2985227018,
				"y": -0.9620031626,
				"z": 0.9706382352,
				"element": "H" 
			},
			{
				"x": -0.604583698,
				"y": -3.2167868434,
				"z": 0.5850439101,
				"element": "H" 
			},
			{
				"x": -2.332770298,
				"y": -2.0934397344,
				"z": -2.9902024317,
				"element": "H" 
			}
		],
		 "valence_orbital": [ 
			{
				"type": "occ",
				"energy": -0.30969,
				"method": "rhf"
			},
			{
				"type": "occ",
				"energy": -0.29158,
				"method": "rhf"
			},
			{
				"type": "occ",
				"energy": -0.28271,
				"method": "rhf"
			},
			{
				"type": "occ",
				"energy": -0.26514,
				"method": "rhf"
			},
			{
				"type": "occ",
				"energy": -0.23971,
				"method": "rhf"
			},
			{
				"type": "unocc",
				"energy": -0.08905,
				"method": "rhf"
			},
			{
				"type": "unocc",
				"energy": -0.01954,
				"method": "rhf"
			},
			{
				"type": "unocc",
				"energy": -0.001,
				"method": "rhf"
			},
			{
				"type": "unocc",
				"energy": 0.07885,
				"method": "rhf"
			},
			{
				"type": "unocc",
				"energy": 0.09237,
				"method": "rhf"
			}
		],
		"cosmo_sigma_profile": { 
			"-0.025": 0.0,
			"-0.024": 0.0,
			"-0.023": 0.0,
			"-0.022": 0.0,
			"-0.021": 0.0,
			"-0.02": 0.0,
			"-0.019": 0.0,
			"-0.018": 0.0,
			"-0.017": 0.0,
			"-0.016": 0.0,
			"-0.015": 0.0,
			"-0.014": 0.0,
			"-0.013": 0.0,
			"-0.012": 0.0,
			"-0.011": 0.0,
			"-0.01": 0.0,
			"-0.009": 0.436558857804,
			"-0.008": 1.26044117768,
			"-0.007": 5.00938383233,
			"-0.006": 12.733294037,
			"-0.005": 20.133138054,
			"-0.004": 16.8031268651,
			"-0.003": 18.3126181944,
			"-0.002": 19.2512478346,
			"-0.001": 22.8669494396,
			"0.0": 16.817639677,
			"0.001": 13.638962328,
			"0.002": 10.330613311,
			"0.003": 6.97698521372,
			"0.004": 6.47298333253,
			"0.005": 3.66569458096,
			"0.006": 4.32209607725,
			"0.007": 6.49212869163,
			"0.008": 7.81088678931,
			"0.009": 4.88004890056,
			"0.01": 4.7760203175,
			"0.011": 1.97574460805,
			"0.012": 0.713429357154,
			"0.013": 0.785962388995,
			"0.014": 1.06211258796,
			"0.015": 0.994976547622,
			"0.016": 0.638843764489,
			"0.017": 0.158536157832,
			"0.018": 0.0,
			"0.019": 0.0,
			"0.02": 0.0,
			"0.021": 0.0,
			"0.022": 0.0,
			"0.023": 0.0,
			"0.024": 0.0,
			"0.025": 0.0
		}
	}
}
