{
	 "smiles": "FC1=CC=C(C=C1)C(=O)C1=CC=CC=C1", 
	 "Tm": 320.15, 
	 "num_atms": 24, 
	 "gaussian": { 
		 "optdone": 1, 
		 "sigma_profile": "yes", 
		 "theory": "DFT", 
		 "functional": "B3LYP", 
		 "basiset": "6-31G**", 
		 "properties": { 
			 "R2extent": 4078.5827, 
			 "electric_dipole_moment_norm": 2.68142083605, 
			 "electric_quadrupole_moment_norm": 9.14866415167, 
			 "total_energy": -675.867604228, 
			 "HOMO_LUMO_gap": 0.18054, 
			 "cosmo_polarized_energy": -8.55, 
			 "cosmo_cavitation_energy": 29.09, 
			 "cosmo_dispersion_energy": -21.02, 
			 "cosmo_repulsion_energy": 1.6, 
			 "cosmo_total_nonelectrostatic_energy": 9.68, 
			 "SMD_solvation_energy": 5.88 
		},
		"coords": [
			{
				"x": 3.6455612438,
				"y": -2.8306057307,
				"z": 1.3866957247,
				"element": "F" 
			},
			{
				"x": 2.5028602238,
				"y": -2.1596948023,
				"z": 1.1485148536,
				"element": "C" 
			},
			{
				"x": 2.2741451828,
				"y": -1.6520136111,
				"z": -0.125533047,
				"element": "C" 
			},
			{
				"x": 1.0835303705,
				"y": -0.9686799232,
				"z": -0.3685912781,
				"element": "C" 
			},
			{
				"x": 0.138066964,
				"y": -0.7878087606,
				"z": 0.6538308086,
				"element": "C" 
			},
			{
				"x": 0.4175318744,
				"y": -1.2923321006,
				"z": 1.9356908592,
				"element": "C" 
			},
			{
				"x": 1.5916931587,
				"y": -1.9912726652,
				"z": 2.1888564713,
				"element": "C" 
			},
			{
				"x": -1.1248034768,
				"y": 0.0006610927,
				"z": 0.4781756144,
				"element": "C" 
			},
			{
				"x": -1.6327271653,
				"y": 0.556892394,
				"z": 1.4465714605,
				"element": "O" 
			},
			{
				"x": -1.7732659279,
				"y": 0.1178360215,
				"z": -0.8701801845,
				"element": "C" 
			},
			{
				"x": -1.7069960485,
				"y": -0.8914553839,
				"z": -1.8434300299,
				"element": "C" 
			},
			{
				"x": -2.3915293739,
				"y": -0.7508458651,
				"z": -3.0515110425,
				"element": "C" 
			},
			{
				"x": -3.1370357794,
				"y": 0.4017814121,
				"z": -3.3035783135,
				"element": "C" 
			},
			{
				"x": -3.2150058757,
				"y": 1.4083295359,
				"z": -2.3358178247,
				"element": "C" 
			},
			{
				"x": -2.5491483531,
				"y": 1.2608846121,
				"z": -1.1228855438,
				"element": "C" 
			},
			{
				"x": 3.0212485902,
				"y": -1.7899238878,
				"z": -0.8994328381,
				"element": "H" 
			},
			{
				"x": 0.9038669972,
				"y": -0.5529234798,
				"z": -1.353870654,
				"element": "H" 
			},
			{
				"x": -0.305826975,
				"y": -1.1199966439,
				"z": 2.7253145255,
				"element": "H" 
			},
			{
				"x": 1.816383576,
				"y": -2.3990502353,
				"z": 3.1684464169,
				"element": "H" 
			},
			{
				"x": -1.1452077,
				"y": -1.7985377872,
				"z": -1.6466953422,
				"element": "H" 
			},
			{
				"x": -2.3452784159,
				"y": -1.5430735397,
				"z": -3.7930441376,
				"element": "H" 
			},
			{
				"x": -3.6621550848,
				"y": 0.5134778337,
				"z": -4.2479642673,
				"element": "H" 
			},
			{
				"x": -3.8007589064,
				"y": 2.30270739,
				"z": -2.527319985,
				"element": "H" 
			},
			{
				"x": -2.6163490988,
				"y": 2.0194441244,
				"z": -0.3501422465,
				"element": "H" 
			}
		],
		 "valence_orbital": [ 
			{
				"type": "occ",
				"energy": -0.27103,
				"method": "rhf"
			},
			{
				"type": "occ",
				"energy": -0.2639,
				"method": "rhf"
			},
			{
				"type": "occ",
				"energy": -0.26169,
				"method": "rhf"
			},
			{
				"type": "occ",
				"energy": -0.25653,
				"method": "rhf"
			},
			{
				"type": "occ",
				"energy": -0.24557,
				"method": "rhf"
			},
			{
				"type": "unocc",
				"energy": -0.06503,
				"method": "rhf"
			},
			{
				"type": "unocc",
				"energy": -0.022,
				"method": "rhf"
			},
			{
				"type": "unocc",
				"energy": -0.01324,
				"method": "rhf"
			},
			{
				"type": "unocc",
				"energy": -0.00939,
				"method": "rhf"
			},
			{
				"type": "unocc",
				"energy": 0.05504,
				"method": "rhf"
			}
		],
		"cosmo_sigma_profile": { 
			"-0.025": 0.0,
			"-0.024": 0.0,
			"-0.023": 0.0,
			"-0.022": 0.0,
			"-0.021": 0.0,
			"-0.02": 0.0,
			"-0.019": 0.0,
			"-0.018": 0.0,
			"-0.017": 0.0,
			"-0.016": 0.0,
			"-0.015": 0.0,
			"-0.014": 0.0,
			"-0.013": 0.0,
			"-0.012": 0.0,
			"-0.011": 0.0,
			"-0.01": 0.0,
			"-0.009": 0.0,
			"-0.008": 1.68371532181,
			"-0.007": 5.71426058137,
			"-0.006": 15.2374721927,
			"-0.005": 18.4618391947,
			"-0.004": 17.9056575069,
			"-0.003": 16.785637329,
			"-0.002": 15.441409995,
			"-0.001": 16.6748324729,
			"0.0": 19.0123438269,
			"0.001": 19.1055076568,
			"0.002": 23.2915809855,
			"0.003": 21.0809905431,
			"0.004": 22.945544889,
			"0.005": 4.34691860025,
			"0.006": 2.08674409865,
			"0.007": 1.41267068223,
			"0.008": 1.94053534779,
			"0.009": 1.92711768085,
			"0.01": 1.86608592447,
			"0.011": 2.64792914798,
			"0.012": 4.27892597282,
			"0.013": 0.746439206274,
			"0.014": 0.0,
			"0.015": 0.0,
			"0.016": 0.0,
			"0.017": 0.0,
			"0.018": 0.0,
			"0.019": 0.0,
			"0.02": 0.0,
			"0.021": 0.0,
			"0.022": 0.0,
			"0.023": 0.0,
			"0.024": 0.0,
			"0.025": 0.0
		}
	}
}
