{
	 "smiles": "OCCN1CCNC1=S", 
	 "Tm": 410.15, 
	 "num_atms": 19, 
	 "gaussian": { 
		 "optdone": 1, 
		 "sigma_profile": "yes", 
		 "theory": "DFT", 
		 "functional": "B3LYP", 
		 "basiset": "6-31G**", 
		 "properties": { 
			 "R2extent": 1630.1464, 
			 "electric_dipole_moment_norm": 6.81629549976, 
			 "electric_quadrupole_moment_norm": 11.0188642772, 
			 "total_energy": -779.475212296, 
			 "HOMO_LUMO_gap": 0.20778, 
			 "cosmo_polarized_energy": -17.91, 
			 "cosmo_cavitation_energy": 22.66, 
			 "cosmo_dispersion_energy": -17.53, 
			 "cosmo_repulsion_energy": 1.41, 
			 "cosmo_total_nonelectrostatic_energy": 6.54, 
			 "SMD_solvation_energy": 1.41 
		},
		"coords": [
			{
				"x": 3.0704242561,
				"y": 0.1846753833,
				"z": 0.320221146,
				"element": "O" 
			},
			{
				"x": 2.0993845992,
				"y": -0.6064206985,
				"z": 0.9614730596,
				"element": "C" 
			},
			{
				"x": 0.9681367333,
				"y": -1.0866549484,
				"z": 0.040653762,
				"element": "C" 
			},
			{
				"x": -0.087927046,
				"y": -0.0958622635,
				"z": -0.1738647867,
				"element": "N" 
			},
			{
				"x": -1.4178797928,
				"y": -0.2624598807,
				"z": 0.4218874051,
				"element": "C" 
			},
			{
				"x": -2.149742616,
				"y": 1.0061294143,
				"z": -0.0511545343,
				"element": "C" 
			},
			{
				"x": -1.3808951292,
				"y": 1.3378104201,
				"z": -1.2486726879,
				"element": "N" 
			},
			{
				"x": -0.116718871,
				"y": 0.8129076754,
				"z": -1.1871284897,
				"element": "C" 
			},
			{
				"x": 1.1472674253,
				"y": 1.2437472015,
				"z": -2.2055901601,
				"element": "S" 
			},
			{
				"x": 2.6382139985,
				"y": 0.7068819838,
				"z": -0.3798012081,
				"element": "H" 
			},
			{
				"x": 1.645857043,
				"y": -0.0869627194,
				"z": 1.8251156753,
				"element": "H" 
			},
			{
				"x": 2.6165092363,
				"y": -1.4907961035,
				"z": 1.356752459,
				"element": "H" 
			},
			{
				"x": 1.390052152,
				"y": -1.3726173359,
				"z": -0.9285624949,
				"element": "H" 
			},
			{
				"x": 0.4879063309,
				"y": -1.9687010402,
				"z": 0.4789858747,
				"element": "H" 
			},
			{
				"x": -1.8970405142,
				"y": -1.1746353133,
				"z": 0.037173092,
				"element": "H" 
			},
			{
				"x": -1.3612453105,
				"y": -0.3347640465,
				"z": 1.5115837422,
				"element": "H" 
			},
			{
				"x": -2.0873435712,
				"y": 1.8042364371,
				"z": 0.7020373585,
				"element": "H" 
			},
			{
				"x": -3.2026679309,
				"y": 0.8229127301,
				"z": -0.2801203419,
				"element": "H" 
			},
			{
				"x": -1.4924909928,
				"y": 2.2210731043,
				"z": -1.7240888705,
				"element": "H" 
			}
		],
		 "valence_orbital": [ 
			{
				"type": "occ",
				"energy": -0.32019,
				"method": "rhf"
			},
			{
				"type": "occ",
				"energy": -0.25956,
				"method": "rhf"
			},
			{
				"type": "occ",
				"energy": -0.24832,
				"method": "rhf"
			},
			{
				"type": "occ",
				"energy": -0.22189,
				"method": "rhf"
			},
			{
				"type": "occ",
				"energy": -0.21531,
				"method": "rhf"
			},
			{
				"type": "unocc",
				"energy": -0.00753,
				"method": "rhf"
			},
			{
				"type": "unocc",
				"energy": 0.05998,
				"method": "rhf"
			},
			{
				"type": "unocc",
				"energy": 0.08717,
				"method": "rhf"
			},
			{
				"type": "unocc",
				"energy": 0.09114,
				"method": "rhf"
			},
			{
				"type": "unocc",
				"energy": 0.09929,
				"method": "rhf"
			}
		],
		"cosmo_sigma_profile": { 
			"-0.025": 0.0,
			"-0.024": 0.0,
			"-0.023": 0.0,
			"-0.022": 0.0,
			"-0.021": 0.0,
			"-0.02": 0.0,
			"-0.019": 0.0,
			"-0.018": 0.0,
			"-0.017": 0.0,
			"-0.016": 0.0,
			"-0.015": 0.30706495089,
			"-0.014": 1.30308773245,
			"-0.013": 0.69994215654,
			"-0.012": 1.09981225524,
			"-0.011": 1.06955559427,
			"-0.01": 0.994652506057,
			"-0.009": 1.06469375565,
			"-0.008": 0.686738341913,
			"-0.007": 5.55994550279,
			"-0.006": 18.2489963948,
			"-0.005": 23.0453239618,
			"-0.004": 18.8723123788,
			"-0.003": 14.6922047672,
			"-0.002": 9.28290048502,
			"-0.001": 7.6750816774,
			"0.0": 6.52760628403,
			"0.001": 5.48447635221,
			"0.002": 3.54731527042,
			"0.003": 5.32527227277,
			"0.004": 6.41011380218,
			"0.005": 6.45625068083,
			"0.006": 5.14542366087,
			"0.007": 4.34231191737,
			"0.008": 6.47036677131,
			"0.009": 4.61181221289,
			"0.01": 6.49550128873,
			"0.011": 5.41043077789,
			"0.012": 3.19077453484,
			"0.013": 1.81415982302,
			"0.014": 1.95258094629,
			"0.015": 2.21614962071,
			"0.016": 0.0473394418645,
			"0.017": 0.0,
			"0.018": 0.0,
			"0.019": 0.0,
			"0.02": 0.0,
			"0.021": 0.0,
			"0.022": 0.0,
			"0.023": 0.0,
			"0.024": 0.0,
			"0.025": 0.0
		}
	}
}
