{
	 "smiles": "CCC1C2CC3C4N(C)C5=CC=CC=C5C44CC(C2C4O)N3C1O", 
	 "Tm": 432.15, 
	 "num_atms": 50, 
	 "gaussian": { 
		 "optdone": 1, 
		 "sigma_profile": "yes", 
		 "theory": "DFT", 
		 "functional": "B3LYP", 
		 "basiset": "6-31G**", 
		 "properties": { 
			 "R2extent": 7678.9287, 
			 "electric_dipole_moment_norm": 3.18214009748, 
			 "electric_quadrupole_moment_norm": 13.9004153528, 
			 "total_energy": -1037.71869004, 
			 "HOMO_LUMO_gap": 0.19689, 
			 "cosmo_polarized_energy": -17.52, 
			 "cosmo_cavitation_energy": 44.29, 
			 "cosmo_dispersion_energy": -31.84, 
			 "cosmo_repulsion_energy": 2.33, 
			 "cosmo_total_nonelectrostatic_energy": 14.77, 
			 "SMD_solvation_energy": 2.59 
		},
		"coords": [
			{
				"x": 2.593954562,
				"y": 0.9518539556,
				"z": 4.9364680379,
				"element": "C" 
			},
			{
				"x": 1.6986264324,
				"y": 1.3587132626,
				"z": 3.7591753015,
				"element": "C" 
			},
			{
				"x": 2.1499942364,
				"y": 0.75967674,
				"z": 2.4160160817,
				"element": "C" 
			},
			{
				"x": 1.4810075337,
				"y": 1.386103682,
				"z": 1.164942086,
				"element": "C" 
			},
			{
				"x": 2.0825451104,
				"y": 0.6436878749,
				"z": -0.0428128001,
				"element": "C" 
			},
			{
				"x": 1.4344013655,
				"y": -0.7776810673,
				"z": -0.0800517415,
				"element": "C" 
			},
			{
				"x": 0.3059590106,
				"y": -0.7610679954,
				"z": -1.1335197283,
				"element": "C" 
			},
			{
				"x": -0.1686572351,
				"y": -2.030740514,
				"z": -1.7198523571,
				"element": "N" 
			},
			{
				"x": 0.7882628816,
				"y": -2.8414576193,
				"z": -2.4491182946,
				"element": "C" 
			},
			{
				"x": -1.3897395446,
				"y": -1.6993460807,
				"z": -2.3418584405,
				"element": "C" 
			},
			{
				"x": -2.0510472748,
				"y": -2.3627754525,
				"z": -3.375649672,
				"element": "C" 
			},
			{
				"x": -3.2681736065,
				"y": -1.8365635422,
				"z": -3.8300645664,
				"element": "C" 
			},
			{
				"x": -3.8096522049,
				"y": -0.6758756328,
				"z": -3.2766700265,
				"element": "C" 
			},
			{
				"x": -3.1415337769,
				"y": -0.0147786809,
				"z": -2.2341761924,
				"element": "C" 
			},
			{
				"x": -1.9340263135,
				"y": -0.5227418044,
				"z": -1.7789701445,
				"element": "C" 
			},
			{
				"x": -1.0247715645,
				"y": -0.1279963074,
				"z": -0.6406670832,
				"element": "C" 
			},
			{
				"x": -1.4062677342,
				"y": -0.8336284104,
				"z": 0.6828251239,
				"element": "C" 
			},
			{
				"x": -0.280425904,
				"y": -0.3574385497,
				"z": 1.5876653587,
				"element": "C" 
			},
			{
				"x": -0.0543607111,
				"y": 1.1501202431,
				"z": 1.204151287,
				"element": "C" 
			},
			{
				"x": -0.8075496784,
				"y": 1.3282510188,
				"z": -0.1630693562,
				"element": "C" 
			},
			{
				"x": -2.0270251624,
				"y": 2.0541183974,
				"z": -0.0127811651,
				"element": "O" 
			},
			{
				"x": 0.9395931326,
				"y": -1.1344125932,
				"z": 1.2814742606,
				"element": "N" 
			},
			{
				"x": 1.9290809081,
				"y": -0.7974222979,
				"z": 2.3105265678,
				"element": "C" 
			},
			{
				"x": 3.1150861192,
				"y": -1.5025143429,
				"z": 1.9862143858,
				"element": "O" 
			},
			{
				"x": 2.2436560741,
				"y": 1.3954919404,
				"z": 5.873787566,
				"element": "H" 
			},
			{
				"x": 2.6118433233,
				"y": -0.134878676,
				"z": 5.079410559,
				"element": "H" 
			},
			{
				"x": 3.6269997555,
				"y": 1.2837436177,
				"z": 4.7791501567,
				"element": "H" 
			},
			{
				"x": 1.694693305,
				"y": 2.4533337089,
				"z": 3.6743813804,
				"element": "H" 
			},
			{
				"x": 0.6628597864,
				"y": 1.0695131602,
				"z": 3.97655989,
				"element": "H" 
			},
			{
				"x": 3.2296114178,
				"y": 0.950459657,
				"z": 2.3218861507,
				"element": "H" 
			},
			{
				"x": 1.7027773589,
				"y": 2.4583960218,
				"z": 1.1177291341,
				"element": "H" 
			},
			{
				"x": 1.9125878111,
				"y": 1.1841537664,
				"z": -0.9784267399,
				"element": "H" 
			},
			{
				"x": 3.1670650671,
				"y": 0.5600964703,
				"z": 0.0773453287,
				"element": "H" 
			},
			{
				"x": 2.1887375725,
				"y": -1.5170185478,
				"z": -0.3545863729,
				"element": "H" 
			},
			{
				"x": 0.6818506766,
				"y": -0.138058586,
				"z": -1.9670958583,
				"element": "H" 
			},
			{
				"x": 0.3256243935,
				"y": -3.7894203816,
				"z": -2.7362316227,
				"element": "H" 
			},
			{
				"x": 1.1641846416,
				"y": -2.3485321723,
				"z": -3.3630156762,
				"element": "H" 
			},
			{
				"x": 1.6379579553,
				"y": -3.0781353436,
				"z": -1.8048660615,
				"element": "H" 
			},
			{
				"x": -1.6381458621,
				"y": -3.2571249729,
				"z": -3.8309749893,
				"element": "H" 
			},
			{
				"x": -3.7901088878,
				"y": -2.3405349335,
				"z": -4.6391681945,
				"element": "H" 
			},
			{
				"x": -4.7471859667,
				"y": -0.2800639794,
				"z": -3.6555188904,
				"element": "H" 
			},
			{
				"x": -3.5423951084,
				"y": 0.8953932884,
				"z": -1.800363349,
				"element": "H" 
			},
			{
				"x": -2.3885726564,
				"y": -0.4919278204,
				"z": 1.0341274674,
				"element": "H" 
			},
			{
				"x": -1.4355061297,
				"y": -1.9203158942,
				"z": 0.5934285244,
				"element": "H" 
			},
			{
				"x": -0.5042407626,
				"y": -0.4954598814,
				"z": 2.6502992089,
				"element": "H" 
			},
			{
				"x": -0.5162636239,
				"y": 1.8302210272,
				"z": 1.9273797145,
				"element": "H" 
			},
			{
				"x": -0.2358728466,
				"y": 1.9159334013,
				"z": -0.8864586108,
				"element": "H" 
			},
			{
				"x": -2.5712950629,
				"y": 1.5951331445,
				"z": 0.6405286995,
				"element": "H" 
			},
			{
				"x": 1.5147514047,
				"y": -1.1719381545,
				"z": 3.2611177781,
				"element": "H" 
			},
			{
				"x": 3.8193057818,
				"y": -1.168944144,
				"z": 2.5553778845,
				"element": "H" 
			}
		],
		 "valence_orbital": [ 
			{
				"type": "occ",
				"energy": -0.27093,
				"method": "rhf"
			},
			{
				"type": "occ",
				"energy": -0.25977,
				"method": "rhf"
			},
			{
				"type": "occ",
				"energy": -0.2316,
				"method": "rhf"
			},
			{
				"type": "occ",
				"energy": -0.20726,
				"method": "rhf"
			},
			{
				"type": "occ",
				"energy": -0.18596,
				"method": "rhf"
			},
			{
				"type": "unocc",
				"energy": 0.01093,
				"method": "rhf"
			},
			{
				"type": "unocc",
				"energy": 0.02319,
				"method": "rhf"
			},
			{
				"type": "unocc",
				"energy": 0.06355,
				"method": "rhf"
			},
			{
				"type": "unocc",
				"energy": 0.06809,
				"method": "rhf"
			},
			{
				"type": "unocc",
				"energy": 0.08089,
				"method": "rhf"
			}
		],
		"cosmo_sigma_profile": { 
			"-0.025": 0.0,
			"-0.024": 0.0,
			"-0.023": 0.0,
			"-0.022": 0.0,
			"-0.021": 0.0,
			"-0.02": 0.0,
			"-0.019": 0.0,
			"-0.018": 0.0,
			"-0.017": 0.0,
			"-0.016": 0.0,
			"-0.015": 0.566519456429,
			"-0.014": 1.4948125862,
			"-0.013": 2.00089498967,
			"-0.012": 2.15684803118,
			"-0.011": 0.754615286337,
			"-0.01": 2.49680705804,
			"-0.009": 2.42140870946,
			"-0.008": 2.70474972447,
			"-0.007": 2.95988319718,
			"-0.006": 5.19447236047,
			"-0.005": 16.1057678733,
			"-0.004": 24.1508870932,
			"-0.003": 40.8678278623,
			"-0.002": 47.2221758487,
			"-0.001": 43.1041090735,
			"0.0": 30.6055556285,
			"0.001": 22.886568745,
			"0.002": 11.3183536721,
			"0.003": 11.3260928096,
			"0.004": 10.6084021002,
			"0.005": 10.6755453824,
			"0.006": 11.2973176164,
			"0.007": 11.1000640338,
			"0.008": 5.86347991663,
			"0.009": 4.6078452519,
			"0.01": 2.39653714323,
			"0.011": 3.24636610292,
			"0.012": 3.77078294761,
			"0.013": 3.13532376599,
			"0.014": 3.5397510149,
			"0.015": 1.69229839316,
			"0.016": 0.428678641799,
			"0.017": 0.476791580498,
			"0.018": 0.060937168921,
			"0.019": 0.0,
			"0.02": 0.0,
			"0.021": 0.0,
			"0.022": 0.0,
			"0.023": 0.0,
			"0.024": 0.0,
			"0.025": 0.0
		}
	}
}
