{
	 "smiles": "OCC(=O)C1=C(F)C=C(F)C=C1", 
	 "Tm": 369.15, 
	 "num_atms": 18, 
	 "gaussian": { 
		 "optdone": 1, 
		 "sigma_profile": "yes", 
		 "theory": "DFT", 
		 "functional": "B3LYP", 
		 "basiset": "6-31G**", 
		 "properties": { 
			 "R2extent": 2767.6163, 
			 "electric_dipole_moment_norm": 2.65588754468, 
			 "electric_quadrupole_moment_norm": 7.74438485743, 
			 "total_energy": -658.564405948, 
			 "HOMO_LUMO_gap": 0.18096, 
			 "cosmo_polarized_energy": -9.64, 
			 "cosmo_cavitation_energy": 23.27, 
			 "cosmo_dispersion_energy": -17.06, 
			 "cosmo_repulsion_energy": 1.31, 
			 "cosmo_total_nonelectrostatic_energy": 7.52, 
			 "SMD_solvation_energy": 5.42 
		},
		"coords": [
			{
				"x": 1.145928998,
				"y": 0.060964895,
				"z": -2.3793964155,
				"element": "O" 
			},
			{
				"x": 1.8076190835,
				"y": 0.3607766969,
				"z": -1.165844448,
				"element": "C" 
			},
			{
				"x": 1.1525213195,
				"y": 1.4968546392,
				"z": -0.3711713326,
				"element": "C" 
			},
			{
				"x": 1.8344807896,
				"y": 2.4240758405,
				"z": 0.0352019218,
				"element": "O" 
			},
			{
				"x": -0.327658873,
				"y": 1.4979414831,
				"z": -0.1043051914,
				"element": "C" 
			},
			{
				"x": -1.1828559306,
				"y": 0.3947885874,
				"z": -0.1913807974,
				"element": "C" 
			},
			{
				"x": -0.6927634948,
				"y": -0.8239355155,
				"z": -0.5493443912,
				"element": "F" 
			},
			{
				"x": -2.5389900705,
				"y": 0.4542655559,
				"z": 0.0962401024,
				"element": "C" 
			},
			{
				"x": -3.0577000625,
				"y": 1.6830725762,
				"z": 0.487493865,
				"element": "C" 
			},
			{
				"x": -4.3678106724,
				"y": 1.7666883498,
				"z": 0.7659576157,
				"element": "F" 
			},
			{
				"x": -2.2619884867,
				"y": 2.8211565873,
				"z": 0.6022108181,
				"element": "C" 
			},
			{
				"x": -0.9088694685,
				"y": 2.7100603151,
				"z": 0.3117851433,
				"element": "C" 
			},
			{
				"x": 0.4225533452,
				"y": -0.543881332,
				"z": -2.1755769362,
				"element": "H" 
			},
			{
				"x": 1.901608766,
				"y": -0.5194057887,
				"z": -0.5108977583,
				"element": "H" 
			},
			{
				"x": 2.814308594,
				"y": 0.7082353405,
				"z": -1.409163717,
				"element": "H" 
			},
			{
				"x": -3.1647694508,
				"y": -0.4266317579,
				"z": 0.0239994782,
				"element": "H" 
			},
			{
				"x": -2.7066997373,
				"y": 3.7591770433,
				"z": 0.9139468837,
				"element": "H" 
			},
			{
				"x": -0.2492146486,
				"y": 3.5664964838,
				"z": 0.3999451592,
				"element": "H" 
			}
		],
		 "valence_orbital": [ 
			{
				"type": "occ",
				"energy": -0.33523,
				"method": "rhf"
			},
			{
				"type": "occ",
				"energy": -0.30607,
				"method": "rhf"
			},
			{
				"type": "occ",
				"energy": -0.28064,
				"method": "rhf"
			},
			{
				"type": "occ",
				"energy": -0.26956,
				"method": "rhf"
			},
			{
				"type": "occ",
				"energy": -0.24851,
				"method": "rhf"
			},
			{
				"type": "unocc",
				"energy": -0.06755,
				"method": "rhf"
			},
			{
				"type": "unocc",
				"energy": -0.02956,
				"method": "rhf"
			},
			{
				"type": "unocc",
				"energy": 0.02102,
				"method": "rhf"
			},
			{
				"type": "unocc",
				"energy": 0.06263,
				"method": "rhf"
			},
			{
				"type": "unocc",
				"energy": 0.09565,
				"method": "rhf"
			}
		],
		"cosmo_sigma_profile": { 
			"-0.025": 0.0,
			"-0.024": 0.0,
			"-0.023": 0.0,
			"-0.022": 0.0,
			"-0.021": 0.0,
			"-0.02": 0.0,
			"-0.019": 0.0,
			"-0.018": 0.0,
			"-0.017": 0.0,
			"-0.016": 0.0,
			"-0.015": 0.0,
			"-0.014": 0.0,
			"-0.013": 0.0,
			"-0.012": 0.340593225058,
			"-0.011": 0.994838108296,
			"-0.01": 1.1569637455,
			"-0.009": 2.59975939979,
			"-0.008": 4.90143460357,
			"-0.007": 7.98075453155,
			"-0.006": 10.8370615681,
			"-0.005": 9.64707514585,
			"-0.004": 9.26655576708,
			"-0.003": 10.4646190563,
			"-0.002": 13.8914884292,
			"-0.001": 20.2942343252,
			"0.0": 18.8922595642,
			"0.001": 14.7481199938,
			"0.002": 11.673514059,
			"0.003": 14.1978656717,
			"0.004": 6.25504193987,
			"0.005": 3.06519233003,
			"0.006": 2.45837380388,
			"0.007": 2.52722390146,
			"0.008": 2.20196101989,
			"0.009": 2.70791217479,
			"0.01": 4.37181310696,
			"0.011": 5.23072056695,
			"0.012": 3.14175810963,
			"0.013": 2.21028246049,
			"0.014": 0.700896331966,
			"0.015": 0.0,
			"0.016": 0.0,
			"0.017": 0.0,
			"0.018": 0.0,
			"0.019": 0.0,
			"0.02": 0.0,
			"0.021": 0.0,
			"0.022": 0.0,
			"0.023": 0.0,
			"0.024": 0.0,
			"0.025": 0.0
		}
	}
}
