{
	 "smiles": "CC1CC(CC(C)O1)C(O)=O", 
	 "Tm": 383.15, 
	 "num_atms": 25, 
	 "gaussian": { 
		 "optdone": 1, 
		 "sigma_profile": "yes", 
		 "theory": "DFT", 
		 "functional": "B3LYP", 
		 "basiset": "6-31G**", 
		 "properties": { 
			 "R2extent": 2846.754, 
			 "electric_dipole_moment_norm": 1.82227512742, 
			 "electric_quadrupole_moment_norm": 4.73900953892, 
			 "total_energy": -538.983378415, 
			 "HOMO_LUMO_gap": 0.2453, 
			 "cosmo_polarized_energy": -9.83, 
			 "cosmo_cavitation_energy": 25.71, 
			 "cosmo_dispersion_energy": -18.79, 
			 "cosmo_repulsion_energy": 1.52, 
			 "cosmo_total_nonelectrostatic_energy": 8.44, 
			 "SMD_solvation_energy": 4.99 
		},
		"coords": [
			{
				"x": 0.034133532,
				"y": -0.1172671229,
				"z": -1.0179665255,
				"element": "C" 
			},
			{
				"x": -0.0396458468,
				"y": -1.6458146702,
				"z": -1.1384094859,
				"element": "C" 
			},
			{
				"x": 0.6070906642,
				"y": -2.4162336509,
				"z": 0.0278858099,
				"element": "C" 
			},
			{
				"x": -0.2746108548,
				"y": -2.4461227886,
				"z": 1.3002292926,
				"element": "C" 
			},
			{
				"x": -1.7137352177,
				"y": -2.8447172723,
				"z": 0.9349828239,
				"element": "C" 
			},
			{
				"x": -2.2565287002,
				"y": -2.0227211711,
				"z": -0.2415315309,
				"element": "C" 
			},
			{
				"x": -3.6127916767,
				"y": -2.5186148252,
				"z": -0.724483487,
				"element": "C" 
			},
			{
				"x": -1.3743197714,
				"y": -2.1071706545,
				"z": -1.3685650291,
				"element": "O" 
			},
			{
				"x": -0.22628969,
				"y": -1.1538366831,
				"z": 2.1018848872,
				"element": "C" 
			},
			{
				"x": 1.0458479135,
				"y": -0.8146672539,
				"z": 2.4308944546,
				"element": "O" 
			},
			{
				"x": -1.1777965671,
				"y": -0.4908569379,
				"z": 2.4587937196,
				"element": "O" 
			},
			{
				"x": -0.437653769,
				"y": 0.3397815518,
				"z": -1.8926822277,
				"element": "H" 
			},
			{
				"x": -0.470194153,
				"y": 0.2674365873,
				"z": -0.1278018464,
				"element": "H" 
			},
			{
				"x": 1.0785201471,
				"y": 0.210001589,
				"z": -0.9793265981,
				"element": "H" 
			},
			{
				"x": 0.4942982651,
				"y": -1.9271185578,
				"z": -2.0540526667,
				"element": "H" 
			},
			{
				"x": 1.597343341,
				"y": -2.0103535291,
				"z": 0.2543116652,
				"element": "H" 
			},
			{
				"x": 0.7447319478,
				"y": -3.4545165148,
				"z": -0.2940159096,
				"element": "H" 
			},
			{
				"x": 0.1543506893,
				"y": -3.2002699024,
				"z": 1.9743755044,
				"element": "H" 
			},
			{
				"x": -1.7178026561,
				"y": -3.9039905803,
				"z": 0.6495283138,
				"element": "H" 
			},
			{
				"x": -2.3713772249,
				"y": -2.7263740165,
				"z": 1.8013467104,
				"element": "H" 
			},
			{
				"x": -2.3530852371,
				"y": -0.9760720483,
				"z": 0.0799640008,
				"element": "H" 
			},
			{
				"x": -3.5431382981,
				"y": -3.5602743949,
				"z": -1.0547857,
				"element": "H" 
			},
			{
				"x": -4.3550659971,
				"y": -2.4538829959,
				"z": 0.0772648994,
				"element": "H" 
			},
			{
				"x": -3.9579892322,
				"y": -1.9158221356,
				"z": -1.5690017131,
				"element": "H" 
			},
			{
				"x": 0.9784083922,
				"y": 0.0011779779,
				"z": 2.9549606383,
				"element": "H" 
			}
		],
		 "valence_orbital": [ 
			{
				"type": "occ",
				"energy": -0.32855,
				"method": "rhf"
			},
			{
				"type": "occ",
				"energy": -0.3174,
				"method": "rhf"
			},
			{
				"type": "occ",
				"energy": -0.2871,
				"method": "rhf"
			},
			{
				"type": "occ",
				"energy": -0.27562,
				"method": "rhf"
			},
			{
				"type": "occ",
				"energy": -0.24207,
				"method": "rhf"
			},
			{
				"type": "unocc",
				"energy": 0.00323,
				"method": "rhf"
			},
			{
				"type": "unocc",
				"energy": 0.07045,
				"method": "rhf"
			},
			{
				"type": "unocc",
				"energy": 0.0874,
				"method": "rhf"
			},
			{
				"type": "unocc",
				"energy": 0.11093,
				"method": "rhf"
			},
			{
				"type": "unocc",
				"energy": 0.1203,
				"method": "rhf"
			}
		],
		"cosmo_sigma_profile": { 
			"-0.025": 0.0,
			"-0.024": 0.0,
			"-0.023": 0.0,
			"-0.022": 0.0,
			"-0.021": 0.0,
			"-0.02": 0.0,
			"-0.019": 0.0,
			"-0.018": 0.482467343761,
			"-0.017": 1.00570464092,
			"-0.016": 0.962985660071,
			"-0.015": 0.637527921567,
			"-0.014": 0.64852385202,
			"-0.013": 0.720002801337,
			"-0.012": 0.574557130586,
			"-0.011": 0.838006781284,
			"-0.01": 0.912190228115,
			"-0.009": 0.621977197192,
			"-0.008": 0.49365546459,
			"-0.007": 0.849121269561,
			"-0.006": 3.56125552968,
			"-0.005": 3.79980215092,
			"-0.004": 13.6989661108,
			"-0.003": 27.7758604221,
			"-0.002": 26.9503879074,
			"-0.001": 25.3759347407,
			"0.0": 22.1608582903,
			"0.001": 16.0029078513,
			"0.002": 7.15979059834,
			"0.003": 5.22696573879,
			"0.004": 3.72252111212,
			"0.005": 3.75561100122,
			"0.006": 3.97661227618,
			"0.007": 4.48765147635,
			"0.008": 3.95908262323,
			"0.009": 3.38388340906,
			"0.01": 3.40509132323,
			"0.011": 3.94391018444,
			"0.012": 5.19704588327,
			"0.013": 1.47817200508,
			"0.014": 0.971141260435,
			"0.015": 0.0,
			"0.016": 0.0,
			"0.017": 0.0,
			"0.018": 0.0,
			"0.019": 0.0,
			"0.02": 0.0,
			"0.021": 0.0,
			"0.022": 0.0,
			"0.023": 0.0,
			"0.024": 0.0,
			"0.025": 0.0
		}
	}
}
