{
	 "smiles": "CCC12CCC3C(CCC4=CC(=O)CCC34)C1C=CC2(O)C#C", 
	 "Tm": 471.15, 
	 "num_atms": 49, 
	 "gaussian": { 
		 "optdone": 1, 
		 "sigma_profile": "yes", 
		 "theory": "DFT", 
		 "functional": "B3LYP", 
		 "basiset": "6-31G**", 
		 "properties": { 
			 "R2extent": 7715.3102, 
			 "electric_dipole_moment_norm": 4.25386090276, 
			 "electric_quadrupole_moment_norm": 28.6553650814, 
			 "total_energy": -966.24196083, 
			 "HOMO_LUMO_gap": 0.18761, 
			 "cosmo_polarized_energy": -15.59, 
			 "cosmo_cavitation_energy": 44.76, 
			 "cosmo_dispersion_energy": -30.63, 
			 "cosmo_repulsion_energy": 2.3, 
			 "cosmo_total_nonelectrostatic_energy": 16.43, 
			 "SMD_solvation_energy": 8.1 
		},
		"coords": [
			{
				"x": 0.8616653048,
				"y": 0.3988034064,
				"z": -3.9310960977,
				"element": "C" 
			},
			{
				"x": 1.4281250575,
				"y": 1.5701711695,
				"z": -3.1156886154,
				"element": "C" 
			},
			{
				"x": 1.1463393861,
				"y": 1.5815638129,
				"z": -1.5781627962,
				"element": "C" 
			},
			{
				"x": -0.3735481252,
				"y": 1.7475043873,
				"z": -1.3534100532,
				"element": "C" 
			},
			{
				"x": -0.9180581128,
				"y": 1.1955819946,
				"z": -0.0332202061,
				"element": "C" 
			},
			{
				"x": -0.4782315619,
				"y": -0.2515169025,
				"z": 0.2328754556,
				"element": "C" 
			},
			{
				"x": 1.0678335012,
				"y": -0.3623433962,
				"z": 0.3108289671,
				"element": "C" 
			},
			{
				"x": 1.543255713,
				"y": 0.070266014,
				"z": 1.7147739875,
				"element": "C" 
			},
			{
				"x": 1.0476849952,
				"y": -0.9592407923,
				"z": 2.7729645261,
				"element": "C" 
			},
			{
				"x": -0.1971168229,
				"y": -1.6707145361,
				"z": 2.2996264983,
				"element": "C" 
			},
			{
				"x": -0.4087184831,
				"y": -2.9906743835,
				"z": 2.4735302321,
				"element": "C" 
			},
			{
				"x": -1.5608855773,
				"y": -3.7048045795,
				"z": 1.8924541438,
				"element": "C" 
			},
			{
				"x": -1.7687826614,
				"y": -4.8895266904,
				"z": 2.1183447159,
				"element": "O" 
			},
			{
				"x": -2.4304207407,
				"y": -2.9035139379,
				"z": 0.9287307716,
				"element": "C" 
			},
			{
				"x": -2.5326442395,
				"y": -1.4278973286,
				"z": 1.3344091853,
				"element": "C" 
			},
			{
				"x": -1.1539678246,
				"y": -0.7765354918,
				"z": 1.5480864376,
				"element": "C" 
			},
			{
				"x": 1.7747905713,
				"y": 0.2922284181,
				"z": -0.9293014021,
				"element": "C" 
			},
			{
				"x": 3.1925873343,
				"y": 0.7295988911,
				"z": -0.6371928574,
				"element": "C" 
			},
			{
				"x": 3.3413596627,
				"y": 2.0529717626,
				"z": -0.6557369602,
				"element": "C" 
			},
			{
				"x": 2.0412642316,
				"y": 2.7674165716,
				"z": -0.9765343553,
				"element": "C" 
			},
			{
				"x": 2.3214261105,
				"y": 3.8141267627,
				"z": -1.9163095218,
				"element": "O" 
			},
			{
				"x": 1.4978276104,
				"y": 3.4081097032,
				"z": 0.238139086,
				"element": "C" 
			},
			{
				"x": 1.0925165878,
				"y": 4.0212875488,
				"z": 1.1989478875,
				"element": "C" 
			},
			{
				"x": 1.0948166961,
				"y": 0.5519745763,
				"z": -4.9900089042,
				"element": "H" 
			},
			{
				"x": 1.2936538628,
				"y": -0.5663718602,
				"z": -3.6484607731,
				"element": "H" 
			},
			{
				"x": -0.2265811646,
				"y": 0.3088310031,
				"z": -3.8536178407,
				"element": "H" 
			},
			{
				"x": 2.5097007999,
				"y": 1.6151137835,
				"z": -3.2737999782,
				"element": "H" 
			},
			{
				"x": 1.0356648244,
				"y": 2.5036154973,
				"z": -3.5316420395,
				"element": "H" 
			},
			{
				"x": -0.9019470605,
				"y": 1.2408226102,
				"z": -2.168133532,
				"element": "H" 
			},
			{
				"x": -0.6371507159,
				"y": 2.80942165,
				"z": -1.4476950183,
				"element": "H" 
			},
			{
				"x": -0.5940875493,
				"y": 1.8267892723,
				"z": 0.7997129589,
				"element": "H" 
			},
			{
				"x": -2.0143146049,
				"y": 1.248717052,
				"z": -0.0499936207,
				"element": "H" 
			},
			{
				"x": -0.8191403126,
				"y": -0.8801447491,
				"z": -0.6031808219,
				"element": "H" 
			},
			{
				"x": 1.3156984903,
				"y": -1.4307101469,
				"z": 0.2395444684,
				"element": "H" 
			},
			{
				"x": 2.6335773961,
				"y": 0.1318553357,
				"z": 1.7577643566,
				"element": "H" 
			},
			{
				"x": 1.1803723006,
				"y": 1.0751615399,
				"z": 1.9503679321,
				"element": "H" 
			},
			{
				"x": 1.8280594505,
				"y": -1.6953862011,
				"z": 2.9931276872,
				"element": "H" 
			},
			{
				"x": 0.8325078603,
				"y": -0.4395998231,
				"z": 3.7173906431,
				"element": "H" 
			},
			{
				"x": 0.2971680996,
				"y": -3.6067674703,
				"z": 3.0266369695,
				"element": "H" 
			},
			{
				"x": -3.4117654385,
				"y": -3.382228434,
				"z": 0.8703053648,
				"element": "H" 
			},
			{
				"x": -1.9731483992,
				"y": -2.9967037022,
				"z": -0.0669961987,
				"element": "H" 
			},
			{
				"x": -3.0994156815,
				"y": -1.3623894142,
				"z": 2.2714597586,
				"element": "H" 
			},
			{
				"x": -3.1038443579,
				"y": -0.8639758055,
				"z": 0.5877047877,
				"element": "H" 
			},
			{
				"x": -1.3003036321,
				"y": 0.1091924529,
				"z": 2.1846429138,
				"element": "H" 
			},
			{
				"x": 1.7821824812,
				"y": -0.4997281007,
				"z": -1.6858532607,
				"element": "H" 
			},
			{
				"x": 3.985463947,
				"y": 0.0225007679,
				"z": -0.4091108446,
				"element": "H" 
			},
			{
				"x": 4.2442192136,
				"y": 2.6170304513,
				"z": -0.4499048977,
				"element": "H" 
			},
			{
				"x": 1.5749339881,
				"y": 4.4284301966,
				"z": -1.9047396887,
				"element": "H" 
			},
			{
				"x": 0.7385775893,
				"y": 4.5450871142,
				"z": 2.0569205489,
				"element": "H" 
			}
		],
		 "valence_orbital": [ 
			{
				"type": "occ",
				"energy": -0.27574,
				"method": "rhf"
			},
			{
				"type": "occ",
				"energy": -0.26509,
				"method": "rhf"
			},
			{
				"type": "occ",
				"energy": -0.25325,
				"method": "rhf"
			},
			{
				"type": "occ",
				"energy": -0.2494,
				"method": "rhf"
			},
			{
				"type": "occ",
				"energy": -0.22771,
				"method": "rhf"
			},
			{
				"type": "unocc",
				"energy": -0.0401,
				"method": "rhf"
			},
			{
				"type": "unocc",
				"energy": -0.00613,
				"method": "rhf"
			},
			{
				"type": "unocc",
				"energy": 0.03049,
				"method": "rhf"
			},
			{
				"type": "unocc",
				"energy": 0.05397,
				"method": "rhf"
			},
			{
				"type": "unocc",
				"energy": 0.06169,
				"method": "rhf"
			}
		],
		"cosmo_sigma_profile": { 
			"-0.025": 0.0,
			"-0.024": 0.0,
			"-0.023": 0.0,
			"-0.022": 0.0,
			"-0.021": 0.0,
			"-0.02": 0.0,
			"-0.019": 0.0,
			"-0.018": 0.0,
			"-0.017": 0.0,
			"-0.016": 0.0497622420602,
			"-0.015": 0.511050228159,
			"-0.014": 0.76556705344,
			"-0.013": 0.752079310534,
			"-0.012": 1.22308636776,
			"-0.011": 1.8062481118,
			"-0.01": 2.01095082767,
			"-0.009": 1.41034097252,
			"-0.008": 2.63338428577,
			"-0.007": 2.4351800907,
			"-0.006": 4.24924610541,
			"-0.005": 9.38758842634,
			"-0.004": 25.1420833227,
			"-0.003": 42.364981767,
			"-0.002": 50.1991075541,
			"-0.001": 46.0515302594,
			"0.0": 37.2872006875,
			"0.001": 29.9983738946,
			"0.002": 17.8302223863,
			"0.003": 12.3515685294,
			"0.004": 11.3158316311,
			"0.005": 10.2215083543,
			"0.006": 6.78714611492,
			"0.007": 4.96153242115,
			"0.008": 2.98368822059,
			"0.009": 2.23097887318,
			"0.01": 2.77042868944,
			"0.011": 3.74553933441,
			"0.012": 4.11663559817,
			"0.013": 6.57074966863,
			"0.014": 3.62246500492,
			"0.015": 0.661975037088,
			"0.016": 0.0,
			"0.017": 0.0,
			"0.018": 0.0,
			"0.019": 0.0,
			"0.02": 0.0,
			"0.021": 0.0,
			"0.022": 0.0,
			"0.023": 0.0,
			"0.024": 0.0,
			"0.025": 0.0
		}
	}
}
