{
	 "smiles": "CCC1(O)CCC2C3CCC4=CCCCC4C3CCC12C", 
	 "Tm": 350.15, 
	 "num_atms": 53, 
	 "gaussian": { 
		 "optdone": 1, 
		 "sigma_profile": "yes", 
		 "theory": "DFT", 
		 "functional": "B3LYP", 
		 "basiset": "6-31G**", 
		 "properties": { 
			 "R2extent": 7138.3002, 
			 "electric_dipole_moment_norm": 1.95176509345, 
			 "electric_quadrupole_moment_norm": 3.80519126326, 
			 "total_energy": -856.643669488, 
			 "HOMO_LUMO_gap": 0.24803, 
			 "cosmo_polarized_energy": -5.27, 
			 "cosmo_cavitation_energy": 44.47, 
			 "cosmo_dispersion_energy": -31.86, 
			 "cosmo_repulsion_energy": 2.38, 
			 "cosmo_total_nonelectrostatic_energy": 14.99, 
			 "SMD_solvation_energy": 5.67 
		},
		"coords": [
			{
				"x": -0.3663379095,
				"y": -5.1234524658,
				"z": 0.1307827917,
				"element": "C" 
			},
			{
				"x": 0.3481860687,
				"y": -3.9338868782,
				"z": 0.7864521358,
				"element": "C" 
			},
			{
				"x": 0.2975580653,
				"y": -2.6285839128,
				"z": -0.0316248525,
				"element": "C" 
			},
			{
				"x": -1.0761544477,
				"y": -2.3201607084,
				"z": -0.3398111546,
				"element": "O" 
			},
			{
				"x": 1.0954268077,
				"y": -2.6661393442,
				"z": -1.3507126804,
				"element": "C" 
			},
			{
				"x": 1.1229159103,
				"y": -1.1967976709,
				"z": -1.7850204186,
				"element": "C" 
			},
			{
				"x": 1.3232752635,
				"y": -0.3950230271,
				"z": -0.4721677781,
				"element": "C" 
			},
			{
				"x": 0.6385867636,
				"y": 0.9936795369,
				"z": -0.4995325142,
				"element": "C" 
			},
			{
				"x": 1.3465781635,
				"y": 2.0703249092,
				"z": 0.3898869877,
				"element": "C" 
			},
			{
				"x": 0.4222633958,
				"y": 2.8292992688,
				"z": 1.3631960949,
				"element": "C" 
			},
			{
				"x": -0.9178942516,
				"y": 3.2314958607,
				"z": 0.7749258778,
				"element": "C" 
			},
			{
				"x": -1.611863225,
				"y": 4.2774930923,
				"z": 1.2433891152,
				"element": "C" 
			},
			{
				"x": -3.001956684,
				"y": 4.6571725424,
				"z": 0.7957514934,
				"element": "C" 
			},
			{
				"x": -3.4740990253,
				"y": 3.8591829509,
				"z": -0.4320162733,
				"element": "C" 
			},
			{
				"x": -3.0071104572,
				"y": 2.3989338479,
				"z": -0.3640766093,
				"element": "C" 
			},
			{
				"x": -1.4728721125,
				"y": 2.3334963089,
				"z": -0.3248907537,
				"element": "C" 
			},
			{
				"x": -0.8847452526,
				"y": 0.9061151699,
				"z": -0.238563189,
				"element": "C" 
			},
			{
				"x": -1.2601732894,
				"y": 0.1515644065,
				"z": 1.0654454894,
				"element": "C" 
			},
			{
				"x": -0.1159636159,
				"y": -0.685057497,
				"z": 1.674920632,
				"element": "C" 
			},
			{
				"x": 0.8799704094,
				"y": -1.3601869015,
				"z": 0.7006658033,
				"element": "C" 
			},
			{
				"x": 2.1310113891,
				"y": -1.7460415525,
				"z": 1.5226828013,
				"element": "C" 
			},
			{
				"x": -1.4352795947,
				"y": -4.9255553027,
				"z": -0.0026312311,
				"element": "H" 
			},
			{
				"x": -0.2823007846,
				"y": -6.0155181068,
				"z": 0.7590473981,
				"element": "H" 
			},
			{
				"x": 0.0614150291,
				"y": -5.3725616675,
				"z": -0.8467973321,
				"element": "H" 
			},
			{
				"x": -0.1075868291,
				"y": -3.7472553562,
				"z": 1.7668066197,
				"element": "H" 
			},
			{
				"x": 1.3922735599,
				"y": -4.2069890394,
				"z": 0.9707037671,
				"element": "H" 
			},
			{
				"x": -1.3840484668,
				"y": -2.9735778104,
				"z": -0.9808480727,
				"element": "H" 
			},
			{
				"x": 0.6402494532,
				"y": -3.330924331,
				"z": -2.0951923855,
				"element": "H" 
			},
			{
				"x": 2.1097903454,
				"y": -3.0411673337,
				"z": -1.1673096654,
				"element": "H" 
			},
			{
				"x": 1.9055514461,
				"y": -0.981478385,
				"z": -2.5199111094,
				"element": "H" 
			},
			{
				"x": 0.1641637341,
				"y": -0.938251687,
				"z": -2.2453522345,
				"element": "H" 
			},
			{
				"x": 2.400555477,
				"y": -0.2167207602,
				"z": -0.3620691379,
				"element": "H" 
			},
			{
				"x": 0.7342973064,
				"y": 1.3474061692,
				"z": -1.5354605305,
				"element": "H" 
			},
			{
				"x": 1.835473923,
				"y": 2.7972888585,
				"z": -0.2697156803,
				"element": "H" 
			},
			{
				"x": 2.1543500016,
				"y": 1.6110258007,
				"z": 0.9716131864,
				"element": "H" 
			},
			{
				"x": 0.9414329403,
				"y": 3.7104633461,
				"z": 1.7578971788,
				"element": "H" 
			},
			{
				"x": 0.2332931061,
				"y": 2.1859113913,
				"z": 2.2331211018,
				"element": "H" 
			},
			{
				"x": -1.1760665687,
				"y": 4.8875818488,
				"z": 2.035958987,
				"element": "H" 
			},
			{
				"x": -3.0502482651,
				"y": 5.7346737473,
				"z": 0.585440291,
				"element": "H" 
			},
			{
				"x": -3.6967294242,
				"y": 4.4974238982,
				"z": 1.6355889461,
				"element": "H" 
			},
			{
				"x": -4.565399961,
				"y": 3.9157572452,
				"z": -0.5204041781,
				"element": "H" 
			},
			{
				"x": -3.0634297073,
				"y": 4.3168387204,
				"z": -1.3419778252,
				"element": "H" 
			},
			{
				"x": -3.4227812521,
				"y": 1.9194489443,
				"z": 0.5319299545,
				"element": "H" 
			},
			{
				"x": -3.3815394285,
				"y": 1.836324735,
				"z": -1.2287275522,
				"element": "H" 
			},
			{
				"x": -1.1165753911,
				"y": 2.7402762106,
				"z": -1.287752719,
				"element": "H" 
			},
			{
				"x": -1.3084233625,
				"y": 0.3313256586,
				"z": -1.0703224646,
				"element": "H" 
			},
			{
				"x": -1.5963776635,
				"y": 0.8639411172,
				"z": 1.8288256372,
				"element": "H" 
			},
			{
				"x": -2.1077462837,
				"y": -0.5019657468,
				"z": 0.855841287,
				"element": "H" 
			},
			{
				"x": 0.4832647455,
				"y": -0.0327387654,
				"z": 2.3233774954,
				"element": "H" 
			},
			{
				"x": -0.5402834489,
				"y": -1.4449328743,
				"z": 2.3429807884,
				"element": "H" 
			},
			{
				"x": 2.6150325466,
				"y": -0.8400533296,
				"z": 1.9015921042,
				"element": "H" 
			},
			{
				"x": 2.8740256608,
				"y": -2.2827434397,
				"z": 0.9227995897,
				"element": "H" 
			},
			{
				"x": 1.8805451908,
				"y": -2.3685816915,
				"z": 2.3877647878,
				"element": "H" 
			}
		],
		 "valence_orbital": [ 
			{
				"type": "occ",
				"energy": -0.27298,
				"method": "rhf"
			},
			{
				"type": "occ",
				"energy": -0.26961,
				"method": "rhf"
			},
			{
				"type": "occ",
				"energy": -0.26539,
				"method": "rhf"
			},
			{
				"type": "occ",
				"energy": -0.25869,
				"method": "rhf"
			},
			{
				"type": "occ",
				"energy": -0.21333,
				"method": "rhf"
			},
			{
				"type": "unocc",
				"energy": 0.0347,
				"method": "rhf"
			},
			{
				"type": "unocc",
				"energy": 0.06395,
				"method": "rhf"
			},
			{
				"type": "unocc",
				"energy": 0.08061,
				"method": "rhf"
			},
			{
				"type": "unocc",
				"energy": 0.09133,
				"method": "rhf"
			},
			{
				"type": "unocc",
				"energy": 0.10488,
				"method": "rhf"
			}
		],
		"cosmo_sigma_profile": { 
			"-0.025": 0.0,
			"-0.024": 0.0,
			"-0.023": 0.0,
			"-0.022": 0.0,
			"-0.021": 0.0,
			"-0.02": 0.0,
			"-0.019": 0.0,
			"-0.018": 0.0,
			"-0.017": 0.0,
			"-0.016": 0.0,
			"-0.015": 0.0,
			"-0.014": 0.0280343709377,
			"-0.013": 0.757334851721,
			"-0.012": 0.611852564533,
			"-0.011": 0.767331580513,
			"-0.01": 0.63647181793,
			"-0.009": 1.66404734573,
			"-0.008": 1.12342838101,
			"-0.007": 1.0979940101,
			"-0.006": 1.07879516417,
			"-0.005": 1.62803847429,
			"-0.004": 2.63117537299,
			"-0.003": 14.089911235,
			"-0.002": 49.6764504647,
			"-0.001": 66.5531942497,
			"0.0": 74.3846663465,
			"0.001": 61.5743547506,
			"0.002": 29.5849926162,
			"0.003": 7.45445068213,
			"0.004": 4.9511963981,
			"0.005": 4.93742366951,
			"0.006": 3.79087597975,
			"0.007": 3.26353685869,
			"0.008": 3.05956057737,
			"0.009": 1.65897019148,
			"0.01": 0.648352396826,
			"0.011": 0.818151469994,
			"0.012": 0.507110126276,
			"0.013": 0.166623177244,
			"0.014": 0.0,
			"0.015": 0.0,
			"0.016": 0.0,
			"0.017": 0.0,
			"0.018": 0.0,
			"0.019": 0.0,
			"0.02": 0.0,
			"0.021": 0.0,
			"0.022": 0.0,
			"0.023": 0.0,
			"0.024": 0.0,
			"0.025": 0.0
		}
	}
}
