{
	 "smiles": "CC1=C(COC2=C(C=CC=C2)C(O)=O)C(C)=NO1", 
	 "Tm": 446.15, 
	 "num_atms": 31, 
	 "gaussian": { 
		 "optdone": 1, 
		 "sigma_profile": "yes", 
		 "theory": "DFT", 
		 "functional": "B3LYP", 
		 "basiset": "6-31G**", 
		 "properties": { 
			 "R2extent": 3806.1888, 
			 "electric_dipole_moment_norm": 4.75842519853, 
			 "electric_quadrupole_moment_norm": 17.6289383421, 
			 "total_energy": -858.818234959, 
			 "HOMO_LUMO_gap": 0.20779, 
			 "cosmo_polarized_energy": -19.98, 
			 "cosmo_cavitation_energy": 34.66, 
			 "cosmo_dispersion_energy": -23.15, 
			 "cosmo_repulsion_energy": 1.75, 
			 "cosmo_total_nonelectrostatic_energy": 13.27, 
			 "SMD_solvation_energy": 6.68 
		},
		"coords": [
			{
				"x": -1.4772088124,
				"y": 2.7480868553,
				"z": -0.8914559772,
				"element": "C" 
			},
			{
				"x": -0.2329610653,
				"y": 1.9388343146,
				"z": -0.9950868104,
				"element": "C" 
			},
			{
				"x": 0.0047780636,
				"y": 0.6051510768,
				"z": -1.2115919781,
				"element": "C" 
			},
			{
				"x": -1.0005402832,
				"y": -0.4834216831,
				"z": -1.4082934341,
				"element": "C" 
			},
			{
				"x": -1.6632338351,
				"y": -0.891906474,
				"z": -0.184827298,
				"element": "O" 
			},
			{
				"x": -0.8622087137,
				"y": -1.4821175791,
				"z": 0.7585200746,
				"element": "C" 
			},
			{
				"x": -0.3750447273,
				"y": -0.7377826756,
				"z": 1.8506562125,
				"element": "C" 
			},
			{
				"x": 0.4418281771,
				"y": -1.372670453,
				"z": 2.7992313786,
				"element": "C" 
			},
			{
				"x": 0.7599842307,
				"y": -2.7244147201,
				"z": 2.6812711071,
				"element": "C" 
			},
			{
				"x": 0.2689593428,
				"y": -3.4562821174,
				"z": 1.5979787885,
				"element": "C" 
			},
			{
				"x": -0.531248768,
				"y": -2.8357866788,
				"z": 0.6385534607,
				"element": "C" 
			},
			{
				"x": -0.7599719121,
				"y": 0.7004718839,
				"z": 2.0440292013,
				"element": "C" 
			},
			{
				"x": 0.2693060031,
				"y": 1.5411007299,
				"z": 2.339058702,
				"element": "O" 
			},
			{
				"x": -1.8894285282,
				"y": 1.1232784291,
				"z": 1.9908937396,
				"element": "O" 
			},
			{
				"x": 1.4312653312,
				"y": 0.4951130344,
				"z": -1.1212445443,
				"element": "C" 
			},
			{
				"x": 2.2893542728,
				"y": -0.7223071559,
				"z": -1.2871510032,
				"element": "C" 
			},
			{
				"x": 1.9936387763,
				"y": 1.6577821826,
				"z": -0.8756905032,
				"element": "N" 
			},
			{
				"x": 0.9334739062,
				"y": 2.577424822,
				"z": -0.7983297535,
				"element": "O" 
			},
			{
				"x": -2.2719680921,
				"y": 2.3092615441,
				"z": -1.5001347157,
				"element": "H" 
			},
			{
				"x": -1.8249515445,
				"y": 2.7666463971,
				"z": 0.1477602252,
				"element": "H" 
			},
			{
				"x": -1.2949215623,
				"y": 3.7730480052,
				"z": -1.2232960881,
				"element": "H" 
			},
			{
				"x": -1.8215456386,
				"y": -0.1547472318,
				"z": -2.0499276327,
				"element": "H" 
			},
			{
				"x": -0.5310578016,
				"y": -1.3565686562,
				"z": -1.879146095,
				"element": "H" 
			},
			{
				"x": 0.8060570337,
				"y": -0.8033308214,
				"z": 3.6501988994,
				"element": "H" 
			},
			{
				"x": 1.3780965877,
				"y": -3.2045174172,
				"z": 3.433294102,
				"element": "H" 
			},
			{
				"x": 0.5051834824,
				"y": -4.5118734835,
				"z": 1.5006042133,
				"element": "H" 
			},
			{
				"x": -0.9243011482,
				"y": -3.3929970363,
				"z": -0.2062676933,
				"element": "H" 
			},
			{
				"x": 1.1161910209,
				"y": 1.1093348076,
				"z": 2.1531156512,
				"element": "H" 
			},
			{
				"x": 2.1741394356,
				"y": -1.1483028509,
				"z": -2.28987531,
				"element": "H" 
			},
			{
				"x": 2.0206954213,
				"y": -1.4999757049,
				"z": -0.5653512142,
				"element": "H" 
			},
			{
				"x": 3.338941347,
				"y": -0.4564313434,
				"z": -1.146095705,
				"element": "H" 
			}
		],
		 "valence_orbital": [ 
			{
				"type": "occ",
				"energy": -0.28883,
				"method": "rhf"
			},
			{
				"type": "occ",
				"energy": -0.27488,
				"method": "rhf"
			},
			{
				"type": "occ",
				"energy": -0.26792,
				"method": "rhf"
			},
			{
				"type": "occ",
				"energy": -0.25712,
				"method": "rhf"
			},
			{
				"type": "occ",
				"energy": -0.25049,
				"method": "rhf"
			},
			{
				"type": "unocc",
				"energy": -0.0427,
				"method": "rhf"
			},
			{
				"type": "unocc",
				"energy": -0.02294,
				"method": "rhf"
			},
			{
				"type": "unocc",
				"energy": -0.01048,
				"method": "rhf"
			},
			{
				"type": "unocc",
				"energy": 0.02908,
				"method": "rhf"
			},
			{
				"type": "unocc",
				"energy": 0.03656,
				"method": "rhf"
			}
		],
		"cosmo_sigma_profile": { 
			"-0.025": 0.0,
			"-0.024": 0.0,
			"-0.023": 0.0,
			"-0.022": 0.0,
			"-0.021": 0.0,
			"-0.02": 0.0,
			"-0.019": 0.0,
			"-0.018": 0.0,
			"-0.017": 0.22467241713,
			"-0.016": 0.823743656293,
			"-0.015": 0.339231813826,
			"-0.014": 0.527100353541,
			"-0.013": 0.410053406694,
			"-0.012": 0.880395726574,
			"-0.011": 1.37654552909,
			"-0.01": 0.852920204757,
			"-0.009": 1.14508543443,
			"-0.008": 2.86319662343,
			"-0.007": 10.2413789049,
			"-0.006": 21.5855155369,
			"-0.005": 22.8612212316,
			"-0.004": 20.530355165,
			"-0.003": 20.8142293464,
			"-0.002": 25.4939067675,
			"-0.001": 21.5811122069,
			"0.0": 15.0726825442,
			"0.001": 14.0611338344,
			"0.002": 14.5438508635,
			"0.003": 12.9230375786,
			"0.004": 8.60000770909,
			"0.005": 5.79889736493,
			"0.006": 5.97463040757,
			"0.007": 6.50920533349,
			"0.008": 8.04142676199,
			"0.009": 6.99279301163,
			"0.01": 6.91513480367,
			"0.011": 6.91831024951,
			"0.012": 4.84956869042,
			"0.013": 3.38851457177,
			"0.014": 1.74153293318,
			"0.015": 0.424196284071,
			"0.016": 0.0,
			"0.017": 0.0,
			"0.018": 0.0,
			"0.019": 0.0,
			"0.02": 0.0,
			"0.021": 0.0,
			"0.022": 0.0,
			"0.023": 0.0,
			"0.024": 0.0,
			"0.025": 0.0
		}
	}
}
