{
	 "smiles": "CC(CSC1=CC=CC=C1)C(O)=O", 
	 "Tm": 314.15, 
	 "num_atms": 25, 
	 "gaussian": { 
		 "optdone": 1, 
		 "sigma_profile": "yes", 
		 "theory": "DFT", 
		 "functional": "B3LYP", 
		 "basiset": "6-31G**", 
		 "properties": { 
			 "R2extent": 3566.4966, 
			 "electric_dipole_moment_norm": 2.07181434738, 
			 "electric_quadrupole_moment_norm": 10.2417040779, 
			 "total_energy": -936.951580785, 
			 "HOMO_LUMO_gap": 0.21014, 
			 "cosmo_polarized_energy": -11.14, 
			 "cosmo_cavitation_energy": 29.95, 
			 "cosmo_dispersion_energy": -21.34, 
			 "cosmo_repulsion_energy": 1.67, 
			 "cosmo_total_nonelectrostatic_energy": 10.28, 
			 "SMD_solvation_energy": 5.69 
		},
		"coords": [
			{
				"x": 0.553776385,
				"y": -0.8222824298,
				"z": -4.0285895235,
				"element": "C" 
			},
			{
				"x": 0.4084066981,
				"y": -1.2219302565,
				"z": -2.5467097218,
				"element": "C" 
			},
			{
				"x": -1.029846533,
				"y": -0.9823675918,
				"z": -2.0580622126,
				"element": "C" 
			},
			{
				"x": -1.368422134,
				"y": -1.4741726332,
				"z": -0.3129178077,
				"element": "S" 
			},
			{
				"x": -0.3488451242,
				"y": -0.3118702481,
				"z": 0.6065061102,
				"element": "C" 
			},
			{
				"x": 0.993697178,
				"y": -0.6075869721,
				"z": 0.8864189861,
				"element": "C" 
			},
			{
				"x": 1.7616959609,
				"y": 0.2869181783,
				"z": 1.6349568108,
				"element": "C" 
			},
			{
				"x": 1.1962506001,
				"y": 1.4693347756,
				"z": 2.1163862303,
				"element": "C" 
			},
			{
				"x": -0.1426049109,
				"y": 1.760984706,
				"z": 1.8469959427,
				"element": "C" 
			},
			{
				"x": -0.9145949017,
				"y": 0.8739767846,
				"z": 1.0950982988,
				"element": "C" 
			},
			{
				"x": 0.839424328,
				"y": -2.6635676851,
				"z": -2.3309879176,
				"element": "C" 
			},
			{
				"x": 0.0268765939,
				"y": -3.5404662752,
				"z": -2.9695452558,
				"element": "O" 
			},
			{
				"x": 1.8016176607,
				"y": -3.0224624456,
				"z": -1.6870687911,
				"element": "O" 
			},
			{
				"x": 0.2909594734,
				"y": 0.2317316939,
				"z": -4.1619226335,
				"element": "H" 
			},
			{
				"x": 1.5838879559,
				"y": -0.9577851608,
				"z": -4.3720388975,
				"element": "H" 
			},
			{
				"x": -0.1014507567,
				"y": -1.4245890033,
				"z": -4.664265893,
				"element": "H" 
			},
			{
				"x": 1.0949856625,
				"y": -0.6210794209,
				"z": -1.9446318508,
				"element": "H" 
			},
			{
				"x": -1.7331090151,
				"y": -1.5814039393,
				"z": -2.644077216,
				"element": "H" 
			},
			{
				"x": -1.2916043057,
				"y": 0.0718441674,
				"z": -2.1885669913,
				"element": "H" 
			},
			{
				"x": 1.430491121,
				"y": -1.5275901335,
				"z": 0.5107783659,
				"element": "H" 
			},
			{
				"x": 2.8018432879,
				"y": 0.0547969792,
				"z": 1.8453564486,
				"element": "H" 
			},
			{
				"x": 1.7956525935,
				"y": 2.1597003432,
				"z": 2.7030658765,
				"element": "H" 
			},
			{
				"x": -0.5879805854,
				"y": 2.6773028301,
				"z": 2.224158026,
				"element": "H" 
			},
			{
				"x": -1.9579500371,
				"y": 1.0917494267,
				"z": 0.8886843531,
				"element": "H" 
			},
			{
				"x": 0.3686428047,
				"y": -4.4262856898,
				"z": -2.7618207371,
				"element": "H" 
			}
		],
		 "valence_orbital": [ 
			{
				"type": "occ",
				"energy": -0.3123,
				"method": "rhf"
			},
			{
				"type": "occ",
				"energy": -0.27286,
				"method": "rhf"
			},
			{
				"type": "occ",
				"energy": -0.25394,
				"method": "rhf"
			},
			{
				"type": "occ",
				"energy": -0.25001,
				"method": "rhf"
			},
			{
				"type": "occ",
				"energy": -0.22824,
				"method": "rhf"
			},
			{
				"type": "unocc",
				"energy": -0.0181,
				"method": "rhf"
			},
			{
				"type": "unocc",
				"energy": -0.00531,
				"method": "rhf"
			},
			{
				"type": "unocc",
				"energy": 0.0067,
				"method": "rhf"
			},
			{
				"type": "unocc",
				"energy": 0.05221,
				"method": "rhf"
			},
			{
				"type": "unocc",
				"energy": 0.06768,
				"method": "rhf"
			}
		],
		"cosmo_sigma_profile": { 
			"-0.025": 0.0,
			"-0.024": 0.0,
			"-0.023": 0.0,
			"-0.022": 0.0,
			"-0.021": 0.0,
			"-0.02": 0.0,
			"-0.019": 0.0357748124302,
			"-0.018": 0.990162005946,
			"-0.017": 0.559088884683,
			"-0.016": 0.894588798641,
			"-0.015": 0.946701385367,
			"-0.014": 0.295628175357,
			"-0.013": 0.445322267666,
			"-0.012": 1.10369965458,
			"-0.011": 0.912973865535,
			"-0.01": 0.690670560679,
			"-0.009": 0.598631668093,
			"-0.008": 0.331875728096,
			"-0.007": 1.2427219848,
			"-0.006": 9.91223978532,
			"-0.005": 17.3910750461,
			"-0.004": 23.0141283548,
			"-0.003": 20.6863488589,
			"-0.002": 19.7819864544,
			"-0.001": 17.4632942848,
			"0.0": 17.0428330751,
			"0.001": 14.7681619421,
			"0.002": 15.0299853928,
			"0.003": 14.9205328932,
			"0.004": 15.6293446155,
			"0.005": 15.0882198452,
			"0.006": 6.35615270459,
			"0.007": 5.88337011228,
			"0.008": 4.40935363303,
			"0.009": 3.18518297424,
			"0.01": 2.02402848352,
			"0.011": 3.47949439709,
			"0.012": 3.34601327398,
			"0.013": 0.118730791041,
			"0.014": 0.0,
			"0.015": 0.0,
			"0.016": 0.0,
			"0.017": 0.0,
			"0.018": 0.0,
			"0.019": 0.0,
			"0.02": 0.0,
			"0.021": 0.0,
			"0.022": 0.0,
			"0.023": 0.0,
			"0.024": 0.0,
			"0.025": 0.0
		}
	}
}
