{
	 "smiles": "OC(=O)CCC1=CC(O)=C(O)C=C1", 
	 "Tm": 411.15, 
	 "num_atms": 23, 
	 "gaussian": { 
		 "optdone": 1, 
		 "sigma_profile": "yes", 
		 "theory": "DFT", 
		 "functional": "B3LYP", 
		 "basiset": "6-31G**", 
		 "properties": { 
			 "R2extent": 3731.6619, 
			 "electric_dipole_moment_norm": 3.66393457502, 
			 "electric_quadrupole_moment_norm": 24.9177711963, 
			 "total_energy": -649.885396077, 
			 "HOMO_LUMO_gap": 0.2083, 
			 "cosmo_polarized_energy": -21.8, 
			 "cosmo_cavitation_energy": 27.84, 
			 "cosmo_dispersion_energy": -20.2, 
			 "cosmo_repulsion_energy": 1.63, 
			 "cosmo_total_nonelectrostatic_energy": 9.27, 
			 "SMD_solvation_energy": 6.3 
		},
		"coords": [
			{
				"x": 2.5499681029,
				"y": 0.4340515474,
				"z": -3.3052620866,
				"element": "O" 
			},
			{
				"x": 2.6172311877,
				"y": -0.0047201988,
				"z": -2.0170809952,
				"element": "C" 
			},
			{
				"x": 3.6003109248,
				"y": -0.5840805788,
				"z": -1.6293549947,
				"element": "O" 
			},
			{
				"x": 1.3878181096,
				"y": 0.2860668123,
				"z": -1.1660166859,
				"element": "C" 
			},
			{
				"x": 1.5489085358,
				"y": -0.1690152676,
				"z": 0.2935440792,
				"element": "C" 
			},
			{
				"x": 0.3069878981,
				"y": 0.0853301657,
				"z": 1.1200315497,
				"element": "C" 
			},
			{
				"x": -0.6883334425,
				"y": -0.8986897008,
				"z": 1.232598264,
				"element": "C" 
			},
			{
				"x": -1.8472049434,
				"y": -0.6567111483,
				"z": 1.9614294574,
				"element": "C" 
			},
			{
				"x": -2.868629525,
				"y": -1.5652532445,
				"z": 2.1278872769,
				"element": "O" 
			},
			{
				"x": -2.0459081263,
				"y": 0.580652221,
				"z": 2.5981804885,
				"element": "C" 
			},
			{
				"x": -3.180421115,
				"y": 0.8161171111,
				"z": 3.3157360358,
				"element": "O" 
			},
			{
				"x": -1.0630042735,
				"y": 1.5604792268,
				"z": 2.4923637078,
				"element": "C" 
			},
			{
				"x": 0.1008444648,
				"y": 1.3118134989,
				"z": 1.7604894485,
				"element": "C" 
			},
			{
				"x": 1.7063946099,
				"y": 0.8820464449,
				"z": -3.4615882765,
				"element": "H" 
			},
			{
				"x": 1.1722117995,
				"y": 1.3624768921,
				"z": -1.2079167601,
				"element": "H" 
			},
			{
				"x": 0.5226801493,
				"y": -0.2108366192,
				"z": -1.6269870076,
				"element": "H" 
			},
			{
				"x": 2.4082275932,
				"y": 0.351570993,
				"z": 0.7279344267,
				"element": "H" 
			},
			{
				"x": 1.8060249923,
				"y": -1.2327978376,
				"z": 0.2990654177,
				"element": "H" 
			},
			{
				"x": -0.5516165501,
				"y": -1.8668519493,
				"z": 0.7524752935,
				"element": "H" 
			},
			{
				"x": -2.6361853069,
				"y": -2.4012995291,
				"z": 1.7059828266,
				"element": "H" 
			},
			{
				"x": -3.7193891891,
				"y": 0.0118305857,
				"z": 3.2799236436,
				"element": "H" 
			},
			{
				"x": -1.2209348631,
				"y": 2.5086700464,
				"z": 2.9958777721,
				"element": "H" 
			},
			{
				"x": 0.8623189668,
				"y": 2.0847505286,
				"z": 1.6964871186,
				"element": "H" 
			}
		],
		 "valence_orbital": [ 
			{
				"type": "occ",
				"energy": -0.32105,
				"method": "rhf"
			},
			{
				"type": "occ",
				"energy": -0.31651,
				"method": "rhf"
			},
			{
				"type": "occ",
				"energy": -0.27315,
				"method": "rhf"
			},
			{
				"type": "occ",
				"energy": -0.24236,
				"method": "rhf"
			},
			{
				"type": "occ",
				"energy": -0.2096,
				"method": "rhf"
			},
			{
				"type": "unocc",
				"energy": -0.0013,
				"method": "rhf"
			},
			{
				"type": "unocc",
				"energy": 0.00955,
				"method": "rhf"
			},
			{
				"type": "unocc",
				"energy": 0.01377,
				"method": "rhf"
			},
			{
				"type": "unocc",
				"energy": 0.04956,
				"method": "rhf"
			},
			{
				"type": "unocc",
				"energy": 0.05459,
				"method": "rhf"
			}
		],
		"cosmo_sigma_profile": { 
			"-0.025": 0.0,
			"-0.024": 0.0,
			"-0.023": 0.0,
			"-0.022": 0.0,
			"-0.021": 0.0,
			"-0.02": 0.0,
			"-0.019": 0.568079913652,
			"-0.018": 2.05167788595,
			"-0.017": 1.83129240737,
			"-0.016": 1.98132123614,
			"-0.015": 2.53056354852,
			"-0.014": 2.31097004736,
			"-0.013": 2.67576865628,
			"-0.012": 2.42373529067,
			"-0.011": 2.86816634766,
			"-0.01": 2.84976209172,
			"-0.009": 2.62400628804,
			"-0.008": 3.19439175591,
			"-0.007": 5.79237483309,
			"-0.006": 7.88032624558,
			"-0.005": 11.7799860406,
			"-0.004": 17.3498955581,
			"-0.003": 12.5590228038,
			"-0.002": 10.2814614431,
			"-0.001": 8.94864755769,
			"0.0": 9.45768286369,
			"0.001": 9.62105743956,
			"0.002": 9.79665534065,
			"0.003": 11.6296101286,
			"0.004": 14.3165116612,
			"0.005": 12.1953823787,
			"0.006": 10.7319734262,
			"0.007": 6.68621438867,
			"0.008": 5.30512607693,
			"0.009": 4.46800274149,
			"0.01": 6.60865218943,
			"0.011": 7.13541624098,
			"0.012": 6.92224450332,
			"0.013": 2.15580852404,
			"0.014": 0.125442376305,
			"0.015": 0.0,
			"0.016": 0.0,
			"0.017": 0.0,
			"0.018": 0.0,
			"0.019": 0.0,
			"0.02": 0.0,
			"0.021": 0.0,
			"0.022": 0.0,
			"0.023": 0.0,
			"0.024": 0.0,
			"0.025": 0.0
		}
	}
}
