{
	 "smiles": "CC(=O)OCC(=O)C12OC(C)(C)OC1CC1C3CC(F)C4=CC(=O)C=CC4(C)C3(F)C(O)CC21C", 
	 "Tm": 582.15, 
	 "num_atms": 67, 
	 "gaussian": { 
		 "optdone": 1, 
		 "sigma_profile": "yes", 
		 "theory": "DFT", 
		 "functional": "B3LYP", 
		 "basiset": "6-31G**", 
		 "properties": { 
			 "R2extent": 17057.9343, 
			 "electric_dipole_moment_norm": 5.47097974407, 
			 "electric_quadrupole_moment_norm": 39.7293855044, 
			 "total_energy": -1736.25406871, 
			 "HOMO_LUMO_gap": 0.17268, 
			 "cosmo_polarized_energy": -26.98, 
			 "cosmo_cavitation_energy": 59.84, 
			 "cosmo_dispersion_energy": -39.39, 
			 "cosmo_repulsion_energy": 2.81, 
			 "cosmo_total_nonelectrostatic_energy": 23.25, 
			 "SMD_solvation_energy": 12.3 
		},
		"coords": [
			{
				"x": 0.7925774278,
				"y": 4.8519443795,
				"z": 4.2209884138,
				"element": "C" 
			},
			{
				"x": 0.336802844,
				"y": 4.8722715271,
				"z": 2.7874579333,
				"element": "C" 
			},
			{
				"x": 1.0327281848,
				"y": 5.0882556118,
				"z": 1.820875187,
				"element": "O" 
			},
			{
				"x": -0.9904560454,
				"y": 4.5651390115,
				"z": 2.7023853377,
				"element": "O" 
			},
			{
				"x": -1.5675242151,
				"y": 4.4815366105,
				"z": 1.3909442573,
				"element": "C" 
			},
			{
				"x": -2.3639265053,
				"y": 3.1821587515,
				"z": 1.2317962312,
				"element": "C" 
			},
			{
				"x": -3.5437293013,
				"y": 3.2617445727,
				"z": 0.9473482522,
				"element": "O" 
			},
			{
				"x": -1.7018419151,
				"y": 1.7837426325,
				"z": 1.3694109448,
				"element": "C" 
			},
			{
				"x": -2.3483389056,
				"y": 1.1017810777,
				"z": 2.4492360012,
				"element": "O" 
			},
			{
				"x": -1.5118511547,
				"y": 1.0836329083,
				"z": 3.6159231145,
				"element": "C" 
			},
			{
				"x": -1.3908187949,
				"y": -0.3633432812,
				"z": 4.0943456585,
				"element": "C" 
			},
			{
				"x": -2.087382009,
				"y": 2.0006250857,
				"z": 4.6928148353,
				"element": "C" 
			},
			{
				"x": -0.2403432657,
				"y": 1.5900011792,
				"z": 3.2030821405,
				"element": "O" 
			},
			{
				"x": -0.20950652,
				"y": 1.7049972889,
				"z": 1.7799759179,
				"element": "C" 
			},
			{
				"x": 0.3890998165,
				"y": 0.4841320876,
				"z": 1.0435474211,
				"element": "C" 
			},
			{
				"x": -0.7801207519,
				"y": -0.188606169,
				"z": 0.2814926894,
				"element": "C" 
			},
			{
				"x": -0.4250143073,
				"y": -0.9475092403,
				"z": -1.0173086904,
				"element": "C" 
			},
			{
				"x": 0.576458241,
				"y": -2.1173123425,
				"z": -0.7906656289,
				"element": "C" 
			},
			{
				"x": 1.9116940646,
				"y": -1.9932903974,
				"z": -1.5171403258,
				"element": "C" 
			},
			{
				"x": 2.7403795112,
				"y": -1.1333472291,
				"z": -0.7737760231,
				"element": "F" 
			},
			{
				"x": 1.8275404401,
				"y": -1.4480744453,
				"z": -2.9350842572,
				"element": "C" 
			},
			{
				"x": 2.9327366909,
				"y": -1.429620616,
				"z": -3.6976842184,
				"element": "C" 
			},
			{
				"x": 3.0023591355,
				"y": -0.7276457392,
				"z": -4.9962272197,
				"element": "C" 
			},
			{
				"x": 4.0076241264,
				"y": -0.7587102805,
				"z": -5.700210823,
				"element": "O" 
			},
			{
				"x": 1.7969249879,
				"y": 0.038305996,
				"z": -5.3775108793,
				"element": "C" 
			},
			{
				"x": 0.6808067755,
				"y": 0.0079533984,
				"z": -4.6371627561,
				"element": "C" 
			},
			{
				"x": 0.5078270843,
				"y": -0.8483651563,
				"z": -3.4036670006,
				"element": "C" 
			},
			{
				"x": -0.4622157079,
				"y": -1.99460597,
				"z": -3.8463263311,
				"element": "C" 
			},
			{
				"x": -0.0276002576,
				"y": -0.023964383,
				"z": -2.1829836856,
				"element": "C" 
			},
			{
				"x": 1.07138242,
				"y": 0.7927602122,
				"z": -1.8129129594,
				"element": "F" 
			},
			{
				"x": -1.1305573081,
				"y": 1.0172105029,
				"z": -2.4566059678,
				"element": "C" 
			},
			{
				"x": -2.2455889459,
				"y": 0.3460126608,
				"z": -3.0382413686,
				"element": "O" 
			},
			{
				"x": -1.4676698581,
				"y": 1.7921532608,
				"z": -1.1690890895,
				"element": "C" 
			},
			{
				"x": -1.8512397117,
				"y": 0.9266998518,
				"z": 0.0618069394,
				"element": "C" 
			},
			{
				"x": -3.2704073007,
				"y": 0.3487213059,
				"z": -0.079867,
				"element": "C" 
			},
			{
				"x": 0.0867814911,
				"y": 5.3850351404,
				"z": 4.8622364734,
				"element": "H" 
			},
			{
				"x": 0.8227682129,
				"y": 3.8077629255,
				"z": 4.5483027756,
				"element": "H" 
			},
			{
				"x": 1.7868181739,
				"y": 5.2914355126,
				"z": 4.2936029689,
				"element": "H" 
			},
			{
				"x": -0.7734390442,
				"y": 4.557514991,
				"z": 0.639916673,
				"element": "H" 
			},
			{
				"x": -2.2703063658,
				"y": 5.3086633625,
				"z": 1.2667422812,
				"element": "H" 
			},
			{
				"x": -0.7402730833,
				"y": -0.4138295954,
				"z": 4.9717264078,
				"element": "H" 
			},
			{
				"x": -0.9666163276,
				"y": -0.9917853079,
				"z": 3.3083360677,
				"element": "H" 
			},
			{
				"x": -2.3749022247,
				"y": -0.7567557133,
				"z": 4.3643614053,
				"element": "H" 
			},
			{
				"x": -2.1580086139,
				"y": 3.0223494125,
				"z": 4.3163954138,
				"element": "H" 
			},
			{
				"x": -1.4414477367,
				"y": 1.9955814824,
				"z": 5.5760392006,
				"element": "H" 
			},
			{
				"x": -3.0820074022,
				"y": 1.6550440798,
				"z": 4.9872403705,
				"element": "H" 
			},
			{
				"x": 0.3638792127,
				"y": 2.6043613336,
				"z": 1.5511763195,
				"element": "H" 
			},
			{
				"x": 1.1734027006,
				"y": 0.8013821384,
				"z": 0.3588320784,
				"element": "H" 
			},
			{
				"x": 0.855152524,
				"y": -0.1850369457,
				"z": 1.770953903,
				"element": "H" 
			},
			{
				"x": -1.2393202062,
				"y": -0.9289875267,
				"z": 0.9479967533,
				"element": "H" 
			},
			{
				"x": -1.3643366553,
				"y": -1.3939628099,
				"z": -1.359805323,
				"element": "H" 
			},
			{
				"x": 0.8051458027,
				"y": -2.2271005033,
				"z": 0.2733517582,
				"element": "H" 
			},
			{
				"x": 0.1144690199,
				"y": -3.0619138851,
				"z": -1.0971948392,
				"element": "H" 
			},
			{
				"x": 2.4186522656,
				"y": -2.9659421941,
				"z": -1.5258414464,
				"element": "H" 
			},
			{
				"x": 3.8606909094,
				"y": -1.8811020409,
				"z": -3.3554684716,
				"element": "H" 
			},
			{
				"x": 1.8606272543,
				"y": 0.6078484565,
				"z": -6.3001310951,
				"element": "H" 
			},
			{
				"x": -0.2105060596,
				"y": 0.531307198,
				"z": -4.9755174963,
				"element": "H" 
			},
			{
				"x": -0.6409493197,
				"y": -2.7230109622,
				"z": -3.0538194364,
				"element": "H" 
			},
			{
				"x": -1.4229523258,
				"y": -1.5773590849,
				"z": -4.1496721385,
				"element": "H" 
			},
			{
				"x": -0.0159818332,
				"y": -2.5222871714,
				"z": -4.6926154302,
				"element": "H" 
			},
			{
				"x": -0.7151166846,
				"y": 1.7421832052,
				"z": -3.171017569,
				"element": "H" 
			},
			{
				"x": -2.9869239458,
				"y": 0.964420442,
				"z": -3.0700045653,
				"element": "H" 
			},
			{
				"x": -0.5817860172,
				"y": 2.3980516101,
				"z": -0.9469887648,
				"element": "H" 
			},
			{
				"x": -2.2773326132,
				"y": 2.4980908467,
				"z": -1.3947278916,
				"element": "H" 
			},
			{
				"x": -3.5414643095,
				"y": -0.2065031674,
				"z": 0.8200813825,
				"element": "H" 
			},
			{
				"x": -3.3322331656,
				"y": -0.3191169659,
				"z": -0.9415150113,
				"element": "H" 
			},
			{
				"x": -4.0023926028,
				"y": 1.1499770736,
				"z": -0.2061398052,
				"element": "H" 
			}
		],
		 "valence_orbital": [ 
			{
				"type": "occ",
				"energy": -0.27359,
				"method": "rhf"
			},
			{
				"type": "occ",
				"energy": -0.26638,
				"method": "rhf"
			},
			{
				"type": "occ",
				"energy": -0.25961,
				"method": "rhf"
			},
			{
				"type": "occ",
				"energy": -0.24505,
				"method": "rhf"
			},
			{
				"type": "occ",
				"energy": -0.23891,
				"method": "rhf"
			},
			{
				"type": "unocc",
				"energy": -0.06623,
				"method": "rhf"
			},
			{
				"type": "unocc",
				"energy": -0.05015,
				"method": "rhf"
			},
			{
				"type": "unocc",
				"energy": -0.00973,
				"method": "rhf"
			},
			{
				"type": "unocc",
				"energy": -0.00019,
				"method": "rhf"
			},
			{
				"type": "unocc",
				"energy": 0.04464,
				"method": "rhf"
			}
		],
		"cosmo_sigma_profile": { 
			"-0.025": 0.0,
			"-0.024": 0.0,
			"-0.023": 0.0,
			"-0.022": 0.0,
			"-0.021": 0.0,
			"-0.02": 0.0,
			"-0.019": 0.0,
			"-0.018": 0.0,
			"-0.017": 0.0,
			"-0.016": 0.507046436935,
			"-0.015": 0.957444087143,
			"-0.014": 1.11802008985,
			"-0.013": 0.852532726438,
			"-0.012": 0.8477873164,
			"-0.011": 1.32036806165,
			"-0.01": 1.13877056921,
			"-0.009": 1.49552896095,
			"-0.008": 3.49042358748,
			"-0.007": 12.0707689501,
			"-0.006": 24.4014193529,
			"-0.005": 27.5837081978,
			"-0.004": 44.8053707709,
			"-0.003": 43.7834134147,
			"-0.002": 44.8613782829,
			"-0.001": 44.3908586974,
			"0.0": 39.5326267316,
			"0.001": 30.0748434789,
			"0.002": 22.0689991934,
			"0.003": 16.6255463159,
			"0.004": 14.3653836125,
			"0.005": 12.8553200539,
			"0.006": 15.8717354282,
			"0.007": 13.6297133384,
			"0.008": 7.85086752378,
			"0.009": 7.82214250142,
			"0.01": 9.56207502339,
			"0.011": 9.90821380524,
			"0.012": 6.45887885188,
			"0.013": 4.34906878614,
			"0.014": 2.18090085631,
			"0.015": 0.0791644720825,
			"0.016": 0.0,
			"0.017": 0.0,
			"0.018": 0.0,
			"0.019": 0.0,
			"0.02": 0.0,
			"0.021": 0.0,
			"0.022": 0.0,
			"0.023": 0.0,
			"0.024": 0.0,
			"0.025": 0.0
		}
	}
}
