{
	 "smiles": "CC(C)(C)OC(=O)NC1=CC(Cl)=C(C=C1)C(O)=O", 
	 "Tm": 443.15, 
	 "num_atms": 32, 
	 "gaussian": { 
		 "optdone": 1, 
		 "sigma_profile": "yes", 
		 "theory": "DFT", 
		 "functional": "B3LYP", 
		 "basiset": "6-31G**", 
		 "properties": { 
			 "R2extent": 7063.8825, 
			 "electric_dipole_moment_norm": 2.25582588202, 
			 "electric_quadrupole_moment_norm": 22.0927859617, 
			 "total_energy": -1281.60670976, 
			 "HOMO_LUMO_gap": 0.18401, 
			 "cosmo_polarized_energy": -16.19, 
			 "cosmo_cavitation_energy": 37.6, 
			 "cosmo_dispersion_energy": -26.33, 
			 "cosmo_repulsion_energy": 2.02, 
			 "cosmo_total_nonelectrostatic_energy": 13.29, 
			 "SMD_solvation_energy": 8.4 
		},
		"coords": [
			{
				"x": 2.383199959,
				"y": 0.8260984507,
				"z": -2.6054716947,
				"element": "C" 
			},
			{
				"x": 1.3667151166,
				"y": 1.9640125771,
				"z": -2.7167090049,
				"element": "C" 
			},
			{
				"x": 2.0628279136,
				"y": 3.3268531893,
				"z": -2.6744774308,
				"element": "C" 
			},
			{
				"x": 0.4844163653,
				"y": 1.7915251997,
				"z": -3.9558771947,
				"element": "C" 
			},
			{
				"x": 0.5490683661,
				"y": 1.7820675877,
				"z": -1.4914986443,
				"element": "O" 
			},
			{
				"x": -0.4720036263,
				"y": 2.6056583077,
				"z": -1.2211164231,
				"element": "C" 
			},
			{
				"x": -0.8489688069,
				"y": 3.5516218156,
				"z": -1.889850797,
				"element": "O" 
			},
			{
				"x": -1.1241952557,
				"y": 2.2861920577,
				"z": -0.0361249917,
				"element": "N" 
			},
			{
				"x": -0.9540923242,
				"y": 1.2983368098,
				"z": 0.9388564346,
				"element": "C" 
			},
			{
				"x": 0.0375380551,
				"y": 0.3084418648,
				"z": 0.905025005,
				"element": "C" 
			},
			{
				"x": 0.1246713542,
				"y": -0.6343875972,
				"z": 1.9283061442,
				"element": "C" 
			},
			{
				"x": 1.4103272337,
				"y": -1.8108412976,
				"z": 1.7563339899,
				"element": "Cl" 
			},
			{
				"x": -0.7650883228,
				"y": -0.6320576817,
				"z": 3.0210707295,
				"element": "C" 
			},
			{
				"x": -1.7516155761,
				"y": 0.3736486938,
				"z": 3.0295857566,
				"element": "C" 
			},
			{
				"x": -1.8520247711,
				"y": 1.3156678437,
				"z": 2.0234062693,
				"element": "C" 
			},
			{
				"x": -0.714324143,
				"y": -1.6135517591,
				"z": 4.1356376191,
				"element": "C" 
			},
			{
				"x": -1.6893318547,
				"y": -1.3805922198,
				"z": 5.0613635484,
				"element": "O" 
			},
			{
				"x": 0.067956771,
				"y": -2.5308461038,
				"z": 4.2688063311,
				"element": "O" 
			},
			{
				"x": 1.8804459472,
				"y": -0.1451967299,
				"z": -2.5880104763,
				"element": "H" 
			},
			{
				"x": 3.0596318261,
				"y": 0.8478703272,
				"z": -3.464760526,
				"element": "H" 
			},
			{
				"x": 2.9808193648,
				"y": 0.9251307201,
				"z": -1.6946897032,
				"element": "H" 
			},
			{
				"x": 2.6422517565,
				"y": 3.4306777776,
				"z": -1.7518380504,
				"element": "H" 
			},
			{
				"x": 2.7543095119,
				"y": 3.4062146501,
				"z": -3.5193296888,
				"element": "H" 
			},
			{
				"x": 1.3401529566,
				"y": 4.1407645146,
				"z": -2.7346195856,
				"element": "H" 
			},
			{
				"x": -0.033588479,
				"y": 0.8279729511,
				"z": -3.9240201582,
				"element": "H" 
			},
			{
				"x": -0.253722735,
				"y": 2.5903769115,
				"z": -4.0287490249,
				"element": "H" 
			},
			{
				"x": 1.1123771321,
				"y": 1.808876706,
				"z": -4.8523096942,
				"element": "H" 
			},
			{
				"x": -1.8839453057,
				"y": 2.9333871381,
				"z": 0.1240104357,
				"element": "H" 
			},
			{
				"x": 0.7403488204,
				"y": 0.2676103193,
				"z": 0.0887584217,
				"element": "H" 
			},
			{
				"x": -2.4497621111,
				"y": 0.4007152824,
				"z": 3.8566482752,
				"element": "H" 
			},
			{
				"x": -2.6287991403,
				"y": 2.0741146412,
				"z": 2.0698595482,
				"element": "H" 
			},
			{
				"x": -1.565595998,
				"y": -2.0695629478,
				"z": 5.7339845804,
				"element": "H" 
			}
		],
		 "valence_orbital": [ 
			{
				"type": "occ",
				"energy": -0.30608,
				"method": "rhf"
			},
			{
				"type": "occ",
				"energy": -0.28433,
				"method": "rhf"
			},
			{
				"type": "occ",
				"energy": -0.26494,
				"method": "rhf"
			},
			{
				"type": "occ",
				"energy": -0.25714,
				"method": "rhf"
			},
			{
				"type": "occ",
				"energy": -0.23687,
				"method": "rhf"
			},
			{
				"type": "unocc",
				"energy": -0.05286,
				"method": "rhf"
			},
			{
				"type": "unocc",
				"energy": -0.0211,
				"method": "rhf"
			},
			{
				"type": "unocc",
				"energy": 0.02902,
				"method": "rhf"
			},
			{
				"type": "unocc",
				"energy": 0.03191,
				"method": "rhf"
			},
			{
				"type": "unocc",
				"energy": 0.06621,
				"method": "rhf"
			}
		],
		"cosmo_sigma_profile": { 
			"-0.025": 0.0,
			"-0.024": 0.0,
			"-0.023": 0.0,
			"-0.022": 0.0,
			"-0.021": 0.0,
			"-0.02": 0.0,
			"-0.019": 0.0,
			"-0.018": 0.597224771526,
			"-0.017": 0.888128875403,
			"-0.016": 0.82009939555,
			"-0.015": 2.66701438722,
			"-0.014": 1.9302678802,
			"-0.013": 1.19926109921,
			"-0.012": 1.50581122973,
			"-0.011": 2.02401563234,
			"-0.01": 2.25178499691,
			"-0.009": 1.36009214151,
			"-0.008": 3.15811522925,
			"-0.007": 3.7704801075,
			"-0.006": 4.55243372349,
			"-0.005": 6.46704168125,
			"-0.004": 17.3852332032,
			"-0.003": 23.4443278584,
			"-0.002": 29.1824842499,
			"-0.001": 32.7744323025,
			"0.0": 40.6438651564,
			"0.001": 35.2333386946,
			"0.002": 21.2584232359,
			"0.003": 12.6084691495,
			"0.004": 10.5106811896,
			"0.005": 7.53498696945,
			"0.006": 5.28850822991,
			"0.007": 5.25111925083,
			"0.008": 2.66367599849,
			"0.009": 3.37613840609,
			"0.01": 3.4117388543,
			"0.011": 5.8404770762,
			"0.012": 8.41405477243,
			"0.013": 1.72716325335,
			"0.014": 0.0,
			"0.015": 0.0,
			"0.016": 0.0,
			"0.017": 0.0,
			"0.018": 0.0,
			"0.019": 0.0,
			"0.02": 0.0,
			"0.021": 0.0,
			"0.022": 0.0,
			"0.023": 0.0,
			"0.024": 0.0,
			"0.025": 0.0
		}
	}
}
