{
	 "smiles": "CC1=C(O)C=CC(N)=C1", 
	 "Tm": 449.15, 
	 "num_atms": 18, 
	 "gaussian": { 
		 "optdone": 1, 
		 "sigma_profile": "yes", 
		 "theory": "DFT", 
		 "functional": "B3LYP", 
		 "basiset": "6-31G**", 
		 "properties": { 
			 "R2extent": 1520.1564, 
			 "electric_dipole_moment_norm": 1.77533869163, 
			 "electric_quadrupole_moment_norm": 9.4696770494, 
			 "total_energy": -402.146945375, 
			 "HOMO_LUMO_gap": 0.18924, 
			 "cosmo_polarized_energy": -11.73, 
			 "cosmo_cavitation_energy": 21.34, 
			 "cosmo_dispersion_energy": -16.02, 
			 "cosmo_repulsion_energy": 1.32, 
			 "cosmo_total_nonelectrostatic_energy": 6.64, 
			 "SMD_solvation_energy": 3.94 
		},
		"coords": [
			{
				"x": 2.2943005387,
				"y": 2.2357490223,
				"z": -1.4588486735,
				"element": "C" 
			},
			{
				"x": 1.1449279407,
				"y": 1.4175362408,
				"z": -0.9280642044,
				"element": "C" 
			},
			{
				"x": -0.1775134557,
				"y": 1.8094454052,
				"z": -1.1996274649,
				"element": "C" 
			},
			{
				"x": -0.3499291634,
				"y": 2.9484661962,
				"z": -1.9536347492,
				"element": "O" 
			},
			{
				"x": -1.2452118872,
				"y": 1.0588665905,
				"z": -0.7105608504,
				"element": "C" 
			},
			{
				"x": -1.0189869849,
				"y": -0.0877021374,
				"z": 0.0525705154,
				"element": "C" 
			},
			{
				"x": 0.2879231934,
				"y": -0.5008829126,
				"z": 0.3373146225,
				"element": "C" 
			},
			{
				"x": 0.5361816819,
				"y": -1.6881632103,
				"z": 1.0502116482,
				"element": "N" 
			},
			{
				"x": 1.3513440284,
				"y": 0.26837519,
				"z": -0.1643394246,
				"element": "C" 
			},
			{
				"x": 2.2652152526,
				"y": 2.2961301667,
				"z": -2.5524930017,
				"element": "H" 
			},
			{
				"x": 3.2543737115,
				"y": 1.8042493115,
				"z": -1.1633501928,
				"element": "H" 
			},
			{
				"x": 2.2507863205,
				"y": 3.2668731879,
				"z": -1.0906489853,
				"element": "H" 
			},
			{
				"x": -1.295707107,
				"y": 3.1022229128,
				"z": -2.0707424592,
				"element": "H" 
			},
			{
				"x": -2.2668638776,
				"y": 1.3695850286,
				"z": -0.9223931094,
				"element": "H" 
			},
			{
				"x": -1.8635657904,
				"y": -0.6638353521,
				"z": 0.4220204014,
				"element": "H" 
			},
			{
				"x": 1.4236358805,
				"y": -1.6946089668,
				"z": 1.5364649926,
				"element": "H" 
			},
			{
				"x": -0.2120614301,
				"y": -1.9515510918,
				"z": 1.6785276136,
				"element": "H" 
			},
			{
				"x": 2.3732511482,
				"y": -0.0426555815,
				"z": 0.0438933216,
				"element": "H" 
			}
		],
		 "valence_orbital": [ 
			{
				"type": "occ",
				"energy": -0.34724,
				"method": "rhf"
			},
			{
				"type": "occ",
				"energy": -0.32649,
				"method": "rhf"
			},
			{
				"type": "occ",
				"energy": -0.27377,
				"method": "rhf"
			},
			{
				"type": "occ",
				"energy": -0.23467,
				"method": "rhf"
			},
			{
				"type": "occ",
				"energy": -0.17986,
				"method": "rhf"
			},
			{
				"type": "unocc",
				"energy": 0.00938,
				"method": "rhf"
			},
			{
				"type": "unocc",
				"energy": 0.03574,
				"method": "rhf"
			},
			{
				"type": "unocc",
				"energy": 0.0766,
				"method": "rhf"
			},
			{
				"type": "unocc",
				"energy": 0.08884,
				"method": "rhf"
			},
			{
				"type": "unocc",
				"energy": 0.11466,
				"method": "rhf"
			}
		],
		"cosmo_sigma_profile": { 
			"-0.025": 0.0,
			"-0.024": 0.0,
			"-0.023": 0.0,
			"-0.022": 0.0,
			"-0.021": 0.0,
			"-0.02": 0.0,
			"-0.019": 0.0,
			"-0.018": 0.0,
			"-0.017": 0.529396027615,
			"-0.016": 0.836993324978,
			"-0.015": 1.24812375908,
			"-0.014": 0.888697293393,
			"-0.013": 1.13250195478,
			"-0.012": 2.11926994241,
			"-0.011": 3.23320196073,
			"-0.01": 3.07492676134,
			"-0.009": 4.05719474334,
			"-0.008": 4.41826991246,
			"-0.007": 5.04874315102,
			"-0.006": 4.90023364657,
			"-0.005": 6.22886386818,
			"-0.004": 9.75010263275,
			"-0.003": 10.8642947511,
			"-0.002": 9.74856363922,
			"-0.001": 10.0110635953,
			"0.0": 10.8989156889,
			"0.001": 10.5033426607,
			"0.002": 7.43502653455,
			"0.003": 5.97860130079,
			"0.004": 8.98777030859,
			"0.005": 10.0426711712,
			"0.006": 9.21532205201,
			"0.007": 11.416737765,
			"0.008": 3.36614866115,
			"0.009": 2.59695216866,
			"0.01": 2.62788874003,
			"0.011": 2.83247777478,
			"0.012": 1.35271729788,
			"0.013": 0.589642855651,
			"0.014": 0.656959690544,
			"0.015": 0.812491899392,
			"0.016": 0.441774120889,
			"0.017": 0.0401927329908,
			"0.018": 0.0,
			"0.019": 0.0,
			"0.02": 0.0,
			"0.021": 0.0,
			"0.022": 0.0,
			"0.023": 0.0,
			"0.024": 0.0,
			"0.025": 0.0
		}
	}
}
