{
	 "smiles": "NC1=CC(N2N=NN=C2C2CC2)=C(F)C=C1", 
	 "Tm": 367.15, 
	 "num_atms": 26, 
	 "gaussian": { 
		 "optdone": 1, 
		 "sigma_profile": "yes", 
		 "theory": "DFT", 
		 "functional": "B3LYP", 
		 "basiset": "6-31G**", 
		 "properties": { 
			 "R2extent": 4528.8803, 
			 "electric_dipole_moment_norm": 7.41274947911, 
			 "electric_quadrupole_moment_norm": 18.3691340201, 
			 "total_energy": -760.599634371, 
			 "HOMO_LUMO_gap": 0.18136, 
			 "cosmo_polarized_energy": -17.85, 
			 "cosmo_cavitation_energy": 30.9, 
			 "cosmo_dispersion_energy": -22.08, 
			 "cosmo_repulsion_energy": 1.71, 
			 "cosmo_total_nonelectrostatic_energy": 10.52, 
			 "SMD_solvation_energy": 3.6 
		},
		"coords": [
			{
				"x": 1.3350691903,
				"y": -0.1619200234,
				"z": -2.9332980344,
				"element": "N" 
			},
			{
				"x": 0.6903118827,
				"y": -0.6217678601,
				"z": -1.7882066327,
				"element": "C" 
			},
			{
				"x": 1.1767683137,
				"y": -0.29443148,
				"z": -0.5133064736,
				"element": "C" 
			},
			{
				"x": 0.5702251466,
				"y": -0.8093504346,
				"z": 0.6334323169,
				"element": "C" 
			},
			{
				"x": 1.1066240535,
				"y": -0.4883196822,
				"z": 1.9088811699,
				"element": "N" 
			},
			{
				"x": 2.4543005366,
				"y": -0.6054124252,
				"z": 2.139616349,
				"element": "N" 
			},
			{
				"x": 2.6446978332,
				"y": -0.2247346613,
				"z": 3.3533713834,
				"element": "N" 
			},
			{
				"x": 1.4821421978,
				"y": 0.1495793797,
				"z": 3.9474390468,
				"element": "N" 
			},
			{
				"x": 0.5280313107,
				"y": -0.0129052171,
				"z": 3.0448272552,
				"element": "C" 
			},
			{
				"x": -0.8928653517,
				"y": 0.3118030575,
				"z": 3.236957373,
				"element": "C" 
			},
			{
				"x": -1.2498016132,
				"y": 1.4367299445,
				"z": 4.1952612761,
				"element": "C" 
			},
			{
				"x": -1.5283157655,
				"y": 0.0195627927,
				"z": 4.5870537197,
				"element": "C" 
			},
			{
				"x": -0.5266893325,
				"y": -1.6640860632,
				"z": 0.5119862498,
				"element": "C" 
			},
			{
				"x": -1.097627684,
				"y": -2.1832484774,
				"z": 1.6218695403,
				"element": "F" 
			},
			{
				"x": -1.0347807586,
				"y": -1.9819704606,
				"z": -0.7400810259,
				"element": "C" 
			},
			{
				"x": -0.4316159896,
				"y": -1.4668058906,
				"z": -1.8833147645,
				"element": "C" 
			},
			{
				"x": 1.9112113661,
				"y": 0.6591517101,
				"z": -2.8148998836,
				"element": "H" 
			},
			{
				"x": 0.769292645,
				"y": -0.1185225406,
				"z": -3.7688132387,
				"element": "H" 
			},
			{
				"x": 2.0427044929,
				"y": 0.348186852,
				"z": -0.3957419882,
				"element": "H" 
			},
			{
				"x": -1.5186839799,
				"y": 0.1868009204,
				"z": 2.3619325854,
				"element": "H" 
			},
			{
				"x": -0.4181431804,
				"y": 1.9383517741,
				"z": 4.6782439289,
				"element": "H" 
			},
			{
				"x": -2.0810427505,
				"y": 2.0762511968,
				"z": 3.9148873035,
				"element": "H" 
			},
			{
				"x": -0.8835023583,
				"y": -0.4323355227,
				"z": 5.3331926325,
				"element": "H" 
			},
			{
				"x": -2.5532186547,
				"y": -0.33773035,
				"z": 4.5812809989,
				"element": "H" 
			},
			{
				"x": -1.8915685802,
				"y": -2.6436572962,
				"z": -0.8059787238,
				"element": "H" 
			},
			{
				"x": -0.82532297,
				"y": -1.7290192425,
				"z": -2.8611923638,
				"element": "H" 
			}
		],
		 "valence_orbital": [ 
			{
				"type": "occ",
				"energy": -0.28534,
				"method": "rhf"
			},
			{
				"type": "occ",
				"energy": -0.27885,
				"method": "rhf"
			},
			{
				"type": "occ",
				"energy": -0.26474,
				"method": "rhf"
			},
			{
				"type": "occ",
				"energy": -0.25892,
				"method": "rhf"
			},
			{
				"type": "occ",
				"energy": -0.21977,
				"method": "rhf"
			},
			{
				"type": "unocc",
				"energy": -0.03841,
				"method": "rhf"
			},
			{
				"type": "unocc",
				"energy": -0.00774,
				"method": "rhf"
			},
			{
				"type": "unocc",
				"energy": 0.01002,
				"method": "rhf"
			},
			{
				"type": "unocc",
				"energy": 0.02818,
				"method": "rhf"
			},
			{
				"type": "unocc",
				"energy": 0.06133,
				"method": "rhf"
			}
		],
		"cosmo_sigma_profile": { 
			"-0.025": 0.0,
			"-0.024": 0.0,
			"-0.023": 0.0,
			"-0.022": 0.0,
			"-0.021": 0.0,
			"-0.02": 0.0,
			"-0.019": 0.0,
			"-0.018": 0.0,
			"-0.017": 0.0,
			"-0.016": 0.0,
			"-0.015": 0.0,
			"-0.014": 0.0133588242557,
			"-0.013": 1.8116723944,
			"-0.012": 3.46045315784,
			"-0.011": 2.90228697842,
			"-0.01": 3.71095741424,
			"-0.009": 3.16123346161,
			"-0.008": 4.98214696646,
			"-0.007": 7.35251741436,
			"-0.006": 12.6100080831,
			"-0.005": 16.1938926069,
			"-0.004": 14.7892597593,
			"-0.003": 14.5747050891,
			"-0.002": 14.960056285,
			"-0.001": 16.8627428946,
			"0.0": 17.8196103248,
			"0.001": 17.6031970563,
			"0.002": 17.0225910546,
			"0.003": 18.962760356,
			"0.004": 15.3585373658,
			"0.005": 5.03280036441,
			"0.006": 4.00020757336,
			"0.007": 4.21643831263,
			"0.008": 5.47114525927,
			"0.009": 5.67387480321,
			"0.01": 5.23167621207,
			"0.011": 4.69875478034,
			"0.012": 3.94727244386,
			"0.013": 2.93437679297,
			"0.014": 1.40810754477,
			"0.015": 0.319093938952,
			"0.016": 0.0,
			"0.017": 0.0,
			"0.018": 0.0,
			"0.019": 0.0,
			"0.02": 0.0,
			"0.021": 0.0,
			"0.022": 0.0,
			"0.023": 0.0,
			"0.024": 0.0,
			"0.025": 0.0
		}
	}
}
