{
	 "smiles": "CCOC(=O)CCCCCC(=O)OCC", 
	 "Tm": 249.15, 
	 "num_atms": 35, 
	 "gaussian": { 
		 "optdone": 1, 
		 "sigma_profile": "yes", 
		 "theory": "DFT", 
		 "functional": "B3LYP", 
		 "basiset": "6-31G**", 
		 "properties": { 
			 "R2extent": 5117.7782, 
			 "electric_dipole_moment_norm": 1.51772141383, 
			 "electric_quadrupole_moment_norm": 11.6007649183, 
			 "total_energy": -732.16437186, 
			 "HOMO_LUMO_gap": 0.26901, 
			 "cosmo_polarized_energy": -10.52, 
			 "cosmo_cavitation_energy": 37.24, 
			 "cosmo_dispersion_energy": -25.49, 
			 "cosmo_repulsion_energy": 2.1, 
			 "cosmo_total_nonelectrostatic_energy": 13.85, 
			 "SMD_solvation_energy": 7.79 
		},
		"coords": [
			{
				"x": -0.5882609551,
				"y": 1.7606983835,
				"z": -4.3934053741,
				"element": "C" 
			},
			{
				"x": 0.2385855883,
				"y": 1.4573363221,
				"z": -3.1524330467,
				"element": "C" 
			},
			{
				"x": -0.2962298465,
				"y": 0.3275800351,
				"z": -2.4253802768,
				"element": "O" 
			},
			{
				"x": -1.2782567037,
				"y": 0.5894910919,
				"z": -1.5328694865,
				"element": "C" 
			},
			{
				"x": -1.7295261269,
				"y": 1.6996410366,
				"z": -1.333399128,
				"element": "O" 
			},
			{
				"x": -1.7178824841,
				"y": -0.6814503457,
				"z": -0.8323172231,
				"element": "C" 
			},
			{
				"x": -2.8970485436,
				"y": -0.45460711,
				"z": 0.1241742344,
				"element": "C" 
			},
			{
				"x": -2.5496536053,
				"y": 0.2945494221,
				"z": 1.433068973,
				"element": "C" 
			},
			{
				"x": -2.3360058693,
				"y": -0.6017835169,
				"z": 2.6653340245,
				"element": "C" 
			},
			{
				"x": -1.153286646,
				"y": -1.5931144611,
				"z": 2.5878092311,
				"element": "C" 
			},
			{
				"x": 0.1825511271,
				"y": -0.8960387086,
				"z": 2.4414346953,
				"element": "C" 
			},
			{
				"x": 0.834082296,
				"y": -0.8356976458,
				"z": 1.4165017426,
				"element": "O" 
			},
			{
				"x": 0.5560795492,
				"y": -0.3111095687,
				"z": 3.60121105,
				"element": "O" 
			},
			{
				"x": 1.7977626953,
				"y": 0.4349343537,
				"z": 3.5852256818,
				"element": "C" 
			},
			{
				"x": 2.9913177684,
				"y": -0.4728073434,
				"z": 3.8411630011,
				"element": "C" 
			},
			{
				"x": -0.6621958248,
				"y": 0.8792012774,
				"z": -5.0373540758,
				"element": "H" 
			},
			{
				"x": -1.5950196235,
				"y": 2.0805594921,
				"z": -4.1136241031,
				"element": "H" 
			},
			{
				"x": -0.1188086137,
				"y": 2.5669054203,
				"z": -4.9673068617,
				"element": "H" 
			},
			{
				"x": 1.2561688899,
				"y": 1.1565593981,
				"z": -3.413968104,
				"element": "H" 
			},
			{
				"x": 0.2761371447,
				"y": 2.321942584,
				"z": -2.4852911847,
				"element": "H" 
			},
			{
				"x": -1.9756308505,
				"y": -1.4104420767,
				"z": -1.6103555832,
				"element": "H" 
			},
			{
				"x": -0.8364356533,
				"y": -1.0819062744,
				"z": -0.3181708351,
				"element": "H" 
			},
			{
				"x": -3.3448384919,
				"y": -1.4272584991,
				"z": 0.3664128793,
				"element": "H" 
			},
			{
				"x": -3.6636271323,
				"y": 0.1094476556,
				"z": -0.4163091526,
				"element": "H" 
			},
			{
				"x": -3.3675893078,
				"y": 0.9827655393,
				"z": 1.6744046704,
				"element": "H" 
			},
			{
				"x": -1.674381167,
				"y": 0.9329511609,
				"z": 1.2687389692,
				"element": "H" 
			},
			{
				"x": -2.1954970889,
				"y": 0.0298732954,
				"z": 3.5500304785,
				"element": "H" 
			},
			{
				"x": -3.2470565211,
				"y": -1.1874603269,
				"z": 2.8435531724,
				"element": "H" 
			},
			{
				"x": -1.1323855644,
				"y": -2.1910519637,
				"z": 3.5051392738,
				"element": "H" 
			},
			{
				"x": -1.264397203,
				"y": -2.2736450048,
				"z": 1.7403691705,
				"element": "H" 
			},
			{
				"x": 1.6797246713,
				"y": 1.1753526629,
				"z": 4.3800649583,
				"element": "H" 
			},
			{
				"x": 1.8898023172,
				"y": 0.9449533819,
				"z": 2.6234257222,
				"element": "H" 
			},
			{
				"x": 3.9067998791,
				"y": 0.125165599,
				"z": 3.901915492,
				"element": "H" 
			},
			{
				"x": 2.8731295398,
				"y": -1.0160664263,
				"z": 4.7834095327,
				"element": "H" 
			},
			{
				"x": 3.1063723565,
				"y": -1.19346884,
				"z": 3.0278974825,
				"element": "H" 
			}
		],
		 "valence_orbital": [ 
			{
				"type": "occ",
				"energy": -0.31611,
				"method": "rhf"
			},
			{
				"type": "occ",
				"energy": -0.2969,
				"method": "rhf"
			},
			{
				"type": "occ",
				"energy": -0.28711,
				"method": "rhf"
			},
			{
				"type": "occ",
				"energy": -0.26768,
				"method": "rhf"
			},
			{
				"type": "occ",
				"energy": -0.25952,
				"method": "rhf"
			},
			{
				"type": "unocc",
				"energy": 0.00949,
				"method": "rhf"
			},
			{
				"type": "unocc",
				"energy": 0.02548,
				"method": "rhf"
			},
			{
				"type": "unocc",
				"energy": 0.08951,
				"method": "rhf"
			},
			{
				"type": "unocc",
				"energy": 0.10828,
				"method": "rhf"
			},
			{
				"type": "unocc",
				"energy": 0.1151,
				"method": "rhf"
			}
		],
		"cosmo_sigma_profile": { 
			"-0.025": 0.0,
			"-0.024": 0.0,
			"-0.023": 0.0,
			"-0.022": 0.0,
			"-0.021": 0.0,
			"-0.02": 0.0,
			"-0.019": 0.0,
			"-0.018": 0.0,
			"-0.017": 0.0,
			"-0.016": 0.0,
			"-0.015": 0.0,
			"-0.014": 0.0,
			"-0.013": 0.0,
			"-0.012": 0.0,
			"-0.011": 0.0,
			"-0.01": 0.0,
			"-0.009": 0.0,
			"-0.008": 0.159658398085,
			"-0.007": 0.019010912773,
			"-0.006": 3.22373694544,
			"-0.005": 13.9392409585,
			"-0.004": 29.7664373124,
			"-0.003": 46.8491416099,
			"-0.002": 42.5699490061,
			"-0.001": 35.3614964272,
			"0.0": 31.7929598458,
			"0.001": 16.3810308287,
			"0.002": 8.67857697581,
			"0.003": 9.01416653795,
			"0.004": 7.29220933372,
			"0.005": 5.23872779086,
			"0.006": 6.5403640849,
			"0.007": 6.72932879819,
			"0.008": 5.51212935741,
			"0.009": 4.45728905533,
			"0.01": 4.3439979196,
			"0.011": 4.48464969544,
			"0.012": 5.90954347453,
			"0.013": 1.33015680248,
			"0.014": 0.000510192809417,
			"0.015": 0.0,
			"0.016": 0.0,
			"0.017": 0.0,
			"0.018": 0.0,
			"0.019": 0.0,
			"0.02": 0.0,
			"0.021": 0.0,
			"0.022": 0.0,
			"0.023": 0.0,
			"0.024": 0.0,
			"0.025": 0.0
		}
	}
}
