{
	 "smiles": "COC1=C(C)C(C)=C(OC)C2=C1CC2Cl", 
	 "Tm": 386.15, 
	 "num_atms": 30, 
	 "gaussian": { 
		 "optdone": 1, 
		 "sigma_profile": "yes", 
		 "theory": "DFT", 
		 "functional": "B3LYP", 
		 "basiset": "6-31G**", 
		 "properties": { 
			 "R2extent": 4077.2188, 
			 "electric_dipole_moment_norm": 1.97588358463, 
			 "electric_quadrupole_moment_norm": 11.7708051296, 
			 "total_energy": -1076.90552003, 
			 "HOMO_LUMO_gap": 0.19551, 
			 "cosmo_polarized_energy": -7.75, 
			 "cosmo_cavitation_energy": 33.34, 
			 "cosmo_dispersion_energy": -23.86, 
			 "cosmo_repulsion_energy": 1.87, 
			 "cosmo_total_nonelectrostatic_energy": 11.36, 
			 "SMD_solvation_energy": 6.4 
		},
		"coords": [
			{
				"x": 2.5547839121,
				"y": 2.5256778921,
				"z": -1.7350436277,
				"element": "C" 
			},
			{
				"x": 1.1419249965,
				"y": 2.4764888966,
				"z": -1.8622925469,
				"element": "O" 
			},
			{
				"x": 0.5107770534,
				"y": 1.3200289644,
				"z": -1.4925873108,
				"element": "C" 
			},
			{
				"x": -0.9053137613,
				"y": 1.3215747235,
				"z": -1.5297172948,
				"element": "C" 
			},
			{
				"x": -1.6300819374,
				"y": 2.5802562426,
				"z": -1.9490828652,
				"element": "C" 
			},
			{
				"x": -1.6481567937,
				"y": 0.1664584179,
				"z": -1.1881136286,
				"element": "C" 
			},
			{
				"x": -3.1567879699,
				"y": 0.1928572639,
				"z": -1.2637897932,
				"element": "C" 
			},
			{
				"x": -0.9983800706,
				"y": -1.0239322354,
				"z": -0.7937721397,
				"element": "C" 
			},
			{
				"x": -1.7219997881,
				"y": -2.1678351204,
				"z": -0.5384314406,
				"element": "O" 
			},
			{
				"x": -1.8680101952,
				"y": -2.4966581731,
				"z": 0.8465690445,
				"element": "C" 
			},
			{
				"x": 0.3885728075,
				"y": -0.9870425599,
				"z": -0.7497766854,
				"element": "C" 
			},
			{
				"x": 1.1333020851,
				"y": 0.1432669687,
				"z": -1.0846043671,
				"element": "C" 
			},
			{
				"x": 2.4709776046,
				"y": -0.5689279996,
				"z": -0.8883300832,
				"element": "C" 
			},
			{
				"x": 1.612709303,
				"y": -1.8476746983,
				"z": -0.5826339618,
				"element": "C" 
			},
			{
				"x": 1.9171097009,
				"y": -2.5964106912,
				"z": 1.061011327,
				"element": "Cl" 
			},
			{
				"x": 2.8503898856,
				"y": 3.5354387211,
				"z": -2.0253001589,
				"element": "H" 
			},
			{
				"x": 2.8733046169,
				"y": 2.3404790713,
				"z": -0.7020486282,
				"element": "H" 
			},
			{
				"x": 3.047685936,
				"y": 1.8052176717,
				"z": -2.3986685635,
				"element": "H" 
			},
			{
				"x": -2.1702404962,
				"y": 2.4322485342,
				"z": -2.8925535585,
				"element": "H" 
			},
			{
				"x": -0.9340875483,
				"y": 3.4067111757,
				"z": -2.0866834784,
				"element": "H" 
			},
			{
				"x": -2.3748888178,
				"y": 2.8775165883,
				"z": -1.2022746123,
				"element": "H" 
			},
			{
				"x": -3.56518328,
				"y": -0.795966004,
				"z": -1.0546439985,
				"element": "H" 
			},
			{
				"x": -3.501811628,
				"y": 0.5010733018,
				"z": -2.2572467542,
				"element": "H" 
			},
			{
				"x": -3.5842075133,
				"y": 0.9041879143,
				"z": -0.5464120556,
				"element": "H" 
			},
			{
				"x": -2.4472705795,
				"y": -3.4218410301,
				"z": 0.8829541943,
				"element": "H" 
			},
			{
				"x": -0.8963673013,
				"y": -2.6555397683,
				"z": 1.3260902447,
				"element": "H" 
			},
			{
				"x": -2.4107965865,
				"y": -1.708382134,
				"z": 1.3846582903,
				"element": "H" 
			},
			{
				"x": 3.1186754694,
				"y": -0.6637075098,
				"z": -1.7661982489,
				"element": "H" 
			},
			{
				"x": 3.0699398833,
				"y": -0.2403454455,
				"z": -0.0350542964,
				"element": "H" 
			},
			{
				"x": 1.724531013,
				"y": -2.6711189782,
				"z": -1.2889230022,
				"element": "H" 
			}
		],
		 "valence_orbital": [ 
			{
				"type": "occ",
				"energy": -0.28784,
				"method": "rhf"
			},
			{
				"type": "occ",
				"energy": -0.28748,
				"method": "rhf"
			},
			{
				"type": "occ",
				"energy": -0.26677,
				"method": "rhf"
			},
			{
				"type": "occ",
				"energy": -0.23263,
				"method": "rhf"
			},
			{
				"type": "occ",
				"energy": -0.20985,
				"method": "rhf"
			},
			{
				"type": "unocc",
				"energy": -0.01434,
				"method": "rhf"
			},
			{
				"type": "unocc",
				"energy": 0.00562,
				"method": "rhf"
			},
			{
				"type": "unocc",
				"energy": 0.04567,
				"method": "rhf"
			},
			{
				"type": "unocc",
				"energy": 0.08293,
				"method": "rhf"
			},
			{
				"type": "unocc",
				"energy": 0.08951,
				"method": "rhf"
			}
		],
		"cosmo_sigma_profile": { 
			"-0.025": 0.0,
			"-0.024": 0.0,
			"-0.023": 0.0,
			"-0.022": 0.0,
			"-0.021": 0.0,
			"-0.02": 0.0,
			"-0.019": 0.0,
			"-0.018": 0.0,
			"-0.017": 0.0,
			"-0.016": 0.0,
			"-0.015": 0.0,
			"-0.014": 0.0,
			"-0.013": 0.0,
			"-0.012": 0.0,
			"-0.011": 0.0,
			"-0.01": 0.0,
			"-0.009": 0.0,
			"-0.008": 0.717585666341,
			"-0.007": 2.31068834834,
			"-0.006": 5.71073243688,
			"-0.005": 18.2253866261,
			"-0.004": 26.1244459265,
			"-0.003": 29.1633067859,
			"-0.002": 27.697828575,
			"-0.001": 22.4015710873,
			"0.0": 23.5697616788,
			"0.001": 22.784455939,
			"0.002": 14.7430542092,
			"0.003": 17.0773733104,
			"0.004": 17.3657560421,
			"0.005": 12.0075243982,
			"0.006": 11.6920652581,
			"0.007": 5.68648658384,
			"0.008": 2.62385071045,
			"0.009": 1.71297152539,
			"0.01": 1.089600489,
			"0.011": 1.12266685802,
			"0.012": 1.13435046016,
			"0.013": 0.0520351468451,
			"0.014": 0.0,
			"0.015": 0.0,
			"0.016": 0.0,
			"0.017": 0.0,
			"0.018": 0.0,
			"0.019": 0.0,
			"0.02": 0.0,
			"0.021": 0.0,
			"0.022": 0.0,
			"0.023": 0.0,
			"0.024": 0.0,
			"0.025": 0.0
		}
	}
}
