{
	 "smiles": "CCC1=NNC2=CC(=NN12)C1=CC=CC=C1", 
	 "Tm": 462.15, 
	 "num_atms": 28, 
	 "gaussian": { 
		 "optdone": 1, 
		 "sigma_profile": "yes", 
		 "theory": "DFT", 
		 "functional": "B3LYP", 
		 "basiset": "6-31G**", 
		 "properties": { 
			 "R2extent": 4859.7274, 
			 "electric_dipole_moment_norm": 1.75503485435, 
			 "electric_quadrupole_moment_norm": 10.3828947572, 
			 "total_energy": -683.476312258, 
			 "HOMO_LUMO_gap": 0.18196, 
			 "cosmo_polarized_energy": -12.48, 
			 "cosmo_cavitation_energy": 31.97, 
			 "cosmo_dispersion_energy": -23.57, 
			 "cosmo_repulsion_energy": 1.84, 
			 "cosmo_total_nonelectrostatic_energy": 10.23, 
			 "SMD_solvation_energy": 3.64 
		},
		"coords": [
			{
				"x": -1.3879661623,
				"y": 0.5426256567,
				"z": 3.6793437283,
				"element": "C" 
			},
			{
				"x": -1.1158371129,
				"y": -0.9626841955,
				"z": 3.8494991917,
				"element": "C" 
			},
			{
				"x": -1.3533433923,
				"y": -1.7430781406,
				"z": 2.6009722014,
				"element": "C" 
			},
			{
				"x": -2.255898334,
				"y": -2.6804483229,
				"z": 2.4344908496,
				"element": "N" 
			},
			{
				"x": -2.1212738633,
				"y": -3.1118364981,
				"z": 1.1306495427,
				"element": "N" 
			},
			{
				"x": -1.1259820494,
				"y": -2.440886075,
				"z": 0.4850857602,
				"element": "C" 
			},
			{
				"x": -0.3862411694,
				"y": -2.2387788427,
				"z": -0.671485599,
				"element": "C" 
			},
			{
				"x": 0.5251123315,
				"y": -1.2055052935,
				"z": -0.2981463221,
				"element": "C" 
			},
			{
				"x": 0.3731023663,
				"y": -0.7940337866,
				"z": 0.9785085896,
				"element": "N" 
			},
			{
				"x": -0.6442403754,
				"y": -1.5692659204,
				"z": 1.4271712868,
				"element": "N" 
			},
			{
				"x": 1.56294987,
				"y": -0.5876436036,
				"z": -1.1423613601,
				"element": "C" 
			},
			{
				"x": 1.6842634063,
				"y": -0.912397491,
				"z": -2.5026563246,
				"element": "C" 
			},
			{
				"x": 2.6715671935,
				"y": -0.3228939224,
				"z": -3.2909391341,
				"element": "C" 
			},
			{
				"x": 3.5549908771,
				"y": 0.6038081638,
				"z": -2.7349207332,
				"element": "C" 
			},
			{
				"x": 3.4414202882,
				"y": 0.9360169454,
				"z": -1.382336578,
				"element": "C" 
			},
			{
				"x": 2.4570955883,
				"y": 0.3473943994,
				"z": -0.5928808059,
				"element": "C" 
			},
			{
				"x": -0.7543567056,
				"y": 0.9632178624,
				"z": 2.8940710525,
				"element": "H" 
			},
			{
				"x": -2.4337795933,
				"y": 0.7231816036,
				"z": 3.4130205765,
				"element": "H" 
			},
			{
				"x": -1.1770775692,
				"y": 1.0723032506,
				"z": 4.6129960355,
				"element": "H" 
			},
			{
				"x": -1.7544128293,
				"y": -1.3917275869,
				"z": 4.6263157182,
				"element": "H" 
			},
			{
				"x": -0.0741667175,
				"y": -1.111489583,
				"z": 4.1604582534,
				"element": "H" 
			},
			{
				"x": -2.7125653412,
				"y": -3.8508737376,
				"z": 0.7930466895,
				"element": "H" 
			},
			{
				"x": -0.4719556676,
				"y": -2.7485138812,
				"z": -1.6162675246,
				"element": "H" 
			},
			{
				"x": 1.0004412993,
				"y": -1.62561747,
				"z": -2.9525065892,
				"element": "H" 
			},
			{
				"x": 2.7486860607,
				"y": -0.587078037,
				"z": -4.3419336715,
				"element": "H" 
			},
			{
				"x": 4.3240292052,
				"y": 1.063214087,
				"z": -3.3492817118,
				"element": "H" 
			},
			{
				"x": 4.1244145431,
				"y": 1.6562188499,
				"z": -0.9403431857,
				"element": "H" 
			},
			{
				"x": 2.3659238532,
				"y": 0.6000715691,
				"z": 0.4577300638,
				"element": "H" 
			}
		],
		 "valence_orbital": [ 
			{
				"type": "occ",
				"energy": -0.28852,
				"method": "rhf"
			},
			{
				"type": "occ",
				"energy": -0.27606,
				"method": "rhf"
			},
			{
				"type": "occ",
				"energy": -0.2447,
				"method": "rhf"
			},
			{
				"type": "occ",
				"energy": -0.21724,
				"method": "rhf"
			},
			{
				"type": "occ",
				"energy": -0.20732,
				"method": "rhf"
			},
			{
				"type": "unocc",
				"energy": -0.02536,
				"method": "rhf"
			},
			{
				"type": "unocc",
				"energy": 0.00566,
				"method": "rhf"
			},
			{
				"type": "unocc",
				"energy": 0.02211,
				"method": "rhf"
			},
			{
				"type": "unocc",
				"energy": 0.05743,
				"method": "rhf"
			},
			{
				"type": "unocc",
				"energy": 0.07277,
				"method": "rhf"
			}
		],
		"cosmo_sigma_profile": { 
			"-0.025": 0.0,
			"-0.024": 0.0,
			"-0.023": 0.0,
			"-0.022": 0.0,
			"-0.021": 0.0,
			"-0.02": 0.0,
			"-0.019": 0.0,
			"-0.018": 0.15803126135,
			"-0.017": 1.7085221751,
			"-0.016": 1.64074041164,
			"-0.015": 0.683667082516,
			"-0.014": 0.881911341843,
			"-0.013": 0.965782040355,
			"-0.012": 1.03689313753,
			"-0.011": 1.42032092602,
			"-0.01": 0.864201030032,
			"-0.009": 0.557905728779,
			"-0.008": 1.79170878364,
			"-0.007": 3.29913289737,
			"-0.006": 8.21428176901,
			"-0.005": 14.6409641578,
			"-0.004": 18.3240540986,
			"-0.003": 21.5814342746,
			"-0.002": 23.2445456393,
			"-0.001": 21.3902311764,
			"0.0": 19.0824388995,
			"0.001": 17.7148121576,
			"0.002": 13.4076631519,
			"0.003": 16.0313708628,
			"0.004": 20.3533608267,
			"0.005": 18.4653686272,
			"0.006": 10.0243878917,
			"0.007": 3.32832881948,
			"0.008": 3.36063336203,
			"0.009": 2.88644521946,
			"0.01": 2.61323590151,
			"0.011": 2.27767129313,
			"0.012": 1.59595786104,
			"0.013": 0.936992787369,
			"0.014": 1.04001965736,
			"0.015": 0.0738720063607,
			"0.016": 0.0,
			"0.017": 0.0,
			"0.018": 0.0,
			"0.019": 0.0,
			"0.02": 0.0,
			"0.021": 0.0,
			"0.022": 0.0,
			"0.023": 0.0,
			"0.024": 0.0,
			"0.025": 0.0
		}
	}
}
