{
	 "smiles": "CC1=NN2C(N1)=C1C=CC=CC1=NC2=S", 
	 "Tm": 565.15, 
	 "num_atms": 23, 
	 "gaussian": { 
		 "optdone": 1, 
		 "sigma_profile": "yes", 
		 "theory": "DFT", 
		 "functional": "B3LYP", 
		 "basiset": "6-31G**", 
		 "properties": { 
			 "R2extent": 4382.8547, 
			 "electric_dipole_moment_norm": 11.6549657447, 
			 "electric_quadrupole_moment_norm": 33.4705109395, 
			 "total_energy": -1003.06021209, 
			 "HOMO_LUMO_gap": 0.11023, 
			 "cosmo_polarized_energy": -41.8, 
			 "cosmo_cavitation_energy": 29.34, 
			 "cosmo_dispersion_energy": -22.35, 
			 "cosmo_repulsion_energy": 1.69, 
			 "cosmo_total_nonelectrostatic_energy": 8.67, 
			 "SMD_solvation_energy": 1.47 
		},
		"coords": [
			{
				"x": 2.9616826213,
				"y": -1.2589142925,
				"z": 1.6949888574,
				"element": "C" 
			},
			{
				"x": 1.7639227874,
				"y": -0.4042058714,
				"z": 1.4700178915,
				"element": "C" 
			},
			{
				"x": 1.6278603678,
				"y": 0.8224796936,
				"z": 1.8875555065,
				"element": "N" 
			},
			{
				"x": 0.3834338659,
				"y": 1.2139031424,
				"z": 1.4589499239,
				"element": "N" 
			},
			{
				"x": -0.2413548855,
				"y": 0.2265012779,
				"z": 0.7792516395,
				"element": "C" 
			},
			{
				"x": 0.6362713908,
				"y": -0.8170966139,
				"z": 0.7800103246,
				"element": "N" 
			},
			{
				"x": -1.5301872035,
				"y": 0.3957943985,
				"z": 0.2427882126,
				"element": "C" 
			},
			{
				"x": -2.2559345714,
				"y": -0.5815157329,
				"z": -0.4804166609,
				"element": "C" 
			},
			{
				"x": -3.5139165344,
				"y": -0.2840564816,
				"z": -0.9518124644,
				"element": "C" 
			},
			{
				"x": -4.0713297297,
				"y": 1.0001735774,
				"z": -0.7079543616,
				"element": "C" 
			},
			{
				"x": -3.3814669481,
				"y": 1.9616162907,
				"z": -0.0077734285,
				"element": "C" 
			},
			{
				"x": -2.0731376339,
				"y": 1.7014521288,
				"z": 0.5015651015,
				"element": "C" 
			},
			{
				"x": -1.4353283936,
				"y": 2.6739248679,
				"z": 1.1816960504,
				"element": "N" 
			},
			{
				"x": -0.2109203398,
				"y": 2.5311744144,
				"z": 1.6978936144,
				"element": "C" 
			},
			{
				"x": 0.6596466414,
				"y": 3.6656332962,
				"z": 2.5500132125,
				"element": "S" 
			},
			{
				"x": 3.6948898056,
				"y": -0.685374649,
				"z": 2.2624991588,
				"element": "H" 
			},
			{
				"x": 3.4126910873,
				"y": -1.5672443214,
				"z": 0.7458666137,
				"element": "H" 
			},
			{
				"x": 2.7046785222,
				"y": -2.1607894155,
				"z": 2.2606006204,
				"element": "H" 
			},
			{
				"x": 0.4783591709,
				"y": -1.7189055312,
				"z": 0.3553052682,
				"element": "H" 
			},
			{
				"x": -1.8222642822,
				"y": -1.5623766351,
				"z": -0.6630127677,
				"element": "H" 
			},
			{
				"x": -4.0801631372,
				"y": -1.024227708,
				"z": -1.5073496167,
				"element": "H" 
			},
			{
				"x": -5.0654519488,
				"y": 1.2229787634,
				"z": -1.0852339702,
				"element": "H" 
			},
			{
				"x": -3.7992806524,
				"y": 2.9440754012,
				"z": 0.1827512739,
				"element": "H" 
			}
		],
		 "valence_orbital": [ 
			{
				"type": "occ",
				"energy": -0.27127,
				"method": "rhf"
			},
			{
				"type": "occ",
				"energy": -0.25962,
				"method": "rhf"
			},
			{
				"type": "occ",
				"energy": -0.25234,
				"method": "rhf"
			},
			{
				"type": "occ",
				"energy": -0.18171,
				"method": "rhf"
			},
			{
				"type": "occ",
				"energy": -0.17857,
				"method": "rhf"
			},
			{
				"type": "unocc",
				"energy": -0.06834,
				"method": "rhf"
			},
			{
				"type": "unocc",
				"energy": -0.03762,
				"method": "rhf"
			},
			{
				"type": "unocc",
				"energy": -0.01096,
				"method": "rhf"
			},
			{
				"type": "unocc",
				"energy": 0.0189,
				"method": "rhf"
			},
			{
				"type": "unocc",
				"energy": 0.02193,
				"method": "rhf"
			}
		],
		"cosmo_sigma_profile": { 
			"-0.025": 0.0,
			"-0.024": 0.0,
			"-0.023": 0.0,
			"-0.022": 0.0,
			"-0.021": 0.0,
			"-0.02": 0.107476650159,
			"-0.019": 1.07075378009,
			"-0.018": 1.98187741127,
			"-0.017": 1.73844094981,
			"-0.016": 2.15670959944,
			"-0.015": 1.81424935177,
			"-0.014": 1.47567478847,
			"-0.013": 1.42260856518,
			"-0.012": 1.31004735938,
			"-0.011": 1.61347429235,
			"-0.01": 1.80740346579,
			"-0.009": 2.96421747488,
			"-0.008": 4.86615985618,
			"-0.007": 12.751165838,
			"-0.006": 19.7010017338,
			"-0.005": 20.6904087215,
			"-0.004": 16.3498911267,
			"-0.003": 13.9809313543,
			"-0.002": 10.1844653128,
			"-0.001": 8.97046304514,
			"0.0": 8.89860232724,
			"0.001": 10.0874774928,
			"0.002": 12.8931149887,
			"0.003": 13.4158517482,
			"0.004": 6.01893961877,
			"0.005": 4.04977363679,
			"0.006": 4.31802155147,
			"0.007": 4.35571792927,
			"0.008": 3.9893397913,
			"0.009": 4.83146233995,
			"0.01": 6.18674364225,
			"0.011": 8.51873194715,
			"0.012": 6.14630732227,
			"0.013": 4.61397871409,
			"0.014": 4.64161253754,
			"0.015": 3.30277967119,
			"0.016": 3.67537957025,
			"0.017": 1.84266658376,
			"0.018": 0.323972709884,
			"0.019": 0.0,
			"0.02": 0.0,
			"0.021": 0.0,
			"0.022": 0.0,
			"0.023": 0.0,
			"0.024": 0.0,
			"0.025": 0.0
		}
	}
}
