{
	 "smiles": "COC1=CC=C(NC2=NC(=CS2)C(O)=O)C=C1", 
	 "Tm": 513.15, 
	 "num_atms": 27, 
	 "gaussian": { 
		 "optdone": 1, 
		 "sigma_profile": "yes", 
		 "theory": "DFT", 
		 "functional": "B3LYP", 
		 "basiset": "6-31G**", 
		 "properties": { 
			 "R2extent": 8210.4081, 
			 "electric_dipole_moment_norm": 6.7531080326, 
			 "electric_quadrupole_moment_norm": 36.8825187783, 
			 "total_energy": -1158.53932092, 
			 "HOMO_LUMO_gap": 0.16211, 
			 "cosmo_polarized_energy": -22.74, 
			 "cosmo_cavitation_energy": 34.02, 
			 "cosmo_dispersion_energy": -25.48, 
			 "cosmo_repulsion_energy": 1.93, 
			 "cosmo_total_nonelectrostatic_energy": 10.47, 
			 "SMD_solvation_energy": 6.14 
		},
		"coords": [
			{
				"x": 0.6690593692,
				"y": 3.8182601634,
				"z": 3.2694791023,
				"element": "C" 
			},
			{
				"x": 0.8417547514,
				"y": 3.7176706532,
				"z": 1.8644800035,
				"element": "O" 
			},
			{
				"x": 0.1888275156,
				"y": 2.7192778224,
				"z": 1.2038410946,
				"element": "C" 
			},
			{
				"x": -0.6531485707,
				"y": 1.7772351598,
				"z": 1.8071317426,
				"element": "C" 
			},
			{
				"x": -1.2559779034,
				"y": 0.7869784657,
				"z": 1.0303450446,
				"element": "C" 
			},
			{
				"x": -1.053059992,
				"y": 0.7307801384,
				"z": -0.352001784,
				"element": "C" 
			},
			{
				"x": -1.7215713938,
				"y": -0.2622234565,
				"z": -1.1037629992,
				"element": "N" 
			},
			{
				"x": -1.2475091918,
				"y": -1.0360033912,
				"z": -2.1248696244,
				"element": "C" 
			},
			{
				"x": -1.9932546124,
				"y": -1.934361951,
				"z": -2.7096718065,
				"element": "N" 
			},
			{
				"x": -1.2817188661,
				"y": -2.6044952556,
				"z": -3.6761628621,
				"element": "C" 
			},
			{
				"x": 0.0220870223,
				"y": -2.2222999477,
				"z": -3.8467086034,
				"element": "C" 
			},
			{
				"x": 0.4235154253,
				"y": -0.9476585655,
				"z": -2.7282493944,
				"element": "S" 
			},
			{
				"x": -1.9454032235,
				"y": -3.7223201589,
				"z": -4.4188748206,
				"element": "C" 
			},
			{
				"x": -1.4349407963,
				"y": -3.9746391441,
				"z": -5.6582015868,
				"element": "O" 
			},
			{
				"x": -2.8444317248,
				"y": -4.3885051688,
				"z": -3.9748345813,
				"element": "O" 
			},
			{
				"x": -0.2315567571,
				"y": 1.6974845493,
				"z": -0.9550552833,
				"element": "C" 
			},
			{
				"x": 0.3935133971,
				"y": 2.6673188581,
				"z": -0.1825961415,
				"element": "C" 
			},
			{
				"x": -0.3801167031,
				"y": 3.9993524347,
				"z": 3.5368243635,
				"element": "H" 
			},
			{
				"x": 1.0206648347,
				"y": 2.9159948105,
				"z": 3.7863839448,
				"element": "H" 
			},
			{
				"x": 1.2715116744,
				"y": 4.6705255078,
				"z": 3.5868320418,
				"element": "H" 
			},
			{
				"x": -0.8365584519,
				"y": 1.7926343079,
				"z": 2.8746574266,
				"element": "H" 
			},
			{
				"x": -1.8884572592,
				"y": 0.0443010987,
				"z": 1.5091305811,
				"element": "H" 
			},
			{
				"x": -2.6193906045,
				"y": -0.5824379677,
				"z": -0.7647011922,
				"element": "H" 
			},
			{
				"x": 0.7790135381,
				"y": -2.6338339585,
				"z": -4.4993887159,
				"element": "H" 
			},
			{
				"x": -0.8676563581,
				"y": -3.2384276267,
				"z": -5.9282357995,
				"element": "H" 
			},
			{
				"x": -0.0985920645,
				"y": 1.7063960493,
				"z": -2.0312194152,
				"element": "H" 
			},
			{
				"x": 1.0326969451,
				"y": 3.4150965732,
				"z": -0.639970735,
				"element": "H" 
			}
		],
		 "valence_orbital": [ 
			{
				"type": "occ",
				"energy": -0.2858,
				"method": "rhf"
			},
			{
				"type": "occ",
				"energy": -0.26933,
				"method": "rhf"
			},
			{
				"type": "occ",
				"energy": -0.26544,
				"method": "rhf"
			},
			{
				"type": "occ",
				"energy": -0.24688,
				"method": "rhf"
			},
			{
				"type": "occ",
				"energy": -0.20532,
				"method": "rhf"
			},
			{
				"type": "unocc",
				"energy": -0.04321,
				"method": "rhf"
			},
			{
				"type": "unocc",
				"energy": -0.02354,
				"method": "rhf"
			},
			{
				"type": "unocc",
				"energy": -0.00838,
				"method": "rhf"
			},
			{
				"type": "unocc",
				"energy": 0.00899,
				"method": "rhf"
			},
			{
				"type": "unocc",
				"energy": 0.02503,
				"method": "rhf"
			}
		],
		"cosmo_sigma_profile": { 
			"-0.025": 0.0,
			"-0.024": 0.0,
			"-0.023": 0.0,
			"-0.022": 0.0,
			"-0.021": 0.0,
			"-0.02": 0.0,
			"-0.019": 0.0,
			"-0.018": 0.62996057749,
			"-0.017": 1.12925201926,
			"-0.016": 1.2817434943,
			"-0.015": 1.7104327703,
			"-0.014": 2.13000284589,
			"-0.013": 2.17793268692,
			"-0.012": 2.36538029399,
			"-0.011": 2.81165883223,
			"-0.01": 3.54192258731,
			"-0.009": 2.99770734652,
			"-0.008": 3.45092090359,
			"-0.007": 6.09062178623,
			"-0.006": 15.0965433544,
			"-0.005": 19.3965711744,
			"-0.004": 18.190137623,
			"-0.003": 17.2593850417,
			"-0.002": 12.2318570489,
			"-0.001": 15.7825077368,
			"0.0": 19.327179117,
			"0.001": 20.4929118641,
			"0.002": 17.5090215346,
			"0.003": 18.1628589931,
			"0.004": 15.4033857447,
			"0.005": 9.17301367414,
			"0.006": 5.13281959349,
			"0.007": 3.41635604703,
			"0.008": 5.33025442179,
			"0.009": 5.47057226349,
			"0.01": 7.51305860956,
			"0.011": 7.44519788228,
			"0.012": 5.27034090729,
			"0.013": 3.2681541207,
			"0.014": 2.07342429734,
			"0.015": 1.00554397696,
			"0.016": 0.112788014227,
			"0.017": 0.0,
			"0.018": 0.0,
			"0.019": 0.0,
			"0.02": 0.0,
			"0.021": 0.0,
			"0.022": 0.0,
			"0.023": 0.0,
			"0.024": 0.0,
			"0.025": 0.0
		}
	}
}
