{
	 "smiles": "CC1=C(C)C2=C(S1)N=CN=C2NCC(O)=O", 
	 "Tm": 518.15, 
	 "num_atms": 27, 
	 "gaussian": { 
		 "optdone": 1, 
		 "sigma_profile": "yes", 
		 "theory": "DFT", 
		 "functional": "B3LYP", 
		 "basiset": "6-31G**", 
		 "properties": { 
			 "R2extent": 5030.3102, 
			 "electric_dipole_moment_norm": 5.9209574952, 
			 "electric_quadrupole_moment_norm": 25.2919557439, 
			 "total_energy": -1100.60776149, 
			 "HOMO_LUMO_gap": 0.18397, 
			 "cosmo_polarized_energy": -20.18, 
			 "cosmo_cavitation_energy": 32.29, 
			 "cosmo_dispersion_energy": -24.01, 
			 "cosmo_repulsion_energy": 1.82, 
			 "cosmo_total_nonelectrostatic_energy": 10.09, 
			 "SMD_solvation_energy": 3.99 
		},
		"coords": [
			{
				"x": -3.6039117171,
				"y": 0.1160290509,
				"z": 2.5030956517,
				"element": "C" 
			},
			{
				"x": -2.8142702163,
				"y": -0.0478368493,
				"z": 1.2374873045,
				"element": "C" 
			},
			{
				"x": -1.6629453424,
				"y": 0.5786511845,
				"z": 0.8394168498,
				"element": "C" 
			},
			{
				"x": -0.9350145572,
				"y": 1.6105736115,
				"z": 1.6642828223,
				"element": "C" 
			},
			{
				"x": -1.2285236121,
				"y": 0.1270886908,
				"z": -0.4722224869,
				"element": "C" 
			},
			{
				"x": -2.0855231869,
				"y": -0.846250815,
				"z": -1.0261403537,
				"element": "C" 
			},
			{
				"x": -3.4167796685,
				"y": -1.2031955198,
				"z": 0.0485565362,
				"element": "S" 
			},
			{
				"x": -1.9390165931,
				"y": -1.4468287571,
				"z": -2.2119783499,
				"element": "N" 
			},
			{
				"x": -0.8648142972,
				"y": -1.0437874125,
				"z": -2.8820124763,
				"element": "C" 
			},
			{
				"x": 0.0374077931,
				"y": -0.1309124264,
				"z": -2.4947050955,
				"element": "N" 
			},
			{
				"x": -0.1265997206,
				"y": 0.459099057,
				"z": -1.3085678335,
				"element": "C" 
			},
			{
				"x": 0.8504344087,
				"y": 1.3701054526,
				"z": -0.9195314548,
				"element": "N" 
			},
			{
				"x": 1.792969693,
				"y": 1.9417343259,
				"z": -1.8786269842,
				"element": "C" 
			},
			{
				"x": 3.2491275295,
				"y": 1.8623000782,
				"z": -1.4074714744,
				"element": "C" 
			},
			{
				"x": 3.4877067635,
				"y": 0.9509250517,
				"z": -0.4430333221,
				"element": "O" 
			},
			{
				"x": 4.1202196362,
				"y": 2.5461731985,
				"z": -1.8837254183,
				"element": "O" 
			},
			{
				"x": -4.6125017377,
				"y": 0.4922056991,
				"z": 2.296489598,
				"element": "H" 
			},
			{
				"x": -3.7141213673,
				"y": -0.8388331436,
				"z": 3.0291701546,
				"element": "H" 
			},
			{
				"x": -3.1238928055,
				"y": 0.8173642287,
				"z": 3.1879664221,
				"element": "H" 
			},
			{
				"x": 0.1067496153,
				"y": 1.3223799517,
				"z": 1.8476499064,
				"element": "H" 
			},
			{
				"x": -0.9370725549,
				"y": 2.5963019989,
				"z": 1.1794932957,
				"element": "H" 
			},
			{
				"x": -1.3998151904,
				"y": 1.7481743338,
				"z": 2.6414252481,
				"element": "H" 
			},
			{
				"x": -0.6943644844,
				"y": -1.5002997341,
				"z": -3.8544147466,
				"element": "H" 
			},
			{
				"x": 0.5795175496,
				"y": 1.9870199779,
				"z": -0.1684973586,
				"element": "H" 
			},
			{
				"x": 1.5701014388,
				"y": 2.9891483163,
				"z": -2.1040061549,
				"element": "H" 
			},
			{
				"x": 1.705995237,
				"y": 1.3713012943,
				"z": -2.8070406099,
				"element": "H" 
			},
			{
				"x": 2.6307373866,
				"y": 0.5447691553,
				"z": -0.2160596697,
				"element": "H" 
			}
		],
		 "valence_orbital": [ 
			{
				"type": "occ",
				"energy": -0.29035,
				"method": "rhf"
			},
			{
				"type": "occ",
				"energy": -0.27062,
				"method": "rhf"
			},
			{
				"type": "occ",
				"energy": -0.26692,
				"method": "rhf"
			},
			{
				"type": "occ",
				"energy": -0.26262,
				"method": "rhf"
			},
			{
				"type": "occ",
				"energy": -0.22767,
				"method": "rhf"
			},
			{
				"type": "unocc",
				"energy": -0.0437,
				"method": "rhf"
			},
			{
				"type": "unocc",
				"energy": -0.0301,
				"method": "rhf"
			},
			{
				"type": "unocc",
				"energy": 0.00885,
				"method": "rhf"
			},
			{
				"type": "unocc",
				"energy": 0.01267,
				"method": "rhf"
			},
			{
				"type": "unocc",
				"energy": 0.02017,
				"method": "rhf"
			}
		],
		"cosmo_sigma_profile": { 
			"-0.025": 0.0,
			"-0.024": 0.0,
			"-0.023": 0.0,
			"-0.022": 0.0,
			"-0.021": 0.0,
			"-0.02": 0.0,
			"-0.019": 0.0,
			"-0.018": 0.0,
			"-0.017": 0.0,
			"-0.016": 0.0,
			"-0.015": 0.0261155516036,
			"-0.014": 1.57016038785,
			"-0.013": 2.11419464854,
			"-0.012": 2.18613946366,
			"-0.011": 2.93787733643,
			"-0.01": 3.73026418639,
			"-0.009": 3.30377760458,
			"-0.008": 4.28975587331,
			"-0.007": 10.09540276,
			"-0.006": 11.5718268867,
			"-0.005": 15.7482753435,
			"-0.004": 16.2872204729,
			"-0.003": 17.7898219155,
			"-0.002": 18.3824031035,
			"-0.001": 21.3749068984,
			"0.0": 17.1294655277,
			"0.001": 18.4837083322,
			"0.002": 16.9445714082,
			"0.003": 15.2644350439,
			"0.004": 10.0658802699,
			"0.005": 5.50376542911,
			"0.006": 5.33234169915,
			"0.007": 5.58174967262,
			"0.008": 4.81838901935,
			"0.009": 5.22816920144,
			"0.01": 7.09338216169,
			"0.011": 5.27413312494,
			"0.012": 6.93054973906,
			"0.013": 3.25407112698,
			"0.014": 0.790792609492,
			"0.015": 0.81812868346,
			"0.016": 0.00488322798225,
			"0.017": 0.0,
			"0.018": 0.0,
			"0.019": 0.0,
			"0.02": 0.0,
			"0.021": 0.0,
			"0.022": 0.0,
			"0.023": 0.0,
			"0.024": 0.0,
			"0.025": 0.0
		}
	}
}
