{
	 "smiles": "C1C2CC3CC1CC(C2)(C3)SSC12CC3CC(CC(C3)C1)C2", 
	 "Tm": 499.15, 
	 "num_atms": 52, 
	 "gaussian": { 
		 "optdone": 1, 
		 "sigma_profile": "yes", 
		 "theory": "DFT", 
		 "functional": "B3LYP", 
		 "basiset": "6-31G**", 
		 "properties": { 
			 "R2extent": 9267.7233, 
			 "electric_dipole_moment_norm": 2.20773479386, 
			 "electric_quadrupole_moment_norm": 10.5708692623, 
			 "total_energy": -1576.65451031, 
			 "HOMO_LUMO_gap": 0.2034, 
			 "cosmo_polarized_energy": -5.03, 
			 "cosmo_cavitation_energy": 45.89, 
			 "cosmo_dispersion_energy": -34.27, 
			 "cosmo_repulsion_energy": 2.48, 
			 "cosmo_total_nonelectrostatic_energy": 14.1, 
			 "SMD_solvation_energy": 3.62 
		},
		"coords": [
			{
				"x": -2.4980502361,
				"y": -0.0047544732,
				"z": -3.5144159268,
				"element": "C" 
			},
			{
				"x": -2.4027428639,
				"y": 0.873806537,
				"z": -2.2502187377,
				"element": "C" 
			},
			{
				"x": -3.7696133778,
				"y": 0.9008656162,
				"z": -1.5364839892,
				"element": "C" 
			},
			{
				"x": -4.1686042547,
				"y": -0.5343691101,
				"z": -1.1376625041,
				"element": "C" 
			},
			{
				"x": -4.2633206109,
				"y": -1.4143524752,
				"z": -2.4010131136,
				"element": "C" 
			},
			{
				"x": -2.8954562978,
				"y": -1.4401191776,
				"z": -3.1136061154,
				"element": "C" 
			},
			{
				"x": -1.8255704516,
				"y": -2.025647841,
				"z": -2.1615463484,
				"element": "C" 
			},
			{
				"x": -1.7305246516,
				"y": -1.1434883224,
				"z": -0.8944229142,
				"element": "C" 
			},
			{
				"x": -1.3335450144,
				"y": 0.2862664863,
				"z": -1.2995318071,
				"element": "C" 
			},
			{
				"x": -3.1006957181,
				"y": -1.1215460175,
				"z": -0.1873025551,
				"element": "C" 
			},
			{
				"x": -0.4447015918,
				"y": -2.0017965441,
				"z": 0.1668971183,
				"element": "S" 
			},
			{
				"x": -0.3325359927,
				"y": -0.9238434131,
				"z": 1.9546171855,
				"element": "S" 
			},
			{
				"x": 1.3383003355,
				"y": -0.0729106715,
				"z": 1.9644073951,
				"element": "C" 
			},
			{
				"x": 1.505042043,
				"y": 0.9628443664,
				"z": 0.8395731723,
				"element": "C" 
			},
			{
				"x": 2.8674703984,
				"y": 1.6794713034,
				"z": 0.989562792,
				"element": "C" 
			},
			{
				"x": 4.0076887803,
				"y": 0.6439814894,
				"z": 0.9107844653,
				"element": "C" 
			},
			{
				"x": 3.8420070155,
				"y": -0.388753429,
				"z": 2.0438493239,
				"element": "C" 
			},
			{
				"x": 3.8901283394,
				"y": 0.3292141346,
				"z": 3.408410905,
				"element": "C" 
			},
			{
				"x": 2.7491969021,
				"y": 1.3644449913,
				"z": 3.4853877644,
				"element": "C" 
			},
			{
				"x": 2.9166203834,
				"y": 2.3984620437,
				"z": 2.3534150073,
				"element": "C" 
			},
			{
				"x": 1.3869875472,
				"y": 0.646970056,
				"z": 3.3327998676,
				"element": "C" 
			},
			{
				"x": 2.4811920629,
				"y": -1.1057139499,
				"z": 1.8933239612,
				"element": "C" 
			},
			{
				"x": -3.2404460189,
				"y": 0.4104261998,
				"z": -4.208369552,
				"element": "H" 
			},
			{
				"x": -1.5358800853,
				"y": -0.0121209762,
				"z": -4.0431802504,
				"element": "H" 
			},
			{
				"x": -2.1096832315,
				"y": 1.8939023089,
				"z": -2.5293185378,
				"element": "H" 
			},
			{
				"x": -3.7177566885,
				"y": 1.5394859798,
				"z": -0.6451478681,
				"element": "H" 
			},
			{
				"x": -4.531198712,
				"y": 1.3351611904,
				"z": -2.1972778173,
				"element": "H" 
			},
			{
				"x": -5.1371993305,
				"y": -0.5207970718,
				"z": -0.6221848598,
				"element": "H" 
			},
			{
				"x": -5.0319129091,
				"y": -1.0218205547,
				"z": -3.079500182,
				"element": "H" 
			},
			{
				"x": -4.5673777936,
				"y": -2.4335645442,
				"z": -2.1292960231,
				"element": "H" 
			},
			{
				"x": -2.9545866218,
				"y": -2.0726418963,
				"z": -4.008266368,
				"element": "H" 
			},
			{
				"x": -0.8525380261,
				"y": -2.0637699377,
				"z": -2.6671909446,
				"element": "H" 
			},
			{
				"x": -2.0896895982,
				"y": -3.0538344345,
				"z": -1.8850009754,
				"element": "H" 
			},
			{
				"x": -1.2408151788,
				"y": 0.9101832226,
				"z": -0.4038250227,
				"element": "H" 
			},
			{
				"x": -0.3554169212,
				"y": 0.2747516823,
				"z": -1.7948588506,
				"element": "H" 
			},
			{
				"x": -3.3757004854,
				"y": -2.1394954608,
				"z": 0.1129476007,
				"element": "H" 
			},
			{
				"x": -3.0334506285,
				"y": -0.5203164103,
				"z": 0.7269003751,
				"element": "H" 
			},
			{
				"x": 1.4463460595,
				"y": 0.4626781272,
				"z": -0.1333577784,
				"element": "H" 
			},
			{
				"x": 0.6891059766,
				"y": 1.6939512064,
				"z": 0.8832773749,
				"element": "H" 
			},
			{
				"x": 2.9754821128,
				"y": 2.4127710551,
				"z": 0.1802574871,
				"element": "H" 
			},
			{
				"x": 4.9798048434,
				"y": 1.1468841575,
				"z": 0.9965545468,
				"element": "H" 
			},
			{
				"x": 3.993305431,
				"y": 0.1399467947,
				"z": -0.0642757665,
				"element": "H" 
			},
			{
				"x": 4.6463982509,
				"y": -1.1330260123,
				"z": 1.9882896829,
				"element": "H" 
			},
			{
				"x": 4.8588359937,
				"y": 0.8287625675,
				"z": 3.539670693,
				"element": "H" 
			},
			{
				"x": 3.7941449353,
				"y": -0.4007544,
				"z": 4.222653293,
				"element": "H" 
			},
			{
				"x": 2.7728916769,
				"y": 1.8715505262,
				"z": 4.4581661909,
				"element": "H" 
			},
			{
				"x": 2.1226152932,
				"y": 3.154555849,
				"z": 2.4110784931,
				"element": "H" 
			},
			{
				"x": 3.8710932853,
				"y": 2.9286218705,
				"z": 2.4674279983,
				"element": "H" 
			},
			{
				"x": 1.2504368899,
				"y": -0.0784457115,
				"z": 4.1443301861,
				"element": "H" 
			},
			{
				"x": 0.5685779239,
				"y": 1.3742380753,
				"z": 3.4044910193,
				"element": "H" 
			},
			{
				"x": 2.436182632,
				"y": -1.6391316141,
				"z": 0.9365886474,
				"element": "H" 
			},
			{
				"x": 2.3529581789,
				"y": -1.8510833884,
				"z": 2.6869922622,
				"element": "H" 
			}
		],
		 "valence_orbital": [ 
			{
				"type": "occ",
				"energy": -0.28149,
				"method": "rhf"
			},
			{
				"type": "occ",
				"energy": -0.2797,
				"method": "rhf"
			},
			{
				"type": "occ",
				"energy": -0.27856,
				"method": "rhf"
			},
			{
				"type": "occ",
				"energy": -0.23524,
				"method": "rhf"
			},
			{
				"type": "occ",
				"energy": -0.21252,
				"method": "rhf"
			},
			{
				"type": "unocc",
				"energy": -0.00912,
				"method": "rhf"
			},
			{
				"type": "unocc",
				"energy": 0.0341,
				"method": "rhf"
			},
			{
				"type": "unocc",
				"energy": 0.05063,
				"method": "rhf"
			},
			{
				"type": "unocc",
				"energy": 0.0813,
				"method": "rhf"
			},
			{
				"type": "unocc",
				"energy": 0.08157,
				"method": "rhf"
			}
		],
		"cosmo_sigma_profile": { 
			"-0.025": 0.0,
			"-0.024": 0.0,
			"-0.023": 0.0,
			"-0.022": 0.0,
			"-0.021": 0.0,
			"-0.02": 0.0,
			"-0.019": 0.0,
			"-0.018": 0.0,
			"-0.017": 0.0,
			"-0.016": 0.0,
			"-0.015": 0.0,
			"-0.014": 0.0,
			"-0.013": 0.0,
			"-0.012": 0.0,
			"-0.011": 0.0,
			"-0.01": 0.0,
			"-0.009": 0.0,
			"-0.008": 0.0,
			"-0.007": 0.0,
			"-0.006": 0.0,
			"-0.005": 0.0,
			"-0.004": 0.0406247245661,
			"-0.003": 15.8394130785,
			"-0.002": 86.2775025804,
			"-0.001": 78.4350090402,
			"0.0": 75.3265913519,
			"0.001": 43.3335593361,
			"0.002": 13.5602257647,
			"0.003": 7.88307268149,
			"0.004": 5.85008784123,
			"0.005": 6.27294530464,
			"0.006": 7.93524729074,
			"0.007": 5.93485341487,
			"0.008": 3.33213482215,
			"0.009": 2.16139898033,
			"0.01": 1.48467222117,
			"0.011": 0.062543699089,
			"0.012": 0.0,
			"0.013": 0.0,
			"0.014": 0.0,
			"0.015": 0.0,
			"0.016": 0.0,
			"0.017": 0.0,
			"0.018": 0.0,
			"0.019": 0.0,
			"0.02": 0.0,
			"0.021": 0.0,
			"0.022": 0.0,
			"0.023": 0.0,
			"0.024": 0.0,
			"0.025": 0.0
		}
	}
}
