{
	 "smiles": "CC(=O)C1=CSC(=N1)C1=CC=C(OC(F)(F)F)C=C1", 
	 "Tm": 319.95, 
	 "num_atms": 27, 
	 "gaussian": { 
		 "optdone": 1, 
		 "sigma_profile": "yes", 
		 "theory": "DFT", 
		 "functional": "B3LYP", 
		 "basiset": "6-31G**", 
		 "properties": { 
			 "R2extent": 9256.5119, 
			 "electric_dipole_moment_norm": 1.64475170467, 
			 "electric_quadrupole_moment_norm": 20.4035606802, 
			 "total_energy": -1365.00928916, 
			 "HOMO_LUMO_gap": 0.1637, 
			 "cosmo_polarized_energy": -9.1, 
			 "cosmo_cavitation_energy": 35.75, 
			 "cosmo_dispersion_energy": -25.92, 
			 "cosmo_repulsion_energy": 1.87, 
			 "cosmo_total_nonelectrostatic_energy": 11.71, 
			 "SMD_solvation_energy": 7.33 
		},
		"coords": [
			{
				"x": -3.8158861948,
				"y": 2.3051831846,
				"z": -1.6937095704,
				"element": "C" 
			},
			{
				"x": -2.6729523044,
				"y": 3.1904626261,
				"z": -1.2473745747,
				"element": "C" 
			},
			{
				"x": -2.7419348874,
				"y": 4.4096187518,
				"z": -1.2560004417,
				"element": "O" 
			},
			{
				"x": -1.4268418277,
				"y": 2.5132891042,
				"z": -0.7821804341,
				"element": "C" 
			},
			{
				"x": -0.3200613199,
				"y": 3.2016695327,
				"z": -0.3513340473,
				"element": "C" 
			},
			{
				"x": 0.9216520949,
				"y": 2.1030634097,
				"z": 0.1062700885,
				"element": "S" 
			},
			{
				"x": -0.1506783119,
				"y": 0.7522263896,
				"z": -0.3205359178,
				"element": "C" 
			},
			{
				"x": -1.3166537652,
				"y": 1.141957507,
				"z": -0.7590686477,
				"element": "N" 
			},
			{
				"x": 0.2541580176,
				"y": -0.6518859664,
				"z": -0.1857766018,
				"element": "C" 
			},
			{
				"x": -0.6546987547,
				"y": -1.6637788914,
				"z": -0.5463161174,
				"element": "C" 
			},
			{
				"x": -0.3057981765,
				"y": -3.0014402412,
				"z": -0.432117748,
				"element": "C" 
			},
			{
				"x": 0.9597800686,
				"y": -3.3492182332,
				"z": 0.0452898392,
				"element": "C" 
			},
			{
				"x": 1.1872135099,
				"y": -4.7216195163,
				"z": 0.1126048424,
				"element": "O" 
			},
			{
				"x": 2.3690462236,
				"y": -5.2221598508,
				"z": 0.5547189056,
				"element": "C" 
			},
			{
				"x": 3.410325137,
				"y": -4.8296600241,
				"z": -0.2044799423,
				"element": "F" 
			},
			{
				"x": 2.2814693536,
				"y": -6.5487022081,
				"z": 0.5026545522,
				"element": "F" 
			},
			{
				"x": 2.6396747423,
				"y": -4.858408054,
				"z": 1.8232585385,
				"element": "F" 
			},
			{
				"x": 1.8817777009,
				"y": -2.3677565161,
				"z": 0.4105186179,
				"element": "C" 
			},
			{
				"x": 1.5177371946,
				"y": -1.0281056954,
				"z": 0.2905838299,
				"element": "C" 
			},
			{
				"x": -4.1214337873,
				"y": 1.6383214239,
				"z": -0.880704707,
				"element": "H" 
			},
			{
				"x": -4.6536208641,
				"y": 2.9306782847,
				"z": -2.0036068786,
				"element": "H" 
			},
			{
				"x": -3.4983897223,
				"y": 1.6605402863,
				"z": -2.5199392531,
				"element": "H" 
			},
			{
				"x": -0.2033574661,
				"y": 4.2738447867,
				"z": -0.292224959,
				"element": "H" 
			},
			{
				"x": -1.6334895507,
				"y": -1.3800193927,
				"z": -0.915403217,
				"element": "H" 
			},
			{
				"x": -0.9981588059,
				"y": -3.7896431221,
				"z": -0.7070845088,
				"element": "H" 
			},
			{
				"x": 2.8641964835,
				"y": -2.626136809,
				"z": 0.7814120907,
				"element": "H" 
			},
			{
				"x": 2.2426252124,
				"y": -0.2718207664,
				"z": 0.5775462619,
				"element": "H" 
			}
		],
		 "valence_orbital": [ 
			{
				"type": "occ",
				"energy": -0.2933,
				"method": "rhf"
			},
			{
				"type": "occ",
				"energy": -0.28574,
				"method": "rhf"
			},
			{
				"type": "occ",
				"energy": -0.27801,
				"method": "rhf"
			},
			{
				"type": "occ",
				"energy": -0.25223,
				"method": "rhf"
			},
			{
				"type": "occ",
				"energy": -0.23381,
				"method": "rhf"
			},
			{
				"type": "unocc",
				"energy": -0.07011,
				"method": "rhf"
			},
			{
				"type": "unocc",
				"energy": -0.04877,
				"method": "rhf"
			},
			{
				"type": "unocc",
				"energy": -0.02656,
				"method": "rhf"
			},
			{
				"type": "unocc",
				"energy": 0.00477,
				"method": "rhf"
			},
			{
				"type": "unocc",
				"energy": 0.02521,
				"method": "rhf"
			}
		],
		"cosmo_sigma_profile": { 
			"-0.025": 0.0,
			"-0.024": 0.0,
			"-0.023": 0.0,
			"-0.022": 0.0,
			"-0.021": 0.0,
			"-0.02": 0.0,
			"-0.019": 0.0,
			"-0.018": 0.0,
			"-0.017": 0.0,
			"-0.016": 0.0,
			"-0.015": 0.0,
			"-0.014": 0.0,
			"-0.013": 0.0,
			"-0.012": 0.0,
			"-0.011": 0.0519379623279,
			"-0.01": 1.11921406892,
			"-0.009": 1.60197941233,
			"-0.008": 4.45874846506,
			"-0.007": 7.57349407679,
			"-0.006": 9.99076723677,
			"-0.005": 14.27564835,
			"-0.004": 13.9261695551,
			"-0.003": 15.603941766,
			"-0.002": 19.2375335325,
			"-0.001": 32.407955328,
			"0.0": 34.6291043615,
			"0.001": 46.2804510043,
			"0.002": 44.5495214796,
			"0.003": 12.6600742895,
			"0.004": 5.32911129136,
			"0.005": 4.85721447326,
			"0.006": 3.92072686829,
			"0.007": 2.93972833427,
			"0.008": 2.82235857318,
			"0.009": 1.22753242534,
			"0.01": 2.28528379927,
			"0.011": 3.49308050318,
			"0.012": 3.53059063408,
			"0.013": 1.37616448968,
			"0.014": 0.0566528153872,
			"0.015": 0.0,
			"0.016": 0.0,
			"0.017": 0.0,
			"0.018": 0.0,
			"0.019": 0.0,
			"0.02": 0.0,
			"0.021": 0.0,
			"0.022": 0.0,
			"0.023": 0.0,
			"0.024": 0.0,
			"0.025": 0.0
		}
	}
}
