{
	 "smiles": "CC1=NN(C(N)=C1)C1=CC=C(F)C=C1", 
	 "Tm": 383.15, 
	 "num_atms": 24, 
	 "gaussian": { 
		 "optdone": 1, 
		 "sigma_profile": "yes", 
		 "theory": "DFT", 
		 "functional": "B3LYP", 
		 "basiset": "6-31G**", 
		 "properties": { 
			 "R2extent": 3383.6535, 
			 "electric_dipole_moment_norm": 3.21075351125, 
			 "electric_quadrupole_moment_norm": 8.08464430263, 
			 "total_energy": -651.164319887, 
			 "HOMO_LUMO_gap": 0.19048, 
			 "cosmo_polarized_energy": -11.65, 
			 "cosmo_cavitation_energy": 28.45, 
			 "cosmo_dispersion_energy": -20.87, 
			 "cosmo_repulsion_energy": 1.63, 
			 "cosmo_total_nonelectrostatic_energy": 9.21, 
			 "SMD_solvation_energy": 4.87 
		},
		"coords": [
			{
				"x": 2.8512389848,
				"y": 2.3336838738,
				"z": 1.9634273136,
				"element": "C" 
			},
			{
				"x": 2.1063632049,
				"y": 1.1171451838,
				"z": 1.5058643996,
				"element": "C" 
			},
			{
				"x": 0.8950083354,
				"y": 1.2358303304,
				"z": 0.9789143906,
				"element": "N" 
			},
			{
				"x": 0.5000580115,
				"y": -0.052697658,
				"z": 0.6935243632,
				"element": "N" 
			},
			{
				"x": 1.4808431934,
				"y": -0.9591688942,
				"z": 1.0150923435,
				"element": "C" 
			},
			{
				"x": 1.328470749,
				"y": -2.3348330224,
				"z": 0.8349920201,
				"element": "N" 
			},
			{
				"x": 2.5288741373,
				"y": -0.2370128146,
				"z": 1.5540566787,
				"element": "C" 
			},
			{
				"x": -0.7573657889,
				"y": -0.269467008,
				"z": 0.0774024444,
				"element": "C" 
			},
			{
				"x": -1.2565394723,
				"y": 0.701637524,
				"z": -0.8025867328,
				"element": "C" 
			},
			{
				"x": -2.4961153979,
				"y": 0.5236320307,
				"z": -1.4093078316,
				"element": "C" 
			},
			{
				"x": -3.2223856035,
				"y": -0.6322499127,
				"z": -1.1393990764,
				"element": "C" 
			},
			{
				"x": -4.4193026588,
				"y": -0.81095165,
				"z": -1.7378548258,
				"element": "F" 
			},
			{
				"x": -2.7508165929,
				"y": -1.6032827155,
				"z": -0.2657403076,
				"element": "C" 
			},
			{
				"x": -1.516089171,
				"y": -1.4146945275,
				"z": 0.3567660561,
				"element": "C" 
			},
			{
				"x": 2.2570369472,
				"y": 3.2282864635,
				"z": 1.7648949225,
				"element": "H" 
			},
			{
				"x": 3.0634817048,
				"y": 2.2906071514,
				"z": 3.0377194121,
				"element": "H" 
			},
			{
				"x": 3.8120749974,
				"y": 2.432103364,
				"z": 1.4455502983,
				"element": "H" 
			},
			{
				"x": 2.2148665094,
				"y": -2.8190443389,
				"z": 0.9029222591,
				"element": "H" 
			},
			{
				"x": 0.8575268401,
				"y": -2.5830368224,
				"z": -0.028694443,
				"element": "H" 
			},
			{
				"x": 3.4667680855,
				"y": -0.6312640338,
				"z": 1.9176694505,
				"element": "H" 
			},
			{
				"x": -0.6675888128,
				"y": 1.5920551592,
				"z": -0.9847560201,
				"element": "H" 
			},
			{
				"x": -2.9008700655,
				"y": 1.2635567061,
				"z": -2.0912673082,
				"element": "H" 
			},
			{
				"x": -3.3537576366,
				"y": -2.4816880323,
				"z": -0.0630043576,
				"element": "H" 
			},
			{
				"x": -1.1538805005,
				"y": -2.1442463566,
				"z": 1.071714551,
				"element": "H" 
			}
		],
		 "valence_orbital": [ 
			{
				"type": "occ",
				"energy": -0.27774,
				"method": "rhf"
			},
			{
				"type": "occ",
				"energy": -0.27189,
				"method": "rhf"
			},
			{
				"type": "occ",
				"energy": -0.26352,
				"method": "rhf"
			},
			{
				"type": "occ",
				"energy": -0.2162,
				"method": "rhf"
			},
			{
				"type": "occ",
				"energy": -0.20604,
				"method": "rhf"
			},
			{
				"type": "unocc",
				"energy": -0.01556,
				"method": "rhf"
			},
			{
				"type": "unocc",
				"energy": -0.0106,
				"method": "rhf"
			},
			{
				"type": "unocc",
				"energy": 0.04942,
				"method": "rhf"
			},
			{
				"type": "unocc",
				"energy": 0.07131,
				"method": "rhf"
			},
			{
				"type": "unocc",
				"energy": 0.08557,
				"method": "rhf"
			}
		],
		"cosmo_sigma_profile": { 
			"-0.025": 0.0,
			"-0.024": 0.0,
			"-0.023": 0.0,
			"-0.022": 0.0,
			"-0.021": 0.0,
			"-0.02": 0.0,
			"-0.019": 0.0,
			"-0.018": 0.0,
			"-0.017": 0.0,
			"-0.016": 0.0,
			"-0.015": 0.0,
			"-0.014": 0.211101263453,
			"-0.013": 1.42089434895,
			"-0.012": 2.92396701757,
			"-0.011": 2.53828114138,
			"-0.01": 2.67597989339,
			"-0.009": 2.51700340462,
			"-0.008": 3.36643105511,
			"-0.007": 6.36984169649,
			"-0.006": 9.34782091075,
			"-0.005": 10.1835902603,
			"-0.004": 13.1503764996,
			"-0.003": 14.3132045818,
			"-0.002": 14.8094076312,
			"-0.001": 15.0560824849,
			"0.0": 19.0890125529,
			"0.001": 18.744195747,
			"0.002": 16.4255624813,
			"0.003": 19.2871350413,
			"0.004": 19.7168088431,
			"0.005": 11.8303361662,
			"0.006": 6.63578534623,
			"0.007": 4.19218689256,
			"0.008": 2.00907600901,
			"0.009": 1.85848503021,
			"0.01": 2.41459262689,
			"0.011": 2.20518237065,
			"0.012": 1.25366973964,
			"0.013": 0.636314062322,
			"0.014": 1.13925922361,
			"0.015": 0.693888890498,
			"0.016": 0.229923116042,
			"0.017": 0.0,
			"0.018": 0.0,
			"0.019": 0.0,
			"0.02": 0.0,
			"0.021": 0.0,
			"0.022": 0.0,
			"0.023": 0.0,
			"0.024": 0.0,
			"0.025": 0.0
		}
	}
}
