{
	 "smiles": "CC1(C)OC(=O)C(=CC2=CC=C(O2)C2=CC=CC=C2[N+]([O-])=O)C(=O)O1", 
	 "Tm": 426.15, 
	 "num_atms": 38, 
	 "gaussian": { 
		 "optdone": 1, 
		 "sigma_profile": "yes", 
		 "theory": "DFT", 
		 "functional": "B3LYP", 
		 "basiset": "6-31G**", 
		 "properties": { 
			 "R2extent": 13407.568, 
			 "electric_dipole_moment_norm": 4.52285889234, 
			 "electric_quadrupole_moment_norm": 39.9877200184, 
			 "total_energy": -1236.85496228, 
			 "HOMO_LUMO_gap": 0.12076, 
			 "cosmo_polarized_energy": -18.32, 
			 "cosmo_cavitation_energy": 43.84, 
			 "cosmo_dispersion_energy": -31.4, 
			 "cosmo_repulsion_energy": 2.33, 
			 "cosmo_total_nonelectrostatic_energy": 14.77, 
			 "SMD_solvation_energy": 11.81 
		},
		"coords": [
			{
				"x": -3.6435234465,
				"y": 1.9162143943,
				"z": 1.9878817444,
				"element": "C" 
			},
			{
				"x": -2.7048648659,
				"y": 1.5922235401,
				"z": 3.149771962,
				"element": "C" 
			},
			{
				"x": -3.3385551466,
				"y": 1.8000354207,
				"z": 4.5140290677,
				"element": "C" 
			},
			{
				"x": -1.5591893217,
				"y": 2.4524228644,
				"z": 3.1076932163,
				"element": "O" 
			},
			{
				"x": -0.5762408165,
				"y": 2.2164265385,
				"z": 2.1914691552,
				"element": "C" 
			},
			{
				"x": 0.21768065,
				"y": 3.0950074389,
				"z": 1.9385362523,
				"element": "O" 
			},
			{
				"x": -0.5383891891,
				"y": 0.8468324997,
				"z": 1.6095023792,
				"element": "C" 
			},
			{
				"x": 0.3711870075,
				"y": 0.6625938515,
				"z": 0.6005853298,
				"element": "C" 
			},
			{
				"x": 0.7441308192,
				"y": -0.4551480425,
				"z": -0.1904560256,
				"element": "C" 
			},
			{
				"x": 0.4611326672,
				"y": -1.8105266262,
				"z": -0.2834217147,
				"element": "C" 
			},
			{
				"x": 1.244462929,
				"y": -2.3270582265,
				"z": -1.3316676203,
				"element": "C" 
			},
			{
				"x": 1.9813699988,
				"y": -1.2744437699,
				"z": -1.847968979,
				"element": "C" 
			},
			{
				"x": 1.6795897188,
				"y": -0.1425778899,
				"z": -1.1619861807,
				"element": "O" 
			},
			{
				"x": 2.8898262752,
				"y": -1.0837727347,
				"z": -2.9813348702,
				"element": "C" 
			},
			{
				"x": 3.0914593089,
				"y": 0.2366322957,
				"z": -3.4368705159,
				"element": "C" 
			},
			{
				"x": 3.8733468575,
				"y": 0.5246752672,
				"z": -4.5500473434,
				"element": "C" 
			},
			{
				"x": 4.4705961865,
				"y": -0.5052283968,
				"z": -5.2778694726,
				"element": "C" 
			},
			{
				"x": 4.287768253,
				"y": -1.8204929478,
				"z": -4.8643577116,
				"element": "C" 
			},
			{
				"x": 3.5319695009,
				"y": -2.0995690538,
				"z": -3.7266147099,
				"element": "C" 
			},
			{
				"x": 3.503859129,
				"y": -3.5212556265,
				"z": -3.3374471603,
				"element": "N" 
			},
			{
				"x": 3.4836817826,
				"y": -4.3512957254,
				"z": -4.2446206114,
				"element": "O" 
			},
			{
				"x": 3.5457369983,
				"y": -3.7910217301,
				"z": -2.1383972591,
				"element": "O" 
			},
			{
				"x": -1.3938811783,
				"y": -0.2053386966,
				"z": 2.1851658014,
				"element": "C" 
			},
			{
				"x": -1.3074524815,
				"y": -1.3933266873,
				"z": 1.9532952789,
				"element": "O" 
			},
			{
				"x": -2.3214400012,
				"y": 0.2103380474,
				"z": 3.0967812042,
				"element": "O" 
			},
			{
				"x": -4.5282960631,
				"y": 1.2769293788,
				"z": 2.036243575,
				"element": "H" 
			},
			{
				"x": -3.1480388135,
				"y": 1.7512880888,
				"z": 1.0269446618,
				"element": "H" 
			},
			{
				"x": -3.9533961178,
				"y": 2.9625396296,
				"z": 2.0426846868,
				"element": "H" 
			},
			{
				"x": -2.6153814549,
				"y": 1.5512403783,
				"z": 5.2933158431,
				"element": "H" 
			},
			{
				"x": -3.6418506579,
				"y": 2.8431265644,
				"z": 4.6280232917,
				"element": "H" 
			},
			{
				"x": -4.2138665773,
				"y": 1.1553164137,
				"z": 4.619754876,
				"element": "H" 
			},
			{
				"x": 0.920664203,
				"y": 1.56664427,
				"z": 0.3439694984,
				"element": "H" 
			},
			{
				"x": -0.2258092465,
				"y": -2.3372773277,
				"z": 0.357231459,
				"element": "H" 
			},
			{
				"x": 1.2776217671,
				"y": -3.3542615886,
				"z": -1.6547911497,
				"element": "H" 
			},
			{
				"x": 2.605214404,
				"y": 1.0421747106,
				"z": -2.9013281018,
				"element": "H" 
			},
			{
				"x": 4.0034720933,
				"y": 1.5581334955,
				"z": -4.8557181473,
				"element": "H" 
			},
			{
				"x": 5.0731240409,
				"y": -0.2909401093,
				"z": -6.1542453054,
				"element": "H" 
			},
			{
				"x": 4.7353807875,
				"y": -2.6487599086,
				"z": -5.3996364039,
				"element": "H" 
			}
		],
		 "valence_orbital": [ 
			{
				"type": "occ",
				"energy": -0.29402,
				"method": "rhf"
			},
			{
				"type": "occ",
				"energy": -0.28854,
				"method": "rhf"
			},
			{
				"type": "occ",
				"energy": -0.28453,
				"method": "rhf"
			},
			{
				"type": "occ",
				"energy": -0.27246,
				"method": "rhf"
			},
			{
				"type": "occ",
				"energy": -0.23139,
				"method": "rhf"
			},
			{
				"type": "unocc",
				"energy": -0.11063,
				"method": "rhf"
			},
			{
				"type": "unocc",
				"energy": -0.09091,
				"method": "rhf"
			},
			{
				"type": "unocc",
				"energy": -0.04479,
				"method": "rhf"
			},
			{
				"type": "unocc",
				"energy": -0.02379,
				"method": "rhf"
			},
			{
				"type": "unocc",
				"energy": -0.00281,
				"method": "rhf"
			}
		],
		"cosmo_sigma_profile": { 
			"-0.025": 0.0,
			"-0.024": 0.0,
			"-0.023": 0.0,
			"-0.022": 0.0,
			"-0.021": 0.0,
			"-0.02": 0.0,
			"-0.019": 0.0,
			"-0.018": 0.0,
			"-0.017": 0.0,
			"-0.016": 0.0,
			"-0.015": 0.0,
			"-0.014": 0.0,
			"-0.013": 0.0,
			"-0.012": 0.0,
			"-0.011": 0.0,
			"-0.01": 0.328115578412,
			"-0.009": 1.30698072018,
			"-0.008": 6.33250825297,
			"-0.007": 12.8417920513,
			"-0.006": 22.0117625954,
			"-0.005": 26.8608698856,
			"-0.004": 25.4305998124,
			"-0.003": 23.6880721365,
			"-0.002": 35.7824982911,
			"-0.001": 36.064705502,
			"0.0": 30.610304436,
			"0.001": 27.5758110782,
			"0.002": 15.2214271825,
			"0.003": 9.37827594702,
			"0.004": 7.23214386871,
			"0.005": 8.45576346887,
			"0.006": 8.88563783396,
			"0.007": 13.9144721728,
			"0.008": 10.9758754773,
			"0.009": 8.33593089347,
			"0.01": 7.46128437842,
			"0.011": 6.96324630966,
			"0.012": 5.15245261817,
			"0.013": 1.31075779405,
			"0.014": 0.0,
			"0.015": 0.0,
			"0.016": 0.0,
			"0.017": 0.0,
			"0.018": 0.0,
			"0.019": 0.0,
			"0.02": 0.0,
			"0.021": 0.0,
			"0.022": 0.0,
			"0.023": 0.0,
			"0.024": 0.0,
			"0.025": 0.0
		}
	}
}
