{
	 "smiles": "CC(C)C1=C(C(O)=O)C(C)=NO1", 
	 "Tm": 422.15, 
	 "num_atms": 23, 
	 "gaussian": { 
		 "optdone": 1, 
		 "sigma_profile": "yes", 
		 "theory": "DFT", 
		 "functional": "B3LYP", 
		 "basiset": "6-31G**", 
		 "properties": { 
			 "R2extent": 2333.8788, 
			 "electric_dipole_moment_norm": 3.61698482441, 
			 "electric_quadrupole_moment_norm": 13.6745268463, 
			 "total_energy": -591.879071417, 
			 "HOMO_LUMO_gap": 0.22785, 
			 "cosmo_polarized_energy": -15.13, 
			 "cosmo_cavitation_energy": 26.78, 
			 "cosmo_dispersion_energy": -18.94, 
			 "cosmo_repulsion_energy": 1.53, 
			 "cosmo_total_nonelectrostatic_energy": 9.37, 
			 "SMD_solvation_energy": 5.58 
		},
		"coords": [
			{
				"x": 0.2848927751,
				"y": 0.366381557,
				"z": 2.4698135516,
				"element": "C" 
			},
			{
				"x": -0.641213231,
				"y": -0.1054275722,
				"z": 1.3317094443,
				"element": "C" 
			},
			{
				"x": -2.1242379014,
				"y": -0.0555069216,
				"z": 1.7577692168,
				"element": "C" 
			},
			{
				"x": -0.4142186884,
				"y": 0.7013077312,
				"z": 0.0826431944,
				"element": "C" 
			},
			{
				"x": -0.1156595034,
				"y": 0.3947154968,
				"z": -1.2248731824,
				"element": "C" 
			},
			{
				"x": 0.1141808921,
				"y": -0.9050074359,
				"z": -1.8893719275,
				"element": "C" 
			},
			{
				"x": -0.492544725,
				"y": -1.9969898556,
				"z": -1.3394523615,
				"element": "O" 
			},
			{
				"x": 0.7994490003,
				"y": -1.0347385624,
				"z": -2.8770042643,
				"element": "O" 
			},
			{
				"x": 0.0215177934,
				"y": 1.6785544331,
				"z": -1.8626012266,
				"element": "C" 
			},
			{
				"x": 0.3598673795,
				"y": 1.9736861379,
				"z": -3.2886480912,
				"element": "C" 
			},
			{
				"x": -0.2041636447,
				"y": 2.6552632128,
				"z": -1.0198240897,
				"element": "N" 
			},
			{
				"x": -0.4739782596,
				"y": 2.034581677,
				"z": 0.2185319774,
				"element": "O" 
			},
			{
				"x": 0.1350674508,
				"y": -0.2592476223,
				"z": 3.3546660342,
				"element": "H" 
			},
			{
				"x": 0.0700113919,
				"y": 1.4037553546,
				"z": 2.7397559704,
				"element": "H" 
			},
			{
				"x": 1.3368974037,
				"y": 0.3007866596,
				"z": 2.1782364166,
				"element": "H" 
			},
			{
				"x": -0.3746585316,
				"y": -1.1415229599,
				"z": 1.0921810316,
				"element": "H" 
			},
			{
				"x": -2.7895724996,
				"y": -0.4226425134,
				"z": 0.9687064655,
				"element": "H" 
			},
			{
				"x": -2.4213784266,
				"y": 0.9707087421,
				"z": 1.9922612462,
				"element": "H" 
			},
			{
				"x": -2.2814393147,
				"y": -0.6713938007,
				"z": 2.6482331145,
				"element": "H" 
			},
			{
				"x": -1.1606723085,
				"y": -1.7193492612,
				"z": -0.6981106043,
				"element": "H" 
			},
			{
				"x": -0.380563723,
				"y": 1.5302614117,
				"z": -3.9614401451,
				"element": "H" 
			},
			{
				"x": 0.3876064862,
				"y": 3.053379805,
				"z": -3.4463804588,
				"element": "H" 
			},
			{
				"x": 1.3257101845,
				"y": 1.5333442862,
				"z": -3.5470013121,
				"element": "H" 
			}
		],
		 "valence_orbital": [ 
			{
				"type": "occ",
				"energy": -0.32554,
				"method": "rhf"
			},
			{
				"type": "occ",
				"energy": -0.3126,
				"method": "rhf"
			},
			{
				"type": "occ",
				"energy": -0.29766,
				"method": "rhf"
			},
			{
				"type": "occ",
				"energy": -0.28375,
				"method": "rhf"
			},
			{
				"type": "occ",
				"energy": -0.27014,
				"method": "rhf"
			},
			{
				"type": "unocc",
				"energy": -0.04229,
				"method": "rhf"
			},
			{
				"type": "unocc",
				"energy": -0.00409,
				"method": "rhf"
			},
			{
				"type": "unocc",
				"energy": 0.03823,
				"method": "rhf"
			},
			{
				"type": "unocc",
				"energy": 0.07453,
				"method": "rhf"
			},
			{
				"type": "unocc",
				"energy": 0.08576,
				"method": "rhf"
			}
		],
		"cosmo_sigma_profile": { 
			"-0.025": 0.0,
			"-0.024": 0.0,
			"-0.023": 0.0,
			"-0.022": 0.0,
			"-0.021": 0.0,
			"-0.02": 0.0,
			"-0.019": 0.0,
			"-0.018": 0.0,
			"-0.017": 0.0,
			"-0.016": 0.153162354908,
			"-0.015": 2.17745365237,
			"-0.014": 1.92410322387,
			"-0.013": 1.2425765981,
			"-0.012": 1.3783297787,
			"-0.011": 1.1553719453,
			"-0.01": 0.759032647754,
			"-0.009": 1.01386912055,
			"-0.008": 1.32838250384,
			"-0.007": 2.02620620652,
			"-0.006": 5.86211856512,
			"-0.005": 11.6736031455,
			"-0.004": 22.2148724475,
			"-0.003": 20.1492953992,
			"-0.002": 23.667042603,
			"-0.001": 25.3049531106,
			"0.0": 21.0204609534,
			"0.001": 7.23891286092,
			"0.002": 4.91167082545,
			"0.003": 4.91326951374,
			"0.004": 4.66343130011,
			"0.005": 4.98521814381,
			"0.006": 4.29368433451,
			"0.007": 6.50592287347,
			"0.008": 5.31212768872,
			"0.009": 5.16000679964,
			"0.01": 6.6140961252,
			"0.011": 6.21349901255,
			"0.012": 4.34231674295,
			"0.013": 2.3682710517,
			"0.014": 0.570564708034,
			"0.015": 0.0,
			"0.016": 0.0,
			"0.017": 0.0,
			"0.018": 0.0,
			"0.019": 0.0,
			"0.02": 0.0,
			"0.021": 0.0,
			"0.022": 0.0,
			"0.023": 0.0,
			"0.024": 0.0,
			"0.025": 0.0
		}
	}
}
