{
	 "smiles": "CC1=C(C=NO1)C(O)=O", 
	 "Tm": 420.15, 
	 "num_atms": 14, 
	 "gaussian": { 
		 "optdone": 1, 
		 "sigma_profile": "yes", 
		 "theory": "DFT", 
		 "functional": "B3LYP", 
		 "basiset": "6-31G**", 
		 "properties": { 
			 "R2extent": 2215.2277, 
			 "electric_dipole_moment_norm": 1.30648411778, 
			 "electric_quadrupole_moment_norm": 21.0376654087, 
			 "total_energy": -473.923556981, 
			 "HOMO_LUMO_gap": 0.23156, 
			 "cosmo_polarized_energy": -15.95, 
			 "cosmo_cavitation_energy": 19.05, 
			 "cosmo_dispersion_energy": -14.13, 
			 "cosmo_repulsion_energy": 1.16, 
			 "cosmo_total_nonelectrostatic_energy": 6.08, 
			 "SMD_solvation_energy": 4.75 
		},
		"coords": [
			{
				"x": -0.3017456892,
				"y": 0.2941109956,
				"z": -1.0446407496,
				"element": "C" 
			},
			{
				"x": -1.21932907,
				"y": 0.3174108967,
				"z": 0.1248771174,
				"element": "C" 
			},
			{
				"x": -1.9138551845,
				"y": 1.326238893,
				"z": 0.7573269394,
				"element": "C" 
			},
			{
				"x": -2.5982917583,
				"y": 0.6433936029,
				"z": 1.8081419686,
				"element": "C" 
			},
			{
				"x": -2.3506351502,
				"y": -0.64139446,
				"z": 1.8185995354,
				"element": "N" 
			},
			{
				"x": -1.469626374,
				"y": -0.8447160227,
				"z": 0.7417284196,
				"element": "O" 
			},
			{
				"x": -1.8791440352,
				"y": 2.7428956316,
				"z": 0.3516844321,
				"element": "C" 
			},
			{
				"x": -2.6231168132,
				"y": 3.613993419,
				"z": 1.0834570778,
				"element": "O" 
			},
			{
				"x": -1.2270379716,
				"y": 3.1456603913,
				"z": -0.58585536,
				"element": "O" 
			},
			{
				"x": -0.8109530341,
				"y": 0.6801572454,
				"z": -1.9319586214,
				"element": "H" 
			},
			{
				"x": 0.0451417144,
				"y": -0.7239700998,
				"z": -1.2293055431,
				"element": "H" 
			},
			{
				"x": 0.5534679798,
				"y": 0.9518871532,
				"z": -0.8668965808,
				"element": "H" 
			},
			{
				"x": -3.2678351544,
				"y": 1.0354241259,
				"z": 2.5658327887,
				"element": "H" 
			},
			{
				"x": -3.0911394594,
				"y": 3.1619082277,
				"z": 1.7983085759,
				"element": "H" 
			}
		],
		 "valence_orbital": [ 
			{
				"type": "occ",
				"energy": -0.33125,
				"method": "rhf"
			},
			{
				"type": "occ",
				"energy": -0.33075,
				"method": "rhf"
			},
			{
				"type": "occ",
				"energy": -0.3216,
				"method": "rhf"
			},
			{
				"type": "occ",
				"energy": -0.28385,
				"method": "rhf"
			},
			{
				"type": "occ",
				"energy": -0.27636,
				"method": "rhf"
			},
			{
				"type": "unocc",
				"energy": -0.0448,
				"method": "rhf"
			},
			{
				"type": "unocc",
				"energy": -0.02036,
				"method": "rhf"
			},
			{
				"type": "unocc",
				"energy": 0.03804,
				"method": "rhf"
			},
			{
				"type": "unocc",
				"energy": 0.08695,
				"method": "rhf"
			},
			{
				"type": "unocc",
				"energy": 0.09395,
				"method": "rhf"
			}
		],
		"cosmo_sigma_profile": { 
			"-0.025": 0.0,
			"-0.024": 0.0,
			"-0.023": 0.0,
			"-0.022": 0.0,
			"-0.021": 0.0,
			"-0.02": 0.455646790738,
			"-0.019": 1.36719062679,
			"-0.018": 1.19462143651,
			"-0.017": 1.05639565542,
			"-0.016": 1.25238804551,
			"-0.015": 0.90191733512,
			"-0.014": 0.985221318192,
			"-0.013": 1.51745392638,
			"-0.012": 1.96581813613,
			"-0.011": 1.78051061144,
			"-0.01": 1.49475146263,
			"-0.009": 1.67525670829,
			"-0.008": 1.92159268659,
			"-0.007": 3.48652854871,
			"-0.006": 6.90790803984,
			"-0.005": 7.71655632838,
			"-0.004": 10.4963396608,
			"-0.003": 14.1038168184,
			"-0.002": 13.5262555049,
			"-0.001": 8.76808535505,
			"0.0": 5.47307354182,
			"0.001": 4.79446525949,
			"0.002": 4.71841821241,
			"0.003": 3.63763449894,
			"0.004": 4.23837210156,
			"0.005": 5.00285559111,
			"0.006": 6.40770264243,
			"0.007": 6.98885193597,
			"0.008": 4.06846720704,
			"0.009": 4.5068140432,
			"0.01": 6.63522119132,
			"0.011": 5.8406911383,
			"0.012": 4.91113498554,
			"0.013": 2.54049756826,
			"0.014": 0.110575270814,
			"0.015": 0.0,
			"0.016": 0.0,
			"0.017": 0.0,
			"0.018": 0.0,
			"0.019": 0.0,
			"0.02": 0.0,
			"0.021": 0.0,
			"0.022": 0.0,
			"0.023": 0.0,
			"0.024": 0.0,
			"0.025": 0.0
		}
	}
}
