{
	 "smiles": "CN(C)C1=CC=C(S1)C=O", 
	 "Tm": 339.15, 
	 "num_atms": 19, 
	 "gaussian": { 
		 "optdone": 1, 
		 "sigma_profile": "yes", 
		 "theory": "DFT", 
		 "functional": "B3LYP", 
		 "basiset": "6-31G**", 
		 "properties": { 
			 "R2extent": 2733.9811, 
			 "electric_dipole_moment_norm": 6.30620703514, 
			 "electric_quadrupole_moment_norm": 10.239625771, 
			 "total_energy": -800.303903718, 
			 "HOMO_LUMO_gap": 0.15267, 
			 "cosmo_polarized_energy": -12.89, 
			 "cosmo_cavitation_energy": 24.06, 
			 "cosmo_dispersion_energy": -18.12, 
			 "cosmo_repulsion_energy": 1.41, 
			 "cosmo_total_nonelectrostatic_energy": 7.35, 
			 "SMD_solvation_energy": 4.72 
		},
		"coords": [
			{
				"x": -0.9087591577,
				"y": 1.5704514412,
				"z": 0.6552540302,
				"element": "C" 
			},
			{
				"x": -1.7057008366,
				"y": 0.4576092742,
				"z": 1.1513302356,
				"element": "N" 
			},
			{
				"x": -3.1449183053,
				"y": 0.6422541804,
				"z": 1.2700126624,
				"element": "C" 
			},
			{
				"x": -1.2309733605,
				"y": -0.8217490945,
				"z": 1.0418220286,
				"element": "C" 
			},
			{
				"x": -1.9370846433,
				"y": -2.010838398,
				"z": 1.2236732333,
				"element": "C" 
			},
			{
				"x": -1.1179934214,
				"y": -3.1484138341,
				"z": 1.0809574176,
				"element": "C" 
			},
			{
				"x": 0.1989833659,
				"y": -2.8667066004,
				"z": 0.7778987593,
				"element": "C" 
			},
			{
				"x": 0.4561926002,
				"y": -1.1302256904,
				"z": 0.6589994876,
				"element": "S" 
			},
			{
				"x": 1.2897469838,
				"y": -3.783605431,
				"z": 0.5550646207,
				"element": "C" 
			},
			{
				"x": 2.4398121861,
				"y": -3.462339559,
				"z": 0.2833492414,
				"element": "O" 
			},
			{
				"x": 0.1102114944,
				"y": 1.5082472074,
				"z": 1.0494534219,
				"element": "H" 
			},
			{
				"x": -1.3456725202,
				"y": 2.5070183397,
				"z": 1.0073199562,
				"element": "H" 
			},
			{
				"x": -0.8532266438,
				"y": 1.5975243815,
				"z": -0.4432948854,
				"element": "H" 
			},
			{
				"x": -3.3520185249,
				"y": 1.6935426591,
				"z": 1.4777981067,
				"element": "H" 
			},
			{
				"x": -3.5328349493,
				"y": 0.0506391752,
				"z": 2.1045816177,
				"element": "H" 
			},
			{
				"x": -3.6850429445,
				"y": 0.3505083168,
				"z": 0.3568979825,
				"element": "H" 
			},
			{
				"x": -2.9946509236,
				"y": -2.0541449593,
				"z": 1.4464347851,
				"element": "H" 
			},
			{
				"x": -1.4806587459,
				"y": -4.1656514941,
				"z": 1.1910780482,
				"element": "H" 
			},
			{
				"x": 0.9967883467,
				"y": -4.8532199146,
				"z": 0.6515692502,
				"element": "H" 
			}
		],
		 "valence_orbital": [ 
			{
				"type": "occ",
				"energy": -0.34279,
				"method": "rhf"
			},
			{
				"type": "occ",
				"energy": -0.29189,
				"method": "rhf"
			},
			{
				"type": "occ",
				"energy": -0.25662,
				"method": "rhf"
			},
			{
				"type": "occ",
				"energy": -0.237,
				"method": "rhf"
			},
			{
				"type": "occ",
				"energy": -0.19842,
				"method": "rhf"
			},
			{
				"type": "unocc",
				"energy": -0.04575,
				"method": "rhf"
			},
			{
				"type": "unocc",
				"energy": 0.02492,
				"method": "rhf"
			},
			{
				"type": "unocc",
				"energy": 0.04235,
				"method": "rhf"
			},
			{
				"type": "unocc",
				"energy": 0.07397,
				"method": "rhf"
			},
			{
				"type": "unocc",
				"energy": 0.09026,
				"method": "rhf"
			}
		],
		"cosmo_sigma_profile": { 
			"-0.025": 0.0,
			"-0.024": 0.0,
			"-0.023": 0.0,
			"-0.022": 0.0,
			"-0.021": 0.0,
			"-0.02": 0.0,
			"-0.019": 0.0,
			"-0.018": 0.0,
			"-0.017": 0.0,
			"-0.016": 0.0,
			"-0.015": 0.0,
			"-0.014": 0.0,
			"-0.013": 0.0,
			"-0.012": 0.0,
			"-0.011": 0.0,
			"-0.01": 0.0,
			"-0.009": 0.0,
			"-0.008": 1.18429326799,
			"-0.007": 7.90815037769,
			"-0.006": 12.2847994588,
			"-0.005": 16.7322209934,
			"-0.004": 19.3964803028,
			"-0.003": 24.2498504272,
			"-0.002": 16.8776497492,
			"-0.001": 9.03534451769,
			"0.0": 6.65817659071,
			"0.001": 7.17538197136,
			"0.002": 10.6843926354,
			"0.003": 15.215778382,
			"0.004": 15.8748321099,
			"0.005": 7.82893553594,
			"0.006": 1.93911028603,
			"0.007": 1.95951326867,
			"0.008": 1.52190305203,
			"0.009": 1.76157696275,
			"0.01": 1.93114822311,
			"0.011": 1.92200850222,
			"0.012": 3.46753702238,
			"0.013": 5.19181220705,
			"0.014": 1.98649897075,
			"0.015": 0.333953849853,
			"0.016": 0.0,
			"0.017": 0.0,
			"0.018": 0.0,
			"0.019": 0.0,
			"0.02": 0.0,
			"0.021": 0.0,
			"0.022": 0.0,
			"0.023": 0.0,
			"0.024": 0.0,
			"0.025": 0.0
		}
	}
}
