{
	 "smiles": "OC(=O)CC1=CC(=CC=C1)C#N", 
	 "Tm": 391.15, 
	 "num_atms": 19, 
	 "gaussian": { 
		 "optdone": 1, 
		 "sigma_profile": "yes", 
		 "theory": "DFT", 
		 "functional": "B3LYP", 
		 "basiset": "6-31G**", 
		 "properties": { 
			 "R2extent": 2821.1163, 
			 "electric_dipole_moment_norm": 3.62144856653, 
			 "electric_quadrupole_moment_norm": 27.3909543961, 
			 "total_energy": -552.367581714, 
			 "HOMO_LUMO_gap": 0.19737, 
			 "cosmo_polarized_energy": -18.92, 
			 "cosmo_cavitation_energy": 25.14, 
			 "cosmo_dispersion_energy": -17.4, 
			 "cosmo_repulsion_energy": 1.41, 
			 "cosmo_total_nonelectrostatic_energy": 9.15, 
			 "SMD_solvation_energy": 6.88 
		},
		"coords": [
			{
				"x": 1.3872029185,
				"y": -2.416986937,
				"z": -1.1258493907,
				"element": "O" 
			},
			{
				"x": 0.2451567978,
				"y": -2.5566245398,
				"z": -1.8384389279,
				"element": "C" 
			},
			{
				"x": 0.2621793263,
				"y": -3.0097315703,
				"z": -2.9538906317,
				"element": "O" 
			},
			{
				"x": -1.0604261213,
				"y": -2.1586653457,
				"z": -1.1269608044,
				"element": "C" 
			},
			{
				"x": -0.9328735764,
				"y": -1.0572149863,
				"z": -0.0981338941,
				"element": "C" 
			},
			{
				"x": -0.8285060868,
				"y": -1.3565318512,
				"z": 1.2643209066,
				"element": "C" 
			},
			{
				"x": -0.6816456495,
				"y": -0.3290211613,
				"z": 2.2134575968,
				"element": "C" 
			},
			{
				"x": -0.6396912419,
				"y": 1.0107525705,
				"z": 1.7994817729,
				"element": "C" 
			},
			{
				"x": -0.7450246438,
				"y": 1.3102438464,
				"z": 0.4420945932,
				"element": "C" 
			},
			{
				"x": -0.8883907034,
				"y": 0.2894978071,
				"z": -0.4963347521,
				"element": "C" 
			},
			{
				"x": -0.5821775881,
				"y": -0.6559121221,
				"z": 3.6069471125,
				"element": "C" 
			},
			{
				"x": -0.4991483489,
				"y": -0.9228413608,
				"z": 4.7358617736,
				"element": "N" 
			},
			{
				"x": 1.199366108,
				"y": -1.9981493853,
				"z": -0.2714676079,
				"element": "H" 
			},
			{
				"x": -1.7656627474,
				"y": -1.8887369504,
				"z": -1.9161277822,
				"element": "H" 
			},
			{
				"x": -1.4469798754,
				"y": -3.071754582,
				"z": -0.658022724,
				"element": "H" 
			},
			{
				"x": -0.8772394083,
				"y": -2.3872844333,
				"z": 1.6037256371,
				"element": "H" 
			},
			{
				"x": -0.5293531984,
				"y": 1.7986640978,
				"z": 2.5365162599,
				"element": "H" 
			},
			{
				"x": -0.7164000222,
				"y": 2.3450154026,
				"z": 0.1156730321,
				"element": "H" 
			},
			{
				"x": -0.9703859387,
				"y": 0.5350815012,
				"z": -1.5517521699,
				"element": "H" 
			}
		],
		 "valence_orbital": [ 
			{
				"type": "occ",
				"energy": -0.34484,
				"method": "rhf"
			},
			{
				"type": "occ",
				"energy": -0.32262,
				"method": "rhf"
			},
			{
				"type": "occ",
				"energy": -0.30215,
				"method": "rhf"
			},
			{
				"type": "occ",
				"energy": -0.28638,
				"method": "rhf"
			},
			{
				"type": "occ",
				"energy": -0.27039,
				"method": "rhf"
			},
			{
				"type": "unocc",
				"energy": -0.07302,
				"method": "rhf"
			},
			{
				"type": "unocc",
				"energy": -0.04771,
				"method": "rhf"
			},
			{
				"type": "unocc",
				"energy": 0.002,
				"method": "rhf"
			},
			{
				"type": "unocc",
				"energy": 0.0223,
				"method": "rhf"
			},
			{
				"type": "unocc",
				"energy": 0.05109,
				"method": "rhf"
			}
		],
		"cosmo_sigma_profile": { 
			"-0.025": 0.0,
			"-0.024": 0.0,
			"-0.023": 0.0,
			"-0.022": 0.0,
			"-0.021": 0.0,
			"-0.02": 0.0,
			"-0.019": 0.0,
			"-0.018": 0.0,
			"-0.017": 0.0,
			"-0.016": 0.0583855334609,
			"-0.015": 0.893987735428,
			"-0.014": 0.263114232121,
			"-0.013": 1.1745505979,
			"-0.012": 1.44779369732,
			"-0.011": 1.87767293648,
			"-0.01": 1.97581377909,
			"-0.009": 4.02084715495,
			"-0.008": 10.9398315359,
			"-0.007": 14.5202837592,
			"-0.006": 13.95228639,
			"-0.005": 11.8555844219,
			"-0.004": 9.89433134023,
			"-0.003": 11.2017082393,
			"-0.002": 10.9873772534,
			"-0.001": 11.7380708723,
			"0.0": 10.1844647288,
			"0.001": 12.3869537954,
			"0.002": 10.261480068,
			"0.003": 4.7938576013,
			"0.004": 3.37747888099,
			"0.005": 5.24542677309,
			"0.006": 4.96480006065,
			"0.007": 4.04247522228,
			"0.008": 6.65581456947,
			"0.009": 6.73272299841,
			"0.01": 7.98501168686,
			"0.011": 7.84304681049,
			"0.012": 7.99353383127,
			"0.013": 3.09936245615,
			"0.014": 0.0,
			"0.015": 0.0,
			"0.016": 0.0,
			"0.017": 0.0,
			"0.018": 0.0,
			"0.019": 0.0,
			"0.02": 0.0,
			"0.021": 0.0,
			"0.022": 0.0,
			"0.023": 0.0,
			"0.024": 0.0,
			"0.025": 0.0
		}
	}
}
