{
	 "smiles": "OS(=O)(=O)C(F)(F)F", 
	 "Tm": 298.15, 
	 "num_atms": 9, 
	 "gaussian": { 
		 "optdone": 1, 
		 "sigma_profile": "yes", 
		 "theory": "DFT", 
		 "functional": "B3LYP", 
		 "basiset": "6-31G**", 
		 "properties": { 
			 "R2extent": 1360.761, 
			 "electric_dipole_moment_norm": 2.77916109645, 
			 "electric_quadrupole_moment_norm": 8.88526615358, 
			 "total_energy": -961.994917894, 
			 "HOMO_LUMO_gap": 0.34648, 
			 "cosmo_polarized_energy": -10.04, 
			 "cosmo_cavitation_energy": 16.81, 
			 "cosmo_dispersion_energy": -12.69, 
			 "cosmo_repulsion_energy": 0.96, 
			 "cosmo_total_nonelectrostatic_energy": 5.08, 
			 "SMD_solvation_energy": 3.32 
		},
		"coords": [
			{
				"x": -2.1819390823,
				"y": 1.4538290605,
				"z": 1.4459988182,
				"element": "O" 
			},
			{
				"x": -1.2779852838,
				"y": 0.7886724056,
				"z": 0.2642704709,
				"element": "S" 
			},
			{
				"x": -1.6526595606,
				"y": 1.4173842372,
				"z": -0.9843130535,
				"element": "O" 
			},
			{
				"x": -1.2374989545,
				"y": -0.6524246506,
				"z": 0.4665764125,
				"element": "O" 
			},
			{
				"x": 0.3862974141,
				"y": 1.4714861996,
				"z": 0.7590508945,
				"element": "C" 
			},
			{
				"x": 1.3009697327,
				"y": 0.9957660736,
				"z": -0.0814317049,
				"element": "F" 
			},
			{
				"x": 0.3652409519,
				"y": 2.7985806072,
				"z": 0.7032691191,
				"element": "F" 
			},
			{
				"x": 0.6678079343,
				"y": 1.0763065484,
				"z": 2.0020815816,
				"element": "F" 
			},
			{
				"x": -2.3431331519,
				"y": 0.7692995186,
				"z": 2.1186974615,
				"element": "H" 
			}
		],
		 "valence_orbital": [ 
			{
				"type": "occ",
				"energy": -0.40155,
				"method": "rhf"
			},
			{
				"type": "occ",
				"energy": -0.3792,
				"method": "rhf"
			},
			{
				"type": "occ",
				"energy": -0.36202,
				"method": "rhf"
			},
			{
				"type": "occ",
				"energy": -0.34872,
				"method": "rhf"
			},
			{
				"type": "occ",
				"energy": -0.34295,
				"method": "rhf"
			},
			{
				"type": "unocc",
				"energy": 0.00353,
				"method": "rhf"
			},
			{
				"type": "unocc",
				"energy": 0.02258,
				"method": "rhf"
			},
			{
				"type": "unocc",
				"energy": 0.0551,
				"method": "rhf"
			},
			{
				"type": "unocc",
				"energy": 0.05696,
				"method": "rhf"
			},
			{
				"type": "unocc",
				"energy": 0.07394,
				"method": "rhf"
			}
		],
		"cosmo_sigma_profile": { 
			"-0.025": 0.0,
			"-0.024": 0.0,
			"-0.023": 0.0,
			"-0.022": 0.304371939179,
			"-0.021": 1.12434321401,
			"-0.02": 0.813787676421,
			"-0.019": 0.72947613814,
			"-0.018": 0.842053741097,
			"-0.017": 1.13492930984,
			"-0.016": 0.567218804759,
			"-0.015": 1.22449229606,
			"-0.014": 0.652777306819,
			"-0.013": 0.571853436391,
			"-0.012": 0.828390858201,
			"-0.011": 0.926382584324,
			"-0.01": 1.42858027879,
			"-0.009": 0.540269840786,
			"-0.008": 0.462336794918,
			"-0.007": 1.02317664619,
			"-0.006": 2.14897088252,
			"-0.005": 2.21337980149,
			"-0.004": 3.72993061423,
			"-0.003": 6.7899523544,
			"-0.002": 9.64177100641,
			"-0.001": 13.6940922908,
			"0.0": 27.7859989694,
			"0.001": 12.2653778252,
			"0.002": 3.62924772018,
			"0.003": 3.86939196084,
			"0.004": 3.18242227859,
			"0.005": 5.11072166858,
			"0.006": 5.21335680183,
			"0.007": 7.62145780276,
			"0.008": 12.3147108506,
			"0.009": 2.6260013313,
			"0.01": 0.0,
			"0.011": 0.0,
			"0.012": 0.0,
			"0.013": 0.0,
			"0.014": 0.0,
			"0.015": 0.0,
			"0.016": 0.0,
			"0.017": 0.0,
			"0.018": 0.0,
			"0.019": 0.0,
			"0.02": 0.0,
			"0.021": 0.0,
			"0.022": 0.0,
			"0.023": 0.0,
			"0.024": 0.0,
			"0.025": 0.0
		}
	}
}
