{
	 "smiles": "[O-][N+](=O)C1=C(Cl)C=CC(=C1)S(=O)(=O)N1CCCC1", 
	 "Tm": 371.15, 
	 "num_atms": 29, 
	 "gaussian": { 
		 "optdone": 1, 
		 "sigma_profile": "yes", 
		 "theory": "DFT", 
		 "functional": "B3LYP", 
		 "basiset": "6-31G**", 
		 "properties": { 
			 "R2extent": 7733.1302, 
			 "electric_dipole_moment_norm": 5.75520772344, 
			 "electric_quadrupole_moment_norm": 20.4199542184, 
			 "total_energy": -1656.28424525, 
			 "HOMO_LUMO_gap": 0.15885, 
			 "cosmo_polarized_energy": -16.98, 
			 "cosmo_cavitation_energy": 35.85, 
			 "cosmo_dispersion_energy": -25.81, 
			 "cosmo_repulsion_energy": 1.97, 
			 "cosmo_total_nonelectrostatic_energy": 12.01, 
			 "SMD_solvation_energy": 6.02 
		},
		"coords": [
			{
				"x": 3.9334373388,
				"y": -3.3384551598,
				"z": 3.0791897955,
				"element": "O" 
			},
			{
				"x": 3.4037111396,
				"y": -2.6719651545,
				"z": 2.1983707901,
				"element": "N" 
			},
			{
				"x": 3.9117418046,
				"y": -2.3851218838,
				"z": 1.1149296714,
				"element": "O" 
			},
			{
				"x": 2.0548637308,
				"y": -2.129992175,
				"z": 2.4525421982,
				"element": "C" 
			},
			{
				"x": 1.0875186971,
				"y": -2.8029479318,
				"z": 3.2165864747,
				"element": "C" 
			},
			{
				"x": 1.3225392061,
				"y": -4.3926642955,
				"z": 3.8794555559,
				"element": "Cl" 
			},
			{
				"x": -0.1537688502,
				"y": -2.1908324436,
				"z": 3.4220698831,
				"element": "C" 
			},
			{
				"x": -0.4276677073,
				"y": -0.9370522314,
				"z": 2.8835550206,
				"element": "C" 
			},
			{
				"x": 0.540753053,
				"y": -0.2898104185,
				"z": 2.1112211877,
				"element": "C" 
			},
			{
				"x": 1.7806517854,
				"y": -0.8823952686,
				"z": 1.8931761274,
				"element": "C" 
			},
			{
				"x": 0.1727837414,
				"y": 1.3075935973,
				"z": 1.3548882214,
				"element": "S" 
			},
			{
				"x": 1.4484279597,
				"y": 2.0116730562,
				"z": 1.227044997,
				"element": "O" 
			},
			{
				"x": -0.971644909,
				"y": 1.851099692,
				"z": 2.0871387758,
				"element": "O" 
			},
			{
				"x": -0.3509045431,
				"y": 0.9811394337,
				"z": -0.1798288358,
				"element": "N" 
			},
			{
				"x": 0.5932944975,
				"y": 0.6381626453,
				"z": -1.261905613,
				"element": "C" 
			},
			{
				"x": -0.355085612,
				"y": 0.4521219332,
				"z": -2.4510434258,
				"element": "C" 
			},
			{
				"x": -1.5863245372,
				"y": -0.217750148,
				"z": -1.8141368433,
				"element": "C" 
			},
			{
				"x": -1.712279323,
				"y": 0.4482398528,
				"z": -0.4287222543,
				"element": "C" 
			},
			{
				"x": -0.8992868854,
				"y": -2.7102881648,
				"z": 4.0133354673,
				"element": "H" 
			},
			{
				"x": -1.3768528439,
				"y": -0.448600404,
				"z": 3.0741566378,
				"element": "H" 
			},
			{
				"x": 2.550189253,
				"y": -0.3804893442,
				"z": 1.3197808448,
				"element": "H" 
			},
			{
				"x": 1.3185628291,
				"y": 1.4420889739,
				"z": -1.3938990732,
				"element": "H" 
			},
			{
				"x": 1.1374131399,
				"y": -0.2946189496,
				"z": -1.0474460646,
				"element": "H" 
			},
			{
				"x": -0.6216428954,
				"y": 1.4297877305,
				"z": -2.8658934026,
				"element": "H" 
			},
			{
				"x": 0.0935960519,
				"y": -0.146319871,
				"z": -3.2480053853,
				"element": "H" 
			},
			{
				"x": -2.4954384522,
				"y": -0.0987981517,
				"z": -2.4088824815,
				"element": "H" 
			},
			{
				"x": -1.4050659443,
				"y": -1.2916453487,
				"z": -1.696344561,
				"element": "H" 
			},
			{
				"x": -2.0167140648,
				"y": -0.2696014858,
				"z": 0.3414853808,
				"element": "H" 
			},
			{
				"x": -2.4303076602,
				"y": 1.2731419154,
				"z": -0.4199190892,
				"element": "H" 
			}
		],
		 "valence_orbital": [ 
			{
				"type": "occ",
				"energy": -0.31247,
				"method": "rhf"
			},
			{
				"type": "occ",
				"energy": -0.31057,
				"method": "rhf"
			},
			{
				"type": "occ",
				"energy": -0.294,
				"method": "rhf"
			},
			{
				"type": "occ",
				"energy": -0.28955,
				"method": "rhf"
			},
			{
				"type": "occ",
				"energy": -0.26123,
				"method": "rhf"
			},
			{
				"type": "unocc",
				"energy": -0.10238,
				"method": "rhf"
			},
			{
				"type": "unocc",
				"energy": -0.0642,
				"method": "rhf"
			},
			{
				"type": "unocc",
				"energy": -0.03481,
				"method": "rhf"
			},
			{
				"type": "unocc",
				"energy": -0.00056,
				"method": "rhf"
			},
			{
				"type": "unocc",
				"energy": 0.05255,
				"method": "rhf"
			}
		],
		"cosmo_sigma_profile": { 
			"-0.025": 0.0,
			"-0.024": 0.0,
			"-0.023": 0.0,
			"-0.022": 0.0,
			"-0.021": 0.0,
			"-0.02": 0.0,
			"-0.019": 0.0,
			"-0.018": 0.0,
			"-0.017": 0.0,
			"-0.016": 0.0,
			"-0.015": 0.0,
			"-0.014": 0.0,
			"-0.013": 0.0,
			"-0.012": 0.0,
			"-0.011": 0.0,
			"-0.01": 0.256437593178,
			"-0.009": 4.02755744696,
			"-0.008": 6.03133925955,
			"-0.007": 6.11863468843,
			"-0.006": 9.24295402528,
			"-0.005": 18.5771798271,
			"-0.004": 32.747778881,
			"-0.003": 35.308606756,
			"-0.002": 30.9881506132,
			"-0.001": 24.7287883955,
			"0.0": 15.0677191847,
			"0.001": 8.59086329813,
			"0.002": 12.9036430713,
			"0.003": 11.2668957118,
			"0.004": 7.47882478822,
			"0.005": 8.34562125302,
			"0.006": 9.15185817101,
			"0.007": 14.6989180274,
			"0.008": 8.94435429371,
			"0.009": 6.17450319411,
			"0.01": 7.66347479503,
			"0.011": 7.65783418225,
			"0.012": 1.48647817013,
			"0.013": 0.0,
			"0.014": 0.0,
			"0.015": 0.0,
			"0.016": 0.0,
			"0.017": 0.0,
			"0.018": 0.0,
			"0.019": 0.0,
			"0.02": 0.0,
			"0.021": 0.0,
			"0.022": 0.0,
			"0.023": 0.0,
			"0.024": 0.0,
			"0.025": 0.0
		}
	}
}
