{
	 "smiles": "COC(=O)C1=CC(OC)=C(OC)C(N)=C1", 
	 "Tm": 401.15, 
	 "num_atms": 28, 
	 "gaussian": { 
		 "optdone": 1, 
		 "sigma_profile": "yes", 
		 "theory": "DFT", 
		 "functional": "B3LYP", 
		 "basiset": "6-31G**", 
		 "properties": { 
			 "R2extent": 4228.8473, 
			 "electric_dipole_moment_norm": 3.19574069974, 
			 "electric_quadrupole_moment_norm": 15.9270304351, 
			 "total_energy": -744.53020239, 
			 "HOMO_LUMO_gap": 0.16719, 
			 "cosmo_polarized_energy": -13.79, 
			 "cosmo_cavitation_energy": 31.95, 
			 "cosmo_dispersion_energy": -23.01, 
			 "cosmo_repulsion_energy": 1.83, 
			 "cosmo_total_nonelectrostatic_energy": 10.76, 
			 "SMD_solvation_energy": 8.54 
		},
		"coords": [
			{
				"x": 4.8687129078,
				"y": -1.1108695216,
				"z": 1.5110861637,
				"element": "C" 
			},
			{
				"x": 3.467976081,
				"y": -1.1027882876,
				"z": 1.205113807,
				"element": "O" 
			},
			{
				"x": 3.1623307598,
				"y": -0.7854836261,
				"z": -0.0784170241,
				"element": "C" 
			},
			{
				"x": 4.0130544973,
				"y": -0.5237450311,
				"z": -0.9080203106,
				"element": "O" 
			},
			{
				"x": 1.6973660921,
				"y": -0.7952594646,
				"z": -0.337453775,
				"element": "C" 
			},
			{
				"x": 0.7728040007,
				"y": -1.0994010221,
				"z": 0.6735444482,
				"element": "C" 
			},
			{
				"x": -0.5906775096,
				"y": -1.087883145,
				"z": 0.3741960617,
				"element": "C" 
			},
			{
				"x": -1.5772578923,
				"y": -1.3885225036,
				"z": 1.273196421,
				"element": "O" 
			},
			{
				"x": -1.1908914983,
				"y": -1.7591860456,
				"z": 2.587795689,
				"element": "C" 
			},
			{
				"x": -1.027991786,
				"y": -0.7516180988,
				"z": -0.9222149463,
				"element": "C" 
			},
			{
				"x": -2.3578415898,
				"y": -0.7331984807,
				"z": -1.2803383101,
				"element": "O" 
			},
			{
				"x": -3.1954737926,
				"y": 0.2028361793,
				"z": -0.5907419499,
				"element": "C" 
			},
			{
				"x": -0.0931172328,
				"y": -0.4791424554,
				"z": -1.9408452531,
				"element": "C" 
			},
			{
				"x": -0.5495554315,
				"y": -0.2510116108,
				"z": -3.2315920632,
				"element": "N" 
			},
			{
				"x": 1.2740824498,
				"y": -0.4986957478,
				"z": -1.6322518729,
				"element": "C" 
			},
			{
				"x": 5.3961155845,
				"y": -1.8405929198,
				"z": 0.8911855956,
				"element": "H" 
			},
			{
				"x": 4.9394021331,
				"y": -1.3824000379,
				"z": 2.5647063792,
				"element": "H" 
			},
			{
				"x": 5.3083726336,
				"y": -0.1248724298,
				"z": 1.3392249519,
				"element": "H" 
			},
			{
				"x": 1.1302862684,
				"y": -1.3442359042,
				"z": 1.6631465233,
				"element": "H" 
			},
			{
				"x": -2.1172602661,
				"y": -1.9714958563,
				"z": 3.1238675001,
				"element": "H" 
			},
			{
				"x": -0.6548565018,
				"y": -0.948482372,
				"z": 3.0975437028,
				"element": "H" 
			},
			{
				"x": -0.561096053,
				"y": -2.657375987,
				"z": 2.5836856721,
				"element": "H" 
			},
			{
				"x": -2.7862320353,
				"y": 1.219087219,
				"z": -0.657546938,
				"element": "H" 
			},
			{
				"x": -4.1633816601,
				"y": 0.1690720951,
				"z": -1.0956563278,
				"element": "H" 
			},
			{
				"x": -3.3168212911,
				"y": -0.0710768307,
				"z": 0.4594632346,
				"element": "H" 
			},
			{
				"x": -1.5374615878,
				"y": -0.050684836,
				"z": -3.2932397151,
				"element": "H" 
			},
			{
				"x": 0.0348551487,
				"y": 0.3308694407,
				"z": -3.8130151246,
				"element": "H" 
			},
			{
				"x": 2.0174575714,
				"y": -0.2841427196,
				"z": -2.3925225395,
				"element": "H" 
			}
		],
		 "valence_orbital": [ 
			{
				"type": "occ",
				"energy": -0.29078,
				"method": "rhf"
			},
			{
				"type": "occ",
				"energy": -0.28186,
				"method": "rhf"
			},
			{
				"type": "occ",
				"energy": -0.26392,
				"method": "rhf"
			},
			{
				"type": "occ",
				"energy": -0.21512,
				"method": "rhf"
			},
			{
				"type": "occ",
				"energy": -0.19832,
				"method": "rhf"
			},
			{
				"type": "unocc",
				"energy": -0.03113,
				"method": "rhf"
			},
			{
				"type": "unocc",
				"energy": 0.02258,
				"method": "rhf"
			},
			{
				"type": "unocc",
				"energy": 0.07414,
				"method": "rhf"
			},
			{
				"type": "unocc",
				"energy": 0.07863,
				"method": "rhf"
			},
			{
				"type": "unocc",
				"energy": 0.0992,
				"method": "rhf"
			}
		],
		"cosmo_sigma_profile": { 
			"-0.025": 0.0,
			"-0.024": 0.0,
			"-0.023": 0.0,
			"-0.022": 0.0,
			"-0.021": 0.0,
			"-0.02": 0.0,
			"-0.019": 0.0,
			"-0.018": 0.0,
			"-0.017": 0.0,
			"-0.016": 0.0,
			"-0.015": 0.0,
			"-0.014": 0.0,
			"-0.013": 0.325003920419,
			"-0.012": 1.38636936101,
			"-0.011": 1.80125042064,
			"-0.01": 2.24143840867,
			"-0.009": 2.03436928387,
			"-0.008": 3.62386025359,
			"-0.007": 2.24856876908,
			"-0.006": 10.896371204,
			"-0.005": 22.2420594929,
			"-0.004": 24.3935656126,
			"-0.003": 29.9603987696,
			"-0.002": 20.9575831224,
			"-0.001": 12.8064130851,
			"0.0": 11.8517643923,
			"0.001": 11.7705320068,
			"0.002": 13.6203144427,
			"0.003": 16.2246557396,
			"0.004": 16.8221375249,
			"0.005": 10.625209164,
			"0.006": 7.05225947976,
			"0.007": 3.84439982873,
			"0.008": 5.62234692774,
			"0.009": 4.13830457862,
			"0.01": 4.59564976901,
			"0.011": 4.3760385722,
			"0.012": 5.52810181652,
			"0.013": 1.4370997117,
			"0.014": 0.382978932618,
			"0.015": 0.0,
			"0.016": 0.0,
			"0.017": 0.0,
			"0.018": 0.0,
			"0.019": 0.0,
			"0.02": 0.0,
			"0.021": 0.0,
			"0.022": 0.0,
			"0.023": 0.0,
			"0.024": 0.0,
			"0.025": 0.0
		}
	}
}
