{
	 "smiles": "COC1=CC(=CC(OC)=C1)C1=NN=C(S)N1N", 
	 "Tm": 452.15, 
	 "num_atms": 29, 
	 "gaussian": { 
		 "optdone": 1, 
		 "sigma_profile": "yes", 
		 "theory": "DFT", 
		 "functional": "B3LYP", 
		 "basiset": "6-31G**", 
		 "properties": { 
			 "R2extent": 6271.9601, 
			 "electric_dipole_moment_norm": 3.16769375572, 
			 "electric_quadrupole_moment_norm": 15.6835002053, 
			 "total_energy": -1155.85320862, 
			 "HOMO_LUMO_gap": 0.18076, 
			 "cosmo_polarized_energy": -20.89, 
			 "cosmo_cavitation_energy": 35.09, 
			 "cosmo_dispersion_energy": -26.22, 
			 "cosmo_repulsion_energy": 1.99, 
			 "cosmo_total_nonelectrostatic_energy": 10.86, 
			 "SMD_solvation_energy": 5.8 
		},
		"coords": [
			{
				"x": 3.1804357657,
				"y": -3.6907873523,
				"z": 1.0441584692,
				"element": "C" 
			},
			{
				"x": 3.1231344412,
				"y": -2.9749400214,
				"z": -0.1812220116,
				"element": "O" 
			},
			{
				"x": 2.1032266612,
				"y": -2.0852779445,
				"z": -0.3575599346,
				"element": "C" 
			},
			{
				"x": 1.1129798951,
				"y": -1.8305930759,
				"z": 0.5846373767,
				"element": "C" 
			},
			{
				"x": 0.1061470978,
				"y": -0.8857360879,
				"z": 0.2886085917,
				"element": "C" 
			},
			{
				"x": 0.1047194765,
				"y": -0.2157572798,
				"z": -0.9343004576,
				"element": "C" 
			},
			{
				"x": 1.1148420499,
				"y": -0.488201936,
				"z": -1.872244636,
				"element": "C" 
			},
			{
				"x": 1.02633568,
				"y": 0.2183345843,
				"z": -3.0382092913,
				"element": "O" 
			},
			{
				"x": 2.0130099506,
				"y": -0.0048136893,
				"z": -4.0320369708,
				"element": "C" 
			},
			{
				"x": 2.1137185347,
				"y": -1.4164411125,
				"z": -1.59520034,
				"element": "C" 
			},
			{
				"x": -0.9072176057,
				"y": -0.6683758309,
				"z": 1.3326290267,
				"element": "C" 
			},
			{
				"x": -0.9063062723,
				"y": -1.2998507113,
				"z": 2.4902184278,
				"element": "N" 
			},
			{
				"x": -1.9836530551,
				"y": -0.8740058977,
				"z": 3.2429062248,
				"element": "N" 
			},
			{
				"x": -2.6174665199,
				"y": 0.0119082832,
				"z": 2.5197355746,
				"element": "C" 
			},
			{
				"x": -4.0759381196,
				"y": 0.914538936,
				"z": 2.9399794237,
				"element": "S" 
			},
			{
				"x": -1.9973892502,
				"y": 0.192063992,
				"z": 1.3061947049,
				"element": "N" 
			},
			{
				"x": -2.3943150594,
				"y": 1.0572609362,
				"z": 0.2813722035,
				"element": "N" 
			},
			{
				"x": 2.2864657613,
				"y": -4.3090859731,
				"z": 1.1931324193,
				"element": "H" 
			},
			{
				"x": 4.0579257791,
				"y": -4.3356507217,
				"z": 0.9741837309,
				"element": "H" 
			},
			{
				"x": 3.2934365248,
				"y": -3.0158082709,
				"z": 1.901660403,
				"element": "H" 
			},
			{
				"x": 1.0830812808,
				"y": -2.3310309599,
				"z": 1.5421715659,
				"element": "H" 
			},
			{
				"x": -0.6556054482,
				"y": 0.5108281372,
				"z": -1.1818347625,
				"element": "H" 
			},
			{
				"x": 2.0113951921,
				"y": -1.0464118396,
				"z": -4.3786167854,
				"element": "H" 
			},
			{
				"x": 3.0179043657,
				"y": 0.2486288174,
				"z": -3.6701011186,
				"element": "H" 
			},
			{
				"x": 1.7559068256,
				"y": 0.6509900798,
				"z": -4.8655141565,
				"element": "H" 
			},
			{
				"x": 2.9063810101,
				"y": -1.6506588304,
				"z": -2.2938875303,
				"element": "H" 
			},
			{
				"x": -4.1735112854,
				"y": 0.3313170844,
				"z": 4.1490133629,
				"element": "H" 
			},
			{
				"x": -2.3956750747,
				"y": 2.013784567,
				"z": 0.6285325189,
				"element": "H" 
			},
			{
				"x": -3.3307686019,
				"y": 0.8068721174,
				"z": -0.0282060295,
				"element": "H" 
			}
		],
		 "valence_orbital": [ 
			{
				"type": "occ",
				"energy": -0.29291,
				"method": "rhf"
			},
			{
				"type": "occ",
				"energy": -0.25001,
				"method": "rhf"
			},
			{
				"type": "occ",
				"energy": -0.24737,
				"method": "rhf"
			},
			{
				"type": "occ",
				"energy": -0.21201,
				"method": "rhf"
			},
			{
				"type": "occ",
				"energy": -0.20917,
				"method": "rhf"
			},
			{
				"type": "unocc",
				"energy": -0.02841,
				"method": "rhf"
			},
			{
				"type": "unocc",
				"energy": -0.00336,
				"method": "rhf"
			},
			{
				"type": "unocc",
				"energy": 0.0214,
				"method": "rhf"
			},
			{
				"type": "unocc",
				"energy": 0.03133,
				"method": "rhf"
			},
			{
				"type": "unocc",
				"energy": 0.04547,
				"method": "rhf"
			}
		],
		"cosmo_sigma_profile": { 
			"-0.025": 0.0,
			"-0.024": 0.0,
			"-0.023": 0.0,
			"-0.022": 0.0,
			"-0.021": 0.0,
			"-0.02": 0.0,
			"-0.019": 0.0,
			"-0.018": 0.0,
			"-0.017": 0.0,
			"-0.016": 0.0,
			"-0.015": 0.0388559707266,
			"-0.014": 2.20280133519,
			"-0.013": 4.19347521874,
			"-0.012": 4.77410151057,
			"-0.011": 4.33869872527,
			"-0.01": 3.47793570358,
			"-0.009": 3.93243381994,
			"-0.008": 3.85847494246,
			"-0.007": 3.25904357226,
			"-0.006": 10.7824491191,
			"-0.005": 23.2173341843,
			"-0.004": 21.0416588214,
			"-0.003": 22.5267495856,
			"-0.002": 15.4584581841,
			"-0.001": 12.8118033962,
			"0.0": 13.8923209813,
			"0.001": 15.6938690543,
			"0.002": 15.7366877296,
			"0.003": 19.4959006899,
			"0.004": 27.5817891795,
			"0.005": 11.0525983267,
			"0.006": 7.85331110356,
			"0.007": 4.12754757046,
			"0.008": 5.41842815061,
			"0.009": 5.02873706809,
			"0.01": 5.02545962618,
			"0.011": 3.18032870671,
			"0.012": 2.30940302052,
			"0.013": 3.54086944272,
			"0.014": 2.94042220586,
			"0.015": 2.4284851325,
			"0.016": 0.776286871771,
			"0.017": 0.0609698790606,
			"0.018": 0.0,
			"0.019": 0.0,
			"0.02": 0.0,
			"0.021": 0.0,
			"0.022": 0.0,
			"0.023": 0.0,
			"0.024": 0.0,
			"0.025": 0.0
		}
	}
}
