{
	 "smiles": "BrC1=C2NC(=O)C=CN2N=C1", 
	 "Tm": 623.15, 
	 "num_atms": 15, 
	 "gaussian": { 
		 "optdone": 1, 
		 "sigma_profile": "yes", 
		 "theory": "DFT", 
		 "functional": "B3LYP", 
		 "basiset": "6-31G**", 
		 "properties": { 
			 "R2extent": 2874.2616, 
			 "electric_dipole_moment_norm": 1.60635780261, 
			 "electric_quadrupole_moment_norm": 12.9811241686, 
			 "total_energy": -3041.90571564, 
			 "HOMO_LUMO_gap": 0.17484, 
			 "cosmo_polarized_energy": -12.39, 
			 "cosmo_cavitation_energy": 22.45, 
			 "cosmo_dispersion_energy": -17.29, 
			 "cosmo_repulsion_energy": 1.37, 
			 "cosmo_total_nonelectrostatic_energy": 6.53, 
			 "SMD_solvation_energy": 3.03 
		},
		"coords": [
			{
				"x": 3.313059016,
				"y": -0.9408142633,
				"z": -0.0508210058,
				"element": "Br" 
			},
			{
				"x": 1.5503676668,
				"y": -0.8395716211,
				"z": -0.6941411839,
				"element": "C" 
			},
			{
				"x": 0.6268928371,
				"y": 0.1413620142,
				"z": -0.3861426492,
				"element": "C" 
			},
			{
				"x": 0.6213922093,
				"y": 1.2664270698,
				"z": 0.3936216943,
				"element": "N" 
			},
			{
				"x": -0.4899456501,
				"y": 2.1203081148,
				"z": 0.5372985692,
				"element": "C" 
			},
			{
				"x": -0.4278202512,
				"y": 3.108769636,
				"z": 1.250356772,
				"element": "O" 
			},
			{
				"x": -1.6669662065,
				"y": 1.6959951934,
				"z": -0.2334026363,
				"element": "C" 
			},
			{
				"x": -1.6565585306,
				"y": 0.5847599909,
				"z": -1.0017436638,
				"element": "C" 
			},
			{
				"x": -0.5157864647,
				"y": -0.1833594871,
				"z": -1.0743049504,
				"element": "N" 
			},
			{
				"x": -0.3792486934,
				"y": -1.3272122632,
				"z": -1.8142714217,
				"element": "N" 
			},
			{
				"x": 0.8682026102,
				"y": -1.7132767177,
				"z": -1.5772977967,
				"element": "C" 
			},
			{
				"x": 1.4575661002,
				"y": 1.5176001363,
				"z": 0.9066408584,
				"element": "H" 
			},
			{
				"x": -2.5492295829,
				"y": 2.3170654741,
				"z": -0.1583944798,
				"element": "H" 
			},
			{
				"x": -2.489313716,
				"y": 0.2209342427,
				"z": -1.5914569776,
				"element": "H" 
			},
			{
				"x": 1.2579886557,
				"y": -2.6084875197,
				"z": -2.0416411288,
				"element": "H" 
			}
		],
		 "valence_orbital": [ 
			{
				"type": "occ",
				"energy": -0.31832,
				"method": "rhf"
			},
			{
				"type": "occ",
				"energy": -0.30201,
				"method": "rhf"
			},
			{
				"type": "occ",
				"energy": -0.27414,
				"method": "rhf"
			},
			{
				"type": "occ",
				"energy": -0.25285,
				"method": "rhf"
			},
			{
				"type": "occ",
				"energy": -0.23304,
				"method": "rhf"
			},
			{
				"type": "unocc",
				"energy": -0.0582,
				"method": "rhf"
			},
			{
				"type": "unocc",
				"energy": -0.00628,
				"method": "rhf"
			},
			{
				"type": "unocc",
				"energy": 0.00053,
				"method": "rhf"
			},
			{
				"type": "unocc",
				"energy": 0.04112,
				"method": "rhf"
			},
			{
				"type": "unocc",
				"energy": 0.0718,
				"method": "rhf"
			}
		],
		"cosmo_sigma_profile": { 
			"-0.025": 0.0,
			"-0.024": 0.0,
			"-0.023": 0.0,
			"-0.022": 0.0,
			"-0.021": 0.0,
			"-0.02": 0.0,
			"-0.019": 0.0,
			"-0.018": 0.0,
			"-0.017": 0.0,
			"-0.016": 0.220133318988,
			"-0.015": 1.16681935316,
			"-0.014": 0.556987669543,
			"-0.013": 0.839924009768,
			"-0.012": 0.52303450398,
			"-0.011": 2.39430706507,
			"-0.01": 3.41831197073,
			"-0.009": 4.70178312214,
			"-0.008": 6.21111744021,
			"-0.007": 6.68113029941,
			"-0.006": 5.48783776383,
			"-0.005": 9.11760396866,
			"-0.004": 9.13711576935,
			"-0.003": 10.9646787257,
			"-0.002": 15.9821178619,
			"-0.001": 12.5869671796,
			"0.0": 14.4354396808,
			"0.001": 13.7377961213,
			"0.002": 12.9875801099,
			"0.003": 11.7631174542,
			"0.004": 10.3930135839,
			"0.005": 3.19617306676,
			"0.006": 2.17324531928,
			"0.007": 1.90931154745,
			"0.008": 2.01300814503,
			"0.009": 3.35792081639,
			"0.01": 2.69681733818,
			"0.011": 3.02706785423,
			"0.012": 4.65434211776,
			"0.013": 6.4322546133,
			"0.014": 2.06524712473,
			"0.015": 0.0355979899335,
			"0.016": 0.0,
			"0.017": 0.0,
			"0.018": 0.0,
			"0.019": 0.0,
			"0.02": 0.0,
			"0.021": 0.0,
			"0.022": 0.0,
			"0.023": 0.0,
			"0.024": 0.0,
			"0.025": 0.0
		}
	}
}
