{
	 "smiles": "CCOC1=CC=C2C(C)=CC(=O)OC2=C1", 
	 "Tm": 388.15, 
	 "num_atms": 27, 
	 "gaussian": { 
		 "optdone": 1, 
		 "sigma_profile": "yes", 
		 "theory": "DFT", 
		 "functional": "B3LYP", 
		 "basiset": "6-31G**", 
		 "properties": { 
			 "R2extent": 4141.3601, 
			 "electric_dipole_moment_norm": 4.58579908631, 
			 "electric_quadrupole_moment_norm": 25.792597743, 
			 "total_energy": -690.19038433, 
			 "HOMO_LUMO_gap": 0.16318, 
			 "cosmo_polarized_energy": -12.65, 
			 "cosmo_cavitation_energy": 30.6, 
			 "cosmo_dispersion_energy": -22.53, 
			 "cosmo_repulsion_energy": 1.76, 
			 "cosmo_total_nonelectrostatic_energy": 9.82, 
			 "SMD_solvation_energy": 6.79 
		},
		"coords": [
			{
				"x": 3.5580835013,
				"y": 1.0679800613,
				"z": -0.10986323,
				"element": "C" 
			},
			{
				"x": 2.9309428637,
				"y": 0.8033708194,
				"z": -1.473891487,
				"element": "C" 
			},
			{
				"x": 2.0578488615,
				"y": -0.3344764027,
				"z": -1.4636181106,
				"element": "O" 
			},
			{
				"x": 0.7842016334,
				"y": -0.2140256629,
				"z": -1.010662373,
				"element": "C" 
			},
			{
				"x": 0.0267278017,
				"y": -1.4049109895,
				"z": -1.0264715231,
				"element": "C" 
			},
			{
				"x": -1.2880759961,
				"y": -1.3960266059,
				"z": -0.603531421,
				"element": "C" 
			},
			{
				"x": -1.909355534,
				"y": -0.2135858009,
				"z": -0.1468273452,
				"element": "C" 
			},
			{
				"x": -3.2820165154,
				"y": -0.1245735956,
				"z": 0.3136741388,
				"element": "C" 
			},
			{
				"x": -4.1563565157,
				"y": -1.3495797546,
				"z": 0.3256743485,
				"element": "C" 
			},
			{
				"x": -3.755054207,
				"y": 1.0798895537,
				"z": 0.7299483717,
				"element": "C" 
			},
			{
				"x": -2.9507362325,
				"y": 2.2896337333,
				"z": 0.7376426928,
				"element": "C" 
			},
			{
				"x": -3.3056589424,
				"y": 3.3893756597,
				"z": 1.0936528835,
				"element": "O" 
			},
			{
				"x": -1.6331972175,
				"y": 2.151740659,
				"z": 0.2839012944,
				"element": "O" 
			},
			{
				"x": -1.130153277,
				"y": 0.9590991251,
				"z": -0.1403638374,
				"element": "C" 
			},
			{
				"x": 0.2017960073,
				"y": 0.9730992285,
				"z": -0.5625088257,
				"element": "C" 
			},
			{
				"x": 2.8061253873,
				"y": 1.3258197582,
				"z": 0.6405528262,
				"element": "H" 
			},
			{
				"x": 4.0984518556,
				"y": 0.1826236664,
				"z": 0.2367907272,
				"element": "H" 
			},
			{
				"x": 4.2674267103,
				"y": 1.8990435229,
				"z": -0.1814305463,
				"element": "H" 
			},
			{
				"x": 3.7015807896,
				"y": 0.5428556789,
				"z": -2.204251036,
				"element": "H" 
			},
			{
				"x": 2.3990400661,
				"y": 1.6830970553,
				"z": -1.8557450857,
				"element": "H" 
			},
			{
				"x": 0.502280159,
				"y": -2.3129828904,
				"z": -1.3797694187,
				"element": "H" 
			},
			{
				"x": -1.8550247013,
				"y": -2.3208046989,
				"z": -0.6246434279,
				"element": "H" 
			},
			{
				"x": -4.2557561033,
				"y": -1.7722295105,
				"z": -0.6806680526,
				"element": "H" 
			},
			{
				"x": -5.1555189177,
				"y": -1.1140407581,
				"z": 0.6976480272,
				"element": "H" 
			},
			{
				"x": -3.7288344792,
				"y": -2.1322650547,
				"z": 0.9627732022,
				"element": "H" 
			},
			{
				"x": -4.7723244755,
				"y": 1.2026539012,
				"z": 1.0836537675,
				"element": "H" 
			},
			{
				"x": 0.7355574778,
				"y": 1.9132193016,
				"z": -0.5217665598,
				"element": "H" 
			}
		],
		 "valence_orbital": [ 
			{
				"type": "occ",
				"energy": -0.32955,
				"method": "rhf"
			},
			{
				"type": "occ",
				"energy": -0.28188,
				"method": "rhf"
			},
			{
				"type": "occ",
				"energy": -0.26444,
				"method": "rhf"
			},
			{
				"type": "occ",
				"energy": -0.24935,
				"method": "rhf"
			},
			{
				"type": "occ",
				"energy": -0.21777,
				"method": "rhf"
			},
			{
				"type": "unocc",
				"energy": -0.05459,
				"method": "rhf"
			},
			{
				"type": "unocc",
				"energy": -0.00965,
				"method": "rhf"
			},
			{
				"type": "unocc",
				"energy": 0.01339,
				"method": "rhf"
			},
			{
				"type": "unocc",
				"energy": 0.08053,
				"method": "rhf"
			},
			{
				"type": "unocc",
				"energy": 0.09057,
				"method": "rhf"
			}
		],
		"cosmo_sigma_profile": { 
			"-0.025": 0.0,
			"-0.024": 0.0,
			"-0.023": 0.0,
			"-0.022": 0.0,
			"-0.021": 0.0,
			"-0.02": 0.0,
			"-0.019": 0.0,
			"-0.018": 0.0,
			"-0.017": 0.0,
			"-0.016": 0.0,
			"-0.015": 0.0,
			"-0.014": 0.0,
			"-0.013": 0.0,
			"-0.012": 0.0,
			"-0.011": 0.0,
			"-0.01": 0.0,
			"-0.009": 0.0,
			"-0.008": 1.13310297538,
			"-0.007": 4.97461797564,
			"-0.006": 14.7248315235,
			"-0.005": 19.2876682003,
			"-0.004": 22.9937033936,
			"-0.003": 23.0915821423,
			"-0.002": 21.4342034594,
			"-0.001": 22.4126011025,
			"0.0": 21.4942757863,
			"0.001": 17.9121772613,
			"0.002": 19.3011568813,
			"0.003": 12.4591253512,
			"0.004": 7.20713956205,
			"0.005": 4.15687476373,
			"0.006": 2.62284667963,
			"0.007": 3.89142666787,
			"0.008": 3.34966293617,
			"0.009": 3.29487590675,
			"0.01": 3.35742026947,
			"0.011": 3.06961608134,
			"0.012": 5.66497200963,
			"0.013": 4.83682170173,
			"0.014": 0.776156778824,
			"0.015": 0.0,
			"0.016": 0.0,
			"0.017": 0.0,
			"0.018": 0.0,
			"0.019": 0.0,
			"0.02": 0.0,
			"0.021": 0.0,
			"0.022": 0.0,
			"0.023": 0.0,
			"0.024": 0.0,
			"0.025": 0.0
		}
	}
}
