{
	 "smiles": "OCC1=NC=CC(=C1)N=[N+]=[N-]", 
	 "Tm": 333.15, 
	 "num_atms": 17, 
	 "gaussian": { 
		 "optdone": 1, 
		 "sigma_profile": "yes", 
		 "theory": "DFT", 
		 "functional": "B3LYP", 
		 "basiset": "6-31G**", 
		 "properties": { 
			 "R2extent": 2465.8732, 
			 "electric_dipole_moment_norm": 2.59335276621, 
			 "electric_quadrupole_moment_norm": 15.4091912812, 
			 "total_energy": -526.403883527, 
			 "HOMO_LUMO_gap": 0.19162, 
			 "cosmo_polarized_energy": -9.25, 
			 "cosmo_cavitation_energy": 22.71, 
			 "cosmo_dispersion_energy": -16.69, 
			 "cosmo_repulsion_energy": 1.36, 
			 "cosmo_total_nonelectrostatic_energy": 7.39, 
			 "SMD_solvation_energy": 1.29 
		},
		"coords": [
			{
				"x": -0.0160995437,
				"y": -2.816452432,
				"z": 3.3035743555,
				"element": "O" 
			},
			{
				"x": 1.1096450977,
				"y": -2.4331337446,
				"z": 2.5612860028,
				"element": "C" 
			},
			{
				"x": 0.7436801671,
				"y": -1.5786543752,
				"z": 1.3569982935,
				"element": "C" 
			},
			{
				"x": -0.5661748036,
				"y": -1.3514560584,
				"z": 1.1972387751,
				"element": "N" 
			},
			{
				"x": -0.9555542744,
				"y": -0.6065022394,
				"z": 0.1533835297,
				"element": "C" 
			},
			{
				"x": -0.0773439958,
				"y": -0.0572935528,
				"z": -0.7715785792,
				"element": "C" 
			},
			{
				"x": 1.2951790703,
				"y": -0.299714331,
				"z": -0.5975551253,
				"element": "C" 
			},
			{
				"x": 1.7111030872,
				"y": -1.0741489688,
				"z": 0.4862073849,
				"element": "C" 
			},
			{
				"x": 2.3079354298,
				"y": 0.1897548968,
				"z": -1.4515514402,
				"element": "N" 
			},
			{
				"x": 1.9689698994,
				"y": 0.8812840776,
				"z": -2.4251854377,
				"element": "N" 
			},
			{
				"x": 1.807947098,
				"y": 1.5242673918,
				"z": -3.3513364667,
				"element": "N" 
			},
			{
				"x": -0.7763670863,
				"y": -2.4326850803,
				"z": 2.8288023528,
				"element": "H" 
			},
			{
				"x": 1.6595327746,
				"y": -3.3206156855,
				"z": 2.2057938687,
				"element": "H" 
			},
			{
				"x": 1.8130349818,
				"y": -1.8661908196,
				"z": 3.1932465938,
				"element": "H" 
			},
			{
				"x": -2.0259195951,
				"y": -0.4408410663,
				"z": 0.0522662695,
				"element": "H" 
			},
			{
				"x": -0.4490280744,
				"y": 0.5387611968,
				"z": -1.5985793281,
				"element": "H" 
			},
			{
				"x": 2.7674597674,
				"y": -1.2715792092,
				"z": 0.636588951,
				"element": "H" 
			}
		],
		 "valence_orbital": [ 
			{
				"type": "occ",
				"energy": -0.32754,
				"method": "rhf"
			},
			{
				"type": "occ",
				"energy": -0.28413,
				"method": "rhf"
			},
			{
				"type": "occ",
				"energy": -0.28265,
				"method": "rhf"
			},
			{
				"type": "occ",
				"energy": -0.26273,
				"method": "rhf"
			},
			{
				"type": "occ",
				"energy": -0.25041,
				"method": "rhf"
			},
			{
				"type": "unocc",
				"energy": -0.05879,
				"method": "rhf"
			},
			{
				"type": "unocc",
				"energy": -0.05749,
				"method": "rhf"
			},
			{
				"type": "unocc",
				"energy": -0.03144,
				"method": "rhf"
			},
			{
				"type": "unocc",
				"energy": 0.01566,
				"method": "rhf"
			},
			{
				"type": "unocc",
				"energy": 0.09567,
				"method": "rhf"
			}
		],
		"cosmo_sigma_profile": { 
			"-0.025": 0.0,
			"-0.024": 0.0,
			"-0.023": 0.0,
			"-0.022": 0.0,
			"-0.021": 0.0,
			"-0.02": 0.0,
			"-0.019": 0.0,
			"-0.018": 0.0,
			"-0.017": 0.0,
			"-0.016": 0.0,
			"-0.015": 0.0,
			"-0.014": 0.0,
			"-0.013": 0.0,
			"-0.012": 0.0,
			"-0.011": 0.0,
			"-0.01": 0.0,
			"-0.009": 0.586506477509,
			"-0.008": 6.32157771575,
			"-0.007": 9.48052441591,
			"-0.006": 9.20139370579,
			"-0.005": 15.2298808202,
			"-0.004": 12.9253613175,
			"-0.003": 11.8611712265,
			"-0.002": 9.85255726398,
			"-0.001": 11.6249637092,
			"0.0": 14.5123236118,
			"0.001": 18.8614587685,
			"0.002": 14.1116272219,
			"0.003": 7.9343462046,
			"0.004": 8.09554011705,
			"0.005": 7.3600970581,
			"0.006": 7.28305791728,
			"0.007": 3.78501321774,
			"0.008": 3.38726374927,
			"0.009": 1.47367618232,
			"0.01": 0.67106262061,
			"0.011": 1.56446986804,
			"0.012": 1.16168536027,
			"0.013": 1.94164706928,
			"0.014": 2.14999318315,
			"0.015": 1.56151960074,
			"0.016": 0.0,
			"0.017": 0.0,
			"0.018": 0.0,
			"0.019": 0.0,
			"0.02": 0.0,
			"0.021": 0.0,
			"0.022": 0.0,
			"0.023": 0.0,
			"0.024": 0.0,
			"0.025": 0.0
		}
	}
}
