{
	 "smiles": "OC(=O)C1=C(OC=N1)C1=CC=CO1", 
	 "Tm": 445.15, 
	 "num_atms": 18, 
	 "gaussian": { 
		 "optdone": 1, 
		 "sigma_profile": "yes", 
		 "theory": "DFT", 
		 "functional": "B3LYP", 
		 "basiset": "6-31G**", 
		 "properties": { 
			 "R2extent": 3278.3961, 
			 "electric_dipole_moment_norm": 4.71492046274, 
			 "electric_quadrupole_moment_norm": 23.7308360122, 
			 "total_energy": -663.472343381, 
			 "HOMO_LUMO_gap": 0.16018, 
			 "cosmo_polarized_energy": -16.02, 
			 "cosmo_cavitation_energy": 24.24, 
			 "cosmo_dispersion_energy": -17.9, 
			 "cosmo_repulsion_energy": 1.4, 
			 "cosmo_total_nonelectrostatic_energy": 7.74, 
			 "SMD_solvation_energy": 6.0 
		},
		"coords": [
			{
				"x": 1.1040141979,
				"y": 2.236369086,
				"z": -1.8739658173,
				"element": "O" 
			},
			{
				"x": 1.6495059321,
				"y": 3.1034411528,
				"z": -0.988747041,
				"element": "C" 
			},
			{
				"x": 2.3561758074,
				"y": 4.0281470703,
				"z": -1.3271893569,
				"element": "O" 
			},
			{
				"x": 1.2795389458,
				"y": 2.811599943,
				"z": 0.4107717683,
				"element": "C" 
			},
			{
				"x": 0.6086622501,
				"y": 1.7581271829,
				"z": 1.0067631519,
				"element": "C" 
			},
			{
				"x": 0.5381222785,
				"y": 2.0447050612,
				"z": 2.3477175223,
				"element": "O" 
			},
			{
				"x": 1.1670277046,
				"y": 3.2457423414,
				"z": 2.4869379841,
				"element": "C" 
			},
			{
				"x": 1.6250694684,
				"y": 3.738791899,
				"z": 1.3912113577,
				"element": "N" 
			},
			{
				"x": 0.0038432078,
				"y": 0.4993065785,
				"z": 0.6584346452,
				"element": "C" 
			},
			{
				"x": -0.729794765,
				"y": -0.3700140673,
				"z": 1.4324161163,
				"element": "C" 
			},
			{
				"x": -1.0639349763,
				"y": -1.4704263998,
				"z": 0.5914267379,
				"element": "C" 
			},
			{
				"x": -0.5110875073,
				"y": -1.1960462543,
				"z": -0.6258990845,
				"element": "C" 
			},
			{
				"x": 0.1411305027,
				"y": -0.0054252729,
				"z": -0.6012485556,
				"element": "O" 
			},
			{
				"x": 1.4203541074,
				"y": 2.5257234932,
				"z": -2.7457659058,
				"element": "H" 
			},
			{
				"x": 1.2137659324,
				"y": 3.6527559558,
				"z": 3.4860515509,
				"element": "H" 
			},
			{
				"x": -0.9913832137,
				"y": -0.2273765203,
				"z": 2.4699779491,
				"element": "H" 
			},
			{
				"x": -1.6381050016,
				"y": -2.3463314392,
				"z": 0.8558013374,
				"element": "H" 
			},
			{
				"x": -0.4911048713,
				"y": -1.7189898102,
				"z": -1.56929436,
				"element": "H" 
			}
		],
		 "valence_orbital": [ 
			{
				"type": "occ",
				"energy": -0.30131,
				"method": "rhf"
			},
			{
				"type": "occ",
				"energy": -0.29968,
				"method": "rhf"
			},
			{
				"type": "occ",
				"energy": -0.29118,
				"method": "rhf"
			},
			{
				"type": "occ",
				"energy": -0.2721,
				"method": "rhf"
			},
			{
				"type": "occ",
				"energy": -0.22206,
				"method": "rhf"
			},
			{
				"type": "unocc",
				"energy": -0.06188,
				"method": "rhf"
			},
			{
				"type": "unocc",
				"energy": 0.00148,
				"method": "rhf"
			},
			{
				"type": "unocc",
				"energy": 0.02261,
				"method": "rhf"
			},
			{
				"type": "unocc",
				"energy": 0.06403,
				"method": "rhf"
			},
			{
				"type": "unocc",
				"energy": 0.0802,
				"method": "rhf"
			}
		],
		"cosmo_sigma_profile": { 
			"-0.025": 0.0,
			"-0.024": 0.0,
			"-0.023": 0.0,
			"-0.022": 0.0,
			"-0.021": 0.0,
			"-0.02": 0.0,
			"-0.019": 0.00760942992662,
			"-0.018": 0.969474352318,
			"-0.017": 0.632908897925,
			"-0.016": 0.803250781864,
			"-0.015": 0.617710748694,
			"-0.014": 1.37966759483,
			"-0.013": 0.476088113409,
			"-0.012": 1.41821419645,
			"-0.011": 3.11824147675,
			"-0.01": 3.58591180628,
			"-0.009": 4.28188372799,
			"-0.008": 5.19064423467,
			"-0.007": 6.70073322919,
			"-0.006": 7.73413076028,
			"-0.005": 7.08262576031,
			"-0.004": 7.84211060854,
			"-0.003": 13.2366272932,
			"-0.002": 14.1944078133,
			"-0.001": 16.3997389795,
			"0.0": 13.2850605748,
			"0.001": 15.9825800139,
			"0.002": 12.2851326411,
			"0.003": 11.6865547594,
			"0.004": 8.20217865989,
			"0.005": 2.64241398181,
			"0.006": 3.93194392728,
			"0.007": 4.01349277054,
			"0.008": 3.69199362313,
			"0.009": 3.99566003634,
			"0.01": 4.10176877296,
			"0.011": 4.53240737748,
			"0.012": 5.65866117267,
			"0.013": 2.11455220479,
			"0.014": 1.92874946715,
			"0.015": 1.76777905525,
			"0.016": 0.756877765108,
			"0.017": 0.0,
			"0.018": 0.0,
			"0.019": 0.0,
			"0.02": 0.0,
			"0.021": 0.0,
			"0.022": 0.0,
			"0.023": 0.0,
			"0.024": 0.0,
			"0.025": 0.0
		}
	}
}
