{
	 "smiles": "COC1=CC2=C(C=C1OC)C1=C(C=CC(OC)=C1OC)C1=C2CC2CCCN2C1", 
	 "Tm": 493.15, 
	 "num_atms": 56, 
	 "gaussian": { 
		 "optdone": 1, 
		 "sigma_profile": "yes", 
		 "theory": "DFT", 
		 "functional": "B3LYP", 
		 "basiset": "6-31G**", 
		 "properties": { 
			 "R2extent": 12188.2403, 
			 "electric_dipole_moment_norm": 1.18076177953, 
			 "electric_quadrupole_moment_norm": 5.47812062207, 
			 "total_energy": -1286.41713186, 
			 "HOMO_LUMO_gap": 0.15993, 
			 "cosmo_polarized_energy": -11.53, 
			 "cosmo_cavitation_energy": 53.8, 
			 "cosmo_dispersion_energy": -36.94, 
			 "cosmo_repulsion_energy": 2.77, 
			 "cosmo_total_nonelectrostatic_energy": 19.63, 
			 "SMD_solvation_energy": 7.58 
		},
		"coords": [
			{
				"x": -0.0999734382,
				"y": 1.5158053907,
				"z": 5.6472484367,
				"element": "C" 
			},
			{
				"x": 0.0790474054,
				"y": 0.3458480832,
				"z": 4.8393896236,
				"element": "O" 
			},
			{
				"x": -0.2210391677,
				"y": 0.5120471813,
				"z": 3.5056959695,
				"element": "C" 
			},
			{
				"x": 0.7934382941,
				"y": 0.4450984259,
				"z": 2.573084073,
				"element": "C" 
			},
			{
				"x": 0.5562585933,
				"y": 0.5806573696,
				"z": 1.1839212437,
				"element": "C" 
			},
			{
				"x": -0.7843342683,
				"y": 0.8011016874,
				"z": 0.7276494165,
				"element": "C" 
			},
			{
				"x": -1.8045741015,
				"y": 0.8661995378,
				"z": 1.7105611752,
				"element": "C" 
			},
			{
				"x": -1.5470439024,
				"y": 0.7187110136,
				"z": 3.0597637334,
				"element": "C" 
			},
			{
				"x": -2.5924972171,
				"y": 0.8248306158,
				"z": 3.9542659032,
				"element": "O" 
			},
			{
				"x": -2.94555708,
				"y": -0.4010780216,
				"z": 4.6030481782,
				"element": "C" 
			},
			{
				"x": -1.0350767212,
				"y": 0.9701540424,
				"z": -0.7044631172,
				"element": "C" 
			},
			{
				"x": 0.0873355436,
				"y": 1.0041604198,
				"z": -1.6027009946,
				"element": "C" 
			},
			{
				"x": -0.1289291782,
				"y": 1.2425584821,
				"z": -2.9810411263,
				"element": "C" 
			},
			{
				"x": -1.3928972871,
				"y": 1.4343363899,
				"z": -3.4955090311,
				"element": "C" 
			},
			{
				"x": -2.5024495181,
				"y": 1.3629323034,
				"z": -2.6452745898,
				"element": "C" 
			},
			{
				"x": -3.7599435454,
				"y": 1.4819422385,
				"z": -3.1953254994,
				"element": "O" 
			},
			{
				"x": -4.4624754305,
				"y": 2.6832575166,
				"z": -2.8569471677,
				"element": "C" 
			},
			{
				"x": -2.3330702562,
				"y": 1.1132896406,
				"z": -1.2821746608,
				"element": "C" 
			},
			{
				"x": -3.4834572663,
				"y": 1.0240449157,
				"z": -0.5200458337,
				"element": "O" 
			},
			{
				"x": -4.1800277287,
				"y": -0.222388728,
				"z": -0.657726643,
				"element": "C" 
			},
			{
				"x": 1.4195903279,
				"y": 0.770681688,
				"z": -1.0953548749,
				"element": "C" 
			},
			{
				"x": 1.6446440077,
				"y": 0.5483315066,
				"z": 0.23886785,
				"element": "C" 
			},
			{
				"x": 3.0835115864,
				"y": 0.2849662557,
				"z": 0.6253487514,
				"element": "C" 
			},
			{
				"x": 3.7254750474,
				"y": -0.7637644161,
				"z": -0.306309932,
				"element": "C" 
			},
			{
				"x": 3.1149518315,
				"y": -2.1962671341,
				"z": -0.1340259121,
				"element": "C" 
			},
			{
				"x": 2.4268795339,
				"y": -2.5069392924,
				"z": -1.4753341541,
				"element": "C" 
			},
			{
				"x": 3.2186681059,
				"y": -1.6286928233,
				"z": -2.4582232857,
				"element": "C" 
			},
			{
				"x": 3.562571039,
				"y": -0.395865863,
				"z": -1.733425754,
				"element": "N" 
			},
			{
				"x": 2.6669912448,
				"y": 0.7489709514,
				"z": -1.9698262117,
				"element": "C" 
			},
			{
				"x": 0.5706127435,
				"y": 2.3193842734,
				"z": 5.3173594193,
				"element": "H" 
			},
			{
				"x": -1.1349380541,
				"y": 1.8691509052,
				"z": 5.6147080504,
				"element": "H" 
			},
			{
				"x": 0.1607178369,
				"y": 1.2255234507,
				"z": 6.6671778601,
				"element": "H" 
			},
			{
				"x": 1.7967484463,
				"y": 0.3024071971,
				"z": 2.9544539281,
				"element": "H" 
			},
			{
				"x": -2.824805046,
				"y": 1.0584052923,
				"z": 1.4202066351,
				"element": "H" 
			},
			{
				"x": -3.7703297367,
				"y": -0.1649990033,
				"z": 5.278990328,
				"element": "H" 
			},
			{
				"x": -3.2811432302,
				"y": -1.1457706525,
				"z": 3.8697624956,
				"element": "H" 
			},
			{
				"x": -2.1051421327,
				"y": -0.8083093213,
				"z": 5.1744903881,
				"element": "H" 
			},
			{
				"x": 0.7155329336,
				"y": 1.29085839,
				"z": -3.6567284851,
				"element": "H" 
			},
			{
				"x": -1.5577998069,
				"y": 1.6230808846,
				"z": -4.5513361257,
				"element": "H" 
			},
			{
				"x": -5.4196857978,
				"y": 2.6341917976,
				"z": -3.3805158614,
				"element": "H" 
			},
			{
				"x": -3.9089768095,
				"y": 3.5666422392,
				"z": -3.199830491,
				"element": "H" 
			},
			{
				"x": -4.6337098892,
				"y": 2.7539851376,
				"z": -1.7789019938,
				"element": "H" 
			},
			{
				"x": -4.4894361339,
				"y": -0.3817225393,
				"z": -1.6948004856,
				"element": "H" 
			},
			{
				"x": -5.062012256,
				"y": -0.1521623859,
				"z": -0.0174165681,
				"element": "H" 
			},
			{
				"x": -3.5533950239,
				"y": -1.0576481317,
				"z": -0.322647315,
				"element": "H" 
			},
			{
				"x": 3.188369807,
				"y": -0.0657442066,
				"z": 1.6529948717,
				"element": "H" 
			},
			{
				"x": 3.6619308078,
				"y": 1.2178918795,
				"z": 0.5582032915,
				"element": "H" 
			},
			{
				"x": 4.7978114741,
				"y": -0.8046807417,
				"z": -0.0704317929,
				"element": "H" 
			},
			{
				"x": 2.4195607798,
				"y": -2.2428224964,
				"z": 0.7094432971,
				"element": "H" 
			},
			{
				"x": 3.9143811693,
				"y": -2.918307431,
				"z": 0.0652013496,
				"element": "H" 
			},
			{
				"x": 1.3788227266,
				"y": -2.1917892232,
				"z": -1.4520741773,
				"element": "H" 
			},
			{
				"x": 2.4536511057,
				"y": -3.5706199393,
				"z": -1.7335074207,
				"element": "H" 
			},
			{
				"x": 4.1471027726,
				"y": -2.1422447599,
				"z": -2.7493437935,
				"element": "H" 
			},
			{
				"x": 2.676644862,
				"y": -1.3978204162,
				"z": -3.3800972559,
				"element": "H" 
			},
			{
				"x": 3.2372166651,
				"y": 1.671578035,
				"z": -1.7828988018,
				"element": "H" 
			},
			{
				"x": 2.4353533329,
				"y": 0.7582123884,
				"z": -3.0340969128,
				"element": "H" 
			}
		],
		 "valence_orbital": [ 
			{
				"type": "occ",
				"energy": -0.25564,
				"method": "rhf"
			},
			{
				"type": "occ",
				"energy": -0.23897,
				"method": "rhf"
			},
			{
				"type": "occ",
				"energy": -0.21278,
				"method": "rhf"
			},
			{
				"type": "occ",
				"energy": -0.19927,
				"method": "rhf"
			},
			{
				"type": "occ",
				"energy": -0.19317,
				"method": "rhf"
			},
			{
				"type": "unocc",
				"energy": -0.03324,
				"method": "rhf"
			},
			{
				"type": "unocc",
				"energy": -0.02794,
				"method": "rhf"
			},
			{
				"type": "unocc",
				"energy": 0.01402,
				"method": "rhf"
			},
			{
				"type": "unocc",
				"energy": 0.03712,
				"method": "rhf"
			},
			{
				"type": "unocc",
				"energy": 0.0757,
				"method": "rhf"
			}
		],
		"cosmo_sigma_profile": { 
			"-0.025": 0.0,
			"-0.024": 0.0,
			"-0.023": 0.0,
			"-0.022": 0.0,
			"-0.021": 0.0,
			"-0.02": 0.0,
			"-0.019": 0.0,
			"-0.018": 0.0,
			"-0.017": 0.0,
			"-0.016": 0.0,
			"-0.015": 0.0,
			"-0.014": 0.0,
			"-0.013": 0.0,
			"-0.012": 0.0,
			"-0.011": 0.0,
			"-0.01": 0.0,
			"-0.009": 0.0,
			"-0.008": 0.40425121711,
			"-0.007": 3.43472811332,
			"-0.006": 7.9399319102,
			"-0.005": 18.7062403539,
			"-0.004": 33.2371205423,
			"-0.003": 49.6262623102,
			"-0.002": 61.5140831439,
			"-0.001": 49.7641234716,
			"0.0": 41.2127870686,
			"0.001": 30.9595023505,
			"0.002": 26.2161597395,
			"0.003": 31.7552870695,
			"0.004": 28.2544593242,
			"0.005": 10.9956753309,
			"0.006": 5.24316666196,
			"0.007": 4.10124988927,
			"0.008": 5.0467068679,
			"0.009": 3.48945537846,
			"0.01": 3.32250078082,
			"0.011": 3.83250526249,
			"0.012": 3.13759323403,
			"0.013": 0.407274211711,
			"0.014": 0.171989386852,
			"0.015": 0.535384028818,
			"0.016": 0.762601906675,
			"0.017": 0.075325310358,
			"0.018": 0.0,
			"0.019": 0.0,
			"0.02": 0.0,
			"0.021": 0.0,
			"0.022": 0.0,
			"0.023": 0.0,
			"0.024": 0.0,
			"0.025": 0.0
		}
	}
}
