{
	 "smiles": "CC(N)C1=CC(NC(C)=O)=CC=C1", 
	 "Tm": 333.15, 
	 "num_atms": 27, 
	 "gaussian": { 
		 "optdone": 1, 
		 "sigma_profile": "yes", 
		 "theory": "DFT", 
		 "functional": "B3LYP", 
		 "basiset": "6-31G**", 
		 "properties": { 
			 "R2extent": 3902.3936, 
			 "electric_dipole_moment_norm": 4.74039094168, 
			 "electric_quadrupole_moment_norm": 18.7276592737, 
			 "total_energy": -574.247454473, 
			 "HOMO_LUMO_gap": 0.20965, 
			 "cosmo_polarized_energy": -13.72, 
			 "cosmo_cavitation_energy": 29.8, 
			 "cosmo_dispersion_energy": -21.57, 
			 "cosmo_repulsion_energy": 1.73, 
			 "cosmo_total_nonelectrostatic_energy": 9.95, 
			 "SMD_solvation_energy": 5.24 
		},
		"coords": [
			{
				"x": 4.0166295883,
				"y": -0.6275020926,
				"z": 3.012173198,
				"element": "C" 
			},
			{
				"x": 2.8234453236,
				"y": 0.3205574821,
				"z": 2.8012430185,
				"element": "C" 
			},
			{
				"x": 2.1866935532,
				"y": 0.7452066608,
				"z": 4.0592650219,
				"element": "N" 
			},
			{
				"x": 1.7550306249,
				"y": -0.2302346215,
				"z": 1.8525734598,
				"element": "C" 
			},
			{
				"x": 0.4689370483,
				"y": 0.3201192524,
				"z": 1.8857785648,
				"element": "C" 
			},
			{
				"x": -0.5400168236,
				"y": -0.1199798779,
				"z": 1.0181521005,
				"element": "C" 
			},
			{
				"x": -1.8229440839,
				"y": 0.4596768766,
				"z": 1.1465863041,
				"element": "N" 
			},
			{
				"x": -2.7733497504,
				"y": 0.8344612316,
				"z": 0.2113666366,
				"element": "C" 
			},
			{
				"x": -2.4895329321,
				"y": 0.5951444066,
				"z": -1.2596843256,
				"element": "C" 
			},
			{
				"x": -3.8105401105,
				"y": 1.3611825079,
				"z": 0.5898294504,
				"element": "O" 
			},
			{
				"x": -0.2609659636,
				"y": -1.148280548,
				"z": 0.1064896331,
				"element": "C" 
			},
			{
				"x": 1.0243241734,
				"y": -1.6831047455,
				"z": 0.0533577875,
				"element": "C" 
			},
			{
				"x": 2.0270076722,
				"y": -1.2358548403,
				"z": 0.9142965455,
				"element": "C" 
			},
			{
				"x": 3.687705911,
				"y": -1.5929728172,
				"z": 3.4135675601,
				"element": "H" 
			},
			{
				"x": 4.5731792751,
				"y": -0.815021645,
				"z": 2.0883479913,
				"element": "H" 
			},
			{
				"x": 4.7170677703,
				"y": -0.1830630938,
				"z": 3.7271135814,
				"element": "H" 
			},
			{
				"x": 3.2143796657,
				"y": 1.2414468638,
				"z": 2.3427937214,
				"element": "H" 
			},
			{
				"x": 2.8781758868,
				"y": 1.1966993097,
				"z": 4.653452714,
				"element": "H" 
			},
			{
				"x": 1.8599590062,
				"y": -0.0756232417,
				"z": 4.5670599926,
				"element": "H" 
			},
			{
				"x": 0.2592491933,
				"y": 1.1038290105,
				"z": 2.6067490519,
				"element": "H" 
			},
			{
				"x": -2.0720670767,
				"y": 0.7910836954,
				"z": 2.0708379753,
				"element": "H" 
			},
			{
				"x": -2.8155114019,
				"y": -0.4091510242,
				"z": -1.550755404,
				"element": "H" 
			},
			{
				"x": -1.4322051738,
				"y": 0.6964147863,
				"z": -1.5137183854,
				"element": "H" 
			},
			{
				"x": -3.0837650562,
				"y": 1.3153974055,
				"z": -1.8231038655,
				"element": "H" 
			},
			{
				"x": -1.0409226545,
				"y": -1.5451672041,
				"z": -0.5318523621,
				"element": "H" 
			},
			{
				"x": 1.2396738829,
				"y": -2.4784450334,
				"z": -0.6546758069,
				"element": "H" 
			},
			{
				"x": 3.0123624519,
				"y": -1.6836187043,
				"z": 0.8535558407,
				"element": "H" 
			}
		],
		 "valence_orbital": [ 
			{
				"type": "occ",
				"energy": -0.29148,
				"method": "rhf"
			},
			{
				"type": "occ",
				"energy": -0.25406,
				"method": "rhf"
			},
			{
				"type": "occ",
				"energy": -0.24644,
				"method": "rhf"
			},
			{
				"type": "occ",
				"energy": -0.23989,
				"method": "rhf"
			},
			{
				"type": "occ",
				"energy": -0.21974,
				"method": "rhf"
			},
			{
				"type": "unocc",
				"energy": -0.01009,
				"method": "rhf"
			},
			{
				"type": "unocc",
				"energy": -0.00782,
				"method": "rhf"
			},
			{
				"type": "unocc",
				"energy": 0.03924,
				"method": "rhf"
			},
			{
				"type": "unocc",
				"energy": 0.07749,
				"method": "rhf"
			},
			{
				"type": "unocc",
				"energy": 0.09281,
				"method": "rhf"
			}
		],
		"cosmo_sigma_profile": { 
			"-0.025": 0.0,
			"-0.024": 0.0,
			"-0.023": 0.0,
			"-0.022": 0.0,
			"-0.021": 0.0,
			"-0.02": 0.0,
			"-0.019": 0.0,
			"-0.018": 0.0,
			"-0.017": 0.0,
			"-0.016": 0.0,
			"-0.015": 0.0,
			"-0.014": 0.226104609928,
			"-0.013": 0.978010523535,
			"-0.012": 0.809928409962,
			"-0.011": 0.929492773975,
			"-0.01": 1.83796718842,
			"-0.009": 3.4593931441,
			"-0.008": 4.51363782931,
			"-0.007": 6.3026608804,
			"-0.006": 9.2920487299,
			"-0.005": 14.2218207425,
			"-0.004": 20.0230958417,
			"-0.003": 21.7641891618,
			"-0.002": 21.7002506311,
			"-0.001": 21.256559687,
			"0.0": 17.0762462936,
			"0.001": 14.3721921088,
			"0.002": 11.9377050934,
			"0.003": 10.8971821033,
			"0.004": 9.14540391716,
			"0.005": 10.2232548162,
			"0.006": 7.51079773719,
			"0.007": 2.03686423401,
			"0.008": 1.79930475773,
			"0.009": 1.94559995731,
			"0.01": 2.54005470149,
			"0.011": 2.33296937459,
			"0.012": 2.47088269759,
			"0.013": 5.31944162869,
			"0.014": 5.18035988487,
			"0.015": 1.4541284206,
			"0.016": 0.433042825769,
			"0.017": 0.0,
			"0.018": 0.0,
			"0.019": 0.0,
			"0.02": 0.0,
			"0.021": 0.0,
			"0.022": 0.0,
			"0.023": 0.0,
			"0.024": 0.0,
			"0.025": 0.0
		}
	}
}
