{
	 "smiles": "CC1=C(COC2=C(C=CC=C2)C(O)=O)C=CC=C1", 
	 "Tm": 377.15, 
	 "num_atms": 32, 
	 "gaussian": { 
		 "optdone": 1, 
		 "sigma_profile": "yes", 
		 "theory": "DFT", 
		 "functional": "B3LYP", 
		 "basiset": "6-31G**", 
		 "properties": { 
			 "R2extent": 5988.8383, 
			 "electric_dipole_moment_norm": 2.28868128406, 
			 "electric_quadrupole_moment_norm": 13.9472450767, 
			 "total_energy": -805.714036164, 
			 "HOMO_LUMO_gap": 0.18414, 
			 "cosmo_polarized_energy": -12.4, 
			 "cosmo_cavitation_energy": 36.13, 
			 "cosmo_dispersion_energy": -25.47, 
			 "cosmo_repulsion_energy": 1.97, 
			 "cosmo_total_nonelectrostatic_energy": 12.63, 
			 "SMD_solvation_energy": 7.31 
		},
		"coords": [
			{
				"x": -1.7133264941,
				"y": -1.369640932,
				"z": 2.0386584269,
				"element": "C" 
			},
			{
				"x": -1.193048366,
				"y": -2.3543629286,
				"z": 1.0169093106,
				"element": "C" 
			},
			{
				"x": -0.371421096,
				"y": -1.9336990601,
				"z": -0.0502408666,
				"element": "C" 
			},
			{
				"x": -0.0146863931,
				"y": -0.4709756341,
				"z": -0.1737824028,
				"element": "C" 
			},
			{
				"x": 0.8996959517,
				"y": -0.2801282189,
				"z": -1.2572899188,
				"element": "O" 
			},
			{
				"x": 1.3037836459,
				"y": 1.0137013174,
				"z": -1.4692049028,
				"element": "C" 
			},
			{
				"x": 0.6683159291,
				"y": 1.8593740117,
				"z": -2.4038966096,
				"element": "C" 
			},
			{
				"x": 1.2023775514,
				"y": 3.1414904656,
				"z": -2.6220346294,
				"element": "C" 
			},
			{
				"x": 2.3190919062,
				"y": 3.5896706179,
				"z": -1.9274061854,
				"element": "C" 
			},
			{
				"x": 2.9377537253,
				"y": 2.7459295223,
				"z": -1.0005470211,
				"element": "C" 
			},
			{
				"x": 2.4331799756,
				"y": 1.4673493883,
				"z": -0.7783733573,
				"element": "C" 
			},
			{
				"x": -0.5291570927,
				"y": 1.5118991116,
				"z": -3.2227801224,
				"element": "C" 
			},
			{
				"x": -1.1447883134,
				"y": 0.3580871315,
				"z": -2.8769541952,
				"element": "O" 
			},
			{
				"x": -0.9515530754,
				"y": 2.2091723284,
				"z": -4.1263638998,
				"element": "O" 
			},
			{
				"x": 0.0902683212,
				"y": -2.8663587565,
				"z": -0.9825324631,
				"element": "C" 
			},
			{
				"x": -0.2483017473,
				"y": -4.2158243352,
				"z": -0.8678147613,
				"element": "C" 
			},
			{
				"x": -1.0571152712,
				"y": -4.6408317488,
				"z": 0.1841170946,
				"element": "C" 
			},
			{
				"x": -1.5227649299,
				"y": -3.7104888295,
				"z": 1.1145110511,
				"element": "C" 
			},
			{
				"x": -0.8984225496,
				"y": -0.87822414,
				"z": 2.5853843613,
				"element": "H" 
			},
			{
				"x": -2.3492779133,
				"y": -1.8682416873,
				"z": 2.7746198224,
				"element": "H" 
			},
			{
				"x": -2.3070827613,
				"y": -0.5726268649,
				"z": 1.5738241012,
				"element": "H" 
			},
			{
				"x": 0.4435679311,
				"y": -0.1040169462,
				"z": 0.7578184616,
				"element": "H" 
			},
			{
				"x": -0.9184548328,
				"y": 0.1285652967,
				"z": -0.3514609325,
				"element": "H" 
			},
			{
				"x": 0.7096948349,
				"y": 3.7692969383,
				"z": -3.3563809296,
				"element": "H" 
			},
			{
				"x": 2.7103524995,
				"y": 4.5853605831,
				"z": -2.1109063267,
				"element": "H" 
			},
			{
				"x": 3.8174302786,
				"y": 3.0796990731,
				"z": -0.4575739496,
				"element": "H" 
			},
			{
				"x": 2.9129878668,
				"y": 0.7865968253,
				"z": -0.0823024045,
				"element": "H" 
			},
			{
				"x": -1.8958578052,
				"y": 0.2771905446,
				"z": -3.488940581,
				"element": "H" 
			},
			{
				"x": 0.7156583394,
				"y": -2.5233313297,
				"z": -1.7982293631,
				"element": "H" 
			},
			{
				"x": 0.1196822969,
				"y": -4.9289230227,
				"z": -1.6001154519,
				"element": "H" 
			},
			{
				"x": -1.3268374034,
				"y": -5.6885325487,
				"z": 0.2828284907,
				"element": "H" 
			},
			{
				"x": -2.1554450088,
				"y": -4.0396761726,
				"z": 1.9353601543,
				"element": "H" 
			}
		],
		 "valence_orbital": [ 
			{
				"type": "occ",
				"energy": -0.27541,
				"method": "rhf"
			},
			{
				"type": "occ",
				"energy": -0.26354,
				"method": "rhf"
			},
			{
				"type": "occ",
				"energy": -0.2512,
				"method": "rhf"
			},
			{
				"type": "occ",
				"energy": -0.24039,
				"method": "rhf"
			},
			{
				"type": "occ",
				"energy": -0.23309,
				"method": "rhf"
			},
			{
				"type": "unocc",
				"energy": -0.04895,
				"method": "rhf"
			},
			{
				"type": "unocc",
				"energy": -0.00958,
				"method": "rhf"
			},
			{
				"type": "unocc",
				"energy": 0.0034,
				"method": "rhf"
			},
			{
				"type": "unocc",
				"energy": 0.00826,
				"method": "rhf"
			},
			{
				"type": "unocc",
				"energy": 0.05418,
				"method": "rhf"
			}
		],
		"cosmo_sigma_profile": { 
			"-0.025": 0.0,
			"-0.024": 0.0,
			"-0.023": 0.0,
			"-0.022": 0.0,
			"-0.021": 0.0,
			"-0.02": 0.0,
			"-0.019": 0.0406032257743,
			"-0.018": 0.718962829639,
			"-0.017": 1.02863327019,
			"-0.016": 0.784175726354,
			"-0.015": 0.263780405942,
			"-0.014": 1.16698859632,
			"-0.013": 0.175373179895,
			"-0.012": 0.746443851316,
			"-0.011": 0.819735262886,
			"-0.01": 0.836144972322,
			"-0.009": 0.404915073466,
			"-0.008": 0.805647913756,
			"-0.007": 3.39648350311,
			"-0.006": 8.36429213944,
			"-0.005": 23.6325417697,
			"-0.004": 26.3153278692,
			"-0.003": 27.0405691351,
			"-0.002": 23.0236880586,
			"-0.001": 20.1029289204,
			"0.0": 20.8612233675,
			"0.001": 18.6935845289,
			"0.002": 20.4232702625,
			"0.003": 22.0461994833,
			"0.004": 17.0173664519,
			"0.005": 12.9123329199,
			"0.006": 13.1418475124,
			"0.007": 6.81433164825,
			"0.008": 2.85148192469,
			"0.009": 2.8093257426,
			"0.01": 2.67608973053,
			"0.011": 3.77339722214,
			"0.012": 3.93295951098,
			"0.013": 0.120590335109,
			"0.014": 0.0,
			"0.015": 0.0,
			"0.016": 0.0,
			"0.017": 0.0,
			"0.018": 0.0,
			"0.019": 0.0,
			"0.02": 0.0,
			"0.021": 0.0,
			"0.022": 0.0,
			"0.023": 0.0,
			"0.024": 0.0,
			"0.025": 0.0
		}
	}
}
