{
	 "smiles": "CN1NC(=O)C2=C1NC=CC2=O", 
	 "Tm": 601.15, 
	 "num_atms": 19, 
	 "gaussian": { 
		 "optdone": 1, 
		 "sigma_profile": "yes", 
		 "theory": "DFT", 
		 "functional": "B3LYP", 
		 "basiset": "6-31G**", 
		 "properties": { 
			 "R2extent": 2179.9686, 
			 "electric_dipole_moment_norm": 10.2613559947, 
			 "electric_quadrupole_moment_norm": 16.1181944473, 
			 "total_energy": -585.627523057, 
			 "HOMO_LUMO_gap": 0.18735, 
			 "cosmo_polarized_energy": -35.33, 
			 "cosmo_cavitation_energy": 23.57, 
			 "cosmo_dispersion_energy": -17.54, 
			 "cosmo_repulsion_energy": 1.39, 
			 "cosmo_total_nonelectrostatic_energy": 7.43, 
			 "SMD_solvation_energy": 4.91 
		},
		"coords": [
			{
				"x": 1.1435783323,
				"y": 0.5463660863,
				"z": -3.6044517252,
				"element": "C" 
			},
			{
				"x": 0.0278947526,
				"y": 0.2812694953,
				"z": -2.688452559,
				"element": "N" 
			},
			{
				"x": -0.9661827609,
				"y": 1.3070955107,
				"z": -2.7196643255,
				"element": "N" 
			},
			{
				"x": -1.4898790243,
				"y": 1.5205846705,
				"z": -1.4001242156,
				"element": "C" 
			},
			{
				"x": -2.4961214601,
				"y": 2.1669888822,
				"z": -1.1942237769,
				"element": "O" 
			},
			{
				"x": -0.5747364915,
				"y": 0.7899212709,
				"z": -0.5180313708,
				"element": "C" 
			},
			{
				"x": 0.2909890271,
				"y": 0.1039365286,
				"z": -1.3377910823,
				"element": "C" 
			},
			{
				"x": 1.309278212,
				"y": -0.6667864644,
				"z": -0.8670804029,
				"element": "N" 
			},
			{
				"x": 1.4426117291,
				"y": -0.8149100709,
				"z": 0.5096810591,
				"element": "C" 
			},
			{
				"x": 0.6130414885,
				"y": -0.194477977,
				"z": 1.3766499203,
				"element": "C" 
			},
			{
				"x": -0.5007651489,
				"y": 0.6826858376,
				"z": 0.9413041818,
				"element": "C" 
			},
			{
				"x": -1.2433892053,
				"y": 1.2482166658,
				"z": 1.7379039786,
				"element": "O" 
			},
			{
				"x": 1.6501509295,
				"y": 1.4911575783,
				"z": -3.3723558282,
				"element": "H" 
			},
			{
				"x": 0.7554890899,
				"y": 0.5875350227,
				"z": -4.623637488,
				"element": "H" 
			},
			{
				"x": 1.8579975723,
				"y": -0.2798290818,
				"z": -3.558245143,
				"element": "H" 
			},
			{
				"x": -1.6778148351,
				"y": 1.1322730361,
				"z": -3.4230515574,
				"element": "H" 
			},
			{
				"x": 1.871895749,
				"y": -1.2231457297,
				"z": -1.4914992287,
				"element": "H" 
			},
			{
				"x": 2.2593058851,
				"y": -1.4565656868,
				"z": 0.8202858691,
				"element": "H" 
			},
			{
				"x": 0.7516561586,
				"y": -0.3249155743,
				"z": 2.4436836946,
				"element": "H" 
			}
		],
		 "valence_orbital": [ 
			{
				"type": "occ",
				"energy": -0.29318,
				"method": "rhf"
			},
			{
				"type": "occ",
				"energy": -0.25121,
				"method": "rhf"
			},
			{
				"type": "occ",
				"energy": -0.23878,
				"method": "rhf"
			},
			{
				"type": "occ",
				"energy": -0.22967,
				"method": "rhf"
			},
			{
				"type": "occ",
				"energy": -0.22244,
				"method": "rhf"
			},
			{
				"type": "unocc",
				"energy": -0.03509,
				"method": "rhf"
			},
			{
				"type": "unocc",
				"energy": -0.01573,
				"method": "rhf"
			},
			{
				"type": "unocc",
				"energy": 0.02649,
				"method": "rhf"
			},
			{
				"type": "unocc",
				"energy": 0.04417,
				"method": "rhf"
			},
			{
				"type": "unocc",
				"energy": 0.08368,
				"method": "rhf"
			}
		],
		"cosmo_sigma_profile": { 
			"-0.025": 0.0,
			"-0.024": 0.0,
			"-0.023": 0.0,
			"-0.022": 0.0,
			"-0.021": 0.0,
			"-0.02": 0.0,
			"-0.019": 0.0,
			"-0.018": 1.1921904742,
			"-0.017": 2.22354731582,
			"-0.016": 1.70923837742,
			"-0.015": 2.70558590626,
			"-0.014": 2.7341508715,
			"-0.013": 2.22698666806,
			"-0.012": 2.74440852862,
			"-0.011": 2.39492555965,
			"-0.01": 4.82755736605,
			"-0.009": 3.9300019486,
			"-0.008": 3.7758828347,
			"-0.007": 7.05764952337,
			"-0.006": 10.7926201309,
			"-0.005": 10.4006355149,
			"-0.004": 11.5733709395,
			"-0.003": 10.8888252581,
			"-0.002": 8.40598141511,
			"-0.001": 9.24212226744,
			"0.0": 10.6031694189,
			"0.001": 9.37300235185,
			"0.002": 7.76576345989,
			"0.003": 6.77021249163,
			"0.004": 3.19816180169,
			"0.005": 3.52285742676,
			"0.006": 3.83753930705,
			"0.007": 2.94976150132,
			"0.008": 3.32251357811,
			"0.009": 3.31718666382,
			"0.01": 2.48335495461,
			"0.011": 2.17581282561,
			"0.012": 4.9914109574,
			"0.013": 8.76165883307,
			"0.014": 8.91193515635,
			"0.015": 4.8734831745,
			"0.016": 2.37094958941,
			"0.017": 0.17446692291,
			"0.018": 0.0,
			"0.019": 0.0,
			"0.02": 0.0,
			"0.021": 0.0,
			"0.022": 0.0,
			"0.023": 0.0,
			"0.024": 0.0,
			"0.025": 0.0
		}
	}
}
