{
	 "smiles": "COC1=C(Br)C=C(Br)C=C1Br", 
	 "Tm": 361.15, 
	 "num_atms": 16, 
	 "gaussian": { 
		 "optdone": 1, 
		 "sigma_profile": "yes", 
		 "theory": "DFT", 
		 "functional": "B3LYP", 
		 "basiset": "6-31G**", 
		 "properties": { 
			 "R2extent": 5999.8695, 
			 "electric_dipole_moment_norm": 1.47884659448, 
			 "electric_quadrupole_moment_norm": 3.52157962, 
			 "total_energy": -8059.17002797, 
			 "HOMO_LUMO_gap": 0.2101, 
			 "cosmo_polarized_energy": -5.13, 
			 "cosmo_cavitation_energy": 27.12, 
			 "cosmo_dispersion_energy": -20.85, 
			 "cosmo_repulsion_energy": 1.68, 
			 "cosmo_total_nonelectrostatic_energy": 7.94, 
			 "SMD_solvation_energy": 2.19 
		},
		"coords": [
			{
				"x": -1.604415778,
				"y": 0.699537717,
				"z": 1.8134636993,
				"element": "C" 
			},
			{
				"x": -1.1307895061,
				"y": 0.62881284,
				"z": 0.4591424629,
				"element": "O" 
			},
			{
				"x": 0.1021513931,
				"y": 0.0765364104,
				"z": 0.2990794965,
				"element": "C" 
			},
			{
				"x": 0.2600565321,
				"y": -1.2983178397,
				"z": 0.0588318281,
				"element": "C" 
			},
			{
				"x": -1.277545086,
				"y": -2.42041128,
				"z": 0.0281275488,
				"element": "Br" 
			},
			{
				"x": 1.5106722572,
				"y": -1.8670340058,
				"z": -0.1724959544,
				"element": "C" 
			},
			{
				"x": 2.633228372,
				"y": -1.043118719,
				"z": -0.1610879956,
				"element": "C" 
			},
			{
				"x": 4.3532355443,
				"y": -1.8039318327,
				"z": -0.474623665,
				"element": "Br" 
			},
			{
				"x": 2.5247974275,
				"y": 0.3257815708,
				"z": 0.0700936646,
				"element": "C" 
			},
			{
				"x": 1.2621583347,
				"y": 0.8685556754,
				"z": 0.2984507731,
				"element": "C" 
			},
			{
				"x": 1.1102791447,
				"y": 2.7422770423,
				"z": 0.5988794817,
				"element": "Br" 
			},
			{
				"x": -2.5913312019,
				"y": 1.1608422347,
				"z": 1.7605664735,
				"element": "H" 
			},
			{
				"x": -0.9425850842,
				"y": 1.3203211838,
				"z": 2.426533327,
				"element": "H" 
			},
			{
				"x": -1.6911229173,
				"y": -0.3012539661,
				"z": 2.2495342874,
				"element": "H" 
			},
			{
				"x": 1.6023889364,
				"y": -2.9291086645,
				"z": -0.3584683667,
				"element": "H" 
			},
			{
				"x": 3.4012216314,
				"y": 0.9605116334,
				"z": 0.0718729388,
				"element": "H" 
			}
		],
		 "valence_orbital": [ 
			{
				"type": "occ",
				"energy": -0.29568,
				"method": "rhf"
			},
			{
				"type": "occ",
				"energy": -0.29242,
				"method": "rhf"
			},
			{
				"type": "occ",
				"energy": -0.29041,
				"method": "rhf"
			},
			{
				"type": "occ",
				"energy": -0.25748,
				"method": "rhf"
			},
			{
				"type": "occ",
				"energy": -0.2486,
				"method": "rhf"
			},
			{
				"type": "unocc",
				"energy": -0.0385,
				"method": "rhf"
			},
			{
				"type": "unocc",
				"energy": -0.03808,
				"method": "rhf"
			},
			{
				"type": "unocc",
				"energy": -0.0326,
				"method": "rhf"
			},
			{
				"type": "unocc",
				"energy": 0.0164,
				"method": "rhf"
			},
			{
				"type": "unocc",
				"energy": 0.01821,
				"method": "rhf"
			}
		],
		"cosmo_sigma_profile": { 
			"-0.025": 0.0,
			"-0.024": 0.0,
			"-0.023": 0.0,
			"-0.022": 0.0,
			"-0.021": 0.0,
			"-0.02": 0.0,
			"-0.019": 0.0,
			"-0.018": 0.0,
			"-0.017": 0.0,
			"-0.016": 0.0,
			"-0.015": 0.0,
			"-0.014": 0.0,
			"-0.013": 0.0,
			"-0.012": 0.0,
			"-0.011": 0.0,
			"-0.01": 0.0,
			"-0.009": 0.742730904624,
			"-0.008": 2.70034638381,
			"-0.007": 3.09455937122,
			"-0.006": 5.60520948032,
			"-0.005": 11.86032422,
			"-0.004": 18.4322221299,
			"-0.003": 18.4083366611,
			"-0.002": 14.6950423749,
			"-0.001": 18.9277956893,
			"0.0": 29.0077553343,
			"0.001": 25.5720508576,
			"0.002": 18.7449795026,
			"0.003": 24.5138169821,
			"0.004": 21.5710475793,
			"0.005": 3.65386675471,
			"0.006": 2.86485250649,
			"0.007": 1.97936450501,
			"0.008": 1.4537672396,
			"0.009": 1.66056138189,
			"0.01": 1.69581243045,
			"0.011": 0.228169640816,
			"0.012": 0.0,
			"0.013": 0.0,
			"0.014": 0.0,
			"0.015": 0.0,
			"0.016": 0.0,
			"0.017": 0.0,
			"0.018": 0.0,
			"0.019": 0.0,
			"0.02": 0.0,
			"0.021": 0.0,
			"0.022": 0.0,
			"0.023": 0.0,
			"0.024": 0.0,
			"0.025": 0.0
		}
	}
}
