{
	 "smiles": "ClC(=O)C=CC1=CC=C(C=CC(Cl)=O)C=C1", 
	 "Tm": 444.15, 
	 "num_atms": 24, 
	 "gaussian": { 
		 "optdone": 1, 
		 "sigma_profile": "yes", 
		 "theory": "DFT", 
		 "functional": "B3LYP", 
		 "basiset": "6-31G**", 
		 "properties": { 
			 "R2extent": 6220.5085, 
			 "electric_dipole_moment_norm": 6.7874997267, 
			 "electric_quadrupole_moment_norm": 11.8113761633, 
			 "total_energy": -1532.89152476, 
			 "HOMO_LUMO_gap": 0.14625, 
			 "cosmo_polarized_energy": -13.94, 
			 "cosmo_cavitation_energy": 33.76, 
			 "cosmo_dispersion_energy": -23.12, 
			 "cosmo_repulsion_energy": 1.82, 
			 "cosmo_total_nonelectrostatic_energy": 12.47, 
			 "SMD_solvation_energy": 6.89 
		},
		"coords": [
			{
				"x": -0.7075893441,
				"y": -3.4681307087,
				"z": -2.0500644228,
				"element": "Cl" 
			},
			{
				"x": 0.6302122094,
				"y": -2.8594011129,
				"z": -3.1336533308,
				"element": "C" 
			},
			{
				"x": 1.5023469638,
				"y": -3.6063189866,
				"z": -3.463667168,
				"element": "O" 
			},
			{
				"x": 0.4614636475,
				"y": -1.4840632842,
				"z": -3.6449249156,
				"element": "C" 
			},
			{
				"x": 0.0448625563,
				"y": -0.3528432005,
				"z": -3.0413251807,
				"element": "C" 
			},
			{
				"x": -0.2831512618,
				"y": -0.0653506636,
				"z": -1.6412951969,
				"element": "C" 
			},
			{
				"x": -1.1990874334,
				"y": 0.9675010969,
				"z": -1.3665292046,
				"element": "C" 
			},
			{
				"x": -1.5211730524,
				"y": 1.3050880539,
				"z": -0.0594404201,
				"element": "C" 
			},
			{
				"x": -0.9406312461,
				"y": 0.6237387638,
				"z": 1.0268145673,
				"element": "C" 
			},
			{
				"x": -1.2923196441,
				"y": 1.048805843,
				"z": 2.3854755774,
				"element": "C" 
			},
			{
				"x": -1.3127142643,
				"y": 0.3750571428,
				"z": 3.553050584,
				"element": "C" 
			},
			{
				"x": -1.0950214582,
				"y": -1.0527937931,
				"z": 3.8616123344,
				"element": "C" 
			},
			{
				"x": -1.8820363715,
				"y": -2.2368862255,
				"z": 2.7158688154,
				"element": "Cl" 
			},
			{
				"x": -0.547210521,
				"y": -1.4617097423,
				"z": 4.8414823969,
				"element": "O" 
			},
			{
				"x": 0.0159532705,
				"y": -0.3709161423,
				"z": 0.7522442392,
				"element": "C" 
			},
			{
				"x": 0.3380605125,
				"y": -0.7085157456,
				"z": -0.5549202319,
				"element": "C" 
			},
			{
				"x": 0.7727589243,
				"y": -1.42117406,
				"z": -4.685083521,
				"element": "H" 
			},
			{
				"x": -0.0340526178,
				"y": 0.5122871461,
				"z": -3.6992909532,
				"element": "H" 
			},
			{
				"x": -1.6635711716,
				"y": 1.5023814887,
				"z": -2.1903395765,
				"element": "H" 
			},
			{
				"x": -2.2353485911,
				"y": 2.1016775595,
				"z": 0.130040602,
				"element": "H" 
			},
			{
				"x": -1.5520958137,
				"y": 2.1042565489,
				"z": 2.4638687333,
				"element": "H" 
			},
			{
				"x": -1.4823750307,
				"y": 0.9424103929,
				"z": 4.4652507005,
				"element": "H" 
			},
			{
				"x": 0.5368139753,
				"y": -0.8595277434,
				"z": 1.5678711417,
				"element": "H" 
			},
			{
				"x": 1.1042057622,
				"y": -1.4541726277,
				"z": -0.73464557,
				"element": "H" 
			}
		],
		 "valence_orbital": [ 
			{
				"type": "occ",
				"energy": -0.30456,
				"method": "rhf"
			},
			{
				"type": "occ",
				"energy": -0.29503,
				"method": "rhf"
			},
			{
				"type": "occ",
				"energy": -0.29102,
				"method": "rhf"
			},
			{
				"type": "occ",
				"energy": -0.27532,
				"method": "rhf"
			},
			{
				"type": "occ",
				"energy": -0.25014,
				"method": "rhf"
			},
			{
				"type": "unocc",
				"energy": -0.10389,
				"method": "rhf"
			},
			{
				"type": "unocc",
				"energy": -0.07088,
				"method": "rhf"
			},
			{
				"type": "unocc",
				"energy": -0.02669,
				"method": "rhf"
			},
			{
				"type": "unocc",
				"energy": -0.02278,
				"method": "rhf"
			},
			{
				"type": "unocc",
				"energy": -0.00011,
				"method": "rhf"
			}
		],
		"cosmo_sigma_profile": { 
			"-0.025": 0.0,
			"-0.024": 0.0,
			"-0.023": 0.0,
			"-0.022": 0.0,
			"-0.021": 0.0,
			"-0.02": 0.0,
			"-0.019": 0.0,
			"-0.018": 0.0,
			"-0.017": 0.0,
			"-0.016": 0.0,
			"-0.015": 0.0,
			"-0.014": 0.0,
			"-0.013": 0.0,
			"-0.012": 0.0,
			"-0.011": 0.0,
			"-0.01": 0.0,
			"-0.009": 2.93214239645,
			"-0.008": 15.6244557888,
			"-0.007": 17.0129788913,
			"-0.006": 15.9893347922,
			"-0.005": 12.7754124639,
			"-0.004": 12.4543103646,
			"-0.003": 12.0676384757,
			"-0.002": 11.9955642885,
			"-0.001": 15.9970270529,
			"0.0": 18.8653966615,
			"0.001": 22.5989463931,
			"0.002": 23.2980887112,
			"0.003": 23.2450486675,
			"0.004": 24.1093528333,
			"0.005": 16.5476957975,
			"0.006": 6.5532923038,
			"0.007": 5.6422712936,
			"0.008": 8.81394542556,
			"0.009": 8.38203949628,
			"0.01": 0.936401402188,
			"0.011": 0.0,
			"0.012": 0.0,
			"0.013": 0.0,
			"0.014": 0.0,
			"0.015": 0.0,
			"0.016": 0.0,
			"0.017": 0.0,
			"0.018": 0.0,
			"0.019": 0.0,
			"0.02": 0.0,
			"0.021": 0.0,
			"0.022": 0.0,
			"0.023": 0.0,
			"0.024": 0.0,
			"0.025": 0.0
		}
	}
}
