{
	 "smiles": "CC1SC2=C(NC1=O)C=C(C=C2)C(O)=O", 
	 "Tm": 504.15, 
	 "num_atms": 24, 
	 "gaussian": { 
		 "optdone": 1, 
		 "sigma_profile": "yes", 
		 "theory": "DFT", 
		 "functional": "B3LYP", 
		 "basiset": "6-31G**", 
		 "properties": { 
			 "R2extent": 4366.397, 
			 "electric_dipole_moment_norm": 1.31026724373, 
			 "electric_quadrupole_moment_norm": 17.2912215187, 
			 "total_energy": -1065.14198695, 
			 "HOMO_LUMO_gap": 0.16602, 
			 "cosmo_polarized_energy": -16.04, 
			 "cosmo_cavitation_energy": 29.83, 
			 "cosmo_dispersion_energy": -22.2, 
			 "cosmo_repulsion_energy": 1.68, 
			 "cosmo_total_nonelectrostatic_energy": 9.31, 
			 "SMD_solvation_energy": 6.32 
		},
		"coords": [
			{
				"x": 3.0321946684,
				"y": -1.23276556,
				"z": 0.988328609,
				"element": "C" 
			},
			{
				"x": 3.2724959994,
				"y": -0.8621826369,
				"z": -0.4820606502,
				"element": "C" 
			},
			{
				"x": 2.9119526004,
				"y": 0.9057142688,
				"z": -0.859587398,
				"element": "S" 
			},
			{
				"x": 1.1426504282,
				"y": 0.8334850894,
				"z": -0.8400267202,
				"element": "C" 
			},
			{
				"x": 0.4746235255,
				"y": -0.3357339462,
				"z": -1.2596043763,
				"element": "C" 
			},
			{
				"x": 1.1928798833,
				"y": -1.4679723932,
				"z": -1.6742553486,
				"element": "N" 
			},
			{
				"x": 2.5086192149,
				"y": -1.7936105057,
				"z": -1.4195850462,
				"element": "C" 
			},
			{
				"x": 3.008750664,
				"y": -2.8104703754,
				"z": -1.8717917959,
				"element": "O" 
			},
			{
				"x": -0.9221584938,
				"y": -0.3564395727,
				"z": -1.2970500308,
				"element": "C" 
			},
			{
				"x": -1.6570882254,
				"y": 0.780496863,
				"z": -0.9472889077,
				"element": "C" 
			},
			{
				"x": -0.9927143688,
				"y": 1.9436563979,
				"z": -0.5354833998,
				"element": "C" 
			},
			{
				"x": 0.3948656459,
				"y": 1.9602518339,
				"z": -0.4730837206,
				"element": "C" 
			},
			{
				"x": -3.1416732246,
				"y": 0.7973218163,
				"z": -0.987960143,
				"element": "C" 
			},
			{
				"x": -3.6762024077,
				"y": -0.3803301043,
				"z": -1.4015224023,
				"element": "O" 
			},
			{
				"x": -3.8332902866,
				"y": 1.7505159833,
				"z": -0.6889844535,
				"element": "O" 
			},
			{
				"x": 1.9879820316,
				"y": -1.077437014,
				"z": 1.2736519214,
				"element": "H" 
			},
			{
				"x": 3.6602032823,
				"y": -0.6203464972,
				"z": 1.6400491176,
				"element": "H" 
			},
			{
				"x": 3.2833001743,
				"y": -2.28653001,
				"z": 1.1474497598,
				"element": "H" 
			},
			{
				"x": 4.3275167326,
				"y": -0.9888458673,
				"z": -0.7331377212,
				"element": "H" 
			},
			{
				"x": 0.697183487,
				"y": -2.1726910638,
				"z": -2.2060331822,
				"element": "H" 
			},
			{
				"x": -1.4396979167,
				"y": -1.2574022162,
				"z": -1.6093640825,
				"element": "H" 
			},
			{
				"x": -1.57869612,
				"y": 2.8131281704,
				"z": -0.2604038851,
				"element": "H" 
			},
			{
				"x": 0.915938045,
				"y": 2.8526006084,
				"z": -0.140595864,
				"element": "H" 
			},
			{
				"x": -4.6387353394,
				"y": -0.2516132684,
				"z": -1.3896602795,
				"element": "H" 
			}
		],
		 "valence_orbital": [ 
			{
				"type": "occ",
				"energy": -0.30391,
				"method": "rhf"
			},
			{
				"type": "occ",
				"energy": -0.28427,
				"method": "rhf"
			},
			{
				"type": "occ",
				"energy": -0.26817,
				"method": "rhf"
			},
			{
				"type": "occ",
				"energy": -0.24796,
				"method": "rhf"
			},
			{
				"type": "occ",
				"energy": -0.2266,
				"method": "rhf"
			},
			{
				"type": "unocc",
				"energy": -0.06058,
				"method": "rhf"
			},
			{
				"type": "unocc",
				"energy": -0.03141,
				"method": "rhf"
			},
			{
				"type": "unocc",
				"energy": 0.00342,
				"method": "rhf"
			},
			{
				"type": "unocc",
				"energy": 0.03041,
				"method": "rhf"
			},
			{
				"type": "unocc",
				"energy": 0.05319,
				"method": "rhf"
			}
		],
		"cosmo_sigma_profile": { 
			"-0.025": 0.0,
			"-0.024": 0.0,
			"-0.023": 0.0,
			"-0.022": 0.0,
			"-0.021": 0.0,
			"-0.02": 0.0,
			"-0.019": 0.090382198533,
			"-0.018": 0.985397486628,
			"-0.017": 0.439432889839,
			"-0.016": 1.24479881333,
			"-0.015": 2.3362927866,
			"-0.014": 2.04109704922,
			"-0.013": 1.52185007435,
			"-0.012": 2.11533162561,
			"-0.011": 1.98624461248,
			"-0.01": 1.94150637059,
			"-0.009": 1.99845155137,
			"-0.008": 4.02560417616,
			"-0.007": 5.87128819739,
			"-0.006": 7.07486942967,
			"-0.005": 11.4123463989,
			"-0.004": 14.6406153675,
			"-0.003": 17.0507178175,
			"-0.002": 18.5191607655,
			"-0.001": 20.1282421471,
			"0.0": 16.6474408354,
			"0.001": 19.8593477513,
			"0.002": 19.4768348276,
			"0.003": 12.8249898354,
			"0.004": 9.10655185212,
			"0.005": 6.75699443933,
			"0.006": 6.28598804679,
			"0.007": 5.19351542046,
			"0.008": 2.12017797618,
			"0.009": 2.98654889564,
			"0.01": 4.12425090149,
			"0.011": 5.74071915999,
			"0.012": 8.75529596569,
			"0.013": 3.76492464505,
			"0.014": 0.448988607447,
			"0.015": 0.0,
			"0.016": 0.0,
			"0.017": 0.0,
			"0.018": 0.0,
			"0.019": 0.0,
			"0.02": 0.0,
			"0.021": 0.0,
			"0.022": 0.0,
			"0.023": 0.0,
			"0.024": 0.0,
			"0.025": 0.0
		}
	}
}
