{
	 "smiles": "CCCC(=O)C1=CC(O)=C(O)C=C1O", 
	 "Tm": 427.15, 
	 "num_atms": 26, 
	 "gaussian": { 
		 "optdone": 1, 
		 "sigma_profile": "yes", 
		 "theory": "DFT", 
		 "functional": "B3LYP", 
		 "basiset": "6-31G**", 
		 "properties": { 
			 "R2extent": 3783.6697, 
			 "electric_dipole_moment_norm": 5.14152671003, 
			 "electric_quadrupole_moment_norm": 3.61340242431, 
			 "total_energy": -689.205361928, 
			 "HOMO_LUMO_gap": 0.15506, 
			 "cosmo_polarized_energy": -14.84, 
			 "cosmo_cavitation_energy": 29.18, 
			 "cosmo_dispersion_energy": -21.86, 
			 "cosmo_repulsion_energy": 1.73, 
			 "cosmo_total_nonelectrostatic_energy": 9.04, 
			 "SMD_solvation_energy": 6.12 
		},
		"coords": [
			{
				"x": 1.4748710074,
				"y": 2.7745438855,
				"z": -3.9523330782,
				"element": "C" 
			},
			{
				"x": 0.0430024118,
				"y": 2.9735125345,
				"z": -3.4436626051,
				"element": "C" 
			},
			{
				"x": -0.2298904651,
				"y": 2.2987264286,
				"z": -2.0934142881,
				"element": "C" 
			},
			{
				"x": -0.3243636313,
				"y": 0.7771956288,
				"z": -2.162081115,
				"element": "C" 
			},
			{
				"x": -0.3227205974,
				"y": 0.2214883197,
				"z": -3.277412428,
				"element": "O" 
			},
			{
				"x": -0.4388319658,
				"y": -0.007493621,
				"z": -0.9334350062,
				"element": "C" 
			},
			{
				"x": -0.4645346792,
				"y": 0.5916284188,
				"z": 0.3532123944,
				"element": "C" 
			},
			{
				"x": -0.577385924,
				"y": -0.1720844658,
				"z": 1.4906996563,
				"element": "C" 
			},
			{
				"x": -0.6124345445,
				"y": 0.3076593361,
				"z": 2.7840046995,
				"element": "O" 
			},
			{
				"x": -0.6691798592,
				"y": -1.5842258249,
				"z": 1.3912684881,
				"element": "C" 
			},
			{
				"x": -0.7777243882,
				"y": -2.3271368904,
				"z": 2.5161316278,
				"element": "O" 
			},
			{
				"x": -0.648327304,
				"y": -2.1981417705,
				"z": 0.150177222,
				"element": "C" 
			},
			{
				"x": -0.5366121813,
				"y": -1.4270738686,
				"z": -1.0177091868,
				"element": "C" 
			},
			{
				"x": -0.5257608468,
				"y": -2.0712557468,
				"z": -2.1907797642,
				"element": "O" 
			},
			{
				"x": 2.2083134419,
				"y": 3.1687907,
				"z": -3.2385979798,
				"element": "H" 
			},
			{
				"x": 1.688912766,
				"y": 1.7147201352,
				"z": -4.1121795316,
				"element": "H" 
			},
			{
				"x": 1.6271071743,
				"y": 3.2947008426,
				"z": -4.9035350715,
				"element": "H" 
			},
			{
				"x": -0.1621349029,
				"y": 4.0454952508,
				"z": -3.3361044458,
				"element": "H" 
			},
			{
				"x": -0.6657209219,
				"y": 2.5853094677,
				"z": -4.1819251767,
				"element": "H" 
			},
			{
				"x": -1.1770442357,
				"y": 2.6639007099,
				"z": -1.6714785782,
				"element": "H" 
			},
			{
				"x": 0.5456336751,
				"y": 2.5767660087,
				"z": -1.3675942008,
				"element": "H" 
			},
			{
				"x": -0.397378146,
				"y": 1.6716203691,
				"z": 0.445607139,
				"element": "H" 
			},
			{
				"x": -0.5448431737,
				"y": 1.2698805872,
				"z": 2.782704222,
				"element": "H" 
			},
			{
				"x": -0.7751946758,
				"y": -1.7186852793,
				"z": 3.2717035973,
				"element": "H" 
			},
			{
				"x": -0.7200830265,
				"y": -3.2765705985,
				"z": 0.0747724138,
				"element": "H" 
			},
			{
				"x": -0.4484750069,
				"y": -1.3651705574,
				"z": -2.8882390041,
				"element": "H" 
			}
		],
		 "valence_orbital": [ 
			{
				"type": "occ",
				"energy": -0.33482,
				"method": "rhf"
			},
			{
				"type": "occ",
				"energy": -0.30577,
				"method": "rhf"
			},
			{
				"type": "occ",
				"energy": -0.25808,
				"method": "rhf"
			},
			{
				"type": "occ",
				"energy": -0.24143,
				"method": "rhf"
			},
			{
				"type": "occ",
				"energy": -0.20947,
				"method": "rhf"
			},
			{
				"type": "unocc",
				"energy": -0.05441,
				"method": "rhf"
			},
			{
				"type": "unocc",
				"energy": 0.00971,
				"method": "rhf"
			},
			{
				"type": "unocc",
				"energy": 0.04316,
				"method": "rhf"
			},
			{
				"type": "unocc",
				"energy": 0.04825,
				"method": "rhf"
			},
			{
				"type": "unocc",
				"energy": 0.08262,
				"method": "rhf"
			}
		],
		"cosmo_sigma_profile": { 
			"-0.025": 0.0,
			"-0.024": 0.0,
			"-0.023": 0.0,
			"-0.022": 0.0,
			"-0.021": 0.0,
			"-0.02": 0.0,
			"-0.019": 0.235802913715,
			"-0.018": 1.36676282571,
			"-0.017": 0.605014105535,
			"-0.016": 1.18485562612,
			"-0.015": 1.85769012889,
			"-0.014": 1.72712257511,
			"-0.013": 0.558872125441,
			"-0.012": 1.49472344447,
			"-0.011": 1.96557916706,
			"-0.01": 1.87302613644,
			"-0.009": 2.36691572735,
			"-0.008": 1.50969057754,
			"-0.007": 3.88961289127,
			"-0.006": 7.61957462737,
			"-0.005": 8.82392704014,
			"-0.004": 9.07772648658,
			"-0.003": 12.8026307427,
			"-0.002": 18.5388722961,
			"-0.001": 21.7567109411,
			"0.0": 22.8848461451,
			"0.001": 21.7311267651,
			"0.002": 20.7384517685,
			"0.003": 17.6422597866,
			"0.004": 9.41706377373,
			"0.005": 6.83437954417,
			"0.006": 6.19367641126,
			"0.007": 6.02187046068,
			"0.008": 4.78981046328,
			"0.009": 3.41132705724,
			"0.01": 5.56668258612,
			"0.011": 3.80685149201,
			"0.012": 1.88885059763,
			"0.013": 0.0,
			"0.014": 0.0,
			"0.015": 0.0,
			"0.016": 0.0,
			"0.017": 0.0,
			"0.018": 0.0,
			"0.019": 0.0,
			"0.02": 0.0,
			"0.021": 0.0,
			"0.022": 0.0,
			"0.023": 0.0,
			"0.024": 0.0,
			"0.025": 0.0
		}
	}
}
