{
	 "smiles": "CN(C)C1=C(N)C(Cl)=NC=N1", 
	 "Tm": 388.15, 
	 "num_atms": 20, 
	 "gaussian": { 
		 "optdone": 1, 
		 "sigma_profile": "yes", 
		 "theory": "DFT", 
		 "functional": "B3LYP", 
		 "basiset": "6-31G**", 
		 "properties": { 
			 "R2extent": 2698.1645, 
			 "electric_dipole_moment_norm": 4.05041106679, 
			 "electric_quadrupole_moment_norm": 7.7843356274, 
			 "total_energy": -913.258731828, 
			 "HOMO_LUMO_gap": 0.18733, 
			 "cosmo_polarized_energy": -9.92, 
			 "cosmo_cavitation_energy": 24.68, 
			 "cosmo_dispersion_energy": -18.67, 
			 "cosmo_repulsion_energy": 1.5, 
			 "cosmo_total_nonelectrostatic_energy": 7.51, 
			 "SMD_solvation_energy": 1.34 
		},
		"coords": [
			{
				"x": 2.7095507571,
				"y": -0.176859482,
				"z": -0.1190526601,
				"element": "C" 
			},
			{
				"x": 1.565891369,
				"y": 0.7344773819,
				"z": -0.1193006224,
				"element": "N" 
			},
			{
				"x": 1.969165982,
				"y": 2.1317238542,
				"z": -0.3384784449,
				"element": "C" 
			},
			{
				"x": 0.6057484537,
				"y": 0.5068040837,
				"z": 0.874072744,
				"element": "C" 
			},
			{
				"x": -0.6979900103,
				"y": 1.0684215578,
				"z": 0.7355492056,
				"element": "C" 
			},
			{
				"x": -1.0460382193,
				"y": 1.8374226423,
				"z": -0.3673599189,
				"element": "N" 
			},
			{
				"x": -1.5602292103,
				"y": 0.7810621951,
				"z": 1.7962308712,
				"element": "C" 
			},
			{
				"x": -3.2004954502,
				"y": 1.4413815533,
				"z": 1.7486905832,
				"element": "Cl" 
			},
			{
				"x": -1.2559141315,
				"y": 0.0145096752,
				"z": 2.8307203181,
				"element": "N" 
			},
			{
				"x": -0.0344681463,
				"y": -0.5179964256,
				"z": 2.8138600471,
				"element": "C" 
			},
			{
				"x": 0.9081010825,
				"y": -0.303235718,
				"z": 1.8935235151,
				"element": "N" 
			},
			{
				"x": 3.4010373108,
				"y": 0.0115504639,
				"z": 0.7141202164,
				"element": "H" 
			},
			{
				"x": 3.248247197,
				"y": -0.0473555902,
				"z": -1.0627309916,
				"element": "H" 
			},
			{
				"x": 2.3638223527,
				"y": -1.2080425821,
				"z": -0.0415733078,
				"element": "H" 
			},
			{
				"x": 2.4660733047,
				"y": 2.2135161234,
				"z": -1.3101391154,
				"element": "H" 
			},
			{
				"x": 2.6714605442,
				"y": 2.4722896999,
				"z": 0.4377684371,
				"element": "H" 
			},
			{
				"x": 1.1003088538,
				"y": 2.7902402263,
				"z": -0.3332671241,
				"element": "H" 
			},
			{
				"x": -0.5819336183,
				"y": 1.5341375691,
				"z": -1.2164056373,
				"element": "H" 
			},
			{
				"x": -2.0447929859,
				"y": 1.9534699193,
				"z": -0.4857081927,
				"element": "H" 
			},
			{
				"x": 0.2214545646,
				"y": -1.1813171477,
				"z": 3.6361800775,
				"element": "H" 
			}
		],
		 "valence_orbital": [ 
			{
				"type": "occ",
				"energy": -0.30779,
				"method": "rhf"
			},
			{
				"type": "occ",
				"energy": -0.30199,
				"method": "rhf"
			},
			{
				"type": "occ",
				"energy": -0.25837,
				"method": "rhf"
			},
			{
				"type": "occ",
				"energy": -0.25532,
				"method": "rhf"
			},
			{
				"type": "occ",
				"energy": -0.2149,
				"method": "rhf"
			},
			{
				"type": "unocc",
				"energy": -0.02757,
				"method": "rhf"
			},
			{
				"type": "unocc",
				"energy": -0.0137,
				"method": "rhf"
			},
			{
				"type": "unocc",
				"energy": 0.03175,
				"method": "rhf"
			},
			{
				"type": "unocc",
				"energy": 0.07737,
				"method": "rhf"
			},
			{
				"type": "unocc",
				"energy": 0.10014,
				"method": "rhf"
			}
		],
		"cosmo_sigma_profile": { 
			"-0.025": 0.0,
			"-0.024": 0.0,
			"-0.023": 0.0,
			"-0.022": 0.0,
			"-0.021": 0.0,
			"-0.02": 0.0,
			"-0.019": 0.0,
			"-0.018": 0.0,
			"-0.017": 0.0,
			"-0.016": 0.0,
			"-0.015": 0.0,
			"-0.014": 0.0,
			"-0.013": 0.208501497905,
			"-0.012": 1.51044430853,
			"-0.011": 2.35597365372,
			"-0.01": 2.09777378194,
			"-0.009": 2.17417805586,
			"-0.008": 1.83034816232,
			"-0.007": 3.35234578969,
			"-0.006": 4.04110433034,
			"-0.005": 8.11510160166,
			"-0.004": 12.2007400741,
			"-0.003": 17.7373762855,
			"-0.002": 25.5606003535,
			"-0.001": 24.5107521239,
			"0.0": 14.9641285433,
			"0.001": 12.8508022284,
			"0.002": 10.9571491591,
			"0.003": 9.87332096772,
			"0.004": 12.3680328776,
			"0.005": 6.38076408878,
			"0.006": 5.56674863565,
			"0.007": 3.983325523,
			"0.008": 3.55420287864,
			"0.009": 2.3062013548,
			"0.01": 3.17243804497,
			"0.011": 1.93237639311,
			"0.012": 1.46038779262,
			"0.013": 1.72922945989,
			"0.014": 1.0269251947,
			"0.015": 0.218637604779,
			"0.016": 0.0,
			"0.017": 0.0,
			"0.018": 0.0,
			"0.019": 0.0,
			"0.02": 0.0,
			"0.021": 0.0,
			"0.022": 0.0,
			"0.023": 0.0,
			"0.024": 0.0,
			"0.025": 0.0
		}
	}
}
