{
	 "smiles": "CCCC(=O)CCC", 
	 "Tm": 240.15, 
	 "num_atms": 22, 
	 "gaussian": { 
		 "optdone": 1, 
		 "sigma_profile": "yes", 
		 "theory": "DFT", 
		 "functional": "B3LYP", 
		 "basiset": "6-31G**", 
		 "properties": { 
			 "R2extent": 1593.8934, 
			 "electric_dipole_moment_norm": 2.38560686409, 
			 "electric_quadrupole_moment_norm": 1.52244866252, 
			 "total_energy": -350.425189206, 
			 "HOMO_LUMO_gap": 0.23213, 
			 "cosmo_polarized_energy": -6.14, 
			 "cosmo_cavitation_energy": 23.94, 
			 "cosmo_dispersion_energy": -17.17, 
			 "cosmo_repulsion_energy": 1.48, 
			 "cosmo_total_nonelectrostatic_energy": 8.25, 
			 "SMD_solvation_energy": 4.44 
		},
		"coords": [
			{
				"x": 1.1006233956,
				"y": 2.3565906562,
				"z": 0.7222963108,
				"element": "C" 
			},
			{
				"x": 1.7560391657,
				"y": 1.0038094179,
				"z": 1.0206859999,
				"element": "C" 
			},
			{
				"x": 1.7223210139,
				"y": 0.0363291007,
				"z": -0.1669289073,
				"element": "C" 
			},
			{
				"x": 0.338249231,
				"y": -0.5213656232,
				"z": -0.4879801837,
				"element": "C" 
			},
			{
				"x": -0.5917306079,
				"y": -0.4220248393,
				"z": 0.2926700792,
				"element": "O" 
			},
			{
				"x": 0.1836916235,
				"y": -1.2107178169,
				"z": -1.8410611275,
				"element": "C" 
			},
			{
				"x": -1.0913642584,
				"y": -2.048335699,
				"z": -1.9834443419,
				"element": "C" 
			},
			{
				"x": -1.0722391924,
				"y": -3.332170555,
				"z": -1.1468151136,
				"element": "C" 
			},
			{
				"x": 0.0434815152,
				"y": 2.2313068634,
				"z": 0.4715641058,
				"element": "H" 
			},
			{
				"x": 1.1607461888,
				"y": 3.0218892941,
				"z": 1.5896132355,
				"element": "H" 
			},
			{
				"x": 1.5939564875,
				"y": 2.861334822,
				"z": -0.1170677232,
				"element": "H" 
			},
			{
				"x": 1.247765213,
				"y": 0.5312502729,
				"z": 1.8677063485,
				"element": "H" 
			},
			{
				"x": 2.8002227115,
				"y": 1.1573867278,
				"z": 1.3183816658,
				"element": "H" 
			},
			{
				"x": 2.1391501942,
				"y": 0.4995128971,
				"z": -1.0723747098,
				"element": "H" 
			},
			{
				"x": 2.3636812175,
				"y": -0.8364685327,
				"z": 0.0294481179,
				"element": "H" 
			},
			{
				"x": 0.203580824,
				"y": -0.408801188,
				"z": -2.5948590253,
				"element": "H" 
			},
			{
				"x": 1.0818524589,
				"y": -1.8123395111,
				"z": -2.039715432,
				"element": "H" 
			},
			{
				"x": -1.946325354,
				"y": -1.4320738134,
				"z": -1.6862332841,
				"element": "H" 
			},
			{
				"x": -1.2296215042,
				"y": -2.2995817237,
				"z": -3.0418837791,
				"element": "H" 
			},
			{
				"x": -0.984999983,
				"y": -3.1021826653,
				"z": -0.0811697294,
				"element": "H" 
			},
			{
				"x": -0.2313394775,
				"y": -3.9777219632,
				"z": -1.427572198,
				"element": "H" 
			},
			{
				"x": -1.992640863,
				"y": -3.9075261211,
				"z": -1.2892603083,
				"element": "H" 
			}
		],
		 "valence_orbital": [ 
			{
				"type": "occ",
				"energy": -0.33578,
				"method": "rhf"
			},
			{
				"type": "occ",
				"energy": -0.3321,
				"method": "rhf"
			},
			{
				"type": "occ",
				"energy": -0.33061,
				"method": "rhf"
			},
			{
				"type": "occ",
				"energy": -0.32911,
				"method": "rhf"
			},
			{
				"type": "occ",
				"energy": -0.24196,
				"method": "rhf"
			},
			{
				"type": "unocc",
				"energy": -0.00983,
				"method": "rhf"
			},
			{
				"type": "unocc",
				"energy": 0.07901,
				"method": "rhf"
			},
			{
				"type": "unocc",
				"energy": 0.11263,
				"method": "rhf"
			},
			{
				"type": "unocc",
				"energy": 0.12863,
				"method": "rhf"
			},
			{
				"type": "unocc",
				"energy": 0.14091,
				"method": "rhf"
			}
		],
		"cosmo_sigma_profile": { 
			"-0.025": 0.0,
			"-0.024": 0.0,
			"-0.023": 0.0,
			"-0.022": 0.0,
			"-0.021": 0.0,
			"-0.02": 0.0,
			"-0.019": 0.0,
			"-0.018": 0.0,
			"-0.017": 0.0,
			"-0.016": 0.0,
			"-0.015": 0.0,
			"-0.014": 0.0,
			"-0.013": 0.0,
			"-0.012": 0.0,
			"-0.011": 0.0,
			"-0.01": 0.0,
			"-0.009": 0.0,
			"-0.008": 0.0,
			"-0.007": 0.0,
			"-0.006": 1.96355044865,
			"-0.005": 9.68458775201,
			"-0.004": 10.6803167949,
			"-0.003": 17.027311615,
			"-0.002": 27.4030219615,
			"-0.001": 30.0721829043,
			"0.0": 27.8167059238,
			"0.001": 24.3909446376,
			"0.002": 11.3816570686,
			"0.003": 3.14923337943,
			"0.004": 2.46547538396,
			"0.005": 2.12258853797,
			"0.006": 1.41616493962,
			"0.007": 2.32035985028,
			"0.008": 1.99734912098,
			"0.009": 2.22178915387,
			"0.01": 1.44507613996,
			"0.011": 2.07004332727,
			"0.012": 3.29066334357,
			"0.013": 1.99751427463,
			"0.014": 0.0,
			"0.015": 0.0,
			"0.016": 0.0,
			"0.017": 0.0,
			"0.018": 0.0,
			"0.019": 0.0,
			"0.02": 0.0,
			"0.021": 0.0,
			"0.022": 0.0,
			"0.023": 0.0,
			"0.024": 0.0,
			"0.025": 0.0
		}
	}
}
