{
	 "smiles": "NC1=CC=C(SC2=CC=C(C=C2)C(F)(F)F)C=C1", 
	 "Tm": 367.15, 
	 "num_atms": 28, 
	 "gaussian": { 
		 "optdone": 1, 
		 "sigma_profile": "yes", 
		 "theory": "DFT", 
		 "functional": "B3LYP", 
		 "basiset": "6-31G**", 
		 "properties": { 
			 "R2extent": 9402.7763, 
			 "electric_dipole_moment_norm": 5.19300981705, 
			 "electric_quadrupole_moment_norm": 29.212162657, 
			 "total_energy": -1253.88143555, 
			 "HOMO_LUMO_gap": 0.197, 
			 "cosmo_polarized_energy": -11.13, 
			 "cosmo_cavitation_energy": 35.71, 
			 "cosmo_dispersion_energy": -25.5, 
			 "cosmo_repulsion_energy": 1.87, 
			 "cosmo_total_nonelectrostatic_energy": 12.07, 
			 "SMD_solvation_energy": 6.68 
		},
		"coords": [
			{
				"x": 2.816234444,
				"y": -2.5787759677,
				"z": 2.7302107289,
				"element": "N" 
			},
			{
				"x": 2.0902844703,
				"y": -1.5413269168,
				"z": 2.1629364212,
				"element": "C" 
			},
			{
				"x": 0.8162009618,
				"y": -1.7728828188,
				"z": 1.6101666321,
				"element": "C" 
			},
			{
				"x": 0.0674428471,
				"y": -0.7223170278,
				"z": 1.0926768702,
				"element": "C" 
			},
			{
				"x": 0.566130132,
				"y": 0.5886509371,
				"z": 1.1041619598,
				"element": "C" 
			},
			{
				"x": -0.4296323797,
				"y": 1.9457850421,
				"z": 0.5053455525,
				"element": "S" 
			},
			{
				"x": 0.0064031218,
				"y": 2.0925713283,
				"z": -1.2243498109,
				"element": "C" 
			},
			{
				"x": 0.931382477,
				"y": 1.2664055208,
				"z": -1.8742300562,
				"element": "C" 
			},
			{
				"x": 1.2061626422,
				"y": 1.4551880199,
				"z": -3.2271247042,
				"element": "C" 
			},
			{
				"x": 0.5632260619,
				"y": 2.4643938127,
				"z": -3.9467882608,
				"element": "C" 
			},
			{
				"x": -0.3621524598,
				"y": 3.2903549222,
				"z": -3.2999850349,
				"element": "C" 
			},
			{
				"x": -0.6397507808,
				"y": 3.1066160638,
				"z": -1.9504571189,
				"element": "C" 
			},
			{
				"x": 0.9045084726,
				"y": 2.701750402,
				"z": -5.3889817676,
				"element": "C" 
			},
			{
				"x": -0.1499832955,
				"y": 3.1865820898,
				"z": -6.0844097147,
				"element": "F" 
			},
			{
				"x": 1.3116787885,
				"y": 1.5688394773,
				"z": -6.0063605618,
				"element": "F" 
			},
			{
				"x": 1.9078362682,
				"y": 3.6024099233,
				"z": -5.5311639324,
				"element": "F" 
			},
			{
				"x": 1.8326398555,
				"y": 0.8227368238,
				"z": 1.6598203839,
				"element": "C" 
			},
			{
				"x": 2.586223159,
				"y": -0.2235854965,
				"z": 2.1787193376,
				"element": "C" 
			},
			{
				"x": 2.5792734956,
				"y": -3.511733634,
				"z": 2.4255251571,
				"element": "H" 
			},
			{
				"x": 3.8111700076,
				"y": -2.4332150386,
				"z": 2.8213737054,
				"element": "H" 
			},
			{
				"x": 0.4132035541,
				"y": -2.7824310166,
				"z": 1.5970996043,
				"element": "H" 
			},
			{
				"x": -0.9148509673,
				"y": -0.9167665193,
				"z": 0.6736308057,
				"element": "H" 
			},
			{
				"x": 1.4328786232,
				"y": 0.4766656007,
				"z": -1.3267487719,
				"element": "H" 
			},
			{
				"x": 1.9185145356,
				"y": 0.8076581911,
				"z": -3.7276284308,
				"element": "H" 
			},
			{
				"x": -0.8708505232,
				"y": 4.0707399376,
				"z": -3.8561433778,
				"element": "H" 
			},
			{
				"x": -1.3629887465,
				"y": 3.749630393,
				"z": -1.4570815708,
				"element": "H" 
			},
			{
				"x": 2.2273970209,
				"y": 1.8336395025,
				"z": 1.6832638881,
				"element": "H" 
			},
			{
				"x": 3.5643182139,
				"y": -0.0243835519,
				"z": 2.6093220672,
				"element": "H" 
			}
		],
		 "valence_orbital": [ 
			{
				"type": "occ",
				"energy": -0.29554,
				"method": "rhf"
			},
			{
				"type": "occ",
				"energy": -0.26401,
				"method": "rhf"
			},
			{
				"type": "occ",
				"energy": -0.26032,
				"method": "rhf"
			},
			{
				"type": "occ",
				"energy": -0.21757,
				"method": "rhf"
			},
			{
				"type": "occ",
				"energy": -0.21698,
				"method": "rhf"
			},
			{
				"type": "unocc",
				"energy": -0.01998,
				"method": "rhf"
			},
			{
				"type": "unocc",
				"energy": -0.01506,
				"method": "rhf"
			},
			{
				"type": "unocc",
				"energy": -0.01341,
				"method": "rhf"
			},
			{
				"type": "unocc",
				"energy": -0.00639,
				"method": "rhf"
			},
			{
				"type": "unocc",
				"energy": 0.04637,
				"method": "rhf"
			}
		],
		"cosmo_sigma_profile": { 
			"-0.025": 0.0,
			"-0.024": 0.0,
			"-0.023": 0.0,
			"-0.022": 0.0,
			"-0.021": 0.0,
			"-0.02": 0.0,
			"-0.019": 0.0,
			"-0.018": 0.0,
			"-0.017": 0.0,
			"-0.016": 0.0,
			"-0.015": 0.0,
			"-0.014": 0.0258230789979,
			"-0.013": 1.58270849049,
			"-0.012": 2.84562570234,
			"-0.011": 2.34254173154,
			"-0.01": 4.2869848446,
			"-0.009": 2.76464814995,
			"-0.008": 2.41557963393,
			"-0.007": 8.02172642756,
			"-0.006": 13.6629282428,
			"-0.005": 15.6295866076,
			"-0.004": 14.9181114549,
			"-0.003": 12.6084020829,
			"-0.002": 11.7032234818,
			"-0.001": 14.4157304456,
			"0.0": 20.8418044869,
			"0.001": 24.0330706953,
			"0.002": 31.3793508685,
			"0.003": 52.5498313774,
			"0.004": 26.6975201608,
			"0.005": 12.0287638387,
			"0.006": 4.59747968306,
			"0.007": 2.70698445861,
			"0.008": 2.57708459738,
			"0.009": 0.875780730274,
			"0.01": 0.684326285843,
			"0.011": 0.589615716171,
			"0.012": 0.556281549166,
			"0.013": 0.610683299617,
			"0.014": 0.0,
			"0.015": 0.0,
			"0.016": 0.0,
			"0.017": 0.0,
			"0.018": 0.0,
			"0.019": 0.0,
			"0.02": 0.0,
			"0.021": 0.0,
			"0.022": 0.0,
			"0.023": 0.0,
			"0.024": 0.0,
			"0.025": 0.0
		}
	}
}
