{
	 "smiles": "COC(=O)C1=CC=CC(I)=C1", 
	 "Tm": 327.35, 
	 "num_atms": 18, 
	 "gaussian": { 
		 "optdone": 1, 
		 "sigma_profile": "no", 
		 "theory": "DFT", 
		 "functional": "B3LYP", 
		 "basiset": "6-31G**", 
		 "properties": { 
			 "R2extent": 2393.729, 
			 "electric_dipole_moment_norm": 3.13631145137, 
			 "electric_quadrupole_moment_norm": 7.77720927454, 
			 "total_energy": -470.9134005, 
			 "HOMO_LUMO_gap": 0.18934, 
			 "cosmo_polarized_energy": -101561.76, 
			 "cosmo_cavitation_energy": 25.93, 
			 "cosmo_dispersion_energy": -20.46, 
			 "cosmo_repulsion_energy": 1.61, 
			 "cosmo_total_nonelectrostatic_energy": 7.09, 
			 "SMD_solvation_energy": 5.19 
		},
		"coords": [
			{
				"x": 2.1247831429,
				"y": -2.6373989253,
				"z": -2.2510440996,
				"element": "C" 
			},
			{
				"x": 1.2291293522,
				"y": -1.6864068471,
				"z": -1.6520559681,
				"element": "O" 
			},
			{
				"x": 0.9030104682,
				"y": -1.9364155344,
				"z": -0.3648728132,
				"element": "C" 
			},
			{
				"x": 1.3257308737,
				"y": -2.8907950901,
				"z": 0.2573320652,
				"element": "O" 
			},
			{
				"x": -0.0288682014,
				"y": -0.9119064932,
				"z": 0.1938844053,
				"element": "C" 
			},
			{
				"x": -0.4927347847,
				"y": 0.1743542025,
				"z": -0.5584751308,
				"element": "C" 
			},
			{
				"x": -1.3614719068,
				"y": 1.0950856748,
				"z": 0.0240383519,
				"element": "C" 
			},
			{
				"x": -1.7728820262,
				"y": 0.9436312101,
				"z": 1.3503221811,
				"element": "C" 
			},
			{
				"x": -1.3027085049,
				"y": -0.1448733528,
				"z": 2.0903007514,
				"element": "C" 
			},
			{
				"x": -1.9227590597,
				"y": -0.3825232668,
				"z": 4.1052374899,
				"element": "I" 
			},
			{
				"x": -0.434684799,
				"y": -1.0746948054,
				"z": 1.5260887569,
				"element": "C" 
			},
			{
				"x": 3.0716430408,
				"y": -2.6687076829,
				"z": -1.7062657721,
				"element": "H" 
			},
			{
				"x": 2.2801478204,
				"y": -2.291415605,
				"z": -3.2725188138,
				"element": "H" 
			},
			{
				"x": 1.683021501,
				"y": -3.6369549943,
				"z": -2.2453940534,
				"element": "H" 
			},
			{
				"x": -0.1718082849,
				"y": 0.2890380753,
				"z": -1.586931323,
				"element": "H" 
			},
			{
				"x": -1.7254313134,
				"y": 1.9400502994,
				"z": -0.5529602689,
				"element": "H" 
			},
			{
				"x": -2.4489588645,
				"y": 1.6628734995,
				"z": 1.798871733,
				"element": "H" 
			},
			{
				"x": -0.0596584539,
				"y": -1.9245403643,
				"z": 2.0835425083,
				"element": "H" 
			}
		],
		 "valence_orbital": [ 
			{
				"type": "occ",
				"energy": -0.30211,
				"method": "rhf"
			},
			{
				"type": "occ",
				"energy": -0.28119,
				"method": "rhf"
			},
			{
				"type": "occ",
				"energy": -0.27174,
				"method": "rhf"
			},
			{
				"type": "occ",
				"energy": -0.27049,
				"method": "rhf"
			},
			{
				"type": "occ",
				"energy": -0.24559,
				"method": "rhf"
			},
			{
				"type": "unocc",
				"energy": -0.05625,
				"method": "rhf"
			},
			{
				"type": "unocc",
				"energy": -0.04151,
				"method": "rhf"
			},
			{
				"type": "unocc",
				"energy": -0.02365,
				"method": "rhf"
			},
			{
				"type": "unocc",
				"energy": 0.04225,
				"method": "rhf"
			},
			{
				"type": "unocc",
				"energy": 0.04485,
				"method": "rhf"
			}
		],
		"cosmo_sigma_profile": { 
			"0.0": 0.0,
			"0.0": 0.0,
			"0.0": 0.0,
			"0.0": 0.0,
			"0.0": 0.0,
			"0.0": 0.0,
			"0.0": 0.0,
			"0.0": 0.0,
			"0.0": 0.0,
			"0.0": 0.0,
			"0.0": 0.0,
			"0.0": 0.0,
			"0.0": 0.0,
			"0.0": 0.0,
			"0.0": 0.0,
			"0.0": 0.0,
			"0.0": 0.0,
			"0.0": 0.0,
			"0.0": 0.0,
			"0.0": 0.0,
			"0.0": 0.0,
			"0.0": 0.0,
			"0.0": 0.0,
			"0.0": 0.0,
			"0.0": 0.0,
			"0.0": 0.0,
			"0.0": 0.0,
			"0.0": 0.0,
			"0.0": 0.0,
			"0.0": 0.0,
			"0.0": 0.0,
			"0.0": 0.0,
			"0.0": 0.0,
			"0.0": 0.0,
			"0.0": 0.0,
			"0.0": 0.0,
			"0.0": 0.0,
			"0.0": 0.0,
			"0.0": 0.0,
			"0.0": 0.0,
			"0.0": 0.0,
			"0.0": 0.0,
			"0.0": 0.0,
			"0.0": 0.0,
			"0.0": 0.0,
			"0.0": 0.0,
			"0.0": 0.0,
			"0.0": 0.0,
			"0.0": 0.0,
			"0.0": 0.0,
			"0.0": 0.0
		}
	}
}
