{
	 "smiles": "CN(CCCC(O)=O)S(=O)(=O)C1=CC=C(F)C=C1", 
	 "Tm": 348.15, 
	 "num_atms": 32, 
	 "gaussian": { 
		 "optdone": 1, 
		 "sigma_profile": "yes", 
		 "theory": "DFT", 
		 "functional": "B3LYP", 
		 "basiset": "6-31G**", 
		 "properties": { 
			 "R2extent": 5418.1882, 
			 "electric_dipole_moment_norm": 4.59134679696, 
			 "electric_quadrupole_moment_norm": 15.2414163659, 
			 "total_energy": -1281.22202307, 
			 "HOMO_LUMO_gap": 0.21673, 
			 "cosmo_polarized_energy": -17.73, 
			 "cosmo_cavitation_energy": 36.19, 
			 "cosmo_dispersion_energy": -24.92, 
			 "cosmo_repulsion_energy": 1.84, 
			 "cosmo_total_nonelectrostatic_energy": 13.1, 
			 "SMD_solvation_energy": 6.8 
		},
		"coords": [
			{
				"x": -1.0675077223,
				"y": -2.3822601905,
				"z": 1.2799236731,
				"element": "C" 
			},
			{
				"x": -0.8130817962,
				"y": -1.2526124278,
				"z": 0.3652698349,
				"element": "N" 
			},
			{
				"x": -1.0388447688,
				"y": 0.073683944,
				"z": 0.9713301602,
				"element": "C" 
			},
			{
				"x": 0.0670663542,
				"y": 0.4680752071,
				"z": 1.959039652,
				"element": "C" 
			},
			{
				"x": 1.4744774547,
				"y": 0.5518117726,
				"z": 1.3417881093,
				"element": "C" 
			},
			{
				"x": 2.1591816898,
				"y": -0.7682790772,
				"z": 1.0579186066,
				"element": "C" 
			},
			{
				"x": 2.0797705226,
				"y": -1.6251112049,
				"z": 2.1088532557,
				"element": "O" 
			},
			{
				"x": 2.7788256794,
				"y": -1.0436006906,
				"z": 0.052912717,
				"element": "O" 
			},
			{
				"x": -1.614086389,
				"y": -1.4533190549,
				"z": -1.1408087231,
				"element": "S" 
			},
			{
				"x": -2.9892252988,
				"y": -0.9329125184,
				"z": -1.0784549807,
				"element": "O" 
			},
			{
				"x": -1.3744774178,
				"y": -2.8440126097,
				"z": -1.5379101816,
				"element": "O" 
			},
			{
				"x": -0.6751204722,
				"y": -0.3598721186,
				"z": -2.2059349929,
				"element": "C" 
			},
			{
				"x": -1.3601393575,
				"y": 0.6349442889,
				"z": -2.9079062158,
				"element": "C" 
			},
			{
				"x": -0.6614433165,
				"y": 1.4495606144,
				"z": -3.7977091415,
				"element": "C" 
			},
			{
				"x": 0.705202635,
				"y": 1.2430771899,
				"z": -3.9570628157,
				"element": "C" 
			},
			{
				"x": 1.383755626,
				"y": 2.0315127771,
				"z": -4.809897964,
				"element": "F" 
			},
			{
				"x": 1.3987379679,
				"y": 0.2543163787,
				"z": -3.2626218539,
				"element": "C" 
			},
			{
				"x": 0.6974016771,
				"y": -0.5645235004,
				"z": -2.3819947989,
				"element": "C" 
			},
			{
				"x": -2.078163317,
				"y": -2.348313784,
				"z": 1.7106959293,
				"element": "H" 
			},
			{
				"x": -0.3292651093,
				"y": -2.3444701714,
				"z": 2.0821320945,
				"element": "H" 
			},
			{
				"x": -0.9417323544,
				"y": -3.3159332306,
				"z": 0.7325952522,
				"element": "H" 
			},
			{
				"x": -2.0173000054,
				"y": 0.1106437292,
				"z": 1.4722185876,
				"element": "H" 
			},
			{
				"x": -1.0647036725,
				"y": 0.8131030725,
				"z": 0.1650419868,
				"element": "H" 
			},
			{
				"x": 0.0823749613,
				"y": -0.2068307326,
				"z": 2.8199147105,
				"element": "H" 
			},
			{
				"x": -0.197582519,
				"y": 1.4568400148,
				"z": 2.3514982441,
				"element": "H" 
			},
			{
				"x": 1.4680953989,
				"y": 1.1152790598,
				"z": 0.4055281498,
				"element": "H" 
			},
			{
				"x": 2.1313690103,
				"y": 1.0874919837,
				"z": 2.0396194642,
				"element": "H" 
			},
			{
				"x": 2.5701175953,
				"y": -2.4208607648,
				"z": 1.8413772895,
				"element": "H" 
			},
			{
				"x": -2.4259294792,
				"y": 0.7599211466,
				"z": -2.7529663875,
				"element": "H" 
			},
			{
				"x": -1.1563171594,
				"y": 2.2319638392,
				"z": -4.3621848778,
				"element": "H" 
			},
			{
				"x": 2.465804211,
				"y": 0.1364961236,
				"z": -3.4133271566,
				"element": "H" 
			},
			{
				"x": 1.2206393718,
				"y": -1.3300090655,
				"z": -1.8222776274,
				"element": "H" 
			}
		],
		 "valence_orbital": [ 
			{
				"type": "occ",
				"energy": -0.29746,
				"method": "rhf"
			},
			{
				"type": "occ",
				"energy": -0.2836,
				"method": "rhf"
			},
			{
				"type": "occ",
				"energy": -0.27584,
				"method": "rhf"
			},
			{
				"type": "occ",
				"energy": -0.26874,
				"method": "rhf"
			},
			{
				"type": "occ",
				"energy": -0.25226,
				"method": "rhf"
			},
			{
				"type": "unocc",
				"energy": -0.03553,
				"method": "rhf"
			},
			{
				"type": "unocc",
				"energy": -0.02682,
				"method": "rhf"
			},
			{
				"type": "unocc",
				"energy": -0.0011,
				"method": "rhf"
			},
			{
				"type": "unocc",
				"energy": 0.05407,
				"method": "rhf"
			},
			{
				"type": "unocc",
				"energy": 0.06248,
				"method": "rhf"
			}
		],
		"cosmo_sigma_profile": { 
			"-0.025": 0.0,
			"-0.024": 0.0,
			"-0.023": 0.0,
			"-0.022": 0.0,
			"-0.021": 0.0,
			"-0.02": 0.0,
			"-0.019": 0.0,
			"-0.018": 0.467651069009,
			"-0.017": 0.850259596466,
			"-0.016": 1.03247747783,
			"-0.015": 0.438490850257,
			"-0.014": 1.09584572834,
			"-0.013": 0.829612112144,
			"-0.012": 0.307506384007,
			"-0.011": 0.523636138228,
			"-0.01": 0.820436591619,
			"-0.009": 1.10527981019,
			"-0.008": 4.3348537478,
			"-0.007": 7.70265230535,
			"-0.006": 9.39632873034,
			"-0.005": 18.7530104866,
			"-0.004": 29.2080011303,
			"-0.003": 26.2255032613,
			"-0.002": 28.2658794562,
			"-0.001": 22.0462443842,
			"0.0": 19.2444386399,
			"0.001": 19.2263018502,
			"0.002": 14.9718565709,
			"0.003": 14.4569223805,
			"0.004": 12.5599757788,
			"0.005": 5.61594340819,
			"0.006": 4.47182375661,
			"0.007": 5.11425245816,
			"0.008": 6.41585979429,
			"0.009": 4.86009336881,
			"0.01": 9.06424324281,
			"0.011": 11.4897714453,
			"0.012": 5.39406770506,
			"0.013": 0.123867197174,
			"0.014": 0.0,
			"0.015": 0.0,
			"0.016": 0.0,
			"0.017": 0.0,
			"0.018": 0.0,
			"0.019": 0.0,
			"0.02": 0.0,
			"0.021": 0.0,
			"0.022": 0.0,
			"0.023": 0.0,
			"0.024": 0.0,
			"0.025": 0.0
		}
	}
}
