{
	 "smiles": "CCC1=CC=C(S1)C1=CSC(N)=N1", 
	 "Tm": 366.15, 
	 "num_atms": 23, 
	 "gaussian": { 
		 "optdone": 1, 
		 "sigma_profile": "yes", 
		 "theory": "DFT", 
		 "functional": "B3LYP", 
		 "basiset": "6-31G**", 
		 "properties": { 
			 "R2extent": 4841.1542, 
			 "electric_dipole_moment_norm": 1.41721099699, 
			 "electric_quadrupole_moment_norm": 14.8318989037, 
			 "total_energy": -1254.85797303, 
			 "HOMO_LUMO_gap": 0.15942, 
			 "cosmo_polarized_energy": -12.25, 
			 "cosmo_cavitation_energy": 30.23, 
			 "cosmo_dispersion_energy": -23.14, 
			 "cosmo_repulsion_energy": 1.77, 
			 "cosmo_total_nonelectrostatic_energy": 8.85, 
			 "SMD_solvation_energy": 3.35 
		},
		"coords": [
			{
				"x": -2.6989157841,
				"y": 2.6448276128,
				"z": -1.99629196,
				"element": "C" 
			},
			{
				"x": -3.4838782382,
				"y": 1.3906409534,
				"z": -1.5708698292,
				"element": "C" 
			},
			{
				"x": -2.6314857797,
				"y": 0.1646774123,
				"z": -1.3919073199,
				"element": "C" 
			},
			{
				"x": -2.5855305772,
				"y": -0.9569464455,
				"z": -2.181738423,
				"element": "C" 
			},
			{
				"x": -1.6476476434,
				"y": -1.9311265869,
				"z": -1.7387660722,
				"element": "C" 
			},
			{
				"x": -0.9688456182,
				"y": -1.5551311254,
				"z": -0.6028952685,
				"element": "C" 
			},
			{
				"x": -1.4969320434,
				"y": 0.0271882582,
				"z": -0.0695863421,
				"element": "S" 
			},
			{
				"x": 0.0565904292,
				"y": -2.2645790807,
				"z": 0.1504769599,
				"element": "C" 
			},
			{
				"x": 0.5903545769,
				"y": -3.4878182182,
				"z": -0.1580902057,
				"element": "C" 
			},
			{
				"x": 1.7827834589,
				"y": -3.9457212944,
				"z": 1.0315970056,
				"element": "S" 
			},
			{
				"x": 1.473580945,
				"y": -2.4086693925,
				"z": 1.8530588134,
				"element": "C" 
			},
			{
				"x": 2.1019357148,
				"y": -2.0973493931,
				"z": 3.0375064394,
				"element": "N" 
			},
			{
				"x": 0.5718396989,
				"y": -1.6618281253,
				"z": 1.2908212427,
				"element": "N" 
			},
			{
				"x": -1.9527018835,
				"y": 2.9184143877,
				"z": -1.243838918,
				"element": "H" 
			},
			{
				"x": -3.3735320314,
				"y": 3.4972341112,
				"z": -2.1285495716,
				"element": "H" 
			},
			{
				"x": -2.1726806746,
				"y": 2.4732544902,
				"z": -2.940296005,
				"element": "H" 
			},
			{
				"x": -4.0319080957,
				"y": 1.6058992664,
				"z": -0.6443354224,
				"element": "H" 
			},
			{
				"x": -4.2421983539,
				"y": 1.1597345363,
				"z": -2.3281379822,
				"element": "H" 
			},
			{
				"x": -3.2130351401,
				"y": -1.0823520615,
				"z": -3.0583040126,
				"element": "H" 
			},
			{
				"x": -1.4849850716,
				"y": -2.8783360097,
				"z": -2.2413200215,
				"element": "H" 
			},
			{
				"x": 0.3715079889,
				"y": -4.1343542834,
				"z": -0.9942610666,
				"element": "H" 
			},
			{
				"x": 3.0457075388,
				"y": -2.4369448107,
				"z": 3.1561528234,
				"element": "H" 
			},
			{
				"x": 1.9788765836,
				"y": -1.1286142014,
				"z": 3.3027751359,
				"element": "H" 
			}
		],
		 "valence_orbital": [ 
			{
				"type": "occ",
				"energy": -0.28037,
				"method": "rhf"
			},
			{
				"type": "occ",
				"energy": -0.274,
				"method": "rhf"
			},
			{
				"type": "occ",
				"energy": -0.24054,
				"method": "rhf"
			},
			{
				"type": "occ",
				"energy": -0.23475,
				"method": "rhf"
			},
			{
				"type": "occ",
				"energy": -0.18899,
				"method": "rhf"
			},
			{
				"type": "unocc",
				"energy": -0.02957,
				"method": "rhf"
			},
			{
				"type": "unocc",
				"energy": 0.00595,
				"method": "rhf"
			},
			{
				"type": "unocc",
				"energy": 0.01244,
				"method": "rhf"
			},
			{
				"type": "unocc",
				"energy": 0.04891,
				"method": "rhf"
			},
			{
				"type": "unocc",
				"energy": 0.06172,
				"method": "rhf"
			}
		],
		"cosmo_sigma_profile": { 
			"-0.025": 0.0,
			"-0.024": 0.0,
			"-0.023": 0.0,
			"-0.022": 0.0,
			"-0.021": 0.0,
			"-0.02": 0.0,
			"-0.019": 0.0,
			"-0.018": 0.0,
			"-0.017": 0.0,
			"-0.016": 0.0,
			"-0.015": 0.439908509661,
			"-0.014": 1.8879602277,
			"-0.013": 3.07099700496,
			"-0.012": 2.52835850082,
			"-0.011": 2.65397453553,
			"-0.01": 2.73305327378,
			"-0.009": 2.26654386155,
			"-0.008": 4.2138618052,
			"-0.007": 4.90286076461,
			"-0.006": 6.54075457229,
			"-0.005": 7.34958804878,
			"-0.004": 12.8820993762,
			"-0.003": 18.2859907961,
			"-0.002": 18.5403338445,
			"-0.001": 19.214498925,
			"0.0": 17.4123262526,
			"0.001": 18.3243193005,
			"0.002": 16.4242909606,
			"0.003": 17.6320976344,
			"0.004": 23.9350202897,
			"0.005": 21.4774139959,
			"0.006": 8.44953536612,
			"0.007": 2.49335199551,
			"0.008": 2.27292836818,
			"0.009": 2.80428563122,
			"0.01": 1.9576461142,
			"0.011": 2.23118402094,
			"0.012": 1.55053291435,
			"0.013": 0.118381896129,
			"0.014": 0.0,
			"0.015": 0.0,
			"0.016": 0.0,
			"0.017": 0.0,
			"0.018": 0.0,
			"0.019": 0.0,
			"0.02": 0.0,
			"0.021": 0.0,
			"0.022": 0.0,
			"0.023": 0.0,
			"0.024": 0.0,
			"0.025": 0.0
		}
	}
}
