{
	 "smiles": "NC1=CC(C(=O)NCC2=CC=CS2)=C(Cl)C=C1", 
	 "Tm": 343.15, 
	 "num_atms": 28, 
	 "gaussian": { 
		 "optdone": 1, 
		 "sigma_profile": "yes", 
		 "theory": "DFT", 
		 "functional": "B3LYP", 
		 "basiset": "6-31G**", 
		 "properties": { 
			 "R2extent": 6548.4464, 
			 "electric_dipole_moment_norm": 4.29241175099, 
			 "electric_quadrupole_moment_norm": 23.8906214833, 
			 "total_energy": -1507.00656931, 
			 "HOMO_LUMO_gap": 0.19139, 
			 "cosmo_polarized_energy": -19.35, 
			 "cosmo_cavitation_energy": 36.33, 
			 "cosmo_dispersion_energy": -25.59, 
			 "cosmo_repulsion_energy": 1.97, 
			 "cosmo_total_nonelectrostatic_energy": 12.7, 
			 "SMD_solvation_energy": 5.84 
		},
		"coords": [
			{
				"x": 1.1030199174,
				"y": 2.3092764495,
				"z": 3.3229875977,
				"element": "N" 
			},
			{
				"x": 0.9657594974,
				"y": 2.4077350185,
				"z": 1.9397801177,
				"element": "C" 
			},
			{
				"x": 0.1252039825,
				"y": 1.5290610373,
				"z": 1.2377014946,
				"element": "C" 
			},
			{
				"x": 0.0082336297,
				"y": 1.5829841787,
				"z": -0.1547072266,
				"element": "C" 
			},
			{
				"x": -1.0084233379,
				"y": 0.6926682737,
				"z": -0.8367916379,
				"element": "C" 
			},
			{
				"x": -2.0787726541,
				"y": 1.1387464121,
				"z": -1.2238011652,
				"element": "O" 
			},
			{
				"x": -0.701269699,
				"y": -0.6395925123,
				"z": -0.9393903452,
				"element": "N" 
			},
			{
				"x": 0.5780403163,
				"y": -1.2971700759,
				"z": -0.7105310991,
				"element": "C" 
			},
			{
				"x": 1.1520801099,
				"y": -1.9005286617,
				"z": -1.9705655479,
				"element": "C" 
			},
			{
				"x": 1.1738354207,
				"y": -1.3785277378,
				"z": -3.2375120911,
				"element": "C" 
			},
			{
				"x": 1.8345334864,
				"y": -2.2222460398,
				"z": -4.1821394674,
				"element": "C" 
			},
			{
				"x": 2.308325026,
				"y": -3.3771110785,
				"z": -3.6248540445,
				"element": "C" 
			},
			{
				"x": 1.9475506582,
				"y": -3.4549761308,
				"z": -1.9296512274,
				"element": "S" 
			},
			{
				"x": 0.7566985357,
				"y": 2.5313349548,
				"z": -0.860465237,
				"element": "C" 
			},
			{
				"x": 0.6604679486,
				"y": 2.6335878334,
				"z": -2.6149111657,
				"element": "Cl" 
			},
			{
				"x": 1.6075068982,
				"y": 3.4028947601,
				"z": -0.1814102152,
				"element": "C" 
			},
			{
				"x": 1.7098123049,
				"y": 3.3463026871,
				"z": 1.2043484725,
				"element": "C" 
			},
			{
				"x": 1.4314607557,
				"y": 3.1453978775,
				"z": 3.7857768343,
				"element": "H" 
			},
			{
				"x": 0.3209262642,
				"y": 1.8913855718,
				"z": 3.8077374253,
				"element": "H" 
			},
			{
				"x": -0.45933881,
				"y": 0.794415862,
				"z": 1.7859239984,
				"element": "H" 
			},
			{
				"x": -1.4177203321,
				"y": -1.1757355618,
				"z": -1.4149470679,
				"element": "H" 
			},
			{
				"x": 0.4649624777,
				"y": -2.0767741635,
				"z": 0.0544528482,
				"element": "H" 
			},
			{
				"x": 1.2628928928,
				"y": -0.5530405094,
				"z": -0.2941234874,
				"element": "H" 
			},
			{
				"x": 0.7340864708,
				"y": -0.4187665964,
				"z": -3.48450311,
				"element": "H" 
			},
			{
				"x": 1.9493455476,
				"y": -1.9767137309,
				"z": -5.2319015918,
				"element": "H" 
			},
			{
				"x": 2.8432106063,
				"y": -4.1864954936,
				"z": -4.1017869059,
				"element": "H" 
			},
			{
				"x": 2.1868517479,
				"y": 4.129117839,
				"z": -0.7411136528,
				"element": "H" 
			},
			{
				"x": 2.3748203384,
				"y": 4.032769537,
				"z": 1.7215974974,
				"element": "H" 
			}
		],
		 "valence_orbital": [ 
			{
				"type": "occ",
				"energy": -0.26017,
				"method": "rhf"
			},
			{
				"type": "occ",
				"energy": -0.2514,
				"method": "rhf"
			},
			{
				"type": "occ",
				"energy": -0.24424,
				"method": "rhf"
			},
			{
				"type": "occ",
				"energy": -0.22787,
				"method": "rhf"
			},
			{
				"type": "occ",
				"energy": -0.21185,
				"method": "rhf"
			},
			{
				"type": "unocc",
				"energy": -0.02046,
				"method": "rhf"
			},
			{
				"type": "unocc",
				"energy": -0.01474,
				"method": "rhf"
			},
			{
				"type": "unocc",
				"energy": -0.00224,
				"method": "rhf"
			},
			{
				"type": "unocc",
				"energy": 0.02079,
				"method": "rhf"
			},
			{
				"type": "unocc",
				"energy": 0.02997,
				"method": "rhf"
			}
		],
		"cosmo_sigma_profile": { 
			"-0.025": 0.0,
			"-0.024": 0.0,
			"-0.023": 0.0,
			"-0.022": 0.0,
			"-0.021": 0.0,
			"-0.02": 0.0,
			"-0.019": 0.0,
			"-0.018": 0.0,
			"-0.017": 0.0,
			"-0.016": 0.0,
			"-0.015": 0.0,
			"-0.014": 0.233409201623,
			"-0.013": 2.52582084752,
			"-0.012": 4.59581946437,
			"-0.011": 3.21879598411,
			"-0.01": 4.33611149245,
			"-0.009": 4.7081240512,
			"-0.008": 5.9677582508,
			"-0.007": 11.012737623,
			"-0.006": 15.895115444,
			"-0.005": 13.9535247168,
			"-0.004": 16.9377311492,
			"-0.003": 16.8728662825,
			"-0.002": 18.6735460673,
			"-0.001": 16.975772099,
			"0.0": 16.2080717296,
			"0.001": 18.7364623202,
			"0.002": 19.3512671439,
			"0.003": 23.8381761158,
			"0.004": 27.6888520929,
			"0.005": 18.3455923808,
			"0.006": 6.98793046832,
			"0.007": 3.12125452348,
			"0.008": 3.07989189805,
			"0.009": 2.64636567212,
			"0.01": 2.39692776401,
			"0.011": 2.3119334337,
			"0.012": 3.38998831791,
			"0.013": 6.10465389907,
			"0.014": 3.80897382203,
			"0.015": 0.251204354179,
			"0.016": 0.0,
			"0.017": 0.0,
			"0.018": 0.0,
			"0.019": 0.0,
			"0.02": 0.0,
			"0.021": 0.0,
			"0.022": 0.0,
			"0.023": 0.0,
			"0.024": 0.0,
			"0.025": 0.0
		}
	}
}
