{
	 "smiles": "CCOP(=O)(OCC)OCC", 
	 "Tm": 216.95, 
	 "num_atms": 26, 
	 "gaussian": { 
		 "optdone": 1, 
		 "sigma_profile": "yes", 
		 "theory": "DFT", 
		 "functional": "B3LYP", 
		 "basiset": "6-31G**", 
		 "properties": { 
			 "R2extent": 3024.2726, 
			 "electric_dipole_moment_norm": 2.99650316536, 
			 "electric_quadrupole_moment_norm": 17.6576387071, 
			 "total_energy": -880.014122019, 
			 "HOMO_LUMO_gap": 0.34331, 
			 "cosmo_polarized_energy": -12.55, 
			 "cosmo_cavitation_energy": 30.76, 
			 "cosmo_dispersion_energy": -21.64, 
			 "cosmo_repulsion_energy": 1.82, 
			 "cosmo_total_nonelectrostatic_energy": 10.93, 
			 "SMD_solvation_energy": 7.63 
		},
		"coords": [
			{
				"x": -4.5421641988,
				"y": -0.1599359735,
				"z": 0.6454664561,
				"element": "C" 
			},
			{
				"x": -3.5857725212,
				"y": -0.4368463524,
				"z": -0.4983686608,
				"element": "C" 
			},
			{
				"x": -2.2676570564,
				"y": 0.0150792354,
				"z": -0.0927721786,
				"element": "O" 
			},
			{
				"x": -1.1112827272,
				"y": 0.1000136014,
				"z": -1.2108372483,
				"element": "P" 
			},
			{
				"x": -1.5184028942,
				"y": 0.4894067622,
				"z": -2.5761033843,
				"element": "O" 
			},
			{
				"x": -0.3869127894,
				"y": -1.3434566983,
				"z": -1.1973982702,
				"element": "O" 
			},
			{
				"x": 0.0954112335,
				"y": -1.923280521,
				"z": 0.0376001781,
				"element": "C" 
			},
			{
				"x": 0.7119289399,
				"y": -3.2703375046,
				"z": -0.2894689386,
				"element": "C" 
			},
			{
				"x": -0.1136652254,
				"y": 1.0929381992,
				"z": -0.4276321391,
				"element": "O" 
			},
			{
				"x": 0.8918352943,
				"y": 1.804731622,
				"z": -1.1946856112,
				"element": "C" 
			},
			{
				"x": 1.4991744961,
				"y": 2.8618552503,
				"z": -0.2928114298,
				"element": "C" 
			},
			{
				"x": -5.5487742814,
				"y": -0.4967450753,
				"z": 0.3775597577,
				"element": "H" 
			},
			{
				"x": -4.2308284518,
				"y": -0.6876336546,
				"z": 1.5515756747,
				"element": "H" 
			},
			{
				"x": -4.580917919,
				"y": 0.9105222353,
				"z": 0.8650714292,
				"element": "H" 
			},
			{
				"x": -3.5397645621,
				"y": -1.5088554685,
				"z": -0.7254790452,
				"element": "H" 
			},
			{
				"x": -3.8760514958,
				"y": 0.0940418683,
				"z": -1.4095174307,
				"element": "H" 
			},
			{
				"x": 0.8297118986,
				"y": -1.2458565817,
				"z": 0.4874964552,
				"element": "H" 
			},
			{
				"x": -0.7429046058,
				"y": -2.0257491147,
				"z": 0.7355983663,
				"element": "H" 
			},
			{
				"x": 1.5438962386,
				"y": -3.155886837,
				"z": -0.9898989196,
				"element": "H" 
			},
			{
				"x": 1.0893148226,
				"y": -3.7400047879,
				"z": 0.6246436566,
				"element": "H" 
			},
			{
				"x": -0.0286691666,
				"y": -3.9359586591,
				"z": -0.7415014693,
				"element": "H" 
			},
			{
				"x": 1.6513248813,
				"y": 1.090301269,
				"z": -1.5347639233,
				"element": "H" 
			},
			{
				"x": 0.4170323848,
				"y": 2.2451728923,
				"z": -2.076083872,
				"element": "H" 
			},
			{
				"x": 0.7348449248,
				"y": 3.568594068,
				"z": 0.0417572134,
				"element": "H" 
			},
			{
				"x": 2.2706914736,
				"y": 3.4157754101,
				"z": -0.8372432875,
				"element": "H" 
			},
			{
				"x": 1.9583013067,
				"y": 2.406114815,
				"z": 0.5891966211,
				"element": "H" 
			}
		],
		 "valence_orbital": [ 
			{
				"type": "occ",
				"energy": -0.31206,
				"method": "rhf"
			},
			{
				"type": "occ",
				"energy": -0.31025,
				"method": "rhf"
			},
			{
				"type": "occ",
				"energy": -0.29439,
				"method": "rhf"
			},
			{
				"type": "occ",
				"energy": -0.28307,
				"method": "rhf"
			},
			{
				"type": "occ",
				"energy": -0.28232,
				"method": "rhf"
			},
			{
				"type": "unocc",
				"energy": 0.06099,
				"method": "rhf"
			},
			{
				"type": "unocc",
				"energy": 0.09196,
				"method": "rhf"
			},
			{
				"type": "unocc",
				"energy": 0.09568,
				"method": "rhf"
			},
			{
				"type": "unocc",
				"energy": 0.10069,
				"method": "rhf"
			},
			{
				"type": "unocc",
				"energy": 0.11046,
				"method": "rhf"
			}
		],
		"cosmo_sigma_profile": { 
			"-0.025": 0.0,
			"-0.024": 0.0,
			"-0.023": 0.0,
			"-0.022": 0.0,
			"-0.021": 0.0,
			"-0.02": 0.0,
			"-0.019": 0.0,
			"-0.018": 0.0,
			"-0.017": 0.0,
			"-0.016": 0.0,
			"-0.015": 0.0,
			"-0.014": 0.0,
			"-0.013": 0.0,
			"-0.012": 0.0,
			"-0.011": 0.0,
			"-0.01": 0.0,
			"-0.009": 0.0,
			"-0.008": 0.0,
			"-0.007": 0.0,
			"-0.006": 1.94439619604,
			"-0.005": 17.1826776566,
			"-0.004": 38.7938738426,
			"-0.003": 34.8736642118,
			"-0.002": 27.9187996341,
			"-0.001": 25.5391003685,
			"0.0": 25.483554681,
			"0.001": 10.2403056399,
			"0.002": 6.02202514411,
			"0.003": 5.33823483122,
			"0.004": 4.95483698983,
			"0.005": 4.31468631284,
			"0.006": 4.03400422605,
			"0.007": 3.04195929132,
			"0.008": 3.70355940635,
			"0.009": 4.11887472469,
			"0.01": 4.90114170561,
			"0.011": 3.89530442818,
			"0.012": 1.33926048476,
			"0.013": 2.01193924128,
			"0.014": 5.77869053967,
			"0.015": 2.21710077077,
			"0.016": 0.0,
			"0.017": 0.0,
			"0.018": 0.0,
			"0.019": 0.0,
			"0.02": 0.0,
			"0.021": 0.0,
			"0.022": 0.0,
			"0.023": 0.0,
			"0.024": 0.0,
			"0.025": 0.0
		}
	}
}
