{
	 "smiles": "CC1=CC=C(F)C=C1C(O)=O", 
	 "Tm": 404.15, 
	 "num_atms": 18, 
	 "gaussian": { 
		 "optdone": 1, 
		 "sigma_profile": "yes", 
		 "theory": "DFT", 
		 "functional": "B3LYP", 
		 "basiset": "6-31G**", 
		 "properties": { 
			 "R2extent": 2175.9675, 
			 "electric_dipole_moment_norm": 2.85930737417, 
			 "electric_quadrupole_moment_norm": 5.05037660378, 
			 "total_energy": -559.372724085, 
			 "HOMO_LUMO_gap": 0.19196, 
			 "cosmo_polarized_energy": -8.36, 
			 "cosmo_cavitation_energy": 22.65, 
			 "cosmo_dispersion_energy": -16.7, 
			 "cosmo_repulsion_energy": 1.31, 
			 "cosmo_total_nonelectrostatic_energy": 7.26, 
			 "SMD_solvation_energy": 5.72 
		},
		"coords": [
			{
				"x": 2.361511569,
				"y": -2.5917436016,
				"z": 0.3101299699,
				"element": "C" 
			},
			{
				"x": 0.9450762392,
				"y": -2.1610078002,
				"z": 0.0011776956,
				"element": "C" 
			},
			{
				"x": -0.0183883481,
				"y": -3.1607962434,
				"z": -0.2042055283,
				"element": "C" 
			},
			{
				"x": -1.3502850532,
				"y": -2.87409644,
				"z": -0.4942397622,
				"element": "C" 
			},
			{
				"x": -1.7355776519,
				"y": -1.542433798,
				"z": -0.5826954906,
				"element": "C" 
			},
			{
				"x": -3.0207296675,
				"y": -1.2440312995,
				"z": -0.8625779338,
				"element": "F" 
			},
			{
				"x": -0.8277661038,
				"y": -0.5173262225,
				"z": -0.3894644153,
				"element": "C" 
			},
			{
				"x": 0.5132122191,
				"y": -0.8151819432,
				"z": -0.0974391949,
				"element": "C" 
			},
			{
				"x": 1.3731125485,
				"y": 0.3934244832,
				"z": 0.0847769136,
				"element": "C" 
			},
			{
				"x": 2.6722743524,
				"y": 0.1311225371,
				"z": 0.3680276528,
				"element": "O" 
			},
			{
				"x": 0.9690838245,
				"y": 1.5368388423,
				"z": -0.0072998312,
				"element": "O" 
			},
			{
				"x": 2.6996318246,
				"y": -2.2121726571,
				"z": 1.277977992,
				"element": "H" 
			},
			{
				"x": 3.0710274482,
				"y": -2.2183985331,
				"z": -0.4330735567,
				"element": "H" 
			},
			{
				"x": 2.422914113,
				"y": -3.6829367926,
				"z": 0.3274102271,
				"element": "H" 
			},
			{
				"x": 0.28851309,
				"y": -4.2003165907,
				"z": -0.1337949871,
				"element": "H" 
			},
			{
				"x": -2.0808664595,
				"y": -3.6607363933,
				"z": -0.6498713746,
				"element": "H" 
			},
			{
				"x": -1.1382637446,
				"y": 0.518059304,
				"z": -0.4605835891,
				"element": "H" 
			},
			{
				"x": 3.0935198002,
				"y": 1.0027331486,
				"z": 0.4562452129,
				"element": "H" 
			}
		],
		 "valence_orbital": [ 
			{
				"type": "occ",
				"energy": -0.35224,
				"method": "rhf"
			},
			{
				"type": "occ",
				"energy": -0.32179,
				"method": "rhf"
			},
			{
				"type": "occ",
				"energy": -0.28164,
				"method": "rhf"
			},
			{
				"type": "occ",
				"energy": -0.2684,
				"method": "rhf"
			},
			{
				"type": "occ",
				"energy": -0.24655,
				"method": "rhf"
			},
			{
				"type": "unocc",
				"energy": -0.05459,
				"method": "rhf"
			},
			{
				"type": "unocc",
				"energy": -0.00626,
				"method": "rhf"
			},
			{
				"type": "unocc",
				"energy": 0.05397,
				"method": "rhf"
			},
			{
				"type": "unocc",
				"energy": 0.07159,
				"method": "rhf"
			},
			{
				"type": "unocc",
				"energy": 0.09476,
				"method": "rhf"
			}
		],
		"cosmo_sigma_profile": { 
			"-0.025": 0.0,
			"-0.024": 0.0,
			"-0.023": 0.0,
			"-0.022": 0.0,
			"-0.021": 0.0,
			"-0.02": 0.0,
			"-0.019": 0.019461044233,
			"-0.018": 0.644073475948,
			"-0.017": 1.15283094881,
			"-0.016": 0.421049675567,
			"-0.015": 1.05990577754,
			"-0.014": 1.00071978713,
			"-0.013": 0.220053866767,
			"-0.012": 0.167937138241,
			"-0.011": 1.32484920105,
			"-0.01": 0.824801865825,
			"-0.009": 0.549605474573,
			"-0.008": 1.6927752444,
			"-0.007": 3.43197525364,
			"-0.006": 6.5712657155,
			"-0.005": 7.93235760824,
			"-0.004": 8.02134287272,
			"-0.003": 10.7853974036,
			"-0.002": 13.9169677698,
			"-0.001": 15.5292010886,
			"0.0": 21.1744996428,
			"0.001": 18.9630289969,
			"0.002": 16.6103097131,
			"0.003": 14.0298269703,
			"0.004": 13.6513583348,
			"0.005": 6.05134917841,
			"0.006": 1.61312211285,
			"0.007": 1.27860388403,
			"0.008": 1.5457311038,
			"0.009": 1.29111135404,
			"0.01": 2.298752699,
			"0.011": 3.61530802291,
			"0.012": 3.42257384011,
			"0.013": 0.0312704837433,
			"0.014": 0.0,
			"0.015": 0.0,
			"0.016": 0.0,
			"0.017": 0.0,
			"0.018": 0.0,
			"0.019": 0.0,
			"0.02": 0.0,
			"0.021": 0.0,
			"0.022": 0.0,
			"0.023": 0.0,
			"0.024": 0.0,
			"0.025": 0.0
		}
	}
}
