{
	 "smiles": "[O-][N+](=O)C1=CC(SSC2=CC(=CC=C2)N(=O)=O)=CC=C1", 
	 "Tm": 357.15, 
	 "num_atms": 28, 
	 "gaussian": { 
		 "optdone": 1, 
		 "sigma_profile": "yes", 
		 "theory": "DFT", 
		 "functional": "B3LYP", 
		 "basiset": "6-31G**", 
		 "properties": { 
			 "R2extent": 8117.8988, 
			 "electric_dipole_moment_norm": 5.60982604811, 
			 "electric_quadrupole_moment_norm": 22.5989059069, 
			 "total_energy": -1668.66592386, 
			 "HOMO_LUMO_gap": 0.15988, 
			 "cosmo_polarized_energy": -14.49, 
			 "cosmo_cavitation_energy": 38.98, 
			 "cosmo_dispersion_energy": -26.89, 
			 "cosmo_repulsion_energy": 1.99, 
			 "cosmo_total_nonelectrostatic_energy": 14.09, 
			 "SMD_solvation_energy": 9.91 
		},
		"coords": [
			{
				"x": -3.1632326613,
				"y": 2.9814674272,
				"z": 3.3092073361,
				"element": "O" 
			},
			{
				"x": -2.069187448,
				"y": 3.3427936538,
				"z": 2.8809298932,
				"element": "N" 
			},
			{
				"x": -1.3648000477,
				"y": 4.212926315,
				"z": 3.3892895617,
				"element": "O" 
			},
			{
				"x": -1.5612351025,
				"y": 2.6824826623,
				"z": 1.6627313764,
				"element": "C" 
			},
			{
				"x": -2.3385178821,
				"y": 1.6951775993,
				"z": 1.0655462418,
				"element": "C" 
			},
			{
				"x": -1.8535679603,
				"y": 1.0724405786,
				"z": -0.0894821204,
				"element": "C" 
			},
			{
				"x": -2.8421228019,
				"y": -0.1712368161,
				"z": -0.9261913124,
				"element": "S" 
			},
			{
				"x": -2.4231173068,
				"y": -1.9533692592,
				"z": 0.1343817396,
				"element": "S" 
			},
			{
				"x": -0.9212305513,
				"y": -2.5688034567,
				"z": -0.6340400612,
				"element": "C" 
			},
			{
				"x": 0.3252460221,
				"y": -2.2076538893,
				"z": -0.1121288288,
				"element": "C" 
			},
			{
				"x": 1.4712676935,
				"y": -2.732455623,
				"z": -0.7045895163,
				"element": "C" 
			},
			{
				"x": 1.4194852823,
				"y": -3.6082109156,
				"z": -1.7870649503,
				"element": "C" 
			},
			{
				"x": 0.1708189535,
				"y": -3.9657141148,
				"z": -2.2934467843,
				"element": "C" 
			},
			{
				"x": -0.9945522259,
				"y": -3.4504690965,
				"z": -1.7234191338,
				"element": "C" 
			},
			{
				"x": 2.7880159657,
				"y": -2.3444494055,
				"z": -0.1647482488,
				"element": "N" 
			},
			{
				"x": 2.8061171399,
				"y": -1.5492021285,
				"z": 0.773050403,
				"element": "O" 
			},
			{
				"x": 3.7845526511,
				"y": -2.8371797955,
				"z": -0.6900953675,
				"element": "O" 
			},
			{
				"x": -0.6146274071,
				"y": 1.4564725202,
				"z": -0.6246232814,
				"element": "C" 
			},
			{
				"x": 0.1431803702,
				"y": 2.4528132559,
				"z": -0.0044864903,
				"element": "C" 
			},
			{
				"x": -0.3253612625,
				"y": 3.0749707669,
				"z": 1.1505040309,
				"element": "C" 
			},
			{
				"x": -3.294000125,
				"y": 1.4264587483,
				"z": 1.497638049,
				"element": "H" 
			},
			{
				"x": 0.4145304191,
				"y": -1.5391801928,
				"z": 0.7344491123,
				"element": "H" 
			},
			{
				"x": 2.341563522,
				"y": -3.9904671718,
				"z": -2.2065540455,
				"element": "H" 
			},
			{
				"x": 0.1063772635,
				"y": -4.6485564192,
				"z": -3.1345046536,
				"element": "H" 
			},
			{
				"x": -1.9666878964,
				"y": -3.7281435426,
				"z": -2.1173087985,
				"element": "H" 
			},
			{
				"x": -0.2517315312,
				"y": 0.9741521318,
				"z": -1.5261936415,
				"element": "H" 
			},
			{
				"x": 1.1022235684,
				"y": 2.7424999803,
				"z": -0.4214868666,
				"element": "H" 
			},
			{
				"x": 0.2377933584,
				"y": 3.8494361874,
				"z": 1.6557363575,
				"element": "H" 
			}
		],
		 "valence_orbital": [ 
			{
				"type": "occ",
				"energy": -0.2982,
				"method": "rhf"
			},
			{
				"type": "occ",
				"energy": -0.29492,
				"method": "rhf"
			},
			{
				"type": "occ",
				"energy": -0.282,
				"method": "rhf"
			},
			{
				"type": "occ",
				"energy": -0.27321,
				"method": "rhf"
			},
			{
				"type": "occ",
				"energy": -0.26424,
				"method": "rhf"
			},
			{
				"type": "unocc",
				"energy": -0.10436,
				"method": "rhf"
			},
			{
				"type": "unocc",
				"energy": -0.09847,
				"method": "rhf"
			},
			{
				"type": "unocc",
				"energy": -0.08644,
				"method": "rhf"
			},
			{
				"type": "unocc",
				"energy": -0.04342,
				"method": "rhf"
			},
			{
				"type": "unocc",
				"energy": -0.02681,
				"method": "rhf"
			}
		],
		"cosmo_sigma_profile": { 
			"-0.025": 0.0,
			"-0.024": 0.0,
			"-0.023": 0.0,
			"-0.022": 0.0,
			"-0.021": 0.0,
			"-0.02": 0.0,
			"-0.019": 0.0,
			"-0.018": 0.0,
			"-0.017": 0.0,
			"-0.016": 0.0,
			"-0.015": 0.0,
			"-0.014": 0.0,
			"-0.013": 0.0,
			"-0.012": 0.0,
			"-0.011": 0.0,
			"-0.01": 0.0,
			"-0.009": 0.3454280026,
			"-0.008": 9.47684403086,
			"-0.007": 16.8415638754,
			"-0.006": 15.8744390025,
			"-0.005": 15.7505680673,
			"-0.004": 16.7125608337,
			"-0.003": 21.7358331301,
			"-0.002": 30.2047893981,
			"-0.001": 30.8375182567,
			"0.0": 32.5057087034,
			"0.001": 24.6769943948,
			"0.002": 15.2337629203,
			"0.003": 12.4376602374,
			"0.004": 10.7568920078,
			"0.005": 10.8473320603,
			"0.006": 11.6144940889,
			"0.007": 19.626497132,
			"0.008": 11.7880182764,
			"0.009": 7.94774932981,
			"0.01": 3.19950335155,
			"0.011": 0.0,
			"0.012": 0.0,
			"0.013": 0.0,
			"0.014": 0.0,
			"0.015": 0.0,
			"0.016": 0.0,
			"0.017": 0.0,
			"0.018": 0.0,
			"0.019": 0.0,
			"0.02": 0.0,
			"0.021": 0.0,
			"0.022": 0.0,
			"0.023": 0.0,
			"0.024": 0.0,
			"0.025": 0.0
		}
	}
}
