{
	 "smiles": "ClC(=O)C(C1=CC=CC=C1)C1=CC=CC=C1", 
	 "Tm": 327.95, 
	 "num_atms": 27, 
	 "gaussian": { 
		 "optdone": 1, 
		 "sigma_profile": "yes", 
		 "theory": "DFT", 
		 "functional": "B3LYP", 
		 "basiset": "6-31G**", 
		 "properties": { 
			 "R2extent": 4868.5449, 
			 "electric_dipole_moment_norm": 3.25892464473, 
			 "electric_quadrupole_moment_norm": 16.5752211023, 
			 "total_energy": -1075.54068783, 
			 "HOMO_LUMO_gap": 0.20323, 
			 "cosmo_polarized_energy": -8.55, 
			 "cosmo_cavitation_energy": 33.11, 
			 "cosmo_dispersion_energy": -22.91, 
			 "cosmo_repulsion_energy": 1.81, 
			 "cosmo_total_nonelectrostatic_energy": 12.02, 
			 "SMD_solvation_energy": 5.9 
		},
		"coords": [
			{
				"x": -2.4311302941,
				"y": -1.7664705315,
				"z": 3.579797155,
				"element": "Cl" 
			},
			{
				"x": -1.3083736284,
				"y": -0.5853498964,
				"z": 2.7394540231,
				"element": "C" 
			},
			{
				"x": -1.2297239862,
				"y": 0.5348914284,
				"z": 3.1273527961,
				"element": "O" 
			},
			{
				"x": -0.5989102223,
				"y": -1.214324927,
				"z": 1.540376574,
				"element": "C" 
			},
			{
				"x": 0.8080358786,
				"y": -0.6430472391,
				"z": 1.3764243884,
				"element": "C" 
			},
			{
				"x": 1.0335747054,
				"y": 0.6555568966,
				"z": 0.9032019713,
				"element": "C" 
			},
			{
				"x": 2.3331688099,
				"y": 1.1435029992,
				"z": 0.7751802294,
				"element": "C" 
			},
			{
				"x": 3.42499755,
				"y": 0.341008459,
				"z": 1.1148067888,
				"element": "C" 
			},
			{
				"x": 3.2092369191,
				"y": -0.9538101945,
				"z": 1.5859793002,
				"element": "C" 
			},
			{
				"x": 1.9072366202,
				"y": -1.4400605824,
				"z": 1.7175176535,
				"element": "C" 
			},
			{
				"x": -1.4807547732,
				"y": -1.0753997158,
				"z": 0.2942609265,
				"element": "C" 
			},
			{
				"x": -2.2620267509,
				"y": 0.0609380975,
				"z": 0.0487194903,
				"element": "C" 
			},
			{
				"x": -3.0168695774,
				"y": 0.1595747524,
				"z": -1.1220097114,
				"element": "C" 
			},
			{
				"x": -3.0013411495,
				"y": -0.8734495304,
				"z": -2.0589809542,
				"element": "C" 
			},
			{
				"x": -2.2282403834,
				"y": -2.0112642189,
				"z": -1.8182660151,
				"element": "C" 
			},
			{
				"x": -1.4771427771,
				"y": -2.1120275146,
				"z": -0.6482545462,
				"element": "C" 
			},
			{
				"x": -0.5090273989,
				"y": -2.2809308846,
				"z": 1.7568088407,
				"element": "H" 
			},
			{
				"x": 0.1940279637,
				"y": 1.2845080155,
				"z": 0.6279495802,
				"element": "H" 
			},
			{
				"x": 2.4935848566,
				"y": 2.1527035961,
				"z": 0.4070025464,
				"element": "H" 
			},
			{
				"x": 4.4363526948,
				"y": 0.7231238295,
				"z": 1.0109206706,
				"element": "H" 
			},
			{
				"x": 4.0507221009,
				"y": -1.5870835593,
				"z": 1.8517113387,
				"element": "H" 
			},
			{
				"x": 1.7449168282,
				"y": -2.4491284394,
				"z": 2.0887624225,
				"element": "H" 
			},
			{
				"x": -2.2939630226,
				"y": 0.8682864467,
				"z": 0.7739464417,
				"element": "H" 
			},
			{
				"x": -3.6210984417,
				"y": 1.0451210054,
				"z": -1.2961842431,
				"element": "H" 
			},
			{
				"x": -3.5908522629,
				"y": -0.7959506856,
				"z": -2.9677288052,
				"element": "H" 
			},
			{
				"x": -2.21340995,
				"y": -2.8238350976,
				"z": -2.5388527235,
				"element": "H" 
			},
			{
				"x": -0.8779903087,
				"y": -3.000282509,
				"z": -0.4658961387,
				"element": "H" 
			}
		],
		 "valence_orbital": [ 
			{
				"type": "occ",
				"energy": -0.29604,
				"method": "rhf"
			},
			{
				"type": "occ",
				"energy": -0.26136,
				"method": "rhf"
			},
			{
				"type": "occ",
				"energy": -0.26077,
				"method": "rhf"
			},
			{
				"type": "occ",
				"energy": -0.25552,
				"method": "rhf"
			},
			{
				"type": "occ",
				"energy": -0.24775,
				"method": "rhf"
			},
			{
				"type": "unocc",
				"energy": -0.04452,
				"method": "rhf"
			},
			{
				"type": "unocc",
				"energy": -0.02509,
				"method": "rhf"
			},
			{
				"type": "unocc",
				"energy": -0.01089,
				"method": "rhf"
			},
			{
				"type": "unocc",
				"energy": -0.00648,
				"method": "rhf"
			},
			{
				"type": "unocc",
				"energy": -0.00179,
				"method": "rhf"
			}
		],
		"cosmo_sigma_profile": { 
			"-0.025": 0.0,
			"-0.024": 0.0,
			"-0.023": 0.0,
			"-0.022": 0.0,
			"-0.021": 0.0,
			"-0.02": 0.0,
			"-0.019": 0.0,
			"-0.018": 0.0,
			"-0.017": 0.0,
			"-0.016": 0.0,
			"-0.015": 0.0,
			"-0.014": 0.0,
			"-0.013": 0.0,
			"-0.012": 0.0,
			"-0.011": 0.0,
			"-0.01": 0.0,
			"-0.009": 0.126513072016,
			"-0.008": 3.15162608367,
			"-0.007": 4.93152127154,
			"-0.006": 16.2084233884,
			"-0.005": 23.3728571402,
			"-0.004": 24.455308638,
			"-0.003": 18.4115860014,
			"-0.002": 16.0377183465,
			"-0.001": 16.2310771392,
			"0.0": 14.9111538071,
			"0.001": 16.6548986296,
			"0.002": 20.8180599115,
			"0.003": 22.4372485489,
			"0.004": 29.9673551801,
			"0.005": 25.252096217,
			"0.006": 6.06019957669,
			"0.007": 3.59294785829,
			"0.008": 4.30306548047,
			"0.009": 0.831161020425,
			"0.01": 0.0,
			"0.011": 0.0,
			"0.012": 0.0,
			"0.013": 0.0,
			"0.014": 0.0,
			"0.015": 0.0,
			"0.016": 0.0,
			"0.017": 0.0,
			"0.018": 0.0,
			"0.019": 0.0,
			"0.02": 0.0,
			"0.021": 0.0,
			"0.022": 0.0,
			"0.023": 0.0,
			"0.024": 0.0,
			"0.025": 0.0
		}
	}
}
