{
	 "smiles": "COCC1=C(SC2=C1C=CC=C2)C(O)=O", 
	 "Tm": 433.15, 
	 "num_atms": 25, 
	 "gaussian": { 
		 "optdone": 1, 
		 "sigma_profile": "yes", 
		 "theory": "DFT", 
		 "functional": "B3LYP", 
		 "basiset": "6-31G**", 
		 "properties": { 
			 "R2extent": 3940.8123, 
			 "electric_dipole_moment_norm": 0.994234378806, 
			 "electric_quadrupole_moment_norm": 9.16694392532, 
			 "total_energy": -1049.05833223, 
			 "HOMO_LUMO_gap": 0.15932, 
			 "cosmo_polarized_energy": -10.68, 
			 "cosmo_cavitation_energy": 30.48, 
			 "cosmo_dispersion_energy": -22.81, 
			 "cosmo_repulsion_energy": 1.74, 
			 "cosmo_total_nonelectrostatic_energy": 9.41, 
			 "SMD_solvation_energy": 6.41 
		},
		"coords": [
			{
				"x": 3.7281248942,
				"y": 0.408766571,
				"z": -0.0050751404,
				"element": "C" 
			},
			{
				"x": 2.4260795792,
				"y": -0.1314145937,
				"z": -0.1080555154,
				"element": "O" 
			},
			{
				"x": 1.5189446307,
				"y": 0.7804463963,
				"z": -0.7143708464,
				"element": "C" 
			},
			{
				"x": 0.1651009064,
				"y": 0.1313945388,
				"z": -0.8452621899,
				"element": "C" 
			},
			{
				"x": -0.6353481639,
				"y": 0.2018983319,
				"z": -1.963192703,
				"element": "C" 
			},
			{
				"x": -2.1846536887,
				"y": -0.6170123411,
				"z": -1.7636306201,
				"element": "S" 
			},
			{
				"x": -1.7628947547,
				"y": -1.062034409,
				"z": -0.1281258614,
				"element": "C" 
			},
			{
				"x": -0.4718683433,
				"y": -0.5963770385,
				"z": 0.2278959046,
				"element": "C" 
			},
			{
				"x": 0.0142073812,
				"y": -0.8705557963,
				"z": 1.5246537338,
				"element": "C" 
			},
			{
				"x": -0.7789583061,
				"y": -1.5747015727,
				"z": 2.4161374138,
				"element": "C" 
			},
			{
				"x": -2.0594823072,
				"y": -2.0280868546,
				"z": 2.0429525805,
				"element": "C" 
			},
			{
				"x": -2.5607606915,
				"y": -1.7790887294,
				"z": 0.7723763443,
				"element": "C" 
			},
			{
				"x": -0.3370355532,
				"y": 0.8679678874,
				"z": -3.2404982812,
				"element": "C" 
			},
			{
				"x": -1.3081236634,
				"y": 0.6480141599,
				"z": -4.1628041575,
				"element": "O" 
			},
			{
				"x": 0.6425243732,
				"y": 1.5478005467,
				"z": -3.490190799,
				"element": "O" 
			},
			{
				"x": 4.3579662732,
				"y": -0.3538185081,
				"z": 0.4589251286,
				"element": "H" 
			},
			{
				"x": 3.7479280763,
				"y": 1.3165447338,
				"z": 0.6189937749,
				"element": "H" 
			},
			{
				"x": 4.1421691219,
				"y": 0.662547781,
				"z": -0.9928324959,
				"element": "H" 
			},
			{
				"x": 1.8795814276,
				"y": 1.1017474335,
				"z": -1.6962643104,
				"element": "H" 
			},
			{
				"x": 1.4217065599,
				"y": 1.6867120822,
				"z": -0.0883532941,
				"element": "H" 
			},
			{
				"x": 1.0103346242,
				"y": -0.5438045551,
				"z": 1.7961701985,
				"element": "H" 
			},
			{
				"x": -0.4077214118,
				"y": -1.7864876282,
				"z": 3.4143527567,
				"element": "H" 
			},
			{
				"x": -2.6625832549,
				"y": -2.5819181713,
				"z": 2.7565264438,
				"element": "H" 
			},
			{
				"x": -3.5470195644,
				"y": -2.1293734546,
				"z": 0.4841501907,
				"element": "H" 
			},
			{
				"x": -1.0352181448,
				"y": 1.12903319,
				"z": -4.9610782556,
				"element": "H" 
			}
		],
		 "valence_orbital": [ 
			{
				"type": "occ",
				"energy": -0.28572,
				"method": "rhf"
			},
			{
				"type": "occ",
				"energy": -0.28387,
				"method": "rhf"
			},
			{
				"type": "occ",
				"energy": -0.25548,
				"method": "rhf"
			},
			{
				"type": "occ",
				"energy": -0.24217,
				"method": "rhf"
			},
			{
				"type": "occ",
				"energy": -0.22251,
				"method": "rhf"
			},
			{
				"type": "unocc",
				"energy": -0.06319,
				"method": "rhf"
			},
			{
				"type": "unocc",
				"energy": -0.00515,
				"method": "rhf"
			},
			{
				"type": "unocc",
				"energy": 0.01517,
				"method": "rhf"
			},
			{
				"type": "unocc",
				"energy": 0.02121,
				"method": "rhf"
			},
			{
				"type": "unocc",
				"energy": 0.07198,
				"method": "rhf"
			}
		],
		"cosmo_sigma_profile": { 
			"-0.025": 0.0,
			"-0.024": 0.0,
			"-0.023": 0.0,
			"-0.022": 0.0,
			"-0.021": 0.0,
			"-0.02": 0.0,
			"-0.019": 0.325828234097,
			"-0.018": 1.01731031519,
			"-0.017": 0.788085763729,
			"-0.016": 0.695895466936,
			"-0.015": 1.19944484575,
			"-0.014": 0.513645110295,
			"-0.013": 0.0334205068982,
			"-0.012": 0.895649663473,
			"-0.011": 0.946647775593,
			"-0.01": 0.409588395083,
			"-0.009": 0.785150055975,
			"-0.008": 1.05287742842,
			"-0.007": 4.17012558425,
			"-0.006": 7.40039986888,
			"-0.005": 13.855278059,
			"-0.004": 21.4328428871,
			"-0.003": 22.2177929031,
			"-0.002": 22.4474635301,
			"-0.001": 16.9026926744,
			"0.0": 15.0184916687,
			"0.001": 17.1798181902,
			"0.002": 18.6712521377,
			"0.003": 20.0367501385,
			"0.004": 21.6876753598,
			"0.005": 10.2264046331,
			"0.006": 4.67436712031,
			"0.007": 5.46363986476,
			"0.008": 3.17772267744,
			"0.009": 2.20140888294,
			"0.01": 3.47196563492,
			"0.011": 4.64302645904,
			"0.012": 1.71276546093,
			"0.013": 0.112896561315,
			"0.014": 0.0,
			"0.015": 0.0,
			"0.016": 0.0,
			"0.017": 0.0,
			"0.018": 0.0,
			"0.019": 0.0,
			"0.02": 0.0,
			"0.021": 0.0,
			"0.022": 0.0,
			"0.023": 0.0,
			"0.024": 0.0,
			"0.025": 0.0
		}
	}
}
