{
	 "smiles": "ClC1=CC=C(C=C1)S(=O)(=O)C1=CC=CC=C1", 
	 "Tm": 366.15, 
	 "num_atms": 25, 
	 "gaussian": { 
		 "optdone": 1, 
		 "sigma_profile": "yes", 
		 "theory": "DFT", 
		 "functional": "B3LYP", 
		 "basiset": "6-31G**", 
		 "properties": { 
			 "R2extent": 5206.2945, 
			 "electric_dipole_moment_norm": 4.63821738387, 
			 "electric_quadrupole_moment_norm": 23.6890685452, 
			 "total_energy": -1471.4598031, 
			 "HOMO_LUMO_gap": 0.20291, 
			 "cosmo_polarized_energy": -13.29, 
			 "cosmo_cavitation_energy": 32.93, 
			 "cosmo_dispersion_energy": -24.0, 
			 "cosmo_repulsion_energy": 1.82, 
			 "cosmo_total_nonelectrostatic_energy": 10.75, 
			 "SMD_solvation_energy": 4.64 
		},
		"coords": [
			{
				"x": 2.7276269379,
				"y": 1.0467304913,
				"z": 3.530162942,
				"element": "Cl" 
			},
			{
				"x": 1.9376625245,
				"y": 0.995854833,
				"z": 1.9659012107,
				"element": "C" 
			},
			{
				"x": 2.2639730966,
				"y": -0.0242732615,
				"z": 1.0701232485,
				"element": "C" 
			},
			{
				"x": 1.6331780954,
				"y": -0.0639625552,
				"z": -0.1719427827,
				"element": "C" 
			},
			{
				"x": 0.6885153358,
				"y": 0.9117104115,
				"z": -0.4945534817,
				"element": "C" 
			},
			{
				"x": 0.3753762282,
				"y": 1.9380730071,
				"z": 0.3981456436,
				"element": "C" 
			},
			{
				"x": 1.0037019287,
				"y": 1.9817097912,
				"z": 1.6413502031,
				"element": "C" 
			},
			{
				"x": -0.1202613617,
				"y": 0.8619470516,
				"z": -2.1045271964,
				"element": "S" 
			},
			{
				"x": -0.5676208781,
				"y": 2.2314403012,
				"z": -2.4049897311,
				"element": "O" 
			},
			{
				"x": 0.7666238862,
				"y": 0.113696062,
				"z": -3.009790762,
				"element": "O" 
			},
			{
				"x": -1.5935070013,
				"y": -0.1411384533,
				"z": -1.8426217157,
				"element": "C" 
			},
			{
				"x": -2.7840419863,
				"y": 0.4825178189,
				"z": -1.4639869208,
				"element": "C" 
			},
			{
				"x": -3.9219575086,
				"y": -0.2994838909,
				"z": -1.2652237817,
				"element": "C" 
			},
			{
				"x": -3.8617386279,
				"y": -1.6833885644,
				"z": -1.4473643172,
				"element": "C" 
			},
			{
				"x": -2.6667311087,
				"y": -2.2924991286,
				"z": -1.8383623715,
				"element": "C" 
			},
			{
				"x": -1.5218680764,
				"y": -1.5215137424,
				"z": -2.0403022154,
				"element": "C" 
			},
			{
				"x": 3.0045866197,
				"y": -0.7685431028,
				"z": 1.3400493635,
				"element": "H" 
			},
			{
				"x": 1.8866423025,
				"y": -0.8308115421,
				"z": -0.8957240746,
				"element": "H" 
			},
			{
				"x": -0.3351044752,
				"y": 2.7056066614,
				"z": 0.1112935154,
				"element": "H" 
			},
			{
				"x": 0.7799251568,
				"y": 2.7724859969,
				"z": 2.3483914049,
				"element": "H" 
			},
			{
				"x": -2.8163413079,
				"y": 1.5608601131,
				"z": -1.3525683608,
				"element": "H" 
			},
			{
				"x": -4.856151736,
				"y": 0.1722006064,
				"z": -0.9759041285,
				"element": "H" 
			},
			{
				"x": -4.7507307878,
				"y": -2.2877600963,
				"z": -1.292721352,
				"element": "H" 
			},
			{
				"x": -2.6274576548,
				"y": -3.3664127852,
				"z": -1.993542369,
				"element": "H" 
			},
			{
				"x": -0.5913996016,
				"y": -1.971746023,
				"z": -2.3685919706,
				"element": "H" 
			}
		],
		 "valence_orbital": [ 
			{
				"type": "occ",
				"energy": -0.29285,
				"method": "rhf"
			},
			{
				"type": "occ",
				"energy": -0.28407,
				"method": "rhf"
			},
			{
				"type": "occ",
				"energy": -0.28358,
				"method": "rhf"
			},
			{
				"type": "occ",
				"energy": -0.27367,
				"method": "rhf"
			},
			{
				"type": "occ",
				"energy": -0.26165,
				"method": "rhf"
			},
			{
				"type": "unocc",
				"energy": -0.05874,
				"method": "rhf"
			},
			{
				"type": "unocc",
				"energy": -0.03543,
				"method": "rhf"
			},
			{
				"type": "unocc",
				"energy": -0.02678,
				"method": "rhf"
			},
			{
				"type": "unocc",
				"energy": -0.02211,
				"method": "rhf"
			},
			{
				"type": "unocc",
				"energy": 0.01577,
				"method": "rhf"
			}
		],
		"cosmo_sigma_profile": { 
			"-0.025": 0.0,
			"-0.024": 0.0,
			"-0.023": 0.0,
			"-0.022": 0.0,
			"-0.021": 0.0,
			"-0.02": 0.0,
			"-0.019": 0.0,
			"-0.018": 0.0,
			"-0.017": 0.0,
			"-0.016": 0.0,
			"-0.015": 0.0,
			"-0.014": 0.0,
			"-0.013": 0.0,
			"-0.012": 0.0,
			"-0.011": 0.0,
			"-0.01": 0.0,
			"-0.009": 0.380937035393,
			"-0.008": 5.51880773776,
			"-0.007": 15.1006215128,
			"-0.006": 19.5206154683,
			"-0.005": 18.5358935772,
			"-0.004": 13.1100685054,
			"-0.003": 13.3964855499,
			"-0.002": 14.7938709506,
			"-0.001": 17.626533158,
			"0.0": 25.3891043456,
			"0.001": 31.462661488,
			"0.002": 23.7861200447,
			"0.003": 21.9064024644,
			"0.004": 14.0193560588,
			"0.005": 3.66154458593,
			"0.006": 2.40751593426,
			"0.007": 1.99544490109,
			"0.008": 3.65920465562,
			"0.009": 3.16297742589,
			"0.01": 6.5781594142,
			"0.011": 7.13171370347,
			"0.012": 4.55974223167,
			"0.013": 0.0,
			"0.014": 0.0,
			"0.015": 0.0,
			"0.016": 0.0,
			"0.017": 0.0,
			"0.018": 0.0,
			"0.019": 0.0,
			"0.02": 0.0,
			"0.021": 0.0,
			"0.022": 0.0,
			"0.023": 0.0,
			"0.024": 0.0,
			"0.025": 0.0
		}
	}
}
