{
	 "smiles": "ClC1=NC(=CC=N1)N1C=CC=N1", 
	 "Tm": 392.15, 
	 "num_atms": 17, 
	 "gaussian": { 
		 "optdone": 1, 
		 "sigma_profile": "yes", 
		 "theory": "DFT", 
		 "functional": "B3LYP", 
		 "basiset": "6-31G**", 
		 "properties": { 
			 "R2extent": 3375.6606, 
			 "electric_dipole_moment_norm": 5.61379114948, 
			 "electric_quadrupole_moment_norm": 12.2429217734, 
			 "total_energy": -948.91702589, 
			 "HOMO_LUMO_gap": 0.19569, 
			 "cosmo_polarized_energy": -15.9, 
			 "cosmo_cavitation_energy": 24.09, 
			 "cosmo_dispersion_energy": -18.29, 
			 "cosmo_repulsion_energy": 1.44, 
			 "cosmo_total_nonelectrostatic_energy": 7.24, 
			 "SMD_solvation_energy": 1.07 
		},
		"coords": [
			{
				"x": -3.3493669978,
				"y": 1.850282967,
				"z": 1.1201215978,
				"element": "Cl" 
			},
			{
				"x": -1.6568407237,
				"y": 2.2921585305,
				"z": 1.0345869485,
				"element": "C" 
			},
			{
				"x": -0.8171975214,
				"y": 1.2942368903,
				"z": 0.8046400379,
				"element": "N" 
			},
			{
				"x": 0.4742366352,
				"y": 1.6205044069,
				"z": 0.7375001294,
				"element": "C" 
			},
			{
				"x": 0.9096490673,
				"y": 2.9450279504,
				"z": 0.9018783918,
				"element": "C" 
			},
			{
				"x": -0.0830345474,
				"y": 3.8858009186,
				"z": 1.1368284552,
				"element": "C" 
			},
			{
				"x": -1.3870797281,
				"y": 3.5806092553,
				"z": 1.2083091372,
				"element": "N" 
			},
			{
				"x": 1.3822449029,
				"y": 0.5762705882,
				"z": 0.4941150118,
				"element": "N" 
			},
			{
				"x": 2.7540397276,
				"y": 0.6643327136,
				"z": 0.3826731067,
				"element": "C" 
			},
			{
				"x": 3.214103165,
				"y": -0.6037566774,
				"z": 0.1455623671,
				"element": "C" 
			},
			{
				"x": 2.042401277,
				"y": -1.410133369,
				"z": 0.1279266766,
				"element": "C" 
			},
			{
				"x": 0.9437757875,
				"y": -0.7066376627,
				"z": 0.3363209866,
				"element": "N" 
			},
			{
				"x": 1.9493168658,
				"y": 3.2390882506,
				"z": 0.8527606368,
				"element": "H" 
			},
			{
				"x": 0.1717813873,
				"y": 4.9341630661,
				"z": 1.275044427,
				"element": "H" 
			},
			{
				"x": 3.2830134151,
				"y": 1.5986864237,
				"z": 0.4784117977,
				"element": "H" 
			},
			{
				"x": 4.2397908924,
				"y": -0.9101022568,
				"z": 0.0050445477,
				"element": "H" 
			},
			{
				"x": 1.9661663954,
				"y": -2.4779319953,
				"z": -0.0296242558,
				"element": "H" 
			}
		],
		 "valence_orbital": [ 
			{
				"type": "occ",
				"energy": -0.30183,
				"method": "rhf"
			},
			{
				"type": "occ",
				"energy": -0.2916,
				"method": "rhf"
			},
			{
				"type": "occ",
				"energy": -0.27104,
				"method": "rhf"
			},
			{
				"type": "occ",
				"energy": -0.26878,
				"method": "rhf"
			},
			{
				"type": "occ",
				"energy": -0.26133,
				"method": "rhf"
			},
			{
				"type": "unocc",
				"energy": -0.06564,
				"method": "rhf"
			},
			{
				"type": "unocc",
				"energy": -0.04681,
				"method": "rhf"
			},
			{
				"type": "unocc",
				"energy": 0.01554,
				"method": "rhf"
			},
			{
				"type": "unocc",
				"energy": 0.03812,
				"method": "rhf"
			},
			{
				"type": "unocc",
				"energy": 0.05467,
				"method": "rhf"
			}
		],
		"cosmo_sigma_profile": { 
			"-0.025": 0.0,
			"-0.024": 0.0,
			"-0.023": 0.0,
			"-0.022": 0.0,
			"-0.021": 0.0,
			"-0.02": 0.0,
			"-0.019": 0.0,
			"-0.018": 0.0,
			"-0.017": 0.0,
			"-0.016": 0.0,
			"-0.015": 0.0,
			"-0.014": 0.0235693715229,
			"-0.013": 0.944427314703,
			"-0.012": 1.55954280544,
			"-0.011": 2.04031265057,
			"-0.01": 2.42900417401,
			"-0.009": 4.85670136877,
			"-0.008": 8.32017655823,
			"-0.007": 7.79315597267,
			"-0.006": 6.68287140642,
			"-0.005": 9.89765555543,
			"-0.004": 12.5782660607,
			"-0.003": 13.5645798632,
			"-0.002": 13.9246897712,
			"-0.001": 14.7712601596,
			"0.0": 10.4698028503,
			"0.001": 11.0009700044,
			"0.002": 13.5099142233,
			"0.003": 15.5191763461,
			"0.004": 12.8463515555,
			"0.005": 6.37857085295,
			"0.006": 4.29856978414,
			"0.007": 3.57540436935,
			"0.008": 3.31697595526,
			"0.009": 3.29169698333,
			"0.01": 2.32099728743,
			"0.011": 1.78605266378,
			"0.012": 2.70214568039,
			"0.013": 2.22341660646,
			"0.014": 1.49343536789,
			"0.015": 1.19446107966,
			"0.016": 0.919364257809,
			"0.017": 1.0788830459,
			"0.018": 0.752256586189,
			"0.019": 0.0130745963711,
			"0.02": 0.0,
			"0.021": 0.0,
			"0.022": 0.0,
			"0.023": 0.0,
			"0.024": 0.0,
			"0.025": 0.0
		}
	}
}
