{
	 "smiles": "NC(=O)C1=CC=CN=C1", 
	 "Tm": 403.15, 
	 "num_atms": 15, 
	 "gaussian": { 
		 "optdone": 1, 
		 "sigma_profile": "yes", 
		 "theory": "DFT", 
		 "functional": "B3LYP", 
		 "basiset": "6-31G**", 
		 "properties": { 
			 "R2extent": 1991.1982, 
			 "electric_dipole_moment_norm": 1.84637957636, 
			 "electric_quadrupole_moment_norm": 13.5952428253, 
			 "total_energy": -416.990910467, 
			 "HOMO_LUMO_gap": 0.20411, 
			 "cosmo_polarized_energy": -13.67, 
			 "cosmo_cavitation_energy": 19.49, 
			 "cosmo_dispersion_energy": -14.66, 
			 "cosmo_repulsion_energy": 1.2, 
			 "cosmo_total_nonelectrostatic_energy": 6.03, 
			 "SMD_solvation_energy": 2.85 
		},
		"coords": [
			{
				"x": -1.2028325093,
				"y": -2.0326258775,
				"z": 0.8721427796,
				"element": "N" 
			},
			{
				"x": -1.2075289051,
				"y": -1.12305432,
				"z": -0.154805244,
				"element": "C" 
			},
			{
				"x": -0.7680110957,
				"y": -1.3941411901,
				"z": -1.2654351255,
				"element": "O" 
			},
			{
				"x": -1.758468889,
				"y": 0.2388231286,
				"z": 0.1603213671,
				"element": "C" 
			},
			{
				"x": -2.077436393,
				"y": 1.0824292789,
				"z": -0.9097982911,
				"element": "C" 
			},
			{
				"x": -2.5891892174,
				"y": 2.3466535101,
				"z": -0.6405043806,
				"element": "C" 
			},
			{
				"x": -2.7554535104,
				"y": 2.7274236854,
				"z": 0.6937436225,
				"element": "C" 
			},
			{
				"x": -2.4349247848,
				"y": 1.9467558227,
				"z": 1.733106432,
				"element": "N" 
			},
			{
				"x": -1.9450605295,
				"y": 0.7330349513,
				"z": 1.4580623081,
				"element": "C" 
			},
			{
				"x": -1.8128512318,
				"y": -1.9248961086,
				"z": 1.6668952529,
				"element": "H" 
			},
			{
				"x": -0.9276596468,
				"y": -2.9718180144,
				"z": 0.6237140216,
				"element": "H" 
			},
			{
				"x": -1.9139427213,
				"y": 0.7251406322,
				"z": -1.9212048625,
				"element": "H" 
			},
			{
				"x": -2.8549670386,
				"y": 3.0284410077,
				"z": -1.4421544927,
				"element": "H" 
			},
			{
				"x": -3.1596052277,
				"y": 3.7078184848,
				"z": 0.9398293379,
				"element": "H" 
			},
			{
				"x": -1.6616682995,
				"y": 0.137415009,
				"z": 2.3247872747,
				"element": "H" 
			}
		],
		 "valence_orbital": [ 
			{
				"type": "occ",
				"energy": -0.29459,
				"method": "rhf"
			},
			{
				"type": "occ",
				"energy": -0.28024,
				"method": "rhf"
			},
			{
				"type": "occ",
				"energy": -0.27304,
				"method": "rhf"
			},
			{
				"type": "occ",
				"energy": -0.26835,
				"method": "rhf"
			},
			{
				"type": "occ",
				"energy": -0.2532,
				"method": "rhf"
			},
			{
				"type": "unocc",
				"energy": -0.04909,
				"method": "rhf"
			},
			{
				"type": "unocc",
				"energy": -0.03041,
				"method": "rhf"
			},
			{
				"type": "unocc",
				"energy": 0.04848,
				"method": "rhf"
			},
			{
				"type": "unocc",
				"energy": 0.07323,
				"method": "rhf"
			},
			{
				"type": "unocc",
				"energy": 0.10655,
				"method": "rhf"
			}
		],
		"cosmo_sigma_profile": { 
			"-0.025": 0.0,
			"-0.024": 0.0,
			"-0.023": 0.0,
			"-0.022": 0.0,
			"-0.021": 0.0,
			"-0.02": 0.0,
			"-0.019": 0.0,
			"-0.018": 0.0,
			"-0.017": 0.0,
			"-0.016": 0.0,
			"-0.015": 0.476285592286,
			"-0.014": 2.19932388342,
			"-0.013": 2.55587235234,
			"-0.012": 2.11059617113,
			"-0.011": 3.22273881027,
			"-0.01": 2.42328773346,
			"-0.009": 2.48193419212,
			"-0.008": 2.51414488018,
			"-0.007": 6.99128308681,
			"-0.006": 8.83220025551,
			"-0.005": 8.84325173329,
			"-0.004": 6.74955655711,
			"-0.003": 6.94857482485,
			"-0.002": 7.15029220192,
			"-0.001": 10.5260084921,
			"0.0": 10.625560044,
			"0.001": 16.4415012375,
			"0.002": 11.0975281137,
			"0.003": 4.87609515976,
			"0.004": 4.3768601877,
			"0.005": 3.62536538348,
			"0.006": 3.33018435151,
			"0.007": 3.66553463067,
			"0.008": 2.92284534838,
			"0.009": 2.34279378931,
			"0.01": 1.88772081488,
			"0.011": 2.49966954547,
			"0.012": 3.4885645159,
			"0.013": 6.11578932194,
			"0.014": 3.05519369369,
			"0.015": 0.995945549562,
			"0.016": 0.620997976972,
			"0.017": 0.0594326427808,
			"0.018": 0.0,
			"0.019": 0.0,
			"0.02": 0.0,
			"0.021": 0.0,
			"0.022": 0.0,
			"0.023": 0.0,
			"0.024": 0.0,
			"0.025": 0.0
		}
	}
}
