{
	 "smiles": "CC(C)CC(C)(C)C", 
	 "Tm": 166.15, 
	 "num_atms": 26, 
	 "gaussian": { 
		 "optdone": 1, 
		 "sigma_profile": "yes", 
		 "theory": "DFT", 
		 "functional": "B3LYP", 
		 "basiset": "6-31G**", 
		 "properties": { 
			 "R2extent": 1358.6809, 
			 "electric_dipole_moment_norm": 0.111093159105, 
			 "electric_quadrupole_moment_norm": 0.488649649545, 
			 "total_energy": -315.720900783, 
			 "HOMO_LUMO_gap": 0.35516, 
			 "cosmo_polarized_energy": -0.77, 
			 "cosmo_cavitation_energy": 25.14, 
			 "cosmo_dispersion_energy": -17.75, 
			 "cosmo_repulsion_energy": 1.44, 
			 "cosmo_total_nonelectrostatic_energy": 8.83, 
			 "SMD_solvation_energy": 4.35 
		},
		"coords": [
			{
				"x": 2.2813871805,
				"y": 0.5802450235,
				"z": 0.154843072,
				"element": "C" 
			},
			{
				"x": 0.9939207627,
				"y": -0.1448329739,
				"z": 0.5866007492,
				"element": "C" 
			},
			{
				"x": 0.9629094976,
				"y": -1.5767627841,
				"z": 0.0293690696,
				"element": "C" 
			},
			{
				"x": -0.3061064677,
				"y": 0.6832980209,
				"z": 0.38465672,
				"element": "C" 
			},
			{
				"x": -0.9876777644,
				"y": 0.9118598282,
				"z": -1.0001346279,
				"element": "C" 
			},
			{
				"x": -2.0516123778,
				"y": 2.0128279029,
				"z": -0.7871208788,
				"element": "C" 
			},
			{
				"x": -1.7186097152,
				"y": -0.3529271948,
				"z": -1.4992173079,
				"element": "C" 
			},
			{
				"x": -0.0077175389,
				"y": 1.3937859701,
				"z": -2.0870868942,
				"element": "C" 
			},
			{
				"x": 2.3787956371,
				"y": 0.6493850355,
				"z": -0.9319316199,
				"element": "H" 
			},
			{
				"x": 2.320123898,
				"y": 1.5980847916,
				"z": 0.558690856,
				"element": "H" 
			},
			{
				"x": 3.1618016814,
				"y": 0.0434259117,
				"z": 0.5262861131,
				"element": "H" 
			},
			{
				"x": 1.064094703,
				"y": -0.2447228693,
				"z": 1.6803175418,
				"element": "H" 
			},
			{
				"x": 1.013135838,
				"y": -1.591891826,
				"z": -1.064385853,
				"element": "H" 
			},
			{
				"x": 0.0567013756,
				"y": -2.1117733243,
				"z": 0.3320778836,
				"element": "H" 
			},
			{
				"x": 1.8238186989,
				"y": -2.1456685468,
				"z": 0.3985737799,
				"element": "H" 
			},
			{
				"x": -0.102163259,
				"y": 1.6752613175,
				"z": 0.8121221695,
				"element": "H" 
			},
			{
				"x": -1.0744439887,
				"y": 0.24105823,
				"z": 1.0347875482,
				"element": "H" 
			},
			{
				"x": -2.6175497945,
				"y": 2.1937720839,
				"z": -1.7080064614,
				"element": "H" 
			},
			{
				"x": -1.5894690932,
				"y": 2.9600616571,
				"z": -0.4865390548,
				"element": "H" 
			},
			{
				"x": -2.7670198812,
				"y": 1.7284124485,
				"z": -0.0067526689,
				"element": "H" 
			},
			{
				"x": -1.0304873321,
				"y": -1.1664538201,
				"z": -1.7386667367,
				"element": "H" 
			},
			{
				"x": -2.2899205145,
				"y": -0.1284739948,
				"z": -2.4076078268,
				"element": "H" 
			},
			{
				"x": -2.4259395905,
				"y": -0.7221243551,
				"z": -0.747539799,
				"element": "H" 
			},
			{
				"x": 0.7089658351,
				"y": 0.6159478148,
				"z": -2.3663479768,
				"element": "H" 
			},
			{
				"x": -0.5557239342,
				"y": 1.6724342648,
				"z": -2.9949327189,
				"element": "H" 
			},
			{
				"x": 0.5573861441,
				"y": 2.2729713882,
				"z": -1.7588550777,
				"element": "H" 
			}
		],
		 "valence_orbital": [ 
			{
				"type": "occ",
				"energy": -0.32991,
				"method": "rhf"
			},
			{
				"type": "occ",
				"energy": -0.32277,
				"method": "rhf"
			},
			{
				"type": "occ",
				"energy": -0.30882,
				"method": "rhf"
			},
			{
				"type": "occ",
				"energy": -0.30178,
				"method": "rhf"
			},
			{
				"type": "occ",
				"energy": -0.28785,
				"method": "rhf"
			},
			{
				"type": "unocc",
				"energy": 0.06731,
				"method": "rhf"
			},
			{
				"type": "unocc",
				"energy": 0.114,
				"method": "rhf"
			},
			{
				"type": "unocc",
				"energy": 0.11657,
				"method": "rhf"
			},
			{
				"type": "unocc",
				"energy": 0.13013,
				"method": "rhf"
			},
			{
				"type": "unocc",
				"energy": 0.13565,
				"method": "rhf"
			}
		],
		"cosmo_sigma_profile": { 
			"-0.025": 0.0,
			"-0.024": 0.0,
			"-0.023": 0.0,
			"-0.022": 0.0,
			"-0.021": 0.0,
			"-0.02": 0.0,
			"-0.019": 0.0,
			"-0.018": 0.0,
			"-0.017": 0.0,
			"-0.016": 0.0,
			"-0.015": 0.0,
			"-0.014": 0.0,
			"-0.013": 0.0,
			"-0.012": 0.0,
			"-0.011": 0.0,
			"-0.01": 0.0,
			"-0.009": 0.0,
			"-0.008": 0.0,
			"-0.007": 0.0,
			"-0.006": 0.0,
			"-0.005": 0.0,
			"-0.004": 0.0,
			"-0.003": 3.22566564952,
			"-0.002": 30.0512320541,
			"-0.001": 42.5637649359,
			"0.0": 43.3884214545,
			"0.001": 35.4950954557,
			"0.002": 33.0731652501,
			"0.003": 3.75642658426,
			"0.004": 0.0,
			"0.005": 0.0,
			"0.006": 0.0,
			"0.007": 0.0,
			"0.008": 0.0,
			"0.009": 0.0,
			"0.01": 0.0,
			"0.011": 0.0,
			"0.012": 0.0,
			"0.013": 0.0,
			"0.014": 0.0,
			"0.015": 0.0,
			"0.016": 0.0,
			"0.017": 0.0,
			"0.018": 0.0,
			"0.019": 0.0,
			"0.02": 0.0,
			"0.021": 0.0,
			"0.022": 0.0,
			"0.023": 0.0,
			"0.024": 0.0,
			"0.025": 0.0
		}
	}
}
