{
	 "smiles": "COC1=CC(N)=NC=N1", 
	 "Tm": 373.15, 
	 "num_atms": 16, 
	 "gaussian": { 
		 "optdone": 1, 
		 "sigma_profile": "yes", 
		 "theory": "DFT", 
		 "functional": "B3LYP", 
		 "basiset": "6-31G**", 
		 "properties": { 
			 "R2extent": 1841.9137, 
			 "electric_dipole_moment_norm": 2.02598547379, 
			 "electric_quadrupole_moment_norm": 10.755902858, 
			 "total_energy": -434.23512801, 
			 "HOMO_LUMO_gap": 0.22132, 
			 "cosmo_polarized_energy": -10.66, 
			 "cosmo_cavitation_energy": 20.2, 
			 "cosmo_dispersion_energy": -15.44, 
			 "cosmo_repulsion_energy": 1.28, 
			 "cosmo_total_nonelectrostatic_energy": 6.04, 
			 "SMD_solvation_energy": 2.24 
		},
		"coords": [
			{
				"x": -1.7824673402,
				"y": 2.3130805027,
				"z": -1.3209593678,
				"element": "C" 
			},
			{
				"x": -0.7222340797,
				"y": 1.8148545554,
				"z": -2.1455003063,
				"element": "O" 
			},
			{
				"x": 0.0268056622,
				"y": 0.8126431301,
				"z": -1.6487822544,
				"element": "C" 
			},
			{
				"x": 1.0615967235,
				"y": 0.3281997089,
				"z": -2.4497734787,
				"element": "C" 
			},
			{
				"x": 1.8212540255,
				"y": -0.714905911,
				"z": -1.9070685496,
				"element": "C" 
			},
			{
				"x": 2.891230422,
				"y": -1.2615262782,
				"z": -2.5645115858,
				"element": "N" 
			},
			{
				"x": 1.5615881832,
				"y": -1.2228512401,
				"z": -0.6787451506,
				"element": "N" 
			},
			{
				"x": 0.5495901764,
				"y": -0.6654525149,
				"z": -0.0250113577,
				"element": "C" 
			},
			{
				"x": -0.2467860337,
				"y": 0.3301154453,
				"z": -0.4313641372,
				"element": "N" 
			},
			{
				"x": -2.5091199546,
				"y": 1.5279274437,
				"z": -1.0957628652,
				"element": "H" 
			},
			{
				"x": -2.249785295,
				"y": 3.1073004462,
				"z": -1.9047121395,
				"element": "H" 
			},
			{
				"x": -1.3957108379,
				"y": 2.7100659941,
				"z": -0.3786574831,
				"element": "H" 
			},
			{
				"x": 1.2539914165,
				"y": 0.7514131537,
				"z": -3.4286189189,
				"element": "H" 
			},
			{
				"x": 3.2378002986,
				"y": -2.1287563801,
				"z": -2.1824745523,
				"element": "H" 
			},
			{
				"x": 2.9652668373,
				"y": -1.1413117656,
				"z": -3.5620361745,
				"element": "H" 
			},
			{
				"x": 0.337579796,
				"y": -1.0703962902,
				"z": 0.9637783216,
				"element": "H" 
			}
		],
		 "valence_orbital": [ 
			{
				"type": "occ",
				"energy": -0.32463,
				"method": "rhf"
			},
			{
				"type": "occ",
				"energy": -0.28929,
				"method": "rhf"
			},
			{
				"type": "occ",
				"energy": -0.25318,
				"method": "rhf"
			},
			{
				"type": "occ",
				"energy": -0.25168,
				"method": "rhf"
			},
			{
				"type": "occ",
				"energy": -0.22899,
				"method": "rhf"
			},
			{
				"type": "unocc",
				"energy": -0.00767,
				"method": "rhf"
			},
			{
				"type": "unocc",
				"energy": 0.00716,
				"method": "rhf"
			},
			{
				"type": "unocc",
				"energy": 0.08234,
				"method": "rhf"
			},
			{
				"type": "unocc",
				"energy": 0.11896,
				"method": "rhf"
			},
			{
				"type": "unocc",
				"energy": 0.12467,
				"method": "rhf"
			}
		],
		"cosmo_sigma_profile": { 
			"-0.025": 0.0,
			"-0.024": 0.0,
			"-0.023": 0.0,
			"-0.022": 0.0,
			"-0.021": 0.0,
			"-0.02": 0.0,
			"-0.019": 0.0,
			"-0.018": 0.0,
			"-0.017": 0.0,
			"-0.016": 0.0,
			"-0.015": 0.00557561615019,
			"-0.014": 1.08189525541,
			"-0.013": 2.02104108613,
			"-0.012": 2.52356473636,
			"-0.011": 2.84991543117,
			"-0.01": 2.36983066472,
			"-0.009": 2.64266150764,
			"-0.008": 2.65721795992,
			"-0.007": 3.70876824382,
			"-0.006": 6.35984589298,
			"-0.005": 9.29079174534,
			"-0.004": 10.3981365335,
			"-0.003": 11.8591438483,
			"-0.002": 8.81225652283,
			"-0.001": 7.56638479118,
			"0.0": 10.7365297236,
			"0.001": 13.8688882578,
			"0.002": 11.1464772504,
			"0.003": 9.11422796519,
			"0.004": 6.16686987908,
			"0.005": 5.64403467782,
			"0.006": 5.40304171647,
			"0.007": 5.1055633182,
			"0.008": 4.77934180789,
			"0.009": 3.89262798428,
			"0.01": 3.20352696161,
			"0.011": 1.91415268327,
			"0.012": 2.16343892768,
			"0.013": 1.30502895207,
			"0.014": 1.23289459336,
			"0.015": 0.551055205659,
			"0.016": 0.22889835417,
			"0.017": 0.0,
			"0.018": 0.0,
			"0.019": 0.0,
			"0.02": 0.0,
			"0.021": 0.0,
			"0.022": 0.0,
			"0.023": 0.0,
			"0.024": 0.0,
			"0.025": 0.0
		}
	}
}
