{
	 "smiles": "CCCCOC1=CC=C(NC(=O)C(C(F)(F)F)C(F)(F)F)C=C1", 
	 "Tm": 445.15, 
	 "num_atms": 38, 
	 "gaussian": { 
		 "optdone": 1, 
		 "sigma_profile": "yes", 
		 "theory": "DFT", 
		 "functional": "B3LYP", 
		 "basiset": "6-31G**", 
		 "properties": { 
			 "R2extent": 14543.9047, 
			 "electric_dipole_moment_norm": 3.69035305899, 
			 "electric_quadrupole_moment_norm": 18.1020609907, 
			 "total_energy": -1346.79603707, 
			 "HOMO_LUMO_gap": 0.187, 
			 "cosmo_polarized_energy": -14.95, 
			 "cosmo_cavitation_energy": 44.13, 
			 "cosmo_dispersion_energy": -30.26, 
			 "cosmo_repulsion_energy": 2.22, 
			 "cosmo_total_nonelectrostatic_energy": 16.09, 
			 "SMD_solvation_energy": 9.92 
		},
		"coords": [
			{
				"x": 0.1196840711,
				"y": -5.8156374869,
				"z": -0.8046529536,
				"element": "C" 
			},
			{
				"x": 0.8302795187,
				"y": -4.9479696082,
				"z": 0.2382368364,
				"element": "C" 
			},
			{
				"x": -0.1240809666,
				"y": -4.0018365185,
				"z": 0.9780938772,
				"element": "C" 
			},
			{
				"x": 0.5751539672,
				"y": -3.1195736076,
				"z": 2.0135524872,
				"element": "C" 
			},
			{
				"x": 1.5770048035,
				"y": -2.2704851147,
				"z": 1.4432512033,
				"element": "O" 
			},
			{
				"x": 1.2162808517,
				"y": -1.0991689976,
				"z": 0.8413502255,
				"element": "C" 
			},
			{
				"x": 2.2717554594,
				"y": -0.3565688242,
				"z": 0.2898549549,
				"element": "C" 
			},
			{
				"x": 2.025693488,
				"y": 0.8594757629,
				"z": -0.3286540195,
				"element": "C" 
			},
			{
				"x": 0.7203316115,
				"y": 1.3693607365,
				"z": -0.4170796102,
				"element": "C" 
			},
			{
				"x": 0.5560309095,
				"y": 2.6245457101,
				"z": -1.0572974399,
				"element": "N" 
			},
			{
				"x": -0.6064551005,
				"y": 3.2831548856,
				"z": -1.3392340589,
				"element": "C" 
			},
			{
				"x": -1.7271408647,
				"y": 2.9054587448,
				"z": -1.0431094255,
				"element": "O" 
			},
			{
				"x": -0.3755822379,
				"y": 4.6295512879,
				"z": -2.0826594761,
				"element": "C" 
			},
			{
				"x": 0.0223379413,
				"y": 4.3813567379,
				"z": -3.5411891793,
				"element": "C" 
			},
			{
				"x": 0.0924248835,
				"y": 5.514861106,
				"z": -4.2556120204,
				"element": "F" 
			},
			{
				"x": 1.2591646495,
				"y": 3.8132279712,
				"z": -3.5771138803,
				"element": "F" 
			},
			{
				"x": -0.8243899233,
				"y": 3.5472560931,
				"z": -4.1593113158,
				"element": "F" 
			},
			{
				"x": -1.5973686744,
				"y": 5.5477473494,
				"z": -1.9537865702,
				"element": "C" 
			},
			{
				"x": -2.6515080901,
				"y": 5.0991945061,
				"z": -2.6457334832,
				"element": "F" 
			},
			{
				"x": -1.9450226344,
				"y": 5.6815158437,
				"z": -0.6633590297,
				"element": "F" 
			},
			{
				"x": -1.2973127435,
				"y": 6.7825838582,
				"z": -2.4140566855,
				"element": "F" 
			},
			{
				"x": -0.3351205094,
				"y": 0.632591835,
				"z": 0.1295015931,
				"element": "C" 
			},
			{
				"x": -0.0855931446,
				"y": -0.5933600693,
				"z": 0.7518586827,
				"element": "C" 
			},
			{
				"x": -0.3663745528,
				"y": -5.1986745095,
				"z": -1.5689502351,
				"element": "H" 
			},
			{
				"x": 0.8233781693,
				"y": -6.4815376263,
				"z": -1.314361618,
				"element": "H" 
			},
			{
				"x": -0.6543373369,
				"y": -6.4401222982,
				"z": -0.3436452971,
				"element": "H" 
			},
			{
				"x": 1.337423947,
				"y": -5.5917735992,
				"z": 0.9700574075,
				"element": "H" 
			},
			{
				"x": 1.6164459728,
				"y": -4.3554812316,
				"z": -0.2434188034,
				"element": "H" 
			},
			{
				"x": -0.8940006044,
				"y": -4.5838946244,
				"z": 1.5038412111,
				"element": "H" 
			},
			{
				"x": -0.6546558385,
				"y": -3.3723555993,
				"z": 0.253022985,
				"element": "H" 
			},
			{
				"x": -0.1463294789,
				"y": -2.5230735624,
				"z": 2.58584713,
				"element": "H" 
			},
			{
				"x": 1.124840173,
				"y": -3.7422000617,
				"z": 2.7267823356,
				"element": "H" 
			},
			{
				"x": 3.2792005706,
				"y": -0.7522415694,
				"z": 0.3622530809,
				"element": "H" 
			},
			{
				"x": 2.8573797004,
				"y": 1.421667141,
				"z": -0.747956569,
				"element": "H" 
			},
			{
				"x": 1.4012186126,
				"y": 3.0143422965,
				"z": -1.4501363892,
				"element": "H" 
			},
			{
				"x": 0.4561355381,
				"y": 5.1730583451,
				"z": -1.6239278525,
				"element": "H" 
			},
			{
				"x": -1.344293173,
				"y": 1.01308263,
				"z": 0.0621087465,
				"element": "H" 
			},
			{
				"x": -0.9268989648,
				"y": -1.141177932,
				"z": 1.1584331551,
				"element": "H" 
			}
		],
		 "valence_orbital": [ 
			{
				"type": "occ",
				"energy": -0.31857,
				"method": "rhf"
			},
			{
				"type": "occ",
				"energy": -0.2908,
				"method": "rhf"
			},
			{
				"type": "occ",
				"energy": -0.27581,
				"method": "rhf"
			},
			{
				"type": "occ",
				"energy": -0.25961,
				"method": "rhf"
			},
			{
				"type": "occ",
				"energy": -0.20969,
				"method": "rhf"
			},
			{
				"type": "unocc",
				"energy": -0.02269,
				"method": "rhf"
			},
			{
				"type": "unocc",
				"energy": -0.01059,
				"method": "rhf"
			},
			{
				"type": "unocc",
				"energy": 0.03194,
				"method": "rhf"
			},
			{
				"type": "unocc",
				"energy": 0.0604,
				"method": "rhf"
			},
			{
				"type": "unocc",
				"energy": 0.08301,
				"method": "rhf"
			}
		],
		"cosmo_sigma_profile": { 
			"-0.025": 0.0,
			"-0.024": 0.0,
			"-0.023": 0.0,
			"-0.022": 0.0,
			"-0.021": 0.0,
			"-0.02": 0.0,
			"-0.019": 0.0,
			"-0.018": 0.0,
			"-0.017": 0.00293964199323,
			"-0.016": 0.445627010341,
			"-0.015": 1.3370913324,
			"-0.014": 1.42534506956,
			"-0.013": 2.51248449608,
			"-0.012": 3.2213151806,
			"-0.011": 3.13345801452,
			"-0.01": 2.73013246142,
			"-0.009": 1.86417800779,
			"-0.008": 2.39847944203,
			"-0.007": 4.72691066553,
			"-0.006": 6.93982695924,
			"-0.005": 10.9541204027,
			"-0.004": 15.667446044,
			"-0.003": 22.5216675314,
			"-0.002": 29.08710799,
			"-0.001": 27.9242003725,
			"0.0": 31.7737828579,
			"0.001": 43.6869953784,
			"0.002": 61.7102172791,
			"0.003": 24.6857831335,
			"0.004": 15.1051692391,
			"0.005": 14.2722489027,
			"0.006": 4.32856713731,
			"0.007": 2.24362072669,
			"0.008": 3.84149400693,
			"0.009": 3.4981703733,
			"0.01": 3.47118653916,
			"0.011": 3.48560160346,
			"0.012": 0.711647164335,
			"0.013": 0.0,
			"0.014": 0.0,
			"0.015": 0.0,
			"0.016": 0.0,
			"0.017": 0.0,
			"0.018": 0.0,
			"0.019": 0.0,
			"0.02": 0.0,
			"0.021": 0.0,
			"0.022": 0.0,
			"0.023": 0.0,
			"0.024": 0.0,
			"0.025": 0.0
		}
	}
}
