{
	 "smiles": "OC(=O)C(F)=CC1=CC=CC=C1", 
	 "Tm": 431.15, 
	 "num_atms": 19, 
	 "gaussian": { 
		 "optdone": 1, 
		 "sigma_profile": "yes", 
		 "theory": "DFT", 
		 "functional": "B3LYP", 
		 "basiset": "6-31G**", 
		 "properties": { 
			 "R2extent": 3039.5906, 
			 "electric_dipole_moment_norm": 4.33279799668, 
			 "electric_quadrupole_moment_norm": 13.1287694579, 
			 "total_energy": -597.454819586, 
			 "HOMO_LUMO_gap": 0.16804, 
			 "cosmo_polarized_energy": -11.22, 
			 "cosmo_cavitation_energy": 24.39, 
			 "cosmo_dispersion_energy": -18.01, 
			 "cosmo_repulsion_energy": 1.41, 
			 "cosmo_total_nonelectrostatic_energy": 7.8, 
			 "SMD_solvation_energy": 5.95 
		},
		"coords": [
			{
				"x": 3.0261427402,
				"y": 1.9903917654,
				"z": -1.9380213097,
				"element": "O" 
			},
			{
				"x": 2.5225749443,
				"y": 0.9097680538,
				"z": -1.3030065934,
				"element": "C" 
			},
			{
				"x": 2.928950621,
				"y": -0.2087972979,
				"z": -1.5179368401,
				"element": "O" 
			},
			{
				"x": 1.4377280388,
				"y": 1.2070498329,
				"z": -0.3274556213,
				"element": "C" 
			},
			{
				"x": 1.1354279543,
				"y": 2.5415015905,
				"z": -0.2420582135,
				"element": "F" 
			},
			{
				"x": 0.8093093381,
				"y": 0.2741451132,
				"z": 0.4010868852,
				"element": "C" 
			},
			{
				"x": -0.2593751996,
				"y": 0.4030003247,
				"z": 1.3855043583,
				"element": "C" 
			},
			{
				"x": -0.845517544,
				"y": 1.6316658674,
				"z": 1.7551610063,
				"element": "C" 
			},
			{
				"x": -1.8622672494,
				"y": 1.6686518576,
				"z": 2.7046326587,
				"element": "C" 
			},
			{
				"x": -2.3170638206,
				"y": 0.4910259659,
				"z": 3.3050558066,
				"element": "C" 
			},
			{
				"x": -1.7463029664,
				"y": -0.7324562551,
				"z": 2.9491984127,
				"element": "C" 
			},
			{
				"x": -0.7288875904,
				"y": -0.774640755,
				"z": 2.0001105535,
				"element": "C" 
			},
			{
				"x": 2.5665704029,
				"y": 2.7851803903,
				"z": -1.6242578705,
				"element": "H" 
			},
			{
				"x": 1.1782720995,
				"y": -0.7284369122,
				"z": 0.202662438,
				"element": "H" 
			},
			{
				"x": -0.5021643162,
				"y": 2.5505081878,
				"z": 1.2977331648,
				"element": "H" 
			},
			{
				"x": -2.3036252289,
				"y": 2.6224132882,
				"z": 2.9787801871,
				"element": "H" 
			},
			{
				"x": -3.1109028883,
				"y": 0.5280216276,
				"z": 4.0453069985,
				"element": "H" 
			},
			{
				"x": -2.0931142409,
				"y": -1.6522825946,
				"z": 3.4105505558,
				"element": "H" 
			},
			{
				"x": -0.2859550943,
				"y": -1.7279100506,
				"z": 1.724453423,
				"element": "H" 
			}
		],
		 "valence_orbital": [ 
			{
				"type": "occ",
				"energy": -0.32623,
				"method": "rhf"
			},
			{
				"type": "occ",
				"energy": -0.30929,
				"method": "rhf"
			},
			{
				"type": "occ",
				"energy": -0.28188,
				"method": "rhf"
			},
			{
				"type": "occ",
				"energy": -0.26581,
				"method": "rhf"
			},
			{
				"type": "occ",
				"energy": -0.2415,
				"method": "rhf"
			},
			{
				"type": "unocc",
				"energy": -0.07346,
				"method": "rhf"
			},
			{
				"type": "unocc",
				"energy": -0.01464,
				"method": "rhf"
			},
			{
				"type": "unocc",
				"energy": 0.01136,
				"method": "rhf"
			},
			{
				"type": "unocc",
				"energy": 0.06353,
				"method": "rhf"
			},
			{
				"type": "unocc",
				"energy": 0.08956,
				"method": "rhf"
			}
		],
		"cosmo_sigma_profile": { 
			"-0.025": 0.0,
			"-0.024": 0.0,
			"-0.023": 0.0,
			"-0.022": 0.0,
			"-0.021": 0.0,
			"-0.02": 0.0,
			"-0.019": 0.0,
			"-0.018": 0.0143100834077,
			"-0.017": 0.429567828384,
			"-0.016": 0.567064473355,
			"-0.015": 0.997156291459,
			"-0.014": 1.0038776559,
			"-0.013": 0.327048683591,
			"-0.012": 1.04737927779,
			"-0.011": 1.23562887392,
			"-0.01": 0.763226124416,
			"-0.009": 1.99701446015,
			"-0.008": 3.1915190151,
			"-0.007": 5.29713124135,
			"-0.006": 10.0020513181,
			"-0.005": 13.4485451234,
			"-0.004": 13.7505886409,
			"-0.003": 10.8949218446,
			"-0.002": 11.7379961908,
			"-0.001": 14.2819661713,
			"0.0": 16.7086355217,
			"0.001": 15.3891832376,
			"0.002": 14.9896114275,
			"0.003": 12.3141500218,
			"0.004": 14.0536254072,
			"0.005": 6.30306538952,
			"0.006": 1.89890319827,
			"0.007": 2.53863785843,
			"0.008": 3.23066652312,
			"0.009": 3.92280450984,
			"0.01": 4.84199364908,
			"0.011": 5.20853155005,
			"0.012": 3.3359335715,
			"0.013": 0.627763925483,
			"0.014": 0.0,
			"0.015": 0.0,
			"0.016": 0.0,
			"0.017": 0.0,
			"0.018": 0.0,
			"0.019": 0.0,
			"0.02": 0.0,
			"0.021": 0.0,
			"0.022": 0.0,
			"0.023": 0.0,
			"0.024": 0.0,
			"0.025": 0.0
		}
	}
}
