{
	 "smiles": "CCC1=NC(=CO1)C(O)=O", 
	 "Tm": 375.15, 
	 "num_atms": 17, 
	 "gaussian": { 
		 "optdone": 1, 
		 "sigma_profile": "yes", 
		 "theory": "DFT", 
		 "functional": "B3LYP", 
		 "basiset": "6-31G**", 
		 "properties": { 
			 "R2extent": 1940.0392, 
			 "electric_dipole_moment_norm": 2.17046403564, 
			 "electric_quadrupole_moment_norm": 6.2905236968, 
			 "total_energy": -513.284585199, 
			 "HOMO_LUMO_gap": 0.21672, 
			 "cosmo_polarized_energy": -12.1, 
			 "cosmo_cavitation_energy": 22.25, 
			 "cosmo_dispersion_energy": -16.34, 
			 "cosmo_repulsion_energy": 1.36, 
			 "cosmo_total_nonelectrostatic_energy": 7.27, 
			 "SMD_solvation_energy": 4.44 
		},
		"coords": [
			{
				"x": -2.7425979393,
				"y": 0.5829805092,
				"z": -0.5636138599,
				"element": "C" 
			},
			{
				"x": -1.5833098524,
				"y": -0.2319410025,
				"z": -1.1635845303,
				"element": "C" 
			},
			{
				"x": -0.4600367695,
				"y": -0.4524068608,
				"z": -0.2077004493,
				"element": "C" 
			},
			{
				"x": 0.7652420083,
				"y": -0.0383133119,
				"z": -0.2767653415,
				"element": "N" 
			},
			{
				"x": 1.3682771372,
				"y": -0.5231416738,
				"z": 0.8806154406,
				"element": "C" 
			},
			{
				"x": 0.4497125529,
				"y": -1.2204455952,
				"z": 1.6053035329,
				"element": "C" 
			},
			{
				"x": -0.7262234609,
				"y": -1.1867219837,
				"z": 0.926447301,
				"element": "O" 
			},
			{
				"x": 2.7738708688,
				"y": -0.3205373637,
				"z": 1.2682157305,
				"element": "C" 
			},
			{
				"x": 3.4728390533,
				"y": 0.4070127335,
				"z": 0.3735329163,
				"element": "O" 
			},
			{
				"x": 3.2581601801,
				"y": -0.7638115646,
				"z": 2.2927081089,
				"element": "O" 
			},
			{
				"x": -3.1659659668,
				"y": 0.0797697919,
				"z": 0.3102347443,
				"element": "H" 
			},
			{
				"x": -3.5389847316,
				"y": 0.708769119,
				"z": -1.302698963,
				"element": "H" 
			},
			{
				"x": -2.4041911033,
				"y": 1.5763900072,
				"z": -0.254693496,
				"element": "H" 
			},
			{
				"x": -1.955905604,
				"y": -1.2058615616,
				"z": -1.5048021744,
				"element": "H" 
			},
			{
				"x": -1.1590888298,
				"y": 0.2775836908,
				"z": -2.0322314326,
				"element": "H" 
			},
			{
				"x": 0.4788601398,
				"y": -1.7528768983,
				"z": 2.5415981245,
				"element": "H" 
			},
			{
				"x": 4.372642317,
				"y": 0.4713519645,
				"z": 0.7350343478,
				"element": "H" 
			}
		],
		 "valence_orbital": [ 
			{
				"type": "occ",
				"energy": -0.32994,
				"method": "rhf"
			},
			{
				"type": "occ",
				"energy": -0.31606,
				"method": "rhf"
			},
			{
				"type": "occ",
				"energy": -0.29776,
				"method": "rhf"
			},
			{
				"type": "occ",
				"energy": -0.27804,
				"method": "rhf"
			},
			{
				"type": "occ",
				"energy": -0.2541,
				"method": "rhf"
			},
			{
				"type": "unocc",
				"energy": -0.03738,
				"method": "rhf"
			},
			{
				"type": "unocc",
				"energy": 0.00354,
				"method": "rhf"
			},
			{
				"type": "unocc",
				"energy": 0.08308,
				"method": "rhf"
			},
			{
				"type": "unocc",
				"energy": 0.09589,
				"method": "rhf"
			},
			{
				"type": "unocc",
				"energy": 0.11335,
				"method": "rhf"
			}
		],
		"cosmo_sigma_profile": { 
			"-0.025": 0.0,
			"-0.024": 0.0,
			"-0.023": 0.0,
			"-0.022": 0.0,
			"-0.021": 0.0,
			"-0.02": 0.0,
			"-0.019": 0.32657639094,
			"-0.018": 0.765176297276,
			"-0.017": 1.40199281204,
			"-0.016": 0.588714676663,
			"-0.015": 0.208433559607,
			"-0.014": 0.777355945725,
			"-0.013": 0.510215520933,
			"-0.012": 0.907299239878,
			"-0.011": 2.38146461808,
			"-0.01": 2.03553527751,
			"-0.009": 2.0200376867,
			"-0.008": 1.96560242593,
			"-0.007": 2.35611312739,
			"-0.006": 4.22088517937,
			"-0.005": 7.33948135777,
			"-0.004": 11.4471428302,
			"-0.003": 19.2269233723,
			"-0.002": 22.4885313322,
			"-0.001": 18.5108270578,
			"0.0": 17.0687000142,
			"0.001": 6.52434280559,
			"0.002": 5.82992276151,
			"0.003": 5.07951961579,
			"0.004": 4.62797829716,
			"0.005": 4.79590942048,
			"0.006": 3.50405270436,
			"0.007": 3.53382258427,
			"0.008": 3.50931139652,
			"0.009": 3.16309098401,
			"0.01": 4.63514148296,
			"0.011": 5.24567055256,
			"0.012": 5.66421772193,
			"0.013": 1.71686268038,
			"0.014": 1.28484176562,
			"0.015": 1.04603961286,
			"0.016": 0.207860152507,
			"0.017": 0.0,
			"0.018": 0.0,
			"0.019": 0.0,
			"0.02": 0.0,
			"0.021": 0.0,
			"0.022": 0.0,
			"0.023": 0.0,
			"0.024": 0.0,
			"0.025": 0.0
		}
	}
}
