{
	 "smiles": "COC1=C(C=CC(N)=C1)S(N)(=O)=O", 
	 "Tm": 515.15, 
	 "num_atms": 23, 
	 "gaussian": { 
		 "optdone": 1, 
		 "sigma_profile": "yes", 
		 "theory": "DFT", 
		 "functional": "B3LYP", 
		 "basiset": "6-31G**", 
		 "properties": { 
			 "R2extent": 3148.7385, 
			 "electric_dipole_moment_norm": 5.73139446034, 
			 "electric_quadrupole_moment_norm": 25.0038110749, 
			 "total_energy": -1006.0490309, 
			 "HOMO_LUMO_gap": 0.206, 
			 "cosmo_polarized_energy": -22.96, 
			 "cosmo_cavitation_energy": 27.98, 
			 "cosmo_dispersion_energy": -21.08, 
			 "cosmo_repulsion_energy": 1.64, 
			 "cosmo_total_nonelectrostatic_energy": 8.54, 
			 "SMD_solvation_energy": 5.3 
		},
		"coords": [
			{
				"x": 1.7250497424,
				"y": 2.2761872267,
				"z": 1.7886551692,
				"element": "C" 
			},
			{
				"x": 0.3389147144,
				"y": 1.9991160065,
				"z": 1.5509026023,
				"element": "O" 
			},
			{
				"x": -0.0852721132,
				"y": 0.7395191013,
				"z": 1.878527035,
				"element": "C" 
			},
			{
				"x": -0.3531979643,
				"y": -0.1901108233,
				"z": 0.8573376469,
				"element": "C" 
			},
			{
				"x": -0.8600799836,
				"y": -1.4491511204,
				"z": 1.1920229599,
				"element": "C" 
			},
			{
				"x": -1.080204086,
				"y": -1.7925681165,
				"z": 2.5196191321,
				"element": "C" 
			},
			{
				"x": -0.8065269225,
				"y": -0.8729567087,
				"z": 3.5502250482,
				"element": "C" 
			},
			{
				"x": -1.0801266239,
				"y": -1.1886638143,
				"z": 4.8715112687,
				"element": "N" 
			},
			{
				"x": -0.3074756678,
				"y": 0.3964273953,
				"z": 3.2086680289,
				"element": "C" 
			},
			{
				"x": -0.034871592,
				"y": 0.3061853814,
				"z": -0.8285736968,
				"element": "S" 
			},
			{
				"x": -0.315884527,
				"y": -1.1370250578,
				"z": -1.6844112565,
				"element": "N" 
			},
			{
				"x": -1.054521629,
				"y": 1.25910673,
				"z": -1.2749140439,
				"element": "O" 
			},
			{
				"x": 1.3969804842,
				"y": 0.6116027175,
				"z": -0.9604206841,
				"element": "O" 
			},
			{
				"x": 1.8637052698,
				"y": 3.3333355666,
				"z": 1.5572271865,
				"element": "H" 
			},
			{
				"x": 2.3520626358,
				"y": 1.670533556,
				"z": 1.1276684445,
				"element": "H" 
			},
			{
				"x": 1.9928337508,
				"y": 2.0949812054,
				"z": 2.8370310575,
				"element": "H" 
			},
			{
				"x": -1.0657389945,
				"y": -2.1596598976,
				"z": 0.4006413162,
				"element": "H" 
			},
			{
				"x": -1.4745153199,
				"y": -2.774641692,
				"z": 2.7651495463,
				"element": "H" 
			},
			{
				"x": -1.1486971693,
				"y": -2.1703980834,
				"z": 5.0957004733,
				"element": "H" 
			},
			{
				"x": -0.5981768768,
				"y": -0.6499092258,
				"z": 5.5758995958,
				"element": "H" 
			},
			{
				"x": -0.1171609021,
				"y": 1.1398574751,
				"z": 3.9772766923,
				"element": "H" 
			},
			{
				"x": 0.5585175797,
				"y": -1.4384712459,
				"z": -2.1065197115,
				"element": "H" 
			},
			{
				"x": -1.0185138054,
				"y": -0.948996576,
				"z": -2.3948238107,
				"element": "H" 
			}
		],
		 "valence_orbital": [ 
			{
				"type": "occ",
				"energy": -0.28915,
				"method": "rhf"
			},
			{
				"type": "occ",
				"energy": -0.28478,
				"method": "rhf"
			},
			{
				"type": "occ",
				"energy": -0.27342,
				"method": "rhf"
			},
			{
				"type": "occ",
				"energy": -0.24745,
				"method": "rhf"
			},
			{
				"type": "occ",
				"energy": -0.21688,
				"method": "rhf"
			},
			{
				"type": "unocc",
				"energy": -0.01088,
				"method": "rhf"
			},
			{
				"type": "unocc",
				"energy": -0.00849,
				"method": "rhf"
			},
			{
				"type": "unocc",
				"energy": 0.05727,
				"method": "rhf"
			},
			{
				"type": "unocc",
				"energy": 0.06957,
				"method": "rhf"
			},
			{
				"type": "unocc",
				"energy": 0.08202,
				"method": "rhf"
			}
		],
		"cosmo_sigma_profile": { 
			"-0.025": 0.0,
			"-0.024": 0.0,
			"-0.023": 0.0,
			"-0.022": 0.0,
			"-0.021": 0.0,
			"-0.02": 0.0,
			"-0.019": 0.0,
			"-0.018": 0.0,
			"-0.017": 0.0,
			"-0.016": 0.0,
			"-0.015": 0.446869053319,
			"-0.014": 2.78439047995,
			"-0.013": 4.88582628172,
			"-0.012": 5.3607144781,
			"-0.011": 5.48770461726,
			"-0.01": 5.62827162839,
			"-0.009": 3.9065912134,
			"-0.008": 4.81032963863,
			"-0.007": 6.38945218359,
			"-0.006": 7.99814496491,
			"-0.005": 12.0160588305,
			"-0.004": 12.3073736505,
			"-0.003": 14.3139217554,
			"-0.002": 11.6785184009,
			"-0.001": 10.1292633294,
			"0.0": 8.55918066217,
			"0.001": 8.48872327384,
			"0.002": 10.1901436668,
			"0.003": 16.4636216429,
			"0.004": 13.3435421478,
			"0.005": 6.84813548194,
			"0.006": 5.8125501005,
			"0.007": 3.90252058432,
			"0.008": 4.4058382954,
			"0.009": 5.99976997618,
			"0.01": 8.51416128816,
			"0.011": 11.8294447469,
			"0.012": 8.15659180836,
			"0.013": 0.804515171873,
			"0.014": 0.0,
			"0.015": 0.0,
			"0.016": 0.0,
			"0.017": 0.0,
			"0.018": 0.0,
			"0.019": 0.0,
			"0.02": 0.0,
			"0.021": 0.0,
			"0.022": 0.0,
			"0.023": 0.0,
			"0.024": 0.0,
			"0.025": 0.0
		}
	}
}
