{
	 "smiles": "COC1=C(C=CC=C1)C(=O)NC1=CC=C(O)C=C1", 
	 "Tm": 446.15, 
	 "num_atms": 31, 
	 "gaussian": { 
		 "optdone": 1, 
		 "sigma_profile": "yes", 
		 "theory": "DFT", 
		 "functional": "B3LYP", 
		 "basiset": "6-31G**", 
		 "properties": { 
			 "R2extent": 6533.1819, 
			 "electric_dipole_moment_norm": 6.40665856902, 
			 "electric_quadrupole_moment_norm": 14.1372164021, 
			 "total_energy": -821.753356096, 
			 "HOMO_LUMO_gap": 0.1555, 
			 "cosmo_polarized_energy": -18.22, 
			 "cosmo_cavitation_energy": 35.08, 
			 "cosmo_dispersion_energy": -25.68, 
			 "cosmo_repulsion_energy": 1.94, 
			 "cosmo_total_nonelectrostatic_energy": 11.33, 
			 "SMD_solvation_energy": 7.27 
		},
		"coords": [
			{
				"x": -2.5963596449,
				"y": -0.0549476555,
				"z": -1.4356866002,
				"element": "C" 
			},
			{
				"x": -1.2870351723,
				"y": -0.3696450389,
				"z": -0.9774091549,
				"element": "O" 
			},
			{
				"x": -0.4896984042,
				"y": -1.2025695392,
				"z": -1.726435222,
				"element": "C" 
			},
			{
				"x": 0.8081663499,
				"y": -1.4929243866,
				"z": -1.2387949632,
				"element": "C" 
			},
			{
				"x": 1.6157375322,
				"y": -2.342836363,
				"z": -2.0073782958,
				"element": "C" 
			},
			{
				"x": 1.1823617093,
				"y": -2.8943957944,
				"z": -3.2089540817,
				"element": "C" 
			},
			{
				"x": -0.0974747453,
				"y": -2.5961227349,
				"z": -3.6707537339,
				"element": "C" 
			},
			{
				"x": -0.9312078491,
				"y": -1.7543591065,
				"z": -2.9345326756,
				"element": "C" 
			},
			{
				"x": 1.455770188,
				"y": -0.9926153619,
				"z": 0.037666114,
				"element": "C" 
			},
			{
				"x": 2.6024327157,
				"y": -1.3415559672,
				"z": 0.3175850201,
				"element": "O" 
			},
			{
				"x": 0.7092719457,
				"y": -0.1595543645,
				"z": 0.8272917481,
				"element": "N" 
			},
			{
				"x": 1.0696205732,
				"y": 0.4398226465,
				"z": 2.0523355968,
				"element": "C" 
			},
			{
				"x": 2.3148686367,
				"y": 0.2657531015,
				"z": 2.6818663777,
				"element": "C" 
			},
			{
				"x": 2.5795609174,
				"y": 0.8998724128,
				"z": 3.892170722,
				"element": "C" 
			},
			{
				"x": 1.6213522483,
				"y": 1.7153002855,
				"z": 4.5009304362,
				"element": "C" 
			},
			{
				"x": 1.9498330349,
				"y": 2.3079571182,
				"z": 5.6912865722,
				"element": "O" 
			},
			{
				"x": 0.3815322583,
				"y": 1.8924566175,
				"z": 3.8804179648,
				"element": "C" 
			},
			{
				"x": 0.112940571,
				"y": 1.2596702395,
				"z": 2.6694092722,
				"element": "C" 
			},
			{
				"x": -3.0236120707,
				"y": 0.6102420548,
				"z": -0.6841751383,
				"element": "H" 
			},
			{
				"x": -3.2174986959,
				"y": -0.9542306102,
				"z": -1.5188084976,
				"element": "H" 
			},
			{
				"x": -2.5680065329,
				"y": 0.461064813,
				"z": -2.4022982134,
				"element": "H" 
			},
			{
				"x": 2.604983019,
				"y": -2.5516644684,
				"z": -1.6158882544,
				"element": "H" 
			},
			{
				"x": 1.83630203,
				"y": -3.5485390594,
				"z": -3.7766910108,
				"element": "H" 
			},
			{
				"x": -0.4587764519,
				"y": -3.0143563066,
				"z": -4.6059160766,
				"element": "H" 
			},
			{
				"x": -1.923127146,
				"y": -1.5328611319,
				"z": -3.3080434043,
				"element": "H" 
			},
			{
				"x": -0.2193667447,
				"y": 0.050344667,
				"z": 0.4843750875,
				"element": "H" 
			},
			{
				"x": 3.0575361854,
				"y": -0.3638500548,
				"z": 2.2140433334,
				"element": "H" 
			},
			{
				"x": 3.5392030287,
				"y": 0.7683644626,
				"z": 4.3814690348,
				"element": "H" 
			},
			{
				"x": 1.2020753883,
				"y": 2.8377361714,
				"z": 5.9956479746,
				"element": "H" 
			},
			{
				"x": -0.3767234846,
				"y": 2.523565312,
				"z": 4.3395310699,
				"element": "H" 
			},
			{
				"x": -0.8559613895,
				"y": 1.4062780418,
				"z": 2.1976389985,
				"element": "H" 
			}
		],
		 "valence_orbital": [ 
			{
				"type": "occ",
				"energy": -0.25548,
				"method": "rhf"
			},
			{
				"type": "occ",
				"energy": -0.24586,
				"method": "rhf"
			},
			{
				"type": "occ",
				"energy": -0.24578,
				"method": "rhf"
			},
			{
				"type": "occ",
				"energy": -0.23524,
				"method": "rhf"
			},
			{
				"type": "occ",
				"energy": -0.19301,
				"method": "rhf"
			},
			{
				"type": "unocc",
				"energy": -0.03751,
				"method": "rhf"
			},
			{
				"type": "unocc",
				"energy": 0.0023,
				"method": "rhf"
			},
			{
				"type": "unocc",
				"energy": 0.0036,
				"method": "rhf"
			},
			{
				"type": "unocc",
				"energy": 0.02539,
				"method": "rhf"
			},
			{
				"type": "unocc",
				"energy": 0.07362,
				"method": "rhf"
			}
		],
		"cosmo_sigma_profile": { 
			"-0.025": 0.0,
			"-0.024": 0.0,
			"-0.023": 0.0,
			"-0.022": 0.0,
			"-0.021": 0.0,
			"-0.02": 0.0,
			"-0.019": 0.0,
			"-0.018": 0.170547557192,
			"-0.017": 1.10769129032,
			"-0.016": 1.40443074949,
			"-0.015": 0.794835729414,
			"-0.014": 1.06581872546,
			"-0.013": 0.972106914448,
			"-0.012": 0.980715751933,
			"-0.011": 0.699516140366,
			"-0.01": 1.21681396642,
			"-0.009": 2.16359002443,
			"-0.008": 2.95061059015,
			"-0.007": 7.9667625679,
			"-0.006": 18.7986833764,
			"-0.005": 21.1549442313,
			"-0.004": 21.0659965766,
			"-0.003": 18.2655006318,
			"-0.002": 13.4208275898,
			"-0.001": 15.3007349332,
			"0.0": 15.2242674239,
			"0.001": 16.7340978271,
			"0.002": 18.9627946717,
			"0.003": 24.3322724239,
			"0.004": 25.0730594188,
			"0.005": 20.0475136323,
			"0.006": 7.01325059838,
			"0.007": 4.02587537323,
			"0.008": 3.4157637775,
			"0.009": 2.55379413607,
			"0.01": 3.08260890655,
			"0.011": 4.13310739673,
			"0.012": 3.2482620631,
			"0.013": 3.05863141544,
			"0.014": 0.463691289555,
			"0.015": 0.0,
			"0.016": 0.0,
			"0.017": 0.0,
			"0.018": 0.0,
			"0.019": 0.0,
			"0.02": 0.0,
			"0.021": 0.0,
			"0.022": 0.0,
			"0.023": 0.0,
			"0.024": 0.0,
			"0.025": 0.0
		}
	}
}
