{
	 "smiles": "CCCCNC(=O)NS(=O)(=O)C1=CC=C(C)C=C1", 
	 "Tm": 402.15, 
	 "num_atms": 36, 
	 "gaussian": { 
		 "optdone": 1, 
		 "sigma_profile": "yes", 
		 "theory": "DFT", 
		 "functional": "B3LYP", 
		 "basiset": "6-31G**", 
		 "properties": { 
			 "R2extent": 6598.4414, 
			 "electric_dipole_moment_norm": 3.87547658618, 
			 "electric_quadrupole_moment_norm": 25.0230766268, 
			 "total_energy": -1201.45296181, 
			 "HOMO_LUMO_gap": 0.21212, 
			 "cosmo_polarized_energy": -16.78, 
			 "cosmo_cavitation_energy": 40.29, 
			 "cosmo_dispersion_energy": -27.68, 
			 "cosmo_repulsion_energy": 2.14, 
			 "cosmo_total_nonelectrostatic_energy": 14.76, 
			 "SMD_solvation_energy": 6.68 
		},
		"coords": [
			{
				"x": 1.1368606708,
				"y": 0.9402365434,
				"z": 3.5018621736,
				"element": "C" 
			},
			{
				"x": 1.233190917,
				"y": 0.6824181118,
				"z": 1.9949220608,
				"element": "C" 
			},
			{
				"x": 2.6258074353,
				"y": 0.2046552402,
				"z": 1.5638522462,
				"element": "C" 
			},
			{
				"x": 2.7927961514,
				"y": -0.0083511178,
				"z": 0.0567076797,
				"element": "C" 
			},
			{
				"x": 1.9026153411,
				"y": -1.0779573114,
				"z": -0.4282571369,
				"element": "N" 
			},
			{
				"x": 1.6238602964,
				"y": -1.3626892065,
				"z": -1.7356924925,
				"element": "C" 
			},
			{
				"x": 1.4446450311,
				"y": -2.4924810318,
				"z": -2.163084083,
				"element": "O" 
			},
			{
				"x": 1.5621271879,
				"y": -0.2450142176,
				"z": -2.6335600841,
				"element": "N" 
			},
			{
				"x": 0.4016886162,
				"y": 1.0193541074,
				"z": -2.5396535656,
				"element": "S" 
			},
			{
				"x": 0.6377981566,
				"y": 1.7624627296,
				"z": -1.3024358901,
				"element": "O" 
			},
			{
				"x": 0.490570877,
				"y": 1.6540773345,
				"z": -3.8542355287,
				"element": "O" 
			},
			{
				"x": -1.192277614,
				"y": 0.2163787341,
				"z": -2.4029951327,
				"element": "C" 
			},
			{
				"x": -1.7204863314,
				"y": -0.0596055195,
				"z": -1.140409513,
				"element": "C" 
			},
			{
				"x": -2.9553915433,
				"y": -0.6985897743,
				"z": -1.0518225672,
				"element": "C" 
			},
			{
				"x": -3.6687416014,
				"y": -1.0651874035,
				"z": -2.2020367434,
				"element": "C" 
			},
			{
				"x": -4.9905399418,
				"y": -1.7856962845,
				"z": -2.0948302291,
				"element": "C" 
			},
			{
				"x": -3.1177183902,
				"y": -0.7622212608,
				"z": -3.4561796662,
				"element": "C" 
			},
			{
				"x": -1.8844103788,
				"y": -0.1255858797,
				"z": -3.566963908,
				"element": "C" 
			},
			{
				"x": 1.3601544829,
				"y": 0.0343563404,
				"z": 4.0777266005,
				"element": "H" 
			},
			{
				"x": 0.1336566884,
				"y": 1.2743917585,
				"z": 3.7856065326,
				"element": "H" 
			},
			{
				"x": 1.845269309,
				"y": 1.7142869208,
				"z": 3.8186030544,
				"element": "H" 
			},
			{
				"x": 0.9797449421,
				"y": 1.592969789,
				"z": 1.4395997481,
				"element": "H" 
			},
			{
				"x": 0.4890796122,
				"y": -0.0689980661,
				"z": 1.7022772019,
				"element": "H" 
			},
			{
				"x": 2.8801235741,
				"y": -0.7245184229,
				"z": 2.0966221698,
				"element": "H" 
			},
			{
				"x": 3.3791078108,
				"y": 0.9403795697,
				"z": 1.874238533,
				"element": "H" 
			},
			{
				"x": 2.5530282804,
				"y": 0.9072987031,
				"z": -0.480213933,
				"element": "H" 
			},
			{
				"x": 3.8379033979,
				"y": -0.2705650982,
				"z": -0.162613524,
				"element": "H" 
			},
			{
				"x": 1.958778429,
				"y": -1.9422829725,
				"z": 0.0991426453,
				"element": "H" 
			},
			{
				"x": 1.5378755322,
				"y": -0.6080846694,
				"z": -3.5841616257,
				"element": "H" 
			},
			{
				"x": -1.180051474,
				"y": 0.2392764145,
				"z": -0.2495835155,
				"element": "H" 
			},
			{
				"x": -3.3755160341,
				"y": -0.9100020955,
				"z": -0.072220013,
				"element": "H" 
			},
			{
				"x": -5.6528762816,
				"y": -1.5337470429,
				"z": -2.928054043,
				"element": "H" 
			},
			{
				"x": -4.8433317846,
				"y": -2.8726963696,
				"z": -2.112494505,
				"element": "H" 
			},
			{
				"x": -5.505946969,
				"y": -1.5412876867,
				"z": -1.1617671364,
				"element": "H" 
			},
			{
				"x": -3.6650663,
				"y": -1.0224891168,
				"z": -4.3580883883,
				"element": "H" 
			},
			{
				"x": -1.4707280959,
				"y": 0.1253082509,
				"z": -4.5377074214,
				"element": "H" 
			}
		],
		 "valence_orbital": [ 
			{
				"type": "occ",
				"energy": -0.30042,
				"method": "rhf"
			},
			{
				"type": "occ",
				"energy": -0.27649,
				"method": "rhf"
			},
			{
				"type": "occ",
				"energy": -0.2724,
				"method": "rhf"
			},
			{
				"type": "occ",
				"energy": -0.26262,
				"method": "rhf"
			},
			{
				"type": "occ",
				"energy": -0.25571,
				"method": "rhf"
			},
			{
				"type": "unocc",
				"energy": -0.04359,
				"method": "rhf"
			},
			{
				"type": "unocc",
				"energy": -0.02368,
				"method": "rhf"
			},
			{
				"type": "unocc",
				"energy": 0.0032,
				"method": "rhf"
			},
			{
				"type": "unocc",
				"energy": 0.0576,
				"method": "rhf"
			},
			{
				"type": "unocc",
				"energy": 0.07802,
				"method": "rhf"
			}
		],
		"cosmo_sigma_profile": { 
			"-0.025": 0.0,
			"-0.024": 0.0,
			"-0.023": 0.0,
			"-0.022": 0.0,
			"-0.021": 0.0,
			"-0.02": 0.0,
			"-0.019": 0.0,
			"-0.018": 0.0,
			"-0.017": 0.0,
			"-0.016": 0.114864626351,
			"-0.015": 0.678048414002,
			"-0.014": 0.447304193101,
			"-0.013": 2.13592455706,
			"-0.012": 2.34354068744,
			"-0.011": 1.15944361579,
			"-0.01": 1.95493668685,
			"-0.009": 2.60712670697,
			"-0.008": 1.98109556295,
			"-0.007": 5.07798959782,
			"-0.006": 10.7681227306,
			"-0.005": 16.0482309625,
			"-0.004": 19.8656394399,
			"-0.003": 27.1363174283,
			"-0.002": 34.7753048441,
			"-0.001": 33.8106338123,
			"0.0": 32.9407720573,
			"0.001": 28.4979415593,
			"0.002": 22.6024831304,
			"0.003": 17.6180947738,
			"0.004": 6.69838218949,
			"0.005": 5.14755105066,
			"0.006": 4.95893487193,
			"0.007": 4.57129161998,
			"0.008": 3.83738938297,
			"0.009": 5.64634268997,
			"0.01": 8.11119841542,
			"0.011": 6.97641315422,
			"0.012": 4.36668268423,
			"0.013": 4.01760622818,
			"0.014": 0.142096301269,
			"0.015": 0.0,
			"0.016": 0.0,
			"0.017": 0.0,
			"0.018": 0.0,
			"0.019": 0.0,
			"0.02": 0.0,
			"0.021": 0.0,
			"0.022": 0.0,
			"0.023": 0.0,
			"0.024": 0.0,
			"0.025": 0.0
		}
	}
}
