{
	 "smiles": "CN(C)[C@H]1[C@@H]2[C@@H](O)[C@H]3C(=C(O)C4=C(C=CC=C4O)[C@@]3(C)O)C(=O)[C@]2(O)C(=O)C(=C(N)O)C1=O", 
	 "Tm": 394.15, 
	 "num_atms": 57, 
	 "gaussian": { 
		 "optdone": 1, 
		 "sigma_profile": "yes", 
		 "theory": "DFT", 
		 "functional": "B3LYP", 
		 "basiset": "6-31G**", 
		 "properties": { 
			 "R2extent": 13503.4645, 
			 "electric_dipole_moment_norm": 3.61450190206, 
			 "electric_quadrupole_moment_norm": 24.319799125, 
			 "total_energy": -1639.34327794, 
			 "HOMO_LUMO_gap": 0.13487, 
			 "cosmo_polarized_energy": -21.09, 
			 "cosmo_cavitation_energy": 53.87, 
			 "cosmo_dispersion_energy": -37.05, 
			 "cosmo_repulsion_energy": 2.71, 
			 "cosmo_total_nonelectrostatic_energy": 19.53, 
			 "SMD_solvation_energy": 10.57 
		},
		"coords": [
			{
				"x": -2.3578182026,
				"y": 1.8184802741,
				"z": -3.5586974074,
				"element": "C" 
			},
			{
				"x": -1.186293037,
				"y": 1.6995194417,
				"z": -2.6966952493,
				"element": "N" 
			},
			{
				"x": -0.1867993806,
				"y": 2.7308295397,
				"z": -2.9647629257,
				"element": "C" 
			},
			{
				"x": -0.6600866553,
				"y": 0.3552739278,
				"z": -2.5082366547,
				"element": "C" 
			},
			{
				"x": -1.5832572557,
				"y": -0.4965285212,
				"z": -1.5902955597,
				"element": "C" 
			},
			{
				"x": -1.9016220714,
				"y": 0.2004096465,
				"z": -0.2382699136,
				"element": "C" 
			},
			{
				"x": -3.308210125,
				"y": 0.11507835,
				"z": 0.0580109024,
				"element": "O" 
			},
			{
				"x": -1.1072756377,
				"y": -0.3868496107,
				"z": 0.9589174938,
				"element": "C" 
			},
			{
				"x": 0.2576385212,
				"y": -0.8569547836,
				"z": 0.5336090429,
				"element": "C" 
			},
			{
				"x": 1.4264900144,
				"y": -0.299956828,
				"z": 1.025766356,
				"element": "C" 
			},
			{
				"x": 2.611637067,
				"y": -0.7859413837,
				"z": 0.6279484424,
				"element": "O" 
			},
			{
				"x": 1.4226864285,
				"y": 0.8955267089,
				"z": 1.8522310391,
				"element": "C" 
			},
			{
				"x": 0.1715821689,
				"y": 1.3948675243,
				"z": 2.3080428075,
				"element": "C" 
			},
			{
				"x": 0.1063030199,
				"y": 2.6292578303,
				"z": 2.939241935,
				"element": "C" 
			},
			{
				"x": 1.2769284892,
				"y": 3.3696496093,
				"z": 3.1525196588,
				"element": "C" 
			},
			{
				"x": 2.5125050174,
				"y": 2.8886694815,
				"z": 2.745624422,
				"element": "C" 
			},
			{
				"x": 2.6024889353,
				"y": 1.6548875089,
				"z": 2.0865368594,
				"element": "C" 
			},
			{
				"x": 3.8333043637,
				"y": 1.2689347003,
				"z": 1.6895293279,
				"element": "O" 
			},
			{
				"x": -1.0779463998,
				"y": 0.5152508986,
				"z": 2.2300057353,
				"element": "C" 
			},
			{
				"x": -1.0810259724,
				"y": -0.3928447417,
				"z": 3.4830951711,
				"element": "C" 
			},
			{
				"x": -2.2204413587,
				"y": 1.3622053286,
				"z": 2.2866008125,
				"element": "O" 
			},
			{
				"x": 0.3468821432,
				"y": -1.7308709223,
				"z": -0.5924586365,
				"element": "C" 
			},
			{
				"x": 1.4206125554,
				"y": -2.2300151431,
				"z": -1.0140549655,
				"element": "O" 
			},
			{
				"x": -0.9783763178,
				"y": -1.8995776838,
				"z": -1.382003065,
				"element": "C" 
			},
			{
				"x": -1.8962154243,
				"y": -2.6885454968,
				"z": -0.6321904362,
				"element": "O" 
			},
			{
				"x": -0.7124470507,
				"y": -2.6002530885,
				"z": -2.7116781858,
				"element": "C" 
			},
			{
				"x": -0.8489415664,
				"y": -3.8534548301,
				"z": -2.7183099805,
				"element": "O" 
			},
			{
				"x": -0.3500405554,
				"y": -1.8352294593,
				"z": -3.8517082835,
				"element": "C" 
			},
			{
				"x": -0.0469793585,
				"y": -2.5614568632,
				"z": -5.0547739692,
				"element": "C" 
			},
			{
				"x": 0.3210825505,
				"y": -1.9462146488,
				"z": -6.1696157406,
				"element": "N" 
			},
			{
				"x": -0.1267502901,
				"y": -3.8685972867,
				"z": -5.0898718793,
				"element": "O" 
			},
			{
				"x": -0.2990921137,
				"y": -0.3845012287,
				"z": -3.8222502715,
				"element": "C" 
			},
			{
				"x": 0.0270504354,
				"y": 0.2917804625,
				"z": -4.811898792,
				"element": "O" 
			},
			{
				"x": -3.1337571971,
				"y": 1.1127593605,
				"z": -3.2479299165,
				"element": "H" 
			},
			{
				"x": -2.1382491442,
				"y": 1.6543859855,
				"z": -4.625066913,
				"element": "H" 
			},
			{
				"x": -2.774317538,
				"y": 2.8246601932,
				"z": -3.4457260939,
				"element": "H" 
			},
			{
				"x": -0.646818318,
				"y": 3.7148723611,
				"z": -2.8194202136,
				"element": "H" 
			},
			{
				"x": 0.2320666344,
				"y": 2.6853633213,
				"z": -3.9796079403,
				"element": "H" 
			},
			{
				"x": 0.6347228736,
				"y": 2.6408571923,
				"z": -2.246318686,
				"element": "H" 
			},
			{
				"x": 0.2996679449,
				"y": 0.475789965,
				"z": -1.9856166065,
				"element": "H" 
			},
			{
				"x": -2.5438880127,
				"y": -0.6389159111,
				"z": -2.0974680969,
				"element": "H" 
			},
			{
				"x": -1.7060395998,
				"y": 1.2679666634,
				"z": -0.3540310258,
				"element": "H" 
			},
			{
				"x": -3.5203585365,
				"y": -0.8300872203,
				"z": 0.1075393716,
				"element": "H" 
			},
			{
				"x": -1.6668401879,
				"y": -1.2845270616,
				"z": 1.2462035001,
				"element": "H" 
			},
			{
				"x": 2.4029553976,
				"y": -1.504443188,
				"z": -0.0699255416,
				"element": "H" 
			},
			{
				"x": -0.8570015213,
				"y": 3.0010139978,
				"z": 3.2652647959,
				"element": "H" 
			},
			{
				"x": 1.2183605253,
				"y": 4.3330858319,
				"z": 3.6514871729,
				"element": "H" 
			},
			{
				"x": 3.4278155688,
				"y": 3.4473865517,
				"z": 2.9081410948,
				"element": "H" 
			},
			{
				"x": 3.7590508537,
				"y": 0.4157044707,
				"z": 1.2232954959,
				"element": "H" 
			},
			{
				"x": -2.0000643645,
				"y": -0.988666342,
				"z": 3.4972930148,
				"element": "H" 
			},
			{
				"x": -1.0535861324,
				"y": 0.2226720945,
				"z": 4.3856123509,
				"element": "H" 
			},
			{
				"x": -0.2234681576,
				"y": -1.0732461732,
				"z": 3.4965848543,
				"element": "H" 
			},
			{
				"x": -2.9171955708,
				"y": 0.9691040269,
				"z": 1.7320195948,
				"element": "H" 
			},
			{
				"x": -1.7601897742,
				"y": -3.5996414551,
				"z": -0.9530082361,
				"element": "H" 
			},
			{
				"x": 0.526900446,
				"y": -2.490920324,
				"z": -6.9934506509,
				"element": "H" 
			},
			{
				"x": 0.3743911929,
				"y": -0.9250396391,
				"z": -6.1196653772,
				"element": "H" 
			},
			{
				"x": -0.431730319,
				"y": -4.154663414,
				"z": -4.1540140377,
				"element": "H" 
			}
		],
		 "valence_orbital": [ 
			{
				"type": "occ",
				"energy": -0.25573,
				"method": "rhf"
			},
			{
				"type": "occ",
				"energy": -0.25372,
				"method": "rhf"
			},
			{
				"type": "occ",
				"energy": -0.23117,
				"method": "rhf"
			},
			{
				"type": "occ",
				"energy": -0.21703,
				"method": "rhf"
			},
			{
				"type": "occ",
				"energy": -0.20972,
				"method": "rhf"
			},
			{
				"type": "unocc",
				"energy": -0.07485,
				"method": "rhf"
			},
			{
				"type": "unocc",
				"energy": -0.04944,
				"method": "rhf"
			},
			{
				"type": "unocc",
				"energy": -0.03987,
				"method": "rhf"
			},
			{
				"type": "unocc",
				"energy": -0.00661,
				"method": "rhf"
			},
			{
				"type": "unocc",
				"energy": 0.012,
				"method": "rhf"
			}
		],
		"cosmo_sigma_profile": { 
			"-0.025": 0.0,
			"-0.024": 0.0,
			"-0.023": 0.0,
			"-0.022": 0.0,
			"-0.021": 0.0,
			"-0.02": 0.0,
			"-0.019": 0.0,
			"-0.018": 0.0,
			"-0.017": 0.0562164362468,
			"-0.016": 1.13922244017,
			"-0.015": 1.03480326052,
			"-0.014": 0.997166602592,
			"-0.013": 1.85493376256,
			"-0.012": 1.91577004056,
			"-0.011": 2.33595548792,
			"-0.01": 3.18676803985,
			"-0.009": 3.80233293705,
			"-0.008": 4.38874909402,
			"-0.007": 7.83127685196,
			"-0.006": 17.7201274146,
			"-0.005": 18.0022937558,
			"-0.004": 30.6380006785,
			"-0.003": 34.2168181324,
			"-0.002": 35.0560454059,
			"-0.001": 46.5018177078,
			"0.0": 42.1874322538,
			"0.001": 29.7830933468,
			"0.002": 24.0538991647,
			"0.003": 22.2938917519,
			"0.004": 19.27811514,
			"0.005": 13.372879672,
			"0.006": 13.5148726291,
			"0.007": 10.324557463,
			"0.008": 12.6239658791,
			"0.009": 10.5260169477,
			"0.01": 6.166051591,
			"0.011": 6.76671510082,
			"0.012": 1.93107838168,
			"0.013": 1.06043534526,
			"0.014": 0.14551048973,
			"0.015": 0.0,
			"0.016": 0.0,
			"0.017": 0.0,
			"0.018": 0.0,
			"0.019": 0.0,
			"0.02": 0.0,
			"0.021": 0.0,
			"0.022": 0.0,
			"0.023": 0.0,
			"0.024": 0.0,
			"0.025": 0.0
		}
	}
}
