{
	 "smiles": "OC(C1=CC(F)=CC=C1)C1=NC=CC=C1", 
	 "Tm": 352.15, 
	 "num_atms": 25, 
	 "gaussian": { 
		 "optdone": 1, 
		 "sigma_profile": "yes", 
		 "theory": "DFT", 
		 "functional": "B3LYP", 
		 "basiset": "6-31G**", 
		 "properties": { 
			 "R2extent": 3640.8336, 
			 "electric_dipole_moment_norm": 3.74392467472, 
			 "electric_quadrupole_moment_norm": 8.32955812153, 
			 "total_energy": -693.107074235, 
			 "HOMO_LUMO_gap": 0.19941, 
			 "cosmo_polarized_energy": -9.32, 
			 "cosmo_cavitation_energy": 29.46, 
			 "cosmo_dispersion_energy": -21.2, 
			 "cosmo_repulsion_energy": 1.63, 
			 "cosmo_total_nonelectrostatic_energy": 9.89, 
			 "SMD_solvation_energy": 4.62 
		},
		"coords": [
			{
				"x": -0.3641145606,
				"y": -1.3099497265,
				"z": -2.3265299508,
				"element": "O" 
			},
			{
				"x": -0.6589422541,
				"y": -0.2753424691,
				"z": -1.4218420825,
				"element": "C" 
			},
			{
				"x": -1.5084278376,
				"y": -0.7929353759,
				"z": -0.2666715902,
				"element": "C" 
			},
			{
				"x": -2.5379670244,
				"y": -0.0085856734,
				"z": 0.2621948144,
				"element": "C" 
			},
			{
				"x": -3.2727155611,
				"y": -0.4912186776,
				"z": 1.340336117,
				"element": "C" 
			},
			{
				"x": -4.2655011319,
				"y": 0.2754880526,
				"z": 1.8432791066,
				"element": "F" 
			},
			{
				"x": -3.0267305481,
				"y": -1.7348368001,
				"z": 1.9073239792,
				"element": "C" 
			},
			{
				"x": -2.0051956948,
				"y": -2.5169602971,
				"z": 1.3617792057,
				"element": "C" 
			},
			{
				"x": -1.2510047191,
				"y": -2.0539129781,
				"z": 0.2844829154,
				"element": "C" 
			},
			{
				"x": 0.6453528873,
				"y": 0.3735059136,
				"z": -0.9227308645,
				"element": "C" 
			},
			{
				"x": 1.7502625419,
				"y": -0.0588239674,
				"z": -1.5391463382,
				"element": "N" 
			},
			{
				"x": 2.9335601568,
				"y": 0.4666629708,
				"z": -1.1931607647,
				"element": "C" 
			},
			{
				"x": 3.0670194569,
				"y": 1.4524554812,
				"z": -0.2201171076,
				"element": "C" 
			},
			{
				"x": 1.9116513075,
				"y": 1.9056350157,
				"z": 0.4219807662,
				"element": "C" 
			},
			{
				"x": 0.681302415,
				"y": 1.3595735934,
				"z": 0.0696651063,
				"element": "C" 
			},
			{
				"x": 0.5979987453,
				"y": -1.2365957224,
				"z": -2.4863527184,
				"element": "H" 
			},
			{
				"x": -1.2336120767,
				"y": 0.5188064158,
				"z": -1.9310000024,
				"element": "H" 
			},
			{
				"x": -2.78960612,
				"y": 0.9600718194,
				"z": -0.159692401,
				"element": "H" 
			},
			{
				"x": -3.6296880115,
				"y": -2.07462688,
				"z": 2.742288625,
				"element": "H" 
			},
			{
				"x": -1.8023421906,
				"y": -3.4976235256,
				"z": 1.7824073451,
				"element": "H" 
			},
			{
				"x": -0.4736141481,
				"y": -2.6682284135,
				"z": -0.1558989358,
				"element": "H" 
			},
			{
				"x": 3.8033891612,
				"y": 0.0802175721,
				"z": -1.7199768214,
				"element": "H" 
			},
			{
				"x": 4.0452000746,
				"y": 1.8511785267,
				"z": 0.0276284115,
				"element": "H" 
			},
			{
				"x": 1.9714753971,
				"y": 2.6718170362,
				"z": 1.1896121133,
				"element": "H" 
			},
			{
				"x": -0.233050265,
				"y": 1.6784281094,
				"z": 0.5585410716,
				"element": "H" 
			}
		],
		 "valence_orbital": [ 
			{
				"type": "occ",
				"energy": -0.2819,
				"method": "rhf"
			},
			{
				"type": "occ",
				"energy": -0.27958,
				"method": "rhf"
			},
			{
				"type": "occ",
				"energy": -0.25885,
				"method": "rhf"
			},
			{
				"type": "occ",
				"energy": -0.25086,
				"method": "rhf"
			},
			{
				"type": "occ",
				"energy": -0.23672,
				"method": "rhf"
			},
			{
				"type": "unocc",
				"energy": -0.03731,
				"method": "rhf"
			},
			{
				"type": "unocc",
				"energy": -0.02601,
				"method": "rhf"
			},
			{
				"type": "unocc",
				"energy": -0.00515,
				"method": "rhf"
			},
			{
				"type": "unocc",
				"energy": 0.00303,
				"method": "rhf"
			},
			{
				"type": "unocc",
				"energy": 0.08642,
				"method": "rhf"
			}
		],
		"cosmo_sigma_profile": { 
			"-0.025": 0.0,
			"-0.024": 0.0,
			"-0.023": 0.0,
			"-0.022": 0.0,
			"-0.021": 0.0,
			"-0.02": 0.0,
			"-0.019": 0.0,
			"-0.018": 0.0,
			"-0.017": 0.0,
			"-0.016": 0.0,
			"-0.015": 0.0,
			"-0.014": 0.0,
			"-0.013": 0.0,
			"-0.012": 0.0,
			"-0.011": 0.0,
			"-0.01": 0.0,
			"-0.009": 0.0,
			"-0.008": 0.830655467489,
			"-0.007": 12.0205330009,
			"-0.006": 16.9183576521,
			"-0.005": 19.0884633764,
			"-0.004": 16.0462029349,
			"-0.003": 12.5661255226,
			"-0.002": 12.1960342635,
			"-0.001": 14.1149646812,
			"0.0": 15.1101859504,
			"0.001": 22.7836377554,
			"0.002": 26.6886128285,
			"0.003": 19.5106963714,
			"0.004": 20.1460447439,
			"0.005": 12.4962660019,
			"0.006": 3.67052339781,
			"0.007": 2.0270740918,
			"0.008": 1.41301223484,
			"0.009": 0.979896103414,
			"0.01": 1.01548620626,
			"0.011": 1.75790645638,
			"0.012": 1.30714744749,
			"0.013": 1.16022949179,
			"0.014": 1.98825059621,
			"0.015": 0.370380190564,
			"0.016": 0.0,
			"0.017": 0.0,
			"0.018": 0.0,
			"0.019": 0.0,
			"0.02": 0.0,
			"0.021": 0.0,
			"0.022": 0.0,
			"0.023": 0.0,
			"0.024": 0.0,
			"0.025": 0.0
		}
	}
}
