{
	 "smiles": "CN(C)C1=NC(Cl)=C(S1)C=O", 
	 "Tm": 383.15, 
	 "num_atms": 18, 
	 "gaussian": { 
		 "optdone": 1, 
		 "sigma_profile": "yes", 
		 "theory": "DFT", 
		 "functional": "B3LYP", 
		 "basiset": "6-31G**", 
		 "properties": { 
			 "R2extent": 3157.1888, 
			 "electric_dipole_moment_norm": 7.33571945892, 
			 "electric_quadrupole_moment_norm": 13.1657319417, 
			 "total_energy": -1275.93766331, 
			 "HOMO_LUMO_gap": 0.15992, 
			 "cosmo_polarized_energy": -13.52, 
			 "cosmo_cavitation_energy": 25.57, 
			 "cosmo_dispersion_energy": -19.39, 
			 "cosmo_repulsion_energy": 1.52, 
			 "cosmo_total_nonelectrostatic_energy": 7.7, 
			 "SMD_solvation_energy": 3.79 
		},
		"coords": [
			{
				"x": -2.3773926116,
				"y": 0.1776660706,
				"z": 1.149675844,
				"element": "C" 
			},
			{
				"x": -1.2614599161,
				"y": 0.9564268404,
				"z": 0.6381109379,
				"element": "N" 
			},
			{
				"x": -1.1903088991,
				"y": 2.372584557,
				"z": 0.9917466136,
				"element": "C" 
			},
			{
				"x": -0.5017825601,
				"y": 0.4867312227,
				"z": -0.3800986303,
				"element": "C" 
			},
			{
				"x": 0.4466529928,
				"y": 1.1940384172,
				"z": -0.9695403484,
				"element": "N" 
			},
			{
				"x": 1.0628539419,
				"y": 0.4562047617,
				"z": -1.9197581168,
				"element": "C" 
			},
			{
				"x": 2.3514617512,
				"y": 1.2007008801,
				"z": -2.8006455795,
				"element": "Cl" 
			},
			{
				"x": 0.6313177864,
				"y": -0.8397903759,
				"z": -2.133181065,
				"element": "C" 
			},
			{
				"x": -0.7028215581,
				"y": -1.1512671176,
				"z": -1.0090181486,
				"element": "S" 
			},
			{
				"x": 1.0750963612,
				"y": -1.8697941159,
				"z": -3.0603966502,
				"element": "C" 
			},
			{
				"x": 1.9752064676,
				"y": -1.7455421085,
				"z": -3.8739130092,
				"element": "O" 
			},
			{
				"x": -2.0818965526,
				"y": -0.8668878349,
				"z": 1.2902569423,
				"element": "H" 
			},
			{
				"x": -2.6683583127,
				"y": 0.5773521745,
				"z": 2.123165516,
				"element": "H" 
			},
			{
				"x": -3.2501381339,
				"y": 0.2098216851,
				"z": 0.4822524803,
				"element": "H" 
			},
			{
				"x": -0.2350882732,
				"y": 2.7732435718,
				"z": 0.6575507207,
				"element": "H" 
			},
			{
				"x": -1.273474214,
				"y": 2.4761876657,
				"z": 2.0774499385,
				"element": "H" 
			},
			{
				"x": -1.9999358315,
				"y": 2.9430374544,
				"z": 0.5175289733,
				"element": "H" 
			},
			{
				"x": 0.5122675618,
				"y": -2.8264137483,
				"z": -2.9757864185,
				"element": "H" 
			}
		],
		 "valence_orbital": [ 
			{
				"type": "occ",
				"energy": -0.30662,
				"method": "rhf"
			},
			{
				"type": "occ",
				"energy": -0.29693,
				"method": "rhf"
			},
			{
				"type": "occ",
				"energy": -0.2809,
				"method": "rhf"
			},
			{
				"type": "occ",
				"energy": -0.24484,
				"method": "rhf"
			},
			{
				"type": "occ",
				"energy": -0.21927,
				"method": "rhf"
			},
			{
				"type": "unocc",
				"energy": -0.05935,
				"method": "rhf"
			},
			{
				"type": "unocc",
				"energy": -0.01389,
				"method": "rhf"
			},
			{
				"type": "unocc",
				"energy": 0.01039,
				"method": "rhf"
			},
			{
				"type": "unocc",
				"energy": 0.04667,
				"method": "rhf"
			},
			{
				"type": "unocc",
				"energy": 0.06798,
				"method": "rhf"
			}
		],
		"cosmo_sigma_profile": { 
			"-0.025": 0.0,
			"-0.024": 0.0,
			"-0.023": 0.0,
			"-0.022": 0.0,
			"-0.021": 0.0,
			"-0.02": 0.0,
			"-0.019": 0.0,
			"-0.018": 0.0,
			"-0.017": 0.0,
			"-0.016": 0.0,
			"-0.015": 0.0,
			"-0.014": 0.0,
			"-0.013": 0.0,
			"-0.012": 0.0,
			"-0.011": 0.0,
			"-0.01": 0.0,
			"-0.009": 0.0,
			"-0.008": 1.69285160272,
			"-0.007": 7.73874956431,
			"-0.006": 12.5177196483,
			"-0.005": 18.6533747116,
			"-0.004": 19.9049752806,
			"-0.003": 20.2061631749,
			"-0.002": 14.4406214628,
			"-0.001": 14.2988080277,
			"0.0": 16.1850672201,
			"0.001": 14.8087509834,
			"0.002": 11.3994180057,
			"0.003": 12.8587705079,
			"0.004": 9.72569724905,
			"0.005": 4.26794287955,
			"0.006": 3.93614800412,
			"0.007": 3.73972773161,
			"0.008": 3.715716733,
			"0.009": 3.41354684129,
			"0.01": 3.48766582856,
			"0.011": 4.10899375006,
			"0.012": 5.21380808526,
			"0.013": 2.0579171075,
			"0.014": 0.190683358852,
			"0.015": 0.0,
			"0.016": 0.0,
			"0.017": 0.0,
			"0.018": 0.0,
			"0.019": 0.0,
			"0.02": 0.0,
			"0.021": 0.0,
			"0.022": 0.0,
			"0.023": 0.0,
			"0.024": 0.0,
			"0.025": 0.0
		}
	}
}
