{
	 "smiles": "FC(F)(F)C1=C(C#N)C(=O)NC(=C1)C1=CC=CC=C1", 
	 "Tm": 575.15, 
	 "num_atms": 26, 
	 "gaussian": { 
		 "optdone": 1, 
		 "sigma_profile": "yes", 
		 "theory": "DFT", 
		 "functional": "B3LYP", 
		 "basiset": "6-31G**", 
		 "properties": { 
			 "R2extent": 6888.4658, 
			 "electric_dipole_moment_norm": 10.148724547, 
			 "electric_quadrupole_moment_norm": 23.494575648, 
			 "total_energy": -983.844625755, 
			 "HOMO_LUMO_gap": 0.13851, 
			 "cosmo_polarized_energy": -20.93, 
			 "cosmo_cavitation_energy": 33.66, 
			 "cosmo_dispersion_energy": -23.24, 
			 "cosmo_repulsion_energy": 1.71, 
			 "cosmo_total_nonelectrostatic_energy": 12.13, 
			 "SMD_solvation_energy": 8.47 
		},
		"coords": [
			{
				"x": 0.4142717614,
				"y": -2.8592415555,
				"z": -3.9966122553,
				"element": "F" 
			},
			{
				"x": 1.0256609463,
				"y": -1.6776023383,
				"z": -3.8016945204,
				"element": "C" 
			},
			{
				"x": 2.2204718077,
				"y": -1.7218443609,
				"z": -4.4161903636,
				"element": "F" 
			},
			{
				"x": 0.2859778989,
				"y": -0.7310820447,
				"z": -4.4190393533,
				"element": "F" 
			},
			{
				"x": 1.1805805943,
				"y": -1.3800895276,
				"z": -2.3184851093,
				"element": "C" 
			},
			{
				"x": 1.9161402613,
				"y": -2.2361218654,
				"z": -1.5157345342,
				"element": "C" 
			},
			{
				"x": 2.5462782982,
				"y": -3.4188655196,
				"z": -2.003003887,
				"element": "C" 
			},
			{
				"x": 3.0668776436,
				"y": -4.3864375039,
				"z": -2.3846533358,
				"element": "N" 
			},
			{
				"x": 2.073927193,
				"y": -1.9587937303,
				"z": -0.0840361346,
				"element": "C" 
			},
			{
				"x": 2.6813282029,
				"y": -2.6372972073,
				"z": 0.7281183532,
				"element": "O" 
			},
			{
				"x": 1.41925627,
				"y": -0.7785095935,
				"z": 0.327559286,
				"element": "N" 
			},
			{
				"x": 0.6988886371,
				"y": 0.0759154989,
				"z": -0.4547921964,
				"element": "C" 
			},
			{
				"x": 0.5719966153,
				"y": -0.2175074706,
				"z": -1.7971101159,
				"element": "C" 
			},
			{
				"x": 0.1158147154,
				"y": 1.2728004448,
				"z": 0.1829843899,
				"element": "C" 
			},
			{
				"x": 0.7842242949,
				"y": 1.9288052276,
				"z": 1.2315993914,
				"element": "C" 
			},
			{
				"x": 0.2263812162,
				"y": 3.0586516961,
				"z": 1.8264611453,
				"element": "C" 
			},
			{
				"x": -1.0047301761,
				"y": 3.5480265855,
				"z": 1.385877221,
				"element": "C" 
			},
			{
				"x": -1.6756566641,
				"y": 2.903590368,
				"z": 0.3438317667,
				"element": "C" 
			},
			{
				"x": -1.121726377,
				"y": 1.7746840989,
				"z": -0.2546059464,
				"element": "C" 
			},
			{
				"x": 1.4780509203,
				"y": -0.6157222507,
				"z": 1.3262848112,
				"element": "H" 
			},
			{
				"x": 0.0426653579,
				"y": 0.4574971915,
				"z": -2.4523181026,
				"element": "H" 
			},
			{
				"x": 1.7611351333,
				"y": 1.5828866454,
				"z": 1.5579447161,
				"element": "H" 
			},
			{
				"x": 0.7588785708,
				"y": 3.561913223,
				"z": 2.6275510393,
				"element": "H" 
			},
			{
				"x": -1.4389649222,
				"y": 4.4274075865,
				"z": 1.8515866432,
				"element": "H" 
			},
			{
				"x": -2.6371105632,
				"y": 3.2748536734,
				"z": 0.0026410359,
				"element": "H" 
			},
			{
				"x": -1.6608176363,
				"y": 1.2609827286,
				"z": -1.0440639444,
				"element": "H" 
			}
		],
		 "valence_orbital": [ 
			{
				"type": "occ",
				"energy": -0.31848,
				"method": "rhf"
			},
			{
				"type": "occ",
				"energy": -0.29173,
				"method": "rhf"
			},
			{
				"type": "occ",
				"energy": -0.28828,
				"method": "rhf"
			},
			{
				"type": "occ",
				"energy": -0.278,
				"method": "rhf"
			},
			{
				"type": "occ",
				"energy": -0.23975,
				"method": "rhf"
			},
			{
				"type": "unocc",
				"energy": -0.10124,
				"method": "rhf"
			},
			{
				"type": "unocc",
				"energy": -0.04371,
				"method": "rhf"
			},
			{
				"type": "unocc",
				"energy": -0.03928,
				"method": "rhf"
			},
			{
				"type": "unocc",
				"energy": -0.0064,
				"method": "rhf"
			},
			{
				"type": "unocc",
				"energy": 0.03114,
				"method": "rhf"
			}
		],
		"cosmo_sigma_profile": { 
			"-0.025": 0.0,
			"-0.024": 0.0,
			"-0.023": 0.0,
			"-0.022": 0.0,
			"-0.021": 0.0,
			"-0.02": 0.0,
			"-0.019": 0.0,
			"-0.018": 0.0,
			"-0.017": 0.22357967176,
			"-0.016": 0.766963809338,
			"-0.015": 1.12463672266,
			"-0.014": 0.975578106223,
			"-0.013": 1.05490340214,
			"-0.012": 1.14460795006,
			"-0.011": 1.4910249257,
			"-0.01": 1.54146257525,
			"-0.009": 1.94388424544,
			"-0.008": 4.65263775948,
			"-0.007": 9.02665856884,
			"-0.006": 15.2200409987,
			"-0.005": 18.0493762137,
			"-0.004": 18.3810992412,
			"-0.003": 20.3014996088,
			"-0.002": 18.6224062834,
			"-0.001": 13.9984025782,
			"0.0": 16.0281632476,
			"0.001": 21.9368358568,
			"0.002": 34.9128258052,
			"0.003": 19.3110040814,
			"0.004": 8.39595742263,
			"0.005": 3.43489484612,
			"0.006": 4.45483434219,
			"0.007": 5.03348967048,
			"0.008": 5.18579012478,
			"0.009": 4.47516216533,
			"0.01": 4.25432788519,
			"0.011": 5.20506737849,
			"0.012": 7.60427648903,
			"0.013": 3.91973852318,
			"0.014": 0.00604943580619,
			"0.015": 0.0,
			"0.016": 0.0,
			"0.017": 0.0,
			"0.018": 0.0,
			"0.019": 0.0,
			"0.02": 0.0,
			"0.021": 0.0,
			"0.022": 0.0,
			"0.023": 0.0,
			"0.024": 0.0,
			"0.025": 0.0
		}
	}
}
