{
	 "smiles": "O=C1OCCN1C1=NC=C(C=C1)C#N", 
	 "Tm": 460.15, 
	 "num_atms": 21, 
	 "gaussian": { 
		 "optdone": 1, 
		 "sigma_profile": "yes", 
		 "theory": "DFT", 
		 "functional": "B3LYP", 
		 "basiset": "6-31G**", 
		 "properties": { 
			 "R2extent": 3740.6497, 
			 "electric_dipole_moment_norm": 7.52878149105, 
			 "electric_quadrupole_moment_norm": 28.9444219725, 
			 "total_energy": -661.862971089, 
			 "HOMO_LUMO_gap": 0.18838, 
			 "cosmo_polarized_energy": -23.27, 
			 "cosmo_cavitation_energy": 26.91, 
			 "cosmo_dispersion_energy": -19.49, 
			 "cosmo_repulsion_energy": 1.53, 
			 "cosmo_total_nonelectrostatic_energy": 8.94, 
			 "SMD_solvation_energy": 6.02 
		},
		"coords": [
			{
				"x": 1.647334043,
				"y": -0.2987368216,
				"z": 1.2936839519,
				"element": "O" 
			},
			{
				"x": 1.6131124552,
				"y": -0.0825686727,
				"z": 0.1165359754,
				"element": "C" 
			},
			{
				"x": 2.6665048891,
				"y": 0.4447452308,
				"z": -0.5823342163,
				"element": "O" 
			},
			{
				"x": 2.2884820657,
				"y": 0.7047294332,
				"z": -1.9396931145,
				"element": "C" 
			},
			{
				"x": 1.0621223352,
				"y": -0.1868578435,
				"z": -2.1727050049,
				"element": "C" 
			},
			{
				"x": 0.5741175827,
				"y": -0.3317027973,
				"z": -0.8063344857,
				"element": "N" 
			},
			{
				"x": -0.6696793865,
				"y": -0.8849593558,
				"z": -0.4939646419,
				"element": "C" 
			},
			{
				"x": -1.1214936664,
				"y": -0.7145296872,
				"z": 0.75423403,
				"element": "N" 
			},
			{
				"x": -2.3073145106,
				"y": -1.2211427746,
				"z": 1.0703755852,
				"element": "C" 
			},
			{
				"x": -3.1291219049,
				"y": -1.9098851862,
				"z": 0.1604782317,
				"element": "C" 
			},
			{
				"x": -2.6526579618,
				"y": -2.0708082637,
				"z": -1.1510084198,
				"element": "C" 
			},
			{
				"x": -1.4102240833,
				"y": -1.5588290956,
				"z": -1.4873559778,
				"element": "C" 
			},
			{
				"x": -4.4031393969,
				"y": -2.4186380958,
				"z": 0.5615581156,
				"element": "C" 
			},
			{
				"x": -5.4406607647,
				"y": -2.831415349,
				"z": 0.8890941455,
				"element": "N" 
			},
			{
				"x": 2.0426864341,
				"y": 1.7672623586,
				"z": -2.0456368166,
				"element": "H" 
			},
			{
				"x": 3.1309936115,
				"y": 0.4605990647,
				"z": -2.5886223142,
				"element": "H" 
			},
			{
				"x": 0.31705745,
				"y": 0.2881613959,
				"z": -2.8167839638,
				"element": "H" 
			},
			{
				"x": 1.3372214488,
				"y": -1.1575120765,
				"z": -2.6079408371,
				"element": "H" 
			},
			{
				"x": -2.6407534521,
				"y": -1.0691375253,
				"z": 2.0944856428,
				"element": "H" 
			},
			{
				"x": -3.2500999211,
				"y": -2.5980513075,
				"z": -1.8872780979,
				"element": "H" 
			},
			{
				"x": -1.0214872671,
				"y": -1.6919226309,
				"z": -2.4895877875,
				"element": "H" 
			}
		],
		 "valence_orbital": [ 
			{
				"type": "occ",
				"energy": -0.31355,
				"method": "rhf"
			},
			{
				"type": "occ",
				"energy": -0.311,
				"method": "rhf"
			},
			{
				"type": "occ",
				"energy": -0.3013,
				"method": "rhf"
			},
			{
				"type": "occ",
				"energy": -0.26978,
				"method": "rhf"
			},
			{
				"type": "occ",
				"energy": -0.25122,
				"method": "rhf"
			},
			{
				"type": "unocc",
				"energy": -0.06284,
				"method": "rhf"
			},
			{
				"type": "unocc",
				"energy": -0.0476,
				"method": "rhf"
			},
			{
				"type": "unocc",
				"energy": 0.02708,
				"method": "rhf"
			},
			{
				"type": "unocc",
				"energy": 0.0282,
				"method": "rhf"
			},
			{
				"type": "unocc",
				"energy": 0.05921,
				"method": "rhf"
			}
		],
		"cosmo_sigma_profile": { 
			"-0.025": 0.0,
			"-0.024": 0.0,
			"-0.023": 0.0,
			"-0.022": 0.0,
			"-0.021": 0.0,
			"-0.02": 0.0,
			"-0.019": 0.0,
			"-0.018": 0.0,
			"-0.017": 0.0,
			"-0.016": 0.0,
			"-0.015": 0.0,
			"-0.014": 0.0,
			"-0.013": 0.0,
			"-0.012": 0.0,
			"-0.011": 0.0,
			"-0.01": 0.120862736643,
			"-0.009": 5.43508680097,
			"-0.008": 15.2918865347,
			"-0.007": 25.1459944591,
			"-0.006": 16.5266589371,
			"-0.005": 11.9426279332,
			"-0.004": 10.3718657232,
			"-0.003": 9.58958314495,
			"-0.002": 13.9091267695,
			"-0.001": 16.0282862902,
			"0.0": 11.0624924001,
			"0.001": 6.89465869452,
			"0.002": 4.82987211542,
			"0.003": 5.51150548723,
			"0.004": 4.52592122072,
			"0.005": 4.92378611922,
			"0.006": 4.27666656847,
			"0.007": 6.86157555853,
			"0.008": 7.11028906141,
			"0.009": 7.51484514646,
			"0.01": 7.42979721493,
			"0.011": 6.96752025277,
			"0.012": 7.69968398419,
			"0.013": 3.22916854887,
			"0.014": 1.62092751839,
			"0.015": 0.982127799217,
			"0.016": 0.838086645136,
			"0.017": 0.605407009809,
			"0.018": 0.0114927600207,
			"0.019": 0.0,
			"0.02": 0.0,
			"0.021": 0.0,
			"0.022": 0.0,
			"0.023": 0.0,
			"0.024": 0.0,
			"0.025": 0.0
		}
	}
}
