{
	 "smiles": "COC(=O)C(C)NC(=O)COC(=O)CC1=CC=CC=CC1NC1=C(Cl)CC=CC=C1Cl", 
	 "Tm": 754.15, 
	 "num_atms": 55, 
	 "gaussian": { 
		 "optdone": 1, 
		 "sigma_profile": "yes", 
		 "theory": "DFT", 
		 "functional": "B3LYP", 
		 "basiset": "6-31G**", 
		 "properties": { 
			 "R2extent": 14007.6132, 
			 "electric_dipole_moment_norm": 2.35996118824, 
			 "electric_quadrupole_moment_norm": 27.0223489858, 
			 "total_energy": -2258.73696611, 
			 "HOMO_LUMO_gap": 0.14953, 
			 "cosmo_polarized_energy": -23.2, 
			 "cosmo_cavitation_energy": 61.12, 
			 "cosmo_dispersion_energy": -36.61, 
			 "cosmo_repulsion_energy": 2.75, 
			 "cosmo_total_nonelectrostatic_energy": 27.26, 
			 "SMD_solvation_energy": 10.95 
		},
		"coords": [
			{
				"x": 4.4646453807,
				"y": 1.799527306,
				"z": 0.8539189821,
				"element": "C" 
			},
			{
				"x": 3.1379529187,
				"y": 2.0933311891,
				"z": 1.3311470125,
				"element": "O" 
			},
			{
				"x": 2.3853283179,
				"y": 2.8458055911,
				"z": 0.5084444054,
				"element": "C" 
			},
			{
				"x": 2.7705816255,
				"y": 3.2784927951,
				"z": -0.5565884384,
				"element": "O" 
			},
			{
				"x": 0.9550075669,
				"y": 3.0522866126,
				"z": 1.0392455563,
				"element": "C" 
			},
			{
				"x": 0.4473640307,
				"y": 4.4487437735,
				"z": 0.6622267327,
				"element": "C" 
			},
			{
				"x": 0.8070102325,
				"y": 2.8228914556,
				"z": 2.4676376248,
				"element": "N" 
			},
			{
				"x": 0.6552097749,
				"y": 1.6338029321,
				"z": 3.1314964057,
				"element": "C" 
			},
			{
				"x": 0.8137159702,
				"y": 1.5500950413,
				"z": 4.3413717247,
				"element": "O" 
			},
			{
				"x": 0.285221249,
				"y": 0.3900393826,
				"z": 2.3254986404,
				"element": "C" 
			},
			{
				"x": -0.8567825633,
				"y": 0.6691193498,
				"z": 1.485051903,
				"element": "O" 
			},
			{
				"x": -1.4681308788,
				"y": -0.4119351647,
				"z": 0.9420160628,
				"element": "C" 
			},
			{
				"x": -1.1178398561,
				"y": -1.5534580608,
				"z": 1.1452946735,
				"element": "O" 
			},
			{
				"x": -2.6225174704,
				"y": 0.0087312842,
				"z": 0.0440401859,
				"element": "C" 
			},
			{
				"x": -2.2662061942,
				"y": -0.0764525553,
				"z": -1.4323875323,
				"element": "C" 
			},
			{
				"x": -2.118106587,
				"y": 1.0642138048,
				"z": -2.1561073282,
				"element": "C" 
			},
			{
				"x": -1.96481157,
				"y": 1.1894269467,
				"z": -3.5828565815,
				"element": "C" 
			},
			{
				"x": -2.4077542516,
				"y": 0.3058461578,
				"z": -4.524988615,
				"element": "C" 
			},
			{
				"x": -3.1009395824,
				"y": -0.9312751393,
				"z": -4.2692629029,
				"element": "C" 
			},
			{
				"x": -3.0368062044,
				"y": -1.6820512118,
				"z": -3.1450856081,
				"element": "C" 
			},
			{
				"x": -2.0526520456,
				"y": -1.4650336046,
				"z": -2.0194549956,
				"element": "C" 
			},
			{
				"x": -0.6697213761,
				"y": -1.7215366983,
				"z": -2.4680932068,
				"element": "N" 
			},
			{
				"x": 0.2641894018,
				"y": -2.414030905,
				"z": -1.7001219118,
				"element": "C" 
			},
			{
				"x": 0.0427524678,
				"y": -3.6676463834,
				"z": -1.1969407236,
				"element": "C" 
			},
			{
				"x": -1.339357442,
				"y": -4.6215310024,
				"z": -1.7283149902,
				"element": "Cl" 
			},
			{
				"x": 0.9554045319,
				"y": -4.3306249798,
				"z": -0.2042473447,
				"element": "C" 
			},
			{
				"x": 2.1861650297,
				"y": -4.7723255732,
				"z": -0.9540888574,
				"element": "C" 
			},
			{
				"x": 3.033559456,
				"y": -3.8609189052,
				"z": -1.4776109399,
				"element": "C" 
			},
			{
				"x": 2.8023260587,
				"y": -2.436723671,
				"z": -1.4631290386,
				"element": "C" 
			},
			{
				"x": 1.5883563533,
				"y": -1.814874727,
				"z": -1.506933598,
				"element": "C" 
			},
			{
				"x": 1.6437433971,
				"y": -0.0291132585,
				"z": -1.5480261066,
				"element": "Cl" 
			},
			{
				"x": 5.0186739857,
				"y": 2.7238866301,
				"z": 0.6755379363,
				"element": "H" 
			},
			{
				"x": 4.9356326282,
				"y": 1.2133885127,
				"z": 1.642352892,
				"element": "H" 
			},
			{
				"x": 4.4137137882,
				"y": 1.2295398829,
				"z": -0.0766184528,
				"element": "H" 
			},
			{
				"x": 0.3443731742,
				"y": 2.3108417242,
				"z": 0.5156653889,
				"element": "H" 
			},
			{
				"x": 0.991765931,
				"y": 5.2244190047,
				"z": 1.2124598305,
				"element": "H" 
			},
			{
				"x": -0.6148636796,
				"y": 4.5370095173,
				"z": 0.9016178668,
				"element": "H" 
			},
			{
				"x": 0.6004382127,
				"y": 4.6255077066,
				"z": -0.4031499317,
				"element": "H" 
			},
			{
				"x": 1.1344897182,
				"y": 3.5590534659,
				"z": 3.0825191688,
				"element": "H" 
			},
			{
				"x": 1.1244571538,
				"y": 0.0684091994,
				"z": 1.6988299261,
				"element": "H" 
			},
			{
				"x": 0.0462890598,
				"y": -0.4029151897,
				"z": 3.0330349753,
				"element": "H" 
			},
			{
				"x": -2.933481114,
				"y": 1.0218118475,
				"z": 0.3058275316,
				"element": "H" 
			},
			{
				"x": -3.4518772595,
				"y": -0.6743626452,
				"z": 0.2599284189,
				"element": "H" 
			},
			{
				"x": -2.1422190694,
				"y": 2.0065997705,
				"z": -1.6090589816,
				"element": "H" 
			},
			{
				"x": -1.564597281,
				"y": 2.1373276924,
				"z": -3.9366596598,
				"element": "H" 
			},
			{
				"x": -2.3287309144,
				"y": 0.6088426794,
				"z": -5.5671009078,
				"element": "H" 
			},
			{
				"x": -3.7463551889,
				"y": -1.2855686598,
				"z": -5.0718739653,
				"element": "H" 
			},
			{
				"x": -3.6834103394,
				"y": -2.5524028867,
				"z": -3.0645750534,
				"element": "H" 
			},
			{
				"x": -2.2558100202,
				"y": -2.1929578642,
				"z": -1.2361164848,
				"element": "H" 
			},
			{
				"x": -0.2858456797,
				"y": -0.9616325288,
				"z": -3.0115365095,
				"element": "H" 
			},
			{
				"x": 0.450066792,
				"y": -5.1687443236,
				"z": 0.2769963634,
				"element": "H" 
			},
			{
				"x": 1.2243337374,
				"y": -3.6054204214,
				"z": 0.5745818034,
				"element": "H" 
			},
			{
				"x": 2.3828246026,
				"y": -5.8345338722,
				"z": -1.0773475522,
				"element": "H" 
			},
			{
				"x": 3.9662089605,
				"y": -4.1937607651,
				"z": -1.9286039749,
				"element": "H" 
			},
			{
				"x": 3.6801150604,
				"y": -1.7965602592,
				"z": -1.4828618185,
				"element": "H" 
			}
		],
		 "valence_orbital": [ 
			{
				"type": "occ",
				"energy": -0.25506,
				"method": "rhf"
			},
			{
				"type": "occ",
				"energy": -0.24769,
				"method": "rhf"
			},
			{
				"type": "occ",
				"energy": -0.23395,
				"method": "rhf"
			},
			{
				"type": "occ",
				"energy": -0.22403,
				"method": "rhf"
			},
			{
				"type": "occ",
				"energy": -0.19859,
				"method": "rhf"
			},
			{
				"type": "unocc",
				"energy": -0.04906,
				"method": "rhf"
			},
			{
				"type": "unocc",
				"energy": -0.04719,
				"method": "rhf"
			},
			{
				"type": "unocc",
				"energy": -0.00427,
				"method": "rhf"
			},
			{
				"type": "unocc",
				"energy": -0.00262,
				"method": "rhf"
			},
			{
				"type": "unocc",
				"energy": 0.00277,
				"method": "rhf"
			}
		],
		"cosmo_sigma_profile": { 
			"-0.025": 0.0,
			"-0.024": 0.0,
			"-0.023": 0.0,
			"-0.022": 0.0,
			"-0.021": 0.0,
			"-0.02": 0.0,
			"-0.019": 0.0,
			"-0.018": 0.0,
			"-0.017": 0.0,
			"-0.016": 0.0,
			"-0.015": 0.0,
			"-0.014": 0.542256501625,
			"-0.013": 1.30022396412,
			"-0.012": 1.1109366024,
			"-0.011": 1.36671358469,
			"-0.01": 1.09029855353,
			"-0.009": 1.25582958374,
			"-0.008": 1.91958856857,
			"-0.007": 8.36999738462,
			"-0.006": 24.5482468696,
			"-0.005": 40.888987245,
			"-0.004": 46.5384161021,
			"-0.003": 42.5420720248,
			"-0.002": 38.5027424907,
			"-0.001": 40.1215606194,
			"0.0": 36.1199628742,
			"0.001": 33.5848088894,
			"0.002": 31.7457097244,
			"0.003": 28.4431726618,
			"0.004": 27.2553414641,
			"0.005": 21.7827014,
			"0.006": 13.0911634883,
			"0.007": 6.25499214032,
			"0.008": 5.95572132669,
			"0.009": 6.65919962528,
			"0.01": 5.44634452046,
			"0.011": 7.62362234688,
			"0.012": 6.13454127753,
			"0.013": 5.38382112347,
			"0.014": 1.85348587621,
			"0.015": 0.00872429611796,
			"0.016": 0.0,
			"0.017": 0.0,
			"0.018": 0.0,
			"0.019": 0.0,
			"0.02": 0.0,
			"0.021": 0.0,
			"0.022": 0.0,
			"0.023": 0.0,
			"0.024": 0.0,
			"0.025": 0.0
		}
	}
}
