{
	 "smiles": "OC(=O)CCC1=CC=C(Cl)C=C1", 
	 "Tm": 392.15, 
	 "num_atms": 21, 
	 "gaussian": { 
		 "optdone": 1, 
		 "sigma_profile": "yes", 
		 "theory": "DFT", 
		 "functional": "B3LYP", 
		 "basiset": "6-31G**", 
		 "properties": { 
			 "R2extent": 3293.3985, 
			 "electric_dipole_moment_norm": 2.92668000642, 
			 "electric_quadrupole_moment_norm": 6.89285815101, 
			 "total_energy": -959.047030576, 
			 "HOMO_LUMO_gap": 0.22639, 
			 "cosmo_polarized_energy": -10.05, 
			 "cosmo_cavitation_energy": 27.06, 
			 "cosmo_dispersion_energy": -19.65, 
			 "cosmo_repulsion_energy": 1.6, 
			 "cosmo_total_nonelectrostatic_energy": 9.0, 
			 "SMD_solvation_energy": 5.22 
		},
		"coords": [
			{
				"x": -0.3321781898,
				"y": -1.4585861366,
				"z": -3.2974110658,
				"element": "O" 
			},
			{
				"x": -0.4550450157,
				"y": -1.9785560843,
				"z": -2.0543497713,
				"element": "C" 
			},
			{
				"x": -1.5226793629,
				"y": -2.3311289849,
				"z": -1.5995780819,
				"element": "O" 
			},
			{
				"x": 0.8884780971,
				"y": -2.0932178517,
				"z": -1.363938021,
				"element": "C" 
			},
			{
				"x": 0.7780153786,
				"y": -2.2762836202,
				"z": 0.1606883642,
				"element": "C" 
			},
			{
				"x": 0.4012606032,
				"y": -1.0088582904,
				"z": 0.9021316764,
				"element": "C" 
			},
			{
				"x": -0.9399536076,
				"y": -0.6668420156,
				"z": 1.1252786928,
				"element": "C" 
			},
			{
				"x": -1.2834168159,
				"y": 0.5099493095,
				"z": 1.791181903,
				"element": "C" 
			},
			{
				"x": -0.2724373262,
				"y": 1.3580262356,
				"z": 2.2401790978,
				"element": "C" 
			},
			{
				"x": -0.6962936108,
				"y": 2.8433067695,
				"z": 3.0843949882,
				"element": "Cl" 
			},
			{
				"x": 1.0701705343,
				"y": 1.0454813552,
				"z": 2.0346133906,
				"element": "C" 
			},
			{
				"x": 1.3939595461,
				"y": -0.1361813061,
				"z": 1.3678888537,
				"element": "C" 
			},
			{
				"x": -1.2262370427,
				"y": -1.4528311329,
				"z": -3.6794704091,
				"element": "H" 
			},
			{
				"x": 1.39200603,
				"y": -2.9601513888,
				"z": -1.8128947882,
				"element": "H" 
			},
			{
				"x": 1.4949828698,
				"y": -1.2201342855,
				"z": -1.6242049528,
				"element": "H" 
			},
			{
				"x": 0.0423816707,
				"y": -3.0608224047,
				"z": 0.3612190587,
				"element": "H" 
			},
			{
				"x": 1.7442721794,
				"y": -2.6362190137,
				"z": 0.5299240893,
				"element": "H" 
			},
			{
				"x": -1.7226703343,
				"y": -1.3260346732,
				"z": 0.763956858,
				"element": "H" 
			},
			{
				"x": -2.3234095458,
				"y": 0.7656112378,
				"z": 1.9623312538,
				"element": "H" 
			},
			{
				"x": 1.8463344451,
				"y": 1.7117691753,
				"z": 2.3947992067,
				"element": "H" 
			},
			{
				"x": 2.4418594974,
				"y": -0.3837968941,
				"z": 1.215059657,
				"element": "H" 
			}
		],
		 "valence_orbital": [ 
			{
				"type": "occ",
				"energy": -0.32297,
				"method": "rhf"
			},
			{
				"type": "occ",
				"energy": -0.30811,
				"method": "rhf"
			},
			{
				"type": "occ",
				"energy": -0.28312,
				"method": "rhf"
			},
			{
				"type": "occ",
				"energy": -0.2593,
				"method": "rhf"
			},
			{
				"type": "occ",
				"energy": -0.2385,
				"method": "rhf"
			},
			{
				"type": "unocc",
				"energy": -0.01211,
				"method": "rhf"
			},
			{
				"type": "unocc",
				"energy": -0.01019,
				"method": "rhf"
			},
			{
				"type": "unocc",
				"energy": 0.00301,
				"method": "rhf"
			},
			{
				"type": "unocc",
				"energy": 0.03355,
				"method": "rhf"
			},
			{
				"type": "unocc",
				"energy": 0.07446,
				"method": "rhf"
			}
		],
		"cosmo_sigma_profile": { 
			"-0.025": 0.0,
			"-0.024": 0.0,
			"-0.023": 0.0,
			"-0.022": 0.0,
			"-0.021": 0.0,
			"-0.02": 0.0,
			"-0.019": 0.0,
			"-0.018": 0.581434778601,
			"-0.017": 1.11213926452,
			"-0.016": 0.932494931852,
			"-0.015": 0.269938182227,
			"-0.014": 1.21579238961,
			"-0.013": 0.452292788993,
			"-0.012": 0.481004557226,
			"-0.011": 0.99291387747,
			"-0.01": 0.889245881748,
			"-0.009": 0.26721759421,
			"-0.008": 0.736842967078,
			"-0.007": 5.31835633651,
			"-0.006": 9.84086789873,
			"-0.005": 14.0772607852,
			"-0.004": 17.5062111061,
			"-0.003": 15.7320467887,
			"-0.002": 16.2803284702,
			"-0.001": 13.3726936436,
			"0.0": 14.2967458919,
			"0.001": 12.8164083022,
			"0.002": 16.9248904951,
			"0.003": 17.517317088,
			"0.004": 21.3390357179,
			"0.005": 14.3625463855,
			"0.006": 3.63588025289,
			"0.007": 1.95354880012,
			"0.008": 2.91732384335,
			"0.009": 3.06570737361,
			"0.01": 2.73367500417,
			"0.011": 2.5623480884,
			"0.012": 2.79570934095,
			"0.013": 0.0784970873907,
			"0.014": 0.0,
			"0.015": 0.0,
			"0.016": 0.0,
			"0.017": 0.0,
			"0.018": 0.0,
			"0.019": 0.0,
			"0.02": 0.0,
			"0.021": 0.0,
			"0.022": 0.0,
			"0.023": 0.0,
			"0.024": 0.0,
			"0.025": 0.0
		}
	}
}
