{
	 "smiles": "COC1=CC2=C(C=C1)C=C(C=C2)C#N", 
	 "Tm": 379.15, 
	 "num_atms": 23, 
	 "gaussian": { 
		 "optdone": 1, 
		 "sigma_profile": "yes", 
		 "theory": "DFT", 
		 "functional": "B3LYP", 
		 "basiset": "6-31G**", 
		 "properties": { 
			 "R2extent": 4090.4811, 
			 "electric_dipole_moment_norm": 6.46388366232, 
			 "electric_quadrupole_moment_norm": 29.2270007859, 
			 "total_energy": -592.659759586, 
			 "HOMO_LUMO_gap": 0.15799, 
			 "cosmo_polarized_energy": -11.64, 
			 "cosmo_cavitation_energy": 28.25, 
			 "cosmo_dispersion_energy": -20.36, 
			 "cosmo_repulsion_energy": 1.57, 
			 "cosmo_total_nonelectrostatic_energy": 9.47, 
			 "SMD_solvation_energy": 6.74 
		},
		"coords": [
			{
				"x": -0.8309750554,
				"y": -3.3839326461,
				"z": 1.5860286431,
				"element": "C" 
			},
			{
				"x": -0.58021316,
				"y": -1.9853736004,
				"z": 1.5794835882,
				"element": "O" 
			},
			{
				"x": -0.2754139762,
				"y": -1.3745611837,
				"z": 0.4018309239,
				"element": "C" 
			},
			{
				"x": -0.041116143,
				"y": -0.0101011701,
				"z": 0.4614486395,
				"element": "C" 
			},
			{
				"x": 0.2828240009,
				"y": 0.7199653615,
				"z": -0.7017639933,
				"element": "C" 
			},
			{
				"x": 0.3692123709,
				"y": 0.034462575,
				"z": -1.9603187671,
				"element": "C" 
			},
			{
				"x": 0.1236402483,
				"y": -1.3621890297,
				"z": -1.9873406899,
				"element": "C" 
			},
			{
				"x": -0.1912316995,
				"y": -2.0578265269,
				"z": -0.8415360664,
				"element": "C" 
			},
			{
				"x": 0.694087837,
				"y": 0.764527511,
				"z": -3.1285223256,
				"element": "C" 
			},
			{
				"x": 0.9282514475,
				"y": 2.1288121736,
				"z": -3.0673153857,
				"element": "C" 
			},
			{
				"x": 0.8429318215,
				"y": 2.8129532686,
				"z": -1.816771354,
				"element": "C" 
			},
			{
				"x": 0.5294946932,
				"y": 2.1237880573,
				"z": -0.6734930896,
				"element": "C" 
			},
			{
				"x": 1.256451857,
				"y": 2.8582687016,
				"z": -4.2558146179,
				"element": "C" 
			},
			{
				"x": 1.5235552237,
				"y": 3.4568684542,
				"z": -5.2176005346,
				"element": "N" 
			},
			{
				"x": -1.6948833492,
				"y": -3.6447677635,
				"z": 0.9619968408,
				"element": "H" 
			},
			{
				"x": -1.0490884882,
				"y": -3.6421878338,
				"z": 2.6231217877,
				"element": "H" 
			},
			{
				"x": 0.0436056572,
				"y": -3.9550681672,
				"z": 1.2503226893,
				"element": "H" 
			},
			{
				"x": -0.1110886156,
				"y": 0.4902046421,
				"z": 1.4220919018,
				"element": "H" 
			},
			{
				"x": 0.1870319509,
				"y": -1.8882729277,
				"z": -2.9360504954,
				"element": "H" 
			},
			{
				"x": -0.3730522966,
				"y": -3.1243140734,
				"z": -0.896497555,
				"element": "H" 
			},
			{
				"x": 0.7594969391,
				"y": 0.2463615209,
				"z": -4.0805200317,
				"element": "H" 
			},
			{
				"x": 1.0293492487,
				"y": 3.8811796165,
				"z": -1.7872781753,
				"element": "H" 
			},
			{
				"x": 0.4653294878,
				"y": 2.6469030402,
				"z": 0.276398067,
				"element": "H" 
			}
		],
		 "valence_orbital": [ 
			{
				"type": "occ",
				"energy": -0.32288,
				"method": "rhf"
			},
			{
				"type": "occ",
				"energy": -0.3137,
				"method": "rhf"
			},
			{
				"type": "occ",
				"energy": -0.28716,
				"method": "rhf"
			},
			{
				"type": "occ",
				"energy": -0.25071,
				"method": "rhf"
			},
			{
				"type": "occ",
				"energy": -0.2193,
				"method": "rhf"
			},
			{
				"type": "unocc",
				"energy": -0.06131,
				"method": "rhf"
			},
			{
				"type": "unocc",
				"energy": -0.03383,
				"method": "rhf"
			},
			{
				"type": "unocc",
				"energy": 0.015,
				"method": "rhf"
			},
			{
				"type": "unocc",
				"energy": 0.0433,
				"method": "rhf"
			},
			{
				"type": "unocc",
				"energy": 0.05718,
				"method": "rhf"
			}
		],
		"cosmo_sigma_profile": { 
			"-0.025": 0.0,
			"-0.024": 0.0,
			"-0.023": 0.0,
			"-0.022": 0.0,
			"-0.021": 0.0,
			"-0.02": 0.0,
			"-0.019": 0.0,
			"-0.018": 0.0,
			"-0.017": 0.0,
			"-0.016": 0.0,
			"-0.015": 0.0,
			"-0.014": 0.0,
			"-0.013": 0.0,
			"-0.012": 0.0,
			"-0.011": 0.0,
			"-0.01": 0.0,
			"-0.009": 0.0,
			"-0.008": 3.06427176129,
			"-0.007": 11.481922493,
			"-0.006": 19.5196142076,
			"-0.005": 19.0248260103,
			"-0.004": 16.6969422476,
			"-0.003": 16.1199594156,
			"-0.002": 10.6334583478,
			"-0.001": 12.5895723543,
			"0.0": 13.3117171705,
			"0.001": 14.3054394143,
			"0.002": 24.9560520385,
			"0.003": 22.9384149071,
			"0.004": 9.37763525135,
			"0.005": 3.71116595143,
			"0.006": 4.55867597187,
			"0.007": 3.43316755002,
			"0.008": 4.60760256918,
			"0.009": 5.27163174864,
			"0.01": 4.24622480665,
			"0.011": 3.15728222366,
			"0.012": 2.43619329348,
			"0.013": 2.05394451557,
			"0.014": 0.307522791249,
			"0.015": 0.0,
			"0.016": 0.0,
			"0.017": 0.0,
			"0.018": 0.0,
			"0.019": 0.0,
			"0.02": 0.0,
			"0.021": 0.0,
			"0.022": 0.0,
			"0.023": 0.0,
			"0.024": 0.0,
			"0.025": 0.0
		}
	}
}
