{
	 "smiles": "CC(C)C(O)C(O)=O", 
	 "Tm": 339.65, 
	 "num_atms": 18, 
	 "gaussian": { 
		 "optdone": 1, 
		 "sigma_profile": "yes", 
		 "theory": "DFT", 
		 "functional": "B3LYP", 
		 "basiset": "6-31G**", 
		 "properties": { 
			 "R2extent": 1703.5859, 
			 "electric_dipole_moment_norm": 2.0692191015, 
			 "electric_quadrupole_moment_norm": 6.55987366418, 
			 "total_energy": -422.247117731, 
			 "HOMO_LUMO_gap": 0.26316, 
			 "cosmo_polarized_energy": -9.46, 
			 "cosmo_cavitation_energy": 20.74, 
			 "cosmo_dispersion_energy": -15.12, 
			 "cosmo_repulsion_energy": 1.27, 
			 "cosmo_total_nonelectrostatic_energy": 6.89, 
			 "SMD_solvation_energy": 4.93 
		},
		"coords": [
			{
				"x": -2.1245885859,
				"y": 2.3211569608,
				"z": -0.0768448387,
				"element": "C" 
			},
			{
				"x": -1.917779806,
				"y": 0.8947406821,
				"z": 0.4526057249,
				"element": "C" 
			},
			{
				"x": -2.992904501,
				"y": 0.5306085894,
				"z": 1.4856762894,
				"element": "C" 
			},
			{
				"x": -1.9049297964,
				"y": -0.1786318585,
				"z": -0.6746090534,
				"element": "C" 
			},
			{
				"x": -1.7733334113,
				"y": -1.4843929159,
				"z": -0.1486932768,
				"element": "O" 
			},
			{
				"x": -0.7558061707,
				"y": 0.047032599,
				"z": -1.6502070195,
				"element": "C" 
			},
			{
				"x": -1.0285200785,
				"y": 0.9238255223,
				"z": -2.6341160057,
				"element": "O" 
			},
			{
				"x": 0.3168501802,
				"y": -0.5132030235,
				"z": -1.5386817101,
				"element": "O" 
			},
			{
				"x": -2.1616050783,
				"y": 3.0285150655,
				"z": 0.7577284326,
				"element": "H" 
			},
			{
				"x": -1.3269775403,
				"y": 2.6408985299,
				"z": -0.7520830714,
				"element": "H" 
			},
			{
				"x": -3.0723629818,
				"y": 2.4035284515,
				"z": -0.6219228686,
				"element": "H" 
			},
			{
				"x": -0.9344132715,
				"y": 0.8370733952,
				"z": 0.9416630492,
				"element": "H" 
			},
			{
				"x": -2.9494318562,
				"y": 1.213837685,
				"z": 2.3401393737,
				"element": "H" 
			},
			{
				"x": -3.995415167,
				"y": 0.6082554544,
				"z": 1.0469306459,
				"element": "H" 
			},
			{
				"x": -2.8582857046,
				"y": -0.491223516,
				"z": 1.8450099914,
				"element": "H" 
			},
			{
				"x": -2.8531526539,
				"y": -0.1277545972,
				"z": -1.2245277045,
				"element": "H" 
			},
			{
				"x": -0.8215346834,
				"y": -1.6772254815,
				"z": -0.1534624055,
				"element": "H" 
			},
			{
				"x": -0.2198088934,
				"y": 1.0022584574,
				"z": -3.1696055529,
				"element": "H" 
			}
		],
		 "valence_orbital": [ 
			{
				"type": "occ",
				"energy": -0.33678,
				"method": "rhf"
			},
			{
				"type": "occ",
				"energy": -0.33068,
				"method": "rhf"
			},
			{
				"type": "occ",
				"energy": -0.32831,
				"method": "rhf"
			},
			{
				"type": "occ",
				"energy": -0.29415,
				"method": "rhf"
			},
			{
				"type": "occ",
				"energy": -0.26879,
				"method": "rhf"
			},
			{
				"type": "unocc",
				"energy": -0.00563,
				"method": "rhf"
			},
			{
				"type": "unocc",
				"energy": 0.06352,
				"method": "rhf"
			},
			{
				"type": "unocc",
				"energy": 0.09725,
				"method": "rhf"
			},
			{
				"type": "unocc",
				"energy": 0.10939,
				"method": "rhf"
			},
			{
				"type": "unocc",
				"energy": 0.12473,
				"method": "rhf"
			}
		],
		"cosmo_sigma_profile": { 
			"-0.025": 0.0,
			"-0.024": 0.0,
			"-0.023": 0.0,
			"-0.022": 0.0,
			"-0.021": 0.0,
			"-0.02": 0.0,
			"-0.019": 0.224978662402,
			"-0.018": 1.22119968353,
			"-0.017": 0.92150037121,
			"-0.016": 0.539755475114,
			"-0.015": 0.972441600845,
			"-0.014": 1.21519240954,
			"-0.013": 0.365021529779,
			"-0.012": 0.626234414535,
			"-0.011": 1.46856147696,
			"-0.01": 1.40243275002,
			"-0.009": 1.02698034765,
			"-0.008": 1.49767797158,
			"-0.007": 2.33278168169,
			"-0.006": 2.78118098491,
			"-0.005": 4.26297742386,
			"-0.004": 8.15597507922,
			"-0.003": 17.6410292052,
			"-0.002": 17.12215499,
			"-0.001": 16.0570783671,
			"0.0": 14.8315369054,
			"0.001": 19.0651155618,
			"0.002": 7.56665255933,
			"0.003": 4.40048864753,
			"0.004": 3.34644717155,
			"0.005": 3.60269969664,
			"0.006": 4.16608765434,
			"0.007": 3.91407998889,
			"0.008": 3.79116699972,
			"0.009": 3.32787159348,
			"0.01": 4.36730012411,
			"0.011": 4.72136395587,
			"0.012": 1.51499454569,
			"0.013": 1.5039362373,
			"0.014": 0.781651215237,
			"0.015": 0.0,
			"0.016": 0.0,
			"0.017": 0.0,
			"0.018": 0.0,
			"0.019": 0.0,
			"0.02": 0.0,
			"0.021": 0.0,
			"0.022": 0.0,
			"0.023": 0.0,
			"0.024": 0.0,
			"0.025": 0.0
		}
	}
}
