{
	 "smiles": "NC1=NC(=NS1)C1=CC=C(F)C=C1", 
	 "Tm": 428.15, 
	 "num_atms": 19, 
	 "gaussian": { 
		 "optdone": 1, 
		 "sigma_profile": "yes", 
		 "theory": "DFT", 
		 "functional": "B3LYP", 
		 "basiset": "6-31G**", 
		 "properties": { 
			 "R2extent": 3952.1346, 
			 "electric_dipole_moment_norm": 4.35394348149, 
			 "electric_quadrupole_moment_norm": 19.921353264, 
			 "total_energy": -970.747782603, 
			 "HOMO_LUMO_gap": 0.18153, 
			 "cosmo_polarized_energy": -12.85, 
			 "cosmo_cavitation_energy": 26.14, 
			 "cosmo_dispersion_energy": -20.08, 
			 "cosmo_repulsion_energy": 1.51, 
			 "cosmo_total_nonelectrostatic_energy": 7.58, 
			 "SMD_solvation_energy": 2.27 
		},
		"coords": [
			{
				"x": -0.384043502,
				"y": -3.3559784367,
				"z": -3.8274375953,
				"element": "N" 
			},
			{
				"x": 0.3512903263,
				"y": -2.5650384737,
				"z": -2.9969558279,
				"element": "C" 
			},
			{
				"x": -0.1586859227,
				"y": -1.6457488276,
				"z": -2.2192266804,
				"element": "N" 
			},
			{
				"x": 0.8496590033,
				"y": -1.0726948218,
				"z": -1.4724580003,
				"element": "C" 
			},
			{
				"x": 2.0931780693,
				"y": -1.4817776325,
				"z": -1.6270778442,
				"element": "N" 
			},
			{
				"x": 2.0954133336,
				"y": -2.7068738959,
				"z": -2.7861777455,
				"element": "S" 
			},
			{
				"x": 0.5247321867,
				"y": -0.0008165153,
				"z": -0.5115270624,
				"element": "C" 
			},
			{
				"x": -0.8022384287,
				"y": 0.4253014161,
				"z": -0.3497584477,
				"element": "C" 
			},
			{
				"x": -1.1182193714,
				"y": 1.436228424,
				"z": 0.5553442252,
				"element": "C" 
			},
			{
				"x": -0.0931661442,
				"y": 2.0146759539,
				"z": 1.295117853,
				"element": "C" 
			},
			{
				"x": -0.3917922315,
				"y": 2.9942598902,
				"z": 2.1732978823,
				"element": "F" 
			},
			{
				"x": 1.2332909845,
				"y": 1.6142903282,
				"z": 1.158008673,
				"element": "C" 
			},
			{
				"x": 1.5370468324,
				"y": 0.604111096,
				"z": 0.2514052481,
				"element": "C" 
			},
			{
				"x": 0.0714042308,
				"y": -3.8040268686,
				"z": -4.6070686066,
				"element": "H" 
			},
			{
				"x": -1.3337471977,
				"y": -3.0501429515,
				"z": -3.9860087557,
				"element": "H" 
			},
			{
				"x": -1.5803099953,
				"y": -0.0447108161,
				"z": -0.9401296943,
				"element": "H" 
			},
			{
				"x": -2.1381839457,
				"y": 1.7780728604,
				"z": 0.6938371653,
				"element": "H" 
			},
			{
				"x": 2.0014645148,
				"y": 2.0928729048,
				"z": 1.7556905079,
				"element": "H" 
			},
			{
				"x": 2.5612072572,
				"y": 0.271496366,
				"z": 0.1235247055,
				"element": "H" 
			}
		],
		 "valence_orbital": [ 
			{
				"type": "occ",
				"energy": -0.29288,
				"method": "rhf"
			},
			{
				"type": "occ",
				"energy": -0.2765,
				"method": "rhf"
			},
			{
				"type": "occ",
				"energy": -0.25876,
				"method": "rhf"
			},
			{
				"type": "occ",
				"energy": -0.25379,
				"method": "rhf"
			},
			{
				"type": "occ",
				"energy": -0.22039,
				"method": "rhf"
			},
			{
				"type": "unocc",
				"energy": -0.03886,
				"method": "rhf"
			},
			{
				"type": "unocc",
				"energy": -0.00765,
				"method": "rhf"
			},
			{
				"type": "unocc",
				"energy": -0.0066,
				"method": "rhf"
			},
			{
				"type": "unocc",
				"energy": 0.00926,
				"method": "rhf"
			},
			{
				"type": "unocc",
				"energy": 0.06025,
				"method": "rhf"
			}
		],
		"cosmo_sigma_profile": { 
			"-0.025": 0.0,
			"-0.024": 0.0,
			"-0.023": 0.0,
			"-0.022": 0.0,
			"-0.021": 0.0,
			"-0.02": 0.0,
			"-0.019": 0.0,
			"-0.018": 0.0,
			"-0.017": 0.0,
			"-0.016": 0.604074554409,
			"-0.015": 3.11163329386,
			"-0.014": 2.42967338065,
			"-0.013": 2.88162473795,
			"-0.012": 2.54706708309,
			"-0.011": 2.28007824235,
			"-0.01": 2.03697808175,
			"-0.009": 1.78077656279,
			"-0.008": 2.75281505191,
			"-0.007": 4.73836598402,
			"-0.006": 6.61846304566,
			"-0.005": 8.706263136,
			"-0.004": 7.38321197327,
			"-0.003": 6.67161846852,
			"-0.002": 8.51065822456,
			"-0.001": 13.1592246736,
			"0.0": 17.2461324639,
			"0.001": 21.7291457903,
			"0.002": 21.9575513924,
			"0.003": 27.6289829849,
			"0.004": 21.1354935198,
			"0.005": 6.90677373994,
			"0.006": 4.21196857378,
			"0.007": 3.91874055894,
			"0.008": 2.52447304764,
			"0.009": 3.46854083179,
			"0.01": 3.20516950807,
			"0.011": 1.08641594709,
			"0.012": 1.45816640559,
			"0.013": 0.281731444345,
			"0.014": 0.0,
			"0.015": 0.0,
			"0.016": 0.0,
			"0.017": 0.0,
			"0.018": 0.0,
			"0.019": 0.0,
			"0.02": 0.0,
			"0.021": 0.0,
			"0.022": 0.0,
			"0.023": 0.0,
			"0.024": 0.0,
			"0.025": 0.0
		}
	}
}
