{
	 "smiles": "CC1CCC2(O)C(C)(C)C3CCC2(C)C1C3", 
	 "Tm": 329.15, 
	 "num_atms": 42, 
	 "gaussian": { 
		 "optdone": 1, 
		 "sigma_profile": "yes", 
		 "theory": "DFT", 
		 "functional": "B3LYP", 
		 "basiset": "6-31G**", 
		 "properties": { 
			 "R2extent": 3432.9022, 
			 "electric_dipole_moment_norm": 1.40458718135, 
			 "electric_quadrupole_moment_norm": 5.0309943868, 
			 "total_energy": -662.504836707, 
			 "HOMO_LUMO_gap": 0.31157, 
			 "cosmo_polarized_energy": -5.03, 
			 "cosmo_cavitation_energy": 34.09, 
			 "cosmo_dispersion_energy": -25.36, 
			 "cosmo_repulsion_energy": 1.87, 
			 "cosmo_total_nonelectrostatic_energy": 10.6, 
			 "SMD_solvation_energy": 4.94 
		},
		"coords": [
			{
				"x": 2.1753253557,
				"y": 2.1948361171,
				"z": 3.0584815413,
				"element": "C" 
			},
			{
				"x": 1.6952710845,
				"y": 2.127355922,
				"z": 1.602310425,
				"element": "C" 
			},
			{
				"x": 2.8116398207,
				"y": 1.6483690015,
				"z": 0.6567867058,
				"element": "C" 
			},
			{
				"x": 2.3195737103,
				"y": 1.3956229896,
				"z": -0.7802668388,
				"element": "C" 
			},
			{
				"x": 0.9652862307,
				"y": 0.6491617591,
				"z": -0.9560452997,
				"element": "C" 
			},
			{
				"x": 0.6032964664,
				"y": 0.7788754328,
				"z": -2.3407250931,
				"element": "O" 
			},
			{
				"x": 1.0006317256,
				"y": -0.9245556934,
				"z": -0.657996549,
				"element": "C" 
			},
			{
				"x": 0.3404743379,
				"y": -1.7236591126,
				"z": -1.8096563865,
				"element": "C" 
			},
			{
				"x": 2.426952993,
				"y": -1.505430858,
				"z": -0.5352061011,
				"element": "C" 
			},
			{
				"x": 0.212434215,
				"y": -1.1774039915,
				"z": 0.6689957389,
				"element": "C" 
			},
			{
				"x": -1.2880414504,
				"y": -0.902485293,
				"z": 0.4763850258,
				"element": "C" 
			},
			{
				"x": -1.4449392003,
				"y": 0.519273325,
				"z": -0.1081207631,
				"element": "C" 
			},
			{
				"x": -0.1192356204,
				"y": 1.3176717407,
				"z": -0.0326633721,
				"element": "C" 
			},
			{
				"x": -0.4455574852,
				"y": 2.7598735293,
				"z": -0.4679102566,
				"element": "C" 
			},
			{
				"x": 0.4342055918,
				"y": 1.2492903759,
				"z": 1.4247354598,
				"element": "C" 
			},
			{
				"x": 0.6935272143,
				"y": -0.2473676367,
				"z": 1.7969824495,
				"element": "C" 
			},
			{
				"x": 2.4683253522,
				"y": 1.2096973324,
				"z": 3.4379621409,
				"element": "H" 
			},
			{
				"x": 1.3906367408,
				"y": 2.5848416872,
				"z": 3.7164898525,
				"element": "H" 
			},
			{
				"x": 3.0462743549,
				"y": 2.8533221851,
				"z": 3.1520398306,
				"element": "H" 
			},
			{
				"x": 1.424375649,
				"y": 3.1510139478,
				"z": 1.3133065794,
				"element": "H" 
			},
			{
				"x": 3.6194679198,
				"y": 2.3909008002,
				"z": 0.6326823784,
				"element": "H" 
			},
			{
				"x": 3.2658179569,
				"y": 0.7409304779,
				"z": 1.0683793527,
				"element": "H" 
			},
			{
				"x": 2.195538972,
				"y": 2.3739798022,
				"z": -1.2647039344,
				"element": "H" 
			},
			{
				"x": 3.0892728848,
				"y": 0.8821387336,
				"z": -1.3632853158,
				"element": "H" 
			},
			{
				"x": 0.6855497907,
				"y": 1.7116894489,
				"z": -2.5756566322,
				"element": "H" 
			},
			{
				"x": -0.6476631275,
				"y": -1.3553985531,
				"z": -2.0835188875,
				"element": "H" 
			},
			{
				"x": 0.2477120005,
				"y": -2.7745154616,
				"z": -1.5105831975,
				"element": "H" 
			},
			{
				"x": 0.9565141925,
				"y": -1.67935913,
				"z": -2.7102065995,
				"element": "H" 
			},
			{
				"x": 3.0016281762,
				"y": -1.3435434019,
				"z": -1.4523727349,
				"element": "H" 
			},
			{
				"x": 3.0031839646,
				"y": -1.1001020917,
				"z": 0.2981757472,
				"element": "H" 
			},
			{
				"x": 2.3610789698,
				"y": -2.5886907299,
				"z": -0.3843825679,
				"element": "H" 
			},
			{
				"x": 0.3664092349,
				"y": -2.2229317945,
				"z": 0.9661249636,
				"element": "H" 
			},
			{
				"x": -1.7894846222,
				"y": -0.9840295532,
				"z": 1.4482260596,
				"element": "H" 
			},
			{
				"x": -1.7546472079,
				"y": -1.6488365091,
				"z": -0.1721101065,
				"element": "H" 
			},
			{
				"x": -2.2247282695,
				"y": 1.0767407938,
				"z": 0.4247951635,
				"element": "H" 
			},
			{
				"x": -1.7535816534,
				"y": 0.4786720505,
				"z": -1.1577975676,
				"element": "H" 
			},
			{
				"x": 0.4278830929,
				"y": 3.4088459191,
				"z": -0.5693142051,
				"element": "H" 
			},
			{
				"x": -1.1117297222,
				"y": 3.229446353,
				"z": 0.2643373755,
				"element": "H" 
			},
			{
				"x": -0.9748835389,
				"y": 2.7583742028,
				"z": -1.4270559071,
				"element": "H" 
			},
			{
				"x": -0.3463304842,
				"y": 1.6505558845,
				"z": 2.086377972,
				"element": "H" 
			},
			{
				"x": 0.1640563496,
				"y": -0.5050649672,
				"z": 2.7211769784,
				"element": "H" 
			},
			{
				"x": 1.753078034,
				"y": -0.4213050345,
				"z": 2.0054265758,
				"element": "H" 
			}
		],
		 "valence_orbital": [ 
			{
				"type": "occ",
				"energy": -0.30361,
				"method": "rhf"
			},
			{
				"type": "occ",
				"energy": -0.2888,
				"method": "rhf"
			},
			{
				"type": "occ",
				"energy": -0.27613,
				"method": "rhf"
			},
			{
				"type": "occ",
				"energy": -0.26424,
				"method": "rhf"
			},
			{
				"type": "occ",
				"energy": -0.24248,
				"method": "rhf"
			},
			{
				"type": "unocc",
				"energy": 0.06909,
				"method": "rhf"
			},
			{
				"type": "unocc",
				"energy": 0.083,
				"method": "rhf"
			},
			{
				"type": "unocc",
				"energy": 0.08775,
				"method": "rhf"
			},
			{
				"type": "unocc",
				"energy": 0.09816,
				"method": "rhf"
			},
			{
				"type": "unocc",
				"energy": 0.11433,
				"method": "rhf"
			}
		],
		"cosmo_sigma_profile": { 
			"-0.025": 0.0,
			"-0.024": 0.0,
			"-0.023": 0.0,
			"-0.022": 0.0,
			"-0.021": 0.0,
			"-0.02": 0.0,
			"-0.019": 0.0,
			"-0.018": 0.0,
			"-0.017": 0.0,
			"-0.016": 0.0,
			"-0.015": 0.0,
			"-0.014": 0.0304215563219,
			"-0.013": 0.606668994726,
			"-0.012": 0.631132090497,
			"-0.011": 1.23573036684,
			"-0.01": 1.01604679541,
			"-0.009": 0.6264572287,
			"-0.008": 1.11704740574,
			"-0.007": 1.26926013691,
			"-0.006": 1.46746887744,
			"-0.005": 1.27448011356,
			"-0.004": 4.13808429584,
			"-0.003": 10.0175575889,
			"-0.002": 33.9814908718,
			"-0.001": 53.7218532363,
			"0.0": 52.3639603314,
			"0.001": 44.3116711122,
			"0.002": 31.0157491183,
			"0.003": 5.45451114779,
			"0.004": 1.71931827608,
			"0.005": 1.62001510767,
			"0.006": 1.52283549732,
			"0.007": 1.92136800529,
			"0.008": 0.956998923124,
			"0.009": 1.15859442491,
			"0.01": 1.87606021586,
			"0.011": 1.30112053547,
			"0.012": 1.34112772171,
			"0.013": 1.44207192923,
			"0.014": 0.0155056306708,
			"0.015": 0.0,
			"0.016": 0.0,
			"0.017": 0.0,
			"0.018": 0.0,
			"0.019": 0.0,
			"0.02": 0.0,
			"0.021": 0.0,
			"0.022": 0.0,
			"0.023": 0.0,
			"0.024": 0.0,
			"0.025": 0.0
		}
	}
}
