{
	 "smiles": "CN1CC(CC1=O)C(O)=O", 
	 "Tm": 425.15, 
	 "num_atms": 19, 
	 "gaussian": { 
		 "optdone": 1, 
		 "sigma_profile": "yes", 
		 "theory": "DFT", 
		 "functional": "B3LYP", 
		 "basiset": "6-31G**", 
		 "properties": { 
			 "R2extent": 1603.6252, 
			 "electric_dipole_moment_norm": 4.1256261852, 
			 "electric_quadrupole_moment_norm": 18.7422439481, 
			 "total_energy": -514.506984024, 
			 "HOMO_LUMO_gap": 0.23987, 
			 "cosmo_polarized_energy": -20.42, 
			 "cosmo_cavitation_energy": 22.37, 
			 "cosmo_dispersion_energy": -16.42, 
			 "cosmo_repulsion_energy": 1.35, 
			 "cosmo_total_nonelectrostatic_energy": 7.3, 
			 "SMD_solvation_energy": 5.41 
		},
		"coords": [
			{
				"x": 0.2633648393,
				"y": -0.5395643727,
				"z": -2.9339682449,
				"element": "C" 
			},
			{
				"x": 0.3274629763,
				"y": -0.3650122157,
				"z": -1.4992091327,
				"element": "N" 
			},
			{
				"x": -0.6452508312,
				"y": 0.4318552473,
				"z": -0.7702560923,
				"element": "C" 
			},
			{
				"x": -0.32047732,
				"y": 0.1607457104,
				"z": 0.7160838189,
				"element": "C" 
			},
			{
				"x": 1.1302508269,
				"y": -0.385073069,
				"z": 0.7004360392,
				"element": "C" 
			},
			{
				"x": 1.371887874,
				"y": -0.8275737727,
				"z": -0.7471048779,
				"element": "C" 
			},
			{
				"x": 2.3312538364,
				"y": -1.4632467223,
				"z": -1.152934527,
				"element": "O" 
			},
			{
				"x": -1.3184288275,
				"y": -0.8254007239,
				"z": 1.3374202195,
				"element": "C" 
			},
			{
				"x": -1.0609790676,
				"y": -1.1659397149,
				"z": 2.6269352646,
				"element": "O" 
			},
			{
				"x": -2.285081479,
				"y": -1.2765563896,
				"z": 0.7770588718,
				"element": "O" 
			},
			{
				"x": 0.3271848593,
				"y": 0.4246257424,
				"z": -3.4549165667,
				"element": "H" 
			},
			{
				"x": 1.1096451611,
				"y": -1.1625354813,
				"z": -3.2280403624,
				"element": "H" 
			},
			{
				"x": -0.672115645,
				"y": -1.0312610073,
				"z": -3.2243667438,
				"element": "H" 
			},
			{
				"x": -0.5429902571,
				"y": 1.4992995342,
				"z": -1.0148017917,
				"element": "H" 
			},
			{
				"x": -1.6665793532,
				"y": 0.1166079045,
				"z": -1.0034111613,
				"element": "H" 
			},
			{
				"x": -0.3899059755,
				"y": 1.0857590076,
				"z": 1.3006603953,
				"element": "H" 
			},
			{
				"x": 1.3047952606,
				"y": -1.2320819721,
				"z": 1.3693551927,
				"element": "H" 
			},
			{
				"x": 1.8648505726,
				"y": 0.3870664198,
				"z": 0.9520332441,
				"element": "H" 
			},
			{
				"x": -0.2593874502,
				"y": -0.7244141248,
				"z": 2.9423264545,
				"element": "H" 
			}
		],
		 "valence_orbital": [ 
			{
				"type": "occ",
				"energy": -0.35487,
				"method": "rhf"
			},
			{
				"type": "occ",
				"energy": -0.32768,
				"method": "rhf"
			},
			{
				"type": "occ",
				"energy": -0.28382,
				"method": "rhf"
			},
			{
				"type": "occ",
				"energy": -0.25326,
				"method": "rhf"
			},
			{
				"type": "occ",
				"energy": -0.24499,
				"method": "rhf"
			},
			{
				"type": "unocc",
				"energy": -0.00512,
				"method": "rhf"
			},
			{
				"type": "unocc",
				"energy": 0.02374,
				"method": "rhf"
			},
			{
				"type": "unocc",
				"energy": 0.04597,
				"method": "rhf"
			},
			{
				"type": "unocc",
				"energy": 0.08285,
				"method": "rhf"
			},
			{
				"type": "unocc",
				"energy": 0.0984,
				"method": "rhf"
			}
		],
		"cosmo_sigma_profile": { 
			"-0.025": 0.0,
			"-0.024": 0.0,
			"-0.023": 0.0,
			"-0.022": 0.0,
			"-0.021": 0.0,
			"-0.02": 0.0,
			"-0.019": 0.489757174132,
			"-0.018": 0.929534581232,
			"-0.017": 1.36764638439,
			"-0.016": 0.963956165883,
			"-0.015": 1.16199004824,
			"-0.014": 0.939368336159,
			"-0.013": 0.830714207448,
			"-0.012": 1.26986053155,
			"-0.011": 1.71512565675,
			"-0.01": 1.33443335556,
			"-0.009": 1.53305089296,
			"-0.008": 3.76782785619,
			"-0.007": 8.06809720688,
			"-0.006": 10.3613342754,
			"-0.005": 15.3662500715,
			"-0.004": 16.8729146867,
			"-0.003": 15.5929720991,
			"-0.002": 13.9726163425,
			"-0.001": 7.70892602428,
			"0.0": 4.91647792841,
			"0.001": 4.30116323572,
			"0.002": 5.13432025579,
			"0.003": 3.58799640233,
			"0.004": 4.10755353991,
			"0.005": 3.34437208826,
			"0.006": 3.17735119259,
			"0.007": 3.58840438707,
			"0.008": 4.95712551469,
			"0.009": 5.00550012862,
			"0.01": 6.19056393972,
			"0.011": 7.15217176213,
			"0.012": 5.25461693827,
			"0.013": 3.96425446767,
			"0.014": 5.84206717412,
			"0.015": 1.11277797569,
			"0.016": 0.0,
			"0.017": 0.0,
			"0.018": 0.0,
			"0.019": 0.0,
			"0.02": 0.0,
			"0.021": 0.0,
			"0.022": 0.0,
			"0.023": 0.0,
			"0.024": 0.0,
			"0.025": 0.0
		}
	}
}
