{
	 "smiles": "COC(=O)C1=CC=C(C=C1)S(Cl)(=O)=O", 
	 "Tm": 340.65, 
	 "num_atms": 21, 
	 "gaussian": { 
		 "optdone": 1, 
		 "sigma_profile": "yes", 
		 "theory": "DFT", 
		 "functional": "B3LYP", 
		 "basiset": "6-31G**", 
		 "properties": { 
			 "R2extent": 6233.4981, 
			 "electric_dipole_moment_norm": 5.32004460414, 
			 "electric_quadrupole_moment_norm": 19.5862383675, 
			 "total_energy": -1468.28508382, 
			 "HOMO_LUMO_gap": 0.19275, 
			 "cosmo_polarized_energy": -11.2, 
			 "cosmo_cavitation_energy": 29.78, 
			 "cosmo_dispersion_energy": -22.18, 
			 "cosmo_repulsion_energy": 1.7, 
			 "cosmo_total_nonelectrostatic_energy": 9.31, 
			 "SMD_solvation_energy": 5.46 
		},
		"coords": [
			{
				"x": -3.8172176226,
				"y": -1.0382257071,
				"z": 0.0410329516,
				"element": "C" 
			},
			{
				"x": -2.4019089425,
				"y": -1.2806965936,
				"z": 0.1357009279,
				"element": "O" 
			},
			{
				"x": -1.6335506124,
				"y": -0.1777889555,
				"z": 0.2297596064,
				"element": "C" 
			},
			{
				"x": -2.0744875726,
				"y": 0.9535627107,
				"z": 0.2368787186,
				"element": "O" 
			},
			{
				"x": -0.1761819229,
				"y": -0.5064698039,
				"z": 0.3239926306,
				"element": "C" 
			},
			{
				"x": 0.2933146022,
				"y": -1.8270087797,
				"z": 0.3148147566,
				"element": "C" 
			},
			{
				"x": 1.6597310995,
				"y": -2.0818720527,
				"z": 0.4040211179,
				"element": "C" 
			},
			{
				"x": 2.5322969304,
				"y": -0.9976441839,
				"z": 0.5025481244,
				"element": "C" 
			},
			{
				"x": 2.0897191183,
				"y": 0.3261103211,
				"z": 0.517555017,
				"element": "C" 
			},
			{
				"x": 0.7218316235,
				"y": 0.5642761293,
				"z": 0.4274072304,
				"element": "C" 
			},
			{
				"x": 4.2885935692,
				"y": -1.3191276234,
				"z": 0.6398769989,
				"element": "S" 
			},
			{
				"x": 4.8667426122,
				"y": -1.3161375172,
				"z": -1.412989192,
				"element": "Cl" 
			},
			{
				"x": 4.493242756,
				"y": -2.6799666243,
				"z": 1.1191664042,
				"element": "O" 
			},
			{
				"x": 4.9428063682,
				"y": -0.1688741475,
				"z": 1.2497346431,
				"element": "O" 
			},
			{
				"x": -4.2787950212,
				"y": -2.0227612786,
				"z": -0.0260493017,
				"element": "H" 
			},
			{
				"x": -4.1726638142,
				"y": -0.5042191162,
				"z": 0.9253358797,
				"element": "H" 
			},
			{
				"x": -4.0437854356,
				"y": -0.4439236551,
				"z": -0.8472135911,
				"element": "H" 
			},
			{
				"x": -0.4108720839,
				"y": -2.6469212088,
				"z": 0.2409353767,
				"element": "H" 
			},
			{
				"x": 2.0440956762,
				"y": -3.0954257685,
				"z": 0.4073635984,
				"element": "H" 
			},
			{
				"x": 2.7996505682,
				"y": 1.1403763081,
				"z": 0.6071594212,
				"element": "H" 
			},
			{
				"x": 0.3281381038,
				"y": 1.5745375466,
				"z": 0.438268681,
				"element": "H" 
			}
		],
		 "valence_orbital": [ 
			{
				"type": "occ",
				"energy": -0.32307,
				"method": "rhf"
			},
			{
				"type": "occ",
				"energy": -0.31704,
				"method": "rhf"
			},
			{
				"type": "occ",
				"energy": -0.29683,
				"method": "rhf"
			},
			{
				"type": "occ",
				"energy": -0.29597,
				"method": "rhf"
			},
			{
				"type": "occ",
				"energy": -0.29397,
				"method": "rhf"
			},
			{
				"type": "unocc",
				"energy": -0.10122,
				"method": "rhf"
			},
			{
				"type": "unocc",
				"energy": -0.06735,
				"method": "rhf"
			},
			{
				"type": "unocc",
				"energy": -0.04313,
				"method": "rhf"
			},
			{
				"type": "unocc",
				"energy": 0.01286,
				"method": "rhf"
			},
			{
				"type": "unocc",
				"energy": 0.05586,
				"method": "rhf"
			}
		],
		"cosmo_sigma_profile": { 
			"-0.025": 0.0,
			"-0.024": 0.0,
			"-0.023": 0.0,
			"-0.022": 0.0,
			"-0.021": 0.0,
			"-0.02": 0.0,
			"-0.019": 0.0,
			"-0.018": 0.0,
			"-0.017": 0.0,
			"-0.016": 0.0,
			"-0.015": 0.0,
			"-0.014": 0.0,
			"-0.013": 0.0,
			"-0.012": 0.0,
			"-0.011": 0.0,
			"-0.01": 0.0,
			"-0.009": 1.81959814672,
			"-0.008": 5.11486888094,
			"-0.007": 9.45252981859,
			"-0.006": 14.2188220978,
			"-0.005": 13.4000894128,
			"-0.004": 17.7154702586,
			"-0.003": 17.6354931882,
			"-0.002": 18.2879313574,
			"-0.001": 24.4553142577,
			"0.0": 23.9334770168,
			"0.001": 13.4991842917,
			"0.002": 11.9346079516,
			"0.003": 18.4445222104,
			"0.004": 10.265270439,
			"0.005": 5.33619013835,
			"0.006": 4.59531711136,
			"0.007": 9.0068764144,
			"0.008": 9.97912207705,
			"0.009": 5.30883622049,
			"0.01": 2.15470621269,
			"0.011": 4.20400432411,
			"0.012": 1.09082366923,
			"0.013": 0.0,
			"0.014": 0.0,
			"0.015": 0.0,
			"0.016": 0.0,
			"0.017": 0.0,
			"0.018": 0.0,
			"0.019": 0.0,
			"0.02": 0.0,
			"0.021": 0.0,
			"0.022": 0.0,
			"0.023": 0.0,
			"0.024": 0.0,
			"0.025": 0.0
		}
	}
}
