{
	 "smiles": "OC(=O)C1=NC=C(C=C1)C#C", 
	 "Tm": 455.15, 
	 "num_atms": 16, 
	 "gaussian": { 
		 "optdone": 1, 
		 "sigma_profile": "yes", 
		 "theory": "DFT", 
		 "functional": "B3LYP", 
		 "basiset": "6-31G**", 
		 "properties": { 
			 "R2extent": 2002.1976, 
			 "electric_dipole_moment_norm": 5.48158877881, 
			 "electric_quadrupole_moment_norm": 7.25205475296, 
			 "total_energy": -513.004699788, 
			 "HOMO_LUMO_gap": 0.18205, 
			 "cosmo_polarized_energy": -11.5, 
			 "cosmo_cavitation_energy": 22.48, 
			 "cosmo_dispersion_energy": -16.05, 
			 "cosmo_repulsion_energy": 1.27, 
			 "cosmo_total_nonelectrostatic_energy": 7.7, 
			 "SMD_solvation_energy": 5.83 
		},
		"coords": [
			{
				"x": -2.1635211199,
				"y": 0.4692032219,
				"z": 2.4978402143,
				"element": "O" 
			},
			{
				"x": -2.0848190451,
				"y": 0.7856564799,
				"z": 1.1967885025,
				"element": "C" 
			},
			{
				"x": -2.9327513379,
				"y": 1.4228751482,
				"z": 0.6137911265,
				"element": "O" 
			},
			{
				"x": -0.8372531942,
				"y": 0.2725253603,
				"z": 0.5222776353,
				"element": "C" 
			},
			{
				"x": 0.0088147862,
				"y": -0.4186985394,
				"z": 1.3031940231,
				"element": "N" 
			},
			{
				"x": 1.1264106109,
				"y": -0.8953568986,
				"z": 0.7602853096,
				"element": "C" 
			},
			{
				"x": 1.4613528959,
				"y": -0.7071390441,
				"z": -0.5968576759,
				"element": "C" 
			},
			{
				"x": 0.5620649435,
				"y": 0.0198099322,
				"z": -1.3989569364,
				"element": "C" 
			},
			{
				"x": -0.6044822083,
				"y": 0.5170354976,
				"z": -0.8311668252,
				"element": "C" 
			},
			{
				"x": 2.6735226438,
				"y": -1.2414366154,
				"z": -1.1230427021,
				"element": "C" 
			},
			{
				"x": 3.7034470001,
				"y": -1.696660163,
				"z": -1.5651406288,
				"element": "C" 
			},
			{
				"x": -1.3541237867,
				"y": -0.0426672802,
				"z": 2.7062473763,
				"element": "H" 
			},
			{
				"x": 1.7958532197,
				"y": -1.4514161209,
				"z": 1.4112002743,
				"element": "H" 
			},
			{
				"x": 0.7888270852,
				"y": 0.1831457955,
				"z": -2.447311675,
				"element": "H" 
			},
			{
				"x": -1.3332125278,
				"y": 1.0834170628,
				"z": -1.399213034,
				"element": "H" 
			},
			{
				"x": 4.6110700345,
				"y": -2.0973938367,
				"z": -1.9545349847,
				"element": "H" 
			}
		],
		 "valence_orbital": [ 
			{
				"type": "occ",
				"energy": -0.31607,
				"method": "rhf"
			},
			{
				"type": "occ",
				"energy": -0.30504,
				"method": "rhf"
			},
			{
				"type": "occ",
				"energy": -0.29507,
				"method": "rhf"
			},
			{
				"type": "occ",
				"energy": -0.27039,
				"method": "rhf"
			},
			{
				"type": "occ",
				"energy": -0.26491,
				"method": "rhf"
			},
			{
				"type": "unocc",
				"energy": -0.08286,
				"method": "rhf"
			},
			{
				"type": "unocc",
				"energy": -0.0506,
				"method": "rhf"
			},
			{
				"type": "unocc",
				"energy": 0.01678,
				"method": "rhf"
			},
			{
				"type": "unocc",
				"energy": 0.02615,
				"method": "rhf"
			},
			{
				"type": "unocc",
				"energy": 0.0878,
				"method": "rhf"
			}
		],
		"cosmo_sigma_profile": { 
			"-0.025": 0.0,
			"-0.024": 0.0,
			"-0.023": 0.0,
			"-0.022": 0.0,
			"-0.021": 0.0,
			"-0.02": 0.0,
			"-0.019": 0.0,
			"-0.018": 0.0,
			"-0.017": 0.0,
			"-0.016": 0.0,
			"-0.015": 0.0,
			"-0.014": 0.0228552615094,
			"-0.013": 1.06145960736,
			"-0.012": 1.58293924322,
			"-0.011": 1.36232281512,
			"-0.01": 2.19256595954,
			"-0.009": 3.60713961895,
			"-0.008": 6.41206538668,
			"-0.007": 6.93641696651,
			"-0.006": 7.79030440484,
			"-0.005": 8.78377395724,
			"-0.004": 9.42843489869,
			"-0.003": 8.52225111891,
			"-0.002": 14.3519756373,
			"-0.001": 21.5039473092,
			"0.0": 15.6323261505,
			"0.001": 8.62933048781,
			"0.002": 7.73605564238,
			"0.003": 8.97628809128,
			"0.004": 10.6079619652,
			"0.005": 10.1046009428,
			"0.006": 3.17615826005,
			"0.007": 2.59160531766,
			"0.008": 3.09775888373,
			"0.009": 4.09243830817,
			"0.01": 5.08090143159,
			"0.011": 5.13969073366,
			"0.012": 3.4741154848,
			"0.013": 0.982869851147,
			"0.014": 0.0,
			"0.015": 0.0,
			"0.016": 0.0,
			"0.017": 0.0,
			"0.018": 0.0,
			"0.019": 0.0,
			"0.02": 0.0,
			"0.021": 0.0,
			"0.022": 0.0,
			"0.023": 0.0,
			"0.024": 0.0,
			"0.025": 0.0
		}
	}
}
