{
	 "smiles": "NC1=CC(N2N=NN=C2C2CC2)=C(Cl)C=C1", 
	 "Tm": 409.15, 
	 "num_atms": 26, 
	 "gaussian": { 
		 "optdone": 1, 
		 "sigma_profile": "yes", 
		 "theory": "DFT", 
		 "functional": "B3LYP", 
		 "basiset": "6-31G**", 
		 "properties": { 
			 "R2extent": 4492.3404, 
			 "electric_dipole_moment_norm": 7.96099909936, 
			 "electric_quadrupole_moment_norm": 10.0768924778, 
			 "total_energy": -1120.95840613, 
			 "HOMO_LUMO_gap": 0.18609, 
			 "cosmo_polarized_energy": -19.0, 
			 "cosmo_cavitation_energy": 32.33, 
			 "cosmo_dispersion_energy": -22.76, 
			 "cosmo_repulsion_energy": 1.78, 
			 "cosmo_total_nonelectrostatic_energy": 11.35, 
			 "SMD_solvation_energy": 3.24 
		},
		"coords": [
			{
				"x": 2.8084653337,
				"y": -1.4758754364,
				"z": 2.0286784633,
				"element": "N" 
			},
			{
				"x": 2.4014536248,
				"y": -1.0700369804,
				"z": 0.7666043014,
				"element": "C" 
			},
			{
				"x": 1.0472925787,
				"y": -0.8265507641,
				"z": 0.4915321131,
				"element": "C" 
			},
			{
				"x": 0.6268093709,
				"y": -0.4795284238,
				"z": -0.7925949945,
				"element": "C" 
			},
			{
				"x": -0.7652010236,
				"y": -0.2668508134,
				"z": -1.0019564274,
				"element": "N" 
			},
			{
				"x": -1.6648830045,
				"y": -1.2845987454,
				"z": -0.8080997423,
				"element": "N" 
			},
			{
				"x": -2.8285071806,
				"y": -0.7752839671,
				"z": -1.0116970298,
				"element": "N" 
			},
			{
				"x": -2.7496689389,
				"y": 0.5446439471,
				"z": -1.3254089794,
				"element": "N" 
			},
			{
				"x": -1.4643395404,
				"y": 0.8564842151,
				"z": -1.3143545022,
				"element": "C" 
			},
			{
				"x": -0.8955743679,
				"y": 2.1893046934,
				"z": -1.5586846392,
				"element": "C" 
			},
			{
				"x": -1.7006204098,
				"y": 3.4089486275,
				"z": -1.1366293314,
				"element": "C" 
			},
			{
				"x": -1.5597728789,
				"y": 3.0856645309,
				"z": -2.5908770963,
				"element": "C" 
			},
			{
				"x": 1.5562097116,
				"y": -0.3725273359,
				"z": -1.8365094237,
				"element": "C" 
			},
			{
				"x": 1.0559685094,
				"y": -0.0059332929,
				"z": -3.4743520589,
				"element": "Cl" 
			},
			{
				"x": 2.9070831802,
				"y": -0.5962835915,
				"z": -1.5648983915,
				"element": "C" 
			},
			{
				"x": 3.3271980187,
				"y": -0.9374032081,
				"z": -0.285509633,
				"element": "C" 
			},
			{
				"x": 2.1791943144,
				"y": -1.2777238076,
				"z": 2.7926467673,
				"element": "H" 
			},
			{
				"x": 3.7782628576,
				"y": -1.3206774361,
				"z": 2.2615171113,
				"element": "H" 
			},
			{
				"x": 0.2981009271,
				"y": -0.9177532102,
				"z": 1.2711667101,
				"element": "H" 
			},
			{
				"x": 0.1836074473,
				"y": 2.2489417422,
				"z": -1.4719555072,
				"element": "H" 
			},
			{
				"x": -2.6590063576,
				"y": 3.2131932256,
				"z": -0.6675973526,
				"element": "H" 
			},
			{
				"x": -1.1457213783,
				"y": 4.2485903843,
				"z": -0.7295804705,
				"element": "H" 
			},
			{
				"x": -0.9059137938,
				"y": 3.6964502352,
				"z": -3.2052012161,
				"element": "H" 
			},
			{
				"x": -2.4228576271,
				"y": 2.6712354865,
				"z": -3.1007657602,
				"element": "H" 
			},
			{
				"x": 3.6287637676,
				"y": -0.5119605163,
				"z": -2.3698133992,
				"element": "H" 
			},
			{
				"x": 4.3824568594,
				"y": -1.1171695584,
				"z": -0.0997595112,
				"element": "H" 
			}
		],
		 "valence_orbital": [ 
			{
				"type": "occ",
				"energy": -0.28485,
				"method": "rhf"
			},
			{
				"type": "occ",
				"energy": -0.28368,
				"method": "rhf"
			},
			{
				"type": "occ",
				"energy": -0.2651,
				"method": "rhf"
			},
			{
				"type": "occ",
				"energy": -0.26036,
				"method": "rhf"
			},
			{
				"type": "occ",
				"energy": -0.22355,
				"method": "rhf"
			},
			{
				"type": "unocc",
				"energy": -0.03746,
				"method": "rhf"
			},
			{
				"type": "unocc",
				"energy": -0.01686,
				"method": "rhf"
			},
			{
				"type": "unocc",
				"energy": 0.0006,
				"method": "rhf"
			},
			{
				"type": "unocc",
				"energy": 0.01898,
				"method": "rhf"
			},
			{
				"type": "unocc",
				"energy": 0.02882,
				"method": "rhf"
			}
		],
		"cosmo_sigma_profile": { 
			"-0.025": 0.0,
			"-0.024": 0.0,
			"-0.023": 0.0,
			"-0.022": 0.0,
			"-0.021": 0.0,
			"-0.02": 0.0,
			"-0.019": 0.0,
			"-0.018": 0.0,
			"-0.017": 0.0,
			"-0.016": 0.0,
			"-0.015": 0.0,
			"-0.014": 0.307644141963,
			"-0.013": 2.63076530804,
			"-0.012": 3.78001304944,
			"-0.011": 2.31994625051,
			"-0.01": 4.14874320895,
			"-0.009": 3.07514363088,
			"-0.008": 5.31978090338,
			"-0.007": 7.65235250702,
			"-0.006": 12.8785799431,
			"-0.005": 15.5582550006,
			"-0.004": 14.3764529529,
			"-0.003": 14.1107635463,
			"-0.002": 15.855820509,
			"-0.001": 17.0051232826,
			"0.0": 19.3180713471,
			"0.001": 19.5137875867,
			"0.002": 23.0054433002,
			"0.003": 21.6820467209,
			"0.004": 14.8125492676,
			"0.005": 5.22909267861,
			"0.006": 3.77633755971,
			"0.007": 5.12502229051,
			"0.008": 4.91325920201,
			"0.009": 5.88338776431,
			"0.01": 4.82101499639,
			"0.011": 5.63454123099,
			"0.012": 3.47753693486,
			"0.013": 2.61456503606,
			"0.014": 1.44199860468,
			"0.015": 0.159390040721,
			"0.016": 0.0,
			"0.017": 0.0,
			"0.018": 0.0,
			"0.019": 0.0,
			"0.02": 0.0,
			"0.021": 0.0,
			"0.022": 0.0,
			"0.023": 0.0,
			"0.024": 0.0,
			"0.025": 0.0
		}
	}
}
