{
	 "smiles": "CC1=C2NC=C(CCC(O)=O)C2=CC=C1", 
	 "Tm": 423.15, 
	 "num_atms": 28, 
	 "gaussian": { 
		 "optdone": 1, 
		 "sigma_profile": "yes", 
		 "theory": "DFT", 
		 "functional": "B3LYP", 
		 "basiset": "6-31G**", 
		 "properties": { 
			 "R2extent": 3933.3877, 
			 "electric_dipole_moment_norm": 6.09430663653, 
			 "electric_quadrupole_moment_norm": 24.5158488254, 
			 "total_energy": -670.339638621, 
			 "HOMO_LUMO_gap": 0.19343, 
			 "cosmo_polarized_energy": -17.11, 
			 "cosmo_cavitation_energy": 31.16, 
			 "cosmo_dispersion_energy": -22.27, 
			 "cosmo_repulsion_energy": 1.74, 
			 "cosmo_total_nonelectrostatic_energy": 10.63, 
			 "SMD_solvation_energy": 5.84 
		},
		"coords": [
			{
				"x": -3.9911051105,
				"y": 1.8934171074,
				"z": -0.2259376323,
				"element": "C" 
			},
			{
				"x": -3.2773838614,
				"y": 0.5663086705,
				"z": -0.2707480452,
				"element": "C" 
			},
			{
				"x": -1.8739449763,
				"y": 0.4893336394,
				"z": -0.2723672076,
				"element": "C" 
			},
			{
				"x": -0.9395559452,
				"y": 1.5077646315,
				"z": -0.2458533905,
				"element": "N" 
			},
			{
				"x": 0.3285392771,
				"y": 0.9630929881,
				"z": -0.2599794925,
				"element": "C" 
			},
			{
				"x": 0.2507421034,
				"y": -0.4128905817,
				"z": -0.2988402787,
				"element": "C" 
			},
			{
				"x": 1.4006813805,
				"y": -1.3833616516,
				"z": -0.3649504318,
				"element": "C" 
			},
			{
				"x": 1.6176198338,
				"y": -2.2473584217,
				"z": 0.9047106752,
				"element": "C" 
			},
			{
				"x": 2.1981813224,
				"y": -1.5145585981,
				"z": 2.1115085995,
				"element": "C" 
			},
			{
				"x": 1.623528898,
				"y": -0.3277766446,
				"z": 2.4256773878,
				"element": "O" 
			},
			{
				"x": 3.1037029382,
				"y": -1.9512101064,
				"z": 2.7799735171,
				"element": "O" 
			},
			{
				"x": -1.1596239777,
				"y": -0.7366508891,
				"z": -0.3100240375,
				"element": "C" 
			},
			{
				"x": -1.8824978124,
				"y": -1.9429260708,
				"z": -0.3620891348,
				"element": "C" 
			},
			{
				"x": -3.2686596297,
				"y": -1.8861866089,
				"z": -0.364253039,
				"element": "C" 
			},
			{
				"x": -3.9500623292,
				"y": -0.6519994527,
				"z": -0.3162391126,
				"element": "C" 
			},
			{
				"x": -3.7302268767,
				"y": 2.5233446156,
				"z": -1.0863456458,
				"element": "H" 
			},
			{
				"x": -3.7381319571,
				"y": 2.4599404636,
				"z": 0.6797080044,
				"element": "H" 
			},
			{
				"x": -5.0751867711,
				"y": 1.7565549951,
				"z": -0.2355979435,
				"element": "H" 
			},
			{
				"x": -1.1466109758,
				"y": 2.491685027,
				"z": -0.1975515159,
				"element": "H" 
			},
			{
				"x": 1.2028822894,
				"y": 1.5997166307,
				"z": -0.2608288105,
				"element": "H" 
			},
			{
				"x": 2.3260251056,
				"y": -0.8435909144,
				"z": -0.5965359728,
				"element": "H" 
			},
			{
				"x": 1.2342577572,
				"y": -2.0713838885,
				"z": -1.2028765628,
				"element": "H" 
			},
			{
				"x": 2.3039308702,
				"y": -3.0688932741,
				"z": 0.6892932826,
				"element": "H" 
			},
			{
				"x": 0.6619733962,
				"y": -2.6925266543,
				"z": 1.2105991288,
				"element": "H" 
			},
			{
				"x": 0.935137603,
				"y": -0.1054560494,
				"z": 1.7723736631,
				"element": "H" 
			},
			{
				"x": -1.3689577947,
				"y": -2.899095738,
				"z": -0.4048711045,
				"element": "H" 
			},
			{
				"x": -3.8455249605,
				"y": -2.805361612,
				"z": -0.4040302068,
				"element": "H" 
			},
			{
				"x": -5.0370297966,
				"y": -0.6481316127,
				"z": -0.3176246932,
				"element": "H" 
			}
		],
		 "valence_orbital": [ 
			{
				"type": "occ",
				"energy": -0.29753,
				"method": "rhf"
			},
			{
				"type": "occ",
				"energy": -0.27816,
				"method": "rhf"
			},
			{
				"type": "occ",
				"energy": -0.25256,
				"method": "rhf"
			},
			{
				"type": "occ",
				"energy": -0.23241,
				"method": "rhf"
			},
			{
				"type": "occ",
				"energy": -0.21516,
				"method": "rhf"
			},
			{
				"type": "unocc",
				"energy": -0.02173,
				"method": "rhf"
			},
			{
				"type": "unocc",
				"energy": 0.01391,
				"method": "rhf"
			},
			{
				"type": "unocc",
				"energy": 0.02396,
				"method": "rhf"
			},
			{
				"type": "unocc",
				"energy": 0.04751,
				"method": "rhf"
			},
			{
				"type": "unocc",
				"energy": 0.05954,
				"method": "rhf"
			}
		],
		"cosmo_sigma_profile": { 
			"-0.025": 0.0,
			"-0.024": 0.0,
			"-0.023": 0.0,
			"-0.022": 0.0,
			"-0.021": 0.0,
			"-0.02": 0.0,
			"-0.019": 0.0,
			"-0.018": 0.0,
			"-0.017": 0.0,
			"-0.016": 0.211543790544,
			"-0.015": 1.12830789297,
			"-0.014": 0.75706623415,
			"-0.013": 1.06553089529,
			"-0.012": 1.45791026384,
			"-0.011": 1.10489643986,
			"-0.01": 1.07936660266,
			"-0.009": 2.4144120419,
			"-0.008": 4.69078150868,
			"-0.007": 6.39979607779,
			"-0.006": 8.65497148196,
			"-0.005": 19.8735389329,
			"-0.004": 25.5724731135,
			"-0.003": 23.395303625,
			"-0.002": 21.1641836733,
			"-0.001": 15.2577158225,
			"0.0": 15.1872702919,
			"0.001": 10.9279354818,
			"0.002": 9.95070446276,
			"0.003": 10.2283126459,
			"0.004": 10.2737571619,
			"0.005": 11.4355091481,
			"0.006": 10.1334928281,
			"0.007": 8.23216424542,
			"0.008": 2.09929767639,
			"0.009": 3.93570842969,
			"0.01": 3.26734498312,
			"0.011": 5.2990671325,
			"0.012": 6.40623583948,
			"0.013": 4.21837175235,
			"0.014": 0.960127610683,
			"0.015": 0.0,
			"0.016": 0.0,
			"0.017": 0.0,
			"0.018": 0.0,
			"0.019": 0.0,
			"0.02": 0.0,
			"0.021": 0.0,
			"0.022": 0.0,
			"0.023": 0.0,
			"0.024": 0.0,
			"0.025": 0.0
		}
	}
}
