{
	 "smiles": "CN1C2=C(C=CC=C2)N=C1C(=NNC1=CC=CC(Cl)=C1)C#N", 
	 "Tm": 438.15, 
	 "num_atms": 34, 
	 "gaussian": { 
		 "optdone": 1, 
		 "sigma_profile": "yes", 
		 "theory": "DFT", 
		 "functional": "B3LYP", 
		 "basiset": "6-31G**", 
		 "properties": { 
			 "R2extent": 12032.6136, 
			 "electric_dipole_moment_norm": 2.33772926576, 
			 "electric_quadrupole_moment_norm": 12.1875622427, 
			 "total_energy": -1350.84092635, 
			 "HOMO_LUMO_gap": 0.12784, 
			 "cosmo_polarized_energy": -18.14, 
			 "cosmo_cavitation_energy": 42.24, 
			 "cosmo_dispersion_energy": -30.0, 
			 "cosmo_repulsion_energy": 2.26, 
			 "cosmo_total_nonelectrostatic_energy": 14.5, 
			 "SMD_solvation_energy": 5.08 
		},
		"coords": [
			{
				"x": 2.5893984177,
				"y": 1.6872033831,
				"z": 0.8593529026,
				"element": "C" 
			},
			{
				"x": 2.3108232483,
				"y": 0.8554606927,
				"z": -0.3024502969,
				"element": "N" 
			},
			{
				"x": 3.2731633808,
				"y": 0.2504716025,
				"z": -1.0948132906,
				"element": "C" 
			},
			{
				"x": 2.5515490985,
				"y": -0.5299688529,
				"z": -2.0307977361,
				"element": "C" 
			},
			{
				"x": 3.2411365684,
				"y": -1.2871529211,
				"z": -2.9893584527,
				"element": "C" 
			},
			{
				"x": 4.6297934185,
				"y": -1.2422994463,
				"z": -2.9802519711,
				"element": "C" 
			},
			{
				"x": 5.3332587446,
				"y": -0.4594165558,
				"z": -2.0401279442,
				"element": "C" 
			},
			{
				"x": 4.6700588481,
				"y": 0.3027498807,
				"z": -1.082368776,
				"element": "C" 
			},
			{
				"x": 1.1945341241,
				"y": -0.3922241416,
				"z": -1.8264709645,
				"element": "N" 
			},
			{
				"x": 1.0853749967,
				"y": 0.4281105746,
				"z": -0.8017878345,
				"element": "C" 
			},
			{
				"x": -0.2051006701,
				"y": 0.8608857197,
				"z": -0.2521582955,
				"element": "C" 
			},
			{
				"x": -1.2354766275,
				"y": 0.062821384,
				"z": -0.380480782,
				"element": "N" 
			},
			{
				"x": -2.4302353111,
				"y": 0.4462907944,
				"z": 0.0170511476,
				"element": "N" 
			},
			{
				"x": -3.5460120657,
				"y": -0.3947095254,
				"z": -0.1171006199,
				"element": "C" 
			},
			{
				"x": -3.4428438199,
				"y": -1.6568241022,
				"z": -0.7174869414,
				"element": "C" 
			},
			{
				"x": -4.5836676262,
				"y": -2.4465268917,
				"z": -0.8242040272,
				"element": "C" 
			},
			{
				"x": -5.8225460812,
				"y": -2.0084666323,
				"z": -0.3486711056,
				"element": "C" 
			},
			{
				"x": -5.8966620024,
				"y": -0.7484481741,
				"z": 0.2425082459,
				"element": "C" 
			},
			{
				"x": -7.4386477169,
				"y": -0.16626723,
				"z": 0.8507767338,
				"element": "Cl" 
			},
			{
				"x": -4.7762252244,
				"y": 0.0681794501,
				"z": 0.3673854511,
				"element": "C" 
			},
			{
				"x": -0.3707186823,
				"y": 2.1599812541,
				"z": 0.3352773238,
				"element": "C" 
			},
			{
				"x": -0.6298537449,
				"y": 3.1863441084,
				"z": 0.8245814534,
				"element": "N" 
			},
			{
				"x": 1.8323606725,
				"y": 1.5301265591,
				"z": 1.6286662057,
				"element": "H" 
			},
			{
				"x": 3.5570813797,
				"y": 1.3957407622,
				"z": 1.2729344138,
				"element": "H" 
			},
			{
				"x": 2.6164813215,
				"y": 2.7511592379,
				"z": 0.6035003115,
				"element": "H" 
			},
			{
				"x": 2.6917922003,
				"y": -1.8850565759,
				"z": -3.7091634398,
				"element": "H" 
			},
			{
				"x": 5.1901009688,
				"y": -1.8182605426,
				"z": -3.7106530289,
				"element": "H" 
			},
			{
				"x": 6.4188040476,
				"y": -0.44715403,
				"z": -2.0670633507,
				"element": "H" 
			},
			{
				"x": 5.2206843518,
				"y": 0.9099294271,
				"z": -0.370586603,
				"element": "H" 
			},
			{
				"x": -2.5663332287,
				"y": 1.371440449,
				"z": 0.4257132176,
				"element": "H" 
			},
			{
				"x": -2.4831125904,
				"y": -1.9923571042,
				"z": -1.0900110076,
				"element": "H" 
			},
			{
				"x": -4.5094476409,
				"y": -3.4246299753,
				"z": -1.2897094635,
				"element": "H" 
			},
			{
				"x": -6.7089051526,
				"y": -2.6258238362,
				"z": -0.4341729373,
				"element": "H" 
			},
			{
				"x": -4.8617076025,
				"y": 1.0445912579,
				"z": 0.8334414623,
				"element": "H" 
			}
		],
		 "valence_orbital": [ 
			{
				"type": "occ",
				"energy": -0.27416,
				"method": "rhf"
			},
			{
				"type": "occ",
				"energy": -0.26092,
				"method": "rhf"
			},
			{
				"type": "occ",
				"energy": -0.24538,
				"method": "rhf"
			},
			{
				"type": "occ",
				"energy": -0.22798,
				"method": "rhf"
			},
			{
				"type": "occ",
				"energy": -0.21212,
				"method": "rhf"
			},
			{
				"type": "unocc",
				"energy": -0.08428,
				"method": "rhf"
			},
			{
				"type": "unocc",
				"energy": -0.02299,
				"method": "rhf"
			},
			{
				"type": "unocc",
				"energy": -0.01664,
				"method": "rhf"
			},
			{
				"type": "unocc",
				"energy": -0.00256,
				"method": "rhf"
			},
			{
				"type": "unocc",
				"energy": 0.00229,
				"method": "rhf"
			}
		],
		"cosmo_sigma_profile": { 
			"-0.025": 0.0,
			"-0.024": 0.0,
			"-0.023": 0.0,
			"-0.022": 0.0,
			"-0.021": 0.0,
			"-0.02": 0.0,
			"-0.019": 0.0,
			"-0.018": 0.0,
			"-0.017": 0.0,
			"-0.016": 0.35119820623,
			"-0.015": 1.21144908311,
			"-0.014": 1.01765150083,
			"-0.013": 1.25957362645,
			"-0.012": 1.49079067817,
			"-0.011": 1.77403954545,
			"-0.01": 1.09602076905,
			"-0.009": 1.85050735893,
			"-0.008": 4.768444021,
			"-0.007": 12.9895290215,
			"-0.006": 17.9126835305,
			"-0.005": 25.2107144541,
			"-0.004": 26.6955637967,
			"-0.003": 23.295752219,
			"-0.002": 18.5714699023,
			"-0.001": 19.4571567878,
			"0.0": 21.8748508927,
			"0.001": 25.6560212365,
			"0.002": 27.4431552334,
			"0.003": 27.5269975959,
			"0.004": 26.0030161322,
			"0.005": 18.1628796962,
			"0.006": 9.52652513505,
			"0.007": 4.04112121356,
			"0.008": 3.54338292726,
			"0.009": 4.16310711703,
			"0.01": 4.36383359296,
			"0.011": 4.38206695067,
			"0.012": 1.86483226374,
			"0.013": 1.21421375015,
			"0.014": 1.36507616677,
			"0.015": 1.3532783222,
			"0.016": 1.09202965554,
			"0.017": 0.721515905177,
			"0.018": 0.093149255905,
			"0.019": 0.0,
			"0.02": 0.0,
			"0.021": 0.0,
			"0.022": 0.0,
			"0.023": 0.0,
			"0.024": 0.0,
			"0.025": 0.0
		}
	}
}
