{
	 "smiles": "COC(=O)C1=CC=CC=C1C#N", 
	 "Tm": 323.15, 
	 "num_atms": 19, 
	 "gaussian": { 
		 "optdone": 1, 
		 "sigma_profile": "yes", 
		 "theory": "DFT", 
		 "functional": "B3LYP", 
		 "basiset": "6-31G**", 
		 "properties": { 
			 "R2extent": 2277.4262, 
			 "electric_dipole_moment_norm": 2.90270143315, 
			 "electric_quadrupole_moment_norm": 14.5123045368, 
			 "total_energy": -552.363886483, 
			 "HOMO_LUMO_gap": 0.19766, 
			 "cosmo_polarized_energy": -11.72, 
			 "cosmo_cavitation_energy": 24.81, 
			 "cosmo_dispersion_energy": -17.46, 
			 "cosmo_repulsion_energy": 1.38, 
			 "cosmo_total_nonelectrostatic_energy": 8.74, 
			 "SMD_solvation_energy": 7.13 
		},
		"coords": [
			{
				"x": 1.4954451906,
				"y": 2.9504130206,
				"z": -2.6934835284,
				"element": "C" 
			},
			{
				"x": 1.1675578175,
				"y": 1.7794368527,
				"z": -1.9261858757,
				"element": "O" 
			},
			{
				"x": 0.0318408028,
				"y": 1.8397507856,
				"z": -1.2169714461,
				"element": "C" 
			},
			{
				"x": -0.7028707746,
				"y": 2.8083562205,
				"z": -1.1983641881,
				"element": "O" 
			},
			{
				"x": -0.241250478,
				"y": 0.5840985005,
				"z": -0.4452791045,
				"element": "C" 
			},
			{
				"x": -1.4147725855,
				"y": 0.5797147683,
				"z": 0.3174419882,
				"element": "C" 
			},
			{
				"x": -1.7782231417,
				"y": -0.5284314602,
				"z": 1.0777206393,
				"element": "C" 
			},
			{
				"x": -0.9633253924,
				"y": -1.661756849,
				"z": 1.0861906991,
				"element": "C" 
			},
			{
				"x": 0.2084107587,
				"y": -1.6795908474,
				"z": 0.3352440883,
				"element": "C" 
			},
			{
				"x": 0.5848926881,
				"y": -0.5652521192,
				"z": -0.4364744883,
				"element": "C" 
			},
			{
				"x": 1.8126761141,
				"y": -0.6921738777,
				"z": -1.1718343871,
				"element": "C" 
			},
			{
				"x": 2.8159268188,
				"y": -0.9106383802,
				"z": -1.7179877774,
				"element": "N" 
			},
			{
				"x": 0.709722117,
				"y": 3.1591247214,
				"z": -3.4234042612,
				"element": "H" 
			},
			{
				"x": 2.4347922676,
				"y": 2.7148380061,
				"z": -3.1917122311,
				"element": "H" 
			},
			{
				"x": 1.609965249,
				"y": 3.8158381257,
				"z": -2.0365154573,
				"element": "H" 
			},
			{
				"x": -2.030358786,
				"y": 1.4719242131,
				"z": 0.2939319866,
				"element": "H" 
			},
			{
				"x": -2.6934402971,
				"y": -0.5077894113,
				"z": 1.6611666987,
				"element": "H" 
			},
			{
				"x": -1.2369432112,
				"y": -2.5315415973,
				"z": 1.6753759216,
				"element": "H" 
			},
			{
				"x": 0.8486548421,
				"y": -2.5551206722,
				"z": 0.3349407234,
				"element": "H" 
			}
		],
		 "valence_orbital": [ 
			{
				"type": "occ",
				"energy": -0.32191,
				"method": "rhf"
			},
			{
				"type": "occ",
				"energy": -0.31133,
				"method": "rhf"
			},
			{
				"type": "occ",
				"energy": -0.28706,
				"method": "rhf"
			},
			{
				"type": "occ",
				"energy": -0.28138,
				"method": "rhf"
			},
			{
				"type": "occ",
				"energy": -0.27245,
				"method": "rhf"
			},
			{
				"type": "unocc",
				"energy": -0.07479,
				"method": "rhf"
			},
			{
				"type": "unocc",
				"energy": -0.0434,
				"method": "rhf"
			},
			{
				"type": "unocc",
				"energy": 0.03856,
				"method": "rhf"
			},
			{
				"type": "unocc",
				"energy": 0.04074,
				"method": "rhf"
			},
			{
				"type": "unocc",
				"energy": 0.0763,
				"method": "rhf"
			}
		],
		"cosmo_sigma_profile": { 
			"-0.025": 0.0,
			"-0.024": 0.0,
			"-0.023": 0.0,
			"-0.022": 0.0,
			"-0.021": 0.0,
			"-0.02": 0.0,
			"-0.019": 0.0,
			"-0.018": 0.0,
			"-0.017": 0.0,
			"-0.016": 0.0,
			"-0.015": 0.0,
			"-0.014": 0.0,
			"-0.013": 0.0,
			"-0.012": 0.0,
			"-0.011": 0.0,
			"-0.01": 0.0,
			"-0.009": 0.227303602477,
			"-0.008": 4.42070941712,
			"-0.007": 10.6839491326,
			"-0.006": 15.4822837285,
			"-0.005": 13.8194597284,
			"-0.004": 18.0466827514,
			"-0.003": 16.2089556433,
			"-0.002": 14.272633009,
			"-0.001": 13.5140241106,
			"0.0": 16.7888265184,
			"0.001": 16.6902373207,
			"0.002": 9.4339504607,
			"0.003": 3.97015002055,
			"0.004": 4.62640183722,
			"0.005": 3.78078177084,
			"0.006": 4.28778038072,
			"0.007": 5.29938134514,
			"0.008": 5.85045746697,
			"0.009": 4.96436571396,
			"0.01": 5.41432138383,
			"0.011": 6.83001557455,
			"0.012": 4.09444714537,
			"0.013": 1.4707413786,
			"0.014": 0.0634366640734,
			"0.015": 0.0,
			"0.016": 0.0,
			"0.017": 0.0,
			"0.018": 0.0,
			"0.019": 0.0,
			"0.02": 0.0,
			"0.021": 0.0,
			"0.022": 0.0,
			"0.023": 0.0,
			"0.024": 0.0,
			"0.025": 0.0
		}
	}
}
