{
	 "smiles": "O=C1OC(=O)[C@@]23CC4=C(CC=CC4)C[C@@]12CC1=C(CC=CC1)C3", 
	 "Tm": 507.15, 
	 "num_atms": 43, 
	 "gaussian": { 
		 "optdone": 1, 
		 "sigma_profile": "yes", 
		 "theory": "DFT", 
		 "functional": "B3LYP", 
		 "basiset": "6-31G**", 
		 "properties": { 
			 "R2extent": 7159.6884, 
			 "electric_dipole_moment_norm": 4.65905017037, 
			 "electric_quadrupole_moment_norm": 21.1363581816, 
			 "total_energy": -999.83257734, 
			 "HOMO_LUMO_gap": 0.2038, 
			 "cosmo_polarized_energy": -12.23, 
			 "cosmo_cavitation_energy": 41.99, 
			 "cosmo_dispersion_energy": -29.61, 
			 "cosmo_repulsion_energy": 2.25, 
			 "cosmo_total_nonelectrostatic_energy": 14.62, 
			 "SMD_solvation_energy": 6.95 
		},
		"coords": [
			{
				"x": 3.7159750689,
				"y": -1.9708975721,
				"z": 0.8105629076,
				"element": "O" 
			},
			{
				"x": 3.0151559677,
				"y": -1.0086328399,
				"z": 0.6789470787,
				"element": "C" 
			},
			{
				"x": 3.5189447442,
				"y": 0.2876724986,
				"z": 0.8081607604,
				"element": "O" 
			},
			{
				"x": 2.5496954575,
				"y": 1.2144822001,
				"z": 0.4176631731,
				"element": "C" 
			},
			{
				"x": 2.7009777051,
				"y": 2.3904940451,
				"z": 0.5865813416,
				"element": "O" 
			},
			{
				"x": 1.4241652498,
				"y": 0.4552280641,
				"z": -0.2778300415,
				"element": "C" 
			},
			{
				"x": 1.8828785402,
				"y": 0.3221090157,
				"z": -1.7621416668,
				"element": "C" 
			},
			{
				"x": 1.3260436511,
				"y": -0.8850122864,
				"z": -2.4810217299,
				"element": "C" 
			},
			{
				"x": 0.9132302893,
				"y": -1.9809935541,
				"z": -1.8289713264,
				"element": "C" 
			},
			{
				"x": 0.3912600461,
				"y": -3.2056374285,
				"z": -2.5458364649,
				"element": "C" 
			},
			{
				"x": 0.3945897361,
				"y": -3.0924344433,
				"z": -4.0440812337,
				"element": "C" 
			},
			{
				"x": 0.8179997985,
				"y": -2.0069488902,
				"z": -4.6916115575,
				"element": "C" 
			},
			{
				"x": 1.3274500824,
				"y": -0.7803040675,
				"z": -3.9893345481,
				"element": "C" 
			},
			{
				"x": 0.9169492474,
				"y": -2.0939034486,
				"z": -0.3232672489,
				"element": "C" 
			},
			{
				"x": 1.5107844012,
				"y": -0.9090719003,
				"z": 0.4467596601,
				"element": "C" 
			},
			{
				"x": 0.8866043418,
				"y": -0.8175619994,
				"z": 1.8727961824,
				"element": "C" 
			},
			{
				"x": -0.4309975672,
				"y": -0.0796061426,
				"z": 1.9308181759,
				"element": "C" 
			},
			{
				"x": -0.7891604565,
				"y": 0.822953413,
				"z": 1.0067708154,
				"element": "C" 
			},
			{
				"x": -2.089020215,
				"y": 1.5915890632,
				"z": 1.0814801942,
				"element": "C" 
			},
			{
				"x": -2.9278073805,
				"y": 1.2706822092,
				"z": 2.2860654879,
				"element": "C" 
			},
			{
				"x": -2.5640892723,
				"y": 0.3827439369,
				"z": 3.211332842,
				"element": "C" 
			},
			{
				"x": -1.281193994,
				"y": -0.3960504819,
				"z": 3.1403816526,
				"element": "C" 
			},
			{
				"x": 0.0596670007,
				"y": 1.1488632074,
				"z": -0.1986720916,
				"element": "C" 
			},
			{
				"x": 2.9807740246,
				"y": 0.2910625466,
				"z": -1.8246599073,
				"element": "H" 
			},
			{
				"x": 1.5939035118,
				"y": 1.2418405398,
				"z": -2.286054594,
				"element": "H" 
			},
			{
				"x": 0.9834171478,
				"y": -4.0835244334,
				"z": -2.2381720546,
				"element": "H" 
			},
			{
				"x": -0.6283680212,
				"y": -3.4308975443,
				"z": -2.1896416286,
				"element": "H" 
			},
			{
				"x": 0.0335988934,
				"y": -3.9536923578,
				"z": -4.6025813242,
				"element": "H" 
			},
			{
				"x": 0.8031624651,
				"y": -1.9800482286,
				"z": -5.7792639356,
				"element": "H" 
			},
			{
				"x": 2.3477729603,
				"y": -0.5468193375,
				"z": -4.3381837114,
				"element": "H" 
			},
			{
				"x": 0.7327763737,
				"y": 0.0975837342,
				"z": -4.2934515355,
				"element": "H" 
			},
			{
				"x": -0.1179981853,
				"y": -2.2463266502,
				"z": 0.0137987521,
				"element": "H" 
			},
			{
				"x": 1.4640275762,
				"y": -2.9987742531,
				"z": -0.0241617547,
				"element": "H" 
			},
			{
				"x": 0.7652556195,
				"y": -1.8400764812,
				"z": 2.2518025045,
				"element": "H" 
			},
			{
				"x": 1.5881991576,
				"y": -0.3362283063,
				"z": 2.5701801755,
				"element": "H" 
			},
			{
				"x": -1.8709534972,
				"y": 2.6722629892,
				"z": 1.0576914572,
				"element": "H" 
			},
			{
				"x": -2.6717901299,
				"y": 1.4146616791,
				"z": 0.1615116144,
				"element": "H" 
			},
			{
				"x": -3.8696654837,
				"y": 1.8063865752,
				"z": 2.3856791451,
				"element": "H" 
			},
			{
				"x": -3.2081540189,
				"y": 0.1919209811,
				"z": 4.0673115756,
				"element": "H" 
			},
			{
				"x": -0.6901819465,
				"y": -0.2265711712,
				"z": 4.0564770374,
				"element": "H" 
			},
			{
				"x": -1.4996613546,
				"y": -1.4771433315,
				"z": 3.1585832377,
				"element": "H" 
			},
			{
				"x": 0.2295395602,
				"y": 2.2335090111,
				"z": -0.2458465734,
				"element": "H" 
			},
			{
				"x": -0.5131570952,
				"y": 0.8972114404,
				"z": -1.1022708426,
				"element": "H" 
			}
		],
		 "valence_orbital": [ 
			{
				"type": "occ",
				"energy": -0.27546,
				"method": "rhf"
			},
			{
				"type": "occ",
				"energy": -0.25754,
				"method": "rhf"
			},
			{
				"type": "occ",
				"energy": -0.25433,
				"method": "rhf"
			},
			{
				"type": "occ",
				"energy": -0.23609,
				"method": "rhf"
			},
			{
				"type": "occ",
				"energy": -0.23167,
				"method": "rhf"
			},
			{
				"type": "unocc",
				"energy": -0.02787,
				"method": "rhf"
			},
			{
				"type": "unocc",
				"energy": 0.00655,
				"method": "rhf"
			},
			{
				"type": "unocc",
				"energy": 0.00728,
				"method": "rhf"
			},
			{
				"type": "unocc",
				"energy": 0.01803,
				"method": "rhf"
			},
			{
				"type": "unocc",
				"energy": 0.02524,
				"method": "rhf"
			}
		],
		"cosmo_sigma_profile": { 
			"-0.025": 0.0,
			"-0.024": 0.0,
			"-0.023": 0.0,
			"-0.022": 0.0,
			"-0.021": 0.0,
			"-0.02": 0.0,
			"-0.019": 0.0,
			"-0.018": 0.0,
			"-0.017": 0.0,
			"-0.016": 0.0,
			"-0.015": 0.0,
			"-0.014": 0.0,
			"-0.013": 0.0,
			"-0.012": 0.0,
			"-0.011": 0.0,
			"-0.01": 0.0,
			"-0.009": 0.0,
			"-0.008": 0.0,
			"-0.007": 1.85326750858,
			"-0.006": 6.1316427437,
			"-0.005": 14.0861547766,
			"-0.004": 49.5764419006,
			"-0.003": 46.5218171553,
			"-0.002": 44.3101319439,
			"-0.001": 33.0595035124,
			"0.0": 18.6105994662,
			"0.001": 14.7270965464,
			"0.002": 13.2156173654,
			"0.003": 14.5012117354,
			"0.004": 14.98815123,
			"0.005": 10.6694954315,
			"0.006": 10.1937971572,
			"0.007": 11.2812512892,
			"0.008": 5.53718998895,
			"0.009": 6.66587619668,
			"0.01": 10.6662781091,
			"0.011": 2.61113706775,
			"0.012": 0.0,
			"0.013": 0.0,
			"0.014": 0.0,
			"0.015": 0.0,
			"0.016": 0.0,
			"0.017": 0.0,
			"0.018": 0.0,
			"0.019": 0.0,
			"0.02": 0.0,
			"0.021": 0.0,
			"0.022": 0.0,
			"0.023": 0.0,
			"0.024": 0.0,
			"0.025": 0.0
		}
	}
}
