{
	 "smiles": "CC(=O)C1(O)CC[C@@]2(C)[C@@H](CCC3C4CCC(=O)[C@@]4(C)CCC23)C1", 
	 "Tm": 485.15, 
	 "num_atms": 56, 
	 "gaussian": { 
		 "optdone": 1, 
		 "sigma_profile": "yes", 
		 "theory": "DFT", 
		 "functional": "B3LYP", 
		 "basiset": "6-31G**", 
		 "properties": { 
			 "R2extent": 9882.4945, 
			 "electric_dipole_moment_norm": 2.51365819673, 
			 "electric_quadrupole_moment_norm": 25.1984525051, 
			 "total_energy": -1045.21721642, 
			 "HOMO_LUMO_gap": 0.21461, 
			 "cosmo_polarized_energy": -16.16, 
			 "cosmo_cavitation_energy": 48.63, 
			 "cosmo_dispersion_energy": -33.39, 
			 "cosmo_repulsion_energy": 2.45, 
			 "cosmo_total_nonelectrostatic_energy": 17.69, 
			 "SMD_solvation_energy": 7.97 
		},
		"coords": [
			{
				"x": -5.276654,
				"y": 3.6299995895,
				"z": -0.9690435161,
				"element": "C" 
			},
			{
				"x": -3.9871720461,
				"y": 3.4489589796,
				"z": -0.1941432916,
				"element": "C" 
			},
			{
				"x": -3.7269308617,
				"y": 4.113209694,
				"z": 0.7931514212,
				"element": "O" 
			},
			{
				"x": -3.0002678381,
				"y": 2.359365461,
				"z": -0.6740887101,
				"element": "C" 
			},
			{
				"x": -3.401326732,
				"y": 1.8187486255,
				"z": -1.9390698515,
				"element": "O" 
			},
			{
				"x": -1.5728628286,
				"y": 2.9355804355,
				"z": -0.7410912776,
				"element": "C" 
			},
			{
				"x": -0.5097617545,
				"y": 1.8545880396,
				"z": -0.9856298273,
				"element": "C" 
			},
			{
				"x": -0.5407401397,
				"y": 0.7043486868,
				"z": 0.0552389243,
				"element": "C" 
			},
			{
				"x": -0.1493292318,
				"y": 1.2530631267,
				"z": 1.4467088913,
				"element": "C" 
			},
			{
				"x": -1.9890389925,
				"y": 0.1219815445,
				"z": 0.0448819995,
				"element": "C" 
			},
			{
				"x": -2.132598456,
				"y": -1.1030024592,
				"z": 0.9583965985,
				"element": "C" 
			},
			{
				"x": -1.1561712721,
				"y": -2.2082106093,
				"z": 0.5369765891,
				"element": "C" 
			},
			{
				"x": 0.298857999,
				"y": -1.7127388612,
				"z": 0.4660648125,
				"element": "C" 
			},
			{
				"x": 1.2811911087,
				"y": -2.8371557548,
				"z": 0.043703835,
				"element": "C" 
			},
			{
				"x": 1.0100065504,
				"y": -3.4970089122,
				"z": -1.3523691195,
				"element": "C" 
			},
			{
				"x": 2.0854807699,
				"y": -2.9845268305,
				"z": -2.318981842,
				"element": "C" 
			},
			{
				"x": 3.2546324717,
				"y": -2.577918345,
				"z": -1.4324411094,
				"element": "C" 
			},
			{
				"x": 4.4025859762,
				"y": -2.431361474,
				"z": -1.7974200139,
				"element": "O" 
			},
			{
				"x": 2.7714365359,
				"y": -2.3570864578,
				"z": 0.018450017,
				"element": "C" 
			},
			{
				"x": 3.6734811303,
				"y": -3.1667650375,
				"z": 0.9660592598,
				"element": "C" 
			},
			{
				"x": 2.8986045944,
				"y": -0.8471079288,
				"z": 0.328467958,
				"element": "C" 
			},
			{
				"x": 1.9317505247,
				"y": 0.0152576193,
				"z": -0.497401871,
				"element": "C" 
			},
			{
				"x": 0.43755842,
				"y": -0.4347540655,
				"z": -0.3995523616,
				"element": "C" 
			},
			{
				"x": -3.0612247814,
				"y": 1.1861325333,
				"z": 0.3277801315,
				"element": "C" 
			},
			{
				"x": -5.066505549,
				"y": 4.0188906154,
				"z": -1.9723569228,
				"element": "H" 
			},
			{
				"x": -5.7814252835,
				"y": 2.6705810074,
				"z": -1.1146459621,
				"element": "H" 
			},
			{
				"x": -5.9207063376,
				"y": 4.3317754142,
				"z": -0.4376268604,
				"element": "H" 
			},
			{
				"x": -3.1074964387,
				"y": 2.4232799452,
				"z": -2.6333985807,
				"element": "H" 
			},
			{
				"x": -1.3865063759,
				"y": 3.4783404458,
				"z": 0.1891861145,
				"element": "H" 
			},
			{
				"x": -1.5276456665,
				"y": 3.6891170799,
				"z": -1.541734433,
				"element": "H" 
			},
			{
				"x": -0.6666680134,
				"y": 1.4224452078,
				"z": -1.9827120131,
				"element": "H" 
			},
			{
				"x": 0.4770789445,
				"y": 2.3309235833,
				"z": -1.0036988725,
				"element": "H" 
			},
			{
				"x": -0.1314287035,
				"y": 0.4741851449,
				"z": 2.2129228299,
				"element": "H" 
			},
			{
				"x": -0.8415581746,
				"y": 2.0243818349,
				"z": 1.7930669845,
				"element": "H" 
			},
			{
				"x": 0.845086036,
				"y": 1.709714919,
				"z": 1.4236634349,
				"element": "H" 
			},
			{
				"x": -2.1692550615,
				"y": -0.2246478835,
				"z": -0.9829059854,
				"element": "H" 
			},
			{
				"x": -3.162132528,
				"y": -1.479769981,
				"z": 0.9078085828,
				"element": "H" 
			},
			{
				"x": -1.9625452105,
				"y": -0.8226407446,
				"z": 2.0061553756,
				"element": "H" 
			},
			{
				"x": -1.469908372,
				"y": -2.583351133,
				"z": -0.4459191355,
				"element": "H" 
			},
			{
				"x": -1.2198696396,
				"y": -3.0605373277,
				"z": 1.2261132396,
				"element": "H" 
			},
			{
				"x": 0.5858602862,
				"y": -1.4492482371,
				"z": 1.4936797465,
				"element": "H" 
			},
			{
				"x": 1.17901587,
				"y": -3.6186998294,
				"z": 0.8059873568,
				"element": "H" 
			},
			{
				"x": 1.096379762,
				"y": -4.5845548387,
				"z": -1.2555734827,
				"element": "H" 
			},
			{
				"x": 0.000065339,
				"y": -3.3014658778,
				"z": -1.7199518555,
				"element": "H" 
			},
			{
				"x": 2.4031530566,
				"y": -3.7012114704,
				"z": -3.0811159309,
				"element": "H" 
			},
			{
				"x": 1.7543007355,
				"y": -2.0817012714,
				"z": -2.8505984096,
				"element": "H" 
			},
			{
				"x": 4.7208858741,
				"y": -2.8852445599,
				"z": 0.8245678578,
				"element": "H" 
			},
			{
				"x": 3.5858560663,
				"y": -4.2430462691,
				"z": 0.7802290746,
				"element": "H" 
			},
			{
				"x": 3.3973554138,
				"y": -2.9823992765,
				"z": 2.01001594,
				"element": "H" 
			},
			{
				"x": 2.7226725385,
				"y": -0.6902516625,
				"z": 1.399966759,
				"element": "H" 
			},
			{
				"x": 3.9316092628,
				"y": -0.5393328646,
				"z": 0.1316473457,
				"element": "H" 
			},
			{
				"x": 2.2525361231,
				"y": 0.0001447277,
				"z": -1.5458062663,
				"element": "H" 
			},
			{
				"x": 2.0463216678,
				"y": 1.0560005685,
				"z": -0.1807917138,
				"element": "H" 
			},
			{
				"x": 0.1039999335,
				"y": -0.7066088134,
				"z": -1.4124312672,
				"element": "H" 
			},
			{
				"x": -4.0545570129,
				"y": 0.7254438359,
				"z": 0.2590718865,
				"element": "H" 
			},
			{
				"x": -2.966275689,
				"y": 1.5921901112,
				"z": 1.3397375168,
				"element": "H" 
			}
		],
		 "valence_orbital": [ 
			{
				"type": "occ",
				"energy": -0.29348,
				"method": "rhf"
			},
			{
				"type": "occ",
				"energy": -0.27889,
				"method": "rhf"
			},
			{
				"type": "occ",
				"energy": -0.27494,
				"method": "rhf"
			},
			{
				"type": "occ",
				"energy": -0.23492,
				"method": "rhf"
			},
			{
				"type": "occ",
				"energy": -0.2324,
				"method": "rhf"
			},
			{
				"type": "unocc",
				"energy": -0.01779,
				"method": "rhf"
			},
			{
				"type": "unocc",
				"energy": -0.0154,
				"method": "rhf"
			},
			{
				"type": "unocc",
				"energy": 0.0527,
				"method": "rhf"
			},
			{
				"type": "unocc",
				"energy": 0.06853,
				"method": "rhf"
			},
			{
				"type": "unocc",
				"energy": 0.07441,
				"method": "rhf"
			}
		],
		"cosmo_sigma_profile": { 
			"-0.025": 0.0,
			"-0.024": 0.0,
			"-0.023": 0.0,
			"-0.022": 0.0,
			"-0.021": 0.0,
			"-0.02": 0.0,
			"-0.019": 0.0,
			"-0.018": 0.0,
			"-0.017": 0.0,
			"-0.016": 0.0,
			"-0.015": 0.603734672649,
			"-0.014": 1.01542515034,
			"-0.013": 1.44119337278,
			"-0.012": 1.02491782852,
			"-0.011": 1.46734711306,
			"-0.01": 1.20152851735,
			"-0.009": 1.92245591405,
			"-0.008": 1.04916992247,
			"-0.007": 2.15636762863,
			"-0.006": 2.83583364547,
			"-0.005": 10.7893159703,
			"-0.004": 18.2819003881,
			"-0.003": 40.6476813259,
			"-0.002": 61.3109048486,
			"-0.001": 63.2057193589,
			"0.0": 53.2463052901,
			"0.001": 37.073244092,
			"0.002": 11.1679360603,
			"0.003": 6.41827429661,
			"0.004": 5.98797225802,
			"0.005": 5.00682363858,
			"0.006": 4.58434439336,
			"0.007": 3.91068866577,
			"0.008": 4.23174479752,
			"0.009": 5.3687429755,
			"0.01": 3.94396664238,
			"0.011": 6.69210870907,
			"0.012": 9.23822441216,
			"0.013": 5.73546389552,
			"0.014": 1.02567286092,
			"0.015": 0.0,
			"0.016": 0.0,
			"0.017": 0.0,
			"0.018": 0.0,
			"0.019": 0.0,
			"0.02": 0.0,
			"0.021": 0.0,
			"0.022": 0.0,
			"0.023": 0.0,
			"0.024": 0.0,
			"0.025": 0.0
		}
	}
}
