{
	 "smiles": "NS(=O)(=O)CC1=C(F)C=CC=C1F", 
	 "Tm": 427.15, 
	 "num_atms": 20, 
	 "gaussian": { 
		 "optdone": 1, 
		 "sigma_profile": "yes", 
		 "theory": "DFT", 
		 "functional": "B3LYP", 
		 "basiset": "6-31G**", 
		 "properties": { 
			 "R2extent": 2623.3677, 
			 "electric_dipole_moment_norm": 4.30189545666, 
			 "electric_quadrupole_moment_norm": 12.2654314294, 
			 "total_energy": -1073.9557422, 
			 "HOMO_LUMO_gap": 0.22408, 
			 "cosmo_polarized_energy": -16.17, 
			 "cosmo_cavitation_energy": 26.34, 
			 "cosmo_dispersion_energy": -19.35, 
			 "cosmo_repulsion_energy": 1.46, 
			 "cosmo_total_nonelectrostatic_energy": 8.45, 
			 "SMD_solvation_energy": 4.91 
		},
		"coords": [
			{
				"x": 0.6679492212,
				"y": -1.8352248926,
				"z": -0.8441500107,
				"element": "N" 
			},
			{
				"x": 1.5185124323,
				"y": -0.3845166415,
				"z": -1.0441328574,
				"element": "S" 
			},
			{
				"x": 2.9418671138,
				"y": -0.6370851243,
				"z": -0.7986640097,
				"element": "O" 
			},
			{
				"x": 1.0384966153,
				"y": 0.2188185668,
				"z": -2.289342343,
				"element": "O" 
			},
			{
				"x": 0.9249457091,
				"y": 0.618892988,
				"z": 0.3672826681,
				"element": "C" 
			},
			{
				"x": -0.5442992533,
				"y": 0.891023998,
				"z": 0.346712832,
				"element": "C" 
			},
			{
				"x": -1.4567537519,
				"y": 0.0957948462,
				"z": 1.0475611867,
				"element": "C" 
			},
			{
				"x": -0.9758724101,
				"y": -0.9259208013,
				"z": 1.7824738918,
				"element": "F" 
			},
			{
				"x": -2.8267722904,
				"y": 0.3257898063,
				"z": 1.0370384212,
				"element": "C" 
			},
			{
				"x": -3.3163147867,
				"y": 1.3990326146,
				"z": 0.2912452862,
				"element": "C" 
			},
			{
				"x": -2.4489285324,
				"y": 2.2296013271,
				"z": -0.4194455931,
				"element": "C" 
			},
			{
				"x": -1.0870423874,
				"y": 1.9587940658,
				"z": -0.3763621306,
				"element": "C" 
			},
			{
				"x": -0.2407609677,
				"y": 2.7674111874,
				"z": -1.0382621185,
				"element": "F" 
			},
			{
				"x": 0.1834476883,
				"y": -2.0567847848,
				"z": -1.7096200159,
				"element": "H" 
			},
			{
				"x": 1.3076562173,
				"y": -2.5777475111,
				"z": -0.57470839,
				"element": "H" 
			},
			{
				"x": 1.2268463395,
				"y": 0.0710162994,
				"z": 1.2607223621,
				"element": "H" 
			},
			{
				"x": 1.5099819514,
				"y": 1.5379674827,
				"z": 0.2879197057,
				"element": "H" 
			},
			{
				"x": -3.4800853527,
				"y": -0.3264402871,
				"z": 1.6047976015,
				"element": "H" 
			},
			{
				"x": -4.3838200402,
				"y": 1.5933632583,
				"z": 0.268389358,
				"element": "H" 
			},
			{
				"x": -2.8048535154,
				"y": 3.0734136022,
				"z": -0.9988558444,
				"element": "H" 
			}
		],
		 "valence_orbital": [ 
			{
				"type": "occ",
				"energy": -0.31747,
				"method": "rhf"
			},
			{
				"type": "occ",
				"energy": -0.30504,
				"method": "rhf"
			},
			{
				"type": "occ",
				"energy": -0.29501,
				"method": "rhf"
			},
			{
				"type": "occ",
				"energy": -0.26143,
				"method": "rhf"
			},
			{
				"type": "occ",
				"energy": -0.25656,
				"method": "rhf"
			},
			{
				"type": "unocc",
				"energy": -0.03248,
				"method": "rhf"
			},
			{
				"type": "unocc",
				"energy": -0.00985,
				"method": "rhf"
			},
			{
				"type": "unocc",
				"energy": 0.05304,
				"method": "rhf"
			},
			{
				"type": "unocc",
				"energy": 0.06658,
				"method": "rhf"
			},
			{
				"type": "unocc",
				"energy": 0.08287,
				"method": "rhf"
			}
		],
		"cosmo_sigma_profile": { 
			"-0.025": 0.0,
			"-0.024": 0.0,
			"-0.023": 0.0,
			"-0.022": 0.0,
			"-0.021": 0.0,
			"-0.02": 0.0,
			"-0.019": 0.0,
			"-0.018": 0.0,
			"-0.017": 0.0,
			"-0.016": 0.0,
			"-0.015": 1.21877551859,
			"-0.014": 2.34005964728,
			"-0.013": 2.75073758387,
			"-0.012": 2.96539885098,
			"-0.011": 1.67577044526,
			"-0.01": 1.58547743002,
			"-0.009": 3.58850203539,
			"-0.008": 7.18158071378,
			"-0.007": 11.559925365,
			"-0.006": 10.8349392357,
			"-0.005": 10.9092243539,
			"-0.004": 9.11209037704,
			"-0.003": 8.55026015556,
			"-0.002": 9.22997173603,
			"-0.001": 9.45132675025,
			"0.0": 14.1926708984,
			"0.001": 14.1818178524,
			"0.002": 14.3152017896,
			"0.003": 17.2187359085,
			"0.004": 13.177828846,
			"0.005": 4.69264463931,
			"0.006": 4.42812807839,
			"0.007": 4.40461273362,
			"0.008": 4.69499418214,
			"0.009": 4.60865049858,
			"0.01": 7.38934075289,
			"0.011": 10.751295545,
			"0.012": 3.36713695656,
			"0.013": 0.0,
			"0.014": 0.0,
			"0.015": 0.0,
			"0.016": 0.0,
			"0.017": 0.0,
			"0.018": 0.0,
			"0.019": 0.0,
			"0.02": 0.0,
			"0.021": 0.0,
			"0.022": 0.0,
			"0.023": 0.0,
			"0.024": 0.0,
			"0.025": 0.0
		}
	}
}
