{
	 "smiles": "CC(=O)N1CCC2=CC=C(N)C=C12", 
	 "Tm": 457.15, 
	 "num_atms": 25, 
	 "gaussian": { 
		 "optdone": 1, 
		 "sigma_profile": "yes", 
		 "theory": "DFT", 
		 "functional": "B3LYP", 
		 "basiset": "6-31G**", 
		 "properties": { 
			 "R2extent": 2686.3691, 
			 "electric_dipole_moment_norm": 4.01735397619, 
			 "electric_quadrupole_moment_norm": 14.3966869869, 
			 "total_energy": -573.04500195, 
			 "HOMO_LUMO_gap": 0.18523, 
			 "cosmo_polarized_energy": -13.97, 
			 "cosmo_cavitation_energy": 27.46, 
			 "cosmo_dispersion_energy": -20.45, 
			 "cosmo_repulsion_energy": 1.62, 
			 "cosmo_total_nonelectrostatic_energy": 8.63, 
			 "SMD_solvation_energy": 4.68 
		},
		"coords": [
			{
				"x": -2.8708396913,
				"y": -0.5478691181,
				"z": 1.9890455544,
				"element": "C" 
			},
			{
				"x": -2.2202165108,
				"y": -1.4731495741,
				"z": 0.9780203999,
				"element": "C" 
			},
			{
				"x": -2.7507010676,
				"y": -2.5315934455,
				"z": 0.6551572113,
				"element": "O" 
			},
			{
				"x": -1.0013580125,
				"y": -1.1227697446,
				"z": 0.4319005322,
				"element": "N" 
			},
			{
				"x": -0.3524434305,
				"y": -2.092185501,
				"z": -0.4830807827,
				"element": "C" 
			},
			{
				"x": 1.1169813756,
				"y": -1.6291041752,
				"z": -0.5658721337,
				"element": "C" 
			},
			{
				"x": 1.0545231919,
				"y": -0.2097971045,
				"z": -0.0518801318,
				"element": "C" 
			},
			{
				"x": 2.0137962585,
				"y": 0.7919297181,
				"z": -0.072277487,
				"element": "C" 
			},
			{
				"x": 1.7423058388,
				"y": 2.0385824266,
				"z": 0.495584998,
				"element": "C" 
			},
			{
				"x": 0.4927522642,
				"y": 2.2881909966,
				"z": 1.0849421405,
				"element": "C" 
			},
			{
				"x": 0.188078742,
				"y": 3.5562595319,
				"z": 1.5891433143,
				"element": "N" 
			},
			{
				"x": -0.4890078919,
				"y": 1.2773655495,
				"z": 1.1075263318,
				"element": "C" 
			},
			{
				"x": -0.1944991048,
				"y": 0.033911068,
				"z": 0.5481495697,
				"element": "C" 
			},
			{
				"x": -3.2954630841,
				"y": 0.3334547343,
				"z": 1.4964826541,
				"element": "H" 
			},
			{
				"x": -2.1670302265,
				"y": -0.2067008926,
				"z": 2.7529623681,
				"element": "H" 
			},
			{
				"x": -3.6821675564,
				"y": -1.1054270754,
				"z": 2.457004567,
				"element": "H" 
			},
			{
				"x": -0.8491499875,
				"y": -2.052838494,
				"z": -1.4594592953,
				"element": "H" 
			},
			{
				"x": -0.4839392631,
				"y": -3.1002339954,
				"z": -0.0897552782,
				"element": "H" 
			},
			{
				"x": 1.7620942098,
				"y": -2.2522941603,
				"z": 0.0677335224,
				"element": "H" 
			},
			{
				"x": 1.5056854908,
				"y": -1.6999230571,
				"z": -1.5865049895,
				"element": "H" 
			},
			{
				"x": 2.9828808885,
				"y": 0.6101545187,
				"z": -0.5300445911,
				"element": "H" 
			},
			{
				"x": 2.4916729903,
				"y": 2.8250757243,
				"z": 0.4724000057,
				"element": "H" 
			},
			{
				"x": 0.9903950192,
				"y": 4.1148228099,
				"z": 1.8457717351,
				"element": "H" 
			},
			{
				"x": -0.5224785593,
				"y": 3.5731042409,
				"z": 2.3078796168,
				"element": "H" 
			},
			{
				"x": -1.4564718834,
				"y": 1.5034350189,
				"z": 1.5345701678,
				"element": "H" 
			}
		],
		 "valence_orbital": [ 
			{
				"type": "occ",
				"energy": -0.31998,
				"method": "rhf"
			},
			{
				"type": "occ",
				"energy": -0.27643,
				"method": "rhf"
			},
			{
				"type": "occ",
				"energy": -0.24459,
				"method": "rhf"
			},
			{
				"type": "occ",
				"energy": -0.22165,
				"method": "rhf"
			},
			{
				"type": "occ",
				"energy": -0.19266,
				"method": "rhf"
			},
			{
				"type": "unocc",
				"energy": -0.00743,
				"method": "rhf"
			},
			{
				"type": "unocc",
				"energy": 0.01044,
				"method": "rhf"
			},
			{
				"type": "unocc",
				"energy": 0.04822,
				"method": "rhf"
			},
			{
				"type": "unocc",
				"energy": 0.07778,
				"method": "rhf"
			},
			{
				"type": "unocc",
				"energy": 0.1019,
				"method": "rhf"
			}
		],
		"cosmo_sigma_profile": { 
			"-0.025": 0.0,
			"-0.024": 0.0,
			"-0.023": 0.0,
			"-0.022": 0.0,
			"-0.021": 0.0,
			"-0.02": 0.0,
			"-0.019": 0.0,
			"-0.018": 0.0,
			"-0.017": 0.0,
			"-0.016": 0.0,
			"-0.015": 0.0,
			"-0.014": 0.0,
			"-0.013": 0.0585884840449,
			"-0.012": 2.24007252651,
			"-0.011": 2.76799123075,
			"-0.01": 2.79725375555,
			"-0.009": 3.40291751463,
			"-0.008": 3.07785981121,
			"-0.007": 4.481703059,
			"-0.006": 6.99951487537,
			"-0.005": 14.006454961,
			"-0.004": 21.6342131212,
			"-0.003": 22.4214967895,
			"-0.002": 19.457352219,
			"-0.001": 20.4160613196,
			"0.0": 13.0098236186,
			"0.001": 8.64631986126,
			"0.002": 8.01853077043,
			"0.003": 6.85755480897,
			"0.004": 8.27855938357,
			"0.005": 8.42670661955,
			"0.006": 10.8973737402,
			"0.007": 6.55671499412,
			"0.008": 2.53383928856,
			"0.009": 2.13882300232,
			"0.01": 2.02221696715,
			"0.011": 2.26655934579,
			"0.012": 2.22606807618,
			"0.013": 4.60431220795,
			"0.014": 5.0414160618,
			"0.015": 1.44006136405,
			"0.016": 0.0170672170974,
			"0.017": 0.0,
			"0.018": 0.0,
			"0.019": 0.0,
			"0.02": 0.0,
			"0.021": 0.0,
			"0.022": 0.0,
			"0.023": 0.0,
			"0.024": 0.0,
			"0.025": 0.0
		}
	}
}
