{
	 "smiles": "NC1=NC(=CO1)C1=C(Cl)C=CC=C1", 
	 "Tm": 411.15, 
	 "num_atms": 20, 
	 "gaussian": { 
		 "optdone": 1, 
		 "sigma_profile": "yes", 
		 "theory": "DFT", 
		 "functional": "B3LYP", 
		 "basiset": "6-31G**", 
		 "properties": { 
			 "R2extent": 3237.7509, 
			 "electric_dipole_moment_norm": 2.2497606206, 
			 "electric_quadrupole_moment_norm": 14.8891503885, 
			 "total_energy": -992.087589494, 
			 "HOMO_LUMO_gap": 0.1779, 
			 "cosmo_polarized_energy": -10.58, 
			 "cosmo_cavitation_energy": 26.14, 
			 "cosmo_dispersion_energy": -19.98, 
			 "cosmo_repulsion_energy": 1.57, 
			 "cosmo_total_nonelectrostatic_energy": 7.72, 
			 "SMD_solvation_energy": 3.72 
		},
		"coords": [
			{
				"x": -2.0173961756,
				"y": -1.2043279904,
				"z": -2.884199097,
				"element": "N" 
			},
			{
				"x": -1.524842354,
				"y": -0.3855292232,
				"z": -1.9002631966,
				"element": "C" 
			},
			{
				"x": -0.3368658989,
				"y": -0.3797878745,
				"z": -1.3826068708,
				"element": "N" 
			},
			{
				"x": -0.3999211235,
				"y": 0.5944408732,
				"z": -0.3702965791,
				"element": "C" 
			},
			{
				"x": -1.6559481883,
				"y": 1.1234982105,
				"z": -0.359657234,
				"element": "C" 
			},
			{
				"x": -2.3945227417,
				"y": 0.493606328,
				"z": -1.3469294076,
				"element": "O" 
			},
			{
				"x": 0.7989344919,
				"y": 0.8585942,
				"z": 0.438912777,
				"element": "C" 
			},
			{
				"x": 0.9148523363,
				"y": 1.8136010622,
				"z": 1.4673060552,
				"element": "C" 
			},
			{
				"x": -0.4327164859,
				"y": 2.8569788094,
				"z": 1.9252218416,
				"element": "Cl" 
			},
			{
				"x": 2.0999999948,
				"y": 1.990530315,
				"z": 2.1814787959,
				"element": "C" 
			},
			{
				"x": 3.2153317046,
				"y": 1.210929178,
				"z": 1.8859881602,
				"element": "C" 
			},
			{
				"x": 3.1345743836,
				"y": 0.2552166152,
				"z": 0.8719927089,
				"element": "C" 
			},
			{
				"x": 1.9488891007,
				"y": 0.087715492,
				"z": 0.1673076699,
				"element": "C" 
			},
			{
				"x": -1.2952051949,
				"y": -1.6504161092,
				"z": -3.431456265,
				"element": "H" 
			},
			{
				"x": -2.7721971612,
				"y": -0.8143339501,
				"z": -3.4312201858,
				"element": "H" 
			},
			{
				"x": -2.1736909256,
				"y": 1.8754586811,
				"z": 0.2042720424,
				"element": "H" 
			},
			{
				"x": 2.136522153,
				"y": 2.7400686883,
				"z": 2.9641905438,
				"element": "H" 
			},
			{
				"x": 4.1350486933,
				"y": 1.3528894182,
				"z": 2.4452735078,
				"element": "H" 
			},
			{
				"x": 3.9951890989,
				"y": -0.360934624,
				"z": 0.6295987826,
				"element": "H" 
			},
			{
				"x": 1.8732642926,
				"y": -0.6507980997,
				"z": -0.6218140495,
				"element": "H" 
			}
		],
		 "valence_orbital": [ 
			{
				"type": "occ",
				"energy": -0.31064,
				"method": "rhf"
			},
			{
				"type": "occ",
				"energy": -0.28527,
				"method": "rhf"
			},
			{
				"type": "occ",
				"energy": -0.25325,
				"method": "rhf"
			},
			{
				"type": "occ",
				"energy": -0.24419,
				"method": "rhf"
			},
			{
				"type": "occ",
				"energy": -0.2064,
				"method": "rhf"
			},
			{
				"type": "unocc",
				"energy": -0.0285,
				"method": "rhf"
			},
			{
				"type": "unocc",
				"energy": -0.00601,
				"method": "rhf"
			},
			{
				"type": "unocc",
				"energy": 0.03148,
				"method": "rhf"
			},
			{
				"type": "unocc",
				"energy": 0.03613,
				"method": "rhf"
			},
			{
				"type": "unocc",
				"energy": 0.07216,
				"method": "rhf"
			}
		],
		"cosmo_sigma_profile": { 
			"-0.025": 0.0,
			"-0.024": 0.0,
			"-0.023": 0.0,
			"-0.022": 0.0,
			"-0.021": 0.0,
			"-0.02": 0.0,
			"-0.019": 0.0,
			"-0.018": 0.0,
			"-0.017": 0.0,
			"-0.016": 0.0,
			"-0.015": 0.588364368903,
			"-0.014": 2.68324112308,
			"-0.013": 2.27255861914,
			"-0.012": 2.42645010158,
			"-0.011": 2.38408053056,
			"-0.01": 2.61657273225,
			"-0.009": 1.56635818973,
			"-0.008": 2.69837535895,
			"-0.007": 5.27378197026,
			"-0.006": 8.62624313774,
			"-0.005": 9.73620356869,
			"-0.004": 11.1293863131,
			"-0.003": 9.05642423698,
			"-0.002": 10.6340004254,
			"-0.001": 9.80287471869,
			"0.0": 12.295245723,
			"0.001": 18.9231225349,
			"0.002": 23.1230696663,
			"0.003": 27.5680325713,
			"0.004": 21.9293439749,
			"0.005": 9.27528384187,
			"0.006": 3.98408444065,
			"0.007": 3.622965833,
			"0.008": 2.12118065886,
			"0.009": 2.10583411923,
			"0.01": 2.41347896329,
			"0.011": 1.55421833809,
			"0.012": 1.46998590887,
			"0.013": 0.380917171719,
			"0.014": 0.0,
			"0.015": 0.0,
			"0.016": 0.0,
			"0.017": 0.0,
			"0.018": 0.0,
			"0.019": 0.0,
			"0.02": 0.0,
			"0.021": 0.0,
			"0.022": 0.0,
			"0.023": 0.0,
			"0.024": 0.0,
			"0.025": 0.0
		}
	}
}
