{
	 "smiles": "CCOC(=O)C1=CC2=C(C=C1)N(CC)C(CCl)=N2", 
	 "Tm": 365.15, 
	 "num_atms": 33, 
	 "gaussian": { 
		 "optdone": 1, 
		 "sigma_profile": "yes", 
		 "theory": "DFT", 
		 "functional": "B3LYP", 
		 "basiset": "6-31G**", 
		 "properties": { 
			 "R2extent": 8345.0301, 
			 "electric_dipole_moment_norm": 5.00993084383, 
			 "electric_quadrupole_moment_norm": 17.7731839373, 
			 "total_energy": -1224.61132032, 
			 "HOMO_LUMO_gap": 0.18856, 
			 "cosmo_polarized_energy": -15.39, 
			 "cosmo_cavitation_energy": 38.42, 
			 "cosmo_dispersion_energy": -27.33, 
			 "cosmo_repulsion_energy": 2.12, 
			 "cosmo_total_nonelectrostatic_energy": 13.2, 
			 "SMD_solvation_energy": 4.99 
		},
		"coords": [
			{
				"x": 1.7962320914,
				"y": -2.3842362575,
				"z": -4.5456060254,
				"element": "C" 
			},
			{
				"x": 2.3685316155,
				"y": -1.1628566012,
				"z": -3.8412973018,
				"element": "C" 
			},
			{
				"x": 1.7213428647,
				"y": -0.9362122354,
				"z": -2.5683161238,
				"element": "O" 
			},
			{
				"x": 0.5672650261,
				"y": -0.2252717009,
				"z": -2.5972034383,
				"element": "C" 
			},
			{
				"x": 0.080686816,
				"y": 0.2176702523,
				"z": -3.6210893749,
				"element": "O" 
			},
			{
				"x": -0.0244032281,
				"y": -0.0481481911,
				"z": -1.2420654442,
				"element": "C" 
			},
			{
				"x": -1.2169362888,
				"y": 0.6730474167,
				"z": -1.152772225,
				"element": "C" 
			},
			{
				"x": -1.7870477573,
				"y": 0.8494025281,
				"z": 0.1095140751,
				"element": "C" 
			},
			{
				"x": -1.1573857238,
				"y": 0.3042816029,
				"z": 1.2563242396,
				"element": "C" 
			},
			{
				"x": 0.0391422039,
				"y": -0.4186888684,
				"z": 1.1775658801,
				"element": "C" 
			},
			{
				"x": 0.5926150716,
				"y": -0.5847049613,
				"z": -0.0847624714,
				"element": "C" 
			},
			{
				"x": -1.9569773906,
				"y": 0.6686294785,
				"z": 2.3228996499,
				"element": "N" 
			},
			{
				"x": -1.7354915964,
				"y": 0.2923317051,
				"z": 3.7187965018,
				"element": "C" 
			},
			{
				"x": -2.0941889692,
				"y": -1.1664870193,
				"z": 4.0140131288,
				"element": "C" 
			},
			{
				"x": -3.0096520805,
				"y": 1.3934782082,
				"z": 1.7788718249,
				"element": "C" 
			},
			{
				"x": -4.0910532318,
				"y": 2.0187161572,
				"z": 2.5840892259,
				"element": "C" 
			},
			{
				"x": -5.2610103635,
				"y": 0.8015526166,
				"z": 3.301203982,
				"element": "Cl" 
			},
			{
				"x": -2.9417246835,
				"y": 1.5196398865,
				"z": 0.4738601805,
				"element": "N" 
			},
			{
				"x": 0.74828842,
				"y": -2.2189561618,
				"z": -4.8066558801,
				"element": "H" 
			},
			{
				"x": 1.8680662827,
				"y": -3.2711283656,
				"z": -3.9089573305,
				"element": "H" 
			},
			{
				"x": 2.3542328105,
				"y": -2.5769296927,
				"z": -5.468115259,
				"element": "H" 
			},
			{
				"x": 2.258359283,
				"y": -0.2670913457,
				"z": -4.456973755,
				"element": "H" 
			},
			{
				"x": 3.4225624101,
				"y": -1.303616141,
				"z": -3.5889339004,
				"element": "H" 
			},
			{
				"x": -1.6755034958,
				"y": 1.0801014823,
				"z": -2.0465066069,
				"element": "H" 
			},
			{
				"x": 0.5221687037,
				"y": -0.8337425482,
				"z": 2.0562530873,
				"element": "H" 
			},
			{
				"x": 1.517769541,
				"y": -1.1365843521,
				"z": -0.1985077513,
				"element": "H" 
			},
			{
				"x": -0.6826681123,
				"y": 0.4876775552,
				"z": 3.9512398299,
				"element": "H" 
			},
			{
				"x": -2.3299128128,
				"y": 0.9613973079,
				"z": 4.3450564979,
				"element": "H" 
			},
			{
				"x": -1.5091564682,
				"y": -1.8507175458,
				"z": 3.3933197096,
				"element": "H" 
			},
			{
				"x": -1.8852172512,
				"y": -1.3936264547,
				"z": 5.0640990008,
				"element": "H" 
			},
			{
				"x": -3.1547508773,
				"y": -1.3472837116,
				"z": 3.8245291463,
				"element": "H" 
			},
			{
				"x": -4.6737660981,
				"y": 2.6600893585,
				"z": 1.9269223445,
				"element": "H" 
			},
			{
				"x": -3.7144167111,
				"y": 2.593566598,
				"z": 3.4314045828,
				"element": "H" 
			}
		],
		 "valence_orbital": [ 
			{
				"type": "occ",
				"energy": -0.29209,
				"method": "rhf"
			},
			{
				"type": "occ",
				"energy": -0.28155,
				"method": "rhf"
			},
			{
				"type": "occ",
				"energy": -0.26672,
				"method": "rhf"
			},
			{
				"type": "occ",
				"energy": -0.23769,
				"method": "rhf"
			},
			{
				"type": "occ",
				"energy": -0.23394,
				"method": "rhf"
			},
			{
				"type": "unocc",
				"energy": -0.04538,
				"method": "rhf"
			},
			{
				"type": "unocc",
				"energy": -0.02855,
				"method": "rhf"
			},
			{
				"type": "unocc",
				"energy": 0.01151,
				"method": "rhf"
			},
			{
				"type": "unocc",
				"energy": 0.05358,
				"method": "rhf"
			},
			{
				"type": "unocc",
				"energy": 0.06919,
				"method": "rhf"
			}
		],
		"cosmo_sigma_profile": { 
			"-0.025": 0.0,
			"-0.024": 0.0,
			"-0.023": 0.0,
			"-0.022": 0.0,
			"-0.021": 0.0,
			"-0.02": 0.0,
			"-0.019": 0.0,
			"-0.018": 0.0,
			"-0.017": 0.0,
			"-0.016": 0.0,
			"-0.015": 0.0,
			"-0.014": 0.0,
			"-0.013": 0.0,
			"-0.012": 0.0,
			"-0.011": 0.0,
			"-0.01": 1.65384951917,
			"-0.009": 3.37144720749,
			"-0.008": 5.00195905658,
			"-0.007": 8.28125486135,
			"-0.006": 12.9844005149,
			"-0.005": 16.7448639749,
			"-0.004": 25.4659795329,
			"-0.003": 24.6967745148,
			"-0.002": 23.0666486555,
			"-0.001": 27.7191253647,
			"0.0": 31.3881792526,
			"0.001": 23.130746933,
			"0.002": 21.9758913874,
			"0.003": 23.266655031,
			"0.004": 13.4050858659,
			"0.005": 11.755947476,
			"0.006": 9.01039229192,
			"0.007": 3.91522282326,
			"0.008": 2.49672987003,
			"0.009": 2.36178809594,
			"0.01": 3.26095423902,
			"0.011": 3.4691671521,
			"0.012": 4.70863086234,
			"0.013": 1.35883033737,
			"0.014": 0.826058009446,
			"0.015": 0.931194607231,
			"0.016": 0.789671908318,
			"0.017": 0.0728693189612,
			"0.018": 0.0,
			"0.019": 0.0,
			"0.02": 0.0,
			"0.021": 0.0,
			"0.022": 0.0,
			"0.023": 0.0,
			"0.024": 0.0,
			"0.025": 0.0
		}
	}
}
