{
	 "smiles": "CCOC(=O)C1=C2N=C(S)C3=C(C=CC=C3)N2N=N1", 
	 "Tm": 445.15, 
	 "num_atms": 29, 
	 "gaussian": { 
		 "optdone": 1, 
		 "sigma_profile": "yes", 
		 "theory": "DFT", 
		 "functional": "B3LYP", 
		 "basiset": "6-31G**", 
		 "properties": { 
			 "R2extent": 6697.6699, 
			 "electric_dipole_moment_norm": 4.41261523362, 
			 "electric_quadrupole_moment_norm": 21.4075832454, 
			 "total_energy": -1230.92117355, 
			 "HOMO_LUMO_gap": 0.15433, 
			 "cosmo_polarized_energy": -18.17, 
			 "cosmo_cavitation_energy": 36.0, 
			 "cosmo_dispersion_energy": -26.87, 
			 "cosmo_repulsion_energy": 2.01, 
			 "cosmo_total_nonelectrostatic_energy": 11.13, 
			 "SMD_solvation_energy": 4.06 
		},
		"coords": [
			{
				"x": 5.5835872119,
				"y": 0.3441967364,
				"z": -2.2237046439,
				"element": "C" 
			},
			{
				"x": 4.786098176,
				"y": 1.635548275,
				"z": -2.1136843661,
				"element": "C" 
			},
			{
				"x": 3.3641353652,
				"y": 1.3744947188,
				"z": -2.0850616581,
				"element": "O" 
			},
			{
				"x": 2.8352250538,
				"y": 1.0934979705,
				"z": -0.8771550368,
				"element": "C" 
			},
			{
				"x": 3.4650563157,
				"y": 1.0534639354,
				"z": 0.1626653151,
				"element": "O" 
			},
			{
				"x": 1.3849556997,
				"y": 0.8415972458,
				"z": -0.9627918805,
				"element": "C" 
			},
			{
				"x": 0.5149449788,
				"y": 0.5238329733,
				"z": 0.0859359,
				"element": "C" 
			},
			{
				"x": 0.6629975427,
				"y": 0.3487156799,
				"z": 1.4232036468,
				"element": "N" 
			},
			{
				"x": -0.4023879852,
				"y": 0.0495054946,
				"z": 2.1150396472,
				"element": "C" 
			},
			{
				"x": -0.2107139985,
				"y": -0.1805227624,
				"z": 3.8684647613,
				"element": "S" 
			},
			{
				"x": -1.7325677021,
				"y": -0.106154384,
				"z": 1.5386595809,
				"element": "C" 
			},
			{
				"x": -1.8652664167,
				"y": 0.0806716574,
				"z": 0.1412369222,
				"element": "C" 
			},
			{
				"x": -3.1004093971,
				"y": -0.0468439006,
				"z": -0.5072838597,
				"element": "C" 
			},
			{
				"x": -4.2172741232,
				"y": -0.3650272896,
				"z": 0.2494937651,
				"element": "C" 
			},
			{
				"x": -4.1153154563,
				"y": -0.5562935051,
				"z": 1.6391908852,
				"element": "C" 
			},
			{
				"x": -2.8911311547,
				"y": -0.4287347375,
				"z": 2.274357061,
				"element": "C" 
			},
			{
				"x": -0.702088505,
				"y": 0.3964342564,
				"z": -0.5433618076,
				"element": "N" 
			},
			{
				"x": -0.590672706,
				"y": 0.6191991736,
				"z": -1.8883662381,
				"element": "N" 
			},
			{
				"x": 0.6622677649,
				"y": 0.883478205,
				"z": -2.118390671,
				"element": "N" 
			},
			{
				"x": 5.4483358197,
				"y": -0.2675881849,
				"z": -1.3284294983,
				"element": "H" 
			},
			{
				"x": 5.2699367097,
				"y": -0.2325654663,
				"z": -3.0986617938,
				"element": "H" 
			},
			{
				"x": 6.649793285,
				"y": 0.573291393,
				"z": -2.3256067117,
				"element": "H" 
			},
			{
				"x": 5.062923038,
				"y": 2.193597023,
				"z": -1.2158821917,
				"element": "H" 
			},
			{
				"x": 4.9256086915,
				"y": 2.268146992,
				"z": -2.9934701892,
				"element": "H" 
			},
			{
				"x": 1.1123442407,
				"y": 0.0669822378,
				"z": 3.837679699,
				"element": "H" 
			},
			{
				"x": -3.1522788272,
				"y": 0.1055415729,
				"z": -1.5785260963,
				"element": "H" 
			},
			{
				"x": -5.1813255391,
				"y": -0.4672011986,
				"z": -0.2390051161,
				"element": "H" 
			},
			{
				"x": -4.9996412142,
				"y": -0.8049149941,
				"z": 2.2167411841,
				"element": "H" 
			},
			{
				"x": -2.821136868,
				"y": -0.5778491177,
				"z": 3.346913391,
				"element": "H" 
			}
		],
		 "valence_orbital": [ 
			{
				"type": "occ",
				"energy": -0.28433,
				"method": "rhf"
			},
			{
				"type": "occ",
				"energy": -0.26936,
				"method": "rhf"
			},
			{
				"type": "occ",
				"energy": -0.26392,
				"method": "rhf"
			},
			{
				"type": "occ",
				"energy": -0.2625,
				"method": "rhf"
			},
			{
				"type": "occ",
				"energy": -0.23977,
				"method": "rhf"
			},
			{
				"type": "unocc",
				"energy": -0.08544,
				"method": "rhf"
			},
			{
				"type": "unocc",
				"energy": -0.05227,
				"method": "rhf"
			},
			{
				"type": "unocc",
				"energy": -0.02309,
				"method": "rhf"
			},
			{
				"type": "unocc",
				"energy": -2e-05,
				"method": "rhf"
			},
			{
				"type": "unocc",
				"energy": 0.00127,
				"method": "rhf"
			}
		],
		"cosmo_sigma_profile": { 
			"-0.025": 0.0,
			"-0.024": 0.0,
			"-0.023": 0.0,
			"-0.022": 0.0,
			"-0.021": 0.0,
			"-0.02": 0.0,
			"-0.019": 0.0,
			"-0.018": 0.0,
			"-0.017": 0.0,
			"-0.016": 0.0,
			"-0.015": 0.0,
			"-0.014": 0.0,
			"-0.013": 0.0519334246716,
			"-0.012": 1.00425442622,
			"-0.011": 1.68748051347,
			"-0.01": 1.06997183168,
			"-0.009": 1.01643200184,
			"-0.008": 5.92186225408,
			"-0.007": 12.8382116945,
			"-0.006": 13.1755912328,
			"-0.005": 16.3949762052,
			"-0.004": 22.0075831961,
			"-0.003": 24.7536327852,
			"-0.002": 30.4978137352,
			"-0.001": 27.5847393437,
			"0.0": 28.2179278253,
			"0.001": 22.0442935389,
			"0.002": 14.2139908452,
			"0.003": 8.53495733237,
			"0.004": 6.96326750272,
			"0.005": 7.30364899265,
			"0.006": 6.06199184154,
			"0.007": 5.0068294911,
			"0.008": 4.39831296351,
			"0.009": 6.20046535739,
			"0.01": 5.74704966975,
			"0.011": 5.51589786063,
			"0.012": 5.71406594571,
			"0.013": 3.45525451344,
			"0.014": 2.64211665566,
			"0.015": 1.90032057288,
			"0.016": 0.117875609617,
			"0.017": 0.0,
			"0.018": 0.0,
			"0.019": 0.0,
			"0.02": 0.0,
			"0.021": 0.0,
			"0.022": 0.0,
			"0.023": 0.0,
			"0.024": 0.0,
			"0.025": 0.0
		}
	}
}
