{
	 "smiles": "CC1=CSC(=N1)C1=CC(N)=CC=C1", 
	 "Tm": 356.15, 
	 "num_atms": 23, 
	 "gaussian": { 
		 "optdone": 1, 
		 "sigma_profile": "yes", 
		 "theory": "DFT", 
		 "functional": "B3LYP", 
		 "basiset": "6-31G**", 
		 "properties": { 
			 "R2extent": 3966.1475, 
			 "electric_dipole_moment_norm": 1.41562568852, 
			 "electric_quadrupole_moment_norm": 18.0643900456, 
			 "total_energy": -894.790864001, 
			 "HOMO_LUMO_gap": 0.15755, 
			 "cosmo_polarized_energy": -10.68, 
			 "cosmo_cavitation_energy": 28.46, 
			 "cosmo_dispersion_energy": -21.7, 
			 "cosmo_repulsion_energy": 1.67, 
			 "cosmo_total_nonelectrostatic_energy": 8.43, 
			 "SMD_solvation_energy": 3.52 
		},
		"coords": [
			{
				"x": -0.0395121946,
				"y": -4.5978007341,
				"z": 1.8263269188,
				"element": "C" 
			},
			{
				"x": -0.4236971946,
				"y": -3.1559042012,
				"z": 1.6671582992,
				"element": "C" 
			},
			{
				"x": -0.7631413854,
				"y": -2.2975664599,
				"z": 2.6777465146,
				"element": "C" 
			},
			{
				"x": -1.1362620163,
				"y": -0.7289874109,
				"z": 2.0441228191,
				"element": "S" 
			},
			{
				"x": -0.8015139441,
				"y": -1.3446468825,
				"z": 0.4200849191,
				"element": "C" 
			},
			{
				"x": -0.4505230297,
				"y": -2.6036547134,
				"z": 0.4058398401,
				"element": "N" 
			},
			{
				"x": -0.9160459013,
				"y": -0.504298225,
				"z": -0.781247293,
				"element": "C" 
			},
			{
				"x": -0.6634541843,
				"y": -1.0891259737,
				"z": -2.0299435173,
				"element": "C" 
			},
			{
				"x": -0.7540943486,
				"y": -0.3375460129,
				"z": -3.2091787929,
				"element": "C" 
			},
			{
				"x": -0.5567556695,
				"y": -0.9421492459,
				"z": -4.4515580187,
				"element": "N" 
			},
			{
				"x": -1.1034503033,
				"y": 1.0225737997,
				"z": -3.1215541256,
				"element": "C" 
			},
			{
				"x": -1.3531189406,
				"y": 1.6018978282,
				"z": -1.8801058859,
				"element": "C" 
			},
			{
				"x": -1.2633878679,
				"y": 0.8543929673,
				"z": -0.7078752192,
				"element": "C" 
			},
			{
				"x": -0.060759376,
				"y": -4.9007056398,
				"z": 2.8760771069,
				"element": "H" 
			},
			{
				"x": -0.7229891401,
				"y": -5.243957896,
				"z": 1.265047664,
				"element": "H" 
			},
			{
				"x": 0.9679210274,
				"y": -4.7750352032,
				"z": 1.4346413146,
				"element": "H" 
			},
			{
				"x": -0.8139731578,
				"y": -2.4977989877,
				"z": 3.7385452405,
				"element": "H" 
			},
			{
				"x": -0.3982736403,
				"y": -2.1409075195,
				"z": -2.065520382,
				"element": "H" 
			},
			{
				"x": -0.2713464721,
				"y": -0.3191955781,
				"z": -5.1942841708,
				"element": "H" 
			},
			{
				"x": -0.0047731208,
				"y": -1.7884852956,
				"z": -4.4337717065,
				"element": "H" 
			},
			{
				"x": -1.1822561677,
				"y": 1.6169480386,
				"z": -4.0284168539,
				"element": "H" 
			},
			{
				"x": -1.6195091481,
				"y": 2.6536972696,
				"z": -1.8274551284,
				"element": "H" 
			},
			{
				"x": -1.4580838242,
				"y": 1.3258560761,
				"z": 0.2503204574,
				"element": "H" 
			}
		],
		 "valence_orbital": [ 
			{
				"type": "occ",
				"energy": -0.27952,
				"method": "rhf"
			},
			{
				"type": "occ",
				"energy": -0.26572,
				"method": "rhf"
			},
			{
				"type": "occ",
				"energy": -0.25992,
				"method": "rhf"
			},
			{
				"type": "occ",
				"energy": -0.21679,
				"method": "rhf"
			},
			{
				"type": "occ",
				"energy": -0.20109,
				"method": "rhf"
			},
			{
				"type": "unocc",
				"energy": -0.04354,
				"method": "rhf"
			},
			{
				"type": "unocc",
				"energy": 0.01096,
				"method": "rhf"
			},
			{
				"type": "unocc",
				"energy": 0.02845,
				"method": "rhf"
			},
			{
				"type": "unocc",
				"energy": 0.03472,
				"method": "rhf"
			},
			{
				"type": "unocc",
				"energy": 0.07007,
				"method": "rhf"
			}
		],
		"cosmo_sigma_profile": { 
			"-0.025": 0.0,
			"-0.024": 0.0,
			"-0.023": 0.0,
			"-0.022": 0.0,
			"-0.021": 0.0,
			"-0.02": 0.0,
			"-0.019": 0.0,
			"-0.018": 0.0,
			"-0.017": 0.0,
			"-0.016": 0.0,
			"-0.015": 0.0,
			"-0.014": 0.0,
			"-0.013": 0.323010247935,
			"-0.012": 2.55905261764,
			"-0.011": 3.03589515369,
			"-0.01": 2.7782779571,
			"-0.009": 3.74571939184,
			"-0.008": 4.82698296059,
			"-0.007": 4.55957168677,
			"-0.006": 8.52216571361,
			"-0.005": 12.5475460903,
			"-0.004": 14.4646926492,
			"-0.003": 15.7280775295,
			"-0.002": 13.0374651483,
			"-0.001": 15.2431166915,
			"0.0": 16.3842281844,
			"0.001": 15.7990888906,
			"0.002": 19.4567290329,
			"0.003": 19.8295753496,
			"0.004": 17.015890697,
			"0.005": 14.7625631821,
			"0.006": 10.2134807634,
			"0.007": 2.55058255225,
			"0.008": 2.35294592232,
			"0.009": 2.65165975789,
			"0.01": 1.54919628466,
			"0.011": 2.45086654147,
			"0.012": 1.14969013645,
			"0.013": 0.613173669634,
			"0.014": 0.937073442805,
			"0.015": 0.0696192875811,
			"0.016": 0.0,
			"0.017": 0.0,
			"0.018": 0.0,
			"0.019": 0.0,
			"0.02": 0.0,
			"0.021": 0.0,
			"0.022": 0.0,
			"0.023": 0.0,
			"0.024": 0.0,
			"0.025": 0.0
		}
	}
}
