{
	 "smiles": "CC(=O)NC1=C(C=CC(F)=C1)C1=CSC(N)=N1", 
	 "Tm": 401.15, 
	 "num_atms": 27, 
	 "gaussian": { 
		 "optdone": 1, 
		 "sigma_profile": "yes", 
		 "theory": "DFT", 
		 "functional": "B3LYP", 
		 "basiset": "6-31G**", 
		 "properties": { 
			 "R2extent": 6026.9879, 
			 "electric_dipole_moment_norm": 3.84782795353, 
			 "electric_quadrupole_moment_norm": 18.1829011313, 
			 "total_energy": -1162.71673529, 
			 "HOMO_LUMO_gap": 0.17064, 
			 "cosmo_polarized_energy": -16.68, 
			 "cosmo_cavitation_energy": 33.54, 
			 "cosmo_dispersion_energy": -24.42, 
			 "cosmo_repulsion_energy": 1.83, 
			 "cosmo_total_nonelectrostatic_energy": 10.95, 
			 "SMD_solvation_energy": 5.97 
		},
		"coords": [
			{
				"x": 0.0176353411,
				"y": -0.3002795387,
				"z": 2.3925689288,
				"element": "C" 
			},
			{
				"x": -0.5889383398,
				"y": 0.7315477074,
				"z": 1.4586586764,
				"element": "C" 
			},
			{
				"x": -1.3292275479,
				"y": 1.6100439766,
				"z": 1.8797506385,
				"element": "O" 
			},
			{
				"x": -0.3329292498,
				"y": 0.6663195422,
				"z": 0.0979359971,
				"element": "N" 
			},
			{
				"x": 0.4624939263,
				"y": -0.1872678675,
				"z": -0.6765402027,
				"element": "C" 
			},
			{
				"x": 0.0591894391,
				"y": -0.5091593045,
				"z": -2.005791676,
				"element": "C" 
			},
			{
				"x": 0.8934693772,
				"y": -1.3377595029,
				"z": -2.7724767517,
				"element": "C" 
			},
			{
				"x": 2.0765436148,
				"y": -1.8772745986,
				"z": -2.2779807565,
				"element": "C" 
			},
			{
				"x": 2.4432903833,
				"y": -1.5371808232,
				"z": -0.9829761465,
				"element": "C" 
			},
			{
				"x": 3.6027418529,
				"y": -2.0096867183,
				"z": -0.4806505953,
				"element": "F" 
			},
			{
				"x": 1.6781680095,
				"y": -0.6946483715,
				"z": -0.1912570193,
				"element": "C" 
			},
			{
				"x": -1.2025905796,
				"y": -0.0202052413,
				"z": -2.6032100598,
				"element": "C" 
			},
			{
				"x": -1.9254212865,
				"y": -0.6810530404,
				"z": -3.5590978469,
				"element": "C" 
			},
			{
				"x": -3.3260122357,
				"y": 0.2511634041,
				"z": -4.0254553919,
				"element": "S" 
			},
			{
				"x": -2.8266370044,
				"y": 1.4874836733,
				"z": -2.8687672621,
				"element": "C" 
			},
			{
				"x": -3.5884707929,
				"y": 2.602329962,
				"z": -2.6401440536,
				"element": "N" 
			},
			{
				"x": -1.7285771952,
				"y": 1.2111197847,
				"z": -2.2242503584,
				"element": "N" 
			},
			{
				"x": -0.6327151126,
				"y": -0.3599310601,
				"z": 3.2660436733,
				"element": "H" 
			},
			{
				"x": 0.123600604,
				"y": -1.286151623,
				"z": 1.9346092539,
				"element": "H" 
			},
			{
				"x": 1.0056191931,
				"y": 0.0256923739,
				"z": 2.7355236143,
				"element": "H" 
			},
			{
				"x": -0.9404732946,
				"y": 1.2811117474,
				"z": -0.4451300069,
				"element": "H" 
			},
			{
				"x": 0.608741488,
				"y": -1.5511635675,
				"z": -3.7976646539,
				"element": "H" 
			},
			{
				"x": 2.7129165049,
				"y": -2.5170046147,
				"z": -2.8780901459,
				"element": "H" 
			},
			{
				"x": 2.0527179669,
				"y": -0.4192068156,
				"z": 0.7846548322,
				"element": "H" 
			},
			{
				"x": -1.7467173496,
				"y": -1.6518692278,
				"z": -3.9951987244,
				"element": "H" 
			},
			{
				"x": -3.1280400502,
				"y": 3.3159086006,
				"z": -2.0915595973,
				"element": "H" 
			},
			{
				"x": -4.1642776626,
				"y": 2.9467211435,
				"z": -3.393404365,
				"element": "H" 
			}
		],
		 "valence_orbital": [ 
			{
				"type": "occ",
				"energy": -0.28937,
				"method": "rhf"
			},
			{
				"type": "occ",
				"energy": -0.25597,
				"method": "rhf"
			},
			{
				"type": "occ",
				"energy": -0.24409,
				"method": "rhf"
			},
			{
				"type": "occ",
				"energy": -0.23028,
				"method": "rhf"
			},
			{
				"type": "occ",
				"energy": -0.20544,
				"method": "rhf"
			},
			{
				"type": "unocc",
				"energy": -0.0348,
				"method": "rhf"
			},
			{
				"type": "unocc",
				"energy": -0.01721,
				"method": "rhf"
			},
			{
				"type": "unocc",
				"energy": 0.00028,
				"method": "rhf"
			},
			{
				"type": "unocc",
				"energy": 0.00208,
				"method": "rhf"
			},
			{
				"type": "unocc",
				"energy": 0.04197,
				"method": "rhf"
			}
		],
		"cosmo_sigma_profile": { 
			"-0.025": 0.0,
			"-0.024": 0.0,
			"-0.023": 0.0,
			"-0.022": 0.0,
			"-0.021": 0.0,
			"-0.02": 0.0,
			"-0.019": 0.0,
			"-0.018": 0.0,
			"-0.017": 0.0,
			"-0.016": 0.00971060259783,
			"-0.015": 1.03732163242,
			"-0.014": 2.88754013717,
			"-0.013": 2.22205011879,
			"-0.012": 2.55686857693,
			"-0.011": 3.21737672038,
			"-0.01": 1.94691739726,
			"-0.009": 3.36980509392,
			"-0.008": 6.82514953453,
			"-0.007": 9.40027314684,
			"-0.006": 9.91307091828,
			"-0.005": 12.4366256083,
			"-0.004": 12.5740488753,
			"-0.003": 13.623500605,
			"-0.002": 16.0457109232,
			"-0.001": 15.6968444535,
			"0.0": 18.4278876823,
			"0.001": 25.684477424,
			"0.002": 27.3697663973,
			"0.003": 28.6618204993,
			"0.004": 23.3579798818,
			"0.005": 6.65416796076,
			"0.006": 2.98906883094,
			"0.007": 2.65982807032,
			"0.008": 2.55188788921,
			"0.009": 2.48307536189,
			"0.01": 2.2502390108,
			"0.011": 2.46216212203,
			"0.012": 1.43917845119,
			"0.013": 5.49930535203,
			"0.014": 3.98622784073,
			"0.015": 0.634440023935,
			"0.016": 0.0,
			"0.017": 0.0,
			"0.018": 0.0,
			"0.019": 0.0,
			"0.02": 0.0,
			"0.021": 0.0,
			"0.022": 0.0,
			"0.023": 0.0,
			"0.024": 0.0,
			"0.025": 0.0
		}
	}
}
