{
	 "smiles": "OC(=O)C1CCNCC1", 
	 "Tm": 609.15, 
	 "num_atms": 20, 
	 "gaussian": { 
		 "optdone": 1, 
		 "sigma_profile": "yes", 
		 "theory": "DFT", 
		 "functional": "B3LYP", 
		 "basiset": "6-31G**", 
		 "properties": { 
			 "R2extent": 1416.0096, 
			 "electric_dipole_moment_norm": 4.94022081592, 
			 "electric_quadrupole_moment_norm": 8.29041882235, 
			 "total_energy": -440.474762709, 
			 "HOMO_LUMO_gap": 0.24157, 
			 "cosmo_polarized_energy": -15.65, 
			 "cosmo_cavitation_energy": 21.74, 
			 "cosmo_dispersion_energy": -16.41, 
			 "cosmo_repulsion_energy": 1.36, 
			 "cosmo_total_nonelectrostatic_energy": 6.69, 
			 "SMD_solvation_energy": 2.13 
		},
		"coords": [
			{
				"x": 1.3904168628,
				"y": -1.1350464157,
				"z": -2.5417149923,
				"element": "O" 
			},
			{
				"x": 1.1802592878,
				"y": -0.2245410072,
				"z": -1.548642015,
				"element": "C" 
			},
			{
				"x": 2.0781238227,
				"y": 0.5040707777,
				"z": -1.2074686003,
				"element": "O" 
			},
			{
				"x": -0.2209366991,
				"y": -0.2273600566,
				"z": -0.9407676067,
				"element": "C" 
			},
			{
				"x": -0.5406190607,
				"y": -1.5749585037,
				"z": -0.2473803297,
				"element": "C" 
			},
			{
				"x": -1.925899532,
				"y": -1.5234848036,
				"z": 0.4074524337,
				"element": "C" 
			},
			{
				"x": -1.9793465069,
				"y": -0.4117442186,
				"z": 1.3516343979,
				"element": "N" 
			},
			{
				"x": -1.7936717546,
				"y": 0.881180936,
				"z": 0.6924549054,
				"element": "C" 
			},
			{
				"x": -0.4072138266,
				"y": 0.9358482111,
				"z": 0.0440775421,
				"element": "C" 
			},
			{
				"x": 0.579283239,
				"y": -1.6340206672,
				"z": -2.7129420785,
				"element": "H" 
			},
			{
				"x": -0.9345914997,
				"y": -0.103226281,
				"z": -1.7723208293,
				"element": "H" 
			},
			{
				"x": 0.2128786076,
				"y": -1.770203385,
				"z": 0.5239514275,
				"element": "H" 
			},
			{
				"x": -0.504975635,
				"y": -2.4096473424,
				"z": -0.95911056,
				"element": "H" 
			},
			{
				"x": -2.1148066694,
				"y": -2.4568630158,
				"z": 0.9488826767,
				"element": "H" 
			},
			{
				"x": -2.6918944334,
				"y": -1.4480545507,
				"z": -0.3916746231,
				"element": "H" 
			},
			{
				"x": -2.8597971375,
				"y": -0.4254553986,
				"z": 1.857636757,
				"element": "H" 
			},
			{
				"x": -2.5629212816,
				"y": 1.0777642907,
				"z": -0.0818968035,
				"element": "H" 
			},
			{
				"x": -1.8840051823,
				"y": 1.6729573446,
				"z": 1.4436103358,
				"element": "H" 
			},
			{
				"x": -0.2645301134,
				"y": 1.8901348585,
				"z": -0.4724264724,
				"element": "H" 
			},
			{
				"x": 0.3629475122,
				"y": 0.8713492274,
				"z": 0.8186444346,
				"element": "H" 
			}
		],
		 "valence_orbital": [ 
			{
				"type": "occ",
				"energy": -0.33078,
				"method": "rhf"
			},
			{
				"type": "occ",
				"energy": -0.32713,
				"method": "rhf"
			},
			{
				"type": "occ",
				"energy": -0.31116,
				"method": "rhf"
			},
			{
				"type": "occ",
				"energy": -0.26497,
				"method": "rhf"
			},
			{
				"type": "occ",
				"energy": -0.22938,
				"method": "rhf"
			},
			{
				"type": "unocc",
				"energy": 0.01219,
				"method": "rhf"
			},
			{
				"type": "unocc",
				"energy": 0.04712,
				"method": "rhf"
			},
			{
				"type": "unocc",
				"energy": 0.081,
				"method": "rhf"
			},
			{
				"type": "unocc",
				"energy": 0.10975,
				"method": "rhf"
			},
			{
				"type": "unocc",
				"energy": 0.11846,
				"method": "rhf"
			}
		],
		"cosmo_sigma_profile": { 
			"-0.025": 0.0,
			"-0.024": 0.0,
			"-0.023": 0.0,
			"-0.022": 0.0,
			"-0.021": 0.0,
			"-0.02": 0.0,
			"-0.019": 0.011435044601,
			"-0.018": 0.873337790832,
			"-0.017": 0.819355178004,
			"-0.016": 0.918600005916,
			"-0.015": 1.20120299154,
			"-0.014": 1.22488747998,
			"-0.013": 0.863475370953,
			"-0.012": 1.00482513171,
			"-0.011": 1.02737184537,
			"-0.01": 1.92540191339,
			"-0.009": 3.13889202762,
			"-0.008": 2.60392501574,
			"-0.007": 2.59236768839,
			"-0.006": 4.20810788547,
			"-0.005": 5.78362457892,
			"-0.004": 11.7976364145,
			"-0.003": 18.0019786131,
			"-0.002": 23.5871622493,
			"-0.001": 21.4804294178,
			"0.0": 11.4689515439,
			"0.001": 4.48211185883,
			"0.002": 3.55086664092,
			"0.003": 2.97395906707,
			"0.004": 3.12918846192,
			"0.005": 3.65641862474,
			"0.006": 2.54024639564,
			"0.007": 3.11761436145,
			"0.008": 3.32294694111,
			"0.009": 3.52206497347,
			"0.01": 4.85626644501,
			"0.011": 6.28317728199,
			"0.012": 6.60090392473,
			"0.013": 3.28744382628,
			"0.014": 0.545635141893,
			"0.015": 0.325876457062,
			"0.016": 0.631987638582,
			"0.017": 0.367076342162,
			"0.018": 0.361155424576,
			"0.019": 0.0316328636176,
			"0.02": 0.0,
			"0.021": 0.0,
			"0.022": 0.0,
			"0.023": 0.0,
			"0.024": 0.0,
			"0.025": 0.0
		}
	}
}
