{
	 "smiles": "CC1=CC=C(C=C1)C(N)=NO", 
	 "Tm": 409.15, 
	 "num_atms": 21, 
	 "gaussian": { 
		 "optdone": 1, 
		 "sigma_profile": "yes", 
		 "theory": "DFT", 
		 "functional": "B3LYP", 
		 "basiset": "6-31G**", 
		 "properties": { 
			 "R2extent": 2369.9193, 
			 "electric_dipole_moment_norm": 1.71187373658, 
			 "electric_quadrupole_moment_norm": 7.40198417386, 
			 "total_energy": -495.552169543, 
			 "HOMO_LUMO_gap": 0.18035, 
			 "cosmo_polarized_energy": -12.77, 
			 "cosmo_cavitation_energy": 24.84, 
			 "cosmo_dispersion_energy": -18.34, 
			 "cosmo_repulsion_energy": 1.51, 
			 "cosmo_total_nonelectrostatic_energy": 8.0, 
			 "SMD_solvation_energy": 4.21 
		},
		"coords": [
			{
				"x": -1.6674924886,
				"y": 0.6528956419,
				"z": 3.1731090544,
				"element": "C" 
			},
			{
				"x": -1.3230574038,
				"y": 0.4067827412,
				"z": 1.7234749017,
				"element": "C" 
			},
			{
				"x": -0.8517168602,
				"y": -0.8368896438,
				"z": 1.2891947038,
				"element": "C" 
			},
			{
				"x": -0.5143444574,
				"y": -1.050427925,
				"z": -0.0471314954,
				"element": "C" 
			},
			{
				"x": -0.6473502908,
				"y": -0.0263582457,
				"z": -0.9946763661,
				"element": "C" 
			},
			{
				"x": -1.1327889592,
				"y": 1.2187994399,
				"z": -0.5664784793,
				"element": "C" 
			},
			{
				"x": -1.4576579222,
				"y": 1.4273405049,
				"z": 0.7700873981,
				"element": "C" 
			},
			{
				"x": -0.260441213,
				"y": -0.2650021402,
				"z": -2.4139952324,
				"element": "C" 
			},
			{
				"x": 0.9907986199,
				"y": -0.8436742077,
				"z": -2.6178557702,
				"element": "N" 
			},
			{
				"x": -0.9277740905,
				"y": 0.0454141629,
				"z": -3.474026938,
				"element": "N" 
			},
			{
				"x": -2.1575830207,
				"y": 0.6874651794,
				"z": -3.1707648327,
				"element": "O" 
			},
			{
				"x": -2.6390149357,
				"y": 1.1483630678,
				"z": 3.2742602791,
				"element": "H" 
			},
			{
				"x": -1.7045964759,
				"y": -0.2813263387,
				"z": 3.7403287287,
				"element": "H" 
			},
			{
				"x": -0.9245439038,
				"y": 1.3019603634,
				"z": 3.6527298929,
				"element": "H" 
			},
			{
				"x": -0.7501939993,
				"y": -1.6506516845,
				"z": 2.0028858993,
				"element": "H" 
			},
			{
				"x": -0.1713223018,
				"y": -2.0352662617,
				"z": -0.3549839821,
				"element": "H" 
			},
			{
				"x": -1.2593471631,
				"y": 2.014799009,
				"z": -1.2898972924,
				"element": "H" 
			},
			{
				"x": -1.8267938479,
				"y": 2.4018946289,
				"z": 1.0809476837,
				"element": "H" 
			},
			{
				"x": 1.3385352121,
				"y": -1.4192554019,
				"z": -1.8662597539,
				"element": "H" 
			},
			{
				"x": 1.1153488248,
				"y": -1.243044305,
				"z": -3.5389774645,
				"element": "H" 
			},
			{
				"x": -2.522563323,
				"y": 0.8128814146,
				"z": -4.0554709347,
				"element": "H" 
			}
		],
		 "valence_orbital": [ 
			{
				"type": "occ",
				"energy": -0.31168,
				"method": "rhf"
			},
			{
				"type": "occ",
				"energy": -0.25954,
				"method": "rhf"
			},
			{
				"type": "occ",
				"energy": -0.24897,
				"method": "rhf"
			},
			{
				"type": "occ",
				"energy": -0.24218,
				"method": "rhf"
			},
			{
				"type": "occ",
				"energy": -0.1974,
				"method": "rhf"
			},
			{
				"type": "unocc",
				"energy": -0.01705,
				"method": "rhf"
			},
			{
				"type": "unocc",
				"energy": -0.00119,
				"method": "rhf"
			},
			{
				"type": "unocc",
				"energy": 0.05799,
				"method": "rhf"
			},
			{
				"type": "unocc",
				"energy": 0.07896,
				"method": "rhf"
			},
			{
				"type": "unocc",
				"energy": 0.09117,
				"method": "rhf"
			}
		],
		"cosmo_sigma_profile": { 
			"-0.025": 0.0,
			"-0.024": 0.0,
			"-0.023": 0.0,
			"-0.022": 0.0,
			"-0.021": 0.0,
			"-0.02": 0.0,
			"-0.019": 0.0,
			"-0.018": 0.0,
			"-0.017": 0.0629174461302,
			"-0.016": 0.727354090492,
			"-0.015": 1.16882019698,
			"-0.014": 0.579285206766,
			"-0.013": 1.29654724589,
			"-0.012": 3.27165685248,
			"-0.011": 3.50803237089,
			"-0.01": 2.66456333549,
			"-0.009": 3.27113538467,
			"-0.008": 3.34367283413,
			"-0.007": 3.04195421953,
			"-0.006": 4.35939642759,
			"-0.005": 11.01617055,
			"-0.004": 16.3074237895,
			"-0.003": 13.6704387967,
			"-0.002": 13.6125269425,
			"-0.001": 15.0221453965,
			"0.0": 13.5707833769,
			"0.001": 11.0260200783,
			"0.002": 9.40534730685,
			"0.003": 9.15192014568,
			"0.004": 10.2887623701,
			"0.005": 11.5698454387,
			"0.006": 5.97458490392,
			"0.007": 5.56696717372,
			"0.008": 5.49121569208,
			"0.009": 4.43555570682,
			"0.01": 3.56365608022,
			"0.011": 3.38778654173,
			"0.012": 2.77581795299,
			"0.013": 1.8218975702,
			"0.014": 1.06137486379,
			"0.015": 0.25125736175,
			"0.016": 0.0,
			"0.017": 0.0,
			"0.018": 0.0,
			"0.019": 0.0,
			"0.02": 0.0,
			"0.021": 0.0,
			"0.022": 0.0,
			"0.023": 0.0,
			"0.024": 0.0,
			"0.025": 0.0
		}
	}
}
