{
	 "smiles": "O=C(OCC1=CC=CC=C1)OCC1=CC=CC=C1", 
	 "Tm": 304.15, 
	 "num_atms": 32, 
	 "gaussian": { 
		 "optdone": 1, 
		 "sigma_profile": "yes", 
		 "theory": "DFT", 
		 "functional": "B3LYP", 
		 "basiset": "6-31G**", 
		 "properties": { 
			 "R2extent": 5994.4664, 
			 "electric_dipole_moment_norm": 0.797118266006, 
			 "electric_quadrupole_moment_norm": 5.87211921797, 
			 "total_energy": -805.719489212, 
			 "HOMO_LUMO_gap": 0.23331, 
			 "cosmo_polarized_energy": -10.15, 
			 "cosmo_cavitation_energy": 36.72, 
			 "cosmo_dispersion_energy": -25.59, 
			 "cosmo_repulsion_energy": 2.0, 
			 "cosmo_total_nonelectrostatic_energy": 13.14, 
			 "SMD_solvation_energy": 7.5 
		},
		"coords": [
			{
				"x": -0.4665981774,
				"y": -1.0815151138,
				"z": -0.2442754431,
				"element": "O" 
			},
			{
				"x": -0.2610878188,
				"y": -0.4103659964,
				"z": 0.7489799311,
				"element": "C" 
			},
			{
				"x": 0.8868928473,
				"y": -0.3459867754,
				"z": 1.4370336427,
				"element": "O" 
			},
			{
				"x": 1.9909756724,
				"y": -1.1349046467,
				"z": 0.9114880653,
				"element": "C" 
			},
			{
				"x": 2.8314640611,
				"y": -0.3504103393,
				"z": -0.0646480896,
				"element": "C" 
			},
			{
				"x": 2.5317251186,
				"y": -0.3600375292,
				"z": -1.4339906424,
				"element": "C" 
			},
			{
				"x": 3.3079210506,
				"y": 0.374928179,
				"z": -2.3304037883,
				"element": "C" 
			},
			{
				"x": 4.3907353462,
				"y": 1.1265739211,
				"z": -1.8688025658,
				"element": "C" 
			},
			{
				"x": 4.695479326,
				"y": 1.1422254855,
				"z": -0.5062714575,
				"element": "C" 
			},
			{
				"x": 3.9187345007,
				"y": 0.4067453951,
				"z": 0.3892366594,
				"element": "C" 
			},
			{
				"x": -1.1488252776,
				"y": 0.3800750272,
				"z": 1.3674659392,
				"element": "O" 
			},
			{
				"x": -2.4684268371,
				"y": 0.4557753037,
				"z": 0.7587998859,
				"element": "C" 
			},
			{
				"x": -2.5611715367,
				"y": 1.5713066342,
				"z": -0.2519438605,
				"element": "C" 
			},
			{
				"x": -2.2635197864,
				"y": 1.3386091992,
				"z": -1.6018072232,
				"element": "C" 
			},
			{
				"x": -2.3427132339,
				"y": 2.3770372273,
				"z": -2.530080462,
				"element": "C" 
			},
			{
				"x": -2.7194861422,
				"y": 3.6577583899,
				"z": -2.1198985238,
				"element": "C" 
			},
			{
				"x": -3.0166783474,
				"y": 3.8981686278,
				"z": -0.7769230336,
				"element": "C" 
			},
			{
				"x": -2.9375951392,
				"y": 2.8589455429,
				"z": 0.1503601627,
				"element": "C" 
			},
			{
				"x": 1.5850494905,
				"y": -2.0383504014,
				"z": 0.4529108836,
				"element": "H" 
			},
			{
				"x": 2.5679077997,
				"y": -1.4007841231,
				"z": 1.7995256958,
				"element": "H" 
			},
			{
				"x": 1.6821077917,
				"y": -0.937238588,
				"z": -1.7852467124,
				"element": "H" 
			},
			{
				"x": 3.069014416,
				"y": 0.3593313651,
				"z": -3.3900311415,
				"element": "H" 
			},
			{
				"x": 4.9961856202,
				"y": 1.6960642011,
				"z": -2.5683213799,
				"element": "H" 
			},
			{
				"x": 5.5378127918,
				"y": 1.7235977074,
				"z": -0.1423202348,
				"element": "H" 
			},
			{
				"x": 4.1575326678,
				"y": 0.4181838712,
				"z": 1.4499539398,
				"element": "H" 
			},
			{
				"x": -2.6994685195,
				"y": -0.5112056367,
				"z": 0.3084397315,
				"element": "H" 
			},
			{
				"x": -3.1356280042,
				"y": 0.6364980715,
				"z": 1.6039958584,
				"element": "H" 
			},
			{
				"x": -1.9603738752,
				"y": 0.3436636974,
				"z": -1.9126092638,
				"element": "H" 
			},
			{
				"x": -2.1123169057,
				"y": 2.1862154032,
				"z": -3.5744138283,
				"element": "H" 
			},
			{
				"x": -2.7835491957,
				"y": 4.4648809915,
				"z": -2.8442355412,
				"element": "H" 
			},
			{
				"x": -3.312195221,
				"y": 4.8920376954,
				"z": -0.453080589,
				"element": "H" 
			},
			{
				"x": -3.1707044825,
				"y": 3.0464772134,
				"z": 1.1957133853,
				"element": "H" 
			}
		],
		 "valence_orbital": [ 
			{
				"type": "occ",
				"energy": -0.28309,
				"method": "rhf"
			},
			{
				"type": "occ",
				"energy": -0.25165,
				"method": "rhf"
			},
			{
				"type": "occ",
				"energy": -0.25057,
				"method": "rhf"
			},
			{
				"type": "occ",
				"energy": -0.25052,
				"method": "rhf"
			},
			{
				"type": "occ",
				"energy": -0.24755,
				"method": "rhf"
			},
			{
				"type": "unocc",
				"energy": -0.01424,
				"method": "rhf"
			},
			{
				"type": "unocc",
				"energy": -0.00789,
				"method": "rhf"
			},
			{
				"type": "unocc",
				"energy": -0.00211,
				"method": "rhf"
			},
			{
				"type": "unocc",
				"energy": -0.00125,
				"method": "rhf"
			},
			{
				"type": "unocc",
				"energy": 0.04288,
				"method": "rhf"
			}
		],
		"cosmo_sigma_profile": { 
			"-0.025": 0.0,
			"-0.024": 0.0,
			"-0.023": 0.0,
			"-0.022": 0.0,
			"-0.021": 0.0,
			"-0.02": 0.0,
			"-0.019": 0.0,
			"-0.018": 0.0,
			"-0.017": 0.0,
			"-0.016": 0.0,
			"-0.015": 0.0,
			"-0.014": 0.0,
			"-0.013": 0.0,
			"-0.012": 0.0,
			"-0.011": 0.0,
			"-0.01": 0.0,
			"-0.009": 0.0,
			"-0.008": 0.0,
			"-0.007": 4.59611172445,
			"-0.006": 18.8488112202,
			"-0.005": 26.0401257632,
			"-0.004": 31.6801081284,
			"-0.003": 28.3941740802,
			"-0.002": 18.4380715501,
			"-0.001": 19.4107493245,
			"0.0": 14.730996589,
			"0.001": 17.6447258232,
			"0.002": 19.1336716402,
			"0.003": 20.3401709142,
			"0.004": 22.3483077933,
			"0.005": 25.4222504741,
			"0.006": 9.08389133362,
			"0.007": 3.01530212737,
			"0.008": 3.60273998171,
			"0.009": 4.30343127308,
			"0.01": 3.83739480446,
			"0.011": 1.7512132357,
			"0.012": 0.755836842094,
			"0.013": 0.0,
			"0.014": 0.0,
			"0.015": 0.0,
			"0.016": 0.0,
			"0.017": 0.0,
			"0.018": 0.0,
			"0.019": 0.0,
			"0.02": 0.0,
			"0.021": 0.0,
			"0.022": 0.0,
			"0.023": 0.0,
			"0.024": 0.0,
			"0.025": 0.0
		}
	}
}
