{
	 "smiles": "CC(C)CN1C(S)=NC2=C(C=CC(Cl)=C2)C1=O", 
	 "Tm": 495.15, 
	 "num_atms": 30, 
	 "gaussian": { 
		 "optdone": 1, 
		 "sigma_profile": "yes", 
		 "theory": "DFT", 
		 "functional": "B3LYP", 
		 "basiset": "6-31G**", 
		 "properties": { 
			 "R2extent": 6931.9139, 
			 "electric_dipole_moment_norm": 2.18899745317, 
			 "electric_quadrupole_moment_norm": 5.85089281563, 
			 "total_energy": -1508.25729734, 
			 "HOMO_LUMO_gap": 0.18012, 
			 "cosmo_polarized_energy": -9.01, 
			 "cosmo_cavitation_energy": 36.03, 
			 "cosmo_dispersion_energy": -26.33, 
			 "cosmo_repulsion_energy": 1.98, 
			 "cosmo_total_nonelectrostatic_energy": 11.68, 
			 "SMD_solvation_energy": 4.46 
		},
		"coords": [
			{
				"x": -3.0196535015,
				"y": -2.678646734,
				"z": -2.0803671273,
				"element": "C" 
			},
			{
				"x": -2.4333254978,
				"y": -1.2842160347,
				"z": -1.8140712253,
				"element": "C" 
			},
			{
				"x": -3.5371222502,
				"y": -0.2650786819,
				"z": -1.50529253,
				"element": "C" 
			},
			{
				"x": -1.3810497171,
				"y": -1.3982507725,
				"z": -0.6930835881,
				"element": "C" 
			},
			{
				"x": -0.6490744071,
				"y": -0.1446620669,
				"z": -0.4143159534,
				"element": "N" 
			},
			{
				"x": -0.8642185997,
				"y": 0.6418854107,
				"z": 0.7005418365,
				"element": "C" 
			},
			{
				"x": -2.0927609949,
				"y": 0.0785410361,
				"z": 1.8758987696,
				"element": "S" 
			},
			{
				"x": -0.2422078052,
				"y": 1.7446585016,
				"z": 0.9731878755,
				"element": "N" 
			},
			{
				"x": 0.7289330566,
				"y": 2.1768531199,
				"z": 0.0907989928,
				"element": "C" 
			},
			{
				"x": 1.0658684267,
				"y": 1.443846619,
				"z": -1.0664382792,
				"element": "C" 
			},
			{
				"x": 2.0679256469,
				"y": 1.9073130722,
				"z": -1.9340360847,
				"element": "C" 
			},
			{
				"x": 2.7332275209,
				"y": 3.0912462878,
				"z": -1.664661443,
				"element": "C" 
			},
			{
				"x": 2.3874610087,
				"y": 3.8158480113,
				"z": -0.5092981012,
				"element": "C" 
			},
			{
				"x": 3.2330356068,
				"y": 5.3166567894,
				"z": -0.1716314798,
				"element": "Cl" 
			},
			{
				"x": 1.4060630953,
				"y": 3.3820840907,
				"z": 0.3653852793,
				"element": "C" 
			},
			{
				"x": 0.361093468,
				"y": 0.19672191,
				"z": -1.3542312864,
				"element": "C" 
			},
			{
				"x": 0.579718036,
				"y": -0.5326224165,
				"z": -2.3136452859,
				"element": "O" 
			},
			{
				"x": -3.7370535936,
				"y": -2.6438285508,
				"z": -2.9060766773,
				"element": "H" 
			},
			{
				"x": -2.2394353986,
				"y": -3.3996431781,
				"z": -2.3465164814,
				"element": "H" 
			},
			{
				"x": -3.5489083065,
				"y": -3.0624411425,
				"z": -1.1993138246,
				"element": "H" 
			},
			{
				"x": -1.8980811365,
				"y": -0.9618761011,
				"z": -2.7138586401,
				"element": "H" 
			},
			{
				"x": -4.1185752176,
				"y": -0.5580611551,
				"z": -0.623639606,
				"element": "H" 
			},
			{
				"x": -4.2294623719,
				"y": -0.1884927644,
				"z": -2.3500843551,
				"element": "H" 
			},
			{
				"x": -3.1319798626,
				"y": 0.7349525963,
				"z": -1.321848835,
				"element": "H" 
			},
			{
				"x": -1.841885594,
				"y": -1.7405565372,
				"z": 0.2369581397,
				"element": "H" 
			},
			{
				"x": -0.6274055133,
				"y": -2.13318891,
				"z": -0.9844653386,
				"element": "H" 
			},
			{
				"x": -1.8413877738,
				"y": 1.1121849869,
				"z": 2.699487144,
				"element": "H" 
			},
			{
				"x": 2.3029275789,
				"y": 1.3176073301,
				"z": -2.8136597377,
				"element": "H" 
			},
			{
				"x": 3.507980063,
				"y": 3.4635039733,
				"z": -2.3247329945,
				"element": "H" 
			},
			{
				"x": 1.1464540336,
				"y": 3.9429613103,
				"z": 1.2549108375,
				"element": "H" 
			}
		],
		 "valence_orbital": [ 
			{
				"type": "occ",
				"energy": -0.28515,
				"method": "rhf"
			},
			{
				"type": "occ",
				"energy": -0.2798,
				"method": "rhf"
			},
			{
				"type": "occ",
				"energy": -0.27294,
				"method": "rhf"
			},
			{
				"type": "occ",
				"energy": -0.25895,
				"method": "rhf"
			},
			{
				"type": "occ",
				"energy": -0.23285,
				"method": "rhf"
			},
			{
				"type": "unocc",
				"energy": -0.05273,
				"method": "rhf"
			},
			{
				"type": "unocc",
				"energy": -0.04455,
				"method": "rhf"
			},
			{
				"type": "unocc",
				"energy": -0.00286,
				"method": "rhf"
			},
			{
				"type": "unocc",
				"energy": 0.01694,
				"method": "rhf"
			},
			{
				"type": "unocc",
				"energy": 0.02556,
				"method": "rhf"
			}
		],
		"cosmo_sigma_profile": { 
			"-0.025": 0.0,
			"-0.024": 0.0,
			"-0.023": 0.0,
			"-0.022": 0.0,
			"-0.021": 0.0,
			"-0.02": 0.0,
			"-0.019": 0.0,
			"-0.018": 0.0,
			"-0.017": 0.0,
			"-0.016": 0.0,
			"-0.015": 0.0,
			"-0.014": 0.0,
			"-0.013": 0.0,
			"-0.012": 0.557737329454,
			"-0.011": 1.36927062584,
			"-0.01": 1.28366079209,
			"-0.009": 1.13861193914,
			"-0.008": 2.46433855428,
			"-0.007": 5.00573386483,
			"-0.006": 7.18552542056,
			"-0.005": 12.8607973997,
			"-0.004": 18.6056291829,
			"-0.003": 26.2832730971,
			"-0.002": 26.1440348387,
			"-0.001": 28.8144665379,
			"0.0": 31.5198641305,
			"0.001": 40.4558403391,
			"0.002": 26.9900189645,
			"0.003": 15.1195610779,
			"0.004": 15.4547078181,
			"0.005": 7.18201557182,
			"0.006": 4.88003618005,
			"0.007": 2.86257818477,
			"0.008": 1.87068784109,
			"0.009": 2.39832137145,
			"0.01": 2.90145688168,
			"0.011": 2.35084866457,
			"0.012": 3.73249214222,
			"0.013": 1.3177603617,
			"0.014": 0.0,
			"0.015": 0.0,
			"0.016": 0.0,
			"0.017": 0.0,
			"0.018": 0.0,
			"0.019": 0.0,
			"0.02": 0.0,
			"0.021": 0.0,
			"0.022": 0.0,
			"0.023": 0.0,
			"0.024": 0.0,
			"0.025": 0.0
		}
	}
}
