{
	 "smiles": "O=CC1=C(N=NN1)C1=CC=CC=C1", 
	 "Tm": 443.15, 
	 "num_atms": 20, 
	 "gaussian": { 
		 "optdone": 1, 
		 "sigma_profile": "yes", 
		 "theory": "DFT", 
		 "functional": "B3LYP", 
		 "basiset": "6-31G**", 
		 "properties": { 
			 "R2extent": 2958.9462, 
			 "electric_dipole_moment_norm": 2.40109412977, 
			 "electric_quadrupole_moment_norm": 8.91312624953, 
			 "total_energy": -586.607324975, 
			 "HOMO_LUMO_gap": 0.15979, 
			 "cosmo_polarized_energy": -13.59, 
			 "cosmo_cavitation_energy": 25.3, 
			 "cosmo_dispersion_energy": -18.59, 
			 "cosmo_repulsion_energy": 1.45, 
			 "cosmo_total_nonelectrostatic_energy": 8.17, 
			 "SMD_solvation_energy": 4.0 
		},
		"coords": [
			{
				"x": 2.8489623571,
				"y": 3.6327689487,
				"z": 1.3063219997,
				"element": "O" 
			},
			{
				"x": 2.0091692763,
				"y": 2.8297447058,
				"z": 0.9297590609,
				"element": "C" 
			},
			{
				"x": 2.0272335718,
				"y": 1.4335841826,
				"z": 1.3563827988,
				"element": "C" 
			},
			{
				"x": 1.2464611404,
				"y": 0.2958443976,
				"z": 1.1307653784,
				"element": "C" 
			},
			{
				"x": 1.7285346856,
				"y": -0.704115466,
				"z": 1.9327663964,
				"element": "N" 
			},
			{
				"x": 2.7492949439,
				"y": -0.2607599751,
				"z": 2.6224540902,
				"element": "N" 
			},
			{
				"x": 2.9376467161,
				"y": 1.0130613229,
				"z": 2.279897724,
				"element": "N" 
			},
			{
				"x": 0.0983624979,
				"y": 0.0736195135,
				"z": 0.2447063821,
				"element": "C" 
			},
			{
				"x": -0.0691171821,
				"y": 0.7984473113,
				"z": -0.9470523638,
				"element": "C" 
			},
			{
				"x": -1.1763923656,
				"y": 0.5716330383,
				"z": -1.7627592247,
				"element": "C" 
			},
			{
				"x": -2.1246098295,
				"y": -0.3893367349,
				"z": -1.4069915131,
				"element": "C" 
			},
			{
				"x": -1.9553408768,
				"y": -1.1290116447,
				"z": -0.233712272,
				"element": "C" 
			},
			{
				"x": -0.853219429,
				"y": -0.9026944619,
				"z": 0.5866424414,
				"element": "C" 
			},
			{
				"x": 1.1798088031,
				"y": 3.1228381978,
				"z": 0.2610762888,
				"element": "H" 
			},
			{
				"x": 3.6716772229,
				"y": 1.571857447,
				"z": 2.6960170535,
				"element": "H" 
			},
			{
				"x": 0.6851673525,
				"y": 1.514999788,
				"z": -1.2571506552,
				"element": "H" 
			},
			{
				"x": -1.2906112955,
				"y": 1.136307989,
				"z": -2.6833266401,
				"element": "H" 
			},
			{
				"x": -2.985314621,
				"y": -0.5673809082,
				"z": -2.044901629,
				"element": "H" 
			},
			{
				"x": -2.6856257893,
				"y": -1.883320888,
				"z": 0.0440482955,
				"element": "H" 
			},
			{
				"x": -0.7140871786,
				"y": -1.4724867637,
				"z": 1.4989563884,
				"element": "H" 
			}
		],
		 "valence_orbital": [ 
			{
				"type": "occ",
				"energy": -0.2976,
				"method": "rhf"
			},
			{
				"type": "occ",
				"energy": -0.2894,
				"method": "rhf"
			},
			{
				"type": "occ",
				"energy": -0.27639,
				"method": "rhf"
			},
			{
				"type": "occ",
				"energy": -0.26326,
				"method": "rhf"
			},
			{
				"type": "occ",
				"energy": -0.24489,
				"method": "rhf"
			},
			{
				"type": "unocc",
				"energy": -0.0851,
				"method": "rhf"
			},
			{
				"type": "unocc",
				"energy": -0.02743,
				"method": "rhf"
			},
			{
				"type": "unocc",
				"energy": -0.01468,
				"method": "rhf"
			},
			{
				"type": "unocc",
				"energy": 0.01411,
				"method": "rhf"
			},
			{
				"type": "unocc",
				"energy": 0.07416,
				"method": "rhf"
			}
		],
		"cosmo_sigma_profile": { 
			"-0.025": 0.0,
			"-0.024": 0.0,
			"-0.023": 0.0,
			"-0.022": 0.0,
			"-0.021": 0.0,
			"-0.02": 0.0,
			"-0.019": 0.12370987489,
			"-0.018": 0.817891751762,
			"-0.017": 1.03759684429,
			"-0.016": 1.17868808457,
			"-0.015": 0.581803794999,
			"-0.014": 0.656013347314,
			"-0.013": 0.865553674343,
			"-0.012": 0.273570922554,
			"-0.011": 1.15966333753,
			"-0.01": 1.17324331605,
			"-0.009": 2.38306665866,
			"-0.008": 4.43038965516,
			"-0.007": 6.07824838115,
			"-0.006": 12.4612933721,
			"-0.005": 13.9637007186,
			"-0.004": 16.3593829844,
			"-0.003": 13.5913965385,
			"-0.002": 13.197087832,
			"-0.001": 11.2170091494,
			"0.0": 10.4679388829,
			"0.001": 10.9159877639,
			"0.002": 11.043319681,
			"0.003": 12.2269198652,
			"0.004": 14.7728343982,
			"0.005": 8.71103376501,
			"0.006": 3.89385699243,
			"0.007": 3.74847361677,
			"0.008": 4.2700249904,
			"0.009": 5.40529572158,
			"0.01": 6.98795900227,
			"0.011": 4.96608774254,
			"0.012": 3.42682859968,
			"0.013": 1.10543226926,
			"0.014": 0.723122430222,
			"0.015": 0.0629924942897,
			"0.016": 0.0,
			"0.017": 0.0,
			"0.018": 0.0,
			"0.019": 0.0,
			"0.02": 0.0,
			"0.021": 0.0,
			"0.022": 0.0,
			"0.023": 0.0,
			"0.024": 0.0,
			"0.025": 0.0
		}
	}
}
