{
	 "smiles": "CC(C)N1C2=C(C=CC=C2)C2=C1C=CC=C2", 
	 "Tm": 393.15, 
	 "num_atms": 31, 
	 "gaussian": { 
		 "optdone": 1, 
		 "sigma_profile": "yes", 
		 "theory": "DFT", 
		 "functional": "B3LYP", 
		 "basiset": "6-31G**", 
		 "properties": { 
			 "R2extent": 3745.9081, 
			 "electric_dipole_moment_norm": 1.99367701998, 
			 "electric_quadrupole_moment_norm": 8.7353704764, 
			 "total_energy": -635.419777756, 
			 "HOMO_LUMO_gap": 0.1716, 
			 "cosmo_polarized_energy": -7.07, 
			 "cosmo_cavitation_energy": 32.52, 
			 "cosmo_dispersion_energy": -23.42, 
			 "cosmo_repulsion_energy": 1.79, 
			 "cosmo_total_nonelectrostatic_energy": 10.88, 
			 "SMD_solvation_energy": 5.18 
		},
		"coords": [
			{
				"x": 1.2731257546,
				"y": 1.5728212698,
				"z": 2.5866945863,
				"element": "C" 
			},
			{
				"x": 1.3778631091,
				"y": 0.6578408976,
				"z": 1.3564324321,
				"element": "C" 
			},
			{
				"x": 2.0329559753,
				"y": -0.6976904248,
				"z": 1.6648436581,
				"element": "C" 
			},
			{
				"x": 0.0874201339,
				"y": 0.5031795424,
				"z": 0.6737574845,
				"element": "N" 
			},
			{
				"x": -0.1768823896,
				"y": 0.9412916423,
				"z": -0.6247048848,
				"element": "C" 
			},
			{
				"x": -1.5211836728,
				"y": 0.6285718579,
				"z": -0.9600070376,
				"element": "C" 
			},
			{
				"x": -2.0243012079,
				"y": 0.9715685573,
				"z": -2.2203317283,
				"element": "C" 
			},
			{
				"x": -1.1934523657,
				"y": 1.6177098959,
				"z": -3.1304767684,
				"element": "C" 
			},
			{
				"x": 0.1351289138,
				"y": 1.9221279012,
				"z": -2.7878996793,
				"element": "C" 
			},
			{
				"x": 0.6598210559,
				"y": 1.5915227696,
				"z": -1.5402402709,
				"element": "C" 
			},
			{
				"x": -2.0921368575,
				"y": -0.0295769967,
				"z": 0.1931440202,
				"element": "C" 
			},
			{
				"x": -1.0704854288,
				"y": -0.0891601106,
				"z": 1.1809809168,
				"element": "C" 
			},
			{
				"x": -1.3185062408,
				"y": -0.6781557689,
				"z": 2.428852183,
				"element": "C" 
			},
			{
				"x": -2.5876863606,
				"y": -1.1998654624,
				"z": 2.6706591778,
				"element": "C" 
			},
			{
				"x": -3.6025911918,
				"y": -1.1452048727,
				"z": 1.7008640096,
				"element": "C" 
			},
			{
				"x": -3.3585377579,
				"y": -0.5612294129,
				"z": 0.4618636503,
				"element": "C" 
			},
			{
				"x": 0.6492310504,
				"y": 1.1377928174,
				"z": 3.3713617748,
				"element": "H" 
			},
			{
				"x": 2.2687094007,
				"y": 1.7471773231,
				"z": 3.007278193,
				"element": "H" 
			},
			{
				"x": 0.8423001817,
				"y": 2.5391561951,
				"z": 2.3098439882,
				"element": "H" 
			},
			{
				"x": 2.0209101854,
				"y": 1.1665530698,
				"z": 0.6337456413,
				"element": "H" 
			},
			{
				"x": 3.0346018852,
				"y": -0.5421389039,
				"z": 2.0783761059,
				"element": "H" 
			},
			{
				"x": 1.4570918413,
				"y": -1.2775470864,
				"z": 2.3903449959,
				"element": "H" 
			},
			{
				"x": 2.1258190834,
				"y": -1.2945615807,
				"z": 0.7531485587,
				"element": "H" 
			},
			{
				"x": -3.051811776,
				"y": 0.7351932997,
				"z": -2.4830898329,
				"element": "H" 
			},
			{
				"x": -1.5708270843,
				"y": 1.8894604867,
				"z": -4.1115982857,
				"element": "H" 
			},
			{
				"x": 0.7708244579,
				"y": 2.4268269403,
				"z": -3.509870925,
				"element": "H" 
			},
			{
				"x": 1.689358031,
				"y": 1.838642384,
				"z": -1.3025763166,
				"element": "H" 
			},
			{
				"x": -0.5564527716,
				"y": -0.735277005,
				"z": 3.1965421314,
				"element": "H" 
			},
			{
				"x": -2.7926935134,
				"y": -1.6589534451,
				"z": 3.6336435139,
				"element": "H" 
			},
			{
				"x": -4.5807756476,
				"y": -1.5613245885,
				"z": 1.921888308,
				"element": "H" 
			},
			{
				"x": -4.1410367934,
				"y": -0.5171511915,
				"z": -0.2907696,
				"element": "H" 
			}
		],
		 "valence_orbital": [ 
			{
				"type": "occ",
				"energy": -0.30921,
				"method": "rhf"
			},
			{
				"type": "occ",
				"energy": -0.27297,
				"method": "rhf"
			},
			{
				"type": "occ",
				"energy": -0.24636,
				"method": "rhf"
			},
			{
				"type": "occ",
				"energy": -0.20727,
				"method": "rhf"
			},
			{
				"type": "occ",
				"energy": -0.19428,
				"method": "rhf"
			},
			{
				"type": "unocc",
				"energy": -0.02268,
				"method": "rhf"
			},
			{
				"type": "unocc",
				"energy": 0.01024,
				"method": "rhf"
			},
			{
				"type": "unocc",
				"energy": 0.03363,
				"method": "rhf"
			},
			{
				"type": "unocc",
				"energy": 0.04816,
				"method": "rhf"
			},
			{
				"type": "unocc",
				"energy": 0.07812,
				"method": "rhf"
			}
		],
		"cosmo_sigma_profile": { 
			"-0.025": 0.0,
			"-0.024": 0.0,
			"-0.023": 0.0,
			"-0.022": 0.0,
			"-0.021": 0.0,
			"-0.02": 0.0,
			"-0.019": 0.0,
			"-0.018": 0.0,
			"-0.017": 0.0,
			"-0.016": 0.0,
			"-0.015": 0.0,
			"-0.014": 0.0,
			"-0.013": 0.0,
			"-0.012": 0.0,
			"-0.011": 0.0,
			"-0.01": 0.0,
			"-0.009": 0.0,
			"-0.008": 0.513259484425,
			"-0.007": 2.34918630113,
			"-0.006": 7.77538466564,
			"-0.005": 17.5237688411,
			"-0.004": 24.4391140279,
			"-0.003": 29.4843290814,
			"-0.002": 24.0622700603,
			"-0.001": 20.9453060576,
			"0.0": 25.6501088783,
			"0.001": 16.9456023571,
			"0.002": 13.8694260133,
			"0.003": 15.4402394943,
			"0.004": 15.9295718618,
			"0.005": 18.2457334135,
			"0.006": 18.0019669189,
			"0.007": 7.63124869823,
			"0.008": 0.0,
			"0.009": 0.0,
			"0.01": 0.0,
			"0.011": 0.0,
			"0.012": 0.0,
			"0.013": 0.0,
			"0.014": 0.0,
			"0.015": 0.0,
			"0.016": 0.0,
			"0.017": 0.0,
			"0.018": 0.0,
			"0.019": 0.0,
			"0.02": 0.0,
			"0.021": 0.0,
			"0.022": 0.0,
			"0.023": 0.0,
			"0.024": 0.0,
			"0.025": 0.0
		}
	}
}
