{
	 "smiles": "ClC1=CC=C(C=C1)P(=O)(C1=CC=C(Cl)C=C1)C1=CC=C(Cl)C=C1", 
	 "Tm": 450.15, 
	 "num_atms": 35, 
	 "gaussian": { 
		 "optdone": 1, 
		 "sigma_profile": "yes", 
		 "theory": "DFT", 
		 "functional": "B3LYP", 
		 "basiset": "6-31G**", 
		 "properties": { 
			 "R2extent": 13589.1702, 
			 "electric_dipole_moment_norm": 2.20341469088, 
			 "electric_quadrupole_moment_norm": 3.01508639346, 
			 "total_energy": -2490.32868351, 
			 "HOMO_LUMO_gap": 0.20912, 
			 "cosmo_polarized_energy": -15.3, 
			 "cosmo_cavitation_energy": 46.73, 
			 "cosmo_dispersion_energy": -32.52, 
			 "cosmo_repulsion_energy": 2.48, 
			 "cosmo_total_nonelectrostatic_energy": 16.69, 
			 "SMD_solvation_energy": 7.8 
		},
		"coords": [
			{
				"x": 2.2006900899,
				"y": 6.7143573067,
				"z": -0.2159032556,
				"element": "Cl" 
			},
			{
				"x": 2.0806242552,
				"y": 5.0143100404,
				"z": 0.2016207772,
				"element": "C" 
			},
			{
				"x": 1.6237981563,
				"y": 4.1072163401,
				"z": -0.754913934,
				"element": "C" 
			},
			{
				"x": 1.5318028687,
				"y": 2.7566764612,
				"z": -0.4185773335,
				"element": "C" 
			},
			{
				"x": 1.8835112562,
				"y": 2.3135342444,
				"z": 0.8641804711,
				"element": "C" 
			},
			{
				"x": 2.3544472933,
				"y": 3.2427481752,
				"z": 1.8036076513,
				"element": "C" 
			},
			{
				"x": 2.4534277697,
				"y": 4.5944885648,
				"z": 1.4790459308,
				"element": "C" 
			},
			{
				"x": 1.783262286,
				"y": 0.5704639089,
				"z": 1.4119604797,
				"element": "P" 
			},
			{
				"x": 2.7500360275,
				"y": 0.260823856,
				"z": 2.5197184325,
				"element": "O" 
			},
			{
				"x": 2.0742858634,
				"y": -0.4546133722,
				"z": -0.0757025855,
				"element": "C" 
			},
			{
				"x": 3.3753237965,
				"y": -0.9471389139,
				"z": -0.2558498131,
				"element": "C" 
			},
			{
				"x": 3.6931940848,
				"y": -1.7272517408,
				"z": -1.3661389635,
				"element": "C" 
			},
			{
				"x": 2.6967456238,
				"y": -2.0173023996,
				"z": -2.2988547741,
				"element": "C" 
			},
			{
				"x": 3.0876057937,
				"y": -2.9978997332,
				"z": -3.7004790611,
				"element": "Cl" 
			},
			{
				"x": 1.3918930392,
				"y": -1.5518258407,
				"z": -2.1339626088,
				"element": "C" 
			},
			{
				"x": 1.085829537,
				"y": -0.7742499257,
				"z": -1.0171560914,
				"element": "C" 
			},
			{
				"x": 0.0437619958,
				"y": 0.2840286387,
				"z": 1.9024261462,
				"element": "C" 
			},
			{
				"x": -0.1764951878,
				"y": -0.651397356,
				"z": 2.9242758117,
				"element": "C" 
			},
			{
				"x": -1.4694465609,
				"y": -0.9428634494,
				"z": 3.355166518,
				"element": "C" 
			},
			{
				"x": -2.5471097381,
				"y": -0.2876096139,
				"z": 2.758245853,
				"element": "C" 
			},
			{
				"x": -4.1787042154,
				"y": -0.6487848827,
				"z": 3.2933454032,
				"element": "Cl" 
			},
			{
				"x": -2.3527801438,
				"y": 0.657731455,
				"z": 1.7507460081,
				"element": "C" 
			},
			{
				"x": -1.0537094878,
				"y": 0.9425345847,
				"z": 1.3302019213,
				"element": "C" 
			},
			{
				"x": 1.3554282533,
				"y": 4.4523341229,
				"z": -1.7472170596,
				"element": "H" 
			},
			{
				"x": 1.2017556755,
				"y": 2.049534148,
				"z": -1.1737327874,
				"element": "H" 
			},
			{
				"x": 2.6600706092,
				"y": 2.8949535289,
				"z": 2.785539416,
				"element": "H" 
			},
			{
				"x": 2.819492559,
				"y": 5.3143027137,
				"z": 2.2026967571,
				"element": "H" 
			},
			{
				"x": 4.1324112056,
				"y": -0.7290454316,
				"z": 0.4910186031,
				"element": "H" 
			},
			{
				"x": 4.6975681077,
				"y": -2.1111788552,
				"z": -1.5062773642,
				"element": "H" 
			},
			{
				"x": 0.6287644139,
				"y": -1.8032480423,
				"z": -2.8621183171,
				"element": "H" 
			},
			{
				"x": 0.0632253406,
				"y": -0.4363603831,
				"z": -0.8778074428,
				"element": "H" 
			},
			{
				"x": 0.6752178957,
				"y": -1.1358097033,
				"z": 3.3916973894,
				"element": "H" 
			},
			{
				"x": -1.6421050783,
				"y": -1.6637122254,
				"z": 4.1466005025,
				"element": "H" 
			},
			{
				"x": -3.2032791448,
				"y": 1.1677480559,
				"z": 1.3121925741,
				"element": "H" 
			},
			{
				"x": -0.9040442405,
				"y": 1.6984057238,
				"z": 0.5650047456,
				"element": "H" 
			}
		],
		 "valence_orbital": [ 
			{
				"type": "occ",
				"energy": -0.27546,
				"method": "rhf"
			},
			{
				"type": "occ",
				"energy": -0.27546,
				"method": "rhf"
			},
			{
				"type": "occ",
				"energy": -0.26283,
				"method": "rhf"
			},
			{
				"type": "occ",
				"energy": -0.26281,
				"method": "rhf"
			},
			{
				"type": "occ",
				"energy": -0.25695,
				"method": "rhf"
			},
			{
				"type": "unocc",
				"energy": -0.04783,
				"method": "rhf"
			},
			{
				"type": "unocc",
				"energy": -0.04781,
				"method": "rhf"
			},
			{
				"type": "unocc",
				"energy": -0.03353,
				"method": "rhf"
			},
			{
				"type": "unocc",
				"energy": -0.03242,
				"method": "rhf"
			},
			{
				"type": "unocc",
				"energy": -0.02728,
				"method": "rhf"
			}
		],
		"cosmo_sigma_profile": { 
			"-0.025": 0.0,
			"-0.024": 0.0,
			"-0.023": 0.0,
			"-0.022": 0.0,
			"-0.021": 0.0,
			"-0.02": 0.0,
			"-0.019": 0.0,
			"-0.018": 0.0,
			"-0.017": 0.0,
			"-0.016": 0.0,
			"-0.015": 0.0416595211055,
			"-0.014": 0.170402994584,
			"-0.013": 0.154698567134,
			"-0.012": 0.0645194706702,
			"-0.011": 0.430660586588,
			"-0.01": 0.376736552243,
			"-0.009": 0.399468601978,
			"-0.008": 6.67739024381,
			"-0.007": 17.9755345238,
			"-0.006": 24.4228084159,
			"-0.005": 17.5956704994,
			"-0.004": 16.473717137,
			"-0.003": 21.111593924,
			"-0.002": 23.1132755958,
			"-0.001": 25.8697326188,
			"0.0": 36.6242243032,
			"0.001": 46.9695717619,
			"0.002": 53.7494052169,
			"0.003": 30.5122073661,
			"0.004": 31.870391917,
			"0.005": 8.75602568676,
			"0.006": 1.6727288065,
			"0.007": 1.51881933244,
			"0.008": 1.66299073641,
			"0.009": 1.2880826787,
			"0.01": 0.906106555181,
			"0.011": 1.08524815201,
			"0.012": 1.43770189856,
			"0.013": 1.25905524749,
			"0.014": 1.52263587158,
			"0.015": 4.87215719888,
			"0.016": 1.33348798554,
			"0.017": 0.0,
			"0.018": 0.0,
			"0.019": 0.0,
			"0.02": 0.0,
			"0.021": 0.0,
			"0.022": 0.0,
			"0.023": 0.0,
			"0.024": 0.0,
			"0.025": 0.0
		}
	}
}
