{
	 "smiles": "CC1=NC(COC2=CC=C(C=CC(O)=O)C=C2)=CS1", 
	 "Tm": 459.15, 
	 "num_atms": 32, 
	 "gaussian": { 
		 "optdone": 1, 
		 "sigma_profile": "yes", 
		 "theory": "DFT", 
		 "functional": "B3LYP", 
		 "basiset": "6-31G**", 
		 "properties": { 
			 "R2extent": 8389.48, 
			 "electric_dipole_moment_norm": 1.92766331604, 
			 "electric_quadrupole_moment_norm": 6.34534010357, 
			 "total_energy": -1219.92002638, 
			 "HOMO_LUMO_gap": 0.15401, 
			 "cosmo_polarized_energy": -15.87, 
			 "cosmo_cavitation_energy": 38.95, 
			 "cosmo_dispersion_energy": -28.27, 
			 "cosmo_repulsion_energy": 2.16, 
			 "cosmo_total_nonelectrostatic_energy": 12.83, 
			 "SMD_solvation_energy": 6.36 
		},
		"coords": [
			{
				"x": -3.7729625552,
				"y": -3.0210606464,
				"z": -2.5239981488,
				"element": "C" 
			},
			{
				"x": -2.3425595883,
				"y": -2.6972720276,
				"z": -2.2186243636,
				"element": "C" 
			},
			{
				"x": -1.7189431195,
				"y": -3.0672305431,
				"z": -1.1400574063,
				"element": "N" 
			},
			{
				"x": -0.4118112843,
				"y": -2.6208458638,
				"z": -1.1237954824,
				"element": "C" 
			},
			{
				"x": 0.4695140841,
				"y": -2.9921633231,
				"z": 0.0388624793,
				"element": "C" 
			},
			{
				"x": -0.0610816174,
				"y": -2.6005347533,
				"z": 1.3080010143,
				"element": "O" 
			},
			{
				"x": 0.0218342402,
				"y": -1.3070732243,
				"z": 1.7208243139,
				"element": "C" 
			},
			{
				"x": 0.6330431733,
				"y": -0.2631828953,
				"z": 1.0113775665,
				"element": "C" 
			},
			{
				"x": 0.6825158893,
				"y": 1.0187520379,
				"z": 1.550997411,
				"element": "C" 
			},
			{
				"x": 0.121660186,
				"y": 1.3043744733,
				"z": 2.8117988421,
				"element": "C" 
			},
			{
				"x": 0.1117838922,
				"y": 2.6029194373,
				"z": 3.4746811995,
				"element": "C" 
			},
			{
				"x": 0.568536118,
				"y": 3.8512885477,
				"z": 3.1951115756,
				"element": "C" 
			},
			{
				"x": 1.2928138299,
				"y": 4.3689118332,
				"z": 2.028935409,
				"element": "C" 
			},
			{
				"x": 1.5469265227,
				"y": 5.6987698521,
				"z": 2.1905273943,
				"element": "O" 
			},
			{
				"x": 1.6601519416,
				"y": 3.7878184761,
				"z": 1.0189905665,
				"element": "O" 
			},
			{
				"x": -0.4947908463,
				"y": 0.2342975352,
				"z": 3.5041166589,
				"element": "C" 
			},
			{
				"x": -0.5476993459,
				"y": -1.0436201194,
				"z": 2.9777234072,
				"element": "C" 
			},
			{
				"x": -0.0262374534,
				"y": -1.9005828127,
				"z": -2.2191393298,
				"element": "C" 
			},
			{
				"x": -1.3442510939,
				"y": -1.7572751119,
				"z": -3.3346228629,
				"element": "S" 
			},
			{
				"x": -3.8686038558,
				"y": -3.5784313443,
				"z": -3.4616541103,
				"element": "H" 
			},
			{
				"x": -4.1702854528,
				"y": -3.6290790537,
				"z": -1.7093985045,
				"element": "H" 
			},
			{
				"x": -4.3785241477,
				"y": -2.1129034517,
				"z": -2.6129836791,
				"element": "H" 
			},
			{
				"x": 0.5364489525,
				"y": -4.0812019043,
				"z": 0.1118914885,
				"element": "H" 
			},
			{
				"x": 1.4818963028,
				"y": -2.5962761122,
				"z": -0.1024879994,
				"element": "H" 
			},
			{
				"x": 1.0630524243,
				"y": -0.433351162,
				"z": 0.03290682,
				"element": "H" 
			},
			{
				"x": 1.1572866534,
				"y": 1.8166052714,
				"z": 0.9950217327,
				"element": "H" 
			},
			{
				"x": -0.3914829412,
				"y": 2.5520200004,
				"z": 4.4408396803,
				"element": "H" 
			},
			{
				"x": 0.3798634782,
				"y": 4.6133204196,
				"z": 3.9445511549,
				"element": "H" 
			},
			{
				"x": 2.0234306242,
				"y": 5.9696187344,
				"z": 1.38897824,
				"element": "H" 
			},
			{
				"x": -0.9392912176,
				"y": 0.4205113292,
				"z": 4.4786973842,
				"element": "H" 
			},
			{
				"x": -1.0198735159,
				"y": -1.859617884,
				"z": 3.5143045794,
				"element": "H" 
			},
			{
				"x": 0.9361397225,
				"y": -1.4543057148,
				"z": -2.427777031,
				"element": "H" 
			}
		],
		 "valence_orbital": [ 
			{
				"type": "occ",
				"energy": -0.27679,
				"method": "rhf"
			},
			{
				"type": "occ",
				"energy": -0.26413,
				"method": "rhf"
			},
			{
				"type": "occ",
				"energy": -0.25379,
				"method": "rhf"
			},
			{
				"type": "occ",
				"energy": -0.24545,
				"method": "rhf"
			},
			{
				"type": "occ",
				"energy": -0.21192,
				"method": "rhf"
			},
			{
				"type": "unocc",
				"energy": -0.05791,
				"method": "rhf"
			},
			{
				"type": "unocc",
				"energy": -0.03029,
				"method": "rhf"
			},
			{
				"type": "unocc",
				"energy": -0.00042,
				"method": "rhf"
			},
			{
				"type": "unocc",
				"energy": 0.01276,
				"method": "rhf"
			},
			{
				"type": "unocc",
				"energy": 0.02974,
				"method": "rhf"
			}
		],
		"cosmo_sigma_profile": { 
			"-0.025": 0.0,
			"-0.024": 0.0,
			"-0.023": 0.0,
			"-0.022": 0.0,
			"-0.021": 0.0,
			"-0.02": 0.0,
			"-0.019": 0.0,
			"-0.018": 0.17490084304,
			"-0.017": 0.964275844351,
			"-0.016": 0.87737885498,
			"-0.015": 0.730292989606,
			"-0.014": 0.609659305386,
			"-0.013": 0.608565391557,
			"-0.012": 0.561981359012,
			"-0.011": 1.02813784288,
			"-0.01": 1.29607151608,
			"-0.009": 4.27235235966,
			"-0.008": 4.96901776388,
			"-0.007": 9.90206717808,
			"-0.006": 18.670217781,
			"-0.005": 21.3831888664,
			"-0.004": 20.6227913619,
			"-0.003": 17.5672300701,
			"-0.002": 18.4913031174,
			"-0.001": 20.2017912884,
			"0.0": 16.994694483,
			"0.001": 22.35888435,
			"0.002": 31.3487020422,
			"0.003": 31.4238536481,
			"0.004": 24.7156909463,
			"0.005": 8.09494011367,
			"0.006": 5.69760205365,
			"0.007": 4.87880307451,
			"0.008": 4.79295988786,
			"0.009": 5.92121724321,
			"0.01": 4.86415353051,
			"0.011": 3.95003742644,
			"0.012": 2.8474271552,
			"0.013": 1.33094375535,
			"0.014": 1.04764839952,
			"0.015": 0.585215577005,
			"0.016": 0.0541732088641,
			"0.017": 0.0,
			"0.018": 0.0,
			"0.019": 0.0,
			"0.02": 0.0,
			"0.021": 0.0,
			"0.022": 0.0,
			"0.023": 0.0,
			"0.024": 0.0,
			"0.025": 0.0
		}
	}
}
