{
	 "smiles": "OCC1=CC=C(CC(O)=O)C=C1", 
	 "Tm": 406.15, 
	 "num_atms": 22, 
	 "gaussian": { 
		 "optdone": 1, 
		 "sigma_profile": "yes", 
		 "theory": "DFT", 
		 "functional": "B3LYP", 
		 "basiset": "6-31G**", 
		 "properties": { 
			 "R2extent": 3232.8973, 
			 "electric_dipole_moment_norm": 3.22031030492, 
			 "electric_quadrupole_moment_norm": 4.62607105652, 
			 "total_energy": -574.660025423, 
			 "HOMO_LUMO_gap": 0.23257, 
			 "cosmo_polarized_energy": -14.79, 
			 "cosmo_cavitation_energy": 26.76, 
			 "cosmo_dispersion_energy": -18.99, 
			 "cosmo_repulsion_energy": 1.55, 
			 "cosmo_total_nonelectrostatic_energy": 9.32, 
			 "SMD_solvation_energy": 5.74 
		},
		"coords": [
			{
				"x": -0.39623539,
				"y": 1.555469715,
				"z": 2.7348608318,
				"element": "O" 
			},
			{
				"x": -1.154770636,
				"y": 2.1071018005,
				"z": 1.653673419,
				"element": "C" 
			},
			{
				"x": -1.118411796,
				"y": 1.2453240627,
				"z": 0.4142954636,
				"element": "C" 
			},
			{
				"x": -0.1046198794,
				"y": 1.4040652189,
				"z": -0.5401291598,
				"element": "C" 
			},
			{
				"x": -0.0331203528,
				"y": 0.5663500793,
				"z": -1.6517359705,
				"element": "C" 
			},
			{
				"x": -0.9692863349,
				"y": -0.4573690805,
				"z": -1.8379843916,
				"element": "C" 
			},
			{
				"x": -0.8852834376,
				"y": -1.3709175264,
				"z": -3.0362395488,
				"element": "C" 
			},
			{
				"x": -0.0377316606,
				"y": -2.613789544,
				"z": -2.80195412,
				"element": "C" 
			},
			{
				"x": -0.0083236204,
				"y": -3.3852905126,
				"z": -3.9177722915,
				"element": "O" 
			},
			{
				"x": 0.5437487887,
				"y": -2.911529733,
				"z": -1.7851111271,
				"element": "O" 
			},
			{
				"x": -1.9825181391,
				"y": -0.6176181598,
				"z": -0.8857361061,
				"element": "C" 
			},
			{
				"x": -2.0547191548,
				"y": 0.2197378201,
				"z": 0.2260990445,
				"element": "C" 
			},
			{
				"x": -0.0129427745,
				"y": 0.7249322181,
				"z": 2.4280118732,
				"element": "H" 
			},
			{
				"x": -2.1933225563,
				"y": 2.2360643103,
				"z": 1.9879348821,
				"element": "H" 
			},
			{
				"x": -0.7585510744,
				"y": 3.1059541727,
				"z": 1.4250775399,
				"element": "H" 
			},
			{
				"x": 0.6295426646,
				"y": 2.1958089147,
				"z": -0.4131133298,
				"element": "H" 
			},
			{
				"x": 0.7581009179,
				"y": 0.7100984422,
				"z": -2.3833320015,
				"element": "H" 
			},
			{
				"x": -1.8790624556,
				"y": -1.7122614972,
				"z": -3.3489721209,
				"element": "H" 
			},
			{
				"x": -0.4640042878,
				"y": -0.8522842971,
				"z": -3.9054133984,
				"element": "H" 
			},
			{
				"x": 0.544966971,
				"y": -4.1538934053,
				"z": -3.6991042421,
				"element": "H" 
			},
			{
				"x": -2.7221885008,
				"y": -1.4036784496,
				"z": -1.015823006,
				"element": "H" 
			},
			{
				"x": -2.8503672913,
				"y": 0.0824254507,
				"z": 0.9541677598,
				"element": "H" 
			}
		],
		 "valence_orbital": [ 
			{
				"type": "occ",
				"energy": -0.32113,
				"method": "rhf"
			},
			{
				"type": "occ",
				"energy": -0.28081,
				"method": "rhf"
			},
			{
				"type": "occ",
				"energy": -0.26312,
				"method": "rhf"
			},
			{
				"type": "occ",
				"energy": -0.2545,
				"method": "rhf"
			},
			{
				"type": "occ",
				"energy": -0.24908,
				"method": "rhf"
			},
			{
				"type": "unocc",
				"energy": -0.01651,
				"method": "rhf"
			},
			{
				"type": "unocc",
				"energy": -0.01164,
				"method": "rhf"
			},
			{
				"type": "unocc",
				"energy": 0.00878,
				"method": "rhf"
			},
			{
				"type": "unocc",
				"energy": 0.07509,
				"method": "rhf"
			},
			{
				"type": "unocc",
				"energy": 0.08677,
				"method": "rhf"
			}
		],
		"cosmo_sigma_profile": { 
			"-0.025": 0.0,
			"-0.024": 0.0,
			"-0.023": 0.0,
			"-0.022": 0.0,
			"-0.021": 0.0,
			"-0.02": 0.0,
			"-0.019": 0.0,
			"-0.018": 0.542806201385,
			"-0.017": 0.946218646176,
			"-0.016": 1.10188954961,
			"-0.015": 0.725384522729,
			"-0.014": 1.2108738483,
			"-0.013": 1.49200183731,
			"-0.012": 1.43963888862,
			"-0.011": 1.20871330384,
			"-0.01": 1.60841418776,
			"-0.009": 1.88882889109,
			"-0.008": 0.714498432643,
			"-0.007": 6.60047504273,
			"-0.006": 14.6655630329,
			"-0.005": 16.4426084715,
			"-0.004": 18.4501663598,
			"-0.003": 17.1100300914,
			"-0.002": 15.0560760823,
			"-0.001": 12.983682393,
			"0.0": 9.73049552519,
			"0.001": 8.94010845646,
			"0.002": 9.60717939062,
			"0.003": 7.782228646,
			"0.004": 10.2243188098,
			"0.005": 10.9714657277,
			"0.006": 4.46978475125,
			"0.007": 3.74887816544,
			"0.008": 5.06568288704,
			"0.009": 4.87854351392,
			"0.01": 4.25312288983,
			"0.011": 5.91061682462,
			"0.012": 5.79186281091,
			"0.013": 1.89411976966,
			"0.014": 2.58894820233,
			"0.015": 1.21428370615,
			"0.016": 0.0,
			"0.017": 0.0,
			"0.018": 0.0,
			"0.019": 0.0,
			"0.02": 0.0,
			"0.021": 0.0,
			"0.022": 0.0,
			"0.023": 0.0,
			"0.024": 0.0,
			"0.025": 0.0
		}
	}
}
