{
	 "smiles": "COC(=O)C1=CC(Cl)=CC=C1Cl", 
	 "Tm": 311.95, 
	 "num_atms": 18, 
	 "gaussian": { 
		 "optdone": 1, 
		 "sigma_profile": "yes", 
		 "theory": "DFT", 
		 "functional": "B3LYP", 
		 "basiset": "6-31G**", 
		 "properties": { 
			 "R2extent": 4313.7784, 
			 "electric_dipole_moment_norm": 1.80895002971, 
			 "electric_quadrupole_moment_norm": 11.486700165, 
			 "total_energy": -1379.30145826, 
			 "HOMO_LUMO_gap": 0.18956, 
			 "cosmo_polarized_energy": -7.26, 
			 "cosmo_cavitation_energy": 26.4, 
			 "cosmo_dispersion_energy": -19.56, 
			 "cosmo_repulsion_energy": 1.56, 
			 "cosmo_total_nonelectrostatic_energy": 8.4, 
			 "SMD_solvation_energy": 5.64 
		},
		"coords": [
			{
				"x": -1.7810990457,
				"y": 0.5587029268,
				"z": -1.8532252063,
				"element": "C" 
			},
			{
				"x": -0.8187304809,
				"y": 0.4560982913,
				"z": -0.7889810299,
				"element": "O" 
			},
			{
				"x": 0.3518254058,
				"y": 1.0678579766,
				"z": -1.0150547366,
				"element": "C" 
			},
			{
				"x": 0.6097396179,
				"y": 1.6552837429,
				"z": -2.0482718143,
				"element": "O" 
			},
			{
				"x": 1.3437075207,
				"y": 0.936134022,
				"z": 0.1075464859,
				"element": "C" 
			},
			{
				"x": 2.6573408557,
				"y": 1.2850429599,
				"z": -0.2516162467,
				"element": "C" 
			},
			{
				"x": 3.695063679,
				"y": 1.2073772338,
				"z": 0.6654627007,
				"element": "C" 
			},
			{
				"x": 5.3221668048,
				"y": 1.6409458405,
				"z": 0.1761490889,
				"element": "Cl" 
			},
			{
				"x": 3.456115451,
				"y": 0.788867321,
				"z": 1.9743480655,
				"element": "C" 
			},
			{
				"x": 2.1592640784,
				"y": 0.4546721609,
				"z": 2.3491414379,
				"element": "C" 
			},
			{
				"x": 1.1049581938,
				"y": 0.5225578035,
				"z": 1.4325684304,
				"element": "C" 
			},
			{
				"x": -0.4778325181,
				"y": 0.1062720469,
				"z": 2.0586480572,
				"element": "Cl" 
			},
			{
				"x": -2.662228127,
				"y": 0.025100619,
				"z": -1.4987076456,
				"element": "H" 
			},
			{
				"x": -2.0176828736,
				"y": 1.6058077544,
				"z": -2.055888092,
				"element": "H" 
			},
			{
				"x": -1.3918789177,
				"y": 0.100702124,
				"z": -2.7656481614,
				"element": "H" 
			},
			{
				"x": 2.8309034506,
				"y": 1.6184765976,
				"z": -1.2674295419,
				"element": "H" 
			},
			{
				"x": 4.2681313228,
				"y": 0.729690638,
				"z": 2.690419893,
				"element": "H" 
			},
			{
				"x": 1.9530355824,
				"y": 0.1389099407,
				"z": 3.3654383152,
				"element": "H" 
			}
		],
		 "valence_orbital": [ 
			{
				"type": "occ",
				"energy": -0.31521,
				"method": "rhf"
			},
			{
				"type": "occ",
				"energy": -0.30726,
				"method": "rhf"
			},
			{
				"type": "occ",
				"energy": -0.28922,
				"method": "rhf"
			},
			{
				"type": "occ",
				"energy": -0.27973,
				"method": "rhf"
			},
			{
				"type": "occ",
				"energy": -0.2529,
				"method": "rhf"
			},
			{
				"type": "unocc",
				"energy": -0.06334,
				"method": "rhf"
			},
			{
				"type": "unocc",
				"energy": -0.03095,
				"method": "rhf"
			},
			{
				"type": "unocc",
				"energy": 0.01238,
				"method": "rhf"
			},
			{
				"type": "unocc",
				"energy": 0.03024,
				"method": "rhf"
			},
			{
				"type": "unocc",
				"energy": 0.03832,
				"method": "rhf"
			}
		],
		"cosmo_sigma_profile": { 
			"-0.025": 0.0,
			"-0.024": 0.0,
			"-0.023": 0.0,
			"-0.022": 0.0,
			"-0.021": 0.0,
			"-0.02": 0.0,
			"-0.019": 0.0,
			"-0.018": 0.0,
			"-0.017": 0.0,
			"-0.016": 0.0,
			"-0.015": 0.0,
			"-0.014": 0.0,
			"-0.013": 0.0,
			"-0.012": 0.0,
			"-0.011": 0.0,
			"-0.01": 0.0,
			"-0.009": 0.989162237208,
			"-0.008": 4.19311720065,
			"-0.007": 5.66495205776,
			"-0.006": 10.2790467363,
			"-0.005": 10.9027535762,
			"-0.004": 15.3084902742,
			"-0.003": 16.2904678553,
			"-0.002": 14.2898780281,
			"-0.001": 18.0338047577,
			"0.0": 27.2183963148,
			"0.001": 22.4105052649,
			"0.002": 13.1779376,
			"0.003": 15.0487281798,
			"0.004": 18.5898520797,
			"0.005": 6.44411808751,
			"0.006": 3.24516561308,
			"0.007": 2.67619082029,
			"0.008": 2.80413343583,
			"0.009": 1.25766494986,
			"0.01": 2.12667190088,
			"0.011": 3.82171260702,
			"0.012": 1.68097981594,
			"0.013": 0.0,
			"0.014": 0.0,
			"0.015": 0.0,
			"0.016": 0.0,
			"0.017": 0.0,
			"0.018": 0.0,
			"0.019": 0.0,
			"0.02": 0.0,
			"0.021": 0.0,
			"0.022": 0.0,
			"0.023": 0.0,
			"0.024": 0.0,
			"0.025": 0.0
		}
	}
}
