{
	 "smiles": "NC(=O)C1=CC=C(C=C1)[N+]([O-])=O", 
	 "Tm": 474.15, 
	 "num_atms": 18, 
	 "gaussian": { 
		 "optdone": 1, 
		 "sigma_profile": "yes", 
		 "theory": "DFT", 
		 "functional": "B3LYP", 
		 "basiset": "6-31G**", 
		 "properties": { 
			 "R2extent": 2726.0099, 
			 "electric_dipole_moment_norm": 4.67748707, 
			 "electric_quadrupole_moment_norm": 15.1955143046, 
			 "total_energy": -605.451821307, 
			 "HOMO_LUMO_gap": 0.16705, 
			 "cosmo_polarized_energy": -16.24, 
			 "cosmo_cavitation_energy": 23.66, 
			 "cosmo_dispersion_energy": -17.5, 
			 "cosmo_repulsion_energy": 1.39, 
			 "cosmo_total_nonelectrostatic_energy": 7.55, 
			 "SMD_solvation_energy": 7.21 
		},
		"coords": [
			{
				"x": -0.3650896281,
				"y": 3.8916064145,
				"z": 0.1080832077,
				"element": "N" 
			},
			{
				"x": -1.1332506438,
				"y": 2.9163725286,
				"z": -0.4752172841,
				"element": "C" 
			},
			{
				"x": -1.9600292472,
				"y": 3.1662744369,
				"z": -1.3418569993,
				"element": "O" 
			},
			{
				"x": -0.9237662642,
				"y": 1.5113217469,
				"z": 0.0292374443,
				"element": "C" 
			},
			{
				"x": -1.3779416127,
				"y": 0.4658651502,
				"z": -0.7867413446,
				"element": "C" 
			},
			{
				"x": -1.2223087686,
				"y": -0.8581903675,
				"z": -0.3920963949,
				"element": "C" 
			},
			{
				"x": -0.618907968,
				"y": -1.1200940243,
				"z": 0.8371788216,
				"element": "C" 
			},
			{
				"x": -0.1770417415,
				"y": -0.1029851813,
				"z": 1.6797846639,
				"element": "C" 
			},
			{
				"x": -0.3334767109,
				"y": 1.217764533,
				"z": 1.2673023826,
				"element": "C" 
			},
			{
				"x": -0.4488599019,
				"y": -2.5207154999,
				"z": 1.265525994,
				"element": "N" 
			},
			{
				"x": 0.0842418452,
				"y": -2.7215771476,
				"z": 2.3558751907,
				"element": "O" 
			},
			{
				"x": -0.8492061961,
				"y": -3.4003551874,
				"z": 0.5053957895,
				"element": "O" 
			},
			{
				"x": 0.5018142306,
				"y": 3.6629474828,
				"z": 0.568485134,
				"element": "H" 
			},
			{
				"x": -0.4366951348,
				"y": 4.8096220285,
				"z": -0.3069962052,
				"element": "H" 
			},
			{
				"x": -1.8542716684,
				"y": 0.7178277715,
				"z": -1.7275653659,
				"element": "H" 
			},
			{
				"x": -1.5569689413,
				"y": -1.6830083492,
				"z": -1.0084977918,
				"element": "H" 
			},
			{
				"x": 0.2689301216,
				"y": -0.3562301772,
				"z": 2.6332318042,
				"element": "H" 
			},
			{
				"x": -0.0230717698,
				"y": 2.0167538414,
				"z": 1.9330709533,
				"element": "H" 
			}
		],
		 "valence_orbital": [ 
			{
				"type": "occ",
				"energy": -0.29753,
				"method": "rhf"
			},
			{
				"type": "occ",
				"energy": -0.29119,
				"method": "rhf"
			},
			{
				"type": "occ",
				"energy": -0.29057,
				"method": "rhf"
			},
			{
				"type": "occ",
				"energy": -0.28618,
				"method": "rhf"
			},
			{
				"type": "occ",
				"energy": -0.26834,
				"method": "rhf"
			},
			{
				"type": "unocc",
				"energy": -0.10129,
				"method": "rhf"
			},
			{
				"type": "unocc",
				"energy": -0.03798,
				"method": "rhf"
			},
			{
				"type": "unocc",
				"energy": -0.03163,
				"method": "rhf"
			},
			{
				"type": "unocc",
				"energy": 0.04463,
				"method": "rhf"
			},
			{
				"type": "unocc",
				"energy": 0.0607,
				"method": "rhf"
			}
		],
		"cosmo_sigma_profile": { 
			"-0.025": 0.0,
			"-0.024": 0.0,
			"-0.023": 0.0,
			"-0.022": 0.0,
			"-0.021": 0.0,
			"-0.02": 0.0,
			"-0.019": 0.0,
			"-0.018": 0.0,
			"-0.017": 0.0,
			"-0.016": 0.0,
			"-0.015": 0.667907855343,
			"-0.014": 2.33539288699,
			"-0.013": 2.8067282466,
			"-0.012": 2.17908776817,
			"-0.011": 3.33989924667,
			"-0.01": 2.51578288693,
			"-0.009": 3.09893928615,
			"-0.008": 4.79335896149,
			"-0.007": 8.06565773442,
			"-0.006": 8.5042040917,
			"-0.005": 7.89971691687,
			"-0.004": 8.77434307735,
			"-0.003": 9.67548852837,
			"-0.002": 12.2840769955,
			"-0.001": 15.0890836837,
			"0.0": 16.9703760574,
			"0.001": 14.7722060587,
			"0.002": 6.53964303849,
			"0.003": 5.18408287203,
			"0.004": 4.37458690664,
			"0.005": 5.88369681114,
			"0.006": 5.09109394846,
			"0.007": 11.7097688039,
			"0.008": 7.25362869391,
			"0.009": 5.55616868726,
			"0.01": 3.43893623739,
			"0.011": 1.53467855838,
			"0.012": 3.01054240455,
			"0.013": 5.32166250413,
			"0.014": 1.04752981239,
			"0.015": 0.0,
			"0.016": 0.0,
			"0.017": 0.0,
			"0.018": 0.0,
			"0.019": 0.0,
			"0.02": 0.0,
			"0.021": 0.0,
			"0.022": 0.0,
			"0.023": 0.0,
			"0.024": 0.0,
			"0.025": 0.0
		}
	}
}
