{
	 "smiles": "NNC(=O)C(N)CC1=CC=C(O)C=C1", 
	 "Tm": 470.15, 
	 "num_atms": 27, 
	 "gaussian": { 
		 "optdone": 1, 
		 "sigma_profile": "yes", 
		 "theory": "DFT", 
		 "functional": "B3LYP", 
		 "basiset": "6-31G**", 
		 "properties": { 
			 "R2extent": 3363.6444, 
			 "electric_dipole_moment_norm": 1.58992250755, 
			 "electric_quadrupole_moment_norm": 14.2840111338, 
			 "total_energy": -665.474086767, 
			 "HOMO_LUMO_gap": 0.211, 
			 "cosmo_polarized_energy": -19.43, 
			 "cosmo_cavitation_energy": 31.09, 
			 "cosmo_dispersion_energy": -21.22, 
			 "cosmo_repulsion_energy": 1.71, 
			 "cosmo_total_nonelectrostatic_energy": 11.58, 
			 "SMD_solvation_energy": 5.11 
		},
		"coords": [
			{
				"x": 0.1083946785,
				"y": -3.0964281206,
				"z": 2.1151859193,
				"element": "N" 
			},
			{
				"x": -0.7134215144,
				"y": -2.1181364327,
				"z": 1.5102415224,
				"element": "N" 
			},
			{
				"x": -0.9762439857,
				"y": -0.936257533,
				"z": 2.1441412479,
				"element": "C" 
			},
			{
				"x": -0.6704126951,
				"y": -0.7423917689,
				"z": 3.3186301437,
				"element": "O" 
			},
			{
				"x": -1.6923478936,
				"y": 0.1387440598,
				"z": 1.3112115325,
				"element": "C" 
			},
			{
				"x": -2.7805003988,
				"y": 0.7659047777,
				"z": 2.0633312794,
				"element": "N" 
			},
			{
				"x": -0.678974452,
				"y": 1.2310135664,
				"z": 0.8866407428,
				"element": "C" 
			},
			{
				"x": 0.4436943951,
				"y": 0.7245523216,
				"z": 0.008561914,
				"element": "C" 
			},
			{
				"x": 1.6999313274,
				"y": 0.408789516,
				"z": 0.5403091744,
				"element": "C" 
			},
			{
				"x": 2.7260833278,
				"y": -0.0883466157,
				"z": -0.2640679999,
				"element": "C" 
			},
			{
				"x": 2.5088867565,
				"y": -0.2814056776,
				"z": -1.6316577664,
				"element": "C" 
			},
			{
				"x": 3.4699983484,
				"y": -0.7632525629,
				"z": -2.4752152093,
				"element": "O" 
			},
			{
				"x": 1.261250493,
				"y": 0.0297238355,
				"z": -2.1846847144,
				"element": "C" 
			},
			{
				"x": 0.2493493492,
				"y": 0.5266272858,
				"z": -1.368139334,
				"element": "C" 
			},
			{
				"x": -0.4808033971,
				"y": -3.6324220773,
				"z": 2.7515099291,
				"element": "H" 
			},
			{
				"x": 0.763018904,
				"y": -2.5938861189,
				"z": 2.7165886742,
				"element": "H" 
			},
			{
				"x": -0.7058972608,
				"y": -2.1402357422,
				"z": 0.499320838,
				"element": "H" 
			},
			{
				"x": -2.1168920519,
				"y": -0.3146985019,
				"z": 0.4065917223,
				"element": "H" 
			},
			{
				"x": -2.4165107579,
				"y": 0.9892414804,
				"z": 2.98984989,
				"element": "H" 
			},
			{
				"x": -3.5205456088,
				"y": 0.0843682622,
				"z": 2.2210366698,
				"element": "H" 
			},
			{
				"x": -1.2546167925,
				"y": 2.0101451832,
				"z": 0.3768106982,
				"element": "H" 
			},
			{
				"x": -0.27036429,
				"y": 1.6771599173,
				"z": 1.8006308029,
				"element": "H" 
			},
			{
				"x": 1.8809599706,
				"y": 0.5530305014,
				"z": 1.6024745088,
				"element": "H" 
			},
			{
				"x": 3.6951913819,
				"y": -0.3230873274,
				"z": 0.1719046041,
				"element": "H" 
			},
			{
				"x": 4.2757292183,
				"y": -0.9356201447,
				"z": -1.9711022414,
				"element": "H" 
			},
			{
				"x": 1.1086665747,
				"y": -0.1153022378,
				"z": -3.249198392,
				"element": "H" 
			},
			{
				"x": -0.7116236269,
				"y": 0.7766701542,
				"z": -1.8125061564,
				"element": "H" 
			}
		],
		 "valence_orbital": [ 
			{
				"type": "occ",
				"energy": -0.26832,
				"method": "rhf"
			},
			{
				"type": "occ",
				"energy": -0.25541,
				"method": "rhf"
			},
			{
				"type": "occ",
				"energy": -0.25507,
				"method": "rhf"
			},
			{
				"type": "occ",
				"energy": -0.2363,
				"method": "rhf"
			},
			{
				"type": "occ",
				"energy": -0.21909,
				"method": "rhf"
			},
			{
				"type": "unocc",
				"energy": -0.00809,
				"method": "rhf"
			},
			{
				"type": "unocc",
				"energy": 0.0081,
				"method": "rhf"
			},
			{
				"type": "unocc",
				"energy": 0.0215,
				"method": "rhf"
			},
			{
				"type": "unocc",
				"energy": 0.06857,
				"method": "rhf"
			},
			{
				"type": "unocc",
				"energy": 0.08346,
				"method": "rhf"
			}
		],
		"cosmo_sigma_profile": { 
			"-0.025": 0.0,
			"-0.024": 0.0,
			"-0.023": 0.0,
			"-0.022": 0.0,
			"-0.021": 0.0,
			"-0.02": 0.0,
			"-0.019": 0.0,
			"-0.018": 0.120228078732,
			"-0.017": 1.02626699762,
			"-0.016": 1.2013122423,
			"-0.015": 0.903890025353,
			"-0.014": 1.3001302679,
			"-0.013": 1.76004381133,
			"-0.012": 1.61597587209,
			"-0.011": 3.06758658272,
			"-0.01": 6.04407262406,
			"-0.009": 7.14395802329,
			"-0.008": 6.6197262376,
			"-0.007": 6.09951657107,
			"-0.006": 9.90288585593,
			"-0.005": 14.6918431415,
			"-0.004": 18.8431195399,
			"-0.003": 16.3245530162,
			"-0.002": 12.2411387636,
			"-0.001": 12.7743321967,
			"0.0": 13.1909193046,
			"0.001": 12.9368975683,
			"0.002": 10.5803246143,
			"0.003": 12.597995842,
			"0.004": 15.4701630368,
			"0.005": 11.484837189,
			"0.006": 7.78892916956,
			"0.007": 3.94367650912,
			"0.008": 4.74466413088,
			"0.009": 3.75362938202,
			"0.01": 3.37728400606,
			"0.011": 4.65429746101,
			"0.012": 4.49145900243,
			"0.013": 4.70195015127,
			"0.014": 3.72860449161,
			"0.015": 1.2836129937,
			"0.016": 1.26328256931,
			"0.017": 0.884400085008,
			"0.018": 0.522225218551,
			"0.019": 0.195302597415,
			"0.02": 0.0,
			"0.021": 0.0,
			"0.022": 0.0,
			"0.023": 0.0,
			"0.024": 0.0,
			"0.025": 0.0
		}
	}
}
