{
	 "smiles": "CC1=CC(=CNC1=O)[N+]([O-])=O", 
	 "Tm": 505.15, 
	 "num_atms": 17, 
	 "gaussian": { 
		 "optdone": 1, 
		 "sigma_profile": "yes", 
		 "theory": "DFT", 
		 "functional": "B3LYP", 
		 "basiset": "6-31G**", 
		 "properties": { 
			 "R2extent": 1884.1557, 
			 "electric_dipole_moment_norm": 2.00026663723, 
			 "electric_quadrupole_moment_norm": 16.8854173869, 
			 "total_energy": -567.340710099, 
			 "HOMO_LUMO_gap": 0.15486, 
			 "cosmo_polarized_energy": -15.85, 
			 "cosmo_cavitation_energy": 22.28, 
			 "cosmo_dispersion_energy": -16.47, 
			 "cosmo_repulsion_energy": 1.32, 
			 "cosmo_total_nonelectrostatic_energy": 7.13, 
			 "SMD_solvation_energy": 7.19 
		},
		"coords": [
			{
				"x": 3.4439799207,
				"y": -0.1735440844,
				"z": -0.0201761628,
				"element": "C" 
			},
			{
				"x": 1.9533186834,
				"y": -0.2198274166,
				"z": 0.1428579544,
				"element": "C" 
			},
			{
				"x": 1.0788211164,
				"y": 0.4496719551,
				"z": -0.6638137605,
				"element": "C" 
			},
			{
				"x": -0.3288091907,
				"y": 0.3604457269,
				"z": -0.4510084537,
				"element": "C" 
			},
			{
				"x": -0.828383461,
				"y": -0.4008044603,
				"z": 0.569402547,
				"element": "C" 
			},
			{
				"x": 0.0382894299,
				"y": -1.0627040699,
				"z": 1.3667924215,
				"element": "N" 
			},
			{
				"x": 1.4514723718,
				"y": -1.0438522653,
				"z": 1.2449357523,
				"element": "C" 
			},
			{
				"x": 2.1318084211,
				"y": -1.6882552504,
				"z": 2.0324238248,
				"element": "O" 
			},
			{
				"x": -1.2555102987,
				"y": 1.0722768621,
				"z": -1.3090408041,
				"element": "N" 
			},
			{
				"x": -0.7768362088,
				"y": 1.7501536688,
				"z": -2.219735801,
				"element": "O" 
			},
			{
				"x": -2.4628579137,
				"y": 0.9572412407,
				"z": -1.0764727663,
				"element": "O" 
			},
			{
				"x": 3.9192108101,
				"y": 0.2049196519,
				"z": 0.8912805291,
				"element": "H" 
			},
			{
				"x": 3.731451488,
				"y": 0.4606271315,
				"z": -0.8615580916,
				"element": "H" 
			},
			{
				"x": 3.8452773996,
				"y": -1.1804408995,
				"z": -0.1781652481,
				"element": "H" 
			},
			{
				"x": 1.4291945915,
				"y": 1.0649982929,
				"z": -1.4850112676,
				"element": "H" 
			},
			{
				"x": -1.890030412,
				"y": -0.4908463495,
				"z": 0.7593090468,
				"element": "H" 
			},
			{
				"x": -0.3033967477,
				"y": -1.6343597338,
				"z": 2.1307802797,
				"element": "H" 
			}
		],
		 "valence_orbital": [ 
			{
				"type": "occ",
				"energy": -0.31375,
				"method": "rhf"
			},
			{
				"type": "occ",
				"energy": -0.31234,
				"method": "rhf"
			},
			{
				"type": "occ",
				"energy": -0.29744,
				"method": "rhf"
			},
			{
				"type": "occ",
				"energy": -0.27758,
				"method": "rhf"
			},
			{
				"type": "occ",
				"energy": -0.24531,
				"method": "rhf"
			},
			{
				"type": "unocc",
				"energy": -0.09045,
				"method": "rhf"
			},
			{
				"type": "unocc",
				"energy": -0.06021,
				"method": "rhf"
			},
			{
				"type": "unocc",
				"energy": 0.00948,
				"method": "rhf"
			},
			{
				"type": "unocc",
				"energy": 0.04818,
				"method": "rhf"
			},
			{
				"type": "unocc",
				"energy": 0.09984,
				"method": "rhf"
			}
		],
		"cosmo_sigma_profile": { 
			"-0.025": 0.0,
			"-0.024": 0.0,
			"-0.023": 0.0,
			"-0.022": 0.0,
			"-0.021": 0.0,
			"-0.02": 0.0,
			"-0.019": 0.0,
			"-0.018": 0.448450202575,
			"-0.017": 1.84937906214,
			"-0.016": 1.7345946116,
			"-0.015": 0.833126888373,
			"-0.014": 1.24410055676,
			"-0.013": 1.19427168588,
			"-0.012": 1.92219365371,
			"-0.011": 2.06270582353,
			"-0.01": 1.66673010064,
			"-0.009": 1.80867692526,
			"-0.008": 1.94989472692,
			"-0.007": 3.54255413792,
			"-0.006": 5.0683307321,
			"-0.005": 10.1648023906,
			"-0.004": 13.1103285977,
			"-0.003": 18.2013945491,
			"-0.002": 17.022007032,
			"-0.001": 15.6060095727,
			"0.0": 12.4428486555,
			"0.001": 6.54540942436,
			"0.002": 3.67677419319,
			"0.003": 4.00929269587,
			"0.004": 2.51653576905,
			"0.005": 3.83966226269,
			"0.006": 5.03878973035,
			"0.007": 7.22066361548,
			"0.008": 10.3714184686,
			"0.009": 5.76493237186,
			"0.01": 4.95043315577,
			"0.011": 2.88818760012,
			"0.012": 3.47254288951,
			"0.013": 5.23688836185,
			"0.014": 0.499446089255,
			"0.015": 0.0,
			"0.016": 0.0,
			"0.017": 0.0,
			"0.018": 0.0,
			"0.019": 0.0,
			"0.02": 0.0,
			"0.021": 0.0,
			"0.022": 0.0,
			"0.023": 0.0,
			"0.024": 0.0,
			"0.025": 0.0
		}
	}
}
