{
	 "smiles": "CS(=O)(=O)N1CCC2=C1C=CC(=C2)C(=O)CCl", 
	 "Tm": 411.15, 
	 "num_atms": 29, 
	 "gaussian": { 
		 "optdone": 1, 
		 "sigma_profile": "yes", 
		 "theory": "DFT", 
		 "functional": "B3LYP", 
		 "basiset": "6-31G**", 
		 "properties": { 
			 "R2extent": 6582.776, 
			 "electric_dipole_moment_norm": 2.62042450569, 
			 "electric_quadrupole_moment_norm": 27.7612059857, 
			 "total_energy": -1565.14049893, 
			 "HOMO_LUMO_gap": 0.16205, 
			 "cosmo_polarized_energy": -18.5, 
			 "cosmo_cavitation_energy": 35.47, 
			 "cosmo_dispersion_energy": -25.97, 
			 "cosmo_repulsion_energy": 1.97, 
			 "cosmo_total_nonelectrostatic_energy": 11.46, 
			 "SMD_solvation_energy": 5.3 
		},
		"coords": [
			{
				"x": 2.5766826184,
				"y": -0.4204356236,
				"z": 3.1682153936,
				"element": "C" 
			},
			{
				"x": 2.3867752306,
				"y": 0.9556873274,
				"z": 2.0222118403,
				"element": "S" 
			},
			{
				"x": 2.472351176,
				"y": 2.207293214,
				"z": 2.7732133548,
				"element": "O" 
			},
			{
				"x": 3.2495771978,
				"y": 0.6917452013,
				"z": 0.8698892065,
				"element": "O" 
			},
			{
				"x": 0.7632885373,
				"y": 0.8130029488,
				"z": 1.5638355527,
				"element": "N" 
			},
			{
				"x": -0.2097648625,
				"y": 1.8961174017,
				"z": 1.8833570926,
				"element": "C" 
			},
			{
				"x": -1.5394127935,
				"y": 1.3520026104,
				"z": 1.3116356675,
				"element": "C" 
			},
			{
				"x": -1.0923333183,
				"y": 0.3058005201,
				"z": 0.31257147,
				"element": "C" 
			},
			{
				"x": 0.2725567688,
				"y": 0.0175716501,
				"z": 0.5115057408,
				"element": "C" 
			},
			{
				"x": 0.92835441,
				"y": -0.9499743021,
				"z": -0.2524937851,
				"element": "C" 
			},
			{
				"x": 0.1884600221,
				"y": -1.6276302225,
				"z": -1.2224982895,
				"element": "C" 
			},
			{
				"x": -1.1716920344,
				"y": -1.3551422421,
				"z": -1.4389071086,
				"element": "C" 
			},
			{
				"x": -1.8087721144,
				"y": -0.3709347957,
				"z": -0.6521571097,
				"element": "C" 
			},
			{
				"x": -1.9825507245,
				"y": -2.0310210416,
				"z": -2.481275949,
				"element": "C" 
			},
			{
				"x": -3.1497300895,
				"y": -1.7318245486,
				"z": -2.6898914934,
				"element": "O" 
			},
			{
				"x": -1.3503790174,
				"y": -3.1134697361,
				"z": -3.3639571326,
				"element": "C" 
			},
			{
				"x": -1.0130437484,
				"y": -4.6394416161,
				"z": -2.4359964941,
				"element": "Cl" 
			},
			{
				"x": 3.6212380225,
				"y": -0.4302577327,
				"z": 3.4854043176,
				"element": "H" 
			},
			{
				"x": 1.9170153954,
				"y": -0.2595337397,
				"z": 4.0211282128,
				"element": "H" 
			},
			{
				"x": 2.328741287,
				"y": -1.3479152865,
				"z": 2.6497571402,
				"element": "H" 
			},
			{
				"x": 0.0931283176,
				"y": 2.824757195,
				"z": 1.3890905849,
				"element": "H" 
			},
			{
				"x": -0.23711942,
				"y": 2.0751505384,
				"z": 2.9583940661,
				"element": "H" 
			},
			{
				"x": -2.1395612442,
				"y": 2.1482957122,
				"z": 0.8631405577,
				"element": "H" 
			},
			{
				"x": -2.1444993981,
				"y": 0.8917490956,
				"z": 2.1026452667,
				"element": "H" 
			},
			{
				"x": 1.9857745202,
				"y": -1.1447847221,
				"z": -0.1284247086,
				"element": "H" 
			},
			{
				"x": 0.6934326568,
				"y": -2.3841838939,
				"z": -1.8127982689,
				"element": "H" 
			},
			{
				"x": -2.8598655411,
				"y": -0.1681999132,
				"z": -0.8313128578,
				"element": "H" 
			},
			{
				"x": -2.0646670839,
				"y": -3.3660665937,
				"z": -4.1450301184,
				"element": "H" 
			},
			{
				"x": -0.4037847703,
				"y": -2.7928574047,
				"z": -3.8028521489,
				"element": "H" 
			}
		],
		 "valence_orbital": [ 
			{
				"type": "occ",
				"energy": -0.31363,
				"method": "rhf"
			},
			{
				"type": "occ",
				"energy": -0.30382,
				"method": "rhf"
			},
			{
				"type": "occ",
				"energy": -0.26646,
				"method": "rhf"
			},
			{
				"type": "occ",
				"energy": -0.25815,
				"method": "rhf"
			},
			{
				"type": "occ",
				"energy": -0.23007,
				"method": "rhf"
			},
			{
				"type": "unocc",
				"energy": -0.06802,
				"method": "rhf"
			},
			{
				"type": "unocc",
				"energy": -0.02192,
				"method": "rhf"
			},
			{
				"type": "unocc",
				"energy": 0.00368,
				"method": "rhf"
			},
			{
				"type": "unocc",
				"energy": 0.04795,
				"method": "rhf"
			},
			{
				"type": "unocc",
				"energy": 0.0516,
				"method": "rhf"
			}
		],
		"cosmo_sigma_profile": { 
			"-0.025": 0.0,
			"-0.024": 0.0,
			"-0.023": 0.0,
			"-0.022": 0.0,
			"-0.021": 0.0,
			"-0.02": 0.0,
			"-0.019": 0.0,
			"-0.018": 0.0,
			"-0.017": 0.0,
			"-0.016": 0.0,
			"-0.015": 0.0,
			"-0.014": 0.0,
			"-0.013": 0.0,
			"-0.012": 0.0,
			"-0.011": 0.0,
			"-0.01": 0.394752076144,
			"-0.009": 5.45529257104,
			"-0.008": 11.146850259,
			"-0.007": 11.4615219294,
			"-0.006": 19.926263557,
			"-0.005": 30.8576491677,
			"-0.004": 23.7041553201,
			"-0.003": 16.8654038827,
			"-0.002": 11.7124791557,
			"-0.001": 13.0277042816,
			"0.0": 13.2848187962,
			"0.001": 14.823340318,
			"0.002": 16.2114293902,
			"0.003": 18.7025925688,
			"0.004": 15.147079371,
			"0.005": 12.6740949086,
			"0.006": 7.45611804017,
			"0.007": 5.04320140965,
			"0.008": 4.57287491849,
			"0.009": 5.9435363821,
			"0.01": 10.4264692007,
			"0.011": 12.1808296008,
			"0.012": 3.18978455341,
			"0.013": 0.242764452498,
			"0.014": 0.0,
			"0.015": 0.0,
			"0.016": 0.0,
			"0.017": 0.0,
			"0.018": 0.0,
			"0.019": 0.0,
			"0.02": 0.0,
			"0.021": 0.0,
			"0.022": 0.0,
			"0.023": 0.0,
			"0.024": 0.0,
			"0.025": 0.0
		}
	}
}
