{
	 "smiles": "O=C(OC1=CC(OC(=O)C2=CC=CC=C2)=CC=C1)C1=CC=CC=C1", 
	 "Tm": 390.15, 
	 "num_atms": 38, 
	 "gaussian": { 
		 "optdone": 1, 
		 "sigma_profile": "yes", 
		 "theory": "DFT", 
		 "functional": "B3LYP", 
		 "basiset": "6-31G**", 
		 "properties": { 
			 "R2extent": 13411.444, 
			 "electric_dipole_moment_norm": 2.75577108991, 
			 "electric_quadrupole_moment_norm": 21.345560615, 
			 "total_energy": -1071.48312359, 
			 "HOMO_LUMO_gap": 0.18272, 
			 "cosmo_polarized_energy": -12.4, 
			 "cosmo_cavitation_energy": 44.61, 
			 "cosmo_dispersion_energy": -31.92, 
			 "cosmo_repulsion_energy": 2.39, 
			 "cosmo_total_nonelectrostatic_energy": 15.07, 
			 "SMD_solvation_energy": 9.4 
		},
		"coords": [
			{
				"x": -1.4596315859,
				"y": 1.5480214337,
				"z": 0.4845566858,
				"element": "O" 
			},
			{
				"x": -1.5680043359,
				"y": 1.4327985473,
				"z": -0.7161794457,
				"element": "C" 
			},
			{
				"x": -1.2443149152,
				"y": 0.2974588843,
				"z": -1.411520043,
				"element": "O" 
			},
			{
				"x": -0.7612237861,
				"y": -0.8469082677,
				"z": -0.781576352,
				"element": "C" 
			},
			{
				"x": 0.1569142175,
				"y": -0.8131747705,
				"z": 0.2667394483,
				"element": "C" 
			},
			{
				"x": 0.6328448756,
				"y": -2.0248076847,
				"z": 0.7677425828,
				"element": "C" 
			},
			{
				"x": 1.6018270648,
				"y": -1.9042242001,
				"z": 1.7618854551,
				"element": "O" 
			},
			{
				"x": 1.6173553017,
				"y": -2.729313363,
				"z": 2.8561697264,
				"element": "C" 
			},
			{
				"x": 0.8190164618,
				"y": -3.6199539131,
				"z": 3.0453697668,
				"element": "O" 
			},
			{
				"x": 2.7378570199,
				"y": -2.3865643608,
				"z": 3.7743154487,
				"element": "C" 
			},
			{
				"x": 2.8710155958,
				"y": -3.1496807599,
				"z": 4.9433756305,
				"element": "C" 
			},
			{
				"x": 3.8998018848,
				"y": -2.8776489486,
				"z": 5.8410162488,
				"element": "C" 
			},
			{
				"x": 4.8017042981,
				"y": -1.8432276817,
				"z": 5.5763624181,
				"element": "C" 
			},
			{
				"x": 4.6721953724,
				"y": -1.0809335688,
				"z": 4.4127735166,
				"element": "C" 
			},
			{
				"x": 3.6434090691,
				"y": -1.3484986468,
				"z": 3.5113061648,
				"element": "C" 
			},
			{
				"x": 0.2246721099,
				"y": -3.2518243749,
				"z": 0.2436964985,
				"element": "C" 
			},
			{
				"x": -0.6938458047,
				"y": -3.2500153863,
				"z": -0.8068220463,
				"element": "C" 
			},
			{
				"x": -1.1925362768,
				"y": -2.0566795408,
				"z": -1.3257149139,
				"element": "C" 
			},
			{
				"x": -2.0690531231,
				"y": 2.4984642223,
				"z": -1.6269250508,
				"element": "C" 
			},
			{
				"x": -2.4552933385,
				"y": 3.7149796239,
				"z": -1.0456916813,
				"element": "C" 
			},
			{
				"x": -2.9313391151,
				"y": 4.7504901432,
				"z": -1.8452399731,
				"element": "C" 
			},
			{
				"x": -3.0231189756,
				"y": 4.5781864266,
				"z": -3.229201563,
				"element": "C" 
			},
			{
				"x": -2.6386319234,
				"y": 3.3680053591,
				"z": -3.8118791917,
				"element": "C" 
			},
			{
				"x": -2.1627196133,
				"y": 2.3276384418,
				"z": -3.0158100916,
				"element": "C" 
			},
			{
				"x": 0.4912669024,
				"y": 0.1179008594,
				"z": 0.7007077704,
				"element": "H" 
			},
			{
				"x": 2.158733008,
				"y": -3.9469769623,
				"z": 5.126376036,
				"element": "H" 
			},
			{
				"x": 4.0000073815,
				"y": -3.4698086266,
				"z": 6.7457426733,
				"element": "H" 
			},
			{
				"x": 5.6045454384,
				"y": -1.6309462193,
				"z": 6.2767575124,
				"element": "H" 
			},
			{
				"x": 5.372899578,
				"y": -0.2768892106,
				"z": 4.2082762695,
				"element": "H" 
			},
			{
				"x": 3.5361296383,
				"y": -0.7601458899,
				"z": 2.6077221656,
				"element": "H" 
			},
			{
				"x": 0.6023272389,
				"y": -4.1779013142,
				"z": 0.6538294996,
				"element": "H" 
			},
			{
				"x": -1.0241999835,
				"y": -4.195257317,
				"z": -1.2261826243,
				"element": "H" 
			},
			{
				"x": -1.9041513072,
				"y": -2.0461041905,
				"z": -2.1439553329,
				"element": "H" 
			},
			{
				"x": -2.3741754947,
				"y": 3.8247654347,
				"z": 0.0303556953,
				"element": "H" 
			},
			{
				"x": -3.2303948346,
				"y": 5.6909769424,
				"z": -1.3922133942,
				"element": "H" 
			},
			{
				"x": -3.3941527619,
				"y": 5.3863557424,
				"z": -3.8531591457,
				"element": "H" 
			},
			{
				"x": -2.7100852012,
				"y": 3.2350327443,
				"z": -4.8872904614,
				"element": "H" 
			},
			{
				"x": -1.8632500803,
				"y": 1.3863103925,
				"z": -3.4612159024,
				"element": "H" 
			}
		],
		 "valence_orbital": [ 
			{
				"type": "occ",
				"energy": -0.26295,
				"method": "rhf"
			},
			{
				"type": "occ",
				"energy": -0.26236,
				"method": "rhf"
			},
			{
				"type": "occ",
				"energy": -0.26004,
				"method": "rhf"
			},
			{
				"type": "occ",
				"energy": -0.24805,
				"method": "rhf"
			},
			{
				"type": "occ",
				"energy": -0.23717,
				"method": "rhf"
			},
			{
				"type": "unocc",
				"energy": -0.05445,
				"method": "rhf"
			},
			{
				"type": "unocc",
				"energy": -0.05136,
				"method": "rhf"
			},
			{
				"type": "unocc",
				"energy": -0.01177,
				"method": "rhf"
			},
			{
				"type": "unocc",
				"energy": -0.00951,
				"method": "rhf"
			},
			{
				"type": "unocc",
				"energy": -0.00398,
				"method": "rhf"
			}
		],
		"cosmo_sigma_profile": { 
			"-0.025": 0.0,
			"-0.024": 0.0,
			"-0.023": 0.0,
			"-0.022": 0.0,
			"-0.021": 0.0,
			"-0.02": 0.0,
			"-0.019": 0.0,
			"-0.018": 0.0,
			"-0.017": 0.0,
			"-0.016": 0.0,
			"-0.015": 0.0,
			"-0.014": 0.0,
			"-0.013": 0.0,
			"-0.012": 0.0,
			"-0.011": 0.0,
			"-0.01": 0.0,
			"-0.009": 0.0,
			"-0.008": 0.00796396457785,
			"-0.007": 7.62887361855,
			"-0.006": 23.4164554882,
			"-0.005": 30.821984471,
			"-0.004": 28.3879873854,
			"-0.003": 22.645835784,
			"-0.002": 24.195594489,
			"-0.001": 24.1648736402,
			"0.0": 28.446192847,
			"0.001": 34.5151859074,
			"0.002": 38.5881887765,
			"0.003": 36.3965097705,
			"0.004": 29.6672869361,
			"0.005": 3.84467265543,
			"0.006": 3.14243490146,
			"0.007": 3.53265110704,
			"0.008": 3.47993288745,
			"0.009": 3.9698181955,
			"0.01": 5.29878631909,
			"0.011": 7.04433023883,
			"0.012": 0.834199093788,
			"0.013": 0.0,
			"0.014": 0.0,
			"0.015": 0.0,
			"0.016": 0.0,
			"0.017": 0.0,
			"0.018": 0.0,
			"0.019": 0.0,
			"0.02": 0.0,
			"0.021": 0.0,
			"0.022": 0.0,
			"0.023": 0.0,
			"0.024": 0.0,
			"0.025": 0.0
		}
	}
}
