{
	 "smiles": "COP(=O)(OC)SCN1C(=O)OC2=CC(Cl)=CN=C12", 
	 "Tm": 362.15, 
	 "num_atms": 29, 
	 "gaussian": { 
		 "optdone": 1, 
		 "sigma_profile": "yes", 
		 "theory": "DFT", 
		 "functional": "B3LYP", 
		 "basiset": "6-31G**", 
		 "properties": { 
			 "R2extent": 7177.1014, 
			 "electric_dipole_moment_norm": 3.28225977948, 
			 "electric_quadrupole_moment_norm": 20.1775923254, 
			 "total_energy": -2034.40178166, 
			 "HOMO_LUMO_gap": 0.18989, 
			 "cosmo_polarized_energy": -18.28, 
			 "cosmo_cavitation_energy": 39.18, 
			 "cosmo_dispersion_energy": -27.38, 
			 "cosmo_repulsion_energy": 2.08, 
			 "cosmo_total_nonelectrostatic_energy": 13.87, 
			 "SMD_solvation_energy": 8.51 
		},
		"coords": [
			{
				"x": -2.5525301381,
				"y": -3.9403828812,
				"z": -1.4116193224,
				"element": "C" 
			},
			{
				"x": -2.2159590901,
				"y": -2.740775028,
				"z": -0.6908882698,
				"element": "O" 
			},
			{
				"x": -0.6997432124,
				"y": -2.3070040706,
				"z": -0.3992746347,
				"element": "P" 
			},
			{
				"x": -0.58862703,
				"y": -1.1559310495,
				"z": 0.5234084263,
				"element": "O" 
			},
			{
				"x": -0.0410162493,
				"y": -3.7039616627,
				"z": 0.0705853228,
				"element": "O" 
			},
			{
				"x": 1.20829545,
				"y": -3.6829558692,
				"z": 0.7974509901,
				"element": "C" 
			},
			{
				"x": 0.2868096915,
				"y": -2.0468802173,
				"z": -2.256077515,
				"element": "S" 
			},
			{
				"x": -0.2012624649,
				"y": -0.3122965156,
				"z": -2.7275191598,
				"element": "C" 
			},
			{
				"x": 0.214554379,
				"y": 0.7291420491,
				"z": -1.8309808487,
				"element": "N" 
			},
			{
				"x": 1.5413200359,
				"y": 1.0638170124,
				"z": -1.5804863528,
				"element": "C" 
			},
			{
				"x": 2.5340800493,
				"y": 0.6479709484,
				"z": -2.1128620747,
				"element": "O" 
			},
			{
				"x": 1.5411471317,
				"y": 2.0258907336,
				"z": -0.5663025837,
				"element": "O" 
			},
			{
				"x": 0.2367208905,
				"y": 2.2618103993,
				"z": -0.2146627905,
				"element": "C" 
			},
			{
				"x": -0.284907488,
				"y": 3.1302097097,
				"z": 0.7165150135,
				"element": "C" 
			},
			{
				"x": -1.6897884674,
				"y": 3.1228940162,
				"z": 0.7961578001,
				"element": "C" 
			},
			{
				"x": -2.4873002384,
				"y": 4.1791602556,
				"z": 1.9448151176,
				"element": "Cl" 
			},
			{
				"x": -2.4615583678,
				"y": 2.3000335485,
				"z": -0.0262256515,
				"element": "C" 
			},
			{
				"x": -1.9271571105,
				"y": 1.4627142991,
				"z": -0.9375708951,
				"element": "N" 
			},
			{
				"x": -0.6137249781,
				"y": 1.4653140736,
				"z": -0.9865304807,
				"element": "C" 
			},
			{
				"x": -3.6396720471,
				"y": -3.9468326316,
				"z": -1.4958424919,
				"element": "H" 
			},
			{
				"x": -2.1059030407,
				"y": -3.9295888597,
				"z": -2.4110216184,
				"element": "H" 
			},
			{
				"x": -2.2129521466,
				"y": -4.8215661755,
				"z": -0.8624933289,
				"element": "H" 
			},
			{
				"x": 1.1504480656,
				"y": -2.9773881646,
				"z": 1.6287854092,
				"element": "H" 
			},
			{
				"x": 2.0316233189,
				"y": -3.4083282706,
				"z": 0.1317742148,
				"element": "H" 
			},
			{
				"x": 1.3585190756,
				"y": -4.6961696103,
				"z": 1.171074493,
				"element": "H" 
			},
			{
				"x": 0.2741684314,
				"y": -0.1823824983,
				"z": -3.7013093173,
				"element": "H" 
			},
			{
				"x": -1.284259703,
				"y": -0.2430427142,
				"z": -2.8254297839,
				"element": "H" 
			},
			{
				"x": 0.327485583,
				"y": 3.7683779418,
				"z": 1.3412874181,
				"element": "H" 
			},
			{
				"x": -3.5440103303,
				"y": 2.3178512315,
				"z": 0.0487429144,
				"element": "H" 
			}
		],
		 "valence_orbital": [ 
			{
				"type": "occ",
				"energy": -0.29563,
				"method": "rhf"
			},
			{
				"type": "occ",
				"energy": -0.28986,
				"method": "rhf"
			},
			{
				"type": "occ",
				"energy": -0.28577,
				"method": "rhf"
			},
			{
				"type": "occ",
				"energy": -0.26735,
				"method": "rhf"
			},
			{
				"type": "occ",
				"energy": -0.23301,
				"method": "rhf"
			},
			{
				"type": "unocc",
				"energy": -0.04312,
				"method": "rhf"
			},
			{
				"type": "unocc",
				"energy": -0.01692,
				"method": "rhf"
			},
			{
				"type": "unocc",
				"energy": -0.00755,
				"method": "rhf"
			},
			{
				"type": "unocc",
				"energy": 0.01171,
				"method": "rhf"
			},
			{
				"type": "unocc",
				"energy": 0.01971,
				"method": "rhf"
			}
		],
		"cosmo_sigma_profile": { 
			"-0.025": 0.0,
			"-0.024": 0.0,
			"-0.023": 0.0,
			"-0.022": 0.0,
			"-0.021": 0.0,
			"-0.02": 0.0,
			"-0.019": 0.0,
			"-0.018": 0.0,
			"-0.017": 0.0,
			"-0.016": 0.0,
			"-0.015": 0.0,
			"-0.014": 0.0,
			"-0.013": 0.0,
			"-0.012": 0.0,
			"-0.011": 0.154186620572,
			"-0.01": 3.33647785733,
			"-0.009": 4.88606870208,
			"-0.008": 6.7907521121,
			"-0.007": 11.6715900659,
			"-0.006": 19.5663275118,
			"-0.005": 22.5899345199,
			"-0.004": 26.7753656488,
			"-0.003": 21.3511248957,
			"-0.002": 21.4508533119,
			"-0.001": 21.5661947515,
			"0.0": 22.6126939477,
			"0.001": 17.9109195462,
			"0.002": 17.3844866001,
			"0.003": 18.2161214071,
			"0.004": 17.5220015185,
			"0.005": 11.2218489124,
			"0.006": 8.80087954724,
			"0.007": 7.1002671888,
			"0.008": 7.15063096578,
			"0.009": 7.56754303767,
			"0.01": 8.12381635584,
			"0.011": 7.02991674426,
			"0.012": 2.14815378497,
			"0.013": 2.17894805514,
			"0.014": 0.686934114602,
			"0.015": 0.0,
			"0.016": 0.0,
			"0.017": 0.0,
			"0.018": 0.0,
			"0.019": 0.0,
			"0.02": 0.0,
			"0.021": 0.0,
			"0.022": 0.0,
			"0.023": 0.0,
			"0.024": 0.0,
			"0.025": 0.0
		}
	}
}
