{
	 "smiles": "OC(=O)C1=NC=CC(NCC2=CC=CC=C2)=C1", 
	 "Tm": 548.15, 
	 "num_atms": 29, 
	 "gaussian": { 
		 "optdone": 1, 
		 "sigma_profile": "yes", 
		 "theory": "DFT", 
		 "functional": "B3LYP", 
		 "basiset": "6-31G**", 
		 "properties": { 
			 "R2extent": 4961.9361, 
			 "electric_dipole_moment_norm": 6.01174341186, 
			 "electric_quadrupole_moment_norm": 33.453898264, 
			 "total_energy": -762.577465087, 
			 "HOMO_LUMO_gap": 0.1805, 
			 "cosmo_polarized_energy": -21.14, 
			 "cosmo_cavitation_energy": 33.94, 
			 "cosmo_dispersion_energy": -23.74, 
			 "cosmo_repulsion_energy": 1.87, 
			 "cosmo_total_nonelectrostatic_energy": 12.07, 
			 "SMD_solvation_energy": 5.39 
		},
		"coords": [
			{
				"x": 2.8765380716,
				"y": -1.2423773566,
				"z": 0.4176037509,
				"element": "O" 
			},
			{
				"x": 3.6094298986,
				"y": -0.4664168885,
				"z": -0.4282897114,
				"element": "C" 
			},
			{
				"x": 4.8132944955,
				"y": -0.3888704114,
				"z": -0.3495175823,
				"element": "O" 
			},
			{
				"x": 2.7477141078,
				"y": 0.2494702615,
				"z": -1.4324764172,
				"element": "C" 
			},
			{
				"x": 3.4162878019,
				"y": 1.0001599189,
				"z": -2.3196756895,
				"element": "N" 
			},
			{
				"x": 2.6714274016,
				"y": 1.648371931,
				"z": -3.2208681663,
				"element": "C" 
			},
			{
				"x": 1.2844786961,
				"y": 1.585265439,
				"z": -3.2885113134,
				"element": "C" 
			},
			{
				"x": 0.5864112073,
				"y": 0.7931876181,
				"z": -2.3568532409,
				"element": "C" 
			},
			{
				"x": -0.788703993,
				"y": 0.7181040764,
				"z": -2.3921157376,
				"element": "N" 
			},
			{
				"x": -1.5626032675,
				"y": -0.2692566914,
				"z": -1.6554480572,
				"element": "C" 
			},
			{
				"x": -1.7904101991,
				"y": 0.0564851164,
				"z": -0.1844550815,
				"element": "C" 
			},
			{
				"x": -1.872083645,
				"y": 1.378441639,
				"z": 0.265809646,
				"element": "C" 
			},
			{
				"x": -2.1352512658,
				"y": 1.6537906646,
				"z": 1.608298995,
				"element": "C" 
			},
			{
				"x": -2.3233457986,
				"y": 0.6103938353,
				"z": 2.5168384699,
				"element": "C" 
			},
			{
				"x": -2.2413800933,
				"y": -0.7114520549,
				"z": 2.0755808845,
				"element": "C" 
			},
			{
				"x": -1.9729300262,
				"y": -0.984619356,
				"z": 0.7336486728,
				"element": "C" 
			},
			{
				"x": 1.3587717182,
				"y": 0.1096783115,
				"z": -1.3982458773,
				"element": "C" 
			},
			{
				"x": 3.5221290101,
				"y": -1.6458485612,
				"z": 1.0202658762,
				"element": "H" 
			},
			{
				"x": 3.2155848321,
				"y": 2.257654949,
				"z": -3.9408692423,
				"element": "H" 
			},
			{
				"x": 0.7482367261,
				"y": 2.1404691361,
				"z": -4.0539166826,
				"element": "H" 
			},
			{
				"x": -1.2240521854,
				"y": 1.1058555802,
				"z": -3.2143812704,
				"element": "H" 
			},
			{
				"x": -2.5339729701,
				"y": -0.343114359,
				"z": -2.1586652672,
				"element": "H" 
			},
			{
				"x": -1.0991771232,
				"y": -1.2631688209,
				"z": -1.7377520825,
				"element": "H" 
			},
			{
				"x": -1.7152047308,
				"y": 2.1890044658,
				"z": -0.4394242808,
				"element": "H" 
			},
			{
				"x": -2.1905456107,
				"y": 2.6850450988,
				"z": 1.9455662345,
				"element": "H" 
			},
			{
				"x": -2.5256831133,
				"y": 0.8256972955,
				"z": 3.5620117395,
				"element": "H" 
			},
			{
				"x": -2.3773928732,
				"y": -1.5301901963,
				"z": 2.7764826483,
				"element": "H" 
			},
			{
				"x": -1.9015666365,
				"y": -2.0167942103,
				"z": 0.3971876647,
				"element": "H" 
			},
			{
				"x": 0.8983995645,
				"y": -0.5002664306,
				"z": -0.633428882,
				"element": "H" 
			}
		],
		 "valence_orbital": [ 
			{
				"type": "occ",
				"energy": -0.26317,
				"method": "rhf"
			},
			{
				"type": "occ",
				"energy": -0.25521,
				"method": "rhf"
			},
			{
				"type": "occ",
				"energy": -0.25297,
				"method": "rhf"
			},
			{
				"type": "occ",
				"energy": -0.24752,
				"method": "rhf"
			},
			{
				"type": "occ",
				"energy": -0.22527,
				"method": "rhf"
			},
			{
				"type": "unocc",
				"energy": -0.04477,
				"method": "rhf"
			},
			{
				"type": "unocc",
				"energy": -0.00888,
				"method": "rhf"
			},
			{
				"type": "unocc",
				"energy": -0.00734,
				"method": "rhf"
			},
			{
				"type": "unocc",
				"energy": -0.00367,
				"method": "rhf"
			},
			{
				"type": "unocc",
				"energy": 0.06309,
				"method": "rhf"
			}
		],
		"cosmo_sigma_profile": { 
			"-0.025": 0.0,
			"-0.024": 0.0,
			"-0.023": 0.0,
			"-0.022": 0.0,
			"-0.021": 0.0,
			"-0.02": 0.0,
			"-0.019": 0.0,
			"-0.018": 0.799019722013,
			"-0.017": 1.07747016494,
			"-0.016": 0.570293225199,
			"-0.015": 0.924700458085,
			"-0.014": 1.91332110078,
			"-0.013": 1.96771213448,
			"-0.012": 2.67893613238,
			"-0.011": 2.19655260074,
			"-0.01": 3.1530723385,
			"-0.009": 1.83553705148,
			"-0.008": 2.25713262759,
			"-0.007": 5.86672167244,
			"-0.006": 11.516995143,
			"-0.005": 19.8004493197,
			"-0.004": 19.1747415569,
			"-0.003": 20.9904657031,
			"-0.002": 16.6269487146,
			"-0.001": 16.893057521,
			"0.0": 15.3011522571,
			"0.001": 16.7939077366,
			"0.002": 26.3107514314,
			"0.003": 18.7643485236,
			"0.004": 11.0544190783,
			"0.005": 11.8856930509,
			"0.006": 10.9290523015,
			"0.007": 4.79095389247,
			"0.008": 2.51862161345,
			"0.009": 2.34690480779,
			"0.01": 2.73976755168,
			"0.011": 4.87636314527,
			"0.012": 4.10944715485,
			"0.013": 1.57838598797,
			"0.014": 1.5060185822,
			"0.015": 1.53753911363,
			"0.016": 1.26373133373,
			"0.017": 0.938550838455,
			"0.018": 1.18435764434,
			"0.019": 0.26547361987,
			"0.02": 0.0,
			"0.021": 0.0,
			"0.022": 0.0,
			"0.023": 0.0,
			"0.024": 0.0,
			"0.025": 0.0
		}
	}
}
