{
	 "smiles": "CC1=CC=C(C=C1)S(=O)(=O)O[I](O)C1=CC=CC=C1", 
	 "Tm": 408.15, 
	 "num_atms": 32, 
	 "gaussian": { 
		 "optdone": 1, 
		 "sigma_profile": "yes", 
		 "theory": "DFT", 
		 "functional": "B3LYP", 
		 "basiset": "6-31G**", 
		 "properties": { 
			 "R2extent": 6858.4417, 
			 "electric_dipole_moment_norm": 7.64201377845, 
			 "electric_quadrupole_moment_norm": 15.0654039375, 
			 "total_energy": 0.0, 
			 "HOMO_LUMO_gap": 0.2129, 
			 "cosmo_polarized_energy": -33.56, 
			 "cosmo_cavitation_energy": 42.33, 
			 "cosmo_dispersion_energy": -29.26, 
			 "cosmo_repulsion_energy": 2.22, 
			 "cosmo_total_nonelectrostatic_energy": 15.29, 
			 "SMD_solvation_energy": 5.37 
		},
		"coords": [
			{
				"x": -0.7866513411,
				"y": -0.4001107581,
				"z": 5.0080758046,
				"element": "C" 
			},
			{
				"x": -1.0800410981,
				"y": -0.1513465843,
				"z": 3.5479593815,
				"element": "C" 
			},
			{
				"x": -0.0409196417,
				"y": 0.0204541683,
				"z": 2.6234802696,
				"element": "C" 
			},
			{
				"x": -0.3053862024,
				"y": 0.2800523322,
				"z": 1.2792722495,
				"element": "C" 
			},
			{
				"x": -1.6301066033,
				"y": 0.3664830354,
				"z": 0.8516990072,
				"element": "C" 
			},
			{
				"x": -2.6854586806,
				"y": 0.2022367724,
				"z": 1.7513436791,
				"element": "C" 
			},
			{
				"x": -2.4028384308,
				"y": -0.0564480139,
				"z": 3.0900337098,
				"element": "C" 
			},
			{
				"x": -1.9903042247,
				"y": 0.6654927696,
				"z": -0.8760921835,
				"element": "S" 
			},
			{
				"x": -0.8080063341,
				"y": 1.2989807641,
				"z": -1.4772551064,
				"element": "O" 
			},
			{
				"x": -3.286701753,
				"y": 1.3603402611,
				"z": -0.9464702762,
				"element": "O" 
			},
			{
				"x": -2.2208613227,
				"y": -0.7622411137,
				"z": -1.4789166027,
				"element": "O" 
			},
			{
				"x": -0.4172254651,
				"y": -1.8311213527,
				"z": -3.1885520046,
				"element": "I" 
			},
			{
				"x": -3.255210435,
				"y": -1.8066661148,
				"z": -3.8023589499,
				"element": "O" 
			},
			{
				"x": 1.4648950542,
				"y": -1.4784091015,
				"z": -2.3302184567,
				"element": "C" 
			},
			{
				"x": 1.9556490076,
				"y": -0.1658841069,
				"z": -2.2882016766,
				"element": "C" 
			},
			{
				"x": 3.2105488444,
				"y": 0.0636556246,
				"z": -1.7229096679,
				"element": "C" 
			},
			{
				"x": 3.9615482577,
				"y": -0.9981364398,
				"z": -1.211858047,
				"element": "C" 
			},
			{
				"x": 3.4557629664,
				"y": -2.3008843191,
				"z": -1.2519380077,
				"element": "C" 
			},
			{
				"x": 2.1996409246,
				"y": -2.5495980991,
				"z": -1.8029743982,
				"element": "C" 
			},
			{
				"x": -1.5186929241,
				"y": -1.081122011,
				"z": 5.4528051722,
				"element": "H" 
			},
			{
				"x": -0.8242784255,
				"y": 0.5348609928,
				"z": 5.5808611619,
				"element": "H" 
			},
			{
				"x": 0.208897584,
				"y": -0.8302018213,
				"z": 5.1495584259,
				"element": "H" 
			},
			{
				"x": 0.9903643017,
				"y": -0.0451747294,
				"z": 2.9606423506,
				"element": "H" 
			},
			{
				"x": 0.5019409721,
				"y": 0.4264566311,
				"z": 0.5702620323,
				"element": "H" 
			},
			{
				"x": -3.7090118604,
				"y": 0.2897946311,
				"z": 1.4036249573,
				"element": "H" 
			},
			{
				"x": -3.2224064481,
				"y": -0.183561039,
				"z": 3.7926576525,
				"element": "H" 
			},
			{
				"x": -3.2598736868,
				"y": -1.2792569721,
				"z": -2.9630004244,
				"element": "H" 
			},
			{
				"x": 1.3547936812,
				"y": 0.6554763694,
				"z": -2.6598010871,
				"element": "H" 
			},
			{
				"x": 3.5993151127,
				"y": 1.0766974449,
				"z": -1.6837101395,
				"element": "H" 
			},
			{
				"x": 4.9392310328,
				"y": -0.8107920212,
				"z": -0.7780196597,
				"element": "H" 
			},
			{
				"x": 4.0367040712,
				"y": -3.125559195,
				"z": -0.850042921,
				"element": "H" 
			},
			{
				"x": 1.7993830667,
				"y": -3.557468004,
				"z": -1.8259562452,
				"element": "H" 
			}
		],
		 "valence_orbital": [ 
			{
				"type": "occ",
				"energy": -0.28704,
				"method": "rhf"
			},
			{
				"type": "occ",
				"energy": -0.28081,
				"method": "rhf"
			},
			{
				"type": "occ",
				"energy": -0.26187,
				"method": "rhf"
			},
			{
				"type": "occ",
				"energy": -0.25575,
				"method": "rhf"
			},
			{
				"type": "occ",
				"energy": -0.25246,
				"method": "rhf"
			},
			{
				"type": "unocc",
				"energy": -0.03956,
				"method": "rhf"
			},
			{
				"type": "unocc",
				"energy": -0.03738,
				"method": "rhf"
			},
			{
				"type": "unocc",
				"energy": -0.03183,
				"method": "rhf"
			},
			{
				"type": "unocc",
				"energy": -0.02586,
				"method": "rhf"
			},
			{
				"type": "unocc",
				"energy": -0.01267,
				"method": "rhf"
			}
		],
		"cosmo_sigma_profile": { 
			"-0.025": 0.0,
			"-0.024": 0.0,
			"-0.023": 0.0,
			"-0.022": 0.0,
			"-0.021": 0.0,
			"-0.02": 0.0,
			"-0.019": 0.0,
			"-0.018": 0.0,
			"-0.017": 0.0,
			"-0.016": 0.0,
			"-0.015": 0.0,
			"-0.014": 0.0,
			"-0.013": 0.0,
			"-0.012": 0.0,
			"-0.011": 0.0,
			"-0.01": 0.327921833791,
			"-0.009": 6.10926518663,
			"-0.008": 14.1896663741,
			"-0.007": 17.98088918,
			"-0.006": 19.5887937957,
			"-0.005": 24.0926604792,
			"-0.004": 25.5100230894,
			"-0.003": 24.0911449426,
			"-0.002": 28.6324126274,
			"-0.001": 30.9367485327,
			"0.0": 27.1896532127,
			"0.001": 16.0011643571,
			"0.002": 13.8824074014,
			"0.003": 16.1109968124,
			"0.004": 14.1745574014,
			"0.005": 6.3012777557,
			"0.006": 5.02095092224,
			"0.007": 6.63044827451,
			"0.008": 4.4699851912,
			"0.009": 5.26591858652,
			"0.01": 6.85264486801,
			"0.011": 8.8860128641,
			"0.012": 7.20739750768,
			"0.013": 2.2006439045,
			"0.014": 2.88333912286,
			"0.015": 2.78110515575,
			"0.016": 2.04179001511,
			"0.017": 2.21669498846,
			"0.018": 0.99562125929,
			"0.019": 0.0709154867342,
			"0.02": 0.0,
			"0.021": 0.0,
			"0.022": 0.0,
			"0.023": 0.0,
			"0.024": 0.0,
			"0.025": 0.0
		}
	}
}
