{
	 "smiles": "[O-][N+](=O)C1=CC=C(Br)C=C1", 
	 "Tm": 399.15, 
	 "num_atms": 14, 
	 "gaussian": { 
		 "optdone": 1, 
		 "sigma_profile": "yes", 
		 "theory": "DFT", 
		 "functional": "B3LYP", 
		 "basiset": "6-31G**", 
		 "properties": { 
			 "R2extent": 3745.3591, 
			 "electric_dipole_moment_norm": 3.07892865945, 
			 "electric_quadrupole_moment_norm": 8.69508615829, 
			 "total_energy": -3007.54983707, 
			 "HOMO_LUMO_gap": 0.17382, 
			 "cosmo_polarized_energy": -7.32, 
			 "cosmo_cavitation_energy": 21.63, 
			 "cosmo_dispersion_energy": -16.5, 
			 "cosmo_repulsion_energy": 1.33, 
			 "cosmo_total_nonelectrostatic_energy": 6.46, 
			 "SMD_solvation_energy": 4.93 
		},
		"coords": [
			{
				"x": 0.4560810695,
				"y": -2.608760816,
				"z": -0.1556242116,
				"element": "O" 
			},
			{
				"x": 0.028087757,
				"y": -1.7052944522,
				"z": 0.5615420263,
				"element": "N" 
			},
			{
				"x": -0.0130179155,
				"y": -1.7419857613,
				"z": 1.7906568158,
				"element": "O" 
			},
			{
				"x": -0.4720880193,
				"y": -0.490632736,
				"z": -0.0999606209,
				"element": "C" 
			},
			{
				"x": -0.9637086713,
				"y": 0.5512988147,
				"z": 0.6841728031,
				"element": "C" 
			},
			{
				"x": -1.4369287968,
				"y": 1.7006049503,
				"z": 0.0575201613,
				"element": "C" 
			},
			{
				"x": -1.4072956528,
				"y": 1.7805605879,
				"z": -1.3367886198,
				"element": "C" 
			},
			{
				"x": -2.0546367074,
				"y": 3.352584567,
				"z": -2.1928759184,
				"element": "Br" 
			},
			{
				"x": -0.9130958667,
				"y": 0.732285216,
				"z": -2.1166930084,
				"element": "C" 
			},
			{
				"x": -0.4395826055,
				"y": -0.4175811197,
				"z": -1.4912904528,
				"element": "C" 
			},
			{
				"x": -0.9697699399,
				"y": 0.4509381036,
				"z": 1.7622996914,
				"element": "H" 
			},
			{
				"x": -1.8246669247,
				"y": 2.5258190255,
				"z": 0.6429327458,
				"element": "H" 
			},
			{
				"x": -0.8995257829,
				"y": 0.8156945591,
				"z": -3.1969192234,
				"element": "H" 
			},
			{
				"x": -0.0487519436,
				"y": -1.251630939,
				"z": -2.0605721884,
				"element": "H" 
			}
		],
		 "valence_orbital": [ 
			{
				"type": "occ",
				"energy": -0.31427,
				"method": "rhf"
			},
			{
				"type": "occ",
				"energy": -0.30902,
				"method": "rhf"
			},
			{
				"type": "occ",
				"energy": -0.2972,
				"method": "rhf"
			},
			{
				"type": "occ",
				"energy": -0.29254,
				"method": "rhf"
			},
			{
				"type": "occ",
				"energy": -0.2716,
				"method": "rhf"
			},
			{
				"type": "unocc",
				"energy": -0.09778,
				"method": "rhf"
			},
			{
				"type": "unocc",
				"energy": -0.04162,
				"method": "rhf"
			},
			{
				"type": "unocc",
				"energy": -0.01302,
				"method": "rhf"
			},
			{
				"type": "unocc",
				"energy": -0.01232,
				"method": "rhf"
			},
			{
				"type": "unocc",
				"energy": 0.08761,
				"method": "rhf"
			}
		],
		"cosmo_sigma_profile": { 
			"-0.025": 0.0,
			"-0.024": 0.0,
			"-0.023": 0.0,
			"-0.022": 0.0,
			"-0.021": 0.0,
			"-0.02": 0.0,
			"-0.019": 0.0,
			"-0.018": 0.0,
			"-0.017": 0.0,
			"-0.016": 0.0,
			"-0.015": 0.0,
			"-0.014": 0.0,
			"-0.013": 0.0,
			"-0.012": 0.0,
			"-0.011": 0.0,
			"-0.01": 0.0,
			"-0.009": 1.16862955538,
			"-0.008": 6.70944242406,
			"-0.007": 7.80364485275,
			"-0.006": 8.14699151254,
			"-0.005": 7.91021292831,
			"-0.004": 9.75893177085,
			"-0.003": 9.48846200364,
			"-0.002": 13.5239643162,
			"-0.001": 15.6401934413,
			"0.0": 23.8955321856,
			"0.001": 15.7115990837,
			"0.002": 8.76016974523,
			"0.003": 12.4580987604,
			"0.004": 8.13531453512,
			"0.005": 2.97698880348,
			"0.006": 4.03337613084,
			"0.007": 8.73245294731,
			"0.008": 6.63664302077,
			"0.009": 4.16262310363,
			"0.01": 2.19344169042,
			"0.011": 0.0234280103456,
			"0.012": 0.0,
			"0.013": 0.0,
			"0.014": 0.0,
			"0.015": 0.0,
			"0.016": 0.0,
			"0.017": 0.0,
			"0.018": 0.0,
			"0.019": 0.0,
			"0.02": 0.0,
			"0.021": 0.0,
			"0.022": 0.0,
			"0.023": 0.0,
			"0.024": 0.0,
			"0.025": 0.0
		}
	}
}
