{
	 "smiles": "CC(C)C1=NN(C(N)=C1)C1=CC=C(C)C=C1", 
	 "Tm": 321.15, 
	 "num_atms": 33, 
	 "gaussian": { 
		 "optdone": 1, 
		 "sigma_profile": "yes", 
		 "theory": "DFT", 
		 "functional": "B3LYP", 
		 "basiset": "6-31G**", 
		 "properties": { 
			 "R2extent": 5206.2266, 
			 "electric_dipole_moment_norm": 2.97206706183, 
			 "electric_quadrupole_moment_norm": 8.40853123441, 
			 "total_energy": -669.885047188, 
			 "HOMO_LUMO_gap": 0.19212, 
			 "cosmo_polarized_energy": -12.04, 
			 "cosmo_cavitation_energy": 35.61, 
			 "cosmo_dispersion_energy": -25.47, 
			 "cosmo_repulsion_energy": 2.02, 
			 "cosmo_total_nonelectrostatic_energy": 12.15, 
			 "SMD_solvation_energy": 5.39 
		},
		"coords": [
			{
				"x": -1.3972922927,
				"y": -3.7957072073,
				"z": 0.8741710497,
				"element": "C" 
			},
			{
				"x": -1.5635033696,
				"y": -2.3137984231,
				"z": 1.2587280102,
				"element": "C" 
			},
			{
				"x": -3.0389940939,
				"y": -1.9767116591,
				"z": 1.5422029053,
				"element": "C" 
			},
			{
				"x": -0.9790924702,
				"y": -1.4031463995,
				"z": 0.2086796034,
				"element": "C" 
			},
			{
				"x": 0.0549501643,
				"y": -0.6269828661,
				"z": 0.5058373781,
				"element": "N" 
			},
			{
				"x": 0.3488000387,
				"y": 0.0447427513,
				"z": -0.6607379192,
				"element": "N" 
			},
			{
				"x": -0.5228779961,
				"y": -0.2961630281,
				"z": -1.6656143843,
				"element": "C" 
			},
			{
				"x": -0.4411694214,
				"y": 0.2343521058,
				"z": -2.9536175998,
				"element": "N" 
			},
			{
				"x": -1.3878025859,
				"y": -1.2390248294,
				"z": -1.141645577,
				"element": "C" 
			},
			{
				"x": 1.3961767714,
				"y": 0.9998202037,
				"z": -0.6667596781,
				"element": "C" 
			},
			{
				"x": 1.6603523452,
				"y": 1.7279049285,
				"z": 0.5016160926,
				"element": "C" 
			},
			{
				"x": 2.6926219867,
				"y": 2.6589510625,
				"z": 0.5179765371,
				"element": "C" 
			},
			{
				"x": 3.4803486842,
				"y": 2.9042832221,
				"z": -0.6177951239,
				"element": "C" 
			},
			{
				"x": 4.5761859234,
				"y": 3.9434299538,
				"z": -0.592422638,
				"element": "C" 
			},
			{
				"x": 3.2083387396,
				"y": 2.1601308594,
				"z": -1.7700747411,
				"element": "C" 
			},
			{
				"x": 2.1875737964,
				"y": 1.2079348913,
				"z": -1.802619876,
				"element": "C" 
			},
			{
				"x": -1.9471206099,
				"y": -4.0293060098,
				"z": -0.0447339864,
				"element": "H" 
			},
			{
				"x": -0.3448772378,
				"y": -4.0435514547,
				"z": 0.706506904,
				"element": "H" 
			},
			{
				"x": -1.7805482043,
				"y": -4.4475108341,
				"z": 1.6671362502,
				"element": "H" 
			},
			{
				"x": -0.9855578134,
				"y": -2.1284623051,
				"z": 2.1719504991,
				"element": "H" 
			},
			{
				"x": -3.4350670453,
				"y": -2.6126643482,
				"z": 2.3416173491,
				"element": "H" 
			},
			{
				"x": -3.1545295628,
				"y": -0.9323421333,
				"z": 1.8480204647,
				"element": "H" 
			},
			{
				"x": -3.6593951372,
				"y": -2.1360918741,
				"z": 0.6527528143,
				"element": "H" 
			},
			{
				"x": -1.2996252805,
				"y": 0.0916190454,
				"z": -3.4706527795,
				"element": "H" 
			},
			{
				"x": -0.1727881194,
				"y": 1.2123019546,
				"z": -2.9749689305,
				"element": "H" 
			},
			{
				"x": -2.2005031786,
				"y": -1.7253857167,
				"z": -1.6611675423,
				"element": "H" 
			},
			{
				"x": 1.0594127691,
				"y": 1.5364180274,
				"z": 1.3824002601,
				"element": "H" 
			},
			{
				"x": 2.8885679884,
				"y": 3.2127381708,
				"z": 1.4331245298,
				"element": "H" 
			},
			{
				"x": 5.2499749707,
				"y": 3.8346110481,
				"z": -1.4470913947,
				"element": "H" 
			},
			{
				"x": 5.1762325786,
				"y": 3.8704615252,
				"z": 0.3207963536,
				"element": "H" 
			},
			{
				"x": 4.1642012152,
				"y": 4.9598611092,
				"z": -0.6257598624,
				"element": "H" 
			},
			{
				"x": 3.8164829166,
				"y": 2.3092139134,
				"z": -2.6588831113,
				"element": "H" 
			},
			{
				"x": 2.0270235306,
				"y": 0.6119743159,
				"z": -2.6939718568,
				"element": "H" 
			}
		],
		 "valence_orbital": [ 
			{
				"type": "occ",
				"energy": -0.27153,
				"method": "rhf"
			},
			{
				"type": "occ",
				"energy": -0.26573,
				"method": "rhf"
			},
			{
				"type": "occ",
				"energy": -0.25036,
				"method": "rhf"
			},
			{
				"type": "occ",
				"energy": -0.21078,
				"method": "rhf"
			},
			{
				"type": "occ",
				"energy": -0.20054,
				"method": "rhf"
			},
			{
				"type": "unocc",
				"energy": -0.00842,
				"method": "rhf"
			},
			{
				"type": "unocc",
				"energy": -0.00317,
				"method": "rhf"
			},
			{
				"type": "unocc",
				"energy": 0.05233,
				"method": "rhf"
			},
			{
				"type": "unocc",
				"energy": 0.07702,
				"method": "rhf"
			},
			{
				"type": "unocc",
				"energy": 0.09311,
				"method": "rhf"
			}
		],
		"cosmo_sigma_profile": { 
			"-0.025": 0.0,
			"-0.024": 0.0,
			"-0.023": 0.0,
			"-0.022": 0.0,
			"-0.021": 0.0,
			"-0.02": 0.0,
			"-0.019": 0.0,
			"-0.018": 0.0,
			"-0.017": 0.0,
			"-0.016": 0.0,
			"-0.015": 0.0,
			"-0.014": 0.148335828684,
			"-0.013": 1.31399965479,
			"-0.012": 2.33456907371,
			"-0.011": 2.10748166504,
			"-0.01": 3.11777532692,
			"-0.009": 2.34286792384,
			"-0.008": 2.68775804806,
			"-0.007": 1.77519127207,
			"-0.006": 4.74034624503,
			"-0.005": 11.3977127516,
			"-0.004": 17.2952963222,
			"-0.003": 27.339781781,
			"-0.002": 27.9645282156,
			"-0.001": 29.0581858806,
			"0.0": 28.5866995573,
			"0.001": 30.2643829858,
			"0.002": 17.2682720274,
			"0.003": 12.1195373513,
			"0.004": 14.1201794545,
			"0.005": 17.2488542638,
			"0.006": 9.02830744819,
			"0.007": 4.35363665787,
			"0.008": 2.53141586532,
			"0.009": 2.37114843086,
			"0.01": 2.11013389447,
			"0.011": 1.89981933421,
			"0.012": 1.3945892391,
			"0.013": 1.57181538699,
			"0.014": 0.711238651732,
			"0.015": 0.724663910445,
			"0.016": 0.429627308601,
			"0.017": 0.0,
			"0.018": 0.0,
			"0.019": 0.0,
			"0.02": 0.0,
			"0.021": 0.0,
			"0.022": 0.0,
			"0.023": 0.0,
			"0.024": 0.0,
			"0.025": 0.0
		}
	}
}
