{
	 "smiles": "NC1=NC=C(S1)C1=CC=CC=C1", 
	 "Tm": 472.15, 
	 "num_atms": 20, 
	 "gaussian": { 
		 "optdone": 1, 
		 "sigma_profile": "yes", 
		 "theory": "DFT", 
		 "functional": "B3LYP", 
		 "basiset": "6-31G**", 
		 "properties": { 
			 "R2extent": 3363.8295, 
			 "electric_dipole_moment_norm": 1.66034765034, 
			 "electric_quadrupole_moment_norm": 17.6825123156, 
			 "total_energy": -855.468208025, 
			 "HOMO_LUMO_gap": 0.16573, 
			 "cosmo_polarized_energy": -11.17, 
			 "cosmo_cavitation_energy": 25.76, 
			 "cosmo_dispersion_energy": -19.79, 
			 "cosmo_repulsion_energy": 1.52, 
			 "cosmo_total_nonelectrostatic_energy": 7.49, 
			 "SMD_solvation_energy": 2.39 
		},
		"coords": [
			{
				"x": -0.4600114138,
				"y": -5.3054682335,
				"z": 0.4377136372,
				"element": "N" 
			},
			{
				"x": -0.2479008411,
				"y": -4.0388214969,
				"z": -0.0570636606,
				"element": "C" 
			},
			{
				"x": 0.4584894301,
				"y": -3.7856475173,
				"z": -1.1231877216,
				"element": "N" 
			},
			{
				"x": 0.4215203821,
				"y": -2.4427452479,
				"z": -1.4154573269,
				"element": "C" 
			},
			{
				"x": -0.2953517665,
				"y": -1.6243492374,
				"z": -0.5838035927,
				"element": "C" 
			},
			{
				"x": -1.0187542548,
				"y": -2.6306344099,
				"z": 0.6804420623,
				"element": "S" 
			},
			{
				"x": -0.485982121,
				"y": -0.1736438563,
				"z": -0.6425792686,
				"element": "C" 
			},
			{
				"x": 0.4647246751,
				"y": 0.6407873321,
				"z": -1.2886641488,
				"element": "C" 
			},
			{
				"x": 0.2824142234,
				"y": 2.0182703797,
				"z": -1.3766466598,
				"element": "C" 
			},
			{
				"x": -0.8407151732,
				"y": 2.6216461524,
				"z": -0.8052474038,
				"element": "C" 
			},
			{
				"x": -1.7830789758,
				"y": 1.8287787746,
				"z": -0.1482969268,
				"element": "C" 
			},
			{
				"x": -1.6117844182,
				"y": 0.4479168095,
				"z": -0.0716303863,
				"element": "C" 
			},
			{
				"x": -0.5955810412,
				"y": -5.392238979,
				"z": 1.434825958,
				"element": "H" 
			},
			{
				"x": 0.1766780017,
				"y": -5.9884977875,
				"z": 0.047692896,
				"element": "H" 
			},
			{
				"x": 0.947996361,
				"y": -2.0914268871,
				"z": -2.2957028522,
				"element": "H" 
			},
			{
				"x": 1.3596092392,
				"y": 0.1890946875,
				"z": -1.7053250569,
				"element": "H" 
			},
			{
				"x": 1.0292418167,
				"y": 2.6253178139,
				"z": -1.8807041905,
				"element": "H" 
			},
			{
				"x": -0.9762228207,
				"y": 3.6973209311,
				"z": -0.8669735682,
				"element": "H" 
			},
			{
				"x": -2.6611814122,
				"y": 2.2846731785,
				"z": 0.3003283403,
				"element": "H" 
			},
			{
				"x": -2.3669098909,
				"y": -0.1582324065,
				"z": 0.4210798697,
				"element": "H" 
			}
		],
		 "valence_orbital": [ 
			{
				"type": "occ",
				"energy": -0.27847,
				"method": "rhf"
			},
			{
				"type": "occ",
				"energy": -0.27127,
				"method": "rhf"
			},
			{
				"type": "occ",
				"energy": -0.25698,
				"method": "rhf"
			},
			{
				"type": "occ",
				"energy": -0.25028,
				"method": "rhf"
			},
			{
				"type": "occ",
				"energy": -0.19723,
				"method": "rhf"
			},
			{
				"type": "unocc",
				"energy": -0.0315,
				"method": "rhf"
			},
			{
				"type": "unocc",
				"energy": -0.00343,
				"method": "rhf"
			},
			{
				"type": "unocc",
				"energy": 0.01057,
				"method": "rhf"
			},
			{
				"type": "unocc",
				"energy": 0.02853,
				"method": "rhf"
			},
			{
				"type": "unocc",
				"energy": 0.06845,
				"method": "rhf"
			}
		],
		"cosmo_sigma_profile": { 
			"-0.025": 0.0,
			"-0.024": 0.0,
			"-0.023": 0.0,
			"-0.022": 0.0,
			"-0.021": 0.0,
			"-0.02": 0.0,
			"-0.019": 0.0,
			"-0.018": 0.0,
			"-0.017": 0.0,
			"-0.016": 0.0,
			"-0.015": 0.612664131723,
			"-0.014": 1.83905702105,
			"-0.013": 2.72333913697,
			"-0.012": 2.39317083982,
			"-0.011": 2.15448570852,
			"-0.01": 3.16568965442,
			"-0.009": 1.77672917826,
			"-0.008": 1.95714602842,
			"-0.007": 3.6336652041,
			"-0.006": 9.65326287813,
			"-0.005": 12.7401523739,
			"-0.004": 14.1811730786,
			"-0.003": 12.7866308075,
			"-0.002": 10.3318241589,
			"-0.001": 11.8484013597,
			"0.0": 9.43646892087,
			"0.001": 13.28009135,
			"0.002": 17.815530141,
			"0.003": 19.2019601616,
			"0.004": 19.6219608633,
			"0.005": 15.4983177081,
			"0.006": 7.89086769865,
			"0.007": 2.38025043467,
			"0.008": 2.01837480638,
			"0.009": 1.93328914422,
			"0.01": 1.24611160305,
			"0.011": 2.26525549044,
			"0.012": 1.09662348809,
			"0.013": 1.06232857361,
			"0.014": 0.622249038409,
			"0.015": 1.24506504845,
			"0.016": 0.223248158126,
			"0.017": 0.0,
			"0.018": 0.0,
			"0.019": 0.0,
			"0.02": 0.0,
			"0.021": 0.0,
			"0.022": 0.0,
			"0.023": 0.0,
			"0.024": 0.0,
			"0.025": 0.0
		}
	}
}
