{
	 "smiles": "CC1C2C(CCC1=C/C(=O)OCCN(C)C)C1(C)CCC(O)C(C)(C)C1CC2=O", 
	 "Tm": 415.15, 
	 "num_atms": 68, 
	 "gaussian": { 
		 "optdone": 1, 
		 "sigma_profile": "yes", 
		 "theory": "DFT", 
		 "functional": "B3LYP", 
		 "basiset": "6-31G**", 
		 "properties": { 
			 "R2extent": 19923.2372, 
			 "electric_dipole_moment_norm": 2.24031412306, 
			 "electric_quadrupole_moment_norm": 16.6578666206, 
			 "total_energy": -1293.68797535, 
			 "HOMO_LUMO_gap": 0.16568, 
			 "cosmo_polarized_energy": -18.52, 
			 "cosmo_cavitation_energy": 59.69, 
			 "cosmo_dispersion_energy": -40.97, 
			 "cosmo_repulsion_energy": 3.0, 
			 "cosmo_total_nonelectrostatic_energy": 21.73, 
			 "SMD_solvation_energy": 8.17 
		},
		"coords": [
			{
				"x": 1.586279829,
				"y": 0.290776969,
				"z": -0.9541175838,
				"element": "C" 
			},
			{
				"x": 0.2532729443,
				"y": -0.4731575426,
				"z": -0.7840195251,
				"element": "C" 
			},
			{
				"x": -1.0512349875,
				"y": 0.3616857258,
				"z": -0.850474149,
				"element": "C" 
			},
			{
				"x": -1.3828759356,
				"y": 1.3025589265,
				"z": 0.3658573939,
				"element": "C" 
			},
			{
				"x": -0.5104561545,
				"y": 0.8996448807,
				"z": 1.5777312984,
				"element": "C" 
			},
			{
				"x": -0.3542674918,
				"y": -0.6220274441,
				"z": 1.7174909178,
				"element": "C" 
			},
			{
				"x": 0.2441939357,
				"y": -1.2915845834,
				"z": 0.4981897267,
				"element": "C" 
			},
			{
				"x": 0.7366881723,
				"y": -2.5474288741,
				"z": 0.4864127074,
				"element": "C" 
			},
			{
				"x": 0.8049827116,
				"y": -3.4419379474,
				"z": 1.6532150038,
				"element": "C" 
			},
			{
				"x": 0.3769507984,
				"y": -3.2253880941,
				"z": 2.7754129604,
				"element": "O" 
			},
			{
				"x": 1.4282279021,
				"y": -4.6046052843,
				"z": 1.3203249016,
				"element": "O" 
			},
			{
				"x": 1.5557361319,
				"y": -5.5745612083,
				"z": 2.3786566121,
				"element": "C" 
			},
			{
				"x": 2.2721806536,
				"y": -6.8119162596,
				"z": 1.8295895952,
				"element": "C" 
			},
			{
				"x": 3.6979366622,
				"y": -6.7249750826,
				"z": 1.5409552726,
				"element": "N" 
			},
			{
				"x": 4.0577118976,
				"y": -5.8933600811,
				"z": 0.4002691476,
				"element": "C" 
			},
			{
				"x": 4.5313862923,
				"y": -6.4711931512,
				"z": 2.7037001671,
				"element": "C" 
			},
			{
				"x": -1.3987325066,
				"y": 2.8480624428,
				"z": 0.0357771618,
				"element": "C" 
			},
			{
				"x": -1.7617184197,
				"y": 3.5630586916,
				"z": 1.3577433429,
				"element": "C" 
			},
			{
				"x": -0.0149674223,
				"y": 3.3435358937,
				"z": -0.4605142996,
				"element": "C" 
			},
			{
				"x": -0.0238114139,
				"y": 4.7652161816,
				"z": -1.0363291872,
				"element": "C" 
			},
			{
				"x": -1.0203603918,
				"y": 4.8854394447,
				"z": -2.1852109352,
				"element": "C" 
			},
			{
				"x": -0.8946099327,
				"y": 6.2062763542,
				"z": -2.7126297398,
				"element": "O" 
			},
			{
				"x": -2.4718994337,
				"y": 4.5566090188,
				"z": -1.7427017031,
				"element": "C" 
			},
			{
				"x": -3.0183631514,
				"y": 5.65739602,
				"z": -0.7999133266,
				"element": "C" 
			},
			{
				"x": -3.4054496701,
				"y": 4.6051662431,
				"z": -2.981659184,
				"element": "C" 
			},
			{
				"x": -2.49930924,
				"y": 3.1187658866,
				"z": -1.072013403,
				"element": "C" 
			},
			{
				"x": -2.5083341092,
				"y": 1.9680572227,
				"z": -2.1473262806,
				"element": "C" 
			},
			{
				"x": -1.2841940541,
				"y": 1.0769373659,
				"z": -2.1640722359,
				"element": "C" 
			},
			{
				"x": -0.6038058632,
				"y": 0.9111380861,
				"z": -3.162925117,
				"element": "O" 
			},
			{
				"x": 2.4108608767,
				"y": -0.428447151,
				"z": -0.9608787081,
				"element": "H" 
			},
			{
				"x": 1.5922559009,
				"y": 0.8235991188,
				"z": -1.9072392975,
				"element": "H" 
			},
			{
				"x": 1.7801548444,
				"y": 1.0028844281,
				"z": -0.1492894573,
				"element": "H" 
			},
			{
				"x": 0.2035662251,
				"y": -1.1664310788,
				"z": -1.6307574792,
				"element": "H" 
			},
			{
				"x": -1.8535435533,
				"y": -0.3942369509,
				"z": -0.8513635033,
				"element": "H" 
			},
			{
				"x": -2.4189868457,
				"y": 1.0740088784,
				"z": 0.6546245491,
				"element": "H" 
			},
			{
				"x": -0.9594881854,
				"y": 1.2744835856,
				"z": 2.50097393,
				"element": "H" 
			},
			{
				"x": 0.4800190435,
				"y": 1.3621042603,
				"z": 1.5115540887,
				"element": "H" 
			},
			{
				"x": 0.2298377249,
				"y": -0.8733552044,
				"z": 2.6058388999,
				"element": "H" 
			},
			{
				"x": -1.3394884147,
				"y": -1.0739669169,
				"z": 1.9066917898,
				"element": "H" 
			},
			{
				"x": 1.1306436284,
				"y": -2.9602196212,
				"z": -0.4382909979,
				"element": "H" 
			},
			{
				"x": 0.5558811364,
				"y": -5.8432881572,
				"z": 2.7389180786,
				"element": "H" 
			},
			{
				"x": 2.0905203484,
				"y": -5.1223106781,
				"z": 3.2199842839,
				"element": "H" 
			},
			{
				"x": 1.7555674389,
				"y": -7.130779484,
				"z": 0.9159794987,
				"element": "H" 
			},
			{
				"x": 2.1311329938,
				"y": -7.61114658,
				"z": 2.5702972367,
				"element": "H" 
			},
			{
				"x": 3.9604903408,
				"y": -4.8095471495,
				"z": 0.5805535195,
				"element": "H" 
			},
			{
				"x": 5.0982282144,
				"y": -6.0984699726,
				"z": 0.1217424602,
				"element": "H" 
			},
			{
				"x": 3.4222938376,
				"y": -6.1461527024,
				"z": -0.4540047699,
				"element": "H" 
			},
			{
				"x": 4.4511759397,
				"y": -5.4455942938,
				"z": 3.1114327557,
				"element": "H" 
			},
			{
				"x": 4.2756752864,
				"y": -7.1729275823,
				"z": 3.5053435251,
				"element": "H" 
			},
			{
				"x": 5.582301137,
				"y": -6.633246932,
				"z": 2.4390731575,
				"element": "H" 
			},
			{
				"x": -2.7331749192,
				"y": 3.2233593693,
				"z": 1.7356821099,
				"element": "H" 
			},
			{
				"x": -1.8104195412,
				"y": 4.6439163361,
				"z": 1.2574813915,
				"element": "H" 
			},
			{
				"x": -1.0137091069,
				"y": 3.3572808721,
				"z": 2.1270963116,
				"element": "H" 
			},
			{
				"x": 0.7090813371,
				"y": 3.2874846189,
				"z": 0.3602184117,
				"element": "H" 
			},
			{
				"x": 0.3636045295,
				"y": 2.6766445919,
				"z": -1.240444481,
				"element": "H" 
			},
			{
				"x": 0.9718510388,
				"y": 5.017454704,
				"z": -1.4164739274,
				"element": "H" 
			},
			{
				"x": -0.2554972672,
				"y": 5.5107995331,
				"z": -0.2681611678,
				"element": "H" 
			},
			{
				"x": -0.7324700586,
				"y": 4.1503157287,
				"z": -2.9570342256,
				"element": "H" 
			},
			{
				"x": -1.3661547843,
				"y": 6.2403048266,
				"z": -3.5540920484,
				"element": "H" 
			},
			{
				"x": -2.383314004,
				"y": 5.8669667944,
				"z": 0.0582678292,
				"element": "H" 
			},
			{
				"x": -3.1073754606,
				"y": 6.5966383171,
				"z": -1.3502993775,
				"element": "H" 
			},
			{
				"x": -4.0113448027,
				"y": 5.3855779724,
				"z": -0.4251700009,
				"element": "H" 
			},
			{
				"x": -4.3896669377,
				"y": 4.1796664025,
				"z": -2.7564031768,
				"element": "H" 
			},
			{
				"x": -3.5721774928,
				"y": 5.6438213161,
				"z": -3.2841754058,
				"element": "H" 
			},
			{
				"x": -3.004490715,
				"y": 4.0772121165,
				"z": -3.8516929125,
				"element": "H" 
			},
			{
				"x": -3.4679576415,
				"y": 3.0600612574,
				"z": -0.5596885648,
				"element": "H" 
			},
			{
				"x": -3.3596262698,
				"y": 1.3081986686,
				"z": -1.9333884753,
				"element": "H" 
			},
			{
				"x": -2.6452135752,
				"y": 2.3332469572,
				"z": -3.1613253897,
				"element": "H" 
			}
		],
		 "valence_orbital": [ 
			{
				"type": "occ",
				"energy": -0.26062,
				"method": "rhf"
			},
			{
				"type": "occ",
				"energy": -0.25952,
				"method": "rhf"
			},
			{
				"type": "occ",
				"energy": -0.25199,
				"method": "rhf"
			},
			{
				"type": "occ",
				"energy": -0.23887,
				"method": "rhf"
			},
			{
				"type": "occ",
				"energy": -0.2017,
				"method": "rhf"
			},
			{
				"type": "unocc",
				"energy": -0.03602,
				"method": "rhf"
			},
			{
				"type": "unocc",
				"energy": -0.01687,
				"method": "rhf"
			},
			{
				"type": "unocc",
				"energy": 0.05969,
				"method": "rhf"
			},
			{
				"type": "unocc",
				"energy": 0.06611,
				"method": "rhf"
			},
			{
				"type": "unocc",
				"energy": 0.07959,
				"method": "rhf"
			}
		],
		"cosmo_sigma_profile": { 
			"-0.025": 0.0,
			"-0.024": 0.0,
			"-0.023": 0.0,
			"-0.022": 0.0,
			"-0.021": 0.0,
			"-0.02": 0.0,
			"-0.019": 0.0,
			"-0.018": 0.0,
			"-0.017": 0.0,
			"-0.016": 0.0,
			"-0.015": 0.0736147223371,
			"-0.014": 0.592345665933,
			"-0.013": 1.06621937696,
			"-0.012": 0.825356861775,
			"-0.011": 0.193673094674,
			"-0.01": 1.22134692358,
			"-0.009": 1.17865804892,
			"-0.008": 1.20037112317,
			"-0.007": 2.92552101375,
			"-0.006": 7.3940854984,
			"-0.005": 18.5216649868,
			"-0.004": 39.4235626625,
			"-0.003": 51.5857234297,
			"-0.002": 64.9398901281,
			"-0.001": 60.7731244175,
			"0.0": 56.2050531112,
			"0.001": 43.1186241692,
			"0.002": 24.5431377601,
			"0.003": 13.0939491969,
			"0.004": 8.34184723245,
			"0.005": 7.42042149571,
			"0.006": 7.12540296346,
			"0.007": 7.01290298388,
			"0.008": 4.67251688368,
			"0.009": 6.03540339553,
			"0.01": 4.55085835758,
			"0.011": 6.19942661626,
			"0.012": 7.99971459331,
			"0.013": 6.66775717272,
			"0.014": 2.67663711809,
			"0.015": 1.4047901727,
			"0.016": 0.275941251206,
			"0.017": 0.0261826938951,
			"0.018": 0.0,
			"0.019": 0.0,
			"0.02": 0.0,
			"0.021": 0.0,
			"0.022": 0.0,
			"0.023": 0.0,
			"0.024": 0.0,
			"0.025": 0.0
		}
	}
}
