{
	 "smiles": "CCCCC=C/CCC=C/CCCCCCOC(C)=O", 
	 "Tm": 298.15, 
	 "num_atms": 52, 
	 "gaussian": { 
		 "optdone": 1, 
		 "sigma_profile": "yes", 
		 "theory": "DFT", 
		 "functional": "B3LYP", 
		 "basiset": "6-31G**", 
		 "properties": { 
			 "R2extent": 12544.6725, 
			 "electric_dipole_moment_norm": 2.33814964021, 
			 "electric_quadrupole_moment_norm": 16.6858221353, 
			 "total_energy": -855.654134627, 
			 "HOMO_LUMO_gap": 0.2487, 
			 "cosmo_polarized_energy": -8.84, 
			 "cosmo_cavitation_energy": 53.7, 
			 "cosmo_dispersion_energy": -35.66, 
			 "cosmo_repulsion_energy": 2.97, 
			 "cosmo_total_nonelectrostatic_energy": 21.0, 
			 "SMD_solvation_energy": 9.13 
		},
		"coords": [
			{
				"x": 1.4921600219,
				"y": 3.5440257188,
				"z": -4.4855443468,
				"element": "C" 
			},
			{
				"x": 0.5022473902,
				"y": 2.4371069714,
				"z": -4.103075417,
				"element": "C" 
			},
			{
				"x": 0.5162017148,
				"y": 2.0534753101,
				"z": -2.6141961192,
				"element": "C" 
			},
			{
				"x": 0.0233058246,
				"y": 3.1634563536,
				"z": -1.6636265233,
				"element": "C" 
			},
			{
				"x": 0.0721429638,
				"y": 2.7445463702,
				"z": -0.217963142,
				"element": "C" 
			},
			{
				"x": -0.9345205561,
				"y": 2.6694008023,
				"z": 0.6619378208,
				"element": "C" 
			},
			{
				"x": -2.3881420128,
				"y": 2.9870801648,
				"z": 0.4349580766,
				"element": "C" 
			},
			{
				"x": -3.3324053374,
				"y": 1.8152883574,
				"z": 0.8121386768,
				"element": "C" 
			},
			{
				"x": -3.3436567796,
				"y": 1.5124877269,
				"z": 2.2873040989,
				"element": "C" 
			},
			{
				"x": -2.9851242404,
				"y": 0.380273725,
				"z": 2.9061879999,
				"element": "C" 
			},
			{
				"x": -2.4909170518,
				"y": -0.901251867,
				"z": 2.2881339286,
				"element": "C" 
			},
			{
				"x": -3.4509950999,
				"y": -2.0800906971,
				"z": 2.5477338586,
				"element": "C" 
			},
			{
				"x": -3.0534588801,
				"y": -3.4251081658,
				"z": 1.9137680964,
				"element": "C" 
			},
			{
				"x": -1.7399410504,
				"y": -4.0572268287,
				"z": 2.4270574477,
				"element": "C" 
			},
			{
				"x": -0.4892460511,
				"y": -3.7012967634,
				"z": 1.6076242477,
				"element": "C" 
			},
			{
				"x": 0.7613887373,
				"y": -4.3611723505,
				"z": 2.1675955557,
				"element": "C" 
			},
			{
				"x": 1.8719560055,
				"y": -3.9915734104,
				"z": 1.3202686032,
				"element": "O" 
			},
			{
				"x": 3.0776789954,
				"y": -4.4898421823,
				"z": 1.6772723012,
				"element": "C" 
			},
			{
				"x": 4.1532049037,
				"y": -4.0331828494,
				"z": 0.7189711201,
				"element": "C" 
			},
			{
				"x": 3.2499070703,
				"y": -5.2046953949,
				"z": 2.6405573008,
				"element": "O" 
			},
			{
				"x": 1.4718675713,
				"y": 3.7347815774,
				"z": -5.563651947,
				"element": "H" 
			},
			{
				"x": 1.2649942582,
				"y": 4.4897736059,
				"z": -3.9829136446,
				"element": "H" 
			},
			{
				"x": 2.5179840719,
				"y": 3.2650278664,
				"z": -4.2173637759,
				"element": "H" 
			},
			{
				"x": -0.514510715,
				"y": 2.7408314544,
				"z": -4.3884180361,
				"element": "H" 
			},
			{
				"x": 0.7261957947,
				"y": 1.5405675789,
				"z": -4.6952891508,
				"element": "H" 
			},
			{
				"x": -0.1113620629,
				"y": 1.1656856544,
				"z": -2.4654290381,
				"element": "H" 
			},
			{
				"x": 1.5347614502,
				"y": 1.7567727971,
				"z": -2.3256205818,
				"element": "H" 
			},
			{
				"x": -0.9896910865,
				"y": 3.4639333875,
				"z": -1.9543853795,
				"element": "H" 
			},
			{
				"x": 0.6550247883,
				"y": 4.0538921417,
				"z": -1.791890071,
				"element": "H" 
			},
			{
				"x": 1.0656851175,
				"y": 2.4636748473,
				"z": 0.1360245154,
				"element": "H" 
			},
			{
				"x": -0.6973974025,
				"y": 2.333415369,
				"z": 1.6712443713,
				"element": "H" 
			},
			{
				"x": -2.6669734021,
				"y": 3.8613575522,
				"z": 1.0428080046,
				"element": "H" 
			},
			{
				"x": -2.5717221558,
				"y": 3.267737402,
				"z": -0.6067957358,
				"element": "H" 
			},
			{
				"x": -4.3510962962,
				"y": 2.0921226589,
				"z": 0.5048203377,
				"element": "H" 
			},
			{
				"x": -3.0587253927,
				"y": 0.9318497206,
				"z": 0.2270130472,
				"element": "H" 
			},
			{
				"x": -3.6839654482,
				"y": 2.3386598633,
				"z": 2.9143246451,
				"element": "H" 
			},
			{
				"x": -3.0720807749,
				"y": 0.3554319601,
				"z": 3.9937195733,
				"element": "H" 
			},
			{
				"x": -2.3363266014,
				"y": -0.7841641141,
				"z": 1.2099968195,
				"element": "H" 
			},
			{
				"x": -1.5074964972,
				"y": -1.1359563725,
				"z": 2.7181022936,
				"element": "H" 
			},
			{
				"x": -4.4454539934,
				"y": -1.8015749596,
				"z": 2.1765820826,
				"element": "H" 
			},
			{
				"x": -3.5625095626,
				"y": -2.2168096602,
				"z": 3.6327422127,
				"element": "H" 
			},
			{
				"x": -3.8749604801,
				"y": -4.1268477572,
				"z": 2.102722673,
				"element": "H" 
			},
			{
				"x": -3.0020762761,
				"y": -3.3153752311,
				"z": 0.8214741754,
				"element": "H" 
			},
			{
				"x": -1.8468902534,
				"y": -5.1498074053,
				"z": 2.4239936111,
				"element": "H" 
			},
			{
				"x": -1.5872253128,
				"y": -3.7773053067,
				"z": 3.4791537427,
				"element": "H" 
			},
			{
				"x": -0.6274354302,
				"y": -4.0257379348,
				"z": 0.5685778252,
				"element": "H" 
			},
			{
				"x": -0.3344925654,
				"y": -2.6177078015,
				"z": 1.577052641,
				"element": "H" 
			},
			{
				"x": 0.9713512763,
				"y": -4.0352983943,
				"z": 3.1922950986,
				"element": "H" 
			},
			{
				"x": 0.6742025802,
				"y": -5.4532546899,
				"z": 2.1851991048,
				"element": "H" 
			},
			{
				"x": 4.2059678768,
				"y": -2.9404764133,
				"z": 0.7065396114,
				"element": "H" 
			},
			{
				"x": 5.1125035084,
				"y": -4.4482923186,
				"z": 1.0262621018,
				"element": "H" 
			},
			{
				"x": 3.9137668479,
				"y": -4.3587080692,
				"z": -0.2976947118,
				"element": "H" 
			}
		],
		 "valence_orbital": [ 
			{
				"type": "occ",
				"energy": -0.30727,
				"method": "rhf"
			},
			{
				"type": "occ",
				"energy": -0.29463,
				"method": "rhf"
			},
			{
				"type": "occ",
				"energy": -0.26488,
				"method": "rhf"
			},
			{
				"type": "occ",
				"energy": -0.24265,
				"method": "rhf"
			},
			{
				"type": "occ",
				"energy": -0.23081,
				"method": "rhf"
			},
			{
				"type": "unocc",
				"energy": 0.01789,
				"method": "rhf"
			},
			{
				"type": "unocc",
				"energy": 0.02341,
				"method": "rhf"
			},
			{
				"type": "unocc",
				"energy": 0.0327,
				"method": "rhf"
			},
			{
				"type": "unocc",
				"energy": 0.08206,
				"method": "rhf"
			},
			{
				"type": "unocc",
				"energy": 0.08961,
				"method": "rhf"
			}
		],
		"cosmo_sigma_profile": { 
			"-0.025": 0.0,
			"-0.024": 0.0,
			"-0.023": 0.0,
			"-0.022": 0.0,
			"-0.021": 0.0,
			"-0.02": 0.0,
			"-0.019": 0.0,
			"-0.018": 0.0,
			"-0.017": 0.0,
			"-0.016": 0.0,
			"-0.015": 0.0,
			"-0.014": 0.0,
			"-0.013": 0.0,
			"-0.012": 0.0,
			"-0.011": 0.0,
			"-0.01": 0.0,
			"-0.009": 0.0,
			"-0.008": 0.0,
			"-0.007": 0.44715999282,
			"-0.006": 4.24795718183,
			"-0.005": 7.30728134975,
			"-0.004": 18.1087666672,
			"-0.003": 42.4802161545,
			"-0.002": 73.3772554859,
			"-0.001": 75.3836912389,
			"0.0": 60.1203823318,
			"0.001": 47.7477106771,
			"0.002": 23.0900496434,
			"0.003": 14.2306947555,
			"0.004": 10.6833478075,
			"0.005": 8.07975976744,
			"0.006": 7.58677202144,
			"0.007": 4.60711858229,
			"0.008": 3.75111844704,
			"0.009": 2.49336400627,
			"0.01": 2.3162720214,
			"0.011": 1.85003831671,
			"0.012": 5.37140092636,
			"0.013": 2.19927331781,
			"0.014": 0.14393721893,
			"0.015": 0.0,
			"0.016": 0.0,
			"0.017": 0.0,
			"0.018": 0.0,
			"0.019": 0.0,
			"0.02": 0.0,
			"0.021": 0.0,
			"0.022": 0.0,
			"0.023": 0.0,
			"0.024": 0.0,
			"0.025": 0.0
		}
	}
}
