{
	 "smiles": "OC1=CC=CC(=C1)N1CCNCC1", 
	 "Tm": 480.15, 
	 "num_atms": 27, 
	 "gaussian": { 
		 "optdone": 1, 
		 "sigma_profile": "yes", 
		 "theory": "DFT", 
		 "functional": "B3LYP", 
		 "basiset": "6-31G**", 
		 "properties": { 
			 "R2extent": 3628.2678, 
			 "electric_dipole_moment_norm": 1.66452119542, 
			 "electric_quadrupole_moment_norm": 15.2323973146, 
			 "total_energy": -574.202112711, 
			 "HOMO_LUMO_gap": 0.19853, 
			 "cosmo_polarized_energy": -12.59, 
			 "cosmo_cavitation_energy": 28.24, 
			 "cosmo_dispersion_energy": -21.26, 
			 "cosmo_repulsion_energy": 1.67, 
			 "cosmo_total_nonelectrostatic_energy": 8.64, 
			 "SMD_solvation_energy": 1.27 
		},
		"coords": [
			{
				"x": 3.3756804949,
				"y": 1.4922997596,
				"z": -3.6009221228,
				"element": "O" 
			},
			{
				"x": 2.1628422232,
				"y": 1.7728431347,
				"z": -3.0315596901,
				"element": "C" 
			},
			{
				"x": 1.5518190128,
				"y": 2.9795468663,
				"z": -3.3923588507,
				"element": "C" 
			},
			{
				"x": 0.3263404548,
				"y": 3.290218455,
				"z": -2.815228579,
				"element": "C" 
			},
			{
				"x": -0.3003531098,
				"y": 2.4334126263,
				"z": -1.9082126472,
				"element": "C" 
			},
			{
				"x": 0.3103248478,
				"y": 1.2168257575,
				"z": -1.5415222739,
				"element": "C" 
			},
			{
				"x": 1.5611517007,
				"y": 0.9070354722,
				"z": -2.1198783172,
				"element": "C" 
			},
			{
				"x": -0.2726598779,
				"y": 0.3664927393,
				"z": -0.5954788123,
				"element": "N" 
			},
			{
				"x": -0.1231110916,
				"y": -1.0842423745,
				"z": -0.6609442035,
				"element": "C" 
			},
			{
				"x": 0.0326601758,
				"y": -1.6560877768,
				"z": 0.7704984121,
				"element": "C" 
			},
			{
				"x": -0.7079486215,
				"y": -0.882178801,
				"z": 1.7788636004,
				"element": "N" 
			},
			{
				"x": -1.8753673671,
				"y": -0.2423028763,
				"z": 1.1784898916,
				"element": "C" 
			},
			{
				"x": -1.5075350004,
				"y": 0.7772552175,
				"z": 0.0693973908,
				"element": "C" 
			},
			{
				"x": 3.6853973471,
				"y": 0.63694979,
				"z": -3.2766069269,
				"element": "H" 
			},
			{
				"x": 2.0411588815,
				"y": 3.6361861842,
				"z": -4.1025399016,
				"element": "H" 
			},
			{
				"x": -0.1677046565,
				"y": 4.2200815133,
				"z": -3.0841062715,
				"element": "H" 
			},
			{
				"x": -1.2670404174,
				"y": 2.7081411702,
				"z": -1.5069119122,
				"element": "H" 
			},
			{
				"x": 2.0906726466,
				"y": 0.0028668854,
				"z": -1.8328791975,
				"element": "H" 
			},
			{
				"x": -1.0022486218,
				"y": -1.5329629305,
				"z": -1.1547428811,
				"element": "H" 
			},
			{
				"x": 0.7364491841,
				"y": -1.3530465394,
				"z": -1.2736139087,
				"element": "H" 
			},
			{
				"x": 1.0880800056,
				"y": -1.6699758428,
				"z": 1.0610080591,
				"element": "H" 
			},
			{
				"x": -0.3176327442,
				"y": -2.6976515344,
				"z": 0.7766756551,
				"element": "H" 
			},
			{
				"x": -0.0960903567,
				"y": -0.1544688142,
				"z": 2.1391975001,
				"element": "H" 
			},
			{
				"x": -2.5182445352,
				"y": -1.0321284055,
				"z": 0.7718359774,
				"element": "H" 
			},
			{
				"x": -2.4590938202,
				"y": 0.262376222,
				"z": 1.9550455869,
				"element": "H" 
			},
			{
				"x": -2.3509956751,
				"y": 0.8802404717,
				"z": -0.6380502594,
				"element": "H" 
			},
			{
				"x": -1.3419510795,
				"y": 1.7649736301,
				"z": 0.5161446821,
				"element": "H" 
			}
		],
		 "valence_orbital": [ 
			{
				"type": "occ",
				"energy": -0.32872,
				"method": "rhf"
			},
			{
				"type": "occ",
				"energy": -0.27175,
				"method": "rhf"
			},
			{
				"type": "occ",
				"energy": -0.22423,
				"method": "rhf"
			},
			{
				"type": "occ",
				"energy": -0.21791,
				"method": "rhf"
			},
			{
				"type": "occ",
				"energy": -0.1874,
				"method": "rhf"
			},
			{
				"type": "unocc",
				"energy": 0.01113,
				"method": "rhf"
			},
			{
				"type": "unocc",
				"energy": 0.02962,
				"method": "rhf"
			},
			{
				"type": "unocc",
				"energy": 0.07056,
				"method": "rhf"
			},
			{
				"type": "unocc",
				"energy": 0.07622,
				"method": "rhf"
			},
			{
				"type": "unocc",
				"energy": 0.10199,
				"method": "rhf"
			}
		],
		"cosmo_sigma_profile": { 
			"-0.025": 0.0,
			"-0.024": 0.0,
			"-0.023": 0.0,
			"-0.022": 0.0,
			"-0.021": 0.0,
			"-0.02": 0.0,
			"-0.019": 0.0,
			"-0.018": 0.0349574670377,
			"-0.017": 0.870054392285,
			"-0.016": 1.10762443936,
			"-0.015": 0.876370934669,
			"-0.014": 1.23972496185,
			"-0.013": 0.99317277368,
			"-0.012": 0.731868567168,
			"-0.011": 0.827928694408,
			"-0.01": 1.09178728083,
			"-0.009": 3.01983027548,
			"-0.008": 2.59681893616,
			"-0.007": 2.93462546118,
			"-0.006": 4.3945100466,
			"-0.005": 8.71827433341,
			"-0.004": 21.3128254016,
			"-0.003": 31.0781519199,
			"-0.002": 25.3332300121,
			"-0.001": 17.2970803695,
			"0.0": 10.9732435308,
			"0.001": 8.24193989325,
			"0.002": 8.4147484167,
			"0.003": 8.2738045172,
			"0.004": 8.07350469767,
			"0.005": 11.1063913063,
			"0.006": 12.602704256,
			"0.007": 11.4352670448,
			"0.008": 4.82023804945,
			"0.009": 2.01633643217,
			"0.01": 2.00574228258,
			"0.011": 2.66210690009,
			"0.012": 2.39838112633,
			"0.013": 0.757016152463,
			"0.014": 0.275977085611,
			"0.015": 0.645875458947,
			"0.016": 0.985239862896,
			"0.017": 0.3658561876,
			"0.018": 0.561787140148,
			"0.019": 0.175667898797,
			"0.02": 0.0,
			"0.021": 0.0,
			"0.022": 0.0,
			"0.023": 0.0,
			"0.024": 0.0,
			"0.025": 0.0
		}
	}
}
