{
	 "smiles": "CC(CC1=CC=C(C=C1)C(F)(F)F)C(O)=O", 
	 "Tm": 342.15, 
	 "num_atms": 27, 
	 "gaussian": { 
		 "optdone": 1, 
		 "sigma_profile": "yes", 
		 "theory": "DFT", 
		 "functional": "B3LYP", 
		 "basiset": "6-31G**", 
		 "properties": { 
			 "R2extent": 6842.4929, 
			 "electric_dipole_moment_norm": 2.55890941028, 
			 "electric_quadrupole_moment_norm": 11.8176458358, 
			 "total_energy": -875.804146396, 
			 "HOMO_LUMO_gap": 0.23189, 
			 "cosmo_polarized_energy": -10.47, 
			 "cosmo_cavitation_energy": 32.67, 
			 "cosmo_dispersion_energy": -22.39, 
			 "cosmo_repulsion_energy": 1.7, 
			 "cosmo_total_nonelectrostatic_energy": 11.98, 
			 "SMD_solvation_energy": 7.78 
		},
		"coords": [
			{
				"x": 1.600505605,
				"y": -0.1803073204,
				"z": -0.012186454,
				"element": "C" 
			},
			{
				"x": 0.9335340151,
				"y": 0.3362040493,
				"z": 1.2783926566,
				"element": "C" 
			},
			{
				"x": 0.1907101162,
				"y": 1.6768094562,
				"z": 1.0834110149,
				"element": "C" 
			},
			{
				"x": -1.0029045149,
				"y": 1.5715995421,
				"z": 0.1594194789,
				"element": "C" 
			},
			{
				"x": -0.950238561,
				"y": 2.0500471639,
				"z": -1.156538382,
				"element": "C" 
			},
			{
				"x": -2.0493067812,
				"y": 1.9420773393,
				"z": -2.0076068094,
				"element": "C" 
			},
			{
				"x": -3.2278781403,
				"y": 1.3503576725,
				"z": -1.5494768101,
				"element": "C" 
			},
			{
				"x": -3.3010849112,
				"y": 0.8719637936,
				"z": -0.2378670678,
				"element": "C" 
			},
			{
				"x": -2.19823205,
				"y": 0.9857649927,
				"z": 0.6038587477,
				"element": "C" 
			},
			{
				"x": -4.3979037752,
				"y": 1.1791927495,
				"z": -2.4781657156,
				"element": "C" 
			},
			{
				"x": -4.3519905151,
				"y": -0.0089261864,
				"z": -3.1273615427,
				"element": "F" 
			},
			{
				"x": -5.5763616639,
				"y": 1.2151938293,
				"z": -1.8163193027,
				"element": "F" 
			},
			{
				"x": -4.4347828822,
				"y": 2.1408424267,
				"z": -3.4274471077,
				"element": "F" 
			},
			{
				"x": 1.9725283122,
				"y": 0.4728985582,
				"z": 2.3803471301,
				"element": "C" 
			},
			{
				"x": 2.4729722366,
				"y": -0.7327716653,
				"z": 2.748490315,
				"element": "O" 
			},
			{
				"x": 2.3433085294,
				"y": 1.5095389444,
				"z": 2.8870584399,
				"element": "O" 
			},
			{
				"x": 2.3533942908,
				"y": 0.5300413716,
				"z": -0.3711858722,
				"element": "H" 
			},
			{
				"x": 0.8524779315,
				"y": -0.3074981511,
				"z": -0.7988460402,
				"element": "H" 
			},
			{
				"x": 2.0899904222,
				"y": -1.1415122049,
				"z": 0.1598408608,
				"element": "H" 
			},
			{
				"x": 0.2202460516,
				"y": -0.4273731781,
				"z": 1.6156927437,
				"element": "H" 
			},
			{
				"x": 0.8996474008,
				"y": 2.4198055338,
				"z": 0.7041955175,
				"element": "H" 
			},
			{
				"x": -0.1327628002,
				"y": 2.0400360956,
				"z": 2.0645311194,
				"element": "H" 
			},
			{
				"x": -0.040026054,
				"y": 2.5214889231,
				"z": -1.5170691546,
				"element": "H" 
			},
			{
				"x": -1.9966931861,
				"y": 2.3260567703,
				"z": -3.020766943,
				"element": "H" 
			},
			{
				"x": -4.2222733084,
				"y": 0.426972452,
				"z": 0.1230778654,
				"element": "H" 
			},
			{
				"x": -2.2693913325,
				"y": 0.6239895289,
				"z": 1.6266402372,
				"element": "H" 
			},
			{
				"x": 3.1367155647,
				"y": -0.5510924867,
				"z": 3.4350810747,
				"element": "H" 
			}
		],
		 "valence_orbital": [ 
			{
				"type": "occ",
				"energy": -0.34592,
				"method": "rhf"
			},
			{
				"type": "occ",
				"energy": -0.32427,
				"method": "rhf"
			},
			{
				"type": "occ",
				"energy": -0.28034,
				"method": "rhf"
			},
			{
				"type": "occ",
				"energy": -0.26705,
				"method": "rhf"
			},
			{
				"type": "occ",
				"energy": -0.26027,
				"method": "rhf"
			},
			{
				"type": "unocc",
				"energy": -0.02838,
				"method": "rhf"
			},
			{
				"type": "unocc",
				"energy": -0.01859,
				"method": "rhf"
			},
			{
				"type": "unocc",
				"energy": 0.0026,
				"method": "rhf"
			},
			{
				"type": "unocc",
				"energy": 0.07095,
				"method": "rhf"
			},
			{
				"type": "unocc",
				"energy": 0.08724,
				"method": "rhf"
			}
		],
		"cosmo_sigma_profile": { 
			"-0.025": 0.0,
			"-0.024": 0.0,
			"-0.023": 0.0,
			"-0.022": 0.0,
			"-0.021": 0.0,
			"-0.02": 0.0,
			"-0.019": 0.0,
			"-0.018": 0.569871548839,
			"-0.017": 0.981881143665,
			"-0.016": 0.634155223134,
			"-0.015": 0.699845911106,
			"-0.014": 1.21124405222,
			"-0.013": 0.674660948186,
			"-0.012": 0.161405939316,
			"-0.011": 1.2374833982,
			"-0.01": 0.931409061723,
			"-0.009": 0.39079752885,
			"-0.008": 0.378208111084,
			"-0.007": 2.51202443533,
			"-0.006": 11.0045873745,
			"-0.005": 18.0156870617,
			"-0.004": 18.1442887168,
			"-0.003": 17.7397135817,
			"-0.002": 18.7985457705,
			"-0.001": 18.9682984087,
			"0.0": 23.2802769665,
			"0.001": 18.2857702606,
			"0.002": 24.9587149622,
			"0.003": 41.2741425323,
			"0.004": 14.2598334003,
			"0.005": 2.36120876363,
			"0.006": 2.2850282675,
			"0.007": 2.89987397538,
			"0.008": 2.55446717864,
			"0.009": 3.12325579158,
			"0.01": 1.96162825567,
			"0.011": 3.73298506741,
			"0.012": 4.26063079374,
			"0.013": 0.348322367221,
			"0.014": 0.0,
			"0.015": 0.0,
			"0.016": 0.0,
			"0.017": 0.0,
			"0.018": 0.0,
			"0.019": 0.0,
			"0.02": 0.0,
			"0.021": 0.0,
			"0.022": 0.0,
			"0.023": 0.0,
			"0.024": 0.0,
			"0.025": 0.0
		}
	}
}
