{
	 "smiles": "COC1=CC(=CC(OC)=C1)C(Cl)=O", 
	 "Tm": 316.15, 
	 "num_atms": 22, 
	 "gaussian": { 
		 "optdone": 1, 
		 "sigma_profile": "yes", 
		 "theory": "DFT", 
		 "functional": "B3LYP", 
		 "basiset": "6-31G**", 
		 "properties": { 
			 "R2extent": 4778.0513, 
			 "electric_dipole_moment_norm": 6.96653659504, 
			 "electric_quadrupole_moment_norm": 15.8571427001, 
			 "total_energy": -1034.2277954, 
			 "HOMO_LUMO_gap": 0.15663, 
			 "cosmo_polarized_energy": -10.23, 
			 "cosmo_cavitation_energy": 28.34, 
			 "cosmo_dispersion_energy": -20.78, 
			 "cosmo_repulsion_energy": 1.65, 
			 "cosmo_total_nonelectrostatic_energy": 9.22, 
			 "SMD_solvation_energy": 7.08 
		},
		"coords": [
			{
				"x": -2.2453494603,
				"y": -2.1775773111,
				"z": 1.3405375607,
				"element": "C" 
			},
			{
				"x": -1.5688305456,
				"y": -1.3808714688,
				"z": 2.3005037345,
				"element": "O" 
			},
			{
				"x": -0.591994479,
				"y": -0.5312662344,
				"z": 1.8779720598,
				"element": "C" 
			},
			{
				"x": 0.0293616865,
				"y": 0.2203047319,
				"z": 2.8765008328,
				"element": "C" 
			},
			{
				"x": 1.0458087513,
				"y": 1.1191192105,
				"z": 2.5251665907,
				"element": "C" 
			},
			{
				"x": 1.4449020078,
				"y": 1.273439368,
				"z": 1.1952580566,
				"element": "C" 
			},
			{
				"x": 0.8138297047,
				"y": 0.5141103585,
				"z": 0.2050955411,
				"element": "C" 
			},
			{
				"x": 1.2600742555,
				"y": 0.7228644324,
				"z": -1.0646838783,
				"element": "O" 
			},
			{
				"x": 0.6694635177,
				"y": -0.0103283718,
				"z": -2.1264292295,
				"element": "C" 
			},
			{
				"x": -0.2051316,
				"y": -0.3904464606,
				"z": 0.5360432955,
				"element": "C" 
			},
			{
				"x": 1.651008229,
				"y": 1.8767097422,
				"z": 3.6510534994,
				"element": "C" 
			},
			{
				"x": 2.9793615385,
				"y": 3.0498791659,
				"z": 3.1835600966,
				"element": "Cl" 
			},
			{
				"x": 1.3510273146,
				"y": 1.7861377202,
				"z": 4.8028164958,
				"element": "O" 
			},
			{
				"x": -1.5573692976,
				"y": -2.85489143,
				"z": 0.818192083,
				"element": "H" 
			},
			{
				"x": -2.9716800538,
				"y": -2.7682623854,
				"z": 1.9001964294,
				"element": "H" 
			},
			{
				"x": -2.7753056223,
				"y": -1.5611774418,
				"z": 0.6029056074,
				"element": "H" 
			},
			{
				"x": -0.275587069,
				"y": 0.1050425051,
				"z": 3.9087041646,
				"element": "H" 
			},
			{
				"x": 2.2276376467,
				"y": 1.9633696464,
				"z": 0.9114622251,
				"element": "H" 
			},
			{
				"x": 0.8146865902,
				"y": -1.0912931402,
				"z": -2.0025781528,
				"element": "H" 
			},
			{
				"x": -0.4035827249,
				"y": 0.2020347129,
				"z": -2.2180463354,
				"element": "H" 
			},
			{
				"x": 1.1771356767,
				"y": 0.3165631031,
				"z": -3.0347746791,
				"element": "H" 
			},
			{
				"x": -0.6880660666,
				"y": -0.973760453,
				"z": -0.2348559978,
				"element": "H" 
			}
		],
		 "valence_orbital": [ 
			{
				"type": "occ",
				"energy": -0.31364,
				"method": "rhf"
			},
			{
				"type": "occ",
				"energy": -0.31228,
				"method": "rhf"
			},
			{
				"type": "occ",
				"energy": -0.28723,
				"method": "rhf"
			},
			{
				"type": "occ",
				"energy": -0.25883,
				"method": "rhf"
			},
			{
				"type": "occ",
				"energy": -0.22599,
				"method": "rhf"
			},
			{
				"type": "unocc",
				"energy": -0.06936,
				"method": "rhf"
			},
			{
				"type": "unocc",
				"energy": -0.00149,
				"method": "rhf"
			},
			{
				"type": "unocc",
				"energy": 0.02487,
				"method": "rhf"
			},
			{
				"type": "unocc",
				"energy": 0.04047,
				"method": "rhf"
			},
			{
				"type": "unocc",
				"energy": 0.07376,
				"method": "rhf"
			}
		],
		"cosmo_sigma_profile": { 
			"-0.025": 0.0,
			"-0.024": 0.0,
			"-0.023": 0.0,
			"-0.022": 0.0,
			"-0.021": 0.0,
			"-0.02": 0.0,
			"-0.019": 0.0,
			"-0.018": 0.0,
			"-0.017": 0.0,
			"-0.016": 0.0,
			"-0.015": 0.0,
			"-0.014": 0.0,
			"-0.013": 0.0,
			"-0.012": 0.0,
			"-0.011": 0.0,
			"-0.01": 0.0,
			"-0.009": 0.0,
			"-0.008": 1.30982742979,
			"-0.007": 5.0466892945,
			"-0.006": 15.7433787468,
			"-0.005": 19.4411573686,
			"-0.004": 20.031390016,
			"-0.003": 18.7031924247,
			"-0.002": 12.8111324122,
			"-0.001": 13.7039558614,
			"0.0": 14.5965887279,
			"0.001": 18.902666238,
			"0.002": 26.4773878578,
			"0.003": 13.5602604845,
			"0.004": 12.6760585306,
			"0.005": 10.343163993,
			"0.006": 5.17826856859,
			"0.007": 5.41042964148,
			"0.008": 6.94740900295,
			"0.009": 5.76780570067,
			"0.01": 1.90346341452,
			"0.011": 0.0,
			"0.012": 0.0,
			"0.013": 0.0,
			"0.014": 0.0,
			"0.015": 0.0,
			"0.016": 0.0,
			"0.017": 0.0,
			"0.018": 0.0,
			"0.019": 0.0,
			"0.02": 0.0,
			"0.021": 0.0,
			"0.022": 0.0,
			"0.023": 0.0,
			"0.024": 0.0,
			"0.025": 0.0
		}
	}
}
