{
	 "smiles": "C1CN1", 
	 "Tm": 195.25, 
	 "num_atms": 8, 
	 "gaussian": { 
		 "optdone": 1, 
		 "sigma_profile": "yes", 
		 "theory": "DFT", 
		 "functional": "B3LYP", 
		 "basiset": "6-31G**", 
		 "properties": { 
			 "R2extent": 341.4389, 
			 "electric_dipole_moment_norm": 1.7419033096, 
			 "electric_quadrupole_moment_norm": 4.79434574786, 
			 "total_energy": -133.925605317, 
			 "HOMO_LUMO_gap": 0.32518, 
			 "cosmo_polarized_energy": -5.48, 
			 "cosmo_cavitation_energy": 10.79, 
			 "cosmo_dispersion_energy": -8.24, 
			 "cosmo_repulsion_energy": 0.79, 
			 "cosmo_total_nonelectrostatic_energy": 3.34, 
			 "SMD_solvation_energy": -2.71 
		},
		"coords": [
			{
				"x": -0.4117390192,
				"y": -0.5016707873,
				"z": -0.6839682774,
				"element": "C" 
			},
			{
				"x": -0.62065501,
				"y": 0.0847256982,
				"z": -2.0328400288,
				"element": "C" 
			},
			{
				"x": 0.5718711856,
				"y": -0.7309898374,
				"z": -1.7540846896,
				"element": "N" 
			},
			{
				"x": -0.9718278176,
				"y": -1.3828728791,
				"z": -0.3803452924,
				"element": "H" 
			},
			{
				"x": -0.159816788,
				"y": 0.172871,
				"z": 0.1325079305,
				"element": "H" 
			},
			{
				"x": -0.5123251149,
				"y": 1.1622882751,
				"z": -2.1434191474,
				"element": "H" 
			},
			{
				"x": -1.3339661613,
				"y": -0.3664269493,
				"z": -2.7184428125,
				"element": "H" 
			},
			{
				"x": 1.3812587253,
				"y": -0.1280245202,
				"z": -1.6173076824,
				"element": "H" 
			}
		],
		 "valence_orbital": [ 
			{
				"type": "occ",
				"energy": -0.46344,
				"method": "rhf"
			},
			{
				"type": "occ",
				"energy": -0.37205,
				"method": "rhf"
			},
			{
				"type": "occ",
				"energy": -0.33871,
				"method": "rhf"
			},
			{
				"type": "occ",
				"energy": -0.32977,
				"method": "rhf"
			},
			{
				"type": "occ",
				"energy": -0.24344,
				"method": "rhf"
			},
			{
				"type": "unocc",
				"energy": 0.08174,
				"method": "rhf"
			},
			{
				"type": "unocc",
				"energy": 0.12487,
				"method": "rhf"
			},
			{
				"type": "unocc",
				"energy": 0.13115,
				"method": "rhf"
			},
			{
				"type": "unocc",
				"energy": 0.14757,
				"method": "rhf"
			},
			{
				"type": "unocc",
				"energy": 0.15606,
				"method": "rhf"
			}
		],
		"cosmo_sigma_profile": { 
			"-0.025": 0.0,
			"-0.024": 0.0,
			"-0.023": 0.0,
			"-0.022": 0.0,
			"-0.021": 0.0,
			"-0.02": 0.0,
			"-0.019": 0.0,
			"-0.018": 0.0,
			"-0.017": 0.0,
			"-0.016": 0.0,
			"-0.015": 0.0,
			"-0.014": 0.0,
			"-0.013": 0.0,
			"-0.012": 0.00193654982231,
			"-0.011": 0.877777954433,
			"-0.01": 1.81802832545,
			"-0.009": 0.99785240798,
			"-0.008": 1.4263589771,
			"-0.007": 1.70974318996,
			"-0.006": 2.80049026597,
			"-0.005": 7.78549954107,
			"-0.004": 7.86059761354,
			"-0.003": 7.7889694887,
			"-0.002": 7.4982327887,
			"-0.001": 8.5302087626,
			"0.0": 6.48265347255,
			"0.001": 4.4686092322,
			"0.002": 4.09786696958,
			"0.003": 4.2419335388,
			"0.004": 2.00291165794,
			"0.005": 1.11932131355,
			"0.006": 1.38568709304,
			"0.007": 1.44626056136,
			"0.008": 1.18481953571,
			"0.009": 0.519823717128,
			"0.01": 0.767955114126,
			"0.011": 1.61998111346,
			"0.012": 0.991083007927,
			"0.013": 0.475225846912,
			"0.014": 0.659161947214,
			"0.015": 0.847741761198,
			"0.016": 1.06129365962,
			"0.017": 0.923363429019,
			"0.018": 0.759626954255,
			"0.019": 0.517696552815,
			"0.02": 0.0270057522874,
			"0.021": 0.0,
			"0.022": 0.0,
			"0.023": 0.0,
			"0.024": 0.0,
			"0.025": 0.0
		}
	}
}
