{
	 "smiles": "NC(=O)C1CCCNC1", 
	 "Tm": 378.15, 
	 "num_atms": 21, 
	 "gaussian": { 
		 "optdone": 1, 
		 "sigma_profile": "yes", 
		 "theory": "DFT", 
		 "functional": "B3LYP", 
		 "basiset": "6-31G**", 
		 "properties": { 
			 "R2extent": 1623.4417, 
			 "electric_dipole_moment_norm": 2.60454240511, 
			 "electric_quadrupole_moment_norm": 10.9429530416, 
			 "total_energy": -420.606430288, 
			 "HOMO_LUMO_gap": 0.24052, 
			 "cosmo_polarized_energy": -13.41, 
			 "cosmo_cavitation_energy": 22.25, 
			 "cosmo_dispersion_energy": -16.87, 
			 "cosmo_repulsion_energy": 1.41, 
			 "cosmo_total_nonelectrostatic_energy": 6.8, 
			 "SMD_solvation_energy": 2.04 
		},
		"coords": [
			{
				"x": -2.3617495429,
				"y": -0.6893699053,
				"z": 2.0167943862,
				"element": "N" 
			},
			{
				"x": -1.3775595086,
				"y": -0.1589010862,
				"z": 1.2287568221,
				"element": "C" 
			},
			{
				"x": -1.6284598654,
				"y": 0.6537332347,
				"z": 0.3458424261,
				"element": "O" 
			},
			{
				"x": 0.0431506595,
				"y": -0.6166597117,
				"z": 1.5610543753,
				"element": "C" 
			},
			{
				"x": 0.7557787509,
				"y": 0.4678442478,
				"z": 2.4256808226,
				"element": "C" 
			},
			{
				"x": 1.4363500472,
				"y": 1.5061758508,
				"z": 1.5266037631,
				"element": "C" 
			},
			{
				"x": 2.5394047032,
				"y": 0.8416154323,
				"z": 0.6687744673,
				"element": "C" 
			},
			{
				"x": 2.2693640767,
				"y": -0.597571121,
				"z": 0.5333702599,
				"element": "N" 
			},
			{
				"x": 0.8559545601,
				"y": -0.8663424983,
				"z": 0.2653813097,
				"element": "C" 
			},
			{
				"x": -3.3064910876,
				"y": -0.3609016695,
				"z": 1.8849306438,
				"element": "H" 
			},
			{
				"x": -2.167592666,
				"y": -1.3372738736,
				"z": 2.762093664,
				"element": "H" 
			},
			{
				"x": -0.0019972132,
				"y": -1.5434565025,
				"z": 2.1457730365,
				"element": "H" 
			},
			{
				"x": 1.5050963446,
				"y": -0.0268209129,
				"z": 3.0516100169,
				"element": "H" 
			},
			{
				"x": 0.0367442981,
				"y": 0.9477778372,
				"z": 3.0993396011,
				"element": "H" 
			},
			{
				"x": 0.6745716389,
				"y": 1.9558412287,
				"z": 0.8818681074,
				"element": "H" 
			},
			{
				"x": 1.8662244164,
				"y": 2.3156504002,
				"z": 2.1259611025,
				"element": "H" 
			},
			{
				"x": 3.5180597963,
				"y": 0.955346877,
				"z": 1.1518789706,
				"element": "H" 
			},
			{
				"x": 2.5972229958,
				"y": 1.3606266253,
				"z": -0.3046495529,
				"element": "H" 
			},
			{
				"x": 2.8474816483,
				"y": -0.9915072523,
				"z": -0.2021053399,
				"element": "H" 
			},
			{
				"x": 0.7493025016,
				"y": -1.9101922988,
				"z": -0.0476296969,
				"element": "H" 
			},
			{
				"x": 0.4347434461,
				"y": -0.237214902,
				"z": -0.5354291856,
				"element": "H" 
			}
		],
		 "valence_orbital": [ 
			{
				"type": "occ",
				"energy": -0.31493,
				"method": "rhf"
			},
			{
				"type": "occ",
				"energy": -0.30699,
				"method": "rhf"
			},
			{
				"type": "occ",
				"energy": -0.26373,
				"method": "rhf"
			},
			{
				"type": "occ",
				"energy": -0.2416,
				"method": "rhf"
			},
			{
				"type": "occ",
				"energy": -0.20813,
				"method": "rhf"
			},
			{
				"type": "unocc",
				"energy": 0.03239,
				"method": "rhf"
			},
			{
				"type": "unocc",
				"energy": 0.07096,
				"method": "rhf"
			},
			{
				"type": "unocc",
				"energy": 0.09043,
				"method": "rhf"
			},
			{
				"type": "unocc",
				"energy": 0.11099,
				"method": "rhf"
			},
			{
				"type": "unocc",
				"energy": 0.13544,
				"method": "rhf"
			}
		],
		"cosmo_sigma_profile": { 
			"-0.025": 0.0,
			"-0.024": 0.0,
			"-0.023": 0.0,
			"-0.022": 0.0,
			"-0.021": 0.0,
			"-0.02": 0.0,
			"-0.019": 0.0,
			"-0.018": 0.0,
			"-0.017": 0.0,
			"-0.016": 0.0,
			"-0.015": 0.0,
			"-0.014": 1.11388227743,
			"-0.013": 2.29597109376,
			"-0.012": 2.36756769902,
			"-0.011": 2.39273356362,
			"-0.01": 3.37935871401,
			"-0.009": 4.23786014318,
			"-0.008": 3.01231532477,
			"-0.007": 2.83939820788,
			"-0.006": 3.27131860663,
			"-0.005": 3.62901727338,
			"-0.004": 7.3182444384,
			"-0.003": 14.1497281019,
			"-0.002": 19.1737418547,
			"-0.001": 22.193226149,
			"0.0": 22.6357926693,
			"0.001": 11.683847581,
			"0.002": 4.83604224684,
			"0.003": 5.41456188693,
			"0.004": 3.95630847189,
			"0.005": 3.48279714472,
			"0.006": 2.76767498774,
			"0.007": 2.34175657267,
			"0.008": 2.65196024804,
			"0.009": 1.96578274259,
			"0.01": 3.08170351065,
			"0.011": 1.20513724045,
			"0.012": 2.04825838224,
			"0.013": 3.52147778338,
			"0.014": 4.89366073895,
			"0.015": 2.6089318268,
			"0.016": 0.673727201402,
			"0.017": 0.35510663731,
			"0.018": 0.16603118832,
			"0.019": 0.0,
			"0.02": 0.0,
			"0.021": 0.0,
			"0.022": 0.0,
			"0.023": 0.0,
			"0.024": 0.0,
			"0.025": 0.0
		}
	}
}
