{
	 "smiles": "COC1=CC=C(C=C1)C1=NNC(=C1)C(O)=O", 
	 "Tm": 483.15, 
	 "num_atms": 26, 
	 "gaussian": { 
		 "optdone": 1, 
		 "sigma_profile": "yes", 
		 "theory": "DFT", 
		 "functional": "B3LYP", 
		 "basiset": "6-31G**", 
		 "properties": { 
			 "R2extent": 6008.8536, 
			 "electric_dipole_moment_norm": 3.86941935437, 
			 "electric_quadrupole_moment_norm": 21.7481788548, 
			 "total_energy": -760.355128369, 
			 "HOMO_LUMO_gap": 0.16056, 
			 "cosmo_polarized_energy": -19.16, 
			 "cosmo_cavitation_energy": 31.34, 
			 "cosmo_dispersion_energy": -23.27, 
			 "cosmo_repulsion_energy": 1.79, 
			 "cosmo_total_nonelectrostatic_energy": 9.86, 
			 "SMD_solvation_energy": 6.4 
		},
		"coords": [
			{
				"x": 1.5312303446,
				"y": -3.913713794,
				"z": -2.4122753085,
				"element": "C" 
			},
			{
				"x": 1.4836756929,
				"y": -3.5358038922,
				"z": -1.0449994068,
				"element": "O" 
			},
			{
				"x": 0.9677618038,
				"y": -2.3139535916,
				"z": -0.7297925834,
				"element": "C" 
			},
			{
				"x": 0.9458711399,
				"y": -1.9945164735,
				"z": 0.6361432082,
				"element": "C" 
			},
			{
				"x": 0.440055914,
				"y": -0.7740217254,
				"z": 1.059280142,
				"element": "C" 
			},
			{
				"x": -0.0591121382,
				"y": 0.1660765051,
				"z": 0.1403648434,
				"element": "C" 
			},
			{
				"x": -0.0306528062,
				"y": -0.1671360001,
				"z": -1.2206006361,
				"element": "C" 
			},
			{
				"x": 0.4746144216,
				"y": -1.3896893183,
				"z": -1.6600646752,
				"element": "C" 
			},
			{
				"x": -0.5966592551,
				"y": 1.4616007456,
				"z": 0.5825126556,
				"element": "C" 
			},
			{
				"x": -1.0717680359,
				"y": 2.3519029541,
				"z": -0.3092442637,
				"element": "N" 
			},
			{
				"x": -1.4727277102,
				"y": 3.3967040677,
				"z": 0.4160562938,
				"element": "N" 
			},
			{
				"x": -1.281700227,
				"y": 3.2327293961,
				"z": 1.7518600629,
				"element": "C" 
			},
			{
				"x": -0.7093765055,
				"y": 1.9763579199,
				"z": 1.8994788412,
				"element": "C" 
			},
			{
				"x": -1.6866977796,
				"y": 4.3229066966,
				"z": 2.6591816879,
				"element": "C" 
			},
			{
				"x": -1.4828056069,
				"y": 4.126581482,
				"z": 3.9826003178,
				"element": "O" 
			},
			{
				"x": -2.1800931492,
				"y": 5.3510476095,
				"z": 2.2497178934,
				"element": "O" 
			},
			{
				"x": 1.9731638158,
				"y": -4.9109858288,
				"z": -2.4338389826,
				"element": "H" 
			},
			{
				"x": 0.5283950672,
				"y": -3.9539249662,
				"z": -2.8564622199,
				"element": "H" 
			},
			{
				"x": 2.1563483677,
				"y": -3.2294107589,
				"z": -3.0001127097,
				"element": "H" 
			},
			{
				"x": 1.3312112791,
				"y": -2.720461423,
				"z": 1.3444439464,
				"element": "H" 
			},
			{
				"x": 0.4352098297,
				"y": -0.5529016467,
				"z": 2.1226087672,
				"element": "H" 
			},
			{
				"x": -0.4118593951,
				"y": 0.5467367575,
				"z": -1.9428243753,
				"element": "H" 
			},
			{
				"x": 0.4789837527,
				"y": -1.6094667945,
				"z": -2.7210604969,
				"element": "H" 
			},
			{
				"x": -1.8757776383,
				"y": 4.2167532126,
				"z": -0.0157357316,
				"element": "H" 
			},
			{
				"x": -0.4122484013,
				"y": 1.4913736097,
				"z": 2.8181425054,
				"element": "H" 
			},
			{
				"x": -1.0834427804,
				"y": 3.2594152568,
				"z": 4.1404202245,
				"element": "H" 
			}
		],
		 "valence_orbital": [ 
			{
				"type": "occ",
				"energy": -0.28898,
				"method": "rhf"
			},
			{
				"type": "occ",
				"energy": -0.2809,
				"method": "rhf"
			},
			{
				"type": "occ",
				"energy": -0.27138,
				"method": "rhf"
			},
			{
				"type": "occ",
				"energy": -0.25588,
				"method": "rhf"
			},
			{
				"type": "occ",
				"energy": -0.21053,
				"method": "rhf"
			},
			{
				"type": "unocc",
				"energy": -0.04997,
				"method": "rhf"
			},
			{
				"type": "unocc",
				"energy": -0.02005,
				"method": "rhf"
			},
			{
				"type": "unocc",
				"energy": -0.0044,
				"method": "rhf"
			},
			{
				"type": "unocc",
				"energy": 0.04566,
				"method": "rhf"
			},
			{
				"type": "unocc",
				"energy": 0.07167,
				"method": "rhf"
			}
		],
		"cosmo_sigma_profile": { 
			"-0.025": 0.0,
			"-0.024": 0.0,
			"-0.023": 0.0,
			"-0.022": 0.0,
			"-0.021": 0.0,
			"-0.02": 0.0,
			"-0.019": 0.86219266171,
			"-0.018": 1.03725864418,
			"-0.017": 1.62619292724,
			"-0.016": 1.95910158978,
			"-0.015": 1.92346677218,
			"-0.014": 1.2083833341,
			"-0.013": 1.88906039123,
			"-0.012": 2.56874341893,
			"-0.011": 1.83526363475,
			"-0.01": 1.76492536905,
			"-0.009": 2.90799719041,
			"-0.008": 3.87391588196,
			"-0.007": 4.67162574209,
			"-0.006": 10.7268878637,
			"-0.005": 17.2122858568,
			"-0.004": 18.3676281322,
			"-0.003": 17.5429258574,
			"-0.002": 15.2180125523,
			"-0.001": 10.0834416565,
			"0.0": 9.32078683964,
			"0.001": 13.2982865132,
			"0.002": 15.4763136024,
			"0.003": 18.6718275716,
			"0.004": 18.1175556916,
			"0.005": 16.2264971973,
			"0.006": 7.15126621119,
			"0.007": 4.79151503145,
			"0.008": 5.52678295437,
			"0.009": 6.63530125032,
			"0.01": 7.40818044697,
			"0.011": 6.32513693599,
			"0.012": 3.5919461217,
			"0.013": 1.01974485884,
			"0.014": 0.0,
			"0.015": 0.0,
			"0.016": 0.0,
			"0.017": 0.0,
			"0.018": 0.0,
			"0.019": 0.0,
			"0.02": 0.0,
			"0.021": 0.0,
			"0.022": 0.0,
			"0.023": 0.0,
			"0.024": 0.0,
			"0.025": 0.0
		}
	}
}
