{
	 "smiles": "ClC1=CC=C(C=C1)C12N(CCC3=C1C=CC=C3)C(=O)NC2=O", 
	 "Tm": 489.15, 
	 "num_atms": 35, 
	 "gaussian": { 
		 "optdone": 1, 
		 "sigma_profile": "yes", 
		 "theory": "DFT", 
		 "functional": "B3LYP", 
		 "basiset": "6-31G**", 
		 "properties": { 
			 "R2extent": 7222.0646, 
			 "electric_dipole_moment_norm": 2.89476240303, 
			 "electric_quadrupole_moment_norm": 15.5515428701, 
			 "total_energy": -1375.83364879, 
			 "HOMO_LUMO_gap": 0.21507, 
			 "cosmo_polarized_energy": -15.53, 
			 "cosmo_cavitation_energy": 39.34, 
			 "cosmo_dispersion_energy": -27.71, 
			 "cosmo_repulsion_energy": 2.1, 
			 "cosmo_total_nonelectrostatic_energy": 13.74, 
			 "SMD_solvation_energy": 7.42 
		},
		"coords": [
			{
				"x": 3.5957832572,
				"y": 4.6058120428,
				"z": 1.5754906259,
				"element": "Cl" 
			},
			{
				"x": 2.3729443222,
				"y": 3.4339982351,
				"z": 1.1071219707,
				"element": "C" 
			},
			{
				"x": 2.7544694985,
				"y": 2.2734714711,
				"z": 0.4347110981,
				"element": "C" 
			},
			{
				"x": 1.7814279895,
				"y": 1.3435602358,
				"z": 0.0735525805,
				"element": "C" 
			},
			{
				"x": 0.4317781418,
				"y": 1.5611662547,
				"z": 0.377407473,
				"element": "C" 
			},
			{
				"x": 0.0716742459,
				"y": 2.7391379921,
				"z": 1.0416316202,
				"element": "C" 
			},
			{
				"x": 1.0357599364,
				"y": 3.6763578868,
				"z": 1.4141231197,
				"element": "C" 
			},
			{
				"x": -0.6370169225,
				"y": 0.5525273394,
				"z": -0.0800823684,
				"element": "C" 
			},
			{
				"x": -1.9342005394,
				"y": 0.7668877399,
				"z": 0.5871357312,
				"element": "N" 
			},
			{
				"x": -2.2457715507,
				"y": 0.2164207046,
				"z": 1.9093489504,
				"element": "C" 
			},
			{
				"x": -1.0324893833,
				"y": -0.5495444529,
				"z": 2.4595709948,
				"element": "C" 
			},
			{
				"x": -0.4203801192,
				"y": -1.4418651052,
				"z": 1.4068481125,
				"element": "C" 
			},
			{
				"x": -0.2043866636,
				"y": -0.9041540512,
				"z": 0.1233846563,
				"element": "C" 
			},
			{
				"x": 0.3692490685,
				"y": -1.6912124619,
				"z": -0.8789376032,
				"element": "C" 
			},
			{
				"x": 0.7322706005,
				"y": -3.0129097755,
				"z": -0.6071082676,
				"element": "C" 
			},
			{
				"x": 0.5167519163,
				"y": -3.55211869,
				"z": 0.6603454081,
				"element": "C" 
			},
			{
				"x": -0.0614320931,
				"y": -2.7673045634,
				"z": 1.6599994971,
				"element": "C" 
			},
			{
				"x": -2.945549734,
				"y": 1.0250419683,
				"z": -0.3050487635,
				"element": "C" 
			},
			{
				"x": -4.1345822911,
				"y": 1.1177881463,
				"z": -0.0745777276,
				"element": "O" 
			},
			{
				"x": -2.3361009488,
				"y": 1.153145353,
				"z": -1.5702725063,
				"element": "N" 
			},
			{
				"x": -0.994544544,
				"y": 0.8645532086,
				"z": -1.5612553246,
				"element": "C" 
			},
			{
				"x": -0.2364730469,
				"y": 0.867827444,
				"z": -2.5086664256,
				"element": "O" 
			},
			{
				"x": 3.798345045,
				"y": 2.0993652031,
				"z": 0.1987116536,
				"element": "H" 
			},
			{
				"x": 2.0806217195,
				"y": 0.4405528303,
				"z": -0.4462199277,
				"element": "H" 
			},
			{
				"x": -0.9713449955,
				"y": 2.9280319911,
				"z": 1.2721430616,
				"element": "H" 
			},
			{
				"x": 0.751597324,
				"y": 4.5840135245,
				"z": 1.9349758626,
				"element": "H" 
			},
			{
				"x": -3.110809406,
				"y": -0.4479967798,
				"z": 1.8100889076,
				"element": "H" 
			},
			{
				"x": -2.5311795248,
				"y": 1.0223838301,
				"z": 2.5944358632,
				"element": "H" 
			},
			{
				"x": -1.3426771574,
				"y": -1.1294974425,
				"z": 3.3335463134,
				"element": "H" 
			},
			{
				"x": -0.2823518305,
				"y": 0.1724025795,
				"z": 2.8074428833,
				"element": "H" 
			},
			{
				"x": 0.5299693239,
				"y": -1.2720413572,
				"z": -1.8661212382,
				"element": "H" 
			},
			{
				"x": 1.177440516,
				"y": -3.6188247875,
				"z": -1.3907180903,
				"element": "H" 
			},
			{
				"x": 0.7930277466,
				"y": -4.5810347535,
				"z": 0.8714494185,
				"element": "H" 
			},
			{
				"x": -0.2354897963,
				"y": -3.1864133554,
				"z": 2.6478822643,
				"element": "H" 
			},
			{
				"x": -2.8614301048,
				"y": 1.382871595,
				"z": -2.4019398237,
				"element": "H" 
			}
		],
		 "valence_orbital": [ 
			{
				"type": "occ",
				"energy": -0.26952,
				"method": "rhf"
			},
			{
				"type": "occ",
				"energy": -0.25972,
				"method": "rhf"
			},
			{
				"type": "occ",
				"energy": -0.25853,
				"method": "rhf"
			},
			{
				"type": "occ",
				"energy": -0.25137,
				"method": "rhf"
			},
			{
				"type": "occ",
				"energy": -0.24709,
				"method": "rhf"
			},
			{
				"type": "unocc",
				"energy": -0.03202,
				"method": "rhf"
			},
			{
				"type": "unocc",
				"energy": -0.02479,
				"method": "rhf"
			},
			{
				"type": "unocc",
				"energy": -0.0191,
				"method": "rhf"
			},
			{
				"type": "unocc",
				"energy": -0.01159,
				"method": "rhf"
			},
			{
				"type": "unocc",
				"energy": -0.00017,
				"method": "rhf"
			}
		],
		"cosmo_sigma_profile": { 
			"-0.025": 0.0,
			"-0.024": 0.0,
			"-0.023": 0.0,
			"-0.022": 0.0,
			"-0.021": 0.0,
			"-0.02": 0.0,
			"-0.019": 0.0,
			"-0.018": 0.00419714226182,
			"-0.017": 0.99301771812,
			"-0.016": 1.24516521069,
			"-0.015": 0.971766977583,
			"-0.014": 0.861360650605,
			"-0.013": 0.973964144039,
			"-0.012": 0.553104860266,
			"-0.011": 0.949054840194,
			"-0.01": 0.867631781668,
			"-0.009": 0.838049903468,
			"-0.008": 1.59834421348,
			"-0.007": 4.32985299452,
			"-0.006": 15.2959669668,
			"-0.005": 26.558895996,
			"-0.004": 30.6121452957,
			"-0.003": 26.4018280367,
			"-0.002": 25.1952488075,
			"-0.001": 19.3556924377,
			"0.0": 17.7304301428,
			"0.001": 21.4887824489,
			"0.002": 23.8617244243,
			"0.003": 26.5024311593,
			"0.004": 20.1833480915,
			"0.005": 16.1932693362,
			"0.006": 3.55080264426,
			"0.007": 3.3851839361,
			"0.008": 1.89743964194,
			"0.009": 2.87680069501,
			"0.01": 3.66492405248,
			"0.011": 6.07038070452,
			"0.012": 7.30727101099,
			"0.013": 4.42522845095,
			"0.014": 0.109118904422,
			"0.015": 0.0,
			"0.016": 0.0,
			"0.017": 0.0,
			"0.018": 0.0,
			"0.019": 0.0,
			"0.02": 0.0,
			"0.021": 0.0,
			"0.022": 0.0,
			"0.023": 0.0,
			"0.024": 0.0,
			"0.025": 0.0
		}
	}
}
