{
	 "smiles": "CC1=CC(C)=C(C=C1)C1=NN=C(N)N1", 
	 "Tm": 485.15, 
	 "num_atms": 26, 
	 "gaussian": { 
		 "optdone": 1, 
		 "sigma_profile": "yes", 
		 "theory": "DFT", 
		 "functional": "B3LYP", 
		 "basiset": "6-31G**", 
		 "properties": { 
			 "R2extent": 3894.45, 
			 "electric_dipole_moment_norm": 5.14946462654, 
			 "electric_quadrupole_moment_norm": 26.885637084, 
			 "total_energy": -607.301448099, 
			 "HOMO_LUMO_gap": 0.17693, 
			 "cosmo_polarized_energy": -22.2, 
			 "cosmo_cavitation_energy": 29.42, 
			 "cosmo_dispersion_energy": -21.85, 
			 "cosmo_repulsion_energy": 1.71, 
			 "cosmo_total_nonelectrostatic_energy": 9.27, 
			 "SMD_solvation_energy": 2.85 
		},
		"coords": [
			{
				"x": -2.3125687403,
				"y": -2.5534705482,
				"z": -1.4206906667,
				"element": "C" 
			},
			{
				"x": -1.3363440583,
				"y": -1.6236825338,
				"z": -0.7413480755,
				"element": "C" 
			},
			{
				"x": -0.0518273203,
				"y": -2.0462898097,
				"z": -0.3942605598,
				"element": "C" 
			},
			{
				"x": 0.8862503592,
				"y": -1.2110601662,
				"z": 0.2290415125,
				"element": "C" 
			},
			{
				"x": 2.2386735042,
				"y": -1.7977143823,
				"z": 0.5737400823,
				"element": "C" 
			},
			{
				"x": 0.5154403143,
				"y": 0.1225967224,
				"z": 0.5144442469,
				"element": "C" 
			},
			{
				"x": -0.7822362564,
				"y": 0.5515426181,
				"z": 0.171778012,
				"element": "C" 
			},
			{
				"x": -1.6888390632,
				"y": -0.3004007956,
				"z": -0.4395777691,
				"element": "C" 
			},
			{
				"x": 1.3726288641,
				"y": 1.1212541143,
				"z": 1.1691523401,
				"element": "C" 
			},
			{
				"x": 0.9386394114,
				"y": 2.2698084049,
				"z": 1.6491787477,
				"element": "N" 
			},
			{
				"x": 2.015088531,
				"y": 2.9803737093,
				"z": 2.1380023077,
				"element": "N" 
			},
			{
				"x": 3.0820526619,
				"y": 2.2366279769,
				"z": 1.9565798133,
				"element": "C" 
			},
			{
				"x": 4.3752388309,
				"y": 2.5273667967,
				"z": 2.3786845858,
				"element": "N" 
			},
			{
				"x": 2.7451854469,
				"y": 1.0572858616,
				"z": 1.3515441998,
				"element": "N" 
			},
			{
				"x": -3.2635954368,
				"y": -2.5983085634,
				"z": -0.8781779106,
				"element": "H" 
			},
			{
				"x": -2.5409542064,
				"y": -2.215479832,
				"z": -2.4387069338,
				"element": "H" 
			},
			{
				"x": -1.9168786621,
				"y": -3.5705873159,
				"z": -1.4896004336,
				"element": "H" 
			},
			{
				"x": 0.2370921248,
				"y": -3.0729525354,
				"z": -0.6091092453,
				"element": "H" 
			},
			{
				"x": 2.5029863009,
				"y": -1.6379202353,
				"z": 1.6255707065,
				"element": "H" 
			},
			{
				"x": 2.241679385,
				"y": -2.8769972935,
				"z": 0.4030272881,
				"element": "H" 
			},
			{
				"x": 3.0428319401,
				"y": -1.3836235601,
				"z": -0.0509009303,
				"element": "H" 
			},
			{
				"x": -1.0550353088,
				"y": 1.5745108767,
				"z": 0.405836972,
				"element": "H" 
			},
			{
				"x": -2.6817614089,
				"y": 0.0652827918,
				"z": -0.6895957833,
				"element": "H" 
			},
			{
				"x": 4.3840918953,
				"y": 3.4365597829,
				"z": 2.828212578,
				"element": "H" 
			},
			{
				"x": 5.0629598392,
				"y": 2.5063791097,
				"z": 1.6321193986,
				"element": "H" 
			},
			{
				"x": 3.3611010524,
				"y": 0.2860988062,
				"z": 1.1562555167,
				"element": "H" 
			}
		],
		 "valence_orbital": [ 
			{
				"type": "occ",
				"energy": -0.29335,
				"method": "rhf"
			},
			{
				"type": "occ",
				"energy": -0.26009,
				"method": "rhf"
			},
			{
				"type": "occ",
				"energy": -0.2452,
				"method": "rhf"
			},
			{
				"type": "occ",
				"energy": -0.24134,
				"method": "rhf"
			},
			{
				"type": "occ",
				"energy": -0.20282,
				"method": "rhf"
			},
			{
				"type": "unocc",
				"energy": -0.02589,
				"method": "rhf"
			},
			{
				"type": "unocc",
				"energy": 0.0014,
				"method": "rhf"
			},
			{
				"type": "unocc",
				"energy": 0.04955,
				"method": "rhf"
			},
			{
				"type": "unocc",
				"energy": 0.06468,
				"method": "rhf"
			},
			{
				"type": "unocc",
				"energy": 0.07458,
				"method": "rhf"
			}
		],
		"cosmo_sigma_profile": { 
			"-0.025": 0.0,
			"-0.024": 0.0,
			"-0.023": 0.0,
			"-0.022": 0.0,
			"-0.021": 0.0,
			"-0.02": 0.0,
			"-0.019": 0.0,
			"-0.018": 0.0,
			"-0.017": 0.011378635275,
			"-0.016": 0.718518520317,
			"-0.015": 0.562413220594,
			"-0.014": 2.35098948677,
			"-0.013": 4.47857697251,
			"-0.012": 4.25775684127,
			"-0.011": 4.00132663934,
			"-0.01": 3.62434079144,
			"-0.009": 2.56192374267,
			"-0.008": 3.49375018194,
			"-0.007": 3.97882828185,
			"-0.006": 4.73823282776,
			"-0.005": 11.5460224357,
			"-0.004": 17.1607724429,
			"-0.003": 18.7557454807,
			"-0.002": 17.327151801,
			"-0.001": 18.3470135679,
			"0.0": 19.7174805016,
			"0.001": 13.4726841974,
			"0.002": 10.6598308283,
			"0.003": 11.3962122927,
			"0.004": 11.1621984952,
			"0.005": 12.4215511178,
			"0.006": 5.79859283097,
			"0.007": 2.9616424104,
			"0.008": 2.36580315453,
			"0.009": 2.5253942987,
			"0.01": 3.2882176621,
			"0.011": 2.20763011081,
			"0.012": 2.20715475826,
			"0.013": 3.56397789132,
			"0.014": 3.59634397103,
			"0.015": 3.6169425709,
			"0.016": 2.74777116449,
			"0.017": 1.32606553198,
			"0.018": 0.374546003686,
			"0.019": 0.0,
			"0.02": 0.0,
			"0.021": 0.0,
			"0.022": 0.0,
			"0.023": 0.0,
			"0.024": 0.0,
			"0.025": 0.0
		}
	}
}
