{
	 "smiles": "CN(C)C1=CC=C(C=C1)C(=O)C1=CC=CC=C1", 
	 "Tm": 363.95, 
	 "num_atms": 32, 
	 "gaussian": { 
		 "optdone": 1, 
		 "sigma_profile": "yes", 
		 "theory": "DFT", 
		 "functional": "B3LYP", 
		 "basiset": "6-31G**", 
		 "properties": { 
			 "R2extent": 6606.615, 
			 "electric_dipole_moment_norm": 5.19812762925, 
			 "electric_quadrupole_moment_norm": 19.4289698602, 
			 "total_energy": -710.610737421, 
			 "HOMO_LUMO_gap": 0.15061, 
			 "cosmo_polarized_energy": -12.62, 
			 "cosmo_cavitation_energy": 35.01, 
			 "cosmo_dispersion_energy": -25.47, 
			 "cosmo_repulsion_energy": 1.94, 
			 "cosmo_total_nonelectrostatic_energy": 11.49, 
			 "SMD_solvation_energy": 6.09 
		},
		"coords": [
			{
				"x": -1.5576525135,
				"y": 2.7390731293,
				"z": -3.0031479813,
				"element": "C" 
			},
			{
				"x": -0.5957153934,
				"y": 2.2565166033,
				"z": -2.0253276891,
				"element": "N" 
			},
			{
				"x": 0.6088501687,
				"y": 3.0310768245,
				"z": -1.7772036425,
				"element": "C" 
			},
			{
				"x": -0.710865419,
				"y": 0.9787640297,
				"z": -1.5160892491,
				"element": "C" 
			},
			{
				"x": -1.8265728161,
				"y": 0.1592264543,
				"z": -1.8282121118,
				"element": "C" 
			},
			{
				"x": -1.9410291706,
				"y": -1.1147494763,
				"z": -1.3004569013,
				"element": "C" 
			},
			{
				"x": -0.97711909,
				"y": -1.642921951,
				"z": -0.4227527029,
				"element": "C" 
			},
			{
				"x": 0.138948931,
				"y": -0.8414334017,
				"z": -0.1294749957,
				"element": "C" 
			},
			{
				"x": 0.2795615437,
				"y": 0.4324080518,
				"z": -0.6639297963,
				"element": "C" 
			},
			{
				"x": -1.1561564694,
				"y": -3.0386165041,
				"z": 0.0582624009,
				"element": "C" 
			},
			{
				"x": -1.8902869327,
				"y": -3.8176945178,
				"z": -0.5477710921,
				"element": "O" 
			},
			{
				"x": -0.4435746661,
				"y": -3.5227982055,
				"z": 1.2924089525,
				"element": "C" 
			},
			{
				"x": -0.1848243362,
				"y": -2.7028019944,
				"z": 2.401307601,
				"element": "C" 
			},
			{
				"x": 0.4139063417,
				"y": -3.2316348599,
				"z": 3.5462078086,
				"element": "C" 
			},
			{
				"x": 0.7704180255,
				"y": -4.5801670226,
				"z": 3.5910438762,
				"element": "C" 
			},
			{
				"x": 0.5075058279,
				"y": -5.4065597946,
				"z": 2.494115233,
				"element": "C" 
			},
			{
				"x": -0.1076237542,
				"y": -4.8841948703,
				"z": 1.3599275759,
				"element": "C" 
			},
			{
				"x": -1.5572437398,
				"y": 2.1393385311,
				"z": -3.9248775185,
				"element": "H" 
			},
			{
				"x": -1.3125498345,
				"y": 3.7681604828,
				"z": -3.2683942182,
				"element": "H" 
			},
			{
				"x": -2.5763623269,
				"y": 2.7342582514,
				"z": -2.5970548891,
				"element": "H" 
			},
			{
				"x": 1.5070955163,
				"y": 2.5634011053,
				"z": -2.2067419258,
				"element": "H" 
			},
			{
				"x": 0.779787612,
				"y": 3.1668423039,
				"z": -0.7024858676,
				"element": "H" 
			},
			{
				"x": 0.4966712675,
				"y": 4.0207032482,
				"z": -2.2216850384,
				"element": "H" 
			},
			{
				"x": -2.6021205898,
				"y": 0.5217122374,
				"z": -2.4915259815,
				"element": "H" 
			},
			{
				"x": -2.7899021092,
				"y": -1.7388687153,
				"z": -1.5603482866,
				"element": "H" 
			},
			{
				"x": 0.9316264765,
				"y": -1.2283519798,
				"z": 0.5022134995,
				"element": "H" 
			},
			{
				"x": 1.1697689187,
				"y": 1.0006230237,
				"z": -0.4247190782,
				"element": "H" 
			},
			{
				"x": -0.4767909222,
				"y": -1.6580439688,
				"z": 2.3799227143,
				"element": "H" 
			},
			{
				"x": 0.5972498611,
				"y": -2.5908199552,
				"z": 4.4040700549,
				"element": "H" 
			},
			{
				"x": 1.2437885739,
				"y": -4.9886222246,
				"z": 4.4795743827,
				"element": "H" 
			},
			{
				"x": 0.7760688544,
				"y": -6.4586182458,
				"z": 2.5291282113,
				"element": "H" 
			},
			{
				"x": -0.3440578353,
				"y": -5.5152065889,
				"z": 0.5095166555,
				"element": "H" 
			}
		],
		 "valence_orbital": [ 
			{
				"type": "occ",
				"energy": -0.25105,
				"method": "rhf"
			},
			{
				"type": "occ",
				"energy": -0.25019,
				"method": "rhf"
			},
			{
				"type": "occ",
				"energy": -0.24884,
				"method": "rhf"
			},
			{
				"type": "occ",
				"energy": -0.23064,
				"method": "rhf"
			},
			{
				"type": "occ",
				"energy": -0.19735,
				"method": "rhf"
			},
			{
				"type": "unocc",
				"energy": -0.04674,
				"method": "rhf"
			},
			{
				"type": "unocc",
				"energy": -0.00349,
				"method": "rhf"
			},
			{
				"type": "unocc",
				"energy": 0.00395,
				"method": "rhf"
			},
			{
				"type": "unocc",
				"energy": 0.00531,
				"method": "rhf"
			},
			{
				"type": "unocc",
				"energy": 0.07258,
				"method": "rhf"
			}
		],
		"cosmo_sigma_profile": { 
			"-0.025": 0.0,
			"-0.024": 0.0,
			"-0.023": 0.0,
			"-0.022": 0.0,
			"-0.021": 0.0,
			"-0.02": 0.0,
			"-0.019": 0.0,
			"-0.018": 0.0,
			"-0.017": 0.0,
			"-0.016": 0.0,
			"-0.015": 0.0,
			"-0.014": 0.0,
			"-0.013": 0.0,
			"-0.012": 0.0,
			"-0.011": 0.0,
			"-0.01": 0.0,
			"-0.009": 0.0,
			"-0.008": 0.218105335719,
			"-0.007": 2.3038980049,
			"-0.006": 12.0403582345,
			"-0.005": 23.1918564983,
			"-0.004": 32.6658527008,
			"-0.003": 28.3828763529,
			"-0.002": 30.4845831136,
			"-0.001": 22.3818761098,
			"0.0": 14.9069370192,
			"0.001": 16.093203254,
			"0.002": 15.9844542668,
			"0.003": 16.7234431704,
			"0.004": 20.5147035618,
			"0.005": 20.8279235245,
			"0.006": 4.64387645491,
			"0.007": 1.98954492519,
			"0.008": 1.98860709375,
			"0.009": 1.93339669899,
			"0.01": 1.35899443981,
			"0.011": 2.01156918504,
			"0.012": 3.05267239901,
			"0.013": 4.43495938782,
			"0.014": 0.954732735069,
			"0.015": 0.0,
			"0.016": 0.0,
			"0.017": 0.0,
			"0.018": 0.0,
			"0.019": 0.0,
			"0.02": 0.0,
			"0.021": 0.0,
			"0.022": 0.0,
			"0.023": 0.0,
			"0.024": 0.0,
			"0.025": 0.0
		}
	}
}
