{
	 "smiles": "COC1=C(OC)C=C(C=C1)S(=O)(=O)N1CCNCC1", 
	 "Tm": 419.15, 
	 "num_atms": 37, 
	 "gaussian": { 
		 "optdone": 1, 
		 "sigma_profile": "yes", 
		 "theory": "DFT", 
		 "functional": "B3LYP", 
		 "basiset": "6-31G**", 
		 "properties": { 
			 "R2extent": 6518.2467, 
			 "electric_dipole_moment_norm": 3.78135058015, 
			 "electric_quadrupole_moment_norm": 19.6350766551, 
			 "total_energy": -1276.59130853, 
			 "HOMO_LUMO_gap": 0.19586, 
			 "cosmo_polarized_energy": -17.31, 
			 "cosmo_cavitation_energy": 39.81, 
			 "cosmo_dispersion_energy": -28.15, 
			 "cosmo_repulsion_energy": 2.15, 
			 "cosmo_total_nonelectrostatic_energy": 13.81, 
			 "SMD_solvation_energy": 3.94 
		},
		"coords": [
			{
				"x": 0.3981931806,
				"y": -4.0294484434,
				"z": -3.8263553366,
				"element": "C" 
			},
			{
				"x": 1.172744304,
				"y": -3.1005258422,
				"z": -3.0579104068,
				"element": "O" 
			},
			{
				"x": 0.5609492604,
				"y": -2.5313551107,
				"z": -1.9762192196,
				"element": "C" 
			},
			{
				"x": -0.5440587603,
				"y": -1.6516285578,
				"z": -2.117222428,
				"element": "C" 
			},
			{
				"x": -0.9898480102,
				"y": -1.4450912352,
				"z": -3.388038944,
				"element": "O" 
			},
			{
				"x": -2.0889605284,
				"y": -0.5631498585,
				"z": -3.5780543197,
				"element": "C" 
			},
			{
				"x": -1.0920590856,
				"y": -1.0541267064,
				"z": -0.9833223826,
				"element": "C" 
			},
			{
				"x": -0.5347062555,
				"y": -1.3205955652,
				"z": 0.2731669839,
				"element": "C" 
			},
			{
				"x": 0.5504074791,
				"y": -2.1761459207,
				"z": 0.4279001284,
				"element": "C" 
			},
			{
				"x": 1.089778581,
				"y": -2.7780772196,
				"z": -0.7119466058,
				"element": "C" 
			},
			{
				"x": -1.267804361,
				"y": -0.5437709247,
				"z": 1.7113547681,
				"element": "S" 
			},
			{
				"x": -0.7712398929,
				"y": -1.254979498,
				"z": 2.8981474407,
				"element": "O" 
			},
			{
				"x": -2.7097466835,
				"y": -0.3939359955,
				"z": 1.4781003617,
				"element": "O" 
			},
			{
				"x": -0.6159865284,
				"y": 1.0227424873,
				"z": 1.6305243177,
				"element": "N" 
			},
			{
				"x": -1.4603510692,
				"y": 2.1182153394,
				"z": 2.137426481,
				"element": "C" 
			},
			{
				"x": -1.0013890727,
				"y": 3.423535578,
				"z": 1.4344763896,
				"element": "C" 
			},
			{
				"x": 0.4194645883,
				"y": 3.4205051825,
				"z": 1.0572016257,
				"element": "N" 
			},
			{
				"x": 1.2064064129,
				"y": 2.6350906844,
				"z": 2.0025306149,
				"element": "C" 
			},
			{
				"x": 0.7952376003,
				"y": 1.1369950783,
				"z": 2.0539102341,
				"element": "C" 
			},
			{
				"x": -0.4598164714,
				"y": -3.5449050524,
				"z": -4.2984693855,
				"element": "H" 
			},
			{
				"x": 0.0538212051,
				"y": -4.8596751394,
				"z": -3.1971225902,
				"element": "H" 
			},
			{
				"x": 1.0715578823,
				"y": -4.4154095243,
				"z": -4.5937149221,
				"element": "H" 
			},
			{
				"x": -2.2706605753,
				"y": -0.5396779201,
				"z": -4.6531454545,
				"element": "H" 
			},
			{
				"x": -1.8545220947,
				"y": 0.4497293408,
				"z": -3.228120115,
				"element": "H" 
			},
			{
				"x": -2.9888068163,
				"y": -0.923208197,
				"z": -3.0643560928,
				"element": "H" 
			},
			{
				"x": -1.9473117633,
				"y": -0.3942694526,
				"z": -1.050533023,
				"element": "H" 
			},
			{
				"x": 0.9427946048,
				"y": -2.3843513595,
				"z": 1.4162621399,
				"element": "H" 
			},
			{
				"x": 1.9349872016,
				"y": -3.4547661077,
				"z": -0.6419191087,
				"element": "H" 
			},
			{
				"x": -2.5026804072,
				"y": 1.8923614323,
				"z": 1.9117227701,
				"element": "H" 
			},
			{
				"x": -1.3679729819,
				"y": 2.2076092032,
				"z": 3.2304490278,
				"element": "H" 
			},
			{
				"x": -1.5904255918,
				"y": 3.5902060333,
				"z": 0.5276635613,
				"element": "H" 
			},
			{
				"x": -1.1969572121,
				"y": 4.2690168553,
				"z": 2.1074298904,
				"element": "H" 
			},
			{
				"x": 0.5081802782,
				"y": 2.9979230035,
				"z": 0.1367410695,
				"element": "H" 
			},
			{
				"x": 1.0862639168,
				"y": 3.08768027,
				"z": 2.9937424087,
				"element": "H" 
			},
			{
				"x": 2.2686042164,
				"y": 2.7115477809,
				"z": 1.7499451749,
				"element": "H" 
			},
			{
				"x": 0.9479496818,
				"y": 0.725493211,
				"z": 3.0616442814,
				"element": "H" 
			},
			{
				"x": 1.4024637681,
				"y": 0.5496421507,
				"z": 1.3565106649,
				"element": "H" 
			}
		],
		 "valence_orbital": [ 
			{
				"type": "occ",
				"energy": -0.28826,
				"method": "rhf"
			},
			{
				"type": "occ",
				"energy": -0.26254,
				"method": "rhf"
			},
			{
				"type": "occ",
				"energy": -0.24506,
				"method": "rhf"
			},
			{
				"type": "occ",
				"energy": -0.23193,
				"method": "rhf"
			},
			{
				"type": "occ",
				"energy": -0.22772,
				"method": "rhf"
			},
			{
				"type": "unocc",
				"energy": -0.03186,
				"method": "rhf"
			},
			{
				"type": "unocc",
				"energy": -0.00815,
				"method": "rhf"
			},
			{
				"type": "unocc",
				"energy": 0.05576,
				"method": "rhf"
			},
			{
				"type": "unocc",
				"energy": 0.07576,
				"method": "rhf"
			},
			{
				"type": "unocc",
				"energy": 0.08822,
				"method": "rhf"
			}
		],
		"cosmo_sigma_profile": { 
			"-0.025": 0.0,
			"-0.024": 0.0,
			"-0.023": 0.0,
			"-0.022": 0.0,
			"-0.021": 0.0,
			"-0.02": 0.0,
			"-0.019": 0.0,
			"-0.018": 0.0,
			"-0.017": 0.0,
			"-0.016": 0.0,
			"-0.015": 0.0,
			"-0.014": 0.0,
			"-0.013": 0.0,
			"-0.012": 0.0,
			"-0.011": 0.0,
			"-0.01": 0.727136489406,
			"-0.009": 1.58441151507,
			"-0.008": 0.927691985827,
			"-0.007": 6.843985061,
			"-0.006": 15.2609028122,
			"-0.005": 24.941535884,
			"-0.004": 42.8332795629,
			"-0.003": 40.8524722157,
			"-0.002": 27.2494157701,
			"-0.001": 18.4796527203,
			"0.0": 15.0181141612,
			"0.001": 17.5810514828,
			"0.002": 21.1368297551,
			"0.003": 14.1808202278,
			"0.004": 7.03971709831,
			"0.005": 6.07850994922,
			"0.006": 6.0226205072,
			"0.007": 7.08563320699,
			"0.008": 5.96084939889,
			"0.009": 5.70979412127,
			"0.01": 9.29254335544,
			"0.011": 9.67559757078,
			"0.012": 5.82650199055,
			"0.013": 0.454778973846,
			"0.014": 0.344917866626,
			"0.015": 0.804048127353,
			"0.016": 0.548759719844,
			"0.017": 0.599101732736,
			"0.018": 0.345188582979,
			"0.019": 0.00766538146486,
			"0.02": 0.0,
			"0.021": 0.0,
			"0.022": 0.0,
			"0.023": 0.0,
			"0.024": 0.0,
			"0.025": 0.0
		}
	}
}
