{
	 "smiles": "CN1C=C(Br)C(=N1)C(Cl)=O", 
	 "Tm": 405.15, 
	 "num_atms": 14, 
	 "gaussian": { 
		 "optdone": 1, 
		 "sigma_profile": "yes", 
		 "theory": "DFT", 
		 "functional": "B3LYP", 
		 "basiset": "6-31G**", 
		 "properties": { 
			 "R2extent": 5309.3054, 
			 "electric_dipole_moment_norm": 6.53196697022, 
			 "electric_quadrupole_moment_norm": 13.520265439, 
			 "total_energy": -3409.238976, 
			 "HOMO_LUMO_gap": 0.19057, 
			 "cosmo_polarized_energy": -12.25, 
			 "cosmo_cavitation_energy": 23.41, 
			 "cosmo_dispersion_energy": -17.69, 
			 "cosmo_repulsion_energy": 1.46, 
			 "cosmo_total_nonelectrostatic_energy": 7.18, 
			 "SMD_solvation_energy": 3.27 
		},
		"coords": [
			{
				"x": 0.5242195251,
				"y": -1.8750717412,
				"z": -0.0092876619,
				"element": "C" 
			},
			{
				"x": -0.7337257106,
				"y": -1.1783153155,
				"z": 0.2195878953,
				"element": "N" 
			},
			{
				"x": -1.6056792168,
				"y": -1.3520812787,
				"z": 1.2533464397,
				"element": "C" 
			},
			{
				"x": -2.6436003063,
				"y": -0.4711378405,
				"z": 1.0343509422,
				"element": "C" 
			},
			{
				"x": -4.1428400957,
				"y": -0.2659671216,
				"z": 2.1398531303,
				"element": "Br" 
			},
			{
				"x": -2.3047369226,
				"y": 0.2005880935,
				"z": -0.1724391642,
				"element": "C" 
			},
			{
				"x": -1.1347502294,
				"y": -0.2504388547,
				"z": -0.6479970087,
				"element": "N" 
			},
			{
				"x": -3.0831333473,
				"y": 1.2452755205,
				"z": -0.8483055315,
				"element": "C" 
			},
			{
				"x": -2.3233877247,
				"y": 1.8662688655,
				"z": -2.375222271,
				"element": "Cl" 
			},
			{
				"x": -4.1286352904,
				"y": 1.6849668507,
				"z": -0.4723480501,
				"element": "O" 
			},
			{
				"x": 0.4839923437,
				"y": -2.4026963531,
				"z": -0.9645088416,
				"element": "H" 
			},
			{
				"x": 0.6821238992,
				"y": -2.5899326512,
				"z": 0.7988094838,
				"element": "H" 
			},
			{
				"x": 1.3451058674,
				"y": -1.1552124721,
				"z": -0.0292099187,
				"element": "H" 
			},
			{
				"x": -1.4367527917,
				"y": -2.0639457015,
				"z": 2.0464705562,
				"element": "H" 
			}
		],
		 "valence_orbital": [ 
			{
				"type": "occ",
				"energy": -0.31095,
				"method": "rhf"
			},
			{
				"type": "occ",
				"energy": -0.30312,
				"method": "rhf"
			},
			{
				"type": "occ",
				"energy": -0.2874,
				"method": "rhf"
			},
			{
				"type": "occ",
				"energy": -0.2782,
				"method": "rhf"
			},
			{
				"type": "occ",
				"energy": -0.25674,
				"method": "rhf"
			},
			{
				"type": "unocc",
				"energy": -0.06617,
				"method": "rhf"
			},
			{
				"type": "unocc",
				"energy": -0.00485,
				"method": "rhf"
			},
			{
				"type": "unocc",
				"energy": 0.00102,
				"method": "rhf"
			},
			{
				"type": "unocc",
				"energy": 0.03071,
				"method": "rhf"
			},
			{
				"type": "unocc",
				"energy": 0.07695,
				"method": "rhf"
			}
		],
		"cosmo_sigma_profile": { 
			"-0.025": 0.0,
			"-0.024": 0.0,
			"-0.023": 0.0,
			"-0.022": 0.0,
			"-0.021": 0.0,
			"-0.02": 0.0,
			"-0.019": 0.0,
			"-0.018": 0.0,
			"-0.017": 0.0,
			"-0.016": 0.0,
			"-0.015": 0.0,
			"-0.014": 0.0,
			"-0.013": 0.0,
			"-0.012": 0.246223954151,
			"-0.011": 3.23253572579,
			"-0.01": 2.17991930018,
			"-0.009": 2.90270691615,
			"-0.008": 4.28577259637,
			"-0.007": 7.56297861702,
			"-0.006": 8.60144922416,
			"-0.005": 11.314786404,
			"-0.004": 14.7670800936,
			"-0.003": 9.56523879948,
			"-0.002": 9.36313621855,
			"-0.001": 14.1747152521,
			"0.0": 14.8499215868,
			"0.001": 11.8395084413,
			"0.002": 11.9536538918,
			"0.003": 16.6186581147,
			"0.004": 15.0202733437,
			"0.005": 10.4877932486,
			"0.006": 4.46114661927,
			"0.007": 4.68514196781,
			"0.008": 5.83394583151,
			"0.009": 5.82067737774,
			"0.01": 1.57721500014,
			"0.011": 1.42268051128,
			"0.012": 0.823242383088,
			"0.013": 0.391311825696,
			"0.014": 0.0,
			"0.015": 0.0,
			"0.016": 0.0,
			"0.017": 0.0,
			"0.018": 0.0,
			"0.019": 0.0,
			"0.02": 0.0,
			"0.021": 0.0,
			"0.022": 0.0,
			"0.023": 0.0,
			"0.024": 0.0,
			"0.025": 0.0
		}
	}
}
