{
	 "smiles": "CC1CCCC(C)(C)C1=O", 
	 "Tm": 241.35, 
	 "num_atms": 26, 
	 "gaussian": { 
		 "optdone": 1, 
		 "sigma_profile": "yes", 
		 "theory": "DFT", 
		 "functional": "B3LYP", 
		 "basiset": "6-31G**", 
		 "properties": { 
			 "R2extent": 1627.8499, 
			 "electric_dipole_moment_norm": 2.71904213281, 
			 "electric_quadrupole_moment_norm": 7.06895439793, 
			 "total_energy": -427.848195438, 
			 "HOMO_LUMO_gap": 0.22147, 
			 "cosmo_polarized_energy": -6.23, 
			 "cosmo_cavitation_energy": 25.73, 
			 "cosmo_dispersion_energy": -18.61, 
			 "cosmo_repulsion_energy": 1.5, 
			 "cosmo_total_nonelectrostatic_energy": 8.62, 
			 "SMD_solvation_energy": 4.59 
		},
		"coords": [
			{
				"x": 0.0798519542,
				"y": -3.1271757647,
				"z": -0.2039221207,
				"element": "C" 
			},
			{
				"x": 0.0311316006,
				"y": -1.6020111761,
				"z": -0.3045035532,
				"element": "C" 
			},
			{
				"x": 0.9820830089,
				"y": -1.0423162329,
				"z": -1.3884423334,
				"element": "C" 
			},
			{
				"x": 0.937098374,
				"y": 0.4881272456,
				"z": -1.4584731297,
				"element": "C" 
			},
			{
				"x": 1.2692098757,
				"y": 1.1121789273,
				"z": -0.0969219019,
				"element": "C" 
			},
			{
				"x": 0.3733984144,
				"y": 0.6110097538,
				"z": 1.0702843359,
				"element": "C" 
			},
			{
				"x": -1.0711599694,
				"y": 1.150637684,
				"z": 0.9230032164,
				"element": "C" 
			},
			{
				"x": 0.949692929,
				"y": 1.0878899279,
				"z": 2.4114251392,
				"element": "C" 
			},
			{
				"x": 0.3264949591,
				"y": -0.9323596768,
				"z": 1.0435610322,
				"element": "C" 
			},
			{
				"x": 0.5170216821,
				"y": -1.5919742005,
				"z": 2.0497764672,
				"element": "O" 
			},
			{
				"x": 1.0823223708,
				"y": -3.4672031916,
				"z": 0.0735927038,
				"element": "H" 
			},
			{
				"x": -0.6091845043,
				"y": -3.4951501659,
				"z": 0.5598495809,
				"element": "H" 
			},
			{
				"x": -0.1852759041,
				"y": -3.5825082041,
				"z": -1.1636668039,
				"element": "H" 
			},
			{
				"x": -0.9892603005,
				"y": -1.2970750862,
				"z": -0.5845665147,
				"element": "H" 
			},
			{
				"x": 0.7226426837,
				"y": -1.4836822063,
				"z": -2.3581197613,
				"element": "H" 
			},
			{
				"x": 2.0069461031,
				"y": -1.3696551115,
				"z": -1.1622247266,
				"element": "H" 
			},
			{
				"x": -0.0561541669,
				"y": 0.8122601225,
				"z": -1.7952958668,
				"element": "H" 
			},
			{
				"x": 1.6474926444,
				"y": 0.8511385862,
				"z": -2.210637101,
				"element": "H" 
			},
			{
				"x": 1.2015673898,
				"y": 2.2065402591,
				"z": -0.1473868437,
				"element": "H" 
			},
			{
				"x": 2.3145553166,
				"y": 0.8792808812,
				"z": 0.1488612966,
				"element": "H" 
			},
			{
				"x": -1.0628523189,
				"y": 2.2444428946,
				"z": 0.9865800085,
				"element": "H" 
			},
			{
				"x": -1.7103439973,
				"y": 0.7733399769,
				"z": 1.7280612627,
				"element": "H" 
			},
			{
				"x": -1.5341117196,
				"y": 0.8779007789,
				"z": -0.0290977097,
				"element": "H" 
			},
			{
				"x": 0.9962193585,
				"y": 2.1821814768,
				"z": 2.4339998598,
				"element": "H" 
			},
			{
				"x": 1.9588896971,
				"y": 0.6964349604,
				"z": 2.5690264652,
				"element": "H" 
			},
			{
				"x": 0.334424519,
				"y": 0.7474475415,
				"z": 3.2477369984,
				"element": "H" 
			}
		],
		 "valence_orbital": [ 
			{
				"type": "occ",
				"energy": -0.33193,
				"method": "rhf"
			},
			{
				"type": "occ",
				"energy": -0.32508,
				"method": "rhf"
			},
			{
				"type": "occ",
				"energy": -0.31765,
				"method": "rhf"
			},
			{
				"type": "occ",
				"energy": -0.30796,
				"method": "rhf"
			},
			{
				"type": "occ",
				"energy": -0.23186,
				"method": "rhf"
			},
			{
				"type": "unocc",
				"energy": -0.01039,
				"method": "rhf"
			},
			{
				"type": "unocc",
				"energy": 0.07634,
				"method": "rhf"
			},
			{
				"type": "unocc",
				"energy": 0.10457,
				"method": "rhf"
			},
			{
				"type": "unocc",
				"energy": 0.11277,
				"method": "rhf"
			},
			{
				"type": "unocc",
				"energy": 0.11515,
				"method": "rhf"
			}
		],
		"cosmo_sigma_profile": { 
			"-0.025": 0.0,
			"-0.024": 0.0,
			"-0.023": 0.0,
			"-0.022": 0.0,
			"-0.021": 0.0,
			"-0.02": 0.0,
			"-0.019": 0.0,
			"-0.018": 0.0,
			"-0.017": 0.0,
			"-0.016": 0.0,
			"-0.015": 0.0,
			"-0.014": 0.0,
			"-0.013": 0.0,
			"-0.012": 0.0,
			"-0.011": 0.0,
			"-0.01": 0.0,
			"-0.009": 0.0,
			"-0.008": 0.0,
			"-0.007": 0.0,
			"-0.006": 0.250591087286,
			"-0.005": 2.80276247331,
			"-0.004": 7.93915608116,
			"-0.003": 30.6938958555,
			"-0.002": 36.3656267932,
			"-0.001": 33.4191671898,
			"0.0": 28.8406911936,
			"0.001": 25.8115341311,
			"0.002": 7.6486333024,
			"0.003": 2.14235542443,
			"0.004": 1.41123987611,
			"0.005": 1.94012000199,
			"0.006": 2.09565638983,
			"0.007": 2.00169543181,
			"0.008": 1.4833943862,
			"0.009": 1.42952627838,
			"0.01": 2.26121365664,
			"0.011": 2.37523381658,
			"0.012": 3.70449869366,
			"0.013": 2.87218268469,
			"0.014": 0.210870591341,
			"0.015": 0.0,
			"0.016": 0.0,
			"0.017": 0.0,
			"0.018": 0.0,
			"0.019": 0.0,
			"0.02": 0.0,
			"0.021": 0.0,
			"0.022": 0.0,
			"0.023": 0.0,
			"0.024": 0.0,
			"0.025": 0.0
		}
	}
}
