{
	 "smiles": "OC(CC1=CC=CC=C1)C(O)=O", 
	 "Tm": 396.15, 
	 "num_atms": 22, 
	 "gaussian": { 
		 "optdone": 1, 
		 "sigma_profile": "yes", 
		 "theory": "DFT", 
		 "functional": "B3LYP", 
		 "basiset": "6-31G**", 
		 "properties": { 
			 "R2extent": 2869.9825, 
			 "electric_dipole_moment_norm": 3.15312340704, 
			 "electric_quadrupole_moment_norm": 19.6190380669, 
			 "total_energy": -574.659263934, 
			 "HOMO_LUMO_gap": 0.23636, 
			 "cosmo_polarized_energy": -16.43, 
			 "cosmo_cavitation_energy": 25.73, 
			 "cosmo_dispersion_energy": -18.28, 
			 "cosmo_repulsion_energy": 1.46, 
			 "cosmo_total_nonelectrostatic_energy": 8.91, 
			 "SMD_solvation_energy": 5.24 
		},
		"coords": [
			{
				"x": 2.4490895818,
				"y": -0.2745412202,
				"z": -1.9222223414,
				"element": "O" 
			},
			{
				"x": 2.9985239276,
				"y": -1.0230714002,
				"z": -0.8720566884,
				"element": "C" 
			},
			{
				"x": 2.9388213703,
				"y": -0.2390849221,
				"z": 0.4673792018,
				"element": "C" 
			},
			{
				"x": 1.5363731688,
				"y": 0.0301791583,
				"z": 0.9658588059,
				"element": "C" 
			},
			{
				"x": 0.7565070418,
				"y": 1.0407536837,
				"z": 0.3841851991,
				"element": "C" 
			},
			{
				"x": -0.5442847684,
				"y": 1.2773177426,
				"z": 0.8281428359,
				"element": "C" 
			},
			{
				"x": -1.0863248035,
				"y": 0.5089475507,
				"z": 1.8609319627,
				"element": "C" 
			},
			{
				"x": -0.3198843304,
				"y": -0.4993857061,
				"z": 2.4459563301,
				"element": "C" 
			},
			{
				"x": 0.9814171149,
				"y": -0.7356582869,
				"z": 1.9995397824,
				"element": "C" 
			},
			{
				"x": 2.2708968961,
				"y": -2.370144922,
				"z": -0.7832940811,
				"element": "C" 
			},
			{
				"x": 2.7399622656,
				"y": -3.268641265,
				"z": 0.1081527243,
				"element": "O" 
			},
			{
				"x": 1.3182810119,
				"y": -2.6248619024,
				"z": -1.4818816832,
				"element": "O" 
			},
			{
				"x": 1.6751526856,
				"y": -0.7811368098,
				"z": -2.227126132,
				"element": "H" 
			},
			{
				"x": 4.0598828576,
				"y": -1.2340655094,
				"z": -1.0905565861,
				"element": "H" 
			},
			{
				"x": 3.4695625753,
				"y": 0.7020556985,
				"z": 0.289316064,
				"element": "H" 
			},
			{
				"x": 3.5149418864,
				"y": -0.7767255802,
				"z": 1.232660736,
				"element": "H" 
			},
			{
				"x": 1.1742306411,
				"y": 1.63266965,
				"z": -0.4239725194,
				"element": "H" 
			},
			{
				"x": -1.135133649,
				"y": 2.0645410339,
				"z": 0.368295032,
				"element": "H" 
			},
			{
				"x": -2.0983257355,
				"y": 0.696482739,
				"z": 2.2080462536,
				"element": "H" 
			},
			{
				"x": -0.7320526604,
				"y": -1.1019332495,
				"z": 3.2503060288,
				"element": "H" 
			},
			{
				"x": 1.5708067237,
				"y": -1.5251000781,
				"z": 2.4600959239,
				"element": "H" 
			},
			{
				"x": 3.5145561986,
				"y": -2.9127964048,
				"z": 0.567443151,
				"element": "H" 
			}
		],
		 "valence_orbital": [ 
			{
				"type": "occ",
				"energy": -0.33281,
				"method": "rhf"
			},
			{
				"type": "occ",
				"energy": -0.29228,
				"method": "rhf"
			},
			{
				"type": "occ",
				"energy": -0.28161,
				"method": "rhf"
			},
			{
				"type": "occ",
				"energy": -0.24978,
				"method": "rhf"
			},
			{
				"type": "occ",
				"energy": -0.24482,
				"method": "rhf"
			},
			{
				"type": "unocc",
				"energy": -0.00846,
				"method": "rhf"
			},
			{
				"type": "unocc",
				"energy": -0.00588,
				"method": "rhf"
			},
			{
				"type": "unocc",
				"energy": 0.00147,
				"method": "rhf"
			},
			{
				"type": "unocc",
				"energy": 0.03439,
				"method": "rhf"
			},
			{
				"type": "unocc",
				"energy": 0.09411,
				"method": "rhf"
			}
		],
		"cosmo_sigma_profile": { 
			"-0.025": 0.0,
			"-0.024": 0.0,
			"-0.023": 0.0,
			"-0.022": 0.0,
			"-0.021": 0.0,
			"-0.02": 0.202033112788,
			"-0.019": 0.893637207105,
			"-0.018": 1.12479370609,
			"-0.017": 1.38080650538,
			"-0.016": 1.03209933651,
			"-0.015": 1.28661172423,
			"-0.014": 0.779655392332,
			"-0.013": 0.895358549459,
			"-0.012": 1.72050303019,
			"-0.011": 1.48886166019,
			"-0.01": 1.89136387265,
			"-0.009": 1.74981248797,
			"-0.008": 3.12937043426,
			"-0.007": 5.16168960818,
			"-0.006": 6.46086947119,
			"-0.005": 14.1339103224,
			"-0.004": 15.7186975971,
			"-0.003": 16.6466721336,
			"-0.002": 11.4478978975,
			"-0.001": 11.5579781807,
			"0.0": 10.8726721084,
			"0.001": 8.67451394465,
			"0.002": 11.0684089457,
			"0.003": 10.4033475356,
			"0.004": 12.6606699047,
			"0.005": 11.3112362747,
			"0.006": 10.0883302807,
			"0.007": 5.68587246529,
			"0.008": 3.68171086341,
			"0.009": 6.30189952348,
			"0.01": 5.41630893698,
			"0.011": 3.84783664776,
			"0.012": 2.79811414365,
			"0.013": 1.36704814642,
			"0.014": 0.557097462769,
			"0.015": 0.0,
			"0.016": 0.0,
			"0.017": 0.0,
			"0.018": 0.0,
			"0.019": 0.0,
			"0.02": 0.0,
			"0.021": 0.0,
			"0.022": 0.0,
			"0.023": 0.0,
			"0.024": 0.0,
			"0.025": 0.0
		}
	}
}
