{
	 "smiles": "COC1=CC=C(CNC2=NN=C(S)S2)C=C1", 
	 "Tm": 411.15, 
	 "num_atms": 27, 
	 "gaussian": { 
		 "optdone": 1, 
		 "sigma_profile": "yes", 
		 "theory": "DFT", 
		 "functional": "B3LYP", 
		 "basiset": "6-31G**", 
		 "properties": { 
			 "R2extent": 7153.9669, 
			 "electric_dipole_moment_norm": 3.63330931246, 
			 "electric_quadrupole_moment_norm": 11.6403303007, 
			 "total_energy": -1423.49291026, 
			 "HOMO_LUMO_gap": 0.18818, 
			 "cosmo_polarized_energy": -15.59, 
			 "cosmo_cavitation_energy": 35.05, 
			 "cosmo_dispersion_energy": -26.12, 
			 "cosmo_repulsion_energy": 1.96, 
			 "cosmo_total_nonelectrostatic_energy": 10.89, 
			 "SMD_solvation_energy": 2.97 
		},
		"coords": [
			{
				"x": -4.4953544878,
				"y": 0.3629843388,
				"z": -0.3980345289,
				"element": "C" 
			},
			{
				"x": -3.6212120828,
				"y": -0.2914691956,
				"z": -1.3051898996,
				"element": "O" 
			},
			{
				"x": -2.2886816203,
				"y": -0.0152426148,
				"z": -1.2326695381,
				"element": "C" 
			},
			{
				"x": -1.473993115,
				"y": -0.6999565328,
				"z": -2.1471561184,
				"element": "C" 
			},
			{
				"x": -0.1022541619,
				"y": -0.4844250922,
				"z": -2.1518295436,
				"element": "C" 
			},
			{
				"x": 0.4985542305,
				"y": 0.411085863,
				"z": -1.2527829055,
				"element": "C" 
			},
			{
				"x": 2.0029411098,
				"y": 0.5935671155,
				"z": -1.2437033826,
				"element": "C" 
			},
			{
				"x": 2.7238872055,
				"y": -0.2840622619,
				"z": -0.3064674363,
				"element": "N" 
			},
			{
				"x": 2.8615903698,
				"y": -0.0067024414,
				"z": 1.0262639164,
				"element": "C" 
			},
			{
				"x": 2.9500124027,
				"y": -0.931412122,
				"z": 1.945498685,
				"element": "N" 
			},
			{
				"x": 3.2090998504,
				"y": -0.425894307,
				"z": 3.195096664,
				"element": "N" 
			},
			{
				"x": 3.2927432665,
				"y": 0.8655292589,
				"z": 3.2214763703,
				"element": "C" 
			},
			{
				"x": 3.5791163163,
				"y": 1.8335978396,
				"z": 4.6749402251,
				"element": "S" 
			},
			{
				"x": 3.0756826206,
				"y": 1.6438333074,
				"z": 1.6464096607,
				"element": "S" 
			},
			{
				"x": -0.3273420947,
				"y": 1.0916186092,
				"z": -0.3530813031,
				"element": "C" 
			},
			{
				"x": -1.708888413,
				"y": 0.8879887369,
				"z": -0.3329009195,
				"element": "C" 
			},
			{
				"x": -4.4763509486,
				"y": 1.4522272793,
				"z": -0.53171265,
				"element": "H" 
			},
			{
				"x": -4.2488244791,
				"y": 0.1248572706,
				"z": 0.6444902682,
				"element": "H" 
			},
			{
				"x": -5.4960360196,
				"y": -0.0081663038,
				"z": -0.6239127621,
				"element": "H" 
			},
			{
				"x": -1.9413554481,
				"y": -1.3889047179,
				"z": -2.8429853587,
				"element": "H" 
			},
			{
				"x": 0.5145938646,
				"y": -1.0184527994,
				"z": -2.8715688342,
				"element": "H" 
			},
			{
				"x": 2.2696907614,
				"y": 1.6264519488,
				"z": -0.9999625857,
				"element": "H" 
			},
			{
				"x": 2.4086918511,
				"y": 0.3943935874,
				"z": -2.2407984899,
				"element": "H" 
			},
			{
				"x": 2.5650473585,
				"y": -1.2760931011,
				"z": -0.4480869245,
				"element": "H" 
			},
			{
				"x": 3.5936077372,
				"y": 0.7526656085,
				"z": 5.4804581214,
				"element": "H" 
			},
			{
				"x": 0.1073747146,
				"y": 1.798513892,
				"z": 0.3486385355,
				"element": "H" 
			},
			{
				"x": -2.3160407885,
				"y": 1.4360668338,
				"z": 0.377570734,
				"element": "H" 
			}
		],
		 "valence_orbital": [ 
			{
				"type": "occ",
				"energy": -0.27086,
				"method": "rhf"
			},
			{
				"type": "occ",
				"energy": -0.26088,
				"method": "rhf"
			},
			{
				"type": "occ",
				"energy": -0.25996,
				"method": "rhf"
			},
			{
				"type": "occ",
				"energy": -0.22859,
				"method": "rhf"
			},
			{
				"type": "occ",
				"energy": -0.21026,
				"method": "rhf"
			},
			{
				"type": "unocc",
				"energy": -0.02208,
				"method": "rhf"
			},
			{
				"type": "unocc",
				"energy": -0.0122,
				"method": "rhf"
			},
			{
				"type": "unocc",
				"energy": -0.01105,
				"method": "rhf"
			},
			{
				"type": "unocc",
				"energy": 0.0013,
				"method": "rhf"
			},
			{
				"type": "unocc",
				"energy": 0.02007,
				"method": "rhf"
			}
		],
		"cosmo_sigma_profile": { 
			"-0.025": 0.0,
			"-0.024": 0.0,
			"-0.023": 0.0,
			"-0.022": 0.0,
			"-0.021": 0.0,
			"-0.02": 0.0,
			"-0.019": 0.0,
			"-0.018": 0.0,
			"-0.017": 0.0,
			"-0.016": 0.0,
			"-0.015": 0.0,
			"-0.014": 0.396183180806,
			"-0.013": 0.876757332205,
			"-0.012": 2.18103761915,
			"-0.011": 2.2989044187,
			"-0.01": 2.88774996083,
			"-0.009": 1.66615275528,
			"-0.008": 2.76254465589,
			"-0.007": 5.42679035421,
			"-0.006": 17.6762848435,
			"-0.005": 23.4156392672,
			"-0.004": 22.9003763533,
			"-0.003": 22.2167119204,
			"-0.002": 17.0095285795,
			"-0.001": 18.8753856878,
			"0.0": 19.8584894253,
			"0.001": 18.5729365512,
			"0.002": 17.4660820458,
			"0.003": 17.2725337995,
			"0.004": 16.2189257787,
			"0.005": 16.9567399315,
			"0.006": 8.96323320185,
			"0.007": 5.11200273458,
			"0.008": 3.71459009883,
			"0.009": 3.3321984196,
			"0.01": 4.06841562839,
			"0.011": 2.83811792743,
			"0.012": 3.88925367317,
			"0.013": 2.43657787783,
			"0.014": 2.30169568335,
			"0.015": 0.857985919268,
			"0.016": 0.0,
			"0.017": 0.0,
			"0.018": 0.0,
			"0.019": 0.0,
			"0.02": 0.0,
			"0.021": 0.0,
			"0.022": 0.0,
			"0.023": 0.0,
			"0.024": 0.0,
			"0.025": 0.0
		}
	}
}
