{
	 "smiles": "CC1=COC(=N1)C1=CC(N)=C(C)C=C1", 
	 "Tm": 388.15, 
	 "num_atms": 26, 
	 "gaussian": { 
		 "optdone": 1, 
		 "sigma_profile": "yes", 
		 "theory": "DFT", 
		 "functional": "B3LYP", 
		 "basiset": "6-31G**", 
		 "properties": { 
			 "R2extent": 4003.2302, 
			 "electric_dipole_moment_norm": 2.37551981048, 
			 "electric_quadrupole_moment_norm": 13.0978784656, 
			 "total_energy": -611.139640912, 
			 "HOMO_LUMO_gap": 0.16816, 
			 "cosmo_polarized_energy": -11.76, 
			 "cosmo_cavitation_energy": 29.86, 
			 "cosmo_dispersion_energy": -22.13, 
			 "cosmo_repulsion_energy": 1.74, 
			 "cosmo_total_nonelectrostatic_energy": 9.46, 
			 "SMD_solvation_energy": 4.36 
		},
		"coords": [
			{
				"x": -2.7894166427,
				"y": 4.1343506474,
				"z": 2.7382337128,
				"element": "C" 
			},
			{
				"x": -2.2208791079,
				"y": 3.2596175867,
				"z": 1.6691405526,
				"element": "C" 
			},
			{
				"x": -2.0670775787,
				"y": 3.5020977906,
				"z": 0.3402482638,
				"element": "C" 
			},
			{
				"x": -1.4968127264,
				"y": 2.3950273797,
				"z": -0.2359311318,
				"element": "O" 
			},
			{
				"x": -1.3299654766,
				"y": 1.5170903357,
				"z": 0.7960746317,
				"element": "C" 
			},
			{
				"x": -1.7429281854,
				"y": 1.9835133896,
				"z": 1.9423947908,
				"element": "N" 
			},
			{
				"x": -0.7348357815,
				"y": 0.2142374292,
				"z": 0.5128755997,
				"element": "C" 
			},
			{
				"x": -0.3351681795,
				"y": -0.1279625603,
				"z": -0.7849176523,
				"element": "C" 
			},
			{
				"x": 0.2344886366,
				"y": -1.37834351,
				"z": -1.055241555,
				"element": "C" 
			},
			{
				"x": 0.570650425,
				"y": -1.7287865985,
				"z": -2.3676943681,
				"element": "N" 
			},
			{
				"x": 0.4111554161,
				"y": -2.3095068394,
				"z": -0.0048885832,
				"element": "C" 
			},
			{
				"x": 1.0072517971,
				"y": -3.6655679593,
				"z": -0.2849003728,
				"element": "C" 
			},
			{
				"x": 0.0102806373,
				"y": -1.942590351,
				"z": 1.2834995345,
				"element": "C" 
			},
			{
				"x": -0.5571485105,
				"y": -0.7025530928,
				"z": 1.5590586241,
				"element": "C" 
			},
			{
				"x": -2.0481500496,
				"y": 4.3212268373,
				"z": 3.5225158009,
				"element": "H" 
			},
			{
				"x": -3.1114461474,
				"y": 5.096977725,
				"z": 2.331948722,
				"element": "H" 
			},
			{
				"x": -3.651234618,
				"y": 3.655145974,
				"z": 3.2147895253,
				"element": "H" 
			},
			{
				"x": -2.2868134184,
				"y": 4.3306953835,
				"z": -0.3132366691,
				"element": "H" 
			},
			{
				"x": -0.4721382506,
				"y": 0.5846487925,
				"z": -1.5927985886,
				"element": "H" 
			},
			{
				"x": 0.6679462606,
				"y": -0.9451720722,
				"z": -2.9990278521,
				"element": "H" 
			},
			{
				"x": 1.3411836765,
				"y": -2.3762929378,
				"z": -2.4592553299,
				"element": "H" 
			},
			{
				"x": 1.0183926814,
				"y": -4.2834968914,
				"z": 0.6163045714,
				"element": "H" 
			},
			{
				"x": 0.4399408745,
				"y": -4.2011903442,
				"z": -1.0564050785,
				"element": "H" 
			},
			{
				"x": 2.0452719025,
				"y": -3.5955713126,
				"z": -0.6417855773,
				"element": "H" 
			},
			{
				"x": 0.1467312371,
				"y": -2.6565120355,
				"z": 2.0921605615,
				"element": "H" 
			},
			{
				"x": -0.8650788715,
				"y": -0.432582766,
				"z": 2.5624378675,
				"element": "H" 
			}
		],
		 "valence_orbital": [ 
			{
				"type": "occ",
				"energy": -0.29625,
				"method": "rhf"
			},
			{
				"type": "occ",
				"energy": -0.27564,
				"method": "rhf"
			},
			{
				"type": "occ",
				"energy": -0.25933,
				"method": "rhf"
			},
			{
				"type": "occ",
				"energy": -0.21559,
				"method": "rhf"
			},
			{
				"type": "occ",
				"energy": -0.19696,
				"method": "rhf"
			},
			{
				"type": "unocc",
				"energy": -0.0288,
				"method": "rhf"
			},
			{
				"type": "unocc",
				"energy": 0.01627,
				"method": "rhf"
			},
			{
				"type": "unocc",
				"energy": 0.04639,
				"method": "rhf"
			},
			{
				"type": "unocc",
				"energy": 0.07448,
				"method": "rhf"
			},
			{
				"type": "unocc",
				"energy": 0.08366,
				"method": "rhf"
			}
		],
		"cosmo_sigma_profile": { 
			"-0.025": 0.0,
			"-0.024": 0.0,
			"-0.023": 0.0,
			"-0.022": 0.0,
			"-0.021": 0.0,
			"-0.02": 0.0,
			"-0.019": 0.0,
			"-0.018": 0.0,
			"-0.017": 0.0,
			"-0.016": 0.0,
			"-0.015": 0.0,
			"-0.014": 0.0,
			"-0.013": 0.0614809512951,
			"-0.012": 1.75903178207,
			"-0.011": 2.66379055936,
			"-0.01": 3.30523470659,
			"-0.009": 5.18400611797,
			"-0.008": 4.25257577654,
			"-0.007": 5.16540014549,
			"-0.006": 4.626401279,
			"-0.005": 12.1066725224,
			"-0.004": 16.6922278937,
			"-0.003": 17.0357430964,
			"-0.002": 17.2444048693,
			"-0.001": 18.2646983646,
			"0.0": 22.5746323524,
			"0.001": 18.7368828307,
			"0.002": 16.7722829443,
			"0.003": 14.5370014073,
			"0.004": 14.1892440648,
			"0.005": 15.0143905864,
			"0.006": 11.830791425,
			"0.007": 2.20017274124,
			"0.008": 1.88180628429,
			"0.009": 2.02678485485,
			"0.01": 2.06936348826,
			"0.011": 1.75256028701,
			"0.012": 1.68995622113,
			"0.013": 1.37040593951,
			"0.014": 1.69620026487,
			"0.015": 0.550588873294,
			"0.016": 0.0,
			"0.017": 0.0,
			"0.018": 0.0,
			"0.019": 0.0,
			"0.02": 0.0,
			"0.021": 0.0,
			"0.022": 0.0,
			"0.023": 0.0,
			"0.024": 0.0,
			"0.025": 0.0
		}
	}
}
