{
	 "smiles": "CN1CCN(CC1)C1=C(N)C=CC=C1", 
	 "Tm": 375.15, 
	 "num_atms": 31, 
	 "gaussian": { 
		 "optdone": 1, 
		 "sigma_profile": "yes", 
		 "theory": "DFT", 
		 "functional": "B3LYP", 
		 "basiset": "6-31G**", 
		 "properties": { 
			 "R2extent": 3430.438, 
			 "electric_dipole_moment_norm": 1.73616708873, 
			 "electric_quadrupole_moment_norm": 5.92678652813, 
			 "total_energy": -593.661962649, 
			 "HOMO_LUMO_gap": 0.20107, 
			 "cosmo_polarized_energy": -8.32, 
			 "cosmo_cavitation_energy": 31.31, 
			 "cosmo_dispersion_energy": -22.96, 
			 "cosmo_repulsion_energy": 1.79, 
			 "cosmo_total_nonelectrostatic_energy": 10.15, 
			 "SMD_solvation_energy": 1.91 
		},
		"coords": [
			{
				"x": 2.2042859533,
				"y": 3.4834280003,
				"z": -0.4080653249,
				"element": "C" 
			},
			{
				"x": 1.6449261483,
				"y": 2.1904533267,
				"z": -0.0482278558,
				"element": "N" 
			},
			{
				"x": 0.3367159266,
				"y": 2.3172184042,
				"z": 0.5890025829,
				"element": "C" 
			},
			{
				"x": -0.1923915564,
				"y": 0.9505131508,
				"z": 1.018253472,
				"element": "C" 
			},
			{
				"x": -0.2511157344,
				"y": 0.0436269563,
				"z": -0.14268478,
				"element": "N" 
			},
			{
				"x": 1.0697409563,
				"y": -0.0897232555,
				"z": -0.7558623829,
				"element": "C" 
			},
			{
				"x": 1.5730944066,
				"y": 1.2856095693,
				"z": -1.192651408,
				"element": "C" 
			},
			{
				"x": -0.9737595713,
				"y": -1.167568486,
				"z": 0.097031603,
				"element": "C" 
			},
			{
				"x": -2.3900989372,
				"y": -1.0921210986,
				"z": 0.0685171456,
				"element": "C" 
			},
			{
				"x": -2.9977355615,
				"y": 0.1471458753,
				"z": -0.1520638841,
				"element": "N" 
			},
			{
				"x": -3.1402574264,
				"y": -2.2536951486,
				"z": 0.2925871326,
				"element": "C" 
			},
			{
				"x": -2.5114985598,
				"y": -3.4775314819,
				"z": 0.5217682812,
				"element": "C" 
			},
			{
				"x": -1.1201315904,
				"y": -3.5603538932,
				"z": 0.5278690997,
				"element": "C" 
			},
			{
				"x": -0.3623756803,
				"y": -2.4039939629,
				"z": 0.3223428444,
				"element": "C" 
			},
			{
				"x": 2.2940219951,
				"y": 4.1096333102,
				"z": 0.485808783,
				"element": "H" 
			},
			{
				"x": 3.2060784595,
				"y": 3.3495509721,
				"z": -0.8296277206,
				"element": "H" 
			},
			{
				"x": 1.5937252081,
				"y": 4.0348241328,
				"z": -1.1497428968,
				"element": "H" 
			},
			{
				"x": -0.4019175747,
				"y": 2.7951685818,
				"z": -0.0870774313,
				"element": "H" 
			},
			{
				"x": 0.4359763814,
				"y": 2.960325829,
				"z": 1.4714384463,
				"element": "H" 
			},
			{
				"x": -1.198447631,
				"y": 1.0573191832,
				"z": 1.4317766325,
				"element": "H" 
			},
			{
				"x": 0.4615542042,
				"y": 0.5357365425,
				"z": 1.8044093859,
				"element": "H" 
			},
			{
				"x": 0.9902767599,
				"y": -0.7519357972,
				"z": -1.6235950896,
				"element": "H" 
			},
			{
				"x": 1.810404247,
				"y": -0.5234903363,
				"z": -0.0610322175,
				"element": "H" 
			},
			{
				"x": 2.5762783585,
				"y": 1.1845193433,
				"z": -1.6234372342,
				"element": "H" 
			},
			{
				"x": 0.9059602647,
				"y": 1.6778493164,
				"z": -1.9865069379,
				"element": "H" 
			},
			{
				"x": -2.4029448082,
				"y": 0.7616858336,
				"z": -0.6991277684,
				"element": "H" 
			},
			{
				"x": -3.9377436694,
				"y": 0.0888970066,
				"z": -0.5212842499,
				"element": "H" 
			},
			{
				"x": -4.2260520325,
				"y": -2.1931584433,
				"z": 0.2703259142,
				"element": "H" 
			},
			{
				"x": -3.1144386994,
				"y": -4.3665653125,
				"z": 0.6839239799,
				"element": "H" 
			},
			{
				"x": -0.6238694937,
				"y": -4.5108471652,
				"z": 0.6984419825,
				"element": "H" 
			},
			{
				"x": 0.7211392571,
				"y": -2.4661209533,
				"z": 0.3376898963,
				"element": "H" 
			}
		],
		 "valence_orbital": [ 
			{
				"type": "occ",
				"energy": -0.29787,
				"method": "rhf"
			},
			{
				"type": "occ",
				"energy": -0.25265,
				"method": "rhf"
			},
			{
				"type": "occ",
				"energy": -0.21553,
				"method": "rhf"
			},
			{
				"type": "occ",
				"energy": -0.2133,
				"method": "rhf"
			},
			{
				"type": "occ",
				"energy": -0.18775,
				"method": "rhf"
			},
			{
				"type": "unocc",
				"energy": 0.01332,
				"method": "rhf"
			},
			{
				"type": "unocc",
				"energy": 0.02534,
				"method": "rhf"
			},
			{
				"type": "unocc",
				"energy": 0.08207,
				"method": "rhf"
			},
			{
				"type": "unocc",
				"energy": 0.09845,
				"method": "rhf"
			},
			{
				"type": "unocc",
				"energy": 0.10493,
				"method": "rhf"
			}
		],
		"cosmo_sigma_profile": { 
			"-0.025": 0.0,
			"-0.024": 0.0,
			"-0.023": 0.0,
			"-0.022": 0.0,
			"-0.021": 0.0,
			"-0.02": 0.0,
			"-0.019": 0.0,
			"-0.018": 0.0,
			"-0.017": 0.0,
			"-0.016": 0.0,
			"-0.015": 0.0,
			"-0.014": 0.0,
			"-0.013": 0.00669005525527,
			"-0.012": 0.690961737229,
			"-0.011": 1.48882886635,
			"-0.01": 1.36790357459,
			"-0.009": 1.83103633465,
			"-0.008": 2.56159405414,
			"-0.007": 2.78363998792,
			"-0.006": 2.30832418984,
			"-0.005": 7.008613513,
			"-0.004": 18.4181780955,
			"-0.003": 27.0088094608,
			"-0.002": 31.7332457987,
			"-0.001": 37.5995409859,
			"0.0": 27.1909188742,
			"0.001": 13.166449925,
			"0.002": 8.98713019316,
			"0.003": 9.07975764827,
			"0.004": 9.33147896681,
			"0.005": 10.0760757931,
			"0.006": 9.55262278959,
			"0.007": 9.45602305187,
			"0.008": 4.85693884604,
			"0.009": 1.38497094534,
			"0.01": 1.53473815003,
			"0.011": 0.977589936601,
			"0.012": 1.10592825044,
			"0.013": 0.759972873407,
			"0.014": 0.48035647482,
			"0.015": 0.885566925172,
			"0.016": 0.421867635282,
			"0.017": 0.0,
			"0.018": 0.0,
			"0.019": 0.0,
			"0.02": 0.0,
			"0.021": 0.0,
			"0.022": 0.0,
			"0.023": 0.0,
			"0.024": 0.0,
			"0.025": 0.0
		}
	}
}
