{
	 "smiles": "OC(=O)C1=CC2=C(NCCC(=O)N2)C=C1", 
	 "Tm": 555.15, 
	 "num_atms": 25, 
	 "gaussian": { 
		 "optdone": 1, 
		 "sigma_profile": "yes", 
		 "theory": "DFT", 
		 "functional": "B3LYP", 
		 "basiset": "6-31G**", 
		 "properties": { 
			 "R2extent": 4098.295, 
			 "electric_dipole_moment_norm": 5.83373360808, 
			 "electric_quadrupole_moment_norm": 25.9949857551, 
			 "total_energy": -722.287663448, 
			 "HOMO_LUMO_gap": 0.16859, 
			 "cosmo_polarized_energy": -25.39, 
			 "cosmo_cavitation_energy": 28.76, 
			 "cosmo_dispersion_energy": -21.61, 
			 "cosmo_repulsion_energy": 1.67, 
			 "cosmo_total_nonelectrostatic_energy": 8.82, 
			 "SMD_solvation_energy": 5.53 
		},
		"coords": [
			{
				"x": 1.7007021269,
				"y": 0.8002086291,
				"z": -3.6881282429,
				"element": "O" 
			},
			{
				"x": 1.1041993057,
				"y": 1.8453438418,
				"z": -3.0450893391,
				"element": "C" 
			},
			{
				"x": 1.2255090052,
				"y": 2.9660183899,
				"z": -3.4839367581,
				"element": "O" 
			},
			{
				"x": 0.326089398,
				"y": 1.5244076811,
				"z": -1.8140199464,
				"element": "C" 
			},
			{
				"x": -0.1657247205,
				"y": 0.2491678856,
				"z": -1.5240177263,
				"element": "C" 
			},
			{
				"x": -0.9080694423,
				"y": -0.0386675215,
				"z": -0.3698160234,
				"element": "C" 
			},
			{
				"x": -1.1608754701,
				"y": 1.0114795545,
				"z": 0.5524702728,
				"element": "C" 
			},
			{
				"x": -1.8943484097,
				"y": 0.8754730342,
				"z": 1.7181774187,
				"element": "N" 
			},
			{
				"x": -2.1095202294,
				"y": -0.3726106001,
				"z": 2.4303821754,
				"element": "C" 
			},
			{
				"x": -2.9822069551,
				"y": -1.3482297863,
				"z": 1.6362469529,
				"element": "C" 
			},
			{
				"x": -2.2615325314,
				"y": -2.0701466328,
				"z": 0.5175927401,
				"element": "C" 
			},
			{
				"x": -2.46078889,
				"y": -3.2533404264,
				"z": 0.2777185034,
				"element": "O" 
			},
			{
				"x": -1.327580856,
				"y": -1.3834565439,
				"z": -0.2372766282,
				"element": "N" 
			},
			{
				"x": -0.6783437751,
				"y": 2.2997728184,
				"z": 0.2308857043,
				"element": "C" 
			},
			{
				"x": 0.0361567373,
				"y": 2.5647700561,
				"z": -0.921346444,
				"element": "C" 
			},
			{
				"x": 1.6900544284,
				"y": 0.0155432301,
				"z": -3.1233894957,
				"element": "H" 
			},
			{
				"x": -0.0234758789,
				"y": -0.5624379985,
				"z": -2.2351842035,
				"element": "H" 
			},
			{
				"x": -1.8627619495,
				"y": 1.6942936013,
				"z": 2.3073903968,
				"element": "H" 
			},
			{
				"x": -1.1647261171,
				"y": -0.8596643539,
				"z": 2.7169305607,
				"element": "H" 
			},
			{
				"x": -2.6276100737,
				"y": -0.1151385072,
				"z": 3.3579680979,
				"element": "H" 
			},
			{
				"x": -3.8398662328,
				"y": -0.8041405876,
				"z": 1.2236122195,
				"element": "H" 
			},
			{
				"x": -3.3700277861,
				"y": -2.1354133556,
				"z": 2.2869928461,
				"element": "H" 
			},
			{
				"x": -0.945716651,
				"y": -2.0064179254,
				"z": -0.9394407201,
				"element": "H" 
			},
			{
				"x": -0.8830709058,
				"y": 3.1061137299,
				"z": 0.9313816757,
				"element": "H" 
			},
			{
				"x": 0.3901358729,
				"y": 3.5643717871,
				"z": -1.1460040364,
				"element": "H" 
			}
		],
		 "valence_orbital": [ 
			{
				"type": "occ",
				"energy": -0.30536,
				"method": "rhf"
			},
			{
				"type": "occ",
				"energy": -0.2697,
				"method": "rhf"
			},
			{
				"type": "occ",
				"energy": -0.264,
				"method": "rhf"
			},
			{
				"type": "occ",
				"energy": -0.24948,
				"method": "rhf"
			},
			{
				"type": "occ",
				"energy": -0.21164,
				"method": "rhf"
			},
			{
				"type": "unocc",
				"energy": -0.04305,
				"method": "rhf"
			},
			{
				"type": "unocc",
				"energy": -0.02749,
				"method": "rhf"
			},
			{
				"type": "unocc",
				"energy": 0.0162,
				"method": "rhf"
			},
			{
				"type": "unocc",
				"energy": 0.05128,
				"method": "rhf"
			},
			{
				"type": "unocc",
				"energy": 0.0533,
				"method": "rhf"
			}
		],
		"cosmo_sigma_profile": { 
			"-0.025": 0.0,
			"-0.024": 0.0,
			"-0.023": 0.0,
			"-0.022": 0.0,
			"-0.021": 0.0,
			"-0.02": 0.0,
			"-0.019": 0.00162228509911,
			"-0.018": 0.552384060153,
			"-0.017": 1.31515310107,
			"-0.016": 0.691253170863,
			"-0.015": 1.83309774118,
			"-0.014": 3.12329546894,
			"-0.013": 3.44026022259,
			"-0.012": 4.48544710455,
			"-0.011": 3.77341236725,
			"-0.01": 3.28644664699,
			"-0.009": 3.67193169474,
			"-0.008": 2.90889026922,
			"-0.007": 5.79786286883,
			"-0.006": 11.9565867868,
			"-0.005": 14.9619220617,
			"-0.004": 15.7720259373,
			"-0.003": 14.7162589457,
			"-0.002": 12.3134061201,
			"-0.001": 9.91648694431,
			"0.0": 11.325252597,
			"0.001": 11.0366399412,
			"0.002": 11.3181029067,
			"0.003": 13.2139908344,
			"0.004": 12.1086871045,
			"0.005": 5.70743392442,
			"0.006": 3.49539831868,
			"0.007": 4.4851061396,
			"0.008": 3.79799281281,
			"0.009": 4.27316536336,
			"0.01": 4.95817459405,
			"0.011": 7.69435405887,
			"0.012": 7.81041181144,
			"0.013": 8.25422629934,
			"0.014": 4.05883913818,
			"0.015": 0.262409539079,
			"0.016": 0.0,
			"0.017": 0.0,
			"0.018": 0.0,
			"0.019": 0.0,
			"0.02": 0.0,
			"0.021": 0.0,
			"0.022": 0.0,
			"0.023": 0.0,
			"0.024": 0.0,
			"0.025": 0.0
		}
	}
}
