{
	 "smiles": "ClS(=O)(=O)C1=CSC(=N1)C1=CC=CC=C1", 
	 "Tm": 360.15, 
	 "num_atms": 21, 
	 "gaussian": { 
		 "optdone": 1, 
		 "sigma_profile": "yes", 
		 "theory": "DFT", 
		 "functional": "B3LYP", 
		 "basiset": "6-31G**", 
		 "properties": { 
			 "R2extent": 5850.4984, 
			 "electric_dipole_moment_norm": 6.39428376755, 
			 "electric_quadrupole_moment_norm": 19.3391598985, 
			 "total_energy": -1808.25985092, 
			 "HOMO_LUMO_gap": 0.16446, 
			 "cosmo_polarized_energy": -11.47, 
			 "cosmo_cavitation_energy": 31.27, 
			 "cosmo_dispersion_energy": -23.82, 
			 "cosmo_repulsion_energy": 1.78, 
			 "cosmo_total_nonelectrostatic_energy": 9.22, 
			 "SMD_solvation_energy": 2.65 
		},
		"coords": [
			{
				"x": 1.608379577,
				"y": -3.0882419776,
				"z": -3.0195473994,
				"element": "Cl" 
			},
			{
				"x": 1.6014505846,
				"y": -3.5983833176,
				"z": -0.9589970668,
				"element": "S" 
			},
			{
				"x": 2.9595349958,
				"y": -4.0079572177,
				"z": -0.6210833405,
				"element": "O" 
			},
			{
				"x": 0.4502350906,
				"y": -4.4613443704,
				"z": -0.7480746499,
				"element": "O" 
			},
			{
				"x": 1.3216215649,
				"y": -2.0028296448,
				"z": -0.2133147063,
				"element": "C" 
			},
			{
				"x": 2.2884831403,
				"y": -1.3618871076,
				"z": 0.5083657524,
				"element": "C" 
			},
			{
				"x": 1.6299746649,
				"y": 0.1173263618,
				"z": 1.102227187,
				"element": "S" 
			},
			{
				"x": 0.0888534365,
				"y": -0.26339093,
				"z": 0.2996248578,
				"element": "C" 
			},
			{
				"x": 0.1082784722,
				"y": -1.4056713019,
				"z": -0.3367198223,
				"element": "N" 
			},
			{
				"x": -1.075934886,
				"y": 0.6257017458,
				"z": 0.362952243,
				"element": "C" 
			},
			{
				"x": -1.0365026032,
				"y": 1.8553637693,
				"z": 1.0394975127,
				"element": "C" 
			},
			{
				"x": -2.1627936306,
				"y": 2.6734747663,
				"z": 1.0781491773,
				"element": "C" 
			},
			{
				"x": -3.3406702441,
				"y": 2.2747475218,
				"z": 0.4423802564,
				"element": "C" 
			},
			{
				"x": -3.3868429577,
				"y": 1.0521442613,
				"z": -0.2331430968,
				"element": "C" 
			},
			{
				"x": -2.2651578954,
				"y": 0.229886871,
				"z": -0.2751984883,
				"element": "C" 
			},
			{
				"x": 3.30045888,
				"y": -1.6813953809,
				"z": 0.7072065137,
				"element": "H" 
			},
			{
				"x": -0.1266851939,
				"y": 2.1802261118,
				"z": 1.5373435345,
				"element": "H" 
			},
			{
				"x": -2.1202318236,
				"y": 3.6222524465,
				"z": 1.6041231174,
				"element": "H" 
			},
			{
				"x": -4.2180830192,
				"y": 2.9137493906,
				"z": 0.4733991964,
				"element": "H" 
			},
			{
				"x": -4.3005100921,
				"y": 0.7378779345,
				"z": -0.7284986706,
				"element": "H" 
			},
			{
				"x": -2.288958061,
				"y": -0.7212499324,
				"z": -0.7950921075,
				"element": "H" 
			}
		],
		 "valence_orbital": [ 
			{
				"type": "occ",
				"energy": -0.3122,
				"method": "rhf"
			},
			{
				"type": "occ",
				"energy": -0.31178,
				"method": "rhf"
			},
			{
				"type": "occ",
				"energy": -0.3064,
				"method": "rhf"
			},
			{
				"type": "occ",
				"energy": -0.27378,
				"method": "rhf"
			},
			{
				"type": "occ",
				"energy": -0.25205,
				"method": "rhf"
			},
			{
				"type": "unocc",
				"energy": -0.08759,
				"method": "rhf"
			},
			{
				"type": "unocc",
				"energy": -0.07918,
				"method": "rhf"
			},
			{
				"type": "unocc",
				"energy": -0.0292,
				"method": "rhf"
			},
			{
				"type": "unocc",
				"energy": -0.02008,
				"method": "rhf"
			},
			{
				"type": "unocc",
				"energy": -0.01104,
				"method": "rhf"
			}
		],
		"cosmo_sigma_profile": { 
			"-0.025": 0.0,
			"-0.024": 0.0,
			"-0.023": 0.0,
			"-0.022": 0.0,
			"-0.021": 0.0,
			"-0.02": 0.0,
			"-0.019": 0.0,
			"-0.018": 0.0,
			"-0.017": 0.0,
			"-0.016": 0.0,
			"-0.015": 0.0,
			"-0.014": 0.0,
			"-0.013": 0.0577352141287,
			"-0.012": 1.07689894194,
			"-0.011": 1.61973197069,
			"-0.01": 1.64616979971,
			"-0.009": 1.51924668776,
			"-0.008": 2.82891977299,
			"-0.007": 5.56300917247,
			"-0.006": 13.6044516518,
			"-0.005": 15.3514593638,
			"-0.004": 16.7718771222,
			"-0.003": 17.9092629857,
			"-0.002": 21.3921278212,
			"-0.001": 19.119161606,
			"0.0": 18.4570039727,
			"0.001": 19.8368946681,
			"0.002": 20.8186810376,
			"0.003": 29.6955183584,
			"0.004": 15.2962856272,
			"0.005": 5.09017678933,
			"0.006": 5.12273226319,
			"0.007": 8.58013863018,
			"0.008": 12.6430740806,
			"0.009": 3.65627881328,
			"0.01": 0.0,
			"0.011": 0.0,
			"0.012": 0.0,
			"0.013": 0.0,
			"0.014": 0.0,
			"0.015": 0.0,
			"0.016": 0.0,
			"0.017": 0.0,
			"0.018": 0.0,
			"0.019": 0.0,
			"0.02": 0.0,
			"0.021": 0.0,
			"0.022": 0.0,
			"0.023": 0.0,
			"0.024": 0.0,
			"0.025": 0.0
		}
	}
}
