{
	 "smiles": "CC(Cl)C(=O)NC1=CC(Cl)=CC=C1", 
	 "Tm": 372.15, 
	 "num_atms": 22, 
	 "gaussian": { 
		 "optdone": 1, 
		 "sigma_profile": "yes", 
		 "theory": "DFT", 
		 "functional": "B3LYP", 
		 "basiset": "6-31G**", 
		 "properties": { 
			 "R2extent": 4804.7917, 
			 "electric_dipole_moment_norm": 2.69756720213, 
			 "electric_quadrupole_moment_norm": 13.912436489, 
			 "total_energy": -1398.75874422, 
			 "HOMO_LUMO_gap": 0.21462, 
			 "cosmo_polarized_energy": -12.45, 
			 "cosmo_cavitation_energy": 29.91, 
			 "cosmo_dispersion_energy": -21.01, 
			 "cosmo_repulsion_energy": 1.7, 
			 "cosmo_total_nonelectrostatic_energy": 10.6, 
			 "SMD_solvation_energy": 5.21 
		},
		"coords": [
			{
				"x": 1.7506983513,
				"y": 1.5926221402,
				"z": 2.209845217,
				"element": "C" 
			},
			{
				"x": 1.304308475,
				"y": 0.2993773313,
				"z": 1.5539125439,
				"element": "C" 
			},
			{
				"x": 2.7280617948,
				"y": -0.8475783876,
				"z": 1.3690541765,
				"element": "Cl" 
			},
			{
				"x": 0.7417200514,
				"y": 0.5386721886,
				"z": 0.1441882886,
				"element": "C" 
			},
			{
				"x": 1.0502815357,
				"y": 1.5248359701,
				"z": -0.5046581472,
				"element": "O" 
			},
			{
				"x": -0.1032284403,
				"y": -0.4158426688,
				"z": -0.3811438917,
				"element": "N" 
			},
			{
				"x": -0.5898152279,
				"y": -1.6234329892,
				"z": 0.1953042293,
				"element": "C" 
			},
			{
				"x": -1.4504758979,
				"y": -1.581007807,
				"z": 1.2993970749,
				"element": "C" 
			},
			{
				"x": -1.9305516255,
				"y": -2.775610026,
				"z": 1.8335558004,
				"element": "C" 
			},
			{
				"x": -2.9972550336,
				"y": -2.7173285697,
				"z": 3.2278183244,
				"element": "Cl" 
			},
			{
				"x": -1.6030292701,
				"y": -4.0082609919,
				"z": 1.2706158464,
				"element": "C" 
			},
			{
				"x": -0.7680011265,
				"y": -4.0338080079,
				"z": 0.1524611479,
				"element": "C" 
			},
			{
				"x": -0.253679539,
				"y": -2.8535645423,
				"z": -0.3816045991,
				"element": "C" 
			},
			{
				"x": 0.877939829,
				"y": 2.2346259156,
				"z": 2.3722297157,
				"element": "H" 
			},
			{
				"x": 2.2213859179,
				"y": 1.3896305704,
				"z": 3.1739246334,
				"element": "H" 
			},
			{
				"x": 2.4465119539,
				"y": 2.1264986519,
				"z": 1.5616562951,
				"element": "H" 
			},
			{
				"x": 0.6025490797,
				"y": -0.2485275381,
				"z": 2.1810126262,
				"element": "H" 
			},
			{
				"x": -0.2943097621,
				"y": -0.2571686219,
				"z": -1.3635328137,
				"element": "H" 
			},
			{
				"x": -1.7577506945,
				"y": -0.6295831721,
				"z": 1.7182448095,
				"element": "H" 
			},
			{
				"x": -1.9956962406,
				"y": -4.9238435671,
				"z": 1.6977701156,
				"element": "H" 
			},
			{
				"x": -0.5049268644,
				"y": -4.9871208875,
				"z": -0.2953090071,
				"element": "H" 
			},
			{
				"x": 0.4182627338,
				"y": -2.8765849911,
				"z": -1.2333423861,
				"element": "H" 
			}
		],
		 "valence_orbital": [ 
			{
				"type": "occ",
				"energy": -0.30287,
				"method": "rhf"
			},
			{
				"type": "occ",
				"energy": -0.29683,
				"method": "rhf"
			},
			{
				"type": "occ",
				"energy": -0.26766,
				"method": "rhf"
			},
			{
				"type": "occ",
				"energy": -0.2654,
				"method": "rhf"
			},
			{
				"type": "occ",
				"energy": -0.2527,
				"method": "rhf"
			},
			{
				"type": "unocc",
				"energy": -0.03808,
				"method": "rhf"
			},
			{
				"type": "unocc",
				"energy": -0.03131,
				"method": "rhf"
			},
			{
				"type": "unocc",
				"energy": -0.02038,
				"method": "rhf"
			},
			{
				"type": "unocc",
				"energy": 0.01704,
				"method": "rhf"
			},
			{
				"type": "unocc",
				"energy": 0.05666,
				"method": "rhf"
			}
		],
		"cosmo_sigma_profile": { 
			"-0.025": 0.0,
			"-0.024": 0.0,
			"-0.023": 0.0,
			"-0.022": 0.0,
			"-0.021": 0.0,
			"-0.02": 0.0,
			"-0.019": 0.0,
			"-0.018": 0.0,
			"-0.017": 0.0,
			"-0.016": 0.0,
			"-0.015": 0.635382739235,
			"-0.014": 1.04230931373,
			"-0.013": 0.988172746827,
			"-0.012": 1.30543268136,
			"-0.011": 0.840509964279,
			"-0.01": 1.46222888206,
			"-0.009": 2.70991628098,
			"-0.008": 5.07463037809,
			"-0.007": 11.0205229926,
			"-0.006": 12.0640661057,
			"-0.005": 13.5596553807,
			"-0.004": 12.5233107164,
			"-0.003": 12.8247287746,
			"-0.002": 12.664744885,
			"-0.001": 18.2781358304,
			"0.0": 17.3892220486,
			"0.001": 18.6956124099,
			"0.002": 21.6496948799,
			"0.003": 20.5611800964,
			"0.004": 19.6717368186,
			"0.005": 14.5343501443,
			"0.006": 7.5477909042,
			"0.007": 0.944044313533,
			"0.008": 1.59301123743,
			"0.009": 1.18009048223,
			"0.01": 1.74234111015,
			"0.011": 2.19190261799,
			"0.012": 4.20225986472,
			"0.013": 3.57164989647,
			"0.014": 0.0874845436634,
			"0.015": 0.0,
			"0.016": 0.0,
			"0.017": 0.0,
			"0.018": 0.0,
			"0.019": 0.0,
			"0.02": 0.0,
			"0.021": 0.0,
			"0.022": 0.0,
			"0.023": 0.0,
			"0.024": 0.0,
			"0.025": 0.0
		}
	}
}
