{
	 "smiles": "CC1=CC=C(I)C=C1", 
	 "Tm": 310.98, 
	 "num_atms": 15, 
	 "gaussian": { 
		 "optdone": 1, 
		 "sigma_profile": "no", 
		 "theory": "DFT", 
		 "functional": "B3LYP", 
		 "basiset": "6-31G**", 
		 "properties": { 
			 "R2extent": 1243.3309, 
			 "electric_dipole_moment_norm": 2.3196896301, 
			 "electric_quadrupole_moment_norm": 5.77909249104, 
			 "total_energy": -282.356235578, 
			 "HOMO_LUMO_gap": 0.19727, 
			 "cosmo_polarized_energy": -101920.92, 
			 "cosmo_cavitation_energy": 21.69, 
			 "cosmo_dispersion_energy": -17.56, 
			 "cosmo_repulsion_energy": 1.42, 
			 "cosmo_total_nonelectrostatic_energy": 5.55, 
			 "SMD_solvation_energy": 2.92 
		},
		"coords": [
			{
				"x": 1.3251950577,
				"y": 1.7936595696,
				"z": -0.0614485493,
				"element": "C" 
			},
			{
				"x": 0.3530355173,
				"y": 0.6700878377,
				"z": -0.3327981344,
				"element": "C" 
			},
			{
				"x": -0.1497185699,
				"y": 0.445984446,
				"z": -1.6208074401,
				"element": "C" 
			},
			{
				"x": -1.0259360679,
				"y": -0.6068544675,
				"z": -1.8887360018,
				"element": "C" 
			},
			{
				"x": -1.4108056714,
				"y": -1.4536090524,
				"z": -0.8487588038,
				"element": "C" 
			},
			{
				"x": -2.7472809201,
				"y": -3.0564927161,
				"z": -1.2380242972,
				"element": "I" 
			},
			{
				"x": -0.9300908567,
				"y": -1.2536333156,
				"z": 0.4456938016,
				"element": "C" 
			},
			{
				"x": -0.0548041849,
				"y": -0.1945135816,
				"z": 0.69096896,
				"element": "C" 
			},
			{
				"x": 1.2335229009,
				"y": 2.163221658,
				"z": 0.964158478,
				"element": "H" 
			},
			{
				"x": 1.163715241,
				"y": 2.635445574,
				"z": -0.7412781347,
				"element": "H" 
			},
			{
				"x": 2.361882378,
				"y": 1.4604837203,
				"z": -0.1961318536,
				"element": "H" 
			},
			{
				"x": 0.1443641473,
				"y": 1.1051477035,
				"z": -2.4339519174,
				"element": "H" 
			},
			{
				"x": -1.403426402,
				"y": -0.7585761828,
				"z": -2.8938526233,
				"element": "H" 
			},
			{
				"x": -1.2330626596,
				"y": -1.9081712851,
				"z": 1.2553696346,
				"element": "H" 
			},
			{
				"x": 0.3142100902,
				"y": -0.040779908,
				"z": 1.7020968812,
				"element": "H" 
			}
		],
		 "valence_orbital": [ 
			{
				"type": "occ",
				"energy": -0.33681,
				"method": "rhf"
			},
			{
				"type": "occ",
				"energy": -0.28748,
				"method": "rhf"
			},
			{
				"type": "occ",
				"energy": -0.26509,
				"method": "rhf"
			},
			{
				"type": "occ",
				"energy": -0.26092,
				"method": "rhf"
			},
			{
				"type": "occ",
				"energy": -0.23256,
				"method": "rhf"
			},
			{
				"type": "unocc",
				"energy": -0.03529,
				"method": "rhf"
			},
			{
				"type": "unocc",
				"energy": -0.01381,
				"method": "rhf"
			},
			{
				"type": "unocc",
				"energy": -0.01245,
				"method": "rhf"
			},
			{
				"type": "unocc",
				"energy": 0.04506,
				"method": "rhf"
			},
			{
				"type": "unocc",
				"energy": 0.05294,
				"method": "rhf"
			}
		],
		"cosmo_sigma_profile": { 
			"0.0": 0.0,
			"0.0": 0.0,
			"0.0": 0.0,
			"0.0": 0.0,
			"0.0": 0.0,
			"0.0": 0.0,
			"0.0": 0.0,
			"0.0": 0.0,
			"0.0": 0.0,
			"0.0": 0.0,
			"0.0": 0.0,
			"0.0": 0.0,
			"0.0": 0.0,
			"0.0": 0.0,
			"0.0": 0.0,
			"0.0": 0.0,
			"0.0": 0.0,
			"0.0": 0.0,
			"0.0": 0.0,
			"0.0": 0.0,
			"0.0": 0.0,
			"0.0": 0.0,
			"0.0": 0.0,
			"0.0": 0.0,
			"0.0": 0.0,
			"0.0": 0.0,
			"0.0": 0.0,
			"0.0": 0.0,
			"0.0": 0.0,
			"0.0": 0.0,
			"0.0": 0.0,
			"0.0": 0.0,
			"0.0": 0.0,
			"0.0": 0.0,
			"0.0": 0.0,
			"0.0": 0.0,
			"0.0": 0.0,
			"0.0": 0.0,
			"0.0": 0.0,
			"0.0": 0.0,
			"0.0": 0.0,
			"0.0": 0.0,
			"0.0": 0.0,
			"0.0": 0.0,
			"0.0": 0.0,
			"0.0": 0.0,
			"0.0": 0.0,
			"0.0": 0.0,
			"0.0": 0.0,
			"0.0": 0.0,
			"0.0": 0.0
		}
	}
}
