{
	 "smiles": "CC1=C(C=CC(N)=C1)N1CCCC1=O", 
	 "Tm": 433.15, 
	 "num_atms": 28, 
	 "gaussian": { 
		 "optdone": 1, 
		 "sigma_profile": "yes", 
		 "theory": "DFT", 
		 "functional": "B3LYP", 
		 "basiset": "6-31G**", 
		 "properties": { 
			 "R2extent": 3363.1376, 
			 "electric_dipole_moment_norm": 2.60438655733, 
			 "electric_quadrupole_moment_norm": 17.8061288325, 
			 "total_energy": -612.363031847, 
			 "HOMO_LUMO_gap": 0.1987, 
			 "cosmo_polarized_energy": -15.48, 
			 "cosmo_cavitation_energy": 30.16, 
			 "cosmo_dispersion_energy": -21.82, 
			 "cosmo_repulsion_energy": 1.73, 
			 "cosmo_total_nonelectrostatic_energy": 10.07, 
			 "SMD_solvation_energy": 5.47 
		},
		"coords": [
			{
				"x": 0.67436497,
				"y": 1.5077353214,
				"z": 2.0407287136,
				"element": "C" 
			},
			{
				"x": -0.7048836003,
				"y": 1.0262643348,
				"z": 1.6686281299,
				"element": "C" 
			},
			{
				"x": -0.9021109671,
				"y": 0.0280907698,
				"z": 0.6930045543,
				"element": "C" 
			},
			{
				"x": -2.2004758419,
				"y": -0.398144937,
				"z": 0.3938875972,
				"element": "C" 
			},
			{
				"x": -3.3072481488,
				"y": 0.1455465531,
				"z": 1.035367181,
				"element": "C" 
			},
			{
				"x": -3.1339230679,
				"y": 1.1532326655,
				"z": 1.9967924008,
				"element": "C" 
			},
			{
				"x": -4.2276770884,
				"y": 1.6803950612,
				"z": 2.6893373093,
				"element": "N" 
			},
			{
				"x": -1.82806558,
				"y": 1.5740482683,
				"z": 2.2930816454,
				"element": "C" 
			},
			{
				"x": 0.204614709,
				"y": -0.5797134774,
				"z": 0.024683556,
				"element": "N" 
			},
			{
				"x": 0.3806401489,
				"y": -2.0351269606,
				"z": -0.0199627917,
				"element": "C" 
			},
			{
				"x": 1.8025179077,
				"y": -2.2016285148,
				"z": -0.5904244764,
				"element": "C" 
			},
			{
				"x": 1.9868576678,
				"y": -0.9501407135,
				"z": -1.4599203389,
				"element": "C" 
			},
			{
				"x": 1.0584920538,
				"y": 0.0915894288,
				"z": -0.8307050543,
				"element": "C" 
			},
			{
				"x": 1.0565155502,
				"y": 1.291472069,
				"z": -1.0517896715,
				"element": "O" 
			},
			{
				"x": 1.3545511395,
				"y": 0.6653379858,
				"z": 2.207672309,
				"element": "H" 
			},
			{
				"x": 0.6455137003,
				"y": 2.1103377923,
				"z": 2.952418414,
				"element": "H" 
			},
			{
				"x": 1.1021769844,
				"y": 2.1062433121,
				"z": 1.2306904857,
				"element": "H" 
			},
			{
				"x": -2.3481430381,
				"y": -1.1616686861,
				"z": -0.3644289708,
				"element": "H" 
			},
			{
				"x": -4.3064011366,
				"y": -0.20412558,
				"z": 0.788439711,
				"element": "H" 
			},
			{
				"x": -5.1099895237,
				"y": 1.6178883493,
				"z": 2.1996820102,
				"element": "H" 
			},
			{
				"x": -4.0813219476,
				"y": 2.6042527508,
				"z": 3.072976856,
				"element": "H" 
			},
			{
				"x": -1.6821831267,
				"y": 2.3454350911,
				"z": 3.046379737,
				"element": "H" 
			},
			{
				"x": -0.3679036671,
				"y": -2.5065952751,
				"z": -0.6738368254,
				"element": "H" 
			},
			{
				"x": 0.2641259782,
				"y": -2.4636453501,
				"z": 0.9799946801,
				"element": "H" 
			},
			{
				"x": 1.920005076,
				"y": -3.1401620665,
				"z": -1.1379738546,
				"element": "H" 
			},
			{
				"x": 2.5281054688,
				"y": -2.1989039918,
				"z": 0.2294378331,
				"element": "H" 
			},
			{
				"x": 1.6546630053,
				"y": -1.1134357639,
				"z": -2.4929201707,
				"element": "H" 
			},
			{
				"x": 3.0102823743,
				"y": -0.5713784364,
				"z": -1.5041409695,
				"element": "H" 
			}
		],
		 "valence_orbital": [ 
			{
				"type": "occ",
				"energy": -0.30029,
				"method": "rhf"
			},
			{
				"type": "occ",
				"energy": -0.2455,
				"method": "rhf"
			},
			{
				"type": "occ",
				"energy": -0.23664,
				"method": "rhf"
			},
			{
				"type": "occ",
				"energy": -0.2362,
				"method": "rhf"
			},
			{
				"type": "occ",
				"energy": -0.19267,
				"method": "rhf"
			},
			{
				"type": "unocc",
				"energy": 0.00603,
				"method": "rhf"
			},
			{
				"type": "unocc",
				"energy": 0.01404,
				"method": "rhf"
			},
			{
				"type": "unocc",
				"energy": 0.04057,
				"method": "rhf"
			},
			{
				"type": "unocc",
				"energy": 0.08153,
				"method": "rhf"
			},
			{
				"type": "unocc",
				"energy": 0.08412,
				"method": "rhf"
			}
		],
		"cosmo_sigma_profile": { 
			"-0.025": 0.0,
			"-0.024": 0.0,
			"-0.023": 0.0,
			"-0.022": 0.0,
			"-0.021": 0.0,
			"-0.02": 0.0,
			"-0.019": 0.0,
			"-0.018": 0.0,
			"-0.017": 0.0,
			"-0.016": 0.0,
			"-0.015": 0.0,
			"-0.014": 0.0,
			"-0.013": 0.201874730968,
			"-0.012": 1.9207582671,
			"-0.011": 3.23533186012,
			"-0.01": 2.5949109194,
			"-0.009": 3.02741396156,
			"-0.008": 3.02328852464,
			"-0.007": 3.06976716052,
			"-0.006": 6.55615586414,
			"-0.005": 15.2135075955,
			"-0.004": 25.1962940723,
			"-0.003": 27.7183706004,
			"-0.002": 21.113299185,
			"-0.001": 21.0714178763,
			"0.0": 16.6583408419,
			"0.001": 13.057151105,
			"0.002": 9.22993747228,
			"0.003": 6.68115296012,
			"0.004": 6.98276718316,
			"0.005": 8.16207889711,
			"0.006": 11.3938221244,
			"0.007": 6.49120997095,
			"0.008": 3.11611676265,
			"0.009": 2.12376189006,
			"0.01": 2.13870856671,
			"0.011": 3.515803346,
			"0.012": 2.58981249971,
			"0.013": 3.56119621903,
			"0.014": 5.13554565688,
			"0.015": 2.15451619345,
			"0.016": 0.0658583946709,
			"0.017": 0.0,
			"0.018": 0.0,
			"0.019": 0.0,
			"0.02": 0.0,
			"0.021": 0.0,
			"0.022": 0.0,
			"0.023": 0.0,
			"0.024": 0.0,
			"0.025": 0.0
		}
	}
}
