{
	 "smiles": "CC(=O)NC(C1CCCC1)C(O)=O", 
	 "Tm": 446.15, 
	 "num_atms": 28, 
	 "gaussian": { 
		 "optdone": 1, 
		 "sigma_profile": "yes", 
		 "theory": "DFT", 
		 "functional": "B3LYP", 
		 "basiset": "6-31G**", 
		 "properties": { 
			 "R2extent": 3425.0766, 
			 "electric_dipole_moment_norm": 4.84491516747, 
			 "electric_quadrupole_moment_norm": 21.1790536514, 
			 "total_energy": -632.456940258, 
			 "HOMO_LUMO_gap": 0.26082, 
			 "cosmo_polarized_energy": -19.07, 
			 "cosmo_cavitation_energy": 29.96, 
			 "cosmo_dispersion_energy": -21.02, 
			 "cosmo_repulsion_energy": 1.69, 
			 "cosmo_total_nonelectrostatic_energy": 10.64, 
			 "SMD_solvation_energy": 6.66 
		},
		"coords": [
			{
				"x": -2.7334612054,
				"y": 1.1354408709,
				"z": 3.7208891718,
				"element": "C" 
			},
			{
				"x": -1.6735927704,
				"y": 0.3821945594,
				"z": 2.9362295754,
				"element": "C" 
			},
			{
				"x": -1.7531395846,
				"y": -0.8109722174,
				"z": 2.6945804369,
				"element": "O" 
			},
			{
				"x": -0.5932365381,
				"y": 1.1516913556,
				"z": 2.5223118742,
				"element": "N" 
			},
			{
				"x": 0.3555070875,
				"y": 0.6503902691,
				"z": 1.5203115457,
				"element": "C" 
			},
			{
				"x": 0.1262933329,
				"y": 1.2192945072,
				"z": 0.1087329686,
				"element": "C" 
			},
			{
				"x": -1.3450603266,
				"y": 1.1585105177,
				"z": -0.3573584517,
				"element": "C" 
			},
			{
				"x": -1.2377436932,
				"y": 1.2869220281,
				"z": -1.883201638,
				"element": "C" 
			},
			{
				"x": -0.0337341132,
				"y": 0.3907481378,
				"z": -2.2357140833,
				"element": "C" 
			},
			{
				"x": 0.9159848049,
				"y": 0.4677683689,
				"z": -1.0064726286,
				"element": "C" 
			},
			{
				"x": 1.8004816062,
				"y": 0.8665127038,
				"z": 2.0139974515,
				"element": "C" 
			},
			{
				"x": 1.9498955272,
				"y": 0.8515412291,
				"z": 3.3560405248,
				"element": "O" 
			},
			{
				"x": 2.7471582377,
				"y": 1.0126815144,
				"z": 1.2797656946,
				"element": "O" 
			},
			{
				"x": -2.3453965423,
				"y": 2.0296372734,
				"z": 4.2168863364,
				"element": "H" 
			},
			{
				"x": -3.5345877008,
				"y": 1.438944153,
				"z": 3.0380082678,
				"element": "H" 
			},
			{
				"x": -3.1654464991,
				"y": 0.46258165,
				"z": 4.4629309058,
				"element": "H" 
			},
			{
				"x": -0.704549154,
				"y": 2.156942014,
				"z": 2.5751397359,
				"element": "H" 
			},
			{
				"x": 0.1850635364,
				"y": -0.4340762226,
				"z": 1.5002144661,
				"element": "H" 
			},
			{
				"x": 0.4452152216,
				"y": 2.2712637524,
				"z": 0.1100450006,
				"element": "H" 
			},
			{
				"x": -1.7813177326,
				"y": 0.187146402,
				"z": -0.0904913539,
				"element": "H" 
			},
			{
				"x": -1.9715404963,
				"y": 1.9347927536,
				"z": 0.095478668,
				"element": "H" 
			},
			{
				"x": -2.1561368896,
				"y": 0.9981265899,
				"z": -2.4038650822,
				"element": "H" 
			},
			{
				"x": -1.0265823563,
				"y": 2.330371398,
				"z": -2.1506434823,
				"element": "H" 
			},
			{
				"x": 0.4586944576,
				"y": 0.6983310874,
				"z": -3.163138339,
				"element": "H" 
			},
			{
				"x": -0.3738130416,
				"y": -0.640134887,
				"z": -2.3853284419,
				"element": "H" 
			},
			{
				"x": 1.1975302908,
				"y": -0.5351877842,
				"z": -0.6689375658,
				"element": "H" 
			},
			{
				"x": 1.8507634203,
				"y": 0.9844034327,
				"z": -1.2264322025,
				"element": "H" 
			},
			{
				"x": 1.0613511206,
				"y": 0.7883345428,
				"z": 3.7481206451,
				"element": "H" 
			}
		],
		 "valence_orbital": [ 
			{
				"type": "occ",
				"energy": -0.3173,
				"method": "rhf"
			},
			{
				"type": "occ",
				"energy": -0.31318,
				"method": "rhf"
			},
			{
				"type": "occ",
				"energy": -0.29129,
				"method": "rhf"
			},
			{
				"type": "occ",
				"energy": -0.27253,
				"method": "rhf"
			},
			{
				"type": "occ",
				"energy": -0.26007,
				"method": "rhf"
			},
			{
				"type": "unocc",
				"energy": 0.00075,
				"method": "rhf"
			},
			{
				"type": "unocc",
				"energy": 0.00686,
				"method": "rhf"
			},
			{
				"type": "unocc",
				"energy": 0.05,
				"method": "rhf"
			},
			{
				"type": "unocc",
				"energy": 0.08379,
				"method": "rhf"
			},
			{
				"type": "unocc",
				"energy": 0.09089,
				"method": "rhf"
			}
		],
		"cosmo_sigma_profile": { 
			"-0.025": 0.0,
			"-0.024": 0.0,
			"-0.023": 0.0,
			"-0.022": 0.0,
			"-0.021": 0.0,
			"-0.02": 0.0,
			"-0.019": 0.0,
			"-0.018": 0.0,
			"-0.017": 0.0,
			"-0.016": 0.0,
			"-0.015": 0.575037947653,
			"-0.014": 2.1861144952,
			"-0.013": 2.35939863015,
			"-0.012": 2.20254774821,
			"-0.011": 2.91524004016,
			"-0.01": 3.69787114993,
			"-0.009": 2.67415842233,
			"-0.008": 3.49328592724,
			"-0.007": 5.11789854931,
			"-0.006": 8.70854350762,
			"-0.005": 9.66444571304,
			"-0.004": 12.2877878236,
			"-0.003": 16.0952408104,
			"-0.002": 28.3481347071,
			"-0.001": 27.090922928,
			"0.0": 21.2448126637,
			"0.001": 17.1749365349,
			"0.002": 10.9886816445,
			"0.003": 3.46754395584,
			"0.004": 3.92718492169,
			"0.005": 3.8715521757,
			"0.006": 4.2721006162,
			"0.007": 4.03075235704,
			"0.008": 3.56025379645,
			"0.009": 5.48792102303,
			"0.01": 6.59157558664,
			"0.011": 6.34780732186,
			"0.012": 6.36381959693,
			"0.013": 6.16829691414,
			"0.014": 1.81743491639,
			"0.015": 0.0553576969308,
			"0.016": 0.0,
			"0.017": 0.0,
			"0.018": 0.0,
			"0.019": 0.0,
			"0.02": 0.0,
			"0.021": 0.0,
			"0.022": 0.0,
			"0.023": 0.0,
			"0.024": 0.0,
			"0.025": 0.0
		}
	}
}
