{
	 "smiles": "CC1=NC(NC(=O)C2CCCNC2)=CC=C1", 
	 "Tm": 398.15, 
	 "num_atms": 33, 
	 "gaussian": { 
		 "optdone": 1, 
		 "sigma_profile": "yes", 
		 "theory": "DFT", 
		 "functional": "B3LYP", 
		 "basiset": "6-31G**", 
		 "properties": { 
			 "R2extent": 4109.2452, 
			 "electric_dipole_moment_norm": 3.43873134455, 
			 "electric_quadrupole_moment_norm": 14.8428143322, 
			 "total_energy": -707.011933323, 
			 "HOMO_LUMO_gap": 0.1869, 
			 "cosmo_polarized_energy": -12.99, 
			 "cosmo_cavitation_energy": 33.86, 
			 "cosmo_dispersion_energy": -24.01, 
			 "cosmo_repulsion_energy": 1.87, 
			 "cosmo_total_nonelectrostatic_energy": 11.73, 
			 "SMD_solvation_energy": 5.21 
		},
		"coords": [
			{
				"x": 1.7910163381,
				"y": -1.7572952066,
				"z": -1.7398771864,
				"element": "C" 
			},
			{
				"x": 2.1850613266,
				"y": -0.3014405027,
				"z": -1.7661411032,
				"element": "C" 
			},
			{
				"x": 1.4377180941,
				"y": 0.521252872,
				"z": -1.0112585295,
				"element": "N" 
			},
			{
				"x": 1.7149598559,
				"y": 1.8231908796,
				"z": -0.9905043942,
				"element": "C" 
			},
			{
				"x": 0.9466317565,
				"y": 2.6744005488,
				"z": -0.1891767671,
				"element": "N" 
			},
			{
				"x": -0.1045034238,
				"y": 2.5434906633,
				"z": 0.7278043826,
				"element": "C" 
			},
			{
				"x": -0.544236734,
				"y": 3.5893387843,
				"z": 1.1905273609,
				"element": "O" 
			},
			{
				"x": -0.7040217157,
				"y": 1.2068920793,
				"z": 1.1582074745,
				"element": "C" 
			},
			{
				"x": -1.5430154641,
				"y": 0.5109097801,
				"z": 0.0641848199,
				"element": "C" 
			},
			{
				"x": -2.3482924865,
				"y": -0.6522533772,
				"z": 0.6851908016,
				"element": "C" 
			},
			{
				"x": -1.5577567056,
				"y": -1.3446379373,
				"z": 1.8203978762,
				"element": "C" 
			},
			{
				"x": -0.1243458199,
				"y": -1.1662761817,
				"z": 1.5830182465,
				"element": "N" 
			},
			{
				"x": 0.299309123,
				"y": 0.2194854374,
				"z": 1.8218367439,
				"element": "C" 
			},
			{
				"x": 2.761023493,
				"y": 2.3896384009,
				"z": -1.7450237764,
				"element": "C" 
			},
			{
				"x": 3.5279585607,
				"y": 1.5379081581,
				"z": -2.5276044169,
				"element": "C" 
			},
			{
				"x": 3.2480223389,
				"y": 0.1696713485,
				"z": -2.5423197807,
				"element": "C" 
			},
			{
				"x": 2.6627503808,
				"y": -2.4119666235,
				"z": -1.8338379792,
				"element": "H" 
			},
			{
				"x": 1.1174957107,
				"y": -1.9866204136,
				"z": -2.5754379332,
				"element": "H" 
			},
			{
				"x": 1.256708213,
				"y": -1.9742700368,
				"z": -0.8115892484,
				"element": "H" 
			},
			{
				"x": 1.1696843038,
				"y": 3.658396003,
				"z": -0.2803727501,
				"element": "H" 
			},
			{
				"x": -1.4077960676,
				"y": 1.5362687863,
				"z": 1.928991684,
				"element": "H" 
			},
			{
				"x": -0.8739248087,
				"y": 0.1367420367,
				"z": -0.7094780171,
				"element": "H" 
			},
			{
				"x": -2.2244633564,
				"y": 1.2357117562,
				"z": -0.3953108397,
				"element": "H" 
			},
			{
				"x": -3.3035073484,
				"y": -0.2887242007,
				"z": 1.0825596093,
				"element": "H" 
			},
			{
				"x": -2.5866473444,
				"y": -1.3761671503,
				"z": -0.1015347267,
				"element": "H" 
			},
			{
				"x": -1.7795088345,
				"y": -2.4165211873,
				"z": 1.8430729665,
				"element": "H" 
			},
			{
				"x": -1.8738680241,
				"y": -0.9363078399,
				"z": 2.7997494783,
				"element": "H" 
			},
			{
				"x": 0.4128001948,
				"y": -1.7877080981,
				"z": 2.1804110883,
				"element": "H" 
			},
			{
				"x": 0.346234044,
				"y": 0.4652782535,
				"z": 2.8984150574,
				"element": "H" 
			},
			{
				"x": 1.3014803407,
				"y": 0.3404860325,
				"z": 1.4075172481,
				"element": "H" 
			},
			{
				"x": 2.9641265049,
				"y": 3.4555692717,
				"z": -1.7061234263,
				"element": "H" 
			},
			{
				"x": 4.3462625232,
				"y": 1.9376486582,
				"z": -3.1199198496,
				"element": "H" 
			},
			{
				"x": 3.8378450312,
				"y": -0.5162909946,
				"z": -3.1413741133,
				"element": "H" 
			}
		],
		 "valence_orbital": [ 
			{
				"type": "occ",
				"energy": -0.28066,
				"method": "rhf"
			},
			{
				"type": "occ",
				"energy": -0.25936,
				"method": "rhf"
			},
			{
				"type": "occ",
				"energy": -0.24483,
				"method": "rhf"
			},
			{
				"type": "occ",
				"energy": -0.22422,
				"method": "rhf"
			},
			{
				"type": "occ",
				"energy": -0.21295,
				"method": "rhf"
			},
			{
				"type": "unocc",
				"energy": -0.02605,
				"method": "rhf"
			},
			{
				"type": "unocc",
				"energy": -0.01481,
				"method": "rhf"
			},
			{
				"type": "unocc",
				"energy": 0.03709,
				"method": "rhf"
			},
			{
				"type": "unocc",
				"energy": 0.07653,
				"method": "rhf"
			},
			{
				"type": "unocc",
				"energy": 0.08682,
				"method": "rhf"
			}
		],
		"cosmo_sigma_profile": { 
			"-0.025": 0.0,
			"-0.024": 0.0,
			"-0.023": 0.0,
			"-0.022": 0.0,
			"-0.021": 0.0,
			"-0.02": 0.0,
			"-0.019": 0.0,
			"-0.018": 0.0,
			"-0.017": 0.0,
			"-0.016": 0.0,
			"-0.015": 0.0199160533754,
			"-0.014": 0.753572595179,
			"-0.013": 1.2305265436,
			"-0.012": 1.25626552967,
			"-0.011": 1.0387092681,
			"-0.01": 1.82507354153,
			"-0.009": 2.13863907595,
			"-0.008": 3.41302873425,
			"-0.007": 5.09359374777,
			"-0.006": 6.60540372949,
			"-0.005": 10.8488412753,
			"-0.004": 13.5368094387,
			"-0.003": 19.8316445722,
			"-0.002": 34.2478611172,
			"-0.001": 35.3101788957,
			"0.0": 27.6062346907,
			"0.001": 26.5726653822,
			"0.002": 17.4573498991,
			"0.003": 14.148549688,
			"0.004": 10.6987609551,
			"0.005": 2.9047525038,
			"0.006": 2.97751139623,
			"0.007": 3.28805323417,
			"0.008": 2.58011698064,
			"0.009": 2.03875308973,
			"0.01": 2.69610666216,
			"0.011": 2.4611041998,
			"0.012": 3.30354046979,
			"0.013": 5.68528487762,
			"0.014": 2.73467596041,
			"0.015": 0.493136905982,
			"0.016": 0.186819373963,
			"0.017": 0.325429598791,
			"0.018": 0.0204274897966,
			"0.019": 0.0,
			"0.02": 0.0,
			"0.021": 0.0,
			"0.022": 0.0,
			"0.023": 0.0,
			"0.024": 0.0,
			"0.025": 0.0
		}
	}
}
