{
	 "smiles": "CC(NC(=O)OCC1=CC=CC=C1)C(O)=O", 
	 "Tm": 385.15, 
	 "num_atms": 29, 
	 "gaussian": { 
		 "optdone": 1, 
		 "sigma_profile": "yes", 
		 "theory": "DFT", 
		 "functional": "B3LYP", 
		 "basiset": "6-31G**", 
		 "properties": { 
			 "R2extent": 4557.5065, 
			 "electric_dipole_moment_norm": 3.24063521088, 
			 "electric_quadrupole_moment_norm": 11.3067813391, 
			 "total_energy": -782.688107394, 
			 "HOMO_LUMO_gap": 0.23701, 
			 "cosmo_polarized_energy": -17.09, 
			 "cosmo_cavitation_energy": 33.41, 
			 "cosmo_dispersion_energy": -23.17, 
			 "cosmo_repulsion_energy": 1.85, 
			 "cosmo_total_nonelectrostatic_energy": 12.09, 
			 "SMD_solvation_energy": 7.34 
		},
		"coords": [
			{
				"x": -1.6314338194,
				"y": -0.8731549348,
				"z": -2.8237100691,
				"element": "C" 
			},
			{
				"x": -1.4821209476,
				"y": -2.2127915715,
				"z": -2.0835052021,
				"element": "C" 
			},
			{
				"x": -1.7643386244,
				"y": -2.1250269828,
				"z": -0.6589379158,
				"element": "N" 
			},
			{
				"x": -0.9598929348,
				"y": -1.538413244,
				"z": 0.288168906,
				"element": "C" 
			},
			{
				"x": -1.1076889647,
				"y": -1.7041129978,
				"z": 1.4861467788,
				"element": "O" 
			},
			{
				"x": -0.0251150821,
				"y": -0.7376701433,
				"z": -0.2790630479,
				"element": "O" 
			},
			{
				"x": 0.8843997086,
				"y": -0.0691391452,
				"z": 0.6355691856,
				"element": "C" 
			},
			{
				"x": 0.4179717118,
				"y": 1.3260137168,
				"z": 0.9711669086,
				"element": "C" 
			},
			{
				"x": 0.9576654771,
				"y": 2.4336673769,
				"z": 0.3067407171,
				"element": "C" 
			},
			{
				"x": 0.5262335609,
				"y": 3.7260995493,
				"z": 0.6106476717,
				"element": "C" 
			},
			{
				"x": -0.4547060161,
				"y": 3.9214715254,
				"z": 1.5839488289,
				"element": "C" 
			},
			{
				"x": -0.9999300386,
				"y": 2.8215434204,
				"z": 2.251533323,
				"element": "C" 
			},
			{
				"x": -0.5662076073,
				"y": 1.5310618104,
				"z": 1.9495573047,
				"element": "C" 
			},
			{
				"x": -0.1406092208,
				"y": -2.9145396476,
				"z": -2.3463473041,
				"element": "C" 
			},
			{
				"x": 0.2001448769,
				"y": -2.8546879254,
				"z": -3.6558168589,
				"element": "O" 
			},
			{
				"x": 0.5217695588,
				"y": -3.4994725528,
				"z": -1.522448777,
				"element": "O" 
			},
			{
				"x": -1.5113539462,
				"y": -1.0206621149,
				"z": -3.8986566394,
				"element": "H" 
			},
			{
				"x": -0.8899284915,
				"y": -0.1527756991,
				"z": -2.4777692399,
				"element": "H" 
			},
			{
				"x": -2.6273377734,
				"y": -0.4672991363,
				"z": -2.6290002291,
				"element": "H" 
			},
			{
				"x": -2.2373586912,
				"y": -2.8959551705,
				"z": -2.4934851455,
				"element": "H" 
			},
			{
				"x": -2.3359130333,
				"y": -2.8517571337,
				"z": -0.2547843924,
				"element": "H" 
			},
			{
				"x": 0.9789816119,
				"y": -0.685070488,
				"z": 1.5312856368,
				"element": "H" 
			},
			{
				"x": 1.8377012836,
				"y": -0.0454218471,
				"z": 0.1032819603,
				"element": "H" 
			},
			{
				"x": 1.723659237,
				"y": 2.2831278097,
				"z": -0.4505183686,
				"element": "H" 
			},
			{
				"x": 0.9559628604,
				"y": 4.5773433299,
				"z": 0.0901195019,
				"element": "H" 
			},
			{
				"x": -0.7912545528,
				"y": 4.9262180908,
				"z": 1.8238411089,
				"element": "H" 
			},
			{
				"x": -1.7613335739,
				"y": 2.9703353715,
				"z": 3.0120910693,
				"element": "H" 
			},
			{
				"x": -0.9884537127,
				"y": 0.670681446,
				"z": 2.4597160113,
				"element": "H" 
			},
			{
				"x": 1.0312871437,
				"y": -3.3518127123,
				"z": -3.7402717231,
				"element": "H" 
			}
		],
		 "valence_orbital": [ 
			{
				"type": "occ",
				"energy": -0.28295,
				"method": "rhf"
			},
			{
				"type": "occ",
				"energy": -0.27183,
				"method": "rhf"
			},
			{
				"type": "occ",
				"energy": -0.25964,
				"method": "rhf"
			},
			{
				"type": "occ",
				"energy": -0.24842,
				"method": "rhf"
			},
			{
				"type": "occ",
				"energy": -0.24512,
				"method": "rhf"
			},
			{
				"type": "unocc",
				"energy": -0.00811,
				"method": "rhf"
			},
			{
				"type": "unocc",
				"energy": 0.00064,
				"method": "rhf"
			},
			{
				"type": "unocc",
				"energy": 0.00261,
				"method": "rhf"
			},
			{
				"type": "unocc",
				"energy": 0.0495,
				"method": "rhf"
			},
			{
				"type": "unocc",
				"energy": 0.07188,
				"method": "rhf"
			}
		],
		"cosmo_sigma_profile": { 
			"-0.025": 0.0,
			"-0.024": 0.0,
			"-0.023": 0.0,
			"-0.022": 0.0,
			"-0.021": 0.0,
			"-0.02": 0.0,
			"-0.019": 0.0670261533345,
			"-0.018": 1.13353118586,
			"-0.017": 0.658616762292,
			"-0.016": 0.729264606903,
			"-0.015": 1.18308386959,
			"-0.014": 2.22590141122,
			"-0.013": 1.81995267377,
			"-0.012": 1.96590393956,
			"-0.011": 2.30217300298,
			"-0.01": 1.41985553022,
			"-0.009": 3.43937534791,
			"-0.008": 3.66254194436,
			"-0.007": 4.87367969082,
			"-0.006": 11.6129129509,
			"-0.005": 14.633169249,
			"-0.004": 19.2871330782,
			"-0.003": 20.5382254447,
			"-0.002": 17.383166591,
			"-0.001": 17.3694655629,
			"0.0": 17.6882483533,
			"0.001": 15.3071846897,
			"0.002": 16.662151019,
			"0.003": 15.8198054314,
			"0.004": 14.9724246436,
			"0.005": 16.5928949173,
			"0.006": 10.2563635832,
			"0.007": 5.73139499447,
			"0.008": 3.77829107939,
			"0.009": 3.36521100733,
			"0.01": 3.19399318023,
			"0.011": 5.83624444921,
			"0.012": 4.75851425548,
			"0.013": 3.58693566326,
			"0.014": 0.549049584614,
			"0.015": 0.0,
			"0.016": 0.0,
			"0.017": 0.0,
			"0.018": 0.0,
			"0.019": 0.0,
			"0.02": 0.0,
			"0.021": 0.0,
			"0.022": 0.0,
			"0.023": 0.0,
			"0.024": 0.0,
			"0.025": 0.0
		}
	}
}
