{
	 "smiles": "ClC1=CC=CC(C2=CNC=C2C#N)=C1Cl", 
	 "Tm": 423.1, 
	 "num_atms": 21, 
	 "gaussian": { 
		 "optdone": 1, 
		 "sigma_profile": "yes", 
		 "theory": "DFT", 
		 "functional": "B3LYP", 
		 "basiset": "6-31G**", 
		 "properties": { 
			 "R2extent": 4460.5494, 
			 "electric_dipole_moment_norm": 5.34844168801, 
			 "electric_quadrupole_moment_norm": 27.4387617017, 
			 "total_energy": -1452.64782419, 
			 "HOMO_LUMO_gap": 0.19625, 
			 "cosmo_polarized_energy": -16.56, 
			 "cosmo_cavitation_energy": 30.01, 
			 "cosmo_dispersion_energy": -21.52, 
			 "cosmo_repulsion_energy": 1.69, 
			 "cosmo_total_nonelectrostatic_energy": 10.18, 
			 "SMD_solvation_energy": 6.1 
		},
		"coords": [
			{
				"x": -3.6814133307,
				"y": 1.5852694277,
				"z": -0.8172497576,
				"element": "Cl" 
			},
			{
				"x": -2.4283242745,
				"y": 1.0350681006,
				"z": 0.2729302652,
				"element": "C" 
			},
			{
				"x": -2.387889848,
				"y": 1.5853409924,
				"z": 1.5538821864,
				"element": "C" 
			},
			{
				"x": -1.4092235107,
				"y": 1.1643927293,
				"z": 2.4485288412,
				"element": "C" 
			},
			{
				"x": -0.4747899147,
				"y": 0.2097629872,
				"z": 2.0626385604,
				"element": "C" 
			},
			{
				"x": -0.4901019794,
				"y": -0.3627712973,
				"z": 0.7787771175,
				"element": "C" 
			},
			{
				"x": 0.5313634413,
				"y": -1.3750738019,
				"z": 0.446015543,
				"element": "C" 
			},
			{
				"x": 1.2862061842,
				"y": -1.4781809324,
				"z": -0.705288541,
				"element": "C" 
			},
			{
				"x": 2.1565228028,
				"y": -2.5313794602,
				"z": -0.5653324869,
				"element": "N" 
			},
			{
				"x": 1.989978349,
				"y": -3.1273330904,
				"z": 0.6494865811,
				"element": "C" 
			},
			{
				"x": 0.9902900087,
				"y": -2.4367254118,
				"z": 1.3154637043,
				"element": "C" 
			},
			{
				"x": 0.5132805273,
				"y": -2.7676523781,
				"z": 2.6117526863,
				"element": "C" 
			},
			{
				"x": 0.1334929444,
				"y": -3.0397752531,
				"z": 3.6784114477,
				"element": "N" 
			},
			{
				"x": -1.4936095322,
				"y": 0.0645301451,
				"z": -0.1198094658,
				"element": "C" 
			},
			{
				"x": -1.6141075417,
				"y": -0.6292940667,
				"z": -1.7236159713,
				"element": "Cl" 
			},
			{
				"x": -3.1222639262,
				"y": 2.3324097897,
				"z": 1.8323594184,
				"element": "H" 
			},
			{
				"x": -1.3720062244,
				"y": 1.5871889246,
				"z": 3.4472699531,
				"element": "H" 
			},
			{
				"x": 0.2926506833,
				"y": -0.101905308,
				"z": 2.7616504346,
				"element": "H" 
			},
			{
				"x": 1.276265504,
				"y": -0.8779470818,
				"z": -1.6003853961,
				"element": "H" 
			},
			{
				"x": 2.8184718178,
				"y": -2.8261743953,
				"z": -1.265940604,
				"element": "H" 
			},
			{
				"x": 2.5656078195,
				"y": -3.9863506196,
				"z": 0.9569554833,
				"element": "H" 
			}
		],
		 "valence_orbital": [ 
			{
				"type": "occ",
				"energy": -0.30759,
				"method": "rhf"
			},
			{
				"type": "occ",
				"energy": -0.2866,
				"method": "rhf"
			},
			{
				"type": "occ",
				"energy": -0.25105,
				"method": "rhf"
			},
			{
				"type": "occ",
				"energy": -0.24971,
				"method": "rhf"
			},
			{
				"type": "occ",
				"energy": -0.23348,
				"method": "rhf"
			},
			{
				"type": "unocc",
				"energy": -0.03723,
				"method": "rhf"
			},
			{
				"type": "unocc",
				"energy": -0.02296,
				"method": "rhf"
			},
			{
				"type": "unocc",
				"energy": -0.01379,
				"method": "rhf"
			},
			{
				"type": "unocc",
				"energy": 0.00185,
				"method": "rhf"
			},
			{
				"type": "unocc",
				"energy": 0.03273,
				"method": "rhf"
			}
		],
		"cosmo_sigma_profile": { 
			"-0.025": 0.0,
			"-0.024": 0.0,
			"-0.023": 0.0,
			"-0.022": 0.0,
			"-0.021": 0.0,
			"-0.02": 0.0,
			"-0.019": 0.0,
			"-0.018": 0.196039281776,
			"-0.017": 1.94919263608,
			"-0.016": 1.59782664278,
			"-0.015": 1.45538028117,
			"-0.014": 1.1424003674,
			"-0.013": 1.41459985341,
			"-0.012": 1.40478436415,
			"-0.011": 0.921115923064,
			"-0.01": 3.85777627809,
			"-0.009": 4.01391842893,
			"-0.008": 4.76622296571,
			"-0.007": 8.51478599992,
			"-0.006": 9.16483058199,
			"-0.005": 8.72880704448,
			"-0.004": 8.47062346362,
			"-0.003": 9.62286211901,
			"-0.002": 11.1845235615,
			"-0.001": 13.6019497594,
			"0.0": 21.7048296155,
			"0.001": 28.1072287005,
			"0.002": 27.1139344088,
			"0.003": 25.4621612552,
			"0.004": 18.9410620495,
			"0.005": 9.92856100346,
			"0.006": 3.47357262508,
			"0.007": 2.29473661401,
			"0.008": 3.11140476285,
			"0.009": 3.00185050382,
			"0.01": 3.36480380031,
			"0.011": 2.98889657819,
			"0.012": 2.72407846629,
			"0.013": 2.41267793001,
			"0.014": 0.752852503998,
			"0.015": 0.0,
			"0.016": 0.0,
			"0.017": 0.0,
			"0.018": 0.0,
			"0.019": 0.0,
			"0.02": 0.0,
			"0.021": 0.0,
			"0.022": 0.0,
			"0.023": 0.0,
			"0.024": 0.0,
			"0.025": 0.0
		}
	}
}
