{
	 "smiles": "CC(C(NC(=O)OC(C)(C)C)C1=CC=CC=C1)C(O)=O", 
	 "Tm": 345.15, 
	 "num_atms": 41, 
	 "gaussian": { 
		 "optdone": 1, 
		 "sigma_profile": "yes", 
		 "theory": "DFT", 
		 "functional": "B3LYP", 
		 "basiset": "6-31G**", 
		 "properties": { 
			 "R2extent": 6812.3924, 
			 "electric_dipole_moment_norm": 2.50501863267, 
			 "electric_quadrupole_moment_norm": 23.8647807449, 
			 "total_energy": -939.95142188, 
			 "HOMO_LUMO_gap": 0.23494, 
			 "cosmo_polarized_energy": -17.67, 
			 "cosmo_cavitation_energy": 42.02, 
			 "cosmo_dispersion_energy": -27.96, 
			 "cosmo_repulsion_energy": 2.13, 
			 "cosmo_total_nonelectrostatic_energy": 16.19, 
			 "SMD_solvation_energy": 8.38 
		},
		"coords": [
			{
				"x": 0.0464099578,
				"y": 2.7127594102,
				"z": 1.4202055019,
				"element": "C" 
			},
			{
				"x": 0.7578585131,
				"y": 1.776596968,
				"z": 0.4465451318,
				"element": "C" 
			},
			{
				"x": -0.0705256043,
				"y": 0.512184433,
				"z": -0.0198350216,
				"element": "C" 
			},
			{
				"x": -0.8052016555,
				"y": 0.8008866549,
				"z": -1.2529601977,
				"element": "N" 
			},
			{
				"x": -0.2701433088,
				"y": 0.8330549774,
				"z": -2.5124220592,
				"element": "C" 
			},
			{
				"x": -0.9488238894,
				"y": 0.905914874,
				"z": -3.5215584224,
				"element": "O" 
			},
			{
				"x": 1.0977102512,
				"y": 0.7883184724,
				"z": -2.4793408621,
				"element": "O" 
			},
			{
				"x": 1.8673554791,
				"y": 0.816973178,
				"z": -3.7514677527,
				"element": "C" 
			},
			{
				"x": 1.5105226098,
				"y": -0.4062863975,
				"z": -4.6011677451,
				"element": "C" 
			},
			{
				"x": 1.6098431289,
				"y": 2.1379505861,
				"z": -4.482082306,
				"element": "C" 
			},
			{
				"x": 3.3209391342,
				"y": 0.736013441,
				"z": -3.2793081277,
				"element": "C" 
			},
			{
				"x": -1.0003057253,
				"y": -0.039036278,
				"z": 1.0495045983,
				"element": "C" 
			},
			{
				"x": -0.5286185011,
				"y": -1.0445942231,
				"z": 1.9034017345,
				"element": "C" 
			},
			{
				"x": -1.3411843379,
				"y": -1.5674116495,
				"z": 2.9095161495,
				"element": "C" 
			},
			{
				"x": -2.6450421222,
				"y": -1.0971334909,
				"z": 3.0725747993,
				"element": "C" 
			},
			{
				"x": -3.1258182092,
				"y": -0.0950801478,
				"z": 2.2289089647,
				"element": "C" 
			},
			{
				"x": -2.3078597479,
				"y": 0.4339885891,
				"z": 1.2294463832,
				"element": "C" 
			},
			{
				"x": 2.1106950981,
				"y": 1.3169049161,
				"z": 0.9926735208,
				"element": "C" 
			},
			{
				"x": 2.9054124218,
				"y": 0.7103376644,
				"z": 0.0698740175,
				"element": "O" 
			},
			{
				"x": 2.4826047943,
				"y": 1.4470471969,
				"z": 2.1328224024,
				"element": "O" 
			},
			{
				"x": -0.1231689664,
				"y": 2.2290775392,
				"z": 2.3835310931,
				"element": "H" 
			},
			{
				"x": -0.9147665405,
				"y": 3.0397145511,
				"z": 1.0134457415,
				"element": "H" 
			},
			{
				"x": 0.6602915105,
				"y": 3.5997727613,
				"z": 1.5976816815,
				"element": "H" 
			},
			{
				"x": 0.9770470178,
				"y": 2.3265398797,
				"z": -0.4756743202,
				"element": "H" 
			},
			{
				"x": 0.6486784155,
				"y": -0.2812271229,
				"z": -0.2454832019,
				"element": "H" 
			},
			{
				"x": -1.8057489086,
				"y": 0.6709234859,
				"z": -1.2627560223,
				"element": "H" 
			},
			{
				"x": 2.1683367992,
				"y": -0.4434065156,
				"z": -5.4753798192,
				"element": "H" 
			},
			{
				"x": 0.4758580867,
				"y": -0.3628107186,
				"z": -4.9396103541,
				"element": "H" 
			},
			{
				"x": 1.6604321465,
				"y": -1.3258146301,
				"z": -4.0265083143,
				"element": "H" 
			},
			{
				"x": 0.5731437024,
				"y": 2.2100638907,
				"z": -4.8095770379,
				"element": "H" 
			},
			{
				"x": 1.8385023289,
				"y": 2.9862749201,
				"z": -3.8290364614,
				"element": "H" 
			},
			{
				"x": 2.2634349904,
				"y": 2.2008267287,
				"z": -5.3579861478,
				"element": "H" 
			},
			{
				"x": 3.5798293572,
				"y": 1.5847603375,
				"z": -2.6387414955,
				"element": "H" 
			},
			{
				"x": 3.5071415392,
				"y": -0.1909469667,
				"z": -2.7277338876,
				"element": "H" 
			},
			{
				"x": 3.9902442893,
				"y": 0.7520687358,
				"z": -4.1440035418,
				"element": "H" 
			},
			{
				"x": 0.4830382252,
				"y": -1.4219256052,
				"z": 1.7795507799,
				"element": "H" 
			},
			{
				"x": -0.9564586066,
				"y": -2.3471966695,
				"z": 3.5601108013,
				"element": "H" 
			},
			{
				"x": -3.2813916998,
				"y": -1.5078402282,
				"z": 3.8508257225,
				"element": "H" 
			},
			{
				"x": -4.1373466955,
				"y": 0.2815060759,
				"z": 2.3500329031,
				"element": "H" 
			},
			{
				"x": -2.6960312143,
				"y": 1.2305971111,
				"z": 0.6000834829,
				"element": "H" 
			},
			{
				"x": 2.4610059361,
				"y": 0.7119532653,
				"z": -0.7959023111,
				"element": "H" 
			}
		],
		 "valence_orbital": [ 
			{
				"type": "occ",
				"energy": -0.27822,
				"method": "rhf"
			},
			{
				"type": "occ",
				"energy": -0.27167,
				"method": "rhf"
			},
			{
				"type": "occ",
				"energy": -0.26243,
				"method": "rhf"
			},
			{
				"type": "occ",
				"energy": -0.26034,
				"method": "rhf"
			},
			{
				"type": "occ",
				"energy": -0.25288,
				"method": "rhf"
			},
			{
				"type": "unocc",
				"energy": -0.01794,
				"method": "rhf"
			},
			{
				"type": "unocc",
				"energy": -0.01624,
				"method": "rhf"
			},
			{
				"type": "unocc",
				"energy": 0.01345,
				"method": "rhf"
			},
			{
				"type": "unocc",
				"energy": 0.03839,
				"method": "rhf"
			},
			{
				"type": "unocc",
				"energy": 0.06073,
				"method": "rhf"
			}
		],
		"cosmo_sigma_profile": { 
			"-0.025": 0.0,
			"-0.024": 0.0,
			"-0.023": 0.0,
			"-0.022": 0.0,
			"-0.021": 0.0,
			"-0.02": 0.0,
			"-0.019": 0.0,
			"-0.018": 0.0,
			"-0.017": 0.0,
			"-0.016": 0.0,
			"-0.015": 0.0,
			"-0.014": 0.015081324466,
			"-0.013": 0.40779095221,
			"-0.012": 1.17183275197,
			"-0.011": 1.00189345349,
			"-0.01": 1.06272217891,
			"-0.009": 1.40180814344,
			"-0.008": 3.54886635666,
			"-0.007": 6.11432412468,
			"-0.006": 14.0424055523,
			"-0.005": 21.8692976228,
			"-0.004": 33.0493492706,
			"-0.003": 31.6407672282,
			"-0.002": 28.5684902158,
			"-0.001": 33.4371502717,
			"0.0": 33.8043223599,
			"0.001": 24.1918797617,
			"0.002": 13.3601842615,
			"0.003": 12.5713932571,
			"0.004": 12.5517927326,
			"0.005": 12.3687213134,
			"0.006": 4.80377189512,
			"0.007": 4.02682630651,
			"0.008": 3.96218065065,
			"0.009": 3.93713513161,
			"0.01": 5.95099475362,
			"0.011": 7.08251429348,
			"0.012": 7.71165360588,
			"0.013": 5.27667150062,
			"0.014": 0.795852020205,
			"0.015": 0.0,
			"0.016": 0.0,
			"0.017": 0.0,
			"0.018": 0.0,
			"0.019": 0.0,
			"0.02": 0.0,
			"0.021": 0.0,
			"0.022": 0.0,
			"0.023": 0.0,
			"0.024": 0.0,
			"0.025": 0.0
		}
	}
}
