{
	 "smiles": "O=C(CN1CCN(CC2=CC3=C(OCO3)C=C2)CC1)N1C2=CC=CC=C2SC2=C1C=CC=C2", 
	 "Tm": 415.15, 
	 "num_atms": 58, 
	 "gaussian": { 
		 "optdone": 1, 
		 "sigma_profile": "yes", 
		 "theory": "DFT", 
		 "functional": "B3LYP", 
		 "basiset": "6-31G**", 
		 "properties": { 
			 "R2extent": 21510.883, 
			 "electric_dipole_moment_norm": 2.49496649076, 
			 "electric_quadrupole_moment_norm": 11.9674458762, 
			 "total_energy": -1793.89361753, 
			 "HOMO_LUMO_gap": 0.17548, 
			 "cosmo_polarized_energy": -17.99, 
			 "cosmo_cavitation_energy": 60.19, 
			 "cosmo_dispersion_energy": -41.0, 
			 "cosmo_repulsion_energy": 2.98, 
			 "cosmo_total_nonelectrostatic_energy": 22.17, 
			 "SMD_solvation_energy": 8.09 
		},
		"coords": [
			{
				"x": -2.783262708,
				"y": 0.5894229079,
				"z": -1.4950479115,
				"element": "O" 
			},
			{
				"x": -2.2654590176,
				"y": 0.8974850841,
				"z": -0.4326813888,
				"element": "C" 
			},
			{
				"x": -1.6333960431,
				"y": -0.1756490557,
				"z": 0.4655701677,
				"element": "C" 
			},
			{
				"x": -0.2027647744,
				"y": 0.0623975326,
				"z": 0.6400788479,
				"element": "N" 
			},
			{
				"x": 0.5765128954,
				"y": -0.1394691976,
				"z": -0.5799606201,
				"element": "C" 
			},
			{
				"x": 0.6243573676,
				"y": -1.6224866863,
				"z": -1.0341129101,
				"element": "C" 
			},
			{
				"x": 0.418069697,
				"y": -2.501830095,
				"z": 0.1189492884,
				"element": "N" 
			},
			{
				"x": 0.5910316268,
				"y": -3.9291876894,
				"z": -0.1651337411,
				"element": "C" 
			},
			{
				"x": 1.9957617716,
				"y": -4.4018335102,
				"z": -0.5242363505,
				"element": "C" 
			},
			{
				"x": 2.4059540194,
				"y": -4.4336630542,
				"z": -1.8767888214,
				"element": "C" 
			},
			{
				"x": 3.7002366392,
				"y": -4.8309389924,
				"z": -2.1455998597,
				"element": "C" 
			},
			{
				"x": 4.5853559879,
				"y": -5.2000849108,
				"z": -1.1357782407,
				"element": "C" 
			},
			{
				"x": 5.7868156928,
				"y": -5.5792238493,
				"z": -1.6874334331,
				"element": "O" 
			},
			{
				"x": 5.6811586617,
				"y": -5.2810852145,
				"z": -3.084305021,
				"element": "C" 
			},
			{
				"x": 4.3137587344,
				"y": -4.9662267929,
				"z": -3.3694480297,
				"element": "O" 
			},
			{
				"x": 4.2109638339,
				"y": -5.1924379492,
				"z": 0.1930049241,
				"element": "C" 
			},
			{
				"x": 2.8951570773,
				"y": -4.784037913,
				"z": 0.4782033865,
				"element": "C" 
			},
			{
				"x": 1.084401581,
				"y": -2.0053089044,
				"z": 1.316427956,
				"element": "C" 
			},
			{
				"x": 0.421353833,
				"y": -0.6676614989,
				"z": 1.7527515078,
				"element": "C" 
			},
			{
				"x": -2.1668673202,
				"y": 2.2355744722,
				"z": -0.0284893874,
				"element": "N" 
			},
			{
				"x": -1.7206332165,
				"y": 2.6449784093,
				"z": 1.2668131865,
				"element": "C" 
			},
			{
				"x": -2.3855670888,
				"y": 2.2350786176,
				"z": 2.4267537662,
				"element": "C" 
			},
			{
				"x": -1.9190642339,
				"y": 2.6274763903,
				"z": 3.6812959907,
				"element": "C" 
			},
			{
				"x": -0.8160689439,
				"y": 3.4775095375,
				"z": 3.7826256996,
				"element": "C" 
			},
			{
				"x": -0.197757274,
				"y": 3.9565367491,
				"z": 2.6276857117,
				"element": "C" 
			},
			{
				"x": -0.6475952646,
				"y": 3.5433195495,
				"z": 1.3710272513,
				"element": "C" 
			},
			{
				"x": 0.1083993056,
				"y": 4.1574122385,
				"z": -0.1195810226,
				"element": "S" 
			},
			{
				"x": -1.3651203758,
				"y": 4.2575182573,
				"z": -1.125119126,
				"element": "C" 
			},
			{
				"x": -2.3646643433,
				"y": 3.2809476512,
				"z": -0.990809021,
				"element": "C" 
			},
			{
				"x": -3.5138256874,
				"y": 3.353525293,
				"z": -1.7836245404,
				"element": "C" 
			},
			{
				"x": -3.6441482606,
				"y": 4.3725564085,
				"z": -2.7265116661,
				"element": "C" 
			},
			{
				"x": -2.6453000997,
				"y": 5.3381265594,
				"z": -2.8660015903,
				"element": "C" 
			},
			{
				"x": -1.5121578291,
				"y": 5.2906430402,
				"z": -2.0552595646,
				"element": "C" 
			},
			{
				"x": -1.8787771295,
				"y": -1.1328938443,
				"z": -0.0115017488,
				"element": "H" 
			},
			{
				"x": -2.102343295,
				"y": -0.1710180578,
				"z": 1.4524283043,
				"element": "H" 
			},
			{
				"x": 0.1791508116,
				"y": 0.4849916837,
				"z": -1.3852307103,
				"element": "H" 
			},
			{
				"x": 1.5913978247,
				"y": 0.2220973656,
				"z": -0.3775816157,
				"element": "H" 
			},
			{
				"x": 1.5881878665,
				"y": -1.8014218145,
				"z": -1.5434326357,
				"element": "H" 
			},
			{
				"x": -0.1689927237,
				"y": -1.8304859777,
				"z": -1.7637724494,
				"element": "H" 
			},
			{
				"x": 0.2434634501,
				"y": -4.4796092738,
				"z": 0.7176442838,
				"element": "H" 
			},
			{
				"x": -0.0920368082,
				"y": -4.1777760624,
				"z": -0.9872783156,
				"element": "H" 
			},
			{
				"x": 1.7255253079,
				"y": -4.1694891222,
				"z": -2.6795902851,
				"element": "H" 
			},
			{
				"x": 5.9833017547,
				"y": -6.1564629238,
				"z": -3.6677796404,
				"element": "H" 
			},
			{
				"x": 6.3153131077,
				"y": -4.415096949,
				"z": -3.3240367721,
				"element": "H" 
			},
			{
				"x": 4.898122061,
				"y": -5.4963093849,
				"z": 0.9747474167,
				"element": "H" 
			},
			{
				"x": 2.5662813472,
				"y": -4.7757457178,
				"z": 1.5135819761,
				"element": "H" 
			},
			{
				"x": 0.9741047501,
				"y": -2.7490451633,
				"z": 2.1137431119,
				"element": "H" 
			},
			{
				"x": 2.1716276698,
				"y": -1.8647584907,
				"z": 1.1721674298,
				"element": "H" 
			},
			{
				"x": 1.1826594707,
				"y": -0.0255946632,
				"z": 2.2176002724,
				"element": "H" 
			},
			{
				"x": -0.3441542407,
				"y": -0.8566521406,
				"z": 2.5106288176,
				"element": "H" 
			},
			{
				"x": -3.2682801985,
				"y": 1.6096598553,
				"z": 2.3390417257,
				"element": "H" 
			},
			{
				"x": -2.4312302985,
				"y": 2.2868089197,
				"z": 4.5759935327,
				"element": "H" 
			},
			{
				"x": -0.4567467825,
				"y": 3.7943658695,
				"z": 4.7569980785,
				"element": "H" 
			},
			{
				"x": 0.6277393175,
				"y": 4.6585287566,
				"z": 2.6952482221,
				"element": "H" 
			},
			{
				"x": -4.2780987075,
				"y": 2.5953298685,
				"z": -1.6763120711,
				"element": "H" 
			},
			{
				"x": -4.5323669937,
				"y": 4.4127165418,
				"z": -3.3495738059,
				"element": "H" 
			},
			{
				"x": -2.7525180119,
				"y": 6.1360105737,
				"z": -3.5947337192,
				"element": "H" 
			},
			{
				"x": -0.7410657932,
				"y": 6.0504667672,
				"z": -2.1374648406,
				"element": "H" 
			}
		],
		 "valence_orbital": [ 
			{
				"type": "occ",
				"energy": -0.23318,
				"method": "rhf"
			},
			{
				"type": "occ",
				"energy": -0.2124,
				"method": "rhf"
			},
			{
				"type": "occ",
				"energy": -0.20751,
				"method": "rhf"
			},
			{
				"type": "occ",
				"energy": -0.20457,
				"method": "rhf"
			},
			{
				"type": "occ",
				"energy": -0.19662,
				"method": "rhf"
			},
			{
				"type": "unocc",
				"energy": -0.02114,
				"method": "rhf"
			},
			{
				"type": "unocc",
				"energy": -0.01452,
				"method": "rhf"
			},
			{
				"type": "unocc",
				"energy": -0.00874,
				"method": "rhf"
			},
			{
				"type": "unocc",
				"energy": -0.00083,
				"method": "rhf"
			},
			{
				"type": "unocc",
				"energy": -0.00066,
				"method": "rhf"
			}
		],
		"cosmo_sigma_profile": { 
			"-0.025": 0.0,
			"-0.024": 0.0,
			"-0.023": 0.0,
			"-0.022": 0.0,
			"-0.021": 0.0,
			"-0.02": 0.0,
			"-0.019": 0.0,
			"-0.018": 0.0,
			"-0.017": 0.0,
			"-0.016": 0.0,
			"-0.015": 0.0,
			"-0.014": 0.0,
			"-0.013": 0.0,
			"-0.012": 0.0,
			"-0.011": 0.0,
			"-0.01": 0.0,
			"-0.009": 0.180864805626,
			"-0.008": 3.58648917188,
			"-0.007": 13.4887969803,
			"-0.006": 27.9143271047,
			"-0.005": 32.8033852666,
			"-0.004": 40.6718500033,
			"-0.003": 38.2307449924,
			"-0.002": 44.2636203882,
			"-0.001": 38.9063073584,
			"0.0": 34.6994120047,
			"0.001": 29.8497771041,
			"0.002": 33.9082420209,
			"0.003": 37.858118611,
			"0.004": 34.0156919725,
			"0.005": 22.0346195837,
			"0.006": 11.6367734003,
			"0.007": 7.35451283996,
			"0.008": 6.52402909301,
			"0.009": 6.62014818469,
			"0.01": 5.2641021685,
			"0.011": 2.79693806086,
			"0.012": 3.31139987226,
			"0.013": 2.92347132147,
			"0.014": 0.749044044644,
			"0.015": 0.0,
			"0.016": 0.0,
			"0.017": 0.0,
			"0.018": 0.0,
			"0.019": 0.0,
			"0.02": 0.0,
			"0.021": 0.0,
			"0.022": 0.0,
			"0.023": 0.0,
			"0.024": 0.0,
			"0.025": 0.0
		}
	}
}
