{
	 "smiles": "NC(=O)CSC1=NN=C(S)S1", 
	 "Tm": 466.15, 
	 "num_atms": 16, 
	 "gaussian": { 
		 "optdone": 1, 
		 "sigma_profile": "yes", 
		 "theory": "DFT", 
		 "functional": "B3LYP", 
		 "basiset": "6-31G**", 
		 "properties": { 
			 "R2extent": 4710.0995, 
			 "electric_dipole_moment_norm": 4.38175220659, 
			 "electric_quadrupole_moment_norm": 11.0197988375, 
			 "total_energy": -1589.44942113, 
			 "HOMO_LUMO_gap": 0.18116, 
			 "cosmo_polarized_energy": -15.98, 
			 "cosmo_cavitation_energy": 25.92, 
			 "cosmo_dispersion_energy": -20.68, 
			 "cosmo_repulsion_energy": 1.55, 
			 "cosmo_total_nonelectrostatic_energy": 6.79, 
			 "SMD_solvation_energy": 2.74 
		},
		"coords": [
			{
				"x": -0.3839198835,
				"y": 1.1401363292,
				"z": -2.2869747511,
				"element": "N" 
			},
			{
				"x": 0.8898993467,
				"y": 1.3096974662,
				"z": -1.8502553827,
				"element": "C" 
			},
			{
				"x": 1.8856865142,
				"y": 0.9200580708,
				"z": -2.4418193039,
				"element": "O" 
			},
			{
				"x": 1.0128308716,
				"y": 2.0870964428,
				"z": -0.5305692946,
				"element": "C" 
			},
			{
				"x": 0.7090250149,
				"y": 1.0740060272,
				"z": 0.9808378354,
				"element": "S" 
			},
			{
				"x": -1.0313511162,
				"y": 1.230024522,
				"z": 1.1600400622,
				"element": "C" 
			},
			{
				"x": -1.8606978513,
				"y": 1.683435492,
				"z": 0.2583992707,
				"element": "N" 
			},
			{
				"x": -3.1646099086,
				"y": 1.7223399369,
				"z": 0.6784830233,
				"element": "N" 
			},
			{
				"x": -3.3199520182,
				"y": 1.2779456056,
				"z": 1.8880316936,
				"element": "C" 
			},
			{
				"x": -4.9273172486,
				"y": 1.1528707985,
				"z": 2.6091088538,
				"element": "S" 
			},
			{
				"x": -1.8192111203,
				"y": 0.7662084029,
				"z": 2.6658392871,
				"element": "S" 
			},
			{
				"x": -1.1695007678,
				"y": 1.3862396717,
				"z": -1.6926388083,
				"element": "H" 
			},
			{
				"x": -0.5243721448,
				"y": 0.5772538239,
				"z": -3.1123194894,
				"element": "H" 
			},
			{
				"x": 0.3488070004,
				"y": 2.9536926575,
				"z": -0.4901662931,
				"element": "H" 
			},
			{
				"x": 2.0513608255,
				"y": 2.4056945692,
				"z": -0.4350101528,
				"element": "H" 
			},
			{
				"x": -4.5019775139,
				"y": 0.9748001836,
				"z": 3.8750134498,
				"element": "H" 
			}
		],
		 "valence_orbital": [ 
			{
				"type": "occ",
				"energy": -0.29533,
				"method": "rhf"
			},
			{
				"type": "occ",
				"energy": -0.2896,
				"method": "rhf"
			},
			{
				"type": "occ",
				"energy": -0.26475,
				"method": "rhf"
			},
			{
				"type": "occ",
				"energy": -0.25487,
				"method": "rhf"
			},
			{
				"type": "occ",
				"energy": -0.23988,
				"method": "rhf"
			},
			{
				"type": "unocc",
				"energy": -0.05872,
				"method": "rhf"
			},
			{
				"type": "unocc",
				"energy": -0.04592,
				"method": "rhf"
			},
			{
				"type": "unocc",
				"energy": -0.01721,
				"method": "rhf"
			},
			{
				"type": "unocc",
				"energy": -0.00158,
				"method": "rhf"
			},
			{
				"type": "unocc",
				"energy": 0.00502,
				"method": "rhf"
			}
		],
		"cosmo_sigma_profile": { 
			"-0.025": 0.0,
			"-0.024": 0.0,
			"-0.023": 0.0,
			"-0.022": 0.0,
			"-0.021": 0.0,
			"-0.02": 0.0,
			"-0.019": 0.0,
			"-0.018": 0.0,
			"-0.017": 0.0,
			"-0.016": 0.0,
			"-0.015": 0.0,
			"-0.014": 0.709935441402,
			"-0.013": 4.01619658209,
			"-0.012": 3.96578514158,
			"-0.011": 2.12993214608,
			"-0.01": 2.65990486142,
			"-0.009": 3.33104896048,
			"-0.008": 6.42631998675,
			"-0.007": 6.9338080544,
			"-0.006": 8.0124742672,
			"-0.005": 8.87897413683,
			"-0.004": 10.8600426343,
			"-0.003": 14.2201528513,
			"-0.002": 15.0549705674,
			"-0.001": 15.8081959692,
			"0.0": 16.1779368485,
			"0.001": 17.7600463707,
			"0.002": 14.5066239124,
			"0.003": 9.98350137777,
			"0.004": 10.8867976493,
			"0.005": 8.37273337471,
			"0.006": 5.52294317393,
			"0.007": 3.73945388827,
			"0.008": 3.27642756427,
			"0.009": 1.94376859716,
			"0.01": 2.44806771118,
			"0.011": 2.99989324251,
			"0.012": 3.10549068758,
			"0.013": 5.97886168797,
			"0.014": 4.3758278401,
			"0.015": 0.545334561224,
			"0.016": 0.0,
			"0.017": 0.0,
			"0.018": 0.0,
			"0.019": 0.0,
			"0.02": 0.0,
			"0.021": 0.0,
			"0.022": 0.0,
			"0.023": 0.0,
			"0.024": 0.0,
			"0.025": 0.0
		}
	}
}
