{
	 "smiles": "ClC1=CC(Cl)=C(C=C(/C#N)C2=NC3=C(N2)C=CC=C3)C=C1", 
	 "Tm": 522.15, 
	 "num_atms": 30, 
	 "gaussian": { 
		 "optdone": 1, 
		 "sigma_profile": "yes", 
		 "theory": "DFT", 
		 "functional": "B3LYP", 
		 "basiset": "6-31G**", 
		 "properties": { 
			 "R2extent": 11817.0433, 
			 "electric_dipole_moment_norm": 0.972932931913, 
			 "electric_quadrupole_moment_norm": 12.6009969304, 
			 "total_energy": -1699.75448623, 
			 "HOMO_LUMO_gap": 0.12029, 
			 "cosmo_polarized_energy": -13.12, 
			 "cosmo_cavitation_energy": 39.95, 
			 "cosmo_dispersion_energy": -28.78, 
			 "cosmo_repulsion_energy": 2.17, 
			 "cosmo_total_nonelectrostatic_energy": 13.34, 
			 "SMD_solvation_energy": 5.06 
		},
		"coords": [
			{
				"x": -0.015568616,
				"y": 7.5033691559,
				"z": 1.4400208033,
				"element": "Cl" 
			},
			{
				"x": 0.1035666782,
				"y": 5.8158523858,
				"z": 0.9969528076,
				"element": "C" 
			},
			{
				"x": -0.5168466205,
				"y": 5.3733505863,
				"z": -0.1692368288,
				"element": "C" 
			},
			{
				"x": -0.4208916298,
				"y": 4.0288580563,
				"z": -0.5171145187,
				"element": "C" 
			},
			{
				"x": -1.2169374772,
				"y": 3.5431047239,
				"z": -2.0039090146,
				"element": "Cl" 
			},
			{
				"x": 0.2938948377,
				"y": 3.092545661,
				"z": 0.2718324211,
				"element": "C" 
			},
			{
				"x": 0.3503715485,
				"y": 1.6946645923,
				"z": -0.1234304176,
				"element": "C" 
			},
			{
				"x": 1.1535184104,
				"y": 0.6837593888,
				"z": 0.3141531018,
				"element": "C" 
			},
			{
				"x": 2.1988827819,
				"y": 0.8236728589,
				"z": 1.2822451902,
				"element": "C" 
			},
			{
				"x": 3.069171487,
				"y": 0.8432473084,
				"z": 2.0565929749,
				"element": "N" 
			},
			{
				"x": 0.9962362944,
				"y": -0.6696562665,
				"z": -0.2332674599,
				"element": "C" 
			},
			{
				"x": 0.0944680329,
				"y": -1.0241624021,
				"z": -1.1247575419,
				"element": "N" 
			},
			{
				"x": 0.3164849713,
				"y": -2.3694961769,
				"z": -1.3463531769,
				"element": "C" 
			},
			{
				"x": 1.3964790888,
				"y": -2.831026289,
				"z": -0.5491171602,
				"element": "C" 
			},
			{
				"x": 1.8102984571,
				"y": -1.7164940481,
				"z": 0.1535713754,
				"element": "N" 
			},
			{
				"x": 1.8366854564,
				"y": -4.1563619873,
				"z": -0.5731677695,
				"element": "C" 
			},
			{
				"x": 1.1600618926,
				"y": -5.02193972,
				"z": -1.427331394,
				"element": "C" 
			},
			{
				"x": 0.0836799529,
				"y": -4.581520126,
				"z": -2.2278024514,
				"element": "C" 
			},
			{
				"x": -0.3499179944,
				"y": -3.2619612774,
				"z": -2.1994065281,
				"element": "C" 
			},
			{
				"x": 0.8964313151,
				"y": 3.5962930883,
				"z": 1.446782432,
				"element": "C" 
			},
			{
				"x": 0.8114047083,
				"y": 4.9319456669,
				"z": 1.812818917,
				"element": "C" 
			},
			{
				"x": -1.0651935577,
				"y": 6.0619456195,
				"z": -0.7997007664,
				"element": "H" 
			},
			{
				"x": -0.3458900983,
				"y": 1.3871432756,
				"z": -0.8972113625,
				"element": "H" 
			},
			{
				"x": 2.5642222756,
				"y": -1.6607638094,
				"z": 0.8229544631,
				"element": "H" 
			},
			{
				"x": 2.6640104669,
				"y": -4.4986724531,
				"z": 0.0407425386,
				"element": "H" 
			},
			{
				"x": 1.4676991703,
				"y": -6.0619718418,
				"z": -1.4794647946,
				"element": "H" 
			},
			{
				"x": -0.4133646061,
				"y": -5.2943122934,
				"z": -2.878876067,
				"element": "H" 
			},
			{
				"x": -1.1763923817,
				"y": -2.9176571343,
				"z": -2.8121991408,
				"element": "H" 
			},
			{
				"x": 1.4343517315,
				"y": 2.9205525348,
				"z": 2.099333735,
				"element": "H" 
			},
			{
				"x": 1.2819834238,
				"y": 5.2850909224,
				"z": 2.7229456329,
				"element": "H" 
			}
		],
		 "valence_orbital": [ 
			{
				"type": "occ",
				"energy": -0.28501,
				"method": "rhf"
			},
			{
				"type": "occ",
				"energy": -0.27592,
				"method": "rhf"
			},
			{
				"type": "occ",
				"energy": -0.26394,
				"method": "rhf"
			},
			{
				"type": "occ",
				"energy": -0.23583,
				"method": "rhf"
			},
			{
				"type": "occ",
				"energy": -0.22015,
				"method": "rhf"
			},
			{
				"type": "unocc",
				"energy": -0.09986,
				"method": "rhf"
			},
			{
				"type": "unocc",
				"energy": -0.03725,
				"method": "rhf"
			},
			{
				"type": "unocc",
				"energy": -0.01771,
				"method": "rhf"
			},
			{
				"type": "unocc",
				"energy": -0.00405,
				"method": "rhf"
			},
			{
				"type": "unocc",
				"energy": -0.00254,
				"method": "rhf"
			}
		],
		"cosmo_sigma_profile": { 
			"-0.025": 0.0,
			"-0.024": 0.0,
			"-0.023": 0.0,
			"-0.022": 0.0,
			"-0.021": 0.0,
			"-0.02": 0.0,
			"-0.019": 0.0,
			"-0.018": 0.0,
			"-0.017": 0.0,
			"-0.016": 0.664573459725,
			"-0.015": 1.00628981445,
			"-0.014": 0.881521284278,
			"-0.013": 1.05013736121,
			"-0.012": 0.913312453795,
			"-0.011": 1.28367121103,
			"-0.01": 1.1303779097,
			"-0.009": 2.35314927473,
			"-0.008": 6.08475648801,
			"-0.007": 7.68686443816,
			"-0.006": 12.6837008831,
			"-0.005": 14.1205668013,
			"-0.004": 17.3638621558,
			"-0.003": 21.844736208,
			"-0.002": 24.7546579083,
			"-0.001": 31.6235522734,
			"0.0": 41.0458118664,
			"0.001": 27.8293823467,
			"0.002": 22.1477017413,
			"0.003": 28.037610686,
			"0.004": 22.4345640978,
			"0.005": 12.8025052913,
			"0.006": 6.02265170523,
			"0.007": 4.71271211814,
			"0.008": 3.54391948574,
			"0.009": 3.3533117426,
			"0.01": 3.5354367565,
			"0.011": 3.29302854622,
			"0.012": 2.58520919416,
			"0.013": 1.25544273926,
			"0.014": 0.77102020558,
			"0.015": 0.0,
			"0.016": 0.0,
			"0.017": 0.0,
			"0.018": 0.0,
			"0.019": 0.0,
			"0.02": 0.0,
			"0.021": 0.0,
			"0.022": 0.0,
			"0.023": 0.0,
			"0.024": 0.0,
			"0.025": 0.0
		}
	}
}
