{
	 "smiles": "OC(=O)CCSC1=CC=C(F)C=C1", 
	 "Tm": 350.15, 
	 "num_atms": 22, 
	 "gaussian": { 
		 "optdone": 1, 
		 "sigma_profile": "yes", 
		 "theory": "DFT", 
		 "functional": "B3LYP", 
		 "basiset": "6-31G**", 
		 "properties": { 
			 "R2extent": 3189.1524, 
			 "electric_dipole_moment_norm": 2.34862429094, 
			 "electric_quadrupole_moment_norm": 4.41868424647, 
			 "total_energy": -996.863953819, 
			 "HOMO_LUMO_gap": 0.20914, 
			 "cosmo_polarized_energy": -11.61, 
			 "cosmo_cavitation_energy": 28.45, 
			 "cosmo_dispersion_energy": -19.82, 
			 "cosmo_repulsion_energy": 1.52, 
			 "cosmo_total_nonelectrostatic_energy": 10.14, 
			 "SMD_solvation_energy": 5.75 
		},
		"coords": [
			{
				"x": -1.4764376057,
				"y": 0.6918153401,
				"z": 0.7709359351,
				"element": "O" 
			},
			{
				"x": -0.5191255058,
				"y": 1.397638428,
				"z": 0.1199163059,
				"element": "C" 
			},
			{
				"x": 0.4599934519,
				"y": 1.83922906,
				"z": 0.6787234789,
				"element": "O" 
			},
			{
				"x": -0.8530528501,
				"y": 1.5686550074,
				"z": -1.3472702469,
				"element": "C" 
			},
			{
				"x": -1.1028073038,
				"y": 0.2557080186,
				"z": -2.1047150601,
				"element": "C" 
			},
			{
				"x": 0.3895703363,
				"y": -0.7903297017,
				"z": -2.3978159368,
				"element": "S" 
			},
			{
				"x": 0.571388244,
				"y": -1.6820673309,
				"z": -0.8491619111,
				"element": "C" 
			},
			{
				"x": -0.2112356683,
				"y": -2.8179748258,
				"z": -0.5922038892,
				"element": "C" 
			},
			{
				"x": -0.042327483,
				"y": -3.546166391,
				"z": 0.5840964407,
				"element": "C" 
			},
			{
				"x": 0.9310852654,
				"y": -3.1341337344,
				"z": 1.4890663315,
				"element": "C" 
			},
			{
				"x": 1.102568044,
				"y": -3.8379462226,
				"z": 2.6262724936,
				"element": "F" 
			},
			{
				"x": 1.7324204207,
				"y": -2.0221549291,
				"z": 1.2571047555,
				"element": "C" 
			},
			{
				"x": 1.5477174981,
				"y": -1.2956703045,
				"z": 0.0800533808,
				"element": "C" 
			},
			{
				"x": -1.1752218477,
				"y": 0.6111031708,
				"z": 1.6913977568,
				"element": "H" 
			},
			{
				"x": -0.04136563,
				"y": 2.1364622176,
				"z": -1.8050103488,
				"element": "H" 
			},
			{
				"x": -1.7693457532,
				"y": 2.1723741262,
				"z": -1.4020286232,
				"element": "H" 
			},
			{
				"x": -1.8659114953,
				"y": -0.3453264101,
				"z": -1.6053592183,
				"element": "H" 
			},
			{
				"x": -1.4636021503,
				"y": 0.4859617483,
				"z": -3.1113152257,
				"element": "H" 
			},
			{
				"x": -0.9508719369,
				"y": -3.134796679,
				"z": -1.3206015635,
				"element": "H" 
			},
			{
				"x": -0.6389217853,
				"y": -4.4256848553,
				"z": 0.8009562476,
				"element": "H" 
			},
			{
				"x": 2.4806295683,
				"y": -1.7365442733,
				"z": 1.9885154677,
				"element": "H" 
			},
			{
				"x": 2.1516541867,
				"y": -0.4158514594,
				"z": -0.1113565704,
				"element": "H" 
			}
		],
		 "valence_orbital": [ 
			{
				"type": "occ",
				"energy": -0.32027,
				"method": "rhf"
			},
			{
				"type": "occ",
				"energy": -0.2774,
				"method": "rhf"
			},
			{
				"type": "occ",
				"energy": -0.26754,
				"method": "rhf"
			},
			{
				"type": "occ",
				"energy": -0.25162,
				"method": "rhf"
			},
			{
				"type": "occ",
				"energy": -0.23215,
				"method": "rhf"
			},
			{
				"type": "unocc",
				"energy": -0.02301,
				"method": "rhf"
			},
			{
				"type": "unocc",
				"energy": -0.01776,
				"method": "rhf"
			},
			{
				"type": "unocc",
				"energy": 0.00536,
				"method": "rhf"
			},
			{
				"type": "unocc",
				"energy": 0.04514,
				"method": "rhf"
			},
			{
				"type": "unocc",
				"energy": 0.06339,
				"method": "rhf"
			}
		],
		"cosmo_sigma_profile": { 
			"-0.025": 0.0,
			"-0.024": 0.0,
			"-0.023": 0.0,
			"-0.022": 0.0,
			"-0.021": 0.0,
			"-0.02": 0.0,
			"-0.019": 0.0162981435549,
			"-0.018": 0.699576544669,
			"-0.017": 0.752358276421,
			"-0.016": 0.926220081563,
			"-0.015": 0.344846378082,
			"-0.014": 0.422645446554,
			"-0.013": 0.461664593874,
			"-0.012": 1.30802926978,
			"-0.011": 0.50268095248,
			"-0.01": 0.526515722371,
			"-0.009": 0.899343863483,
			"-0.008": 1.76237010405,
			"-0.007": 9.28133773081,
			"-0.006": 14.0032715346,
			"-0.005": 16.7816345033,
			"-0.004": 16.6426951401,
			"-0.003": 14.4440196152,
			"-0.002": 10.8573221186,
			"-0.001": 10.3537076225,
			"0.0": 15.3212921201,
			"0.001": 19.4282767441,
			"0.002": 17.2257502799,
			"0.003": 18.8186698227,
			"0.004": 18.1383065822,
			"0.005": 8.86847063029,
			"0.006": 5.7695851214,
			"0.007": 5.12575622714,
			"0.008": 4.14385998828,
			"0.009": 3.67296423999,
			"0.01": 2.45339397402,
			"0.011": 3.45194458013,
			"0.012": 3.51660284503,
			"0.013": 0.926502977722,
			"0.014": 0.00342536197782,
			"0.015": 0.0,
			"0.016": 0.0,
			"0.017": 0.0,
			"0.018": 0.0,
			"0.019": 0.0,
			"0.02": 0.0,
			"0.021": 0.0,
			"0.022": 0.0,
			"0.023": 0.0,
			"0.024": 0.0,
			"0.025": 0.0
		}
	}
}
