{
	 "smiles": "CN(C)C=C(C#N)S(C)(=O)=O", 
	 "Tm": 403.15, 
	 "num_atms": 21, 
	 "gaussian": { 
		 "optdone": 1, 
		 "sigma_profile": "yes", 
		 "theory": "DFT", 
		 "functional": "B3LYP", 
		 "basiset": "6-31G**", 
		 "properties": { 
			 "R2extent": 2349.1918, 
			 "electric_dipole_moment_norm": 7.00042688555, 
			 "electric_quadrupole_moment_norm": 21.5527838302, 
			 "total_energy": -892.703734076, 
			 "HOMO_LUMO_gap": 0.19951, 
			 "cosmo_polarized_energy": -21.49, 
			 "cosmo_cavitation_energy": 26.71, 
			 "cosmo_dispersion_energy": -19.13, 
			 "cosmo_repulsion_energy": 1.5, 
			 "cosmo_total_nonelectrostatic_energy": 9.08, 
			 "SMD_solvation_energy": 6.0 
		},
		"coords": [
			{
				"x": 0.1851028691,
				"y": -2.9886938847,
				"z": 0.3542477629,
				"element": "C" 
			},
			{
				"x": 1.1710124856,
				"y": -1.9316235786,
				"z": 0.1502428148,
				"element": "N" 
			},
			{
				"x": 2.5578545926,
				"y": -2.3496638541,
				"z": 0.3326858391,
				"element": "C" 
			},
			{
				"x": 0.8979716874,
				"y": -0.6807334909,
				"z": -0.2517403854,
				"element": "C" 
			},
			{
				"x": -0.2895155749,
				"y": -0.0470628145,
				"z": -0.5368560247,
				"element": "C" 
			},
			{
				"x": -1.6045031653,
				"y": -0.5575820888,
				"z": -0.4715690026,
				"element": "C" 
			},
			{
				"x": -2.7089629578,
				"y": -0.9302946518,
				"z": -0.3977173733,
				"element": "N" 
			},
			{
				"x": -0.1423810119,
				"y": 1.6442381134,
				"z": -1.1335029208,
				"element": "S" 
			},
			{
				"x": -1.0092490375,
				"y": 2.6188686724,
				"z": 0.1149030363,
				"element": "C" 
			},
			{
				"x": -0.8904087195,
				"y": 1.7789409146,
				"z": -2.3891568141,
				"element": "O" 
			},
			{
				"x": 1.2893474828,
				"y": 1.9959415674,
				"z": -1.0744399562,
				"element": "O" 
			},
			{
				"x": -0.8279875665,
				"y": -2.6009901719,
				"z": 0.2905704782,
				"element": "H" 
			},
			{
				"x": 0.3304000646,
				"y": -3.4364087721,
				"z": 1.3435808278,
				"element": "H" 
			},
			{
				"x": 0.3115693813,
				"y": -3.7732177626,
				"z": -0.4016898162,
				"element": "H" 
			},
			{
				"x": 2.8121113532,
				"y": -3.1526101634,
				"z": -0.3698342593,
				"element": "H" 
			},
			{
				"x": 2.7110870021,
				"y": -2.7229522188,
				"z": 1.3518972174,
				"element": "H" 
			},
			{
				"x": 3.2304645491,
				"y": -1.5085179493,
				"z": 0.1614219463,
				"element": "H" 
			},
			{
				"x": 1.7751060067,
				"y": -0.0512441543,
				"z": -0.3816269029,
				"element": "H" 
			},
			{
				"x": -1.0059404473,
				"y": 3.6503273762,
				"z": -0.2426760816,
				"element": "H" 
			},
			{
				"x": -0.4775782139,
				"y": 2.5374100275,
				"z": 1.0635144576,
				"element": "H" 
			},
			{
				"x": -2.0330007799,
				"y": 2.2514688841,
				"z": 0.2006451566,
				"element": "H" 
			}
		],
		 "valence_orbital": [ 
			{
				"type": "occ",
				"energy": -0.32268,
				"method": "rhf"
			},
			{
				"type": "occ",
				"energy": -0.31119,
				"method": "rhf"
			},
			{
				"type": "occ",
				"energy": -0.29556,
				"method": "rhf"
			},
			{
				"type": "occ",
				"energy": -0.28789,
				"method": "rhf"
			},
			{
				"type": "occ",
				"energy": -0.23654,
				"method": "rhf"
			},
			{
				"type": "unocc",
				"energy": -0.03703,
				"method": "rhf"
			},
			{
				"type": "unocc",
				"energy": 0.00137,
				"method": "rhf"
			},
			{
				"type": "unocc",
				"energy": 0.05932,
				"method": "rhf"
			},
			{
				"type": "unocc",
				"energy": 0.06651,
				"method": "rhf"
			},
			{
				"type": "unocc",
				"energy": 0.07402,
				"method": "rhf"
			}
		],
		"cosmo_sigma_profile": { 
			"-0.025": 0.0,
			"-0.024": 0.0,
			"-0.023": 0.0,
			"-0.022": 0.0,
			"-0.021": 0.0,
			"-0.02": 0.0,
			"-0.019": 0.0,
			"-0.018": 0.0,
			"-0.017": 0.0,
			"-0.016": 0.0,
			"-0.015": 0.0,
			"-0.014": 0.0,
			"-0.013": 0.0,
			"-0.012": 0.0,
			"-0.011": 0.265776499774,
			"-0.01": 1.19210800132,
			"-0.009": 3.44231013191,
			"-0.008": 7.17114647206,
			"-0.007": 10.4168407238,
			"-0.006": 20.3547246438,
			"-0.005": 19.7461793476,
			"-0.004": 26.419112288,
			"-0.003": 25.6161000754,
			"-0.002": 10.0880491048,
			"-0.001": 7.62570880872,
			"0.0": 5.62862398616,
			"0.001": 4.5082233451,
			"0.002": 3.86508961768,
			"0.003": 3.13977003871,
			"0.004": 4.11666491173,
			"0.005": 4.70811174023,
			"0.006": 4.19029509842,
			"0.007": 5.01424748242,
			"0.008": 4.47509827458,
			"0.009": 6.91189433512,
			"0.01": 7.59454222888,
			"0.011": 13.38732866,
			"0.012": 9.90161468131,
			"0.013": 2.62848059564,
			"0.014": 0.39222870076,
			"0.015": 0.0,
			"0.016": 0.0,
			"0.017": 0.0,
			"0.018": 0.0,
			"0.019": 0.0,
			"0.02": 0.0,
			"0.021": 0.0,
			"0.022": 0.0,
			"0.023": 0.0,
			"0.024": 0.0,
			"0.025": 0.0
		}
	}
}
