{
	 "smiles": "ClCC1=COC(=N1)C1=C(Br)C=CC=C1", 
	 "Tm": 320.15, 
	 "num_atms": 21, 
	 "gaussian": { 
		 "optdone": 1, 
		 "sigma_profile": "yes", 
		 "theory": "DFT", 
		 "functional": "B3LYP", 
		 "basiset": "6-31G**", 
		 "properties": { 
			 "R2extent": 5502.713, 
			 "electric_dipole_moment_norm": 1.85079287064, 
			 "electric_quadrupole_moment_norm": 17.9207004018, 
			 "total_energy": -3546.84121772, 
			 "HOMO_LUMO_gap": 0.18008, 
			 "cosmo_polarized_energy": -9.72, 
			 "cosmo_cavitation_energy": 30.02, 
			 "cosmo_dispersion_energy": -22.44, 
			 "cosmo_repulsion_energy": 1.78, 
			 "cosmo_total_nonelectrostatic_energy": 9.36, 
			 "SMD_solvation_energy": 3.09 
		},
		"coords": [
			{
				"x": 2.3328600711,
				"y": -2.9146106663,
				"z": -3.3544379975,
				"element": "Cl" 
			},
			{
				"x": 1.8075990274,
				"y": -1.1584451623,
				"z": -3.4029912742,
				"element": "C" 
			},
			{
				"x": 1.7101184433,
				"y": -0.5556066752,
				"z": -2.0511270144,
				"element": "C" 
			},
			{
				"x": 2.6027426703,
				"y": 0.2406015544,
				"z": -1.4001337997,
				"element": "C" 
			},
			{
				"x": 2.074842965,
				"y": 0.5591235234,
				"z": -0.1849647018,
				"element": "O" 
			},
			{
				"x": 0.8640812508,
				"y": -0.0664283374,
				"z": -0.1498532023,
				"element": "C" 
			},
			{
				"x": 0.6054939157,
				"y": -0.7409307694,
				"z": -1.2372426433,
				"element": "N" 
			},
			{
				"x": 0.0032660123,
				"y": 0.0115778786,
				"z": 1.0346069868,
				"element": "C" 
			},
			{
				"x": 0.0838205187,
				"y": 0.9546053723,
				"z": 2.0771504165,
				"element": "C" 
			},
			{
				"x": 1.3536103702,
				"y": 2.3845423673,
				"z": 2.1133157177,
				"element": "Br" 
			},
			{
				"x": -0.8060091343,
				"y": 0.9072257516,
				"z": 3.1527874165,
				"element": "C" 
			},
			{
				"x": -1.7949922417,
				"y": -0.070874681,
				"z": 3.2086018677,
				"element": "C" 
			},
			{
				"x": -1.9010215284,
				"y": -1.0087281808,
				"z": 2.1795140159,
				"element": "C" 
			},
			{
				"x": -1.0129291097,
				"y": -0.9640513527,
				"z": 1.1141371706,
				"element": "C" 
			},
			{
				"x": 2.5417917748,
				"y": -0.6439421866,
				"z": -4.0222829569,
				"element": "H" 
			},
			{
				"x": 0.8370476467,
				"y": -1.157552668,
				"z": -3.8979794805,
				"element": "H" 
			},
			{
				"x": 3.5751477323,
				"y": 0.6450637603,
				"z": -1.6304493172,
				"element": "H" 
			},
			{
				"x": -0.7187811942,
				"y": 1.6477390341,
				"z": 3.9392002415,
				"element": "H" 
			},
			{
				"x": -2.4782804356,
				"y": -0.0945068521,
				"z": 4.052060982,
				"element": "H" 
			},
			{
				"x": -2.6685886873,
				"y": -1.7755078527,
				"z": 2.2098996532,
				"element": "H" 
			},
			{
				"x": -1.0760200675,
				"y": -1.6863938575,
				"z": 0.3081879192,
				"element": "H" 
			}
		],
		 "valence_orbital": [ 
			{
				"type": "occ",
				"energy": -0.29381,
				"method": "rhf"
			},
			{
				"type": "occ",
				"energy": -0.28967,
				"method": "rhf"
			},
			{
				"type": "occ",
				"energy": -0.28432,
				"method": "rhf"
			},
			{
				"type": "occ",
				"energy": -0.25326,
				"method": "rhf"
			},
			{
				"type": "occ",
				"energy": -0.23504,
				"method": "rhf"
			},
			{
				"type": "unocc",
				"energy": -0.05496,
				"method": "rhf"
			},
			{
				"type": "unocc",
				"energy": -0.02119,
				"method": "rhf"
			},
			{
				"type": "unocc",
				"energy": -0.01416,
				"method": "rhf"
			},
			{
				"type": "unocc",
				"energy": 0.00141,
				"method": "rhf"
			},
			{
				"type": "unocc",
				"energy": 0.03879,
				"method": "rhf"
			}
		],
		"cosmo_sigma_profile": { 
			"-0.025": 0.0,
			"-0.024": 0.0,
			"-0.023": 0.0,
			"-0.022": 0.0,
			"-0.021": 0.0,
			"-0.02": 0.0,
			"-0.019": 0.0,
			"-0.018": 0.0,
			"-0.017": 0.0,
			"-0.016": 0.0,
			"-0.015": 0.0,
			"-0.014": 0.0,
			"-0.013": 0.0,
			"-0.012": 0.0,
			"-0.011": 0.950447389058,
			"-0.01": 2.05089278375,
			"-0.009": 3.59229345309,
			"-0.008": 6.44549836335,
			"-0.007": 9.8524546888,
			"-0.006": 13.5231786235,
			"-0.005": 13.7216480411,
			"-0.004": 10.40987986,
			"-0.003": 11.5522330491,
			"-0.002": 14.9330143094,
			"-0.001": 15.3686134546,
			"0.0": 20.3647513608,
			"0.001": 22.0070084283,
			"0.002": 24.5357278558,
			"0.003": 21.4011175475,
			"0.004": 17.436875655,
			"0.005": 12.6364424102,
			"0.006": 14.2564621952,
			"0.007": 7.21941021021,
			"0.008": 1.13234080939,
			"0.009": 0.70460533137,
			"0.01": 1.48144328601,
			"0.011": 0.505783592254,
			"0.012": 0.916455741411,
			"0.013": 0.358819671853,
			"0.014": 0.0,
			"0.015": 0.0,
			"0.016": 0.0,
			"0.017": 0.0,
			"0.018": 0.0,
			"0.019": 0.0,
			"0.02": 0.0,
			"0.021": 0.0,
			"0.022": 0.0,
			"0.023": 0.0,
			"0.024": 0.0,
			"0.025": 0.0
		}
	}
}
