{
	 "smiles": "FC(F)(F)COC(=O)NC1=C2C=CN=CC2=CC=C1", 
	 "Tm": 455.15, 
	 "num_atms": 28, 
	 "gaussian": { 
		 "optdone": 1, 
		 "sigma_profile": "yes", 
		 "theory": "DFT", 
		 "functional": "B3LYP", 
		 "basiset": "6-31G**", 
		 "properties": { 
			 "R2extent": 6557.1636, 
			 "electric_dipole_moment_norm": 1.50264195669, 
			 "electric_quadrupole_moment_norm": 13.5284339009, 
			 "total_energy": -1022.19883494, 
			 "HOMO_LUMO_gap": 0.16393, 
			 "cosmo_polarized_energy": -13.64, 
			 "cosmo_cavitation_energy": 34.38, 
			 "cosmo_dispersion_energy": -24.09, 
			 "cosmo_repulsion_energy": 1.76, 
			 "cosmo_total_nonelectrostatic_energy": 12.04, 
			 "SMD_solvation_energy": 6.46 
		},
		"coords": [
			{
				"x": -3.2062536354,
				"y": -4.0442850843,
				"z": 2.4189349667,
				"element": "F" 
			},
			{
				"x": -2.7422739176,
				"y": -2.9146759124,
				"z": 1.8497765215,
				"element": "C" 
			},
			{
				"x": -3.6050709514,
				"y": -2.5527848189,
				"z": 0.875741457,
				"element": "F" 
			},
			{
				"x": -2.7467663623,
				"y": -1.9380082752,
				"z": 2.7750829032,
				"element": "F" 
			},
			{
				"x": -1.3472781347,
				"y": -3.152834739,
				"z": 1.296252166,
				"element": "C" 
			},
			{
				"x": -0.901529065,
				"y": -1.9725471768,
				"z": 0.6401092409,
				"element": "O" 
			},
			{
				"x": -0.035238487,
				"y": -1.1865951683,
				"z": 1.3455424956,
				"element": "C" 
			},
			{
				"x": 0.4923938734,
				"y": -1.5068616102,
				"z": 2.3910780593,
				"element": "O" 
			},
			{
				"x": 0.2015983222,
				"y": 0.0054395356,
				"z": 0.7130454885,
				"element": "N" 
			},
			{
				"x": -0.3733410587,
				"y": 0.5778501733,
				"z": -0.4477942228,
				"element": "C" 
			},
			{
				"x": 0.4572781709,
				"y": 1.4351129715,
				"z": -1.2403612326,
				"element": "C" 
			},
			{
				"x": 1.8340667731,
				"y": 1.6783227849,
				"z": -0.9926478056,
				"element": "C" 
			},
			{
				"x": 2.5311486587,
				"y": 2.5400391025,
				"z": -1.8092974067,
				"element": "C" 
			},
			{
				"x": 1.9847114628,
				"y": 3.1962743099,
				"z": -2.8681025162,
				"element": "N" 
			},
			{
				"x": 0.713827783,
				"y": 2.9662467899,
				"z": -3.1225530791,
				"element": "C" 
			},
			{
				"x": -0.1215247003,
				"y": 2.0968155329,
				"z": -2.3668566211,
				"element": "C" 
			},
			{
				"x": -1.477891097,
				"y": 1.8713629864,
				"z": -2.70886857,
				"element": "C" 
			},
			{
				"x": -2.2387509401,
				"y": 1.0178880577,
				"z": -1.9444600201,
				"element": "C" 
			},
			{
				"x": -1.6958350808,
				"y": 0.3827101055,
				"z": -0.804353756,
				"element": "C" 
			},
			{
				"x": -1.3928036339,
				"y": -3.9495410892,
				"z": 0.5516851027,
				"element": "H" 
			},
			{
				"x": -0.6748650077,
				"y": -3.422580753,
				"z": 2.1122521039,
				"element": "H" 
			},
			{
				"x": 0.8918724506,
				"y": 0.5539867779,
				"z": 1.2055234456,
				"element": "H" 
			},
			{
				"x": 2.3582445761,
				"y": 1.1736400943,
				"z": -0.1877153649,
				"element": "H" 
			},
			{
				"x": 3.5872058904,
				"y": 2.7296495118,
				"z": -1.6321757828,
				"element": "H" 
			},
			{
				"x": 0.2826975196,
				"y": 3.4866026098,
				"z": -3.978800182,
				"element": "H" 
			},
			{
				"x": -1.8984358415,
				"y": 2.3755043649,
				"z": -3.5742597518,
				"element": "H" 
			},
			{
				"x": -3.2790723362,
				"y": 0.835874576,
				"z": -2.1958793746,
				"element": "H" 
			},
			{
				"x": -2.3239152311,
				"y": -0.2673056576,
				"z": -0.2094982643,
				"element": "H" 
			}
		],
		 "valence_orbital": [ 
			{
				"type": "occ",
				"energy": -0.2989,
				"method": "rhf"
			},
			{
				"type": "occ",
				"energy": -0.28836,
				"method": "rhf"
			},
			{
				"type": "occ",
				"energy": -0.26803,
				"method": "rhf"
			},
			{
				"type": "occ",
				"energy": -0.26057,
				"method": "rhf"
			},
			{
				"type": "occ",
				"energy": -0.225,
				"method": "rhf"
			},
			{
				"type": "unocc",
				"energy": -0.06107,
				"method": "rhf"
			},
			{
				"type": "unocc",
				"energy": -0.03156,
				"method": "rhf"
			},
			{
				"type": "unocc",
				"energy": 0.00714,
				"method": "rhf"
			},
			{
				"type": "unocc",
				"energy": 0.04317,
				"method": "rhf"
			},
			{
				"type": "unocc",
				"energy": 0.06388,
				"method": "rhf"
			}
		],
		"cosmo_sigma_profile": { 
			"-0.025": 0.0,
			"-0.024": 0.0,
			"-0.023": 0.0,
			"-0.022": 0.0,
			"-0.021": 0.0,
			"-0.02": 0.0,
			"-0.019": 0.0,
			"-0.018": 0.0,
			"-0.017": 0.0,
			"-0.016": 0.170934311957,
			"-0.015": 1.08281046001,
			"-0.014": 1.15843804181,
			"-0.013": 1.00052805094,
			"-0.012": 0.885008353397,
			"-0.011": 1.35970079398,
			"-0.01": 2.0056078023,
			"-0.009": 4.23913609699,
			"-0.008": 5.59957093498,
			"-0.007": 10.602932824,
			"-0.006": 14.104430502,
			"-0.005": 14.8468589916,
			"-0.004": 14.2369134762,
			"-0.003": 13.780408739,
			"-0.002": 13.2890506872,
			"-0.001": 16.0097972688,
			"0.0": 17.7401719035,
			"0.001": 28.7726618715,
			"0.002": 43.2682637924,
			"0.003": 29.5835569736,
			"0.004": 10.3315156321,
			"0.005": 5.21573393637,
			"0.006": 2.88461735542,
			"0.007": 3.05685847801,
			"0.008": 3.01233689559,
			"0.009": 2.35615225384,
			"0.01": 2.70875825693,
			"0.011": 4.15442149344,
			"0.012": 4.81092160426,
			"0.013": 0.99382541216,
			"0.014": 1.31754422255,
			"0.015": 0.873357114959,
			"0.016": 0.683044449447,
			"0.017": 0.303805408807,
			"0.018": 0.0,
			"0.019": 0.0,
			"0.02": 0.0,
			"0.021": 0.0,
			"0.022": 0.0,
			"0.023": 0.0,
			"0.024": 0.0,
			"0.025": 0.0
		}
	}
}
