{
	 "smiles": "ClC(=O)C1=CC=C(S1)C1=CC=CC=C1", 
	 "Tm": 351.15, 
	 "num_atms": 21, 
	 "gaussian": { 
		 "optdone": 1, 
		 "sigma_profile": "yes", 
		 "theory": "DFT", 
		 "functional": "B3LYP", 
		 "basiset": "6-31G**", 
		 "properties": { 
			 "R2extent": 5023.0826, 
			 "electric_dipole_moment_norm": 5.61388681129, 
			 "electric_quadrupole_moment_norm": 15.027196715, 
			 "total_energy": -1356.99409629, 
			 "HOMO_LUMO_gap": 0.14981, 
			 "cosmo_polarized_energy": -7.98, 
			 "cosmo_cavitation_energy": 29.36, 
			 "cosmo_dispersion_energy": -22.06, 
			 "cosmo_repulsion_energy": 1.67, 
			 "cosmo_total_nonelectrostatic_energy": 8.97, 
			 "SMD_solvation_energy": 5.25 
		},
		"coords": [
			{
				"x": -0.5406111138,
				"y": -3.5807151077,
				"z": 3.2305179352,
				"element": "Cl" 
			},
			{
				"x": -1.2049154451,
				"y": -3.7385925401,
				"z": 1.5271480361,
				"element": "C" 
			},
			{
				"x": -1.9436953698,
				"y": -4.6412170653,
				"z": 1.2596658051,
				"element": "O" 
			},
			{
				"x": -0.7465085064,
				"y": -2.6998022453,
				"z": 0.6207199524,
				"element": "C" 
			},
			{
				"x": -1.1291012136,
				"y": -2.6204304501,
				"z": -0.7067775694,
				"element": "C" 
			},
			{
				"x": -0.5571000007,
				"y": -1.5231310691,
				"z": -1.3799297887,
				"element": "C" 
			},
			{
				"x": 0.2666339833,
				"y": -0.7524162266,
				"z": -0.5736394213,
				"element": "C" 
			},
			{
				"x": 0.3441389745,
				"y": -1.4050333604,
				"z": 1.0406176388,
				"element": "S" 
			},
			{
				"x": 1.015595801,
				"y": 0.4541327936,
				"z": -0.9453832606,
				"element": "C" 
			},
			{
				"x": 1.3315959078,
				"y": 1.4437180468,
				"z": 0.0031959442,
				"element": "C" 
			},
			{
				"x": 2.0396867855,
				"y": 2.5840271554,
				"z": -0.3685523741,
				"element": "C" 
			},
			{
				"x": 2.4406316168,
				"y": 2.7625926834,
				"z": -1.6941507477,
				"element": "C" 
			},
			{
				"x": 2.1322394521,
				"y": 1.7878524992,
				"z": -2.6459478747,
				"element": "C" 
			},
			{
				"x": 1.431067137,
				"y": 0.6428586904,
				"z": -2.2768276816,
				"element": "C" 
			},
			{
				"x": -1.8099327754,
				"y": -3.3360498987,
				"z": -1.1516515148,
				"element": "H" 
			},
			{
				"x": -0.7627216776,
				"y": -1.2785349485,
				"z": -2.4151626792,
				"element": "H" 
			},
			{
				"x": 1.0010233243,
				"y": 1.3291502321,
				"z": 1.0314744889,
				"element": "H" 
			},
			{
				"x": 2.2705685999,
				"y": 3.3385919789,
				"z": 0.3774339301,
				"element": "H" 
			},
			{
				"x": 2.9905738237,
				"y": 3.6531644347,
				"z": -1.9830843088,
				"element": "H" 
			},
			{
				"x": 2.4480301293,
				"y": 1.9141099678,
				"z": -3.6773267869,
				"element": "H" 
			},
			{
				"x": 1.2235005674,
				"y": -0.1235755706,
				"z": -3.0168397228,
				"element": "H" 
			}
		],
		 "valence_orbital": [ 
			{
				"type": "occ",
				"energy": -0.29539,
				"method": "rhf"
			},
			{
				"type": "occ",
				"energy": -0.29104,
				"method": "rhf"
			},
			{
				"type": "occ",
				"energy": -0.27633,
				"method": "rhf"
			},
			{
				"type": "occ",
				"energy": -0.26942,
				"method": "rhf"
			},
			{
				"type": "occ",
				"energy": -0.23741,
				"method": "rhf"
			},
			{
				"type": "unocc",
				"energy": -0.0876,
				"method": "rhf"
			},
			{
				"type": "unocc",
				"energy": -0.02655,
				"method": "rhf"
			},
			{
				"type": "unocc",
				"energy": -0.02181,
				"method": "rhf"
			},
			{
				"type": "unocc",
				"energy": 0.00424,
				"method": "rhf"
			},
			{
				"type": "unocc",
				"energy": 0.02867,
				"method": "rhf"
			}
		],
		"cosmo_sigma_profile": { 
			"-0.025": 0.0,
			"-0.024": 0.0,
			"-0.023": 0.0,
			"-0.022": 0.0,
			"-0.021": 0.0,
			"-0.02": 0.0,
			"-0.019": 0.0,
			"-0.018": 0.0,
			"-0.017": 0.0,
			"-0.016": 0.0,
			"-0.015": 0.0,
			"-0.014": 0.0,
			"-0.013": 0.0,
			"-0.012": 0.0,
			"-0.011": 0.0,
			"-0.01": 0.0,
			"-0.009": 0.504342732555,
			"-0.008": 3.73361608337,
			"-0.007": 7.18734856799,
			"-0.006": 13.0696705377,
			"-0.005": 14.9511909746,
			"-0.004": 15.5186339677,
			"-0.003": 12.7938242678,
			"-0.002": 14.1634559395,
			"-0.001": 17.7656181573,
			"0.0": 23.8255622536,
			"0.001": 27.440487872,
			"0.002": 26.8315916683,
			"0.003": 18.9463834718,
			"0.004": 20.3611048353,
			"0.005": 9.65473492682,
			"0.006": 2.64071315354,
			"0.007": 2.62218832308,
			"0.008": 3.11337749436,
			"0.009": 4.97952701789,
			"0.01": 1.06738598579,
			"0.011": 0.0,
			"0.012": 0.0,
			"0.013": 0.0,
			"0.014": 0.0,
			"0.015": 0.0,
			"0.016": 0.0,
			"0.017": 0.0,
			"0.018": 0.0,
			"0.019": 0.0,
			"0.02": 0.0,
			"0.021": 0.0,
			"0.022": 0.0,
			"0.023": 0.0,
			"0.024": 0.0,
			"0.025": 0.0
		}
	}
}
