{
	 "smiles": "CCNC(=S)NN", 
	 "Tm": 355.65, 
	 "num_atms": 16, 
	 "gaussian": { 
		 "optdone": 1, 
		 "sigma_profile": "yes", 
		 "theory": "DFT", 
		 "functional": "B3LYP", 
		 "basiset": "6-31G**", 
		 "properties": { 
			 "R2extent": 1138.455, 
			 "electric_dipole_moment_norm": 5.30783157042, 
			 "electric_quadrupole_moment_norm": 9.80585503717, 
			 "total_energy": -682.162979185, 
			 "HOMO_LUMO_gap": 0.19345, 
			 "cosmo_polarized_energy": -17.28, 
			 "cosmo_cavitation_energy": 20.71, 
			 "cosmo_dispersion_energy": -15.66, 
			 "cosmo_repulsion_energy": 1.32, 
			 "cosmo_total_nonelectrostatic_energy": 6.37, 
			 "SMD_solvation_energy": 2.92 
		},
		"coords": [
			{
				"x": 0.2530447309,
				"y": 2.8215894921,
				"z": 0.788260963,
				"element": "C" 
			},
			{
				"x": 1.3835937339,
				"y": 1.9560022379,
				"z": 0.2225392727,
				"element": "C" 
			},
			{
				"x": 1.300406839,
				"y": 0.5474763938,
				"z": 0.637105334,
				"element": "N" 
			},
			{
				"x": 0.3416371913,
				"y": -0.3662201607,
				"z": 0.3469821344,
				"element": "C" 
			},
			{
				"x": 0.0450038952,
				"y": -1.6893778944,
				"z": 1.3539116782,
				"element": "S" 
			},
			{
				"x": -0.4302060722,
				"y": -0.2148317742,
				"z": -0.7837686593,
				"element": "N" 
			},
			{
				"x": 0.0685171569,
				"y": 0.424390876,
				"z": -1.939909587,
				"element": "N" 
			},
			{
				"x": -0.7201476443,
				"y": 2.4690429525,
				"z": 0.4343350266,
				"element": "H" 
			},
			{
				"x": 0.3774528315,
				"y": 3.8614783044,
				"z": 0.467405784,
				"element": "H" 
			},
			{
				"x": 0.2430411799,
				"y": 2.8002726973,
				"z": 1.8826222808,
				"element": "H" 
			},
			{
				"x": 1.3912568175,
				"y": 1.9997883173,
				"z": -0.8654097155,
				"element": "H" 
			},
			{
				"x": 2.3527518041,
				"y": 2.3164653185,
				"z": 0.5817902963,
				"element": "H" 
			},
			{
				"x": 1.7434803727,
				"y": 0.3255651544,
				"z": 1.5185463933,
				"element": "H" 
			},
			{
				"x": -1.0439542808,
				"y": -1.0136585004,
				"z": -0.9115627471,
				"element": "H" 
			},
			{
				"x": -0.6969963951,
				"y": 0.9111577505,
				"z": -2.3966198513,
				"element": "H" 
			},
			{
				"x": 0.4503178394,
				"y": -0.264841165,
				"z": -2.5866286031,
				"element": "H" 
			}
		],
		 "valence_orbital": [ 
			{
				"type": "occ",
				"energy": -0.35117,
				"method": "rhf"
			},
			{
				"type": "occ",
				"energy": -0.28516,
				"method": "rhf"
			},
			{
				"type": "occ",
				"energy": -0.2626,
				"method": "rhf"
			},
			{
				"type": "occ",
				"energy": -0.20848,
				"method": "rhf"
			},
			{
				"type": "occ",
				"energy": -0.19697,
				"method": "rhf"
			},
			{
				"type": "unocc",
				"energy": -0.00352,
				"method": "rhf"
			},
			{
				"type": "unocc",
				"energy": 0.05119,
				"method": "rhf"
			},
			{
				"type": "unocc",
				"energy": 0.0816,
				"method": "rhf"
			},
			{
				"type": "unocc",
				"energy": 0.1087,
				"method": "rhf"
			},
			{
				"type": "unocc",
				"energy": 0.12502,
				"method": "rhf"
			}
		],
		"cosmo_sigma_profile": { 
			"-0.025": 0.0,
			"-0.024": 0.0,
			"-0.023": 0.0,
			"-0.022": 0.0,
			"-0.021": 0.0,
			"-0.02": 0.0,
			"-0.019": 0.0,
			"-0.018": 0.0,
			"-0.017": 0.0,
			"-0.016": 0.0,
			"-0.015": 0.0,
			"-0.014": 0.150546352958,
			"-0.013": 2.36290995533,
			"-0.012": 6.24202442646,
			"-0.011": 5.73476551329,
			"-0.01": 6.15405327996,
			"-0.009": 4.27694226733,
			"-0.008": 4.10721093588,
			"-0.007": 3.55796628644,
			"-0.006": 3.06500959659,
			"-0.005": 4.92403349424,
			"-0.004": 6.37730314792,
			"-0.003": 9.58774184205,
			"-0.002": 13.1577013221,
			"-0.001": 11.844830132,
			"0.0": 12.1734140682,
			"0.001": 11.1304877952,
			"0.002": 4.03324958619,
			"0.003": 3.82868994857,
			"0.004": 6.23303951341,
			"0.005": 5.59066294369,
			"0.006": 6.37780977608,
			"0.007": 4.97914548893,
			"0.008": 3.04577762883,
			"0.009": 3.38012186189,
			"0.01": 4.16199734673,
			"0.011": 6.74467570148,
			"0.012": 7.9088580311,
			"0.013": 3.15940950781,
			"0.014": 0.0887333244017,
			"0.015": 0.0,
			"0.016": 0.0,
			"0.017": 0.0,
			"0.018": 0.0,
			"0.019": 0.0,
			"0.02": 0.0,
			"0.021": 0.0,
			"0.022": 0.0,
			"0.023": 0.0,
			"0.024": 0.0,
			"0.025": 0.0
		}
	}
}
