{
	 "smiles": "OC(=O)C1=NC(OCC(F)(F)F)=CC=C1", 
	 "Tm": 412.15, 
	 "num_atms": 21, 
	 "gaussian": { 
		 "optdone": 1, 
		 "sigma_profile": "yes", 
		 "theory": "DFT", 
		 "functional": "B3LYP", 
		 "basiset": "6-31G**", 
		 "properties": { 
			 "R2extent": 4293.0561, 
			 "electric_dipole_moment_norm": 5.0333139014, 
			 "electric_quadrupole_moment_norm": 16.8502338631, 
			 "total_energy": -888.426079236, 
			 "HOMO_LUMO_gap": 0.19207, 
			 "cosmo_polarized_energy": -13.04, 
			 "cosmo_cavitation_energy": 27.92, 
			 "cosmo_dispersion_energy": -19.48, 
			 "cosmo_repulsion_energy": 1.47, 
			 "cosmo_total_nonelectrostatic_energy": 9.91, 
			 "SMD_solvation_energy": 7.33 
		},
		"coords": [
			{
				"x": 1.7213220566,
				"y": -2.0794623567,
				"z": 0.0515101878,
				"element": "O" 
			},
			{
				"x": 2.7681544812,
				"y": -1.2630715915,
				"z": 0.2562237163,
				"element": "C" 
			},
			{
				"x": 3.8183847873,
				"y": -1.6412951989,
				"z": 0.722242824,
				"element": "O" 
			},
			{
				"x": 2.5203283437,
				"y": 0.1671751525,
				"z": -0.1550291134,
				"element": "C" 
			},
			{
				"x": 1.2692003373,
				"y": 0.4482654848,
				"z": -0.5741798642,
				"element": "N" 
			},
			{
				"x": 1.0087090728,
				"y": 1.6836134949,
				"z": -0.9704285296,
				"element": "C" 
			},
			{
				"x": -0.2399349773,
				"y": 2.0267131808,
				"z": -1.3874501573,
				"element": "O" 
			},
			{
				"x": -1.2886546367,
				"y": 1.0745054477,
				"z": -1.2922815739,
				"element": "C" 
			},
			{
				"x": -1.4544614406,
				"y": 0.2849827536,
				"z": -2.5838179746,
				"element": "C" 
			},
			{
				"x": -0.3768350925,
				"y": -0.4702326924,
				"z": -2.8679240452,
				"element": "F" 
			},
			{
				"x": -2.518432936,
				"y": -0.5370740747,
				"z": -2.4563143306,
				"element": "F" 
			},
			{
				"x": -1.674815568,
				"y": 1.0960929174,
				"z": -3.6329194442,
				"element": "F" 
			},
			{
				"x": 1.9694908232,
				"y": 2.7106696196,
				"z": -0.9791981891,
				"element": "C" 
			},
			{
				"x": 3.2489485628,
				"y": 2.4051292818,
				"z": -0.5415497011,
				"element": "C" 
			},
			{
				"x": 3.5423597875,
				"y": 1.1038078279,
				"z": -0.1131105106,
				"element": "C" 
			},
			{
				"x": 1.0145279171,
				"y": -1.5350300211,
				"z": -0.3478468554,
				"element": "H" 
			},
			{
				"x": -1.1309438602,
				"y": 0.3758696877,
				"z": -0.4687571046,
				"element": "H" 
			},
			{
				"x": -2.207271313,
				"y": 1.6418237469,
				"z": -1.1296264008,
				"element": "H" 
			},
			{
				"x": 1.6891322258,
				"y": 3.7008400675,
				"z": -1.3184119344,
				"element": "H" 
			},
			{
				"x": 4.0163890729,
				"y": 3.1730472582,
				"z": -0.5322608465,
				"element": "H" 
			},
			{
				"x": 4.5233023562,
				"y": 0.8061300138,
				"z": 0.2358298472,
				"element": "H" 
			}
		],
		 "valence_orbital": [ 
			{
				"type": "occ",
				"energy": -0.32016,
				"method": "rhf"
			},
			{
				"type": "occ",
				"energy": -0.31636,
				"method": "rhf"
			},
			{
				"type": "occ",
				"energy": -0.31324,
				"method": "rhf"
			},
			{
				"type": "occ",
				"energy": -0.27226,
				"method": "rhf"
			},
			{
				"type": "occ",
				"energy": -0.2638,
				"method": "rhf"
			},
			{
				"type": "unocc",
				"energy": -0.07173,
				"method": "rhf"
			},
			{
				"type": "unocc",
				"energy": -0.03437,
				"method": "rhf"
			},
			{
				"type": "unocc",
				"energy": 0.04738,
				"method": "rhf"
			},
			{
				"type": "unocc",
				"energy": 0.0724,
				"method": "rhf"
			},
			{
				"type": "unocc",
				"energy": 0.07833,
				"method": "rhf"
			}
		],
		"cosmo_sigma_profile": { 
			"-0.025": 0.0,
			"-0.024": 0.0,
			"-0.023": 0.0,
			"-0.022": 0.0,
			"-0.021": 0.0,
			"-0.02": 0.0,
			"-0.019": 0.0,
			"-0.018": 0.0,
			"-0.017": 0.0,
			"-0.016": 0.0,
			"-0.015": 0.0,
			"-0.014": 0.0,
			"-0.013": 0.0,
			"-0.012": 0.23063440609,
			"-0.011": 0.459498909204,
			"-0.01": 1.14080794112,
			"-0.009": 4.18702304806,
			"-0.008": 9.63691591427,
			"-0.007": 10.9496245978,
			"-0.006": 12.0032375592,
			"-0.005": 10.7346451008,
			"-0.004": 10.8153574469,
			"-0.003": 9.01917193979,
			"-0.002": 13.163143114,
			"-0.001": 19.3462449317,
			"0.0": 18.3859039472,
			"0.001": 17.7734865794,
			"0.002": 26.5922818164,
			"0.003": 22.6200997808,
			"0.004": 4.3275615448,
			"0.005": 3.58627191843,
			"0.006": 2.8358211912,
			"0.007": 3.93491705092,
			"0.008": 4.07938952682,
			"0.009": 2.96019290863,
			"0.01": 5.36776596822,
			"0.011": 5.37942377815,
			"0.012": 3.74153690157,
			"0.013": 1.00477597354,
			"0.014": 0.0,
			"0.015": 0.0,
			"0.016": 0.0,
			"0.017": 0.0,
			"0.018": 0.0,
			"0.019": 0.0,
			"0.02": 0.0,
			"0.021": 0.0,
			"0.022": 0.0,
			"0.023": 0.0,
			"0.024": 0.0,
			"0.025": 0.0
		}
	}
}
