{
	 "smiles": "CCOC1=CC=C2C=CC=CC2=C1C=O", 
	 "Tm": 387.15, 
	 "num_atms": 27, 
	 "gaussian": { 
		 "optdone": 1, 
		 "sigma_profile": "yes", 
		 "theory": "DFT", 
		 "functional": "B3LYP", 
		 "basiset": "6-31G**", 
		 "properties": { 
			 "R2extent": 4112.5322, 
			 "electric_dipole_moment_norm": 4.93234805949, 
			 "electric_quadrupole_moment_norm": 15.1335383695, 
			 "total_energy": -653.059932528, 
			 "HOMO_LUMO_gap": 0.14731, 
			 "cosmo_polarized_energy": -10.63, 
			 "cosmo_cavitation_energy": 30.34, 
			 "cosmo_dispersion_energy": -22.34, 
			 "cosmo_repulsion_energy": 1.72, 
			 "cosmo_total_nonelectrostatic_energy": 9.72, 
			 "SMD_solvation_energy": 6.25 
		},
		"coords": [
			{
				"x": -0.7750330006,
				"y": -2.8657245897,
				"z": -2.6151814428,
				"element": "C" 
			},
			{
				"x": 0.0159471659,
				"y": -1.7740361506,
				"z": -1.9165695079,
				"element": "C" 
			},
			{
				"x": -0.8416362893,
				"y": -1.1943219297,
				"z": -0.9285385509,
				"element": "O" 
			},
			{
				"x": -0.3943023826,
				"y": -0.1814258058,
				"z": -0.1391148106,
				"element": "C" 
			},
			{
				"x": 0.9198542435,
				"y": 0.3349675225,
				"z": -0.2635216596,
				"element": "C" 
			},
			{
				"x": 1.3315758592,
				"y": 1.3593563678,
				"z": 0.5537993581,
				"element": "C" 
			},
			{
				"x": 0.4755579643,
				"y": 1.9255546393,
				"z": 1.5307919668,
				"element": "C" 
			},
			{
				"x": 0.9239684716,
				"y": 2.9842918813,
				"z": 2.3639293425,
				"element": "C" 
			},
			{
				"x": 0.0924347432,
				"y": 3.5332945625,
				"z": 3.3119281922,
				"element": "C" 
			},
			{
				"x": -1.2221876678,
				"y": 3.0338579904,
				"z": 3.4539380743,
				"element": "C" 
			},
			{
				"x": -1.6898930518,
				"y": 2.006204781,
				"z": 2.6610480399,
				"element": "C" 
			},
			{
				"x": -0.8575102646,
				"y": 1.4141012205,
				"z": 1.6696580538,
				"element": "C" 
			},
			{
				"x": -1.2905889429,
				"y": 0.3388097908,
				"z": 0.8122045633,
				"element": "C" 
			},
			{
				"x": -2.6402150416,
				"y": -0.2589796744,
				"z": 0.8733581763,
				"element": "C" 
			},
			{
				"x": -3.546883451,
				"y": 0.0608889605,
				"z": 1.6312694758,
				"element": "O" 
			},
			{
				"x": -1.6663786447,
				"y": -2.4508830706,
				"z": -3.0936014557,
				"element": "H" 
			},
			{
				"x": -1.090294629,
				"y": -3.6314009277,
				"z": -1.9011641935,
				"element": "H" 
			},
			{
				"x": -0.1572092601,
				"y": -3.3402937793,
				"z": -3.3835256606,
				"element": "H" 
			},
			{
				"x": 0.9126518589,
				"y": -2.1869212665,
				"z": -1.4355553871,
				"element": "H" 
			},
			{
				"x": 0.3351836867,
				"y": -1.0036154412,
				"z": -2.6310591044,
				"element": "H" 
			},
			{
				"x": 1.6023306108,
				"y": -0.0719254478,
				"z": -0.9984256428,
				"element": "H" 
			},
			{
				"x": 2.3406610679,
				"y": 1.7516258794,
				"z": 0.4539713824,
				"element": "H" 
			},
			{
				"x": 1.9392456954,
				"y": 3.3514456989,
				"z": 2.2360077347,
				"element": "H" 
			},
			{
				"x": 0.4395759308,
				"y": 4.3429525222,
				"z": 3.9469816806,
				"element": "H" 
			},
			{
				"x": -1.8798072957,
				"y": 3.4669503408,
				"z": 4.2026807399,
				"element": "H" 
			},
			{
				"x": -2.6967850419,
				"y": 1.6318438564,
				"z": 2.7781265875,
				"element": "H" 
			},
			{
				"x": -2.8035623347,
				"y": -1.0720179308,
				"z": 0.1449640479,
				"element": "H" 
			}
		],
		 "valence_orbital": [ 
			{
				"type": "occ",
				"energy": -0.3094,
				"method": "rhf"
			},
			{
				"type": "occ",
				"energy": -0.27693,
				"method": "rhf"
			},
			{
				"type": "occ",
				"energy": -0.2387,
				"method": "rhf"
			},
			{
				"type": "occ",
				"energy": -0.23243,
				"method": "rhf"
			},
			{
				"type": "occ",
				"energy": -0.21329,
				"method": "rhf"
			},
			{
				"type": "unocc",
				"energy": -0.06598,
				"method": "rhf"
			},
			{
				"type": "unocc",
				"energy": -0.00643,
				"method": "rhf"
			},
			{
				"type": "unocc",
				"energy": -0.00154,
				"method": "rhf"
			},
			{
				"type": "unocc",
				"energy": 0.05582,
				"method": "rhf"
			},
			{
				"type": "unocc",
				"energy": 0.08501,
				"method": "rhf"
			}
		],
		"cosmo_sigma_profile": { 
			"-0.025": 0.0,
			"-0.024": 0.0,
			"-0.023": 0.0,
			"-0.022": 0.0,
			"-0.021": 0.0,
			"-0.02": 0.0,
			"-0.019": 0.0,
			"-0.018": 0.0,
			"-0.017": 0.0,
			"-0.016": 0.0,
			"-0.015": 0.0,
			"-0.014": 0.0,
			"-0.013": 0.0,
			"-0.012": 0.0,
			"-0.011": 0.0,
			"-0.01": 0.0,
			"-0.009": 0.0,
			"-0.008": 0.522900754543,
			"-0.007": 6.50643328874,
			"-0.006": 12.3873671553,
			"-0.005": 18.466056251,
			"-0.004": 22.5173096903,
			"-0.003": 20.2771542032,
			"-0.002": 18.8640432764,
			"-0.001": 16.3337695844,
			"0.0": 20.6189305593,
			"0.001": 16.3218857975,
			"0.002": 21.7278937493,
			"0.003": 21.6817938335,
			"0.004": 16.5698165311,
			"0.005": 12.1974228568,
			"0.006": 2.02329321623,
			"0.007": 1.80242063864,
			"0.008": 2.4286172837,
			"0.009": 1.53517975878,
			"0.01": 2.11691189153,
			"0.011": 2.38191121996,
			"0.012": 2.85419772791,
			"0.013": 1.79166187684,
			"0.014": 0.520525758065,
			"0.015": 0.0,
			"0.016": 0.0,
			"0.017": 0.0,
			"0.018": 0.0,
			"0.019": 0.0,
			"0.02": 0.0,
			"0.021": 0.0,
			"0.022": 0.0,
			"0.023": 0.0,
			"0.024": 0.0,
			"0.025": 0.0
		}
	}
}
