{
	 "smiles": "OC(=O)C1=NN(C=C1)C1=CC(Br)=CC=C1", 
	 "Tm": 416.15, 
	 "num_atms": 22, 
	 "gaussian": { 
		 "optdone": 1, 
		 "sigma_profile": "yes", 
		 "theory": "DFT", 
		 "functional": "B3LYP", 
		 "basiset": "6-31G**", 
		 "properties": { 
			 "R2extent": 7136.125, 
			 "electric_dipole_moment_norm": 5.00181956292, 
			 "electric_quadrupole_moment_norm": 28.1850859745, 
			 "total_energy": -3216.62793473, 
			 "HOMO_LUMO_gap": 0.18636, 
			 "cosmo_polarized_energy": -14.22, 
			 "cosmo_cavitation_energy": 29.92, 
			 "cosmo_dispersion_energy": -22.42, 
			 "cosmo_repulsion_energy": 1.73, 
			 "cosmo_total_nonelectrostatic_energy": 9.24, 
			 "SMD_solvation_energy": 5.09 
		},
		"coords": [
			{
				"x": 3.9755745788,
				"y": 0.1735838864,
				"z": 0.6172616242,
				"element": "O" 
			},
			{
				"x": 3.6679986883,
				"y": -0.7558295764,
				"z": -0.3138639963,
				"element": "C" 
			},
			{
				"x": 4.4727177827,
				"y": -1.5673644263,
				"z": -0.7069367453,
				"element": "O" 
			},
			{
				"x": 2.2676579344,
				"y": -0.6962290711,
				"z": -0.808836348,
				"element": "C" 
			},
			{
				"x": 1.426505605,
				"y": 0.2236107788,
				"z": -0.3350027964,
				"element": "N" 
			},
			{
				"x": 0.2600613409,
				"y": 0.0082761528,
				"z": -0.9785332521,
				"element": "N" 
			},
			{
				"x": 0.3625632336,
				"y": -1.0440601331,
				"z": -1.856238768,
				"element": "C" 
			},
			{
				"x": 1.6478635309,
				"y": -1.5232381432,
				"z": -1.7722592543,
				"element": "C" 
			},
			{
				"x": -0.8707407014,
				"y": 0.8275642121,
				"z": -0.7054453899,
				"element": "C" 
			},
			{
				"x": -2.079123979,
				"y": 0.6017058334,
				"z": -1.3741649742,
				"element": "C" 
			},
			{
				"x": -3.1699757735,
				"y": 1.418320665,
				"z": -1.0876521125,
				"element": "C" 
			},
			{
				"x": -4.8153384031,
				"y": 1.1049113793,
				"z": -2.0031438443,
				"element": "Br" 
			},
			{
				"x": -3.0888931172,
				"y": 2.4503853544,
				"z": -0.1557452322,
				"element": "C" 
			},
			{
				"x": -1.8742426662,
				"y": 2.6579256102,
				"z": 0.49941343,
				"element": "C" 
			},
			{
				"x": -0.7654490734,
				"y": 1.8585243795,
				"z": 0.2349117377,
				"element": "C" 
			},
			{
				"x": 3.183903354,
				"y": 0.7150410256,
				"z": 0.7801354712,
				"element": "H" 
			},
			{
				"x": -0.4683146427,
				"y": -1.3667296244,
				"z": -2.4621930839,
				"element": "H" 
			},
			{
				"x": 2.0926795554,
				"y": -2.342967744,
				"z": -2.313557063,
				"element": "H" 
			},
			{
				"x": -2.1870585646,
				"y": -0.1881747708,
				"z": -2.1052425738,
				"element": "H" 
			},
			{
				"x": -3.9509497616,
				"y": 3.0730231585,
				"z": 0.0509343162,
				"element": "H" 
			},
			{
				"x": -1.7912801694,
				"y": 3.4573828593,
				"z": 1.2291752976,
				"element": "H" 
			},
			{
				"x": 0.1757412481,
				"y": 2.0195381941,
				"z": 0.7427835573,
				"element": "H" 
			}
		],
		 "valence_orbital": [ 
			{
				"type": "occ",
				"energy": -0.30344,
				"method": "rhf"
			},
			{
				"type": "occ",
				"energy": -0.28294,
				"method": "rhf"
			},
			{
				"type": "occ",
				"energy": -0.27435,
				"method": "rhf"
			},
			{
				"type": "occ",
				"energy": -0.26784,
				"method": "rhf"
			},
			{
				"type": "occ",
				"energy": -0.25037,
				"method": "rhf"
			},
			{
				"type": "unocc",
				"energy": -0.06401,
				"method": "rhf"
			},
			{
				"type": "unocc",
				"energy": -0.03684,
				"method": "rhf"
			},
			{
				"type": "unocc",
				"energy": -0.0171,
				"method": "rhf"
			},
			{
				"type": "unocc",
				"energy": -0.01085,
				"method": "rhf"
			},
			{
				"type": "unocc",
				"energy": 0.01856,
				"method": "rhf"
			}
		],
		"cosmo_sigma_profile": { 
			"-0.025": 0.0,
			"-0.024": 0.0,
			"-0.023": 0.0,
			"-0.022": 0.0,
			"-0.021": 0.0,
			"-0.02": 0.0,
			"-0.019": 0.0,
			"-0.018": 0.0,
			"-0.017": 0.0,
			"-0.016": 0.0,
			"-0.015": 0.260410966575,
			"-0.014": 0.569172186118,
			"-0.013": 0.840113953233,
			"-0.012": 2.2368758876,
			"-0.011": 2.79610410359,
			"-0.01": 2.56856145111,
			"-0.009": 2.82628104494,
			"-0.008": 4.4873190502,
			"-0.007": 9.57954291377,
			"-0.006": 10.986249317,
			"-0.005": 11.0275237133,
			"-0.004": 12.2549018011,
			"-0.003": 13.6733252465,
			"-0.002": 13.4863436101,
			"-0.001": 17.5068330614,
			"0.0": 20.3977952481,
			"0.001": 27.7030996612,
			"0.002": 26.8892539168,
			"0.003": 16.9157593015,
			"0.004": 15.1687905556,
			"0.005": 5.35381066951,
			"0.006": 2.45635465377,
			"0.007": 2.15199442753,
			"0.008": 2.43352337776,
			"0.009": 4.43020810618,
			"0.01": 5.07277242464,
			"0.011": 5.01191786798,
			"0.012": 4.69300657982,
			"0.013": 1.26398725193,
			"0.014": 0.0243023321571,
			"0.015": 0.0,
			"0.016": 0.0,
			"0.017": 0.0,
			"0.018": 0.0,
			"0.019": 0.0,
			"0.02": 0.0,
			"0.021": 0.0,
			"0.022": 0.0,
			"0.023": 0.0,
			"0.024": 0.0,
			"0.025": 0.0
		}
	}
}
