{
	 "smiles": "OC1=C(Cl)C=C(C=C1)C#N", 
	 "Tm": 425.15, 
	 "num_atms": 14, 
	 "gaussian": { 
		 "optdone": 1, 
		 "sigma_profile": "yes", 
		 "theory": "DFT", 
		 "functional": "B3LYP", 
		 "basiset": "6-31G**", 
		 "properties": { 
			 "R2extent": 2548.8421, 
			 "electric_dipole_moment_norm": 4.01405663886, 
			 "electric_quadrupole_moment_norm": 10.0901412844, 
			 "total_energy": -859.303716415, 
			 "HOMO_LUMO_gap": 0.19913, 
			 "cosmo_polarized_energy": -10.51, 
			 "cosmo_cavitation_energy": 21.5, 
			 "cosmo_dispersion_energy": -15.7, 
			 "cosmo_repulsion_energy": 1.27, 
			 "cosmo_total_nonelectrostatic_energy": 7.08, 
			 "SMD_solvation_energy": 5.29 
		},
		"coords": [
			{
				"x": -1.6761837246,
				"y": -3.4407753378,
				"z": 0.2909880675,
				"element": "O" 
			},
			{
				"x": -1.3192727282,
				"y": -2.2367642914,
				"z": -0.1995487784,
				"element": "C" 
			},
			{
				"x": -0.1853018871,
				"y": -2.0377632979,
				"z": -1.0080788116,
				"element": "C" 
			},
			{
				"x": 0.8169757074,
				"y": -3.4300060562,
				"z": -1.3982322069,
				"element": "Cl" 
			},
			{
				"x": 0.1474046516,
				"y": -0.7811322128,
				"z": -1.4931628979,
				"element": "C" 
			},
			{
				"x": -0.6634165303,
				"y": 0.3190463116,
				"z": -1.1720261055,
				"element": "C" 
			},
			{
				"x": -1.8002881835,
				"y": 0.1321425383,
				"z": -0.3639784078,
				"element": "C" 
			},
			{
				"x": -2.120547263,
				"y": -1.1293241255,
				"z": 0.1136651167,
				"element": "C" 
			},
			{
				"x": -0.3296107621,
				"y": 1.6202896741,
				"z": -1.6671319548,
				"element": "C" 
			},
			{
				"x": -0.0603528662,
				"y": 2.6787776098,
				"z": -2.0683543654,
				"element": "N" 
			},
			{
				"x": -1.0373231426,
				"y": -4.1093394573,
				"z": -0.0030121529,
				"element": "H" 
			},
			{
				"x": 1.0263048754,
				"y": -0.6540971626,
				"z": -2.1141986213,
				"element": "H" 
			},
			{
				"x": -2.4259416505,
				"y": 0.9825812448,
				"z": -0.1164555724,
				"element": "H" 
			},
			{
				"x": -2.9927464965,
				"y": -1.2913354372,
				"z": 0.737426691,
				"element": "H" 
			}
		],
		 "valence_orbital": [ 
			{
				"type": "occ",
				"energy": -0.35094,
				"method": "rhf"
			},
			{
				"type": "occ",
				"energy": -0.33434,
				"method": "rhf"
			},
			{
				"type": "occ",
				"energy": -0.33179,
				"method": "rhf"
			},
			{
				"type": "occ",
				"energy": -0.28111,
				"method": "rhf"
			},
			{
				"type": "occ",
				"energy": -0.2509,
				"method": "rhf"
			},
			{
				"type": "unocc",
				"energy": -0.05177,
				"method": "rhf"
			},
			{
				"type": "unocc",
				"energy": -0.03891,
				"method": "rhf"
			},
			{
				"type": "unocc",
				"energy": -0.00204,
				"method": "rhf"
			},
			{
				"type": "unocc",
				"energy": 0.03426,
				"method": "rhf"
			},
			{
				"type": "unocc",
				"energy": 0.06896,
				"method": "rhf"
			}
		],
		"cosmo_sigma_profile": { 
			"-0.025": 0.0,
			"-0.024": 0.0,
			"-0.023": 0.0,
			"-0.022": 0.0,
			"-0.021": 0.0,
			"-0.02": 0.0,
			"-0.019": 0.0,
			"-0.018": 0.0,
			"-0.017": 0.0,
			"-0.016": 0.376181650571,
			"-0.015": 0.80010806123,
			"-0.014": 0.977464473778,
			"-0.013": 0.423406009175,
			"-0.012": 0.829496000397,
			"-0.011": 0.996059035992,
			"-0.01": 1.19339778534,
			"-0.009": 3.69539933137,
			"-0.008": 6.01304811532,
			"-0.007": 7.49446189313,
			"-0.006": 7.4461552007,
			"-0.005": 6.05994648239,
			"-0.004": 6.72158298906,
			"-0.003": 8.75487634102,
			"-0.002": 11.9801544923,
			"-0.001": 16.0596838871,
			"0.0": 20.7321931512,
			"0.001": 17.2355551548,
			"0.002": 11.300908148,
			"0.003": 9.77762526139,
			"0.004": 5.44727093391,
			"0.005": 3.47600361357,
			"0.006": 3.53294940048,
			"0.007": 4.6796662059,
			"0.008": 4.52805038807,
			"0.009": 5.49424274755,
			"0.01": 3.57477336719,
			"0.011": 2.77389043059,
			"0.012": 2.57286826423,
			"0.013": 1.60634456978,
			"0.014": 0.0841295164665,
			"0.015": 0.0,
			"0.016": 0.0,
			"0.017": 0.0,
			"0.018": 0.0,
			"0.019": 0.0,
			"0.02": 0.0,
			"0.021": 0.0,
			"0.022": 0.0,
			"0.023": 0.0,
			"0.024": 0.0,
			"0.025": 0.0
		}
	}
}
