{
	 "smiles": "O1C(=CC=C1C1=CC=CC=C1)C1=CC=CC=C1", 
	 "Tm": 362.65, 
	 "num_atms": 29, 
	 "gaussian": { 
		 "optdone": 1, 
		 "sigma_profile": "yes", 
		 "theory": "DFT", 
		 "functional": "B3LYP", 
		 "basiset": "6-31G**", 
		 "properties": { 
			 "R2extent": 6269.6865, 
			 "electric_dipole_moment_norm": 0.503656092984, 
			 "electric_quadrupole_moment_norm": 13.5112931694, 
			 "total_energy": -692.155240036, 
			 "HOMO_LUMO_gap": 0.14658, 
			 "cosmo_polarized_energy": -7.13, 
			 "cosmo_cavitation_energy": 33.48, 
			 "cosmo_dispersion_energy": -24.43, 
			 "cosmo_repulsion_energy": 1.84, 
			 "cosmo_total_nonelectrostatic_energy": 10.89, 
			 "SMD_solvation_energy": 5.76 
		},
		"coords": [
			{
				"x": 0.788699265,
				"y": 1.1552841153,
				"z": 0.1029090994,
				"element": "O" 
			},
			{
				"x": 0.1601476648,
				"y": 1.6109703669,
				"z": 1.2321065443,
				"element": "C" 
			},
			{
				"x": -0.0309673884,
				"y": 0.5555733274,
				"z": 2.0914464807,
				"element": "C" 
			},
			{
				"x": 0.5060021303,
				"y": -0.5976419511,
				"z": 1.4568466714,
				"element": "C" 
			},
			{
				"x": 0.9995482896,
				"y": -0.1917741202,
				"z": 0.2400713483,
				"element": "C" 
			},
			{
				"x": 1.6612919635,
				"y": -0.8843989943,
				"z": -0.8568546566,
				"element": "C" 
			},
			{
				"x": 1.9086626348,
				"y": -2.2682216408,
				"z": -0.7804438237,
				"element": "C" 
			},
			{
				"x": 2.5405174034,
				"y": -2.9346543833,
				"z": -1.8257992125,
				"element": "C" 
			},
			{
				"x": 2.9398186919,
				"y": -2.2380981283,
				"z": -2.9698247741,
				"element": "C" 
			},
			{
				"x": 2.6991107183,
				"y": -0.8654100833,
				"z": -3.0554149384,
				"element": "C" 
			},
			{
				"x": 2.0670196532,
				"y": -0.1921391405,
				"z": -2.012538763,
				"element": "C" 
			},
			{
				"x": -0.1613859863,
				"y": 3.0298680962,
				"z": 1.2971061986,
				"element": "C" 
			},
			{
				"x": 0.1635004376,
				"y": 3.8967566364,
				"z": 0.2376665592,
				"element": "C" 
			},
			{
				"x": -0.1490243058,
				"y": 5.2522421567,
				"z": 0.3111946186,
				"element": "C" 
			},
			{
				"x": -0.7897371411,
				"y": 5.7716063313,
				"z": 1.4378190505,
				"element": "C" 
			},
			{
				"x": -1.1166394168,
				"y": 4.918452826,
				"z": 2.49550202,
				"element": "C" 
			},
			{
				"x": -0.8073115637,
				"y": 3.5634756463,
				"z": 2.4284925384,
				"element": "C" 
			},
			{
				"x": -0.5001680213,
				"y": 0.5971122555,
				"z": 3.0634550368,
				"element": "H" 
			},
			{
				"x": 0.5239288092,
				"y": -1.6022830135,
				"z": 1.8531502614,
				"element": "H" 
			},
			{
				"x": 1.6041281202,
				"y": -2.8225333955,
				"z": 0.1020668304,
				"element": "H" 
			},
			{
				"x": 2.7222963569,
				"y": -4.0027976151,
				"z": -1.7474853463,
				"element": "H" 
			},
			{
				"x": 3.4327625033,
				"y": -2.760175982,
				"z": -3.7844565324,
				"element": "H" 
			},
			{
				"x": 3.0051510929,
				"y": -0.3137858708,
				"z": -3.9399004955,
				"element": "H" 
			},
			{
				"x": 1.8827039563,
				"y": 0.8738940437,
				"z": -2.0846430648,
				"element": "H" 
			},
			{
				"x": 0.6611085429,
				"y": 3.4991131316,
				"z": -0.6397535249,
				"element": "H" 
			},
			{
				"x": 0.1098173042,
				"y": 5.906065004,
				"z": -0.5169233606,
				"element": "H" 
			},
			{
				"x": -1.0320648833,
				"y": 6.8287259904,
				"z": 1.4922151985,
				"element": "H" 
			},
			{
				"x": -1.6152499652,
				"y": 5.3107161352,
				"z": 3.3773314026,
				"element": "H" 
			},
			{
				"x": -1.0674668663,
				"y": 2.9128582558,
				"z": 3.257858634,
				"element": "H" 
			}
		],
		 "valence_orbital": [ 
			{
				"type": "occ",
				"energy": -0.28332,
				"method": "rhf"
			},
			{
				"type": "occ",
				"energy": -0.25235,
				"method": "rhf"
			},
			{
				"type": "occ",
				"energy": -0.25128,
				"method": "rhf"
			},
			{
				"type": "occ",
				"energy": -0.25071,
				"method": "rhf"
			},
			{
				"type": "occ",
				"energy": -0.191,
				"method": "rhf"
			},
			{
				"type": "unocc",
				"energy": -0.04442,
				"method": "rhf"
			},
			{
				"type": "unocc",
				"energy": -0.00675,
				"method": "rhf"
			},
			{
				"type": "unocc",
				"energy": -3e-05,
				"method": "rhf"
			},
			{
				"type": "unocc",
				"energy": 0.0016,
				"method": "rhf"
			},
			{
				"type": "unocc",
				"energy": 0.06636,
				"method": "rhf"
			}
		],
		"cosmo_sigma_profile": { 
			"-0.025": 0.0,
			"-0.024": 0.0,
			"-0.023": 0.0,
			"-0.022": 0.0,
			"-0.021": 0.0,
			"-0.02": 0.0,
			"-0.019": 0.0,
			"-0.018": 0.0,
			"-0.017": 0.0,
			"-0.016": 0.0,
			"-0.015": 0.0,
			"-0.014": 0.0,
			"-0.013": 0.0,
			"-0.012": 0.0,
			"-0.011": 0.0,
			"-0.01": 0.0,
			"-0.009": 0.0,
			"-0.008": 2.15446399753,
			"-0.007": 5.76657084769,
			"-0.006": 13.8694908747,
			"-0.005": 19.7657016992,
			"-0.004": 25.5951068995,
			"-0.003": 20.124160747,
			"-0.002": 16.1438397738,
			"-0.001": 15.518182267,
			"0.0": 13.9334066294,
			"0.001": 17.7162379087,
			"0.002": 28.8314515361,
			"0.003": 30.5662790468,
			"0.004": 25.8563660273,
			"0.005": 25.6568207313,
			"0.006": 8.29442149399,
			"0.007": 0.0,
			"0.008": 0.0,
			"0.009": 0.0,
			"0.01": 0.0,
			"0.011": 0.0,
			"0.012": 0.0,
			"0.013": 0.0,
			"0.014": 0.0,
			"0.015": 0.0,
			"0.016": 0.0,
			"0.017": 0.0,
			"0.018": 0.0,
			"0.019": 0.0,
			"0.02": 0.0,
			"0.021": 0.0,
			"0.022": 0.0,
			"0.023": 0.0,
			"0.024": 0.0,
			"0.025": 0.0
		}
	}
}
