{
	 "smiles": "CCC1=C2NC=C(C(O)=O)C2=CC=C1", 
	 "Tm": 467.15, 
	 "num_atms": 25, 
	 "gaussian": { 
		 "optdone": 1, 
		 "sigma_profile": "yes", 
		 "theory": "DFT", 
		 "functional": "B3LYP", 
		 "basiset": "6-31G**", 
		 "properties": { 
			 "R2extent": 3676.9389, 
			 "electric_dipole_moment_norm": 3.15384573656, 
			 "electric_quadrupole_moment_norm": 16.3787379697, 
			 "total_energy": -631.0364495, 
			 "HOMO_LUMO_gap": 0.18401, 
			 "cosmo_polarized_energy": -14.99, 
			 "cosmo_cavitation_energy": 28.88, 
			 "cosmo_dispersion_energy": -20.96, 
			 "cosmo_repulsion_energy": 1.64, 
			 "cosmo_total_nonelectrostatic_energy": 9.57, 
			 "SMD_solvation_energy": 5.97 
		},
		"coords": [
			{
				"x": 2.4818597913,
				"y": 1.2575919752,
				"z": 1.7122388698,
				"element": "C" 
			},
			{
				"x": 1.7169185897,
				"y": -0.0379522053,
				"z": 2.0440704122,
				"element": "C" 
			},
			{
				"x": 0.6442700002,
				"y": -0.380193632,
				"z": 1.0339035258,
				"element": "C" 
			},
			{
				"x": -0.6025841475,
				"y": 0.2664467318,
				"z": 1.0236888527,
				"element": "C" 
			},
			{
				"x": -1.0922006102,
				"y": 1.2453403876,
				"z": 1.8826822024,
				"element": "N" 
			},
			{
				"x": -2.3619752617,
				"y": 1.5876771449,
				"z": 1.5158609218,
				"element": "C" 
			},
			{
				"x": -2.7378672011,
				"y": 0.8497582614,
				"z": 0.4117505963,
				"element": "C" 
			},
			{
				"x": -4.0504498628,
				"y": 1.0001162231,
				"z": -0.2095020997,
				"element": "C" 
			},
			{
				"x": -4.2276073633,
				"y": 0.1825192087,
				"z": -1.2841751289,
				"element": "O" 
			},
			{
				"x": -4.9238536931,
				"y": 1.764889463,
				"z": 0.1628208726,
				"element": "O" 
			},
			{
				"x": -1.6221157457,
				"y": -0.0087750244,
				"z": 0.0758709394,
				"element": "C" 
			},
			{
				"x": -1.3834391785,
				"y": -0.9753907978,
				"z": -0.9159106952,
				"element": "C" 
			},
			{
				"x": -0.1565266799,
				"y": -1.6252955265,
				"z": -0.9220692334,
				"element": "C" 
			},
			{
				"x": 0.8352719368,
				"y": -1.3335322994,
				"z": 0.0351975465,
				"element": "C" 
			},
			{
				"x": 1.8089344849,
				"y": 2.1199076549,
				"z": 1.6541113011,
				"element": "H" 
			},
			{
				"x": 2.9840075742,
				"y": 1.1721782206,
				"z": 0.7439327219,
				"element": "H" 
			},
			{
				"x": 3.2401657512,
				"y": 1.4714900297,
				"z": 2.4726831219,
				"element": "H" 
			},
			{
				"x": 1.2737575469,
				"y": 0.0472823917,
				"z": 3.04661496,
				"element": "H" 
			},
			{
				"x": 2.4270856229,
				"y": -0.869872642,
				"z": 2.1030080457,
				"element": "H" 
			},
			{
				"x": -0.5907157761,
				"y": 1.6401188442,
				"z": 2.6617511972,
				"element": "H" 
			},
			{
				"x": -2.9324774132,
				"y": 2.3323699814,
				"z": 2.05096272,
				"element": "H" 
			},
			{
				"x": -5.1243481263,
				"y": 0.3722239777,
				"z": -1.6056557644,
				"element": "H" 
			},
			{
				"x": -2.1475008811,
				"y": -1.2018330281,
				"z": -1.6501289708,
				"element": "H" 
			},
			{
				"x": 0.046458954,
				"y": -2.3789054729,
				"z": -1.6775081891,
				"element": "H" 
			},
			{
				"x": 1.7809316885,
				"y": -1.8689598676,
				"z": -0.0007987256,
				"element": "H" 
			}
		],
		 "valence_orbital": [ 
			{
				"type": "occ",
				"energy": -0.30599,
				"method": "rhf"
			},
			{
				"type": "occ",
				"energy": -0.27442,
				"method": "rhf"
			},
			{
				"type": "occ",
				"energy": -0.26393,
				"method": "rhf"
			},
			{
				"type": "occ",
				"energy": -0.22768,
				"method": "rhf"
			},
			{
				"type": "occ",
				"energy": -0.21084,
				"method": "rhf"
			},
			{
				"type": "unocc",
				"energy": -0.02683,
				"method": "rhf"
			},
			{
				"type": "unocc",
				"energy": 0.00567,
				"method": "rhf"
			},
			{
				"type": "unocc",
				"energy": 0.02287,
				"method": "rhf"
			},
			{
				"type": "unocc",
				"energy": 0.05526,
				"method": "rhf"
			},
			{
				"type": "unocc",
				"energy": 0.09029,
				"method": "rhf"
			}
		],
		"cosmo_sigma_profile": { 
			"-0.025": 0.0,
			"-0.024": 0.0,
			"-0.023": 0.0,
			"-0.022": 0.0,
			"-0.021": 0.0,
			"-0.02": 0.0,
			"-0.019": 0.0,
			"-0.018": 0.320644156701,
			"-0.017": 0.702394985642,
			"-0.016": 1.84466493165,
			"-0.015": 1.92253934378,
			"-0.014": 1.50121889596,
			"-0.013": 1.76533590627,
			"-0.012": 1.83999593235,
			"-0.011": 2.48954271332,
			"-0.01": 2.7295121828,
			"-0.009": 4.20076017169,
			"-0.008": 3.5279776764,
			"-0.007": 3.3808342207,
			"-0.006": 3.092958164,
			"-0.005": 7.67747994363,
			"-0.004": 11.2681146793,
			"-0.003": 16.4069922413,
			"-0.002": 17.8908538802,
			"-0.001": 18.5763498328,
			"0.0": 19.6518461338,
			"0.001": 18.9457105921,
			"0.002": 14.8117988911,
			"0.003": 14.8260723407,
			"0.004": 16.0958262735,
			"0.005": 13.0640180907,
			"0.006": 9.95898349006,
			"0.007": 5.94499161318,
			"0.008": 1.47217145727,
			"0.009": 0.98870233029,
			"0.01": 1.66108059593,
			"0.011": 2.23208197069,
			"0.012": 3.89297718797,
			"0.013": 4.45383341236,
			"0.014": 0.0349558199647,
			"0.015": 0.0,
			"0.016": 0.0,
			"0.017": 0.0,
			"0.018": 0.0,
			"0.019": 0.0,
			"0.02": 0.0,
			"0.021": 0.0,
			"0.022": 0.0,
			"0.023": 0.0,
			"0.024": 0.0,
			"0.025": 0.0
		}
	}
}
