{
	 "smiles": "CCCCCCCC(=O)NCC(O)=O", 
	 "Tm": 378.15, 
	 "num_atms": 33, 
	 "gaussian": { 
		 "optdone": 1, 
		 "sigma_profile": "yes", 
		 "theory": "DFT", 
		 "functional": "B3LYP", 
		 "basiset": "6-31G**", 
		 "properties": { 
			 "R2extent": 3926.6719, 
			 "electric_dipole_moment_norm": 4.47706246885, 
			 "electric_quadrupole_moment_norm": 15.0739746092, 
			 "total_energy": -672.976272185, 
			 "HOMO_LUMO_gap": 0.23718, 
			 "cosmo_polarized_energy": -17.35, 
			 "cosmo_cavitation_energy": 33.78, 
			 "cosmo_dispersion_energy": -23.18, 
			 "cosmo_repulsion_energy": 1.86, 
			 "cosmo_total_nonelectrostatic_energy": 12.47, 
			 "SMD_solvation_energy": 6.79 
		},
		"coords": [
			{
				"x": -2.8486717254,
				"y": -1.4830541502,
				"z": 0.4829754831,
				"element": "C" 
			},
			{
				"x": -2.1505757925,
				"y": -0.42515644,
				"z": 1.3470737295,
				"element": "C" 
			},
			{
				"x": -1.3514908976,
				"y": -1.0076925217,
				"z": 2.5286189189,
				"element": "C" 
			},
			{
				"x": -0.0780796303,
				"y": -1.8187487723,
				"z": 2.1929637034,
				"element": "C" 
			},
			{
				"x": 1.2348248078,
				"y": -1.0107927699,
				"z": 2.1354610616,
				"element": "C" 
			},
			{
				"x": 1.4837453546,
				"y": -0.0689096016,
				"z": 0.9409760971,
				"element": "C" 
			},
			{
				"x": 1.7828296769,
				"y": -0.7694578049,
				"z": -0.4107765506,
				"element": "C" 
			},
			{
				"x": 0.5600529549,
				"y": -1.2476452933,
				"z": -1.1812781109,
				"element": "C" 
			},
			{
				"x": 0.1705191907,
				"y": -2.4088243215,
				"z": -1.15223743,
				"element": "O" 
			},
			{
				"x": -0.1561071035,
				"y": -0.3037607113,
				"z": -1.8919163556,
				"element": "N" 
			},
			{
				"x": 0.2608161735,
				"y": 1.0273274322,
				"z": -2.2516929778,
				"element": "C" 
			},
			{
				"x": 1.2833722735,
				"y": 1.0777473211,
				"z": -3.3873230166,
				"element": "C" 
			},
			{
				"x": 1.4520553246,
				"y": 2.3499537573,
				"z": -3.8153946526,
				"element": "O" 
			},
			{
				"x": 1.8848233778,
				"y": 0.1327863378,
				"z": -3.8387505233,
				"element": "O" 
			},
			{
				"x": -2.1311727559,
				"y": -2.139223138,
				"z": -0.0183521628,
				"element": "H" 
			},
			{
				"x": -3.4631847617,
				"y": -1.0109653809,
				"z": -0.292126693,
				"element": "H" 
			},
			{
				"x": -3.5126262254,
				"y": -2.1085267086,
				"z": 1.0916216337,
				"element": "H" 
			},
			{
				"x": -1.5026767899,
				"y": 0.1887633903,
				"z": 0.7097720167,
				"element": "H" 
			},
			{
				"x": -2.9083218881,
				"y": 0.2586212599,
				"z": 1.7529780827,
				"element": "H" 
			},
			{
				"x": -1.0802106722,
				"y": -0.193155505,
				"z": 3.2153578471,
				"element": "H" 
			},
			{
				"x": -2.034933344,
				"y": -1.6537216443,
				"z": 3.0964897048,
				"element": "H" 
			},
			{
				"x": -0.2092962642,
				"y": -2.3890766159,
				"z": 1.268248777,
				"element": "H" 
			},
			{
				"x": 0.0584770734,
				"y": -2.56655001,
				"z": 2.9844603564,
				"element": "H" 
			},
			{
				"x": 1.3067244454,
				"y": -0.4101780381,
				"z": 3.0531744678,
				"element": "H" 
			},
			{
				"x": 2.0755973297,
				"y": -1.716851077,
				"z": 2.1761526606,
				"element": "H" 
			},
			{
				"x": 2.3617543923,
				"y": 0.5416251319,
				"z": 1.1858433478,
				"element": "H" 
			},
			{
				"x": 0.6518491097,
				"y": 0.6369951178,
				"z": 0.8297886275,
				"element": "H" 
			},
			{
				"x": 2.3926903361,
				"y": -1.6595950198,
				"z": -0.2357234006,
				"element": "H" 
			},
			{
				"x": 2.3728701,
				"y": -0.1018547547,
				"z": -1.0469022694,
				"element": "H" 
			},
			{
				"x": -0.8954637627,
				"y": -0.7214987334,
				"z": -2.4424296865,
				"element": "H" 
			},
			{
				"x": 0.6944304727,
				"y": 1.5505544028,
				"z": -1.3931477762,
				"element": "H" 
			},
			{
				"x": -0.612006188,
				"y": 1.6178542734,
				"z": -2.5466183331,
				"element": "H" 
			},
			{
				"x": 2.1290854079,
				"y": 2.3213105876,
				"z": -4.5125865769,
				"element": "H" 
			}
		],
		 "valence_orbital": [ 
			{
				"type": "occ",
				"energy": -0.29999,
				"method": "rhf"
			},
			{
				"type": "occ",
				"energy": -0.29849,
				"method": "rhf"
			},
			{
				"type": "occ",
				"energy": -0.29666,
				"method": "rhf"
			},
			{
				"type": "occ",
				"energy": -0.25914,
				"method": "rhf"
			},
			{
				"type": "occ",
				"energy": -0.24556,
				"method": "rhf"
			},
			{
				"type": "unocc",
				"energy": -0.00838,
				"method": "rhf"
			},
			{
				"type": "unocc",
				"energy": 0.01657,
				"method": "rhf"
			},
			{
				"type": "unocc",
				"energy": 0.06177,
				"method": "rhf"
			},
			{
				"type": "unocc",
				"energy": 0.06932,
				"method": "rhf"
			},
			{
				"type": "unocc",
				"energy": 0.09235,
				"method": "rhf"
			}
		],
		"cosmo_sigma_profile": { 
			"-0.025": 0.0,
			"-0.024": 0.0,
			"-0.023": 0.0,
			"-0.022": 0.0,
			"-0.021": 0.0,
			"-0.02": 0.0,
			"-0.019": 0.134971743402,
			"-0.018": 0.924682038866,
			"-0.017": 1.11936844405,
			"-0.016": 0.968349764114,
			"-0.015": 0.674105187181,
			"-0.014": 0.88870844116,
			"-0.013": 1.5620619357,
			"-0.012": 2.45021232561,
			"-0.011": 2.40578718207,
			"-0.01": 2.00732956517,
			"-0.009": 2.98902009142,
			"-0.008": 5.9737402933,
			"-0.007": 5.91761804542,
			"-0.006": 6.46426218281,
			"-0.005": 6.06099618934,
			"-0.004": 8.48716366246,
			"-0.003": 14.0419099671,
			"-0.002": 26.0300731543,
			"-0.001": 33.7723851521,
			"0.0": 31.6657330209,
			"0.001": 26.8107094054,
			"0.002": 24.1275344784,
			"0.003": 7.71187932134,
			"0.004": 4.49793771453,
			"0.005": 5.1459681076,
			"0.006": 5.41142251384,
			"0.007": 4.33614872446,
			"0.008": 4.27511557395,
			"0.009": 4.61972425086,
			"0.01": 4.29979679269,
			"0.011": 5.90451379353,
			"0.012": 2.78885621617,
			"0.013": 3.39644245666,
			"0.014": 3.0863949962,
			"0.015": 0.631836527901,
			"0.016": 0.0,
			"0.017": 0.0,
			"0.018": 0.0,
			"0.019": 0.0,
			"0.02": 0.0,
			"0.021": 0.0,
			"0.022": 0.0,
			"0.023": 0.0,
			"0.024": 0.0,
			"0.025": 0.0
		}
	}
}
