{
	 "smiles": "O=C1C=CC(=O)N1C1=CC=CC=C1", 
	 "Tm": 362.95, 
	 "num_atms": 20, 
	 "gaussian": { 
		 "optdone": 1, 
		 "sigma_profile": "yes", 
		 "theory": "DFT", 
		 "functional": "B3LYP", 
		 "basiset": "6-31G**", 
		 "properties": { 
			 "R2extent": 3113.3706, 
			 "electric_dipole_moment_norm": 1.29977246086, 
			 "electric_quadrupole_moment_norm": 17.6098870777, 
			 "total_energy": -590.478215955, 
			 "HOMO_LUMO_gap": 0.13713, 
			 "cosmo_polarized_energy": -10.45, 
			 "cosmo_cavitation_energy": 25.01, 
			 "cosmo_dispersion_energy": -18.3, 
			 "cosmo_repulsion_energy": 1.43, 
			 "cosmo_total_nonelectrostatic_energy": 8.14, 
			 "SMD_solvation_energy": 5.92 
		},
		"coords": [
			{
				"x": 1.1906374883,
				"y": -0.052213332,
				"z": -2.2138107187,
				"element": "O" 
			},
			{
				"x": 2.0438706612,
				"y": -0.3474540434,
				"z": -1.4049365099,
				"element": "C" 
			},
			{
				"x": 3.276798388,
				"y": -1.1666445341,
				"z": -1.645337481,
				"element": "C" 
			},
			{
				"x": 3.9572053414,
				"y": -1.2708457709,
				"z": -0.501867065,
				"element": "C" 
			},
			{
				"x": 3.2231121496,
				"y": -0.5231709108,
				"z": 0.5710049027,
				"element": "C" 
			},
			{
				"x": 3.5490837429,
				"y": -0.3985792237,
				"z": 1.7318864891,
				"element": "O" 
			},
			{
				"x": 2.0692088642,
				"y": 0.0142092066,
				"z": -0.0402254836,
				"element": "N" 
			},
			{
				"x": 1.0790492041,
				"y": 0.8033008331,
				"z": 0.6206963723,
				"element": "C" 
			},
			{
				"x": 1.4661818198,
				"y": 1.7520969073,
				"z": 1.57434793,
				"element": "C" 
			},
			{
				"x": 0.493295461,
				"y": 2.5128795914,
				"z": 2.2213262168,
				"element": "C" 
			},
			{
				"x": -0.8577374986,
				"y": 2.3467517053,
				"z": 1.9132111367,
				"element": "C" 
			},
			{
				"x": -1.2349058813,
				"y": 1.4045242193,
				"z": 0.9552219942,
				"element": "C" 
			},
			{
				"x": -0.274604286,
				"y": 0.6247260438,
				"z": 0.31207808,
				"element": "C" 
			},
			{
				"x": 3.5027855644,
				"y": -1.5714068179,
				"z": -2.6229559922,
				"element": "H" 
			},
			{
				"x": 4.8859709447,
				"y": -1.7859562112,
				"z": -0.29522799,
				"element": "H" 
			},
			{
				"x": 2.5136624688,
				"y": 1.8799700167,
				"z": 1.8158192038,
				"element": "H" 
			},
			{
				"x": 0.7978017113,
				"y": 3.2429009088,
				"z": 2.9654446717,
				"element": "H" 
			},
			{
				"x": -1.6105698872,
				"y": 2.9467493778,
				"z": 2.4156168714,
				"element": "H" 
			},
			{
				"x": -2.283326953,
				"y": 1.2673093404,
				"z": 0.707535113,
				"element": "H" 
			},
			{
				"x": -0.5679193035,
				"y": -0.1041473064,
				"z": -0.4326277414,
				"element": "H" 
			}
		],
		 "valence_orbital": [ 
			{
				"type": "occ",
				"energy": -0.30812,
				"method": "rhf"
			},
			{
				"type": "occ",
				"energy": -0.30034,
				"method": "rhf"
			},
			{
				"type": "occ",
				"energy": -0.27439,
				"method": "rhf"
			},
			{
				"type": "occ",
				"energy": -0.25327,
				"method": "rhf"
			},
			{
				"type": "occ",
				"energy": -0.23791,
				"method": "rhf"
			},
			{
				"type": "unocc",
				"energy": -0.10078,
				"method": "rhf"
			},
			{
				"type": "unocc",
				"energy": -0.01277,
				"method": "rhf"
			},
			{
				"type": "unocc",
				"energy": -0.00366,
				"method": "rhf"
			},
			{
				"type": "unocc",
				"energy": 0.0592,
				"method": "rhf"
			},
			{
				"type": "unocc",
				"energy": 0.06133,
				"method": "rhf"
			}
		],
		"cosmo_sigma_profile": { 
			"-0.025": 0.0,
			"-0.024": 0.0,
			"-0.023": 0.0,
			"-0.022": 0.0,
			"-0.021": 0.0,
			"-0.02": 0.0,
			"-0.019": 0.0,
			"-0.018": 0.0,
			"-0.017": 0.0,
			"-0.016": 0.0,
			"-0.015": 0.0,
			"-0.014": 0.0,
			"-0.013": 0.0,
			"-0.012": 0.0,
			"-0.011": 0.0231850863447,
			"-0.01": 2.40444558025,
			"-0.009": 3.4696732986,
			"-0.008": 3.26313087446,
			"-0.007": 3.7704017636,
			"-0.006": 12.590247463,
			"-0.005": 18.9461233253,
			"-0.004": 20.4152022658,
			"-0.003": 16.2414677115,
			"-0.002": 13.9105921713,
			"-0.001": 11.6082762665,
			"0.0": 10.9518187134,
			"0.001": 9.94461273601,
			"0.002": 8.17499254554,
			"0.003": 9.73547867796,
			"0.004": 13.1245381848,
			"0.005": 12.8121228669,
			"0.006": 3.98792345205,
			"0.007": 3.71701500549,
			"0.008": 3.47305589484,
			"0.009": 4.99460849042,
			"0.01": 7.51104623532,
			"0.011": 6.43758955922,
			"0.012": 0.662218449515,
			"0.013": 0.0,
			"0.014": 0.0,
			"0.015": 0.0,
			"0.016": 0.0,
			"0.017": 0.0,
			"0.018": 0.0,
			"0.019": 0.0,
			"0.02": 0.0,
			"0.021": 0.0,
			"0.022": 0.0,
			"0.023": 0.0,
			"0.024": 0.0,
			"0.025": 0.0
		}
	}
}
