{
	 "smiles": "NC1=CC=CC=C1C1=CC2=CC=CC=C2N1", 
	 "Tm": 426.15, 
	 "num_atms": 28, 
	 "gaussian": { 
		 "optdone": 1, 
		 "sigma_profile": "yes", 
		 "theory": "DFT", 
		 "functional": "B3LYP", 
		 "basiset": "6-31G**", 
		 "properties": { 
			 "R2extent": 4352.9286, 
			 "electric_dipole_moment_norm": 2.74766882648, 
			 "electric_quadrupole_moment_norm": 8.55008363877, 
			 "total_energy": -650.244024973, 
			 "HOMO_LUMO_gap": 0.16022, 
			 "cosmo_polarized_energy": -11.26, 
			 "cosmo_cavitation_energy": 31.25, 
			 "cosmo_dispersion_energy": -23.3, 
			 "cosmo_repulsion_energy": 1.78, 
			 "cosmo_total_nonelectrostatic_energy": 9.74, 
			 "SMD_solvation_energy": 4.85 
		},
		"coords": [
			{
				"x": -0.2240801461,
				"y": -0.9585365457,
				"z": -2.3729974155,
				"element": "N" 
			},
			{
				"x": 1.0359627346,
				"y": -0.3243148484,
				"z": -2.3553426446,
				"element": "C" 
			},
			{
				"x": 1.8094203905,
				"y": -0.2769071769,
				"z": -3.5237716845,
				"element": "C" 
			},
			{
				"x": 3.0472216575,
				"y": 0.3600889022,
				"z": -3.5442236481,
				"element": "C" 
			},
			{
				"x": 3.5415653317,
				"y": 0.9596680001,
				"z": -2.3845063462,
				"element": "C" 
			},
			{
				"x": 2.7736336798,
				"y": 0.9324685399,
				"z": -1.2243540711,
				"element": "C" 
			},
			{
				"x": 1.5160496107,
				"y": 0.3065431052,
				"z": -1.1784160681,
				"element": "C" 
			},
			{
				"x": 0.7492273516,
				"y": 0.3366823831,
				"z": 0.0739275951,
				"element": "C" 
			},
			{
				"x": 1.1978521251,
				"y": 0.3727148152,
				"z": 1.379810146,
				"element": "C" 
			},
			{
				"x": 0.0532804822,
				"y": 0.4604297265,
				"z": 2.235593577,
				"element": "C" 
			},
			{
				"x": -0.1326565656,
				"y": 0.5243188705,
				"z": 3.6290771927,
				"element": "C" 
			},
			{
				"x": -1.4232656579,
				"y": 0.6089290374,
				"z": 4.1345043845,
				"element": "C" 
			},
			{
				"x": -2.5433399312,
				"y": 0.6291931555,
				"z": 3.2765890192,
				"element": "C" 
			},
			{
				"x": -2.3944813914,
				"y": 0.5605717652,
				"z": 1.8957857477,
				"element": "C" 
			},
			{
				"x": -1.0928681749,
				"y": 0.4747809446,
				"z": 1.3900565896,
				"element": "C" 
			},
			{
				"x": -0.6437999265,
				"y": 0.3794174025,
				"z": 0.0905179922,
				"element": "N" 
			},
			{
				"x": -0.4141670524,
				"y": -1.5009107496,
				"z": -1.5371585818,
				"element": "H" 
			},
			{
				"x": -0.3613738425,
				"y": -1.5299991832,
				"z": -3.197985885,
				"element": "H" 
			},
			{
				"x": 1.4325254651,
				"y": -0.7599099493,
				"z": -4.4226842543,
				"element": "H" 
			},
			{
				"x": 3.6250328482,
				"y": 0.3800985976,
				"z": -4.4637217559,
				"element": "H" 
			},
			{
				"x": 4.5052976706,
				"y": 1.4589992623,
				"z": -2.3879614641,
				"element": "H" 
			},
			{
				"x": 3.1306449171,
				"y": 1.4302308463,
				"z": -0.3281929543,
				"element": "H" 
			},
			{
				"x": 2.2320820346,
				"y": 0.3138949417,
				"z": 1.687958566,
				"element": "H" 
			},
			{
				"x": 0.7234110487,
				"y": 0.5123058885,
				"z": 4.2982077564,
				"element": "H" 
			},
			{
				"x": -1.5776997156,
				"y": 0.6624188739,
				"z": 5.2083571233,
				"element": "H" 
			},
			{
				"x": -3.5400669681,
				"y": 0.6989816208,
				"z": 3.702435777,
				"element": "H" 
			},
			{
				"x": -3.2571765812,
				"y": 0.5753315263,
				"z": 1.2354064071,
				"element": "H" 
			},
			{
				"x": -1.2065313947,
				"y": 0.4447102479,
				"z": -0.7445111003,
				"element": "H" 
			}
		],
		 "valence_orbital": [ 
			{
				"type": "occ",
				"energy": -0.27458,
				"method": "rhf"
			},
			{
				"type": "occ",
				"energy": -0.25588,
				"method": "rhf"
			},
			{
				"type": "occ",
				"energy": -0.22206,
				"method": "rhf"
			},
			{
				"type": "occ",
				"energy": -0.20768,
				"method": "rhf"
			},
			{
				"type": "occ",
				"energy": -0.18796,
				"method": "rhf"
			},
			{
				"type": "unocc",
				"energy": -0.02774,
				"method": "rhf"
			},
			{
				"type": "unocc",
				"energy": 0.00759,
				"method": "rhf"
			},
			{
				"type": "unocc",
				"energy": 0.02004,
				"method": "rhf"
			},
			{
				"type": "unocc",
				"energy": 0.03551,
				"method": "rhf"
			},
			{
				"type": "unocc",
				"energy": 0.07802,
				"method": "rhf"
			}
		],
		"cosmo_sigma_profile": { 
			"-0.025": 0.0,
			"-0.024": 0.0,
			"-0.023": 0.0,
			"-0.022": 0.0,
			"-0.021": 0.0,
			"-0.02": 0.0,
			"-0.019": 0.0,
			"-0.018": 0.0,
			"-0.017": 0.0,
			"-0.016": 0.0,
			"-0.015": 0.0,
			"-0.014": 0.0,
			"-0.013": 0.510179424639,
			"-0.012": 2.57567557737,
			"-0.011": 3.40491100613,
			"-0.01": 3.55148396225,
			"-0.009": 3.74627258729,
			"-0.008": 3.59618129492,
			"-0.007": 3.70000957059,
			"-0.006": 8.10871028455,
			"-0.005": 17.1578815,
			"-0.004": 20.1244997899,
			"-0.003": 20.3676727244,
			"-0.002": 17.033895402,
			"-0.001": 12.8620984978,
			"0.0": 13.7904522411,
			"0.001": 11.44091694,
			"0.002": 14.414865512,
			"0.003": 15.5747872545,
			"0.004": 19.1826973028,
			"0.005": 20.7124429646,
			"0.006": 21.381920418,
			"0.007": 13.2545759465,
			"0.008": 2.0150799009,
			"0.009": 0.582944194285,
			"0.01": 0.675697430726,
			"0.011": 0.249599848707,
			"0.012": 0.0,
			"0.013": 0.0,
			"0.014": 0.0,
			"0.015": 0.0,
			"0.016": 0.0,
			"0.017": 0.0,
			"0.018": 0.0,
			"0.019": 0.0,
			"0.02": 0.0,
			"0.021": 0.0,
			"0.022": 0.0,
			"0.023": 0.0,
			"0.024": 0.0,
			"0.025": 0.0
		}
	}
}
