{
	 "smiles": "CN1CCN(CCC2=CC=C(N)C=C2)CC1", 
	 "Tm": 338.15, 
	 "num_atms": 37, 
	 "gaussian": { 
		 "optdone": 1, 
		 "sigma_profile": "yes", 
		 "theory": "DFT", 
		 "functional": "B3LYP", 
		 "basiset": "6-31G**", 
		 "properties": { 
			 "R2extent": 6766.0026, 
			 "electric_dipole_moment_norm": 2.60510900732, 
			 "electric_quadrupole_moment_norm": 14.6682645695, 
			 "total_energy": -672.282553681, 
			 "HOMO_LUMO_gap": 0.19901, 
			 "cosmo_polarized_energy": -11.3, 
			 "cosmo_cavitation_energy": 37.4, 
			 "cosmo_dispersion_energy": -26.95, 
			 "cosmo_repulsion_energy": 2.11, 
			 "cosmo_total_nonelectrostatic_energy": 12.56, 
			 "SMD_solvation_energy": 0.55 
		},
		"coords": [
			{
				"x": -3.4870374065,
				"y": 2.8631390977,
				"z": 1.5561406498,
				"element": "C" 
			},
			{
				"x": -3.1081490858,
				"y": 1.6595486088,
				"z": 2.2873520688,
				"element": "N" 
			},
			{
				"x": -1.822528021,
				"y": 1.7584641355,
				"z": 2.9815031325,
				"element": "C" 
			},
			{
				"x": -0.6044413363,
				"y": 1.6035618134,
				"z": 2.0580362828,
				"element": "C" 
			},
			{
				"x": -0.6815728257,
				"y": 0.3342194776,
				"z": 1.3287742422,
				"element": "N" 
			},
			{
				"x": 0.5121318598,
				"y": 0.0993245559,
				"z": 0.5172684331,
				"element": "C" 
			},
			{
				"x": 0.6825854327,
				"y": -1.3706246998,
				"z": 0.0857127134,
				"element": "C" 
			},
			{
				"x": 1.9863776168,
				"y": -1.6050302408,
				"z": -0.6458223121,
				"element": "C" 
			},
			{
				"x": 3.1573085593,
				"y": -1.9449308247,
				"z": 0.0451494913,
				"element": "C" 
			},
			{
				"x": 4.3701316617,
				"y": -2.1255356534,
				"z": -0.6146188877,
				"element": "C" 
			},
			{
				"x": 4.4555909307,
				"y": -1.9692827211,
				"z": -2.0080812525,
				"element": "C" 
			},
			{
				"x": 5.6562739236,
				"y": -2.2098427791,
				"z": -2.685295704,
				"element": "N" 
			},
			{
				"x": 3.2875245165,
				"y": -1.6289645064,
				"z": -2.7100757269,
				"element": "C" 
			},
			{
				"x": 2.0819787107,
				"y": -1.4528345276,
				"z": -2.035524504,
				"element": "C" 
			},
			{
				"x": -1.9243328836,
				"y": 0.2699685412,
				"z": 0.5543101678,
				"element": "C" 
			},
			{
				"x": -3.1368464153,
				"y": 0.4358171111,
				"z": 1.484590662,
				"element": "C" 
			},
			{
				"x": -3.5199088032,
				"y": 3.7092625588,
				"z": 2.2512289556,
				"element": "H" 
			},
			{
				"x": -2.821695639,
				"y": 3.1444997509,
				"z": 0.7211521907,
				"element": "H" 
			},
			{
				"x": -4.4939509782,
				"y": 2.7307297942,
				"z": 1.1453294479,
				"element": "H" 
			},
			{
				"x": -1.7746700352,
				"y": 2.7168745452,
				"z": 3.5107394527,
				"element": "H" 
			},
			{
				"x": -1.783230238,
				"y": 0.9592582462,
				"z": 3.7333440794,
				"element": "H" 
			},
			{
				"x": 0.3112431647,
				"y": 1.6056785175,
				"z": 2.6614076667,
				"element": "H" 
			},
			{
				"x": -0.5367705163,
				"y": 2.4690174838,
				"z": 1.3678674811,
				"element": "H" 
			},
			{
				"x": 0.5367403978,
				"y": 0.7498468613,
				"z": -0.379935217,
				"element": "H" 
			},
			{
				"x": 1.3836354728,
				"y": 0.3777129475,
				"z": 1.1214416435,
				"element": "H" 
			},
			{
				"x": -0.1523131181,
				"y": -1.6721168642,
				"z": -0.5568925309,
				"element": "H" 
			},
			{
				"x": 0.6297029178,
				"y": -1.9947526951,
				"z": 0.9849314336,
				"element": "H" 
			},
			{
				"x": 3.1202310339,
				"y": -2.0755145347,
				"z": 1.1245713967,
				"element": "H" 
			},
			{
				"x": 5.2589981744,
				"y": -2.3998411487,
				"z": -0.0509933463,
				"element": "H" 
			},
			{
				"x": 5.7393232716,
				"y": -1.7433820954,
				"z": -3.5784935328,
				"element": "H" 
			},
			{
				"x": 6.489583437,
				"y": -2.0877209108,
				"z": -2.1258642502,
				"element": "H" 
			},
			{
				"x": 3.326828527,
				"y": -1.5126995002,
				"z": -3.7907830046,
				"element": "H" 
			},
			{
				"x": 1.1927435523,
				"y": -1.1931711438,
				"z": -2.6059905754,
				"element": "H" 
			},
			{
				"x": -1.9922353945,
				"y": -0.7025035102,
				"z": 0.0562791967,
				"element": "H" 
			},
			{
				"x": -1.9419533062,
				"y": 1.0416551193,
				"z": -0.24265579,
				"element": "H" 
			},
			{
				"x": -3.1556284605,
				"y": -0.4191048207,
				"z": 2.1732418827,
				"element": "H" 
			},
			{
				"x": -4.0637686979,
				"y": 0.4131740106,
				"z": 0.9005539635,
				"element": "H" 
			}
		],
		 "valence_orbital": [ 
			{
				"type": "occ",
				"energy": -0.29398,
				"method": "rhf"
			},
			{
				"type": "occ",
				"energy": -0.24098,
				"method": "rhf"
			},
			{
				"type": "occ",
				"energy": -0.21607,
				"method": "rhf"
			},
			{
				"type": "occ",
				"energy": -0.19402,
				"method": "rhf"
			},
			{
				"type": "occ",
				"energy": -0.19178,
				"method": "rhf"
			},
			{
				"type": "unocc",
				"energy": 0.00723,
				"method": "rhf"
			},
			{
				"type": "unocc",
				"energy": 0.02229,
				"method": "rhf"
			},
			{
				"type": "unocc",
				"energy": 0.08259,
				"method": "rhf"
			},
			{
				"type": "unocc",
				"energy": 0.08468,
				"method": "rhf"
			},
			{
				"type": "unocc",
				"energy": 0.1021,
				"method": "rhf"
			}
		],
		"cosmo_sigma_profile": { 
			"-0.025": 0.0,
			"-0.024": 0.0,
			"-0.023": 0.0,
			"-0.022": 0.0,
			"-0.021": 0.0,
			"-0.02": 0.0,
			"-0.019": 0.0,
			"-0.018": 0.0,
			"-0.017": 0.0,
			"-0.016": 0.0,
			"-0.015": 0.0,
			"-0.014": 0.0,
			"-0.013": 0.0849304477062,
			"-0.012": 1.73366161528,
			"-0.011": 2.81804190535,
			"-0.01": 2.16753927493,
			"-0.009": 2.98101931494,
			"-0.008": 3.62953637434,
			"-0.007": 2.93364581859,
			"-0.006": 3.53096295359,
			"-0.005": 6.23602756033,
			"-0.004": 18.7700432482,
			"-0.003": 32.292214698,
			"-0.002": 36.7052707578,
			"-0.001": 46.5982310615,
			"0.0": 34.8189941534,
			"0.001": 16.2287958432,
			"0.002": 10.8048776414,
			"0.003": 9.57367471495,
			"0.004": 10.4831051818,
			"0.005": 8.38182796362,
			"0.006": 10.146273755,
			"0.007": 10.6486556859,
			"0.008": 4.73559380687,
			"0.009": 2.58081387727,
			"0.01": 2.1250955244,
			"0.011": 1.80693056668,
			"0.012": 1.73917879282,
			"0.013": 1.7551135814,
			"0.014": 1.75594344295,
			"0.015": 1.25014840125,
			"0.016": 0.795713911101,
			"0.017": 0.204288564469,
			"0.018": 0.0323819460793,
			"0.019": 0.0,
			"0.02": 0.0,
			"0.021": 0.0,
			"0.022": 0.0,
			"0.023": 0.0,
			"0.024": 0.0,
			"0.025": 0.0
		}
	}
}
