{
	 "smiles": "C1CC=C/CCC=C/1", 
	 "Tm": 216.75, 
	 "num_atms": 20, 
	 "gaussian": { 
		 "optdone": 1, 
		 "sigma_profile": "yes", 
		 "theory": "DFT", 
		 "functional": "B3LYP", 
		 "basiset": "6-31G**", 
		 "properties": { 
			 "R2extent": 1079.208, 
			 "electric_dipole_moment_norm": 0.0, 
			 "electric_quadrupole_moment_norm": 3.12173756424, 
			 "total_energy": -312.0378042, 
			 "HOMO_LUMO_gap": 0.23955, 
			 "cosmo_polarized_energy": -1.95, 
			 "cosmo_cavitation_energy": 20.99, 
			 "cosmo_dispersion_energy": -15.84, 
			 "cosmo_repulsion_energy": 1.32, 
			 "cosmo_total_nonelectrostatic_energy": 6.47, 
			 "SMD_solvation_energy": 3.04 
		},
		"coords": [
			{
				"x": 1.6977113409,
				"y": -1.585866048,
				"z": -0.8842792634,
				"element": "C" 
			},
			{
				"x": 0.9812731928,
				"y": -2.0100162095,
				"z": 0.4387891503,
				"element": "C" 
			},
			{
				"x": 0.9661461073,
				"y": -0.9351309927,
				"z": 1.5034176709,
				"element": "C" 
			},
			{
				"x": 0.2658427945,
				"y": 0.2046958219,
				"z": 1.4892481248,
				"element": "C" 
			},
			{
				"x": -0.6744517,
				"y": 0.6843454157,
				"z": 0.4053793105,
				"element": "C" 
			},
			{
				"x": 0.0419864039,
				"y": 1.1084962733,
				"z": -0.91768846,
				"element": "C" 
			},
			{
				"x": 0.0571141563,
				"y": 0.0336115154,
				"z": -1.9823177068,
				"element": "C" 
			},
			{
				"x": 0.7574171554,
				"y": -1.1062154197,
				"z": -1.9681481092,
				"element": "C" 
			},
			{
				"x": 2.437825353,
				"y": -0.8107506478,
				"z": -0.6475183438,
				"element": "H" 
			},
			{
				"x": 2.2616670201,
				"y": -2.4416832488,
				"z": -1.2704748572,
				"element": "H" 
			},
			{
				"x": -0.0418320067,
				"y": -2.3248559138,
				"z": 0.1963409687,
				"element": "H" 
			},
			{
				"x": 1.4859608438,
				"y": -2.8924652435,
				"z": 0.846441366,
				"element": "H" 
			},
			{
				"x": 1.6214710347,
				"y": -1.1072285829,
				"z": 2.3568239724,
				"element": "H" 
			},
			{
				"x": 0.3990597967,
				"y": 0.8824084964,
				"z": 2.3320570123,
				"element": "H" 
			},
			{
				"x": -1.2384090057,
				"y": 1.5401614617,
				"z": 0.7915747322,
				"element": "H" 
			},
			{
				"x": -1.4145641422,
				"y": -0.0907713442,
				"z": 0.168618223,
				"element": "H" 
			},
			{
				"x": 1.0650912914,
				"y": 1.4233366059,
				"z": -0.6752407587,
				"element": "H" 
			},
			{
				"x": -0.4627016318,
				"y": 1.9909452651,
				"z": -1.3253408194,
				"element": "H" 
			},
			{
				"x": -0.5982096097,
				"y": 0.2057102767,
				"z": -2.8357245827,
				"element": "H" 
			},
			{
				"x": 0.6242016052,
				"y": -1.7839274814,
				"z": -2.8109576298,
				"element": "H" 
			}
		],
		 "valence_orbital": [ 
			{
				"type": "occ",
				"energy": -0.33123,
				"method": "rhf"
			},
			{
				"type": "occ",
				"energy": -0.32548,
				"method": "rhf"
			},
			{
				"type": "occ",
				"energy": -0.29958,
				"method": "rhf"
			},
			{
				"type": "occ",
				"energy": -0.24631,
				"method": "rhf"
			},
			{
				"type": "occ",
				"energy": -0.2262,
				"method": "rhf"
			},
			{
				"type": "unocc",
				"energy": 0.01335,
				"method": "rhf"
			},
			{
				"type": "unocc",
				"energy": 0.03414,
				"method": "rhf"
			},
			{
				"type": "unocc",
				"energy": 0.08081,
				"method": "rhf"
			},
			{
				"type": "unocc",
				"energy": 0.11819,
				"method": "rhf"
			},
			{
				"type": "unocc",
				"energy": 0.12049,
				"method": "rhf"
			}
		],
		"cosmo_sigma_profile": { 
			"-0.025": 0.0,
			"-0.024": 0.0,
			"-0.023": 0.0,
			"-0.022": 0.0,
			"-0.021": 0.0,
			"-0.02": 0.0,
			"-0.019": 0.0,
			"-0.018": 0.0,
			"-0.017": 0.0,
			"-0.016": 0.0,
			"-0.015": 0.0,
			"-0.014": 0.0,
			"-0.013": 0.0,
			"-0.012": 0.0,
			"-0.011": 0.0,
			"-0.01": 0.0,
			"-0.009": 0.0,
			"-0.008": 0.0,
			"-0.007": 0.0,
			"-0.006": 0.0,
			"-0.005": 0.0,
			"-0.004": 4.9423497681,
			"-0.003": 19.8287531016,
			"-0.002": 29.5569669817,
			"-0.001": 26.5952641463,
			"0.0": 26.4960664186,
			"0.001": 19.5004957493,
			"0.002": 9.75852150624,
			"0.003": 7.15022488647,
			"0.004": 6.31402328493,
			"0.005": 5.07923388252,
			"0.006": 3.98707856547,
			"0.007": 2.92856318203,
			"0.008": 1.11695262877,
			"0.009": 0.0,
			"0.01": 0.0,
			"0.011": 0.0,
			"0.012": 0.0,
			"0.013": 0.0,
			"0.014": 0.0,
			"0.015": 0.0,
			"0.016": 0.0,
			"0.017": 0.0,
			"0.018": 0.0,
			"0.019": 0.0,
			"0.02": 0.0,
			"0.021": 0.0,
			"0.022": 0.0,
			"0.023": 0.0,
			"0.024": 0.0,
			"0.025": 0.0
		}
	}
}
