{
	 "smiles": "COC(=O)C(CCl)NC(C)=O", 
	 "Tm": 348.15, 
	 "num_atms": 21, 
	 "gaussian": { 
		 "optdone": 1, 
		 "sigma_profile": "yes", 
		 "theory": "DFT", 
		 "functional": "B3LYP", 
		 "basiset": "6-31G**", 
		 "properties": { 
			 "R2extent": 3073.2866, 
			 "electric_dipole_moment_norm": 4.14485923163, 
			 "electric_quadrupole_moment_norm": 17.6428857433, 
			 "total_energy": -975.307069368, 
			 "HOMO_LUMO_gap": 0.22984, 
			 "cosmo_polarized_energy": -15.91, 
			 "cosmo_cavitation_energy": 27.34, 
			 "cosmo_dispersion_energy": -19.11, 
			 "cosmo_repulsion_energy": 1.6, 
			 "cosmo_total_nonelectrostatic_energy": 9.82, 
			 "SMD_solvation_energy": 6.62 
		},
		"coords": [
			{
				"x": -2.5243120635,
				"y": -1.7375721681,
				"z": 2.4111154324,
				"element": "C" 
			},
			{
				"x": -1.7028963845,
				"y": -0.5878387394,
				"z": 2.1249057891,
				"element": "O" 
			},
			{
				"x": -0.5067297629,
				"y": -0.8512062359,
				"z": 1.5741459696,
				"element": "C" 
			},
			{
				"x": -0.0964483895,
				"y": -1.96435116,
				"z": 1.3241654216,
				"element": "O" 
			},
			{
				"x": 0.2934304614,
				"y": 0.4363696423,
				"z": 1.342395283,
				"element": "C" 
			},
			{
				"x": 0.697080461,
				"y": 1.0013863461,
				"z": 2.7175799292,
				"element": "C" 
			},
			{
				"x": 1.5503703577,
				"y": 2.5856362407,
				"z": 2.5823748805,
				"element": "Cl" 
			},
			{
				"x": 1.4190378941,
				"y": 0.1537784098,
				"z": 0.4859105567,
				"element": "N" 
			},
			{
				"x": 1.5683382095,
				"y": 0.7995972377,
				"z": -0.723459425,
				"element": "C" 
			},
			{
				"x": 2.72812954,
				"y": 0.3077938394,
				"z": -1.572147876,
				"element": "C" 
			},
			{
				"x": 0.8499617838,
				"y": 1.7262114439,
				"z": -1.0680507834,
				"element": "O" 
			},
			{
				"x": -3.4382551797,
				"y": -1.3411503984,
				"z": 2.8515348334,
				"element": "H" 
			},
			{
				"x": -2.7448447706,
				"y": -2.2839472944,
				"z": 1.4914410546,
				"element": "H" 
			},
			{
				"x": -2.0159173656,
				"y": -2.4059361056,
				"z": 3.1098914171,
				"element": "H" 
			},
			{
				"x": -0.3332970142,
				"y": 1.1681763136,
				"z": 0.823999136,
				"element": "H" 
			},
			{
				"x": -0.1884944329,
				"y": 1.163410037,
				"z": 3.3321312901,
				"element": "H" 
			},
			{
				"x": 1.3781891044,
				"y": 0.3201258128,
				"z": 3.2322342403,
				"element": "H" 
			},
			{
				"x": 1.8552454703,
				"y": -0.7495965379,
				"z": 0.611327041,
				"element": "H" 
			},
			{
				"x": 3.0999222768,
				"y": -0.6769682218,
				"z": -1.2758048608,
				"element": "H" 
			},
			{
				"x": 2.4110218619,
				"y": 0.2804849984,
				"z": -2.6163895977,
				"element": "H" 
			},
			{
				"x": 3.5500679425,
				"y": 1.0263965398,
				"z": -1.4931997319,
				"element": "H" 
			}
		],
		 "valence_orbital": [ 
			{
				"type": "occ",
				"energy": -0.30663,
				"method": "rhf"
			},
			{
				"type": "occ",
				"energy": -0.29695,
				"method": "rhf"
			},
			{
				"type": "occ",
				"energy": -0.29291,
				"method": "rhf"
			},
			{
				"type": "occ",
				"energy": -0.26127,
				"method": "rhf"
			},
			{
				"type": "occ",
				"energy": -0.25069,
				"method": "rhf"
			},
			{
				"type": "unocc",
				"energy": -0.02085,
				"method": "rhf"
			},
			{
				"type": "unocc",
				"energy": 0.02417,
				"method": "rhf"
			},
			{
				"type": "unocc",
				"energy": 0.0411,
				"method": "rhf"
			},
			{
				"type": "unocc",
				"energy": 0.0796,
				"method": "rhf"
			},
			{
				"type": "unocc",
				"energy": 0.09682,
				"method": "rhf"
			}
		],
		"cosmo_sigma_profile": { 
			"-0.025": 0.0,
			"-0.024": 0.0,
			"-0.023": 0.0,
			"-0.022": 0.0,
			"-0.021": 0.0,
			"-0.02": 0.0,
			"-0.019": 0.0,
			"-0.018": 0.0,
			"-0.017": 0.0,
			"-0.016": 0.0,
			"-0.015": 0.0,
			"-0.014": 0.0,
			"-0.013": 0.529795852038,
			"-0.012": 0.995829233331,
			"-0.011": 1.7124367071,
			"-0.01": 1.57832961028,
			"-0.009": 2.41110832588,
			"-0.008": 5.00766762452,
			"-0.007": 7.85301379309,
			"-0.006": 17.1919487492,
			"-0.005": 18.8890760311,
			"-0.004": 20.3510448587,
			"-0.003": 16.7403780893,
			"-0.002": 15.1648105354,
			"-0.001": 12.3331498661,
			"0.0": 10.5862683162,
			"0.001": 7.14960799858,
			"0.002": 7.22245713638,
			"0.003": 7.66881157819,
			"0.004": 8.37717499317,
			"0.005": 10.2736954336,
			"0.006": 13.0151104621,
			"0.007": 6.21479442477,
			"0.008": 3.41374966843,
			"0.009": 3.1577638633,
			"0.01": 4.4607711109,
			"0.011": 5.16168271237,
			"0.012": 2.43090069138,
			"0.013": 4.31624598218,
			"0.014": 2.94342938585,
			"0.015": 0.475877173674,
			"0.016": 0.0,
			"0.017": 0.0,
			"0.018": 0.0,
			"0.019": 0.0,
			"0.02": 0.0,
			"0.021": 0.0,
			"0.022": 0.0,
			"0.023": 0.0,
			"0.024": 0.0,
			"0.025": 0.0
		}
	}
}
