{
	 "smiles": "CC(C)(C)C(=O)C(C)(C)C", 
	 "Tm": 247.95, 
	 "num_atms": 28, 
	 "gaussian": { 
		 "optdone": 1, 
		 "sigma_profile": "yes", 
		 "theory": "DFT", 
		 "functional": "B3LYP", 
		 "basiset": "6-31G**", 
		 "properties": { 
			 "R2extent": 1857.7112, 
			 "electric_dipole_moment_norm": 2.42691798172, 
			 "electric_quadrupole_moment_norm": 2.95940478475, 
			 "total_energy": -429.043098112, 
			 "HOMO_LUMO_gap": 0.22029, 
			 "cosmo_polarized_energy": -5.77, 
			 "cosmo_cavitation_energy": 27.23, 
			 "cosmo_dispersion_energy": -19.03, 
			 "cosmo_repulsion_energy": 1.5, 
			 "cosmo_total_nonelectrostatic_energy": 9.7, 
			 "SMD_solvation_energy": 5.51 
		},
		"coords": [
			{
				"x": -1.908409519,
				"y": 1.5675516066,
				"z": 0.2525717692,
				"element": "C" 
			},
			{
				"x": -0.7370209939,
				"y": 1.3633744275,
				"z": -0.7303108928,
				"element": "C" 
			},
			{
				"x": 0.3359378197,
				"y": 2.4292604251,
				"z": -0.4248765375,
				"element": "C" 
			},
			{
				"x": -1.2770360391,
				"y": 1.5586501102,
				"z": -2.1707847911,
				"element": "C" 
			},
			{
				"x": -0.249122813,
				"y": -0.1142603604,
				"z": -0.5930561769,
				"element": "C" 
			},
			{
				"x": -1.0071307398,
				"y": -0.9136418699,
				"z": -0.0700438513,
				"element": "O" 
			},
			{
				"x": 1.1389556554,
				"y": -0.6425858149,
				"z": -1.076989679,
				"element": "C" 
			},
			{
				"x": 1.6006783212,
				"y": -0.0908506451,
				"z": -2.441971638,
				"element": "C" 
			},
			{
				"x": 2.1889496668,
				"y": -0.2989779098,
				"z": 0.011226559,
				"element": "C" 
			},
			{
				"x": 1.0479692922,
				"y": -2.1786245072,
				"z": -1.1872461406,
				"element": "C" 
			},
			{
				"x": -2.7180471983,
				"y": 0.8627645367,
				"z": 0.057785385,
				"element": "H" 
			},
			{
				"x": -1.586785742,
				"y": 1.4196290874,
				"z": 1.2880180048,
				"element": "H" 
			},
			{
				"x": -2.2956485049,
				"y": 2.5875912624,
				"z": 0.1564446242,
				"element": "H" 
			},
			{
				"x": 1.1921031746,
				"y": 2.3910405619,
				"z": -1.101277966,
				"element": "H" 
			},
			{
				"x": -0.1113524489,
				"y": 3.4243598975,
				"z": -0.5263620774,
				"element": "H" 
			},
			{
				"x": 0.7061662013,
				"y": 2.342388646,
				"z": 0.6015314602,
				"element": "H" 
			},
			{
				"x": -2.0290447495,
				"y": 0.8004131636,
				"z": -2.4118320721,
				"element": "H" 
			},
			{
				"x": -1.7565645406,
				"y": 2.540901496,
				"z": -2.2469765487,
				"element": "H" 
			},
			{
				"x": -0.4906448616,
				"y": 1.5149531058,
				"z": -2.9270749229,
				"element": "H" 
			},
			{
				"x": 2.5679022991,
				"y": -0.537476673,
				"z": -2.6980847545,
				"element": "H" 
			},
			{
				"x": 1.7344405785,
				"y": 0.9926369658,
				"z": -2.4504595458,
				"element": "H" 
			},
			{
				"x": 0.899010406,
				"y": -0.3556330866,
				"z": -3.2392661622,
				"element": "H" 
			},
			{
				"x": 2.3773416958,
				"y": 0.7733907896,
				"z": 0.0939666498,
				"element": "H" 
			},
			{
				"x": 3.1392016181,
				"y": -0.7846198659,
				"z": -0.2372414706,
				"element": "H" 
			},
			{
				"x": 1.8709616436,
				"y": -0.6693123532,
				"z": 0.991168882,
				"element": "H" 
			},
			{
				"x": 2.0184538696,
				"y": -2.5835127782,
				"z": -1.4937009698,
				"element": "H" 
			},
			{
				"x": 0.7621406209,
				"y": -2.6290497645,
				"z": -0.2356151959,
				"element": "H" 
			},
			{
				"x": 0.3019952877,
				"y": -2.4788604536,
				"z": -1.9294419411,
				"element": "H" 
			}
		],
		 "valence_orbital": [ 
			{
				"type": "occ",
				"energy": -0.33031,
				"method": "rhf"
			},
			{
				"type": "occ",
				"energy": -0.32723,
				"method": "rhf"
			},
			{
				"type": "occ",
				"energy": -0.32676,
				"method": "rhf"
			},
			{
				"type": "occ",
				"energy": -0.31571,
				"method": "rhf"
			},
			{
				"type": "occ",
				"energy": -0.23186,
				"method": "rhf"
			},
			{
				"type": "unocc",
				"energy": -0.01157,
				"method": "rhf"
			},
			{
				"type": "unocc",
				"energy": 0.07013,
				"method": "rhf"
			},
			{
				"type": "unocc",
				"energy": 0.10982,
				"method": "rhf"
			},
			{
				"type": "unocc",
				"energy": 0.11145,
				"method": "rhf"
			},
			{
				"type": "unocc",
				"energy": 0.12964,
				"method": "rhf"
			}
		],
		"cosmo_sigma_profile": { 
			"-0.025": 0.0,
			"-0.024": 0.0,
			"-0.023": 0.0,
			"-0.022": 0.0,
			"-0.021": 0.0,
			"-0.02": 0.0,
			"-0.019": 0.0,
			"-0.018": 0.0,
			"-0.017": 0.0,
			"-0.016": 0.0,
			"-0.015": 0.0,
			"-0.014": 0.0,
			"-0.013": 0.0,
			"-0.012": 0.0,
			"-0.011": 0.0,
			"-0.01": 0.0,
			"-0.009": 0.0,
			"-0.008": 0.0,
			"-0.007": 0.0,
			"-0.006": 0.0709786850612,
			"-0.005": 1.58602915363,
			"-0.004": 5.88066491452,
			"-0.003": 36.5769608539,
			"-0.002": 35.8453348497,
			"-0.001": 29.736570767,
			"0.0": 32.4928671045,
			"0.001": 32.4074029658,
			"0.002": 11.84273663,
			"0.003": 2.38200655382,
			"0.004": 1.85435337791,
			"0.005": 1.86190908157,
			"0.006": 1.43365343591,
			"0.007": 1.20670379194,
			"0.008": 2.43404772237,
			"0.009": 2.09502072751,
			"0.01": 1.41232540223,
			"0.011": 2.48916408193,
			"0.012": 3.5563450174,
			"0.013": 1.94228534532,
			"0.014": 0.0,
			"0.015": 0.0,
			"0.016": 0.0,
			"0.017": 0.0,
			"0.018": 0.0,
			"0.019": 0.0,
			"0.02": 0.0,
			"0.021": 0.0,
			"0.022": 0.0,
			"0.023": 0.0,
			"0.024": 0.0,
			"0.025": 0.0
		}
	}
}
