{
	 "smiles": "CC(C)(N)CO", 
	 "Tm": 300.95, 
	 "num_atms": 17, 
	 "gaussian": { 
		 "optdone": 1, 
		 "sigma_profile": "yes", 
		 "theory": "DFT", 
		 "functional": "B3LYP", 
		 "basiset": "6-31G**", 
		 "properties": { 
			 "R2extent": 858.6333, 
			 "electric_dipole_moment_norm": 1.37654928353, 
			 "electric_quadrupole_moment_norm": 5.47298782202, 
			 "total_energy": -289.027112584, 
			 "HOMO_LUMO_gap": 0.29027, 
			 "cosmo_polarized_energy": -8.85, 
			 "cosmo_cavitation_energy": 18.6, 
			 "cosmo_dispersion_energy": -13.64, 
			 "cosmo_repulsion_energy": 1.17, 
			 "cosmo_total_nonelectrostatic_energy": 6.13, 
			 "SMD_solvation_energy": 2.51 
		},
		"coords": [
			{
				"x": 0.5290835797,
				"y": -0.196930953,
				"z": -0.0240236695,
				"element": "C" 
			},
			{
				"x": -0.6430040299,
				"y": 0.1559149497,
				"z": -0.956320069,
				"element": "C" 
			},
			{
				"x": -0.1431255888,
				"y": 0.3074723382,
				"z": -2.3979774518,
				"element": "C" 
			},
			{
				"x": -1.6022108618,
				"y": -0.9611979035,
				"z": -0.9048182322,
				"element": "N" 
			},
			{
				"x": -1.2993311146,
				"y": 1.4837226735,
				"z": -0.5046101734,
				"element": "C" 
			},
			{
				"x": -1.9085178394,
				"y": 1.3885805234,
				"z": 0.7799182032,
				"element": "O" 
			},
			{
				"x": 0.1828821205,
				"y": -0.3461300834,
				"z": 1.0056674493,
				"element": "H" 
			},
			{
				"x": 1.2888153797,
				"y": 0.5930079752,
				"z": -0.0196347262,
				"element": "H" 
			},
			{
				"x": 0.9958514996,
				"y": -1.1312684414,
				"z": -0.3454264702,
				"element": "H" 
			},
			{
				"x": 0.2928193862,
				"y": -0.6333153824,
				"z": -2.746067422,
				"element": "H" 
			},
			{
				"x": -0.9657210717,
				"y": 0.5693873437,
				"z": -3.0748143217,
				"element": "H" 
			},
			{
				"x": 0.6167152765,
				"y": 1.0921055935,
				"z": -2.4764764207,
				"element": "H" 
			},
			{
				"x": -2.0828837028,
				"y": -0.912612643,
				"z": -0.0066557602,
				"element": "H" 
			},
			{
				"x": -2.3264465255,
				"y": -0.8114186504,
				"z": -1.6067205068,
				"element": "H" 
			},
			{
				"x": -2.1106099859,
				"y": 1.7358816688,
				"z": -1.197531247,
				"element": "H" 
			},
			{
				"x": -0.5693606633,
				"y": 2.3085173601,
				"z": -0.5382029179,
				"element": "H" 
			},
			{
				"x": -1.2057558585,
				"y": 1.382683631,
				"z": 1.441693736,
				"element": "H" 
			}
		],
		 "valence_orbital": [ 
			{
				"type": "occ",
				"energy": -0.35712,
				"method": "rhf"
			},
			{
				"type": "occ",
				"energy": -0.33199,
				"method": "rhf"
			},
			{
				"type": "occ",
				"energy": -0.3218,
				"method": "rhf"
			},
			{
				"type": "occ",
				"energy": -0.27806,
				"method": "rhf"
			},
			{
				"type": "occ",
				"energy": -0.22786,
				"method": "rhf"
			},
			{
				"type": "unocc",
				"energy": 0.06241,
				"method": "rhf"
			},
			{
				"type": "unocc",
				"energy": 0.09136,
				"method": "rhf"
			},
			{
				"type": "unocc",
				"energy": 0.12878,
				"method": "rhf"
			},
			{
				"type": "unocc",
				"energy": 0.12976,
				"method": "rhf"
			},
			{
				"type": "unocc",
				"energy": 0.14094,
				"method": "rhf"
			}
		],
		"cosmo_sigma_profile": { 
			"-0.025": 0.0,
			"-0.024": 0.0,
			"-0.023": 0.0,
			"-0.022": 0.0,
			"-0.021": 0.0,
			"-0.02": 0.0,
			"-0.019": 0.0,
			"-0.018": 0.0,
			"-0.017": 0.0,
			"-0.016": 0.0,
			"-0.015": 0.312201849284,
			"-0.014": 0.74416798486,
			"-0.013": 0.896399203793,
			"-0.012": 1.3341838616,
			"-0.011": 0.830747568209,
			"-0.01": 0.949843387615,
			"-0.009": 1.30784829548,
			"-0.008": 2.17882091465,
			"-0.007": 3.23985085182,
			"-0.006": 4.34246851083,
			"-0.005": 5.86573857159,
			"-0.004": 7.59204354203,
			"-0.003": 19.4697084302,
			"-0.002": 14.8928432942,
			"-0.001": 14.4994872615,
			"0.0": 13.0616004326,
			"0.001": 14.2209156801,
			"0.002": 7.63050946612,
			"0.003": 2.66577446518,
			"0.004": 2.52975636565,
			"0.005": 1.86526475766,
			"0.006": 2.47392364947,
			"0.007": 2.39073704294,
			"0.008": 1.47076679902,
			"0.009": 1.55127554893,
			"0.01": 2.12242643179,
			"0.011": 2.54974947926,
			"0.012": 1.05201330918,
			"0.013": 2.13593433536,
			"0.014": 2.39398136732,
			"0.015": 1.08313085714,
			"0.016": 0.465019803367,
			"0.017": 0.52039719357,
			"0.018": 0.734814899606,
			"0.019": 0.545784153498,
			"0.02": 0.342102883633,
			"0.021": 0.0365784110423,
			"0.022": 0.0,
			"0.023": 0.0,
			"0.024": 0.0,
			"0.025": 0.0
		}
	}
}
