{
	 "smiles": "NC1=NC2=C(N1)C=C(C=C2)C(F)(F)F", 
	 "Tm": 408.15, 
	 "num_atms": 20, 
	 "gaussian": { 
		 "optdone": 1, 
		 "sigma_profile": "yes", 
		 "theory": "DFT", 
		 "functional": "B3LYP", 
		 "basiset": "6-31G**", 
		 "properties": { 
			 "R2extent": 3557.0336, 
			 "electric_dipole_moment_norm": 5.52994759559, 
			 "electric_quadrupole_moment_norm": 18.7529270681, 
			 "total_energy": -772.268903154, 
			 "HOMO_LUMO_gap": 0.19803, 
			 "cosmo_polarized_energy": -16.97, 
			 "cosmo_cavitation_energy": 26.04, 
			 "cosmo_dispersion_energy": -19.14, 
			 "cosmo_repulsion_energy": 1.45, 
			 "cosmo_total_nonelectrostatic_energy": 8.35, 
			 "SMD_solvation_energy": 3.3 
		},
		"coords": [
			{
				"x": 1.5248459435,
				"y": -2.2974324195,
				"z": 4.4063717234,
				"element": "N" 
			},
			{
				"x": 0.9347385189,
				"y": -2.0227484315,
				"z": 3.1906791593,
				"element": "C" 
			},
			{
				"x": -0.3113343082,
				"y": -2.291882929,
				"z": 2.8784425887,
				"element": "N" 
			},
			{
				"x": -0.4767235812,
				"y": -1.7610943952,
				"z": 1.6070682919,
				"element": "C" 
			},
			{
				"x": 0.7281663909,
				"y": -1.1691187156,
				"z": 1.1508639139,
				"element": "C" 
			},
			{
				"x": 1.6288975766,
				"y": -1.3651279041,
				"z": 2.1941957921,
				"element": "N" 
			},
			{
				"x": 0.8493153339,
				"y": -0.5640427579,
				"z": -0.0918990033,
				"element": "C" 
			},
			{
				"x": -0.2939471322,
				"y": -0.5556652798,
				"z": -0.8986024661,
				"element": "C" 
			},
			{
				"x": -1.4997441437,
				"y": -1.1403461509,
				"z": -0.4691931289,
				"element": "C" 
			},
			{
				"x": -1.6041367934,
				"y": -1.7458309764,
				"z": 0.7799465737,
				"element": "C" 
			},
			{
				"x": -0.2186119753,
				"y": 0.0315602852,
				"z": -2.277984032,
				"element": "C" 
			},
			{
				"x": -1.3653197974,
				"y": 0.6600433713,
				"z": -2.6256993857,
				"element": "F" 
			},
			{
				"x": 0.0003352878,
				"y": -0.9158386237,
				"z": -3.2237639686,
				"element": "F" 
			},
			{
				"x": 0.7862641681,
				"y": 0.9322852711,
				"z": -2.3950270882,
				"element": "F" 
			},
			{
				"x": 0.935744536,
				"y": -2.8896593102,
				"z": 4.9775226419,
				"element": "H" 
			},
			{
				"x": 2.480940213,
				"y": -2.6269528795,
				"z": 4.3670146197,
				"element": "H" 
			},
			{
				"x": 2.5373872759,
				"y": -0.9388222845,
				"z": 2.2889845441,
				"element": "H" 
			},
			{
				"x": 1.7721015694,
				"y": -0.1075631186,
				"z": -0.4317676578,
				"element": "H" 
			},
			{
				"x": -2.3624352779,
				"y": -1.1053632534,
				"z": -1.12566412,
				"element": "H" 
			},
			{
				"x": -2.5345838047,
				"y": -2.191499498,
				"z": 1.1150110019,
				"element": "H" 
			}
		],
		 "valence_orbital": [ 
			{
				"type": "occ",
				"energy": -0.32147,
				"method": "rhf"
			},
			{
				"type": "occ",
				"energy": -0.29986,
				"method": "rhf"
			},
			{
				"type": "occ",
				"energy": -0.27963,
				"method": "rhf"
			},
			{
				"type": "occ",
				"energy": -0.23564,
				"method": "rhf"
			},
			{
				"type": "occ",
				"energy": -0.21573,
				"method": "rhf"
			},
			{
				"type": "unocc",
				"energy": -0.0177,
				"method": "rhf"
			},
			{
				"type": "unocc",
				"energy": 0.00766,
				"method": "rhf"
			},
			{
				"type": "unocc",
				"energy": 0.05002,
				"method": "rhf"
			},
			{
				"type": "unocc",
				"energy": 0.05689,
				"method": "rhf"
			},
			{
				"type": "unocc",
				"energy": 0.09028,
				"method": "rhf"
			}
		],
		"cosmo_sigma_profile": { 
			"-0.025": 0.0,
			"-0.024": 0.0,
			"-0.023": 0.0,
			"-0.022": 0.0,
			"-0.021": 0.0,
			"-0.02": 0.0,
			"-0.019": 0.0,
			"-0.018": 0.0,
			"-0.017": 0.539421495357,
			"-0.016": 1.94551335207,
			"-0.015": 2.86520260251,
			"-0.014": 3.0858179036,
			"-0.013": 4.38450915336,
			"-0.012": 3.67598598769,
			"-0.011": 2.54427758983,
			"-0.01": 3.421532628,
			"-0.009": 3.12707226478,
			"-0.008": 3.08400817222,
			"-0.007": 3.40069130912,
			"-0.006": 5.54035817975,
			"-0.005": 7.75060945015,
			"-0.004": 6.27576205893,
			"-0.003": 7.47363968503,
			"-0.002": 6.41013810949,
			"-0.001": 7.51147857492,
			"0.0": 10.4076733691,
			"0.001": 14.8793682081,
			"0.002": 20.1960931219,
			"0.003": 40.7451752482,
			"0.004": 23.8200952519,
			"0.005": 6.67739706596,
			"0.006": 2.33704869736,
			"0.007": 2.88890583218,
			"0.008": 2.31837395561,
			"0.009": 1.71908038374,
			"0.01": 1.08647293615,
			"0.011": 1.36035554759,
			"0.012": 2.26185768199,
			"0.013": 1.04066500189,
			"0.014": 0.86797946017,
			"0.015": 0.930632935389,
			"0.016": 0.92978215576,
			"0.017": 0.912370132047,
			"0.018": 0.223100540233,
			"0.019": 0.0,
			"0.02": 0.0,
			"0.021": 0.0,
			"0.022": 0.0,
			"0.023": 0.0,
			"0.024": 0.0,
			"0.025": 0.0
		}
	}
}
