{
	 "smiles": "IC1=C2C(NC(=O)C2=O)=CC=C1", 
	 "Tm": 473.15, 
	 "num_atms": 16, 
	 "gaussian": { 
		 "optdone": 1, 
		 "sigma_profile": "yes", 
		 "theory": "DFT", 
		 "functional": "B3LYP", 
		 "basiset": "6-31G**", 
		 "properties": { 
			 "R2extent": 2091.1486, 
			 "electric_dipole_moment_norm": 6.22070535711, 
			 "electric_quadrupole_moment_norm": 13.7946005832, 
			 "total_energy": -523.841689229, 
			 "HOMO_LUMO_gap": 0.14116, 
			 "cosmo_polarized_energy": -16.81, 
			 "cosmo_cavitation_energy": 24.45, 
			 "cosmo_dispersion_energy": -19.45, 
			 "cosmo_repulsion_energy": 1.5, 
			 "cosmo_total_nonelectrostatic_energy": 6.5, 
			 "SMD_solvation_energy": 4.62 
		},
		"coords": [
			{
				"x": -3.1155636231,
				"y": -1.4773197212,
				"z": 0.1721187074,
				"element": "I" 
			},
			{
				"x": -1.3481988124,
				"y": -0.338223895,
				"z": 0.3394141353,
				"element": "C" 
			},
			{
				"x": -0.1725483744,
				"y": -0.713971725,
				"z": -0.3094839684,
				"element": "C" 
			},
			{
				"x": 0.9884029429,
				"y": 0.083068127,
				"z": -0.1670468943,
				"element": "C" 
			},
			{
				"x": 2.050312445,
				"y": -0.4674663514,
				"z": -0.8942534235,
				"element": "N" 
			},
			{
				"x": 1.6890759306,
				"y": -1.6320592693,
				"z": -1.5523037309,
				"element": "C" 
			},
			{
				"x": 2.3892018542,
				"y": -2.3248909637,
				"z": -2.2532031796,
				"element": "O" 
			},
			{
				"x": 0.1798114516,
				"y": -1.8485741678,
				"z": -1.1894996003,
				"element": "C" 
			},
			{
				"x": -0.4830887781,
				"y": -2.778609838,
				"z": -1.5880401858,
				"element": "O" 
			},
			{
				"x": 0.9939677036,
				"y": 1.2366608248,
				"z": 0.6042694667,
				"element": "C" 
			},
			{
				"x": -0.2003673087,
				"y": 1.5890009627,
				"z": 1.2437290204,
				"element": "C" 
			},
			{
				"x": -1.3626730874,
				"y": 0.8224617444,
				"z": 1.1224184891,
				"element": "C" 
			},
			{
				"x": 2.9792237459,
				"y": -0.0751891444,
				"z": -0.9448251371,
				"element": "H" 
			},
			{
				"x": 1.887134084,
				"y": 1.8436660449,
				"z": 0.7096298164,
				"element": "H" 
			},
			{
				"x": -0.2274286014,
				"y": 2.4867117017,
				"z": 1.8546132255,
				"element": "H" 
			},
			{
				"x": -2.2696615722,
				"y": 1.1254356703,
				"z": 1.6317632591,
				"element": "H" 
			}
		],
		 "valence_orbital": [ 
			{
				"type": "occ",
				"energy": -0.30706,
				"method": "rhf"
			},
			{
				"type": "occ",
				"energy": -0.2748,
				"method": "rhf"
			},
			{
				"type": "occ",
				"energy": -0.26313,
				"method": "rhf"
			},
			{
				"type": "occ",
				"energy": -0.24977,
				"method": "rhf"
			},
			{
				"type": "occ",
				"energy": -0.24579,
				"method": "rhf"
			},
			{
				"type": "unocc",
				"energy": -0.10463,
				"method": "rhf"
			},
			{
				"type": "unocc",
				"energy": -0.04618,
				"method": "rhf"
			},
			{
				"type": "unocc",
				"energy": -0.03508,
				"method": "rhf"
			},
			{
				"type": "unocc",
				"energy": -0.00274,
				"method": "rhf"
			},
			{
				"type": "unocc",
				"energy": 0.04624,
				"method": "rhf"
			}
		],
		"cosmo_sigma_profile": { 
			"-0.025": 0.0,
			"-0.024": 0.0,
			"-0.023": 0.0,
			"-0.022": 0.0,
			"-0.021": 0.0,
			"-0.02": 0.0,
			"-0.019": 0.0,
			"-0.018": 0.0,
			"-0.017": 0.872660669411,
			"-0.016": 1.72691400043,
			"-0.015": 1.41044034049,
			"-0.014": 1.05354174102,
			"-0.013": 0.827057285699,
			"-0.012": 1.18151550374,
			"-0.011": 1.42524002951,
			"-0.01": 1.49162290709,
			"-0.009": 1.47209092975,
			"-0.008": 6.02840491277,
			"-0.007": 10.755409844,
			"-0.006": 10.3265938284,
			"-0.005": 9.1843795099,
			"-0.004": 9.02824229101,
			"-0.003": 9.52256399086,
			"-0.002": 12.0020510283,
			"-0.001": 14.4006827572,
			"0.0": 13.9291823382,
			"0.001": 18.8827797854,
			"0.002": 16.5049897632,
			"0.003": 11.9747452286,
			"0.004": 9.40536555605,
			"0.005": 2.85171532896,
			"0.006": 2.90266807003,
			"0.007": 3.8132476277,
			"0.008": 4.15093845903,
			"0.009": 4.9994813042,
			"0.01": 8.70441595017,
			"0.011": 8.68789058507,
			"0.012": 2.8176222802,
			"0.013": 0.193638803758,
			"0.014": 0.0,
			"0.015": 0.0,
			"0.016": 0.0,
			"0.017": 0.0,
			"0.018": 0.0,
			"0.019": 0.0,
			"0.02": 0.0,
			"0.021": 0.0,
			"0.022": 0.0,
			"0.023": 0.0,
			"0.024": 0.0,
			"0.025": 0.0
		}
	}
}
