{
	 "smiles": "ClC1=C(Cl)C(Cl)=C(Cl)C2=C1OC1=C2C(Cl)=C(Cl)C(Cl)=C1Cl", 
	 "Tm": 531.15, 
	 "num_atms": 21, 
	 "gaussian": { 
		 "optdone": 1, 
		 "sigma_profile": "yes", 
		 "theory": "DFT", 
		 "functional": "B3LYP", 
		 "basiset": "6-31G**", 
		 "properties": { 
			 "R2extent": 13613.2746, 
			 "electric_dipole_moment_norm": 0.191895883228, 
			 "electric_quadrupole_moment_norm": 2.38670375832, 
			 "total_energy": -4213.99251293, 
			 "HOMO_LUMO_gap": 0.16609, 
			 "cosmo_polarized_energy": -4.62, 
			 "cosmo_cavitation_energy": 39.59, 
			 "cosmo_dispersion_energy": -30.13, 
			 "cosmo_repulsion_energy": 2.25, 
			 "cosmo_total_nonelectrostatic_energy": 11.71, 
			 "SMD_solvation_energy": 4.81 
		},
		"coords": [
			{
				"x": 2.5487102088,
				"y": 2.8138291811,
				"z": 0.4568940449,
				"element": "Cl" 
			},
			{
				"x": 1.1165606401,
				"y": 2.7673937551,
				"z": -0.513441057,
				"element": "C" 
			},
			{
				"x": 0.8637895351,
				"y": 3.6685137774,
				"z": -1.5498630185,
				"element": "C" 
			},
			{
				"x": 2.0253269895,
				"y": 4.9017464281,
				"z": -1.9086252289,
				"element": "Cl" 
			},
			{
				"x": -0.3366913519,
				"y": 3.5679769907,
				"z": -2.2902644596,
				"element": "C" 
			},
			{
				"x": -0.6224930156,
				"y": 4.7151699363,
				"z": -3.5647811198,
				"element": "Cl" 
			},
			{
				"x": -1.2936717328,
				"y": 2.5722957991,
				"z": -2.0152049492,
				"element": "C" 
			},
			{
				"x": -2.7418856473,
				"y": 2.5640759479,
				"z": -2.9667931534,
				"element": "Cl" 
			},
			{
				"x": -1.053788402,
				"y": 1.6373833491,
				"z": -0.9810457841,
				"element": "C" 
			},
			{
				"x": 0.1547696832,
				"y": 1.7950881091,
				"z": -0.269227646,
				"element": "C" 
			},
			{
				"x": 0.3030732556,
				"y": 0.8752112265,
				"z": 0.7202692653,
				"element": "O" 
			},
			{
				"x": -0.8046908277,
				"y": 0.0889529352,
				"z": 0.6763541742,
				"element": "C" 
			},
			{
				"x": -1.7017729308,
				"y": 0.4706123395,
				"z": -0.3443002628,
				"element": "C" 
			},
			{
				"x": -2.8718247974,
				"y": -0.3143467369,
				"z": -0.4702553263,
				"element": "C" 
			},
			{
				"x": -4.0654727527,
				"y": -0.025193757,
				"z": -1.6927526444,
				"element": "Cl" 
			},
			{
				"x": -3.0887672129,
				"y": -1.3886607441,
				"z": 0.4138434656,
				"element": "C" 
			},
			{
				"x": -4.528409692,
				"y": -2.3522464508,
				"z": 0.2687449416,
				"element": "Cl" 
			},
			{
				"x": -2.1581327088,
				"y": -1.7158521248,
				"z": 1.4269213029,
				"element": "C" 
			},
			{
				"x": -2.448824209,
				"y": -3.041603612,
				"z": 2.5023937004,
				"element": "Cl" 
			},
			{
				"x": -0.9876690717,
				"y": -0.9661671565,
				"z": 1.5613981357,
				"element": "C" 
			},
			{
				"x": 0.2167640403,
				"y": -1.2930791933,
				"z": 2.7602356194,
				"element": "Cl" 
			}
		],
		 "valence_orbital": [ 
			{
				"type": "occ",
				"energy": -0.30197,
				"method": "rhf"
			},
			{
				"type": "occ",
				"energy": -0.29515,
				"method": "rhf"
			},
			{
				"type": "occ",
				"energy": -0.27352,
				"method": "rhf"
			},
			{
				"type": "occ",
				"energy": -0.25603,
				"method": "rhf"
			},
			{
				"type": "occ",
				"energy": -0.25377,
				"method": "rhf"
			},
			{
				"type": "unocc",
				"energy": -0.08768,
				"method": "rhf"
			},
			{
				"type": "unocc",
				"energy": -0.05313,
				"method": "rhf"
			},
			{
				"type": "unocc",
				"energy": -0.04534,
				"method": "rhf"
			},
			{
				"type": "unocc",
				"energy": -0.0421,
				"method": "rhf"
			},
			{
				"type": "unocc",
				"energy": -0.03751,
				"method": "rhf"
			}
		],
		"cosmo_sigma_profile": { 
			"-0.025": 0.0,
			"-0.024": 0.0,
			"-0.023": 0.0,
			"-0.022": 0.0,
			"-0.021": 0.0,
			"-0.02": 0.0,
			"-0.019": 0.0,
			"-0.018": 0.0,
			"-0.017": 0.0,
			"-0.016": 0.0,
			"-0.015": 0.0,
			"-0.014": 0.0,
			"-0.013": 0.0,
			"-0.012": 0.0,
			"-0.011": 0.0,
			"-0.01": 0.0,
			"-0.009": 0.0,
			"-0.008": 0.0,
			"-0.007": 0.131523623463,
			"-0.006": 1.51907206232,
			"-0.005": 5.96077670659,
			"-0.004": 25.0948711588,
			"-0.003": 40.9124694632,
			"-0.002": 48.577221907,
			"-0.001": 27.9035897086,
			"0.0": 26.3665658168,
			"0.001": 33.7689659958,
			"0.002": 47.3404838707,
			"0.003": 61.3222466421,
			"0.004": 16.7179979545,
			"0.005": 2.45147848804,
			"0.006": 0.642599264052,
			"0.007": 0.0,
			"0.008": 0.0,
			"0.009": 0.0,
			"0.01": 0.0,
			"0.011": 0.0,
			"0.012": 0.0,
			"0.013": 0.0,
			"0.014": 0.0,
			"0.015": 0.0,
			"0.016": 0.0,
			"0.017": 0.0,
			"0.018": 0.0,
			"0.019": 0.0,
			"0.02": 0.0,
			"0.021": 0.0,
			"0.022": 0.0,
			"0.023": 0.0,
			"0.024": 0.0,
			"0.025": 0.0
		}
	}
}
