{
	 "smiles": "CC(CC1=CC=C(Cl)C=C1)NC(=O)OC(C)(C)C", 
	 "Tm": 367.15, 
	 "num_atms": 38, 
	 "gaussian": { 
		 "optdone": 1, 
		 "sigma_profile": "yes", 
		 "theory": "DFT", 
		 "functional": "B3LYP", 
		 "basiset": "6-31G**", 
		 "properties": { 
			 "R2extent": 6083.6757, 
			 "electric_dipole_moment_norm": 3.41851952898, 
			 "electric_quadrupole_moment_norm": 15.0345106502, 
			 "total_energy": -1210.98875951, 
			 "HOMO_LUMO_gap": 0.22318, 
			 "cosmo_polarized_energy": -12.18, 
			 "cosmo_cavitation_energy": 42.13, 
			 "cosmo_dispersion_energy": -26.6, 
			 "cosmo_repulsion_energy": 2.09, 
			 "cosmo_total_nonelectrostatic_energy": 17.62, 
			 "SMD_solvation_energy": 7.57 
		},
		"coords": [
			{
				"x": -1.362055154,
				"y": -2.1609846878,
				"z": 2.5150695848,
				"element": "C" 
			},
			{
				"x": -0.4250993674,
				"y": -1.2613971931,
				"z": 1.6985246472,
				"element": "C" 
			},
			{
				"x": 1.0571275768,
				"y": -1.4913974008,
				"z": 2.1007713436,
				"element": "C" 
			},
			{
				"x": 2.0575900449,
				"y": -0.7624855701,
				"z": 1.2334458609,
				"element": "C" 
			},
			{
				"x": 2.5505062178,
				"y": -1.3541291889,
				"z": 0.0621071029,
				"element": "C" 
			},
			{
				"x": 3.4553878384,
				"y": -0.6893952585,
				"z": -0.7646982675,
				"element": "C" 
			},
			{
				"x": 3.8767073301,
				"y": 0.5928265731,
				"z": -0.413075491,
				"element": "C" 
			},
			{
				"x": 5.02641397,
				"y": 1.439198403,
				"z": -1.4423106938,
				"element": "Cl" 
			},
			{
				"x": 3.4074640967,
				"y": 1.2088548513,
				"z": 0.7456962743,
				"element": "C" 
			},
			{
				"x": 2.5029470764,
				"y": 0.5248994851,
				"z": 1.559198887,
				"element": "C" 
			},
			{
				"x": -0.8183038794,
				"y": 0.1348282223,
				"z": 1.8530649202,
				"element": "N" 
			},
			{
				"x": -1.0251406667,
				"y": 1.076516519,
				"z": 0.8786524971,
				"element": "C" 
			},
			{
				"x": -1.3541446731,
				"y": 2.2247619667,
				"z": 1.1353617647,
				"element": "O" 
			},
			{
				"x": -0.8271495188,
				"y": 0.5560820595,
				"z": -0.3537790708,
				"element": "O" 
			},
			{
				"x": -0.9680302055,
				"y": 1.3906443847,
				"z": -1.5580817834,
				"element": "C" 
			},
			{
				"x": 0.03398332,
				"y": 2.5492607796,
				"z": -1.5192986843,
				"element": "C" 
			},
			{
				"x": -2.415087642,
				"y": 1.8775381069,
				"z": -1.6872657726,
				"element": "C" 
			},
			{
				"x": -0.6180435195,
				"y": 0.4101353066,
				"z": -2.6806301372,
				"element": "C" 
			},
			{
				"x": -1.1047061127,
				"y": -3.2165052957,
				"z": 2.382560023,
				"element": "H" 
			},
			{
				"x": -1.2908108783,
				"y": -1.9346706973,
				"z": 3.5861131398,
				"element": "H" 
			},
			{
				"x": -2.4008609956,
				"y": -2.0158019109,
				"z": 2.2063175343,
				"element": "H" 
			},
			{
				"x": -0.535543436,
				"y": -1.4951522706,
				"z": 0.637862653,
				"element": "H" 
			},
			{
				"x": 1.2538357958,
				"y": -2.5694526554,
				"z": 2.0589071257,
				"element": "H" 
			},
			{
				"x": 1.1804534862,
				"y": -1.192230158,
				"z": 3.1496460089,
				"element": "H" 
			},
			{
				"x": 2.2272791077,
				"y": -2.3561402655,
				"z": -0.2095985758,
				"element": "H" 
			},
			{
				"x": 3.8361306993,
				"y": -1.1599260142,
				"z": -1.6646006447,
				"element": "H" 
			},
			{
				"x": 3.747418008,
				"y": 2.204266259,
				"z": 1.0093671184,
				"element": "H" 
			},
			{
				"x": 2.1402519706,
				"y": 1.0056918119,
				"z": 2.4631624446,
				"element": "H" 
			},
			{
				"x": -0.9708523447,
				"y": 0.4947042591,
				"z": 2.7845645061,
				"element": "H" 
			},
			{
				"x": -0.2056281994,
				"y": 3.2447077302,
				"z": -0.7148864214,
				"element": "H" 
			},
			{
				"x": 1.0488126045,
				"y": 2.1686241491,
				"z": -1.369703354,
				"element": "H" 
			},
			{
				"x": 0.0080042565,
				"y": 3.0865281533,
				"z": -2.4730416318,
				"element": "H" 
			},
			{
				"x": -2.6713072903,
				"y": 2.5524649565,
				"z": -0.8702513765,
				"element": "H" 
			},
			{
				"x": -2.5422850415,
				"y": 2.406058992,
				"z": -2.6377581272,
				"element": "H" 
			},
			{
				"x": -3.1050099221,
				"y": 1.0275067827,
				"z": -1.6765212516,
				"element": "H" 
			},
			{
				"x": -0.6809611039,
				"y": 0.911483696,
				"z": -3.6510116401,
				"element": "H" 
			},
			{
				"x": 0.3985026662,
				"y": 0.0275747963,
				"z": -2.5516100122,
				"element": "H" 
			},
			{
				"x": -1.3100961149,
				"y": -0.437489677,
				"z": -2.6838705007,
				"element": "H" 
			}
		],
		 "valence_orbital": [ 
			{
				"type": "occ",
				"energy": -0.28298,
				"method": "rhf"
			},
			{
				"type": "occ",
				"energy": -0.26273,
				"method": "rhf"
			},
			{
				"type": "occ",
				"energy": -0.25604,
				"method": "rhf"
			},
			{
				"type": "occ",
				"energy": -0.2497,
				"method": "rhf"
			},
			{
				"type": "occ",
				"energy": -0.23707,
				"method": "rhf"
			},
			{
				"type": "unocc",
				"energy": -0.01389,
				"method": "rhf"
			},
			{
				"type": "unocc",
				"energy": -0.01275,
				"method": "rhf"
			},
			{
				"type": "unocc",
				"energy": 0.03035,
				"method": "rhf"
			},
			{
				"type": "unocc",
				"energy": 0.06184,
				"method": "rhf"
			},
			{
				"type": "unocc",
				"energy": 0.07517,
				"method": "rhf"
			}
		],
		"cosmo_sigma_profile": { 
			"-0.025": 0.0,
			"-0.024": 0.0,
			"-0.023": 0.0,
			"-0.022": 0.0,
			"-0.021": 0.0,
			"-0.02": 0.0,
			"-0.019": 0.0,
			"-0.018": 0.0,
			"-0.017": 0.0,
			"-0.016": 0.0,
			"-0.015": 0.0,
			"-0.014": 0.0,
			"-0.013": 0.672799326081,
			"-0.012": 0.800707509869,
			"-0.011": 1.24810003377,
			"-0.01": 0.840874426511,
			"-0.009": 1.52824371809,
			"-0.008": 0.926954891029,
			"-0.007": 4.06500521661,
			"-0.006": 8.31731138659,
			"-0.005": 14.3378014063,
			"-0.004": 29.1280148628,
			"-0.003": 27.5967683841,
			"-0.002": 27.528065467,
			"-0.001": 33.2270511245,
			"0.0": 44.8231181303,
			"0.001": 39.3786469797,
			"0.002": 25.3214241875,
			"0.003": 18.2387023106,
			"0.004": 18.4323759314,
			"0.005": 15.0063992606,
			"0.006": 4.66433185903,
			"0.007": 2.62674356918,
			"0.008": 1.55740987029,
			"0.009": 1.01245406238,
			"0.01": 1.18495958787,
			"0.011": 1.44839527378,
			"0.012": 1.84781383085,
			"0.013": 2.3532166662,
			"0.014": 3.48416074025,
			"0.015": 0.549297590832,
			"0.016": 0.0,
			"0.017": 0.0,
			"0.018": 0.0,
			"0.019": 0.0,
			"0.02": 0.0,
			"0.021": 0.0,
			"0.022": 0.0,
			"0.023": 0.0,
			"0.024": 0.0,
			"0.025": 0.0
		}
	}
}
