{
	 "smiles": "FCOC(C(F)(F)F)C(F)(F)F", 
	 "Tm": 298.15, 
	 "num_atms": 15, 
	 "gaussian": { 
		 "optdone": 1, 
		 "sigma_profile": "yes", 
		 "theory": "DFT", 
		 "functional": "B3LYP", 
		 "basiset": "6-31G**", 
		 "properties": { 
			 "R2extent": 1909.6308, 
			 "electric_dipole_moment_norm": 2.01860188745, 
			 "electric_quadrupole_moment_norm": 6.74234911585, 
			 "total_energy": -928.323398685, 
			 "HOMO_LUMO_gap": 0.38068, 
			 "cosmo_polarized_energy": -5.83, 
			 "cosmo_cavitation_energy": 22.25, 
			 "cosmo_dispersion_energy": -15.15, 
			 "cosmo_repulsion_energy": 1.1, 
			 "cosmo_total_nonelectrostatic_energy": 8.2, 
			 "SMD_solvation_energy": 6.97 
		},
		"coords": [
			{
				"x": 2.9390574716,
				"y": 1.3733251444,
				"z": 1.2655344297,
				"element": "F" 
			},
			{
				"x": 2.8495854394,
				"y": 0.0590500703,
				"z": 0.8571906099,
				"element": "C" 
			},
			{
				"x": 1.5601102046,
				"y": -0.432536385,
				"z": 1.0644809805,
				"element": "O" 
			},
			{
				"x": 0.5526336284,
				"y": 0.1938719419,
				"z": 0.2983297806,
				"element": "C" 
			},
			{
				"x": 0.2019649957,
				"y": -0.6926719576,
				"z": -0.9042811382,
				"element": "C" 
			},
			{
				"x": 1.3209102337,
				"y": -0.9128737657,
				"z": -1.6313545204,
				"element": "F" 
			},
			{
				"x": -0.6954480822,
				"y": -0.0903241923,
				"z": -1.7033929502,
				"element": "F" 
			},
			{
				"x": -0.2887050058,
				"y": -1.8816368719,
				"z": -0.5331746547,
				"element": "F" 
			},
			{
				"x": -0.635234,
				"y": 0.4496406823,
				"z": 1.2348232361,
				"element": "C" 
			},
			{
				"x": -1.076911967,
				"y": -0.6821341378,
				"z": 1.8001516321,
				"element": "F" 
			},
			{
				"x": -1.6545259126,
				"y": 1.0111378022,
				"z": 0.5566414033,
				"element": "F" 
			},
			{
				"x": -0.2660418181,
				"y": 1.2934990219,
				"z": 2.210638755,
				"element": "F" 
			},
			{
				"x": 3.5058851328,
				"y": -0.5573104454,
				"z": 1.4757471271,
				"element": "H" 
			},
			{
				"x": 3.1324315656,
				"y": 0.0193319149,
				"z": -0.2007202116,
				"element": "H" 
			},
			{
				"x": 0.8715881139,
				"y": 1.1688311778,
				"z": -0.0835144794,
				"element": "H" 
			}
		],
		 "valence_orbital": [ 
			{
				"type": "occ",
				"energy": -0.41097,
				"method": "rhf"
			},
			{
				"type": "occ",
				"energy": -0.40688,
				"method": "rhf"
			},
			{
				"type": "occ",
				"energy": -0.38108,
				"method": "rhf"
			},
			{
				"type": "occ",
				"energy": -0.35456,
				"method": "rhf"
			},
			{
				"type": "occ",
				"energy": -0.32223,
				"method": "rhf"
			},
			{
				"type": "unocc",
				"energy": 0.05845,
				"method": "rhf"
			},
			{
				"type": "unocc",
				"energy": 0.07651,
				"method": "rhf"
			},
			{
				"type": "unocc",
				"energy": 0.10273,
				"method": "rhf"
			},
			{
				"type": "unocc",
				"energy": 0.12853,
				"method": "rhf"
			},
			{
				"type": "unocc",
				"energy": 0.13865,
				"method": "rhf"
			}
		],
		"cosmo_sigma_profile": { 
			"-0.025": 0.0,
			"-0.024": 0.0,
			"-0.023": 0.0,
			"-0.022": 0.0,
			"-0.021": 0.0,
			"-0.02": 0.0,
			"-0.019": 0.0,
			"-0.018": 0.0,
			"-0.017": 0.0,
			"-0.016": 0.0,
			"-0.015": 0.0,
			"-0.014": 0.0,
			"-0.013": 0.0165973615399,
			"-0.012": 1.7702578929,
			"-0.011": 2.09901135463,
			"-0.01": 1.48477119592,
			"-0.009": 2.55792170968,
			"-0.008": 5.80458401601,
			"-0.007": 7.03919471466,
			"-0.006": 4.91136878943,
			"-0.005": 4.36952791507,
			"-0.004": 3.73809202722,
			"-0.003": 3.84574729721,
			"-0.002": 6.53447082566,
			"-0.001": 6.97131939028,
			"0.0": 10.9466594259,
			"0.001": 25.5306079171,
			"0.002": 56.5725384104,
			"0.003": 13.7638897658,
			"0.004": 7.83167396317,
			"0.005": 8.59445847851,
			"0.006": 2.05141252584,
			"0.007": 0.980180422342,
			"0.008": 0.336764780755,
			"0.009": 0.0,
			"0.01": 0.0,
			"0.011": 0.0,
			"0.012": 0.0,
			"0.013": 0.0,
			"0.014": 0.0,
			"0.015": 0.0,
			"0.016": 0.0,
			"0.017": 0.0,
			"0.018": 0.0,
			"0.019": 0.0,
			"0.02": 0.0,
			"0.021": 0.0,
			"0.022": 0.0,
			"0.023": 0.0,
			"0.024": 0.0,
			"0.025": 0.0
		}
	}
}
