{
	 "smiles": "CCC1=C(NC2=NN=C(S)S2)C=CC=C1", 
	 "Tm": 433.15, 
	 "num_atms": 26, 
	 "gaussian": { 
		 "optdone": 1, 
		 "sigma_profile": "yes", 
		 "theory": "DFT", 
		 "functional": "B3LYP", 
		 "basiset": "6-31G**", 
		 "properties": { 
			 "R2extent": 5772.02, 
			 "electric_dipole_moment_norm": 4.5706481827, 
			 "electric_quadrupole_moment_norm": 15.0307299909, 
			 "total_energy": -1348.2908195, 
			 "HOMO_LUMO_gap": 0.17219, 
			 "cosmo_polarized_energy": -13.68, 
			 "cosmo_cavitation_energy": 33.13, 
			 "cosmo_dispersion_energy": -24.9, 
			 "cosmo_repulsion_energy": 1.87, 
			 "cosmo_total_nonelectrostatic_energy": 10.1, 
			 "SMD_solvation_energy": 2.91 
		},
		"coords": [
			{
				"x": -0.9920103926,
				"y": -1.4422211173,
				"z": 2.85111132,
				"element": "C" 
			},
			{
				"x": 0.280253784,
				"y": -0.8611762146,
				"z": 2.2022582558,
				"element": "C" 
			},
			{
				"x": 0.066083197,
				"y": 0.4830939979,
				"z": 1.5374721604,
				"element": "C" 
			},
			{
				"x": -0.435246044,
				"y": 0.5933303746,
				"z": 0.2201568313,
				"element": "C" 
			},
			{
				"x": -0.7351992575,
				"y": -0.5899722507,
				"z": -0.4900826562,
				"element": "N" 
			},
			{
				"x": -0.7140420152,
				"y": -0.8323411421,
				"z": -1.8330958116,
				"element": "C" 
			},
			{
				"x": -1.2512325615,
				"y": -1.9295176939,
				"z": -2.3220863585,
				"element": "N" 
			},
			{
				"x": -1.0161982551,
				"y": -2.0884523782,
				"z": -3.6547921114,
				"element": "N" 
			},
			{
				"x": -0.3336958483,
				"y": -1.1228869266,
				"z": -4.1879582604,
				"element": "C" 
			},
			{
				"x": -0.0327283012,
				"y": -1.0072110442,
				"z": -5.9276514606,
				"element": "S" 
			},
			{
				"x": 0.1106588323,
				"y": 0.1552026539,
				"z": -3.0371658958,
				"element": "S" 
			},
			{
				"x": -0.6440257786,
				"y": 1.8557727441,
				"z": -0.3525485255,
				"element": "C" 
			},
			{
				"x": -0.3327281034,
				"y": 3.0128065725,
				"z": 0.3589436171,
				"element": "C" 
			},
			{
				"x": 0.1666073087,
				"y": 2.9218267412,
				"z": 1.6571199055,
				"element": "C" 
			},
			{
				"x": 0.3514029415,
				"y": 1.6638524664,
				"z": 2.2309464635,
				"element": "C" 
			},
			{
				"x": -1.7982616863,
				"y": -1.5949043682,
				"z": 2.1241024877,
				"element": "H" 
			},
			{
				"x": -0.7828629527,
				"y": -2.4083596824,
				"z": 3.3210160062,
				"element": "H" 
			},
			{
				"x": -1.3785748872,
				"y": -0.7649533582,
				"z": 3.6187386098,
				"element": "H" 
			},
			{
				"x": 1.0474979764,
				"y": -0.7493645937,
				"z": 2.975740346,
				"element": "H" 
			},
			{
				"x": 0.6842687782,
				"y": -1.5770818221,
				"z": 1.4760490064,
				"element": "H" 
			},
			{
				"x": -1.0751484841,
				"y": -1.3851104996,
				"z": 0.0338358546,
				"element": "H" 
			},
			{
				"x": 1.3074892797,
				"y": -0.861931971,
				"z": -5.8503440536,
				"element": "H" 
			},
			{
				"x": -1.0757869467,
				"y": 1.9351830423,
				"z": -1.3439243452,
				"element": "H" 
			},
			{
				"x": -0.4980228115,
				"y": 3.9823691386,
				"z": -0.1011418473,
				"element": "H" 
			},
			{
				"x": 0.4093619789,
				"y": 3.8185864227,
				"z": 2.2186952204,
				"element": "H" 
			},
			{
				"x": 0.7430402493,
				"y": 1.5875609085,
				"z": 3.2424052415,
				"element": "H" 
			}
		],
		 "valence_orbital": [ 
			{
				"type": "occ",
				"energy": -0.28512,
				"method": "rhf"
			},
			{
				"type": "occ",
				"energy": -0.26342,
				"method": "rhf"
			},
			{
				"type": "occ",
				"energy": -0.25953,
				"method": "rhf"
			},
			{
				"type": "occ",
				"energy": -0.25418,
				"method": "rhf"
			},
			{
				"type": "occ",
				"energy": -0.21389,
				"method": "rhf"
			},
			{
				"type": "unocc",
				"energy": -0.0417,
				"method": "rhf"
			},
			{
				"type": "unocc",
				"energy": -0.02032,
				"method": "rhf"
			},
			{
				"type": "unocc",
				"energy": -0.00538,
				"method": "rhf"
			},
			{
				"type": "unocc",
				"energy": 0.00409,
				"method": "rhf"
			},
			{
				"type": "unocc",
				"energy": 0.01992,
				"method": "rhf"
			}
		],
		"cosmo_sigma_profile": { 
			"-0.025": 0.0,
			"-0.024": 0.0,
			"-0.023": 0.0,
			"-0.022": 0.0,
			"-0.021": 0.0,
			"-0.02": 0.0,
			"-0.019": 0.0,
			"-0.018": 0.0,
			"-0.017": 0.0,
			"-0.016": 0.0,
			"-0.015": 0.0,
			"-0.014": 0.0,
			"-0.013": 0.0955027387078,
			"-0.012": 2.14513702261,
			"-0.011": 4.69033181017,
			"-0.01": 3.22723027261,
			"-0.009": 3.28294977261,
			"-0.008": 2.31374088437,
			"-0.007": 3.29626107916,
			"-0.006": 8.16704398481,
			"-0.005": 14.1831085636,
			"-0.004": 17.4003771248,
			"-0.003": 18.7547719965,
			"-0.002": 24.8674388055,
			"-0.001": 29.072989789,
			"0.0": 30.7099058611,
			"0.001": 22.0747514668,
			"0.002": 15.0867558423,
			"0.003": 13.4529341835,
			"0.004": 11.8750409014,
			"0.005": 12.8446384433,
			"0.006": 6.58246550675,
			"0.007": 4.52918692718,
			"0.008": 2.83195121324,
			"0.009": 3.11298562868,
			"0.01": 2.59629241312,
			"0.011": 3.36332407532,
			"0.012": 3.25076462184,
			"0.013": 2.1614688299,
			"0.014": 2.47467956747,
			"0.015": 0.554970143533,
			"0.016": 0.0,
			"0.017": 0.0,
			"0.018": 0.0,
			"0.019": 0.0,
			"0.02": 0.0,
			"0.021": 0.0,
			"0.022": 0.0,
			"0.023": 0.0,
			"0.024": 0.0,
			"0.025": 0.0
		}
	}
}
