{
	 "smiles": "OCNC(=O)C=C", 
	 "Tm": 347.65, 
	 "num_atms": 14, 
	 "gaussian": { 
		 "optdone": 1, 
		 "sigma_profile": "yes", 
		 "theory": "DFT", 
		 "functional": "B3LYP", 
		 "basiset": "6-31G**", 
		 "properties": { 
			 "R2extent": 899.2905, 
			 "electric_dipole_moment_norm": 3.4949644476, 
			 "electric_quadrupole_moment_norm": 6.52729830481, 
			 "total_energy": -361.824868702, 
			 "HOMO_LUMO_gap": 0.21257, 
			 "cosmo_polarized_energy": -11.73, 
			 "cosmo_cavitation_energy": 18.1, 
			 "cosmo_dispersion_energy": -13.3, 
			 "cosmo_repulsion_energy": 1.14, 
			 "cosmo_total_nonelectrostatic_energy": 5.93, 
			 "SMD_solvation_energy": 3.98 
		},
		"coords": [
			{
				"x": -2.3034922103,
				"y": 0.3271523566,
				"z": -0.3339201322,
				"element": "O" 
			},
			{
				"x": -1.2472492872,
				"y": 0.2486707577,
				"z": -1.2548135129,
				"element": "C" 
			},
			{
				"x": -0.1729825374,
				"y": -0.6531588308,
				"z": -0.8441847242,
				"element": "N" 
			},
			{
				"x": 0.4816525681,
				"y": -0.3719255008,
				"z": 0.329620824,
				"element": "C" 
			},
			{
				"x": 0.231858993,
				"y": 0.646407496,
				"z": 0.9776818438,
				"element": "O" 
			},
			{
				"x": 1.5297180559,
				"y": -1.332106739,
				"z": 0.781494633,
				"element": "C" 
			},
			{
				"x": 2.1959191031,
				"y": -2.1764579647,
				"z": -0.0102896984,
				"element": "C" 
			},
			{
				"x": -1.9184571962,
				"y": 0.7465074352,
				"z": 0.4522982026,
				"element": "H" 
			},
			{
				"x": -1.6575983949,
				"y": -0.127278856,
				"z": -2.1945304417,
				"element": "H" 
			},
			{
				"x": -0.7926714982,
				"y": 1.2310383342,
				"z": -1.4302087812,
				"element": "H" 
			},
			{
				"x": -0.2331829912,
				"y": -1.6227658932,
				"z": -1.1215707285,
				"element": "H" 
			},
			{
				"x": 1.7653227326,
				"y": -1.2475966285,
				"z": 1.8386792055,
				"element": "H" 
			},
			{
				"x": 2.972115973,
				"y": -2.8259763499,
				"z": 0.3824572358,
				"element": "H" 
			},
			{
				"x": 2.0124466896,
				"y": -2.2321096167,
				"z": -1.0799139257,
				"element": "H" 
			}
		],
		 "valence_orbital": [ 
			{
				"type": "occ",
				"energy": -0.34517,
				"method": "rhf"
			},
			{
				"type": "occ",
				"energy": -0.29177,
				"method": "rhf"
			},
			{
				"type": "occ",
				"energy": -0.28448,
				"method": "rhf"
			},
			{
				"type": "occ",
				"energy": -0.26813,
				"method": "rhf"
			},
			{
				"type": "occ",
				"energy": -0.26044,
				"method": "rhf"
			},
			{
				"type": "unocc",
				"energy": -0.04787,
				"method": "rhf"
			},
			{
				"type": "unocc",
				"energy": 0.0655,
				"method": "rhf"
			},
			{
				"type": "unocc",
				"energy": 0.08163,
				"method": "rhf"
			},
			{
				"type": "unocc",
				"energy": 0.10906,
				"method": "rhf"
			},
			{
				"type": "unocc",
				"energy": 0.12538,
				"method": "rhf"
			}
		],
		"cosmo_sigma_profile": { 
			"-0.025": 0.0,
			"-0.024": 0.0,
			"-0.023": 0.0,
			"-0.022": 0.0,
			"-0.021": 0.0,
			"-0.02": 0.0,
			"-0.019": 0.0,
			"-0.018": 0.0,
			"-0.017": 0.0,
			"-0.016": 0.0,
			"-0.015": 0.134249889383,
			"-0.014": 1.12756390586,
			"-0.013": 1.29591920728,
			"-0.012": 0.721129855233,
			"-0.011": 1.87681473692,
			"-0.01": 1.77152621007,
			"-0.009": 2.611747202,
			"-0.008": 2.64957408408,
			"-0.007": 6.42066331629,
			"-0.006": 8.36827643432,
			"-0.005": 10.4843706812,
			"-0.004": 9.75259698659,
			"-0.003": 10.1395787481,
			"-0.002": 10.1118761315,
			"-0.001": 8.49660625708,
			"0.0": 8.51793391351,
			"0.001": 9.0514237919,
			"0.002": 7.20170971224,
			"0.003": 6.48388963284,
			"0.004": 4.6332656187,
			"0.005": 3.55265277863,
			"0.006": 2.77430327437,
			"0.007": 2.39726189936,
			"0.008": 1.74651051532,
			"0.009": 2.00014301138,
			"0.01": 3.06218453104,
			"0.011": 3.40345224397,
			"0.012": 3.55003126148,
			"0.013": 4.80258559186,
			"0.014": 3.52185895896,
			"0.015": 0.20853284055,
			"0.016": 0.0,
			"0.017": 0.0,
			"0.018": 0.0,
			"0.019": 0.0,
			"0.02": 0.0,
			"0.021": 0.0,
			"0.022": 0.0,
			"0.023": 0.0,
			"0.024": 0.0,
			"0.025": 0.0
		}
	}
}
