{
	 "smiles": "OC(C1=CC=CC=C1)(C1=CC=CC=C1)C1=CC=CC=C1", 
	 "Tm": 437.15, 
	 "num_atms": 36, 
	 "gaussian": { 
		 "optdone": 1, 
		 "sigma_profile": "yes", 
		 "theory": "DFT", 
		 "functional": "B3LYP", 
		 "basiset": "6-31G**", 
		 "properties": { 
			 "R2extent": 6027.4114, 
			 "electric_dipole_moment_norm": 1.36458301323, 
			 "electric_quadrupole_moment_norm": 3.50870086642, 
			 "total_energy": -808.88014258, 
			 "HOMO_LUMO_gap": 0.2194, 
			 "cosmo_polarized_energy": -9.72, 
			 "cosmo_cavitation_energy": 38.32, 
			 "cosmo_dispersion_energy": -26.52, 
			 "cosmo_repulsion_energy": 2.04, 
			 "cosmo_total_nonelectrostatic_energy": 13.83, 
			 "SMD_solvation_energy": 6.51 
		},
		"coords": [
			{
				"x": 1.298856712,
				"y": -1.9254625751,
				"z": 1.6765406842,
				"element": "O" 
			},
			{
				"x": 1.3003684293,
				"y": -0.9013655522,
				"z": 0.6639473606,
				"element": "C" 
			},
			{
				"x": 1.9534435189,
				"y": 0.3489679988,
				"z": 1.2860134172,
				"element": "C" 
			},
			{
				"x": 1.4160150685,
				"y": 0.8278309646,
				"z": 2.4944410307,
				"element": "C" 
			},
			{
				"x": 1.9833876721,
				"y": 1.9188009966,
				"z": 3.1469998451,
				"element": "C" 
			},
			{
				"x": 3.1071102068,
				"y": 2.5527898314,
				"z": 2.6077680411,
				"element": "C" 
			},
			{
				"x": 3.6537981727,
				"y": 2.0811690155,
				"z": 1.4164680732,
				"element": "C" 
			},
			{
				"x": 3.0833066291,
				"y": 0.9848246796,
				"z": 0.7606101536,
				"element": "C" 
			},
			{
				"x": 2.0325847847,
				"y": -1.4067233352,
				"z": -0.5991569657,
				"element": "C" 
			},
			{
				"x": 1.9917427761,
				"y": -0.6794892493,
				"z": -1.7989826466,
				"element": "C" 
			},
			{
				"x": 2.6585518268,
				"y": -1.1353650252,
				"z": -2.9352067137,
				"element": "C" 
			},
			{
				"x": 3.3726313679,
				"y": -2.3355626069,
				"z": -2.8986140689,
				"element": "C" 
			},
			{
				"x": 3.4067065033,
				"y": -3.0734607977,
				"z": -1.7166702938,
				"element": "C" 
			},
			{
				"x": 2.7409497523,
				"y": -2.6125995774,
				"z": -0.5777838391,
				"element": "C" 
			},
			{
				"x": -0.1808948118,
				"y": -0.6697535252,
				"z": 0.3181948394,
				"element": "C" 
			},
			{
				"x": -0.6674234229,
				"y": 0.5877233728,
				"z": -0.0578503745,
				"element": "C" 
			},
			{
				"x": -2.0067419107,
				"y": 0.7540534037,
				"z": -0.4191800647,
				"element": "C" 
			},
			{
				"x": -2.8788686948,
				"y": -0.3337150203,
				"z": -0.4019517589,
				"element": "C" 
			},
			{
				"x": -2.4013434964,
				"y": -1.5905683545,
				"z": -0.0229213835,
				"element": "C" 
			},
			{
				"x": -1.0633283392,
				"y": -1.7587460842,
				"z": 0.3303138565,
				"element": "C" 
			},
			{
				"x": 2.1645391449,
				"y": -1.8997625796,
				"z": 2.1058307539,
				"element": "H" 
			},
			{
				"x": 0.548268283,
				"y": 0.3314857605,
				"z": 2.9171143645,
				"element": "H" 
			},
			{
				"x": 1.5501776176,
				"y": 2.2751354363,
				"z": 4.0774629865,
				"element": "H" 
			},
			{
				"x": 3.5511961683,
				"y": 3.4043215888,
				"z": 3.1154704227,
				"element": "H" 
			},
			{
				"x": 4.5310476424,
				"y": 2.5607156918,
				"z": 0.9912339684,
				"element": "H" 
			},
			{
				"x": 3.5268056602,
				"y": 0.6274960098,
				"z": -0.1615383073,
				"element": "H" 
			},
			{
				"x": 1.4249240603,
				"y": 0.2448673769,
				"z": -1.8494431314,
				"element": "H" 
			},
			{
				"x": 2.6129915398,
				"y": -0.5556712025,
				"z": -3.8530071969,
				"element": "H" 
			},
			{
				"x": 3.8881714126,
				"y": -2.6937328356,
				"z": -3.7850824243,
				"element": "H" 
			},
			{
				"x": 3.9471208424,
				"y": -4.0152956938,
				"z": -1.676901246,
				"element": "H" 
			},
			{
				"x": 2.7499509351,
				"y": -3.2068504971,
				"z": 0.328611223,
				"element": "H" 
			},
			{
				"x": -0.0038657383,
				"y": 1.4467771871,
				"z": -0.0553416152,
				"element": "H" 
			},
			{
				"x": -2.3665528034,
				"y": 1.7384248082,
				"z": -0.7056043632,
				"element": "H" 
			},
			{
				"x": -3.9216030712,
				"y": -0.2041919685,
				"z": -0.6777078234,
				"element": "H" 
			},
			{
				"x": -3.0731278507,
				"y": -2.444342121,
				"z": -0.0022440063,
				"element": "H" 
			},
			{
				"x": -0.6951965876,
				"y": -2.7344255214,
				"z": 0.6263672027,
				"element": "H" 
			}
		],
		 "valence_orbital": [ 
			{
				"type": "occ",
				"energy": -0.25193,
				"method": "rhf"
			},
			{
				"type": "occ",
				"energy": -0.24698,
				"method": "rhf"
			},
			{
				"type": "occ",
				"energy": -0.2448,
				"method": "rhf"
			},
			{
				"type": "occ",
				"energy": -0.24009,
				"method": "rhf"
			},
			{
				"type": "occ",
				"energy": -0.23122,
				"method": "rhf"
			},
			{
				"type": "unocc",
				"energy": -0.01182,
				"method": "rhf"
			},
			{
				"type": "unocc",
				"energy": -0.00822,
				"method": "rhf"
			},
			{
				"type": "unocc",
				"energy": -0.00493,
				"method": "rhf"
			},
			{
				"type": "unocc",
				"energy": -0.00112,
				"method": "rhf"
			},
			{
				"type": "unocc",
				"energy": 0.01177,
				"method": "rhf"
			}
		],
		"cosmo_sigma_profile": { 
			"-0.025": 0.0,
			"-0.024": 0.0,
			"-0.023": 0.0,
			"-0.022": 0.0,
			"-0.021": 0.0,
			"-0.02": 0.0,
			"-0.019": 0.0,
			"-0.018": 0.0,
			"-0.017": 0.0,
			"-0.016": 0.0919545478139,
			"-0.015": 0.597699108879,
			"-0.014": 0.633200364631,
			"-0.013": 1.0149015391,
			"-0.012": 0.471013260468,
			"-0.011": 0.405284942135,
			"-0.01": 0.95257577512,
			"-0.009": 1.27695864956,
			"-0.008": 1.04899323034,
			"-0.007": 1.05821193297,
			"-0.006": 9.19613717581,
			"-0.005": 24.6215327078,
			"-0.004": 31.6458884878,
			"-0.003": 31.7385696095,
			"-0.002": 20.0475422883,
			"-0.001": 19.4222187009,
			"0.0": 20.9783671135,
			"0.001": 19.5488454452,
			"0.002": 21.431719585,
			"0.003": 23.9668623553,
			"0.004": 23.9390868349,
			"0.005": 27.0829054963,
			"0.006": 17.3111181473,
			"0.007": 1.99401179808,
			"0.008": 1.39665842208,
			"0.009": 0.96043074911,
			"0.01": 1.71596860468,
			"0.011": 0.929024390052,
			"0.012": 0.652473482813,
			"0.013": 0.0654402504862,
			"0.014": 0.0,
			"0.015": 0.0,
			"0.016": 0.0,
			"0.017": 0.0,
			"0.018": 0.0,
			"0.019": 0.0,
			"0.02": 0.0,
			"0.021": 0.0,
			"0.022": 0.0,
			"0.023": 0.0,
			"0.024": 0.0,
			"0.025": 0.0
		}
	}
}
