{
	 "smiles": "CC1=CC(O)=NC(C)=N1", 
	 "Tm": 472.15, 
	 "num_atms": 17, 
	 "gaussian": { 
		 "optdone": 1, 
		 "sigma_profile": "yes", 
		 "theory": "DFT", 
		 "functional": "B3LYP", 
		 "basiset": "6-31G**", 
		 "properties": { 
			 "R2extent": 1570.9145, 
			 "electric_dipole_moment_norm": 0.54186039715, 
			 "electric_quadrupole_moment_norm": 5.56200356976, 
			 "total_energy": -418.210419548, 
			 "HOMO_LUMO_gap": 0.22762, 
			 "cosmo_polarized_energy": -7.95, 
			 "cosmo_cavitation_energy": 20.96, 
			 "cosmo_dispersion_energy": -15.79, 
			 "cosmo_repulsion_energy": 1.32, 
			 "cosmo_total_nonelectrostatic_energy": 6.49, 
			 "SMD_solvation_energy": 1.69 
		},
		"coords": [
			{
				"x": -0.3306819348,
				"y": -1.9959671046,
				"z": -0.3572446027,
				"element": "C" 
			},
			{
				"x": -0.6671587098,
				"y": -0.5292475447,
				"z": -0.3598192311,
				"element": "C" 
			},
			{
				"x": -1.7690632522,
				"y": -0.0275315585,
				"z": -1.0402759021,
				"element": "C" 
			},
			{
				"x": -1.9642221744,
				"y": 1.3569891448,
				"z": -0.9585476672,
				"element": "C" 
			},
			{
				"x": -3.0127644845,
				"y": 1.91318985,
				"z": -1.5936500309,
				"element": "O" 
			},
			{
				"x": -1.157660962,
				"y": 2.1636720601,
				"z": -0.2772637416,
				"element": "N" 
			},
			{
				"x": -0.1168920565,
				"y": 1.5797189399,
				"z": 0.3482549272,
				"element": "C" 
			},
			{
				"x": 0.7989313825,
				"y": 2.4903681068,
				"z": 1.120814908,
				"element": "C" 
			},
			{
				"x": 0.1648494512,
				"y": 0.2759138817,
				"z": 0.338754221,
				"element": "N" 
			},
			{
				"x": 0.6728442503,
				"y": -2.1502640435,
				"z": -0.7667845049,
				"element": "H" 
			},
			{
				"x": -1.0461198583,
				"y": -2.5801656121,
				"z": -0.9408728629,
				"element": "H" 
			},
			{
				"x": -0.3158916932,
				"y": -2.3745690579,
				"z": 0.6699002207,
				"element": "H" 
			},
			{
				"x": -2.447273689,
				"y": -0.6552665693,
				"z": -1.6052597049,
				"element": "H" 
			},
			{
				"x": -2.9613329451,
				"y": 2.8655963904,
				"z": -1.4095003749,
				"element": "H" 
			},
			{
				"x": 0.2383894768,
				"y": 3.0252745378,
				"z": 1.8945532526,
				"element": "H" 
			},
			{
				"x": 1.2292457765,
				"y": 3.2478832356,
				"z": 0.4574596188,
				"element": "H" 
			},
			{
				"x": 1.6000014225,
				"y": 1.9137053436,
				"z": 1.583681475,
				"element": "H" 
			}
		],
		 "valence_orbital": [ 
			{
				"type": "occ",
				"energy": -0.3502,
				"method": "rhf"
			},
			{
				"type": "occ",
				"energy": -0.29932,
				"method": "rhf"
			},
			{
				"type": "occ",
				"energy": -0.28277,
				"method": "rhf"
			},
			{
				"type": "occ",
				"energy": -0.25387,
				"method": "rhf"
			},
			{
				"type": "occ",
				"energy": -0.25009,
				"method": "rhf"
			},
			{
				"type": "unocc",
				"energy": -0.02247,
				"method": "rhf"
			},
			{
				"type": "unocc",
				"energy": -0.00749,
				"method": "rhf"
			},
			{
				"type": "unocc",
				"energy": 0.08603,
				"method": "rhf"
			},
			{
				"type": "unocc",
				"energy": 0.11183,
				"method": "rhf"
			},
			{
				"type": "unocc",
				"energy": 0.1292,
				"method": "rhf"
			}
		],
		"cosmo_sigma_profile": { 
			"-0.025": 0.0,
			"-0.024": 0.0,
			"-0.023": 0.0,
			"-0.022": 0.0,
			"-0.021": 0.0,
			"-0.02": 0.0,
			"-0.019": 0.0,
			"-0.018": 0.215211623463,
			"-0.017": 0.612817820042,
			"-0.016": 0.708423151818,
			"-0.015": 0.741497169412,
			"-0.014": 0.919644500838,
			"-0.013": 0.69225214804,
			"-0.012": 0.334112229053,
			"-0.011": 0.680186996956,
			"-0.01": 0.986998168102,
			"-0.009": 0.387687407045,
			"-0.008": 0.416890996001,
			"-0.007": 2.19291019074,
			"-0.006": 4.11685062751,
			"-0.005": 9.8698979655,
			"-0.004": 12.8887327641,
			"-0.003": 11.8198392602,
			"-0.002": 13.9007709109,
			"-0.001": 22.0664695231,
			"0.0": 22.3523096009,
			"0.001": 13.2307798779,
			"0.002": 8.74538474343,
			"0.003": 4.99924005342,
			"0.004": 4.81022971779,
			"0.005": 3.55372788255,
			"0.006": 3.4191293486,
			"0.007": 4.21678111435,
			"0.008": 4.23362059842,
			"0.009": 3.46805382294,
			"0.01": 3.26454760364,
			"0.011": 1.19451329295,
			"0.012": 1.92675335745,
			"0.013": 1.24129231626,
			"0.014": 0.719424081212,
			"0.015": 0.982669682052,
			"0.016": 0.213975754305,
			"0.017": 0.0,
			"0.018": 0.0,
			"0.019": 0.0,
			"0.02": 0.0,
			"0.021": 0.0,
			"0.022": 0.0,
			"0.023": 0.0,
			"0.024": 0.0,
			"0.025": 0.0
		}
	}
}
