{
	 "smiles": "CC1(NC(=O)NC1=O)C1=CC=C(Cl)S1", 
	 "Tm": 457.15, 
	 "num_atms": 21, 
	 "gaussian": { 
		 "optdone": 1, 
		 "sigma_profile": "yes", 
		 "theory": "DFT", 
		 "functional": "B3LYP", 
		 "basiset": "6-31G**", 
		 "properties": { 
			 "R2extent": 5439.1482, 
			 "electric_dipole_moment_norm": 2.80393064465, 
			 "electric_quadrupole_moment_norm": 10.827244583, 
			 "total_energy": -1427.41968397, 
			 "HOMO_LUMO_gap": 0.1975, 
			 "cosmo_polarized_energy": -16.46, 
			 "cosmo_cavitation_energy": 29.2, 
			 "cosmo_dispersion_energy": -21.26, 
			 "cosmo_repulsion_energy": 1.65, 
			 "cosmo_total_nonelectrostatic_energy": 9.6, 
			 "SMD_solvation_energy": 6.15 
		},
		"coords": [
			{
				"x": 0.618335274,
				"y": 0.9845712398,
				"z": -1.8514770535,
				"element": "C" 
			},
			{
				"x": -0.5059845686,
				"y": 0.9854244383,
				"z": -0.7985356002,
				"element": "C" 
			},
			{
				"x": -1.8344861965,
				"y": 1.1306460623,
				"z": -1.3925761847,
				"element": "N" 
			},
			{
				"x": -2.5959689459,
				"y": -0.0174408006,
				"z": -1.3271753082,
				"element": "C" 
			},
			{
				"x": -3.6740729987,
				"y": -0.2336555354,
				"z": -1.8341073687,
				"element": "O" 
			},
			{
				"x": -1.8556661726,
				"y": -0.9144445492,
				"z": -0.5304031692,
				"element": "N" 
			},
			{
				"x": -0.611532441,
				"y": -0.4415777265,
				"z": -0.1785741186,
				"element": "C" 
			},
			{
				"x": 0.2469133153,
				"y": -1.0117334408,
				"z": 0.4556877629,
				"element": "O" 
			},
			{
				"x": -0.2604447991,
				"y": 2.0126038969,
				"z": 0.2861387917,
				"element": "C" 
			},
			{
				"x": 0.8962779999,
				"y": 2.2695815974,
				"z": 0.972824874,
				"element": "C" 
			},
			{
				"x": 0.7536930811,
				"y": 3.2763600746,
				"z": 1.9748082949,
				"element": "C" 
			},
			{
				"x": -0.5220613861,
				"y": 3.7616675166,
				"z": 2.0298804724,
				"element": "C" 
			},
			{
				"x": -1.1196754605,
				"y": 4.9998223582,
				"z": 3.082707883,
				"element": "Cl" 
			},
			{
				"x": -1.579567621,
				"y": 3.0036435694,
				"z": 0.8705223986,
				"element": "S" 
			},
			{
				"x": 0.4092399349,
				"y": 0.2436498782,
				"z": -2.6287617708,
				"element": "H" 
			},
			{
				"x": 0.7070954071,
				"y": 1.9723619628,
				"z": -2.3120703145,
				"element": "H" 
			},
			{
				"x": 1.5704020282,
				"y": 0.7296507707,
				"z": -1.3811740738,
				"element": "H" 
			},
			{
				"x": -2.04668659,
				"y": 1.8154579297,
				"z": -2.1036736872,
				"element": "H" 
			},
			{
				"x": -2.20673355,
				"y": -1.8295565461,
				"z": -0.2853786805,
				"element": "H" 
			},
			{
				"x": 1.8253091368,
				"y": 1.7437546298,
				"z": 0.7888129665,
				"element": "H" 
			},
			{
				"x": 1.5538145527,
				"y": 3.622312674,
				"z": 2.6173238861,
				"element": "H" 
			}
		],
		 "valence_orbital": [ 
			{
				"type": "occ",
				"energy": -0.29869,
				"method": "rhf"
			},
			{
				"type": "occ",
				"energy": -0.2845,
				"method": "rhf"
			},
			{
				"type": "occ",
				"energy": -0.2743,
				"method": "rhf"
			},
			{
				"type": "occ",
				"energy": -0.26839,
				"method": "rhf"
			},
			{
				"type": "occ",
				"energy": -0.23468,
				"method": "rhf"
			},
			{
				"type": "unocc",
				"energy": -0.03718,
				"method": "rhf"
			},
			{
				"type": "unocc",
				"energy": -0.01371,
				"method": "rhf"
			},
			{
				"type": "unocc",
				"energy": 0.00801,
				"method": "rhf"
			},
			{
				"type": "unocc",
				"energy": 0.0218,
				"method": "rhf"
			},
			{
				"type": "unocc",
				"energy": 0.04368,
				"method": "rhf"
			}
		],
		"cosmo_sigma_profile": { 
			"-0.025": 0.0,
			"-0.024": 0.0,
			"-0.023": 0.0,
			"-0.022": 0.0,
			"-0.021": 0.0,
			"-0.02": 0.0,
			"-0.019": 0.0,
			"-0.018": 0.0,
			"-0.017": 0.792496031938,
			"-0.016": 1.71583747592,
			"-0.015": 2.18720236844,
			"-0.014": 2.37209092449,
			"-0.013": 1.89395208785,
			"-0.012": 1.52466431312,
			"-0.011": 1.93718967386,
			"-0.01": 2.13377811994,
			"-0.009": 1.83901545142,
			"-0.008": 4.39367293793,
			"-0.007": 7.96440755314,
			"-0.006": 9.75185974632,
			"-0.005": 11.7110780949,
			"-0.004": 11.7423897481,
			"-0.003": 13.7959718272,
			"-0.002": 17.3751486386,
			"-0.001": 16.2098824739,
			"0.0": 15.159795871,
			"0.001": 18.0924287293,
			"0.002": 21.2859821567,
			"0.003": 22.748353529,
			"0.004": 12.7167272945,
			"0.005": 2.80878818215,
			"0.006": 2.88840758696,
			"0.007": 2.87214852719,
			"0.008": 2.3425699212,
			"0.009": 2.81558791509,
			"0.01": 4.8349055649,
			"0.011": 6.45524532677,
			"0.012": 9.55855296255,
			"0.013": 3.3761687583,
			"0.014": 0.0328167024422,
			"0.015": 0.0,
			"0.016": 0.0,
			"0.017": 0.0,
			"0.018": 0.0,
			"0.019": 0.0,
			"0.02": 0.0,
			"0.021": 0.0,
			"0.022": 0.0,
			"0.023": 0.0,
			"0.024": 0.0,
			"0.025": 0.0
		}
	}
}
