{
	 "smiles": "CN(C)C1=CC=CC(Br)=C1", 
	 "Tm": 284.15, 
	 "num_atms": 20, 
	 "gaussian": { 
		 "optdone": 1, 
		 "sigma_profile": "yes", 
		 "theory": "DFT", 
		 "functional": "B3LYP", 
		 "basiset": "6-31G**", 
		 "properties": { 
			 "R2extent": 4665.4901, 
			 "electric_dipole_moment_norm": 3.5604599436, 
			 "electric_quadrupole_moment_norm": 9.61548631271, 
			 "total_energy": -2937.02701906, 
			 "HOMO_LUMO_gap": 0.19344, 
			 "cosmo_polarized_energy": -5.8, 
			 "cosmo_cavitation_energy": 24.91, 
			 "cosmo_dispersion_energy": -18.91, 
			 "cosmo_repulsion_energy": 1.52, 
			 "cosmo_total_nonelectrostatic_energy": 7.52, 
			 "SMD_solvation_energy": 2.81 
		},
		"coords": [
			{
				"x": 0.6129387824,
				"y": 1.3027368703,
				"z": 1.1263309983,
				"element": "C" 
			},
			{
				"x": 0.4220909015,
				"y": 0.9550241269,
				"z": -0.2715335809,
				"element": "N" 
			},
			{
				"x": 0.5129900244,
				"y": 2.0096728214,
				"z": -1.2671265691,
				"element": "C" 
			},
			{
				"x": 0.5421939214,
				"y": -0.3698306789,
				"z": -0.6663060788,
				"element": "C" 
			},
			{
				"x": 0.646220011,
				"y": -1.4160732811,
				"z": 0.2801620762,
				"element": "C" 
			},
			{
				"x": 0.7367797767,
				"y": -2.7414439025,
				"z": -0.1328268412,
				"element": "C" 
			},
			{
				"x": 0.7375292644,
				"y": -3.0912450937,
				"z": -1.4841451037,
				"element": "C" 
			},
			{
				"x": 0.647708862,
				"y": -2.055893888,
				"z": -2.4097386038,
				"element": "C" 
			},
			{
				"x": 0.6579974802,
				"y": -2.4791995217,
				"z": -4.2807716872,
				"element": "Br" 
			},
			{
				"x": 0.5562936904,
				"y": -0.7203321971,
				"z": -2.0367635396,
				"element": "C" 
			},
			{
				"x": 1.618717685,
				"y": 1.051056635,
				"z": 1.4972389144,
				"element": "H" 
			},
			{
				"x": 0.4633128044,
				"y": 2.3762173106,
				"z": 1.2507107894,
				"element": "H" 
			},
			{
				"x": -0.1191359577,
				"y": 0.7933580143,
				"z": 1.7636877842,
				"element": "H" 
			},
			{
				"x": 0.3789271047,
				"y": 2.9754354309,
				"z": -0.7777659415,
				"element": "H" 
			},
			{
				"x": 1.4813052584,
				"y": 2.0216162812,
				"z": -1.7911459499,
				"element": "H" 
			},
			{
				"x": -0.2772270873,
				"y": 1.9108224161,
				"z": -2.0203984178,
				"element": "H" 
			},
			{
				"x": 0.6570638806,
				"y": -1.197130935,
				"z": 1.3401811413,
				"element": "H" 
			},
			{
				"x": 0.8129230591,
				"y": -3.5229919314,
				"z": 0.6181804662,
				"element": "H" 
			},
			{
				"x": 0.8101099292,
				"y": -4.1230241682,
				"z": -1.804483412,
				"element": "H" 
			},
			{
				"x": 0.4972606093,
				"y": 0.0350256911,
				"z": -2.8072864446,
				"element": "H" 
			}
		],
		 "valence_orbital": [ 
			{
				"type": "occ",
				"energy": -0.31189,
				"method": "rhf"
			},
			{
				"type": "occ",
				"energy": -0.27871,
				"method": "rhf"
			},
			{
				"type": "occ",
				"energy": -0.27676,
				"method": "rhf"
			},
			{
				"type": "occ",
				"energy": -0.23515,
				"method": "rhf"
			},
			{
				"type": "occ",
				"energy": -0.19569,
				"method": "rhf"
			},
			{
				"type": "unocc",
				"energy": -0.00225,
				"method": "rhf"
			},
			{
				"type": "unocc",
				"energy": 0.0121,
				"method": "rhf"
			},
			{
				"type": "unocc",
				"energy": 0.01646,
				"method": "rhf"
			},
			{
				"type": "unocc",
				"energy": 0.08505,
				"method": "rhf"
			},
			{
				"type": "unocc",
				"energy": 0.1049,
				"method": "rhf"
			}
		],
		"cosmo_sigma_profile": { 
			"-0.025": 0.0,
			"-0.024": 0.0,
			"-0.023": 0.0,
			"-0.022": 0.0,
			"-0.021": 0.0,
			"-0.02": 0.0,
			"-0.019": 0.0,
			"-0.018": 0.0,
			"-0.017": 0.0,
			"-0.016": 0.0,
			"-0.015": 0.0,
			"-0.014": 0.0,
			"-0.013": 0.0,
			"-0.012": 0.0,
			"-0.011": 0.0,
			"-0.01": 0.0,
			"-0.009": 0.0,
			"-0.008": 0.0,
			"-0.007": 1.1405800623,
			"-0.006": 8.11604967447,
			"-0.005": 13.4789457506,
			"-0.004": 18.6846361725,
			"-0.003": 20.9918334066,
			"-0.002": 23.1942324709,
			"-0.001": 18.105423663,
			"0.0": 10.5730461869,
			"0.001": 10.2902069609,
			"0.002": 10.1987820705,
			"0.003": 15.737971809,
			"0.004": 17.4187373586,
			"0.005": 24.1797694389,
			"0.006": 8.13384120341,
			"0.007": 0.70819505056,
			"0.008": 0.0108535578582,
			"0.009": 0.0,
			"0.01": 0.0,
			"0.011": 0.0,
			"0.012": 0.0,
			"0.013": 0.0,
			"0.014": 0.0,
			"0.015": 0.0,
			"0.016": 0.0,
			"0.017": 0.0,
			"0.018": 0.0,
			"0.019": 0.0,
			"0.02": 0.0,
			"0.021": 0.0,
			"0.022": 0.0,
			"0.023": 0.0,
			"0.024": 0.0,
			"0.025": 0.0
		}
	}
}
