{
	 "smiles": "CC1=CC=C(C=C1)C1=CC(F)=C(C=C1)C(O)=O", 
	 "Tm": 521.15, 
	 "num_atms": 28, 
	 "gaussian": { 
		 "optdone": 1, 
		 "sigma_profile": "yes", 
		 "theory": "DFT", 
		 "functional": "B3LYP", 
		 "basiset": "6-31G**", 
		 "properties": { 
			 "R2extent": 6335.017, 
			 "electric_dipole_moment_norm": 6.75438894127, 
			 "electric_quadrupole_moment_norm": 28.5794347895, 
			 "total_energy": -790.420608496, 
			 "HOMO_LUMO_gap": 0.17545, 
			 "cosmo_polarized_energy": -16.22, 
			 "cosmo_cavitation_energy": 33.2, 
			 "cosmo_dispersion_energy": -23.95, 
			 "cosmo_repulsion_energy": 1.82, 
			 "cosmo_total_nonelectrostatic_energy": 11.06, 
			 "SMD_solvation_energy": 7.05 
		},
		"coords": [
			{
				"x": 0.5235780877,
				"y": -3.1422746578,
				"z": 4.1693888488,
				"element": "C" 
			},
			{
				"x": 0.489128613,
				"y": -2.346055426,
				"z": 2.8871051833,
				"element": "C" 
			},
			{
				"x": 1.6283456761,
				"y": -2.2234598584,
				"z": 2.0801746144,
				"element": "C" 
			},
			{
				"x": 1.6084133253,
				"y": -1.4648645325,
				"z": 0.9126708816,
				"element": "C" 
			},
			{
				"x": 0.4405950486,
				"y": -0.8005827635,
				"z": 0.5026697857,
				"element": "C" 
			},
			{
				"x": -0.7030772234,
				"y": -0.9273769313,
				"z": 1.3082634695,
				"element": "C" 
			},
			{
				"x": -0.676256125,
				"y": -1.6851669714,
				"z": 2.4762340203,
				"element": "C" 
			},
			{
				"x": 0.4134241087,
				"y": 0.0035156042,
				"z": -0.7427796207,
				"element": "C" 
			},
			{
				"x": 1.5354159559,
				"y": 0.7472417753,
				"z": -1.1415089569,
				"element": "C" 
			},
			{
				"x": 1.5073606348,
				"y": 1.4880962918,
				"z": -2.3144972131,
				"element": "C" 
			},
			{
				"x": 2.5987221751,
				"y": 2.1965454478,
				"z": -2.6354050846,
				"element": "F" 
			},
			{
				"x": 0.3701478903,
				"y": 1.551109754,
				"z": -3.1308255021,
				"element": "C" 
			},
			{
				"x": -0.7485778565,
				"y": 0.8059996435,
				"z": -2.7219269232,
				"element": "C" 
			},
			{
				"x": -0.731405391,
				"y": 0.0437495289,
				"z": -1.5597276197,
				"element": "C" 
			},
			{
				"x": 0.3775917438,
				"y": 2.3253005522,
				"z": -4.4129917818,
				"element": "C" 
			},
			{
				"x": -0.8191993413,
				"y": 2.8799459677,
				"z": -4.7628085848,
				"element": "O" 
			},
			{
				"x": 1.338024068,
				"y": 2.4529570493,
				"z": -5.1297331097,
				"element": "O" 
			},
			{
				"x": 0.8194909301,
				"y": -2.5121403765,
				"z": 5.0176404197,
				"element": "H" 
			},
			{
				"x": 1.242428928,
				"y": -3.9649196068,
				"z": 4.1105675385,
				"element": "H" 
			},
			{
				"x": -0.4577097457,
				"y": -3.5644326099,
				"z": 4.4057008758,
				"element": "H" 
			},
			{
				"x": 2.542785779,
				"y": -2.7379134075,
				"z": 2.3649400013,
				"element": "H" 
			},
			{
				"x": 2.5003138308,
				"y": -1.4137264497,
				"z": 0.2951185851,
				"element": "H" 
			},
			{
				"x": -1.6156268616,
				"y": -0.4077806216,
				"z": 1.0311578434,
				"element": "H" 
			},
			{
				"x": -1.5750414779,
				"y": -1.7596442129,
				"z": 3.0834540295,
				"element": "H" 
			},
			{
				"x": 2.4327589484,
				"y": 0.7816934386,
				"z": -0.5340397038,
				"element": "H" 
			},
			{
				"x": -1.6318849822,
				"y": 0.7846957576,
				"z": -3.3549564567,
				"element": "H" 
			},
			{
				"x": -1.5981784553,
				"y": -0.5541348794,
				"z": -1.2994070158,
				"element": "H" 
			},
			{
				"x": -1.4332682839,
				"y": 2.8338224942,
				"z": -4.0165785236,
				"element": "H" 
			}
		],
		 "valence_orbital": [ 
			{
				"type": "occ",
				"energy": -0.28939,
				"method": "rhf"
			},
			{
				"type": "occ",
				"energy": -0.27046,
				"method": "rhf"
			},
			{
				"type": "occ",
				"energy": -0.2636,
				"method": "rhf"
			},
			{
				"type": "occ",
				"energy": -0.26185,
				"method": "rhf"
			},
			{
				"type": "occ",
				"energy": -0.23625,
				"method": "rhf"
			},
			{
				"type": "unocc",
				"energy": -0.0608,
				"method": "rhf"
			},
			{
				"type": "unocc",
				"energy": -0.02296,
				"method": "rhf"
			},
			{
				"type": "unocc",
				"energy": -0.01359,
				"method": "rhf"
			},
			{
				"type": "unocc",
				"energy": -0.00316,
				"method": "rhf"
			},
			{
				"type": "unocc",
				"energy": 0.04619,
				"method": "rhf"
			}
		],
		"cosmo_sigma_profile": { 
			"-0.025": 0.0,
			"-0.024": 0.0,
			"-0.023": 0.0,
			"-0.022": 0.0,
			"-0.021": 0.0,
			"-0.02": 0.0,
			"-0.019": 0.140809470239,
			"-0.018": 0.703948911974,
			"-0.017": 0.922898539784,
			"-0.016": 0.99867552908,
			"-0.015": 1.20450479258,
			"-0.014": 0.692501563832,
			"-0.013": 1.06306678727,
			"-0.012": 1.0707629644,
			"-0.011": 1.12442241486,
			"-0.01": 1.41031736275,
			"-0.009": 1.18292234685,
			"-0.008": 2.41215976943,
			"-0.007": 5.98083926378,
			"-0.006": 11.7282603628,
			"-0.005": 15.7982938145,
			"-0.004": 20.9308885057,
			"-0.003": 18.5264025049,
			"-0.002": 16.7177128623,
			"-0.001": 21.2190071433,
			"0.0": 22.5910747899,
			"0.001": 22.7459203178,
			"0.002": 20.4858238939,
			"0.003": 16.2405641581,
			"0.004": 14.6841003759,
			"0.005": 12.7727547968,
			"0.006": 4.9428221189,
			"0.007": 3.10995419001,
			"0.008": 3.02498986139,
			"0.009": 4.00726719928,
			"0.01": 5.54221026154,
			"0.011": 6.11448851342,
			"0.012": 4.63156262565,
			"0.013": 1.04872569493,
			"0.014": 0.0,
			"0.015": 0.0,
			"0.016": 0.0,
			"0.017": 0.0,
			"0.018": 0.0,
			"0.019": 0.0,
			"0.02": 0.0,
			"0.021": 0.0,
			"0.022": 0.0,
			"0.023": 0.0,
			"0.024": 0.0,
			"0.025": 0.0
		}
	}
}
