{
	 "smiles": "OC(=O)C1=CC=C(OC2=CC=CC=C2)O1", 
	 "Tm": 399.15, 
	 "num_atms": 23, 
	 "gaussian": { 
		 "optdone": 1, 
		 "sigma_profile": "yes", 
		 "theory": "DFT", 
		 "functional": "B3LYP", 
		 "basiset": "6-31G**", 
		 "properties": { 
			 "R2extent": 3915.2027, 
			 "electric_dipole_moment_norm": 5.22624889955, 
			 "electric_quadrupole_moment_norm": 25.3436773904, 
			 "total_energy": -724.857676938, 
			 "HOMO_LUMO_gap": 0.18731, 
			 "cosmo_polarized_energy": -13.52, 
			 "cosmo_cavitation_energy": 29.05, 
			 "cosmo_dispersion_energy": -20.87, 
			 "cosmo_repulsion_energy": 1.65, 
			 "cosmo_total_nonelectrostatic_energy": 9.83, 
			 "SMD_solvation_energy": 7.13 
		},
		"coords": [
			{
				"x": 1.0381942378,
				"y": -3.5900845916,
				"z": -1.651750001,
				"element": "O" 
			},
			{
				"x": -0.2902700166,
				"y": -3.5231108406,
				"z": -1.9191997298,
				"element": "C" 
			},
			{
				"x": -0.8336035095,
				"y": -4.3243091727,
				"z": -2.6449144816,
				"element": "O" 
			},
			{
				"x": -1.0147755212,
				"y": -2.4215581279,
				"z": -1.2736099401,
				"element": "C" 
			},
			{
				"x": -2.3251494968,
				"y": -2.0380004787,
				"z": -1.3183299967,
				"element": "C" 
			},
			{
				"x": -2.4463014662,
				"y": -0.8710572154,
				"z": -0.5062192653,
				"element": "C" 
			},
			{
				"x": -1.1939937647,
				"y": -0.6291530197,
				"z": -0.0148416857,
				"element": "C" 
			},
			{
				"x": -0.762654702,
				"y": 0.2776557247,
				"z": 0.8718349994,
				"element": "O" 
			},
			{
				"x": 0.325059944,
				"y": 1.1001774442,
				"z": 0.5561297926,
				"element": "C" 
			},
			{
				"x": 1.0080576925,
				"y": 1.6415596893,
				"z": 1.6429051121,
				"element": "C" 
			},
			{
				"x": 2.0741590492,
				"y": 2.5090198414,
				"z": 1.4079814028,
				"element": "C" 
			},
			{
				"x": 2.4536361356,
				"y": 2.8257129352,
				"z": 0.1013960715,
				"element": "C" 
			},
			{
				"x": 1.7551491909,
				"y": 2.2735164426,
				"z": -0.9734699062,
				"element": "C" 
			},
			{
				"x": 0.6819062676,
				"y": 1.4071711129,
				"z": -0.7559162504,
				"element": "C" 
			},
			{
				"x": -0.3042430781,
				"y": -1.5572392901,
				"z": -0.4578635504,
				"element": "O" 
			},
			{
				"x": 1.2909617167,
				"y": -2.87253521,
				"z": -1.0500502717,
				"element": "H" 
			},
			{
				"x": -3.0994573331,
				"y": -2.5383942641,
				"z": -1.8806098987,
				"element": "H" 
			},
			{
				"x": -3.3282160051,
				"y": -0.2823223142,
				"z": -0.306182838,
				"element": "H" 
			},
			{
				"x": 0.6963888923,
				"y": 1.3786308358,
				"z": 2.6480911666,
				"element": "H" 
			},
			{
				"x": 2.6106986293,
				"y": 2.9345008104,
				"z": 2.2507112229,
				"element": "H" 
			},
			{
				"x": 3.2865961682,
				"y": 3.4982337644,
				"z": -0.0774991403,
				"element": "H" 
			},
			{
				"x": 2.0401925451,
				"y": 2.5180947491,
				"z": -1.9923888539,
				"element": "H" 
			},
			{
				"x": 0.1317644242,
				"y": 0.9859911749,
				"z": -1.5905039582,
				"element": "H" 
			}
		],
		 "valence_orbital": [ 
			{
				"type": "occ",
				"energy": -0.30387,
				"method": "rhf"
			},
			{
				"type": "occ",
				"energy": -0.27573,
				"method": "rhf"
			},
			{
				"type": "occ",
				"energy": -0.2692,
				"method": "rhf"
			},
			{
				"type": "occ",
				"energy": -0.2585,
				"method": "rhf"
			},
			{
				"type": "occ",
				"energy": -0.23521,
				"method": "rhf"
			},
			{
				"type": "unocc",
				"energy": -0.0479,
				"method": "rhf"
			},
			{
				"type": "unocc",
				"energy": -0.01988,
				"method": "rhf"
			},
			{
				"type": "unocc",
				"energy": -0.011,
				"method": "rhf"
			},
			{
				"type": "unocc",
				"energy": 0.03399,
				"method": "rhf"
			},
			{
				"type": "unocc",
				"energy": 0.0764,
				"method": "rhf"
			}
		],
		"cosmo_sigma_profile": { 
			"-0.025": 0.0,
			"-0.024": 0.0,
			"-0.023": 0.0,
			"-0.022": 0.0,
			"-0.021": 0.0,
			"-0.02": 0.0,
			"-0.019": 0.0,
			"-0.018": 0.0,
			"-0.017": 0.138630721216,
			"-0.016": 0.755574514083,
			"-0.015": 0.832274760439,
			"-0.014": 0.537947536992,
			"-0.013": 0.938882685334,
			"-0.012": 0.451653572166,
			"-0.011": 0.716756244459,
			"-0.01": 1.34887796736,
			"-0.009": 2.36126251479,
			"-0.008": 4.7332498745,
			"-0.007": 7.65960277258,
			"-0.006": 14.7265594214,
			"-0.005": 15.5139119216,
			"-0.004": 16.0308560445,
			"-0.003": 13.7087556457,
			"-0.002": 13.707876515,
			"-0.001": 15.1323765594,
			"0.0": 16.5878743801,
			"0.001": 21.2114956937,
			"0.002": 18.7956163126,
			"0.003": 14.2981292693,
			"0.004": 13.8940758914,
			"0.005": 9.008837743,
			"0.006": 4.1524896263,
			"0.007": 3.81203018109,
			"0.008": 2.06419133367,
			"0.009": 3.8236450956,
			"0.01": 5.09735615522,
			"0.011": 4.19396530695,
			"0.012": 6.14968370861,
			"0.013": 1.7078416269,
			"0.014": 0.0819647370335,
			"0.015": 0.0,
			"0.016": 0.0,
			"0.017": 0.0,
			"0.018": 0.0,
			"0.019": 0.0,
			"0.02": 0.0,
			"0.021": 0.0,
			"0.022": 0.0,
			"0.023": 0.0,
			"0.024": 0.0,
			"0.025": 0.0
		}
	}
}
