{
	 "smiles": "C[Si](C)(C)N([Si](C)(C)C)[Si](C)(C)C", 
	 "Tm": 341.15, 
	 "num_atms": 40, 
	 "gaussian": { 
		 "optdone": 1, 
		 "sigma_profile": "yes", 
		 "theory": "DFT", 
		 "functional": "B3LYP", 
		 "basiset": "6-31G**", 
		 "properties": { 
			 "R2extent": 3927.1584, 
			 "electric_dipole_moment_norm": 0.0502802147967, 
			 "electric_quadrupole_moment_norm": 1.60682137464, 
			 "total_energy": -1282.66194858, 
			 "HOMO_LUMO_gap": 0.28512, 
			 "cosmo_polarized_energy": -2.48, 
			 "cosmo_cavitation_energy": 41.31, 
			 "cosmo_dispersion_energy": -22.14, 
			 "cosmo_repulsion_energy": 1.95, 
			 "cosmo_total_nonelectrostatic_energy": 21.12, 
			 "SMD_solvation_energy": 10.54 
		},
		"coords": [
			{
				"x": -1.6876930509,
				"y": -2.0712361307,
				"z": -1.2897838465,
				"element": "C" 
			},
			{
				"x": 0.0201953275,
				"y": -1.2898355671,
				"z": -1.0193342744,
				"element": "Si" 
			},
			{
				"x": 0.9442425666,
				"y": -1.6502863075,
				"z": -2.6354853802,
				"element": "C" 
			},
			{
				"x": 0.8082371925,
				"y": -2.2530363402,
				"z": 0.4125565749,
				"element": "C" 
			},
			{
				"x": -0.0480668017,
				"y": 0.4501914212,
				"z": -0.6456820905,
				"element": "N" 
			},
			{
				"x": 1.4647536334,
				"y": 1.3570242819,
				"z": -0.3995051789,
				"element": "Si" 
			},
			{
				"x": 3.008441776,
				"y": 0.4206069325,
				"z": -0.9829700669,
				"element": "C" 
			},
			{
				"x": 1.742393926,
				"y": 1.7130519859,
				"z": 1.4431494778,
				"element": "C" 
			},
			{
				"x": 1.5122118951,
				"y": 2.9725565205,
				"z": -1.3911531945,
				"element": "C" 
			},
			{
				"x": -1.6028512599,
				"y": 1.1925057332,
				"z": -0.1943565344,
				"element": "Si" 
			},
			{
				"x": -1.4831394258,
				"y": 3.0585508868,
				"z": 0.1281233087,
				"element": "C" 
			},
			{
				"x": -2.2681056156,
				"y": 0.4340168943,
				"z": 1.412338701,
				"element": "C" 
			},
			{
				"x": -2.9005935066,
				"y": 1.0518509644,
				"z": -1.5696567875,
				"element": "C" 
			},
			{
				"x": -1.5288015766,
				"y": -3.1539707703,
				"z": -1.3675527451,
				"element": "H" 
			},
			{
				"x": -2.4059283279,
				"y": -1.9097934118,
				"z": -0.4822950909,
				"element": "H" 
			},
			{
				"x": -2.1476316368,
				"y": -1.7460870549,
				"z": -2.227308054,
				"element": "H" 
			},
			{
				"x": 0.6134808344,
				"y": -0.9743165898,
				"z": -3.4318172366,
				"element": "H" 
			},
			{
				"x": 0.7112353955,
				"y": -2.672675227,
				"z": -2.9566825895,
				"element": "H" 
			},
			{
				"x": 2.0301504886,
				"y": -1.5719492627,
				"z": -2.5572629938,
				"element": "H" 
			},
			{
				"x": 1.8111845462,
				"y": -1.9007805504,
				"z": 0.6709037828,
				"element": "H" 
			},
			{
				"x": 0.1905489902,
				"y": -2.1694123158,
				"z": 1.3139011295,
				"element": "H" 
			},
			{
				"x": 0.8870074443,
				"y": -3.3180705425,
				"z": 0.1638341579,
				"element": "H" 
			},
			{
				"x": 3.0611322668,
				"y": 0.3479170413,
				"z": -2.0729823435,
				"element": "H" 
			},
			{
				"x": 3.1277840172,
				"y": -0.5827806207,
				"z": -0.5670556031,
				"element": "H" 
			},
			{
				"x": 3.8749135657,
				"y": 1.0092446176,
				"z": -0.6568958114,
				"element": "H" 
			},
			{
				"x": 0.916746028,
				"y": 2.2602329042,
				"z": 1.9075417651,
				"element": "H" 
			},
			{
				"x": 1.8665653497,
				"y": 0.7763103851,
				"z": 1.9982295847,
				"element": "H" 
			},
			{
				"x": 2.6532793023,
				"y": 2.3060240686,
				"z": 1.5882438219,
				"element": "H" 
			},
			{
				"x": 2.5468803835,
				"y": 3.333896807,
				"z": -1.431307295,
				"element": "H" 
			},
			{
				"x": 0.9023697602,
				"y": 3.7739549261,
				"z": -0.9701122051,
				"element": "H" 
			},
			{
				"x": 1.1841556318,
				"y": 2.8052941147,
				"z": -2.42308094,
				"element": "H" 
			},
			{
				"x": -1.3188339499,
				"y": 3.6283719817,
				"z": -0.7908193812,
				"element": "H" 
			},
			{
				"x": -0.7239578569,
				"y": 3.3560037007,
				"z": 0.8555614179,
				"element": "H" 
			},
			{
				"x": -2.4546384947,
				"y": 3.3704122246,
				"z": 0.5312832177,
				"element": "H" 
			},
			{
				"x": -3.2465798101,
				"y": 0.8605053922,
				"z": 1.6635269568,
				"element": "H" 
			},
			{
				"x": -2.3862402576,
				"y": -0.6523692603,
				"z": 1.3624347276,
				"element": "H" 
			},
			{
				"x": -1.5900903285,
				"y": 0.6508137775,
				"z": 2.2455886312,
				"element": "H" 
			},
			{
				"x": -2.4723204895,
				"y": 1.3321525813,
				"z": -2.5384220919,
				"element": "H" 
			},
			{
				"x": -3.3393865214,
				"y": 0.0575533952,
				"z": -1.6709848635,
				"element": "H" 
			},
			{
				"x": -3.7182514114,
				"y": 1.7516564131,
				"z": -1.358810657,
				"element": "H" 
			}
		],
		 "valence_orbital": [ 
			{
				"type": "occ",
				"energy": -0.29124,
				"method": "rhf"
			},
			{
				"type": "occ",
				"energy": -0.28545,
				"method": "rhf"
			},
			{
				"type": "occ",
				"energy": -0.28544,
				"method": "rhf"
			},
			{
				"type": "occ",
				"energy": -0.28362,
				"method": "rhf"
			},
			{
				"type": "occ",
				"energy": -0.22864,
				"method": "rhf"
			},
			{
				"type": "unocc",
				"energy": 0.05648,
				"method": "rhf"
			},
			{
				"type": "unocc",
				"energy": 0.06731,
				"method": "rhf"
			},
			{
				"type": "unocc",
				"energy": 0.08512,
				"method": "rhf"
			},
			{
				"type": "unocc",
				"energy": 0.08513,
				"method": "rhf"
			},
			{
				"type": "unocc",
				"energy": 0.10356,
				"method": "rhf"
			}
		],
		"cosmo_sigma_profile": { 
			"-0.025": 0.0,
			"-0.024": 0.0,
			"-0.023": 0.0,
			"-0.022": 0.0,
			"-0.021": 0.0,
			"-0.02": 0.0,
			"-0.019": 0.0,
			"-0.018": 0.0,
			"-0.017": 0.0,
			"-0.016": 0.0,
			"-0.015": 0.0,
			"-0.014": 0.0,
			"-0.013": 0.0,
			"-0.012": 0.0,
			"-0.011": 0.0,
			"-0.01": 0.0,
			"-0.009": 0.0,
			"-0.008": 0.0,
			"-0.007": 0.0,
			"-0.006": 0.0,
			"-0.005": 0.00923130255355,
			"-0.004": 4.63063091376,
			"-0.003": 27.1564717432,
			"-0.002": 50.944003098,
			"-0.001": 46.9517785537,
			"0.0": 50.6902597823,
			"0.001": 50.1179802505,
			"0.002": 46.8251899239,
			"0.003": 19.6774009825,
			"0.004": 5.32540485878,
			"0.005": 1.52845495203,
			"0.006": 0.867270846716,
			"0.007": 0.342091383811,
			"0.008": 0.472875372921,
			"0.009": 0.312028615291,
			"0.01": 0.0,
			"0.011": 0.0,
			"0.012": 0.0,
			"0.013": 0.0,
			"0.014": 0.0,
			"0.015": 0.0,
			"0.016": 0.0,
			"0.017": 0.0,
			"0.018": 0.0,
			"0.019": 0.0,
			"0.02": 0.0,
			"0.021": 0.0,
			"0.022": 0.0,
			"0.023": 0.0,
			"0.024": 0.0,
			"0.025": 0.0
		}
	}
}
