{
	 "smiles": "O=NC1=C(N=C2N=CC=CN12)C1=CC=CS1", 
	 "Tm": 512.15, 
	 "num_atms": 22, 
	 "gaussian": { 
		 "optdone": 1, 
		 "sigma_profile": "yes", 
		 "theory": "DFT", 
		 "functional": "B3LYP", 
		 "basiset": "6-31G**", 
		 "properties": { 
			 "R2extent": 4681.2431, 
			 "electric_dipole_moment_norm": 1.84349641171, 
			 "electric_quadrupole_moment_norm": 32.0964778865, 
			 "total_energy": -1076.99993894, 
			 "HOMO_LUMO_gap": 0.11497, 
			 "cosmo_polarized_energy": -15.27, 
			 "cosmo_cavitation_energy": 29.01, 
			 "cosmo_dispersion_energy": -22.27, 
			 "cosmo_repulsion_energy": 1.64, 
			 "cosmo_total_nonelectrostatic_energy": 8.38, 
			 "SMD_solvation_energy": 2.51 
		},
		"coords": [
			{
				"x": -0.0548835852,
				"y": -3.9662517691,
				"z": -0.0149018409,
				"element": "O" 
			},
			{
				"x": -0.2257932572,
				"y": -2.9455881864,
				"z": -0.7173804942,
				"element": "N" 
			},
			{
				"x": -0.4942679381,
				"y": -1.7900035795,
				"z": -0.061228185,
				"element": "C" 
			},
			{
				"x": -0.7237665327,
				"y": -0.5113983092,
				"z": -0.6407107697,
				"element": "C" 
			},
			{
				"x": -0.9615933601,
				"y": 0.4203870576,
				"z": 0.3091225163,
				"element": "N" 
			},
			{
				"x": -0.8935915585,
				"y": -0.2147810814,
				"z": 1.4853532444,
				"element": "C" 
			},
			{
				"x": -1.0653136123,
				"y": 0.3228695653,
				"z": 2.6986104914,
				"element": "N" 
			},
			{
				"x": -0.953584663,
				"y": -0.4925133612,
				"z": 3.7374056093,
				"element": "C" 
			},
			{
				"x": -0.6681149254,
				"y": -1.8736150669,
				"z": 3.6363565576,
				"element": "C" 
			},
			{
				"x": -0.4924859411,
				"y": -2.4208180998,
				"z": 2.3872832131,
				"element": "C" 
			},
			{
				"x": -0.6069561985,
				"y": -1.584946959,
				"z": 1.318582526,
				"element": "N" 
			},
			{
				"x": -0.7235417273,
				"y": -0.1573790108,
				"z": -2.0395559083,
				"element": "C" 
			},
			{
				"x": -0.9560881753,
				"y": 1.1133515337,
				"z": -2.5339253022,
				"element": "C" 
			},
			{
				"x": -0.8971619852,
				"y": 1.180751881,
				"z": -3.9476885233,
				"element": "C" 
			},
			{
				"x": -0.6205269838,
				"y": -0.0378666662,
				"z": -4.5168671921,
				"element": "C" 
			},
			{
				"x": -0.4266498504,
				"y": -1.2904543401,
				"z": -3.3418230125,
				"element": "S" 
			},
			{
				"x": -1.0956521092,
				"y": -0.0413527368,
				"z": 4.7174330581,
				"element": "H" 
			},
			{
				"x": -0.5875624874,
				"y": -2.4945784098,
				"z": 4.5196609465,
				"element": "H" 
			},
			{
				"x": -0.2709601142,
				"y": -3.4539408384,
				"z": 2.1602705649,
				"element": "H" 
			},
			{
				"x": -1.1596012708,
				"y": 1.9494364016,
				"z": -1.876360012,
				"element": "H" 
			},
			{
				"x": -1.0521386594,
				"y": 2.0886159353,
				"z": -4.5187058073,
				"element": "H" 
			},
			{
				"x": -0.5189650646,
				"y": -0.27192396,
				"z": -5.5682316802,
				"element": "H" 
			}
		],
		 "valence_orbital": [ 
			{
				"type": "occ",
				"energy": -0.28957,
				"method": "rhf"
			},
			{
				"type": "occ",
				"energy": -0.26141,
				"method": "rhf"
			},
			{
				"type": "occ",
				"energy": -0.25313,
				"method": "rhf"
			},
			{
				"type": "occ",
				"energy": -0.22898,
				"method": "rhf"
			},
			{
				"type": "occ",
				"energy": -0.21545,
				"method": "rhf"
			},
			{
				"type": "unocc",
				"energy": -0.10048,
				"method": "rhf"
			},
			{
				"type": "unocc",
				"energy": -0.07721,
				"method": "rhf"
			},
			{
				"type": "unocc",
				"energy": -0.01859,
				"method": "rhf"
			},
			{
				"type": "unocc",
				"energy": -0.0038,
				"method": "rhf"
			},
			{
				"type": "unocc",
				"energy": 0.03143,
				"method": "rhf"
			}
		],
		"cosmo_sigma_profile": { 
			"-0.025": 0.0,
			"-0.024": 0.0,
			"-0.023": 0.0,
			"-0.022": 0.0,
			"-0.021": 0.0,
			"-0.02": 0.0,
			"-0.019": 0.0,
			"-0.018": 0.0,
			"-0.017": 0.0,
			"-0.016": 0.0,
			"-0.015": 0.0,
			"-0.014": 0.0,
			"-0.013": 0.0,
			"-0.012": 0.0,
			"-0.011": 0.0,
			"-0.01": 1.01062590818,
			"-0.009": 7.6216575669,
			"-0.008": 9.62956968657,
			"-0.007": 11.8743339012,
			"-0.006": 12.2919635209,
			"-0.005": 15.2063919317,
			"-0.004": 15.9202327491,
			"-0.003": 13.7532289583,
			"-0.002": 17.5352128127,
			"-0.001": 16.202433839,
			"0.0": 12.7495740858,
			"0.001": 12.4941531573,
			"0.002": 17.5361631813,
			"0.003": 18.8852944397,
			"0.004": 9.94025744759,
			"0.005": 6.20680884004,
			"0.006": 5.20081159378,
			"0.007": 4.56768520398,
			"0.008": 4.49801426803,
			"0.009": 6.19272765013,
			"0.01": 5.3294238029,
			"0.011": 4.57221635078,
			"0.012": 4.49423960532,
			"0.013": 2.92387483798,
			"0.014": 1.40855798944,
			"0.015": 0.00748217145255,
			"0.016": 0.0,
			"0.017": 0.0,
			"0.018": 0.0,
			"0.019": 0.0,
			"0.02": 0.0,
			"0.021": 0.0,
			"0.022": 0.0,
			"0.023": 0.0,
			"0.024": 0.0,
			"0.025": 0.0
		}
	}
}
