{
	 "smiles": "COC1=CC(Br)=CC=C1", 
	 "Tm": 275.15, 
	 "num_atms": 16, 
	 "gaussian": { 
		 "optdone": 1, 
		 "sigma_profile": "yes", 
		 "theory": "DFT", 
		 "functional": "B3LYP", 
		 "basiset": "6-31G**", 
		 "properties": { 
			 "R2extent": 3125.1505, 
			 "electric_dipole_moment_norm": 3.24540222161, 
			 "electric_quadrupole_moment_norm": 4.48796144814, 
			 "total_energy": -2917.57855521, 
			 "HOMO_LUMO_gap": 0.21567, 
			 "cosmo_polarized_energy": -5.64, 
			 "cosmo_cavitation_energy": 22.11, 
			 "cosmo_dispersion_energy": -17.0, 
			 "cosmo_repulsion_energy": 1.39, 
			 "cosmo_total_nonelectrostatic_energy": 6.51, 
			 "SMD_solvation_energy": 3.49 
		},
		"coords": [
			{
				"x": -2.5342931383,
				"y": -0.7987476396,
				"z": 0.1553514743,
				"element": "C" 
			},
			{
				"x": -1.5547903957,
				"y": -0.0062460924,
				"z": 0.8095405062,
				"element": "O" 
			},
			{
				"x": -0.2439540041,
				"y": -0.2154696295,
				"z": 0.5020927947,
				"element": "C" 
			},
			{
				"x": 0.6680141789,
				"y": 0.6033796327,
				"z": 1.1873386116,
				"element": "C" 
			},
			{
				"x": 2.024780409,
				"y": 0.4595164045,
				"z": 0.9371075151,
				"element": "C" 
			},
			{
				"x": 3.2628216168,
				"y": 1.5784353237,
				"z": 1.8744204939,
				"element": "Br" 
			},
			{
				"x": 2.5127093049,
				"y": -0.4766737787,
				"z": 0.0225691508,
				"element": "C" 
			},
			{
				"x": 1.5930638045,
				"y": -1.2796472422,
				"z": -0.647277873,
				"element": "C" 
			},
			{
				"x": 0.2188713368,
				"y": -1.1621037228,
				"z": -0.4200293142,
				"element": "C" 
			},
			{
				"x": -3.4975320901,
				"y": -0.4682236848,
				"z": 0.5463015524,
				"element": "H" 
			},
			{
				"x": -2.4030967649,
				"y": -1.8662249944,
				"z": 0.3739063467,
				"element": "H" 
			},
			{
				"x": -2.5155714149,
				"y": -0.649520278,
				"z": -0.9317871921,
				"element": "H" 
			},
			{
				"x": 0.294011863,
				"y": 1.3306749803,
				"z": 1.8973765809,
				"element": "H" 
			},
			{
				"x": 3.5768909669,
				"y": -0.5704908263,
				"z": -0.1559639237,
				"element": "H" 
			},
			{
				"x": 1.9504082917,
				"y": -2.0145368225,
				"z": -1.3629297956,
				"element": "H" 
			},
			{
				"x": -0.4699339646,
				"y": -1.8020216298,
				"z": -0.9575169281,
				"element": "H" 
			}
		],
		 "valence_orbital": [ 
			{
				"type": "occ",
				"energy": -0.3341,
				"method": "rhf"
			},
			{
				"type": "occ",
				"energy": -0.30044,
				"method": "rhf"
			},
			{
				"type": "occ",
				"energy": -0.28265,
				"method": "rhf"
			},
			{
				"type": "occ",
				"energy": -0.24394,
				"method": "rhf"
			},
			{
				"type": "occ",
				"energy": -0.22761,
				"method": "rhf"
			},
			{
				"type": "unocc",
				"energy": -0.01194,
				"method": "rhf"
			},
			{
				"type": "unocc",
				"energy": 0.00211,
				"method": "rhf"
			},
			{
				"type": "unocc",
				"energy": 0.0102,
				"method": "rhf"
			},
			{
				"type": "unocc",
				"energy": 0.09291,
				"method": "rhf"
			},
			{
				"type": "unocc",
				"energy": 0.11147,
				"method": "rhf"
			}
		],
		"cosmo_sigma_profile": { 
			"-0.025": 0.0,
			"-0.024": 0.0,
			"-0.023": 0.0,
			"-0.022": 0.0,
			"-0.021": 0.0,
			"-0.02": 0.0,
			"-0.019": 0.0,
			"-0.018": 0.0,
			"-0.017": 0.0,
			"-0.016": 0.0,
			"-0.015": 0.0,
			"-0.014": 0.0,
			"-0.013": 0.0,
			"-0.012": 0.0,
			"-0.011": 0.0,
			"-0.01": 0.0,
			"-0.009": 0.0,
			"-0.008": 0.0,
			"-0.007": 3.08991265847,
			"-0.006": 12.7679601246,
			"-0.005": 15.7978346017,
			"-0.004": 15.4839298118,
			"-0.003": 14.9707024359,
			"-0.002": 10.6338803238,
			"-0.001": 8.54558525432,
			"0.0": 8.68377165901,
			"0.001": 11.7464172887,
			"0.002": 15.9029795049,
			"0.003": 20.899742844,
			"0.004": 21.7871565238,
			"0.005": 13.3242999339,
			"0.006": 1.17370672205,
			"0.007": 1.26329251953,
			"0.008": 1.12774720607,
			"0.009": 1.46422332404,
			"0.01": 1.29002300357,
			"0.011": 0.0208103809562,
			"0.012": 0.0,
			"0.013": 0.0,
			"0.014": 0.0,
			"0.015": 0.0,
			"0.016": 0.0,
			"0.017": 0.0,
			"0.018": 0.0,
			"0.019": 0.0,
			"0.02": 0.0,
			"0.021": 0.0,
			"0.022": 0.0,
			"0.023": 0.0,
			"0.024": 0.0,
			"0.025": 0.0
		}
	}
}
