{
	 "smiles": "CC1CC=CC2(OC3CC(=O)OC3C3(O)C(=O)C4=CC=CC=C4C(=O)C23O)O1", 
	 "Tm": 511.15, 
	 "num_atms": 46, 
	 "gaussian": { 
		 "optdone": 1, 
		 "sigma_profile": "yes", 
		 "theory": "DFT", 
		 "functional": "B3LYP", 
		 "basiset": "6-31G**", 
		 "properties": { 
			 "R2extent": 9054.2143, 
			 "electric_dipole_moment_norm": 5.2194834936, 
			 "electric_quadrupole_moment_norm": 30.0723408304, 
			 "total_energy": -1374.71911843, 
			 "HOMO_LUMO_gap": 0.15838, 
			 "cosmo_polarized_energy": -23.94, 
			 "cosmo_cavitation_energy": 45.82, 
			 "cosmo_dispersion_energy": -31.86, 
			 "cosmo_repulsion_energy": 2.35, 
			 "cosmo_total_nonelectrostatic_energy": 16.31, 
			 "SMD_solvation_energy": 8.91 
		},
		"coords": [
			{
				"x": 3.034443293,
				"y": -2.2738356977,
				"z": 1.6701346123,
				"element": "C" 
			},
			{
				"x": 2.1960041368,
				"y": -1.0334393266,
				"z": 1.9841116965,
				"element": "C" 
			},
			{
				"x": 1.3142020035,
				"y": -1.1781773492,
				"z": 3.2316037512,
				"element": "C" 
			},
			{
				"x": 0.1221319944,
				"y": -2.0380992587,
				"z": 2.9190282489,
				"element": "C" 
			},
			{
				"x": -0.3568472752,
				"y": -2.12165853,
				"z": 1.6776212937,
				"element": "C" 
			},
			{
				"x": 0.2712212454,
				"y": -1.3795752819,
				"z": 0.5174075935,
				"element": "C" 
			},
			{
				"x": 0.7086417419,
				"y": -2.3759998108,
				"z": -0.4419831863,
				"element": "O" 
			},
			{
				"x": -0.2291834597,
				"y": -2.7794230885,
				"z": -1.4293564704,
				"element": "C" 
			},
			{
				"x": 0.4880083271,
				"y": -3.7566680888,
				"z": -2.3520419351,
				"element": "C" 
			},
			{
				"x": 1.0950757997,
				"y": -2.8704903282,
				"z": -3.427862454,
				"element": "C" 
			},
			{
				"x": 1.9728456901,
				"y": -3.1121593566,
				"z": -4.2088711628,
				"element": "O" 
			},
			{
				"x": 0.4413703124,
				"y": -1.6587096499,
				"z": -3.4181057366,
				"element": "O" 
			},
			{
				"x": -0.5550582748,
				"y": -1.6047770687,
				"z": -2.370715472,
				"element": "C" 
			},
			{
				"x": -0.4452486871,
				"y": -0.2271703935,
				"z": -1.6731429043,
				"element": "C" 
			},
			{
				"x": 0.8427072794,
				"y": 0.343703297,
				"z": -1.8058803797,
				"element": "O" 
			},
			{
				"x": -1.4121722765,
				"y": 0.7936582028,
				"z": -2.3147148804,
				"element": "C" 
			},
			{
				"x": -1.9674622066,
				"y": 0.5857990751,
				"z": -3.3791190832,
				"element": "O" 
			},
			{
				"x": -1.5049888699,
				"y": 2.0969612014,
				"z": -1.6018165982,
				"element": "C" 
			},
			{
				"x": -1.9467113289,
				"y": 3.2307877509,
				"z": -2.2917532988,
				"element": "C" 
			},
			{
				"x": -2.0258172199,
				"y": 4.4575264777,
				"z": -1.63785634,
				"element": "C" 
			},
			{
				"x": -1.6826951742,
				"y": 4.5550253886,
				"z": -0.2835158934,
				"element": "C" 
			},
			{
				"x": -1.2719680072,
				"y": 3.4245818891,
				"z": 0.4168869216,
				"element": "C" 
			},
			{
				"x": -1.1720613423,
				"y": 2.1893108997,
				"z": -0.2363675259,
				"element": "C" 
			},
			{
				"x": -0.8067271862,
				"y": 0.9848789646,
				"z": 0.5641193627,
				"element": "C" 
			},
			{
				"x": -0.7278718502,
				"y": 1.0364514373,
				"z": 1.7808535935,
				"element": "O" 
			},
			{
				"x": -0.7437711338,
				"y": -0.3805114433,
				"z": -0.1678200306,
				"element": "C" 
			},
			{
				"x": -2.0871058222,
				"y": -0.8839577258,
				"z": -0.1283192904,
				"element": "O" 
			},
			{
				"x": 1.3913728238,
				"y": -0.6291662518,
				"z": 0.855640131,
				"element": "O" 
			},
			{
				"x": 2.4122470778,
				"y": -3.1658082006,
				"z": 1.5661410642,
				"element": "H" 
			},
			{
				"x": 3.762321525,
				"y": -2.4463010601,
				"z": 2.4707057991,
				"element": "H" 
			},
			{
				"x": 3.5765989519,
				"y": -2.1268732641,
				"z": 0.7328295185,
				"element": "H" 
			},
			{
				"x": 2.8683465646,
				"y": -0.1800800925,
				"z": 2.1151962663,
				"element": "H" 
			},
			{
				"x": 1.8977707779,
				"y": -1.6065602385,
				"z": 4.0543487331,
				"element": "H" 
			},
			{
				"x": 0.9705782781,
				"y": -0.1879789819,
				"z": 3.5565959236,
				"element": "H" 
			},
			{
				"x": -0.3445448003,
				"y": -2.6028084643,
				"z": 3.7233034325,
				"element": "H" 
			},
			{
				"x": -1.1886069272,
				"y": -2.7776668648,
				"z": 1.4380235721,
				"element": "H" 
			},
			{
				"x": -1.1404990615,
				"y": -3.1892692549,
				"z": -0.9810013053,
				"element": "H" 
			},
			{
				"x": -0.2158391855,
				"y": -4.4465816826,
				"z": -2.8314232559,
				"element": "H" 
			},
			{
				"x": 1.2551125581,
				"y": -4.3403454452,
				"z": -1.8419513262,
				"element": "H" 
			},
			{
				"x": -1.5374197315,
				"y": -1.7051707562,
				"z": -2.8356661163,
				"element": "H" 
			},
			{
				"x": 1.2291960129,
				"y": -0.0339623253,
				"z": -2.612918534,
				"element": "H" 
			},
			{
				"x": -2.2147704171,
				"y": 3.1269141135,
				"z": -3.3379265123,
				"element": "H" 
			},
			{
				"x": -2.3551473052,
				"y": 5.3397358823,
				"z": -2.178908303,
				"element": "H" 
			},
			{
				"x": -1.7465047337,
				"y": 5.5128657791,
				"z": 0.2243082152,
				"element": "H" 
			},
			{
				"x": -1.0294883432,
				"y": 3.4700849928,
				"z": 1.4731363871,
				"element": "H" 
			},
			{
				"x": -2.3602857737,
				"y": -0.9050600709,
				"z": 0.8008418786,
				"element": "H" 
			}
		],
		 "valence_orbital": [ 
			{
				"type": "occ",
				"energy": -0.27321,
				"method": "rhf"
			},
			{
				"type": "occ",
				"energy": -0.27016,
				"method": "rhf"
			},
			{
				"type": "occ",
				"energy": -0.25689,
				"method": "rhf"
			},
			{
				"type": "occ",
				"energy": -0.25353,
				"method": "rhf"
			},
			{
				"type": "occ",
				"energy": -0.24093,
				"method": "rhf"
			},
			{
				"type": "unocc",
				"energy": -0.08255,
				"method": "rhf"
			},
			{
				"type": "unocc",
				"energy": -0.05684,
				"method": "rhf"
			},
			{
				"type": "unocc",
				"energy": -0.0069,
				"method": "rhf"
			},
			{
				"type": "unocc",
				"energy": 0.00365,
				"method": "rhf"
			},
			{
				"type": "unocc",
				"energy": 0.01729,
				"method": "rhf"
			}
		],
		"cosmo_sigma_profile": { 
			"-0.025": 0.0,
			"-0.024": 0.0,
			"-0.023": 0.0,
			"-0.022": 0.0,
			"-0.021": 0.0,
			"-0.02": 0.0,
			"-0.019": 0.0,
			"-0.018": 0.0,
			"-0.017": 0.0252651612473,
			"-0.016": 0.569443938347,
			"-0.015": 0.889069031075,
			"-0.014": 0.3553193256,
			"-0.013": 0.828133181249,
			"-0.012": 1.60206923378,
			"-0.011": 1.3969763071,
			"-0.01": 2.38249747347,
			"-0.009": 5.43029372761,
			"-0.008": 7.93253317997,
			"-0.007": 16.1709090294,
			"-0.006": 20.2624270409,
			"-0.005": 22.3801879566,
			"-0.004": 27.2534165133,
			"-0.003": 26.7897277033,
			"-0.002": 22.9157719694,
			"-0.001": 25.1101441586,
			"0.0": 26.5788157794,
			"0.001": 27.1569918879,
			"0.002": 23.8652212702,
			"0.003": 11.671743269,
			"0.004": 10.3060073049,
			"0.005": 10.9576333385,
			"0.006": 9.71717571564,
			"0.007": 11.6823141841,
			"0.008": 11.5383685206,
			"0.009": 9.49764479555,
			"0.01": 10.502890195,
			"0.011": 10.0602209821,
			"0.012": 3.19265046647,
			"0.013": 0.931711825908,
			"0.014": 1.17876666922,
			"0.015": 0.953832272824,
			"0.016": 0.139533244716,
			"0.017": 0.0,
			"0.018": 0.0,
			"0.019": 0.0,
			"0.02": 0.0,
			"0.021": 0.0,
			"0.022": 0.0,
			"0.023": 0.0,
			"0.024": 0.0,
			"0.025": 0.0
		}
	}
}
