{
	 "smiles": "OC(=O)C1=C(Cl)C=C(C=C1)S(Cl)(=O)=O", 
	 "Tm": 407.15, 
	 "num_atms": 18, 
	 "gaussian": { 
		 "optdone": 1, 
		 "sigma_profile": "yes", 
		 "theory": "DFT", 
		 "functional": "B3LYP", 
		 "basiset": "6-31G**", 
		 "properties": { 
			 "R2extent": 5430.2081, 
			 "electric_dipole_moment_norm": 1.9494408583, 
			 "electric_quadrupole_moment_norm": 26.5311138468, 
			 "total_energy": -1888.55159725, 
			 "HOMO_LUMO_gap": 0.18487, 
			 "cosmo_polarized_energy": -14.37, 
			 "cosmo_cavitation_energy": 28.46, 
			 "cosmo_dispersion_energy": -21.61, 
			 "cosmo_repulsion_energy": 1.65, 
			 "cosmo_total_nonelectrostatic_energy": 8.5, 
			 "SMD_solvation_energy": 4.53 
		},
		"coords": [
			{
				"x": 4.1667315377,
				"y": -0.5791694539,
				"z": -1.8838272149,
				"element": "O" 
			},
			{
				"x": 3.366652346,
				"y": 0.3667147757,
				"z": -1.3723225484,
				"element": "C" 
			},
			{
				"x": 3.8403315647,
				"y": 1.3402186001,
				"z": -0.8341037015,
				"element": "O" 
			},
			{
				"x": 1.853144985,
				"y": 0.1959417014,
				"z": -1.4449185934,
				"element": "C" 
			},
			{
				"x": 1.1053311377,
				"y": -0.7358344435,
				"z": -2.1887215714,
				"element": "C" 
			},
			{
				"x": 1.8462838169,
				"y": -1.9383723893,
				"z": -3.248521701,
				"element": "Cl" 
			},
			{
				"x": -0.288631755,
				"y": -0.7555339115,
				"z": -2.1488844901,
				"element": "C" 
			},
			{
				"x": -0.9394594,
				"y": 0.1732237298,
				"z": -1.3448896341,
				"element": "C" 
			},
			{
				"x": -0.2479749849,
				"y": 1.1226291095,
				"z": -0.595160447,
				"element": "C" 
			},
			{
				"x": 1.1389861901,
				"y": 1.1197686581,
				"z": -0.6607177479,
				"element": "C" 
			},
			{
				"x": -2.733619677,
				"y": 0.1581086882,
				"z": -1.3070805351,
				"element": "S" 
			},
			{
				"x": -3.0851507727,
				"y": -1.1344125391,
				"z": 0.340909793,
				"element": "Cl" 
			},
			{
				"x": -3.2068387398,
				"y": 1.4764773603,
				"z": -0.9100594093,
				"element": "O" 
			},
			{
				"x": -3.2263379869,
				"y": -0.5335433402,
				"z": -2.4903997569,
				"element": "O" 
			},
			{
				"x": 3.6655224182,
				"y": -1.2993719142,
				"z": -2.2997602425,
				"element": "H" 
			},
			{
				"x": -0.850398193,
				"y": -1.4700067536,
				"z": -2.7384763689,
				"element": "H" 
			},
			{
				"x": -0.7820258189,
				"y": 1.8459234375,
				"z": 0.0099882664,
				"element": "H" 
			},
			{
				"x": 1.7234533319,
				"y": 1.8454386847,
				"z": -0.1071540969,
				"element": "H" 
			}
		],
		 "valence_orbital": [ 
			{
				"type": "occ",
				"energy": -0.3378,
				"method": "rhf"
			},
			{
				"type": "occ",
				"energy": -0.33051,
				"method": "rhf"
			},
			{
				"type": "occ",
				"energy": -0.31322,
				"method": "rhf"
			},
			{
				"type": "occ",
				"energy": -0.30308,
				"method": "rhf"
			},
			{
				"type": "occ",
				"energy": -0.30062,
				"method": "rhf"
			},
			{
				"type": "unocc",
				"energy": -0.11575,
				"method": "rhf"
			},
			{
				"type": "unocc",
				"energy": -0.08258,
				"method": "rhf"
			},
			{
				"type": "unocc",
				"energy": -0.06528,
				"method": "rhf"
			},
			{
				"type": "unocc",
				"energy": -0.02622,
				"method": "rhf"
			},
			{
				"type": "unocc",
				"energy": 0.0018,
				"method": "rhf"
			}
		],
		"cosmo_sigma_profile": { 
			"-0.025": 0.0,
			"-0.024": 0.0,
			"-0.023": 0.0,
			"-0.022": 0.0,
			"-0.021": 0.0,
			"-0.02": 0.0,
			"-0.019": 0.0,
			"-0.018": 0.0,
			"-0.017": 0.0,
			"-0.016": 0.0,
			"-0.015": 0.0264521707658,
			"-0.014": 0.214004275241,
			"-0.013": 0.710442398314,
			"-0.012": 1.67518637955,
			"-0.011": 0.934392221661,
			"-0.01": 2.47522883678,
			"-0.009": 4.47646460665,
			"-0.008": 7.78908099413,
			"-0.007": 9.20520767381,
			"-0.006": 8.3163523122,
			"-0.005": 10.103387014,
			"-0.004": 12.5704201428,
			"-0.003": 22.3532018021,
			"-0.002": 21.3444115062,
			"-0.001": 18.6467352049,
			"0.0": 11.7952320631,
			"0.001": 15.0394090388,
			"0.002": 17.4146016598,
			"0.003": 14.9754426889,
			"0.004": 5.19632437019,
			"0.005": 4.98494015296,
			"0.006": 5.95768528822,
			"0.007": 11.2373219634,
			"0.008": 11.0253439709,
			"0.009": 5.45078620458,
			"0.01": 4.92945289669,
			"0.011": 4.03459132462,
			"0.012": 1.83602056077,
			"0.013": 0.147731029112,
			"0.014": 0.0,
			"0.015": 0.0,
			"0.016": 0.0,
			"0.017": 0.0,
			"0.018": 0.0,
			"0.019": 0.0,
			"0.02": 0.0,
			"0.021": 0.0,
			"0.022": 0.0,
			"0.023": 0.0,
			"0.024": 0.0,
			"0.025": 0.0
		}
	}
}
