{
	 "smiles": "CCCCCOC(C)=O", 
	 "Tm": 202.35, 
	 "num_atms": 23, 
	 "gaussian": { 
		 "optdone": 1, 
		 "sigma_profile": "yes", 
		 "theory": "DFT", 
		 "functional": "B3LYP", 
		 "basiset": "6-31G**", 
		 "properties": { 
			 "R2extent": 1752.2064, 
			 "electric_dipole_moment_norm": 1.87955510427, 
			 "electric_quadrupole_moment_norm": 8.82573173737, 
			 "total_energy": -425.657342355, 
			 "HOMO_LUMO_gap": 0.28243, 
			 "cosmo_polarized_energy": -6.22, 
			 "cosmo_cavitation_energy": 25.36, 
			 "cosmo_dispersion_energy": -17.7, 
			 "cosmo_repulsion_energy": 1.5, 
			 "cosmo_total_nonelectrostatic_energy": 9.16, 
			 "SMD_solvation_energy": 5.42 
		},
		"coords": [
			{
				"x": -1.1847435083,
				"y": 1.7691233172,
				"z": -2.2761404896,
				"element": "C" 
			},
			{
				"x": -0.0990049356,
				"y": 0.6886717721,
				"z": -2.2278102711,
				"element": "C" 
			},
			{
				"x": -0.6361407398,
				"y": -0.7530038093,
				"z": -2.2721696557,
				"element": "C" 
			},
			{
				"x": -1.5732155711,
				"y": -1.1847356092,
				"z": -1.1292496058,
				"element": "C" 
			},
			{
				"x": -0.948150769,
				"y": -1.2591435319,
				"z": 0.2574580029,
				"element": "C" 
			},
			{
				"x": -0.7509983706,
				"y": 0.0848314946,
				"z": 0.7597716338,
				"element": "O" 
			},
			{
				"x": -0.2502833421,
				"y": 0.1776972043,
				"z": 2.0140233815,
				"element": "C" 
			},
			{
				"x": -0.0878794595,
				"y": 1.6226945861,
				"z": 2.4246275131,
				"element": "C" 
			},
			{
				"x": 0.0276507303,
				"y": -0.7840110014,
				"z": 2.6966033542,
				"element": "O" 
			},
			{
				"x": -1.8355279826,
				"y": 1.6422560943,
				"z": -3.1497068419,
				"element": "H" 
			},
			{
				"x": -0.7405867723,
				"y": 2.768267893,
				"z": -2.3378725058,
				"element": "H" 
			},
			{
				"x": -1.8133747957,
				"y": 1.7449731655,
				"z": -1.3809486191,
				"element": "H" 
			},
			{
				"x": 0.5776893324,
				"y": 0.8206364529,
				"z": -3.0821590916,
				"element": "H" 
			},
			{
				"x": 0.5098085813,
				"y": 0.8287876979,
				"z": -1.3281157477,
				"element": "H" 
			},
			{
				"x": -1.1742831422,
				"y": -0.8959003215,
				"z": -3.2192729356,
				"element": "H" 
			},
			{
				"x": 0.2152299408,
				"y": -1.447089267,
				"z": -2.302508671,
				"element": "H" 
			},
			{
				"x": -1.9476895162,
				"y": -2.1912279669,
				"z": -1.3571787916,
				"element": "H" 
			},
			{
				"x": -2.4569411792,
				"y": -0.5374546362,
				"z": -1.0823294626,
				"element": "H" 
			},
			{
				"x": -1.5958801298,
				"y": -1.7955788564,
				"z": 0.9579680024,
				"element": "H" 
			},
			{
				"x": 0.0176857792,
				"y": -1.7769149567,
				"z": 0.2433359605,
				"element": "H" 
			},
			{
				"x": 0.6485310238,
				"y": 2.1127834935,
				"z": 1.7801394987,
				"element": "H" 
			},
			{
				"x": 0.2434783878,
				"y": 1.6690773066,
				"z": 3.4615090201,
				"element": "H" 
			},
			{
				"x": -1.0329735615,
				"y": 2.1600594784,
				"z": 2.3064263217,
				"element": "H" 
			}
		],
		 "valence_orbital": [ 
			{
				"type": "occ",
				"energy": -0.32386,
				"method": "rhf"
			},
			{
				"type": "occ",
				"energy": -0.32098,
				"method": "rhf"
			},
			{
				"type": "occ",
				"energy": -0.31889,
				"method": "rhf"
			},
			{
				"type": "occ",
				"energy": -0.29317,
				"method": "rhf"
			},
			{
				"type": "occ",
				"energy": -0.267,
				"method": "rhf"
			},
			{
				"type": "unocc",
				"energy": 0.01543,
				"method": "rhf"
			},
			{
				"type": "unocc",
				"energy": 0.08159,
				"method": "rhf"
			},
			{
				"type": "unocc",
				"energy": 0.10514,
				"method": "rhf"
			},
			{
				"type": "unocc",
				"energy": 0.11841,
				"method": "rhf"
			},
			{
				"type": "unocc",
				"energy": 0.1243,
				"method": "rhf"
			}
		],
		"cosmo_sigma_profile": { 
			"-0.025": 0.0,
			"-0.024": 0.0,
			"-0.023": 0.0,
			"-0.022": 0.0,
			"-0.021": 0.0,
			"-0.02": 0.0,
			"-0.019": 0.0,
			"-0.018": 0.0,
			"-0.017": 0.0,
			"-0.016": 0.0,
			"-0.015": 0.0,
			"-0.014": 0.0,
			"-0.013": 0.0,
			"-0.012": 0.0,
			"-0.011": 0.0,
			"-0.01": 0.0,
			"-0.009": 0.0,
			"-0.008": 0.0,
			"-0.007": 0.324270519135,
			"-0.006": 3.99093950255,
			"-0.005": 8.31563632216,
			"-0.004": 14.6681086794,
			"-0.003": 18.9526814376,
			"-0.002": 29.8433631203,
			"-0.001": 30.7848186435,
			"0.0": 27.3634997265,
			"0.001": 21.1402284837,
			"0.002": 11.0170827104,
			"0.003": 4.6421514502,
			"0.004": 2.97995928216,
			"0.005": 3.55581063111,
			"0.006": 3.56954292033,
			"0.007": 1.06178569607,
			"0.008": 0.784597622215,
			"0.009": 1.92992774234,
			"0.01": 1.77320811647,
			"0.011": 2.52794167235,
			"0.012": 4.88214538345,
			"0.013": 2.31157698878,
			"0.014": 0.17604580928,
			"0.015": 0.0,
			"0.016": 0.0,
			"0.017": 0.0,
			"0.018": 0.0,
			"0.019": 0.0,
			"0.02": 0.0,
			"0.021": 0.0,
			"0.022": 0.0,
			"0.023": 0.0,
			"0.024": 0.0,
			"0.025": 0.0
		}
	}
}
