{
	 "smiles": "COC1=C(N)C(C(O)=O)=C(Br)C=C1", 
	 "Tm": 413.15, 
	 "num_atms": 21, 
	 "gaussian": { 
		 "optdone": 1, 
		 "sigma_profile": "yes", 
		 "theory": "DFT", 
		 "functional": "B3LYP", 
		 "basiset": "6-31G**", 
		 "properties": { 
			 "R2extent": 3793.9757, 
			 "electric_dipole_moment_norm": 5.07368320454, 
			 "electric_quadrupole_moment_norm": 11.494042593, 
			 "total_energy": -3161.49990958, 
			 "HOMO_LUMO_gap": 0.16104, 
			 "cosmo_polarized_energy": -14.24, 
			 "cosmo_cavitation_energy": 27.08, 
			 "cosmo_dispersion_energy": -20.83, 
			 "cosmo_repulsion_energy": 1.65, 
			 "cosmo_total_nonelectrostatic_energy": 7.91, 
			 "SMD_solvation_energy": 5.25 
		},
		"coords": [
			{
				"x": -0.1437947657,
				"y": -3.7572332024,
				"z": 0.1416920997,
				"element": "C" 
			},
			{
				"x": 0.4014462921,
				"y": -2.5651345352,
				"z": 0.6840721933,
				"element": "O" 
			},
			{
				"x": -0.0450777294,
				"y": -1.3661324718,
				"z": 0.1891392251,
				"element": "C" 
			},
			{
				"x": 0.5514779966,
				"y": -0.2297959127,
				"z": 0.8077180276,
				"element": "C" 
			},
			{
				"x": 1.521183027,
				"y": -0.4737553813,
				"z": 1.7506950621,
				"element": "N" 
			},
			{
				"x": 0.1710973143,
				"y": 1.0671566234,
				"z": 0.3712470338,
				"element": "C" 
			},
			{
				"x": 0.8378310345,
				"y": 2.2780219392,
				"z": 0.9205160772,
				"element": "C" 
			},
			{
				"x": 1.161221922,
				"y": 2.1629659572,
				"z": 2.2497492317,
				"element": "O" 
			},
			{
				"x": 1.1008614144,
				"y": 3.2932478239,
				"z": 0.3167002007,
				"element": "O" 
			},
			{
				"x": -0.8045490374,
				"y": 1.1782110015,
				"z": -0.6513360641,
				"element": "C" 
			},
			{
				"x": -1.4668349364,
				"y": 2.8669082607,
				"z": -1.2584675839,
				"element": "Br" 
			},
			{
				"x": -1.3825156277,
				"y": 0.0612457078,
				"z": -1.2253336694,
				"element": "C" 
			},
			{
				"x": -0.9918857464,
				"y": -1.2188170939,
				"z": -0.807159778,
				"element": "C" 
			},
			{
				"x": 0.0660210156,
				"y": -3.8415228955,
				"z": -0.932016835,
				"element": "H" 
			},
			{
				"x": -1.2280969423,
				"y": -3.813106103,
				"z": 0.3022491692,
				"element": "H" 
			},
			{
				"x": 0.3414733176,
				"y": -4.5799308421,
				"z": 0.6687364735,
				"element": "H" 
			},
			{
				"x": 1.7070577934,
				"y": 0.2596733784,
				"z": 2.4166058142,
				"element": "H" 
			},
			{
				"x": 1.5582055756,
				"y": -1.423817287,
				"z": 2.0862557655,
				"element": "H" 
			},
			{
				"x": 1.6144657305,
				"y": 2.994498717,
				"z": 2.4688497885,
				"element": "H" 
			},
			{
				"x": -2.1394769639,
				"y": 0.1761409039,
				"z": -1.9905535521,
				"element": "H" 
			},
			{
				"x": -1.4490106844,
				"y": -2.0860245881,
				"z": -1.2687586796,
				"element": "H" 
			}
		],
		 "valence_orbital": [ 
			{
				"type": "occ",
				"energy": -0.29052,
				"method": "rhf"
			},
			{
				"type": "occ",
				"energy": -0.2807,
				"method": "rhf"
			},
			{
				"type": "occ",
				"energy": -0.25776,
				"method": "rhf"
			},
			{
				"type": "occ",
				"energy": -0.23879,
				"method": "rhf"
			},
			{
				"type": "occ",
				"energy": -0.19994,
				"method": "rhf"
			},
			{
				"type": "unocc",
				"energy": -0.0389,
				"method": "rhf"
			},
			{
				"type": "unocc",
				"energy": 0.00572,
				"method": "rhf"
			},
			{
				"type": "unocc",
				"energy": 0.01655,
				"method": "rhf"
			},
			{
				"type": "unocc",
				"energy": 0.04612,
				"method": "rhf"
			},
			{
				"type": "unocc",
				"energy": 0.07667,
				"method": "rhf"
			}
		],
		"cosmo_sigma_profile": { 
			"-0.025": 0.0,
			"-0.024": 0.0,
			"-0.023": 0.0,
			"-0.022": 0.0,
			"-0.021": 0.0,
			"-0.02": 0.0,
			"-0.019": 0.0,
			"-0.018": 0.929529373603,
			"-0.017": 0.75440176287,
			"-0.016": 0.985028327342,
			"-0.015": 0.732755539337,
			"-0.014": 0.669407946128,
			"-0.013": 0.655852809917,
			"-0.012": 0.512728973721,
			"-0.011": 1.9288311231,
			"-0.01": 2.0013381703,
			"-0.009": 2.36920039969,
			"-0.008": 2.29587945325,
			"-0.007": 6.13095137067,
			"-0.006": 12.8764335158,
			"-0.005": 13.615677393,
			"-0.004": 14.5710683162,
			"-0.003": 15.3789299219,
			"-0.002": 10.6356916098,
			"-0.001": 11.4808334536,
			"0.0": 10.4955491249,
			"0.001": 13.4249503534,
			"0.002": 20.348580806,
			"0.003": 20.069340737,
			"0.004": 16.6972204069,
			"0.005": 12.5333121613,
			"0.006": 5.44049228714,
			"0.007": 3.77806828226,
			"0.008": 2.59782747633,
			"0.009": 2.66001139059,
			"0.01": 3.28851309765,
			"0.011": 4.95835659504,
			"0.012": 3.80188689972,
			"0.013": 0.352753094537,
			"0.014": 0.0,
			"0.015": 0.0,
			"0.016": 0.0,
			"0.017": 0.0,
			"0.018": 0.0,
			"0.019": 0.0,
			"0.02": 0.0,
			"0.021": 0.0,
			"0.022": 0.0,
			"0.023": 0.0,
			"0.024": 0.0,
			"0.025": 0.0
		}
	}
}
