{
	 "smiles": "CC(=O)C1=C(O)C(Cl)=C(Cl)C=C1", 
	 "Tm": 382.15, 
	 "num_atms": 18, 
	 "gaussian": { 
		 "optdone": 1, 
		 "sigma_profile": "yes", 
		 "theory": "DFT", 
		 "functional": "B3LYP", 
		 "basiset": "6-31G**", 
		 "properties": { 
			 "R2extent": 4186.5931, 
			 "electric_dipole_moment_norm": 2.10263256657, 
			 "electric_quadrupole_moment_norm": 7.0607259478, 
			 "total_energy": -1379.29557533, 
			 "HOMO_LUMO_gap": 0.1851, 
			 "cosmo_polarized_energy": -8.37, 
			 "cosmo_cavitation_energy": 25.6, 
			 "cosmo_dispersion_energy": -19.41, 
			 "cosmo_repulsion_energy": 1.53, 
			 "cosmo_total_nonelectrostatic_energy": 7.72, 
			 "SMD_solvation_energy": 4.93 
		},
		"coords": [
			{
				"x": 0.9996667243,
				"y": -0.6695253388,
				"z": 1.8099206012,
				"element": "C" 
			},
			{
				"x": 1.9501131497,
				"y": -0.1654349833,
				"z": 0.7457338086,
				"element": "C" 
			},
			{
				"x": 3.1480356217,
				"y": -0.090955392,
				"z": 0.9786414087,
				"element": "O" 
			},
			{
				"x": 1.4497284942,
				"y": 0.2536401908,
				"z": -0.6154209198,
				"element": "C" 
			},
			{
				"x": 0.1044766259,
				"y": 0.2281427487,
				"z": -1.03905407,
				"element": "C" 
			},
			{
				"x": -0.861160257,
				"y": -0.1990943439,
				"z": -0.1944457864,
				"element": "O" 
			},
			{
				"x": -0.2207616281,
				"y": 0.6507759877,
				"z": -2.3460102201,
				"element": "C" 
			},
			{
				"x": -1.9090623737,
				"y": 0.5991840075,
				"z": -2.8227634826,
				"element": "Cl" 
			},
			{
				"x": 0.7723405633,
				"y": 1.0928726837,
				"z": -3.2220875251,
				"element": "C" 
			},
			{
				"x": 0.3762671319,
				"y": 1.615677409,
				"z": -4.8366082211,
				"element": "Cl" 
			},
			{
				"x": 2.1060556944,
				"y": 1.1196918646,
				"z": -2.806121325,
				"element": "C" 
			},
			{
				"x": 2.4211681823,
				"y": 0.7039325643,
				"z": -1.522346082,
				"element": "C" 
			},
			{
				"x": 0.2417657344,
				"y": 0.082775997,
				"z": 2.0472373064,
				"element": "H" 
			},
			{
				"x": 0.4562529494,
				"y": -1.5535836258,
				"z": 1.4637528028,
				"element": "H" 
			},
			{
				"x": 1.5847977715,
				"y": -0.9096174245,
				"z": 2.6983765696,
				"element": "H" 
			},
			{
				"x": -1.7184986702,
				"y": -0.1498648028,
				"z": -0.6476273765,
				"element": "H" 
			},
			{
				"x": 2.8717218813,
				"y": 1.4639444185,
				"z": -3.491079128,
				"element": "H" 
			},
			{
				"x": 3.4475924046,
				"y": 0.7141380393,
				"z": -1.1728983608,
				"element": "H" 
			}
		],
		 "valence_orbital": [ 
			{
				"type": "occ",
				"energy": -0.32979,
				"method": "rhf"
			},
			{
				"type": "occ",
				"energy": -0.3266,
				"method": "rhf"
			},
			{
				"type": "occ",
				"energy": -0.26314,
				"method": "rhf"
			},
			{
				"type": "occ",
				"energy": -0.25498,
				"method": "rhf"
			},
			{
				"type": "occ",
				"energy": -0.25095,
				"method": "rhf"
			},
			{
				"type": "unocc",
				"energy": -0.06585,
				"method": "rhf"
			},
			{
				"type": "unocc",
				"energy": -0.02103,
				"method": "rhf"
			},
			{
				"type": "unocc",
				"energy": -0.01591,
				"method": "rhf"
			},
			{
				"type": "unocc",
				"energy": 0.02205,
				"method": "rhf"
			},
			{
				"type": "unocc",
				"energy": 0.04702,
				"method": "rhf"
			}
		],
		"cosmo_sigma_profile": { 
			"-0.025": 0.0,
			"-0.024": 0.0,
			"-0.023": 0.0,
			"-0.022": 0.0,
			"-0.021": 0.0,
			"-0.02": 0.0,
			"-0.019": 0.0,
			"-0.018": 0.0,
			"-0.017": 0.0,
			"-0.016": 0.371183594921,
			"-0.015": 0.532673816313,
			"-0.014": 0.358998801529,
			"-0.013": 0.54222775042,
			"-0.012": 1.48897945895,
			"-0.011": 0.666826144865,
			"-0.01": 1.08198840576,
			"-0.009": 0.793260649807,
			"-0.008": 2.18285886925,
			"-0.007": 3.99736068316,
			"-0.006": 4.82274466702,
			"-0.005": 9.30680111479,
			"-0.004": 11.7405591443,
			"-0.003": 13.554792862,
			"-0.002": 16.52156524,
			"-0.001": 26.2474484643,
			"0.0": 27.1493598729,
			"0.001": 18.6749054836,
			"0.002": 19.3981980069,
			"0.003": 18.3332348677,
			"0.004": 11.9794554774,
			"0.005": 3.82041581928,
			"0.006": 2.09009571342,
			"0.007": 1.10204699701,
			"0.008": 1.37577939115,
			"0.009": 1.4584659237,
			"0.01": 2.35807517612,
			"0.011": 3.19976555947,
			"0.012": 3.03766875134,
			"0.013": 1.34065289473,
			"0.014": 0.0413629058589,
			"0.015": 0.0,
			"0.016": 0.0,
			"0.017": 0.0,
			"0.018": 0.0,
			"0.019": 0.0,
			"0.02": 0.0,
			"0.021": 0.0,
			"0.022": 0.0,
			"0.023": 0.0,
			"0.024": 0.0,
			"0.025": 0.0
		}
	}
}
