{
	 "smiles": "COC(=O)C(C)(O)C1=CC=NC=C1", 
	 "Tm": 378.15, 
	 "num_atms": 24, 
	 "gaussian": { 
		 "optdone": 1, 
		 "sigma_profile": "yes", 
		 "theory": "DFT", 
		 "functional": "B3LYP", 
		 "basiset": "6-31G**", 
		 "properties": { 
			 "R2extent": 3469.674, 
			 "electric_dipole_moment_norm": 3.09281338913, 
			 "electric_quadrupole_moment_norm": 16.6262634843, 
			 "total_energy": -630.006828965, 
			 "HOMO_LUMO_gap": 0.22211, 
			 "cosmo_polarized_energy": -11.38, 
			 "cosmo_cavitation_energy": 27.76, 
			 "cosmo_dispersion_energy": -19.66, 
			 "cosmo_repulsion_energy": 1.57, 
			 "cosmo_total_nonelectrostatic_energy": 9.66, 
			 "SMD_solvation_energy": 5.03 
		},
		"coords": [
			{
				"x": -1.367257796,
				"y": 0.8946523924,
				"z": 3.4350993299,
				"element": "C" 
			},
			{
				"x": -0.3646999712,
				"y": 1.4385910723,
				"z": 2.555351636,
				"element": "O" 
			},
			{
				"x": -0.3627800419,
				"y": 0.9500554934,
				"z": 1.2964800706,
				"element": "C" 
			},
			{
				"x": -1.1405726498,
				"y": 0.1117021291,
				"z": 0.8987832423,
				"element": "O" 
			},
			{
				"x": 0.7870005825,
				"y": 1.5612310731,
				"z": 0.4695811435,
				"element": "C" 
			},
			{
				"x": 0.3514970563,
				"y": 1.703786047,
				"z": -0.9941869259,
				"element": "C" 
			},
			{
				"x": 1.0965658674,
				"y": 2.8661445633,
				"z": 0.9311626624,
				"element": "O" 
			},
			{
				"x": 2.000837687,
				"y": 0.618566581,
				"z": 0.5799286217,
				"element": "C" 
			},
			{
				"x": 3.2726233985,
				"y": 1.1350285912,
				"z": 0.8366974845,
				"element": "C" 
			},
			{
				"x": 4.3572953971,
				"y": 0.2582483564,
				"z": 0.8948764662,
				"element": "C" 
			},
			{
				"x": 4.2610657254,
				"y": -1.0652913081,
				"z": 0.7217880197,
				"element": "N" 
			},
			{
				"x": 3.0368782509,
				"y": -1.5500108457,
				"z": 0.4749873341,
				"element": "C" 
			},
			{
				"x": 1.8875268566,
				"y": -0.764252931,
				"z": 0.3934613137,
				"element": "C" 
			},
			{
				"x": -1.2210517359,
				"y": 1.3936459814,
				"z": 4.3923806198,
				"element": "H" 
			},
			{
				"x": -2.3658741127,
				"y": 1.0972891354,
				"z": 3.0420380391,
				"element": "H" 
			},
			{
				"x": -1.2358438196,
				"y": -0.1848930894,
				"z": 3.5371942021,
				"element": "H" 
			},
			{
				"x": 1.1825187588,
				"y": 2.1104494298,
				"z": -1.5751242622,
				"element": "H" 
			},
			{
				"x": -0.495944304,
				"y": 2.3909168967,
				"z": -1.0613540517,
				"element": "H" 
			},
			{
				"x": 0.0599975729,
				"y": 0.7371454227,
				"z": -1.406423937,
				"element": "H" 
			},
			{
				"x": 1.0811058235,
				"y": 2.8429641705,
				"z": 1.8986567885,
				"element": "H" 
			},
			{
				"x": 3.4085892448,
				"y": 2.20088779,
				"z": 0.978520817,
				"element": "H" 
			},
			{
				"x": 5.3564187296,
				"y": 0.6440730395,
				"z": 1.0920102522,
				"element": "H" 
			},
			{
				"x": 2.9676407566,
				"y": -2.6276910182,
				"z": 0.3357948762,
				"element": "H" 
			},
			{
				"x": 0.924362723,
				"y": -1.2240389727,
				"z": 0.1966962573,
				"element": "H" 
			}
		],
		 "valence_orbital": [ 
			{
				"type": "occ",
				"energy": -0.30758,
				"method": "rhf"
			},
			{
				"type": "occ",
				"energy": -0.28467,
				"method": "rhf"
			},
			{
				"type": "occ",
				"energy": -0.26819,
				"method": "rhf"
			},
			{
				"type": "occ",
				"energy": -0.26117,
				"method": "rhf"
			},
			{
				"type": "occ",
				"energy": -0.25175,
				"method": "rhf"
			},
			{
				"type": "unocc",
				"energy": -0.02964,
				"method": "rhf"
			},
			{
				"type": "unocc",
				"energy": -0.01322,
				"method": "rhf"
			},
			{
				"type": "unocc",
				"energy": 0.00293,
				"method": "rhf"
			},
			{
				"type": "unocc",
				"energy": 0.0754,
				"method": "rhf"
			},
			{
				"type": "unocc",
				"energy": 0.10223,
				"method": "rhf"
			}
		],
		"cosmo_sigma_profile": { 
			"-0.025": 0.0,
			"-0.024": 0.0,
			"-0.023": 0.0,
			"-0.022": 0.0,
			"-0.021": 0.0,
			"-0.02": 0.0,
			"-0.019": 0.0,
			"-0.018": 0.0,
			"-0.017": 0.0,
			"-0.016": 0.0,
			"-0.015": 0.0,
			"-0.014": 0.0878923462749,
			"-0.013": 0.769495426273,
			"-0.012": 0.698555272963,
			"-0.011": 0.657290474464,
			"-0.01": 0.191848525973,
			"-0.009": 0.577854074371,
			"-0.008": 1.07078235726,
			"-0.007": 4.79984805059,
			"-0.006": 13.6753640156,
			"-0.005": 17.4720299961,
			"-0.004": 24.4011024082,
			"-0.003": 20.3214908647,
			"-0.002": 14.6409645089,
			"-0.001": 18.2567549127,
			"0.0": 15.9069236019,
			"0.001": 14.8479112552,
			"0.002": 18.3056440912,
			"0.003": 10.0025855794,
			"0.004": 5.45414022803,
			"0.005": 4.81869666305,
			"0.006": 3.68128348241,
			"0.007": 3.54032700894,
			"0.008": 4.26873843531,
			"0.009": 3.60822259054,
			"0.01": 3.94843227035,
			"0.011": 6.09115049835,
			"0.012": 3.32492619721,
			"0.013": 1.59092979604,
			"0.014": 0.985988931604,
			"0.015": 0.634953653161,
			"0.016": 0.964224087176,
			"0.017": 0.329818683576,
			"0.018": 0.0,
			"0.019": 0.0,
			"0.02": 0.0,
			"0.021": 0.0,
			"0.022": 0.0,
			"0.023": 0.0,
			"0.024": 0.0,
			"0.025": 0.0
		}
	}
}
