{
	 "smiles": "CC1=NC(=C(N)S1)C1=CC=CC=C1", 
	 "Tm": 443.15, 
	 "num_atms": 23, 
	 "gaussian": { 
		 "optdone": 1, 
		 "sigma_profile": "yes", 
		 "theory": "DFT", 
		 "functional": "B3LYP", 
		 "basiset": "6-31G**", 
		 "properties": { 
			 "R2extent": 3065.2264, 
			 "electric_dipole_moment_norm": 2.12217182386, 
			 "electric_quadrupole_moment_norm": 7.52506239908, 
			 "total_energy": -894.783035621, 
			 "HOMO_LUMO_gap": 0.17247, 
			 "cosmo_polarized_energy": -10.87, 
			 "cosmo_cavitation_energy": 28.15, 
			 "cosmo_dispersion_energy": -21.44, 
			 "cosmo_repulsion_energy": 1.66, 
			 "cosmo_total_nonelectrostatic_energy": 8.37, 
			 "SMD_solvation_energy": 3.18 
		},
		"coords": [
			{
				"x": 3.2045079243,
				"y": 2.314526836,
				"z": 0.5645022882,
				"element": "C" 
			},
			{
				"x": 2.0756119296,
				"y": 1.4841973611,
				"z": 0.0380104151,
				"element": "C" 
			},
			{
				"x": 1.2083412807,
				"y": 0.859217215,
				"z": 0.7620886715,
				"element": "N" 
			},
			{
				"x": 0.2525126065,
				"y": 0.1805579344,
				"z": 0.0173525075,
				"element": "C" 
			},
			{
				"x": 0.4255551982,
				"y": 0.2786982299,
				"z": -1.3508273606,
				"element": "C" 
			},
			{
				"x": -0.3297644906,
				"y": -0.274153062,
				"z": -2.3822886326,
				"element": "N" 
			},
			{
				"x": 1.805754278,
				"y": 1.294363528,
				"z": -1.7104391284,
				"element": "S" 
			},
			{
				"x": -0.7878294381,
				"y": -0.5923232707,
				"z": 0.7183883887,
				"element": "C" 
			},
			{
				"x": -2.058574475,
				"y": -0.8258139082,
				"z": 0.1592909304,
				"element": "C" 
			},
			{
				"x": -3.012714584,
				"y": -1.5807541786,
				"z": 0.8439702679,
				"element": "C" 
			},
			{
				"x": -2.7257098928,
				"y": -2.1065649134,
				"z": 2.1033767097,
				"element": "C" 
			},
			{
				"x": -1.4764385689,
				"y": -1.8585440759,
				"z": 2.6803869556,
				"element": "C" 
			},
			{
				"x": -0.5200494348,
				"y": -1.1109605403,
				"z": 1.9996875314,
				"element": "C" 
			},
			{
				"x": 3.1163245841,
				"y": 3.3621674639,
				"z": 0.255695473,
				"element": "H" 
			},
			{
				"x": 4.1768658689,
				"y": 1.9468949146,
				"z": 0.2181863253,
				"element": "H" 
			},
			{
				"x": 3.1803052959,
				"y": 2.2695607941,
				"z": 1.6551477249,
				"element": "H" 
			},
			{
				"x": -0.8394841629,
				"y": -1.1007755285,
				"z": -2.0900724369,
				"element": "H" 
			},
			{
				"x": 0.1944619181,
				"y": -0.4556426668,
				"z": -3.2293837918,
				"element": "H" 
			},
			{
				"x": -2.3242885391,
				"y": -0.3724833882,
				"z": -0.7908298011,
				"element": "H" 
			},
			{
				"x": -3.989210785,
				"y": -1.7423821651,
				"z": 0.3954591205,
				"element": "H" 
			},
			{
				"x": -3.4691554993,
				"y": -2.6929555169,
				"z": 2.6354953407,
				"element": "H" 
			},
			{
				"x": -1.2464629791,
				"y": -2.2523068772,
				"z": 3.6667683447,
				"element": "H" 
			},
			{
				"x": 0.4473419654,
				"y": -0.9117241852,
				"z": 2.4478341564,
				"element": "H" 
			}
		],
		 "valence_orbital": [ 
			{
				"type": "occ",
				"energy": -0.27689,
				"method": "rhf"
			},
			{
				"type": "occ",
				"energy": -0.26397,
				"method": "rhf"
			},
			{
				"type": "occ",
				"energy": -0.24799,
				"method": "rhf"
			},
			{
				"type": "occ",
				"energy": -0.24385,
				"method": "rhf"
			},
			{
				"type": "occ",
				"energy": -0.191,
				"method": "rhf"
			},
			{
				"type": "unocc",
				"energy": -0.01853,
				"method": "rhf"
			},
			{
				"type": "unocc",
				"energy": -0.00039,
				"method": "rhf"
			},
			{
				"type": "unocc",
				"energy": 0.00424,
				"method": "rhf"
			},
			{
				"type": "unocc",
				"energy": 0.01034,
				"method": "rhf"
			},
			{
				"type": "unocc",
				"energy": 0.07878,
				"method": "rhf"
			}
		],
		"cosmo_sigma_profile": { 
			"-0.025": 0.0,
			"-0.024": 0.0,
			"-0.023": 0.0,
			"-0.022": 0.0,
			"-0.021": 0.0,
			"-0.02": 0.0,
			"-0.019": 0.0,
			"-0.018": 0.0,
			"-0.017": 0.0,
			"-0.016": 0.0,
			"-0.015": 0.0,
			"-0.014": 0.727467747412,
			"-0.013": 1.46684545147,
			"-0.012": 1.80300201668,
			"-0.011": 3.19917822498,
			"-0.01": 2.25266131247,
			"-0.009": 2.42665044327,
			"-0.008": 2.21624014739,
			"-0.007": 1.95790324418,
			"-0.006": 5.94975380778,
			"-0.005": 15.5599827528,
			"-0.004": 18.8287412524,
			"-0.003": 17.9896170236,
			"-0.002": 16.8834925291,
			"-0.001": 16.7847833983,
			"0.0": 12.0997991885,
			"0.001": 12.5090917446,
			"0.002": 18.0215709901,
			"0.003": 18.0284504782,
			"0.004": 18.470018054,
			"0.005": 13.6601353836,
			"0.006": 11.1649276827,
			"0.007": 4.1082541608,
			"0.008": 2.95769901151,
			"0.009": 1.69089985487,
			"0.01": 1.46583890352,
			"0.011": 1.50744820984,
			"0.012": 1.74303432149,
			"0.013": 1.00039063178,
			"0.014": 0.518964550729,
			"0.015": 0.0,
			"0.016": 0.0,
			"0.017": 0.0,
			"0.018": 0.0,
			"0.019": 0.0,
			"0.02": 0.0,
			"0.021": 0.0,
			"0.022": 0.0,
			"0.023": 0.0,
			"0.024": 0.0,
			"0.025": 0.0
		}
	}
}
