{
	 "smiles": "OC(=O)C1=CC=C(NC(=O)CC#N)C=C1", 
	 "Tm": 469.15, 
	 "num_atms": 23, 
	 "gaussian": { 
		 "optdone": 1, 
		 "sigma_profile": "yes", 
		 "theory": "DFT", 
		 "functional": "B3LYP", 
		 "basiset": "6-31G**", 
		 "properties": { 
			 "R2extent": 4671.8661, 
			 "electric_dipole_moment_norm": 5.371545946, 
			 "electric_quadrupole_moment_norm": 33.2649462806, 
			 "total_energy": -721.066734768, 
			 "HOMO_LUMO_gap": 0.18666, 
			 "cosmo_polarized_energy": -24.84, 
			 "cosmo_cavitation_energy": 29.84, 
			 "cosmo_dispersion_energy": -21.0, 
			 "cosmo_repulsion_energy": 1.65, 
			 "cosmo_total_nonelectrostatic_energy": 10.49, 
			 "SMD_solvation_energy": 8.54 
		},
		"coords": [
			{
				"x": 1.2893418335,
				"y": -2.8918741145,
				"z": -2.5994910103,
				"element": "O" 
			},
			{
				"x": 0.1327342237,
				"y": -2.1851451437,
				"z": -2.6427610804,
				"element": "C" 
			},
			{
				"x": -0.5674691129,
				"y": -2.1452999706,
				"z": -3.6348908077,
				"element": "O" 
			},
			{
				"x": -0.1668189295,
				"y": -1.4844754529,
				"z": -1.3676976373,
				"element": "C" 
			},
			{
				"x": -1.3368725925,
				"y": -0.715403472,
				"z": -1.2949302116,
				"element": "C" 
			},
			{
				"x": -1.6573721106,
				"y": -0.0322540079,
				"z": -0.1307230487,
				"element": "C" 
			},
			{
				"x": -0.8173410398,
				"y": -0.112183029,
				"z": 0.9936778645,
				"element": "C" 
			},
			{
				"x": -1.2054601645,
				"y": 0.5731764245,
				"z": 2.1650357152,
				"element": "N" 
			},
			{
				"x": -0.4922609279,
				"y": 1.3158022779,
				"z": 3.0883756016,
				"element": "C" 
			},
			{
				"x": -1.0592871317,
				"y": 1.8504925244,
				"z": 4.0219409607,
				"element": "O" 
			},
			{
				"x": 1.0251981641,
				"y": 1.4463611606,
				"z": 2.8755428263,
				"element": "C" 
			},
			{
				"x": 1.5526523348,
				"y": 2.660101104,
				"z": 3.4978433293,
				"element": "C" 
			},
			{
				"x": 2.0166633035,
				"y": 3.6145264918,
				"z": 3.9644053685,
				"element": "N" 
			},
			{
				"x": 0.3367537465,
				"y": -0.9084482166,
				"z": 0.9322883516,
				"element": "C" 
			},
			{
				"x": 0.6650229269,
				"y": -1.574850773,
				"z": -0.2451541622,
				"element": "C" 
			},
			{
				"x": 1.3824461488,
				"y": -3.3037229074,
				"z": -3.4742348132,
				"element": "H" 
			},
			{
				"x": -1.9759764106,
				"y": -0.6570602302,
				"z": -2.1693115847,
				"element": "H" 
			},
			{
				"x": -2.5529530265,
				"y": 0.5807886509,
				"z": -0.0850770943,
				"element": "H" 
			},
			{
				"x": -2.2023732313,
				"y": 0.661955346,
				"z": 2.3257865251,
				"element": "H" 
			},
			{
				"x": 1.5221078578,
				"y": 0.5814062377,
				"z": 3.3318515046,
				"element": "H" 
			},
			{
				"x": 1.2865664536,
				"y": 1.4383904051,
				"z": 1.8128355619,
				"element": "H" 
			},
			{
				"x": 0.9586126166,
				"y": -1.0390953622,
				"z": 1.8099764092,
				"element": "H" 
			},
			{
				"x": 1.5581850678,
				"y": -2.1874879427,
				"z": -0.2875885681,
				"element": "H" 
			}
		],
		 "valence_orbital": [ 
			{
				"type": "occ",
				"energy": -0.32244,
				"method": "rhf"
			},
			{
				"type": "occ",
				"energy": -0.29069,
				"method": "rhf"
			},
			{
				"type": "occ",
				"energy": -0.28676,
				"method": "rhf"
			},
			{
				"type": "occ",
				"energy": -0.28614,
				"method": "rhf"
			},
			{
				"type": "occ",
				"energy": -0.25662,
				"method": "rhf"
			},
			{
				"type": "unocc",
				"energy": -0.06996,
				"method": "rhf"
			},
			{
				"type": "unocc",
				"energy": -0.03659,
				"method": "rhf"
			},
			{
				"type": "unocc",
				"energy": -0.00914,
				"method": "rhf"
			},
			{
				"type": "unocc",
				"energy": 0.02707,
				"method": "rhf"
			},
			{
				"type": "unocc",
				"energy": 0.02941,
				"method": "rhf"
			}
		],
		"cosmo_sigma_profile": { 
			"-0.025": 0.0,
			"-0.024": 0.0,
			"-0.023": 0.0,
			"-0.022": 0.0,
			"-0.021": 0.0,
			"-0.02": 0.0,
			"-0.019": 0.0246011526684,
			"-0.018": 0.795424311715,
			"-0.017": 1.11871189468,
			"-0.016": 0.969554796345,
			"-0.015": 1.74104774209,
			"-0.014": 1.68978776778,
			"-0.013": 1.95552651924,
			"-0.012": 3.59158974162,
			"-0.011": 5.61288626503,
			"-0.01": 6.47696327999,
			"-0.009": 5.86113152995,
			"-0.008": 8.31746222396,
			"-0.007": 10.1524700178,
			"-0.006": 11.1223931462,
			"-0.005": 9.33174817639,
			"-0.004": 8.25434206079,
			"-0.003": 9.44122163909,
			"-0.002": 13.2068150983,
			"-0.001": 11.4894722132,
			"0.0": 14.5935517646,
			"0.001": 15.5843473403,
			"0.002": 15.6195037494,
			"0.003": 11.8308590237,
			"0.004": 5.2246125725,
			"0.005": 7.24579581287,
			"0.006": 6.3778017912,
			"0.007": 7.22097427959,
			"0.008": 8.02184790497,
			"0.009": 6.51186023877,
			"0.01": 7.56023314167,
			"0.011": 9.637223781,
			"0.012": 11.4090411592,
			"0.013": 1.86883749317,
			"0.014": 0.0,
			"0.015": 0.0,
			"0.016": 0.0,
			"0.017": 0.0,
			"0.018": 0.0,
			"0.019": 0.0,
			"0.02": 0.0,
			"0.021": 0.0,
			"0.022": 0.0,
			"0.023": 0.0,
			"0.024": 0.0,
			"0.0": 0.0
		}
	}
}
