{
	 "smiles": "OC(=O)C1=CC(=C(Cl)C=C1)S(=O)(=O)N1CCC2=C1C=CC=C2", 
	 "Tm": 469.15, 
	 "num_atms": 34, 
	 "gaussian": { 
		 "optdone": 1, 
		 "sigma_profile": "yes", 
		 "theory": "DFT", 
		 "functional": "B3LYP", 
		 "basiset": "6-31G**", 
		 "properties": { 
			 "R2extent": 7340.4465, 
			 "electric_dipole_moment_norm": 4.72407596573, 
			 "electric_quadrupole_moment_norm": 17.2240201091, 
			 "total_energy": -1792.79128432, 
			 "HOMO_LUMO_gap": 0.14669, 
			 "cosmo_polarized_energy": -19.28, 
			 "cosmo_cavitation_energy": 40.86, 
			 "cosmo_dispersion_energy": -28.61, 
			 "cosmo_repulsion_energy": 2.14, 
			 "cosmo_total_nonelectrostatic_energy": 14.39, 
			 "SMD_solvation_energy": 6.54 
		},
		"coords": [
			{
				"x": 3.4919045572,
				"y": -0.9164306074,
				"z": -1.1638824584,
				"element": "O" 
			},
			{
				"x": 3.1683042741,
				"y": -0.4978359241,
				"z": -2.4105498782,
				"element": "C" 
			},
			{
				"x": 3.9337653375,
				"y": -0.5842441242,
				"z": -3.349021163,
				"element": "O" 
			},
			{
				"x": 1.7957923408,
				"y": 0.0707258367,
				"z": -2.4929626679,
				"element": "C" 
			},
			{
				"x": 0.9446928771,
				"y": 0.1213901634,
				"z": -1.3831261325,
				"element": "C" 
			},
			{
				"x": -0.3345667367,
				"y": 0.6656079062,
				"z": -1.4954109896,
				"element": "C" 
			},
			{
				"x": -0.7668585982,
				"y": 1.1540071084,
				"z": -2.7412906106,
				"element": "C" 
			},
			{
				"x": -2.356552937,
				"y": 1.8298884205,
				"z": -2.9662040159,
				"element": "Cl" 
			},
			{
				"x": 0.0828856059,
				"y": 1.1020880673,
				"z": -3.8496331488,
				"element": "C" 
			},
			{
				"x": 1.3582087136,
				"y": 0.5645603849,
				"z": -3.7259891311,
				"element": "C" 
			},
			{
				"x": -1.4227283635,
				"y": 0.7256792371,
				"z": -0.0395625937,
				"element": "S" 
			},
			{
				"x": -2.4956578136,
				"y": -0.2409274343,
				"z": -0.2600895608,
				"element": "O" 
			},
			{
				"x": -1.6903324174,
				"y": 2.1330844868,
				"z": 0.2460393267,
				"element": "O" 
			},
			{
				"x": -0.4952165579,
				"y": 0.1778213883,
				"z": 1.2302190756,
				"element": "N" 
			},
			{
				"x": 0.3847792394,
				"y": 1.1032642033,
				"z": 1.9949130112,
				"element": "C" 
			},
			{
				"x": 0.9165441975,
				"y": 0.2238221489,
				"z": 3.1513172589,
				"element": "C" 
			},
			{
				"x": 0.655449331,
				"y": -1.1898651473,
				"z": 2.6766977469,
				"element": "C" 
			},
			{
				"x": -0.2099072494,
				"y": -1.1741882934,
				"z": 1.5731938393,
				"element": "C" 
			},
			{
				"x": -0.6640978561,
				"y": -2.3528662381,
				"z": 0.9836399908,
				"element": "C" 
			},
			{
				"x": -0.2131102452,
				"y": -3.5633944173,
				"z": 1.5222596018,
				"element": "C" 
			},
			{
				"x": 0.6568580449,
				"y": -3.5963397225,
				"z": 2.6135003831,
				"element": "C" 
			},
			{
				"x": 1.0901007893,
				"y": -2.4009484192,
				"z": 3.1998725513,
				"element": "C" 
			},
			{
				"x": 4.3927461892,
				"y": -1.274580988,
				"z": -1.2246925808,
				"element": "H" 
			},
			{
				"x": 1.2863095591,
				"y": -0.277664895,
				"z": -0.4375969289,
				"element": "H" 
			},
			{
				"x": -0.2683470007,
				"y": 1.4848010505,
				"z": -4.8012028503,
				"element": "H" 
			},
			{
				"x": 2.0287431791,
				"y": 0.5178569987,
				"z": -4.5770672905,
				"element": "H" 
			},
			{
				"x": -0.1912665222,
				"y": 1.9657594871,
				"z": 2.32715156,
				"element": "H" 
			},
			{
				"x": 1.2040803735,
				"y": 1.4581210657,
				"z": 1.3571147228,
				"element": "H" 
			},
			{
				"x": 1.9728556692,
				"y": 0.4245346642,
				"z": 3.3527826128,
				"element": "H" 
			},
			{
				"x": 0.3642177142,
				"y": 0.4251009232,
				"z": 4.0775264412,
				"element": "H" 
			},
			{
				"x": -1.3539695785,
				"y": -2.3328485091,
				"z": 0.1497537906,
				"element": "H" 
			},
			{
				"x": -0.5532256037,
				"y": -4.4934743152,
				"z": 1.076378819,
				"element": "H" 
			},
			{
				"x": 0.9936261589,
				"y": -4.5484901505,
				"z": 3.0115714805,
				"element": "H" 
			},
			{
				"x": 1.7585733284,
				"y": -2.4185143553,
				"z": 4.0566497884,
				"element": "H" 
			}
		],
		 "valence_orbital": [ 
			{
				"type": "occ",
				"energy": -0.2937,
				"method": "rhf"
			},
			{
				"type": "occ",
				"energy": -0.28625,
				"method": "rhf"
			},
			{
				"type": "occ",
				"energy": -0.27056,
				"method": "rhf"
			},
			{
				"type": "occ",
				"energy": -0.25465,
				"method": "rhf"
			},
			{
				"type": "occ",
				"energy": -0.22103,
				"method": "rhf"
			},
			{
				"type": "unocc",
				"energy": -0.07434,
				"method": "rhf"
			},
			{
				"type": "unocc",
				"energy": -0.04696,
				"method": "rhf"
			},
			{
				"type": "unocc",
				"energy": -0.01277,
				"method": "rhf"
			},
			{
				"type": "unocc",
				"energy": -0.00255,
				"method": "rhf"
			},
			{
				"type": "unocc",
				"energy": 0.00856,
				"method": "rhf"
			}
		],
		"cosmo_sigma_profile": { 
			"-0.025": 0.0,
			"-0.024": 0.0,
			"-0.023": 0.0,
			"-0.022": 0.0,
			"-0.021": 0.0,
			"-0.02": 0.0,
			"-0.019": 0.309677651394,
			"-0.018": 1.13598187149,
			"-0.017": 1.05609865214,
			"-0.016": 0.484477972981,
			"-0.015": 0.412047795243,
			"-0.014": 0.891575709416,
			"-0.013": 0.811675735254,
			"-0.012": 0.61949558797,
			"-0.011": 1.12561234675,
			"-0.01": 0.80607077305,
			"-0.009": 1.44918969422,
			"-0.008": 4.6436715521,
			"-0.007": 6.33557632631,
			"-0.006": 15.2156244042,
			"-0.005": 23.8816566255,
			"-0.004": 26.7868141423,
			"-0.003": 26.3901441981,
			"-0.002": 27.4741728158,
			"-0.001": 31.7898815704,
			"0.0": 21.9796557054,
			"0.001": 17.5714651841,
			"0.002": 19.2369110714,
			"0.003": 17.6793267245,
			"0.004": 14.9541718414,
			"0.005": 14.8626781694,
			"0.006": 11.6666205349,
			"0.007": 5.76468495218,
			"0.008": 5.64021668453,
			"0.009": 7.6374253056,
			"0.01": 11.9243598993,
			"0.011": 8.14300277326,
			"0.012": 1.03953924839,
			"0.013": 0.0,
			"0.014": 0.0,
			"0.015": 0.0,
			"0.016": 0.0,
			"0.017": 0.0,
			"0.018": 0.0,
			"0.019": 0.0,
			"0.02": 0.0,
			"0.021": 0.0,
			"0.022": 0.0,
			"0.023": 0.0,
			"0.024": 0.0,
			"0.0": 0.0
		}
	}
}
