{
	 "smiles": "CN1N=C(C)C(C)=C(C2=NC(C)=C(S2)C(O)=O)C1=O", 
	 "Tm": 513.15, 
	 "num_atms": 32, 
	 "gaussian": { 
		 "optdone": 1, 
		 "sigma_profile": "yes", 
		 "theory": "DFT", 
		 "functional": "B3LYP", 
		 "basiset": "6-31G**", 
		 "properties": { 
			 "R2extent": 6727.0416, 
			 "electric_dipole_moment_norm": 6.64411737855, 
			 "electric_quadrupole_moment_norm": 17.1970347807, 
			 "total_energy": -1253.23409037, 
			 "HOMO_LUMO_gap": 0.13641, 
			 "cosmo_polarized_energy": -16.71, 
			 "cosmo_cavitation_energy": 36.98, 
			 "cosmo_dispersion_energy": -27.43, 
			 "cosmo_repulsion_energy": 2.05, 
			 "cosmo_total_nonelectrostatic_energy": 11.6, 
			 "SMD_solvation_energy": 6.53 
		},
		"coords": [
			{
				"x": 2.4796781972,
				"y": 0.2596389659,
				"z": -3.9094518592,
				"element": "C" 
			},
			{
				"x": 1.7789793966,
				"y": -0.3932597053,
				"z": -2.8024693623,
				"element": "N" 
			},
			{
				"x": 1.5369689861,
				"y": -1.7006204707,
				"z": -2.9404572659,
				"element": "N" 
			},
			{
				"x": 0.9113778671,
				"y": -2.3301755998,
				"z": -1.9712048456,
				"element": "C" 
			},
			{
				"x": 0.6893465853,
				"y": -3.8013851746,
				"z": -2.2287136681,
				"element": "C" 
			},
			{
				"x": 0.4722175231,
				"y": -1.6772462092,
				"z": -0.7639569996,
				"element": "C" 
			},
			{
				"x": -0.2355275198,
				"y": -2.4863639746,
				"z": 0.2900848311,
				"element": "C" 
			},
			{
				"x": 0.7288753381,
				"y": -0.3161418116,
				"z": -0.6349251058,
				"element": "C" 
			},
			{
				"x": 0.3445366657,
				"y": 0.4897814001,
				"z": 0.5205827448,
				"element": "C" 
			},
			{
				"x": -0.2983297963,
				"y": 0.0272815849,
				"z": 1.5750027568,
				"element": "N" 
			},
			{
				"x": -0.5350924444,
				"y": 0.9819915839,
				"z": 2.5204960118,
				"element": "C" 
			},
			{
				"x": -1.2557246279,
				"y": 0.5972677075,
				"z": 3.7787231414,
				"element": "C" 
			},
			{
				"x": -0.0603131387,
				"y": 2.2420043973,
				"z": 2.1902202342,
				"element": "C" 
			},
			{
				"x": 0.719527615,
				"y": 2.2090208313,
				"z": 0.6314486639,
				"element": "S" 
			},
			{
				"x": -0.1875664658,
				"y": 3.4516019468,
				"z": 3.0291381183,
				"element": "C" 
			},
			{
				"x": 0.2191535334,
				"y": 4.633900454,
				"z": 2.4928340611,
				"element": "O" 
			},
			{
				"x": -0.6314762004,
				"y": 3.4302399729,
				"z": 4.156841078,
				"element": "O" 
			},
			{
				"x": 1.4263392386,
				"y": 0.3870878715,
				"z": -1.7097505996,
				"element": "C" 
			},
			{
				"x": 1.7109041586,
				"y": 1.5914944849,
				"z": -1.7037285488,
				"element": "O" 
			},
			{
				"x": 2.6678102573,
				"y": -0.5016383016,
				"z": -4.6636771309,
				"element": "H" 
			},
			{
				"x": 3.4163084334,
				"y": 0.6937979283,
				"z": -3.5521617515,
				"element": "H" 
			},
			{
				"x": 1.8642439994,
				"y": 1.0660392325,
				"z": -4.3148342848,
				"element": "H" 
			},
			{
				"x": 1.1059877592,
				"y": -4.0518269305,
				"z": -3.2051450473,
				"element": "H" 
			},
			{
				"x": -0.3752518798,
				"y": -4.0589337793,
				"z": -2.2296192107,
				"element": "H" 
			},
			{
				"x": 1.1781804286,
				"y": -4.4257996432,
				"z": -1.4731029534,
				"element": "H" 
			},
			{
				"x": 0.288523964,
				"y": -2.4199636313,
				"z": 1.246910814,
				"element": "H" 
			},
			{
				"x": -1.2332111571,
				"y": -2.0833186623,
				"z": 0.483155116,
				"element": "H" 
			},
			{
				"x": -0.3229404577,
				"y": -3.5328473796,
				"z": 0.0019336049,
				"element": "H" 
			},
			{
				"x": -1.6338939205,
				"y": -0.4219733001,
				"z": 3.6812990412,
				"element": "H" 
			},
			{
				"x": -2.0779022888,
				"y": 1.284706835,
				"z": 3.9896403888,
				"element": "H" 
			},
			{
				"x": -0.5856683716,
				"y": 0.6515456095,
				"z": 4.6425098139,
				"element": "H" 
			},
			{
				"x": 0.4938383218,
				"y": 4.5349937674,
				"z": 1.5695782134,
				"element": "H" 
			}
		],
		 "valence_orbital": [ 
			{
				"type": "occ",
				"energy": -0.28214,
				"method": "rhf"
			},
			{
				"type": "occ",
				"energy": -0.27278,
				"method": "rhf"
			},
			{
				"type": "occ",
				"energy": -0.26269,
				"method": "rhf"
			},
			{
				"type": "occ",
				"energy": -0.25774,
				"method": "rhf"
			},
			{
				"type": "occ",
				"energy": -0.23179,
				"method": "rhf"
			},
			{
				"type": "unocc",
				"energy": -0.09538,
				"method": "rhf"
			},
			{
				"type": "unocc",
				"energy": -0.0364,
				"method": "rhf"
			},
			{
				"type": "unocc",
				"energy": -0.01045,
				"method": "rhf"
			},
			{
				"type": "unocc",
				"energy": 0.00644,
				"method": "rhf"
			},
			{
				"type": "unocc",
				"energy": 0.02376,
				"method": "rhf"
			}
		],
		"cosmo_sigma_profile": { 
			"-0.025": 0.0,
			"-0.024": 0.0,
			"-0.023": 0.0,
			"-0.022": 0.0,
			"-0.021": 0.0,
			"-0.02": 0.0,
			"-0.019": 0.0,
			"-0.018": 0.205908242765,
			"-0.017": 0.885451197169,
			"-0.016": 0.543329355799,
			"-0.015": 0.831679805652,
			"-0.014": 0.699776135785,
			"-0.013": 1.16411362557,
			"-0.012": 1.45584503072,
			"-0.011": 0.925523067497,
			"-0.01": 0.625795796918,
			"-0.009": 0.789717264679,
			"-0.008": 1.28458585799,
			"-0.007": 2.21051236389,
			"-0.006": 7.26765490235,
			"-0.005": 20.3963700031,
			"-0.004": 26.9018892682,
			"-0.003": 33.3488105087,
			"-0.002": 32.0511455657,
			"-0.001": 36.5329384137,
			"0.0": 28.5450813212,
			"0.001": 13.359413873,
			"0.002": 11.356441659,
			"0.003": 10.5808259485,
			"0.004": 7.67488651933,
			"0.005": 8.39933482501,
			"0.006": 7.42146690035,
			"0.007": 5.70015363528,
			"0.008": 5.48067864997,
			"0.009": 6.07920520476,
			"0.01": 6.25866452502,
			"0.011": 6.49025315558,
			"0.012": 6.65951377365,
			"0.013": 3.70544281013,
			"0.014": 0.165859659036,
			"0.015": 0.0,
			"0.016": 0.0,
			"0.017": 0.0,
			"0.018": 0.0,
			"0.019": 0.0,
			"0.02": 0.0,
			"0.021": 0.0,
			"0.022": 0.0,
			"0.023": 0.0,
			"0.024": 0.0,
			"0.025": 0.0
		}
	}
}
