{
	 "smiles": "OC12CC3CC(CC(C3)C1)C2", 
	 "Tm": 513.15, 
	 "num_atms": 27, 
	 "gaussian": { 
		 "optdone": 1, 
		 "sigma_profile": "yes", 
		 "theory": "DFT", 
		 "functional": "B3LYP", 
		 "basiset": "6-31G**", 
		 "properties": { 
			 "R2extent": 1418.0604, 
			 "electric_dipole_moment_norm": 1.52317946743, 
			 "electric_quadrupole_moment_norm": 5.57770306578, 
			 "total_energy": -465.958578601, 
			 "HOMO_LUMO_gap": 0.31719, 
			 "cosmo_polarized_energy": -5.61, 
			 "cosmo_cavitation_energy": 24.55, 
			 "cosmo_dispersion_energy": -19.1, 
			 "cosmo_repulsion_energy": 1.49, 
			 "cosmo_total_nonelectrostatic_energy": 6.94, 
			 "SMD_solvation_energy": 2.71 
		},
		"coords": [
			{
				"x": 1.2231853857,
				"y": -0.9782049065,
				"z": 2.2830540262,
				"element": "O" 
			},
			{
				"x": 0.5023835931,
				"y": -0.38095998,
				"z": 1.2055639121,
				"element": "C" 
			},
			{
				"x": -0.1159909283,
				"y": 0.9689776837,
				"z": 1.6232916888,
				"element": "C" 
			},
			{
				"x": -0.827306195,
				"y": 1.6218219823,
				"z": 0.4183497739,
				"element": "C" 
			},
			{
				"x": -1.9422650795,
				"y": 0.682311885,
				"z": -0.0881894943,
				"element": "C" 
			},
			{
				"x": -1.3294256429,
				"y": -0.6685643638,
				"z": -0.5150321065,
				"element": "C" 
			},
			{
				"x": -0.3012070476,
				"y": -0.4319621712,
				"z": -1.641494276,
				"element": "C" 
			},
			{
				"x": 0.8164520941,
				"y": 0.5038315245,
				"z": -1.1343241973,
				"element": "C" 
			},
			{
				"x": 0.2003424275,
				"y": 1.8537989989,
				"z": -0.7095895438,
				"element": "C" 
			},
			{
				"x": 1.5186700824,
				"y": -0.1442068378,
				"z": 0.077659445,
				"element": "C" 
			},
			{
				"x": -0.6157577258,
				"y": -1.3118303222,
				"z": 0.693721701,
				"element": "C" 
			},
			{
				"x": 0.5957004302,
				"y": -1.1345398366,
				"z": 3.0022630587,
				"element": "H" 
			},
			{
				"x": 0.6766307545,
				"y": 1.6205653501,
				"z": 2.0109392412,
				"element": "H" 
			},
			{
				"x": -0.8308356824,
				"y": 0.8060627908,
				"z": 2.443432842,
				"element": "H" 
			},
			{
				"x": -1.2629711032,
				"y": 2.5810489015,
				"z": 0.7251131919,
				"element": "H" 
			},
			{
				"x": -2.4654041627,
				"y": 1.1426854579,
				"z": -0.9363377569,
				"element": "H" 
			},
			{
				"x": -2.6905200415,
				"y": 0.5253168148,
				"z": 0.7000229569,
				"element": "H" 
			},
			{
				"x": -2.1222201976,
				"y": -1.3379023188,
				"z": -0.8720580593,
				"element": "H" 
			},
			{
				"x": -0.7962801326,
				"y": 0.0113401409,
				"z": -2.5153145367,
				"element": "H" 
			},
			{
				"x": 0.1267856338,
				"y": -1.3885914626,
				"z": -1.9681282908,
				"element": "H" 
			},
			{
				"x": 1.5499308736,
				"y": 0.6686587149,
				"z": -1.9333966384,
				"element": "H" 
			},
			{
				"x": -0.2863150718,
				"y": 2.3331933964,
				"z": -1.5689418784,
				"element": "H" 
			},
			{
				"x": 0.9883155309,
				"y": 2.5368722239,
				"z": -0.3667522798,
				"element": "H" 
			},
			{
				"x": 2.324771238,
				"y": 0.4982632743,
				"z": 0.4522676994,
				"element": "H" 
			},
			{
				"x": 1.973205547,
				"y": -1.1029005806,
				"z": -0.2002602184,
				"element": "H" 
			},
			{
				"x": -1.335929913,
				"y": -1.4991906016,
				"z": 1.5039321922,
				"element": "H" 
			},
			{
				"x": -0.1781446667,
				"y": -2.2798957585,
				"z": 0.4209075472,
				"element": "H" 
			}
		],
		 "valence_orbital": [ 
			{
				"type": "occ",
				"energy": -0.3121,
				"method": "rhf"
			},
			{
				"type": "occ",
				"energy": -0.29675,
				"method": "rhf"
			},
			{
				"type": "occ",
				"energy": -0.28901,
				"method": "rhf"
			},
			{
				"type": "occ",
				"energy": -0.27576,
				"method": "rhf"
			},
			{
				"type": "occ",
				"energy": -0.2501,
				"method": "rhf"
			},
			{
				"type": "unocc",
				"energy": 0.06709,
				"method": "rhf"
			},
			{
				"type": "unocc",
				"energy": 0.08611,
				"method": "rhf"
			},
			{
				"type": "unocc",
				"energy": 0.12364,
				"method": "rhf"
			},
			{
				"type": "unocc",
				"energy": 0.12873,
				"method": "rhf"
			},
			{
				"type": "unocc",
				"energy": 0.13178,
				"method": "rhf"
			}
		],
		"cosmo_sigma_profile": { 
			"-0.025": 0.0,
			"-0.024": 0.0,
			"-0.023": 0.0,
			"-0.022": 0.0,
			"-0.021": 0.0,
			"-0.02": 0.0,
			"-0.019": 0.0,
			"-0.018": 0.0,
			"-0.017": 0.0,
			"-0.016": 0.0,
			"-0.015": 0.0976018616065,
			"-0.014": 0.633352082601,
			"-0.013": 1.18064917053,
			"-0.012": 0.508405037744,
			"-0.011": 0.916591065205,
			"-0.01": 0.747099688517,
			"-0.009": 1.19605562969,
			"-0.008": 1.1334375009,
			"-0.007": 1.12306668487,
			"-0.006": 1.07542624577,
			"-0.005": 1.37576680007,
			"-0.004": 1.79599306991,
			"-0.003": 3.99430493196,
			"-0.002": 33.1688717019,
			"-0.001": 42.1847897638,
			"0.0": 38.1453444763,
			"0.001": 29.346737723,
			"0.002": 8.55204365577,
			"0.003": 2.58891485931,
			"0.004": 1.62509405004,
			"0.005": 1.407802915,
			"0.006": 1.09147904588,
			"0.007": 1.37066076311,
			"0.008": 1.52642313651,
			"0.009": 1.65993610089,
			"0.01": 0.891920041271,
			"0.011": 1.14987540277,
			"0.012": 1.3484555882,
			"0.013": 1.37916946338,
			"0.014": 1.91101449557,
			"0.015": 1.68923883128,
			"0.016": 0.0227703146016,
			"0.017": 0.0,
			"0.018": 0.0,
			"0.019": 0.0,
			"0.02": 0.0,
			"0.021": 0.0,
			"0.022": 0.0,
			"0.023": 0.0,
			"0.024": 0.0,
			"0.025": 0.0
		}
	}
}
