{
	 "smiles": "CC1=CC(=CC(C)=C1S(Cl)(=O)=O)C(C)(C)C", 
	 "Tm": 387.15, 
	 "num_atms": 33, 
	 "gaussian": { 
		 "optdone": 1, 
		 "sigma_profile": "yes", 
		 "theory": "DFT", 
		 "functional": "B3LYP", 
		 "basiset": "6-31G**", 
		 "properties": { 
			 "R2extent": 6576.9389, 
			 "electric_dipole_moment_norm": 6.00441754877, 
			 "electric_quadrupole_moment_norm": 19.0396894822, 
			 "total_energy": -1476.30589964, 
			 "HOMO_LUMO_gap": 0.17782, 
			 "cosmo_polarized_energy": -8.51, 
			 "cosmo_cavitation_energy": 36.66, 
			 "cosmo_dispersion_energy": -26.23, 
			 "cosmo_repulsion_energy": 1.99, 
			 "cosmo_total_nonelectrostatic_energy": 12.42, 
			 "SMD_solvation_energy": 5.26 
		},
		"coords": [
			{
				"x": 1.5271107346,
				"y": -3.3688862376,
				"z": 0.3852901974,
				"element": "C" 
			},
			{
				"x": 0.9667710559,
				"y": -1.9836989967,
				"z": 0.6255961724,
				"element": "C" 
			},
			{
				"x": 0.6140205297,
				"y": -1.2334834213,
				"z": -0.5057591862,
				"element": "C" 
			},
			{
				"x": 0.0606483949,
				"y": 0.0455822751,
				"z": -0.4340780747,
				"element": "C" 
			},
			{
				"x": -0.1574454505,
				"y": 0.5776283456,
				"z": 0.8432868698,
				"element": "C" 
			},
			{
				"x": 0.1696124373,
				"y": -0.0985246863,
				"z": 2.019211904,
				"element": "C" 
			},
			{
				"x": -0.1465955977,
				"y": 0.5819499621,
				"z": 3.3331401631,
				"element": "C" 
			},
			{
				"x": 0.7621690407,
				"y": -1.3791185906,
				"z": 1.8860544756,
				"element": "C" 
			},
			{
				"x": 1.2451070901,
				"y": -2.2509313133,
				"z": 3.3841827333,
				"element": "S" 
			},
			{
				"x": -0.648984988,
				"y": -3.0551193203,
				"z": 4.0357158204,
				"element": "Cl" 
			},
			{
				"x": 1.6537982742,
				"y": -1.3074528669,
				"z": 4.4176452857,
				"element": "O" 
			},
			{
				"x": 2.0724572464,
				"y": -3.4123103167,
				"z": 3.0848232106,
				"element": "O" 
			},
			{
				"x": -0.3208825509,
				"y": 0.8613701244,
				"z": -1.681002287,
				"element": "C" 
			},
			{
				"x": 0.4735546209,
				"y": 2.1898333536,
				"z": -1.6809190099,
				"element": "C" 
			},
			{
				"x": -0.0092119594,
				"y": 0.1127693469,
				"z": -2.9906875677,
				"element": "C" 
			},
			{
				"x": -1.8376666303,
				"y": 1.1677652015,
				"z": -1.6468286584,
				"element": "C" 
			},
			{
				"x": 0.9785045959,
				"y": -4.1370436312,
				"z": 0.9349279274,
				"element": "H" 
			},
			{
				"x": 1.470192051,
				"y": -3.59983881,
				"z": -0.6808373284,
				"element": "H" 
			},
			{
				"x": 2.5694154128,
				"y": -3.4471010267,
				"z": 0.7027288203,
				"element": "H" 
			},
			{
				"x": 0.7827273917,
				"y": -1.6946573768,
				"z": -1.4711587842,
				"element": "H" 
			},
			{
				"x": -0.6067934163,
				"y": 1.5603681583,
				"z": 0.9446332034,
				"element": "H" 
			},
			{
				"x": -0.6945523416,
				"y": -0.0723293396,
				"z": 4.0158888718,
				"element": "H" 
			},
			{
				"x": 0.7621090953,
				"y": 0.8898308266,
				"z": 3.8552401523,
				"element": "H" 
			},
			{
				"x": -0.7586965051,
				"y": 1.4667688945,
				"z": 3.1443271069,
				"element": "H" 
			},
			{
				"x": 0.2612677684,
				"y": 2.7939079261,
				"z": -0.7940704315,
				"element": "H" 
			},
			{
				"x": 1.5519627346,
				"y": 2.0030697586,
				"z": -1.7089170842,
				"element": "H" 
			},
			{
				"x": 0.2094189674,
				"y": 2.7862131122,
				"z": -2.5609400227,
				"element": "H" 
			},
			{
				"x": -0.2926475196,
				"y": 0.7361597973,
				"z": -3.8443771189,
				"element": "H" 
			},
			{
				"x": 1.0576023849,
				"y": -0.1133044207,
				"z": -3.088797234,
				"element": "H" 
			},
			{
				"x": -0.5687716079,
				"y": -0.8250531261,
				"z": -3.0693129794,
				"element": "H" 
			},
			{
				"x": -2.4253928228,
				"y": 0.2440990895,
				"z": -1.6472583393,
				"element": "H" 
			},
			{
				"x": -2.119903412,
				"y": 1.7438595505,
				"z": -0.7609009898,
				"element": "H" 
			},
			{
				"x": -2.1231050249,
				"y": 1.752277758,
				"z": -2.5281478182,
				"element": "H" 
			}
		],
		 "valence_orbital": [ 
			{
				"type": "occ",
				"energy": -0.32415,
				"method": "rhf"
			},
			{
				"type": "occ",
				"energy": -0.31744,
				"method": "rhf"
			},
			{
				"type": "occ",
				"energy": -0.3055,
				"method": "rhf"
			},
			{
				"type": "occ",
				"energy": -0.26914,
				"method": "rhf"
			},
			{
				"type": "occ",
				"energy": -0.26115,
				"method": "rhf"
			},
			{
				"type": "unocc",
				"energy": -0.08333,
				"method": "rhf"
			},
			{
				"type": "unocc",
				"energy": -0.03832,
				"method": "rhf"
			},
			{
				"type": "unocc",
				"energy": -0.02162,
				"method": "rhf"
			},
			{
				"type": "unocc",
				"energy": 0.05676,
				"method": "rhf"
			},
			{
				"type": "unocc",
				"energy": 0.0707,
				"method": "rhf"
			}
		],
		"cosmo_sigma_profile": { 
			"-0.025": 0.0,
			"-0.024": 0.0,
			"-0.023": 0.0,
			"-0.022": 0.0,
			"-0.021": 0.0,
			"-0.02": 0.0,
			"-0.019": 0.0,
			"-0.018": 0.0,
			"-0.017": 0.0,
			"-0.016": 0.0,
			"-0.015": 0.0,
			"-0.014": 0.0,
			"-0.013": 0.0,
			"-0.012": 0.0,
			"-0.011": 0.0,
			"-0.01": 0.0,
			"-0.009": 0.0,
			"-0.008": 0.0,
			"-0.007": 1.88896330695,
			"-0.006": 7.17446523267,
			"-0.005": 9.21600193683,
			"-0.004": 16.9570934685,
			"-0.003": 34.7113183573,
			"-0.002": 32.7031676106,
			"-0.001": 39.7287558995,
			"0.0": 35.8170084239,
			"0.001": 33.4933561098,
			"0.002": 21.0428543539,
			"0.003": 16.3897034761,
			"0.004": 13.4091119294,
			"0.005": 6.18407318658,
			"0.006": 4.32339256972,
			"0.007": 3.74966026745,
			"0.008": 6.39865588847,
			"0.009": 6.45421591665,
			"0.01": 0.645830220707,
			"0.011": 0.0,
			"0.012": 0.0,
			"0.013": 0.0,
			"0.014": 0.0,
			"0.015": 0.0,
			"0.016": 0.0,
			"0.017": 0.0,
			"0.018": 0.0,
			"0.019": 0.0,
			"0.02": 0.0,
			"0.021": 0.0,
			"0.022": 0.0,
			"0.023": 0.0,
			"0.024": 0.0,
			"0.025": 0.0
		}
	}
}
