{
	 "smiles": "CC(N1C=NC=N1)C(=O)NC1=CC=C(N)C=C1", 
	 "Tm": 476.15, 
	 "num_atms": 30, 
	 "gaussian": { 
		 "optdone": 1, 
		 "sigma_profile": "yes", 
		 "theory": "DFT", 
		 "functional": "B3LYP", 
		 "basiset": "6-31G**", 
		 "properties": { 
			 "R2extent": 5966.1132, 
			 "electric_dipole_moment_norm": 6.36445209189, 
			 "electric_quadrupole_moment_norm": 18.9362233146, 
			 "total_energy": -775.987339501, 
			 "HOMO_LUMO_gap": 0.19308, 
			 "cosmo_polarized_energy": -19.32, 
			 "cosmo_cavitation_energy": 34.26, 
			 "cosmo_dispersion_energy": -23.93, 
			 "cosmo_repulsion_energy": 1.86, 
			 "cosmo_total_nonelectrostatic_energy": 12.18, 
			 "SMD_solvation_energy": 4.52 
		},
		"coords": [
			{
				"x": -1.7192895548,
				"y": 3.9227128802,
				"z": -0.2309129401,
				"element": "C" 
			},
			{
				"x": -1.7283016314,
				"y": 2.5514114694,
				"z": 0.4535499097,
				"element": "C" 
			},
			{
				"x": -3.0921172396,
				"y": 2.033705673,
				"z": 0.607914182,
				"element": "N" 
			},
			{
				"x": -4.1284041168,
				"y": 2.5176907267,
				"z": 1.3331124415,
				"element": "C" 
			},
			{
				"x": -5.197428201,
				"y": 1.7513937819,
				"z": 1.1770202009,
				"element": "N" 
			},
			{
				"x": -4.7483952505,
				"y": 0.7879037839,
				"z": 0.3271345985,
				"element": "C" 
			},
			{
				"x": -3.4824110188,
				"y": 0.907061003,
				"z": -0.050720377,
				"element": "N" 
			},
			{
				"x": -1.0870915546,
				"y": 2.6590213609,
				"z": 1.8494156244,
				"element": "C" 
			},
			{
				"x": -1.4904506165,
				"y": 3.4987523733,
				"z": 2.6477683297,
				"element": "O" 
			},
			{
				"x": -0.052917876,
				"y": 1.8205344575,
				"z": 2.1643985949,
				"element": "N" 
			},
			{
				"x": 0.5371843786,
				"y": 0.7433875452,
				"z": 1.4378092288,
				"element": "C" 
			},
			{
				"x": -0.2260329077,
				"y": -0.2977689986,
				"z": 0.8932908092,
				"element": "C" 
			},
			{
				"x": 0.3926119931,
				"y": -1.3437461755,
				"z": 0.2155192435,
				"element": "C" 
			},
			{
				"x": 1.7918142359,
				"y": -1.4037917554,
				"z": 0.0953849683,
				"element": "C" 
			},
			{
				"x": 2.40537114,
				"y": -2.430233777,
				"z": -0.6187312658,
				"element": "N" 
			},
			{
				"x": 2.5528079777,
				"y": -0.3689367587,
				"z": 0.668654391,
				"element": "C" 
			},
			{
				"x": 1.9316720865,
				"y": 0.691333244,
				"z": 1.3186773877,
				"element": "C" 
			},
			{
				"x": -0.6887441027,
				"y": 4.2385021645,
				"z": -0.4201869523,
				"element": "H" 
			},
			{
				"x": -2.2477505966,
				"y": 3.8670677047,
				"z": -1.1859756252,
				"element": "H" 
			},
			{
				"x": -2.1925185753,
				"y": 4.6715301813,
				"z": 0.4075429901,
				"element": "H" 
			},
			{
				"x": -1.2185409032,
				"y": 1.8175529037,
				"z": -0.1683760166,
				"element": "H" 
			},
			{
				"x": -4.0401395463,
				"y": 3.393348646,
				"z": 1.9586301917,
				"element": "H" 
			},
			{
				"x": -5.3676103207,
				"y": -0.0254047578,
				"z": -0.0263649424,
				"element": "H" 
			},
			{
				"x": 0.3346395216,
				"y": 2.0295161226,
				"z": 3.0778767987,
				"element": "H" 
			},
			{
				"x": -1.3072299374,
				"y": -0.2917423734,
				"z": 0.9866450614,
				"element": "H" 
			},
			{
				"x": -0.2177645462,
				"y": -2.1328284653,
				"z": -0.2157231062,
				"element": "H" 
			},
			{
				"x": 3.3701607006,
				"y": -2.612919756,
				"z": -0.3811285092,
				"element": "H" 
			},
			{
				"x": 1.8665389153,
				"y": -3.2798701351,
				"z": -0.7113136033,
				"element": "H" 
			},
			{
				"x": 3.6365215211,
				"y": -0.3902196298,
				"z": 0.5874213257,
				"element": "H" 
			},
			{
				"x": 2.5337160257,
				"y": 1.4920365606,
				"z": 1.7396670603,
				"element": "H" 
			}
		],
		 "valence_orbital": [ 
			{
				"type": "occ",
				"energy": -0.26853,
				"method": "rhf"
			},
			{
				"type": "occ",
				"energy": -0.26269,
				"method": "rhf"
			},
			{
				"type": "occ",
				"energy": -0.26148,
				"method": "rhf"
			},
			{
				"type": "occ",
				"energy": -0.25334,
				"method": "rhf"
			},
			{
				"type": "occ",
				"energy": -0.20771,
				"method": "rhf"
			},
			{
				"type": "unocc",
				"energy": -0.01463,
				"method": "rhf"
			},
			{
				"type": "unocc",
				"energy": -0.01069,
				"method": "rhf"
			},
			{
				"type": "unocc",
				"energy": 0.01075,
				"method": "rhf"
			},
			{
				"type": "unocc",
				"energy": 0.02591,
				"method": "rhf"
			},
			{
				"type": "unocc",
				"energy": 0.05971,
				"method": "rhf"
			}
		],
		"cosmo_sigma_profile": { 
			"-0.025": 0.0,
			"-0.024": 0.0,
			"-0.023": 0.0,
			"-0.022": 0.0,
			"-0.021": 0.0,
			"-0.02": 0.0,
			"-0.019": 0.0,
			"-0.018": 0.0,
			"-0.017": 0.0,
			"-0.016": 0.0,
			"-0.015": 0.180992132091,
			"-0.014": 0.786941582572,
			"-0.013": 1.94646525063,
			"-0.012": 3.70171281381,
			"-0.011": 3.66259664636,
			"-0.01": 3.76379072359,
			"-0.009": 5.31580191567,
			"-0.008": 7.75012827992,
			"-0.007": 7.35786832937,
			"-0.006": 14.0498116476,
			"-0.005": 16.8707474924,
			"-0.004": 18.9852069511,
			"-0.003": 18.7878089878,
			"-0.002": 17.0062268836,
			"-0.001": 17.6873662646,
			"0.0": 17.911255194,
			"0.001": 14.5014946115,
			"0.002": 14.0937074873,
			"0.003": 12.4856799108,
			"0.004": 14.0175645527,
			"0.005": 14.776766828,
			"0.006": 8.94595186755,
			"0.007": 4.87691182318,
			"0.008": 3.97078957907,
			"0.009": 4.49240263507,
			"0.01": 4.38436965939,
			"0.011": 3.90700885294,
			"0.012": 4.87814953462,
			"0.013": 6.37729924988,
			"0.014": 2.54411494587,
			"0.015": 1.06002231519,
			"0.016": 1.14900571947,
			"0.017": 0.27087404443,
			"0.018": 0.0,
			"0.019": 0.0,
			"0.02": 0.0,
			"0.021": 0.0,
			"0.022": 0.0,
			"0.023": 0.0,
			"0.024": 0.0,
			"0.025": 0.0
		}
	}
}
