{
	 "smiles": "CCCSC1=CC=C(C=C1)C(O)=O", 
	 "Tm": 415.15, 
	 "num_atms": 25, 
	 "gaussian": { 
		 "optdone": 1, 
		 "sigma_profile": "yes", 
		 "theory": "DFT", 
		 "functional": "B3LYP", 
		 "basiset": "6-31G**", 
		 "properties": { 
			 "R2extent": 4583.585, 
			 "electric_dipole_moment_norm": 5.07571989968, 
			 "electric_quadrupole_moment_norm": 25.8131285647, 
			 "total_energy": -936.94829619, 
			 "HOMO_LUMO_gap": 0.17551, 
			 "cosmo_polarized_energy": -15.31, 
			 "cosmo_cavitation_energy": 30.15, 
			 "cosmo_dispersion_energy": -22.56, 
			 "cosmo_repulsion_energy": 1.75, 
			 "cosmo_total_nonelectrostatic_energy": 9.35, 
			 "SMD_solvation_energy": 5.85 
		},
		"coords": [
			{
				"x": -3.3419812383,
				"y": -3.1494925095,
				"z": 1.0591688937,
				"element": "C" 
			},
			{
				"x": -2.0737015405,
				"y": -2.9071312134,
				"z": 1.8843443774,
				"element": "C" 
			},
			{
				"x": -1.2438911544,
				"y": -1.6954350143,
				"z": 1.438737665,
				"element": "C" 
			},
			{
				"x": -0.5233425993,
				"y": -1.9946793629,
				"z": -0.2261121012,
				"element": "S" 
			},
			{
				"x": 0.4417609277,
				"y": -0.5396566231,
				"z": -0.5438335958,
				"element": "C" 
			},
			{
				"x": 0.5234712294,
				"y": 0.5702371196,
				"z": 0.3129860575,
				"element": "C" 
			},
			{
				"x": 1.3102944726,
				"y": 1.6646625662,
				"z": -0.0313847985,
				"element": "C" 
			},
			{
				"x": 2.0187766655,
				"y": 1.6954219652,
				"z": -1.2384287336,
				"element": "C" 
			},
			{
				"x": 1.9453071251,
				"y": 0.5784782314,
				"z": -2.0865464474,
				"element": "C" 
			},
			{
				"x": 1.171336302,
				"y": -0.5232611503,
				"z": -1.7468335397,
				"element": "C" 
			},
			{
				"x": 2.8411585951,
				"y": 2.9083194569,
				"z": -1.5336126657,
				"element": "C" 
			},
			{
				"x": 3.2211678466,
				"y": 3.0944854116,
				"z": -2.8283535064,
				"element": "O" 
			},
			{
				"x": 3.1718021971,
				"y": 3.710341963,
				"z": -0.6907150054,
				"element": "O" 
			},
			{
				"x": -3.9089046285,
				"y": -3.9941630474,
				"z": 1.4624665524,
				"element": "H" 
			},
			{
				"x": -3.9954589047,
				"y": -2.2700819021,
				"z": 1.0742645047,
				"element": "H" 
			},
			{
				"x": -3.1096121299,
				"y": -3.3718179145,
				"z": 0.0134536925,
				"element": "H" 
			},
			{
				"x": -2.3485778779,
				"y": -2.735228212,
				"z": 2.9325326213,
				"element": "H" 
			},
			{
				"x": -1.4407141595,
				"y": -3.8026080244,
				"z": 1.8770183813,
				"element": "H" 
			},
			{
				"x": -1.870996833,
				"y": -0.798557553,
				"z": 1.4000176494,
				"element": "H" 
			},
			{
				"x": -0.4242021761,
				"y": -1.5197664166,
				"z": 2.1415303284,
				"element": "H" 
			},
			{
				"x": -0.0204835262,
				"y": 0.5890395225,
				"z": 1.2496038031,
				"element": "H" 
			},
			{
				"x": 1.3866410838,
				"y": 2.520117274,
				"z": 0.6314762829,
				"element": "H" 
			},
			{
				"x": 2.5248765931,
				"y": 0.5356870727,
				"z": -3.0060267558,
				"element": "H" 
			},
			{
				"x": 1.1367778176,
				"y": -1.382809975,
				"z": -2.4097627409,
				"element": "H" 
			},
			{
				"x": 2.7491959129,
				"y": 2.4797983352,
				"z": -3.4064909188,
				"element": "H" 
			}
		],
		 "valence_orbital": [ 
			{
				"type": "occ",
				"energy": -0.31496,
				"method": "rhf"
			},
			{
				"type": "occ",
				"energy": -0.29772,
				"method": "rhf"
			},
			{
				"type": "occ",
				"energy": -0.27262,
				"method": "rhf"
			},
			{
				"type": "occ",
				"energy": -0.26823,
				"method": "rhf"
			},
			{
				"type": "occ",
				"energy": -0.22353,
				"method": "rhf"
			},
			{
				"type": "unocc",
				"energy": -0.04802,
				"method": "rhf"
			},
			{
				"type": "unocc",
				"energy": -0.02219,
				"method": "rhf"
			},
			{
				"type": "unocc",
				"energy": 0.02181,
				"method": "rhf"
			},
			{
				"type": "unocc",
				"energy": 0.04798,
				"method": "rhf"
			},
			{
				"type": "unocc",
				"energy": 0.05597,
				"method": "rhf"
			}
		],
		"cosmo_sigma_profile": { 
			"-0.025": 0.0,
			"-0.024": 0.0,
			"-0.023": 0.0,
			"-0.022": 0.0,
			"-0.021": 0.0,
			"-0.02": 0.0,
			"-0.019": 0.103802472051,
			"-0.018": 0.589573758402,
			"-0.017": 1.18264288491,
			"-0.016": 1.03897288058,
			"-0.015": 0.839473406307,
			"-0.014": 0.6863135458,
			"-0.013": 1.17899635877,
			"-0.012": 1.21968342865,
			"-0.011": 1.44481419886,
			"-0.01": 1.19095776389,
			"-0.009": 1.45565224376,
			"-0.008": 1.32568506016,
			"-0.007": 5.64238266379,
			"-0.006": 11.2855934852,
			"-0.005": 12.5023712514,
			"-0.004": 14.3092353726,
			"-0.003": 22.2193771768,
			"-0.002": 21.0434378178,
			"-0.001": 21.5829326223,
			"0.0": 18.2760663883,
			"0.001": 15.8749725737,
			"0.002": 13.8363243591,
			"0.003": 21.0594287002,
			"0.004": 8.62235376734,
			"0.005": 6.94772996544,
			"0.006": 5.08901682274,
			"0.007": 4.6132578123,
			"0.008": 4.35552938985,
			"0.009": 3.6081237486,
			"0.01": 4.12278259615,
			"0.011": 5.25696193194,
			"0.012": 5.63368039789,
			"0.013": 2.23682289309,
			"0.014": 0.2188622203,
			"0.015": 0.0,
			"0.016": 0.0,
			"0.017": 0.0,
			"0.018": 0.0,
			"0.019": 0.0,
			"0.02": 0.0,
			"0.021": 0.0,
			"0.022": 0.0,
			"0.023": 0.0,
			"0.024": 0.0,
			"0.025": 0.0
		}
	}
}
