{
	 "smiles": "OCC1=NC2=C(O1)C=CC=C2", 
	 "Tm": 333.15, 
	 "num_atms": 18, 
	 "gaussian": { 
		 "optdone": 1, 
		 "sigma_profile": "yes", 
		 "theory": "DFT", 
		 "functional": "B3LYP", 
		 "basiset": "6-31G**", 
		 "properties": { 
			 "R2extent": 2124.2788, 
			 "electric_dipole_moment_norm": 2.34824194026, 
			 "electric_quadrupole_moment_norm": 6.07768545418, 
			 "total_energy": -514.25338055, 
			 "HOMO_LUMO_gap": 0.20858, 
			 "cosmo_polarized_energy": -9.69, 
			 "cosmo_cavitation_energy": 22.43, 
			 "cosmo_dispersion_energy": -17.08, 
			 "cosmo_repulsion_energy": 1.38, 
			 "cosmo_total_nonelectrostatic_energy": 6.73, 
			 "SMD_solvation_energy": 2.18 
		},
		"coords": [
			{
				"x": 3.553243319,
				"y": -0.7486217036,
				"z": 2.2725814612,
				"element": "O" 
			},
			{
				"x": 2.2875406349,
				"y": -1.0123335154,
				"z": 2.8524771649,
				"element": "C" 
			},
			{
				"x": 1.1497315847,
				"y": -0.603328721,
				"z": 1.9682851002,
				"element": "C" 
			},
			{
				"x": 0.1176476079,
				"y": -1.2884411733,
				"z": 1.6025617886,
				"element": "N" 
			},
			{
				"x": -0.620812154,
				"y": -0.4044802987,
				"z": 0.8080814089,
				"element": "C" 
			},
			{
				"x": 0.0600519803,
				"y": 0.8187208229,
				"z": 0.7418984606,
				"element": "C" 
			},
			{
				"x": 1.2027940962,
				"y": 0.6933238975,
				"z": 1.4974344086,
				"element": "O" 
			},
			{
				"x": -0.3907430105,
				"y": 1.917896251,
				"z": 0.0267873266,
				"element": "C" 
			},
			{
				"x": -1.6026091874,
				"y": 1.7436432693,
				"z": -0.6470180476,
				"element": "C" 
			},
			{
				"x": -2.307358144,
				"y": 0.526705792,
				"z": -0.5965227692,
				"element": "C" 
			},
			{
				"x": -1.8307580138,
				"y": -0.5652555592,
				"z": 0.128731972,
				"element": "C" 
			},
			{
				"x": 3.6014376312,
				"y": 0.2002118913,
				"z": 2.0950768593,
				"element": "H" 
			},
			{
				"x": 2.2156277396,
				"y": -2.0892219509,
				"z": 3.0140151244,
				"element": "H" 
			},
			{
				"x": 2.1783935037,
				"y": -0.5155531573,
				"z": 3.8306388739,
				"element": "H" 
			},
			{
				"x": 0.1603971505,
				"y": 2.8510816003,
				"z": -0.0055378005,
				"element": "H" 
			},
			{
				"x": -2.0096053457,
				"y": 2.5687673169,
				"z": -1.2234404251,
				"element": "H" 
			},
			{
				"x": -3.2447808783,
				"y": 0.4390412266,
				"z": -1.1372773358,
				"element": "H" 
			},
			{
				"x": -2.3694985143,
				"y": -1.5058559886,
				"z": 0.1690264291,
				"element": "H" 
			}
		],
		 "valence_orbital": [ 
			{
				"type": "occ",
				"energy": -0.33028,
				"method": "rhf"
			},
			{
				"type": "occ",
				"energy": -0.29892,
				"method": "rhf"
			},
			{
				"type": "occ",
				"energy": -0.2828,
				"method": "rhf"
			},
			{
				"type": "occ",
				"energy": -0.24981,
				"method": "rhf"
			},
			{
				"type": "occ",
				"energy": -0.23989,
				"method": "rhf"
			},
			{
				"type": "unocc",
				"energy": -0.03131,
				"method": "rhf"
			},
			{
				"type": "unocc",
				"energy": 0.00269,
				"method": "rhf"
			},
			{
				"type": "unocc",
				"energy": 0.0329,
				"method": "rhf"
			},
			{
				"type": "unocc",
				"energy": 0.07742,
				"method": "rhf"
			},
			{
				"type": "unocc",
				"energy": 0.09341,
				"method": "rhf"
			}
		],
		"cosmo_sigma_profile": { 
			"-0.025": 0.0,
			"-0.024": 0.0,
			"-0.023": 0.0,
			"-0.022": 0.0,
			"-0.021": 0.0,
			"-0.02": 0.0,
			"-0.019": 0.0,
			"-0.018": 0.0,
			"-0.017": 0.0,
			"-0.016": 0.209034030137,
			"-0.015": 0.649658567072,
			"-0.014": 0.72459160788,
			"-0.013": 0.709845189646,
			"-0.012": 0.871902337974,
			"-0.011": 0.721874730245,
			"-0.01": 0.905326264979,
			"-0.009": 1.44410103143,
			"-0.008": 1.48849823356,
			"-0.007": 7.35188140827,
			"-0.006": 13.6595599817,
			"-0.005": 13.550291089,
			"-0.004": 12.4201150261,
			"-0.003": 11.0724408129,
			"-0.002": 9.79257316961,
			"-0.001": 10.804607312,
			"0.0": 10.6382655039,
			"0.001": 12.7600032341,
			"0.002": 12.3602576915,
			"0.003": 14.3586230341,
			"0.004": 12.9056687199,
			"0.005": 7.96314716454,
			"0.006": 2.80415169874,
			"0.007": 2.61343699611,
			"0.008": 2.58647368219,
			"0.009": 1.79743986951,
			"0.01": 2.07824554793,
			"0.011": 2.24835583533,
			"0.012": 3.1865719886,
			"0.013": 2.59970397207,
			"0.014": 1.53946272212,
			"0.015": 0.724619520118,
			"0.016": 0.145781528658,
			"0.017": 0.0,
			"0.018": 0.0,
			"0.019": 0.0,
			"0.02": 0.0,
			"0.021": 0.0,
			"0.022": 0.0,
			"0.023": 0.0,
			"0.024": 0.0,
			"0.025": 0.0
		}
	}
}
