{
	 "smiles": "OC(=O)C(OC1=C(Br)C=C(Br)C=C1)C1=CC=CC=C1", 
	 "Tm": 403.15, 
	 "num_atms": 29, 
	 "gaussian": { 
		 "optdone": 1, 
		 "sigma_profile": "yes", 
		 "theory": "DFT", 
		 "functional": "B3LYP", 
		 "basiset": "6-31G**", 
		 "properties": { 
			 "R2extent": 11540.7965, 
			 "electric_dipole_moment_norm": 4.06182325933, 
			 "electric_quadrupole_moment_norm": 9.4939558952, 
			 "total_energy": -5907.99227857, 
			 "HOMO_LUMO_gap": 0.19424, 
			 "cosmo_polarized_energy": -14.94, 
			 "cosmo_cavitation_energy": 39.28, 
			 "cosmo_dispersion_energy": -27.66, 
			 "cosmo_repulsion_energy": 2.16, 
			 "cosmo_total_nonelectrostatic_energy": 13.78, 
			 "SMD_solvation_energy": 5.47 
		},
		"coords": [
			{
				"x": -2.4590766619,
				"y": -1.4538870809,
				"z": -2.4778140189,
				"element": "O" 
			},
			{
				"x": -1.927914682,
				"y": -0.2836823622,
				"z": -2.055103631,
				"element": "C" 
			},
			{
				"x": -2.3316575881,
				"y": 0.8022683217,
				"z": -2.3894842068,
				"element": "O" 
			},
			{
				"x": -0.7245964464,
				"y": -0.5434700005,
				"z": -1.1339719226,
				"element": "C" 
			},
			{
				"x": -0.5345272521,
				"y": 0.5518600496,
				"z": -0.2525123752,
				"element": "O" 
			},
			{
				"x": -1.439687279,
				"y": 0.782933782,
				"z": 0.7375278837,
				"element": "C" 
			},
			{
				"x": -1.2065908792,
				"y": 1.899940939,
				"z": 1.5605841145,
				"element": "C" 
			},
			{
				"x": 0.3023099946,
				"y": 3.0142576566,
				"z": 1.2412826018,
				"element": "Br" 
			},
			{
				"x": -2.0618306696,
				"y": 2.2080534809,
				"z": 2.6124481469,
				"element": "C" 
			},
			{
				"x": -3.1687554916,
				"y": 1.3947587164,
				"z": 2.8540831774,
				"element": "C" 
			},
			{
				"x": -4.3438181917,
				"y": 1.8177138195,
				"z": 4.2983287169,
				"element": "Br" 
			},
			{
				"x": -3.4221240318,
				"y": 0.2862291144,
				"z": 2.0549490696,
				"element": "C" 
			},
			{
				"x": -2.5583458779,
				"y": -0.0164509791,
				"z": 1.0009922867,
				"element": "C" 
			},
			{
				"x": 0.5251883953,
				"y": -0.6871577731,
				"z": -1.9834185186,
				"element": "C" 
			},
			{
				"x": 1.0431295784,
				"y": -1.9551268027,
				"z": -2.2630424525,
				"element": "C" 
			},
			{
				"x": 2.1721416712,
				"y": -2.0882548368,
				"z": -3.0726746799,
				"element": "C" 
			},
			{
				"x": 2.7882629636,
				"y": -0.9538481803,
				"z": -3.6031338688,
				"element": "C" 
			},
			{
				"x": 2.2709692309,
				"y": 0.3138372498,
				"z": -3.3246880996,
				"element": "C" 
			},
			{
				"x": 1.1387648723,
				"y": 0.4502616449,
				"z": -2.5227095279,
				"element": "C" 
			},
			{
				"x": -3.1641646525,
				"y": -1.2275765667,
				"z": -3.1083623465,
				"element": "H" 
			},
			{
				"x": -0.8991677356,
				"y": -1.4718005317,
				"z": -0.5776784922,
				"element": "H" 
			},
			{
				"x": -1.8633957956,
				"y": 3.0725775037,
				"z": 3.2328890977,
				"element": "H" 
			},
			{
				"x": -4.2851487603,
				"y": -0.3410231912,
				"z": 2.2447548571,
				"element": "H" 
			},
			{
				"x": -2.7761320682,
				"y": -0.8818825866,
				"z": 0.3862759519,
				"element": "H" 
			},
			{
				"x": 0.5667030521,
				"y": -2.838377708,
				"z": -1.8458791198,
				"element": "H" 
			},
			{
				"x": 2.5723685624,
				"y": -3.0759049895,
				"z": -3.282002788,
				"element": "H" 
			},
			{
				"x": 3.6700112263,
				"y": -1.0563307526,
				"z": -4.2290368192,
				"element": "H" 
			},
			{
				"x": 2.7491517404,
				"y": 1.1986915429,
				"z": -3.7344078775,
				"element": "H" 
			},
			{
				"x": 0.732932776,
				"y": 1.4309905204,
				"z": -2.2991951593,
				"element": "H" 
			}
		],
		 "valence_orbital": [ 
			{
				"type": "occ",
				"energy": -0.28449,
				"method": "rhf"
			},
			{
				"type": "occ",
				"energy": -0.25946,
				"method": "rhf"
			},
			{
				"type": "occ",
				"energy": -0.25622,
				"method": "rhf"
			},
			{
				"type": "occ",
				"energy": -0.25573,
				"method": "rhf"
			},
			{
				"type": "occ",
				"energy": -0.22819,
				"method": "rhf"
			},
			{
				"type": "unocc",
				"energy": -0.03395,
				"method": "rhf"
			},
			{
				"type": "unocc",
				"energy": -0.0233,
				"method": "rhf"
			},
			{
				"type": "unocc",
				"energy": -0.01289,
				"method": "rhf"
			},
			{
				"type": "unocc",
				"energy": -0.01183,
				"method": "rhf"
			},
			{
				"type": "unocc",
				"energy": -0.01106,
				"method": "rhf"
			}
		],
		"cosmo_sigma_profile": { 
			"-0.025": 0.0,
			"-0.024": 0.0,
			"-0.023": 0.0,
			"-0.022": 0.0,
			"-0.021": 0.0,
			"-0.02": 0.0,
			"-0.019": 0.582651035881,
			"-0.018": 1.0222033321,
			"-0.017": 0.425798600528,
			"-0.016": 1.30400991077,
			"-0.015": 1.00073543728,
			"-0.014": 0.641597203871,
			"-0.013": 0.727291328401,
			"-0.012": 0.643671001213,
			"-0.011": 0.67000931397,
			"-0.01": 1.01175392025,
			"-0.009": 2.84535148948,
			"-0.008": 7.33549287723,
			"-0.007": 9.10231100385,
			"-0.006": 14.7614427362,
			"-0.005": 17.0557742872,
			"-0.004": 20.4654199376,
			"-0.003": 16.8674971362,
			"-0.002": 15.8070759331,
			"-0.001": 16.7343928422,
			"0.0": 20.7762443161,
			"0.001": 32.2708115414,
			"0.002": 33.1142336668,
			"0.003": 28.4814940817,
			"0.004": 35.1816491854,
			"0.005": 19.2723663012,
			"0.006": 4.79194971175,
			"0.007": 4.735051194,
			"0.008": 3.75406170043,
			"0.009": 2.32473113917,
			"0.01": 2.74225545217,
			"0.011": 4.54575116066,
			"0.012": 0.4833890519,
			"0.013": 0.0,
			"0.014": 0.0,
			"0.015": 0.0,
			"0.016": 0.0,
			"0.017": 0.0,
			"0.018": 0.0,
			"0.019": 0.0,
			"0.02": 0.0,
			"0.021": 0.0,
			"0.022": 0.0,
			"0.023": 0.0,
			"0.024": 0.0,
			"0.025": 0.0
		}
	}
}
