{
	 "smiles": "OC(=O)CCN1C=NC2=C(C=CS2)C1=O", 
	 "Tm": 439.15, 
	 "num_atms": 23, 
	 "gaussian": { 
		 "optdone": 1, 
		 "sigma_profile": "yes", 
		 "theory": "DFT", 
		 "functional": "B3LYP", 
		 "basiset": "6-31G**", 
		 "properties": { 
			 "R2extent": 5261.8247, 
			 "electric_dipole_moment_norm": 3.1936600367, 
			 "electric_quadrupole_moment_norm": 20.9968048986, 
			 "total_energy": -1081.16091955, 
			 "HOMO_LUMO_gap": 0.17875, 
			 "cosmo_polarized_energy": -20.23, 
			 "cosmo_cavitation_energy": 29.22, 
			 "cosmo_dispersion_energy": -21.89, 
			 "cosmo_repulsion_energy": 1.65, 
			 "cosmo_total_nonelectrostatic_energy": 8.97, 
			 "SMD_solvation_energy": 4.84 
		},
		"coords": [
			{
				"x": 0.3166410432,
				"y": -2.7794205229,
				"z": 1.5502703681,
				"element": "O" 
			},
			{
				"x": -0.7878141231,
				"y": -2.0234348148,
				"z": 1.3390436243,
				"element": "C" 
			},
			{
				"x": -1.5720870762,
				"y": -1.8308551644,
				"z": 2.2370428536,
				"element": "O" 
			},
			{
				"x": -0.9648151817,
				"y": -1.4940262423,
				"z": -0.0782886837,
				"element": "C" 
			},
			{
				"x": -2.0678096362,
				"y": -0.4387187585,
				"z": -0.1775131346,
				"element": "C" 
			},
			{
				"x": -1.6828957454,
				"y": 0.8434668034,
				"z": 0.428293242,
				"element": "N" 
			},
			{
				"x": -2.1756563266,
				"y": 1.2153101238,
				"z": 1.6555424863,
				"element": "C" 
			},
			{
				"x": -1.9232315181,
				"y": 2.3421667587,
				"z": 2.2547636657,
				"element": "N" 
			},
			{
				"x": -1.0959501488,
				"y": 3.1756898963,
				"z": 1.5684390921,
				"element": "C" 
			},
			{
				"x": -0.5172565702,
				"y": 2.9212265208,
				"z": 0.326940881,
				"element": "C" 
			},
			{
				"x": 0.3107271804,
				"y": 3.9893939204,
				"z": -0.1386415382,
				"element": "C" 
			},
			{
				"x": 0.3485842817,
				"y": 5.0277537009,
				"z": 0.7432368775,
				"element": "C" 
			},
			{
				"x": -0.6185106,
				"y": 4.7444028027,
				"z": 2.1726919837,
				"element": "S" 
			},
			{
				"x": -0.7980126992,
				"y": 1.6635934964,
				"z": -0.3283937508,
				"element": "C" 
			},
			{
				"x": -0.3621340784,
				"y": 1.2736696017,
				"z": -1.4091098424,
				"element": "O" 
			},
			{
				"x": 0.8561538443,
				"y": -2.8216753618,
				"z": 0.7475657582,
				"element": "H" 
			},
			{
				"x": -1.2241614055,
				"y": -2.3446480938,
				"z": -0.7233199591,
				"element": "H" 
			},
			{
				"x": -0.0291469479,
				"y": -1.0797709204,
				"z": -0.4686575343,
				"element": "H" 
			},
			{
				"x": -2.9696288206,
				"y": -0.7922571339,
				"z": 0.3241146416,
				"element": "H" 
			},
			{
				"x": -2.286475283,
				"y": -0.2468162544,
				"z": -1.2291705765,
				"element": "H" 
			},
			{
				"x": -2.8069972752,
				"y": 0.4794345157,
				"z": 2.1428980965,
				"element": "H" 
			},
			{
				"x": 0.8392519382,
				"y": 3.9655273184,
				"z": -1.0833382981,
				"element": "H" 
			},
			{
				"x": 0.8900251484,
				"y": 5.9589878081,
				"z": 0.648889747,
				"element": "H" 
			}
		],
		 "valence_orbital": [ 
			{
				"type": "occ",
				"energy": -0.28843,
				"method": "rhf"
			},
			{
				"type": "occ",
				"energy": -0.28587,
				"method": "rhf"
			},
			{
				"type": "occ",
				"energy": -0.26858,
				"method": "rhf"
			},
			{
				"type": "occ",
				"energy": -0.26307,
				"method": "rhf"
			},
			{
				"type": "occ",
				"energy": -0.22514,
				"method": "rhf"
			},
			{
				"type": "unocc",
				"energy": -0.04639,
				"method": "rhf"
			},
			{
				"type": "unocc",
				"energy": -0.01405,
				"method": "rhf"
			},
			{
				"type": "unocc",
				"energy": -0.00516,
				"method": "rhf"
			},
			{
				"type": "unocc",
				"energy": 0.01961,
				"method": "rhf"
			},
			{
				"type": "unocc",
				"energy": 0.02407,
				"method": "rhf"
			}
		],
		"cosmo_sigma_profile": { 
			"-0.025": 0.0,
			"-0.024": 0.0,
			"-0.023": 0.0,
			"-0.022": 0.0,
			"-0.021": 0.0,
			"-0.02": 0.0336948503996,
			"-0.019": 0.905166446318,
			"-0.018": 1.33729088608,
			"-0.017": 0.945342739492,
			"-0.016": 1.43990050255,
			"-0.015": 0.710327584987,
			"-0.014": 1.11428497879,
			"-0.013": 1.88008512736,
			"-0.012": 0.738815521687,
			"-0.011": 1.094268605,
			"-0.01": 1.36934343471,
			"-0.009": 5.27248930306,
			"-0.008": 9.49354253833,
			"-0.007": 11.1436115999,
			"-0.006": 13.6616406589,
			"-0.005": 11.0031578511,
			"-0.004": 14.8046682125,
			"-0.003": 11.6340109502,
			"-0.002": 8.61275023633,
			"-0.001": 9.4054289128,
			"0.0": 14.1751021082,
			"0.001": 20.9372725612,
			"0.002": 17.9627453078,
			"0.003": 14.9053657064,
			"0.004": 9.4500695939,
			"0.005": 5.64703575384,
			"0.006": 5.12780452293,
			"0.007": 4.84436431998,
			"0.008": 4.13011858137,
			"0.009": 5.82819316854,
			"0.01": 7.73482452632,
			"0.011": 6.04012996978,
			"0.012": 5.85488518765,
			"0.013": 5.67066701484,
			"0.014": 1.16677132999,
			"0.015": 0.0624342516072,
			"0.016": 0.0,
			"0.017": 0.0,
			"0.018": 0.0,
			"0.019": 0.0,
			"0.02": 0.0,
			"0.021": 0.0,
			"0.022": 0.0,
			"0.023": 0.0,
			"0.024": 0.0,
			"0.025": 0.0
		}
	}
}
