{
	 "smiles": "C1CCCNCCC1", 
	 "Tm": 302.15, 
	 "num_atms": 23, 
	 "gaussian": { 
		 "optdone": 1, 
		 "sigma_profile": "yes", 
		 "theory": "DFT", 
		 "functional": "B3LYP", 
		 "basiset": "6-31G**", 
		 "properties": { 
			 "R2extent": 1327.5515, 
			 "electric_dipole_moment_norm": 0.909570508537, 
			 "electric_quadrupole_moment_norm": 2.50823603156, 
			 "total_energy": -330.532831879, 
			 "HOMO_LUMO_gap": 0.2796, 
			 "cosmo_polarized_energy": -3.25, 
			 "cosmo_cavitation_energy": 22.41, 
			 "cosmo_dispersion_energy": -17.13, 
			 "cosmo_repulsion_energy": 1.42, 
			 "cosmo_total_nonelectrostatic_energy": 6.71, 
			 "SMD_solvation_energy": 1.04 
		},
		"coords": [
			{
				"x": 2.4193841996,
				"y": -0.6618562321,
				"z": 0.4422925342,
				"element": "C" 
			},
			{
				"x": 2.5151999151,
				"y": -0.8429155423,
				"z": -1.0868487602,
				"element": "C" 
			},
			{
				"x": 2.0216749769,
				"y": 0.2988361448,
				"z": -1.9896233364,
				"element": "C" 
			},
			{
				"x": 0.5067599497,
				"y": 0.4926357981,
				"z": -2.1430962389,
				"element": "C" 
			},
			{
				"x": -0.1581424682,
				"y": 1.1392067307,
				"z": -1.0089251925,
				"element": "N" 
			},
			{
				"x": -0.8315489949,
				"y": 0.2760483084,
				"z": -0.0352945451,
				"element": "C" 
			},
			{
				"x": -0.0247606971,
				"y": -0.032546991,
				"z": 1.2336118595,
				"element": "C" 
			},
			{
				"x": 1.1037696187,
				"y": -1.0713531757,
				"z": 1.1364761305,
				"element": "C" 
			},
			{
				"x": 3.2120319017,
				"y": -1.2805380608,
				"z": 0.8820451117,
				"element": "H" 
			},
			{
				"x": 2.6703164491,
				"y": 0.3739788193,
				"z": 0.7080008073,
				"element": "H" 
			},
			{
				"x": 3.5749485692,
				"y": -0.9962075657,
				"z": -1.3285659682,
				"element": "H" 
			},
			{
				"x": 2.0123839968,
				"y": -1.7786170328,
				"z": -1.3734712154,
				"element": "H" 
			},
			{
				"x": 2.4564141766,
				"y": 1.2495794603,
				"z": -1.6549524728,
				"element": "H" 
			},
			{
				"x": 2.4199553237,
				"y": 0.1120170878,
				"z": -2.9968743206,
				"element": "H" 
			},
			{
				"x": 0.3526291022,
				"y": 1.134679295,
				"z": -3.0191334672,
				"element": "H" 
			},
			{
				"x": 0.0381950875,
				"y": -0.479193776,
				"z": -2.3878441324,
				"element": "H" 
			},
			{
				"x": -0.8324898362,
				"y": 1.8024016482,
				"z": -1.3689768016,
				"element": "H" 
			},
			{
				"x": -1.7437434286,
				"y": 0.7955781556,
				"z": 0.2831149481,
				"element": "H" 
			},
			{
				"x": -1.1633248339,
				"y": -0.6734917991,
				"z": -0.49599826,
				"element": "H" 
			},
			{
				"x": 0.3747369272,
				"y": 0.9124761195,
				"z": 1.6238103586,
				"element": "H" 
			},
			{
				"x": -0.7411398822,
				"y": -0.4000985661,
				"z": 1.9818109794,
				"element": "H" 
			},
			{
				"x": 1.356254987,
				"y": -1.3552900941,
				"z": 2.1663395926,
				"element": "H" 
			},
			{
				"x": 0.7165949602,
				"y": -1.988328732,
				"z": 0.6677023895,
				"element": "H" 
			}
		],
		 "valence_orbital": [ 
			{
				"type": "occ",
				"energy": -0.31781,
				"method": "rhf"
			},
			{
				"type": "occ",
				"energy": -0.31299,
				"method": "rhf"
			},
			{
				"type": "occ",
				"energy": -0.29569,
				"method": "rhf"
			},
			{
				"type": "occ",
				"energy": -0.2942,
				"method": "rhf"
			},
			{
				"type": "occ",
				"energy": -0.21066,
				"method": "rhf"
			},
			{
				"type": "unocc",
				"energy": 0.06894,
				"method": "rhf"
			},
			{
				"type": "unocc",
				"energy": 0.1094,
				"method": "rhf"
			},
			{
				"type": "unocc",
				"energy": 0.11137,
				"method": "rhf"
			},
			{
				"type": "unocc",
				"energy": 0.11835,
				"method": "rhf"
			},
			{
				"type": "unocc",
				"energy": 0.1472,
				"method": "rhf"
			}
		],
		"cosmo_sigma_profile": { 
			"-0.025": 0.0,
			"-0.024": 0.0,
			"-0.023": 0.0,
			"-0.022": 0.0,
			"-0.021": 0.0,
			"-0.02": 0.0,
			"-0.019": 0.0,
			"-0.018": 0.0,
			"-0.017": 0.0,
			"-0.016": 0.0,
			"-0.015": 0.0,
			"-0.014": 0.0,
			"-0.013": 0.0,
			"-0.012": 0.0,
			"-0.011": 0.0,
			"-0.01": 0.550672419549,
			"-0.009": 1.32331462667,
			"-0.008": 1.16323922011,
			"-0.007": 1.37718805593,
			"-0.006": 1.54777757832,
			"-0.005": 1.73647168439,
			"-0.004": 2.81238633294,
			"-0.003": 4.94976956034,
			"-0.002": 17.1811264229,
			"-0.001": 40.8295681059,
			"0.0": 42.3378834252,
			"0.001": 31.0481278066,
			"0.002": 12.2282099482,
			"0.003": 1.05100624397,
			"0.004": 1.42030423719,
			"0.005": 1.15762107582,
			"0.006": 0.871353982853,
			"0.007": 0.86450959204,
			"0.008": 0.896763209196,
			"0.009": 0.681206252586,
			"0.01": 0.873499526594,
			"0.011": 0.626006655146,
			"0.012": 1.07165148248,
			"0.013": 0.357160541968,
			"0.014": 0.392676653014,
			"0.015": 0.568792191824,
			"0.016": 0.354284630273,
			"0.017": 0.417870488066,
			"0.018": 0.0647721348234,
			"0.019": 0.0,
			"0.02": 0.0,
			"0.021": 0.0,
			"0.022": 0.0,
			"0.023": 0.0,
			"0.024": 0.0,
			"0.025": 0.0
		}
	}
}
