{
	 "smiles": "[N-]=[N+]=NC1=C2C=CC=NC2=CC=C1", 
	 "Tm": 335.15, 
	 "num_atms": 19, 
	 "gaussian": { 
		 "optdone": 1, 
		 "sigma_profile": "yes", 
		 "theory": "DFT", 
		 "functional": "B3LYP", 
		 "basiset": "6-31G**", 
		 "properties": { 
			 "R2extent": 2621.7105, 
			 "electric_dipole_moment_norm": 0.467162348654, 
			 "electric_quadrupole_moment_norm": 12.4091770473, 
			 "total_energy": -565.516070337, 
			 "HOMO_LUMO_gap": 0.15921, 
			 "cosmo_polarized_energy": -7.25, 
			 "cosmo_cavitation_energy": 24.67, 
			 "cosmo_dispersion_energy": -18.11, 
			 "cosmo_repulsion_energy": 1.41, 
			 "cosmo_total_nonelectrostatic_energy": 7.98, 
			 "SMD_solvation_energy": 0.97 
		},
		"coords": [
			{
				"x": 0.8112536681,
				"y": 2.7251384012,
				"z": 1.6859288649,
				"element": "N" 
			},
			{
				"x": 0.8053197054,
				"y": 1.8513277328,
				"z": 0.952180555,
				"element": "N" 
			},
			{
				"x": 0.9184957928,
				"y": 0.9699566881,
				"z": 0.0917696048,
				"element": "N" 
			},
			{
				"x": -0.0012964652,
				"y": -0.1109470478,
				"z": 0.1043481776,
				"element": "C" 
			},
			{
				"x": 0.1879726451,
				"y": -1.0911576842,
				"z": -0.9174384301,
				"element": "C" 
			},
			{
				"x": 1.2147849919,
				"y": -1.0157824216,
				"z": -1.8907853561,
				"element": "C" 
			},
			{
				"x": 1.3140285077,
				"y": -2.0108662324,
				"z": -2.8345148076,
				"element": "C" 
			},
			{
				"x": 0.3836892415,
				"y": -3.0793232819,
				"z": -2.8002274248,
				"element": "C" 
			},
			{
				"x": -0.5856486369,
				"y": -3.1896769945,
				"z": -1.9145620382,
				"element": "N" 
			},
			{
				"x": -0.7014878446,
				"y": -2.2114972115,
				"z": -0.9686029218,
				"element": "C" 
			},
			{
				"x": -1.7436792946,
				"y": -2.3230632362,
				"z": -0.0108125438,
				"element": "C" 
			},
			{
				"x": -1.8951723859,
				"y": -1.3585037225,
				"z": 0.9594100668,
				"element": "C" 
			},
			{
				"x": -1.0256196062,
				"y": -0.2465647841,
				"z": 1.0236556952,
				"element": "C" 
			},
			{
				"x": 1.9028285893,
				"y": -0.1773043512,
				"z": -1.8751914787,
				"element": "H" 
			},
			{
				"x": 2.0862786029,
				"y": -1.9896624047,
				"z": -3.5967782037,
				"element": "H" 
			},
			{
				"x": 0.4516532703,
				"y": -3.8741811578,
				"z": -3.5425372663,
				"element": "H" 
			},
			{
				"x": -2.4006814368,
				"y": -3.183236272,
				"z": -0.0762528131,
				"element": "H" 
			},
			{
				"x": -2.6917018686,
				"y": -1.4422157554,
				"z": 1.6926285307,
				"element": "H" 
			},
			{
				"x": -1.1662174761,
				"y": 0.5008597356,
				"z": 1.7989817892,
				"element": "H" 
			}
		],
		 "valence_orbital": [ 
			{
				"type": "occ",
				"energy": -0.32228,
				"method": "rhf"
			},
			{
				"type": "occ",
				"energy": -0.28824,
				"method": "rhf"
			},
			{
				"type": "occ",
				"energy": -0.25981,
				"method": "rhf"
			},
			{
				"type": "occ",
				"energy": -0.259,
				"method": "rhf"
			},
			{
				"type": "occ",
				"energy": -0.22258,
				"method": "rhf"
			},
			{
				"type": "unocc",
				"energy": -0.06337,
				"method": "rhf"
			},
			{
				"type": "unocc",
				"energy": -0.04458,
				"method": "rhf"
			},
			{
				"type": "unocc",
				"energy": -0.02539,
				"method": "rhf"
			},
			{
				"type": "unocc",
				"energy": -0.01491,
				"method": "rhf"
			},
			{
				"type": "unocc",
				"energy": 0.04272,
				"method": "rhf"
			}
		],
		"cosmo_sigma_profile": { 
			"-0.025": 0.0,
			"-0.024": 0.0,
			"-0.023": 0.0,
			"-0.022": 0.0,
			"-0.021": 0.0,
			"-0.02": 0.0,
			"-0.019": 0.0,
			"-0.018": 0.0,
			"-0.017": 0.0,
			"-0.016": 0.0,
			"-0.015": 0.0,
			"-0.014": 0.0,
			"-0.013": 0.0,
			"-0.012": 0.0,
			"-0.011": 0.0,
			"-0.01": 0.0,
			"-0.009": 0.0,
			"-0.008": 0.936647218114,
			"-0.007": 8.68267654938,
			"-0.006": 14.4356666159,
			"-0.005": 15.3894728979,
			"-0.004": 14.4140618894,
			"-0.003": 11.05226193,
			"-0.002": 10.3957744135,
			"-0.001": 11.8118459608,
			"0.0": 12.6883756621,
			"0.001": 26.3207198813,
			"0.002": 22.1399871375,
			"0.003": 17.1321055957,
			"0.004": 10.6282413851,
			"0.005": 7.58363924283,
			"0.006": 5.72960329581,
			"0.007": 2.93078051049,
			"0.008": 1.38356718257,
			"0.009": 1.07979357531,
			"0.01": 0.852984362395,
			"0.011": 0.974797212705,
			"0.012": 1.05132905192,
			"0.013": 0.860772139071,
			"0.014": 0.824571943106,
			"0.015": 0.579979648544,
			"0.016": 0.681976989912,
			"0.017": 0.0268821627035,
			"0.018": 0.0,
			"0.019": 0.0,
			"0.02": 0.0,
			"0.021": 0.0,
			"0.022": 0.0,
			"0.023": 0.0,
			"0.024": 0.0,
			"0.025": 0.0
		}
	}
}
