{
	 "smiles": "OC(=O)CC1=CSC(=N1)C1=CC=C(Br)S1", 
	 "Tm": 416.15, 
	 "num_atms": 21, 
	 "gaussian": { 
		 "optdone": 1, 
		 "sigma_profile": "yes", 
		 "theory": "DFT", 
		 "functional": "B3LYP", 
		 "basiset": "6-31G**", 
		 "properties": { 
			 "R2extent": 7976.6736, 
			 "electric_dipole_moment_norm": 3.53806806464, 
			 "electric_quadrupole_moment_norm": 12.2047995137, 
			 "total_energy": -3919.54224748, 
			 "HOMO_LUMO_gap": 0.14887, 
			 "cosmo_polarized_energy": -13.87, 
			 "cosmo_cavitation_energy": 32.66, 
			 "cosmo_dispersion_energy": -24.7, 
			 "cosmo_repulsion_energy": 1.89, 
			 "cosmo_total_nonelectrostatic_energy": 9.84, 
			 "SMD_solvation_energy": 3.87 
		},
		"coords": [
			{
				"x": -3.2596338631,
				"y": -1.727012534,
				"z": 1.8224861319,
				"element": "O" 
			},
			{
				"x": -2.4302160518,
				"y": -2.1473338492,
				"z": 2.8054989062,
				"element": "C" 
			},
			{
				"x": -2.3685764214,
				"y": -3.2993332597,
				"z": 3.1675480968,
				"element": "O" 
			},
			{
				"x": -1.6404552158,
				"y": -0.9988517763,
				"z": 3.4181951401,
				"element": "C" 
			},
			{
				"x": -1.0456829465,
				"y": -0.0503857164,
				"z": 2.4145386815,
				"element": "C" 
			},
			{
				"x": -1.3503813937,
				"y": 1.276550819,
				"z": 2.2853022162,
				"element": "C" 
			},
			{
				"x": -0.4205684029,
				"y": 1.9907683547,
				"z": 1.0078616868,
				"element": "S" 
			},
			{
				"x": 0.3303470698,
				"y": 0.4152830393,
				"z": 0.7317874459,
				"element": "C" 
			},
			{
				"x": -0.0978409147,
				"y": -0.5226524191,
				"z": 1.5371308635,
				"element": "N" 
			},
			{
				"x": 1.3288661621,
				"y": 0.1988179303,
				"z": -0.2927433161,
				"element": "C" 
			},
			{
				"x": 1.8666770132,
				"y": 1.0837010237,
				"z": -1.2018306778,
				"element": "C" 
			},
			{
				"x": 2.8342873119,
				"y": 0.4960633944,
				"z": -2.0611925433,
				"element": "C" 
			},
			{
				"x": 3.0150737641,
				"y": -0.8338763105,
				"z": -1.7874873265,
				"element": "C" 
			},
			{
				"x": 4.1918634428,
				"y": -2.0103038582,
				"z": -2.6693065471,
				"element": "Br" 
			},
			{
				"x": 2.017004308,
				"y": -1.4021310642,
				"z": -0.4830643796,
				"element": "S" 
			},
			{
				"x": -3.7212765154,
				"y": -2.520866448,
				"z": 1.503735828,
				"element": "H" 
			},
			{
				"x": -2.3188523587,
				"y": -0.4541881625,
				"z": 4.0844940301,
				"element": "H" 
			},
			{
				"x": -0.8592112389,
				"y": -1.4527798794,
				"z": 4.0326302698,
				"element": "H" 
			},
			{
				"x": -2.0592547998,
				"y": 1.8626442614,
				"z": 2.8523692033,
				"element": "H" 
			},
			{
				"x": 1.5789652048,
				"y": 2.1279721297,
				"z": -1.2562861301,
				"element": "H" 
			},
			{
				"x": 3.3683658461,
				"y": 1.025614325,
				"z": -2.8396675795,
				"element": "H" 
			}
		],
		 "valence_orbital": [ 
			{
				"type": "occ",
				"energy": -0.28766,
				"method": "rhf"
			},
			{
				"type": "occ",
				"energy": -0.28284,
				"method": "rhf"
			},
			{
				"type": "occ",
				"energy": -0.26862,
				"method": "rhf"
			},
			{
				"type": "occ",
				"energy": -0.26585,
				"method": "rhf"
			},
			{
				"type": "occ",
				"energy": -0.21787,
				"method": "rhf"
			},
			{
				"type": "unocc",
				"energy": -0.069,
				"method": "rhf"
			},
			{
				"type": "unocc",
				"energy": -0.00765,
				"method": "rhf"
			},
			{
				"type": "unocc",
				"energy": -0.00385,
				"method": "rhf"
			},
			{
				"type": "unocc",
				"energy": 0.00545,
				"method": "rhf"
			},
			{
				"type": "unocc",
				"energy": 0.01064,
				"method": "rhf"
			}
		],
		"cosmo_sigma_profile": { 
			"-0.025": 0.0,
			"-0.024": 0.0,
			"-0.023": 0.0,
			"-0.022": 0.0,
			"-0.021": 0.0,
			"-0.02": 0.0,
			"-0.019": 0.074419747311,
			"-0.018": 0.817442392791,
			"-0.017": 1.04765224575,
			"-0.016": 0.822305502134,
			"-0.015": 1.08776810909,
			"-0.014": 0.342561793212,
			"-0.013": 0.432683785116,
			"-0.012": 0.645193120726,
			"-0.011": 0.910693492181,
			"-0.01": 1.38942101859,
			"-0.009": 4.1137108885,
			"-0.008": 9.65306850637,
			"-0.007": 9.78585756166,
			"-0.006": 11.518989227,
			"-0.005": 9.99836181384,
			"-0.004": 11.370668181,
			"-0.003": 11.367932634,
			"-0.002": 13.3396237217,
			"-0.001": 15.7053995964,
			"0.0": 23.2908437718,
			"0.001": 33.1040882156,
			"0.002": 35.9531028274,
			"0.003": 28.2719349839,
			"0.004": 8.87357760569,
			"0.005": 5.32097429055,
			"0.006": 5.39501779385,
			"0.007": 4.84561181447,
			"0.008": 4.27606244333,
			"0.009": 4.4226315198,
			"0.01": 3.04719930763,
			"0.011": 4.8893331896,
			"0.012": 3.67640188099,
			"0.013": 0.42033584605,
			"0.014": 0.0,
			"0.015": 0.0,
			"0.016": 0.0,
			"0.017": 0.0,
			"0.018": 0.0,
			"0.019": 0.0,
			"0.02": 0.0,
			"0.021": 0.0,
			"0.022": 0.0,
			"0.023": 0.0,
			"0.024": 0.0,
			"0.025": 0.0
		}
	}
}
