{
	 "smiles": "NC1=NC=CN2C=CN=C12", 
	 "Tm": 486.15, 
	 "num_atms": 16, 
	 "gaussian": { 
		 "optdone": 1, 
		 "sigma_profile": "yes", 
		 "theory": "DFT", 
		 "functional": "B3LYP", 
		 "basiset": "6-31G**", 
		 "properties": { 
			 "R2extent": 1290.6229, 
			 "electric_dipole_moment_norm": 1.41682345407, 
			 "electric_quadrupole_moment_norm": 13.7020178076, 
			 "total_energy": -451.256368648, 
			 "HOMO_LUMO_gap": 0.18455, 
			 "cosmo_polarized_energy": -11.44, 
			 "cosmo_cavitation_energy": 20.12, 
			 "cosmo_dispersion_energy": -15.51, 
			 "cosmo_repulsion_energy": 1.24, 
			 "cosmo_total_nonelectrostatic_energy": 5.85, 
			 "SMD_solvation_energy": 1.34 
		},
		"coords": [
			{
				"x": 0.9584323395,
				"y": -0.2225867937,
				"z": 2.3324622196,
				"element": "N" 
			},
			{
				"x": 0.8514507026,
				"y": 0.1957755396,
				"z": 1.0423788043,
				"element": "C" 
			},
			{
				"x": 1.1014719046,
				"y": 1.4545152993,
				"z": 0.7250220469,
				"element": "N" 
			},
			{
				"x": 1.0180792131,
				"y": 1.8010806758,
				"z": -0.5943226976,
				"element": "C" 
			},
			{
				"x": 0.6885461934,
				"y": 0.9509835076,
				"z": -1.6090919321,
				"element": "C" 
			},
			{
				"x": 0.4143283086,
				"y": -0.3640947508,
				"z": -1.264589358,
				"element": "N" 
			},
			{
				"x": 0.0405823009,
				"y": -1.4682854199,
				"z": -1.993560268,
				"element": "C" 
			},
			{
				"x": -0.0959887856,
				"y": -2.4904655409,
				"z": -1.0689857983,
				"element": "C" 
			},
			{
				"x": 0.1777724537,
				"y": -2.0660363625,
				"z": 0.1966565671,
				"element": "N" 
			},
			{
				"x": 0.4854669299,
				"y": -0.7785291279,
				"z": 0.0566879821,
				"element": "C" 
			},
			{
				"x": 0.5879929494,
				"y": -1.1297778731,
				"z": 2.5693562852,
				"element": "H" 
			},
			{
				"x": 1.0348252237,
				"y": 0.4844776911,
				"z": 3.0462061731,
				"element": "H" 
			},
			{
				"x": 1.2345011822,
				"y": 2.8399941192,
				"z": -0.8256523067,
				"element": "H" 
			},
			{
				"x": 0.6217215594,
				"y": 1.2245189635,
				"z": -2.6531475896,
				"element": "H" 
			},
			{
				"x": -0.091279989,
				"y": -1.4313253985,
				"z": -3.063489801,
				"element": "H" 
			},
			{
				"x": -0.3818024864,
				"y": -3.514044529,
				"z": -1.271630327,
				"element": "H" 
			}
		],
		 "valence_orbital": [ 
			{
				"type": "occ",
				"energy": -0.28396,
				"method": "rhf"
			},
			{
				"type": "occ",
				"energy": -0.28187,
				"method": "rhf"
			},
			{
				"type": "occ",
				"energy": -0.26128,
				"method": "rhf"
			},
			{
				"type": "occ",
				"energy": -0.23567,
				"method": "rhf"
			},
			{
				"type": "occ",
				"energy": -0.20488,
				"method": "rhf"
			},
			{
				"type": "unocc",
				"energy": -0.02033,
				"method": "rhf"
			},
			{
				"type": "unocc",
				"energy": 0.00424,
				"method": "rhf"
			},
			{
				"type": "unocc",
				"energy": 0.06455,
				"method": "rhf"
			},
			{
				"type": "unocc",
				"energy": 0.09205,
				"method": "rhf"
			},
			{
				"type": "unocc",
				"energy": 0.11006,
				"method": "rhf"
			}
		],
		"cosmo_sigma_profile": { 
			"-0.025": 0.0,
			"-0.024": 0.0,
			"-0.023": 0.0,
			"-0.022": 0.0,
			"-0.021": 0.0,
			"-0.02": 0.0,
			"-0.019": 0.0,
			"-0.018": 0.0,
			"-0.017": 0.0,
			"-0.016": 0.0,
			"-0.015": 0.0,
			"-0.014": 0.485617845685,
			"-0.013": 1.39303223269,
			"-0.012": 2.30742667752,
			"-0.011": 2.01685411862,
			"-0.01": 1.62957969719,
			"-0.009": 5.82192660796,
			"-0.008": 5.88596963888,
			"-0.007": 7.8320230217,
			"-0.006": 8.3048786197,
			"-0.005": 7.48979130827,
			"-0.004": 6.91361116009,
			"-0.003": 6.1623289971,
			"-0.002": 7.64347393091,
			"-0.001": 10.6184820388,
			"0.0": 10.8692755695,
			"0.001": 12.1164451473,
			"0.002": 9.37178774022,
			"0.003": 12.2637736653,
			"0.004": 9.8308045915,
			"0.005": 5.74125555101,
			"0.006": 4.28518177785,
			"0.007": 3.32322344285,
			"0.008": 3.9027110158,
			"0.009": 3.14088403937,
			"0.01": 1.99465691864,
			"0.011": 2.10171106223,
			"0.012": 2.12836193208,
			"0.013": 1.92623762655,
			"0.014": 1.85007325109,
			"0.015": 1.45928748091,
			"0.016": 0.926876704009,
			"0.017": 0.0875182066634,
			"0.018": 0.0,
			"0.019": 0.0,
			"0.02": 0.0,
			"0.021": 0.0,
			"0.022": 0.0,
			"0.023": 0.0,
			"0.024": 0.0,
			"0.025": 0.0
		}
	}
}
