{
	 "smiles": "NC(=O)C1=C(N)N(N=C1)C1=NC=CC=N1", 
	 "Tm": 530.15, 
	 "num_atms": 23, 
	 "gaussian": { 
		 "optdone": 1, 
		 "sigma_profile": "yes", 
		 "theory": "DFT", 
		 "functional": "B3LYP", 
		 "basiset": "6-31G**", 
		 "properties": { 
			 "R2extent": 4453.2309, 
			 "electric_dipole_moment_norm": 7.17573497351, 
			 "electric_quadrupole_moment_norm": 13.3288740027, 
			 "total_energy": -713.400332786, 
			 "HOMO_LUMO_gap": 0.1561, 
			 "cosmo_polarized_energy": -23.03, 
			 "cosmo_cavitation_energy": 27.96, 
			 "cosmo_dispersion_energy": -21.15, 
			 "cosmo_repulsion_energy": 1.64, 
			 "cosmo_total_nonelectrostatic_energy": 8.45, 
			 "SMD_solvation_energy": 3.31 
		},
		"coords": [
			{
				"x": 1.7549781192,
				"y": -3.1529625467,
				"z": 1.1133048656,
				"element": "N" 
			},
			{
				"x": 0.4009618619,
				"y": -3.2942443382,
				"z": 0.78969362,
				"element": "C" 
			},
			{
				"x": -0.3091397035,
				"y": -4.1158424151,
				"z": 1.3559441393,
				"element": "O" 
			},
			{
				"x": -0.1041349402,
				"y": -2.3696564126,
				"z": -0.2301160278,
				"element": "C" 
			},
			{
				"x": 0.4662952949,
				"y": -1.1999531815,
				"z": -0.7292823083,
				"element": "C" 
			},
			{
				"x": 1.6667703883,
				"y": -0.6155301902,
				"z": -0.4282821875,
				"element": "N" 
			},
			{
				"x": -0.4273246382,
				"y": -0.7082019743,
				"z": -1.6713337942,
				"element": "N" 
			},
			{
				"x": -1.5497654946,
				"y": -1.5224826955,
				"z": -1.7885872798,
				"element": "N" 
			},
			{
				"x": -1.3443325472,
				"y": -2.4833946475,
				"z": -0.9204522741,
				"element": "C" 
			},
			{
				"x": -0.3435497402,
				"y": 0.4656319371,
				"z": -2.433253094,
				"element": "C" 
			},
			{
				"x": 0.7019491576,
				"y": 1.2719023783,
				"z": -2.1835696036,
				"element": "N" 
			},
			{
				"x": 0.7744397688,
				"y": 2.3919260842,
				"z": -2.9111924396,
				"element": "C" 
			},
			{
				"x": -0.1733355993,
				"y": 2.7179500782,
				"z": -3.8737272008,
				"element": "C" 
			},
			{
				"x": -1.2128820534,
				"y": 1.8001210885,
				"z": -4.0395215993,
				"element": "C" 
			},
			{
				"x": -1.3101089417,
				"y": 0.6756839765,
				"z": -3.332105671,
				"element": "N" 
			},
			{
				"x": 2.381835103,
				"y": -2.9377564969,
				"z": 0.3465579408,
				"element": "H" 
			},
			{
				"x": 2.082447542,
				"y": -3.902178203,
				"z": 1.7114588649,
				"element": "H" 
			},
			{
				"x": 1.9959072388,
				"y": -0.8126797113,
				"z": 0.5082453545,
				"element": "H" 
			},
			{
				"x": 1.7645512811,
				"y": 0.3351313685,
				"z": -0.7709488779,
				"element": "H" 
			},
			{
				"x": -2.0774969283,
				"y": -3.2686395275,
				"z": -0.7933861832,
				"element": "H" 
			},
			{
				"x": 1.622573613,
				"y": 3.0417405245,
				"z": -2.706265228,
				"element": "H" 
			},
			{
				"x": -0.1081958179,
				"y": 3.6272680355,
				"z": -4.4591333937,
				"element": "H" 
			},
			{
				"x": -2.0003429641,
				"y": 1.971666869,
				"z": -4.7715476223,
				"element": "H" 
			}
		],
		 "valence_orbital": [ 
			{
				"type": "occ",
				"energy": -0.27369,
				"method": "rhf"
			},
			{
				"type": "occ",
				"energy": -0.26513,
				"method": "rhf"
			},
			{
				"type": "occ",
				"energy": -0.25129,
				"method": "rhf"
			},
			{
				"type": "occ",
				"energy": -0.24254,
				"method": "rhf"
			},
			{
				"type": "occ",
				"energy": -0.21481,
				"method": "rhf"
			},
			{
				"type": "unocc",
				"energy": -0.05871,
				"method": "rhf"
			},
			{
				"type": "unocc",
				"energy": -0.04863,
				"method": "rhf"
			},
			{
				"type": "unocc",
				"energy": 0.00554,
				"method": "rhf"
			},
			{
				"type": "unocc",
				"energy": 0.03777,
				"method": "rhf"
			},
			{
				"type": "unocc",
				"energy": 0.07845,
				"method": "rhf"
			}
		],
		"cosmo_sigma_profile": { 
			"-0.025": 0.0,
			"-0.024": 0.0,
			"-0.023": 0.0,
			"-0.022": 0.0,
			"-0.021": 0.0,
			"-0.02": 0.0,
			"-0.019": 0.0,
			"-0.018": 0.0,
			"-0.017": 0.0,
			"-0.016": 0.0,
			"-0.015": 0.0,
			"-0.014": 0.00950285037218,
			"-0.013": 1.42034533361,
			"-0.012": 2.94700482364,
			"-0.011": 3.40537359964,
			"-0.01": 4.12649091841,
			"-0.009": 6.15405059501,
			"-0.008": 12.629383131,
			"-0.007": 11.5646436401,
			"-0.006": 10.2639654744,
			"-0.005": 9.12249929088,
			"-0.004": 8.49259668407,
			"-0.003": 13.9391867962,
			"-0.002": 16.5007183298,
			"-0.001": 17.8140996598,
			"0.0": 16.6971197188,
			"0.001": 13.1958579594,
			"0.002": 10.3123939561,
			"0.003": 10.8348549896,
			"0.004": 6.16570032579,
			"0.005": 4.79274228344,
			"0.006": 4.94128883851,
			"0.007": 3.89571846141,
			"0.008": 4.84179167377,
			"0.009": 4.2219553929,
			"0.01": 2.51793982825,
			"0.011": 2.60655989719,
			"0.012": 3.78373184619,
			"0.013": 5.71165074371,
			"0.014": 6.08812233955,
			"0.015": 1.75052024356,
			"0.016": 1.08669045912,
			"0.017": 0.726205000861,
			"0.018": 1.00325829309,
			"0.019": 0.978785393213,
			"0.02": 0.257443780519,
			"0.021": 0.0,
			"0.022": 0.0,
			"0.023": 0.0,
			"0.024": 0.0,
			"0.025": 0.0
		}
	}
}
