{
	 "smiles": "CCC1(CC(=O)NC1=O)C1=CC=C(C)C=C1", 
	 "Tm": 350.15, 
	 "num_atms": 31, 
	 "gaussian": { 
		 "optdone": 1, 
		 "sigma_profile": "yes", 
		 "theory": "DFT", 
		 "functional": "B3LYP", 
		 "basiset": "6-31G**", 
		 "properties": { 
			 "R2extent": 4090.6022, 
			 "electric_dipole_moment_norm": 2.2563833739, 
			 "electric_quadrupole_moment_norm": 13.9534836937, 
			 "total_energy": -709.668606744, 
			 "HOMO_LUMO_gap": 0.21215, 
			 "cosmo_polarized_energy": -13.22, 
			 "cosmo_cavitation_energy": 33.09, 
			 "cosmo_dispersion_energy": -23.53, 
			 "cosmo_repulsion_energy": 1.84, 
			 "cosmo_total_nonelectrostatic_energy": 11.4, 
			 "SMD_solvation_energy": 6.84 
		},
		"coords": [
			{
				"x": -1.0894525924,
				"y": -1.8968290301,
				"z": 1.8911041389,
				"element": "C" 
			},
			{
				"x": -0.9451757247,
				"y": -0.4254922943,
				"z": 2.2843975066,
				"element": "C" 
			},
			{
				"x": -0.8420880518,
				"y": 0.5990457095,
				"z": 1.1013593772,
				"element": "C" 
			},
			{
				"x": -0.7803046172,
				"y": 2.0426855182,
				"z": 1.6821390948,
				"element": "C" 
			},
			{
				"x": -2.1687767592,
				"y": 2.64001933,
				"z": 1.5085610697,
				"element": "C" 
			},
			{
				"x": -2.6003001834,
				"y": 3.6826006467,
				"z": 1.9483696189,
				"element": "O" 
			},
			{
				"x": -2.8766330232,
				"y": 1.7549890664,
				"z": 0.7011125758,
				"element": "N" 
			},
			{
				"x": -2.1999903312,
				"y": 0.5887672442,
				"z": 0.3635456356,
				"element": "C" 
			},
			{
				"x": -2.6736737415,
				"y": -0.2803231741,
				"z": -0.3422463731,
				"element": "O" 
			},
			{
				"x": 0.3610429521,
				"y": 0.2716055077,
				"z": 0.2104292533,
				"element": "C" 
			},
			{
				"x": 0.2593898214,
				"y": -0.4005498066,
				"z": -1.0148329867,
				"element": "C" 
			},
			{
				"x": 1.4002273605,
				"y": -0.6900357916,
				"z": -1.7657940197,
				"element": "C" 
			},
			{
				"x": 2.6793900806,
				"y": -0.3326641619,
				"z": -1.3262656843,
				"element": "C" 
			},
			{
				"x": 3.9049316568,
				"y": -0.6221018529,
				"z": -2.1600887279,
				"element": "C" 
			},
			{
				"x": 2.7799141831,
				"y": 0.3238225034,
				"z": -0.0929115117,
				"element": "C" 
			},
			{
				"x": 1.6450510273,
				"y": 0.6208137213,
				"z": 0.6585462661,
				"element": "C" 
			},
			{
				"x": -1.1571708438,
				"y": -2.515925898,
				"z": 2.7914493218,
				"element": "H" 
			},
			{
				"x": -0.2267503765,
				"y": -2.2374294152,
				"z": 1.3119025297,
				"element": "H" 
			},
			{
				"x": -1.9850557512,
				"y": -2.0668242587,
				"z": 1.2891969,
				"element": "H" 
			},
			{
				"x": -1.7881118709,
				"y": -0.1254991654,
				"z": 2.9218413274,
				"element": "H" 
			},
			{
				"x": -0.0391133784,
				"y": -0.2931446816,
				"z": 2.8882327798,
				"element": "H" 
			},
			{
				"x": -0.0783100209,
				"y": 2.6736202769,
				"z": 1.1282175692,
				"element": "H" 
			},
			{
				"x": -0.4928327073,
				"y": 2.0832190746,
				"z": 2.7360383619,
				"element": "H" 
			},
			{
				"x": -3.8262623341,
				"y": 1.9300112276,
				"z": 0.3960876591,
				"element": "H" 
			},
			{
				"x": -0.7134075085,
				"y": -0.7055849251,
				"z": -1.380255848,
				"element": "H" 
			},
			{
				"x": 1.2878283029,
				"y": -1.2098326788,
				"z": -2.7144154406,
				"element": "H" 
			},
			{
				"x": 4.1277556954,
				"y": 0.2098666877,
				"z": -2.8400901406,
				"element": "H" 
			},
			{
				"x": 3.7676846841,
				"y": -1.5159085505,
				"z": -2.7760647119,
				"element": "H" 
			},
			{
				"x": 4.789366406,
				"y": -0.7742165196,
				"z": -1.5338761429,
				"element": "H" 
			},
			{
				"x": 3.7589068869,
				"y": 0.6084376371,
				"z": 0.28542377,
				"element": "H" 
			},
			{
				"x": 1.7678207591,
				"y": 1.1292580533,
				"z": 1.6114868315,
				"element": "H" 
			}
		],
		 "valence_orbital": [ 
			{
				"type": "occ",
				"energy": -0.29303,
				"method": "rhf"
			},
			{
				"type": "occ",
				"energy": -0.28378,
				"method": "rhf"
			},
			{
				"type": "occ",
				"energy": -0.26057,
				"method": "rhf"
			},
			{
				"type": "occ",
				"energy": -0.2512,
				"method": "rhf"
			},
			{
				"type": "occ",
				"energy": -0.23703,
				"method": "rhf"
			},
			{
				"type": "unocc",
				"energy": -0.02488,
				"method": "rhf"
			},
			{
				"type": "unocc",
				"energy": -0.00823,
				"method": "rhf"
			},
			{
				"type": "unocc",
				"energy": -0.003,
				"method": "rhf"
			},
			{
				"type": "unocc",
				"energy": 0.02877,
				"method": "rhf"
			},
			{
				"type": "unocc",
				"energy": 0.08013,
				"method": "rhf"
			}
		],
		"cosmo_sigma_profile": { 
			"-0.025": 0.0,
			"-0.024": 0.0,
			"-0.023": 0.0,
			"-0.022": 0.0,
			"-0.021": 0.0,
			"-0.02": 0.0,
			"-0.019": 0.0,
			"-0.018": 0.0,
			"-0.017": 0.18699188145,
			"-0.016": 1.1493954733,
			"-0.015": 1.26285112348,
			"-0.014": 0.883157414697,
			"-0.013": 0.566544874863,
			"-0.012": 0.616631799277,
			"-0.011": 1.69657614754,
			"-0.01": 0.526170660452,
			"-0.009": 0.744372491866,
			"-0.008": 0.965449661641,
			"-0.007": 4.88864416292,
			"-0.006": 11.7799044839,
			"-0.005": 15.4013302194,
			"-0.004": 22.5879993489,
			"-0.003": 23.9663095464,
			"-0.002": 22.847172589,
			"-0.001": 26.0226188222,
			"0.0": 24.2107801265,
			"0.001": 19.0023022373,
			"0.002": 14.0110369665,
			"0.003": 10.3615353706,
			"0.004": 9.35397932543,
			"0.005": 9.13224256412,
			"0.006": 9.27090540593,
			"0.007": 3.05005750493,
			"0.008": 2.99553502646,
			"0.009": 3.26396894759,
			"0.01": 3.78039112606,
			"0.011": 6.74717499159,
			"0.012": 7.50461680815,
			"0.013": 1.96851930071,
			"0.014": 0.0201225177923,
			"0.015": 0.0,
			"0.016": 0.0,
			"0.017": 0.0,
			"0.018": 0.0,
			"0.019": 0.0,
			"0.02": 0.0,
			"0.021": 0.0,
			"0.022": 0.0,
			"0.023": 0.0,
			"0.024": 0.0,
			"0.025": 0.0
		}
	}
}
