{
	 "smiles": "BrC1=NN=C(CC2=CC=CC=C2)S1", 
	 "Tm": 353.15, 
	 "num_atms": 20, 
	 "gaussian": { 
		 "optdone": 1, 
		 "sigma_profile": "yes", 
		 "theory": "DFT", 
		 "functional": "B3LYP", 
		 "basiset": "6-31G**", 
		 "properties": { 
			 "R2extent": 7960.2662, 
			 "electric_dipole_moment_norm": 3.51732052278, 
			 "electric_quadrupole_moment_norm": 12.5942951859, 
			 "total_energy": -3426.23194339, 
			 "HOMO_LUMO_gap": 0.20283, 
			 "cosmo_polarized_energy": -9.39, 
			 "cosmo_cavitation_energy": 29.07, 
			 "cosmo_dispersion_energy": -21.64, 
			 "cosmo_repulsion_energy": 1.68, 
			 "cosmo_total_nonelectrostatic_energy": 9.11, 
			 "SMD_solvation_energy": 1.27 
		},
		"coords": [
			{
				"x": -5.4728376791,
				"y": -0.2483023278,
				"z": 3.0109135312,
				"element": "Br" 
			},
			{
				"x": -4.3401396872,
				"y": -0.2704749857,
				"z": 1.5085726864,
				"element": "C" 
			},
			{
				"x": -4.4100835663,
				"y": -1.1713319759,
				"z": 0.5823409733,
				"element": "N" 
			},
			{
				"x": -3.4781429982,
				"y": -0.9656531095,
				"z": -0.4046868697,
				"element": "N" 
			},
			{
				"x": -2.7251357372,
				"y": 0.0808059981,
				"z": -0.2084976799,
				"element": "C" 
			},
			{
				"x": -1.630096535,
				"y": 0.494413375,
				"z": -1.1516370814,
				"element": "C" 
			},
			{
				"x": -0.2350278524,
				"y": 0.3828648958,
				"z": -0.5556139061,
				"element": "C" 
			},
			{
				"x": 0.5680223586,
				"y": 1.5166260136,
				"z": -0.393678209,
				"element": "C" 
			},
			{
				"x": 1.850587598,
				"y": 1.4078737039,
				"z": 0.149441236,
				"element": "C" 
			},
			{
				"x": 2.3415487012,
				"y": 0.1614621212,
				"z": 0.5374528018,
				"element": "C" 
			},
			{
				"x": 1.5453019052,
				"y": -0.9762177488,
				"z": 0.3792650218,
				"element": "C" 
			},
			{
				"x": 0.2658560037,
				"y": -0.8662580998,
				"z": -0.1627847122,
				"element": "C" 
			},
			{
				"x": -3.1034283027,
				"y": 0.9449179405,
				"z": 1.2764445136,
				"element": "S" 
			},
			{
				"x": -1.7310783786,
				"y": -0.1580863339,
				"z": -2.0253945859,
				"element": "H" 
			},
			{
				"x": -1.8071142167,
				"y": 1.5210491893,
				"z": -1.4907857102,
				"element": "H" 
			},
			{
				"x": 0.191495477,
				"y": 2.4901899929,
				"z": -0.6984211889,
				"element": "H" 
			},
			{
				"x": 2.4632727483,
				"y": 2.2970066724,
				"z": 0.2675746252,
				"element": "H" 
			},
			{
				"x": 3.3385102392,
				"y": 0.0748338964,
				"z": 0.9595139944,
				"element": "H" 
			},
			{
				"x": 1.9222395814,
				"y": -1.9502349219,
				"z": 0.6777429409,
				"element": "H" 
			},
			{
				"x": -0.3528496592,
				"y": -1.7519842958,
				"z": -0.2827623813,
				"element": "H" 
			}
		],
		 "valence_orbital": [ 
			{
				"type": "occ",
				"energy": -0.30563,
				"method": "rhf"
			},
			{
				"type": "occ",
				"energy": -0.27674,
				"method": "rhf"
			},
			{
				"type": "occ",
				"energy": -0.27062,
				"method": "rhf"
			},
			{
				"type": "occ",
				"energy": -0.25937,
				"method": "rhf"
			},
			{
				"type": "occ",
				"energy": -0.25308,
				"method": "rhf"
			},
			{
				"type": "unocc",
				"energy": -0.05025,
				"method": "rhf"
			},
			{
				"type": "unocc",
				"energy": -0.02553,
				"method": "rhf"
			},
			{
				"type": "unocc",
				"energy": -0.01434,
				"method": "rhf"
			},
			{
				"type": "unocc",
				"energy": -0.01028,
				"method": "rhf"
			},
			{
				"type": "unocc",
				"energy": 0.00173,
				"method": "rhf"
			}
		],
		"cosmo_sigma_profile": { 
			"-0.025": 0.0,
			"-0.024": 0.0,
			"-0.023": 0.0,
			"-0.022": 0.0,
			"-0.021": 0.0,
			"-0.02": 0.0,
			"-0.019": 0.0,
			"-0.018": 0.0,
			"-0.017": 0.0,
			"-0.016": 0.0,
			"-0.015": 0.0,
			"-0.014": 0.0,
			"-0.013": 0.0,
			"-0.012": 0.0,
			"-0.011": 0.0,
			"-0.01": 0.0,
			"-0.009": 0.0,
			"-0.008": 1.18443092909,
			"-0.007": 6.33379186016,
			"-0.006": 11.3537554507,
			"-0.005": 15.7735047107,
			"-0.004": 21.0880898002,
			"-0.003": 25.1656450087,
			"-0.002": 20.2759516196,
			"-0.001": 20.739959767,
			"0.0": 18.9343430919,
			"0.001": 19.1642368582,
			"0.002": 19.0065171474,
			"0.003": 14.6054541058,
			"0.004": 10.0609701122,
			"0.005": 11.5807872551,
			"0.006": 5.77035567087,
			"0.007": 2.6585869417,
			"0.008": 2.32308199219,
			"0.009": 2.53811096097,
			"0.01": 2.94819418884,
			"0.011": 2.86696788687,
			"0.012": 2.49762896258,
			"0.013": 1.91586413445,
			"0.014": 0.647620949765,
			"0.015": 0.0,
			"0.016": 0.0,
			"0.017": 0.0,
			"0.018": 0.0,
			"0.019": 0.0,
			"0.02": 0.0,
			"0.021": 0.0,
			"0.022": 0.0,
			"0.023": 0.0,
			"0.024": 0.0,
			"0.025": 0.0
		}
	}
}
