{
	 "smiles": "COC(=O)C1CC(OC)=CC1=O", 
	 "Tm": 321.15, 
	 "num_atms": 22, 
	 "gaussian": { 
		 "optdone": 1, 
		 "sigma_profile": "yes", 
		 "theory": "DFT", 
		 "functional": "B3LYP", 
		 "basiset": "6-31G**", 
		 "properties": { 
			 "R2extent": 2750.5153, 
			 "electric_dipole_moment_norm": 3.19471443638, 
			 "electric_quadrupole_moment_norm": 17.260409436, 
			 "total_energy": -611.75983899, 
			 "HOMO_LUMO_gap": 0.20693, 
			 "cosmo_polarized_energy": -14.83, 
			 "cosmo_cavitation_energy": 26.54, 
			 "cosmo_dispersion_energy": -19.05, 
			 "cosmo_repulsion_energy": 1.55, 
			 "cosmo_total_nonelectrostatic_energy": 9.05, 
			 "SMD_solvation_energy": 7.62 
		},
		"coords": [
			{
				"x": 1.2549267678,
				"y": -4.2291136143,
				"z": -1.9923886484,
				"element": "C" 
			},
			{
				"x": 1.6329841812,
				"y": -3.0356589411,
				"z": -1.2860064593,
				"element": "O" 
			},
			{
				"x": 0.6550557592,
				"y": -2.4562675467,
				"z": -0.5682721068,
				"element": "C" 
			},
			{
				"x": -0.4635230942,
				"y": -2.913566734,
				"z": -0.4504321054,
				"element": "O" 
			},
			{
				"x": 1.1273007561,
				"y": -1.1486711603,
				"z": 0.0346635362,
				"element": "C" 
			},
			{
				"x": 0.3322326445,
				"y": -0.7208977446,
				"z": 1.2776890454,
				"element": "C" 
			},
			{
				"x": -0.1433977697,
				"y": 0.6684346445,
				"z": 0.9438550632,
				"element": "C" 
			},
			{
				"x": -0.8145550078,
				"y": 1.3049032733,
				"z": 1.9053989537,
				"element": "O" 
			},
			{
				"x": -1.2954200906,
				"y": 2.6186516637,
				"z": 1.6038299108,
				"element": "C" 
			},
			{
				"x": 0.1753047119,
				"y": 1.0737528297,
				"z": -0.3102398567,
				"element": "C" 
			},
			{
				"x": 0.925172697,
				"y": 0.0232814278,
				"z": -0.9922942706,
				"element": "C" 
			},
			{
				"x": 1.3449320457,
				"y": 0.015621761,
				"z": -2.1330144904,
				"element": "O" 
			},
			{
				"x": 2.1542454651,
				"y": -4.5598258931,
				"z": -2.5112638456,
				"element": "H" 
			},
			{
				"x": 0.4577656539,
				"y": -4.0128976451,
				"z": -2.7076353768,
				"element": "H" 
			},
			{
				"x": 0.9076590149,
				"y": -4.9956773733,
				"z": -1.2950656316,
				"element": "H" 
			},
			{
				"x": 2.202432956,
				"y": -1.2193118653,
				"z": 0.2225440372,
				"element": "H" 
			},
			{
				"x": -0.5261221919,
				"y": -1.3810531694,
				"z": 1.4411972789,
				"element": "H" 
			},
			{
				"x": 0.9313156887,
				"y": -0.7162938481,
				"z": 2.1943867497,
				"element": "H" 
			},
			{
				"x": -0.4631845794,
				"y": 3.2883662993,
				"z": 1.3615581601,
				"element": "H" 
			},
			{
				"x": -1.8047150214,
				"y": 2.9686570501,
				"z": 2.5015870045,
				"element": "H" 
			},
			{
				"x": -1.9976765471,
				"y": 2.5890800055,
				"z": 0.7639762419,
				"element": "H" 
			},
			{
				"x": -0.0745340399,
				"y": 2.0101865804,
				"z": -0.78937319,
				"element": "H" 
			}
		],
		 "valence_orbital": [ 
			{
				"type": "occ",
				"energy": -0.34216,
				"method": "rhf"
			},
			{
				"type": "occ",
				"energy": -0.29926,
				"method": "rhf"
			},
			{
				"type": "occ",
				"energy": -0.27269,
				"method": "rhf"
			},
			{
				"type": "occ",
				"energy": -0.2489,
				"method": "rhf"
			},
			{
				"type": "occ",
				"energy": -0.23805,
				"method": "rhf"
			},
			{
				"type": "unocc",
				"energy": -0.03112,
				"method": "rhf"
			},
			{
				"type": "unocc",
				"energy": 0.01175,
				"method": "rhf"
			},
			{
				"type": "unocc",
				"energy": 0.06435,
				"method": "rhf"
			},
			{
				"type": "unocc",
				"energy": 0.08933,
				"method": "rhf"
			},
			{
				"type": "unocc",
				"energy": 0.09763,
				"method": "rhf"
			}
		],
		"cosmo_sigma_profile": { 
			"-0.025": 0.0,
			"-0.024": 0.0,
			"-0.023": 0.0,
			"-0.022": 0.0,
			"-0.021": 0.0,
			"-0.02": 0.0,
			"-0.019": 0.0,
			"-0.018": 0.0,
			"-0.017": 0.0,
			"-0.016": 0.0,
			"-0.015": 0.0,
			"-0.014": 0.0,
			"-0.013": 0.0,
			"-0.012": 0.0,
			"-0.011": 0.0,
			"-0.01": 0.0,
			"-0.009": 0.0,
			"-0.008": 0.846192603003,
			"-0.007": 8.41626803674,
			"-0.006": 22.6041648335,
			"-0.005": 23.27483453,
			"-0.004": 24.6266306177,
			"-0.003": 18.9661446409,
			"-0.002": 12.9570606675,
			"-0.001": 11.9072892945,
			"0.0": 10.1325040167,
			"0.001": 8.36884918341,
			"0.002": 8.39561935694,
			"0.003": 6.72176463421,
			"0.004": 5.33416486141,
			"0.005": 4.27039503297,
			"0.006": 4.71917879622,
			"0.007": 5.16260393165,
			"0.008": 5.38007770976,
			"0.009": 3.62050134824,
			"0.01": 4.21441467205,
			"0.011": 6.44545782492,
			"0.012": 8.0690005542,
			"0.013": 4.53331139001,
			"0.014": 1.01120684853,
			"0.015": 0.0,
			"0.016": 0.0,
			"0.017": 0.0,
			"0.018": 0.0,
			"0.019": 0.0,
			"0.02": 0.0,
			"0.021": 0.0,
			"0.022": 0.0,
			"0.023": 0.0,
			"0.024": 0.0,
			"0.025": 0.0
		}
	}
}
