{
	 "smiles": "O=C1CSC(N1)=CC1=NC2=C(S1)C=CC=C2", 
	 "Tm": 460.15, 
	 "num_atms": 24, 
	 "gaussian": { 
		 "optdone": 1, 
		 "sigma_profile": "yes", 
		 "theory": "DFT", 
		 "functional": "B3LYP", 
		 "basiset": "6-31G**", 
		 "properties": { 
			 "R2extent": 6905.5753, 
			 "electric_dipole_moment_norm": 1.09772680117, 
			 "electric_quadrupole_moment_norm": 5.9230342545, 
			 "total_energy": -1405.10461572, 
			 "HOMO_LUMO_gap": 0.14997, 
			 "cosmo_polarized_energy": -15.86, 
			 "cosmo_cavitation_energy": 31.77, 
			 "cosmo_dispersion_energy": -24.88, 
			 "cosmo_repulsion_energy": 1.83, 
			 "cosmo_total_nonelectrostatic_energy": 8.71, 
			 "SMD_solvation_energy": 3.65 
		},
		"coords": [
			{
				"x": 3.1838505431,
				"y": -5.1354056177,
				"z": 1.945850305,
				"element": "O" 
			},
			{
				"x": 2.6053997353,
				"y": -4.1322839645,
				"z": 1.5826742614,
				"element": "C" 
			},
			{
				"x": 3.2003387867,
				"y": -3.0581423779,
				"z": 0.673233972,
				"element": "C" 
			},
			{
				"x": 1.9272727065,
				"y": -1.7595677775,
				"z": 0.4320600877,
				"element": "S" 
			},
			{
				"x": 0.748519568,
				"y": -2.6147503228,
				"z": 1.4555411179,
				"element": "C" 
			},
			{
				"x": 1.3151937018,
				"y": -3.7947851184,
				"z": 1.9295092447,
				"element": "N" 
			},
			{
				"x": -0.514817276,
				"y": -2.2408975621,
				"z": 1.7690580528,
				"element": "C" 
			},
			{
				"x": -1.2610293839,
				"y": -1.0706945281,
				"z": 1.3780004757,
				"element": "C" 
			},
			{
				"x": -2.4870382411,
				"y": -0.8822461495,
				"z": 1.7888214048,
				"element": "N" 
			},
			{
				"x": -3.014931892,
				"y": 0.2935324417,
				"z": 1.3009430187,
				"element": "C" 
			},
			{
				"x": -2.1546989295,
				"y": 1.0549400527,
				"z": 0.4700642028,
				"element": "C" 
			},
			{
				"x": -0.6197574077,
				"y": 0.2251326544,
				"z": 0.3163982317,
				"element": "S" 
			},
			{
				"x": -2.5618376352,
				"y": 2.2667558479,
				"z": -0.091466952,
				"element": "C" 
			},
			{
				"x": -3.8501943375,
				"y": 2.7179475964,
				"z": 0.1864221803,
				"element": "C" 
			},
			{
				"x": -4.71546297,
				"y": 1.9743675709,
				"z": 1.0086753996,
				"element": "C" 
			},
			{
				"x": -4.3099830223,
				"y": 0.7689735779,
				"z": 1.5670018997,
				"element": "C" 
			},
			{
				"x": 3.4813422256,
				"y": -3.5059094026,
				"z": -0.2827647129,
				"element": "H" 
			},
			{
				"x": 4.094769137,
				"y": -2.6402061711,
				"z": 1.1407895273,
				"element": "H" 
			},
			{
				"x": 0.7941388865,
				"y": -4.4179091808,
				"z": 2.5329852659,
				"element": "H" 
			},
			{
				"x": -1.085781153,
				"y": -2.9025647437,
				"z": 2.4152668151,
				"element": "H" 
			},
			{
				"x": -1.8967758233,
				"y": 2.8432675006,
				"z": -0.7264967169,
				"element": "H" 
			},
			{
				"x": -4.1888448386,
				"y": 3.6577579863,
				"z": -0.2392562358,
				"element": "H" 
			},
			{
				"x": -5.7146252157,
				"y": 2.3496805052,
				"z": 1.2087728424,
				"element": "H" 
			},
			{
				"x": -4.9666471647,
				"y": 0.1847071827,
				"z": 2.2031163122,
				"element": "H" 
			}
		],
		 "valence_orbital": [ 
			{
				"type": "occ",
				"energy": -0.28196,
				"method": "rhf"
			},
			{
				"type": "occ",
				"energy": -0.27252,
				"method": "rhf"
			},
			{
				"type": "occ",
				"energy": -0.26293,
				"method": "rhf"
			},
			{
				"type": "occ",
				"energy": -0.23226,
				"method": "rhf"
			},
			{
				"type": "occ",
				"energy": -0.2089,
				"method": "rhf"
			},
			{
				"type": "unocc",
				"energy": -0.05893,
				"method": "rhf"
			},
			{
				"type": "unocc",
				"energy": -0.02047,
				"method": "rhf"
			},
			{
				"type": "unocc",
				"energy": -0.004,
				"method": "rhf"
			},
			{
				"type": "unocc",
				"energy": -0.00069,
				"method": "rhf"
			},
			{
				"type": "unocc",
				"energy": 0.02541,
				"method": "rhf"
			}
		],
		"cosmo_sigma_profile": { 
			"-0.025": 0.0,
			"-0.024": 0.0,
			"-0.023": 0.0,
			"-0.022": 0.0,
			"-0.021": 0.0,
			"-0.02": 0.0,
			"-0.019": 0.0,
			"-0.018": 0.0,
			"-0.017": 0.723127867567,
			"-0.016": 1.59381003901,
			"-0.015": 1.53249157368,
			"-0.014": 1.22345536212,
			"-0.013": 0.932686682062,
			"-0.012": 1.2193844782,
			"-0.011": 1.10130773841,
			"-0.01": 1.37851041356,
			"-0.009": 5.6075658182,
			"-0.008": 6.46888194481,
			"-0.007": 10.2243270206,
			"-0.006": 15.3015090927,
			"-0.005": 14.2338937611,
			"-0.004": 13.8822526584,
			"-0.003": 11.7962896791,
			"-0.002": 13.0419133292,
			"-0.001": 13.2321025891,
			"0.0": 13.0282462028,
			"0.001": 19.4421388805,
			"0.002": 23.6982476583,
			"0.003": 23.2273156291,
			"0.004": 21.2352050132,
			"0.005": 14.1989812121,
			"0.006": 5.2500045784,
			"0.007": 3.16351603944,
			"0.008": 2.54523351652,
			"0.009": 2.7125975121,
			"0.01": 3.21263016213,
			"0.011": 4.80797454348,
			"0.012": 5.99344066274,
			"0.013": 2.12147687152,
			"0.014": 0.586840355746,
			"0.015": 0.60788106757,
			"0.016": 0.0268629705689,
			"0.017": 0.0,
			"0.018": 0.0,
			"0.019": 0.0,
			"0.02": 0.0,
			"0.021": 0.0,
			"0.022": 0.0,
			"0.023": 0.0,
			"0.024": 0.0,
			"0.025": 0.0
		}
	}
}
