{
	 "smiles": "CSC1=NC2=C(N1)C=CC(NCC1=CC=C(Cl)C=C1)=C2", 
	 "Tm": 521.15, 
	 "num_atms": 34, 
	 "gaussian": { 
		 "optdone": 1, 
		 "sigma_profile": "yes", 
		 "theory": "DFT", 
		 "functional": "B3LYP", 
		 "basiset": "6-31G**", 
		 "properties": { 
			 "R2extent": 9718.6402, 
			 "electric_dipole_moment_norm": 3.69063582598, 
			 "electric_quadrupole_moment_norm": 13.8258223564, 
			 "total_energy": -1602.68091038, 
			 "HOMO_LUMO_gap": 0.17361, 
			 "cosmo_polarized_energy": -17.41, 
			 "cosmo_cavitation_energy": 41.65, 
			 "cosmo_dispersion_energy": -30.49, 
			 "cosmo_repulsion_energy": 2.32, 
			 "cosmo_total_nonelectrostatic_energy": 13.49, 
			 "SMD_solvation_energy": 4.31 
		},
		"coords": [
			{
				"x": -1.0029312511,
				"y": -1.3636730057,
				"z": 4.9441864789,
				"element": "C" 
			},
			{
				"x": -1.4939330565,
				"y": 0.3864934265,
				"z": 5.1174897911,
				"element": "S" 
			},
			{
				"x": -0.9917839123,
				"y": 0.9752262964,
				"z": 3.5326775855,
				"element": "C" 
			},
			{
				"x": -0.408503879,
				"y": 0.2694743074,
				"z": 2.5935587373,
				"element": "N" 
			},
			{
				"x": -0.2143965563,
				"y": 1.1651934898,
				"z": 1.5467795097,
				"element": "C" 
			},
			{
				"x": -0.704073577,
				"y": 2.4431412223,
				"z": 1.8943018552,
				"element": "C" 
			},
			{
				"x": -1.2009944781,
				"y": 2.2913073434,
				"z": 3.1853952216,
				"element": "N" 
			},
			{
				"x": -0.6305112451,
				"y": 3.5213924491,
				"z": 1.0150140674,
				"element": "C" 
			},
			{
				"x": -0.0506355296,
				"y": 3.2896189382,
				"z": -0.2276706895,
				"element": "C" 
			},
			{
				"x": 0.4517529784,
				"y": 2.0162945732,
				"z": -0.6002289342,
				"element": "C" 
			},
			{
				"x": 0.995452691,
				"y": 1.871568747,
				"z": -1.8889482571,
				"element": "N" 
			},
			{
				"x": 1.8832021653,
				"y": 0.7647061036,
				"z": -2.2070525696,
				"element": "C" 
			},
			{
				"x": 1.1704531797,
				"y": -0.5180052707,
				"z": -2.6165545224,
				"element": "C" 
			},
			{
				"x": 1.8119161397,
				"y": -1.75276169,
				"z": -2.4636247977,
				"element": "C" 
			},
			{
				"x": 1.2082474113,
				"y": -2.9374978822,
				"z": -2.8847189985,
				"element": "C" 
			},
			{
				"x": -0.0599360534,
				"y": -2.8810909669,
				"z": -3.4607859988,
				"element": "C" 
			},
			{
				"x": -0.8364473581,
				"y": -4.3693485013,
				"z": -3.9914902602,
				"element": "Cl" 
			},
			{
				"x": -0.7247292114,
				"y": -1.6657336773,
				"z": -3.6165512601,
				"element": "C" 
			},
			{
				"x": -0.1028137477,
				"y": -0.4908715067,
				"z": -3.1940781508,
				"element": "C" 
			},
			{
				"x": 0.3688037973,
				"y": 0.9415557929,
				"z": 0.2936692479,
				"element": "C" 
			},
			{
				"x": 0.0696468516,
				"y": -1.4361390696,
				"z": 4.7661078287,
				"element": "H" 
			},
			{
				"x": -1.5436654617,
				"y": -1.825360432,
				"z": 4.1183223758,
				"element": "H" 
			},
			{
				"x": -1.2668929105,
				"y": -1.8426634522,
				"z": 5.8888261023,
				"element": "H" 
			},
			{
				"x": -1.6419137023,
				"y": 2.9962463669,
				"z": 3.7547091629,
				"element": "H" 
			},
			{
				"x": -1.0040147226,
				"y": 4.5071292616,
				"z": 1.2757453243,
				"element": "H" 
			},
			{
				"x": 0.0191694982,
				"y": 4.1077419205,
				"z": -0.9404327207,
				"element": "H" 
			},
			{
				"x": 1.2941796844,
				"y": 2.7503293334,
				"z": -2.2863371497,
				"element": "H" 
			},
			{
				"x": 2.5682518464,
				"y": 0.5423089471,
				"z": -1.3728672354,
				"element": "H" 
			},
			{
				"x": 2.5128955791,
				"y": 1.0910149286,
				"z": -3.0441678165,
				"element": "H" 
			},
			{
				"x": 2.797919126,
				"y": -1.7954787557,
				"z": -2.0063582719,
				"element": "H" 
			},
			{
				"x": 1.7089799429,
				"y": -3.8915061939,
				"z": -2.7615685294,
				"element": "H" 
			},
			{
				"x": -1.7145695946,
				"y": -1.6410696713,
				"z": -4.0592170792,
				"element": "H" 
			},
			{
				"x": -0.6108138415,
				"y": 0.462435298,
				"z": -3.2984500576,
				"element": "H" 
			},
			{
				"x": 0.7216891977,
				"y": -0.0489786704,
				"z": 0.0350200105,
				"element": "H" 
			}
		],
		 "valence_orbital": [ 
			{
				"type": "occ",
				"energy": -0.25716,
				"method": "rhf"
			},
			{
				"type": "occ",
				"energy": -0.25407,
				"method": "rhf"
			},
			{
				"type": "occ",
				"energy": -0.235,
				"method": "rhf"
			},
			{
				"type": "occ",
				"energy": -0.21098,
				"method": "rhf"
			},
			{
				"type": "occ",
				"energy": -0.18542,
				"method": "rhf"
			},
			{
				"type": "unocc",
				"energy": -0.01181,
				"method": "rhf"
			},
			{
				"type": "unocc",
				"energy": -0.00727,
				"method": "rhf"
			},
			{
				"type": "unocc",
				"energy": -0.00509,
				"method": "rhf"
			},
			{
				"type": "unocc",
				"energy": 0.01938,
				"method": "rhf"
			},
			{
				"type": "unocc",
				"energy": 0.0342,
				"method": "rhf"
			}
		],
		"cosmo_sigma_profile": { 
			"-0.025": 0.0,
			"-0.024": 0.0,
			"-0.023": 0.0,
			"-0.022": 0.0,
			"-0.021": 0.0,
			"-0.02": 0.0,
			"-0.019": 0.0,
			"-0.018": 0.0,
			"-0.017": 0.225921263807,
			"-0.016": 1.53910278492,
			"-0.015": 1.58250467663,
			"-0.014": 0.901132961097,
			"-0.013": 1.42003255092,
			"-0.012": 2.74136158768,
			"-0.011": 2.75408410155,
			"-0.01": 2.82841731472,
			"-0.009": 2.33118099136,
			"-0.008": 2.54875466239,
			"-0.007": 9.19838375792,
			"-0.006": 17.3699905679,
			"-0.005": 18.4381177339,
			"-0.004": 22.6723225289,
			"-0.003": 21.7358832475,
			"-0.002": 24.2796262458,
			"-0.001": 17.483082316,
			"0.0": 17.0050469051,
			"0.001": 20.1657132957,
			"0.002": 27.1995341099,
			"0.003": 27.6010916001,
			"0.004": 32.7749415413,
			"0.005": 26.4891114991,
			"0.006": 17.0761724026,
			"0.007": 7.19171159023,
			"0.008": 3.28368165477,
			"0.009": 1.53314181702,
			"0.01": 0.992603675248,
			"0.011": 1.35298102034,
			"0.012": 1.43050589259,
			"0.013": 0.9020281337,
			"0.014": 0.889598874064,
			"0.015": 0.60060864664,
			"0.016": 0.313957383671,
			"0.017": 0.0,
			"0.018": 0.0,
			"0.019": 0.0,
			"0.02": 0.0,
			"0.021": 0.0,
			"0.022": 0.0,
			"0.023": 0.0,
			"0.024": 0.0,
			"0.025": 0.0
		}
	}
}
