{
	 "smiles": "CCCCCCCCCCC(=O)OCC", 
	 "Tm": 258.15, 
	 "num_atms": 41, 
	 "gaussian": { 
		 "optdone": 1, 
		 "sigma_profile": "yes", 
		 "theory": "DFT", 
		 "functional": "B3LYP", 
		 "basiset": "6-31G**", 
		 "properties": { 
			 "R2extent": 4864.78, 
			 "electric_dipole_moment_norm": 1.91291415646, 
			 "electric_quadrupole_moment_norm": 7.6551635234, 
			 "total_energy": -661.547690759, 
			 "HOMO_LUMO_gap": 0.27684, 
			 "cosmo_polarized_energy": -6.59, 
			 "cosmo_cavitation_energy": 41.73, 
			 "cosmo_dispersion_energy": -26.48, 
			 "cosmo_repulsion_energy": 2.14, 
			 "cosmo_total_nonelectrostatic_energy": 17.4, 
			 "SMD_solvation_energy": 6.77 
		},
		"coords": [
			{
				"x": -4.100813047,
				"y": -1.9146727877,
				"z": 1.0409323837,
				"element": "C" 
			},
			{
				"x": -3.8839763073,
				"y": -1.6512575994,
				"z": -0.4526084579,
				"element": "C" 
			},
			{
				"x": -2.8451342844,
				"y": -0.5574100985,
				"z": -0.7330421179,
				"element": "C" 
			},
			{
				"x": -2.6494115745,
				"y": -0.2822828706,
				"z": -2.2320676789,
				"element": "C" 
			},
			{
				"x": -1.6585421771,
				"y": 0.8491500078,
				"z": -2.5828580255,
				"element": "C" 
			},
			{
				"x": -0.1845204228,
				"y": 0.4412129956,
				"z": -2.7595594464,
				"element": "C" 
			},
			{
				"x": 0.5492178751,
				"y": -0.0436356216,
				"z": -1.5003448428,
				"element": "C" 
			},
			{
				"x": 2.0453985455,
				"y": -0.2798179211,
				"z": -1.7580579658,
				"element": "C" 
			},
			{
				"x": 2.842855324,
				"y": -0.8710884049,
				"z": -0.5837658715,
				"element": "C" 
			},
			{
				"x": 3.0041255123,
				"y": 0.0557792359,
				"z": 0.6392926866,
				"element": "C" 
			},
			{
				"x": 1.7732372241,
				"y": 0.2238814543,
				"z": 1.5096698168,
				"element": "C" 
			},
			{
				"x": 1.2842117169,
				"y": 1.2845104529,
				"z": 1.8390210603,
				"element": "O" 
			},
			{
				"x": 1.2914068371,
				"y": -0.9734990241,
				"z": 1.9168513994,
				"element": "O" 
			},
			{
				"x": 0.1340649614,
				"y": -0.927952697,
				"z": 2.78200824,
				"element": "C" 
			},
			{
				"x": -0.2010859714,
				"y": -2.3552669888,
				"z": 3.1715815387,
				"element": "C" 
			},
			{
				"x": -4.8509757288,
				"y": -2.6949918029,
				"z": 1.2068541465,
				"element": "H" 
			},
			{
				"x": -3.1724431071,
				"y": -2.2400130237,
				"z": 1.5250889395,
				"element": "H" 
			},
			{
				"x": -4.442276078,
				"y": -1.0102157058,
				"z": 1.5574529506,
				"element": "H" 
			},
			{
				"x": -3.5727857838,
				"y": -2.5818641047,
				"z": -0.9469067765,
				"element": "H" 
			},
			{
				"x": -4.8392665283,
				"y": -1.3687044425,
				"z": -0.9159797662,
				"element": "H" 
			},
			{
				"x": -3.1580256032,
				"y": 0.3731015844,
				"z": -0.2378890863,
				"element": "H" 
			},
			{
				"x": -1.8920933322,
				"y": -0.8395368465,
				"z": -0.2682784196,
				"element": "H" 
			},
			{
				"x": -2.3398769518,
				"y": -1.2080989013,
				"z": -2.7385969048,
				"element": "H" 
			},
			{
				"x": -3.6316582681,
				"y": -0.0298050739,
				"z": -2.6539377009,
				"element": "H" 
			},
			{
				"x": -1.7298117735,
				"y": 1.6438758556,
				"z": -1.8268694983,
				"element": "H" 
			},
			{
				"x": -1.9809860439,
				"y": 1.3078344595,
				"z": -3.5261505642,
				"element": "H" 
			},
			{
				"x": -0.1210774951,
				"y": -0.3367348736,
				"z": -3.534436541,
				"element": "H" 
			},
			{
				"x": 0.3598776133,
				"y": 1.3073466711,
				"z": -3.1613426664,
				"element": "H" 
			},
			{
				"x": 0.4167761754,
				"y": 0.6982410577,
				"z": -0.7031682577,
				"element": "H" 
			},
			{
				"x": 0.1009688327,
				"y": -0.9772689693,
				"z": -1.1373761318,
				"element": "H" 
			},
			{
				"x": 2.5116226928,
				"y": 0.6665082514,
				"z": -2.0679463635,
				"element": "H" 
			},
			{
				"x": 2.1500301041,
				"y": -0.9599216863,
				"z": -2.6147071178,
				"element": "H" 
			},
			{
				"x": 2.3907888648,
				"y": -1.8148176398,
				"z": -0.2577983337,
				"element": "H" 
			},
			{
				"x": 3.8491541816,
				"y": -1.1184464587,
				"z": -0.9426837954,
				"element": "H" 
			},
			{
				"x": 3.3185452,
				"y": 1.0579851208,
				"z": 0.3352131021,
				"element": "H" 
			},
			{
				"x": 3.7892915657,
				"y": -0.3537336428,
				"z": 1.2876589555,
				"element": "H" 
			},
			{
				"x": -0.6893128396,
				"y": -0.4446120109,
				"z": 2.2461899468,
				"element": "H" 
			},
			{
				"x": 0.3672619948,
				"y": -0.3069715167,
				"z": 3.6525104538,
				"element": "H" 
			},
			{
				"x": -0.4268005198,
				"y": -2.9600187319,
				"z": 2.2882569008,
				"element": "H" 
			},
			{
				"x": 0.633221731,
				"y": -2.822449221,
				"z": 3.7029350396,
				"element": "H" 
			},
			{
				"x": -1.0763831148,
				"y": -2.3657384811,
				"z": 3.8286547699,
				"element": "H" 
			}
		],
		 "valence_orbital": [ 
			{
				"type": "occ",
				"energy": -0.31345,
				"method": "rhf"
			},
			{
				"type": "occ",
				"energy": -0.29967,
				"method": "rhf"
			},
			{
				"type": "occ",
				"energy": -0.29825,
				"method": "rhf"
			},
			{
				"type": "occ",
				"energy": -0.29361,
				"method": "rhf"
			},
			{
				"type": "occ",
				"energy": -0.26086,
				"method": "rhf"
			},
			{
				"type": "unocc",
				"energy": 0.01598,
				"method": "rhf"
			},
			{
				"type": "unocc",
				"energy": 0.06436,
				"method": "rhf"
			},
			{
				"type": "unocc",
				"energy": 0.08987,
				"method": "rhf"
			},
			{
				"type": "unocc",
				"energy": 0.098,
				"method": "rhf"
			},
			{
				"type": "unocc",
				"energy": 0.11054,
				"method": "rhf"
			}
		],
		"cosmo_sigma_profile": { 
			"-0.025": 0.0,
			"-0.024": 0.0,
			"-0.023": 0.0,
			"-0.022": 0.0,
			"-0.021": 0.0,
			"-0.02": 0.0,
			"-0.019": 0.0,
			"-0.018": 0.0,
			"-0.017": 0.0,
			"-0.016": 0.0,
			"-0.015": 0.0,
			"-0.014": 0.0,
			"-0.013": 0.0,
			"-0.012": 0.0,
			"-0.011": 0.0,
			"-0.01": 0.0,
			"-0.009": 0.0,
			"-0.008": 0.0,
			"-0.007": 0.0,
			"-0.006": 1.45584302771,
			"-0.005": 4.91678789552,
			"-0.004": 13.5510423463,
			"-0.003": 22.6461020676,
			"-0.002": 49.0633994814,
			"-0.001": 70.2267408096,
			"0.0": 63.5332586441,
			"0.001": 44.30237339,
			"0.002": 19.639324681,
			"0.003": 4.87386146559,
			"0.004": 3.57921368761,
			"0.005": 2.97567359882,
			"0.006": 2.9669041956,
			"0.007": 2.2773201072,
			"0.008": 2.14677393706,
			"0.009": 1.57640115892,
			"0.01": 1.08221924861,
			"0.011": 2.59124745345,
			"0.012": 4.17804218055,
			"0.013": 2.87169586194,
			"0.014": 0.300484309497,
			"0.015": 0.0,
			"0.016": 0.0,
			"0.017": 0.0,
			"0.018": 0.0,
			"0.019": 0.0,
			"0.02": 0.0,
			"0.021": 0.0,
			"0.022": 0.0,
			"0.023": 0.0,
			"0.024": 0.0,
			"0.025": 0.0
		}
	}
}
