{
	 "smiles": "NC(=O)C1=NC=CN=C1C(N)=O", 
	 "Tm": 541.0, 
	 "num_atms": 18, 
	 "gaussian": { 
		 "optdone": 1, 
		 "sigma_profile": "yes", 
		 "theory": "DFT", 
		 "functional": "B3LYP", 
		 "basiset": "6-31G**", 
		 "properties": { 
			 "R2extent": 2674.1769, 
			 "electric_dipole_moment_norm": 4.67408690334, 
			 "electric_quadrupole_moment_norm": 18.4112029436, 
			 "total_energy": -601.720686, 
			 "HOMO_LUMO_gap": 0.1739, 
			 "cosmo_polarized_energy": -21.99, 
			 "cosmo_cavitation_energy": 23.49, 
			 "cosmo_dispersion_energy": -17.41, 
			 "cosmo_repulsion_energy": 1.43, 
			 "cosmo_total_nonelectrostatic_energy": 7.51, 
			 "SMD_solvation_energy": 3.62 
		},
		"coords": [
			{
				"x": 0.5877897076,
				"y": 2.7832510767,
				"z": 2.3975168426,
				"element": "N" 
			},
			{
				"x": 0.820638445,
				"y": 1.6756167753,
				"z": 1.6402059301,
				"element": "C" 
			},
			{
				"x": 1.7861539303,
				"y": 1.5193878224,
				"z": 0.9103624628,
				"element": "O" 
			},
			{
				"x": -0.275640014,
				"y": 0.6309916287,
				"z": 1.7268162823,
				"element": "C" 
			},
			{
				"x": -1.5272580847,
				"y": 1.0906567097,
				"z": 1.8389791977,
				"element": "N" 
			},
			{
				"x": -2.5277421801,
				"y": 0.2145370106,
				"z": 1.69852308,
				"element": "C" 
			},
			{
				"x": -2.2802687686,
				"y": -1.1225967609,
				"z": 1.3952088743,
				"element": "C" 
			},
			{
				"x": -1.0335695938,
				"y": -1.60411963,
				"z": 1.3487541386,
				"element": "N" 
			},
			{
				"x": -0.0263640883,
				"y": -0.7478092231,
				"z": 1.5553290763,
				"element": "C" 
			},
			{
				"x": 1.3490190532,
				"y": -1.3583719039,
				"z": 1.7452529588,
				"element": "C" 
			},
			{
				"x": 1.5685582433,
				"y": -2.4688730622,
				"z": 0.9881650926,
				"element": "N" 
			},
			{
				"x": 2.1416185511,
				"y": -0.893049044,
				"z": 2.5481036467,
				"element": "O" 
			},
			{
				"x": -0.3393698634,
				"y": 2.935671884,
				"z": 2.7652925334,
				"element": "H" 
			},
			{
				"x": 1.193469859,
				"y": 3.5767470525,
				"z": 2.2509336698,
				"element": "H" 
			},
			{
				"x": -3.5410119149,
				"y": 0.5917057969,
				"z": 1.8137011713,
				"element": "H" 
			},
			{
				"x": -3.0919865658,
				"y": -1.8202275706,
				"z": 1.2037361945,
				"element": "H" 
			},
			{
				"x": 2.3940124677,
				"y": -3.0110105175,
				"z": 1.1947621325,
				"element": "H" 
			},
			{
				"x": 0.7813508165,
				"y": -2.9225080447,
				"z": 0.5492567157,
				"element": "H" 
			}
		],
		 "valence_orbital": [ 
			{
				"type": "occ",
				"energy": -0.28808,
				"method": "rhf"
			},
			{
				"type": "occ",
				"energy": -0.27126,
				"method": "rhf"
			},
			{
				"type": "occ",
				"energy": -0.26403,
				"method": "rhf"
			},
			{
				"type": "occ",
				"energy": -0.24899,
				"method": "rhf"
			},
			{
				"type": "occ",
				"energy": -0.24593,
				"method": "rhf"
			},
			{
				"type": "unocc",
				"energy": -0.07203,
				"method": "rhf"
			},
			{
				"type": "unocc",
				"energy": -0.06483,
				"method": "rhf"
			},
			{
				"type": "unocc",
				"energy": 0.04061,
				"method": "rhf"
			},
			{
				"type": "unocc",
				"energy": 0.04411,
				"method": "rhf"
			},
			{
				"type": "unocc",
				"energy": 0.08917,
				"method": "rhf"
			}
		],
		"cosmo_sigma_profile": { 
			"-0.025": 0.0,
			"-0.024": 0.0,
			"-0.023": 0.0,
			"-0.022": 0.0,
			"-0.021": 0.0,
			"-0.02": 0.0,
			"-0.019": 0.0,
			"-0.018": 0.0,
			"-0.017": 0.0,
			"-0.016": 0.0,
			"-0.015": 0.424601058807,
			"-0.014": 2.45407864035,
			"-0.013": 3.69765856837,
			"-0.012": 3.89258296627,
			"-0.011": 3.84298538924,
			"-0.01": 4.66986210531,
			"-0.009": 6.02591491558,
			"-0.008": 8.19967068388,
			"-0.007": 6.74968287576,
			"-0.006": 7.13209596376,
			"-0.005": 5.72534985238,
			"-0.004": 9.1315483778,
			"-0.003": 10.8762529471,
			"-0.002": 15.0287703388,
			"-0.001": 10.3910763005,
			"0.0": 10.3811587499,
			"0.001": 8.56627709263,
			"0.002": 6.88873771941,
			"0.003": 6.41020269728,
			"0.004": 5.28786208878,
			"0.005": 6.4567558084,
			"0.006": 5.87516046769,
			"0.007": 4.14826797284,
			"0.008": 3.76893670557,
			"0.009": 4.04097309381,
			"0.01": 2.38624753604,
			"0.011": 3.67674172223,
			"0.012": 5.78659418091,
			"0.013": 12.4939167346,
			"0.014": 3.49864671417,
			"0.015": 0.0288030528145,
			"0.016": 0.0,
			"0.017": 0.0,
			"0.018": 0.0,
			"0.019": 0.0,
			"0.02": 0.0,
			"0.021": 0.0,
			"0.022": 0.0,
			"0.023": 0.0,
			"0.024": 0.0,
			"0.025": 0.0
		}
	}
}
