{
	 "smiles": "COC1=CC=C(C=C1)C1=CC=C(C=C1)S(=O)(=O)NCCC(O)=O", 
	 "Tm": 462.65, 
	 "num_atms": 40, 
	 "gaussian": { 
		 "optdone": 1, 
		 "sigma_profile": "yes", 
		 "theory": "DFT", 
		 "functional": "B3LYP", 
		 "basiset": "6-31G**", 
		 "properties": { 
			 "R2extent": 13938.6077, 
			 "electric_dipole_moment_norm": 5.80550597709, 
			 "electric_quadrupole_moment_norm": 39.0196320523, 
			 "total_energy": -1448.94023436, 
			 "HOMO_LUMO_gap": 0.17041, 
			 "cosmo_polarized_energy": -29.83, 
			 "cosmo_cavitation_energy": 46.56, 
			 "cosmo_dispersion_energy": -33.18, 
			 "cosmo_repulsion_energy": 2.51, 
			 "cosmo_total_nonelectrostatic_energy": 15.88, 
			 "SMD_solvation_energy": 8.1 
		},
		"coords": [
			{
				"x": 5.3929004646,
				"y": 4.8306946983,
				"z": 1.3836725859,
				"element": "C" 
			},
			{
				"x": 5.7011869128,
				"y": 3.6049133719,
				"z": 0.7367355193,
				"element": "O" 
			},
			{
				"x": 4.7278805286,
				"y": 2.6563616807,
				"z": 0.6504293742,
				"element": "C" 
			},
			{
				"x": 5.0947261757,
				"y": 1.4608125083,
				"z": 0.0128358899,
				"element": "C" 
			},
			{
				"x": 4.1744809562,
				"y": 0.4330893225,
				"z": -0.1272411629,
				"element": "C" 
			},
			{
				"x": 2.8593384076,
				"y": 0.5541646928,
				"z": 0.3635110452,
				"element": "C" 
			},
			{
				"x": 2.5124673566,
				"y": 1.7550579408,
				"z": 0.9983123159,
				"element": "C" 
			},
			{
				"x": 3.4255472984,
				"y": 2.8000310041,
				"z": 1.1445086545,
				"element": "C" 
			},
			{
				"x": 1.8786428236,
				"y": -0.5464732803,
				"z": 0.2132402684,
				"element": "C" 
			},
			{
				"x": 1.8675334937,
				"y": -1.3524985885,
				"z": -0.9425937389,
				"element": "C" 
			},
			{
				"x": 0.9503555673,
				"y": -2.3860535175,
				"z": -1.092346208,
				"element": "C" 
			},
			{
				"x": 0.0188055236,
				"y": -2.6229679952,
				"z": -0.0779310368,
				"element": "C" 
			},
			{
				"x": 0.0085880719,
				"y": -1.8488855336,
				"z": 1.0829138835,
				"element": "C" 
			},
			{
				"x": 0.9364515563,
				"y": -0.8189277346,
				"z": 1.2208375147,
				"element": "C" 
			},
			{
				"x": -1.1582584674,
				"y": -3.9560713603,
				"z": -0.2596476476,
				"element": "S" 
			},
			{
				"x": -1.8144114379,
				"y": -4.1491808949,
				"z": 1.0394818296,
				"element": "O" 
			},
			{
				"x": -0.5292859073,
				"y": -5.0767119915,
				"z": -0.9657329999,
				"element": "O" 
			},
			{
				"x": -2.2496833953,
				"y": -3.3127229953,
				"z": -1.3949126476,
				"element": "N" 
			},
			{
				"x": -3.3137307773,
				"y": -2.440827489,
				"z": -0.8745473999,
				"element": "C" 
			},
			{
				"x": -4.0801922713,
				"y": -1.830086412,
				"z": -2.0466060603,
				"element": "C" 
			},
			{
				"x": -5.0978975834,
				"y": -0.7951133515,
				"z": -1.5824470805,
				"element": "C" 
			},
			{
				"x": -5.8983923125,
				"y": -0.2868459708,
				"z": -2.556440869,
				"element": "O" 
			},
			{
				"x": -5.2098573305,
				"y": -0.414970118,
				"z": -0.4447210858,
				"element": "O" 
			},
			{
				"x": 6.3048716642,
				"y": 5.4281098621,
				"z": 1.3462978117,
				"element": "H" 
			},
			{
				"x": 4.587681321,
				"y": 5.3691079841,
				"z": 0.8677468032,
				"element": "H" 
			},
			{
				"x": 5.1065014983,
				"y": 4.6739605905,
				"z": 2.4313961333,
				"element": "H" 
			},
			{
				"x": 6.1109471961,
				"y": 1.3605233338,
				"z": -0.353903419,
				"element": "H" 
			},
			{
				"x": 4.4878316962,
				"y": -0.493204427,
				"z": -0.5994022664,
				"element": "H" 
			},
			{
				"x": 1.4993654186,
				"y": 1.8943514665,
				"z": 1.363872034,
				"element": "H" 
			},
			{
				"x": 3.1100624442,
				"y": 3.7151091853,
				"z": 1.631268634,
				"element": "H" 
			},
			{
				"x": 2.5737941104,
				"y": -1.1499564376,
				"z": -1.7415154327,
				"element": "H" 
			},
			{
				"x": 0.9516512029,
				"y": -3.0051488477,
				"z": -1.9829866462,
				"element": "H" 
			},
			{
				"x": -0.7022567679,
				"y": -2.0727427119,
				"z": 1.8707030403,
				"element": "H" 
			},
			{
				"x": 0.9497715749,
				"y": -0.2373419852,
				"z": 2.1370633613,
				"element": "H" 
			},
			{
				"x": -2.5949439022,
				"y": -4.1081096004,
				"z": -1.9307902955,
				"element": "H" 
			},
			{
				"x": -2.847846781,
				"y": -1.6369833256,
				"z": -0.2992175521,
				"element": "H" 
			},
			{
				"x": -3.9971515644,
				"y": -2.9635309283,
				"z": -0.1961005393,
				"element": "H" 
			},
			{
				"x": -4.6002082276,
				"y": -2.6097219435,
				"z": -2.6212737116,
				"element": "H" 
			},
			{
				"x": -3.3770005336,
				"y": -1.3500307798,
				"z": -2.7397127274,
				"element": "H" 
			},
			{
				"x": -5.6878660043,
				"y": -0.6871794217,
				"z": -3.4120561718,
				"element": "H" 
			}
		],
		 "valence_orbital": [ 
			{
				"type": "occ",
				"energy": -0.28156,
				"method": "rhf"
			},
			{
				"type": "occ",
				"energy": -0.26962,
				"method": "rhf"
			},
			{
				"type": "occ",
				"energy": -0.26468,
				"method": "rhf"
			},
			{
				"type": "occ",
				"energy": -0.26154,
				"method": "rhf"
			},
			{
				"type": "occ",
				"energy": -0.21948,
				"method": "rhf"
			},
			{
				"type": "unocc",
				"energy": -0.04907,
				"method": "rhf"
			},
			{
				"type": "unocc",
				"energy": -0.0203,
				"method": "rhf"
			},
			{
				"type": "unocc",
				"energy": -0.01179,
				"method": "rhf"
			},
			{
				"type": "unocc",
				"energy": -9e-05,
				"method": "rhf"
			},
			{
				"type": "unocc",
				"energy": 0.01513,
				"method": "rhf"
			}
		],
		"cosmo_sigma_profile": { 
			"-0.025": 0.0,
			"-0.024": 0.0,
			"-0.023": 0.0,
			"-0.022": 0.0,
			"-0.021": 0.0,
			"-0.02": 0.0926075284737,
			"-0.019": 0.735566611598,
			"-0.018": 1.08314042132,
			"-0.017": 1.39755589338,
			"-0.016": 1.30345808108,
			"-0.015": 1.23018914091,
			"-0.014": 1.86933982593,
			"-0.013": 2.35197228337,
			"-0.012": 3.0717091257,
			"-0.011": 2.87560106164,
			"-0.01": 2.43379132247,
			"-0.009": 3.21214141518,
			"-0.008": 5.70313530548,
			"-0.007": 11.0971651287,
			"-0.006": 25.7018436973,
			"-0.005": 30.2395509359,
			"-0.004": 28.3822677917,
			"-0.003": 24.1325028178,
			"-0.002": 16.8587553613,
			"-0.001": 16.1230628467,
			"0.0": 18.2503890467,
			"0.001": 18.772446098,
			"0.002": 24.4837537871,
			"0.003": 28.1459348409,
			"0.004": 17.4304975737,
			"0.005": 15.6205678559,
			"0.006": 6.29902162448,
			"0.007": 7.5153104308,
			"0.008": 7.82522331049,
			"0.009": 8.94698879781,
			"0.01": 12.7243470196,
			"0.011": 14.7185584896,
			"0.012": 8.41243115265,
			"0.013": 1.09145441143,
			"0.014": 0.0,
			"0.015": 0.0,
			"0.016": 0.0,
			"0.017": 0.0,
			"0.018": 0.0,
			"0.019": 0.0,
			"0.02": 0.0,
			"0.021": 0.0,
			"0.022": 0.0,
			"0.023": 0.0,
			"0.024": 0.0,
			"0.025": 0.0
		}
	}
}
