{
	 "smiles": "NC1=CC=C(N)C2=CC=CC=C12", 
	 "Tm": 393.15, 
	 "num_atms": 22, 
	 "gaussian": { 
		 "optdone": 1, 
		 "sigma_profile": "yes", 
		 "theory": "DFT", 
		 "functional": "B3LYP", 
		 "basiset": "6-31G**", 
		 "properties": { 
			 "R2extent": 2260.9649, 
			 "electric_dipole_moment_norm": 0.789643140919, 
			 "electric_quadrupole_moment_norm": 13.8017431174, 
			 "total_energy": -496.60553304, 
			 "HOMO_LUMO_gap": 0.1469, 
			 "cosmo_polarized_energy": -12.6, 
			 "cosmo_cavitation_energy": 24.8, 
			 "cosmo_dispersion_energy": -18.88, 
			 "cosmo_repulsion_energy": 1.48, 
			 "cosmo_total_nonelectrostatic_energy": 7.4, 
			 "SMD_solvation_energy": 3.83 
		},
		"coords": [
			{
				"x": -1.8503322774,
				"y": -0.4789942772,
				"z": 3.0786274949,
				"element": "N" 
			},
			{
				"x": -1.1314100506,
				"y": -0.0691176538,
				"z": 1.9363591229,
				"element": "C" 
			},
			{
				"x": -0.04703841,
				"y": 0.7818862848,
				"z": 2.0259163237,
				"element": "C" 
			},
			{
				"x": 0.6235439096,
				"y": 1.2481751445,
				"z": 0.8744957024,
				"element": "C" 
			},
			{
				"x": 0.2652901675,
				"y": 0.8269633598,
				"z": -0.3913312638,
				"element": "C" 
			},
			{
				"x": 0.9788312776,
				"y": 1.2320398026,
				"z": -1.5386782897,
				"element": "N" 
			},
			{
				"x": -0.8301751977,
				"y": -0.0895869375,
				"z": -0.5266454504,
				"element": "C" 
			},
			{
				"x": -1.2215136635,
				"y": -0.6065496342,
				"z": -1.7900876724,
				"element": "C" 
			},
			{
				"x": -2.3123467964,
				"y": -1.4395621605,
				"z": -1.9192136163,
				"element": "C" 
			},
			{
				"x": -3.073195377,
				"y": -1.7883268789,
				"z": -0.7820505341,
				"element": "C" 
			},
			{
				"x": -2.7006110624,
				"y": -1.3306846738,
				"z": 0.4638442861,
				"element": "C" 
			},
			{
				"x": -1.5626966283,
				"y": -0.4989499694,
				"z": 0.637267229,
				"element": "C" 
			},
			{
				"x": -2.0517717861,
				"y": -1.472412289,
				"z": 3.0926830235,
				"element": "H" 
			},
			{
				"x": -1.3848946266,
				"y": -0.2190543633,
				"z": 3.9397781935,
				"element": "H" 
			},
			{
				"x": 0.2937111384,
				"y": 1.1147135807,
				"z": 3.0037814085,
				"element": "H" 
			},
			{
				"x": 1.4502818934,
				"y": 1.9449098591,
				"z": 0.9935259903,
				"element": "H" 
			},
			{
				"x": 1.6438706206,
				"y": 1.9690126156,
				"z": -1.3377356654,
				"element": "H" 
			},
			{
				"x": 0.3801940889,
				"y": 1.5198510641,
				"z": -2.3044827328,
				"element": "H" 
			},
			{
				"x": -0.6290352869,
				"y": -0.3610988254,
				"z": -2.6655909147,
				"element": "H" 
			},
			{
				"x": -2.5882334724,
				"y": -1.8264239539,
				"z": -2.8960700676,
				"element": "H" 
			},
			{
				"x": -3.9511004101,
				"y": -2.4190494305,
				"z": -0.8892742462,
				"element": "H" 
			},
			{
				"x": -3.3033680507,
				"y": -1.5852406639,
				"z": 1.3296816787,
				"element": "H" 
			}
		],
		 "valence_orbital": [ 
			{
				"type": "occ",
				"energy": -0.32038,
				"method": "rhf"
			},
			{
				"type": "occ",
				"energy": -0.25783,
				"method": "rhf"
			},
			{
				"type": "occ",
				"energy": -0.2442,
				"method": "rhf"
			},
			{
				"type": "occ",
				"energy": -0.23388,
				"method": "rhf"
			},
			{
				"type": "occ",
				"energy": -0.16951,
				"method": "rhf"
			},
			{
				"type": "unocc",
				"energy": -0.02261,
				"method": "rhf"
			},
			{
				"type": "unocc",
				"energy": -0.00059,
				"method": "rhf"
			},
			{
				"type": "unocc",
				"energy": 0.06025,
				"method": "rhf"
			},
			{
				"type": "unocc",
				"energy": 0.08213,
				"method": "rhf"
			},
			{
				"type": "unocc",
				"energy": 0.08811,
				"method": "rhf"
			}
		],
		"cosmo_sigma_profile": { 
			"-0.025": 0.0,
			"-0.024": 0.0,
			"-0.023": 0.0,
			"-0.022": 0.0,
			"-0.021": 0.0,
			"-0.02": 0.0,
			"-0.019": 0.0,
			"-0.018": 0.0,
			"-0.017": 0.0,
			"-0.016": 0.0,
			"-0.015": 0.0,
			"-0.014": 0.0,
			"-0.013": 0.0,
			"-0.012": 1.04562296843,
			"-0.011": 5.15920255574,
			"-0.01": 5.49702158861,
			"-0.009": 6.05283435888,
			"-0.008": 6.92323300525,
			"-0.007": 5.1379582756,
			"-0.006": 8.80292982308,
			"-0.005": 12.2860080638,
			"-0.004": 12.7547358073,
			"-0.003": 12.9239659918,
			"-0.002": 9.31781715139,
			"-0.001": 8.95637857861,
			"0.0": 8.21723838997,
			"0.001": 8.01971475912,
			"0.002": 8.56760530204,
			"0.003": 8.35945130838,
			"0.004": 11.1717964072,
			"0.005": 20.4095948544,
			"0.006": 17.8591485635,
			"0.007": 7.01457818435,
			"0.008": 2.0401142063,
			"0.009": 1.64149731578,
			"0.01": 1.78419033396,
			"0.011": 1.1939688091,
			"0.012": 1.69030151897,
			"0.013": 1.09264080598,
			"0.014": 0.732864985674,
			"0.015": 1.5756287765,
			"0.016": 0.766740918472,
			"0.017": 0.039427339809,
			"0.018": 0.0,
			"0.019": 0.0,
			"0.02": 0.0,
			"0.021": 0.0,
			"0.022": 0.0,
			"0.023": 0.0,
			"0.024": 0.0,
			"0.025": 0.0
		}
	}
}
