{
	 "smiles": "CC1=CC(=C(C)C=C1)S(=O)(=O)N1CCNCC1", 
	 "Tm": 382.15, 
	 "num_atms": 35, 
	 "gaussian": { 
		 "optdone": 1, 
		 "sigma_profile": "yes", 
		 "theory": "DFT", 
		 "functional": "B3LYP", 
		 "basiset": "6-31G**", 
		 "properties": { 
			 "R2extent": 4979.8572, 
			 "electric_dipole_moment_norm": 4.11489501446, 
			 "electric_quadrupole_moment_norm": 21.5634430959, 
			 "total_energy": -1126.18989956, 
			 "HOMO_LUMO_gap": 0.19452, 
			 "cosmo_polarized_energy": -14.3, 
			 "cosmo_cavitation_energy": 36.75, 
			 "cosmo_dispersion_energy": -26.16, 
			 "cosmo_repulsion_energy": 1.97, 
			 "cosmo_total_nonelectrostatic_energy": 12.56, 
			 "SMD_solvation_energy": 2.56 
		},
		"coords": [
			{
				"x": 4.2199245787,
				"y": -0.4797499494,
				"z": 2.3832380378,
				"element": "C" 
			},
			{
				"x": 2.8795698737,
				"y": -0.9867790894,
				"z": 1.9063710756,
				"element": "C" 
			},
			{
				"x": 1.7138846804,
				"y": -0.2400709859,
				"z": 2.1087790669,
				"element": "C" 
			},
			{
				"x": 0.4781260351,
				"y": -0.6962204662,
				"z": 1.644522377,
				"element": "C" 
			},
			{
				"x": 0.3407740183,
				"y": -1.9253633423,
				"z": 0.9674129273,
				"element": "C" 
			},
			{
				"x": -0.9738962309,
				"y": -2.4667168533,
				"z": 0.4630501517,
				"element": "C" 
			},
			{
				"x": 1.5190686911,
				"y": -2.6573696058,
				"z": 0.7755181999,
				"element": "C" 
			},
			{
				"x": 2.7569705061,
				"y": -2.2056059517,
				"z": 1.2316392106,
				"element": "C" 
			},
			{
				"x": -0.9440635297,
				"y": 0.3430954452,
				"z": 2.0271439102,
				"element": "S" 
			},
			{
				"x": -2.0339566454,
				"y": -0.482725486,
				"z": 2.562073766,
				"element": "O" 
			},
			{
				"x": -0.4534818257,
				"y": 1.4908451607,
				"z": 2.8054528986,
				"element": "O" 
			},
			{
				"x": -1.4371402288,
				"y": 0.8404457731,
				"z": 0.4771415049,
				"element": "N" 
			},
			{
				"x": -2.8727351167,
				"y": 1.1325046261,
				"z": 0.3135266418,
				"element": "C" 
			},
			{
				"x": -3.2117600205,
				"y": 0.9838853712,
				"z": -1.1936735056,
				"element": "C" 
			},
			{
				"x": -2.0790802042,
				"y": 1.2770898825,
				"z": -2.0834700614,
				"element": "N" 
			},
			{
				"x": -1.2084487274,
				"y": 2.2922402921,
				"z": -1.5004145898,
				"element": "C" 
			},
			{
				"x": -0.5696638866,
				"y": 1.8613598319,
				"z": -0.1499502262,
				"element": "C" 
			},
			{
				"x": 4.8844499424,
				"y": -1.3052108346,
				"z": 2.6554681871,
				"element": "H" 
			},
			{
				"x": 4.7254690539,
				"y": 0.101052425,
				"z": 1.6016044253,
				"element": "H" 
			},
			{
				"x": 4.1128386158,
				"y": 0.1718078456,
				"z": 3.2550449525,
				"element": "H" 
			},
			{
				"x": 1.7503178574,
				"y": 0.7055548288,
				"z": 2.6392914325,
				"element": "H" 
			},
			{
				"x": -1.6828025324,
				"y": -2.6080213492,
				"z": 1.2827547647,
				"element": "H" 
			},
			{
				"x": -0.8216803812,
				"y": -3.4225681981,
				"z": -0.0442749672,
				"element": "H" 
			},
			{
				"x": -1.4401618785,
				"y": -1.768716105,
				"z": -0.2393892959,
				"element": "H" 
			},
			{
				"x": 1.4583049828,
				"y": -3.6125131361,
				"z": 0.260579587,
				"element": "H" 
			},
			{
				"x": 3.6407487556,
				"y": -2.8161572547,
				"z": 1.0628485447,
				"element": "H" 
			},
			{
				"x": -3.4455749572,
				"y": 0.4299450881,
				"z": 0.9193560669,
				"element": "H" 
			},
			{
				"x": -3.1057148095,
				"y": 2.1471341004,
				"z": 0.6700924706,
				"element": "H" 
			},
			{
				"x": -4.0443495993,
				"y": 1.6592544084,
				"z": -1.4313408647,
				"element": "H" 
			},
			{
				"x": -3.5526373913,
				"y": -0.0340932405,
				"z": -1.405076833,
				"element": "H" 
			},
			{
				"x": -1.5402572865,
				"y": 0.4254408497,
				"z": -2.2170955368,
				"element": "H" 
			},
			{
				"x": -0.4167620994,
				"y": 2.5498302547,
				"z": -2.2108953882,
				"element": "H" 
			},
			{
				"x": -1.806266899,
				"y": 3.1994848304,
				"z": -1.3545822956,
				"element": "H" 
			},
			{
				"x": 0.4133203775,
				"y": 1.4081673082,
				"z": -0.3169051175,
				"element": "H" 
			},
			{
				"x": -0.4324337187,
				"y": 2.7299435263,
				"z": 0.5091584826,
				"element": "H" 
			}
		],
		 "valence_orbital": [ 
			{
				"type": "occ",
				"energy": -0.29511,
				"method": "rhf"
			},
			{
				"type": "occ",
				"energy": -0.26969,
				"method": "rhf"
			},
			{
				"type": "occ",
				"energy": -0.24977,
				"method": "rhf"
			},
			{
				"type": "occ",
				"energy": -0.24654,
				"method": "rhf"
			},
			{
				"type": "occ",
				"energy": -0.22919,
				"method": "rhf"
			},
			{
				"type": "unocc",
				"energy": -0.03467,
				"method": "rhf"
			},
			{
				"type": "unocc",
				"energy": -0.01156,
				"method": "rhf"
			},
			{
				"type": "unocc",
				"energy": 0.05382,
				"method": "rhf"
			},
			{
				"type": "unocc",
				"energy": 0.07185,
				"method": "rhf"
			},
			{
				"type": "unocc",
				"energy": 0.08537,
				"method": "rhf"
			}
		],
		"cosmo_sigma_profile": { 
			"-0.025": 0.0,
			"-0.024": 0.0,
			"-0.023": 0.0,
			"-0.022": 0.0,
			"-0.021": 0.0,
			"-0.02": 0.0,
			"-0.019": 0.0,
			"-0.018": 0.0,
			"-0.017": 0.0,
			"-0.016": 0.0,
			"-0.015": 0.0,
			"-0.014": 0.0,
			"-0.013": 0.0,
			"-0.012": 0.0,
			"-0.011": 0.0,
			"-0.01": 0.219338170658,
			"-0.009": 1.39228582049,
			"-0.008": 1.2264794096,
			"-0.007": 1.76695248516,
			"-0.006": 7.37015938987,
			"-0.005": 20.6950950903,
			"-0.004": 38.9452311137,
			"-0.003": 34.3141681522,
			"-0.002": 30.4917563288,
			"-0.001": 29.2910283704,
			"0.0": 25.8839855632,
			"0.001": 16.2554527735,
			"0.002": 14.1076280992,
			"0.003": 13.6198789758,
			"0.004": 10.7272301853,
			"0.005": 3.70705249762,
			"0.006": 3.60581261172,
			"0.007": 3.2960646278,
			"0.008": 4.24641125138,
			"0.009": 4.68737572971,
			"0.01": 5.51004680406,
			"0.011": 7.3146018538,
			"0.012": 5.79806136362,
			"0.013": 1.19154269123,
			"0.014": 0.713515002144,
			"0.015": 0.390383727458,
			"0.016": 0.441137875197,
			"0.017": 0.82791546138,
			"0.018": 0.289464070742,
			"0.019": 0.0,
			"0.02": 0.0,
			"0.021": 0.0,
			"0.022": 0.0,
			"0.023": 0.0,
			"0.024": 0.0,
			"0.025": 0.0
		}
	}
}
