{
	 "smiles": "CC1OC2=C(NC1=O)C=C(C=C2)C(=O)CBr", 
	 "Tm": 421.15, 
	 "num_atms": 26, 
	 "gaussian": { 
		 "optdone": 1, 
		 "sigma_profile": "yes", 
		 "theory": "DFT", 
		 "functional": "B3LYP", 
		 "basiset": "6-31G**", 
		 "properties": { 
			 "R2extent": 6645.8561, 
			 "electric_dipole_moment_norm": 2.24456942196, 
			 "electric_quadrupole_moment_norm": 18.6810224394, 
			 "total_energy": -3277.03898386, 
			 "HOMO_LUMO_gap": 0.15462, 
			 "cosmo_polarized_energy": -16.29, 
			 "cosmo_cavitation_energy": 32.59, 
			 "cosmo_dispersion_energy": -24.05, 
			 "cosmo_repulsion_energy": 1.88, 
			 "cosmo_total_nonelectrostatic_energy": 10.42, 
			 "SMD_solvation_energy": 5.68 
		},
		"coords": [
			{
				"x": 0.3229962319,
				"y": -1.0105074168,
				"z": -4.4342640506,
				"element": "C" 
			},
			{
				"x": -0.4685578629,
				"y": -0.7538202367,
				"z": -3.1655871613,
				"element": "C" 
			},
			{
				"x": 0.0643306211,
				"y": 0.4417655031,
				"z": -2.5548798488,
				"element": "O" 
			},
			{
				"x": -0.3639909118,
				"y": 0.7262275107,
				"z": -1.2956291348,
				"element": "C" 
			},
			{
				"x": -0.7276463309,
				"y": -0.3123993399,
				"z": -0.4188128289,
				"element": "C" 
			},
			{
				"x": -0.6135038184,
				"y": -1.6295088603,
				"z": -0.8902736147,
				"element": "N" 
			},
			{
				"x": -0.4369487016,
				"y": -1.9566136734,
				"z": -2.2114211967,
				"element": "C" 
			},
			{
				"x": -0.3216240546,
				"y": -3.1072009338,
				"z": -2.598615446,
				"element": "O" 
			},
			{
				"x": -1.1331727669,
				"y": -0.0140862603,
				"z": 0.878291142,
				"element": "C" 
			},
			{
				"x": -1.1598645229,
				"y": 1.3186183732,
				"z": 1.3221044757,
				"element": "C" 
			},
			{
				"x": -0.775655648,
				"y": 2.3438295262,
				"z": 0.4416748744,
				"element": "C" 
			},
			{
				"x": -0.3865835136,
				"y": 2.0516465722,
				"z": -0.8595525016,
				"element": "C" 
			},
			{
				"x": -1.602328148,
				"y": 1.7074267609,
				"z": 2.6883331457,
				"element": "C" 
			},
			{
				"x": -1.6061646735,
				"y": 2.872050245,
				"z": 3.0575508696,
				"element": "O" 
			},
			{
				"x": -2.1252974985,
				"y": 0.6455449819,
				"z": 3.6541832151,
				"element": "C" 
			},
			{
				"x": -0.6569015188,
				"y": -0.4748584328,
				"z": 4.3724077732,
				"element": "Br" 
			},
			{
				"x": 0.2201139187,
				"y": -0.1642766655,
				"z": -5.1173297392,
				"element": "H" 
			},
			{
				"x": 1.3812782194,
				"y": -1.1497379591,
				"z": -4.1989574488,
				"element": "H" 
			},
			{
				"x": -0.0464238361,
				"y": -1.9169297103,
				"z": -4.916087962,
				"element": "H" 
			},
			{
				"x": -1.5276341687,
				"y": -0.5686612273,
				"z": -3.4085006064,
				"element": "H" 
			},
			{
				"x": -0.6564480753,
				"y": -2.4049350258,
				"z": -0.2410145459,
				"element": "H" 
			},
			{
				"x": -1.3860312489,
				"y": -0.8298127362,
				"z": 1.5476115465,
				"element": "H" 
			},
			{
				"x": -0.8036070035,
				"y": 3.3666363281,
				"z": 0.7996552271,
				"element": "H" 
			},
			{
				"x": -0.0910121196,
				"y": 2.830493307,
				"z": -1.5542951729,
				"element": "H" 
			},
			{
				"x": -2.8328588577,
				"y": -0.0443199359,
				"z": 3.1944426118,
				"element": "H" 
			},
			{
				"x": -2.5675637108,
				"y": 1.1462293056,
				"z": 4.5114663775,
				"element": "H" 
			}
		],
		 "valence_orbital": [ 
			{
				"type": "occ",
				"energy": -0.28917,
				"method": "rhf"
			},
			{
				"type": "occ",
				"energy": -0.27385,
				"method": "rhf"
			},
			{
				"type": "occ",
				"energy": -0.26167,
				"method": "rhf"
			},
			{
				"type": "occ",
				"energy": -0.25835,
				"method": "rhf"
			},
			{
				"type": "occ",
				"energy": -0.23099,
				"method": "rhf"
			},
			{
				"type": "unocc",
				"energy": -0.07637,
				"method": "rhf"
			},
			{
				"type": "unocc",
				"energy": -0.03027,
				"method": "rhf"
			},
			{
				"type": "unocc",
				"energy": -0.01789,
				"method": "rhf"
			},
			{
				"type": "unocc",
				"energy": 0.01024,
				"method": "rhf"
			},
			{
				"type": "unocc",
				"energy": 0.04916,
				"method": "rhf"
			}
		],
		"cosmo_sigma_profile": { 
			"-0.025": 0.0,
			"-0.024": 0.0,
			"-0.023": 0.0,
			"-0.022": 0.0,
			"-0.021": 0.0,
			"-0.02": 0.0,
			"-0.019": 0.0,
			"-0.018": 0.0,
			"-0.017": 0.0,
			"-0.016": 0.629664203089,
			"-0.015": 1.53836689843,
			"-0.014": 1.16413335481,
			"-0.013": 1.69891354442,
			"-0.012": 0.941834873846,
			"-0.011": 0.78201112775,
			"-0.01": 1.59241279117,
			"-0.009": 4.42980528221,
			"-0.008": 8.7308899526,
			"-0.007": 10.0963986476,
			"-0.006": 10.6596376834,
			"-0.005": 14.6224424414,
			"-0.004": 16.8784422478,
			"-0.003": 14.7979456044,
			"-0.002": 15.5989700533,
			"-0.001": 17.5685623648,
			"0.0": 21.4745484012,
			"0.001": 19.7543959441,
			"0.002": 19.8166577292,
			"0.003": 17.6961864894,
			"0.004": 13.222755912,
			"0.005": 12.3468470147,
			"0.006": 4.52457229116,
			"0.007": 3.77179026757,
			"0.008": 4.46218254282,
			"0.009": 3.55219959135,
			"0.01": 4.54706578416,
			"0.011": 6.53845062764,
			"0.012": 6.68085551749,
			"0.013": 2.74598340631,
			"0.014": 0.0653214097176,
			"0.015": 0.0,
			"0.016": 0.0,
			"0.017": 0.0,
			"0.018": 0.0,
			"0.019": 0.0,
			"0.02": 0.0,
			"0.021": 0.0,
			"0.022": 0.0,
			"0.023": 0.0,
			"0.024": 0.0,
			"0.025": 0.0
		}
	}
}
