{
	 "smiles": "COC1=CC=C(C=C1)C1=CC=CC=C1", 
	 "Tm": 362.65, 
	 "num_atms": 26, 
	 "gaussian": { 
		 "optdone": 1, 
		 "sigma_profile": "yes", 
		 "theory": "DFT", 
		 "functional": "B3LYP", 
		 "basiset": "6-31G**", 
		 "properties": { 
			 "R2extent": 4255.2558, 
			 "electric_dipole_moment_norm": 1.47224288078, 
			 "electric_quadrupole_moment_norm": 11.250821114, 
			 "total_energy": -577.835369859, 
			 "HOMO_LUMO_gap": 0.18678, 
			 "cosmo_polarized_energy": -7.09, 
			 "cosmo_cavitation_energy": 29.52, 
			 "cosmo_dispersion_energy": -21.83, 
			 "cosmo_repulsion_energy": 1.69, 
			 "cosmo_total_nonelectrostatic_energy": 9.38, 
			 "SMD_solvation_energy": 5.59 
		},
		"coords": [
			{
				"x": 4.2345434585,
				"y": -0.2853730333,
				"z": -3.1843220974,
				"element": "C" 
			},
			{
				"x": 3.0251230492,
				"y": 0.4452906212,
				"z": -3.3046885523,
				"element": "O" 
			},
			{
				"x": 2.245622723,
				"y": 0.5895711679,
				"z": -2.193486549,
				"element": "C" 
			},
			{
				"x": 1.0577807652,
				"y": 1.314776549,
				"z": -2.3701145079,
				"element": "C" 
			},
			{
				"x": 0.1967398579,
				"y": 1.5164442924,
				"z": -1.3009798057,
				"element": "C" 
			},
			{
				"x": 0.4832369095,
				"y": 1.0067241559,
				"z": -0.0195202447,
				"element": "C" 
			},
			{
				"x": 1.6750060389,
				"y": 0.2857245466,
				"z": 0.1355242946,
				"element": "C" 
			},
			{
				"x": 2.5524193443,
				"y": 0.072722088,
				"z": -0.9296891276,
				"element": "C" 
			},
			{
				"x": -0.440804324,
				"y": 1.2261410641,
				"z": 1.1209145554,
				"element": "C" 
			},
			{
				"x": -0.6545573262,
				"y": 0.2243279916,
				"z": 2.0839458914,
				"element": "C" 
			},
			{
				"x": -1.5194811932,
				"y": 0.4320549566,
				"z": 3.1574763561,
				"element": "C" 
			},
			{
				"x": -2.1970518675,
				"y": 1.6454603188,
				"z": 3.2913730194,
				"element": "C" 
			},
			{
				"x": -1.998306793,
				"y": 2.6493724675,
				"z": 2.3416459793,
				"element": "C" 
			},
			{
				"x": -1.1291260065,
				"y": 2.4428393444,
				"z": 1.2712918553,
				"element": "C" 
			},
			{
				"x": 4.6898411688,
				"y": -0.2816948829,
				"z": -4.1759662722,
				"element": "H" 
			},
			{
				"x": 4.0528239287,
				"y": -1.3230017228,
				"z": -2.8752349305,
				"element": "H" 
			},
			{
				"x": 4.9234704477,
				"y": 0.1845226421,
				"z": -2.4703161695,
				"element": "H" 
			},
			{
				"x": 0.8286117026,
				"y": 1.7000431456,
				"z": -3.3584217784,
				"element": "H" 
			},
			{
				"x": -0.7301273028,
				"y": 2.0580861396,
				"z": -1.4651363154,
				"element": "H" 
			},
			{
				"x": 1.94191141,
				"y": -0.0989773579,
				"z": 1.1155397503,
				"element": "H" 
			},
			{
				"x": 3.4674806614,
				"y": -0.4824039346,
				"z": -0.7598413771,
				"element": "H" 
			},
			{
				"x": -0.1568226765,
				"y": -0.7347893513,
				"z": 1.973914059,
				"element": "H" 
			},
			{
				"x": -1.6728521459,
				"y": -0.3602928242,
				"z": 3.8850194348,
				"element": "H" 
			},
			{
				"x": -2.8728633665,
				"y": 1.8067060398,
				"z": 4.1262652946,
				"element": "H" 
			},
			{
				"x": -2.5135983703,
				"y": 3.6009769481,
				"z": 2.4393513849,
				"element": "H" 
			},
			{
				"x": -0.9606200935,
				"y": 3.2422486276,
				"z": 0.5555558525,
				"element": "H" 
			}
		],
		 "valence_orbital": [ 
			{
				"type": "occ",
				"energy": -0.31744,
				"method": "rhf"
			},
			{
				"type": "occ",
				"energy": -0.25525,
				"method": "rhf"
			},
			{
				"type": "occ",
				"energy": -0.24915,
				"method": "rhf"
			},
			{
				"type": "occ",
				"energy": -0.24569,
				"method": "rhf"
			},
			{
				"type": "occ",
				"energy": -0.20449,
				"method": "rhf"
			},
			{
				"type": "unocc",
				"energy": -0.01771,
				"method": "rhf"
			},
			{
				"type": "unocc",
				"energy": -0.00165,
				"method": "rhf"
			},
			{
				"type": "unocc",
				"energy": 0.00385,
				"method": "rhf"
			},
			{
				"type": "unocc",
				"energy": 0.04022,
				"method": "rhf"
			},
			{
				"type": "unocc",
				"energy": 0.09553,
				"method": "rhf"
			}
		],
		"cosmo_sigma_profile": { 
			"-0.025": 0.0,
			"-0.024": 0.0,
			"-0.023": 0.0,
			"-0.022": 0.0,
			"-0.021": 0.0,
			"-0.02": 0.0,
			"-0.019": 0.0,
			"-0.018": 0.0,
			"-0.017": 0.0,
			"-0.016": 0.0,
			"-0.015": 0.0,
			"-0.014": 0.0,
			"-0.013": 0.0,
			"-0.012": 0.0,
			"-0.011": 0.0,
			"-0.01": 0.0,
			"-0.009": 0.0,
			"-0.008": 0.0,
			"-0.007": 0.208703196887,
			"-0.006": 9.93199245006,
			"-0.005": 27.0445059647,
			"-0.004": 25.5495221663,
			"-0.003": 26.0419146287,
			"-0.002": 16.1934559334,
			"-0.001": 12.8385558772,
			"0.0": 12.7336457828,
			"0.001": 12.0319571968,
			"0.002": 14.276811197,
			"0.003": 17.2555268866,
			"0.004": 20.2110739592,
			"0.005": 21.088129534,
			"0.006": 13.7846875107,
			"0.007": 2.07756623499,
			"0.008": 0.889657149084,
			"0.009": 1.53898474952,
			"0.01": 1.81320707377,
			"0.011": 0.401012684403,
			"0.012": 0.0,
			"0.013": 0.0,
			"0.014": 0.0,
			"0.015": 0.0,
			"0.016": 0.0,
			"0.017": 0.0,
			"0.018": 0.0,
			"0.019": 0.0,
			"0.02": 0.0,
			"0.021": 0.0,
			"0.022": 0.0,
			"0.023": 0.0,
			"0.024": 0.0,
			"0.025": 0.0
		}
	}
}
