{
	 "smiles": "CC1(C)OCC(C)(CO1)C(O)=O", 
	 "Tm": 391.15, 
	 "num_atms": 26, 
	 "gaussian": { 
		 "optdone": 1, 
		 "sigma_profile": "yes", 
		 "theory": "DFT", 
		 "functional": "B3LYP", 
		 "basiset": "6-31G**", 
		 "properties": { 
			 "R2extent": 3554.1498, 
			 "electric_dipole_moment_norm": 1.48309289325, 
			 "electric_quadrupole_moment_norm": 14.2807895853, 
			 "total_energy": -614.193133757, 
			 "HOMO_LUMO_gap": 0.25208, 
			 "cosmo_polarized_energy": -10.92, 
			 "cosmo_cavitation_energy": 27.31, 
			 "cosmo_dispersion_energy": -19.61, 
			 "cosmo_repulsion_energy": 1.56, 
			 "cosmo_total_nonelectrostatic_energy": 9.26, 
			 "SMD_solvation_energy": 5.96 
		},
		"coords": [
			{
				"x": 0.9530589727,
				"y": 0.2521268533,
				"z": 3.4268557302,
				"element": "C" 
			},
			{
				"x": -0.0655307854,
				"y": 0.5802444474,
				"z": 2.3359774504,
				"element": "C" 
			},
			{
				"x": -0.1578568779,
				"y": 2.0820942095,
				"z": 2.067153676,
				"element": "C" 
			},
			{
				"x": -1.3098438346,
				"y": 0.0470292853,
				"z": 2.7866553197,
				"element": "O" 
			},
			{
				"x": -2.2259894546,
				"y": -0.2290982868,
				"z": 1.7332706356,
				"element": "C" 
			},
			{
				"x": -1.6944793219,
				"y": -1.365564109,
				"z": 0.8217561866,
				"element": "C" 
			},
			{
				"x": -2.100239499,
				"y": -1.1060862342,
				"z": -0.6456395727,
				"element": "C" 
			},
			{
				"x": -0.149300133,
				"y": -1.3662685873,
				"z": 0.9714123729,
				"element": "C" 
			},
			{
				"x": 0.3039870266,
				"y": -0.0241506371,
				"z": 1.0895019309,
				"element": "O" 
			},
			{
				"x": -2.2854134881,
				"y": -2.7079963563,
				"z": 1.2406700489,
				"element": "C" 
			},
			{
				"x": -1.5291549581,
				"y": -3.7460433122,
				"z": 0.8003454128,
				"element": "O" 
			},
			{
				"x": -3.3167626978,
				"y": -2.8790359077,
				"z": 1.8527702218,
				"element": "O" 
			},
			{
				"x": 0.637410071,
				"y": 0.6880077985,
				"z": 4.3784411967,
				"element": "H" 
			},
			{
				"x": 1.9330352588,
				"y": 0.6537171815,
				"z": 3.1573134876,
				"element": "H" 
			},
			{
				"x": 1.0377878312,
				"y": -0.8290889457,
				"z": 3.5620417223,
				"element": "H" 
			},
			{
				"x": 0.7976256401,
				"y": 2.453413334,
				"z": 1.6871457718,
				"element": "H" 
			},
			{
				"x": -0.4050979488,
				"y": 2.6128664532,
				"z": 2.9899156702,
				"element": "H" 
			},
			{
				"x": -0.9243822634,
				"y": 2.2969719486,
				"z": 1.3185597062,
				"element": "H" 
			},
			{
				"x": -2.4135499935,
				"y": 0.6687635735,
				"z": 1.1303176886,
				"element": "H" 
			},
			{
				"x": -3.1605724347,
				"y": -0.5299349162,
				"z": 2.2087194098,
				"element": "H" 
			},
			{
				"x": -3.1821068145,
				"y": -0.9648950106,
				"z": -0.7375716046,
				"element": "H" 
			},
			{
				"x": -1.5995440194,
				"y": -0.1992414089,
				"z": -0.9976302039,
				"element": "H" 
			},
			{
				"x": -1.8055993673,
				"y": -1.9391528174,
				"z": -1.2904258338,
				"element": "H" 
			},
			{
				"x": 0.1573074735,
				"y": -1.9671640584,
				"z": 1.835853251,
				"element": "H" 
			},
			{
				"x": 0.3348363905,
				"y": -1.7826782994,
				"z": 0.0854118864,
				"element": "H" 
			},
			{
				"x": -1.9887247728,
				"y": -4.5550361976,
				"z": 1.0824784386,
				"element": "H" 
			}
		],
		 "valence_orbital": [ 
			{
				"type": "occ",
				"energy": -0.32377,
				"method": "rhf"
			},
			{
				"type": "occ",
				"energy": -0.29678,
				"method": "rhf"
			},
			{
				"type": "occ",
				"energy": -0.28293,
				"method": "rhf"
			},
			{
				"type": "occ",
				"energy": -0.27212,
				"method": "rhf"
			},
			{
				"type": "occ",
				"energy": -0.24785,
				"method": "rhf"
			},
			{
				"type": "unocc",
				"energy": 0.00423,
				"method": "rhf"
			},
			{
				"type": "unocc",
				"energy": 0.07028,
				"method": "rhf"
			},
			{
				"type": "unocc",
				"energy": 0.08439,
				"method": "rhf"
			},
			{
				"type": "unocc",
				"energy": 0.10759,
				"method": "rhf"
			},
			{
				"type": "unocc",
				"energy": 0.10925,
				"method": "rhf"
			}
		],
		"cosmo_sigma_profile": { 
			"-0.025": 0.0,
			"-0.024": 0.0,
			"-0.023": 0.0,
			"-0.022": 0.0,
			"-0.021": 0.0,
			"-0.02": 0.0,
			"-0.019": 0.0767682894306,
			"-0.018": 0.735396092847,
			"-0.017": 0.75879069162,
			"-0.016": 0.875299864159,
			"-0.015": 1.0183896536,
			"-0.014": 1.05777459935,
			"-0.013": 0.366796887972,
			"-0.012": 0.414586591798,
			"-0.011": 0.957373752285,
			"-0.01": 0.661860918918,
			"-0.009": 0.313028284425,
			"-0.008": 0.466379607199,
			"-0.007": 1.01606737921,
			"-0.006": 2.27972176583,
			"-0.005": 8.98344655507,
			"-0.004": 22.6274211539,
			"-0.003": 27.3380005005,
			"-0.002": 24.8425830355,
			"-0.001": 21.9044352773,
			"0.0": 23.233469718,
			"0.001": 12.3659711683,
			"0.002": 6.88680172853,
			"0.003": 7.00613947419,
			"0.004": 5.85369097278,
			"0.005": 5.275059883,
			"0.006": 4.55244123309,
			"0.007": 5.04438945814,
			"0.008": 5.49498446813,
			"0.009": 3.16592754768,
			"0.01": 4.27876948078,
			"0.011": 6.4850667292,
			"0.012": 4.95926031875,
			"0.013": 0.628769964486,
			"0.014": 0.0,
			"0.015": 0.0,
			"0.016": 0.0,
			"0.017": 0.0,
			"0.018": 0.0,
			"0.019": 0.0,
			"0.02": 0.0,
			"0.021": 0.0,
			"0.022": 0.0,
			"0.023": 0.0,
			"0.024": 0.0,
			"0.025": 0.0
		}
	}
}
