{
	 "smiles": "CC1=C(C)C(=CC(=C1)S(N)(=O)=O)[N+]([O-])=O", 
	 "Tm": 454.15, 
	 "num_atms": 25, 
	 "gaussian": { 
		 "optdone": 1, 
		 "sigma_profile": "yes", 
		 "theory": "DFT", 
		 "functional": "B3LYP", 
		 "basiset": "6-31G**", 
		 "properties": { 
			 "R2extent": 4125.5852, 
			 "electric_dipole_moment_norm": 5.08976956158, 
			 "electric_quadrupole_moment_norm": 23.3754052164, 
			 "total_energy": -1119.30094126, 
			 "HOMO_LUMO_gap": 0.18065, 
			 "cosmo_polarized_energy": -18.37, 
			 "cosmo_cavitation_energy": 30.7, 
			 "cosmo_dispersion_energy": -22.72, 
			 "cosmo_repulsion_energy": 1.74, 
			 "cosmo_total_nonelectrostatic_energy": 9.71, 
			 "SMD_solvation_energy": 7.04 
		},
		"coords": [
			{
				"x": -0.1503398709,
				"y": -0.3762196199,
				"z": 3.2820606709,
				"element": "C" 
			},
			{
				"x": -0.5522996831,
				"y": -0.185190036,
				"z": 1.8366711323,
				"element": "C" 
			},
			{
				"x": -1.7117584309,
				"y": -0.8056893047,
				"z": 1.3075069653,
				"element": "C" 
			},
			{
				"x": -2.5836055703,
				"y": -1.654534427,
				"z": 2.201620891,
				"element": "C" 
			},
			{
				"x": -2.0015914714,
				"y": -0.562976556,
				"z": -0.0488065076,
				"element": "C" 
			},
			{
				"x": -1.2302629421,
				"y": 0.2653835324,
				"z": -0.8629014658,
				"element": "C" 
			},
			{
				"x": -0.0943901595,
				"y": 0.8393673245,
				"z": -0.3152151587,
				"element": "C" 
			},
			{
				"x": 0.243747799,
				"y": 0.6213016679,
				"z": 1.0192334095,
				"element": "C" 
			},
			{
				"x": 0.9453480172,
				"y": 1.8878983063,
				"z": -1.3345695874,
				"element": "S" 
			},
			{
				"x": 2.0830819626,
				"y": 0.80484877,
				"z": -1.9670902727,
				"element": "N" 
			},
			{
				"x": 0.1216284472,
				"y": 2.3747008366,
				"z": -2.4431910732,
				"element": "O" 
			},
			{
				"x": 1.6774079729,
				"y": 2.7859917979,
				"z": -0.4376371027,
				"element": "O" 
			},
			{
				"x": -3.1622437808,
				"y": -1.1890169466,
				"z": -0.7139898977,
				"element": "N" 
			},
			{
				"x": -3.6552251794,
				"y": -0.5923415464,
				"z": -1.6692615852,
				"element": "O" 
			},
			{
				"x": -3.5497303985,
				"y": -2.2802797053,
				"z": -0.2958962727,
				"element": "O" 
			},
			{
				"x": -0.0538067136,
				"y": -1.4358104173,
				"z": 3.5403958832,
				"element": "H" 
			},
			{
				"x": 0.8098630399,
				"y": 0.1054276126,
				"z": 3.4796441691,
				"element": "H" 
			},
			{
				"x": -0.8851075232,
				"y": 0.0590601465,
				"z": 3.9690814319,
				"element": "H" 
			},
			{
				"x": -2.4611210624,
				"y": -1.3646740628,
				"z": 3.2458308082,
				"element": "H" 
			},
			{
				"x": -2.3197033893,
				"y": -2.7136238377,
				"z": 2.1085922057,
				"element": "H" 
			},
			{
				"x": -3.6382248934,
				"y": -1.5779270314,
				"z": 1.9388337427,
				"element": "H" 
			},
			{
				"x": -1.5284452727,
				"y": 0.4524620434,
				"z": -1.8864190542,
				"element": "H" 
			},
			{
				"x": 1.125681451,
				"y": 1.1039085958,
				"z": 1.4271266665,
				"element": "H" 
			},
			{
				"x": 3.0175625085,
				"y": 1.1361516908,
				"z": -1.7417331303,
				"element": "H" 
			},
			{
				"x": 1.9520351432,
				"y": 0.7157811663,
				"z": -2.9714868681,
				"element": "H" 
			}
		],
		 "valence_orbital": [ 
			{
				"type": "occ",
				"energy": -0.31323,
				"method": "rhf"
			},
			{
				"type": "occ",
				"energy": -0.31132,
				"method": "rhf"
			},
			{
				"type": "occ",
				"energy": -0.29949,
				"method": "rhf"
			},
			{
				"type": "occ",
				"energy": -0.28098,
				"method": "rhf"
			},
			{
				"type": "occ",
				"energy": -0.27342,
				"method": "rhf"
			},
			{
				"type": "unocc",
				"energy": -0.09277,
				"method": "rhf"
			},
			{
				"type": "unocc",
				"energy": -0.05094,
				"method": "rhf"
			},
			{
				"type": "unocc",
				"energy": -0.01863,
				"method": "rhf"
			},
			{
				"type": "unocc",
				"energy": 0.04305,
				"method": "rhf"
			},
			{
				"type": "unocc",
				"energy": 0.0739,
				"method": "rhf"
			}
		],
		"cosmo_sigma_profile": { 
			"-0.025": 0.0,
			"-0.024": 0.0,
			"-0.023": 0.0,
			"-0.022": 0.0,
			"-0.021": 0.0,
			"-0.02": 0.0,
			"-0.019": 0.0,
			"-0.018": 0.0,
			"-0.017": 0.0,
			"-0.016": 0.0723823339706,
			"-0.015": 1.76271257908,
			"-0.014": 1.75558839649,
			"-0.013": 3.39409357139,
			"-0.012": 2.72231706484,
			"-0.011": 1.19967888546,
			"-0.01": 2.51085554117,
			"-0.009": 1.45749057228,
			"-0.008": 3.59959858752,
			"-0.007": 6.85025001553,
			"-0.006": 10.1610198568,
			"-0.005": 16.4305546115,
			"-0.004": 17.0596662677,
			"-0.003": 19.5418079437,
			"-0.002": 19.87294142,
			"-0.001": 24.8522722497,
			"0.0": 18.8757939668,
			"0.001": 10.2277808584,
			"0.002": 5.79584174,
			"0.003": 5.53607296917,
			"0.004": 5.94310772787,
			"0.005": 6.75804489819,
			"0.006": 7.37834987817,
			"0.007": 11.3745686453,
			"0.008": 10.4725403075,
			"0.009": 8.09878434077,
			"0.01": 10.4139376296,
			"0.011": 8.61136729629,
			"0.012": 1.1954671278,
			"0.013": 0.0,
			"0.014": 0.0,
			"0.015": 0.0,
			"0.016": 0.0,
			"0.017": 0.0,
			"0.018": 0.0,
			"0.019": 0.0,
			"0.02": 0.0,
			"0.021": 0.0,
			"0.022": 0.0,
			"0.023": 0.0,
			"0.024": 0.0,
			"0.025": 0.0
		}
	}
}
