{
	 "smiles": "NC1=C(C=CS1)C(=O)NC1CC1", 
	 "Tm": 418.15, 
	 "num_atms": 22, 
	 "gaussian": { 
		 "optdone": 1, 
		 "sigma_profile": "yes", 
		 "theory": "DFT", 
		 "functional": "B3LYP", 
		 "basiset": "6-31G**", 
		 "properties": { 
			 "R2extent": 2828.2177, 
			 "electric_dipole_moment_norm": 1.97105090751, 
			 "electric_quadrupole_moment_norm": 11.1842959318, 
			 "total_energy": -893.762301841, 
			 "HOMO_LUMO_gap": 0.18114, 
			 "cosmo_polarized_energy": -11.55, 
			 "cosmo_cavitation_energy": 26.59, 
			 "cosmo_dispersion_energy": -20.41, 
			 "cosmo_repulsion_energy": 1.58, 
			 "cosmo_total_nonelectrostatic_energy": 7.76, 
			 "SMD_solvation_energy": 4.03 
		},
		"coords": [
			{
				"x": 1.8294077064,
				"y": -0.1055828437,
				"z": 2.0348535637,
				"element": "N" 
			},
			{
				"x": 1.7619426347,
				"y": -0.4523981124,
				"z": 0.7235148701,
				"element": "C" 
			},
			{
				"x": 0.6106648723,
				"y": -0.5342526637,
				"z": -0.0720811898,
				"element": "C" 
			},
			{
				"x": 0.9321033297,
				"y": -0.9777007052,
				"z": -1.4080224874,
				"element": "C" 
			},
			{
				"x": 2.2494719754,
				"y": -1.2249208702,
				"z": -1.6132453915,
				"element": "C" 
			},
			{
				"x": 3.1925141294,
				"y": -0.9370273091,
				"z": -0.1613819131,
				"element": "S" 
			},
			{
				"x": -0.6814528303,
				"y": -0.1338929596,
				"z": 0.5000871168,
				"element": "C" 
			},
			{
				"x": -0.7624112228,
				"y": 0.3576185485,
				"z": 1.6429910107,
				"element": "O" 
			},
			{
				"x": -1.8620241356,
				"y": -0.2683915936,
				"z": -0.2047400348,
				"element": "N" 
			},
			{
				"x": -2.1635285994,
				"y": -1.0818778948,
				"z": -1.3490536851,
				"element": "C" 
			},
			{
				"x": -3.482608528,
				"y": -0.8232624355,
				"z": -2.0253435454,
				"element": "C" 
			},
			{
				"x": -2.2004560487,
				"y": -0.4615876427,
				"z": -2.7311801692,
				"element": "C" 
			},
			{
				"x": 0.956416771,
				"y": 0.301352902,
				"z": 2.372366176,
				"element": "H" 
			},
			{
				"x": 2.70673711,
				"y": 0.2104611895,
				"z": 2.4168791235,
				"element": "H" 
			},
			{
				"x": 0.1988836887,
				"y": -1.0837111075,
				"z": -2.1937258356,
				"element": "H" 
			},
			{
				"x": 2.7469614551,
				"y": -1.5501113712,
				"z": -2.5149780658,
				"element": "H" 
			},
			{
				"x": -2.6435575981,
				"y": -0.0322247019,
				"z": 0.394581454,
				"element": "H" 
			},
			{
				"x": -1.8416008343,
				"y": -2.1205996927,
				"z": -1.2841290283,
				"element": "H" 
			},
			{
				"x": -4.0885262715,
				"y": -0.0081362572,
				"z": -1.6395833327,
				"element": "H" 
			},
			{
				"x": -4.0514721374,
				"y": -1.6785183952,
				"z": -2.3754332812,
				"element": "H" 
			},
			{
				"x": -1.9437128559,
				"y": 0.5903710936,
				"z": -2.799959931,
				"element": "H" 
			},
			{
				"x": -1.8860526107,
				"y": -1.0681071772,
				"z": -3.5759154238,
				"element": "H" 
			}
		],
		 "valence_orbital": [ 
			{
				"type": "occ",
				"energy": -0.30909,
				"method": "rhf"
			},
			{
				"type": "occ",
				"energy": -0.25054,
				"method": "rhf"
			},
			{
				"type": "occ",
				"energy": -0.24754,
				"method": "rhf"
			},
			{
				"type": "occ",
				"energy": -0.23995,
				"method": "rhf"
			},
			{
				"type": "occ",
				"energy": -0.19115,
				"method": "rhf"
			},
			{
				"type": "unocc",
				"energy": -0.01001,
				"method": "rhf"
			},
			{
				"type": "unocc",
				"energy": 0.01823,
				"method": "rhf"
			},
			{
				"type": "unocc",
				"energy": 0.02156,
				"method": "rhf"
			},
			{
				"type": "unocc",
				"energy": 0.08534,
				"method": "rhf"
			},
			{
				"type": "unocc",
				"energy": 0.0949,
				"method": "rhf"
			}
		],
		"cosmo_sigma_profile": { 
			"-0.025": 0.0,
			"-0.024": 0.0,
			"-0.023": 0.0,
			"-0.022": 0.0,
			"-0.021": 0.0,
			"-0.02": 0.0,
			"-0.019": 0.0,
			"-0.018": 0.0,
			"-0.017": 0.0,
			"-0.016": 0.0,
			"-0.015": 0.16093027048,
			"-0.014": 1.36569999325,
			"-0.013": 0.893545220675,
			"-0.012": 2.09952586939,
			"-0.011": 2.21579068999,
			"-0.01": 1.88365080147,
			"-0.009": 2.42102966393,
			"-0.008": 4.88118825747,
			"-0.007": 4.74216925669,
			"-0.006": 5.98289022693,
			"-0.005": 15.323450334,
			"-0.004": 16.9767561046,
			"-0.003": 13.4823372976,
			"-0.002": 13.8705736276,
			"-0.001": 13.1788089254,
			"0.0": 14.624880616,
			"0.001": 13.2771505331,
			"0.002": 15.0626577117,
			"0.003": 14.9597209914,
			"0.004": 17.2941415873,
			"0.005": 14.4124840468,
			"0.006": 5.98497004403,
			"0.007": 3.61998970996,
			"0.008": 2.43826382183,
			"0.009": 2.15976861902,
			"0.01": 2.07305678709,
			"0.011": 1.13494609399,
			"0.012": 1.8438338248,
			"0.013": 1.77283659285,
			"0.014": 2.46088130851,
			"0.015": 0.816352434206,
			"0.016": 0.0,
			"0.017": 0.0,
			"0.018": 0.0,
			"0.019": 0.0,
			"0.02": 0.0,
			"0.021": 0.0,
			"0.022": 0.0,
			"0.023": 0.0,
			"0.024": 0.0,
			"0.025": 0.0
		}
	}
}
