{
	 "smiles": "CC1=CC=C(S1)C(=O)CCC(O)=O", 
	 "Tm": 373.15, 
	 "num_atms": 23, 
	 "gaussian": { 
		 "optdone": 1, 
		 "sigma_profile": "yes", 
		 "theory": "DFT", 
		 "functional": "B3LYP", 
		 "basiset": "6-31G**", 
		 "properties": { 
			 "R2extent": 3971.442, 
			 "electric_dipole_moment_norm": 8.79857045036, 
			 "electric_quadrupole_moment_norm": 18.7101203267, 
			 "total_energy": -972.856875726, 
			 "HOMO_LUMO_gap": 0.16038, 
			 "cosmo_polarized_energy": -15.82, 
			 "cosmo_cavitation_energy": 28.73, 
			 "cosmo_dispersion_energy": -21.48, 
			 "cosmo_repulsion_energy": 1.66, 
			 "cosmo_total_nonelectrostatic_energy": 8.91, 
			 "SMD_solvation_energy": 6.13 
		},
		"coords": [
			{
				"x": -1.6939495629,
				"y": -1.9384291753,
				"z": -3.449826164,
				"element": "C" 
			},
			{
				"x": -0.9923624083,
				"y": -1.6216518733,
				"z": -2.1637026772,
				"element": "C" 
			},
			{
				"x": -0.2702805365,
				"y": -2.4761577543,
				"z": -1.3592015487,
				"element": "C" 
			},
			{
				"x": 0.2670871186,
				"y": -1.8511168296,
				"z": -0.2094643502,
				"element": "C" 
			},
			{
				"x": -0.0415453757,
				"y": -0.5084315316,
				"z": -0.1221972991,
				"element": "C" 
			},
			{
				"x": -1.0150120989,
				"y": -0.015722607,
				"z": -1.4959662061,
				"element": "S" 
			},
			{
				"x": 0.3927231775,
				"y": 0.3909831349,
				"z": 0.9478451157,
				"element": "C" 
			},
			{
				"x": 1.0443854953,
				"y": -0.0618277669,
				"z": 1.8949856922,
				"element": "O" 
			},
			{
				"x": 0.0406571134,
				"y": 1.8694991891,
				"z": 0.8614833364,
				"element": "C" 
			},
			{
				"x": 0.1531246062,
				"y": 2.6431951765,
				"z": 2.1904767712,
				"element": "C" 
			},
			{
				"x": 1.5740657604,
				"y": 3.057109469,
				"z": 2.5908638104,
				"element": "C" 
			},
			{
				"x": 2.4350130702,
				"y": 2.0544777284,
				"z": 2.8278198972,
				"element": "O" 
			},
			{
				"x": 1.9039445086,
				"y": 4.2163122754,
				"z": 2.69762722,
				"element": "O" 
			},
			{
				"x": -2.76819768,
				"y": -1.7334346159,
				"z": -3.3866261268,
				"element": "H" 
			},
			{
				"x": -1.2953856086,
				"y": -1.3506916651,
				"z": -4.2839531044,
				"element": "H" 
			},
			{
				"x": -1.5653622235,
				"y": -2.996693946,
				"z": -3.6905452786,
				"element": "H" 
			},
			{
				"x": -0.1351563718,
				"y": -3.5253450481,
				"z": -1.5977612604,
				"element": "H" 
			},
			{
				"x": 0.8663103713,
				"y": -2.3448418703,
				"z": 0.5460195147,
				"element": "H" 
			},
			{
				"x": 0.6819096035,
				"y": 2.3239113095,
				"z": 0.0929464123,
				"element": "H" 
			},
			{
				"x": -0.9827664469,
				"y": 1.9610879207,
				"z": 0.4789331649,
				"element": "H" 
			},
			{
				"x": -0.4202064982,
				"y": 3.5680365044,
				"z": 2.113907266,
				"element": "H" 
			},
			{
				"x": -0.2832799956,
				"y": 2.0404770949,
				"z": 2.9960906899,
				"element": "H" 
			},
			{
				"x": 1.9896839818,
				"y": 1.1911548807,
				"z": 2.6643451246,
				"element": "H" 
			}
		],
		 "valence_orbital": [ 
			{
				"type": "occ",
				"energy": -0.28866,
				"method": "rhf"
			},
			{
				"type": "occ",
				"energy": -0.28333,
				"method": "rhf"
			},
			{
				"type": "occ",
				"energy": -0.27962,
				"method": "rhf"
			},
			{
				"type": "occ",
				"energy": -0.25789,
				"method": "rhf"
			},
			{
				"type": "occ",
				"energy": -0.24649,
				"method": "rhf"
			},
			{
				"type": "unocc",
				"energy": -0.08611,
				"method": "rhf"
			},
			{
				"type": "unocc",
				"energy": -0.00063,
				"method": "rhf"
			},
			{
				"type": "unocc",
				"energy": 0.00428,
				"method": "rhf"
			},
			{
				"type": "unocc",
				"energy": 0.02883,
				"method": "rhf"
			},
			{
				"type": "unocc",
				"energy": 0.06084,
				"method": "rhf"
			}
		],
		"cosmo_sigma_profile": { 
			"-0.025": 0.0,
			"-0.024": 0.0,
			"-0.023": 0.0,
			"-0.022": 0.0,
			"-0.021": 0.0,
			"-0.02": 0.0,
			"-0.019": 0.0,
			"-0.018": 0.0,
			"-0.017": 0.0,
			"-0.016": 0.0,
			"-0.015": 0.0,
			"-0.014": 0.0,
			"-0.013": 0.0,
			"-0.012": 0.0,
			"-0.011": 0.0,
			"-0.01": 0.0,
			"-0.009": 0.0,
			"-0.008": 2.52862852365,
			"-0.007": 10.443607689,
			"-0.006": 20.1750800047,
			"-0.005": 23.0210218945,
			"-0.004": 21.9737112341,
			"-0.003": 17.0497600686,
			"-0.002": 17.8277512824,
			"-0.001": 13.7056700618,
			"0.0": 11.1401701353,
			"0.001": 14.1797581109,
			"0.002": 17.4195065478,
			"0.003": 14.407138776,
			"0.004": 5.14119798892,
			"0.005": 3.47950812134,
			"0.006": 2.91494654613,
			"0.007": 3.42588986693,
			"0.008": 3.7688456946,
			"0.009": 5.0551831709,
			"0.01": 4.12191024372,
			"0.011": 5.39583565314,
			"0.012": 6.91785446096,
			"0.013": 4.75520958773,
			"0.014": 1.55079010443,
			"0.015": 0.011470106459,
			"0.016": 0.0,
			"0.017": 0.0,
			"0.018": 0.0,
			"0.019": 0.0,
			"0.02": 0.0,
			"0.021": 0.0,
			"0.022": 0.0,
			"0.023": 0.0,
			"0.024": 0.0,
			"0.025": 0.0
		}
	}
}
