{
	 "smiles": "NC1=CC2=C(C=C1)C1=C(O2)C=CC=C1", 
	 "Tm": 363.15, 
	 "num_atms": 23, 
	 "gaussian": { 
		 "optdone": 1, 
		 "sigma_profile": "yes", 
		 "theory": "DFT", 
		 "functional": "B3LYP", 
		 "basiset": "6-31G**", 
		 "properties": { 
			 "R2extent": 3656.3134, 
			 "electric_dipole_moment_norm": 2.24138433563, 
			 "electric_quadrupole_moment_norm": 14.8253003889, 
			 "total_energy": -592.688128148, 
			 "HOMO_LUMO_gap": 0.1694, 
			 "cosmo_polarized_energy": -10.2, 
			 "cosmo_cavitation_energy": 26.99, 
			 "cosmo_dispersion_energy": -20.43, 
			 "cosmo_repulsion_energy": 1.57, 
			 "cosmo_total_nonelectrostatic_energy": 8.13, 
			 "SMD_solvation_energy": 4.45 
		},
		"coords": [
			{
				"x": -3.8295630027,
				"y": 2.3370339084,
				"z": 2.0010881616,
				"element": "N" 
			},
			{
				"x": -2.9869503913,
				"y": 1.3836790621,
				"z": 1.4285996287,
				"element": "C" 
			},
			{
				"x": -1.964681717,
				"y": 0.7928346345,
				"z": 2.1904374251,
				"element": "C" 
			},
			{
				"x": -1.2037152752,
				"y": -0.188960943,
				"z": 1.5767913857,
				"element": "C" 
			},
			{
				"x": -1.3951897818,
				"y": -0.6184902115,
				"z": 0.2500918365,
				"element": "C" 
			},
			{
				"x": -2.417420092,
				"y": -0.0196016629,
				"z": -0.4953526216,
				"element": "C" 
			},
			{
				"x": -3.199438373,
				"y": 0.9678050301,
				"z": 0.0918200454,
				"element": "C" 
			},
			{
				"x": -0.3903196279,
				"y": -1.640303061,
				"z": 0.0233105486,
				"element": "C" 
			},
			{
				"x": 0.3214196334,
				"y": -1.7387400262,
				"z": 1.2355253585,
				"element": "C" 
			},
			{
				"x": -0.1667843295,
				"y": -0.8605627628,
				"z": 2.1816045409,
				"element": "O" 
			},
			{
				"x": 1.3775899444,
				"y": -2.614715566,
				"z": 1.4332986906,
				"element": "C" 
			},
			{
				"x": 1.7299048786,
				"y": -3.429276804,
				"z": 0.3530923247,
				"element": "C" 
			},
			{
				"x": 1.0406472892,
				"y": -3.3551646051,
				"z": -0.8674439122,
				"element": "C" 
			},
			{
				"x": -0.0200068463,
				"y": -2.465740055,
				"z": -1.0444664824,
				"element": "C" 
			},
			{
				"x": -3.4466414481,
				"y": 2.8327869155,
				"z": 2.7940929398,
				"element": "H" 
			},
			{
				"x": -4.2809586093,
				"y": 2.9610447165,
				"z": 1.3468794407,
				"element": "H" 
			},
			{
				"x": -1.7788881006,
				"y": 1.0863510134,
				"z": 3.2184873063,
				"element": "H" 
			},
			{
				"x": -2.6026224039,
				"y": -0.3160243977,
				"z": -1.5237174554,
				"element": "H" 
			},
			{
				"x": -3.9988826275,
				"y": 1.4327354301,
				"z": -0.4790418348,
				"element": "H" 
			},
			{
				"x": 1.8992394612,
				"y": -2.6593017562,
				"z": 2.3831611306,
				"element": "H" 
			},
			{
				"x": 2.5513591714,
				"y": -4.1308772608,
				"z": 0.4628476061,
				"element": "H" 
			},
			{
				"x": 1.3388841651,
				"y": -4.0019501006,
				"z": -1.6872320949,
				"element": "H" 
			},
			{
				"x": -0.546881917,
				"y": -2.4168614978,
				"z": -1.9929739687,
				"element": "H" 
			}
		],
		 "valence_orbital": [ 
			{
				"type": "occ",
				"energy": -0.31319,
				"method": "rhf"
			},
			{
				"type": "occ",
				"energy": -0.25554,
				"method": "rhf"
			},
			{
				"type": "occ",
				"energy": -0.25313,
				"method": "rhf"
			},
			{
				"type": "occ",
				"energy": -0.22014,
				"method": "rhf"
			},
			{
				"type": "occ",
				"energy": -0.19141,
				"method": "rhf"
			},
			{
				"type": "unocc",
				"energy": -0.02201,
				"method": "rhf"
			},
			{
				"type": "unocc",
				"energy": 0.00705,
				"method": "rhf"
			},
			{
				"type": "unocc",
				"energy": 0.02131,
				"method": "rhf"
			},
			{
				"type": "unocc",
				"energy": 0.04844,
				"method": "rhf"
			},
			{
				"type": "unocc",
				"energy": 0.08003,
				"method": "rhf"
			}
		],
		"cosmo_sigma_profile": { 
			"-0.025": 0.0,
			"-0.024": 0.0,
			"-0.023": 0.0,
			"-0.022": 0.0,
			"-0.021": 0.0,
			"-0.02": 0.0,
			"-0.019": 0.0,
			"-0.018": 0.0,
			"-0.017": 0.0,
			"-0.016": 0.0,
			"-0.015": 0.0,
			"-0.014": 0.0,
			"-0.013": 0.701743259933,
			"-0.012": 3.1410274058,
			"-0.011": 2.47462508247,
			"-0.01": 2.85256442992,
			"-0.009": 3.46880682176,
			"-0.008": 3.41479282926,
			"-0.007": 4.58952543174,
			"-0.006": 11.4618482588,
			"-0.005": 14.7714823527,
			"-0.004": 14.5426557374,
			"-0.003": 12.6188743569,
			"-0.002": 10.1891876701,
			"-0.001": 10.0771941073,
			"0.0": 10.1521126497,
			"0.001": 12.2554337542,
			"0.002": 15.7435482212,
			"0.003": 19.9353248364,
			"0.004": 20.322255396,
			"0.005": 21.989466101,
			"0.006": 11.9713461539,
			"0.007": 2.07205336498,
			"0.008": 2.45237157258,
			"0.009": 1.96276536834,
			"0.01": 0.897460757275,
			"0.011": 0.481127798629,
			"0.012": 0.890236126208,
			"0.013": 0.704890454511,
			"0.014": 0.416512681157,
			"0.015": 0.0350696558895,
			"0.016": 0.0,
			"0.017": 0.0,
			"0.018": 0.0,
			"0.019": 0.0,
			"0.02": 0.0,
			"0.021": 0.0,
			"0.022": 0.0,
			"0.023": 0.0,
			"0.024": 0.0,
			"0.025": 0.0
		}
	}
}
