{
	 "smiles": "OCC1OC(C(O)C1O)N1C=NC2=C1N=CN=C2Cl", 
	 "Tm": 435.15, 
	 "num_atms": 30, 
	 "gaussian": { 
		 "optdone": 1, 
		 "sigma_profile": "yes", 
		 "theory": "DFT", 
		 "functional": "B3LYP", 
		 "basiset": "6-31G**", 
		 "properties": { 
			 "R2extent": 7925.0119, 
			 "electric_dipole_moment_norm": 7.21452051144, 
			 "electric_quadrupole_moment_norm": 16.1325709938, 
			 "total_energy": -1367.75622032, 
			 "HOMO_LUMO_gap": 0.20066, 
			 "cosmo_polarized_energy": -20.91, 
			 "cosmo_cavitation_energy": 34.55, 
			 "cosmo_dispersion_energy": -25.71, 
			 "cosmo_repulsion_energy": 1.96, 
			 "cosmo_total_nonelectrostatic_energy": 10.8, 
			 "SMD_solvation_energy": 1.19 
		},
		"coords": [
			{
				"x": 2.5423673181,
				"y": -0.0682342456,
				"z": -2.3281539599,
				"element": "O" 
			},
			{
				"x": 3.0764683381,
				"y": -1.1604214835,
				"z": -1.5742260383,
				"element": "C" 
			},
			{
				"x": 2.1840824491,
				"y": -1.4352957288,
				"z": -0.373993504,
				"element": "C" 
			},
			{
				"x": 0.8364583641,
				"y": -1.7035755813,
				"z": -0.8345639185,
				"element": "O" 
			},
			{
				"x": -0.092190385,
				"y": -0.854799347,
				"z": -0.2032712505,
				"element": "C" 
			},
			{
				"x": 0.6948748011,
				"y": 0.3679538369,
				"z": 0.2933940506,
				"element": "C" 
			},
			{
				"x": 0.8451882254,
				"y": 1.3512179355,
				"z": -0.709977439,
				"element": "O" 
			},
			{
				"x": 2.0640133348,
				"y": -0.2618846293,
				"z": 0.6491542793,
				"element": "C" 
			},
			{
				"x": 3.117687556,
				"y": 0.6673785459,
				"z": 0.6032798734,
				"element": "O" 
			},
			{
				"x": -0.7325470591,
				"y": -1.5942639329,
				"z": 0.9090652517,
				"element": "N" 
			},
			{
				"x": -0.6475058455,
				"y": -2.9555592247,
				"z": 1.1506784996,
				"element": "C" 
			},
			{
				"x": -1.3951563657,
				"y": -3.3792600307,
				"z": 2.1411552104,
				"element": "N" 
			},
			{
				"x": -2.0379313673,
				"y": -2.2431256558,
				"z": 2.5824434662,
				"element": "C" 
			},
			{
				"x": -1.6478508503,
				"y": -1.1146940266,
				"z": 1.8229886217,
				"element": "C" 
			},
			{
				"x": -2.0870380987,
				"y": 0.1340542731,
				"z": 1.9822178813,
				"element": "N" 
			},
			{
				"x": -2.9748083344,
				"y": 0.2389399365,
				"z": 2.9744431888,
				"element": "C" 
			},
			{
				"x": -3.4308548895,
				"y": -0.7432548488,
				"z": 3.7754009805,
				"element": "N" 
			},
			{
				"x": -2.9705828446,
				"y": -1.9681751614,
				"z": 3.5869039088,
				"element": "C" 
			},
			{
				"x": -3.5595324891,
				"y": -3.2409594867,
				"z": 4.6262608931,
				"element": "Cl" 
			},
			{
				"x": 3.2186264008,
				"y": 0.2637169163,
				"z": -2.9298993705,
				"element": "H" 
			},
			{
				"x": 4.0803366877,
				"y": -0.9303085337,
				"z": -1.198022684,
				"element": "H" 
			},
			{
				"x": 3.1226244538,
				"y": -2.0603975227,
				"z": -2.2011850872,
				"element": "H" 
			},
			{
				"x": 2.5664516973,
				"y": -2.3400903998,
				"z": 0.1155410842,
				"element": "H" 
			},
			{
				"x": -0.864407763,
				"y": -0.5727613351,
				"z": -0.9247179243,
				"element": "H" 
			},
			{
				"x": 0.2067138567,
				"y": 0.8521362162,
				"z": 1.1392161789,
				"element": "H" 
			},
			{
				"x": 1.2906289137,
				"y": 0.9352852119,
				"z": -1.4771115635,
				"element": "H" 
			},
			{
				"x": 2.028085159,
				"y": -0.680555826,
				"z": 1.6607090124,
				"element": "H" 
			},
			{
				"x": 2.7914811067,
				"y": 1.3949868196,
				"z": 0.0461891633,
				"element": "H" 
			},
			{
				"x": -0.006765396,
				"y": -3.5771005224,
				"z": 0.5427356759,
				"element": "H" 
			},
			{
				"x": -3.3794169742,
				"y": 1.2296478307,
				"z": 3.1626455195,
				"element": "H" 
			}
		],
		 "valence_orbital": [ 
			{
				"type": "occ",
				"energy": -0.29169,
				"method": "rhf"
			},
			{
				"type": "occ",
				"energy": -0.28182,
				"method": "rhf"
			},
			{
				"type": "occ",
				"energy": -0.27476,
				"method": "rhf"
			},
			{
				"type": "occ",
				"energy": -0.2653,
				"method": "rhf"
			},
			{
				"type": "occ",
				"energy": -0.25456,
				"method": "rhf"
			},
			{
				"type": "unocc",
				"energy": -0.0539,
				"method": "rhf"
			},
			{
				"type": "unocc",
				"energy": -0.01876,
				"method": "rhf"
			},
			{
				"type": "unocc",
				"energy": 0.02333,
				"method": "rhf"
			},
			{
				"type": "unocc",
				"energy": 0.03323,
				"method": "rhf"
			},
			{
				"type": "unocc",
				"energy": 0.0386,
				"method": "rhf"
			}
		],
		"cosmo_sigma_profile": { 
			"-0.025": 0.0,
			"-0.024": 0.0,
			"-0.023": 0.0,
			"-0.022": 0.0,
			"-0.021": 0.0,
			"-0.02": 0.0,
			"-0.019": 0.0,
			"-0.018": 0.100020944259,
			"-0.017": 0.993013908271,
			"-0.016": 1.45004996433,
			"-0.015": 0.663641256076,
			"-0.014": 0.772647771496,
			"-0.013": 1.06899629284,
			"-0.012": 1.35351702398,
			"-0.011": 0.889534119445,
			"-0.01": 2.05915355658,
			"-0.009": 3.74295735218,
			"-0.008": 7.19963809043,
			"-0.007": 10.4682588382,
			"-0.006": 20.3907578281,
			"-0.005": 19.7683963171,
			"-0.004": 20.4385528981,
			"-0.003": 19.7921647238,
			"-0.002": 18.3196640646,
			"-0.001": 16.2173617376,
			"0.0": 12.9794428523,
			"0.001": 11.6118434086,
			"0.002": 14.4026361762,
			"0.003": 14.7895861143,
			"0.004": 13.6884176592,
			"0.005": 9.39213402465,
			"0.006": 7.94404402116,
			"0.007": 6.96338302901,
			"0.008": 6.97092488773,
			"0.009": 6.85793139211,
			"0.01": 6.35545821431,
			"0.011": 6.64148377976,
			"0.012": 4.9371097061,
			"0.013": 4.91979516724,
			"0.014": 2.00731678126,
			"0.015": 0.880440316239,
			"0.016": 0.0434854186159,
			"0.017": 0.0,
			"0.018": 0.0,
			"0.019": 0.0,
			"0.02": 0.0,
			"0.021": 0.0,
			"0.022": 0.0,
			"0.023": 0.0,
			"0.024": 0.0,
			"0.025": 0.0
		}
	}
}
