{
	 "smiles": "ClC1=NC(Cl)=NC(Cl)=N1", 
	 "Tm": 427.15, 
	 "num_atms": 9, 
	 "gaussian": { 
		 "optdone": 1, 
		 "sigma_profile": "yes", 
		 "theory": "DFT", 
		 "functional": "B3LYP", 
		 "basiset": "6-31G**", 
		 "properties": { 
			 "R2extent": 2144.8406, 
			 "electric_dipole_moment_norm": 0.00022360679775, 
			 "electric_quadrupole_moment_norm": 2.5603870723, 
			 "total_energy": -1659.13275583, 
			 "HOMO_LUMO_gap": 0.23046, 
			 "cosmo_polarized_energy": -4.96, 
			 "cosmo_cavitation_energy": 20.25, 
			 "cosmo_dispersion_energy": -15.89, 
			 "cosmo_repulsion_energy": 1.34, 
			 "cosmo_total_nonelectrostatic_energy": 5.69, 
			 "SMD_solvation_energy": -1.7 
		},
		"coords": [
			{
				"x": 2.5993643116,
				"y": -0.0373618894,
				"z": 0.8850353727,
				"element": "Cl" 
			},
			{
				"x": 0.9659482021,
				"y": -0.2776201545,
				"z": 0.362602316,
				"element": "C" 
			},
			{
				"x": 0.662122341,
				"y": 0.1523423944,
				"z": -0.8592927227,
				"element": "N" 
			},
			{
				"x": -0.6077432124,
				"y": -0.066182627,
				"z": -1.1908064764,
				"element": "C" 
			},
			{
				"x": -1.0993230554,
				"y": 0.4599412105,
				"z": -2.7656797369,
				"element": "Cl" 
			},
			{
				"x": -1.539482154,
				"y": -0.6465560482,
				"z": -0.4389790408,
				"element": "N" 
			},
			{
				"x": -1.0892953304,
				"y": -1.0234798232,
				"z": 0.7549499275,
				"element": "C" 
			},
			{
				"x": -2.2309907369,
				"y": -1.79032,
				"z": 1.8071791587,
				"element": "Cl" 
			},
			{
				"x": 0.1462996344,
				"y": -0.8731630627,
				"z": 1.2249912018,
				"element": "N" 
			}
		],
		 "valence_orbital": [ 
			{
				"type": "occ",
				"energy": -0.34382,
				"method": "rhf"
			},
			{
				"type": "occ",
				"energy": -0.32888,
				"method": "rhf"
			},
			{
				"type": "occ",
				"energy": -0.32888,
				"method": "rhf"
			},
			{
				"type": "occ",
				"energy": -0.31948,
				"method": "rhf"
			},
			{
				"type": "occ",
				"energy": -0.31947,
				"method": "rhf"
			},
			{
				"type": "unocc",
				"energy": -0.08901,
				"method": "rhf"
			},
			{
				"type": "unocc",
				"energy": -0.08901,
				"method": "rhf"
			},
			{
				"type": "unocc",
				"energy": -0.01726,
				"method": "rhf"
			},
			{
				"type": "unocc",
				"energy": 0.02595,
				"method": "rhf"
			},
			{
				"type": "unocc",
				"energy": 0.02595,
				"method": "rhf"
			}
		],
		"cosmo_sigma_profile": { 
			"-0.025": 0.0,
			"-0.024": 0.0,
			"-0.023": 0.0,
			"-0.022": 0.0,
			"-0.021": 0.0,
			"-0.02": 0.0,
			"-0.019": 0.0,
			"-0.018": 0.0,
			"-0.017": 0.0,
			"-0.016": 0.0,
			"-0.015": 0.0,
			"-0.014": 0.0,
			"-0.013": 0.0,
			"-0.012": 0.264474377332,
			"-0.011": 1.32020950341,
			"-0.01": 1.67580835294,
			"-0.009": 1.69485300265,
			"-0.008": 2.65393523337,
			"-0.007": 4.01666191697,
			"-0.006": 4.56218603883,
			"-0.005": 8.78343892015,
			"-0.004": 9.62640949254,
			"-0.003": 10.2452073201,
			"-0.002": 11.7604486656,
			"-0.001": 11.7605712572,
			"0.0": 16.205546279,
			"0.001": 25.3329751567,
			"0.002": 24.5692536607,
			"0.003": 12.25829293,
			"0.004": 6.26349676969,
			"0.005": 4.6423285513,
			"0.006": 4.5221443102,
			"0.007": 2.64621927618,
			"0.008": 2.46191714548,
			"0.009": 2.65141906174,
			"0.01": 2.11843125214,
			"0.011": 0.10747782694,
			"0.012": 0.0,
			"0.013": 0.0,
			"0.014": 0.0,
			"0.015": 0.0,
			"0.016": 0.0,
			"0.017": 0.0,
			"0.018": 0.0,
			"0.019": 0.0,
			"0.02": 0.0,
			"0.021": 0.0,
			"0.022": 0.0,
			"0.023": 0.0,
			"0.024": 0.0,
			"0.025": 0.0
		}
	}
}
