{
	 "smiles": "OC(=O)CCC1=NN=C(O1)C1CCCC1", 
	 "Tm": 336.15, 
	 "num_atms": 29, 
	 "gaussian": { 
		 "optdone": 1, 
		 "sigma_profile": "yes", 
		 "theory": "DFT", 
		 "functional": "B3LYP", 
		 "basiset": "6-31G**", 
		 "properties": { 
			 "R2extent": 4327.4618, 
			 "electric_dipole_moment_norm": 4.74181098948, 
			 "electric_quadrupole_moment_norm": 18.1332611198, 
			 "total_energy": -724.676219951, 
			 "HOMO_LUMO_gap": 0.25531, 
			 "cosmo_polarized_energy": -18.25, 
			 "cosmo_cavitation_energy": 32.47, 
			 "cosmo_dispersion_energy": -23.27, 
			 "cosmo_repulsion_energy": 1.89, 
			 "cosmo_total_nonelectrostatic_energy": 11.1, 
			 "SMD_solvation_energy": 4.16 
		},
		"coords": [
			{
				"x": -3.8340870523,
				"y": -0.0770071823,
				"z": -2.4438047209,
				"element": "O" 
			},
			{
				"x": -3.2627952607,
				"y": 0.6842902078,
				"z": -1.4805132528,
				"element": "C" 
			},
			{
				"x": -2.7314819527,
				"y": 1.7470018368,
				"z": -1.710921814,
				"element": "O" 
			},
			{
				"x": -3.3937697649,
				"y": 0.0356235893,
				"z": -0.118430102,
				"element": "C" 
			},
			{
				"x": -2.7006856488,
				"y": 0.8268442655,
				"z": 0.9961028649,
				"element": "C" 
			},
			{
				"x": -1.2137955063,
				"y": 0.8853049816,
				"z": 0.8732543927,
				"element": "C" 
			},
			{
				"x": -0.4136922277,
				"y": 1.8409355671,
				"z": 1.2150950808,
				"element": "N" 
			},
			{
				"x": 0.8839106638,
				"y": 1.3842207176,
				"z": 0.9470193505,
				"element": "N" 
			},
			{
				"x": 0.7663018028,
				"y": 0.1894814763,
				"z": 0.4636573417,
				"element": "C" 
			},
			{
				"x": -0.5456679128,
				"y": -0.2048215112,
				"z": 0.3879775315,
				"element": "O" 
			},
			{
				"x": 1.8167028302,
				"y": -0.7720862989,
				"z": 0.02547471,
				"element": "C" 
			},
			{
				"x": 1.9952710953,
				"y": -1.9879021694,
				"z": 0.9722232987,
				"element": "C" 
			},
			{
				"x": 3.3707816786,
				"y": -2.5313442386,
				"z": 0.5624475983,
				"element": "C" 
			},
			{
				"x": 4.2258916968,
				"y": -1.2605876046,
				"z": 0.3625797594,
				"element": "C" 
			},
			{
				"x": 3.233868409,
				"y": -0.1436736862,
				"z": -0.0739616876,
				"element": "C" 
			},
			{
				"x": -3.7172716532,
				"y": 0.4082268126,
				"z": -3.2780321226,
				"element": "H" 
			},
			{
				"x": -3.0018596349,
				"y": -0.9844849839,
				"z": -0.1857355931,
				"element": "H" 
			},
			{
				"x": -4.4627322162,
				"y": -0.065668451,
				"z": 0.1012948667,
				"element": "H" 
			},
			{
				"x": -2.9586364243,
				"y": 0.3669515537,
				"z": 1.9585459189,
				"element": "H" 
			},
			{
				"x": -3.0595211889,
				"y": 1.8580324691,
				"z": 1.022997408,
				"element": "H" 
			},
			{
				"x": 1.5162554097,
				"y": -1.1599505106,
				"z": -0.9571080398,
				"element": "H" 
			},
			{
				"x": 1.1843755638,
				"y": -2.716844556,
				"z": 0.8812498581,
				"element": "H" 
			},
			{
				"x": 2.0192243592,
				"y": -1.6403545945,
				"z": 2.0126107423,
				"element": "H" 
			},
			{
				"x": 3.280065644,
				"y": -3.0820010568,
				"z": -0.3825939152,
				"element": "H" 
			},
			{
				"x": 3.7945865803,
				"y": -3.2207338974,
				"z": 1.2991527275,
				"element": "H" 
			},
			{
				"x": 4.7062335978,
				"y": -0.9837157313,
				"z": 1.3071595012,
				"element": "H" 
			},
			{
				"x": 5.0277403837,
				"y": -1.4136427497,
				"z": -0.3656960184,
				"element": "H" 
			},
			{
				"x": 3.4261745513,
				"y": 0.2105962471,
				"z": -1.0904538581,
				"element": "H" 
			},
			{
				"x": 3.2996121775,
				"y": 0.727009498,
				"z": 0.5821081733,
				"element": "H" 
			}
		],
		 "valence_orbital": [ 
			{
				"type": "occ",
				"energy": -0.32197,
				"method": "rhf"
			},
			{
				"type": "occ",
				"energy": -0.30537,
				"method": "rhf"
			},
			{
				"type": "occ",
				"energy": -0.28561,
				"method": "rhf"
			},
			{
				"type": "occ",
				"energy": -0.26541,
				"method": "rhf"
			},
			{
				"type": "occ",
				"energy": -0.25584,
				"method": "rhf"
			},
			{
				"type": "unocc",
				"energy": -0.00053,
				"method": "rhf"
			},
			{
				"type": "unocc",
				"energy": 0.00227,
				"method": "rhf"
			},
			{
				"type": "unocc",
				"energy": 0.04169,
				"method": "rhf"
			},
			{
				"type": "unocc",
				"energy": 0.07211,
				"method": "rhf"
			},
			{
				"type": "unocc",
				"energy": 0.07885,
				"method": "rhf"
			}
		],
		"cosmo_sigma_profile": { 
			"-0.025": 0.0,
			"-0.024": 0.0,
			"-0.023": 0.0,
			"-0.022": 0.0,
			"-0.021": 0.0,
			"-0.02": 0.0,
			"-0.019": 0.0422157275988,
			"-0.018": 0.695831810826,
			"-0.017": 0.989593415358,
			"-0.016": 0.828054680736,
			"-0.015": 0.95999757993,
			"-0.014": 0.53986364196,
			"-0.013": 0.527968634328,
			"-0.012": 0.624721616581,
			"-0.011": 1.41724814691,
			"-0.01": 0.522772678473,
			"-0.009": 0.347620791759,
			"-0.008": 1.3710474171,
			"-0.007": 8.08613376377,
			"-0.006": 12.6002479347,
			"-0.005": 13.2345369636,
			"-0.004": 16.7083443953,
			"-0.003": 28.7944597799,
			"-0.002": 30.2167574054,
			"-0.001": 29.2837883082,
			"0.0": 20.7389549956,
			"0.001": 17.4434402643,
			"0.002": 6.95259344163,
			"0.003": 5.03380100283,
			"0.004": 6.29838038742,
			"0.005": 4.56456109494,
			"0.006": 4.31841012007,
			"0.007": 4.31512008537,
			"0.008": 5.61695189439,
			"0.009": 5.42478374058,
			"0.01": 5.49137027088,
			"0.011": 6.34505119012,
			"0.012": 6.45430004924,
			"0.013": 2.80135635169,
			"0.014": 2.77062911746,
			"0.015": 1.68149196555,
			"0.016": 0.476943236471,
			"0.017": 0.0,
			"0.018": 0.0,
			"0.019": 0.0,
			"0.02": 0.0,
			"0.021": 0.0,
			"0.022": 0.0,
			"0.023": 0.0,
			"0.024": 0.0,
			"0.025": 0.0
		}
	}
}
