{
	 "smiles": "OC1CS(=O)(=O)CC1NCC1=CC=CO1", 
	 "Tm": 413.15, 
	 "num_atms": 28, 
	 "gaussian": { 
		 "optdone": 1, 
		 "sigma_profile": "yes", 
		 "theory": "DFT", 
		 "functional": "B3LYP", 
		 "basiset": "6-31G**", 
		 "properties": { 
			 "R2extent": 5085.9941, 
			 "electric_dipole_moment_norm": 6.15586956571, 
			 "electric_quadrupole_moment_norm": 27.8730660743, 
			 "total_energy": -1104.51739796, 
			 "HOMO_LUMO_gap": 0.23176, 
			 "cosmo_polarized_energy": -21.39, 
			 "cosmo_cavitation_energy": 32.41, 
			 "cosmo_dispersion_energy": -23.16, 
			 "cosmo_repulsion_energy": 1.78, 
			 "cosmo_total_nonelectrostatic_energy": 11.03, 
			 "SMD_solvation_energy": 4.13 
		},
		"coords": [
			{
				"x": -1.2150923871,
				"y": 0.9320935188,
				"z": -2.8430819436,
				"element": "O" 
			},
			{
				"x": -0.1399566276,
				"y": 1.767122398,
				"z": -2.4902050892,
				"element": "C" 
			},
			{
				"x": -0.6190155267,
				"y": 3.2024085357,
				"z": -2.2766354784,
				"element": "C" 
			},
			{
				"x": 0.7101091618,
				"y": 3.9973473322,
				"z": -1.2937045074,
				"element": "S" 
			},
			{
				"x": 0.1238295071,
				"y": 4.6942038133,
				"z": -0.1388802872,
				"element": "O" 
			},
			{
				"x": 1.6309232161,
				"y": 4.6928641614,
				"z": -2.207518958,
				"element": "O" 
			},
			{
				"x": 1.4961893529,
				"y": 2.4260934689,
				"z": -0.7407195461,
				"element": "C" 
			},
			{
				"x": 0.5091913112,
				"y": 1.3169485259,
				"z": -1.1635899122,
				"element": "C" 
			},
			{
				"x": 1.0325702291,
				"y": -0.0327470487,
				"z": -1.3357382524,
				"element": "N" 
			},
			{
				"x": 1.4121339439,
				"y": -0.7519077439,
				"z": -0.1015796252,
				"element": "C" 
			},
			{
				"x": 0.2459747863,
				"y": -1.0780420412,
				"z": 0.7712513031,
				"element": "C" 
			},
			{
				"x": -0.6251042379,
				"y": -2.1262942226,
				"z": 0.8337784457,
				"element": "C" 
			},
			{
				"x": -1.545507922,
				"y": -1.8355743292,
				"z": 1.8933520728,
				"element": "C" 
			},
			{
				"x": -1.169194611,
				"y": -0.6297150668,
				"z": 2.3996101098,
				"element": "C" 
			},
			{
				"x": -0.0807628917,
				"y": -0.1520324704,
				"z": 1.730842766,
				"element": "O" 
			},
			{
				"x": -0.9090660116,
				"y": 0.0324783214,
				"z": -2.6386985077,
				"element": "H" 
			},
			{
				"x": 0.6397828214,
				"y": 1.7639283254,
				"z": -3.2741497336,
				"element": "H" 
			},
			{
				"x": -1.5345292082,
				"y": 3.2153729335,
				"z": -1.6806762435,
				"element": "H" 
			},
			{
				"x": -0.7493694652,
				"y": 3.7801882763,
				"z": -3.1922587397,
				"element": "H" 
			},
			{
				"x": 1.6606796697,
				"y": 2.496594904,
				"z": 0.3353305008,
				"element": "H" 
			},
			{
				"x": 2.4523480277,
				"y": 2.3576911107,
				"z": -1.2670151069,
				"element": "H" 
			},
			{
				"x": -0.2947500873,
				"y": 1.2629997659,
				"z": -0.4217824254,
				"element": "H" 
			},
			{
				"x": 1.837685756,
				"y": -0.0080660225,
				"z": -1.9598993128,
				"element": "H" 
			},
			{
				"x": 2.1512859335,
				"y": -0.2004217807,
				"z": 0.5015036813,
				"element": "H" 
			},
			{
				"x": 1.8839530773,
				"y": -1.688233088,
				"z": -0.4144351828,
				"element": "H" 
			},
			{
				"x": -0.6116803986,
				"y": -3.0029075018,
				"z": 0.2016422505,
				"element": "H" 
			},
			{
				"x": -2.369948054,
				"y": -2.4462443474,
				"z": 2.2319388057,
				"element": "H" 
			},
			{
				"x": -1.5434793651,
				"y": -0.0052497283,
				"z": 3.1958189164,
				"element": "H" 
			}
		],
		 "valence_orbital": [ 
			{
				"type": "occ",
				"energy": -0.29036,
				"method": "rhf"
			},
			{
				"type": "occ",
				"energy": -0.288,
				"method": "rhf"
			},
			{
				"type": "occ",
				"energy": -0.28241,
				"method": "rhf"
			},
			{
				"type": "occ",
				"energy": -0.25505,
				"method": "rhf"
			},
			{
				"type": "occ",
				"energy": -0.23672,
				"method": "rhf"
			},
			{
				"type": "unocc",
				"energy": -0.00496,
				"method": "rhf"
			},
			{
				"type": "unocc",
				"energy": 0.04592,
				"method": "rhf"
			},
			{
				"type": "unocc",
				"energy": 0.05498,
				"method": "rhf"
			},
			{
				"type": "unocc",
				"energy": 0.06148,
				"method": "rhf"
			},
			{
				"type": "unocc",
				"energy": 0.06365,
				"method": "rhf"
			}
		],
		"cosmo_sigma_profile": { 
			"-0.025": 0.0,
			"-0.024": 0.0,
			"-0.023": 0.0,
			"-0.022": 0.0,
			"-0.021": 0.0,
			"-0.02": 0.0,
			"-0.019": 0.0,
			"-0.018": 0.0,
			"-0.017": 0.0,
			"-0.016": 0.0,
			"-0.015": 0.0,
			"-0.014": 0.0,
			"-0.013": 0.0,
			"-0.012": 1.0226137661,
			"-0.011": 3.67289489462,
			"-0.01": 2.76249875476,
			"-0.009": 4.31506517579,
			"-0.008": 10.4592864067,
			"-0.007": 14.3118871928,
			"-0.006": 19.2476297224,
			"-0.005": 21.2095249609,
			"-0.004": 21.141774958,
			"-0.003": 15.9780090449,
			"-0.002": 12.9388966232,
			"-0.001": 10.5146926358,
			"0.0": 9.91925024801,
			"0.001": 11.1646440031,
			"0.002": 10.2733640056,
			"0.003": 10.7666787167,
			"0.004": 11.2450644402,
			"0.005": 10.4355871944,
			"0.006": 7.78842421911,
			"0.007": 4.97163755628,
			"0.008": 3.72640356261,
			"0.009": 4.36714242263,
			"0.01": 5.8612979401,
			"0.011": 10.9556288684,
			"0.012": 12.444434206,
			"0.013": 3.51688854573,
			"0.014": 0.399366021088,
			"0.015": 0.0,
			"0.016": 0.0,
			"0.017": 0.0,
			"0.018": 0.0,
			"0.019": 0.0,
			"0.02": 0.0,
			"0.021": 0.0,
			"0.022": 0.0,
			"0.023": 0.0,
			"0.024": 0.0,
			"0.025": 0.0
		}
	}
}
