{
	 "smiles": "FC(F)(F)C1=CC(=O)N2C(SC=C2C2=CC=C(Br)C=C2)=N1", 
	 "Tm": 444.15, 
	 "num_atms": 27, 
	 "gaussian": { 
		 "optdone": 1, 
		 "sigma_profile": "yes", 
		 "theory": "DFT", 
		 "functional": "B3LYP", 
		 "basiset": "6-31G**", 
		 "properties": { 
			 "R2extent": 12438.0355, 
			 "electric_dipole_moment_norm": 3.88026577054, 
			 "electric_quadrupole_moment_norm": 16.0103372769, 
			 "total_energy": -3952.83245122, 
			 "HOMO_LUMO_gap": 0.16364, 
			 "cosmo_polarized_energy": -13.24, 
			 "cosmo_cavitation_energy": 38.4, 
			 "cosmo_dispersion_energy": -27.67, 
			 "cosmo_repulsion_energy": 2.01, 
			 "cosmo_total_nonelectrostatic_energy": 12.74, 
			 "SMD_solvation_energy": 5.55 
		},
		"coords": [
			{
				"x": -3.158678502,
				"y": -1.9180036551,
				"z": 3.9692222535,
				"element": "F" 
			},
			{
				"x": -3.126044621,
				"y": -2.5072468185,
				"z": 2.7599255101,
				"element": "C" 
			},
			{
				"x": -4.3847859023,
				"y": -2.5386658282,
				"z": 2.2853451336,
				"element": "F" 
			},
			{
				"x": -2.7185026141,
				"y": -3.781432296,
				"z": 2.9328306888,
				"element": "F" 
			},
			{
				"x": -2.2108538201,
				"y": -1.7518965573,
				"z": 1.8151082925,
				"element": "C" 
			},
			{
				"x": -1.1244798134,
				"y": -2.3554546343,
				"z": 1.247457122,
				"element": "C" 
			},
			{
				"x": -0.2535147748,
				"y": -1.6366405468,
				"z": 0.3483959676,
				"element": "C" 
			},
			{
				"x": 0.7380139057,
				"y": -2.0610739288,
				"z": -0.2162546702,
				"element": "O" 
			},
			{
				"x": -0.6874285861,
				"y": -0.2630761533,
				"z": 0.1565059099,
				"element": "N" 
			},
			{
				"x": -1.8142398167,
				"y": 0.2140710387,
				"z": 0.8004779725,
				"element": "C" 
			},
			{
				"x": -2.1020077643,
				"y": 1.8949921661,
				"z": 0.3889810584,
				"element": "S" 
			},
			{
				"x": -0.6866317578,
				"y": 1.8843036827,
				"z": -0.6376427684,
				"element": "C" 
			},
			{
				"x": -0.0457709833,
				"y": 0.6945721635,
				"z": -0.6645965688,
				"element": "C" 
			},
			{
				"x": 1.1823606459,
				"y": 0.4266594552,
				"z": -1.4601761461,
				"element": "C" 
			},
			{
				"x": 2.4467289118,
				"y": 0.6875464916,
				"z": -0.9178825325,
				"element": "C" 
			},
			{
				"x": 3.5979848093,
				"y": 0.507011396,
				"z": -1.6819909106,
				"element": "C" 
			},
			{
				"x": 3.4769479772,
				"y": 0.0680966449,
				"z": -2.9994524919,
				"element": "C" 
			},
			{
				"x": 5.0491341716,
				"y": -0.1758227364,
				"z": -4.0548061589,
				"element": "Br" 
			},
			{
				"x": 2.2278872288,
				"y": -0.1889547351,
				"z": -3.5622755599,
				"element": "C" 
			},
			{
				"x": 1.0835865912,
				"y": -0.0048882373,
				"z": -2.7886322396,
				"element": "C" 
			},
			{
				"x": -2.5820070971,
				"y": -0.4595425732,
				"z": 1.6080964032,
				"element": "N" 
			},
			{
				"x": -0.873732119,
				"y": -3.3881160859,
				"z": 1.44627972,
				"element": "H" 
			},
			{
				"x": -0.3924456115,
				"y": 2.7709513645,
				"z": -1.17960917,
				"element": "H" 
			},
			{
				"x": 2.5340570032,
				"y": 1.0288330199,
				"z": 0.108887075,
				"element": "H" 
			},
			{
				"x": 4.5762175366,
				"y": 0.7062601226,
				"z": -1.2600822816,
				"element": "H" 
			},
			{
				"x": 2.1502678319,
				"y": -0.5260737611,
				"z": -4.5893933427,
				"element": "H" 
			},
			{
				"x": 0.1078371702,
				"y": -0.2036089984,
				"z": -3.2208182658,
				"element": "H" 
			}
		],
		 "valence_orbital": [ 
			{
				"type": "occ",
				"energy": -0.29215,
				"method": "rhf"
			},
			{
				"type": "occ",
				"energy": -0.28219,
				"method": "rhf"
			},
			{
				"type": "occ",
				"energy": -0.27484,
				"method": "rhf"
			},
			{
				"type": "occ",
				"energy": -0.24858,
				"method": "rhf"
			},
			{
				"type": "occ",
				"energy": -0.23673,
				"method": "rhf"
			},
			{
				"type": "unocc",
				"energy": -0.07309,
				"method": "rhf"
			},
			{
				"type": "unocc",
				"energy": -0.03799,
				"method": "rhf"
			},
			{
				"type": "unocc",
				"energy": -0.02604,
				"method": "rhf"
			},
			{
				"type": "unocc",
				"energy": -0.02329,
				"method": "rhf"
			},
			{
				"type": "unocc",
				"energy": -0.01168,
				"method": "rhf"
			}
		],
		"cosmo_sigma_profile": { 
			"-0.025": 0.0,
			"-0.024": 0.0,
			"-0.023": 0.0,
			"-0.022": 0.0,
			"-0.021": 0.0,
			"-0.02": 0.0,
			"-0.019": 0.0,
			"-0.018": 0.0,
			"-0.017": 0.0,
			"-0.016": 0.0,
			"-0.015": 0.0,
			"-0.014": 0.0,
			"-0.013": 0.0,
			"-0.012": 0.0295887480761,
			"-0.011": 1.74577943863,
			"-0.01": 2.56127756294,
			"-0.009": 1.76351576778,
			"-0.008": 3.71073088919,
			"-0.007": 11.3880909444,
			"-0.006": 15.3702781489,
			"-0.005": 18.1249944846,
			"-0.004": 16.6516615046,
			"-0.003": 19.8355180656,
			"-0.002": 21.1093189679,
			"-0.001": 27.0640386928,
			"0.0": 27.3428889472,
			"0.001": 24.65193365,
			"0.002": 44.3937658532,
			"0.003": 29.6359654381,
			"0.004": 17.126138337,
			"0.005": 8.00040675847,
			"0.006": 4.68714486758,
			"0.007": 3.68984334361,
			"0.008": 2.20591182134,
			"0.009": 2.87401843288,
			"0.01": 3.56034764521,
			"0.011": 3.53364990314,
			"0.012": 3.53813184164,
			"0.013": 1.73692191245,
			"0.014": 0.0790616698834,
			"0.015": 0.0,
			"0.016": 0.0,
			"0.017": 0.0,
			"0.018": 0.0,
			"0.019": 0.0,
			"0.02": 0.0,
			"0.021": 0.0,
			"0.022": 0.0,
			"0.023": 0.0,
			"0.024": 0.0,
			"0.025": 0.0
		}
	}
}
