{
	 "smiles": "BrCC(Br)CBr", 
	 "Tm": 289.65, 
	 "num_atms": 11, 
	 "gaussian": { 
		 "optdone": 1, 
		 "sigma_profile": "yes", 
		 "theory": "DFT", 
		 "functional": "B3LYP", 
		 "basiset": "6-31G**", 
		 "properties": { 
			 "R2extent": 2960.9434, 
			 "electric_dipole_moment_norm": 1.44813751764, 
			 "electric_quadrupole_moment_norm": 6.74238014576, 
			 "total_energy": -7831.55432765, 
			 "HOMO_LUMO_gap": 0.23622, 
			 "cosmo_polarized_energy": -6.83, 
			 "cosmo_cavitation_energy": 20.76, 
			 "cosmo_dispersion_energy": -16.36, 
			 "cosmo_repulsion_energy": 1.39, 
			 "cosmo_total_nonelectrostatic_energy": 5.79, 
			 "SMD_solvation_energy": 0.1 
		},
		"coords": [
			{
				"x": 0.2790502234,
				"y": 0.1610843459,
				"z": 2.3079544069,
				"element": "Br" 
			},
			{
				"x": 1.032613476,
				"y": 0.0726204908,
				"z": 0.4735461627,
				"element": "C" 
			},
			{
				"x": -0.0798734663,
				"y": -0.0928337371,
				"z": -0.5451423241,
				"element": "C" 
			},
			{
				"x": 0.7485071903,
				"y": 0.1370847213,
				"z": -2.3438182163,
				"element": "Br" 
			},
			{
				"x": -0.8770862532,
				"y": -1.3838546569,
				"z": -0.4736879662,
				"element": "C" 
			},
			{
				"x": 0.2147616796,
				"y": -3.0205944384,
				"z": -0.589812435,
				"element": "Br" 
			},
			{
				"x": 1.5670289465,
				"y": 1.0082290383,
				"z": 0.3313285534,
				"element": "H" 
			},
			{
				"x": 1.7187285223,
				"y": -0.7718875105,
				"z": 0.4648484025,
				"element": "H" 
			},
			{
				"x": -0.7850851364,
				"y": 0.7384283244,
				"z": -0.4754822449,
				"element": "H" 
			},
			{
				"x": -1.3852858207,
				"y": -1.4406393338,
				"z": 0.4893781443,
				"element": "H" 
			},
			{
				"x": -1.5981593615,
				"y": -1.4445372442,
				"z": -1.2859124832,
				"element": "H" 
			}
		],
		 "valence_orbital": [ 
			{
				"type": "occ",
				"energy": -0.29586,
				"method": "rhf"
			},
			{
				"type": "occ",
				"energy": -0.29125,
				"method": "rhf"
			},
			{
				"type": "occ",
				"energy": -0.28888,
				"method": "rhf"
			},
			{
				"type": "occ",
				"energy": -0.28416,
				"method": "rhf"
			},
			{
				"type": "occ",
				"energy": -0.27843,
				"method": "rhf"
			},
			{
				"type": "unocc",
				"energy": -0.04221,
				"method": "rhf"
			},
			{
				"type": "unocc",
				"energy": -0.01206,
				"method": "rhf"
			},
			{
				"type": "unocc",
				"energy": 0.01028,
				"method": "rhf"
			},
			{
				"type": "unocc",
				"energy": 0.08674,
				"method": "rhf"
			},
			{
				"type": "unocc",
				"energy": 0.11881,
				"method": "rhf"
			}
		],
		"cosmo_sigma_profile": { 
			"-0.025": 0.0,
			"-0.024": 0.0,
			"-0.023": 0.0,
			"-0.022": 0.0,
			"-0.021": 0.0,
			"-0.02": 0.0,
			"-0.019": 0.0,
			"-0.018": 0.0,
			"-0.017": 0.0,
			"-0.016": 0.0,
			"-0.015": 0.0,
			"-0.014": 0.0,
			"-0.013": 0.0,
			"-0.012": 0.0,
			"-0.011": 0.0,
			"-0.01": 0.410662179759,
			"-0.009": 3.77570463951,
			"-0.008": 8.41325655451,
			"-0.007": 8.79268253817,
			"-0.006": 8.40280418958,
			"-0.005": 7.46526885058,
			"-0.004": 7.1760558634,
			"-0.003": 9.03691601304,
			"-0.002": 9.878331319,
			"-0.001": 9.74138928926,
			"0.0": 10.7854026215,
			"0.001": 10.3462653003,
			"0.002": 12.0194392794,
			"0.003": 15.1396845284,
			"0.004": 17.0326587127,
			"0.005": 23.9260894279,
			"0.006": 9.60144356886,
			"0.007": 1.88441347914,
			"0.008": 0.0,
			"0.009": 0.0,
			"0.01": 0.0,
			"0.011": 0.0,
			"0.012": 0.0,
			"0.013": 0.0,
			"0.014": 0.0,
			"0.015": 0.0,
			"0.016": 0.0,
			"0.017": 0.0,
			"0.018": 0.0,
			"0.019": 0.0,
			"0.02": 0.0,
			"0.021": 0.0,
			"0.022": 0.0,
			"0.023": 0.0,
			"0.024": 0.0,
			"0.025": 0.0
		}
	}
}
