{
	 "smiles": "SC1=NC(=CS1)C1=CC=CC=C1", 
	 "Tm": 446.65, 
	 "num_atms": 19, 
	 "gaussian": { 
		 "optdone": 1, 
		 "sigma_profile": "yes", 
		 "theory": "DFT", 
		 "functional": "B3LYP", 
		 "basiset": "6-31G**", 
		 "properties": { 
			 "R2extent": 4704.2318, 
			 "electric_dipole_moment_norm": 0.900810179783, 
			 "electric_quadrupole_moment_norm": 8.94938805338, 
			 "total_energy": -1198.29278902, 
			 "HOMO_LUMO_gap": 0.17289, 
			 "cosmo_polarized_energy": -7.23, 
			 "cosmo_cavitation_energy": 26.72, 
			 "cosmo_dispersion_energy": -20.95, 
			 "cosmo_repulsion_energy": 1.56, 
			 "cosmo_total_nonelectrostatic_energy": 7.33, 
			 "SMD_solvation_energy": 2.75 
		},
		"coords": [
			{
				"x": 4.4353327011,
				"y": 2.7430646311,
				"z": 0.285086399,
				"element": "S" 
			},
			{
				"x": 3.5806589539,
				"y": 1.2881944492,
				"z": -0.2535408513,
				"element": "C" 
			},
			{
				"x": 2.5161796013,
				"y": 0.8051868853,
				"z": 0.3048246657,
				"element": "N" 
			},
			{
				"x": 2.0748144229,
				"y": -0.3437133019,
				"z": -0.3401113677,
				"element": "C" 
			},
			{
				"x": 2.8427849246,
				"y": -0.7189363371,
				"z": -1.4126425805,
				"element": "C" 
			},
			{
				"x": 4.1654605844,
				"y": 0.3806774675,
				"z": -1.6445246367,
				"element": "S" 
			},
			{
				"x": 0.8682664168,
				"y": -1.0269600491,
				"z": 0.1668427361,
				"element": "C" 
			},
			{
				"x": 0.3794002039,
				"y": -2.2022355641,
				"z": -0.4287214507,
				"element": "C" 
			},
			{
				"x": -0.761342405,
				"y": -2.8292221676,
				"z": 0.0655372659,
				"element": "C" 
			},
			{
				"x": -1.4380801409,
				"y": -2.2960841094,
				"z": 1.1655888483,
				"element": "C" 
			},
			{
				"x": -0.9607904997,
				"y": -1.1296744855,
				"z": 1.7651745862,
				"element": "C" 
			},
			{
				"x": 0.1808255741,
				"y": -0.499858855,
				"z": 1.2723943752,
				"element": "C" 
			},
			{
				"x": 3.5824502715,
				"y": 2.9690796625,
				"z": 1.3029617114,
				"element": "H" 
			},
			{
				"x": 2.7183445021,
				"y": -1.5609481539,
				"z": -2.0767324757,
				"element": "H" 
			},
			{
				"x": 0.8910950756,
				"y": -2.6341491174,
				"z": -1.2835611423,
				"element": "H" 
			},
			{
				"x": -1.122826782,
				"y": -3.7370137909,
				"z": -0.4091029168,
				"element": "H" 
			},
			{
				"x": -2.3276815322,
				"y": -2.7863361666,
				"z": 1.5501471068,
				"element": "H" 
			},
			{
				"x": -1.4788416414,
				"y": -0.7064795033,
				"z": 2.6211980128,
				"element": "H" 
			},
			{
				"x": 0.5554497689,
				"y": 0.4061085064,
				"z": 1.7346817142,
				"element": "H" 
			}
		],
		 "valence_orbital": [ 
			{
				"type": "occ",
				"energy": -0.29518,
				"method": "rhf"
			},
			{
				"type": "occ",
				"energy": -0.28362,
				"method": "rhf"
			},
			{
				"type": "occ",
				"energy": -0.25633,
				"method": "rhf"
			},
			{
				"type": "occ",
				"energy": -0.25036,
				"method": "rhf"
			},
			{
				"type": "occ",
				"energy": -0.21385,
				"method": "rhf"
			},
			{
				"type": "unocc",
				"energy": -0.04096,
				"method": "rhf"
			},
			{
				"type": "unocc",
				"energy": -0.01088,
				"method": "rhf"
			},
			{
				"type": "unocc",
				"energy": -0.00996,
				"method": "rhf"
			},
			{
				"type": "unocc",
				"energy": 0.00219,
				"method": "rhf"
			},
			{
				"type": "unocc",
				"energy": 0.0259,
				"method": "rhf"
			}
		],
		"cosmo_sigma_profile": { 
			"-0.025": 0.0,
			"-0.024": 0.0,
			"-0.023": 0.0,
			"-0.022": 0.0,
			"-0.021": 0.0,
			"-0.02": 0.0,
			"-0.019": 0.0,
			"-0.018": 0.0,
			"-0.017": 0.0,
			"-0.016": 0.0,
			"-0.015": 0.0,
			"-0.014": 0.0,
			"-0.013": 0.0,
			"-0.012": 0.809998537961,
			"-0.011": 1.76782460397,
			"-0.01": 2.11028886692,
			"-0.009": 3.66564253606,
			"-0.008": 3.76995144305,
			"-0.007": 3.69921386205,
			"-0.006": 7.66755048086,
			"-0.005": 12.327473154,
			"-0.004": 14.373492107,
			"-0.003": 13.6311317001,
			"-0.002": 11.7143922963,
			"-0.001": 13.1974042418,
			"0.0": 17.385595955,
			"0.001": 19.7879959825,
			"0.002": 24.2819006779,
			"0.003": 24.2170546156,
			"0.004": 15.4222986486,
			"0.005": 15.3428235283,
			"0.006": 9.11780642832,
			"0.007": 3.18855692064,
			"0.008": 1.62750924585,
			"0.009": 1.07217966816,
			"0.01": 0.0349000511534,
			"0.011": 0.0,
			"0.012": 0.0,
			"0.013": 0.0,
			"0.014": 0.0,
			"0.015": 0.0,
			"0.016": 0.0,
			"0.017": 0.0,
			"0.018": 0.0,
			"0.019": 0.0,
			"0.02": 0.0,
			"0.021": 0.0,
			"0.022": 0.0,
			"0.023": 0.0,
			"0.024": 0.0,
			"0.025": 0.0
		}
	}
}
