{
	 "smiles": "NC1=CC(NC(=O)CC2=CC=CC=C2)=C(F)C=C1", 
	 "Tm": 454.15, 
	 "num_atms": 31, 
	 "gaussian": { 
		 "optdone": 1, 
		 "sigma_profile": "yes", 
		 "theory": "DFT", 
		 "functional": "B3LYP", 
		 "basiset": "6-31G**", 
		 "properties": { 
			 "R2extent": 5607.2487, 
			 "electric_dipole_moment_norm": 4.55632795791, 
			 "electric_quadrupole_moment_norm": 18.0581704763, 
			 "total_energy": -825.903620619, 
			 "HOMO_LUMO_gap": 0.1812, 
			 "cosmo_polarized_energy": -18.95, 
			 "cosmo_cavitation_energy": 36.07, 
			 "cosmo_dispersion_energy": -25.09, 
			 "cosmo_repulsion_energy": 1.95, 
			 "cosmo_total_nonelectrostatic_energy": 12.93, 
			 "SMD_solvation_energy": 6.75 
		},
		"coords": [
			{
				"x": -3.9079821302,
				"y": 0.5948223452,
				"z": -2.7719480632,
				"element": "N" 
			},
			{
				"x": -3.258508984,
				"y": -0.3747710765,
				"z": -1.9962547031,
				"element": "C" 
			},
			{
				"x": -2.0070878731,
				"y": -0.1084635483,
				"z": -1.4212991472,
				"element": "C" 
			},
			{
				"x": -1.3735743284,
				"y": -1.0387165816,
				"z": -0.5915353566,
				"element": "C" 
			},
			{
				"x": -0.1319534471,
				"y": -0.7230400458,
				"z": 0.0081481425,
				"element": "N" 
			},
			{
				"x": 0.9951166225,
				"y": -1.5125029329,
				"z": -0.0765755494,
				"element": "C" 
			},
			{
				"x": 1.030878064,
				"y": -2.5803109335,
				"z": -0.6609978524,
				"element": "O" 
			},
			{
				"x": 2.2236164882,
				"y": -0.9731304971,
				"z": 0.6822214011,
				"element": "C" 
			},
			{
				"x": 2.3107462723,
				"y": 0.525271005,
				"z": 0.8665194437,
				"element": "C" 
			},
			{
				"x": 2.8265201947,
				"y": 1.3402936495,
				"z": -0.153374219,
				"element": "C" 
			},
			{
				"x": 2.8875117895,
				"y": 2.7251487142,
				"z": -0.0004873158,
				"element": "C" 
			},
			{
				"x": 2.429848942,
				"y": 3.3228363351,
				"z": 1.176594365,
				"element": "C" 
			},
			{
				"x": 1.9140008218,
				"y": 2.5254198498,
				"z": 2.1988940088,
				"element": "C" 
			},
			{
				"x": 1.8564872392,
				"y": 1.1382963372,
				"z": 2.0440061437,
				"element": "C" 
			},
			{
				"x": -2.0139483362,
				"y": -2.2547702878,
				"z": -0.3323213431,
				"element": "C" 
			},
			{
				"x": -1.4530649045,
				"y": -3.1420552,
				"z": 0.5117270011,
				"element": "F" 
			},
			{
				"x": -3.2409500203,
				"y": -2.5469283295,
				"z": -0.9118775524,
				"element": "C" 
			},
			{
				"x": -3.8650885475,
				"y": -1.6149271515,
				"z": -1.7375348151,
				"element": "C" 
			},
			{
				"x": -4.5760186915,
				"y": 0.2204554729,
				"z": -3.4325505492,
				"element": "H" 
			},
			{
				"x": -3.2894019783,
				"y": 1.2581559901,
				"z": -3.2193202794,
				"element": "H" 
			},
			{
				"x": -1.5054361931,
				"y": 0.834125041,
				"z": -1.6262328544,
				"element": "H" 
			},
			{
				"x": -0.0119951629,
				"y": 0.2174479193,
				"z": 0.3588541057,
				"element": "H" 
			},
			{
				"x": 3.0904489068,
				"y": -1.3554617568,
				"z": 0.1371932571,
				"element": "H" 
			},
			{
				"x": 2.2221017764,
				"y": -1.4746478589,
				"z": 1.6577597961,
				"element": "H" 
			},
			{
				"x": 3.1866140609,
				"y": 0.8810320277,
				"z": -1.070777117,
				"element": "H" 
			},
			{
				"x": 3.2958244269,
				"y": 3.3383151471,
				"z": -0.7989581679,
				"element": "H" 
			},
			{
				"x": 2.4798341901,
				"y": 4.4010764296,
				"z": 1.2969419048,
				"element": "H" 
			},
			{
				"x": 1.562306508,
				"y": 2.9799622439,
				"z": 3.1207270502,
				"element": "H" 
			},
			{
				"x": 1.4640935643,
				"y": 0.5216460241,
				"z": 2.8492312747,
				"element": "H" 
			},
			{
				"x": -3.7048359092,
				"y": -3.5032213488,
				"z": -0.6949601551,
				"element": "H" 
			},
			{
				"x": -4.8314033612,
				"y": -1.8457569825,
				"z": -2.1774128542,
				"element": "H" 
			}
		],
		 "valence_orbital": [ 
			{
				"type": "occ",
				"energy": -0.26618,
				"method": "rhf"
			},
			{
				"type": "occ",
				"energy": -0.26055,
				"method": "rhf"
			},
			{
				"type": "occ",
				"energy": -0.23701,
				"method": "rhf"
			},
			{
				"type": "occ",
				"energy": -0.23187,
				"method": "rhf"
			},
			{
				"type": "occ",
				"energy": -0.19828,
				"method": "rhf"
			},
			{
				"type": "unocc",
				"energy": -0.01708,
				"method": "rhf"
			},
			{
				"type": "unocc",
				"energy": -0.01344,
				"method": "rhf"
			},
			{
				"type": "unocc",
				"energy": -0.00609,
				"method": "rhf"
			},
			{
				"type": "unocc",
				"energy": 0.01993,
				"method": "rhf"
			},
			{
				"type": "unocc",
				"energy": 0.04208,
				"method": "rhf"
			}
		],
		"cosmo_sigma_profile": { 
			"-0.025": 0.0,
			"-0.024": 0.0,
			"-0.023": 0.0,
			"-0.022": 0.0,
			"-0.021": 0.0,
			"-0.02": 0.0,
			"-0.019": 0.0,
			"-0.018": 0.0,
			"-0.017": 0.0,
			"-0.016": 0.0,
			"-0.015": 0.0,
			"-0.014": 0.0,
			"-0.013": 0.229749305641,
			"-0.012": 2.82971658294,
			"-0.011": 3.6349947022,
			"-0.01": 4.37851051246,
			"-0.009": 4.64622169755,
			"-0.008": 4.82863108269,
			"-0.007": 7.63603370635,
			"-0.006": 19.6342868019,
			"-0.005": 20.7287693158,
			"-0.004": 23.6495164797,
			"-0.003": 18.140866678,
			"-0.002": 16.4056481246,
			"-0.001": 15.7330558279,
			"0.0": 13.3140212386,
			"0.001": 14.2824587089,
			"0.002": 16.7895361698,
			"0.003": 16.3614568759,
			"0.004": 23.9069857878,
			"0.005": 25.3244515307,
			"0.006": 7.00532356626,
			"0.007": 2.79061739867,
			"0.008": 3.82990596898,
			"0.009": 2.37246734272,
			"0.01": 1.40602669032,
			"0.011": 3.0738095222,
			"0.012": 4.09135749996,
			"0.013": 5.6957752697,
			"0.014": 3.867744605,
			"0.015": 0.75142909357,
			"0.016": 0.0250473012878,
			"0.017": 0.0,
			"0.018": 0.0,
			"0.019": 0.0,
			"0.02": 0.0,
			"0.021": 0.0,
			"0.022": 0.0,
			"0.023": 0.0,
			"0.024": 0.0,
			"0.025": 0.0
		}
	}
}
