{
	 "smiles": "CN(C)S(=O)(=O)C1=C(C)C=CC(NC(=O)CCl)=C1", 
	 "Tm": 348.15, 
	 "num_atms": 33, 
	 "gaussian": { 
		 "optdone": 1, 
		 "sigma_profile": "yes", 
		 "theory": "DFT", 
		 "functional": "B3LYP", 
		 "basiset": "6-31G**", 
		 "properties": { 
			 "R2extent": 6515.2747, 
			 "electric_dipole_moment_norm": 4.89807286389, 
			 "electric_quadrupole_moment_norm": 28.1705096386, 
			 "total_energy": -1621.69909352, 
			 "HOMO_LUMO_gap": 0.19059, 
			 "cosmo_polarized_energy": -22.83, 
			 "cosmo_cavitation_energy": 38.93, 
			 "cosmo_dispersion_energy": -26.88, 
			 "cosmo_repulsion_energy": 2.05, 
			 "cosmo_total_nonelectrostatic_energy": 14.1, 
			 "SMD_solvation_energy": 5.84 
		},
		"coords": [
			{
				"x": 0.2590978852,
				"y": 2.1250276704,
				"z": 1.7550215619,
				"element": "C" 
			},
			{
				"x": 0.136007752,
				"y": 0.7318627079,
				"z": 2.1999097151,
				"element": "N" 
			},
			{
				"x": -0.4877888635,
				"y": 0.5933695304,
				"z": 3.5268784001,
				"element": "C" 
			},
			{
				"x": 1.5731299653,
				"y": -0.1740409055,
				"z": 2.0238983541,
				"element": "S" 
			},
			{
				"x": 2.7502618372,
				"y": 0.6033236503,
				"z": 2.4348997263,
				"element": "O" 
			},
			{
				"x": 1.301541546,
				"y": -1.4754414596,
				"z": 2.6437234754,
				"element": "O" 
			},
			{
				"x": 1.6057628447,
				"y": -0.4074894014,
				"z": 0.2291701971,
				"element": "C" 
			},
			{
				"x": 2.5022261109,
				"y": 0.2495247519,
				"z": -0.6342067688,
				"element": "C" 
			},
			{
				"x": 3.5610149113,
				"y": 1.2433774508,
				"z": -0.2141679962,
				"element": "C" 
			},
			{
				"x": 2.3941309481,
				"y": -0.0860068168,
				"z": -1.9963091376,
				"element": "C" 
			},
			{
				"x": 1.4533176092,
				"y": -0.9871167219,
				"z": -2.4758990869,
				"element": "C" 
			},
			{
				"x": 0.5729906327,
				"y": -1.6312309007,
				"z": -1.5936051859,
				"element": "C" 
			},
			{
				"x": -0.3475407305,
				"y": -2.5724627606,
				"z": -2.1063701523,
				"element": "N" 
			},
			{
				"x": -1.6896649241,
				"y": -2.7951839469,
				"z": -1.8389978641,
				"element": "C" 
			},
			{
				"x": -2.3020673114,
				"y": -3.6445627728,
				"z": -2.4563544764,
				"element": "O" 
			},
			{
				"x": -2.3245835932,
				"y": -1.9329201508,
				"z": -0.7434254228,
				"element": "C" 
			},
			{
				"x": -4.0943914895,
				"y": -1.7637603935,
				"z": -0.9781642445,
				"element": "Cl" 
			},
			{
				"x": 0.6829070167,
				"y": -1.3532465843,
				"z": -0.2308405755,
				"element": "C" 
			},
			{
				"x": 0.911596209,
				"y": 2.7239818242,
				"z": 2.4043317858,
				"element": "H" 
			},
			{
				"x": 0.6437254943,
				"y": 2.1580608986,
				"z": 0.7328214959,
				"element": "H" 
			},
			{
				"x": -0.741988012,
				"y": 2.564608883,
				"z": 1.7491609867,
				"element": "H" 
			},
			{
				"x": -0.5350597938,
				"y": -0.4609702254,
				"z": 3.7966194199,
				"element": "H" 
			},
			{
				"x": -1.5047469096,
				"y": 0.9892956543,
				"z": 3.4559317081,
				"element": "H" 
			},
			{
				"x": 0.0530056602,
				"y": 1.1438914532,
				"z": 4.3095481969,
				"element": "H" 
			},
			{
				"x": 4.298849741,
				"y": 0.7841288357,
				"z": 0.4477598821,
				"element": "H" 
			},
			{
				"x": 4.0740090994,
				"y": 1.6290512235,
				"z": -1.0987841642,
				"element": "H" 
			},
			{
				"x": 3.143323269,
				"y": 2.0877435561,
				"z": 0.3393289973,
				"element": "H" 
			},
			{
				"x": 3.0690477107,
				"y": 0.3920244603,
				"z": -2.7003990855,
				"element": "H" 
			},
			{
				"x": 1.3920766633,
				"y": -1.1934183151,
				"z": -3.5408123934,
				"element": "H" 
			},
			{
				"x": -0.0385836585,
				"y": -3.129296161,
				"z": -2.894672404,
				"element": "H" 
			},
			{
				"x": -2.1752074725,
				"y": -2.4094286378,
				"z": 0.2283679588,
				"element": "H" 
			},
			{
				"x": -1.8951998946,
				"y": -0.9319355098,
				"z": -0.7079980434,
				"element": "H" 
			},
			{
				"x": 0.0812997472,
				"y": -1.8864608868,
				"z": 0.49423514,
				"element": "H" 
			}
		],
		 "valence_orbital": [ 
			{
				"type": "occ",
				"energy": -0.30052,
				"method": "rhf"
			},
			{
				"type": "occ",
				"energy": -0.28965,
				"method": "rhf"
			},
			{
				"type": "occ",
				"energy": -0.27447,
				"method": "rhf"
			},
			{
				"type": "occ",
				"energy": -0.25968,
				"method": "rhf"
			},
			{
				"type": "occ",
				"energy": -0.24722,
				"method": "rhf"
			},
			{
				"type": "unocc",
				"energy": -0.05663,
				"method": "rhf"
			},
			{
				"type": "unocc",
				"energy": -0.03567,
				"method": "rhf"
			},
			{
				"type": "unocc",
				"energy": -0.00119,
				"method": "rhf"
			},
			{
				"type": "unocc",
				"energy": 0.03094,
				"method": "rhf"
			},
			{
				"type": "unocc",
				"energy": 0.05225,
				"method": "rhf"
			}
		],
		"cosmo_sigma_profile": { 
			"-0.025": 0.0,
			"-0.024": 0.0,
			"-0.023": 0.0,
			"-0.022": 0.0,
			"-0.021": 0.0,
			"-0.02": 0.0,
			"-0.019": 0.0,
			"-0.018": 0.0,
			"-0.017": 0.0,
			"-0.016": 0.0154907547648,
			"-0.015": 1.0497019846,
			"-0.014": 1.01176004146,
			"-0.013": 1.09069940254,
			"-0.012": 2.0230642056,
			"-0.011": 2.40151581812,
			"-0.01": 3.76837171851,
			"-0.009": 3.8521784958,
			"-0.008": 5.56994046642,
			"-0.007": 8.90964518497,
			"-0.006": 15.1719159048,
			"-0.005": 17.8655337209,
			"-0.004": 26.3966105737,
			"-0.003": 26.4282729662,
			"-0.002": 29.0777658257,
			"-0.001": 21.1571565678,
			"0.0": 20.6383178591,
			"0.001": 16.7616281999,
			"0.002": 17.7097678318,
			"0.003": 11.3969600427,
			"0.004": 10.2605938681,
			"0.005": 10.2032760365,
			"0.006": 11.092961354,
			"0.007": 5.16759432139,
			"0.008": 5.6025401705,
			"0.009": 5.64557665597,
			"0.01": 7.26473415438,
			"0.011": 9.80718346308,
			"0.012": 8.74833102938,
			"0.013": 3.71872412597,
			"0.014": 0.610228213429,
			"0.015": 0.0,
			"0.016": 0.0,
			"0.017": 0.0,
			"0.018": 0.0,
			"0.019": 0.0,
			"0.02": 0.0,
			"0.021": 0.0,
			"0.022": 0.0,
			"0.023": 0.0,
			"0.024": 0.0,
			"0.025": 0.0
		}
	}
}
