{
	 "smiles": "OC(=O)C1=NC=CC(Cl)=C1", 
	 "Tm": 445.15, 
	 "num_atms": 14, 
	 "gaussian": { 
		 "optdone": 1, 
		 "sigma_profile": "yes", 
		 "theory": "DFT", 
		 "functional": "B3LYP", 
		 "basiset": "6-31G**", 
		 "properties": { 
			 "R2extent": 2014.8672, 
			 "electric_dipole_moment_norm": 2.1243751952, 
			 "electric_quadrupole_moment_norm": 13.5221715915, 
			 "total_energy": -896.44427063, 
			 "HOMO_LUMO_gap": 0.20701, 
			 "cosmo_polarized_energy": -12.64, 
			 "cosmo_cavitation_energy": 21.26, 
			 "cosmo_dispersion_energy": -15.97, 
			 "cosmo_repulsion_energy": 1.31, 
			 "cosmo_total_nonelectrostatic_energy": 6.59, 
			 "SMD_solvation_energy": 3.57 
		},
		"coords": [
			{
				"x": 1.0307651161,
				"y": 2.1910541713,
				"z": 0.6350044297,
				"element": "O" 
			},
			{
				"x": -0.2066005668,
				"y": 1.6770169693,
				"z": 0.8587203766,
				"element": "C" 
			},
			{
				"x": -0.9642615133,
				"y": 2.1258564658,
				"z": 1.6845245192,
				"element": "O" 
			},
			{
				"x": -0.4933420978,
				"y": 0.504036397,
				"z": -0.0413485627,
				"element": "C" 
			},
			{
				"x": -1.6971227797,
				"y": -0.0617443131,
				"z": 0.1163287675,
				"element": "N" 
			},
			{
				"x": -1.9908454047,
				"y": -1.1034920781,
				"z": -0.6612864579,
				"element": "C" 
			},
			{
				"x": -1.1232204088,
				"y": -1.6334222021,
				"z": -1.6217415956,
				"element": "C" 
			},
			{
				"x": 0.1210971059,
				"y": -1.0276937374,
				"z": -1.7658741954,
				"element": "C" 
			},
			{
				"x": 1.2625452912,
				"y": -1.6322177068,
				"z": -2.9458188877,
				"element": "Cl" 
			},
			{
				"x": 0.4585908251,
				"y": 0.0629560808,
				"z": -0.9684132992,
				"element": "C" 
			},
			{
				"x": 1.1255837236,
				"y": 2.9341692991,
				"z": 1.2531539167,
				"element": "H" 
			},
			{
				"x": -2.9729415279,
				"y": -1.5500353956,
				"z": -0.5190663517,
				"element": "H" 
			},
			{
				"x": -1.4100342504,
				"y": -2.4833786268,
				"z": -2.2299991392,
				"element": "H" 
			},
			{
				"x": 1.4183864873,
				"y": 0.5539946765,
				"z": -1.0580835204,
				"element": "H" 
			}
		],
		 "valence_orbital": [ 
			{
				"type": "occ",
				"energy": -0.32748,
				"method": "rhf"
			},
			{
				"type": "occ",
				"energy": -0.28849,
				"method": "rhf"
			},
			{
				"type": "occ",
				"energy": -0.28703,
				"method": "rhf"
			},
			{
				"type": "occ",
				"energy": -0.28389,
				"method": "rhf"
			},
			{
				"type": "occ",
				"energy": -0.27755,
				"method": "rhf"
			},
			{
				"type": "unocc",
				"energy": -0.07054,
				"method": "rhf"
			},
			{
				"type": "unocc",
				"energy": -0.04275,
				"method": "rhf"
			},
			{
				"type": "unocc",
				"energy": 0.01168,
				"method": "rhf"
			},
			{
				"type": "unocc",
				"energy": 0.03942,
				"method": "rhf"
			},
			{
				"type": "unocc",
				"energy": 0.07218,
				"method": "rhf"
			}
		],
		"cosmo_sigma_profile": { 
			"-0.025": 0.0,
			"-0.024": 0.0,
			"-0.023": 0.0,
			"-0.022": 0.0,
			"-0.021": 0.0,
			"-0.02": 0.0,
			"-0.019": 0.609366703116,
			"-0.018": 0.903654637152,
			"-0.017": 0.833497127789,
			"-0.016": 0.664665730404,
			"-0.015": 0.639783945485,
			"-0.014": 0.588880784502,
			"-0.013": 0.623622811339,
			"-0.012": 0.740349774547,
			"-0.011": 0.852569725442,
			"-0.01": 0.740478274254,
			"-0.009": 2.19836206807,
			"-0.008": 5.90250652703,
			"-0.007": 6.36446045016,
			"-0.006": 5.53609402044,
			"-0.005": 6.18746711199,
			"-0.004": 7.2941805439,
			"-0.003": 10.3339740745,
			"-0.002": 15.7615965874,
			"-0.001": 23.1547098047,
			"0.0": 14.8157911369,
			"0.001": 8.41324321644,
			"0.002": 9.26805333912,
			"0.003": 13.3485507319,
			"0.004": 7.66109564444,
			"0.005": 2.912622039,
			"0.006": 3.22868193427,
			"0.007": 2.75482942119,
			"0.008": 2.27501415573,
			"0.009": 1.88763264985,
			"0.01": 3.06453831569,
			"0.011": 5.64435963724,
			"0.012": 2.77641697947,
			"0.013": 1.41978472015,
			"0.014": 1.13208641763,
			"0.015": 1.5788246937,
			"0.016": 0.935680607142,
			"0.017": 0.506761052862,
			"0.018": 0.0,
			"0.019": 0.0,
			"0.02": 0.0,
			"0.021": 0.0,
			"0.022": 0.0,
			"0.023": 0.0,
			"0.024": 0.0,
			"0.0": 0.0
		}
	}
}
