{
	 "smiles": "C(N1CCNCC1)C1=NC=CN1", 
	 "Tm": 427.15, 
	 "num_atms": 26, 
	 "gaussian": { 
		 "optdone": 1, 
		 "sigma_profile": "yes", 
		 "theory": "DFT", 
		 "functional": "B3LYP", 
		 "basiset": "6-31G**", 
		 "properties": { 
			 "R2extent": 2742.2945, 
			 "electric_dipole_moment_norm": 2.62332541634, 
			 "electric_quadrupole_moment_norm": 13.7115141443, 
			 "total_energy": -532.272423217, 
			 "HOMO_LUMO_gap": 0.24209, 
			 "cosmo_polarized_energy": -12.76, 
			 "cosmo_cavitation_energy": 27.21, 
			 "cosmo_dispersion_energy": -20.23, 
			 "cosmo_repulsion_energy": 1.61, 
			 "cosmo_total_nonelectrostatic_energy": 8.59, 
			 "SMD_solvation_energy": -0.78 
		},
		"coords": [
			{
				"x": 0.4946335608,
				"y": 0.4864782646,
				"z": -0.9887792019,
				"element": "C" 
			},
			{
				"x": -0.9414561025,
				"y": 0.490633389,
				"z": -1.3007878849,
				"element": "N" 
			},
			{
				"x": -1.4999656103,
				"y": 1.8178836884,
				"z": -1.5940566021,
				"element": "C" 
			},
			{
				"x": -1.7461522574,
				"y": 2.6718060038,
				"z": -0.3422467916,
				"element": "C" 
			},
			{
				"x": -2.6244015332,
				"y": 1.9260569086,
				"z": 0.5617623198,
				"element": "N" 
			},
			{
				"x": -2.0179638316,
				"y": 0.6543508846,
				"z": 0.9653583723,
				"element": "C" 
			},
			{
				"x": -1.7667119426,
				"y": -0.1942702922,
				"z": -0.2890936965,
				"element": "C" 
			},
			{
				"x": 1.09020742,
				"y": -0.8646457851,
				"z": -1.2609989235,
				"element": "C" 
			},
			{
				"x": 2.1141771301,
				"y": -1.4203162061,
				"z": -0.6424567524,
				"element": "N" 
			},
			{
				"x": 2.3223923685,
				"y": -2.6196435916,
				"z": -1.2906603781,
				"element": "C" 
			},
			{
				"x": 1.4116019943,
				"y": -2.7908147021,
				"z": -2.3042863812,
				"element": "C" 
			},
			{
				"x": 0.6315248074,
				"y": -1.6535669927,
				"z": -2.2772448746,
				"element": "N" 
			},
			{
				"x": 0.7534514416,
				"y": 0.7643171585,
				"z": 0.0437589935,
				"element": "H" 
			},
			{
				"x": 0.9718870524,
				"y": 1.2332339551,
				"z": -1.6375567911,
				"element": "H" 
			},
			{
				"x": -2.4630478153,
				"y": 1.6684349666,
				"z": -2.0985123562,
				"element": "H" 
			},
			{
				"x": -0.8325819998,
				"y": 2.3382335404,
				"z": -2.2896434293,
				"element": "H" 
			},
			{
				"x": -2.2388825278,
				"y": 3.6086110433,
				"z": -0.6273504395,
				"element": "H" 
			},
			{
				"x": -0.7754298541,
				"y": 2.9383806707,
				"z": 0.1195173376,
				"element": "H" 
			},
			{
				"x": -2.837788452,
				"y": 2.4860109707,
				"z": 1.3820954186,
				"element": "H" 
			},
			{
				"x": -1.0696044432,
				"y": 0.7876423271,
				"z": 1.5197583441,
				"element": "H" 
			},
			{
				"x": -2.708754965,
				"y": 0.1241620995,
				"z": 1.6307755409,
				"element": "H" 
			},
			{
				"x": -2.7357847304,
				"y": -0.4257209793,
				"z": -0.748463711,
				"element": "H" 
			},
			{
				"x": -1.2843787,
				"y": -1.1396464464,
				"z": -0.0218985688,
				"element": "H" 
			},
			{
				"x": 3.1110911384,
				"y": -3.2943653536,
				"z": -0.9870233439,
				"element": "H" 
			},
			{
				"x": 1.2448477184,
				"y": -3.5896284237,
				"z": -3.0103098428,
				"element": "H" 
			},
			{
				"x": -0.1790098665,
				"y": -1.4269170979,
				"z": -2.8347563577,
				"element": "H" 
			}
		],
		 "valence_orbital": [ 
			{
				"type": "occ",
				"energy": -0.2677,
				"method": "rhf"
			},
			{
				"type": "occ",
				"energy": -0.2552,
				"method": "rhf"
			},
			{
				"type": "occ",
				"energy": -0.23488,
				"method": "rhf"
			},
			{
				"type": "occ",
				"energy": -0.21336,
				"method": "rhf"
			},
			{
				"type": "occ",
				"energy": -0.2073,
				"method": "rhf"
			},
			{
				"type": "unocc",
				"energy": 0.03479,
				"method": "rhf"
			},
			{
				"type": "unocc",
				"energy": 0.07336,
				"method": "rhf"
			},
			{
				"type": "unocc",
				"energy": 0.07803,
				"method": "rhf"
			},
			{
				"type": "unocc",
				"energy": 0.09575,
				"method": "rhf"
			},
			{
				"type": "unocc",
				"energy": 0.11674,
				"method": "rhf"
			}
		],
		"cosmo_sigma_profile": { 
			"-0.025": 0.0,
			"-0.024": 0.0,
			"-0.023": 0.0,
			"-0.022": 0.0,
			"-0.021": 0.0,
			"-0.02": 0.0,
			"-0.019": 0.0,
			"-0.018": 0.0,
			"-0.017": 0.0,
			"-0.016": 0.0,
			"-0.015": 0.220142329861,
			"-0.014": 0.703311913133,
			"-0.013": 1.0047657574,
			"-0.012": 0.974397956316,
			"-0.011": 0.605187669192,
			"-0.01": 1.25189343406,
			"-0.009": 2.82249653801,
			"-0.008": 3.47243445591,
			"-0.007": 4.26907395472,
			"-0.006": 5.81898797338,
			"-0.005": 8.55886543276,
			"-0.004": 12.9828836526,
			"-0.003": 25.7380858099,
			"-0.002": 32.7300014341,
			"-0.001": 25.4717202609,
			"0.0": 18.5091599698,
			"0.001": 7.67512633678,
			"0.002": 6.96987224423,
			"0.003": 6.47244578684,
			"0.004": 7.35741010538,
			"0.005": 6.29377793675,
			"0.006": 6.34960046889,
			"0.007": 5.07063605138,
			"0.008": 3.67572830718,
			"0.009": 1.8380924335,
			"0.01": 2.08418134379,
			"0.011": 2.28828300646,
			"0.012": 1.35554365526,
			"0.013": 1.60741838149,
			"0.014": 1.4474668896,
			"0.015": 2.13171831738,
			"0.016": 1.35931557335,
			"0.017": 1.28261544559,
			"0.018": 1.44575263235,
			"0.019": 0.576489021712,
			"0.02": 0.0,
			"0.021": 0.0,
			"0.022": 0.0,
			"0.023": 0.0,
			"0.024": 0.0,
			"0.025": 0.0
		}
	}
}
