{
	 "smiles": "NC(=O)NC1=C2C=CC=CC2=CC=C1", 
	 "Tm": 558.15, 
	 "num_atms": 24, 
	 "gaussian": { 
		 "optdone": 1, 
		 "sigma_profile": "yes", 
		 "theory": "DFT", 
		 "functional": "B3LYP", 
		 "basiset": "6-31G**", 
		 "properties": { 
			 "R2extent": 3028.4839, 
			 "electric_dipole_moment_norm": 3.92501033502, 
			 "electric_quadrupole_moment_norm": 18.7798356098, 
			 "total_energy": -609.960316008, 
			 "HOMO_LUMO_gap": 0.16809, 
			 "cosmo_polarized_energy": -14.3, 
			 "cosmo_cavitation_energy": 27.69, 
			 "cosmo_dispersion_energy": -20.26, 
			 "cosmo_repulsion_energy": 1.59, 
			 "cosmo_total_nonelectrostatic_energy": 9.02, 
			 "SMD_solvation_energy": 5.53 
		},
		"coords": [
			{
				"x": -2.7072954748,
				"y": -2.1986731704,
				"z": 0.9514658538,
				"element": "N" 
			},
			{
				"x": -2.3044096821,
				"y": -2.8724275713,
				"z": -0.1769381958,
				"element": "C" 
			},
			{
				"x": -2.6704231788,
				"y": -4.0083743938,
				"z": -0.4446356398,
				"element": "O" 
			},
			{
				"x": -1.3879438115,
				"y": -2.2027972444,
				"z": -0.9953537115,
				"element": "N" 
			},
			{
				"x": -1.1158410737,
				"y": -0.8043934207,
				"z": -1.0059307866,
				"element": "C" 
			},
			{
				"x": -0.2969424742,
				"y": -0.2205141495,
				"z": 0.0165039551,
				"element": "C" 
			},
			{
				"x": 0.2905442487,
				"y": -0.9855159352,
				"z": 1.0614941687,
				"element": "C" 
			},
			{
				"x": 1.0652316619,
				"y": -0.3805509057,
				"z": 2.0259020453,
				"element": "C" 
			},
			{
				"x": 1.2914682721,
				"y": 1.0168941696,
				"z": 1.9959039585,
				"element": "C" 
			},
			{
				"x": 0.75247897,
				"y": 1.7815279822,
				"z": 0.9870233108,
				"element": "C" 
			},
			{
				"x": -0.0435903643,
				"y": 1.1916137637,
				"z": -0.0326201225,
				"element": "C" 
			},
			{
				"x": -0.5679286085,
				"y": 1.9605767055,
				"z": -1.1054949388,
				"element": "C" 
			},
			{
				"x": -1.3149333536,
				"y": 1.3638810249,
				"z": -2.0948854044,
				"element": "C" 
			},
			{
				"x": -1.5978796569,
				"y": -0.0192849659,
				"z": -2.0375406459,
				"element": "C" 
			},
			{
				"x": -3.4802791799,
				"y": -2.6239291443,
				"z": 1.4381455869,
				"element": "H" 
			},
			{
				"x": -2.6028747302,
				"y": -1.1983948574,
				"z": 1.0225013506,
				"element": "H" 
			},
			{
				"x": -1.2939622106,
				"y": -2.6873088567,
				"z": -1.8779961801,
				"element": "H" 
			},
			{
				"x": 0.1236578293,
				"y": -2.0558967374,
				"z": 1.0817312701,
				"element": "H" 
			},
			{
				"x": 1.5116815904,
				"y": -0.9801430831,
				"z": 2.8137817584,
				"element": "H" 
			},
			{
				"x": 1.9002435839,
				"y": 1.4808581474,
				"z": 2.7665121691,
				"element": "H" 
			},
			{
				"x": 0.9340776234,
				"y": 2.8525215174,
				"z": 0.9495148257,
				"element": "H" 
			},
			{
				"x": -0.360526399,
				"y": 3.0268189022,
				"z": -1.1362662173,
				"element": "H" 
			},
			{
				"x": -1.7068996525,
				"y": 1.9536295004,
				"z": -2.9181432722,
				"element": "H" 
			},
			{
				"x": -2.212653929,
				"y": -0.4785172773,
				"z": -2.806675138,
				"element": "H" 
			}
		],
		 "valence_orbital": [ 
			{
				"type": "occ",
				"energy": -0.26814,
				"method": "rhf"
			},
			{
				"type": "occ",
				"energy": -0.25759,
				"method": "rhf"
			},
			{
				"type": "occ",
				"energy": -0.25265,
				"method": "rhf"
			},
			{
				"type": "occ",
				"energy": -0.25011,
				"method": "rhf"
			},
			{
				"type": "occ",
				"energy": -0.21624,
				"method": "rhf"
			},
			{
				"type": "unocc",
				"energy": -0.04815,
				"method": "rhf"
			},
			{
				"type": "unocc",
				"energy": -0.0184,
				"method": "rhf"
			},
			{
				"type": "unocc",
				"energy": 0.02254,
				"method": "rhf"
			},
			{
				"type": "unocc",
				"energy": 0.06321,
				"method": "rhf"
			},
			{
				"type": "unocc",
				"energy": 0.08593,
				"method": "rhf"
			}
		],
		"cosmo_sigma_profile": { 
			"-0.025": 0.0,
			"-0.024": 0.0,
			"-0.023": 0.0,
			"-0.022": 0.0,
			"-0.021": 0.0,
			"-0.02": 0.0,
			"-0.019": 0.0,
			"-0.018": 0.0,
			"-0.017": 0.0,
			"-0.016": 0.0,
			"-0.015": 0.0,
			"-0.014": 0.783055194887,
			"-0.013": 2.43517004934,
			"-0.012": 3.08320455661,
			"-0.011": 1.69366060718,
			"-0.01": 3.00580212283,
			"-0.009": 3.54516362438,
			"-0.008": 2.79739776118,
			"-0.007": 4.25487105694,
			"-0.006": 14.06189226,
			"-0.005": 16.2226473731,
			"-0.004": 15.9705014937,
			"-0.003": 13.5418990926,
			"-0.002": 12.0532267252,
			"-0.001": 13.036626113,
			"0.0": 11.4940974183,
			"0.001": 12.015990168,
			"0.002": 13.6909929206,
			"0.003": 19.0033452345,
			"0.004": 21.8043799864,
			"0.005": 13.6037196644,
			"0.006": 2.34812573784,
			"0.007": 1.54362710783,
			"0.008": 1.46512026261,
			"0.009": 1.12700661668,
			"0.01": 1.48229805617,
			"0.011": 1.12588344036,
			"0.012": 2.18655254335,
			"0.013": 1.74633698791,
			"0.014": 6.11286434798,
			"0.015": 3.74007865678,
			"0.016": 0.0320759952576,
			"0.017": 0.0,
			"0.018": 0.0,
			"0.019": 0.0,
			"0.02": 0.0,
			"0.021": 0.0,
			"0.022": 0.0,
			"0.023": 0.0,
			"0.024": 0.0,
			"0.025": 0.0
		}
	}
}
