{
	 "smiles": "NC(=S)NCC1=CC=CC=C1", 
	 "Tm": 437.15, 
	 "num_atms": 21, 
	 "gaussian": { 
		 "optdone": 1, 
		 "sigma_profile": "yes", 
		 "theory": "DFT", 
		 "functional": "B3LYP", 
		 "basiset": "6-31G**", 
		 "properties": { 
			 "R2extent": 2906.8451, 
			 "electric_dipole_moment_norm": 5.94618469609, 
			 "electric_quadrupole_moment_norm": 18.4473849588, 
			 "total_energy": -818.587544407, 
			 "HOMO_LUMO_gap": 0.17663, 
			 "cosmo_polarized_energy": -17.69, 
			 "cosmo_cavitation_energy": 26.29, 
			 "cosmo_dispersion_energy": -19.45, 
			 "cosmo_repulsion_energy": 1.54, 
			 "cosmo_total_nonelectrostatic_energy": 8.38, 
			 "SMD_solvation_energy": 3.24 
		},
		"coords": [
			{
				"x": -0.1984041892,
				"y": -0.3671702428,
				"z": -1.9101610101,
				"element": "N" 
			},
			{
				"x": 1.1289922553,
				"y": -0.0616018901,
				"z": -1.8502574693,
				"element": "C" 
			},
			{
				"x": 2.1532638801,
				"y": -0.2077712133,
				"z": -3.1771373481,
				"element": "S" 
			},
			{
				"x": 1.5894784116,
				"y": 0.3469958338,
				"z": -0.6333987185,
				"element": "N" 
			},
			{
				"x": 0.8626081386,
				"y": 0.2361408513,
				"z": 0.6261526279,
				"element": "C" 
			},
			{
				"x": -0.2544018943,
				"y": 1.256480551,
				"z": 0.81256576,
				"element": "C" 
			},
			{
				"x": -0.1290223005,
				"y": 2.5665958008,
				"z": 0.3318033236,
				"element": "C" 
			},
			{
				"x": -1.1416366339,
				"y": 3.5000835524,
				"z": 0.5527678668,
				"element": "C" 
			},
			{
				"x": -2.2924859914,
				"y": 3.137204,
				"z": 1.2569116542,
				"element": "C" 
			},
			{
				"x": -2.428106229,
				"y": 1.83305619,
				"z": 1.7344645004,
				"element": "C" 
			},
			{
				"x": -1.4156472856,
				"y": 0.8979019299,
				"z": 1.5092548156,
				"element": "C" 
			},
			{
				"x": -0.5518080969,
				"y": -0.5445492356,
				"z": -2.8378821216,
				"element": "H" 
			},
			{
				"x": -0.843283858,
				"y": 0.043072178,
				"z": -1.246831885,
				"element": "H" 
			},
			{
				"x": 2.5897445419,
				"y": 0.474864629,
				"z": -0.6060633859,
				"element": "H" 
			},
			{
				"x": 1.6039218493,
				"y": 0.3602287879,
				"z": 1.4231370721,
				"element": "H" 
			},
			{
				"x": 0.4513224874,
				"y": -0.7765515133,
				"z": 0.7360953234,
				"element": "H" 
			},
			{
				"x": 0.7601416739,
				"y": 2.8455612187,
				"z": -0.2259336659,
				"element": "H" 
			},
			{
				"x": -1.0329504671,
				"y": 4.511850942,
				"z": 0.1728084585,
				"element": "H" 
			},
			{
				"x": -3.0805436748,
				"y": 3.8650290216,
				"z": 1.4263796818,
				"element": "H" 
			},
			{
				"x": -3.3229008371,
				"y": 1.5399792372,
				"z": 2.2759976396,
				"element": "H" 
			},
			{
				"x": -1.5269817802,
				"y": -0.1186006284,
				"z": 1.8804268805,
				"element": "H" 
			}
		],
		 "valence_orbital": [ 
			{
				"type": "occ",
				"energy": -0.27537,
				"method": "rhf"
			},
			{
				"type": "occ",
				"energy": -0.26624,
				"method": "rhf"
			},
			{
				"type": "occ",
				"energy": -0.26135,
				"method": "rhf"
			},
			{
				"type": "occ",
				"energy": -0.20692,
				"method": "rhf"
			},
			{
				"type": "occ",
				"energy": -0.19814,
				"method": "rhf"
			},
			{
				"type": "unocc",
				"energy": -0.02151,
				"method": "rhf"
			},
			{
				"type": "unocc",
				"energy": -0.01812,
				"method": "rhf"
			},
			{
				"type": "unocc",
				"energy": 0.00334,
				"method": "rhf"
			},
			{
				"type": "unocc",
				"energy": 0.06369,
				"method": "rhf"
			},
			{
				"type": "unocc",
				"energy": 0.0847,
				"method": "rhf"
			}
		],
		"cosmo_sigma_profile": { 
			"-0.025": 0.0,
			"-0.024": 0.0,
			"-0.023": 0.0,
			"-0.022": 0.0,
			"-0.021": 0.0,
			"-0.02": 0.0,
			"-0.019": 0.0,
			"-0.018": 0.0,
			"-0.017": 0.0,
			"-0.016": 0.0,
			"-0.015": 0.129810269203,
			"-0.014": 1.79229607973,
			"-0.013": 2.23107158891,
			"-0.012": 2.50715863811,
			"-0.011": 2.88927587126,
			"-0.01": 3.18779799315,
			"-0.009": 3.01098151862,
			"-0.008": 2.85087192499,
			"-0.007": 6.24819379461,
			"-0.006": 12.535135305,
			"-0.005": 15.2387398878,
			"-0.004": 17.8134023267,
			"-0.003": 15.8071309865,
			"-0.002": 12.9333189917,
			"-0.001": 10.227667884,
			"0.0": 9.86943568047,
			"0.001": 10.6722478678,
			"0.002": 9.32606445092,
			"0.003": 8.7615897992,
			"0.004": 11.2906917616,
			"0.005": 11.5242948424,
			"0.006": 6.30919579186,
			"0.007": 5.20879199102,
			"0.008": 3.3495369419,
			"0.009": 3.25907120313,
			"0.01": 4.66463895169,
			"0.011": 5.91618435844,
			"0.012": 8.26044670181,
			"0.013": 3.60814414736,
			"0.014": 0.0,
			"0.015": 0.0,
			"0.016": 0.0,
			"0.017": 0.0,
			"0.018": 0.0,
			"0.019": 0.0,
			"0.02": 0.0,
			"0.021": 0.0,
			"0.022": 0.0,
			"0.023": 0.0,
			"0.024": 0.0,
			"0.025": 0.0
		}
	}
}
