{
	 "smiles": "ClS(=O)(=O)C1=CC=C(OCC2CCCCO2)C=C1", 
	 "Tm": 338.15, 
	 "num_atms": 33, 
	 "gaussian": { 
		 "optdone": 1, 
		 "sigma_profile": "yes", 
		 "theory": "DFT", 
		 "functional": "B3LYP", 
		 "basiset": "6-31G**", 
		 "properties": { 
			 "R2extent": 9116.5617, 
			 "electric_dipole_moment_norm": 7.71589388276, 
			 "electric_quadrupole_moment_norm": 27.0643612145, 
			 "total_energy": -1625.51610115, 
			 "HOMO_LUMO_gap": 0.16975, 
			 "cosmo_polarized_energy": -14.4, 
			 "cosmo_cavitation_energy": 38.93, 
			 "cosmo_dispersion_energy": -28.53, 
			 "cosmo_repulsion_energy": 2.19, 
			 "cosmo_total_nonelectrostatic_energy": 12.6, 
			 "SMD_solvation_energy": 4.8 
		},
		"coords": [
			{
				"x": -5.3641307422,
				"y": 0.0539211294,
				"z": -0.8085462258,
				"element": "Cl" 
			},
			{
				"x": -4.1658416348,
				"y": 1.3246139335,
				"z": -2.0563492918,
				"element": "S" 
			},
			{
				"x": -4.4720591181,
				"y": 0.9302901259,
				"z": -3.426333115,
				"element": "O" 
			},
			{
				"x": -4.3904778656,
				"y": 2.679798263,
				"z": -1.5663293183,
				"element": "O" 
			},
			{
				"x": -2.5233742636,
				"y": 0.8052993773,
				"z": -1.6402802304,
				"element": "C" 
			},
			{
				"x": -1.8468168205,
				"y": 1.4543108474,
				"z": -0.6082566904,
				"element": "C" 
			},
			{
				"x": -0.5544953679,
				"y": 1.0546408308,
				"z": -0.2787852147,
				"element": "C" 
			},
			{
				"x": 0.0533119619,
				"y": 0.0022140294,
				"z": -0.9856910013,
				"element": "C" 
			},
			{
				"x": 1.3049138998,
				"y": -0.4605270904,
				"z": -0.7718476273,
				"element": "O" 
			},
			{
				"x": 2.114305419,
				"y": 0.0755863714,
				"z": 0.2793560718,
				"element": "C" 
			},
			{
				"x": 1.787138732,
				"y": -0.5098227614,
				"z": 1.6498336998,
				"element": "C" 
			},
			{
				"x": 2.5672347263,
				"y": 0.1980816543,
				"z": 2.768344843,
				"element": "C" 
			},
			{
				"x": 2.3317449919,
				"y": -0.5083997025,
				"z": 4.1134703986,
				"element": "C" 
			},
			{
				"x": 2.5950976747,
				"y": -2.0159072166,
				"z": 3.981790152,
				"element": "C" 
			},
			{
				"x": 1.8119096427,
				"y": -2.5845455801,
				"z": 2.797537768,
				"element": "C" 
			},
			{
				"x": 2.1173125688,
				"y": -1.8912712536,
				"z": 1.5901061868,
				"element": "O" 
			},
			{
				"x": -0.6493979083,
				"y": -0.6427396727,
				"z": -2.0227420328,
				"element": "C" 
			},
			{
				"x": -1.9347761347,
				"y": -0.2483880759,
				"z": -2.3515858746,
				"element": "C" 
			},
			{
				"x": -2.3231787021,
				"y": 2.2694276759,
				"z": -0.0750351685,
				"element": "H" 
			},
			{
				"x": -0.0358608957,
				"y": 1.5670445217,
				"z": 0.5213765293,
				"element": "H" 
			},
			{
				"x": 3.1345221901,
				"y": -0.2089335184,
				"z": 0.0114944864,
				"element": "H" 
			},
			{
				"x": 2.0527378095,
				"y": 1.1700384119,
				"z": 0.2966378549,
				"element": "H" 
			},
			{
				"x": 0.7056423817,
				"y": -0.4034887114,
				"z": 1.8480664983,
				"element": "H" 
			},
			{
				"x": 2.2679319862,
				"y": 1.2518664874,
				"z": 2.827603418,
				"element": "H" 
			},
			{
				"x": 3.6364763274,
				"y": 0.1749524896,
				"z": 2.5188752511,
				"element": "H" 
			},
			{
				"x": 2.9649482596,
				"y": -0.0681335163,
				"z": 4.8913194867,
				"element": "H" 
			},
			{
				"x": 1.2906971492,
				"y": -0.3479467005,
				"z": 4.4267872596,
				"element": "H" 
			},
			{
				"x": 2.3152457208,
				"y": -2.5436068354,
				"z": 4.9012454877,
				"element": "H" 
			},
			{
				"x": 3.664845879,
				"y": -2.1939950455,
				"z": 3.8154182045,
				"element": "H" 
			},
			{
				"x": 2.0642527017,
				"y": -3.6324460299,
				"z": 2.6125894967,
				"element": "H" 
			},
			{
				"x": 0.7279870499,
				"y": -2.5272358975,
				"z": 2.997589857,
				"element": "H" 
			},
			{
				"x": -0.1548827009,
				"y": -1.4480239262,
				"z": -2.5544655476,
				"element": "H" 
			},
			{
				"x": -2.4778649177,
				"y": -0.7351746147,
				"z": -3.1537956114,
				"element": "H" 
			}
		],
		 "valence_orbital": [ 
			{
				"type": "occ",
				"energy": -0.31295,
				"method": "rhf"
			},
			{
				"type": "occ",
				"energy": -0.30417,
				"method": "rhf"
			},
			{
				"type": "occ",
				"energy": -0.28528,
				"method": "rhf"
			},
			{
				"type": "occ",
				"energy": -0.26328,
				"method": "rhf"
			},
			{
				"type": "occ",
				"energy": -0.25118,
				"method": "rhf"
			},
			{
				"type": "unocc",
				"energy": -0.08143,
				"method": "rhf"
			},
			{
				"type": "unocc",
				"energy": -0.03383,
				"method": "rhf"
			},
			{
				"type": "unocc",
				"energy": -0.02847,
				"method": "rhf"
			},
			{
				"type": "unocc",
				"energy": 0.05651,
				"method": "rhf"
			},
			{
				"type": "unocc",
				"energy": 0.06607,
				"method": "rhf"
			}
		],
		"cosmo_sigma_profile": { 
			"-0.025": 0.0,
			"-0.024": 0.0,
			"-0.023": 0.0,
			"-0.022": 0.0,
			"-0.021": 0.0,
			"-0.02": 0.0,
			"-0.019": 0.0,
			"-0.018": 0.0,
			"-0.017": 0.0,
			"-0.016": 0.0,
			"-0.015": 0.0,
			"-0.014": 0.0,
			"-0.013": 0.0,
			"-0.012": 0.0,
			"-0.011": 0.0,
			"-0.01": 0.0637696902024,
			"-0.009": 1.87899762239,
			"-0.008": 7.12200493995,
			"-0.007": 9.60881217834,
			"-0.006": 11.0932025172,
			"-0.005": 13.1802731408,
			"-0.004": 20.3821992408,
			"-0.003": 32.363961812,
			"-0.002": 31.099703081,
			"-0.001": 30.885672507,
			"0.0": 30.038009467,
			"0.001": 27.4797575976,
			"0.002": 16.6933856859,
			"0.003": 12.5001927202,
			"0.004": 17.5823540848,
			"0.005": 8.08031419508,
			"0.006": 5.17481023612,
			"0.007": 7.08814182471,
			"0.008": 11.6160575843,
			"0.009": 8.95898899778,
			"0.01": 1.7806267288,
			"0.011": 1.76225866086,
			"0.012": 1.92810914941,
			"0.013": 1.43426754427,
			"0.014": 0.172135391486,
			"0.015": 0.0,
			"0.016": 0.0,
			"0.017": 0.0,
			"0.018": 0.0,
			"0.019": 0.0,
			"0.02": 0.0,
			"0.021": 0.0,
			"0.022": 0.0,
			"0.023": 0.0,
			"0.024": 0.0,
			"0.025": 0.0
		}
	}
}
