{
	 "smiles": "CC(C)C=C", 
	 "Tm": 105.15, 
	 "num_atms": 15, 
	 "gaussian": { 
		 "optdone": 1, 
		 "sigma_profile": "yes", 
		 "theory": "DFT", 
		 "functional": "B3LYP", 
		 "basiset": "6-31G**", 
		 "properties": { 
			 "R2extent": 674.7985, 
			 "electric_dipole_moment_norm": 0.378189965494, 
			 "electric_quadrupole_moment_norm": 1.46903685114, 
			 "total_energy": -196.54501665, 
			 "HOMO_LUMO_gap": 0.27599, 
			 "cosmo_polarized_energy": -1.48, 
			 "cosmo_cavitation_energy": 17.21, 
			 "cosmo_dispersion_energy": -12.42, 
			 "cosmo_repulsion_energy": 1.09, 
			 "cosmo_total_nonelectrostatic_energy": 5.87, 
			 "SMD_solvation_energy": 3.86 
		},
		"coords": [
			{
				"x": -1.5748475526,
				"y": 0.9818363641,
				"z": 1.8287604618,
				"element": "C" 
			},
			{
				"x": -0.3395745101,
				"y": 0.4766877495,
				"z": 1.0753885216,
				"element": "C" 
			},
			{
				"x": 0.6565618455,
				"y": 1.62357618,
				"z": 0.8077647659,
				"element": "C" 
			},
			{
				"x": -0.656716791,
				"y": -0.2449366386,
				"z": -0.2153452674,
				"element": "C" 
			},
			{
				"x": -1.859062242,
				"y": -0.4389177446,
				"z": -0.7587705082,
				"element": "C" 
			},
			{
				"x": -1.2818330247,
				"y": 1.4579812684,
				"z": 2.7699913902,
				"element": "H" 
			},
			{
				"x": -2.1220654703,
				"y": 1.7243321181,
				"z": 1.2368825696,
				"element": "H" 
			},
			{
				"x": -2.264132503,
				"y": 0.1652068249,
				"z": 2.0656983478,
				"element": "H" 
			},
			{
				"x": 0.1765296374,
				"y": -0.2494053322,
				"z": 1.7242617648,
				"element": "H" 
			},
			{
				"x": 1.55459258,
				"y": 1.2622418959,
				"z": 0.2951113296,
				"element": "H" 
			},
			{
				"x": 0.1991161953,
				"y": 2.3935856391,
				"z": 0.1766973315,
				"element": "H" 
			},
			{
				"x": 0.9713417117,
				"y": 2.094972467,
				"z": 1.7449771514,
				"element": "H" 
			},
			{
				"x": 0.2181965272,
				"y": -0.6289549997,
				"z": -0.7432540016,
				"element": "H" 
			},
			{
				"x": -2.7738818916,
				"y": -0.0848962737,
				"z": -0.2927466751,
				"element": "H" 
			},
			{
				"x": -1.9720245118,
				"y": -0.9679095181,
				"z": -1.7006171819,
				"element": "H" 
			}
		],
		 "valence_orbital": [ 
			{
				"type": "occ",
				"energy": -0.37356,
				"method": "rhf"
			},
			{
				"type": "occ",
				"energy": -0.341,
				"method": "rhf"
			},
			{
				"type": "occ",
				"energy": -0.3293,
				"method": "rhf"
			},
			{
				"type": "occ",
				"energy": -0.32184,
				"method": "rhf"
			},
			{
				"type": "occ",
				"energy": -0.24969,
				"method": "rhf"
			},
			{
				"type": "unocc",
				"energy": 0.0263,
				"method": "rhf"
			},
			{
				"type": "unocc",
				"energy": 0.09559,
				"method": "rhf"
			},
			{
				"type": "unocc",
				"energy": 0.12731,
				"method": "rhf"
			},
			{
				"type": "unocc",
				"energy": 0.14141,
				"method": "rhf"
			},
			{
				"type": "unocc",
				"energy": 0.14934,
				"method": "rhf"
			}
		],
		"cosmo_sigma_profile": { 
			"-0.025": 0.0,
			"-0.024": 0.0,
			"-0.023": 0.0,
			"-0.022": 0.0,
			"-0.021": 0.0,
			"-0.02": 0.0,
			"-0.019": 0.0,
			"-0.018": 0.0,
			"-0.017": 0.0,
			"-0.016": 0.0,
			"-0.015": 0.0,
			"-0.014": 0.0,
			"-0.013": 0.0,
			"-0.012": 0.0,
			"-0.011": 0.0,
			"-0.01": 0.0,
			"-0.009": 0.0,
			"-0.008": 0.0,
			"-0.007": 0.0,
			"-0.006": 0.0,
			"-0.005": 0.430324751454,
			"-0.004": 4.57072278326,
			"-0.003": 13.785217348,
			"-0.002": 23.1605527306,
			"-0.001": 23.0138585053,
			"0.0": 19.0905230164,
			"0.001": 20.3458459421,
			"0.002": 11.669917241,
			"0.003": 4.29214233547,
			"0.004": 3.48706863553,
			"0.005": 3.07796776851,
			"0.006": 2.90078155072,
			"0.007": 2.76242902094,
			"0.008": 1.04397979874,
			"0.009": 0.0,
			"0.01": 0.0,
			"0.011": 0.0,
			"0.012": 0.0,
			"0.013": 0.0,
			"0.014": 0.0,
			"0.015": 0.0,
			"0.016": 0.0,
			"0.017": 0.0,
			"0.018": 0.0,
			"0.019": 0.0,
			"0.02": 0.0,
			"0.021": 0.0,
			"0.022": 0.0,
			"0.023": 0.0,
			"0.024": 0.0,
			"0.025": 0.0
		}
	}
}
