{
	 "smiles": "ClC1=NC2=C(CCN2)C(Cl)=C1", 
	 "Tm": 423.15, 
	 "num_atms": 17, 
	 "gaussian": { 
		 "optdone": 1, 
		 "sigma_profile": "yes", 
		 "theory": "DFT", 
		 "functional": "B3LYP", 
		 "basiset": "6-31G**", 
		 "properties": { 
			 "R2extent": 2719.9327, 
			 "electric_dipole_moment_norm": 3.9419750608, 
			 "electric_quadrupole_moment_norm": 8.3088081859, 
			 "total_energy": -1300.25420651, 
			 "HOMO_LUMO_gap": 0.18569, 
			 "cosmo_polarized_energy": -8.44, 
			 "cosmo_cavitation_energy": 24.24, 
			 "cosmo_dispersion_energy": -18.7, 
			 "cosmo_repulsion_energy": 1.52, 
			 "cosmo_total_nonelectrostatic_energy": 7.06, 
			 "SMD_solvation_energy": 0.51 
		},
		"coords": [
			{
				"x": -2.7760408489,
				"y": -1.1102135728,
				"z": 0.7191202192,
				"element": "Cl" 
			},
			{
				"x": -1.2522332549,
				"y": -0.6734033563,
				"z": -0.050260986,
				"element": "C" 
			},
			{
				"x": -0.7591195582,
				"y": 0.5192406346,
				"z": 0.2722525905,
				"element": "N" 
			},
			{
				"x": 0.3908503125,
				"y": 0.829712077,
				"z": -0.3224864312,
				"element": "C" 
			},
			{
				"x": 1.0889260011,
				"y": 0.0199251892,
				"z": -1.2456542018,
				"element": "C" 
			},
			{
				"x": 2.3484239966,
				"y": 0.7345532057,
				"z": -1.6636657802,
				"element": "C" 
			},
			{
				"x": 2.0949778323,
				"y": 2.180669053,
				"z": -1.1454941945,
				"element": "C" 
			},
			{
				"x": 1.0783192228,
				"y": 2.0014872624,
				"z": -0.0981317152,
				"element": "N" 
			},
			{
				"x": 0.5319389222,
				"y": -1.2061921265,
				"z": -1.5347017677,
				"element": "C" 
			},
			{
				"x": 1.3149758856,
				"y": -2.297098059,
				"z": -2.6598669878,
				"element": "Cl" 
			},
			{
				"x": -0.6801652747,
				"y": -1.5865707205,
				"z": -0.9310882321,
				"element": "C" 
			},
			{
				"x": 3.2238192606,
				"y": 0.2901032955,
				"z": -1.1733448082,
				"element": "H" 
			},
			{
				"x": 2.530467412,
				"y": 0.7073427097,
				"z": -2.7411212913,
				"element": "H" 
			},
			{
				"x": 2.9987684413,
				"y": 2.6431930286,
				"z": -0.7402675556,
				"element": "H" 
			},
			{
				"x": 1.7186716395,
				"y": 2.8190341509,
				"z": -1.9581753874,
				"element": "H" 
			},
			{
				"x": 0.5625044799,
				"y": 2.7948905381,
				"z": 0.2562800784,
				"element": "H" 
			},
			{
				"x": -1.1454844696,
				"y": -2.5385733098,
				"z": -1.1445935491,
				"element": "H" 
			}
		],
		 "valence_orbital": [ 
			{
				"type": "occ",
				"energy": -0.31042,
				"method": "rhf"
			},
			{
				"type": "occ",
				"energy": -0.29237,
				"method": "rhf"
			},
			{
				"type": "occ",
				"energy": -0.28176,
				"method": "rhf"
			},
			{
				"type": "occ",
				"energy": -0.27242,
				"method": "rhf"
			},
			{
				"type": "occ",
				"energy": -0.21774,
				"method": "rhf"
			},
			{
				"type": "unocc",
				"energy": -0.03205,
				"method": "rhf"
			},
			{
				"type": "unocc",
				"energy": -0.009,
				"method": "rhf"
			},
			{
				"type": "unocc",
				"energy": 0.01167,
				"method": "rhf"
			},
			{
				"type": "unocc",
				"energy": 0.05424,
				"method": "rhf"
			},
			{
				"type": "unocc",
				"energy": 0.07819,
				"method": "rhf"
			}
		],
		"cosmo_sigma_profile": { 
			"-0.025": 0.0,
			"-0.024": 0.0,
			"-0.023": 0.0,
			"-0.022": 0.0,
			"-0.021": 0.0,
			"-0.02": 0.0,
			"-0.019": 0.0,
			"-0.018": 0.0,
			"-0.017": 0.0,
			"-0.016": 0.0,
			"-0.015": 0.0111538286892,
			"-0.014": 0.861476154445,
			"-0.013": 1.25028886492,
			"-0.012": 0.78289545427,
			"-0.011": 1.22699563095,
			"-0.01": 1.08127124275,
			"-0.009": 0.766827078166,
			"-0.008": 2.00956947959,
			"-0.007": 2.20252261417,
			"-0.006": 4.49264349584,
			"-0.005": 13.7586346937,
			"-0.004": 16.4548595389,
			"-0.003": 14.9220865513,
			"-0.002": 14.270046864,
			"-0.001": 12.5966094186,
			"0.0": 17.7857082075,
			"0.001": 21.0745642485,
			"0.002": 15.0249011079,
			"0.003": 16.0662943684,
			"0.004": 17.8649749474,
			"0.005": 8.60654016747,
			"0.006": 3.51077886493,
			"0.007": 2.76941887566,
			"0.008": 2.00940075915,
			"0.009": 1.80144939739,
			"0.01": 1.40021898459,
			"0.011": 1.08443895986,
			"0.012": 0.985720073806,
			"0.013": 0.835980433819,
			"0.014": 0.626230131958,
			"0.015": 0.0825776353224,
			"0.016": 0.0,
			"0.017": 0.0,
			"0.018": 0.0,
			"0.019": 0.0,
			"0.02": 0.0,
			"0.021": 0.0,
			"0.022": 0.0,
			"0.023": 0.0,
			"0.024": 0.0,
			"0.025": 0.0
		}
	}
}
