{
	 "smiles": "COC1=CC(CC(O)=O)=C(C=C1)S(=O)(=O)NC(C)(C)C", 
	 "Tm": 472.15, 
	 "num_atms": 39, 
	 "gaussian": { 
		 "optdone": 1, 
		 "sigma_profile": "yes", 
		 "theory": "DFT", 
		 "functional": "B3LYP", 
		 "basiset": "6-31G**", 
		 "properties": { 
			 "R2extent": 7282.7522, 
			 "electric_dipole_moment_norm": 4.88717670849, 
			 "electric_quadrupole_moment_norm": 21.9148606585, 
			 "total_energy": -1335.83592656, 
			 "HOMO_LUMO_gap": 0.20729, 
			 "cosmo_polarized_energy": -22.73, 
			 "cosmo_cavitation_energy": 42.41, 
			 "cosmo_dispersion_energy": -29.16, 
			 "cosmo_repulsion_energy": 2.21, 
			 "cosmo_total_nonelectrostatic_energy": 15.45, 
			 "SMD_solvation_energy": 8.61 
		},
		"coords": [
			{
				"x": 1.109779459,
				"y": 4.658652224,
				"z": 1.9912001245,
				"element": "C" 
			},
			{
				"x": 0.4144571365,
				"y": 4.208486416,
				"z": 0.8354909028,
				"element": "O" 
			},
			{
				"x": 0.4922103359,
				"y": 2.8961909108,
				"z": 0.4967571652,
				"element": "C" 
			},
			{
				"x": 1.2006611523,
				"y": 1.9310485485,
				"z": 1.2184344637,
				"element": "C" 
			},
			{
				"x": 1.241469806,
				"y": 0.5865504335,
				"z": 0.8142875336,
				"element": "C" 
			},
			{
				"x": 2.0458690142,
				"y": -0.3655211902,
				"z": 1.6753003895,
				"element": "C" 
			},
			{
				"x": 3.3863276217,
				"y": -0.8389297107,
				"z": 1.125846474,
				"element": "C" 
			},
			{
				"x": 3.6536851374,
				"y": -0.3722853337,
				"z": -0.1120354505,
				"element": "O" 
			},
			{
				"x": 4.1458872758,
				"y": -1.5472626817,
				"z": 1.7454500286,
				"element": "O" 
			},
			{
				"x": 0.5284876864,
				"y": 0.2314345969,
				"z": -0.3452811222,
				"element": "C" 
			},
			{
				"x": -0.1760820101,
				"y": 1.2032329853,
				"z": -1.0741771796,
				"element": "C" 
			},
			{
				"x": -0.2041313191,
				"y": 2.5227621378,
				"z": -0.6630728971,
				"element": "C" 
			},
			{
				"x": 0.5280286793,
				"y": -1.4178856883,
				"z": -1.0633856604,
				"element": "S" 
			},
			{
				"x": 1.1379489894,
				"y": -2.3559092169,
				"z": -0.1053877963,
				"element": "O" 
			},
			{
				"x": 1.0423781563,
				"y": -1.3557698502,
				"z": -2.4356694059,
				"element": "O" 
			},
			{
				"x": -1.1451009649,
				"y": -1.6899484533,
				"z": -1.1705889593,
				"element": "N" 
			},
			{
				"x": -1.7146545705,
				"y": -2.6853381843,
				"z": -2.1462304863,
				"element": "C" 
			},
			{
				"x": -1.7617020592,
				"y": -2.0501160958,
				"z": -3.5447109896,
				"element": "C" 
			},
			{
				"x": -0.9352842391,
				"y": -4.0135255044,
				"z": -2.1709465509,
				"element": "C" 
			},
			{
				"x": -3.1484185637,
				"y": -2.9311666762,
				"z": -1.6455426657,
				"element": "C" 
			},
			{
				"x": 2.1903443936,
				"y": 4.4936567666,
				"z": 1.900417509,
				"element": "H" 
			},
			{
				"x": 0.9134708386,
				"y": 5.7292588477,
				"z": 2.0596014835,
				"element": "H" 
			},
			{
				"x": 0.7430699556,
				"y": 4.1650902422,
				"z": 2.8997302976,
				"element": "H" 
			},
			{
				"x": 1.743308223,
				"y": 2.2096648526,
				"z": 2.1139524289,
				"element": "H" 
			},
			{
				"x": 1.4902737287,
				"y": -1.2792943782,
				"z": 1.8925863516,
				"element": "H" 
			},
			{
				"x": 2.2657326958,
				"y": 0.1103680373,
				"z": 2.6360711226,
				"element": "H" 
			},
			{
				"x": 4.4941652727,
				"y": -0.7791650672,
				"z": -0.3815116122,
				"element": "H" 
			},
			{
				"x": -0.7140455949,
				"y": 0.9061102958,
				"z": -1.9670066434,
				"element": "H" 
			},
			{
				"x": -0.749760476,
				"y": 3.2788748691,
				"z": -1.2167424301,
				"element": "H" 
			},
			{
				"x": -1.4634094571,
				"y": -1.8927653193,
				"z": -0.2240696749,
				"element": "H" 
			},
			{
				"x": -2.248702546,
				"y": -2.7364180334,
				"z": -4.2454159906,
				"element": "H" 
			},
			{
				"x": -2.3365921388,
				"y": -1.119046781,
				"z": -3.5207866144,
				"element": "H" 
			},
			{
				"x": -0.7579188753,
				"y": -1.8312557239,
				"z": -3.9104736602,
				"element": "H" 
			},
			{
				"x": -0.8682545676,
				"y": -4.4510000271,
				"z": -1.1700768544,
				"element": "H" 
			},
			{
				"x": -1.4419033705,
				"y": -4.7306303975,
				"z": -2.8255015035,
				"element": "H" 
			},
			{
				"x": 0.0792460233,
				"y": -3.8680096542,
				"z": -2.5488529437,
				"element": "H" 
			},
			{
				"x": -3.1503493552,
				"y": -3.4071859779,
				"z": -0.6575686901,
				"element": "H" 
			},
			{
				"x": -3.7071426698,
				"y": -1.992394986,
				"z": -1.5814818608,
				"element": "H" 
			},
			{
				"x": -3.6740488037,
				"y": -3.5978572331,
				"z": -2.3352086329,
				"element": "H" 
			}
		],
		 "valence_orbital": [ 
			{
				"type": "occ",
				"energy": -0.289,
				"method": "rhf"
			},
			{
				"type": "occ",
				"energy": -0.27677,
				"method": "rhf"
			},
			{
				"type": "occ",
				"energy": -0.26483,
				"method": "rhf"
			},
			{
				"type": "occ",
				"energy": -0.25447,
				"method": "rhf"
			},
			{
				"type": "occ",
				"energy": -0.23602,
				"method": "rhf"
			},
			{
				"type": "unocc",
				"energy": -0.02873,
				"method": "rhf"
			},
			{
				"type": "unocc",
				"energy": -0.01762,
				"method": "rhf"
			},
			{
				"type": "unocc",
				"energy": 0.01963,
				"method": "rhf"
			},
			{
				"type": "unocc",
				"energy": 0.05843,
				"method": "rhf"
			},
			{
				"type": "unocc",
				"energy": 0.07194,
				"method": "rhf"
			}
		],
		"cosmo_sigma_profile": { 
			"-0.025": 0.0,
			"-0.024": 0.0,
			"-0.023": 0.0,
			"-0.022": 0.0,
			"-0.021": 0.0,
			"-0.02": 0.0,
			"-0.019": 0.0628052984436,
			"-0.018": 0.993512892456,
			"-0.017": 0.85155241701,
			"-0.016": 0.908150521351,
			"-0.015": 0.65880273584,
			"-0.014": 1.47323276222,
			"-0.013": 1.18781862456,
			"-0.012": 1.56406648135,
			"-0.011": 1.81409149862,
			"-0.01": 2.57870929918,
			"-0.009": 2.18042952279,
			"-0.008": 4.5373537638,
			"-0.007": 9.00576291397,
			"-0.006": 17.829973659,
			"-0.005": 17.2788515031,
			"-0.004": 26.0862853417,
			"-0.003": 29.949985455,
			"-0.002": 24.9839165684,
			"-0.001": 23.1112998712,
			"0.0": 27.6011452401,
			"0.001": 24.9454057217,
			"0.002": 16.9043772606,
			"0.003": 16.9540865683,
			"0.004": 10.5975499218,
			"0.005": 8.10243412669,
			"0.006": 8.94454081141,
			"0.007": 10.305073156,
			"0.008": 7.5929784968,
			"0.009": 7.47246402016,
			"0.01": 7.32380438057,
			"0.011": 10.1777886628,
			"0.012": 7.93035882307,
			"0.013": 0.965795545006,
			"0.014": 0.0,
			"0.015": 0.0,
			"0.016": 0.0,
			"0.017": 0.0,
			"0.018": 0.0,
			"0.019": 0.0,
			"0.02": 0.0,
			"0.021": 0.0,
			"0.022": 0.0,
			"0.023": 0.0,
			"0.024": 0.0,
			"0.025": 0.0
		}
	}
}
