{
	 "smiles": "CCN1C(=O)C=C(N)N(CC2=CC=CC=C2)C1=O", 
	 "Tm": 380.15, 
	 "num_atms": 33, 
	 "gaussian": { 
		 "optdone": 1, 
		 "sigma_profile": "yes", 
		 "theory": "DFT", 
		 "functional": "B3LYP", 
		 "basiset": "6-31G**", 
		 "properties": { 
			 "R2extent": 5034.6003, 
			 "electric_dipole_moment_norm": 5.61547961709, 
			 "electric_quadrupole_moment_norm": 17.1364068159, 
			 "total_energy": -819.176721993, 
			 "HOMO_LUMO_gap": 0.19765, 
			 "cosmo_polarized_energy": -18.31, 
			 "cosmo_cavitation_energy": 35.67, 
			 "cosmo_dispersion_energy": -25.26, 
			 "cosmo_repulsion_energy": 1.93, 
			 "cosmo_total_nonelectrostatic_energy": 12.35, 
			 "SMD_solvation_energy": 6.9 
		},
		"coords": [
			{
				"x": -0.4303354384,
				"y": -0.1500799086,
				"z": -3.7772632959,
				"element": "C" 
			},
			{
				"x": 1.007219505,
				"y": -0.1203739685,
				"z": -3.2589313185,
				"element": "C" 
			},
			{
				"x": 1.1088596346,
				"y": -0.5589340204,
				"z": -1.8547534413,
				"element": "N" 
			},
			{
				"x": 1.3272920803,
				"y": -1.9478379685,
				"z": -1.6078204431,
				"element": "C" 
			},
			{
				"x": 1.4416710018,
				"y": -2.7238624279,
				"z": -2.5505095554,
				"element": "O" 
			},
			{
				"x": 1.364383953,
				"y": -2.3110707797,
				"z": -0.2184091811,
				"element": "C" 
			},
			{
				"x": 1.2272243049,
				"y": -1.3768764606,
				"z": 0.7676945881,
				"element": "C" 
			},
			{
				"x": 1.3162610379,
				"y": -1.6777386522,
				"z": 2.1134440059,
				"element": "N" 
			},
			{
				"x": 1.0452647679,
				"y": -0.0382764428,
				"z": 0.4548369686,
				"element": "N" 
			},
			{
				"x": 1.0375708963,
				"y": 1.0035468223,
				"z": 1.499399996,
				"element": "C" 
			},
			{
				"x": -0.2668171814,
				"y": 1.1045235393,
				"z": 2.2704608387,
				"element": "C" 
			},
			{
				"x": -1.4768852641,
				"y": 1.3232487351,
				"z": 1.5950922217,
				"element": "C" 
			},
			{
				"x": -2.6696734271,
				"y": 1.43305586,
				"z": 2.3070322715,
				"element": "C" 
			},
			{
				"x": -2.6720308462,
				"y": 1.3313633737,
				"z": 3.7019197904,
				"element": "C" 
			},
			{
				"x": -1.4730435663,
				"y": 1.1239143372,
				"z": 4.3822093732,
				"element": "C" 
			},
			{
				"x": -0.2763393697,
				"y": 1.0106081791,
				"z": 3.6678654667,
				"element": "C" 
			},
			{
				"x": 0.9264645231,
				"y": 0.3981030035,
				"z": -0.8791845218,
				"element": "C" 
			},
			{
				"x": 0.6847775079,
				"y": 1.5745752656,
				"z": -1.1332673677,
				"element": "O" 
			},
			{
				"x": -0.8368508832,
				"y": -1.1637213156,
				"z": -3.7232160682,
				"element": "H" 
			},
			{
				"x": -1.0666284616,
				"y": 0.5244056775,
				"z": -3.197474252,
				"element": "H" 
			},
			{
				"x": -0.4560791394,
				"y": 0.172642582,
				"z": -4.8233016905,
				"element": "H" 
			},
			{
				"x": 1.6339438727,
				"y": -0.8037769342,
				"z": -3.8319103519,
				"element": "H" 
			},
			{
				"x": 1.4171791607,
				"y": 0.8887526656,
				"z": -3.3115748295,
				"element": "H" 
			},
			{
				"x": 1.4775659549,
				"y": -3.3603395373,
				"z": 0.0195422228,
				"element": "H" 
			},
			{
				"x": 0.6745047762,
				"y": -1.1835909949,
				"z": 2.7222856308,
				"element": "H" 
			},
			{
				"x": 1.3405576154,
				"y": -2.6704455828,
				"z": 2.3015461886,
				"element": "H" 
			},
			{
				"x": 1.869373329,
				"y": 0.8037000656,
				"z": 2.180169689,
				"element": "H" 
			},
			{
				"x": 1.2331261486,
				"y": 1.9383469266,
				"z": 0.9726142974,
				"element": "H" 
			},
			{
				"x": -1.4702063222,
				"y": 1.4214672753,
				"z": 0.5135808,
				"element": "H" 
			},
			{
				"x": -3.6004877626,
				"y": 1.6046109142,
				"z": 1.7740737293,
				"element": "H" 
			},
			{
				"x": -3.6038652343,
				"y": 1.4182051478,
				"z": 4.2529804213,
				"element": "H" 
			},
			{
				"x": -1.4644497417,
				"y": 1.0507059479,
				"z": 5.4659196371,
				"element": "H" 
			},
			{
				"x": 0.6596525681,
				"y": 0.8618486756,
				"z": 4.20314818,
				"element": "H" 
			}
		],
		 "valence_orbital": [ 
			{
				"type": "occ",
				"energy": -0.26569,
				"method": "rhf"
			},
			{
				"type": "occ",
				"energy": -0.26042,
				"method": "rhf"
			},
			{
				"type": "occ",
				"energy": -0.25694,
				"method": "rhf"
			},
			{
				"type": "occ",
				"energy": -0.24389,
				"method": "rhf"
			},
			{
				"type": "occ",
				"energy": -0.21869,
				"method": "rhf"
			},
			{
				"type": "unocc",
				"energy": -0.02104,
				"method": "rhf"
			},
			{
				"type": "unocc",
				"energy": -0.0184,
				"method": "rhf"
			},
			{
				"type": "unocc",
				"energy": -0.00994,
				"method": "rhf"
			},
			{
				"type": "unocc",
				"energy": 0.02088,
				"method": "rhf"
			},
			{
				"type": "unocc",
				"energy": 0.0705,
				"method": "rhf"
			}
		],
		"cosmo_sigma_profile": { 
			"-0.025": 0.0,
			"-0.024": 0.0,
			"-0.023": 0.0,
			"-0.022": 0.0,
			"-0.021": 0.0,
			"-0.02": 0.0,
			"-0.019": 0.0,
			"-0.018": 0.0,
			"-0.017": 0.0,
			"-0.016": 0.0,
			"-0.015": 0.279148377953,
			"-0.014": 1.40579995343,
			"-0.013": 1.66834046422,
			"-0.012": 1.84379203434,
			"-0.011": 2.55876497071,
			"-0.01": 1.89369758772,
			"-0.009": 1.73086618789,
			"-0.008": 3.29496531268,
			"-0.007": 6.42554999657,
			"-0.006": 11.9585356909,
			"-0.005": 13.0363631406,
			"-0.004": 24.233015963,
			"-0.003": 29.0631298511,
			"-0.002": 25.4575870289,
			"-0.001": 25.4708229822,
			"0.0": 21.0514766445,
			"0.001": 17.1126847163,
			"0.002": 15.2383095498,
			"0.003": 14.8657729387,
			"0.004": 14.413180655,
			"0.005": 12.6090784218,
			"0.006": 5.93798789376,
			"0.007": 3.79701475784,
			"0.008": 2.8190562563,
			"0.009": 2.81396434639,
			"0.01": 3.57149449,
			"0.011": 2.87305247311,
			"0.012": 4.46790181554,
			"0.013": 5.10042059916,
			"0.014": 4.70932866834,
			"0.015": 1.43189249381,
			"0.016": 0.0674238374159,
			"0.017": 0.0,
			"0.018": 0.0,
			"0.019": 0.0,
			"0.02": 0.0,
			"0.021": 0.0,
			"0.022": 0.0,
			"0.023": 0.0,
			"0.024": 0.0,
			"0.025": 0.0
		}
	}
}
