{
	 "smiles": "COC(=O)C=P(C1=CC=CC=C1)(C1=CC=CC=C1)C1=CC=CC=C1", 
	 "Tm": 439.15, 
	 "num_atms": 43, 
	 "gaussian": { 
		 "optdone": 1, 
		 "sigma_profile": "yes", 
		 "theory": "DFT", 
		 "functional": "B3LYP", 
		 "basiset": "6-31G**", 
		 "properties": { 
			 "R2extent": 8939.7291, 
			 "electric_dipole_moment_norm": 4.71350398112, 
			 "electric_quadrupole_moment_norm": 12.0335678957, 
			 "total_energy": -1303.46256572, 
			 "HOMO_LUMO_gap": 0.14769, 
			 "cosmo_polarized_energy": -16.38, 
			 "cosmo_cavitation_energy": 47.39, 
			 "cosmo_dispersion_energy": -31.65, 
			 "cosmo_repulsion_energy": 2.43, 
			 "cosmo_total_nonelectrostatic_energy": 18.17, 
			 "SMD_solvation_energy": 9.9 
		},
		"coords": [
			{
				"x": 4.086726973,
				"y": -0.6049820522,
				"z": -4.8371530175,
				"element": "C" 
			},
			{
				"x": 2.7932645115,
				"y": -1.0170633989,
				"z": -4.3975587546,
				"element": "O" 
			},
			{
				"x": 2.438244335,
				"y": -0.5715092118,
				"z": -3.1476303729,
				"element": "C" 
			},
			{
				"x": 3.2151546613,
				"y": 0.1223308364,
				"z": -2.4770715223,
				"element": "O" 
			},
			{
				"x": 1.1419459437,
				"y": -1.0115144189,
				"z": -2.762867323,
				"element": "C" 
			},
			{
				"x": 0.5214759472,
				"y": -0.6355653963,
				"z": -1.2097405294,
				"element": "P" 
			},
			{
				"x": -1.1036643088,
				"y": -1.4681739699,
				"z": -1.1016068348,
				"element": "C" 
			},
			{
				"x": -2.0243999543,
				"y": -1.2949239543,
				"z": -2.1493495573,
				"element": "C" 
			},
			{
				"x": -3.2672650104,
				"y": -1.924490648,
				"z": -2.1031238045,
				"element": "C" 
			},
			{
				"x": -3.6067278511,
				"y": -2.7281160391,
				"z": -1.0117844216,
				"element": "C" 
			},
			{
				"x": -2.6987886753,
				"y": -2.900722311,
				"z": 0.0330991346,
				"element": "C" 
			},
			{
				"x": -1.4515509497,
				"y": -2.2738009615,
				"z": -0.009058061,
				"element": "C" 
			},
			{
				"x": 1.5441757007,
				"y": -1.2455037995,
				"z": 0.188726341,
				"element": "C" 
			},
			{
				"x": 2.4070240694,
				"y": -2.3256357488,
				"z": -0.0398476195,
				"element": "C" 
			},
			{
				"x": 3.1738819863,
				"y": -2.8425944581,
				"z": 1.0040298,
				"element": "C" 
			},
			{
				"x": 3.0847233817,
				"y": -2.2849434611,
				"z": 2.2811804157,
				"element": "C" 
			},
			{
				"x": 2.230549801,
				"y": -1.2047758011,
				"z": 2.5136727597,
				"element": "C" 
			},
			{
				"x": 1.465494543,
				"y": -0.6813500859,
				"z": 1.4706515844,
				"element": "C" 
			},
			{
				"x": 0.2139626306,
				"y": 1.1373360642,
				"z": -0.816598777,
				"element": "C" 
			},
			{
				"x": -1.0100172585,
				"y": 1.5634388013,
				"z": -0.2778488895,
				"element": "C" 
			},
			{
				"x": -1.2231281238,
				"y": 2.9149181751,
				"z": 0.002465249,
				"element": "C" 
			},
			{
				"x": -0.2197026082,
				"y": 3.8491944401,
				"z": -0.2550211206,
				"element": "C" 
			},
			{
				"x": 0.9994282248,
				"y": 3.4296878945,
				"z": -0.7933495089,
				"element": "C" 
			},
			{
				"x": 1.2240400521,
				"y": 2.0822803641,
				"z": -1.0738317698,
				"element": "C" 
			},
			{
				"x": 4.8722971886,
				"y": -0.982515676,
				"z": -4.1751426191,
				"element": "H" 
			},
			{
				"x": 4.2072348367,
				"y": -1.0231234463,
				"z": -5.8385058165,
				"element": "H" 
			},
			{
				"x": 4.1670602934,
				"y": 0.4858405461,
				"z": -4.8726824388,
				"element": "H" 
			},
			{
				"x": 0.5393149085,
				"y": -1.6268383373,
				"z": -3.4160517711,
				"element": "H" 
			},
			{
				"x": -1.7640946717,
				"y": -0.6725088348,
				"z": -2.9997035426,
				"element": "H" 
			},
			{
				"x": -3.9703689873,
				"y": -1.7871453347,
				"z": -2.9193702715,
				"element": "H" 
			},
			{
				"x": -4.5756512876,
				"y": -3.2178561461,
				"z": -0.9776003434,
				"element": "H" 
			},
			{
				"x": -2.9566285311,
				"y": -3.5266615891,
				"z": 0.8823637139,
				"element": "H" 
			},
			{
				"x": -0.7490792096,
				"y": -2.4181665678,
				"z": 0.804785777,
				"element": "H" 
			},
			{
				"x": 2.4778094676,
				"y": -2.7419311582,
				"z": -1.0400450354,
				"element": "H" 
			},
			{
				"x": 3.8464282716,
				"y": -3.674951133,
				"z": 0.8183304543,
				"element": "H" 
			},
			{
				"x": 3.6852241576,
				"y": -2.6862253293,
				"z": 3.0927005233,
				"element": "H" 
			},
			{
				"x": 2.1664038822,
				"y": -0.7631766273,
				"z": 3.5039823055,
				"element": "H" 
			},
			{
				"x": 0.8169070224,
				"y": 0.1699755822,
				"z": 1.6525703686,
				"element": "H" 
			},
			{
				"x": -1.8001733048,
				"y": 0.8468424307,
				"z": -0.0791133232,
				"element": "H" 
			},
			{
				"x": -2.1742659619,
				"y": 3.2343200318,
				"z": 0.4190156041,
				"element": "H" 
			},
			{
				"x": -0.3871660429,
				"y": 4.9006574192,
				"z": -0.03870501,
				"element": "H" 
			},
			{
				"x": 1.7820133214,
				"y": 4.1549431245,
				"z": -0.9973625124,
				"element": "H" 
			},
			{
				"x": 2.1670866259,
				"y": 1.748900186,
				"z": -1.4971494627,
				"element": "H" 
			}
		],
		 "valence_orbital": [ 
			{
				"type": "occ",
				"energy": -0.2559,
				"method": "rhf"
			},
			{
				"type": "occ",
				"energy": -0.25488,
				"method": "rhf"
			},
			{
				"type": "occ",
				"energy": -0.25119,
				"method": "rhf"
			},
			{
				"type": "occ",
				"energy": -0.22858,
				"method": "rhf"
			},
			{
				"type": "occ",
				"energy": -0.1814,
				"method": "rhf"
			},
			{
				"type": "unocc",
				"energy": -0.03371,
				"method": "rhf"
			},
			{
				"type": "unocc",
				"energy": -0.02817,
				"method": "rhf"
			},
			{
				"type": "unocc",
				"energy": -0.02271,
				"method": "rhf"
			},
			{
				"type": "unocc",
				"energy": -0.01902,
				"method": "rhf"
			},
			{
				"type": "unocc",
				"energy": -0.00666,
				"method": "rhf"
			}
		],
		"cosmo_sigma_profile": { 
			"-0.025": 0.0,
			"-0.024": 0.0,
			"-0.023": 0.0,
			"-0.022": 0.0,
			"-0.021": 0.0,
			"-0.02": 0.0,
			"-0.019": 0.0,
			"-0.018": 0.0,
			"-0.017": 0.0,
			"-0.016": 0.0,
			"-0.015": 0.0,
			"-0.014": 0.0,
			"-0.013": 0.0,
			"-0.012": 0.0,
			"-0.011": 0.0,
			"-0.01": 0.0,
			"-0.009": 0.0,
			"-0.008": 0.0,
			"-0.007": 4.03451976805,
			"-0.006": 24.1030161924,
			"-0.005": 32.7174235918,
			"-0.004": 37.3209499993,
			"-0.003": 31.6368071656,
			"-0.002": 32.6011394464,
			"-0.001": 26.9279894837,
			"0.0": 25.6472920873,
			"0.001": 27.3867292073,
			"0.002": 28.1034387713,
			"0.003": 29.6132554531,
			"0.004": 32.4533793829,
			"0.005": 12.8475343297,
			"0.006": 5.37111184523,
			"0.007": 4.9793510767,
			"0.008": 5.38098928458,
			"0.009": 3.70875835842,
			"0.01": 2.58211968371,
			"0.011": 3.53075424634,
			"0.012": 2.5130901013,
			"0.013": 1.48444630523,
			"0.014": 1.660755464,
			"0.015": 1.92569660598,
			"0.016": 0.0445972804567,
			"0.017": 0.0,
			"0.018": 0.0,
			"0.019": 0.0,
			"0.02": 0.0,
			"0.021": 0.0,
			"0.022": 0.0,
			"0.023": 0.0,
			"0.024": 0.0,
			"0.025": 0.0
		}
	}
}
