{
	 "smiles": "FC1=CC=CC(=C1)C1=NN=NN1", 
	 "Tm": 416.15, 
	 "num_atms": 17, 
	 "gaussian": { 
		 "optdone": 1, 
		 "sigma_profile": "yes", 
		 "theory": "DFT", 
		 "functional": "B3LYP", 
		 "basiset": "6-31G**", 
		 "properties": { 
			 "R2extent": 2572.0133, 
			 "electric_dipole_moment_norm": 6.0687156376, 
			 "electric_quadrupole_moment_norm": 16.1238286126, 
			 "total_energy": -588.544534758, 
			 "HOMO_LUMO_gap": 0.1969, 
			 "cosmo_polarized_energy": -17.69, 
			 "cosmo_cavitation_energy": 22.81, 
			 "cosmo_dispersion_energy": -16.94, 
			 "cosmo_repulsion_energy": 1.3, 
			 "cosmo_total_nonelectrostatic_energy": 7.17, 
			 "SMD_solvation_energy": 2.65 
		},
		"coords": [
			{
				"x": -1.6941338955,
				"y": -2.3197686057,
				"z": -2.3273793935,
				"element": "F" 
			},
			{
				"x": -0.7569348066,
				"y": -1.6396107278,
				"z": -1.6412113863,
				"element": "C" 
			},
			{
				"x": 0.3155879509,
				"y": -2.3406088714,
				"z": -1.0965721956,
				"element": "C" 
			},
			{
				"x": 1.2825283471,
				"y": -1.6286850658,
				"z": -0.3869518819,
				"element": "C" 
			},
			{
				"x": 1.1727031546,
				"y": -0.2476786104,
				"z": -0.2297547517,
				"element": "C" 
			},
			{
				"x": 0.0833222348,
				"y": 0.4399007131,
				"z": -0.786961107,
				"element": "C" 
			},
			{
				"x": -0.8949328855,
				"y": -0.2669930793,
				"z": -1.502717885,
				"element": "C" 
			},
			{
				"x": -0.0749095087,
				"y": 1.8888784283,
				"z": -0.6485004954,
				"element": "C" 
			},
			{
				"x": -1.06837922,
				"y": 2.6162883976,
				"z": -1.1404788001,
				"element": "N" 
			},
			{
				"x": -0.8243648853,
				"y": 3.9012209107,
				"z": -0.7812266164,
				"element": "N" 
			},
			{
				"x": 0.2677498302,
				"y": 3.9978506793,
				"z": -0.0955188702,
				"element": "N" 
			},
			{
				"x": 0.7557810218,
				"y": 2.7392453332,
				"z": -0.0000541909,
				"element": "N" 
			},
			{
				"x": 0.3788205553,
				"y": -3.4145378947,
				"z": -1.2324078716,
				"element": "H" 
			},
			{
				"x": 2.1270338033,
				"y": -2.1553213935,
				"z": 0.0460240786,
				"element": "H" 
			},
			{
				"x": 1.939130364,
				"y": 0.2828495687,
				"z": 0.3272609537,
				"element": "H" 
			},
			{
				"x": -1.7407067371,
				"y": 0.2519201175,
				"z": -1.9377571562,
				"element": "H" 
			},
			{
				"x": 1.6156046767,
				"y": 2.5723501002,
				"z": 0.5008075695,
				"element": "H" 
			}
		],
		 "valence_orbital": [ 
			{
				"type": "occ",
				"energy": -0.32574,
				"method": "rhf"
			},
			{
				"type": "occ",
				"energy": -0.3029,
				"method": "rhf"
			},
			{
				"type": "occ",
				"energy": -0.28823,
				"method": "rhf"
			},
			{
				"type": "occ",
				"energy": -0.27157,
				"method": "rhf"
			},
			{
				"type": "occ",
				"energy": -0.26101,
				"method": "rhf"
			},
			{
				"type": "unocc",
				"energy": -0.06411,
				"method": "rhf"
			},
			{
				"type": "unocc",
				"energy": -0.02606,
				"method": "rhf"
			},
			{
				"type": "unocc",
				"energy": -0.00313,
				"method": "rhf"
			},
			{
				"type": "unocc",
				"energy": 0.03865,
				"method": "rhf"
			},
			{
				"type": "unocc",
				"energy": 0.04929,
				"method": "rhf"
			}
		],
		"cosmo_sigma_profile": { 
			"-0.025": 0.0,
			"-0.024": 0.0,
			"-0.023": 0.0,
			"-0.022": 0.0,
			"-0.021": 0.0,
			"-0.02": 0.0474989870767,
			"-0.019": 1.20655041283,
			"-0.018": 1.74121796409,
			"-0.017": 1.7108120973,
			"-0.016": 1.06148700497,
			"-0.015": 1.50274553883,
			"-0.014": 1.16373376404,
			"-0.013": 1.02874425368,
			"-0.012": 1.19019185358,
			"-0.011": 1.33626772237,
			"-0.01": 1.46385899307,
			"-0.009": 1.39911500742,
			"-0.008": 3.55297235063,
			"-0.007": 6.27285258775,
			"-0.006": 7.70740566962,
			"-0.005": 8.08427635214,
			"-0.004": 8.74271045168,
			"-0.003": 9.20460900615,
			"-0.002": 8.96307023315,
			"-0.001": 9.228872698,
			"0.0": 16.8463623424,
			"0.001": 16.4837332051,
			"0.002": 15.7070545182,
			"0.003": 11.005246606,
			"0.004": 11.827184659,
			"0.005": 3.57722027447,
			"0.006": 3.6048778416,
			"0.007": 3.72859683986,
			"0.008": 4.77942954091,
			"0.009": 4.7473859911,
			"0.01": 5.18618732813,
			"0.011": 3.76010717317,
			"0.012": 3.51676455431,
			"0.013": 2.39207180529,
			"0.014": 0.927007268003,
			"0.015": 0.0,
			"0.016": 0.0,
			"0.017": 0.0,
			"0.018": 0.0,
			"0.019": 0.0,
			"0.02": 0.0,
			"0.021": 0.0,
			"0.022": 0.0,
			"0.023": 0.0,
			"0.024": 0.0,
			"0.025": 0.0
		}
	}
}
