{
	 "smiles": "CCCCCCCCCCCCCCCCCCCC(=O)OCC", 
	 "Tm": 323.15, 
	 "num_atms": 68, 
	 "gaussian": { 
		 "optdone": 1, 
		 "sigma_profile": "yes", 
		 "theory": "DFT", 
		 "functional": "B3LYP", 
		 "basiset": "6-31G**", 
		 "properties": { 
			 "R2extent": 12388.8895, 
			 "electric_dipole_moment_norm": 1.74479870759, 
			 "electric_quadrupole_moment_norm": 6.97204264115, 
			 "total_energy": -1015.38286776, 
			 "HOMO_LUMO_gap": 0.28256, 
			 "cosmo_polarized_energy": -6.38, 
			 "cosmo_cavitation_energy": 65.29, 
			 "cosmo_dispersion_energy": -38.65, 
			 "cosmo_repulsion_energy": 3.06, 
			 "cosmo_total_nonelectrostatic_energy": 29.7, 
			 "SMD_solvation_energy": 8.84 
		},
		"coords": [
			{
				"x": -4.6329834237,
				"y": 2.5625797066,
				"z": -0.9870689154,
				"element": "C" 
			},
			{
				"x": -4.0581295753,
				"y": 1.5594204572,
				"z": 0.0199464173,
				"element": "C" 
			},
			{
				"x": -2.731649009,
				"y": 0.9116016486,
				"z": -0.415473134,
				"element": "C" 
			},
			{
				"x": -1.5430291341,
				"y": 1.8725515683,
				"z": -0.6111379759,
				"element": "C" 
			},
			{
				"x": -1.1057273607,
				"y": 2.6582350212,
				"z": 0.6382337717,
				"element": "C" 
			},
			{
				"x": -0.4957896547,
				"y": 1.7987557056,
				"z": 1.754298132,
				"element": "C" 
			},
			{
				"x": -0.1034416091,
				"y": 2.6158311009,
				"z": 2.9956567753,
				"element": "C" 
			},
			{
				"x": 0.5887804516,
				"y": 1.8078393743,
				"z": 4.1184187348,
				"element": "C" 
			},
			{
				"x": 2.127915482,
				"y": 1.8885745288,
				"z": 4.1329311579,
				"element": "C" 
			},
			{
				"x": 2.8664614495,
				"y": 1.3373337922,
				"z": 2.9016321651,
				"element": "C" 
			},
			{
				"x": 2.7606291341,
				"y": -0.1819884316,
				"z": 2.7093503085,
				"element": "C" 
			},
			{
				"x": 3.5389324024,
				"y": -0.6787112101,
				"z": 1.4823156432,
				"element": "C" 
			},
			{
				"x": 3.5561728623,
				"y": -2.2045487403,
				"z": 1.2973487425,
				"element": "C" 
			},
			{
				"x": 2.1825962639,
				"y": -2.8363943269,
				"z": 1.0252328656,
				"element": "C" 
			},
			{
				"x": 2.2816770502,
				"y": -4.3327355289,
				"z": 0.6953830209,
				"element": "C" 
			},
			{
				"x": 0.9453048185,
				"y": -5.0720219829,
				"z": 0.5025083682,
				"element": "C" 
			},
			{
				"x": 0.0566547124,
				"y": -4.5416451636,
				"z": -0.6450052693,
				"element": "C" 
			},
			{
				"x": -1.0024713346,
				"y": -3.5194141358,
				"z": -0.2021518305,
				"element": "C" 
			},
			{
				"x": -1.7971131566,
				"y": -2.9199488219,
				"z": -1.3658151837,
				"element": "C" 
			},
			{
				"x": -0.9973547322,
				"y": -1.932731511,
				"z": -2.1964316026,
				"element": "C" 
			},
			{
				"x": 0.0522605786,
				"y": -1.4172147487,
				"z": -1.8646192144,
				"element": "O" 
			},
			{
				"x": -1.6284439439,
				"y": -1.6638752917,
				"z": -3.3613270994,
				"element": "O" 
			},
			{
				"x": -0.9896956771,
				"y": -0.7118987455,
				"z": -4.2472669506,
				"element": "C" 
			},
			{
				"x": 0.0484228365,
				"y": -1.3888900974,
				"z": -5.1295390787,
				"element": "C" 
			},
			{
				"x": -5.6060787796,
				"y": 2.940345282,
				"z": -0.6559694507,
				"element": "H" 
			},
			{
				"x": -3.9755282861,
				"y": 3.4274948922,
				"z": -1.1230832796,
				"element": "H" 
			},
			{
				"x": -4.7744084575,
				"y": 2.0978114139,
				"z": -1.9701351194,
				"element": "H" 
			},
			{
				"x": -3.9312167287,
				"y": 2.0519174559,
				"z": 0.9926000592,
				"element": "H" 
			},
			{
				"x": -4.7930777199,
				"y": 0.760974278,
				"z": 0.1858857356,
				"element": "H" 
			},
			{
				"x": -2.8987919806,
				"y": 0.3775309525,
				"z": -1.3616401999,
				"element": "H" 
			},
			{
				"x": -2.4582273034,
				"y": 0.1428961969,
				"z": 0.3188902773,
				"element": "H" 
			},
			{
				"x": -1.7858210709,
				"y": 2.5869489815,
				"z": -1.4083257734,
				"element": "H" 
			},
			{
				"x": -0.690285212,
				"y": 1.2866508594,
				"z": -0.9787696863,
				"element": "H" 
			},
			{
				"x": -1.9553762576,
				"y": 3.2275625232,
				"z": 1.0401441573,
				"element": "H" 
			},
			{
				"x": -0.3650443485,
				"y": 3.4102288708,
				"z": 0.333424882,
				"element": "H" 
			},
			{
				"x": -1.2065918659,
				"y": 1.0198243162,
				"z": 2.0617002649,
				"element": "H" 
			},
			{
				"x": 0.3780470007,
				"y": 1.2675473984,
				"z": 1.3558515527,
				"element": "H" 
			},
			{
				"x": -1.014656922,
				"y": 3.0816170546,
				"z": 3.3938128437,
				"element": "H" 
			},
			{
				"x": 0.545588893,
				"y": 3.4506385013,
				"z": 2.6941269219,
				"element": "H" 
			},
			{
				"x": 0.2379334132,
				"y": 2.1750904485,
				"z": 5.0909031185,
				"element": "H" 
			},
			{
				"x": 0.2651067981,
				"y": 0.759714447,
				"z": 4.0678737762,
				"element": "H" 
			},
			{
				"x": 2.4966546062,
				"y": 1.3655972164,
				"z": 5.0265685164,
				"element": "H" 
			},
			{
				"x": 2.4106025199,
				"y": 2.9422296014,
				"z": 4.2643298865,
				"element": "H" 
			},
			{
				"x": 2.5107526554,
				"y": 1.8462171424,
				"z": 1.9955208689,
				"element": "H" 
			},
			{
				"x": 3.9288997534,
				"y": 1.6035524371,
				"z": 2.9902545929,
				"element": "H" 
			},
			{
				"x": 1.7070818062,
				"y": -0.4728467332,
				"z": 2.6198097413,
				"element": "H" 
			},
			{
				"x": 3.1405878792,
				"y": -0.6861391496,
				"z": 3.6104131055,
				"element": "H" 
			},
			{
				"x": 3.1214102035,
				"y": -0.2125702383,
				"z": 0.5784898541,
				"element": "H" 
			},
			{
				"x": 4.5756414565,
				"y": -0.321507084,
				"z": 1.5554989316,
				"element": "H" 
			},
			{
				"x": 4.2249303235,
				"y": -2.4455822281,
				"z": 0.45939455,
				"element": "H" 
			},
			{
				"x": 4.0043476367,
				"y": -2.674501344,
				"z": 2.1851216441,
				"element": "H" 
			},
			{
				"x": 1.7019959612,
				"y": -2.3022070751,
				"z": 0.1958139729,
				"element": "H" 
			},
			{
				"x": 1.5323461606,
				"y": -2.7036731295,
				"z": 1.9007848719,
				"element": "H" 
			},
			{
				"x": 2.8846509053,
				"y": -4.4540250697,
				"z": -0.216275312,
				"element": "H" 
			},
			{
				"x": 2.8430297021,
				"y": -4.8369158908,
				"z": 1.4947669971,
				"element": "H" 
			},
			{
				"x": 1.1747036673,
				"y": -6.1288078703,
				"z": 0.31743901,
				"element": "H" 
			},
			{
				"x": 0.3757354215,
				"y": -5.0525296642,
				"z": 1.4427842424,
				"element": "H" 
			},
			{
				"x": -0.4632667951,
				"y": -5.382747496,
				"z": -1.1231702132,
				"element": "H" 
			},
			{
				"x": 0.6930081064,
				"y": -4.0961267582,
				"z": -1.4201848259,
				"element": "H" 
			},
			{
				"x": -0.5335662906,
				"y": -2.7046317091,
				"z": 0.3566798361,
				"element": "H" 
			},
			{
				"x": -1.7041117023,
				"y": -4.009577533,
				"z": 0.4844468575,
				"element": "H" 
			},
			{
				"x": -2.1908191024,
				"y": -3.6945293607,
				"z": -2.0341189673,
				"element": "H" 
			},
			{
				"x": -2.6735662708,
				"y": -2.3722046574,
				"z": -0.9954653222,
				"element": "H" 
			},
			{
				"x": -0.5397601002,
				"y": 0.0833495096,
				"z": -3.6485108934,
				"element": "H" 
			},
			{
				"x": -1.8105929089,
				"y": -0.2999991516,
				"z": -4.8391250501,
				"element": "H" 
			},
			{
				"x": 0.4588035223,
				"y": -0.6661508228,
				"z": -5.8427018867,
				"element": "H" 
			},
			{
				"x": 0.8711767134,
				"y": -1.777753806,
				"z": -4.5246808849,
				"element": "H" 
			},
			{
				"x": -0.3977264336,
				"y": -2.2129171753,
				"z": -5.6941940516,
				"element": "H" 
			}
		],
		 "valence_orbital": [ 
			{
				"type": "occ",
				"energy": -0.29622,
				"method": "rhf"
			},
			{
				"type": "occ",
				"energy": -0.29503,
				"method": "rhf"
			},
			{
				"type": "occ",
				"energy": -0.29034,
				"method": "rhf"
			},
			{
				"type": "occ",
				"energy": -0.2869,
				"method": "rhf"
			},
			{
				"type": "occ",
				"energy": -0.2702,
				"method": "rhf"
			},
			{
				"type": "unocc",
				"energy": 0.01236,
				"method": "rhf"
			},
			{
				"type": "unocc",
				"energy": 0.069,
				"method": "rhf"
			},
			{
				"type": "unocc",
				"energy": 0.08584,
				"method": "rhf"
			},
			{
				"type": "unocc",
				"energy": 0.09068,
				"method": "rhf"
			},
			{
				"type": "unocc",
				"energy": 0.09974,
				"method": "rhf"
			}
		],
		"cosmo_sigma_profile": { 
			"-0.025": 0.0,
			"-0.024": 0.0,
			"-0.023": 0.0,
			"-0.022": 0.0,
			"-0.021": 0.0,
			"-0.02": 0.0,
			"-0.019": 0.0,
			"-0.018": 0.0,
			"-0.017": 0.0,
			"-0.016": 0.0,
			"-0.015": 0.0,
			"-0.014": 0.0,
			"-0.013": 0.0,
			"-0.012": 0.0,
			"-0.011": 0.0,
			"-0.01": 0.0,
			"-0.009": 0.0,
			"-0.008": 0.0,
			"-0.007": 0.0,
			"-0.006": 0.881483847916,
			"-0.005": 5.37832899981,
			"-0.004": 12.3540731546,
			"-0.003": 21.9716603967,
			"-0.002": 60.0077978445,
			"-0.001": 112.392428172,
			"0.0": 119.392984097,
			"0.001": 91.2446671043,
			"0.002": 41.7244551199,
			"0.003": 7.01544537805,
			"0.004": 5.23030920219,
			"0.005": 3.54517356989,
			"0.006": 4.12215367435,
			"0.007": 4.29112360877,
			"0.008": 3.0998883963,
			"0.009": 2.91370803038,
			"0.01": 1.49593526533,
			"0.011": 1.37854137721,
			"0.012": 0.833434547222,
			"0.013": 0.0844445407639,
			"0.014": 0.0,
			"0.015": 0.0,
			"0.016": 0.0,
			"0.017": 0.0,
			"0.018": 0.0,
			"0.019": 0.0,
			"0.02": 0.0,
			"0.021": 0.0,
			"0.022": 0.0,
			"0.023": 0.0,
			"0.024": 0.0,
			"0.025": 0.0
		}
	}
}
