{
	 "smiles": "OC(=O)C1=C(SCC(=O)NCC2CCCCC2)C=CC=C1", 
	 "Tm": 392.15, 
	 "num_atms": 42, 
	 "gaussian": { 
		 "optdone": 1, 
		 "sigma_profile": "yes", 
		 "theory": "DFT", 
		 "functional": "B3LYP", 
		 "basiset": "6-31G**", 
		 "properties": { 
			 "R2extent": 9527.7252, 
			 "electric_dipole_moment_norm": 10.8548850911, 
			 "electric_quadrupole_moment_norm": 37.8347507053, 
			 "total_energy": -1301.01369555, 
			 "HOMO_LUMO_gap": 0.20026, 
			 "cosmo_polarized_energy": -23.14, 
			 "cosmo_cavitation_energy": 44.23, 
			 "cosmo_dispersion_energy": -31.05, 
			 "cosmo_repulsion_energy": 2.35, 
			 "cosmo_total_nonelectrostatic_energy": 15.53, 
			 "SMD_solvation_energy": 7.08 
		},
		"coords": [
			{
				"x": 0.1157349168,
				"y": 2.446305947,
				"z": -3.9767158331,
				"element": "O" 
			},
			{
				"x": 0.884616783,
				"y": 3.3667717752,
				"z": -3.3977422181,
				"element": "C" 
			},
			{
				"x": 1.3748726422,
				"y": 4.2754676291,
				"z": -4.0366710828,
				"element": "O" 
			},
			{
				"x": 1.1952569739,
				"y": 3.2293250679,
				"z": -1.9178325795,
				"element": "C" 
			},
			{
				"x": 0.27702531,
				"y": 2.9209558163,
				"z": -0.8949417027,
				"element": "C" 
			},
			{
				"x": -1.4832812753,
				"y": 2.7177590534,
				"z": -1.2258228711,
				"element": "S" 
			},
			{
				"x": -1.7539597366,
				"y": 0.9977634624,
				"z": -0.6800309087,
				"element": "C" 
			},
			{
				"x": -1.0927050617,
				"y": -0.0670371994,
				"z": -1.5613409867,
				"element": "C" 
			},
			{
				"x": -0.4509277178,
				"y": 0.2012374591,
				"z": -2.5780220108,
				"element": "O" 
			},
			{
				"x": -1.2543916824,
				"y": -1.3611759712,
				"z": -1.1784744982,
				"element": "N" 
			},
			{
				"x": -1.913914155,
				"y": -1.8920997333,
				"z": 0.0122365054,
				"element": "C" 
			},
			{
				"x": -0.9700984292,
				"y": -2.1135007293,
				"z": 1.2161938232,
				"element": "C" 
			},
			{
				"x": -1.7624765321,
				"y": -2.5386804994,
				"z": 2.4727716201,
				"element": "C" 
			},
			{
				"x": -2.2609728385,
				"y": -3.9934621984,
				"z": 2.4132030586,
				"element": "C" 
			},
			{
				"x": -1.1085913042,
				"y": -4.9702285407,
				"z": 2.1338866707,
				"element": "C" 
			},
			{
				"x": -0.3436858105,
				"y": -4.5833011683,
				"z": 0.8587436277,
				"element": "C" 
			},
			{
				"x": 0.1554024175,
				"y": -3.1295975125,
				"z": 0.9227542984,
				"element": "C" 
			},
			{
				"x": 0.7129949478,
				"y": 2.8823630814,
				"z": 0.4384667809,
				"element": "C" 
			},
			{
				"x": 2.0492239757,
				"y": 3.1008002429,
				"z": 0.7616734976,
				"element": "C" 
			},
			{
				"x": 2.9617559983,
				"y": 3.415760738,
				"z": -0.2479549036,
				"element": "C" 
			},
			{
				"x": 2.5276571934,
				"y": 3.5013596971,
				"z": -1.5660100981,
				"element": "C" 
			},
			{
				"x": -0.1383095747,
				"y": 1.7124648384,
				"z": -3.3668146177,
				"element": "H" 
			},
			{
				"x": -2.8411333159,
				"y": 0.8619441387,
				"z": -0.6981573662,
				"element": "H" 
			},
			{
				"x": -1.436337617,
				"y": 0.8743721231,
				"z": 0.3592620953,
				"element": "H" 
			},
			{
				"x": -0.7864184597,
				"y": -2.0133098702,
				"z": -1.795190246,
				"element": "H" 
			},
			{
				"x": -2.3997160763,
				"y": -2.8282169756,
				"z": -0.2791189866,
				"element": "H" 
			},
			{
				"x": -2.7196873941,
				"y": -1.2118798695,
				"z": 0.3025977589,
				"element": "H" 
			},
			{
				"x": -0.4985370841,
				"y": -1.1426338554,
				"z": 1.4230780336,
				"element": "H" 
			},
			{
				"x": -2.6047801775,
				"y": -1.8541393284,
				"z": 2.6379732219,
				"element": "H" 
			},
			{
				"x": -1.1037710639,
				"y": -2.4295220321,
				"z": 3.3444526011,
				"element": "H" 
			},
			{
				"x": -2.7565116778,
				"y": -4.2496143084,
				"z": 3.3568401696,
				"element": "H" 
			},
			{
				"x": -3.0256033377,
				"y": -4.099766736,
				"z": 1.6314058118,
				"element": "H" 
			},
			{
				"x": -0.4139056503,
				"y": -4.9600250741,
				"z": 2.9858280336,
				"element": "H" 
			},
			{
				"x": -1.4889921231,
				"y": -5.9952229437,
				"z": 2.0545118949,
				"element": "H" 
			},
			{
				"x": -0.9992906741,
				"y": -4.7224957625,
				"z": -0.0127068857,
				"element": "H" 
			},
			{
				"x": 0.5074108373,
				"y": -5.2567846117,
				"z": 0.705532603,
				"element": "H" 
			},
			{
				"x": 0.6785378319,
				"y": -2.8583640034,
				"z": -0.0021876979,
				"element": "H" 
			},
			{
				"x": 0.9022750169,
				"y": -3.0500702078,
				"z": 1.7236362708,
				"element": "H" 
			},
			{
				"x": -0.0108517902,
				"y": 2.7001354531,
				"z": 1.2275492258,
				"element": "H" 
			},
			{
				"x": 2.3694261959,
				"y": 3.0547565456,
				"z": 1.7986308355,
				"element": "H" 
			},
			{
				"x": 4.0020738835,
				"y": 3.611167466,
				"z": -0.0055600047,
				"element": "H" 
			},
			{
				"x": 3.2121856353,
				"y": 3.7805185966,
				"z": -2.3596329401,
				"element": "H" 
			}
		],
		 "valence_orbital": [ 
			{
				"type": "occ",
				"energy": -0.27487,
				"method": "rhf"
			},
			{
				"type": "occ",
				"energy": -0.2676,
				"method": "rhf"
			},
			{
				"type": "occ",
				"energy": -0.26344,
				"method": "rhf"
			},
			{
				"type": "occ",
				"energy": -0.23901,
				"method": "rhf"
			},
			{
				"type": "occ",
				"energy": -0.23305,
				"method": "rhf"
			},
			{
				"type": "unocc",
				"energy": -0.03279,
				"method": "rhf"
			},
			{
				"type": "unocc",
				"energy": -0.02087,
				"method": "rhf"
			},
			{
				"type": "unocc",
				"energy": -0.00404,
				"method": "rhf"
			},
			{
				"type": "unocc",
				"energy": 0.02952,
				"method": "rhf"
			},
			{
				"type": "unocc",
				"energy": 0.04868,
				"method": "rhf"
			}
		],
		"cosmo_sigma_profile": { 
			"-0.025": 0.0,
			"-0.024": 0.0,
			"-0.023": 0.0,
			"-0.022": 0.0,
			"-0.021": 0.0,
			"-0.02": 0.0,
			"-0.019": 0.0,
			"-0.018": 0.0,
			"-0.017": 0.0,
			"-0.016": 0.0,
			"-0.015": 0.0,
			"-0.014": 0.262147313159,
			"-0.013": 0.756750026023,
			"-0.012": 1.09884645723,
			"-0.011": 0.858449711775,
			"-0.01": 1.06642100931,
			"-0.009": 4.44712777744,
			"-0.008": 6.29611121008,
			"-0.007": 12.0802076816,
			"-0.006": 16.1134447431,
			"-0.005": 17.2514539184,
			"-0.004": 18.4145980647,
			"-0.003": 22.5108042945,
			"-0.002": 34.4618303871,
			"-0.001": 38.0623161416,
			"0.0": 38.1725683247,
			"0.001": 33.8974913983,
			"0.002": 18.290959773,
			"0.003": 20.4579724308,
			"0.004": 12.6907013492,
			"0.005": 5.8507606555,
			"0.006": 6.10682398239,
			"0.007": 6.39673917257,
			"0.008": 5.36844571724,
			"0.009": 4.22025938876,
			"0.01": 5.01962256481,
			"0.011": 6.00190931528,
			"0.012": 7.69044742118,
			"0.013": 4.00976387611,
			"0.014": 0.962125619108,
			"0.015": 0.0,
			"0.016": 0.0,
			"0.017": 0.0,
			"0.018": 0.0,
			"0.019": 0.0,
			"0.02": 0.0,
			"0.021": 0.0,
			"0.022": 0.0,
			"0.023": 0.0,
			"0.024": 0.0,
			"0.025": 0.0
		}
	}
}
