{
	 "smiles": "OCCCCCCCC(O)=O", 
	 "Tm": 327.15, 
	 "num_atms": 27, 
	 "gaussian": { 
		 "optdone": 1, 
		 "sigma_profile": "yes", 
		 "theory": "DFT", 
		 "functional": "B3LYP", 
		 "basiset": "6-31G**", 
		 "properties": { 
			 "R2extent": 3266.2566, 
			 "electric_dipole_moment_norm": 4.50206366015, 
			 "electric_quadrupole_moment_norm": 19.9045377763, 
			 "total_energy": -540.176023486, 
			 "HOMO_LUMO_gap": 0.26769, 
			 "cosmo_polarized_energy": -18.23, 
			 "cosmo_cavitation_energy": 29.51, 
			 "cosmo_dispersion_energy": -20.37, 
			 "cosmo_repulsion_energy": 1.72, 
			 "cosmo_total_nonelectrostatic_energy": 10.86, 
			 "SMD_solvation_energy": 5.38 
		},
		"coords": [
			{
				"x": 1.5085613184,
				"y": -1.8741782423,
				"z": 2.074160983,
				"element": "O" 
			},
			{
				"x": 0.9563124422,
				"y": -1.9140700393,
				"z": 0.7645310269,
				"element": "C" 
			},
			{
				"x": -0.5402154521,
				"y": -1.5915673861,
				"z": 0.7465953208,
				"element": "C" 
			},
			{
				"x": -1.2190659964,
				"y": -1.7828978399,
				"z": -0.6211453814,
				"element": "C" 
			},
			{
				"x": -0.7163191163,
				"y": -0.8789623012,
				"z": -1.7623849435,
				"element": "C" 
			},
			{
				"x": -0.9200311283,
				"y": 0.6223952645,
				"z": -1.5193430439,
				"element": "C" 
			},
			{
				"x": -0.4941822423,
				"y": 1.4844995008,
				"z": -2.7148609224,
				"element": "C" 
			},
			{
				"x": -0.7067116881,
				"y": 2.9962266825,
				"z": -2.4927435526,
				"element": "C" 
			},
			{
				"x": 0.0756949319,
				"y": 3.5540663479,
				"z": -1.3105277771,
				"element": "C" 
			},
			{
				"x": 1.4328139073,
				"y": 3.4435049183,
				"z": -1.3987675281,
				"element": "O" 
			},
			{
				"x": -0.4212202842,
				"y": 4.0573404086,
				"z": -0.3349700933,
				"element": "O" 
			},
			{
				"x": 1.4110264848,
				"y": -0.9721526927,
				"z": 2.4061138398,
				"element": "H" 
			},
			{
				"x": 1.1208225397,
				"y": -2.9369023877,
				"z": 0.4060124975,
				"element": "H" 
			},
			{
				"x": 1.5078898869,
				"y": -1.2443655973,
				"z": 0.0851984788,
				"element": "H" 
			},
			{
				"x": -1.0277986749,
				"y": -2.2415087203,
				"z": 1.4827511133,
				"element": "H" 
			},
			{
				"x": -0.6896863404,
				"y": -0.5622065572,
				"z": 1.1022180727,
				"element": "H" 
			},
			{
				"x": -2.2986044425,
				"y": -1.6251764091,
				"z": -0.4985673937,
				"element": "H" 
			},
			{
				"x": -1.1014904625,
				"y": -2.8305547819,
				"z": -0.9290255589,
				"element": "H" 
			},
			{
				"x": -1.2430411022,
				"y": -1.1639267956,
				"z": -2.6832773582,
				"element": "H" 
			},
			{
				"x": 0.3472569875,
				"y": -1.0733988357,
				"z": -1.955930627,
				"element": "H" 
			},
			{
				"x": -1.9778655465,
				"y": 0.8179932025,
				"z": -1.2953493931,
				"element": "H" 
			},
			{
				"x": -0.3602821142,
				"y": 0.9377834114,
				"z": -0.6300374553,
				"element": "H" 
			},
			{
				"x": -1.0598414293,
				"y": 1.186118226,
				"z": -3.6059618184,
				"element": "H" 
			},
			{
				"x": 0.5601308107,
				"y": 1.2801377034,
				"z": -2.9542040735,
				"element": "H" 
			},
			{
				"x": -1.7605901442,
				"y": 3.2092102916,
				"z": -2.300025179,
				"element": "H" 
			},
			{
				"x": -0.4181391623,
				"y": 3.5488048891,
				"z": -3.3971093085,
				"element": "H" 
			},
			{
				"x": 1.6811760173,
				"y": 3.0355877396,
				"z": -2.2403499248,
				"element": "H" 
			}
		],
		 "valence_orbital": [ 
			{
				"type": "occ",
				"energy": -0.3243,
				"method": "rhf"
			},
			{
				"type": "occ",
				"energy": -0.3162,
				"method": "rhf"
			},
			{
				"type": "occ",
				"energy": -0.31468,
				"method": "rhf"
			},
			{
				"type": "occ",
				"energy": -0.26848,
				"method": "rhf"
			},
			{
				"type": "occ",
				"energy": -0.26063,
				"method": "rhf"
			},
			{
				"type": "unocc",
				"energy": 0.00706,
				"method": "rhf"
			},
			{
				"type": "unocc",
				"energy": 0.04168,
				"method": "rhf"
			},
			{
				"type": "unocc",
				"energy": 0.07421,
				"method": "rhf"
			},
			{
				"type": "unocc",
				"energy": 0.0812,
				"method": "rhf"
			},
			{
				"type": "unocc",
				"energy": 0.10206,
				"method": "rhf"
			}
		],
		"cosmo_sigma_profile": { 
			"-0.025": 0.0,
			"-0.024": 0.0,
			"-0.023": 0.0,
			"-0.022": 0.0,
			"-0.021": 0.0,
			"-0.02": 0.0,
			"-0.019": 0.00793130301833,
			"-0.018": 0.601068485472,
			"-0.017": 0.78558291359,
			"-0.016": 1.43692632576,
			"-0.015": 1.37630573042,
			"-0.014": 2.03414554194,
			"-0.013": 2.1968996969,
			"-0.012": 2.23109674569,
			"-0.011": 1.28366562823,
			"-0.01": 2.26958096793,
			"-0.009": 2.43525978399,
			"-0.008": 1.99103029523,
			"-0.007": 4.00173632328,
			"-0.006": 4.11940572512,
			"-0.005": 4.88136796503,
			"-0.004": 9.2625551366,
			"-0.003": 25.7465837382,
			"-0.002": 39.0549236089,
			"-0.001": 26.1536822567,
			"0.0": 23.7565770216,
			"0.001": 13.5727830423,
			"0.002": 5.51754926077,
			"0.003": 3.10456637315,
			"0.004": 2.60339638138,
			"0.005": 2.72092876346,
			"0.006": 4.18962360759,
			"0.007": 3.05681870075,
			"0.008": 3.9444698364,
			"0.009": 4.55762093852,
			"0.01": 5.02987335226,
			"0.011": 6.6317740556,
			"0.012": 7.09542126096,
			"0.013": 5.685361291,
			"0.014": 2.19751583841,
			"0.015": 1.9307371235,
			"0.016": 5.48583470096e-05,
			"0.017": 0.0,
			"0.018": 0.0,
			"0.019": 0.0,
			"0.02": 0.0,
			"0.021": 0.0,
			"0.022": 0.0,
			"0.023": 0.0,
			"0.024": 0.0,
			"0.025": 0.0
		}
	}
}
