{
	 "smiles": "O=C1CCC2=C1C=C1OCCOC1=C2", 
	 "Tm": 392.15, 
	 "num_atms": 24, 
	 "gaussian": { 
		 "optdone": 1, 
		 "sigma_profile": "yes", 
		 "theory": "DFT", 
		 "functional": "B3LYP", 
		 "basiset": "6-31G**", 
		 "properties": { 
			 "R2extent": 3063.7985, 
			 "electric_dipole_moment_norm": 4.69863741632, 
			 "electric_quadrupole_moment_norm": 14.5616366996, 
			 "total_energy": -650.858521292, 
			 "HOMO_LUMO_gap": 0.17535, 
			 "cosmo_polarized_energy": -12.18, 
			 "cosmo_cavitation_energy": 27.04, 
			 "cosmo_dispersion_energy": -20.71, 
			 "cosmo_repulsion_energy": 1.63, 
			 "cosmo_total_nonelectrostatic_energy": 7.96, 
			 "SMD_solvation_energy": 5.06 
		},
		"coords": [
			{
				"x": 0.1460790775,
				"y": -0.3552472161,
				"z": -3.4577935288,
				"element": "O" 
			},
			{
				"x": 0.8401226555,
				"y": -0.5068154503,
				"z": -2.4682897618,
				"element": "C" 
			},
			{
				"x": 2.1883665663,
				"y": -1.2499213219,
				"z": -2.4217355739,
				"element": "C" 
			},
			{
				"x": 2.67948542,
				"y": -1.1712019567,
				"z": -0.9557802852,
				"element": "C" 
			},
			{
				"x": 1.5962091284,
				"y": -0.3921048228,
				"z": -0.2326188591,
				"element": "C" 
			},
			{
				"x": 0.5617853836,
				"y": -0.0233788975,
				"z": -1.1003821329,
				"element": "C" 
			},
			{
				"x": -0.5416783638,
				"y": 0.7125751623,
				"z": -0.6622521145,
				"element": "C" 
			},
			{
				"x": -0.6095934564,
				"y": 1.0731990882,
				"z": 0.677007278,
				"element": "C" 
			},
			{
				"x": -1.6907144362,
				"y": 1.802161302,
				"z": 1.1108683476,
				"element": "O" 
			},
			{
				"x": -1.4910991104,
				"y": 2.4427179758,
				"z": 2.3694973799,
				"element": "C" 
			},
			{
				"x": -0.8954341102,
				"y": 1.4598686916,
				"z": 3.3617579231,
				"element": "C" 
			},
			{
				"x": 0.3774713777,
				"y": 1.0024046353,
				"z": 2.8969468195,
				"element": "O" 
			},
			{
				"x": 0.4218106584,
				"y": 0.6820399545,
				"z": 1.5677592743,
				"element": "C" 
			},
			{
				"x": 1.5278093108,
				"y": -0.0410907001,
				"z": 1.1120257712,
				"element": "C" 
			},
			{
				"x": 2.0397150048,
				"y": -2.2779022084,
				"z": -2.7676875281,
				"element": "H" 
			},
			{
				"x": 2.878665119,
				"y": -0.7789186649,
				"z": -3.1289320673,
				"element": "H" 
			},
			{
				"x": 2.8120501675,
				"y": -2.1655179666,
				"z": -0.5136197032,
				"element": "H" 
			},
			{
				"x": 3.6486835411,
				"y": -0.6653592819,
				"z": -0.8749447515,
				"element": "H" 
			},
			{
				"x": -1.3300056877,
				"y": 1.0057384349,
				"z": -1.3479508583,
				"element": "H" 
			},
			{
				"x": -2.4721339994,
				"y": 2.7937758147,
				"z": 2.698858431,
				"element": "H" 
			},
			{
				"x": -0.8233076283,
				"y": 3.3071775356,
				"z": 2.2504054085,
				"element": "H" 
			},
			{
				"x": -0.7177417274,
				"y": 1.9277250475,
				"z": 4.3331970418,
				"element": "H" 
			},
			{
				"x": -1.5703608945,
				"y": 0.6038720467,
				"z": 3.4938019354,
				"element": "H" 
			},
			{
				"x": 2.2962160038,
				"y": -0.3140972018,
				"z": 1.8291615545,
				"element": "H" 
			}
		],
		 "valence_orbital": [ 
			{
				"type": "occ",
				"energy": -0.31196,
				"method": "rhf"
			},
			{
				"type": "occ",
				"energy": -0.30574,
				"method": "rhf"
			},
			{
				"type": "occ",
				"energy": -0.24211,
				"method": "rhf"
			},
			{
				"type": "occ",
				"energy": -0.23236,
				"method": "rhf"
			},
			{
				"type": "occ",
				"energy": -0.21877,
				"method": "rhf"
			},
			{
				"type": "unocc",
				"energy": -0.04342,
				"method": "rhf"
			},
			{
				"type": "unocc",
				"energy": -0.00217,
				"method": "rhf"
			},
			{
				"type": "unocc",
				"energy": 0.05713,
				"method": "rhf"
			},
			{
				"type": "unocc",
				"energy": 0.07937,
				"method": "rhf"
			},
			{
				"type": "unocc",
				"energy": 0.09858,
				"method": "rhf"
			}
		],
		"cosmo_sigma_profile": { 
			"-0.025": 0.0,
			"-0.024": 0.0,
			"-0.023": 0.0,
			"-0.022": 0.0,
			"-0.021": 0.0,
			"-0.02": 0.0,
			"-0.019": 0.0,
			"-0.018": 0.0,
			"-0.017": 0.0,
			"-0.016": 0.0,
			"-0.015": 0.0,
			"-0.014": 0.0,
			"-0.013": 0.0,
			"-0.012": 0.0,
			"-0.011": 0.0,
			"-0.01": 0.0,
			"-0.009": 0.0,
			"-0.008": 0.88211876251,
			"-0.007": 8.79466595424,
			"-0.006": 16.9458200621,
			"-0.005": 19.0690051512,
			"-0.004": 23.3773577882,
			"-0.003": 19.2239886248,
			"-0.002": 15.7020951778,
			"-0.001": 13.3282775527,
			"0.0": 11.220749435,
			"0.001": 9.60080003384,
			"0.002": 14.7409845303,
			"0.003": 16.9048546184,
			"0.004": 7.90671270774,
			"0.005": 4.18640062411,
			"0.006": 4.17572799288,
			"0.007": 4.35078113539,
			"0.008": 3.7624797287,
			"0.009": 4.21633048777,
			"0.01": 3.98954296101,
			"0.011": 2.44544884004,
			"0.012": 4.19337165687,
			"0.013": 4.47521017072,
			"0.014": 1.34886374643,
			"0.015": 0.0112434112119,
			"0.016": 0.0,
			"0.017": 0.0,
			"0.018": 0.0,
			"0.019": 0.0,
			"0.02": 0.0,
			"0.021": 0.0,
			"0.022": 0.0,
			"0.023": 0.0,
			"0.024": 0.0,
			"0.025": 0.0
		}
	}
}
