{
	 "smiles": "NC1(CCN(CC2=CC=CC=C2)C1)C(O)=O", 
	 "Tm": 490.15, 
	 "num_atms": 32, 
	 "gaussian": { 
		 "optdone": 1, 
		 "sigma_profile": "yes", 
		 "theory": "DFT", 
		 "functional": "B3LYP", 
		 "basiset": "6-31G**", 
		 "properties": { 
			 "R2extent": 4489.7714, 
			 "electric_dipole_moment_norm": 2.06788840124, 
			 "electric_quadrupole_moment_norm": 9.3575366438, 
			 "total_energy": -726.873176658, 
			 "HOMO_LUMO_gap": 0.21868, 
			 "cosmo_polarized_energy": -12.87, 
			 "cosmo_cavitation_energy": 34.3, 
			 "cosmo_dispersion_energy": -23.93, 
			 "cosmo_repulsion_energy": 1.88, 
			 "cosmo_total_nonelectrostatic_energy": 12.24, 
			 "SMD_solvation_energy": 4.78 
		},
		"coords": [
			{
				"x": 2.2045172519,
				"y": 0.113793694,
				"z": -1.2386367297,
				"element": "N" 
			},
			{
				"x": 1.8382915846,
				"y": -0.3507214753,
				"z": 0.1048779787,
				"element": "C" 
			},
			{
				"x": 2.2630718401,
				"y": 0.7080862522,
				"z": 1.1601623878,
				"element": "C" 
			},
			{
				"x": 0.9452861708,
				"y": 1.3588150273,
				"z": 1.633326737,
				"element": "C" 
			},
			{
				"x": -0.0417526616,
				"y": 0.9437143404,
				"z": 0.6286508925,
				"element": "N" 
			},
			{
				"x": -1.4273686055,
				"y": 1.1733481452,
				"z": 1.020763327,
				"element": "C" 
			},
			{
				"x": -2.4113684301,
				"y": 0.9405836919,
				"z": -0.1102690146,
				"element": "C" 
			},
			{
				"x": -3.560347383,
				"y": 0.1673094387,
				"z": 0.0861629863,
				"element": "C" 
			},
			{
				"x": -4.4847068182,
				"y": -0.0151594894,
				"z": -0.9455282244,
				"element": "C" 
			},
			{
				"x": -4.2650196147,
				"y": 0.5708868777,
				"z": -2.1920590631,
				"element": "C" 
			},
			{
				"x": -3.1168916642,
				"y": 1.3404871329,
				"z": -2.4003969634,
				"element": "C" 
			},
			{
				"x": -2.1991878778,
				"y": 1.5246050397,
				"z": -1.3672163164,
				"element": "C" 
			},
			{
				"x": 0.3004498614,
				"y": -0.446106412,
				"z": 0.3367261725,
				"element": "C" 
			},
			{
				"x": 2.4776463092,
				"y": -1.7132616217,
				"z": 0.3564873268,
				"element": "C" 
			},
			{
				"x": 2.3264386402,
				"y": -2.5359467523,
				"z": -0.7116058137,
				"element": "O" 
			},
			{
				"x": 3.0100680625,
				"y": -2.078850698,
				"z": 1.38044595,
				"element": "O" 
			},
			{
				"x": 1.6645138863,
				"y": 0.9566492367,
				"z": -1.4256273494,
				"element": "H" 
			},
			{
				"x": 1.9220079271,
				"y": -0.5793890352,
				"z": -1.9276680461,
				"element": "H" 
			},
			{
				"x": 2.9348873768,
				"y": 1.4243700852,
				"z": 0.6818813043,
				"element": "H" 
			},
			{
				"x": 2.7987160716,
				"y": 0.2341605329,
				"z": 1.9837258943,
				"element": "H" 
			},
			{
				"x": 0.995170726,
				"y": 2.4514354566,
				"z": 1.6907782836,
				"element": "H" 
			},
			{
				"x": 0.6741190198,
				"y": 0.9855141991,
				"z": 2.6389734764,
				"element": "H" 
			},
			{
				"x": -1.4987420254,
				"y": 2.2182267285,
				"z": 1.3524750685,
				"element": "H" 
			},
			{
				"x": -1.7132153899,
				"y": 0.5511825682,
				"z": 1.8912827653,
				"element": "H" 
			},
			{
				"x": -3.7331383667,
				"y": -0.296435053,
				"z": 1.0545455485,
				"element": "H" 
			},
			{
				"x": -5.3715827546,
				"y": -0.6192140114,
				"z": -0.7753270173,
				"element": "H" 
			},
			{
				"x": -4.9805502256,
				"y": 0.428418678,
				"z": -2.9969029454,
				"element": "H" 
			},
			{
				"x": -2.9388974224,
				"y": 1.7993216429,
				"z": -3.369204916,
				"element": "H" 
			},
			{
				"x": -1.3023789966,
				"y": 2.1162921138,
				"z": -1.5263856017,
				"element": "H" 
			},
			{
				"x": -0.2297468961,
				"y": -0.8176066911,
				"z": -0.5439408485,
				"element": "H" 
			},
			{
				"x": 0.0701767615,
				"y": -1.1160777354,
				"z": 1.1902725786,
				"element": "H" 
			},
			{
				"x": 2.7376336428,
				"y": -3.3808319071,
				"z": -0.4634698286,
				"element": "H" 
			}
		],
		 "valence_orbital": [ 
			{
				"type": "occ",
				"energy": -0.27777,
				"method": "rhf"
			},
			{
				"type": "occ",
				"energy": -0.25022,
				"method": "rhf"
			},
			{
				"type": "occ",
				"energy": -0.24512,
				"method": "rhf"
			},
			{
				"type": "occ",
				"energy": -0.23793,
				"method": "rhf"
			},
			{
				"type": "occ",
				"energy": -0.22313,
				"method": "rhf"
			},
			{
				"type": "unocc",
				"energy": -0.00445,
				"method": "rhf"
			},
			{
				"type": "unocc",
				"energy": -0.0005,
				"method": "rhf"
			},
			{
				"type": "unocc",
				"energy": 0.0069,
				"method": "rhf"
			},
			{
				"type": "unocc",
				"energy": 0.06869,
				"method": "rhf"
			},
			{
				"type": "unocc",
				"energy": 0.08615,
				"method": "rhf"
			}
		],
		"cosmo_sigma_profile": { 
			"-0.025": 0.0,
			"-0.024": 0.0,
			"-0.023": 0.0,
			"-0.022": 0.0,
			"-0.021": 0.0,
			"-0.02": 0.0,
			"-0.019": 0.11275682872,
			"-0.018": 0.766404927199,
			"-0.017": 0.985894910186,
			"-0.016": 0.730412987942,
			"-0.015": 1.0224147947,
			"-0.014": 0.542815415893,
			"-0.013": 0.379509871361,
			"-0.012": 0.458742952889,
			"-0.011": 1.49928187851,
			"-0.01": 0.462340130744,
			"-0.009": 1.11085784411,
			"-0.008": 2.40547448245,
			"-0.007": 3.88424547561,
			"-0.006": 4.60808005237,
			"-0.005": 13.2217580769,
			"-0.004": 20.0052038166,
			"-0.003": 32.6009752156,
			"-0.002": 34.1932609835,
			"-0.001": 28.2844275846,
			"0.0": 17.2978719922,
			"0.001": 15.6352952958,
			"0.002": 12.3207342528,
			"0.003": 13.2502865059,
			"0.004": 13.0473249056,
			"0.005": 12.6936253563,
			"0.006": 12.6482564237,
			"0.007": 4.84335706256,
			"0.008": 2.55459147088,
			"0.009": 2.28824920838,
			"0.01": 3.45738775518,
			"0.011": 5.14795753247,
			"0.012": 2.95492967671,
			"0.013": 0.427395350258,
			"0.014": 0.365900624799,
			"0.015": 0.711730451012,
			"0.016": 0.849649899633,
			"0.017": 0.340073744529,
			"0.018": 0.40899223462,
			"0.019": 0.159453143819,
			"0.02": 0.0,
			"0.021": 0.0,
			"0.022": 0.0,
			"0.023": 0.0,
			"0.024": 0.0,
			"0.025": 0.0
		}
	}
}
