{
	 "smiles": "CCCCNC", 
	 "Tm": 198.15, 
	 "num_atms": 19, 
	 "gaussian": { 
		 "optdone": 1, 
		 "sigma_profile": "yes", 
		 "theory": "DFT", 
		 "functional": "B3LYP", 
		 "basiset": "6-31G**", 
		 "properties": { 
			 "R2extent": 1142.7176, 
			 "electric_dipole_moment_norm": 0.981170280838, 
			 "electric_quadrupole_moment_norm": 3.49541621985, 
			 "total_energy": -253.119529268, 
			 "HOMO_LUMO_gap": 0.28761, 
			 "cosmo_polarized_energy": -3.51, 
			 "cosmo_cavitation_energy": 20.42, 
			 "cosmo_dispersion_energy": -14.91, 
			 "cosmo_repulsion_energy": 1.3, 
			 "cosmo_total_nonelectrostatic_energy": 6.81, 
			 "SMD_solvation_energy": 1.28 
		},
		"coords": [
			{
				"x": -0.4467295836,
				"y": 1.1212448569,
				"z": 3.580942102,
				"element": "C" 
			},
			{
				"x": -0.5282084269,
				"y": 0.9434241745,
				"z": 2.0614071082,
				"element": "C" 
			},
			{
				"x": 0.7504163089,
				"y": 1.3737187786,
				"z": 1.3317926456,
				"element": "C" 
			},
			{
				"x": 0.6770457238,
				"y": 1.2291630766,
				"z": -0.2029624349,
				"element": "C" 
			},
			{
				"x": 0.4839960754,
				"y": -0.1127614921,
				"z": -0.7506594642,
				"element": "N" 
			},
			{
				"x": 1.5547807864,
				"y": -1.0602073547,
				"z": -0.4669351754,
				"element": "C" 
			},
			{
				"x": -1.3724942893,
				"y": 0.8049330437,
				"z": 4.0729470852,
				"element": "H" 
			},
			{
				"x": -0.2693707117,
				"y": 2.1694049995,
				"z": 3.8475135355,
				"element": "H" 
			},
			{
				"x": 0.3736900337,
				"y": 0.5309159703,
				"z": 4.0048292767,
				"element": "H" 
			},
			{
				"x": -1.378533801,
				"y": 1.519529062,
				"z": 1.6698295306,
				"element": "H" 
			},
			{
				"x": -0.7443239403,
				"y": -0.1094010879,
				"z": 1.8341441529,
				"element": "H" 
			},
			{
				"x": 0.9626598048,
				"y": 2.4266687596,
				"z": 1.5646573367,
				"element": "H" 
			},
			{
				"x": 1.6031948242,
				"y": 0.8022095444,
				"z": 1.7224910485,
				"element": "H" 
			},
			{
				"x": 1.5996124869,
				"y": 1.6316232888,
				"z": -0.6424957711,
				"element": "H" 
			},
			{
				"x": -0.14243871,
				"y": 1.8566899249,
				"z": -0.578617719,
				"element": "H" 
			},
			{
				"x": -0.4064564295,
				"y": -0.4914499589,
				"z": -0.4412309452,
				"element": "H" 
			},
			{
				"x": 2.4905872857,
				"y": -0.6833887004,
				"z": -0.8966458331,
				"element": "H" 
			},
			{
				"x": 1.7425770994,
				"y": -1.2649239397,
				"z": 0.6016272017,
				"element": "H" 
			},
			{
				"x": 1.3312954632,
				"y": -2.0147929463,
				"z": -0.9542336808,
				"element": "H" 
			}
		],
		 "valence_orbital": [ 
			{
				"type": "occ",
				"energy": -0.34721,
				"method": "rhf"
			},
			{
				"type": "occ",
				"energy": -0.33804,
				"method": "rhf"
			},
			{
				"type": "occ",
				"energy": -0.32334,
				"method": "rhf"
			},
			{
				"type": "occ",
				"energy": -0.31798,
				"method": "rhf"
			},
			{
				"type": "occ",
				"energy": -0.20957,
				"method": "rhf"
			},
			{
				"type": "unocc",
				"energy": 0.07804,
				"method": "rhf"
			},
			{
				"type": "unocc",
				"energy": 0.10874,
				"method": "rhf"
			},
			{
				"type": "unocc",
				"energy": 0.11828,
				"method": "rhf"
			},
			{
				"type": "unocc",
				"energy": 0.12397,
				"method": "rhf"
			},
			{
				"type": "unocc",
				"energy": 0.15038,
				"method": "rhf"
			}
		],
		"cosmo_sigma_profile": { 
			"-0.025": 0.0,
			"-0.024": 0.0,
			"-0.023": 0.0,
			"-0.022": 0.0,
			"-0.021": 0.0,
			"-0.02": 0.0,
			"-0.019": 0.0,
			"-0.018": 0.0,
			"-0.017": 0.0,
			"-0.016": 0.0,
			"-0.015": 0.0,
			"-0.014": 0.0,
			"-0.013": 0.0,
			"-0.012": 0.0,
			"-0.011": 0.0,
			"-0.01": 0.0,
			"-0.009": 0.456421991891,
			"-0.008": 1.03247067536,
			"-0.007": 1.24462241135,
			"-0.006": 1.67814367947,
			"-0.005": 1.69890609696,
			"-0.004": 2.56569961787,
			"-0.003": 9.86555390041,
			"-0.002": 25.998114024,
			"-0.001": 32.1229988889,
			"0.0": 33.4977638586,
			"0.001": 23.3064480299,
			"0.002": 10.2596704841,
			"0.003": 2.10849949331,
			"0.004": 0.90956409732,
			"0.005": 1.35166575406,
			"0.006": 0.692401221999,
			"0.007": 0.58292487523,
			"0.008": 0.533651301221,
			"0.009": 0.895133729705,
			"0.01": 0.716093912275,
			"0.011": 0.951225513647,
			"0.012": 0.56827551119,
			"0.013": 0.740873757127,
			"0.014": 0.708527089405,
			"0.015": 0.207696137914,
			"0.016": 0.46480698676,
			"0.017": 0.810327618632,
			"0.018": 0.522498126258,
			"0.019": 0.239371364173,
			"0.02": 0.0,
			"0.021": 0.0,
			"0.022": 0.0,
			"0.023": 0.0,
			"0.024": 0.0,
			"0.025": 0.0
		}
	}
}
