{
	 "smiles": "OC(=O)C=CC(=O)C1=CC(F)=C(F)C=C1", 
	 "Tm": 388.15, 
	 "num_atms": 21, 
	 "gaussian": { 
		 "optdone": 1, 
		 "sigma_profile": "yes", 
		 "theory": "DFT", 
		 "functional": "B3LYP", 
		 "basiset": "6-31G**", 
		 "properties": { 
			 "R2extent": 4715.8444, 
			 "electric_dipole_moment_norm": 5.70983797756, 
			 "electric_quadrupole_moment_norm": 23.2921812592, 
			 "total_energy": -810.000442784, 
			 "HOMO_LUMO_gap": 0.14704, 
			 "cosmo_polarized_energy": -15.12, 
			 "cosmo_cavitation_energy": 27.83, 
			 "cosmo_dispersion_energy": -20.19, 
			 "cosmo_repulsion_energy": 1.5, 
			 "cosmo_total_nonelectrostatic_energy": 9.14, 
			 "SMD_solvation_energy": 7.63 
		},
		"coords": [
			{
				"x": -2.8131967439,
				"y": -1.4318386469,
				"z": 1.7168152144,
				"element": "O" 
			},
			{
				"x": -2.4036160868,
				"y": -0.7617139223,
				"z": 2.7875500397,
				"element": "C" 
			},
			{
				"x": -2.9395600483,
				"y": -0.8741307173,
				"z": 3.8729348525,
				"element": "O" 
			},
			{
				"x": -1.2364174798,
				"y": 0.1915946379,
				"z": 2.685007226,
				"element": "C" 
			},
			{
				"x": -0.3251626169,
				"y": 0.4616822091,
				"z": 1.7258416039,
				"element": "C" 
			},
			{
				"x": -0.2188762794,
				"y": -0.1016187743,
				"z": 0.3599617355,
				"element": "C" 
			},
			{
				"x": -1.0967266712,
				"y": -0.8273061984,
				"z": -0.1283963161,
				"element": "O" 
			},
			{
				"x": 0.9695867285,
				"y": 0.2396502857,
				"z": -0.472246653,
				"element": "C" 
			},
			{
				"x": 2.1331502612,
				"y": 0.8317215461,
				"z": 0.0529788037,
				"element": "C" 
			},
			{
				"x": 3.2044181957,
				"y": 1.0973967464,
				"z": -0.7828059291,
				"element": "C" 
			},
			{
				"x": 4.3243866914,
				"y": 1.6517433068,
				"z": -0.2966719799,
				"element": "F" 
			},
			{
				"x": 3.1369168021,
				"y": 0.7900211713,
				"z": -2.1436046095,
				"element": "C" 
			},
			{
				"x": 4.1872780332,
				"y": 1.0676101061,
				"z": -2.9219749654,
				"element": "F" 
			},
			{
				"x": 1.9951243036,
				"y": 0.20224717,
				"z": -2.6772461129,
				"element": "C" 
			},
			{
				"x": 0.9197415706,
				"y": -0.0769039199,
				"z": -1.8413508979,
				"element": "C" 
			},
			{
				"x": -2.2439939261,
				"y": -1.2272332569,
				"z": 0.9281818598,
				"element": "H" 
			},
			{
				"x": -1.1312322963,
				"y": 0.731383154,
				"z": 3.6222474451,
				"element": "H" 
			},
			{
				"x": 0.4173733158,
				"y": 1.2095943437,
				"z": 1.9829982798,
				"element": "H" 
			},
			{
				"x": 2.2461431102,
				"y": 1.0716815377,
				"z": 1.1030500101,
				"element": "H" 
			},
			{
				"x": 1.9697080177,
				"y": -0.0270350195,
				"z": -3.7368968682,
				"element": "H" 
			},
			{
				"x": 0.0227551186,
				"y": -0.5421457595,
				"z": -2.2323727385,
				"element": "H" 
			}
		],
		 "valence_orbital": [ 
			{
				"type": "occ",
				"energy": -0.29838,
				"method": "rhf"
			},
			{
				"type": "occ",
				"energy": -0.29651,
				"method": "rhf"
			},
			{
				"type": "occ",
				"energy": -0.29472,
				"method": "rhf"
			},
			{
				"type": "occ",
				"energy": -0.27732,
				"method": "rhf"
			},
			{
				"type": "occ",
				"energy": -0.26818,
				"method": "rhf"
			},
			{
				"type": "unocc",
				"energy": -0.12114,
				"method": "rhf"
			},
			{
				"type": "unocc",
				"energy": -0.05335,
				"method": "rhf"
			},
			{
				"type": "unocc",
				"energy": -0.03743,
				"method": "rhf"
			},
			{
				"type": "unocc",
				"energy": 0.02519,
				"method": "rhf"
			},
			{
				"type": "unocc",
				"energy": 0.04444,
				"method": "rhf"
			}
		],
		"cosmo_sigma_profile": { 
			"-0.025": 0.0,
			"-0.024": 0.0,
			"-0.023": 0.0,
			"-0.022": 0.0,
			"-0.021": 0.0,
			"-0.02": 0.0,
			"-0.019": 0.0,
			"-0.018": 0.0,
			"-0.017": 0.0,
			"-0.016": 0.0,
			"-0.015": 0.0,
			"-0.014": 0.0,
			"-0.013": 0.000264381059896,
			"-0.012": 0.672770277496,
			"-0.011": 1.7935150568,
			"-0.01": 2.13847801967,
			"-0.009": 4.03030325322,
			"-0.008": 7.48156815878,
			"-0.007": 8.14231353404,
			"-0.006": 8.94230352079,
			"-0.005": 11.0207785243,
			"-0.004": 12.7307226964,
			"-0.003": 16.9804439963,
			"-0.002": 21.2841539386,
			"-0.001": 20.9960658326,
			"0.0": 17.2214656262,
			"0.001": 13.5180616782,
			"0.002": 12.7670614826,
			"0.003": 23.0536337489,
			"0.004": 5.7165641716,
			"0.005": 3.79653084462,
			"0.006": 3.36612801452,
			"0.007": 3.81802302167,
			"0.008": 3.55993431619,
			"0.009": 3.70757015887,
			"0.01": 3.65379087652,
			"0.011": 5.64387925668,
			"0.012": 6.31605384795,
			"0.013": 2.54576416787,
			"0.014": 0.528616121669,
			"0.015": 0.0,
			"0.016": 0.0,
			"0.017": 0.0,
			"0.018": 0.0,
			"0.019": 0.0,
			"0.02": 0.0,
			"0.021": 0.0,
			"0.022": 0.0,
			"0.023": 0.0,
			"0.024": 0.0,
			"0.025": 0.0
		}
	}
}
