{
	 "smiles": "CC1=CN2C(CC(O)=O)=CSC2=N1", 
	 "Tm": 485.15, 
	 "num_atms": 21, 
	 "gaussian": { 
		 "optdone": 1, 
		 "sigma_profile": "yes", 
		 "theory": "DFT", 
		 "functional": "B3LYP", 
		 "basiset": "6-31G**", 
		 "properties": { 
			 "R2extent": 3088.2929, 
			 "electric_dipole_moment_norm": 3.13604012251, 
			 "electric_quadrupole_moment_norm": 24.8448812529, 
			 "total_energy": -967.799487522, 
			 "HOMO_LUMO_gap": 0.19426, 
			 "cosmo_polarized_energy": -18.79, 
			 "cosmo_cavitation_energy": 27.35, 
			 "cosmo_dispersion_energy": -20.12, 
			 "cosmo_repulsion_energy": 1.56, 
			 "cosmo_total_nonelectrostatic_energy": 8.79, 
			 "SMD_solvation_energy": 4.06 
		},
		"coords": [
			{
				"x": -1.2015401267,
				"y": -3.323838261,
				"z": 0.4044639056,
				"element": "C" 
			},
			{
				"x": -1.3272212332,
				"y": -1.8363072276,
				"z": 0.3139916106,
				"element": "C" 
			},
			{
				"x": -0.6935769046,
				"y": -0.9869180092,
				"z": -0.5685868598,
				"element": "C" 
			},
			{
				"x": -1.1483126026,
				"y": 0.2846079423,
				"z": -0.237769311,
				"element": "N" 
			},
			{
				"x": -0.9711116767,
				"y": 1.603853658,
				"z": -0.6499040433,
				"element": "C" 
			},
			{
				"x": -0.0492395059,
				"y": 1.9274859494,
				"z": -1.7830773804,
				"element": "C" 
			},
			{
				"x": 1.4462489159,
				"y": 1.752812464,
				"z": -1.458330942,
				"element": "C" 
			},
			{
				"x": 1.8221073325,
				"y": 2.138691853,
				"z": -0.2190863461,
				"element": "O" 
			},
			{
				"x": 2.2449661279,
				"y": 1.3388624166,
				"z": -2.2582634698,
				"element": "O" 
			},
			{
				"x": -1.7032226905,
				"y": 2.460603382,
				"z": 0.110952382,
				"element": "C" 
			},
			{
				"x": -2.6569372864,
				"y": 1.6569889798,
				"z": 1.3560339075,
				"element": "S" 
			},
			{
				"x": -2.0196321755,
				"y": 0.1107760629,
				"z": 0.8209953996,
				"element": "C" 
			},
			{
				"x": -2.1565535827,
				"y": -1.1382460948,
				"z": 1.1825710676,
				"element": "N" 
			},
			{
				"x": -0.5083574011,
				"y": -3.7067790107,
				"z": -0.3491606417,
				"element": "H" 
			},
			{
				"x": -0.8374835553,
				"y": -3.6239509181,
				"z": 1.3927723237,
				"element": "H" 
			},
			{
				"x": -2.1735732741,
				"y": -3.8065427212,
				"z": 0.2573465299,
				"element": "H" 
			},
			{
				"x": 0.0189079165,
				"y": -1.1611601818,
				"z": -1.3592660004,
				"element": "H" 
			},
			{
				"x": -0.1987798501,
				"y": 2.9721832924,
				"z": -2.0782331277,
				"element": "H" 
			},
			{
				"x": -0.2592331716,
				"y": 1.309100296,
				"z": -2.6599851781,
				"element": "H" 
			},
			{
				"x": 1.0406139566,
				"y": 2.3963434051,
				"z": 0.2973070258,
				"element": "H" 
			},
			{
				"x": -1.7732692124,
				"y": 3.5312327228,
				"z": -0.0172708521,
				"element": "H" 
			}
		],
		 "valence_orbital": [ 
			{
				"type": "occ",
				"energy": -0.32671,
				"method": "rhf"
			},
			{
				"type": "occ",
				"energy": -0.28563,
				"method": "rhf"
			},
			{
				"type": "occ",
				"energy": -0.2828,
				"method": "rhf"
			},
			{
				"type": "occ",
				"energy": -0.23948,
				"method": "rhf"
			},
			{
				"type": "occ",
				"energy": -0.22509,
				"method": "rhf"
			},
			{
				"type": "unocc",
				"energy": -0.03083,
				"method": "rhf"
			},
			{
				"type": "unocc",
				"energy": -0.00518,
				"method": "rhf"
			},
			{
				"type": "unocc",
				"energy": 0.00029,
				"method": "rhf"
			},
			{
				"type": "unocc",
				"energy": 0.03009,
				"method": "rhf"
			},
			{
				"type": "unocc",
				"energy": 0.0529,
				"method": "rhf"
			}
		],
		"cosmo_sigma_profile": { 
			"-0.025": 0.0,
			"-0.024": 0.0,
			"-0.023": 0.0,
			"-0.022": 0.0,
			"-0.021": 0.0,
			"-0.02": 0.0,
			"-0.019": 0.0,
			"-0.018": 0.0,
			"-0.017": 0.0,
			"-0.016": 0.0762868902138,
			"-0.015": 0.700825796948,
			"-0.014": 1.22191896354,
			"-0.013": 0.968052734125,
			"-0.012": 2.18086055028,
			"-0.011": 2.06889217392,
			"-0.01": 5.95320519386,
			"-0.009": 6.44861153613,
			"-0.008": 8.16056855588,
			"-0.007": 8.67210692277,
			"-0.006": 6.72577595925,
			"-0.005": 10.1283586749,
			"-0.004": 13.0923307447,
			"-0.003": 11.7854120425,
			"-0.002": 13.4076424021,
			"-0.001": 16.7365719046,
			"0.0": 18.3761930276,
			"0.001": 13.6297991114,
			"0.002": 13.1934576588,
			"0.003": 11.0363336764,
			"0.004": 10.2647757511,
			"0.005": 5.18338170404,
			"0.006": 3.47340732331,
			"0.007": 3.67902753188,
			"0.008": 4.6299134128,
			"0.009": 5.67912060279,
			"0.01": 6.04293580406,
			"0.011": 6.44705134419,
			"0.012": 5.81458850789,
			"0.013": 1.47727358415,
			"0.014": 0.880413779085,
			"0.015": 0.866663026632,
			"0.016": 1.22772295493,
			"0.017": 0.627475355259,
			"0.018": 0.0,
			"0.019": 0.0,
			"0.02": 0.0,
			"0.021": 0.0,
			"0.022": 0.0,
			"0.023": 0.0,
			"0.024": 0.0,
			"0.025": 0.0
		}
	}
}
