{
	 "smiles": "COCCC1=CC2=C(OC(N)=N2)C=C1", 
	 "Tm": 433.15, 
	 "num_atms": 26, 
	 "gaussian": { 
		 "optdone": 1, 
		 "sigma_profile": "yes", 
		 "theory": "DFT", 
		 "functional": "B3LYP", 
		 "basiset": "6-31G**", 
		 "properties": { 
			 "R2extent": 4352.0747, 
			 "electric_dipole_moment_norm": 2.33042673131, 
			 "electric_quadrupole_moment_norm": 18.721602726, 
			 "total_energy": -648.240890454, 
			 "HOMO_LUMO_gap": 0.20409, 
			 "cosmo_polarized_energy": -13.82, 
			 "cosmo_cavitation_energy": 29.9, 
			 "cosmo_dispersion_energy": -22.01, 
			 "cosmo_repulsion_energy": 1.76, 
			 "cosmo_total_nonelectrostatic_energy": 9.66, 
			 "SMD_solvation_energy": 3.83 
		},
		"coords": [
			{
				"x": 2.6484613764,
				"y": 2.9443832182,
				"z": 1.0755342893,
				"element": "C" 
			},
			{
				"x": 2.0164614878,
				"y": 1.7081265994,
				"z": 0.8275128686,
				"element": "O" 
			},
			{
				"x": 2.2889831698,
				"y": 1.1970769795,
				"z": -0.4641055914,
				"element": "C" 
			},
			{
				"x": 1.4818788049,
				"y": -0.0871184293,
				"z": -0.6738754675,
				"element": "C" 
			},
			{
				"x": -0.01135939,
				"y": 0.1280610378,
				"z": -0.8287993288,
				"element": "C" 
			},
			{
				"x": -0.7887785271,
				"y": 0.5150083175,
				"z": 0.2754886514,
				"element": "C" 
			},
			{
				"x": -2.1546663443,
				"y": 0.7129388202,
				"z": 0.0848335101,
				"element": "C" 
			},
			{
				"x": -2.7125475921,
				"y": 0.5225432163,
				"z": -1.1877319326,
				"element": "C" 
			},
			{
				"x": -4.0706567735,
				"y": 0.7808454772,
				"z": -1.0872236268,
				"element": "O" 
			},
			{
				"x": -4.2303181924,
				"y": 1.1103248625,
				"z": 0.2356115632,
				"element": "C" 
			},
			{
				"x": -5.5146232575,
				"y": 1.3622504876,
				"z": 0.6238579556,
				"element": "N" 
			},
			{
				"x": -3.1644399674,
				"y": 1.0976792915,
				"z": 0.9752365936,
				"element": "N" 
			},
			{
				"x": -1.9856304044,
				"y": 0.1439536361,
				"z": -2.2985804648,
				"element": "C" 
			},
			{
				"x": -0.6138635172,
				"y": -0.0509411853,
				"z": -2.0888090776,
				"element": "C" 
			},
			{
				"x": 3.7455428598,
				"y": 2.8653482272,
				"z": 1.0058169167,
				"element": "H" 
			},
			{
				"x": 2.3156986768,
				"y": 3.7231809237,
				"z": 0.3711410895,
				"element": "H" 
			},
			{
				"x": 2.3816337548,
				"y": 3.2496002865,
				"z": 2.0902901252,
				"element": "H" 
			},
			{
				"x": 2.0278434728,
				"y": 1.9402790853,
				"z": -1.2363665935,
				"element": "H" 
			},
			{
				"x": 3.3670126021,
				"y": 0.9810820548,
				"z": -0.5654785866,
				"element": "H" 
			},
			{
				"x": 1.6874219303,
				"y": -0.7487946696,
				"z": 0.1763267187,
				"element": "H" 
			},
			{
				"x": 1.8745358448,
				"y": -0.5875909336,
				"z": -1.5663552932,
				"element": "H" 
			},
			{
				"x": -0.3334888411,
				"y": 0.6677281294,
				"z": 1.2467814637,
				"element": "H" 
			},
			{
				"x": -6.1388473503,
				"y": 1.6962559368,
				"z": -0.0958248356,
				"element": "H" 
			},
			{
				"x": -5.5918665603,
				"y": 1.8269083141,
				"z": 1.5165287564,
				"element": "H" 
			},
			{
				"x": -2.4452039686,
				"y": 0.0004552052,
				"z": -3.2703334371,
				"element": "H" 
			},
			{
				"x": 0.0045167063,
				"y": -0.355884889,
				"z": -2.9287762663,
				"element": "H" 
			}
		],
		 "valence_orbital": [ 
			{
				"type": "occ",
				"energy": -0.28789,
				"method": "rhf"
			},
			{
				"type": "occ",
				"energy": -0.2774,
				"method": "rhf"
			},
			{
				"type": "occ",
				"energy": -0.251,
				"method": "rhf"
			},
			{
				"type": "occ",
				"energy": -0.22673,
				"method": "rhf"
			},
			{
				"type": "occ",
				"energy": -0.20427,
				"method": "rhf"
			},
			{
				"type": "unocc",
				"energy": -0.00018,
				"method": "rhf"
			},
			{
				"type": "unocc",
				"energy": 0.01944,
				"method": "rhf"
			},
			{
				"type": "unocc",
				"energy": 0.0606,
				"method": "rhf"
			},
			{
				"type": "unocc",
				"energy": 0.07771,
				"method": "rhf"
			},
			{
				"type": "unocc",
				"energy": 0.0969,
				"method": "rhf"
			}
		],
		"cosmo_sigma_profile": { 
			"-0.025": 0.0,
			"-0.024": 0.0,
			"-0.023": 0.0,
			"-0.022": 0.0,
			"-0.021": 0.0,
			"-0.02": 0.0,
			"-0.019": 0.0,
			"-0.018": 0.0,
			"-0.017": 0.0,
			"-0.016": 0.0327702032052,
			"-0.015": 1.39237857017,
			"-0.014": 2.57905160666,
			"-0.013": 2.78301553791,
			"-0.012": 1.48683835857,
			"-0.011": 2.49700765156,
			"-0.01": 2.01311010802,
			"-0.009": 1.63479968185,
			"-0.008": 2.42807588763,
			"-0.007": 2.93907901919,
			"-0.006": 2.95667963159,
			"-0.005": 8.75654582038,
			"-0.004": 15.8904048254,
			"-0.003": 28.1459604336,
			"-0.002": 28.427484057,
			"-0.001": 20.8918222477,
			"0.0": 12.9315225031,
			"0.001": 11.040165063,
			"0.002": 13.0840578399,
			"0.003": 12.7355945862,
			"0.004": 13.3565236751,
			"0.005": 13.7630577306,
			"0.006": 10.2733405323,
			"0.007": 6.44802859997,
			"0.008": 4.45353965764,
			"0.009": 3.11683126456,
			"0.01": 2.21663135994,
			"0.011": 1.65734550635,
			"0.012": 1.80764673014,
			"0.013": 1.24199479646,
			"0.014": 1.22921386355,
			"0.015": 0.984451394727,
			"0.016": 0.894591709033,
			"0.017": 0.345516740089,
			"0.018": 0.0,
			"0.019": 0.0,
			"0.02": 0.0,
			"0.021": 0.0,
			"0.022": 0.0,
			"0.023": 0.0,
			"0.024": 0.0,
			"0.025": 0.0
		}
	}
}
