{
	 "smiles": "COS(=O)(=O)C1=CC=C(C=C1)N(=O)=O", 
	 "Tm": 367.15, 
	 "num_atms": 21, 
	 "gaussian": { 
		 "optdone": 1, 
		 "sigma_profile": "yes", 
		 "theory": "DFT", 
		 "functional": "B3LYP", 
		 "basiset": "6-31G**", 
		 "properties": { 
			 "R2extent": 4044.98, 
			 "electric_dipole_moment_norm": 3.17022148595, 
			 "electric_quadrupole_moment_norm": 21.8954318937, 
			 "total_energy": -1099.83883052, 
			 "HOMO_LUMO_gap": 0.18893, 
			 "cosmo_polarized_energy": -13.46, 
			 "cosmo_cavitation_energy": 28.15, 
			 "cosmo_dispersion_energy": -20.96, 
			 "cosmo_repulsion_energy": 1.59, 
			 "cosmo_total_nonelectrostatic_energy": 8.79, 
			 "SMD_solvation_energy": 6.93 
		},
		"coords": [
			{
				"x": 1.8531542539,
				"y": 2.7047353821,
				"z": 2.5864914026,
				"element": "C" 
			},
			{
				"x": 0.8956416513,
				"y": 2.0690207776,
				"z": 1.7022861972,
				"element": "O" 
			},
			{
				"x": 1.4975705955,
				"y": 0.8247988103,
				"z": 0.8211500402,
				"element": "S" 
			},
			{
				"x": 1.8447984398,
				"y": -0.2721776619,
				"z": 1.7221832246,
				"element": "O" 
			},
			{
				"x": 2.4814975962,
				"y": 1.3447830823,
				"z": -0.1261276921,
				"element": "O" 
			},
			{
				"x": -0.0155411849,
				"y": 0.4262438671,
				"z": -0.0486674446,
				"element": "C" 
			},
			{
				"x": -0.8879806288,
				"y": -0.5097396749,
				"z": 0.5096183584,
				"element": "C" 
			},
			{
				"x": -2.0618760372,
				"y": -0.825674125,
				"z": -0.1696987059,
				"element": "C" 
			},
			{
				"x": -2.3179508279,
				"y": -0.1959423392,
				"z": -1.385955604,
				"element": "C" 
			},
			{
				"x": -1.4461285386,
				"y": 0.7307231039,
				"z": -1.95396123,
				"element": "C" 
			},
			{
				"x": -0.2727477432,
				"y": 1.04538968,
				"z": -1.2731664922,
				"element": "C" 
			},
			{
				"x": -3.5641103246,
				"y": -0.5298370839,
				"z": -2.1072150228,
				"element": "N" 
			},
			{
				"x": -4.3158184243,
				"y": -1.3513655672,
				"z": -1.5876782582,
				"element": "O" 
			},
			{
				"x": -3.7671906812,
				"y": 0.0370717592,
				"z": -3.1783172628,
				"element": "O" 
			},
			{
				"x": 1.2946130264,
				"y": 3.4970863606,
				"z": 3.0839240848,
				"element": "H" 
			},
			{
				"x": 2.2265148821,
				"y": 1.9867497216,
				"z": 3.320953338,
				"element": "H" 
			},
			{
				"x": 2.6789850016,
				"y": 3.1288832399,
				"z": 2.0099190296,
				"element": "H" 
			},
			{
				"x": -0.6422178147,
				"y": -0.9860607954,
				"z": 1.4518154743,
				"element": "H" 
			},
			{
				"x": -2.7712344355,
				"y": -1.5446821862,
				"z": 0.2198258334,
				"element": "H" 
			},
			{
				"x": -1.6923257429,
				"y": 1.1823916326,
				"z": -2.9064727038,
				"element": "H" 
			},
			{
				"x": 0.4403469369,
				"y": 1.7503020164,
				"z": -1.6850065667,
				"element": "H" 
			}
		],
		 "valence_orbital": [ 
			{
				"type": "occ",
				"energy": -0.32309,
				"method": "rhf"
			},
			{
				"type": "occ",
				"energy": -0.30761,
				"method": "rhf"
			},
			{
				"type": "occ",
				"energy": -0.30704,
				"method": "rhf"
			},
			{
				"type": "occ",
				"energy": -0.3039,
				"method": "rhf"
			},
			{
				"type": "occ",
				"energy": -0.30052,
				"method": "rhf"
			},
			{
				"type": "unocc",
				"energy": -0.11159,
				"method": "rhf"
			},
			{
				"type": "unocc",
				"energy": -0.04993,
				"method": "rhf"
			},
			{
				"type": "unocc",
				"energy": -0.0362,
				"method": "rhf"
			},
			{
				"type": "unocc",
				"energy": 0.03165,
				"method": "rhf"
			},
			{
				"type": "unocc",
				"energy": 0.05989,
				"method": "rhf"
			}
		],
		"cosmo_sigma_profile": { 
			"-0.025": 0.0,
			"-0.024": 0.0,
			"-0.023": 0.0,
			"-0.022": 0.0,
			"-0.021": 0.0,
			"-0.02": 0.0,
			"-0.019": 0.0,
			"-0.018": 0.0,
			"-0.017": 0.0,
			"-0.016": 0.0,
			"-0.015": 0.0,
			"-0.014": 0.0,
			"-0.013": 0.0,
			"-0.012": 0.0,
			"-0.011": 0.0,
			"-0.01": 0.123652345462,
			"-0.009": 4.12252993281,
			"-0.008": 10.23046438,
			"-0.007": 10.7946757202,
			"-0.006": 13.8084495177,
			"-0.005": 16.8359343287,
			"-0.004": 15.5327741791,
			"-0.003": 15.2522285179,
			"-0.002": 18.9142539771,
			"-0.001": 20.1001811218,
			"0.0": 11.7399885427,
			"0.001": 7.61720303042,
			"0.002": 6.53376413055,
			"0.003": 7.370964063,
			"0.004": 6.78439806007,
			"0.005": 7.45587096227,
			"0.006": 10.2943599899,
			"0.007": 13.2362570213,
			"0.008": 7.84400601292,
			"0.009": 12.3760592303,
			"0.01": 7.98014757635,
			"0.011": 1.10027028832,
			"0.012": 0.0,
			"0.013": 0.0,
			"0.014": 0.0,
			"0.015": 0.0,
			"0.016": 0.0,
			"0.017": 0.0,
			"0.018": 0.0,
			"0.019": 0.0,
			"0.02": 0.0,
			"0.021": 0.0,
			"0.022": 0.0,
			"0.023": 0.0,
			"0.024": 0.0,
			"0.025": 0.0
		}
	}
}
