{
	 "smiles": "OC(=O)C(F)(F)C(F)(F)C(F)(F)C(F)(F)C(F)(F)C(F)(F)C(F)(F)F", 
	 "Tm": 328.05, 
	 "num_atms": 26, 
	 "gaussian": { 
		 "optdone": 1, 
		 "sigma_profile": "yes", 
		 "theory": "DFT", 
		 "functional": "B3LYP", 
		 "basiset": "6-31G**", 
		 "properties": { 
			 "R2extent": 8295.0942, 
			 "electric_dipole_moment_norm": 3.02545822149, 
			 "electric_quadrupole_moment_norm": 11.3167404552, 
			 "total_energy": -1953.43821856, 
			 "HOMO_LUMO_gap": 0.26421, 
			 "cosmo_polarized_energy": -8.1, 
			 "cosmo_cavitation_energy": 34.92, 
			 "cosmo_dispersion_energy": -23.37, 
			 "cosmo_repulsion_energy": 1.49, 
			 "cosmo_total_nonelectrostatic_energy": 13.04, 
			 "SMD_solvation_energy": 11.53 
		},
		"coords": [
			{
				"x": -0.9915231633,
				"y": 1.4976090215,
				"z": 3.2496767332,
				"element": "O" 
			},
			{
				"x": 0.0244482769,
				"y": 2.2164937143,
				"z": 2.7580780284,
				"element": "C" 
			},
			{
				"x": 1.0363318212,
				"y": 2.4525941629,
				"z": 3.3557818541,
				"element": "O" 
			},
			{
				"x": -0.1972905361,
				"y": 2.7671696994,
				"z": 1.3213865691,
				"element": "C" 
			},
			{
				"x": -1.5228574661,
				"y": 2.6723631152,
				"z": 0.9766580396,
				"element": "F" 
			},
			{
				"x": 0.1470987318,
				"y": 4.0702328257,
				"z": 1.3066312251,
				"element": "F" 
			},
			{
				"x": 0.6376530099,
				"y": 2.0774165434,
				"z": 0.2095132917,
				"element": "C" 
			},
			{
				"x": 0.3238790919,
				"y": 2.6639906056,
				"z": -0.968319655,
				"element": "F" 
			},
			{
				"x": 1.9392713608,
				"y": 2.3124459373,
				"z": 0.4797323363,
				"element": "F" 
			},
			{
				"x": 0.5162006869,
				"y": 0.5325574161,
				"z": 0.0549992121,
				"element": "C" 
			},
			{
				"x": 1.411500586,
				"y": 0.1609374628,
				"z": -0.8873635938,
				"element": "F" 
			},
			{
				"x": 0.8844676254,
				"y": -0.0055047097,
				"z": 1.2476361175,
				"element": "F" 
			},
			{
				"x": -0.8360281134,
				"y": -0.1509660653,
				"z": -0.3043462748,
				"element": "C" 
			},
			{
				"x": -1.7105355845,
				"y": 0.082090607,
				"z": 0.7157173378,
				"element": "F" 
			},
			{
				"x": -0.5855180261,
				"y": -1.4756927171,
				"z": -0.3407878794,
				"element": "F" 
			},
			{
				"x": -1.5935209173,
				"y": 0.2291265394,
				"z": -1.6129857865,
				"element": "C" 
			},
			{
				"x": -2.0007411228,
				"y": 1.5130546253,
				"z": -1.5164740754,
				"element": "F" 
			},
			{
				"x": -2.6867530099,
				"y": -0.5732116705,
				"z": -1.6392882641,
				"element": "F" 
			},
			{
				"x": -0.8306509021,
				"y": 0.0412196446,
				"z": -2.9529179999,
				"element": "C" 
			},
			{
				"x": 0.0740764309,
				"y": 1.0360235332,
				"z": -3.0798649059,
				"element": "F" 
			},
			{
				"x": -0.1894733426,
				"y": -1.1484077101,
				"z": -2.9440569304,
				"element": "F" 
			},
			{
				"x": -1.7464534103,
				"y": 0.0727655711,
				"z": -4.2074231939,
				"element": "C" 
			},
			{
				"x": -0.9764946344,
				"y": 0.1428381229,
				"z": -5.298355884,
				"element": "F" 
			},
			{
				"x": -2.5502383192,
				"y": 1.1438089984,
				"z": -4.1722137216,
				"element": "F" 
			},
			{
				"x": -2.4909031839,
				"y": -1.0346001863,
				"z": -4.2731525619,
				"element": "F" 
			},
			{
				"x": -1.7138458895,
				"y": 1.4474449129,
				"z": 2.6035399818,
				"element": "H" 
			}
		],
		 "valence_orbital": [ 
			{
				"type": "occ",
				"energy": -0.40106,
				"method": "rhf"
			},
			{
				"type": "occ",
				"energy": -0.37876,
				"method": "rhf"
			},
			{
				"type": "occ",
				"energy": -0.36561,
				"method": "rhf"
			},
			{
				"type": "occ",
				"energy": -0.34966,
				"method": "rhf"
			},
			{
				"type": "occ",
				"energy": -0.3078,
				"method": "rhf"
			},
			{
				"type": "unocc",
				"energy": -0.04359,
				"method": "rhf"
			},
			{
				"type": "unocc",
				"energy": -0.00514,
				"method": "rhf"
			},
			{
				"type": "unocc",
				"energy": 0.00783,
				"method": "rhf"
			},
			{
				"type": "unocc",
				"energy": 0.03456,
				"method": "rhf"
			},
			{
				"type": "unocc",
				"energy": 0.04431,
				"method": "rhf"
			}
		],
		"cosmo_sigma_profile": { 
			"-0.025": 0.0,
			"-0.024": 0.0,
			"-0.023": 0.0,
			"-0.022": 0.0,
			"-0.021": 0.0,
			"-0.02": 0.0,
			"-0.019": 0.135689065131,
			"-0.018": 0.471124612698,
			"-0.017": 0.41663653386,
			"-0.016": 0.74734042435,
			"-0.015": 0.541677309351,
			"-0.014": 0.943760887394,
			"-0.013": 0.6867224623,
			"-0.012": 1.01960531965,
			"-0.011": 1.29320386533,
			"-0.01": 1.49191177002,
			"-0.009": 1.1373839421,
			"-0.008": 1.44635585182,
			"-0.007": 1.24093739335,
			"-0.006": 2.31783635038,
			"-0.005": 1.92568917181,
			"-0.004": 4.6742568889,
			"-0.003": 9.14471989631,
			"-0.002": 20.9069427558,
			"-0.001": 34.8426545816,
			"0.0": 76.7512728314,
			"0.001": 82.9367683315,
			"0.002": 6.68137512043,
			"0.003": 3.75371827473,
			"0.004": 3.42201007625,
			"0.005": 3.49294956363,
			"0.006": 3.29773108745,
			"0.007": 4.77496018412,
			"0.008": 3.68212244696,
			"0.009": 4.8002356783,
			"0.01": 1.96277126406,
			"0.011": 0.061618910025,
			"0.012": 0.0,
			"0.013": 0.0,
			"0.014": 0.0,
			"0.015": 0.0,
			"0.016": 0.0,
			"0.017": 0.0,
			"0.018": 0.0,
			"0.019": 0.0,
			"0.02": 0.0,
			"0.021": 0.0,
			"0.022": 0.0,
			"0.023": 0.0,
			"0.024": 0.0,
			"0.025": 0.0
		}
	}
}
