{
	 "smiles": "CC1=CC=CC(=C1)C1=CC=CC=C1", 
	 "Tm": 277.9, 
	 "num_atms": 25, 
	 "gaussian": { 
		 "optdone": 1, 
		 "sigma_profile": "yes", 
		 "theory": "DFT", 
		 "functional": "B3LYP", 
		 "basiset": "6-31G**", 
		 "properties": { 
			 "R2extent": 3007.1112, 
			 "electric_dipole_moment_norm": 0.384068965161, 
			 "electric_quadrupole_moment_norm": 8.90540403126, 
			 "total_energy": -502.631700459, 
			 "HOMO_LUMO_gap": 0.19564, 
			 "cosmo_polarized_energy": -5.02, 
			 "cosmo_cavitation_energy": 28.26, 
			 "cosmo_dispersion_energy": -20.7, 
			 "cosmo_repulsion_energy": 1.63, 
			 "cosmo_total_nonelectrostatic_energy": 9.18, 
			 "SMD_solvation_energy": 4.66 
		},
		"coords": [
			{
				"x": -2.2882633371,
				"y": 1.1675356277,
				"z": 2.3946732049,
				"element": "C" 
			},
			{
				"x": -1.0260432824,
				"y": 0.4143784107,
				"z": 2.0427045379,
				"element": "C" 
			},
			{
				"x": -0.1840873552,
				"y": -0.0807593373,
				"z": 3.0483063195,
				"element": "C" 
			},
			{
				"x": 0.9715714733,
				"y": -0.787496563,
				"z": 2.7185795745,
				"element": "C" 
			},
			{
				"x": 1.3060648604,
				"y": -1.010466572,
				"z": 1.3835926669,
				"element": "C" 
			},
			{
				"x": 0.4842896839,
				"y": -0.5242262636,
				"z": 0.3545288174,
				"element": "C" 
			},
			{
				"x": -0.6753429791,
				"y": 0.1861978416,
				"z": 0.7085008734,
				"element": "C" 
			},
			{
				"x": 0.8314271595,
				"y": -0.7504833569,
				"z": -1.0724680527,
				"element": "C" 
			},
			{
				"x": -0.1644447327,
				"y": -1.0306513344,
				"z": -2.0238620693,
				"element": "C" 
			},
			{
				"x": 0.1616184337,
				"y": -1.2424383722,
				"z": -3.3628244041,
				"element": "C" 
			},
			{
				"x": 1.492169426,
				"y": -1.1806991274,
				"z": -3.7812686097,
				"element": "C" 
			},
			{
				"x": 2.4930149563,
				"y": -0.9044528104,
				"z": -2.8478000819,
				"element": "C" 
			},
			{
				"x": 2.1660045458,
				"y": -0.6910812869,
				"z": -1.509359246,
				"element": "C" 
			},
			{
				"x": -2.6627040472,
				"y": 1.7421624291,
				"z": 1.5427217467,
				"element": "H" 
			},
			{
				"x": -2.1220266709,
				"y": 1.8624311306,
				"z": 3.2243211176,
				"element": "H" 
			},
			{
				"x": -3.0862455377,
				"y": 0.4811048968,
				"z": 2.7043003248,
				"element": "H" 
			},
			{
				"x": -0.4352427955,
				"y": 0.090818109,
				"z": 4.0922513157,
				"element": "H" 
			},
			{
				"x": 1.6134932097,
				"y": -1.1723247068,
				"z": 3.5063177135,
				"element": "H" 
			},
			{
				"x": 2.194655625,
				"y": -1.583505771,
				"z": 1.1364893638,
				"element": "H" 
			},
			{
				"x": -1.3046016579,
				"y": 0.5938055738,
				"z": -0.0785306002,
				"element": "H" 
			},
			{
				"x": -1.1995320526,
				"y": -1.1076380862,
				"z": -1.7042071092,
				"element": "H" 
			},
			{
				"x": -0.6246211228,
				"y": -1.4653049615,
				"z": -4.078833945,
				"element": "H" 
			},
			{
				"x": 1.7465514703,
				"y": -1.3462859971,
				"z": -4.8241806461,
				"element": "H" 
			},
			{
				"x": 3.5309610218,
				"y": -0.8456423868,
				"z": -3.1635655992,
				"element": "H" 
			},
			{
				"x": 2.9492337052,
				"y": -0.4504770855,
				"z": -0.7964872133,
				"element": "H" 
			}
		],
		 "valence_orbital": [ 
			{
				"type": "occ",
				"energy": -0.32843,
				"method": "rhf"
			},
			{
				"type": "occ",
				"energy": -0.26818,
				"method": "rhf"
			},
			{
				"type": "occ",
				"energy": -0.24765,
				"method": "rhf"
			},
			{
				"type": "occ",
				"energy": -0.24007,
				"method": "rhf"
			},
			{
				"type": "occ",
				"energy": -0.21966,
				"method": "rhf"
			},
			{
				"type": "unocc",
				"energy": -0.02402,
				"method": "rhf"
			},
			{
				"type": "unocc",
				"energy": -0.0001,
				"method": "rhf"
			},
			{
				"type": "unocc",
				"energy": 0.00445,
				"method": "rhf"
			},
			{
				"type": "unocc",
				"energy": 0.0316,
				"method": "rhf"
			},
			{
				"type": "unocc",
				"energy": 0.09863,
				"method": "rhf"
			}
		],
		"cosmo_sigma_profile": { 
			"-0.025": 0.0,
			"-0.024": 0.0,
			"-0.023": 0.0,
			"-0.022": 0.0,
			"-0.021": 0.0,
			"-0.02": 0.0,
			"-0.019": 0.0,
			"-0.018": 0.0,
			"-0.017": 0.0,
			"-0.016": 0.0,
			"-0.015": 0.0,
			"-0.014": 0.0,
			"-0.013": 0.0,
			"-0.012": 0.0,
			"-0.011": 0.0,
			"-0.01": 0.0,
			"-0.009": 0.0,
			"-0.008": 0.0,
			"-0.007": 0.0,
			"-0.006": 3.57494509214,
			"-0.005": 18.5106850914,
			"-0.004": 24.5198130145,
			"-0.003": 25.8918107715,
			"-0.002": 18.9839107512,
			"-0.001": 19.5528804487,
			"0.0": 18.6221386413,
			"0.001": 15.0715871209,
			"0.002": 13.9928796548,
			"0.003": 16.8525530003,
			"0.004": 15.9961532026,
			"0.005": 16.8849281536,
			"0.006": 15.7879674731,
			"0.007": 1.25465162278,
			"0.008": 0.0,
			"0.009": 0.0,
			"0.01": 0.0,
			"0.011": 0.0,
			"0.012": 0.0,
			"0.013": 0.0,
			"0.014": 0.0,
			"0.015": 0.0,
			"0.016": 0.0,
			"0.017": 0.0,
			"0.018": 0.0,
			"0.019": 0.0,
			"0.02": 0.0,
			"0.021": 0.0,
			"0.022": 0.0,
			"0.023": 0.0,
			"0.024": 0.0,
			"0.025": 0.0
		}
	}
}
