{
	 "smiles": "NC1=CC=C(C=C1)C1=NN=CO1", 
	 "Tm": 429.15, 
	 "num_atms": 19, 
	 "gaussian": { 
		 "optdone": 1, 
		 "sigma_profile": "yes", 
		 "theory": "DFT", 
		 "functional": "B3LYP", 
		 "basiset": "6-31G**", 
		 "properties": { 
			 "R2extent": 2971.9758, 
			 "electric_dipole_moment_norm": 5.38323988226, 
			 "electric_quadrupole_moment_norm": 24.1563024441, 
			 "total_energy": -548.520134887, 
			 "HOMO_LUMO_gap": 0.17234, 
			 "cosmo_polarized_energy": -16.1, 
			 "cosmo_cavitation_energy": 24.01, 
			 "cosmo_dispersion_energy": -18.03, 
			 "cosmo_repulsion_energy": 1.41, 
			 "cosmo_total_nonelectrostatic_energy": 7.39, 
			 "SMD_solvation_energy": 3.35 
		},
		"coords": [
			{
				"x": 0.1417725935,
				"y": -2.1744292504,
				"z": 3.3619974366,
				"element": "N" 
			},
			{
				"x": 0.5813030297,
				"y": -1.508280261,
				"z": 2.2281783697,
				"element": "C" 
			},
			{
				"x": 1.6726341207,
				"y": -0.6183210773,
				"z": 2.2947095227,
				"element": "C" 
			},
			{
				"x": 2.0798748106,
				"y": 0.0869030395,
				"z": 1.1739351893,
				"element": "C" 
			},
			{
				"x": 1.4131825491,
				"y": -0.0700082899,
				"z": -0.0542121591,
				"element": "C" 
			},
			{
				"x": 0.3252079118,
				"y": -0.9548264061,
				"z": -0.1233748502,
				"element": "C" 
			},
			{
				"x": -0.0849427438,
				"y": -1.663103859,
				"z": 0.9975092244,
				"element": "C" 
			},
			{
				"x": 1.8635947504,
				"y": 0.6794560221,
				"z": -1.2146754806,
				"element": "C" 
			},
			{
				"x": 2.852046734,
				"y": 1.5244196328,
				"z": -1.307111408,
				"element": "N" 
			},
			{
				"x": 2.8729319515,
				"y": 1.9727947277,
				"z": -2.6307246872,
				"element": "N" 
			},
			{
				"x": 1.9026511775,
				"y": 1.3661372905,
				"z": -3.2264933002,
				"element": "C" 
			},
			{
				"x": 1.209035721,
				"y": 0.5280443584,
				"z": -2.4097766013,
				"element": "O" 
			},
			{
				"x": -0.4127996234,
				"y": -3.0044357003,
				"z": 3.2102631611,
				"element": "H" 
			},
			{
				"x": 0.8105308134,
				"y": -2.2753922361,
				"z": 4.111726453,
				"element": "H" 
			},
			{
				"x": 2.1955499581,
				"y": -0.4838453412,
				"z": 3.2380831494,
				"element": "H" 
			},
			{
				"x": 2.9219143158,
				"y": 0.7686575877,
				"z": 1.2306446898,
				"element": "H" 
			},
			{
				"x": -0.1991955673,
				"y": -1.0886972265,
				"z": -1.0638110582,
				"element": "H" 
			},
			{
				"x": -0.9310334779,
				"y": -2.3419074634,
				"z": 0.9287202995,
				"element": "H" 
			},
			{
				"x": 1.5894409752,
				"y": 1.4431344525,
				"z": -4.2561879507,
				"element": "H" 
			}
		],
		 "valence_orbital": [ 
			{
				"type": "occ",
				"energy": -0.31387,
				"method": "rhf"
			},
			{
				"type": "occ",
				"energy": -0.27675,
				"method": "rhf"
			},
			{
				"type": "occ",
				"energy": -0.26938,
				"method": "rhf"
			},
			{
				"type": "occ",
				"energy": -0.26044,
				"method": "rhf"
			},
			{
				"type": "occ",
				"energy": -0.20758,
				"method": "rhf"
			},
			{
				"type": "unocc",
				"energy": -0.03524,
				"method": "rhf"
			},
			{
				"type": "unocc",
				"energy": -0.00884,
				"method": "rhf"
			},
			{
				"type": "unocc",
				"energy": 0.02101,
				"method": "rhf"
			},
			{
				"type": "unocc",
				"energy": 0.06376,
				"method": "rhf"
			},
			{
				"type": "unocc",
				"energy": 0.07743,
				"method": "rhf"
			}
		],
		"cosmo_sigma_profile": { 
			"-0.025": 0.0,
			"-0.024": 0.0,
			"-0.023": 0.0,
			"-0.022": 0.0,
			"-0.021": 0.0,
			"-0.02": 0.0,
			"-0.019": 0.0,
			"-0.018": 0.0,
			"-0.017": 0.0,
			"-0.016": 0.0,
			"-0.015": 0.0,
			"-0.014": 0.0931537129151,
			"-0.013": 2.26408413423,
			"-0.012": 4.40419272651,
			"-0.011": 5.51853513988,
			"-0.01": 4.3172965635,
			"-0.009": 4.31960189826,
			"-0.008": 4.70328177075,
			"-0.007": 5.89559041081,
			"-0.006": 7.1236714963,
			"-0.005": 9.38452389708,
			"-0.004": 10.4616136681,
			"-0.003": 10.5823823041,
			"-0.002": 9.90399862149,
			"-0.001": 10.3869869726,
			"0.0": 11.9525744315,
			"0.001": 11.2842297918,
			"0.002": 11.9847201844,
			"0.003": 12.5547386663,
			"0.004": 15.3180574459,
			"0.005": 11.2043638752,
			"0.006": 2.74150872071,
			"0.007": 3.04510524627,
			"0.008": 2.2921416178,
			"0.009": 3.25776236364,
			"0.01": 3.41280022217,
			"0.011": 3.23000167708,
			"0.012": 4.39077545286,
			"0.013": 3.23506275479,
			"0.014": 2.13454515125,
			"0.015": 1.63730014568,
			"0.016": 0.0367138721929,
			"0.017": 0.0,
			"0.018": 0.0,
			"0.019": 0.0,
			"0.02": 0.0,
			"0.021": 0.0,
			"0.022": 0.0,
			"0.023": 0.0,
			"0.024": 0.0,
			"0.025": 0.0
		}
	}
}
