{
	 "smiles": "OC(=O)CCNS(=O)(=O)C1=C(Cl)C=CC=C1", 
	 "Tm": 402.15, 
	 "num_atms": 26, 
	 "gaussian": { 
		 "optdone": 1, 
		 "sigma_profile": "yes", 
		 "theory": "DFT", 
		 "functional": "B3LYP", 
		 "basiset": "6-31G**", 
		 "properties": { 
			 "R2extent": 5644.1132, 
			 "electric_dipole_moment_norm": 6.22957565248, 
			 "electric_quadrupole_moment_norm": 19.6039642948, 
			 "total_energy": -1562.94029076, 
			 "HOMO_LUMO_gap": 0.21676, 
			 "cosmo_polarized_energy": -23.8, 
			 "cosmo_cavitation_energy": 33.69, 
			 "cosmo_dispersion_energy": -24.15, 
			 "cosmo_repulsion_energy": 1.86, 
			 "cosmo_total_nonelectrostatic_energy": 11.41, 
			 "SMD_solvation_energy": 5.6 
		},
		"coords": [
			{
				"x": 1.9280138082,
				"y": -4.1757869394,
				"z": -1.7576477201,
				"element": "O" 
			},
			{
				"x": 0.8329278265,
				"y": -3.6720526808,
				"z": -2.384656368,
				"element": "C" 
			},
			{
				"x": 0.3882826606,
				"y": -4.2204226971,
				"z": -3.3623906812,
				"element": "O" 
			},
			{
				"x": 0.2295334776,
				"y": -2.4256678119,
				"z": -1.7519745121,
				"element": "C" 
			},
			{
				"x": -0.838198587,
				"y": -1.8059905735,
				"z": -2.6533437719,
				"element": "C" 
			},
			{
				"x": -1.6179711371,
				"y": -0.7682684424,
				"z": -1.9522833136,
				"element": "N" 
			},
			{
				"x": -0.97053845,
				"y": 0.7801789906,
				"z": -1.7960727448,
				"element": "S" 
			},
			{
				"x": 0.4167948658,
				"y": 0.7281977756,
				"z": -2.2731979714,
				"element": "O" 
			},
			{
				"x": -1.9306194072,
				"y": 1.7397808734,
				"z": -2.3419609918,
				"element": "O" 
			},
			{
				"x": -0.8788648564,
				"y": 1.0320587887,
				"z": -0.0088786426,
				"element": "C" 
			},
			{
				"x": -1.991907113,
				"y": 0.9984311685,
				"z": 0.8436888867,
				"element": "C" 
			},
			{
				"x": -3.602511313,
				"y": 0.6270849833,
				"z": 0.2657051846,
				"element": "Cl" 
			},
			{
				"x": -1.8359032394,
				"y": 1.2559723754,
				"z": 2.2061072837,
				"element": "C" 
			},
			{
				"x": -0.5747369585,
				"y": 1.5593550421,
				"z": 2.7186629459,
				"element": "C" 
			},
			{
				"x": 0.5347596195,
				"y": 1.6038189386,
				"z": 1.8751403957,
				"element": "C" 
			},
			{
				"x": 0.380189506,
				"y": 1.3408908239,
				"z": 0.515284816,
				"element": "C" 
			},
			{
				"x": 2.1725081431,
				"y": -3.6155087516,
				"z": -1.0073686153,
				"element": "H" 
			},
			{
				"x": 1.0177310173,
				"y": -1.6933158316,
				"z": -1.5439097265,
				"element": "H" 
			},
			{
				"x": -0.2155205885,
				"y": -2.7051806319,
				"z": -0.7878000098,
				"element": "H" 
			},
			{
				"x": -1.5501662051,
				"y": -2.5816315393,
				"z": -2.9431627189,
				"element": "H" 
			},
			{
				"x": -0.3762851276,
				"y": -1.4284764714,
				"z": -3.5704994073,
				"element": "H" 
			},
			{
				"x": -2.5773400251,
				"y": -0.6807278222,
				"z": -2.2721908768,
				"element": "H" 
			},
			{
				"x": -2.7052020352,
				"y": 1.2200085139,
				"z": 2.853201395,
				"element": "H" 
			},
			{
				"x": -0.4663055743,
				"y": 1.7619362545,
				"z": 3.7797592096,
				"element": "H" 
			},
			{
				"x": 1.5166090322,
				"y": 1.8443511168,
				"z": 2.2698861921,
				"element": "H" 
			},
			{
				"x": 1.2254206605,
				"y": 1.3728645477,
				"z": -0.1626982372,
				"element": "H" 
			}
		],
		 "valence_orbital": [ 
			{
				"type": "occ",
				"energy": -0.31461,
				"method": "rhf"
			},
			{
				"type": "occ",
				"energy": -0.29487,
				"method": "rhf"
			},
			{
				"type": "occ",
				"energy": -0.28086,
				"method": "rhf"
			},
			{
				"type": "occ",
				"energy": -0.2742,
				"method": "rhf"
			},
			{
				"type": "occ",
				"energy": -0.26861,
				"method": "rhf"
			},
			{
				"type": "unocc",
				"energy": -0.05185,
				"method": "rhf"
			},
			{
				"type": "unocc",
				"energy": -0.03656,
				"method": "rhf"
			},
			{
				"type": "unocc",
				"energy": 0.00328,
				"method": "rhf"
			},
			{
				"type": "unocc",
				"energy": 0.0039,
				"method": "rhf"
			},
			{
				"type": "unocc",
				"energy": 0.0479,
				"method": "rhf"
			}
		],
		"cosmo_sigma_profile": { 
			"-0.025": 0.0,
			"-0.024": 0.0,
			"-0.023": 0.0,
			"-0.022": 0.0,
			"-0.021": 0.0,
			"-0.02": 0.0,
			"-0.019": 0.92918622343,
			"-0.018": 0.927753180965,
			"-0.017": 0.859750540432,
			"-0.016": 1.46905846953,
			"-0.015": 1.51968058732,
			"-0.014": 2.23161779588,
			"-0.013": 2.42282517581,
			"-0.012": 1.37676075341,
			"-0.011": 1.64723749807,
			"-0.01": 2.40909303697,
			"-0.009": 2.45889331828,
			"-0.008": 7.62700046814,
			"-0.007": 13.441854568,
			"-0.006": 14.5807644889,
			"-0.005": 15.3104176312,
			"-0.004": 14.343001272,
			"-0.003": 15.1812246755,
			"-0.002": 14.165376672,
			"-0.001": 15.2439974107,
			"0.0": 15.9797506922,
			"0.001": 20.4819652505,
			"0.002": 20.1235447955,
			"0.003": 12.479470056,
			"0.004": 9.04144931974,
			"0.005": 6.93602071517,
			"0.006": 5.57775998982,
			"0.007": 5.75901972807,
			"0.008": 6.54460043015,
			"0.009": 8.03622415958,
			"0.01": 12.865427679,
			"0.011": 12.1257288175,
			"0.012": 4.87173431456,
			"0.013": 1.29318918444,
			"0.014": 0.031510669109,
			"0.015": 0.0,
			"0.016": 0.0,
			"0.017": 0.0,
			"0.018": 0.0,
			"0.019": 0.0,
			"0.02": 0.0,
			"0.021": 0.0,
			"0.022": 0.0,
			"0.023": 0.0,
			"0.024": 0.0,
			"0.025": 0.0
		}
	}
}
