{
	 "smiles": "BrCC(CBr)CBr", 
	 "Tm": 241.15, 
	 "num_atms": 14, 
	 "gaussian": { 
		 "optdone": 1, 
		 "sigma_profile": "yes", 
		 "theory": "DFT", 
		 "functional": "B3LYP", 
		 "basiset": "6-31G**", 
		 "properties": { 
			 "R2extent": 4266.2518, 
			 "electric_dipole_moment_norm": 1.50008492426, 
			 "electric_quadrupole_moment_norm": 5.88891392788, 
			 "total_energy": -7870.87099696, 
			 "HOMO_LUMO_gap": 0.26136, 
			 "cosmo_polarized_energy": -7.28, 
			 "cosmo_cavitation_energy": 23.28, 
			 "cosmo_dispersion_energy": -18.06, 
			 "cosmo_repulsion_energy": 1.52, 
			 "cosmo_total_nonelectrostatic_energy": 6.74, 
			 "SMD_solvation_energy": 0.48 
		},
		"coords": [
			{
				"x": 1.0304262685,
				"y": 2.633655615,
				"z": 2.57910692,
				"element": "Br" 
			},
			{
				"x": -0.1683094182,
				"y": 2.0649446311,
				"z": 1.1117497421,
				"element": "C" 
			},
			{
				"x": -0.1051790402,
				"y": 0.5568401349,
				"z": 0.8701185903,
				"element": "C" 
			},
			{
				"x": -1.1987135526,
				"y": 0.1073812495,
				"z": -0.1078642753,
				"element": "C" 
			},
			{
				"x": -3.0180064075,
				"y": 0.3265975517,
				"z": 0.6383912674,
				"element": "Br" 
			},
			{
				"x": 1.2689601146,
				"y": 0.0722786876,
				"z": 0.4009742327,
				"element": "C" 
			},
			{
				"x": 1.7947789781,
				"y": 0.7864332174,
				"z": -1.3771352978,
				"element": "Br" 
			},
			{
				"x": -1.1659574608,
				"y": 2.3717068012,
				"z": 1.4175645556,
				"element": "H" 
			},
			{
				"x": 0.1499811057,
				"y": 2.6281397632,
				"z": 0.2347480901,
				"element": "H" 
			},
			{
				"x": -0.2792709406,
				"y": 0.0484303939,
				"z": 1.8278014554,
				"element": "H" 
			},
			{
				"x": -1.1097380141,
				"y": -0.954808337,
				"z": -0.3345001086,
				"element": "H" 
			},
			{
				"x": -1.1841054491,
				"y": 0.6760767227,
				"z": -1.0361949942,
				"element": "H" 
			},
			{
				"x": 1.2977065295,
				"y": -1.0111739669,
				"z": 0.2910286848,
				"element": "H" 
			},
			{
				"x": 2.0508272868,
				"y": 0.4003975357,
				"z": 1.0834111376,
				"element": "H" 
			}
		],
		 "valence_orbital": [ 
			{
				"type": "occ",
				"energy": -0.29084,
				"method": "rhf"
			},
			{
				"type": "occ",
				"energy": -0.28776,
				"method": "rhf"
			},
			{
				"type": "occ",
				"energy": -0.28266,
				"method": "rhf"
			},
			{
				"type": "occ",
				"energy": -0.28111,
				"method": "rhf"
			},
			{
				"type": "occ",
				"energy": -0.27742,
				"method": "rhf"
			},
			{
				"type": "unocc",
				"energy": -0.01606,
				"method": "rhf"
			},
			{
				"type": "unocc",
				"energy": -0.01192,
				"method": "rhf"
			},
			{
				"type": "unocc",
				"energy": -0.00645,
				"method": "rhf"
			},
			{
				"type": "unocc",
				"energy": 0.08391,
				"method": "rhf"
			},
			{
				"type": "unocc",
				"energy": 0.11015,
				"method": "rhf"
			}
		],
		"cosmo_sigma_profile": { 
			"-0.025": 0.0,
			"-0.024": 0.0,
			"-0.023": 0.0,
			"-0.022": 0.0,
			"-0.021": 0.0,
			"-0.02": 0.0,
			"-0.019": 0.0,
			"-0.018": 0.0,
			"-0.017": 0.0,
			"-0.016": 0.0,
			"-0.015": 0.0,
			"-0.014": 0.0,
			"-0.013": 0.0,
			"-0.012": 0.0,
			"-0.011": 0.0,
			"-0.01": 0.0548405061666,
			"-0.009": 2.17292935083,
			"-0.008": 5.46007319712,
			"-0.007": 8.40144691367,
			"-0.006": 11.4649492861,
			"-0.005": 11.7457784999,
			"-0.004": 11.5430939261,
			"-0.003": 10.900903438,
			"-0.002": 12.9077275782,
			"-0.001": 12.7212185711,
			"0.0": 10.7751992102,
			"0.001": 10.9076537966,
			"0.002": 13.1915247205,
			"0.003": 14.3800109267,
			"0.004": 17.11138692,
			"0.005": 20.2856092838,
			"0.006": 18.9726219134,
			"0.007": 0.175642160569,
			"0.008": 0.0,
			"0.009": 0.0,
			"0.01": 0.0,
			"0.011": 0.0,
			"0.012": 0.0,
			"0.013": 0.0,
			"0.014": 0.0,
			"0.015": 0.0,
			"0.016": 0.0,
			"0.017": 0.0,
			"0.018": 0.0,
			"0.019": 0.0,
			"0.02": 0.0,
			"0.021": 0.0,
			"0.022": 0.0,
			"0.023": 0.0,
			"0.024": 0.0,
			"0.025": 0.0
		}
	}
}
