{
	 "smiles": "CCCC(O)C#C", 
	 "Tm": 193.15, 
	 "num_atms": 17, 
	 "gaussian": { 
		 "optdone": 1, 
		 "sigma_profile": "yes", 
		 "theory": "DFT", 
		 "functional": "B3LYP", 
		 "basiset": "6-31G**", 
		 "properties": { 
			 "R2extent": 1226.4129, 
			 "electric_dipole_moment_norm": 1.40327601704, 
			 "electric_quadrupole_moment_norm": 6.49509138812, 
			 "total_energy": -309.811707359, 
			 "HOMO_LUMO_gap": 0.29494, 
			 "cosmo_polarized_energy": -7.18, 
			 "cosmo_cavitation_energy": 20.63, 
			 "cosmo_dispersion_energy": -14.31, 
			 "cosmo_repulsion_energy": 1.23, 
			 "cosmo_total_nonelectrostatic_energy": 7.55, 
			 "SMD_solvation_energy": 4.95 
		},
		"coords": [
			{
				"x": -1.6715501215,
				"y": 2.6687024332,
				"z": -1.1840919447,
				"element": "C" 
			},
			{
				"x": -1.5985326223,
				"y": 1.4851464752,
				"z": -0.2123584937,
				"element": "C" 
			},
			{
				"x": -0.2032473386,
				"y": 0.8562579748,
				"z": -0.0853388922,
				"element": "C" 
			},
			{
				"x": 0.2728072015,
				"y": 0.1370174625,
				"z": -1.3658308431,
				"element": "C" 
			},
			{
				"x": -0.6569239667,
				"y": -0.8589245115,
				"z": -1.7969149768,
				"element": "O" 
			},
			{
				"x": 1.6207558927,
				"y": -0.4252840664,
				"z": -1.1849578871,
				"element": "C" 
			},
			{
				"x": 2.7138772655,
				"y": -0.9083832765,
				"z": -1.0072213118,
				"element": "C" 
			},
			{
				"x": -1.4475607155,
				"y": 2.3674690339,
				"z": -2.2127809832,
				"element": "H" 
			},
			{
				"x": -2.673894116,
				"y": 3.1089066949,
				"z": -1.1881330576,
				"element": "H" 
			},
			{
				"x": -0.9633215214,
				"y": 3.4578270012,
				"z": -0.9052231547,
				"element": "H" 
			},
			{
				"x": -1.9161460204,
				"y": 1.8168899838,
				"z": 0.7838201035,
				"element": "H" 
			},
			{
				"x": -2.3050734369,
				"y": 0.7084197695,
				"z": -0.5249585846,
				"element": "H" 
			},
			{
				"x": 0.5390072351,
				"y": 1.6203885596,
				"z": 0.179024178,
				"element": "H" 
			},
			{
				"x": -0.1970671736,
				"y": 0.1245268938,
				"z": 0.7335638616,
				"element": "H" 
			},
			{
				"x": 0.3041921922,
				"y": 0.8566740959,
				"z": -2.1923686336,
				"element": "H" 
			},
			{
				"x": -0.614431938,
				"y": -1.5858680074,
				"z": -1.1600869414,
				"element": "H" 
			},
			{
				"x": 3.681309184,
				"y": -1.3316665164,
				"z": -0.8650424387,
				"element": "H" 
			}
		],
		 "valence_orbital": [ 
			{
				"type": "occ",
				"energy": -0.33553,
				"method": "rhf"
			},
			{
				"type": "occ",
				"energy": -0.32545,
				"method": "rhf"
			},
			{
				"type": "occ",
				"energy": -0.2889,
				"method": "rhf"
			},
			{
				"type": "occ",
				"energy": -0.27019,
				"method": "rhf"
			},
			{
				"type": "occ",
				"energy": -0.26317,
				"method": "rhf"
			},
			{
				"type": "unocc",
				"energy": 0.03177,
				"method": "rhf"
			},
			{
				"type": "unocc",
				"energy": 0.0531,
				"method": "rhf"
			},
			{
				"type": "unocc",
				"energy": 0.09097,
				"method": "rhf"
			},
			{
				"type": "unocc",
				"energy": 0.10689,
				"method": "rhf"
			},
			{
				"type": "unocc",
				"energy": 0.12421,
				"method": "rhf"
			}
		],
		"cosmo_sigma_profile": { 
			"-0.025": 0.0,
			"-0.024": 0.0,
			"-0.023": 0.0,
			"-0.022": 0.0,
			"-0.021": 0.0,
			"-0.02": 0.0,
			"-0.019": 0.0,
			"-0.018": 0.0,
			"-0.017": 0.0,
			"-0.016": 0.22203673163,
			"-0.015": 0.984210128446,
			"-0.014": 0.696441856573,
			"-0.013": 0.836603191761,
			"-0.012": 1.07793733464,
			"-0.011": 2.67701097811,
			"-0.01": 1.75141740966,
			"-0.009": 0.845039766742,
			"-0.008": 2.75550512615,
			"-0.007": 2.17501597858,
			"-0.006": 2.80746514284,
			"-0.005": 5.29038119035,
			"-0.004": 7.80501265713,
			"-0.003": 11.1063979958,
			"-0.002": 15.9409158129,
			"-0.001": 17.8251868978,
			"0.0": 20.4073234942,
			"0.001": 16.8780458874,
			"0.002": 8.81774401565,
			"0.003": 5.59163996466,
			"0.004": 4.22292075216,
			"0.005": 6.30692315555,
			"0.006": 9.2689860932,
			"0.007": 6.10468065769,
			"0.008": 1.60511757838,
			"0.009": 1.43351686655,
			"0.01": 1.02595266088,
			"0.011": 1.35744924975,
			"0.012": 1.00409901377,
			"0.013": 2.07364683439,
			"0.014": 0.919697380739,
			"0.015": 0.0,
			"0.016": 0.0,
			"0.017": 0.0,
			"0.018": 0.0,
			"0.019": 0.0,
			"0.02": 0.0,
			"0.021": 0.0,
			"0.022": 0.0,
			"0.023": 0.0,
			"0.024": 0.0,
			"0.025": 0.0
		}
	}
}
