{
	 "smiles": "OC(=O)CSC1=NC2=C(C=CC=C2)N=C1", 
	 "Tm": 452.15, 
	 "num_atms": 23, 
	 "gaussian": { 
		 "optdone": 1, 
		 "sigma_profile": "yes", 
		 "theory": "DFT", 
		 "functional": "B3LYP", 
		 "basiset": "6-31G**", 
		 "properties": { 
			 "R2extent": 3728.586, 
			 "electric_dipole_moment_norm": 0.758697185971, 
			 "electric_quadrupole_moment_norm": 11.7255724504, 
			 "total_energy": -1044.03422748, 
			 "HOMO_LUMO_gap": 0.15771, 
			 "cosmo_polarized_energy": -13.68, 
			 "cosmo_cavitation_energy": 29.78, 
			 "cosmo_dispersion_energy": -21.79, 
			 "cosmo_repulsion_energy": 1.66, 
			 "cosmo_total_nonelectrostatic_energy": 9.64, 
			 "SMD_solvation_energy": 3.65 
		},
		"coords": [
			{
				"x": -3.4992865839,
				"y": -0.5086829183,
				"z": -0.9797400356,
				"element": "O" 
			},
			{
				"x": -3.0763916182,
				"y": 0.7581827651,
				"z": -1.1574817878,
				"element": "C" 
			},
			{
				"x": -2.9600971542,
				"y": 1.2760253517,
				"z": -2.2443753166,
				"element": "O" 
			},
			{
				"x": -2.8409945045,
				"y": 1.5138400053,
				"z": 0.1420646103,
				"element": "C" 
			},
			{
				"x": -2.36489601,
				"y": 0.5547394776,
				"z": 1.6184082581,
				"element": "S" 
			},
			{
				"x": -0.7895270891,
				"y": -0.0720092068,
				"z": 1.0852684666,
				"element": "C" 
			},
			{
				"x": -0.3632516932,
				"y": 0.1753385432,
				"z": -0.1289872779,
				"element": "N" 
			},
			{
				"x": 0.8563251029,
				"y": -0.3365015343,
				"z": -0.4774811632,
				"element": "C" 
			},
			{
				"x": 1.6180779007,
				"y": -1.1052851394,
				"z": 0.4534661867,
				"element": "C" 
			},
			{
				"x": 2.8767667382,
				"y": -1.6231231142,
				"z": 0.0658699186,
				"element": "C" 
			},
			{
				"x": 3.3572158302,
				"y": -1.3833867508,
				"z": -1.2046181493,
				"element": "C" 
			},
			{
				"x": 2.5995847316,
				"y": -0.6215691413,
				"z": -2.1276585753,
				"element": "C" 
			},
			{
				"x": 1.3700020268,
				"y": -0.1045256995,
				"z": -1.7760364684,
				"element": "C" 
			},
			{
				"x": 1.1441431417,
				"y": -1.3478606775,
				"z": 1.7161441891,
				"element": "N" 
			},
			{
				"x": -0.0248772186,
				"y": -0.8452759764,
				"z": 2.0214107316,
				"element": "C" 
			},
			{
				"x": -3.6365072431,
				"y": -0.8715286619,
				"z": -1.8708317774,
				"element": "H" 
			},
			{
				"x": -2.0952556189,
				"y": 2.2813631396,
				"z": -0.0640799345,
				"element": "H" 
			},
			{
				"x": -3.7779807787,
				"y": 2.0062298869,
				"z": 0.4239974799,
				"element": "H" 
			},
			{
				"x": 3.4350612144,
				"y": -2.2035682292,
				"z": 0.7932685468,
				"element": "H" 
			},
			{
				"x": 4.3227351048,
				"y": -1.7798016307,
				"z": -1.5040735797,
				"element": "H" 
			},
			{
				"x": 2.9947578308,
				"y": -0.4442059811,
				"z": -3.1236347331,
				"element": "H" 
			},
			{
				"x": 0.7710129823,
				"y": 0.4810243152,
				"z": -2.4660983969,
				"element": "H" 
			},
			{
				"x": -0.4124170922,
				"y": -1.0301188233,
				"z": 3.0224988079,
				"element": "H" 
			}
		],
		 "valence_orbital": [ 
			{
				"type": "occ",
				"energy": -0.29292,
				"method": "rhf"
			},
			{
				"type": "occ",
				"energy": -0.2764,
				"method": "rhf"
			},
			{
				"type": "occ",
				"energy": -0.25463,
				"method": "rhf"
			},
			{
				"type": "occ",
				"energy": -0.25114,
				"method": "rhf"
			},
			{
				"type": "occ",
				"energy": -0.22991,
				"method": "rhf"
			},
			{
				"type": "unocc",
				"energy": -0.0722,
				"method": "rhf"
			},
			{
				"type": "unocc",
				"energy": -0.02778,
				"method": "rhf"
			},
			{
				"type": "unocc",
				"energy": -0.00116,
				"method": "rhf"
			},
			{
				"type": "unocc",
				"energy": 0.00635,
				"method": "rhf"
			},
			{
				"type": "unocc",
				"energy": 0.02399,
				"method": "rhf"
			}
		],
		"cosmo_sigma_profile": { 
			"-0.025": 0.0,
			"-0.024": 0.0,
			"-0.023": 0.0,
			"-0.022": 0.0,
			"-0.021": 0.0,
			"-0.02": 0.0,
			"-0.019": 0.141600139264,
			"-0.018": 1.05625931591,
			"-0.017": 0.841497996619,
			"-0.016": 0.898207097981,
			"-0.015": 0.614152981668,
			"-0.014": 1.13753407755,
			"-0.013": 0.62540844655,
			"-0.012": 0.571011172343,
			"-0.011": 0.470618359798,
			"-0.01": 2.55271667342,
			"-0.009": 4.15690338027,
			"-0.008": 5.4372679868,
			"-0.007": 8.74825191087,
			"-0.006": 13.2187280413,
			"-0.005": 14.3947114093,
			"-0.004": 12.9313695935,
			"-0.003": 12.997334682,
			"-0.002": 15.6872467711,
			"-0.001": 13.8479896121,
			"0.0": 14.2835795627,
			"0.001": 17.5816560567,
			"0.002": 20.7658197513,
			"0.003": 19.6564695414,
			"0.004": 12.1221344295,
			"0.005": 7.92711098848,
			"0.006": 7.16155926404,
			"0.007": 6.05440680347,
			"0.008": 4.33601604619,
			"0.009": 4.42386161187,
			"0.01": 4.45820140105,
			"0.011": 5.63754587856,
			"0.012": 4.1441559754,
			"0.013": 1.19275457132,
			"0.014": 0.714716250053,
			"0.015": 0.123735459521,
			"0.016": 0.0,
			"0.017": 0.0,
			"0.018": 0.0,
			"0.019": 0.0,
			"0.02": 0.0,
			"0.021": 0.0,
			"0.022": 0.0,
			"0.023": 0.0,
			"0.024": 0.0,
			"0.025": 0.0
		}
	}
}
