{
	 "smiles": "S=C=NC1=CC=C(C=C1)N=C=S", 
	 "Tm": 405.15, 
	 "num_atms": 16, 
	 "gaussian": { 
		 "optdone": 1, 
		 "sigma_profile": "yes", 
		 "theory": "DFT", 
		 "functional": "B3LYP", 
		 "basiset": "6-31G**", 
		 "properties": { 
			 "R2extent": 5627.0878, 
			 "electric_dipole_moment_norm": 0.000509901951359, 
			 "electric_quadrupole_moment_norm": 22.4262296619, 
			 "total_energy": -1213.12748657, 
			 "HOMO_LUMO_gap": 0.15381, 
			 "cosmo_polarized_energy": -7.85, 
			 "cosmo_cavitation_energy": 27.59, 
			 "cosmo_dispersion_energy": -20.72, 
			 "cosmo_repulsion_energy": 1.6, 
			 "cosmo_total_nonelectrostatic_energy": 8.47, 
			 "SMD_solvation_energy": 5.94 
		},
		"coords": [
			{
				"x": 2.0239467476,
				"y": 3.5544193875,
				"z": 2.7860954368,
				"element": "S" 
			},
			{
				"x": 1.6730895225,
				"y": 2.2982112177,
				"z": 1.8740326753,
				"element": "C" 
			},
			{
				"x": 1.4111931184,
				"y": 1.3604906618,
				"z": 1.1931959336,
				"element": "N" 
			},
			{
				"x": 1.109560357,
				"y": 0.2802508342,
				"z": 0.4088742916,
				"element": "C" 
			},
			{
				"x": 1.0758770389,
				"y": -1.0095286649,
				"z": 0.9689185448,
				"element": "C" 
			},
			{
				"x": 0.7702048079,
				"y": -2.1045339632,
				"z": 0.1738025962,
				"element": "C" 
			},
			{
				"x": 0.4935071494,
				"y": -1.9267188779,
				"z": -1.1936814671,
				"element": "C" 
			},
			{
				"x": 0.5271977704,
				"y": -0.6370293735,
				"z": -1.7537872542,
				"element": "C" 
			},
			{
				"x": 0.8328777221,
				"y": 0.4579626094,
				"z": -0.9586664897,
				"element": "C" 
			},
			{
				"x": 0.1919219975,
				"y": -3.0069334881,
				"z": -1.9780856896,
				"element": "N" 
			},
			{
				"x": -0.0702985763,
				"y": -3.9446519787,
				"z": -2.658851597,
				"element": "C" 
			},
			{
				"x": -0.4218264786,
				"y": -5.2007781969,
				"z": -3.5707943382,
				"element": "S" 
			},
			{
				"x": 1.2905609328,
				"y": -1.1370235501,
				"z": 2.0241318182,
				"element": "H" 
			},
			{
				"x": 0.7418773071,
				"y": -3.1025395084,
				"z": 0.5968746536,
				"element": "H" 
			},
			{
				"x": 0.312493226,
				"y": -0.5095632699,
				"z": -2.8089969986,
				"element": "H" 
			},
			{
				"x": 0.8612173572,
				"y": 1.4559661611,
				"z": -1.3817621158,
				"element": "H" 
			}
		],
		 "valence_orbital": [ 
			{
				"type": "occ",
				"energy": -0.29219,
				"method": "rhf"
			},
			{
				"type": "occ",
				"energy": -0.26874,
				"method": "rhf"
			},
			{
				"type": "occ",
				"energy": -0.26246,
				"method": "rhf"
			},
			{
				"type": "occ",
				"energy": -0.26126,
				"method": "rhf"
			},
			{
				"type": "occ",
				"energy": -0.23032,
				"method": "rhf"
			},
			{
				"type": "unocc",
				"energy": -0.07651,
				"method": "rhf"
			},
			{
				"type": "unocc",
				"energy": -0.03918,
				"method": "rhf"
			},
			{
				"type": "unocc",
				"energy": -0.0075,
				"method": "rhf"
			},
			{
				"type": "unocc",
				"energy": -0.00422,
				"method": "rhf"
			},
			{
				"type": "unocc",
				"energy": -0.00256,
				"method": "rhf"
			}
		],
		"cosmo_sigma_profile": { 
			"-0.025": 0.0,
			"-0.024": 0.0,
			"-0.023": 0.0,
			"-0.022": 0.0,
			"-0.021": 0.0,
			"-0.02": 0.0,
			"-0.019": 0.0,
			"-0.018": 0.0,
			"-0.017": 0.0,
			"-0.016": 0.0,
			"-0.015": 0.0,
			"-0.014": 0.0,
			"-0.013": 0.0,
			"-0.012": 0.0,
			"-0.011": 0.0,
			"-0.01": 0.0,
			"-0.009": 0.875979972487,
			"-0.008": 7.97336120647,
			"-0.007": 9.5720524753,
			"-0.006": 9.69585631273,
			"-0.005": 6.97402347049,
			"-0.004": 9.06836318954,
			"-0.003": 10.6876555941,
			"-0.002": 21.6271033768,
			"-0.001": 27.7865624626,
			"0.0": 22.2547848492,
			"0.001": 23.7372279426,
			"0.002": 15.9255127851,
			"0.003": 10.9080013446,
			"0.004": 12.896086241,
			"0.005": 19.6163644885,
			"0.006": 21.789340674,
			"0.007": 0.0981427615402,
			"0.008": 0.0,
			"0.009": 0.0,
			"0.01": 0.0,
			"0.011": 0.0,
			"0.012": 0.0,
			"0.013": 0.0,
			"0.014": 0.0,
			"0.015": 0.0,
			"0.016": 0.0,
			"0.017": 0.0,
			"0.018": 0.0,
			"0.019": 0.0,
			"0.02": 0.0,
			"0.021": 0.0,
			"0.022": 0.0,
			"0.023": 0.0,
			"0.024": 0.0,
			"0.025": 0.0
		}
	}
}
