{
	 "smiles": "COC1=CC2=C(CCNC(=O)C2)C=C1", 
	 "Tm": 425.15, 
	 "num_atms": 27, 
	 "gaussian": { 
		 "optdone": 1, 
		 "sigma_profile": "yes", 
		 "theory": "DFT", 
		 "functional": "B3LYP", 
		 "basiset": "6-31G**", 
		 "properties": { 
			 "R2extent": 3325.5334, 
			 "electric_dipole_moment_norm": 2.54711661296, 
			 "electric_quadrupole_moment_norm": 22.7410894794, 
			 "total_energy": -632.211114256, 
			 "HOMO_LUMO_gap": 0.20919, 
			 "cosmo_polarized_energy": -13.76, 
			 "cosmo_cavitation_energy": 29.26, 
			 "cosmo_dispersion_energy": -21.71, 
			 "cosmo_repulsion_energy": 1.71, 
			 "cosmo_total_nonelectrostatic_energy": 9.26, 
			 "SMD_solvation_energy": 5.27 
		},
		"coords": [
			{
				"x": -1.9705562046,
				"y": -1.4475878844,
				"z": 4.210290967,
				"element": "C" 
			},
			{
				"x": -2.5579860866,
				"y": -1.406984809,
				"z": 2.919412111,
				"element": "O" 
			},
			{
				"x": -1.8636788227,
				"y": -0.8046472083,
				"z": 1.9102610702,
				"element": "C" 
			},
			{
				"x": -0.6057802473,
				"y": -0.2084600438,
				"z": 2.0577136712,
				"element": "C" 
			},
			{
				"x": 0.029252904,
				"y": 0.3853978815,
				"z": 0.9597118354,
				"element": "C" 
			},
			{
				"x": -0.5897109215,
				"y": 0.3853085218,
				"z": -0.2990297822,
				"element": "C" 
			},
			{
				"x": 0.1277975607,
				"y": 0.9902281631,
				"z": -1.48254605,
				"element": "C" 
			},
			{
				"x": 1.3655522551,
				"y": 0.192136198,
				"z": -1.9105947193,
				"element": "C" 
			},
			{
				"x": 2.4748038846,
				"y": 0.1762149582,
				"z": -0.9548158997,
				"element": "N" 
			},
			{
				"x": 2.5574978303,
				"y": 0.3984710002,
				"z": 0.3966980436,
				"element": "C" 
			},
			{
				"x": 3.5947654653,
				"y": 0.142162503,
				"z": 0.9977089207,
				"element": "O" 
			},
			{
				"x": 1.3793041157,
				"y": 1.0453749937,
				"z": 1.1339430107,
				"element": "C" 
			},
			{
				"x": -1.8495830353,
				"y": -0.2126591145,
				"z": -0.4287607708,
				"element": "C" 
			},
			{
				"x": -2.4881473049,
				"y": -0.8015913394,
				"z": 0.6560966448,
				"element": "C" 
			},
			{
				"x": -2.6830664464,
				"y": -1.9718851711,
				"z": 4.849026832,
				"element": "H" 
			},
			{
				"x": -1.0192098855,
				"y": -1.9949965214,
				"z": 4.2062897006,
				"element": "H" 
			},
			{
				"x": -1.8014767458,
				"y": -0.4398303157,
				"z": 4.6113992023,
				"element": "H" 
			},
			{
				"x": -0.1064750345,
				"y": -0.1967442816,
				"z": 3.0197145427,
				"element": "H" 
			},
			{
				"x": -0.5463396825,
				"y": 1.0207261339,
				"z": -2.3450863077,
				"element": "H" 
			},
			{
				"x": 0.419670597,
				"y": 2.0298216772,
				"z": -1.2811219559,
				"element": "H" 
			},
			{
				"x": 1.0512911652,
				"y": -0.838975159,
				"z": -2.1295120364,
				"element": "H" 
			},
			{
				"x": 1.750481127,
				"y": 0.6162515503,
				"z": -2.8467583204,
				"element": "H" 
			},
			{
				"x": 3.3253525572,
				"y": -0.2589900736,
				"z": -1.2915573791,
				"element": "H" 
			},
			{
				"x": 1.326083554,
				"y": 2.0948976488,
				"z": 0.8113515518,
				"element": "H" 
			},
			{
				"x": 1.6763124486,
				"y": 1.0493623532,
				"z": 2.183443636,
				"element": "H" 
			},
			{
				"x": -2.3407229167,
				"y": -0.2160884486,
				"z": -1.3990643638,
				"element": "H" 
			},
			{
				"x": -3.4646321306,
				"y": -1.2640132125,
				"z": 0.5578858454,
				"element": "H" 
			}
		],
		 "valence_orbital": [ 
			{
				"type": "occ",
				"energy": -0.31215,
				"method": "rhf"
			},
			{
				"type": "occ",
				"energy": -0.25805,
				"method": "rhf"
			},
			{
				"type": "occ",
				"energy": -0.24292,
				"method": "rhf"
			},
			{
				"type": "occ",
				"energy": -0.2347,
				"method": "rhf"
			},
			{
				"type": "occ",
				"energy": -0.21395,
				"method": "rhf"
			},
			{
				"type": "unocc",
				"energy": -0.00476,
				"method": "rhf"
			},
			{
				"type": "unocc",
				"energy": 0.00784,
				"method": "rhf"
			},
			{
				"type": "unocc",
				"energy": 0.03408,
				"method": "rhf"
			},
			{
				"type": "unocc",
				"energy": 0.08083,
				"method": "rhf"
			},
			{
				"type": "unocc",
				"energy": 0.09627,
				"method": "rhf"
			}
		],
		"cosmo_sigma_profile": { 
			"-0.025": 0.0,
			"-0.024": 0.0,
			"-0.023": 0.0,
			"-0.022": 0.0,
			"-0.021": 0.0,
			"-0.02": 0.0,
			"-0.019": 0.0,
			"-0.018": 0.0,
			"-0.017": 0.0,
			"-0.016": 0.0,
			"-0.015": 0.0,
			"-0.014": 0.0,
			"-0.013": 0.644620585331,
			"-0.012": 1.00353574243,
			"-0.011": 1.56947233148,
			"-0.01": 0.696031157167,
			"-0.009": 0.859466563006,
			"-0.008": 0.9760284325,
			"-0.007": 1.69878805661,
			"-0.006": 11.5350919581,
			"-0.005": 26.4941244848,
			"-0.004": 27.1355433288,
			"-0.003": 26.0997074324,
			"-0.002": 18.5382346059,
			"-0.001": 13.4367100663,
			"0.0": 12.1540051334,
			"0.001": 10.6512198808,
			"0.002": 9.15744022782,
			"0.003": 10.0643198897,
			"0.004": 11.8084966188,
			"0.005": 12.9795367351,
			"0.006": 7.03539200166,
			"0.007": 2.54091584957,
			"0.008": 2.68562414408,
			"0.009": 2.56001120914,
			"0.01": 2.88104383503,
			"0.011": 2.28546760496,
			"0.012": 1.62685932585,
			"0.013": 2.55120863336,
			"0.014": 6.05118505981,
			"0.015": 2.66607744563,
			"0.016": 0.0678026954858,
			"0.017": 0.0,
			"0.018": 0.0,
			"0.019": 0.0,
			"0.02": 0.0,
			"0.021": 0.0,
			"0.022": 0.0,
			"0.023": 0.0,
			"0.024": 0.0,
			"0.025": 0.0
		}
	}
}
