{
	 "smiles": "CCOC(=O)C1=NN(C(C)=C1C(=O)C1=NOC(=C1S(=O)(=O)C1=CC=CC=C1)C1=C2C=CC=CC2=CC=C1)C1=CC=C(C)C=C1", 
	 "Tm": 446.15, 
	 "num_atms": 71, 
	 "gaussian": { 
		 "optdone": 1, 
		 "sigma_profile": "yes", 
		 "theory": "DFT", 
		 "functional": "B3LYP", 
		 "basiset": "6-31G**", 
		 "properties": { 
			 "R2extent": 26753.2482, 
			 "electric_dipole_moment_norm": 7.63888815535, 
			 "electric_quadrupole_moment_norm": 51.9806527161, 
			 "total_energy": -2325.56111146, 
			 "HOMO_LUMO_gap": 0.16342, 
			 "cosmo_polarized_energy": -27.89, 
			 "cosmo_cavitation_energy": 75.96, 
			 "cosmo_dispersion_energy": -46.71, 
			 "cosmo_repulsion_energy": 3.39, 
			 "cosmo_total_nonelectrostatic_energy": 32.64, 
			 "SMD_solvation_energy": 11.46 
		},
		"coords": [
			{
				"x": 1.2397498354,
				"y": -0.5930585111,
				"z": 4.6050238293,
				"element": "C" 
			},
			{
				"x": 0.2792775565,
				"y": -0.5787783517,
				"z": 3.4311648251,
				"element": "C" 
			},
			{
				"x": 0.7761541808,
				"y": 0.3914418582,
				"z": 2.4812754497,
				"element": "O" 
			},
			{
				"x": 0.0100194097,
				"y": 0.5828500771,
				"z": 1.3932282433,
				"element": "C" 
			},
			{
				"x": -1.028798123,
				"y": -0.0165450802,
				"z": 1.1889986032,
				"element": "O" 
			},
			{
				"x": 0.5874854165,
				"y": 1.6045343652,
				"z": 0.4787602104,
				"element": "C" 
			},
			{
				"x": 1.6593700998,
				"y": 2.2842382493,
				"z": 0.8777303891,
				"element": "N" 
			},
			{
				"x": 1.9320792795,
				"y": 3.149250159,
				"z": -0.126988271,
				"element": "N" 
			},
			{
				"x": 1.0614751627,
				"y": 3.0391765048,
				"z": -1.1745084309,
				"element": "C" 
			},
			{
				"x": 1.1973251068,
				"y": 3.7969534906,
				"z": -2.4541315737,
				"element": "C" 
			},
			{
				"x": 0.1489992405,
				"y": 2.0404501352,
				"z": -0.8149742879,
				"element": "C" 
			},
			{
				"x": -0.9436644973,
				"y": 1.6481011559,
				"z": -1.7218349348,
				"element": "C" 
			},
			{
				"x": -1.2836385471,
				"y": 2.3624828511,
				"z": -2.6540221058,
				"element": "O" 
			},
			{
				"x": -1.6950423186,
				"y": 0.3510669086,
				"z": -1.525995858,
				"element": "C" 
			},
			{
				"x": -2.9348783588,
				"y": 0.4195115271,
				"z": -1.1137922686,
				"element": "N" 
			},
			{
				"x": -3.3860790165,
				"y": -0.9025852494,
				"z": -1.0573849889,
				"element": "O" 
			},
			{
				"x": -2.4186383642,
				"y": -1.7441756572,
				"z": -1.4701890953,
				"element": "C" 
			},
			{
				"x": -1.307564775,
				"y": -1.0004955201,
				"z": -1.7948371774,
				"element": "C" 
			},
			{
				"x": 0.2505200448,
				"y": -1.5423985995,
				"z": -2.4562713132,
				"element": "S" 
			},
			{
				"x": 1.0209520723,
				"y": -0.3141353053,
				"z": -2.712276462,
				"element": "O" 
			},
			{
				"x": -0.0158542761,
				"y": -2.5092516901,
				"z": -3.5316738296,
				"element": "O" 
			},
			{
				"x": 1.0628855405,
				"y": -2.4326734705,
				"z": -1.1200580185,
				"element": "C" 
			},
			{
				"x": 1.9450970156,
				"y": -1.743382395,
				"z": -0.2858919797,
				"element": "C" 
			},
			{
				"x": 2.5803396302,
				"y": -2.4367341416,
				"z": 0.7449714681,
				"element": "C" 
			},
			{
				"x": 2.3338086455,
				"y": -3.7998505737,
				"z": 0.9280690287,
				"element": "C" 
			},
			{
				"x": 1.4586386798,
				"y": -4.4790251512,
				"z": 0.0766927546,
				"element": "C" 
			},
			{
				"x": 0.8180077951,
				"y": -3.7985278127,
				"z": -0.9589091888,
				"element": "C" 
			},
			{
				"x": -2.7452635906,
				"y": -3.179540757,
				"z": -1.4642157273,
				"element": "C" 
			},
			{
				"x": -3.1628727321,
				"y": -3.8179774416,
				"z": -0.2466955732,
				"element": "C" 
			},
			{
				"x": -3.1898604384,
				"y": -3.1555232262,
				"z": 1.0122027344,
				"element": "C" 
			},
			{
				"x": -3.5931875205,
				"y": -3.8244235677,
				"z": 2.1468990079,
				"element": "C" 
			},
			{
				"x": -3.986064598,
				"y": -5.1827661774,
				"z": 2.0874179096,
				"element": "C" 
			},
			{
				"x": -3.9519515274,
				"y": -5.8557220351,
				"z": 0.8882291908,
				"element": "C" 
			},
			{
				"x": -3.5350142335,
				"y": -5.2020813801,
				"z": -0.3029108014,
				"element": "C" 
			},
			{
				"x": -3.4684545187,
				"y": -5.8942261335,
				"z": -1.5417985319,
				"element": "C" 
			},
			{
				"x": -3.0428506889,
				"y": -5.2595952804,
				"z": -2.6858084467,
				"element": "C" 
			},
			{
				"x": -2.6817717737,
				"y": -3.8942263027,
				"z": -2.6488951343,
				"element": "C" 
			},
			{
				"x": 3.0547979291,
				"y": 4.022044226,
				"z": 0.0199294678,
				"element": "C" 
			},
			{
				"x": 4.2602301842,
				"y": 3.5007036248,
				"z": 0.4969119499,
				"element": "C" 
			},
			{
				"x": 5.3532862727,
				"y": 4.3449330669,
				"z": 0.6659876634,
				"element": "C" 
			},
			{
				"x": 5.274920481,
				"y": 5.7118692991,
				"z": 0.3600260648,
				"element": "C" 
			},
			{
				"x": 6.4788450866,
				"y": 6.6102159116,
				"z": 0.5130282045,
				"element": "C" 
			},
			{
				"x": 4.052839396,
				"y": 6.2128866026,
				"z": -0.1049125096,
				"element": "C" 
			},
			{
				"x": 2.9437995079,
				"y": 5.3833840672,
				"z": -0.2687383704,
				"element": "C" 
			},
			{
				"x": 1.2955148821,
				"y": 0.392298341,
				"z": 5.0758423541,
				"element": "H" 
			},
			{
				"x": 0.8999035637,
				"y": -1.3158568088,
				"z": 5.3534058284,
				"element": "H" 
			},
			{
				"x": 2.2460213294,
				"y": -0.877068653,
				"z": 4.2837677138,
				"element": "H" 
			},
			{
				"x": -0.7337507445,
				"y": -0.2936701413,
				"z": 3.7315899153,
				"element": "H" 
			},
			{
				"x": 0.217212029,
				"y": -1.5539467249,
				"z": 2.9376030465,
				"element": "H" 
			},
			{
				"x": 0.4971943217,
				"y": 4.6376144495,
				"z": -2.4973010024,
				"element": "H" 
			},
			{
				"x": 0.9436923925,
				"y": 3.1412285985,
				"z": -3.2885379272,
				"element": "H" 
			},
			{
				"x": 2.2127553623,
				"y": 4.1776791992,
				"z": -2.579598895,
				"element": "H" 
			},
			{
				"x": 2.138536112,
				"y": -0.6904854522,
				"z": -0.4557733624,
				"element": "H" 
			},
			{
				"x": 3.2706468829,
				"y": -1.911872236,
				"z": 1.398230257,
				"element": "H" 
			},
			{
				"x": 2.832170219,
				"y": -4.3366684521,
				"z": 1.7301302015,
				"element": "H" 
			},
			{
				"x": 1.2781996849,
				"y": -5.5407736704,
				"z": 0.2139261276,
				"element": "H" 
			},
			{
				"x": 0.1508942006,
				"y": -4.3145772725,
				"z": -1.6395947526,
				"element": "H" 
			},
			{
				"x": -2.8810790103,
				"y": -2.1183374724,
				"z": 1.0807752408,
				"element": "H" 
			},
			{
				"x": -3.6088547297,
				"y": -3.3027951288,
				"z": 3.0994183255,
				"element": "H" 
			},
			{
				"x": -4.307169844,
				"y": -5.6921636268,
				"z": 2.9913419776,
				"element": "H" 
			},
			{
				"x": -4.2402717208,
				"y": -6.9022837511,
				"z": 0.8327719832,
				"element": "H" 
			},
			{
				"x": -3.7568965564,
				"y": -6.9419959965,
				"z": -1.5683587471,
				"element": "H" 
			},
			{
				"x": -2.9911899938,
				"y": -5.7974642736,
				"z": -3.6272988084,
				"element": "H" 
			},
			{
				"x": -2.3475544005,
				"y": -3.3982324893,
				"z": -3.552409129,
				"element": "H" 
			},
			{
				"x": 4.3224949719,
				"y": 2.4462833857,
				"z": 0.7400548486,
				"element": "H" 
			},
			{
				"x": 6.2872053272,
				"y": 3.9334082254,
				"z": 1.0397438072,
				"element": "H" 
			},
			{
				"x": 7.1353371704,
				"y": 6.5426126728,
				"z": -0.3633588464,
				"element": "H" 
			},
			{
				"x": 7.0764159831,
				"y": 6.3328060319,
				"z": 1.3868140986,
				"element": "H" 
			},
			{
				"x": 6.1852495188,
				"y": 7.6580891354,
				"z": 0.6213320322,
				"element": "H" 
			},
			{
				"x": 3.958316787,
				"y": 7.2719326825,
				"z": -0.3290208305,
				"element": "H" 
			},
			{
				"x": 1.9957525912,
				"y": 5.7965451585,
				"z": -0.5952275728,
				"element": "H" 
			}
		],
		 "valence_orbital": [ 
			{
				"type": "occ",
				"energy": -0.25732,
				"method": "rhf"
			},
			{
				"type": "occ",
				"energy": -0.25227,
				"method": "rhf"
			},
			{
				"type": "occ",
				"energy": -0.2504,
				"method": "rhf"
			},
			{
				"type": "occ",
				"energy": -0.24361,
				"method": "rhf"
			},
			{
				"type": "occ",
				"energy": -0.22112,
				"method": "rhf"
			},
			{
				"type": "unocc",
				"energy": -0.0577,
				"method": "rhf"
			},
			{
				"type": "unocc",
				"energy": -0.05672,
				"method": "rhf"
			},
			{
				"type": "unocc",
				"energy": -0.04246,
				"method": "rhf"
			},
			{
				"type": "unocc",
				"energy": -0.04029,
				"method": "rhf"
			},
			{
				"type": "unocc",
				"energy": -0.02178,
				"method": "rhf"
			}
		],
		"cosmo_sigma_profile": { 
			"-0.025": 0.0,
			"-0.024": 0.0,
			"-0.023": 0.0,
			"-0.022": 0.0,
			"-0.021": 0.0,
			"-0.02": 0.0,
			"-0.019": 0.0,
			"-0.018": 0.0,
			"-0.017": 0.0,
			"-0.016": 0.0,
			"-0.015": 0.0,
			"-0.014": 0.0,
			"-0.013": 0.0,
			"-0.012": 0.0249307158984,
			"-0.011": 0.421712293597,
			"-0.01": 0.45855765311,
			"-0.009": 0.601309537338,
			"-0.008": 1.50244464969,
			"-0.007": 13.8214068554,
			"-0.006": 31.7581470442,
			"-0.005": 44.6062073183,
			"-0.004": 53.8515331862,
			"-0.003": 52.3259312362,
			"-0.002": 55.4645389896,
			"-0.001": 50.7547612067,
			"0.0": 49.977978687,
			"0.001": 45.3255566873,
			"0.002": 47.6146267196,
			"0.003": 42.9380973055,
			"0.004": 33.7471660636,
			"0.005": 15.3853721462,
			"0.006": 11.750750117,
			"0.007": 10.8261331685,
			"0.008": 8.69581727862,
			"0.009": 9.54045433613,
			"0.01": 11.1925031935,
			"0.011": 10.417655615,
			"0.012": 3.52715201911,
			"0.013": 0.738983680408,
			"0.014": 1.24311657757,
			"0.015": 0.255210964596,
			"0.016": 0.0,
			"0.017": 0.0,
			"0.018": 0.0,
			"0.019": 0.0,
			"0.02": 0.0,
			"0.021": 0.0,
			"0.022": 0.0,
			"0.023": 0.0,
			"0.024": 0.0,
			"0.025": 0.0
		}
	}
}
