{
	 "smiles": "COC1=C2C(=O)C3(OC2=C(Cl)C(OC)=C1)C(C)CC(=O)C=C3OC", 
	 "Tm": 492.15, 
	 "num_atms": 41, 
	 "gaussian": { 
		 "optdone": 1, 
		 "sigma_profile": "yes", 
		 "theory": "DFT", 
		 "functional": "B3LYP", 
		 "basiset": "6-31G**", 
		 "properties": { 
			 "R2extent": 9035.0483, 
			 "electric_dipole_moment_norm": 6.1922772249, 
			 "electric_quadrupole_moment_norm": 24.1516299365, 
			 "total_energy": -1569.54064656, 
			 "HOMO_LUMO_gap": 0.16425, 
			 "cosmo_polarized_energy": -18.05, 
			 "cosmo_cavitation_energy": 45.52, 
			 "cosmo_dispersion_energy": -30.73, 
			 "cosmo_repulsion_energy": 2.37, 
			 "cosmo_total_nonelectrostatic_energy": 17.15, 
			 "SMD_solvation_energy": 10.96 
		},
		"coords": [
			{
				"x": -1.4373416469,
				"y": -0.360809239,
				"z": -2.8960686767,
				"element": "C" 
			},
			{
				"x": -0.5451729254,
				"y": 0.7225467207,
				"z": -2.5872734363,
				"element": "O" 
			},
			{
				"x": -0.200288202,
				"y": 0.9738008728,
				"z": -1.3068198077,
				"element": "C" 
			},
			{
				"x": -0.0056572554,
				"y": 0.016920851,
				"z": -0.2811480878,
				"element": "C" 
			},
			{
				"x": 0.0324555816,
				"y": -1.4405526086,
				"z": -0.2164599604,
				"element": "C" 
			},
			{
				"x": -0.0635328527,
				"y": -2.3030127465,
				"z": -1.0757542694,
				"element": "O" 
			},
			{
				"x": 0.3312509452,
				"y": -1.7904498445,
				"z": 1.2700753219,
				"element": "C" 
			},
			{
				"x": 0.5326243447,
				"y": -0.5041977708,
				"z": 1.9218436012,
				"element": "O" 
			},
			{
				"x": 0.3464701398,
				"y": 0.4788939558,
				"z": 1.0095331993,
				"element": "C" 
			},
			{
				"x": 0.5326290816,
				"y": 1.8159877004,
				"z": 1.3164175274,
				"element": "C" 
			},
			{
				"x": 0.9831953704,
				"y": 2.3162749609,
				"z": 2.9212560907,
				"element": "Cl" 
			},
			{
				"x": 0.3653178271,
				"y": 2.7543386669,
				"z": 0.2738006791,
				"element": "C" 
			},
			{
				"x": 0.5605261946,
				"y": 4.045273758,
				"z": 0.6060015558,
				"element": "O" 
			},
			{
				"x": 0.4288281465,
				"y": 5.0467262226,
				"z": -0.3982917285,
				"element": "C" 
			},
			{
				"x": -0.0025828541,
				"y": 2.3274616622,
				"z": -1.0101299098,
				"element": "C" 
			},
			{
				"x": 1.5965719357,
				"y": -2.6638363202,
				"z": 1.3852765987,
				"element": "C" 
			},
			{
				"x": 2.8601254364,
				"y": -1.93578648,
				"z": 0.9116859296,
				"element": "C" 
			},
			{
				"x": 1.7575431298,
				"y": -3.2116191181,
				"z": 2.8103868448,
				"element": "C" 
			},
			{
				"x": 0.5183630606,
				"y": -3.9327530475,
				"z": 3.3188910377,
				"element": "C" 
			},
			{
				"x": 0.5888264408,
				"y": -4.8551379764,
				"z": 4.1201593189,
				"element": "O" 
			},
			{
				"x": -0.7763195821,
				"y": -3.4333802842,
				"z": 2.8366764712,
				"element": "C" 
			},
			{
				"x": -0.8742675892,
				"y": -2.4392892327,
				"z": 1.9267973816,
				"element": "C" 
			},
			{
				"x": -2.0171085921,
				"y": -1.868950904,
				"z": 1.4947405831,
				"element": "O" 
			},
			{
				"x": -3.2502629717,
				"y": -2.3021237221,
				"z": 2.0680509697,
				"element": "C" 
			},
			{
				"x": -0.9663642824,
				"y": -1.3281476493,
				"z": -2.7207195333,
				"element": "H" 
			},
			{
				"x": -1.6871688552,
				"y": -0.232589114,
				"z": -3.9502663356,
				"element": "H" 
			},
			{
				"x": -2.3495842999,
				"y": -0.2813364661,
				"z": -2.2933020625,
				"element": "H" 
			},
			{
				"x": 0.6556575275,
				"y": 5.9904181816,
				"z": 0.0981034281,
				"element": "H" 
			},
			{
				"x": -0.5916341432,
				"y": 5.0802334505,
				"z": -0.7969634497,
				"element": "H" 
			},
			{
				"x": 1.1372195923,
				"y": 4.8847136354,
				"z": -1.2185886954,
				"element": "H" 
			},
			{
				"x": -0.1693753308,
				"y": 3.0374599971,
				"z": -1.8085788441,
				"element": "H" 
			},
			{
				"x": 1.4028782971,
				"y": -3.5033504493,
				"z": 0.7050612913,
				"element": "H" 
			},
			{
				"x": 2.7735811222,
				"y": -1.6057653463,
				"z": -0.1278641484,
				"element": "H" 
			},
			{
				"x": 3.0695165838,
				"y": -1.0624923384,
				"z": 1.5361618083,
				"element": "H" 
			},
			{
				"x": 3.7198136255,
				"y": -2.6096521262,
				"z": 0.9736624194,
				"element": "H" 
			},
			{
				"x": 2.6031425554,
				"y": -3.9021255517,
				"z": 2.873994782,
				"element": "H" 
			},
			{
				"x": 1.9662134027,
				"y": -2.381745484,
				"z": 3.5000612939,
				"element": "H" 
			},
			{
				"x": -1.6506768677,
				"y": -3.8966639367,
				"z": 3.2787031972,
				"element": "H" 
			},
			{
				"x": -3.2497683729,
				"y": -2.1511812162,
				"z": 3.1530444857,
				"element": "H" 
			},
			{
				"x": -4.0248176937,
				"y": -1.6883417161,
				"z": 1.6081792605,
				"element": "H" 
			},
			{
				"x": -3.434526024,
				"y": -3.3588599472,
				"z": 1.8454638686,
				"element": "H" 
			}
		],
		 "valence_orbital": [ 
			{
				"type": "occ",
				"energy": -0.2605,
				"method": "rhf"
			},
			{
				"type": "occ",
				"energy": -0.24959,
				"method": "rhf"
			},
			{
				"type": "occ",
				"energy": -0.2421,
				"method": "rhf"
			},
			{
				"type": "occ",
				"energy": -0.23497,
				"method": "rhf"
			},
			{
				"type": "occ",
				"energy": -0.22545,
				"method": "rhf"
			},
			{
				"type": "unocc",
				"energy": -0.0612,
				"method": "rhf"
			},
			{
				"type": "unocc",
				"energy": -0.04399,
				"method": "rhf"
			},
			{
				"type": "unocc",
				"energy": -0.00401,
				"method": "rhf"
			},
			{
				"type": "unocc",
				"energy": 0.02723,
				"method": "rhf"
			},
			{
				"type": "unocc",
				"energy": 0.03775,
				"method": "rhf"
			}
		],
		"cosmo_sigma_profile": { 
			"-0.025": 0.0,
			"-0.024": 0.0,
			"-0.023": 0.0,
			"-0.022": 0.0,
			"-0.021": 0.0,
			"-0.02": 0.0,
			"-0.019": 0.0,
			"-0.018": 0.0,
			"-0.017": 0.0,
			"-0.016": 0.0,
			"-0.015": 0.0,
			"-0.014": 0.0,
			"-0.013": 0.0,
			"-0.012": 0.0,
			"-0.011": 0.0,
			"-0.01": 0.0,
			"-0.009": 0.0,
			"-0.008": 1.45675399054,
			"-0.007": 12.3250531934,
			"-0.006": 24.7051871188,
			"-0.005": 29.8543765886,
			"-0.004": 35.2155383705,
			"-0.003": 31.5129473553,
			"-0.002": 25.7085053833,
			"-0.001": 27.2731162786,
			"0.0": 30.9972700109,
			"0.001": 26.0416427929,
			"0.002": 20.0538146613,
			"0.003": 16.1510514942,
			"0.004": 17.6642247613,
			"0.005": 14.0995110721,
			"0.006": 8.92929509409,
			"0.007": 8.30860422584,
			"0.008": 6.6011606953,
			"0.009": 5.99075023967,
			"0.01": 4.71522250097,
			"0.011": 4.25727808495,
			"0.012": 4.51034923284,
			"0.013": 4.63116789112,
			"0.014": 2.03828727746,
			"0.015": 0.0216255699328,
			"0.016": 0.0,
			"0.017": 0.0,
			"0.018": 0.0,
			"0.019": 0.0,
			"0.02": 0.0,
			"0.021": 0.0,
			"0.022": 0.0,
			"0.023": 0.0,
			"0.024": 0.0,
			"0.025": 0.0
		}
	}
}
