{
	 "smiles": "CC(C)(C)OC(=O)NC1=CC(CCl)=CC=C1", 
	 "Tm": 377.15, 
	 "num_atms": 32, 
	 "gaussian": { 
		 "optdone": 1, 
		 "sigma_profile": "yes", 
		 "theory": "DFT", 
		 "functional": "B3LYP", 
		 "basiset": "6-31G**", 
		 "properties": { 
			 "R2extent": 5485.9057, 
			 "electric_dipole_moment_norm": 1.69246594353, 
			 "electric_quadrupole_moment_norm": 20.65922016, 
			 "total_energy": -1132.35834728, 
			 "HOMO_LUMO_gap": 0.19371, 
			 "cosmo_polarized_energy": -12.17, 
			 "cosmo_cavitation_energy": 36.72, 
			 "cosmo_dispersion_energy": -25.02, 
			 "cosmo_repulsion_energy": 1.96, 
			 "cosmo_total_nonelectrostatic_energy": 13.66, 
			 "SMD_solvation_energy": 6.9 
		},
		"coords": [
			{
				"x": -3.2319297048,
				"y": 0.4176975635,
				"z": 0.5258588987,
				"element": "C" 
			},
			{
				"x": -2.2372594406,
				"y": -0.3619637733,
				"z": -0.3390467901,
				"element": "C" 
			},
			{
				"x": -2.5865107593,
				"y": -1.8497078026,
				"z": -0.4388096727,
				"element": "C" 
			},
			{
				"x": -2.1170050527,
				"y": 0.2652319117,
				"z": -1.729826889,
				"element": "C" 
			},
			{
				"x": -0.8691219917,
				"y": -0.2017083961,
				"z": 0.202787999,
				"element": "O" 
			},
			{
				"x": -0.5679327212,
				"y": -0.6294932301,
				"z": 1.4402235311,
				"element": "C" 
			},
			{
				"x": -1.3188649536,
				"y": -1.196642944,
				"z": 2.2165685984,
				"element": "O" 
			},
			{
				"x": 0.7431476172,
				"y": -0.3670375096,
				"z": 1.7959232876,
				"element": "N" 
			},
			{
				"x": 1.8154911785,
				"y": 0.299821474,
				"z": 1.1741127817,
				"element": "C" 
			},
			{
				"x": 1.8222115437,
				"y": 0.7268135471,
				"z": -0.1606028452,
				"element": "C" 
			},
			{
				"x": 2.946150028,
				"y": 1.3726497254,
				"z": -0.6893752484,
				"element": "C" 
			},
			{
				"x": 2.9312554902,
				"y": 1.8212256124,
				"z": -2.1208185343,
				"element": "C" 
			},
			{
				"x": 2.2264000002,
				"y": 3.5083128665,
				"z": -2.321915378,
				"element": "Cl" 
			},
			{
				"x": 4.076062325,
				"y": 1.5910267952,
				"z": 0.1053621867,
				"element": "C" 
			},
			{
				"x": 4.0747252729,
				"y": 1.158857011,
				"z": 1.4311307155,
				"element": "C" 
			},
			{
				"x": 2.959113417,
				"y": 0.5216029423,
				"z": 1.9630020056,
				"element": "C" 
			},
			{
				"x": -2.9243685209,
				"y": 1.4647094786,
				"z": 0.6093730051,
				"element": "H" 
			},
			{
				"x": -3.3050656003,
				"y": -0.0126352874,
				"z": 1.5247355889,
				"element": "H" 
			},
			{
				"x": -4.2205694753,
				"y": 0.3909017302,
				"z": 0.0564838391,
				"element": "H" 
			},
			{
				"x": -3.5475721491,
				"y": -1.9638706493,
				"z": -0.9505813968,
				"element": "H" 
			},
			{
				"x": -1.8272272601,
				"y": -2.3806973256,
				"z": -1.0216259512,
				"element": "H" 
			},
			{
				"x": -2.6568173606,
				"y": -2.3035484108,
				"z": 0.5496653383,
				"element": "H" 
			},
			{
				"x": -3.0826945161,
				"y": 0.2233691146,
				"z": -2.2419754921,
				"element": "H" 
			},
			{
				"x": -1.3836073053,
				"y": -0.2738706433,
				"z": -2.3370842613,
				"element": "H" 
			},
			{
				"x": -1.8085571502,
				"y": 1.3121629741,
				"z": -1.658771888,
				"element": "H" 
			},
			{
				"x": 0.9136324669,
				"y": -0.6824379014,
				"z": 2.7405994724,
				"element": "H" 
			},
			{
				"x": 0.9542636297,
				"y": 0.5615839425,
				"z": -0.7821909946,
				"element": "H" 
			},
			{
				"x": 3.9353067507,
				"y": 1.8785496331,
				"z": -2.5409011208,
				"element": "H" 
			},
			{
				"x": 2.3121300817,
				"y": 1.1778655998,
				"z": -2.745969009,
				"element": "H" 
			},
			{
				"x": 4.9446112106,
				"y": 2.0946410127,
				"z": -0.3087021559,
				"element": "H" 
			},
			{
				"x": 4.9471187385,
				"y": 1.318696598,
				"z": 2.05771099,
				"element": "H" 
			},
			{
				"x": 2.9669842111,
				"y": 0.1908943409,
				"z": 2.9988593894,
				"element": "H" 
			}
		],
		 "valence_orbital": [ 
			{
				"type": "occ",
				"energy": -0.29338,
				"method": "rhf"
			},
			{
				"type": "occ",
				"energy": -0.291,
				"method": "rhf"
			},
			{
				"type": "occ",
				"energy": -0.27418,
				"method": "rhf"
			},
			{
				"type": "occ",
				"energy": -0.25606,
				"method": "rhf"
			},
			{
				"type": "occ",
				"energy": -0.22316,
				"method": "rhf"
			},
			{
				"type": "unocc",
				"energy": -0.02945,
				"method": "rhf"
			},
			{
				"type": "unocc",
				"energy": -0.01037,
				"method": "rhf"
			},
			{
				"type": "unocc",
				"energy": 0.03927,
				"method": "rhf"
			},
			{
				"type": "unocc",
				"energy": 0.06239,
				"method": "rhf"
			},
			{
				"type": "unocc",
				"energy": 0.0715,
				"method": "rhf"
			}
		],
		"cosmo_sigma_profile": { 
			"-0.025": 0.0,
			"-0.024": 0.0,
			"-0.023": 0.0,
			"-0.022": 0.0,
			"-0.021": 0.0,
			"-0.02": 0.0,
			"-0.019": 0.0,
			"-0.018": 0.0,
			"-0.017": 0.0,
			"-0.016": 0.0,
			"-0.015": 0.227612540966,
			"-0.014": 1.2205684857,
			"-0.013": 1.1256016797,
			"-0.012": 1.21592669192,
			"-0.011": 1.04992644957,
			"-0.01": 1.24384915166,
			"-0.009": 1.18365170552,
			"-0.008": 1.95375925687,
			"-0.007": 7.76332396174,
			"-0.006": 11.2354460557,
			"-0.005": 12.1546077618,
			"-0.004": 22.6577644026,
			"-0.003": 24.548599344,
			"-0.002": 22.8169425,
			"-0.001": 26.9476174397,
			"0.0": 32.7417244394,
			"0.001": 24.8444627793,
			"0.002": 17.0506709815,
			"0.003": 14.8682706963,
			"0.004": 15.9777762789,
			"0.005": 15.7342132282,
			"0.006": 10.7808079844,
			"0.007": 10.497044508,
			"0.008": 1.58475954148,
			"0.009": 1.42330728753,
			"0.01": 1.3421969598,
			"0.011": 1.60807663257,
			"0.012": 2.37071710312,
			"0.013": 3.25987356405,
			"0.014": 0.251443470121,
			"0.015": 0.0,
			"0.016": 0.0,
			"0.017": 0.0,
			"0.018": 0.0,
			"0.019": 0.0,
			"0.02": 0.0,
			"0.021": 0.0,
			"0.022": 0.0,
			"0.023": 0.0,
			"0.024": 0.0,
			"0.025": 0.0
		}
	}
}
