{
	 "smiles": "CCNC1=NC(OC)=NC(NC(C)CC)=N1", 
	 "Tm": 360.15, 
	 "num_atms": 35, 
	 "gaussian": { 
		 "optdone": 1, 
		 "sigma_profile": "yes", 
		 "theory": "DFT", 
		 "functional": "B3LYP", 
		 "basiset": "6-31G**", 
		 "properties": { 
			 "R2extent": 5531.7139, 
			 "electric_dipole_moment_norm": 2.23786828477, 
			 "electric_quadrupole_moment_norm": 10.7034211171, 
			 "total_energy": -741.555276922, 
			 "HOMO_LUMO_gap": 0.23742, 
			 "cosmo_polarized_energy": -12.72, 
			 "cosmo_cavitation_energy": 37.62, 
			 "cosmo_dispersion_energy": -26.65, 
			 "cosmo_repulsion_energy": 2.18, 
			 "cosmo_total_nonelectrostatic_energy": 13.14, 
			 "SMD_solvation_energy": 3.77 
		},
		"coords": [
			{
				"x": -4.505642423,
				"y": -1.7453612805,
				"z": -0.8121509979,
				"element": "C" 
			},
			{
				"x": -3.6475757751,
				"y": -2.4612004132,
				"z": 0.2364271582,
				"element": "C" 
			},
			{
				"x": -2.2347206382,
				"y": -2.1170680524,
				"z": 0.1676482229,
				"element": "N" 
			},
			{
				"x": -1.6801068578,
				"y": -1.0309997373,
				"z": 0.7626771852,
				"element": "C" 
			},
			{
				"x": -2.4570982236,
				"y": -0.2881359497,
				"z": 1.568700665,
				"element": "N" 
			},
			{
				"x": -1.810580526,
				"y": 0.7393602409,
				"z": 2.1255850583,
				"element": "C" 
			},
			{
				"x": -2.5770298036,
				"y": 1.4816956276,
				"z": 2.9401536547,
				"element": "O" 
			},
			{
				"x": -1.9632323784,
				"y": 2.6055638434,
				"z": 3.5757490721,
				"element": "C" 
			},
			{
				"x": -0.5381309761,
				"y": 1.0830630382,
				"z": 1.9538882933,
				"element": "N" 
			},
			{
				"x": 0.1353498072,
				"y": 0.2593948501,
				"z": 1.1103725941,
				"element": "C" 
			},
			{
				"x": 1.4332993804,
				"y": 0.5841819404,
				"z": 0.8875229636,
				"element": "N" 
			},
			{
				"x": 2.3644027882,
				"y": -0.1847870777,
				"z": 0.0635840572,
				"element": "C" 
			},
			{
				"x": 3.4222439723,
				"y": 0.7641455654,
				"z": -0.5093621351,
				"element": "C" 
			},
			{
				"x": 2.9644890759,
				"y": -1.387714694,
				"z": 0.8267193779,
				"element": "C" 
			},
			{
				"x": 3.7939160583,
				"y": -1.0293106208,
				"z": 2.0640302282,
				"element": "C" 
			},
			{
				"x": -0.3743915454,
				"y": -0.8115436439,
				"z": 0.492100187,
				"element": "N" 
			},
			{
				"x": -4.4521551509,
				"y": -0.6630123823,
				"z": -0.667203406,
				"element": "H" 
			},
			{
				"x": -4.1684759772,
				"y": -1.9768389102,
				"z": -1.8283860925,
				"element": "H" 
			},
			{
				"x": -5.5533670743,
				"y": -2.0527803542,
				"z": -0.7236034697,
				"element": "H" 
			},
			{
				"x": -3.9974028036,
				"y": -2.2065637062,
				"z": 1.2390430006,
				"element": "H" 
			},
			{
				"x": -3.7283602035,
				"y": -3.5478047551,
				"z": 0.1205283302,
				"element": "H" 
			},
			{
				"x": -1.6365528414,
				"y": -2.585004272,
				"z": -0.4966256311,
				"element": "H" 
			},
			{
				"x": -2.7504499603,
				"y": 3.0595770108,
				"z": 4.1794317281,
				"element": "H" 
			},
			{
				"x": -1.5895403251,
				"y": 3.3215942891,
				"z": 2.8385061763,
				"element": "H" 
			},
			{
				"x": -1.1298152389,
				"y": 2.2939927052,
				"z": 4.2115794711,
				"element": "H" 
			},
			{
				"x": 1.7696320286,
				"y": 1.3731324949,
				"z": 1.4195341703,
				"element": "H" 
			},
			{
				"x": 1.7725431002,
				"y": -0.5919315571,
				"z": -0.7619060047,
				"element": "H" 
			},
			{
				"x": 3.994749138,
				"y": 1.2595235109,
				"z": 0.2832601585,
				"element": "H" 
			},
			{
				"x": 4.1323933924,
				"y": 0.212658942,
				"z": -1.1328403333,
				"element": "H" 
			},
			{
				"x": 2.9555410458,
				"y": 1.540041951,
				"z": -1.1233053339,
				"element": "H" 
			},
			{
				"x": 3.5786098974,
				"y": -1.9635192979,
				"z": 0.1214355504,
				"element": "H" 
			},
			{
				"x": 2.1315867678,
				"y": -2.0372900919,
				"z": 1.1170065144,
				"element": "H" 
			},
			{
				"x": 4.6870930645,
				"y": -0.4485232465,
				"z": 1.8097356365,
				"element": "H" 
			},
			{
				"x": 3.2046026444,
				"y": -0.4461854314,
				"z": 2.7799039469,
				"element": "H" 
			},
			{
				"x": 4.1304765608,
				"y": -1.9347505359,
				"z": 2.5786600032,
				"element": "H" 
			}
		],
		 "valence_orbital": [ 
			{
				"type": "occ",
				"energy": -0.26088,
				"method": "rhf"
			},
			{
				"type": "occ",
				"energy": -0.25431,
				"method": "rhf"
			},
			{
				"type": "occ",
				"energy": -0.24903,
				"method": "rhf"
			},
			{
				"type": "occ",
				"energy": -0.22725,
				"method": "rhf"
			},
			{
				"type": "occ",
				"energy": -0.22138,
				"method": "rhf"
			},
			{
				"type": "unocc",
				"energy": 0.01604,
				"method": "rhf"
			},
			{
				"type": "unocc",
				"energy": 0.01964,
				"method": "rhf"
			},
			{
				"type": "unocc",
				"energy": 0.08195,
				"method": "rhf"
			},
			{
				"type": "unocc",
				"energy": 0.09549,
				"method": "rhf"
			},
			{
				"type": "unocc",
				"energy": 0.11111,
				"method": "rhf"
			}
		],
		"cosmo_sigma_profile": { 
			"-0.025": 0.0,
			"-0.024": 0.0,
			"-0.023": 0.0,
			"-0.022": 0.0,
			"-0.021": 0.0,
			"-0.02": 0.0,
			"-0.019": 0.0,
			"-0.018": 0.0,
			"-0.017": 0.0,
			"-0.016": 0.0,
			"-0.015": 0.0,
			"-0.014": 0.0664666507334,
			"-0.013": 0.922033172594,
			"-0.012": 2.35078307056,
			"-0.011": 1.57681914207,
			"-0.01": 0.850507524655,
			"-0.009": 1.98083437486,
			"-0.008": 2.01167793032,
			"-0.007": 2.30064836675,
			"-0.006": 4.84101819432,
			"-0.005": 10.4522774063,
			"-0.004": 15.859611064,
			"-0.003": 34.4668537821,
			"-0.002": 34.6176853795,
			"-0.001": 34.8938499363,
			"0.0": 35.9153873612,
			"0.001": 34.0348402074,
			"0.002": 16.5234870114,
			"0.003": 9.33849736162,
			"0.004": 10.1093471856,
			"0.005": 7.52862213644,
			"0.006": 5.78379560789,
			"0.007": 5.10394962714,
			"0.008": 4.70918758435,
			"0.009": 4.95583763715,
			"0.01": 4.38034025793,
			"0.011": 2.86022716298,
			"0.012": 1.9076936351,
			"0.013": 1.54253523874,
			"0.014": 1.35242544316,
			"0.015": 0.597353358267,
			"0.016": 0.0775402374432,
			"0.017": 0.0,
			"0.018": 0.0,
			"0.019": 0.0,
			"0.02": 0.0,
			"0.021": 0.0,
			"0.022": 0.0,
			"0.023": 0.0,
			"0.024": 0.0,
			"0.025": 0.0
		}
	}
}
