{
	 "smiles": "CCC1=CC=CC(N)=C1", 
	 "Tm": 265.15, 
	 "num_atms": 20, 
	 "gaussian": { 
		 "optdone": 1, 
		 "sigma_profile": "yes", 
		 "theory": "DFT", 
		 "functional": "B3LYP", 
		 "basiset": "6-31G**", 
		 "properties": { 
			 "R2extent": 1651.1389, 
			 "electric_dipole_moment_norm": 1.62341895394, 
			 "electric_quadrupole_moment_norm": 8.5365554927, 
			 "total_energy": -366.245763284, 
			 "HOMO_LUMO_gap": 0.20572, 
			 "cosmo_polarized_energy": -7.56, 
			 "cosmo_cavitation_energy": 22.9, 
			 "cosmo_dispersion_energy": -16.77, 
			 "cosmo_repulsion_energy": 1.4, 
			 "cosmo_total_nonelectrostatic_energy": 7.52, 
			 "SMD_solvation_energy": 3.84 
		},
		"coords": [
			{
				"x": 1.4352992167,
				"y": -2.3717903547,
				"z": -2.7502766584,
				"element": "C" 
			},
			{
				"x": 1.1535285313,
				"y": -2.4388921318,
				"z": -1.2385612524,
				"element": "C" 
			},
			{
				"x": 0.0440202029,
				"y": -1.503016542,
				"z": -0.8040950699,
				"element": "C" 
			},
			{
				"x": -1.2939909686,
				"y": -1.9202837679,
				"z": -0.8280507136,
				"element": "C" 
			},
			{
				"x": -2.306634837,
				"y": -1.0315929021,
				"z": -0.4653337278,
				"element": "C" 
			},
			{
				"x": -2.0088554042,
				"y": 0.2723149336,
				"z": -0.0770220981,
				"element": "C" 
			},
			{
				"x": -0.6734852959,
				"y": 0.7077473821,
				"z": -0.044867696,
				"element": "C" 
			},
			{
				"x": -0.3524573491,
				"y": 1.9934083364,
				"z": 0.4030384593,
				"element": "N" 
			},
			{
				"x": 0.3389253483,
				"y": -0.1940974828,
				"z": -0.4120423408,
				"element": "C" 
			},
			{
				"x": 1.7340932869,
				"y": -1.3614136001,
				"z": -3.0482967107,
				"element": "H" 
			},
			{
				"x": 2.2385305395,
				"y": -3.0610695914,
				"z": -3.0323216094,
				"element": "H" 
			},
			{
				"x": 0.5427101636,
				"y": -2.6356889882,
				"z": -3.3266897545,
				"element": "H" 
			},
			{
				"x": 2.0722903717,
				"y": -2.1998122761,
				"z": -0.6895010743,
				"element": "H" 
			},
			{
				"x": 0.8882506313,
				"y": -3.4678993907,
				"z": -0.9677653503,
				"element": "H" 
			},
			{
				"x": -1.538648226,
				"y": -2.9362883152,
				"z": -1.1261678412,
				"element": "H" 
			},
			{
				"x": -3.3434132859,
				"y": -1.3572674592,
				"z": -0.4821878582,
				"element": "H" 
			},
			{
				"x": -2.8045731133,
				"y": 0.9547313411,
				"z": 0.2119687979,
				"element": "H" 
			},
			{
				"x": -1.0922143474,
				"y": 2.6750064086,
				"z": 0.3022899372,
				"element": "H" 
			},
			{
				"x": 0.5313822098,
				"y": 2.3519151333,
				"z": 0.0679220431,
				"element": "H" 
			},
			{
				"x": 1.3766423252,
				"y": 0.134289267,
				"z": -0.3812394821,
				"element": "H" 
			}
		],
		 "valence_orbital": [ 
			{
				"type": "occ",
				"energy": -0.33067,
				"method": "rhf"
			},
			{
				"type": "occ",
				"energy": -0.31983,
				"method": "rhf"
			},
			{
				"type": "occ",
				"energy": -0.29525,
				"method": "rhf"
			},
			{
				"type": "occ",
				"energy": -0.23258,
				"method": "rhf"
			},
			{
				"type": "occ",
				"energy": -0.19554,
				"method": "rhf"
			},
			{
				"type": "unocc",
				"energy": 0.01018,
				"method": "rhf"
			},
			{
				"type": "unocc",
				"energy": 0.0243,
				"method": "rhf"
			},
			{
				"type": "unocc",
				"energy": 0.08532,
				"method": "rhf"
			},
			{
				"type": "unocc",
				"energy": 0.10236,
				"method": "rhf"
			},
			{
				"type": "unocc",
				"energy": 0.12053,
				"method": "rhf"
			}
		],
		"cosmo_sigma_profile": { 
			"-0.025": 0.0,
			"-0.024": 0.0,
			"-0.023": 0.0,
			"-0.022": 0.0,
			"-0.021": 0.0,
			"-0.02": 0.0,
			"-0.019": 0.0,
			"-0.018": 0.0,
			"-0.017": 0.0,
			"-0.016": 0.0,
			"-0.015": 0.0,
			"-0.014": 0.0,
			"-0.013": 0.0,
			"-0.012": 1.52090897459,
			"-0.011": 2.92620154619,
			"-0.01": 2.62041395487,
			"-0.009": 3.01775188671,
			"-0.008": 3.29536847239,
			"-0.007": 2.38995814806,
			"-0.006": 3.29357048215,
			"-0.005": 5.64567868744,
			"-0.004": 8.9257404825,
			"-0.003": 16.4247715352,
			"-0.002": 17.9449731645,
			"-0.001": 18.2660573675,
			"0.0": 19.5709844857,
			"0.001": 15.3467450987,
			"0.002": 9.94073113234,
			"0.003": 7.83771900896,
			"0.004": 6.35501667542,
			"0.005": 6.92094121638,
			"0.006": 8.05225695152,
			"0.007": 9.22964454213,
			"0.008": 5.07913748336,
			"0.009": 0.866812114268,
			"0.01": 0.993825568041,
			"0.011": 0.636925750062,
			"0.012": 0.79480249514,
			"0.013": 0.49355448715,
			"0.014": 0.778265982302,
			"0.015": 0.480464441647,
			"0.016": 0.0370857138226,
			"0.017": 0.0,
			"0.018": 0.0,
			"0.019": 0.0,
			"0.02": 0.0,
			"0.021": 0.0,
			"0.022": 0.0,
			"0.023": 0.0,
			"0.024": 0.0,
			"0.025": 0.0
		}
	}
}
