{
	 "smiles": "OC(=O)C1=CN=C(S1)C1=COC=C1", 
	 "Tm": 500.15, 
	 "num_atms": 18, 
	 "gaussian": { 
		 "optdone": 1, 
		 "sigma_profile": "yes", 
		 "theory": "DFT", 
		 "functional": "B3LYP", 
		 "basiset": "6-31G**", 
		 "properties": { 
			 "R2extent": 3681.5869, 
			 "electric_dipole_moment_norm": 5.44954753076, 
			 "electric_quadrupole_moment_norm": 18.2871012626, 
			 "total_energy": -986.441269241, 
			 "HOMO_LUMO_gap": 0.15785, 
			 "cosmo_polarized_energy": -15.37, 
			 "cosmo_cavitation_energy": 25.58, 
			 "cosmo_dispersion_energy": -19.42, 
			 "cosmo_repulsion_energy": 1.46, 
			 "cosmo_total_nonelectrostatic_energy": 7.62, 
			 "SMD_solvation_energy": 5.34 
		},
		"coords": [
			{
				"x": 3.1349038013,
				"y": 0.4129208325,
				"z": 3.5807479243,
				"element": "O" 
			},
			{
				"x": 2.2724698327,
				"y": -0.6092151117,
				"z": 3.3386040873,
				"element": "C" 
			},
			{
				"x": 2.1000872563,
				"y": -1.4672238313,
				"z": 4.1730423054,
				"element": "O" 
			},
			{
				"x": 1.5678790742,
				"y": -0.6262504289,
				"z": 2.0381172223,
				"element": "C" 
			},
			{
				"x": 0.669130795,
				"y": -1.5951541263,
				"z": 1.657192265,
				"element": "C" 
			},
			{
				"x": 0.1078763657,
				"y": -1.4632126287,
				"z": 0.4248565763,
				"element": "N" 
			},
			{
				"x": 0.5481805875,
				"y": -0.3919710663,
				"z": -0.1934142317,
				"element": "C" 
			},
			{
				"x": 1.7175283763,
				"y": 0.5414351272,
				"z": 0.7437613063,
				"element": "S" 
			},
			{
				"x": 0.1355946273,
				"y": 0.0171036622,
				"z": -1.5206002465,
				"element": "C" 
			},
			{
				"x": -0.7655239964,
				"y": -0.6566652388,
				"z": -2.3063729992,
				"element": "C" 
			},
			{
				"x": -0.9342431781,
				"y": -0.0170982848,
				"z": -3.4858390448,
				"element": "O" 
			},
			{
				"x": -0.1302567996,
				"y": 1.0893144126,
				"z": -3.465926283,
				"element": "C" 
			},
			{
				"x": 0.5472930367,
				"y": 1.1636987833,
				"z": -2.2923994878,
				"element": "C" 
			},
			{
				"x": 3.1821096356,
				"y": 1.0301871807,
				"z": 2.8370026708,
				"element": "H" 
			},
			{
				"x": 0.4062541412,
				"y": -2.4321609497,
				"z": 2.2927778659,
				"element": "H" 
			},
			{
				"x": -1.331323263,
				"y": -1.5609764534,
				"z": -2.1509080471,
				"element": "H" 
			},
			{
				"x": -0.1578222055,
				"y": 1.7065332735,
				"z": -4.3498177174,
				"element": "H" 
			},
			{
				"x": 1.2509619128,
				"y": 1.9314348478,
				"z": -2.0044241664,
				"element": "H" 
			}
		],
		 "valence_orbital": [ 
			{
				"type": "occ",
				"energy": -0.30584,
				"method": "rhf"
			},
			{
				"type": "occ",
				"energy": -0.29561,
				"method": "rhf"
			},
			{
				"type": "occ",
				"energy": -0.2811,
				"method": "rhf"
			},
			{
				"type": "occ",
				"energy": -0.27039,
				"method": "rhf"
			},
			{
				"type": "occ",
				"energy": -0.23711,
				"method": "rhf"
			},
			{
				"type": "unocc",
				"energy": -0.07926,
				"method": "rhf"
			},
			{
				"type": "unocc",
				"energy": -0.02024,
				"method": "rhf"
			},
			{
				"type": "unocc",
				"energy": -0.01856,
				"method": "rhf"
			},
			{
				"type": "unocc",
				"energy": 0.00737,
				"method": "rhf"
			},
			{
				"type": "unocc",
				"energy": 0.05068,
				"method": "rhf"
			}
		],
		"cosmo_sigma_profile": { 
			"-0.025": 0.0,
			"-0.024": 0.0,
			"-0.023": 0.0,
			"-0.022": 0.0,
			"-0.021": 0.0,
			"-0.02": 0.0,
			"-0.019": 0.0750708574043,
			"-0.018": 1.00582514751,
			"-0.017": 0.727115400524,
			"-0.016": 1.10127327444,
			"-0.015": 0.766459863965,
			"-0.014": 0.860488263487,
			"-0.013": 1.36644892676,
			"-0.012": 1.61793738876,
			"-0.011": 0.547339115485,
			"-0.01": 2.54016528136,
			"-0.009": 4.63402504552,
			"-0.008": 8.21714416846,
			"-0.007": 7.53930673158,
			"-0.006": 7.42630510984,
			"-0.005": 7.00823297485,
			"-0.004": 9.10046064434,
			"-0.003": 7.96793247346,
			"-0.002": 13.0208504044,
			"-0.001": 16.6789020636,
			"0.0": 20.3622615351,
			"0.001": 20.6478561768,
			"0.002": 16.5212482034,
			"0.003": 10.3057917395,
			"0.004": 6.65434833659,
			"0.005": 5.29048496112,
			"0.006": 4.66285524392,
			"0.007": 5.75806898158,
			"0.008": 3.98019689063,
			"0.009": 4.63844845943,
			"0.01": 5.82715054788,
			"0.011": 6.62202481499,
			"0.012": 4.44351084311,
			"0.013": 1.18706454219,
			"0.014": 0.0,
			"0.015": 0.0,
			"0.016": 0.0,
			"0.017": 0.0,
			"0.018": 0.0,
			"0.019": 0.0,
			"0.02": 0.0,
			"0.021": 0.0,
			"0.022": 0.0,
			"0.023": 0.0,
			"0.024": 0.0,
			"0.025": 0.0
		}
	}
}
