{
	 "smiles": "CC1=C(C)C(OC2=NC=CC=C2[N+]([O-])=O)=CC=C1", 
	 "Tm": 485.15, 
	 "num_atms": 30, 
	 "gaussian": { 
		 "optdone": 1, 
		 "sigma_profile": "yes", 
		 "theory": "DFT", 
		 "functional": "B3LYP", 
		 "basiset": "6-31G**", 
		 "properties": { 
			 "R2extent": 5841.1454, 
			 "electric_dipole_moment_norm": 4.21076200942, 
			 "electric_quadrupole_moment_norm": 27.6104095716, 
			 "total_energy": -837.684101528, 
			 "HOMO_LUMO_gap": 0.14988, 
			 "cosmo_polarized_energy": -12.19, 
			 "cosmo_cavitation_energy": 34.95, 
			 "cosmo_dispersion_energy": -24.4, 
			 "cosmo_repulsion_energy": 1.89, 
			 "cosmo_total_nonelectrostatic_energy": 12.44, 
			 "SMD_solvation_energy": 7.5 
		},
		"coords": [
			{
				"x": 1.6565180005,
				"y": -0.3685959722,
				"z": -3.5685730521,
				"element": "C" 
			},
			{
				"x": 1.8630954153,
				"y": -0.3370881094,
				"z": -2.0726774062,
				"element": "C" 
			},
			{
				"x": 1.2417839044,
				"y": 0.6609790538,
				"z": -1.2882891107,
				"element": "C" 
			},
			{
				"x": 0.3707461823,
				"y": 1.723339497,
				"z": -1.913640748,
				"element": "C" 
			},
			{
				"x": 1.4654017036,
				"y": 0.6301756065,
				"z": 0.0912610149,
				"element": "C" 
			},
			{
				"x": 0.9231518305,
				"y": 1.6701683336,
				"z": 0.8673953334,
				"element": "O" 
			},
			{
				"x": -0.1515839668,
				"y": 1.4479041883,
				"z": 1.642043639,
				"element": "C" 
			},
			{
				"x": -0.6554145524,
				"y": 0.2218097955,
				"z": 1.7338315031,
				"element": "N" 
			},
			{
				"x": -1.6869676501,
				"y": 0.0039882855,
				"z": 2.5553502065,
				"element": "C" 
			},
			{
				"x": -2.2636665559,
				"y": 0.9902632076,
				"z": 3.3540298455,
				"element": "C" 
			},
			{
				"x": -1.7483647701,
				"y": 2.2792974259,
				"z": 3.2578642891,
				"element": "C" 
			},
			{
				"x": -0.6989736862,
				"y": 2.5267246982,
				"z": 2.3791131571,
				"element": "C" 
			},
			{
				"x": -0.2288983812,
				"y": 3.9093763806,
				"z": 2.2500408332,
				"element": "N" 
			},
			{
				"x": 0.3053505573,
				"y": 4.2490755746,
				"z": 1.1978705418,
				"element": "O" 
			},
			{
				"x": -0.4327328012,
				"y": 4.6563364863,
				"z": 3.2099142179,
				"element": "O" 
			},
			{
				"x": 2.2794498292,
				"y": -0.3146953172,
				"z": 0.7090594467,
				"element": "C" 
			},
			{
				"x": 2.8870887859,
				"y": -1.2875693486,
				"z": -0.0772605639,
				"element": "C" 
			},
			{
				"x": 2.6733618306,
				"y": -1.2960710355,
				"z": -1.4563751207,
				"element": "C" 
			},
			{
				"x": 2.1718406039,
				"y": -1.2216206069,
				"z": -4.0172702617,
				"element": "H" 
			},
			{
				"x": 0.5942698325,
				"y": -0.4426785989,
				"z": -3.8296184982,
				"element": "H" 
			},
			{
				"x": 2.0363154127,
				"y": 0.5410424556,
				"z": -4.0495785807,
				"element": "H" 
			},
			{
				"x": 0.1414147676,
				"y": 2.5181255576,
				"z": -1.2031778832,
				"element": "H" 
			},
			{
				"x": -0.5753346424,
				"y": 1.2993863317,
				"z": -2.2737665757,
				"element": "H" 
			},
			{
				"x": 0.8642216592,
				"y": 2.1775792888,
				"z": -2.7791615326,
				"element": "H" 
			},
			{
				"x": -2.0664530214,
				"y": -1.0157453464,
				"z": 2.5740552717,
				"element": "H" 
			},
			{
				"x": -3.0898996866,
				"y": 0.7607201354,
				"z": 4.0169113751,
				"element": "H" 
			},
			{
				"x": -2.1415225058,
				"y": 3.1060118509,
				"z": 3.8374470568,
				"element": "H" 
			},
			{
				"x": 2.4251689143,
				"y": -0.2775473346,
				"z": 1.7829327385,
				"element": "H" 
			},
			{
				"x": 3.5249535949,
				"y": -2.0366583698,
				"z": 0.3820165476,
				"element": "H" 
			},
			{
				"x": 3.1480793957,
				"y": -2.0579341139,
				"z": -2.0689476842,
				"element": "H" 
			}
		],
		 "valence_orbital": [ 
			{
				"type": "occ",
				"energy": -0.28924,
				"method": "rhf"
			},
			{
				"type": "occ",
				"energy": -0.28405,
				"method": "rhf"
			},
			{
				"type": "occ",
				"energy": -0.26268,
				"method": "rhf"
			},
			{
				"type": "occ",
				"energy": -0.23983,
				"method": "rhf"
			},
			{
				"type": "occ",
				"energy": -0.23846,
				"method": "rhf"
			},
			{
				"type": "unocc",
				"energy": -0.08858,
				"method": "rhf"
			},
			{
				"type": "unocc",
				"energy": -0.03559,
				"method": "rhf"
			},
			{
				"type": "unocc",
				"energy": -0.01248,
				"method": "rhf"
			},
			{
				"type": "unocc",
				"energy": -0.00142,
				"method": "rhf"
			},
			{
				"type": "unocc",
				"energy": 0.00347,
				"method": "rhf"
			}
		],
		"cosmo_sigma_profile": { 
			"-0.025": 0.0,
			"-0.024": 0.0,
			"-0.023": 0.0,
			"-0.022": 0.0,
			"-0.021": 0.0,
			"-0.02": 0.0,
			"-0.019": 0.0,
			"-0.018": 0.0,
			"-0.017": 0.0,
			"-0.016": 0.0,
			"-0.015": 0.0,
			"-0.014": 0.0,
			"-0.013": 0.0,
			"-0.012": 0.0,
			"-0.011": 0.0,
			"-0.01": 0.0,
			"-0.009": 0.935542629873,
			"-0.008": 5.78744183065,
			"-0.007": 9.09930113753,
			"-0.006": 11.5244501982,
			"-0.005": 15.0378611514,
			"-0.004": 24.1259074452,
			"-0.003": 24.6190739571,
			"-0.002": 25.4833446656,
			"-0.001": 26.791078342,
			"0.0": 28.8986662125,
			"0.001": 18.0927585253,
			"0.002": 12.4345276138,
			"0.003": 11.5885556121,
			"0.004": 11.167755225,
			"0.005": 12.4472816452,
			"0.006": 10.1307892601,
			"0.007": 8.72109892435,
			"0.008": 9.46817583052,
			"0.009": 6.69713147767,
			"0.01": 3.49431133769,
			"0.011": 1.33533317022,
			"0.012": 0.999883726141,
			"0.013": 0.541344755026,
			"0.014": 0.0371494168154,
			"0.015": 0.0,
			"0.016": 0.0,
			"0.017": 0.0,
			"0.018": 0.0,
			"0.019": 0.0,
			"0.02": 0.0,
			"0.021": 0.0,
			"0.022": 0.0,
			"0.023": 0.0,
			"0.024": 0.0,
			"0.025": 0.0
		}
	}
}
