{
	 "smiles": "OC(=O)C1=C(Cl)C=C(I)C=C1", 
	 "Tm": 433.15, 
	 "num_atms": 15, 
	 "gaussian": { 
		 "optdone": 1, 
		 "sigma_profile": "yes", 
		 "theory": "DFT", 
		 "functional": "B3LYP", 
		 "basiset": "6-31G**", 
		 "properties": { 
			 "R2extent": 2480.5226, 
			 "electric_dipole_moment_norm": 0.167025117872, 
			 "electric_quadrupole_moment_norm": 7.02500215943, 
			 "total_energy": -891.188747083, 
			 "HOMO_LUMO_gap": 0.18786, 
			 "cosmo_polarized_energy": -8.78, 
			 "cosmo_cavitation_energy": 24.92, 
			 "cosmo_dispersion_energy": -20.09, 
			 "cosmo_repulsion_energy": 1.58, 
			 "cosmo_total_nonelectrostatic_energy": 6.41, 
			 "SMD_solvation_energy": 4.43 
		},
		"coords": [
			{
				"x": 1.2895812656,
				"y": -1.4649752738,
				"z": -2.5262896921,
				"element": "O" 
			},
			{
				"x": 0.3859518425,
				"y": -1.4217992676,
				"z": -1.5302622373,
				"element": "C" 
			},
			{
				"x": -0.507135018,
				"y": -2.2426142499,
				"z": -1.4369158364,
				"element": "O" 
			},
			{
				"x": 0.5583668083,
				"y": -0.2995896391,
				"z": -0.5533873182,
				"element": "C" 
			},
			{
				"x": 1.5419951499,
				"y": 0.7094194081,
				"z": -0.5502740015,
				"element": "C" 
			},
			{
				"x": 2.8102105722,
				"y": 0.8451579579,
				"z": -1.7497308358,
				"element": "Cl" 
			},
			{
				"x": 1.5564086605,
				"y": 1.6905044591,
				"z": 0.4474667213,
				"element": "C" 
			},
			{
				"x": 0.5902693051,
				"y": 1.6735299599,
				"z": 1.4502887344,
				"element": "C" 
			},
			{
				"x": 0.6290878478,
				"y": 3.1647710679,
				"z": 2.9490727374,
				"element": "I" 
			},
			{
				"x": -0.398110126,
				"y": 0.6871690031,
				"z": 1.4756287506,
				"element": "C" 
			},
			{
				"x": -0.3973765943,
				"y": -0.2778664606,
				"z": 0.4783034561,
				"element": "C" 
			},
			{
				"x": 1.0448484416,
				"y": -2.2365985955,
				"z": -3.0650452689,
				"element": "H" 
			},
			{
				"x": 2.3241941853,
				"y": 2.4532957505,
				"z": 0.4241641409,
				"element": "H" 
			},
			{
				"x": -1.1514023309,
				"y": 0.6707244633,
				"z": 2.2542098995,
				"element": "H" 
			},
			{
				"x": -1.1503900096,
				"y": -1.0579285832,
				"z": 0.4678707499,
				"element": "H" 
			}
		],
		 "valence_orbital": [ 
			{
				"type": "occ",
				"energy": -0.30651,
				"method": "rhf"
			},
			{
				"type": "occ",
				"energy": -0.2905,
				"method": "rhf"
			},
			{
				"type": "occ",
				"energy": -0.28177,
				"method": "rhf"
			},
			{
				"type": "occ",
				"energy": -0.26975,
				"method": "rhf"
			},
			{
				"type": "occ",
				"energy": -0.2577,
				"method": "rhf"
			},
			{
				"type": "unocc",
				"energy": -0.06984,
				"method": "rhf"
			},
			{
				"type": "unocc",
				"energy": -0.05431,
				"method": "rhf"
			},
			{
				"type": "unocc",
				"energy": -0.03447,
				"method": "rhf"
			},
			{
				"type": "unocc",
				"energy": 0.0224,
				"method": "rhf"
			},
			{
				"type": "unocc",
				"energy": 0.02958,
				"method": "rhf"
			}
		],
		"cosmo_sigma_profile": { 
			"-0.025": 0.0,
			"-0.024": 0.0,
			"-0.023": 0.0,
			"-0.022": 0.0,
			"-0.021": 0.0,
			"-0.02": 0.0,
			"-0.019": 0.0992012240671,
			"-0.018": 1.18310507174,
			"-0.017": 0.609984286892,
			"-0.016": 0.982558814443,
			"-0.015": 0.773831114632,
			"-0.014": 0.980460859847,
			"-0.013": 0.262354958742,
			"-0.012": 0.272215805254,
			"-0.011": 1.28701187642,
			"-0.01": 0.908174159328,
			"-0.009": 0.376520302072,
			"-0.008": 3.92079396971,
			"-0.007": 6.81941230276,
			"-0.006": 7.41774039607,
			"-0.005": 6.96828082262,
			"-0.004": 8.55808322808,
			"-0.003": 10.5393195743,
			"-0.002": 14.1930941282,
			"-0.001": 16.756472719,
			"0.0": 25.5799884355,
			"0.001": 24.7413819517,
			"0.002": 15.9535329323,
			"0.003": 18.5609207426,
			"0.004": 15.9435953912,
			"0.005": 3.99236489551,
			"0.006": 2.72712349994,
			"0.007": 3.02932766923,
			"0.008": 3.92428807961,
			"0.009": 2.23273657347,
			"0.01": 2.03035140241,
			"0.011": 4.41916248076,
			"0.012": 1.81384863153,
			"0.013": 0.0,
			"0.014": 0.0,
			"0.015": 0.0,
			"0.016": 0.0,
			"0.017": 0.0,
			"0.018": 0.0,
			"0.019": 0.0,
			"0.02": 0.0,
			"0.021": 0.0,
			"0.022": 0.0,
			"0.023": 0.0,
			"0.024": 0.0,
			"0.025": 0.0
		}
	}
}
