{
	 "smiles": "CC1=CC(F)=C(C=C1)S(N)(=O)=O", 
	 "Tm": 412.15, 
	 "num_atms": 20, 
	 "gaussian": { 
		 "optdone": 1, 
		 "sigma_profile": "yes", 
		 "theory": "DFT", 
		 "functional": "B3LYP", 
		 "basiset": "6-31G**", 
		 "properties": { 
			 "R2extent": 4614.5283, 
			 "electric_dipole_moment_norm": 4.15115500795, 
			 "electric_quadrupole_moment_norm": 25.5154262706, 
			 "total_energy": -974.722827844, 
			 "HOMO_LUMO_gap": 0.22072, 
			 "cosmo_polarized_energy": -14.51, 
			 "cosmo_cavitation_energy": 25.89, 
			 "cosmo_dispersion_energy": -19.45, 
			 "cosmo_repulsion_energy": 1.49, 
			 "cosmo_total_nonelectrostatic_energy": 7.93, 
			 "SMD_solvation_energy": 4.55 
		},
		"coords": [
			{
				"x": 1.6964528496,
				"y": 1.0854767448,
				"z": 3.4201772589,
				"element": "C" 
			},
			{
				"x": 0.3613002125,
				"y": 0.9568921609,
				"z": 2.7281754126,
				"element": "C" 
			},
			{
				"x": 0.009921893,
				"y": -0.2435190493,
				"z": 2.0927016496,
				"element": "C" 
			},
			{
				"x": -1.2280326836,
				"y": -0.3636658992,
				"z": 1.4827944912,
				"element": "C" 
			},
			{
				"x": -1.5475470517,
				"y": -1.5183491439,
				"z": 0.8685969954,
				"element": "F" 
			},
			{
				"x": -2.1417034493,
				"y": 0.6905261127,
				"z": 1.4731148287,
				"element": "C" 
			},
			{
				"x": -1.7970591439,
				"y": 1.8886338899,
				"z": 2.0972406811,
				"element": "C" 
			},
			{
				"x": -0.5552236957,
				"y": 2.0167799723,
				"z": 2.7185176867,
				"element": "C" 
			},
			{
				"x": -3.7590245903,
				"y": 0.5073588229,
				"z": 0.7341620461,
				"element": "S" 
			},
			{
				"x": -3.3934474419,
				"y": 0.0879381237,
				"z": -0.8619980173,
				"element": "N" 
			},
			{
				"x": -4.4347616448,
				"y": -0.6204506386,
				"z": 1.3776606815,
				"element": "O" 
			},
			{
				"x": -4.3660354879,
				"y": 1.8405932454,
				"z": 0.6858157053,
				"element": "O" 
			},
			{
				"x": 1.9412413692,
				"y": 2.131151657,
				"z": 3.623027508,
				"element": "H" 
			},
			{
				"x": 2.5022927196,
				"y": 0.6566223515,
				"z": 2.8163140885,
				"element": "H" 
			},
			{
				"x": 1.6918165993,
				"y": 0.5535681505,
				"z": 4.3791917189,
				"element": "H" 
			},
			{
				"x": 0.6895421502,
				"y": -1.0894110129,
				"z": 2.0649832783,
				"element": "H" 
			},
			{
				"x": -2.508051062,
				"y": 2.7072767554,
				"z": 2.0809230726,
				"element": "H" 
			},
			{
				"x": -0.2945924081,
				"y": 2.9543251226,
				"z": 3.2003767287,
				"element": "H" 
			},
			{
				"x": -3.9200769923,
				"y": 0.6941494535,
				"z": -1.4853198133,
				"element": "H" 
			},
			{
				"x": -3.6000121419,
				"y": -0.8940968193,
				"z": -1.0224560016,
				"element": "H" 
			}
		],
		 "valence_orbital": [ 
			{
				"type": "occ",
				"energy": -0.31799,
				"method": "rhf"
			},
			{
				"type": "occ",
				"energy": -0.30701,
				"method": "rhf"
			},
			{
				"type": "occ",
				"energy": -0.29447,
				"method": "rhf"
			},
			{
				"type": "occ",
				"energy": -0.26858,
				"method": "rhf"
			},
			{
				"type": "occ",
				"energy": -0.258,
				"method": "rhf"
			},
			{
				"type": "unocc",
				"energy": -0.03728,
				"method": "rhf"
			},
			{
				"type": "unocc",
				"energy": -0.01718,
				"method": "rhf"
			},
			{
				"type": "unocc",
				"energy": 0.05191,
				"method": "rhf"
			},
			{
				"type": "unocc",
				"energy": 0.06835,
				"method": "rhf"
			},
			{
				"type": "unocc",
				"energy": 0.08555,
				"method": "rhf"
			}
		],
		"cosmo_sigma_profile": { 
			"-0.025": 0.0,
			"-0.024": 0.0,
			"-0.023": 0.0,
			"-0.022": 0.0,
			"-0.021": 0.0,
			"-0.02": 0.0,
			"-0.019": 0.0,
			"-0.018": 0.0,
			"-0.017": 0.0,
			"-0.016": 0.0,
			"-0.015": 1.3069537694,
			"-0.014": 2.32505459407,
			"-0.013": 2.58592312589,
			"-0.012": 2.53859698722,
			"-0.011": 1.48960397174,
			"-0.01": 1.83545901089,
			"-0.009": 1.98194198908,
			"-0.008": 2.43048611803,
			"-0.007": 4.76756856508,
			"-0.006": 8.89787619992,
			"-0.005": 13.1305032386,
			"-0.004": 13.2436559576,
			"-0.003": 12.2877286229,
			"-0.002": 13.683100972,
			"-0.001": 16.9520062515,
			"0.0": 16.5960819193,
			"0.001": 13.8334431974,
			"0.002": 16.2353849448,
			"0.003": 13.2961875949,
			"0.004": 6.24988387559,
			"0.005": 4.10368061309,
			"0.006": 3.16633893872,
			"0.007": 4.3516144167,
			"0.008": 3.66105841005,
			"0.009": 4.38001227644,
			"0.01": 10.040610088,
			"0.011": 8.93463582634,
			"0.012": 1.80216468377,
			"0.013": 0.0,
			"0.014": 0.0,
			"0.015": 0.0,
			"0.016": 0.0,
			"0.017": 0.0,
			"0.018": 0.0,
			"0.019": 0.0,
			"0.02": 0.0,
			"0.021": 0.0,
			"0.022": 0.0,
			"0.023": 0.0,
			"0.024": 0.0,
			"0.025": 0.0
		}
	}
}
