{
	 "smiles": "NC1=C(C=CC(=C1)C(F)(F)F)[N+]([O-])=O", 
	 "Tm": 373.15, 
	 "num_atms": 19, 
	 "gaussian": { 
		 "optdone": 1, 
		 "sigma_profile": "yes", 
		 "theory": "DFT", 
		 "functional": "B3LYP", 
		 "basiset": "6-31G**", 
		 "properties": { 
			 "R2extent": 3390.3171, 
			 "electric_dipole_moment_norm": 2.87800225504, 
			 "electric_quadrupole_moment_norm": 21.3264015931, 
			 "total_energy": -829.144198419, 
			 "HOMO_LUMO_gap": 0.14201, 
			 "cosmo_polarized_energy": -10.89, 
			 "cosmo_cavitation_energy": 25.37, 
			 "cosmo_dispersion_energy": -18.53, 
			 "cosmo_repulsion_energy": 1.39, 
			 "cosmo_total_nonelectrostatic_energy": 8.23, 
			 "SMD_solvation_energy": 7.52 
		},
		"coords": [
			{
				"x": -0.1468313038,
				"y": 0.775010805,
				"z": 2.7121194815,
				"element": "N" 
			},
			{
				"x": -0.3895182915,
				"y": 0.8534457168,
				"z": 1.3826572072,
				"element": "C" 
			},
			{
				"x": -0.7928231566,
				"y": 2.0416175769,
				"z": 0.7113791713,
				"element": "C" 
			},
			{
				"x": -1.0295438203,
				"y": 2.0527355076,
				"z": -0.6733506229,
				"element": "C" 
			},
			{
				"x": -0.8776098819,
				"y": 0.9089371146,
				"z": -1.4282828449,
				"element": "C" 
			},
			{
				"x": -0.4784467179,
				"y": -0.2768329148,
				"z": -0.7815266956,
				"element": "C" 
			},
			{
				"x": -0.2417596601,
				"y": -0.3069900262,
				"z": 0.5771922934,
				"element": "C" 
			},
			{
				"x": -0.3041265872,
				"y": -1.5238155397,
				"z": -1.6123182808,
				"element": "C" 
			},
			{
				"x": 0.0267667846,
				"y": -2.5995579446,
				"z": -0.8678467601,
				"element": "F" 
			},
			{
				"x": -1.4387353983,
				"y": -1.8247141219,
				"z": -2.2801897776,
				"element": "F" 
			},
			{
				"x": 0.6651069996,
				"y": -1.357685061,
				"z": -2.5382889306,
				"element": "F" 
			},
			{
				"x": -0.9792177646,
				"y": 3.2942084725,
				"z": 1.42006807,
				"element": "N" 
			},
			{
				"x": -1.3293456864,
				"y": 4.2845045878,
				"z": 0.779263509,
				"element": "O" 
			},
			{
				"x": -0.7786627993,
				"y": 3.3228090677,
				"z": 2.648891227,
				"element": "O" 
			},
			{
				"x": -0.2550595983,
				"y": 1.6084016419,
				"z": 3.2718156369,
				"element": "H" 
			},
			{
				"x": 0.1369670046,
				"y": -0.1000567965,
				"z": 3.119373109,
				"element": "H" 
			},
			{
				"x": -1.3347282637,
				"y": 2.9894036672,
				"z": -1.1216172178,
				"element": "H" 
			},
			{
				"x": -1.0624623985,
				"y": 0.9196168273,
				"z": -2.4958495798,
				"element": "H" 
			},
			{
				"x": 0.0636305395,
				"y": -1.2330385804,
				"z": 1.0516110048,
				"element": "H" 
			}
		],
		 "valence_orbital": [ 
			{
				"type": "occ",
				"energy": -0.31328,
				"method": "rhf"
			},
			{
				"type": "occ",
				"energy": -0.3124,
				"method": "rhf"
			},
			{
				"type": "occ",
				"energy": -0.2949,
				"method": "rhf"
			},
			{
				"type": "occ",
				"energy": -0.2921,
				"method": "rhf"
			},
			{
				"type": "occ",
				"energy": -0.23664,
				"method": "rhf"
			},
			{
				"type": "unocc",
				"energy": -0.09463,
				"method": "rhf"
			},
			{
				"type": "unocc",
				"energy": -0.02004,
				"method": "rhf"
			},
			{
				"type": "unocc",
				"energy": -0.01293,
				"method": "rhf"
			},
			{
				"type": "unocc",
				"energy": 0.06843,
				"method": "rhf"
			},
			{
				"type": "unocc",
				"energy": 0.08755,
				"method": "rhf"
			}
		],
		"cosmo_sigma_profile": { 
			"-0.025": 0.0,
			"-0.024": 0.0,
			"-0.023": 0.0,
			"-0.022": 0.0,
			"-0.021": 0.0,
			"-0.02": 0.0,
			"-0.019": 0.0,
			"-0.018": 0.0,
			"-0.017": 0.0,
			"-0.016": 0.0855366526995,
			"-0.015": 1.45968686054,
			"-0.014": 1.49204562256,
			"-0.013": 1.46905977911,
			"-0.012": 1.79405441161,
			"-0.011": 1.75263351212,
			"-0.01": 2.27826272492,
			"-0.009": 3.20599514666,
			"-0.008": 2.54005029318,
			"-0.007": 5.49452476259,
			"-0.006": 5.16956549507,
			"-0.005": 7.83209063656,
			"-0.004": 7.18755502239,
			"-0.003": 9.62429777628,
			"-0.002": 12.914056808,
			"-0.001": 13.9793401483,
			"0.0": 19.747796432,
			"0.001": 20.9680919979,
			"0.002": 31.5569946074,
			"0.003": 24.1361970323,
			"0.004": 2.95735564672,
			"0.005": 2.63895828393,
			"0.006": 2.67753323209,
			"0.007": 4.0655285116,
			"0.008": 6.89460385497,
			"0.009": 4.29620634994,
			"0.01": 4.0536870118,
			"0.011": 1.56827896169,
			"0.012": 0.0,
			"0.013": 0.0,
			"0.014": 0.0,
			"0.015": 0.0,
			"0.016": 0.0,
			"0.017": 0.0,
			"0.018": 0.0,
			"0.019": 0.0,
			"0.02": 0.0,
			"0.021": 0.0,
			"0.022": 0.0,
			"0.023": 0.0,
			"0.024": 0.0,
			"0.025": 0.0
		}
	}
}
