{
	 "smiles": "BrC1=CC=C(C=C1)C1=CC=C(S1)C=O", 
	 "Tm": 384.15, 
	 "num_atms": 21, 
	 "gaussian": { 
		 "optdone": 1, 
		 "sigma_profile": "yes", 
		 "theory": "DFT", 
		 "functional": "B3LYP", 
		 "basiset": "6-31G**", 
		 "properties": { 
			 "R2extent": 7814.9871, 
			 "electric_dipole_moment_norm": 3.57541389492, 
			 "electric_quadrupole_moment_norm": 19.3744638558, 
			 "total_energy": -3468.19010465, 
			 "HOMO_LUMO_gap": 0.14754, 
			 "cosmo_polarized_energy": -10.58, 
			 "cosmo_cavitation_energy": 30.13, 
			 "cosmo_dispersion_energy": -22.82, 
			 "cosmo_repulsion_energy": 1.73, 
			 "cosmo_total_nonelectrostatic_energy": 9.04, 
			 "SMD_solvation_energy": 4.64 
		},
		"coords": [
			{
				"x": -0.8379783776,
				"y": -4.8967898128,
				"z": 3.1629741202,
				"element": "Br" 
			},
			{
				"x": -0.3964676163,
				"y": -3.3140032919,
				"z": 2.1937857403,
				"element": "C" 
			},
			{
				"x": -0.4870933863,
				"y": -2.0730808799,
				"z": 2.8229047164,
				"element": "C" 
			},
			{
				"x": -0.1666361212,
				"y": -0.9216114017,
				"z": 2.1092479456,
				"element": "C" 
			},
			{
				"x": 0.2515364517,
				"y": -0.9880562586,
				"z": 0.7679608692,
				"element": "C" 
			},
			{
				"x": 0.3404685502,
				"y": -2.2558531219,
				"z": 0.163566805,
				"element": "C" 
			},
			{
				"x": 0.0158176463,
				"y": -3.4130833132,
				"z": 0.865001511,
				"element": "C" 
			},
			{
				"x": 0.5859128436,
				"y": 0.220579489,
				"z": 0.006143158,
				"element": "C" 
			},
			{
				"x": 0.5229929524,
				"y": 0.3993765744,
				"z": -1.3658800306,
				"element": "C" 
			},
			{
				"x": 0.914778129,
				"y": 1.6931166456,
				"z": -1.7773217223,
				"element": "C" 
			},
			{
				"x": 1.2792115848,
				"y": 2.5089965498,
				"z": -0.7247137415,
				"element": "C" 
			},
			{
				"x": 1.1474315512,
				"y": 1.6715028806,
				"z": 0.799261883,
				"element": "S" 
			},
			{
				"x": 1.7304670375,
				"y": 3.8920950658,
				"z": -0.7845368894,
				"element": "C" 
			},
			{
				"x": 2.0382135081,
				"y": 4.5663921238,
				"z": 0.1841019587,
				"element": "O" 
			},
			{
				"x": -0.8122440425,
				"y": -2.0065045347,
				"z": 3.8547374398,
				"element": "H" 
			},
			{
				"x": -0.2632890797,
				"y": 0.0431783639,
				"z": 2.5980873192,
				"element": "H" 
			},
			{
				"x": 0.6903395223,
				"y": -2.3410016762,
				"z": -0.8601309077,
				"element": "H" 
			},
			{
				"x": 0.0927494186,
				"y": -4.3838078633,
				"z": 0.3887830913,
				"element": "H" 
			},
			{
				"x": 0.174434435,
				"y": -0.3687748926,
				"z": -2.0460939576,
				"element": "H" 
			},
			{
				"x": 0.9226285032,
				"y": 2.0280118216,
				"z": -2.8093066891,
				"element": "H" 
			},
			{
				"x": 1.7766264895,
				"y": 4.3038175322,
				"z": -1.8162726195,
				"element": "H" 
			}
		],
		 "valence_orbital": [ 
			{
				"type": "occ",
				"energy": -0.27791,
				"method": "rhf"
			},
			{
				"type": "occ",
				"energy": -0.27633,
				"method": "rhf"
			},
			{
				"type": "occ",
				"energy": -0.27072,
				"method": "rhf"
			},
			{
				"type": "occ",
				"energy": -0.25986,
				"method": "rhf"
			},
			{
				"type": "occ",
				"energy": -0.23064,
				"method": "rhf"
			},
			{
				"type": "unocc",
				"energy": -0.0831,
				"method": "rhf"
			},
			{
				"type": "unocc",
				"energy": -0.02906,
				"method": "rhf"
			},
			{
				"type": "unocc",
				"energy": -0.0261,
				"method": "rhf"
			},
			{
				"type": "unocc",
				"energy": -0.00195,
				"method": "rhf"
			},
			{
				"type": "unocc",
				"energy": 0.0224,
				"method": "rhf"
			}
		],
		"cosmo_sigma_profile": { 
			"-0.025": 0.0,
			"-0.024": 0.0,
			"-0.023": 0.0,
			"-0.022": 0.0,
			"-0.021": 0.0,
			"-0.02": 0.0,
			"-0.019": 0.0,
			"-0.018": 0.0,
			"-0.017": 0.0,
			"-0.016": 0.0,
			"-0.015": 0.0,
			"-0.014": 0.0,
			"-0.013": 0.0,
			"-0.012": 0.0,
			"-0.011": 0.0,
			"-0.01": 0.0,
			"-0.009": 0.561685533795,
			"-0.008": 7.76397814718,
			"-0.007": 14.1650049593,
			"-0.006": 14.6101077231,
			"-0.005": 12.6470274437,
			"-0.004": 12.480216837,
			"-0.003": 12.7873893546,
			"-0.002": 11.5329770365,
			"-0.001": 15.7839384208,
			"0.0": 18.9340189564,
			"0.001": 27.9660963027,
			"0.002": 36.9703917316,
			"0.003": 24.77826133,
			"0.004": 14.1009018192,
			"0.005": 4.96774390249,
			"0.006": 1.93748741829,
			"0.007": 1.35727154572,
			"0.008": 1.8891497924,
			"0.009": 1.80429549609,
			"0.01": 2.53840562107,
			"0.011": 4.04389355674,
			"0.012": 3.79654311833,
			"0.013": 1.10978623209,
			"0.014": 0.0425342778623,
			"0.015": 0.0,
			"0.016": 0.0,
			"0.017": 0.0,
			"0.018": 0.0,
			"0.019": 0.0,
			"0.02": 0.0,
			"0.021": 0.0,
			"0.022": 0.0,
			"0.023": 0.0,
			"0.024": 0.0,
			"0.025": 0.0
		}
	}
}
