{
	 "smiles": "[O-][N+](=O)C1=CC=C(C=CC=CC=CC2=CC=C(C=C2)[N+]([O-])=O)C=C1", 
	 "Tm": 513.5, 
	 "num_atms": 38, 
	 "gaussian": { 
		 "optdone": 1, 
		 "sigma_profile": "yes", 
		 "theory": "DFT", 
		 "functional": "B3LYP", 
		 "basiset": "6-31G**", 
		 "properties": { 
			 "R2extent": 12132.0151, 
			 "electric_dipole_moment_norm": 7.78021105498, 
			 "electric_quadrupole_moment_norm": 28.2278627776, 
			 "total_energy": -1104.50702455, 
			 "HOMO_LUMO_gap": 0.12323, 
			 "cosmo_polarized_energy": -17.07, 
			 "cosmo_cavitation_energy": 44.81, 
			 "cosmo_dispersion_energy": -30.56, 
			 "cosmo_repulsion_energy": 2.32, 
			 "cosmo_total_nonelectrostatic_energy": 16.57, 
			 "SMD_solvation_energy": 11.95 
		},
		"coords": [
			{
				"x": 4.8738911024,
				"y": 2.270188201,
				"z": -3.8931153797,
				"element": "O" 
			},
			{
				"x": 3.9084274686,
				"y": 2.4701010149,
				"z": -3.1551497425,
				"element": "N" 
			},
			{
				"x": 3.0075946288,
				"y": 3.2781843654,
				"z": -3.3829586946,
				"element": "O" 
			},
			{
				"x": 3.8249974497,
				"y": 1.6882164321,
				"z": -1.9156818589,
				"element": "C" 
			},
			{
				"x": 4.8280108589,
				"y": 0.7650597252,
				"z": -1.6265907277,
				"element": "C" 
			},
			{
				"x": 4.7391670712,
				"y": 0.0351412662,
				"z": -0.4478808466,
				"element": "C" 
			},
			{
				"x": 3.6545276546,
				"y": 0.1948697181,
				"z": 0.4396114008,
				"element": "C" 
			},
			{
				"x": 3.6608285194,
				"y": -0.589695761,
				"z": 1.6811177032,
				"element": "C" 
			},
			{
				"x": 2.6789289569,
				"y": -0.8924693299,
				"z": 2.5644529384,
				"element": "C" 
			},
			{
				"x": 1.2322648234,
				"y": -0.6868797802,
				"z": 2.5483380352,
				"element": "C" 
			},
			{
				"x": 0.3471477021,
				"y": -0.9193189964,
				"z": 1.5452672089,
				"element": "C" 
			},
			{
				"x": 0.6698081641,
				"y": -1.4722472953,
				"z": 0.2479217943,
				"element": "C" 
			},
			{
				"x": -0.1501528196,
				"y": -1.6008472472,
				"z": -0.8250743394,
				"element": "C" 
			},
			{
				"x": -1.5175335519,
				"y": -1.1060558316,
				"z": -1.0118336046,
				"element": "C" 
			},
			{
				"x": -2.3803189006,
				"y": -1.8219370007,
				"z": -1.8695493418,
				"element": "C" 
			},
			{
				"x": -3.6898840317,
				"y": -1.4149372616,
				"z": -2.0851277943,
				"element": "C" 
			},
			{
				"x": -4.1445967544,
				"y": -0.2599448757,
				"z": -1.4490813676,
				"element": "C" 
			},
			{
				"x": -3.3156569866,
				"y": 0.4956647532,
				"z": -0.621576971,
				"element": "C" 
			},
			{
				"x": -2.0083470459,
				"y": 0.0730336637,
				"z": -0.4118194604,
				"element": "C" 
			},
			{
				"x": -5.527529955,
				"y": 0.1812653691,
				"z": -1.6703446402,
				"element": "N" 
			},
			{
				"x": -5.9005726031,
				"y": 1.2027099148,
				"z": -1.0927014818,
				"element": "O" 
			},
			{
				"x": -6.2309087361,
				"y": -0.4984130918,
				"z": -2.4181296009,
				"element": "O" 
			},
			{
				"x": 2.6666212061,
				"y": 1.1473552293,
				"z": 0.1149170114,
				"element": "C" 
			},
			{
				"x": 2.7481787116,
				"y": 1.8942373776,
				"z": -1.052646037,
				"element": "C" 
			},
			{
				"x": 5.6531179053,
				"y": 0.6400627926,
				"z": -2.3164571356,
				"element": "H" 
			},
			{
				"x": 5.521184582,
				"y": -0.6788342917,
				"z": -0.2053433234,
				"element": "H" 
			},
			{
				"x": 4.6519618212,
				"y": -0.9523583418,
				"z": 1.9505260813,
				"element": "H" 
			},
			{
				"x": 3.0253218454,
				"y": -1.3740464864,
				"z": 3.4805199044,
				"element": "H" 
			},
			{
				"x": 0.8110605058,
				"y": -0.410045315,
				"z": 3.5147756863,
				"element": "H" 
			},
			{
				"x": -0.7032173986,
				"y": -0.7458289124,
				"z": 1.7640608358,
				"element": "H" 
			},
			{
				"x": 1.6704213469,
				"y": -1.8865327412,
				"z": 0.149805369,
				"element": "H" 
			},
			{
				"x": 0.2381755779,
				"y": -2.1708652476,
				"z": -1.6673068965,
				"element": "H" 
			},
			{
				"x": -2.0138132574,
				"y": -2.719194465,
				"z": -2.3596594709,
				"element": "H" 
			},
			{
				"x": -4.3612016523,
				"y": -1.9662828475,
				"z": -2.7314481077,
				"element": "H" 
			},
			{
				"x": -3.6999976524,
				"y": 1.4019156599,
				"z": -0.1704057155,
				"element": "H" 
			},
			{
				"x": -1.3483666041,
				"y": 0.6832613869,
				"z": 0.1932814009,
				"element": "H" 
			},
			{
				"x": 1.8391186765,
				"y": 1.3108530637,
				"z": 0.7939109886,
				"element": "H" 
			},
			{
				"x": 1.9996413707,
				"y": 2.6341151864,
				"z": -1.3072238198,
				"element": "H" 
			}
		],
		 "valence_orbital": [ 
			{
				"type": "occ",
				"energy": -0.29063,
				"method": "rhf"
			},
			{
				"type": "occ",
				"energy": -0.2829,
				"method": "rhf"
			},
			{
				"type": "occ",
				"energy": -0.28181,
				"method": "rhf"
			},
			{
				"type": "occ",
				"energy": -0.26057,
				"method": "rhf"
			},
			{
				"type": "occ",
				"energy": -0.22925,
				"method": "rhf"
			},
			{
				"type": "unocc",
				"energy": -0.10602,
				"method": "rhf"
			},
			{
				"type": "unocc",
				"energy": -0.09332,
				"method": "rhf"
			},
			{
				"type": "unocc",
				"energy": -0.06349,
				"method": "rhf"
			},
			{
				"type": "unocc",
				"energy": -0.03259,
				"method": "rhf"
			},
			{
				"type": "unocc",
				"energy": -0.02982,
				"method": "rhf"
			}
		],
		"cosmo_sigma_profile": { 
			"-0.025": 0.0,
			"-0.024": 0.0,
			"-0.023": 0.0,
			"-0.022": 0.0,
			"-0.021": 0.0,
			"-0.02": 0.0,
			"-0.019": 0.0,
			"-0.018": 0.0,
			"-0.017": 0.0,
			"-0.016": 0.0,
			"-0.015": 0.0,
			"-0.014": 0.0,
			"-0.013": 0.0,
			"-0.012": 0.0,
			"-0.011": 0.0,
			"-0.01": 0.0,
			"-0.009": 0.0,
			"-0.008": 1.44699985148,
			"-0.007": 14.4206584322,
			"-0.006": 27.4525694023,
			"-0.005": 29.8114645806,
			"-0.004": 24.0040675308,
			"-0.003": 23.0135132779,
			"-0.002": 23.139141643,
			"-0.001": 28.8804781532,
			"0.0": 28.6110765478,
			"0.001": 37.5484785685,
			"0.002": 36.0687095551,
			"0.003": 15.1825881876,
			"0.004": 9.24730405371,
			"0.005": 5.93949948449,
			"0.006": 7.39973097706,
			"0.007": 11.9031691674,
			"0.008": 18.7736424007,
			"0.009": 9.98199497114,
			"0.01": 6.41678900535,
			"0.011": 0.989084681559,
			"0.012": 0.0,
			"0.013": 0.0,
			"0.014": 0.0,
			"0.015": 0.0,
			"0.016": 0.0,
			"0.017": 0.0,
			"0.018": 0.0,
			"0.019": 0.0,
			"0.02": 0.0,
			"0.021": 0.0,
			"0.022": 0.0,
			"0.023": 0.0,
			"0.024": 0.0,
			"0.025": 0.0
		}
	}
}
