{
	 "smiles": "COC1=C(C=C(C=CC(O)=O)C=C1)S(N)(=O)=O", 
	 "Tm": 531.15, 
	 "num_atms": 28, 
	 "gaussian": { 
		 "optdone": 1, 
		 "sigma_profile": "yes", 
		 "theory": "DFT", 
		 "functional": "B3LYP", 
		 "basiset": "6-31G**", 
		 "properties": { 
			 "R2extent": 6799.1935, 
			 "electric_dipole_moment_norm": 3.58193180002, 
			 "electric_quadrupole_moment_norm": 42.4969024505, 
			 "total_energy": -1216.65285158, 
			 "HOMO_LUMO_gap": 0.16503, 
			 "cosmo_polarized_energy": -29.54, 
			 "cosmo_cavitation_energy": 34.71, 
			 "cosmo_dispersion_energy": -25.17, 
			 "cosmo_repulsion_energy": 1.92, 
			 "cosmo_total_nonelectrostatic_energy": 11.46, 
			 "SMD_solvation_energy": 7.76 
		},
		"coords": [
			{
				"x": 4.9691785425,
				"y": 2.2600559511,
				"z": 0.6255553168,
				"element": "C" 
			},
			{
				"x": 4.3518822813,
				"y": 1.3116532802,
				"z": -0.2573518999,
				"element": "O" 
			},
			{
				"x": 2.9944114063,
				"y": 1.2267216229,
				"z": -0.2156894287,
				"element": "C" 
			},
			{
				"x": 2.3984455057,
				"y": 0.0366315001,
				"z": 0.2454732078,
				"element": "C" 
			},
			{
				"x": 1.0195955171,
				"y": -0.1275967362,
				"z": 0.2203552623,
				"element": "C" 
			},
			{
				"x": 0.1863612874,
				"y": 0.9043422715,
				"z": -0.250145224,
				"element": "C" 
			},
			{
				"x": -1.272710583,
				"y": 0.7851106265,
				"z": -0.296401412,
				"element": "C" 
			},
			{
				"x": -2.0261159833,
				"y": -0.2427535031,
				"z": 0.1376532445,
				"element": "C" 
			},
			{
				"x": -3.5113208684,
				"y": -0.2699467056,
				"z": 0.1225347708,
				"element": "C" 
			},
			{
				"x": -4.1466767668,
				"y": 0.5335449821,
				"z": -0.7776200989,
				"element": "O" 
			},
			{
				"x": -4.1538376874,
				"y": -0.95946668,
				"z": 0.8800417466,
				"element": "O" 
			},
			{
				"x": 0.790803317,
				"y": 2.0934779851,
				"z": -0.6946057784,
				"element": "C" 
			},
			{
				"x": 2.1720328816,
				"y": 2.256494048,
				"z": -0.6800535046,
				"element": "C" 
			},
			{
				"x": 3.5044986951,
				"y": -1.23521347,
				"z": 0.8774828319,
				"element": "S" 
			},
			{
				"x": 2.4170458684,
				"y": -2.3826197159,
				"z": 1.4876104843,
				"element": "N" 
			},
			{
				"x": 4.2032343799,
				"y": -1.868843014,
				"z": -0.2407482013,
				"element": "O" 
			},
			{
				"x": 4.2249438288,
				"y": -0.6620179793,
				"z": 2.0195913143,
				"element": "O" 
			},
			{
				"x": 6.0279273356,
				"y": 2.2649038608,
				"z": 0.3650830113,
				"element": "H" 
			},
			{
				"x": 4.554853229,
				"y": 3.2653791453,
				"z": 0.4880190682,
				"element": "H" 
			},
			{
				"x": 4.8459014563,
				"y": 1.9380358485,
				"z": 1.6638932234,
				"element": "H" 
			},
			{
				"x": 0.6052232432,
				"y": -1.0597790978,
				"z": 0.5833966802,
				"element": "H" 
			},
			{
				"x": -1.775162295,
				"y": 1.6604895903,
				"z": -0.7100755363,
				"element": "H" 
			},
			{
				"x": -1.5885707406,
				"y": -1.1063052729,
				"z": 0.628049977,
				"element": "H" 
			},
			{
				"x": -3.5132476479,
				"y": 0.8618243742,
				"z": -1.4305209606,
				"element": "H" 
			},
			{
				"x": 0.1649329506,
				"y": 2.90097,
				"z": -1.065526391,
				"element": "H" 
			},
			{
				"x": 2.6265617206,
				"y": 3.1698019475,
				"z": -1.0496225309,
				"element": "H" 
			},
			{
				"x": 2.6071324917,
				"y": -3.2784303811,
				"z": 1.0462215567,
				"element": "H" 
			},
			{
				"x": 2.5148766343,
				"y": -2.4355644781,
				"z": 2.4980992703,
				"element": "H" 
			}
		],
		 "valence_orbital": [ 
			{
				"type": "occ",
				"energy": -0.30305,
				"method": "rhf"
			},
			{
				"type": "occ",
				"energy": -0.2909,
				"method": "rhf"
			},
			{
				"type": "occ",
				"energy": -0.28245,
				"method": "rhf"
			},
			{
				"type": "occ",
				"energy": -0.27442,
				"method": "rhf"
			},
			{
				"type": "occ",
				"energy": -0.24613,
				"method": "rhf"
			},
			{
				"type": "unocc",
				"energy": -0.0811,
				"method": "rhf"
			},
			{
				"type": "unocc",
				"energy": -0.04504,
				"method": "rhf"
			},
			{
				"type": "unocc",
				"energy": -0.00217,
				"method": "rhf"
			},
			{
				"type": "unocc",
				"energy": 0.04074,
				"method": "rhf"
			},
			{
				"type": "unocc",
				"energy": 0.05308,
				"method": "rhf"
			}
		],
		"cosmo_sigma_profile": { 
			"-0.025": 0.0,
			"-0.024": 0.0,
			"-0.023": 0.0,
			"-0.022": 0.0,
			"-0.021": 0.0,
			"-0.02": 0.0,
			"-0.019": 0.14277736868,
			"-0.018": 0.875776653667,
			"-0.017": 1.12994527951,
			"-0.016": 0.857669143883,
			"-0.015": 2.6494613726,
			"-0.014": 3.23406295888,
			"-0.013": 3.47855071192,
			"-0.012": 3.63821396297,
			"-0.011": 4.36745391473,
			"-0.01": 2.89636496024,
			"-0.009": 4.83652298274,
			"-0.008": 9.25180796807,
			"-0.007": 10.4642446888,
			"-0.006": 13.1807009982,
			"-0.005": 13.9412384783,
			"-0.004": 15.2998201653,
			"-0.003": 17.9265450127,
			"-0.002": 13.9600685548,
			"-0.001": 12.9204437518,
			"0.0": 16.645936273,
			"0.001": 23.9950547116,
			"0.002": 13.5873859254,
			"0.003": 7.49888729338,
			"0.004": 5.47852542831,
			"0.005": 5.19906078468,
			"0.006": 5.61412991752,
			"0.007": 6.3949363783,
			"0.008": 7.71123915132,
			"0.009": 8.2916313748,
			"0.01": 13.6026607055,
			"0.011": 15.8426323387,
			"0.012": 8.6274633218,
			"0.013": 3.04766177901,
			"0.014": 0.198710643952,
			"0.015": 0.0,
			"0.016": 0.0,
			"0.017": 0.0,
			"0.018": 0.0,
			"0.019": 0.0,
			"0.02": 0.0,
			"0.021": 0.0,
			"0.022": 0.0,
			"0.023": 0.0,
			"0.024": 0.0,
			"0.025": 0.0
		}
	}
}
