{
	 "smiles": "CC1=CSC2=C1C=C(C=C2)C#N", 
	 "Tm": 371.15, 
	 "num_atms": 19, 
	 "gaussian": { 
		 "optdone": 1, 
		 "sigma_profile": "yes", 
		 "theory": "DFT", 
		 "functional": "B3LYP", 
		 "basiset": "6-31G**", 
		 "properties": { 
			 "R2extent": 2641.8714, 
			 "electric_dipole_moment_norm": 4.64323778521, 
			 "electric_quadrupole_moment_norm": 20.2388102219, 
			 "total_energy": -838.214818429, 
			 "HOMO_LUMO_gap": 0.18417, 
			 "cosmo_polarized_energy": -9.44, 
			 "cosmo_cavitation_energy": 25.72, 
			 "cosmo_dispersion_energy": -18.87, 
			 "cosmo_repulsion_energy": 1.44, 
			 "cosmo_total_nonelectrostatic_energy": 8.29, 
			 "SMD_solvation_energy": 5.47 
		},
		"coords": [
			{
				"x": 1.2058012292,
				"y": -1.7327290115,
				"z": 1.1312421474,
				"element": "C" 
			},
			{
				"x": 1.1595934341,
				"y": -0.2720830079,
				"z": 0.7822645929,
				"element": "C" 
			},
			{
				"x": 2.1659187533,
				"y": 0.6154041215,
				"z": 1.0040347581,
				"element": "C" 
			},
			{
				"x": 1.8101227735,
				"y": 2.2509702798,
				"z": 0.4858706981,
				"element": "S" 
			},
			{
				"x": 0.2252026643,
				"y": 1.7539162734,
				"z": -0.0666371555,
				"element": "C" 
			},
			{
				"x": 0.0182581745,
				"y": 0.3688769145,
				"z": 0.1590443422,
				"element": "C" 
			},
			{
				"x": -1.202851266,
				"y": -0.2038437259,
				"z": -0.2238923459,
				"element": "C" 
			},
			{
				"x": -2.184036903,
				"y": 0.5970021558,
				"z": -0.8161386961,
				"element": "C" 
			},
			{
				"x": -1.9574105262,
				"y": 1.977495292,
				"z": -1.032566867,
				"element": "C" 
			},
			{
				"x": -0.7550300966,
				"y": 2.558143188,
				"z": -0.6592464001,
				"element": "C" 
			},
			{
				"x": -3.4344413586,
				"y": 0.0158017477,
				"z": -1.2095491669,
				"element": "C" 
			},
			{
				"x": -4.4496709824,
				"y": -0.4541472482,
				"z": -1.5294324133,
				"element": "N" 
			},
			{
				"x": 2.1603234331,
				"y": -1.9987539124,
				"z": 1.5916217018,
				"element": "H" 
			},
			{
				"x": 0.4075730173,
				"y": -1.999279337,
				"z": 1.834006637,
				"element": "H" 
			},
			{
				"x": 1.0758526505,
				"y": -2.3588783318,
				"z": 0.2406512822,
				"element": "H" 
			},
			{
				"x": 3.1282048776,
				"y": 0.4088506025,
				"z": 1.4541979118,
				"element": "H" 
			},
			{
				"x": -1.3927824002,
				"y": -1.2601660292,
				"z": -0.0652507953,
				"element": "H" 
			},
			{
				"x": -2.7349243588,
				"y": 2.5764273699,
				"z": -1.4938494022,
				"element": "H" 
			},
			{
				"x": -0.5824031154,
				"y": 3.6165926588,
				"z": -0.8256708293,
				"element": "H" 
			}
		],
		 "valence_orbital": [ 
			{
				"type": "occ",
				"energy": -0.32769,
				"method": "rhf"
			},
			{
				"type": "occ",
				"energy": -0.3242,
				"method": "rhf"
			},
			{
				"type": "occ",
				"energy": -0.29622,
				"method": "rhf"
			},
			{
				"type": "occ",
				"energy": -0.25184,
				"method": "rhf"
			},
			{
				"type": "occ",
				"energy": -0.2326,
				"method": "rhf"
			},
			{
				"type": "unocc",
				"energy": -0.04843,
				"method": "rhf"
			},
			{
				"type": "unocc",
				"energy": -0.0425,
				"method": "rhf"
			},
			{
				"type": "unocc",
				"energy": 0.00821,
				"method": "rhf"
			},
			{
				"type": "unocc",
				"energy": 0.0254,
				"method": "rhf"
			},
			{
				"type": "unocc",
				"energy": 0.03939,
				"method": "rhf"
			}
		],
		"cosmo_sigma_profile": { 
			"-0.025": 0.0,
			"-0.024": 0.0,
			"-0.023": 0.0,
			"-0.022": 0.0,
			"-0.021": 0.0,
			"-0.02": 0.0,
			"-0.019": 0.0,
			"-0.018": 0.0,
			"-0.017": 0.0,
			"-0.016": 0.0,
			"-0.015": 0.0,
			"-0.014": 0.0,
			"-0.013": 0.0,
			"-0.012": 0.0,
			"-0.011": 0.0,
			"-0.01": 0.0,
			"-0.009": 0.751801838987,
			"-0.008": 6.08111828276,
			"-0.007": 9.27486281729,
			"-0.006": 9.74646542456,
			"-0.005": 13.5710736045,
			"-0.004": 14.3266337771,
			"-0.003": 13.2335936394,
			"-0.002": 13.5244319141,
			"-0.001": 16.496309538,
			"0.0": 18.263030752,
			"0.001": 17.3908190946,
			"0.002": 27.6865549512,
			"0.003": 14.6272379438,
			"0.004": 8.34060589899,
			"0.005": 3.59057442153,
			"0.006": 3.10437311881,
			"0.007": 2.19201621256,
			"0.008": 3.36375614857,
			"0.009": 3.67146429224,
			"0.01": 3.3013538329,
			"0.011": 2.76545243782,
			"0.012": 2.68056693631,
			"0.013": 1.77624212412,
			"0.014": 0.196999308864,
			"0.015": 0.0,
			"0.016": 0.0,
			"0.017": 0.0,
			"0.018": 0.0,
			"0.019": 0.0,
			"0.02": 0.0,
			"0.021": 0.0,
			"0.022": 0.0,
			"0.023": 0.0,
			"0.024": 0.0,
			"0.025": 0.0
		}
	}
}
