{
	 "smiles": "NNC(=O)C1=C(F)C=C(Cl)C=C1", 
	 "Tm": 409.15, 
	 "num_atms": 18, 
	 "gaussian": { 
		 "optdone": 1, 
		 "sigma_profile": "yes", 
		 "theory": "DFT", 
		 "functional": "B3LYP", 
		 "basiset": "6-31G**", 
		 "properties": { 
			 "R2extent": 3811.5998, 
			 "electric_dipole_moment_norm": 2.48153343117, 
			 "electric_quadrupole_moment_norm": 4.09683961609, 
			 "total_energy": -1015.08930724, 
			 "HOMO_LUMO_gap": 0.19942, 
			 "cosmo_polarized_energy": -12.33, 
			 "cosmo_cavitation_energy": 24.84, 
			 "cosmo_dispersion_energy": -18.31, 
			 "cosmo_repulsion_energy": 1.46, 
			 "cosmo_total_nonelectrostatic_energy": 7.99, 
			 "SMD_solvation_energy": 5.49 
		},
		"coords": [
			{
				"x": 0.483086007,
				"y": -1.8138312075,
				"z": -2.8579319953,
				"element": "N" 
			},
			{
				"x": -0.3672018359,
				"y": -0.8554807517,
				"z": -2.27928352,
				"element": "N" 
			},
			{
				"x": -0.1556648778,
				"y": -0.1262565173,
				"z": -1.1372560773,
				"element": "C" 
			},
			{
				"x": -0.7856071214,
				"y": 0.9014759064,
				"z": -0.9160469028,
				"element": "O" 
			},
			{
				"x": 0.8941362687,
				"y": -0.5998139753,
				"z": -0.1635347147,
				"element": "C" 
			},
			{
				"x": 1.0722664942,
				"y": -1.9148494555,
				"z": 0.2711356463,
				"element": "C" 
			},
			{
				"x": 0.2958686114,
				"y": -2.9056322733,
				"z": -0.2311076124,
				"element": "F" 
			},
			{
				"x": 2.0083408078,
				"y": -2.2751723046,
				"z": 1.2331080023,
				"element": "C" 
			},
			{
				"x": 2.7958526535,
				"y": -1.2703152574,
				"z": 1.7903112227,
				"element": "C" 
			},
			{
				"x": 3.98996397,
				"y": -1.6958720632,
				"z": 2.998880705,
				"element": "Cl" 
			},
			{
				"x": 2.6413004306,
				"y": 0.0646317929,
				"z": 1.4100643314,
				"element": "C" 
			},
			{
				"x": 1.6839231279,
				"y": 0.3833169556,
				"z": 0.4528016578,
				"element": "C" 
			},
			{
				"x": 0.4310154976,
				"y": -2.6736192945,
				"z": -2.3214066682,
				"element": "H" 
			},
			{
				"x": 1.4448078848,
				"y": -1.481918296,
				"z": -2.8537129927,
				"element": "H" 
			},
			{
				"x": -1.0341148821,
				"y": -0.4380624736,
				"z": -2.9163776469,
				"element": "H" 
			},
			{
				"x": 2.0992000181,
				"y": -3.3102934383,
				"z": 1.5386112231,
				"element": "H" 
			},
			{
				"x": 3.2522364588,
				"y": 0.8353335437,
				"z": 1.865091725,
				"element": "H" 
			},
			{
				"x": 1.5208904869,
				"y": 1.4160591094,
				"z": 0.1637536168,
				"element": "H" 
			}
		],
		 "valence_orbital": [ 
			{
				"type": "occ",
				"energy": -0.29446,
				"method": "rhf"
			},
			{
				"type": "occ",
				"energy": -0.27886,
				"method": "rhf"
			},
			{
				"type": "occ",
				"energy": -0.27025,
				"method": "rhf"
			},
			{
				"type": "occ",
				"energy": -0.2641,
				"method": "rhf"
			},
			{
				"type": "occ",
				"energy": -0.2514,
				"method": "rhf"
			},
			{
				"type": "unocc",
				"energy": -0.05198,
				"method": "rhf"
			},
			{
				"type": "unocc",
				"energy": -0.02767,
				"method": "rhf"
			},
			{
				"type": "unocc",
				"energy": 0.01209,
				"method": "rhf"
			},
			{
				"type": "unocc",
				"energy": 0.02967,
				"method": "rhf"
			},
			{
				"type": "unocc",
				"energy": 0.08093,
				"method": "rhf"
			}
		],
		"cosmo_sigma_profile": { 
			"-0.025": 0.0,
			"-0.024": 0.0,
			"-0.023": 0.0,
			"-0.022": 0.0,
			"-0.021": 0.0,
			"-0.02": 0.0,
			"-0.019": 0.0,
			"-0.018": 0.0,
			"-0.017": 0.0,
			"-0.016": 0.0,
			"-0.015": 0.0,
			"-0.014": 0.365873965121,
			"-0.013": 1.06635068551,
			"-0.012": 2.16315940229,
			"-0.011": 2.42352436732,
			"-0.01": 2.01188803934,
			"-0.009": 4.7261947899,
			"-0.008": 6.40084140215,
			"-0.007": 8.99615660942,
			"-0.006": 8.65527165996,
			"-0.005": 6.84978626503,
			"-0.004": 8.93220676249,
			"-0.003": 9.4967563469,
			"-0.002": 11.6967274493,
			"-0.001": 15.2418851444,
			"0.0": 18.5400599595,
			"0.001": 21.028503007,
			"0.002": 16.844857836,
			"0.003": 15.8158431693,
			"0.004": 12.7779203123,
			"0.005": 2.2962202374,
			"0.006": 1.6507820124,
			"0.007": 1.88366565901,
			"0.008": 2.49332480906,
			"0.009": 1.6345171004,
			"0.01": 2.12893860282,
			"0.011": 2.2858871957,
			"0.012": 3.2653143973,
			"0.013": 5.97853847464,
			"0.014": 2.62573691094,
			"0.015": 0.437435741453,
			"0.016": 0.317512747785,
			"0.017": 0.0,
			"0.018": 0.0,
			"0.019": 0.0,
			"0.02": 0.0,
			"0.021": 0.0,
			"0.022": 0.0,
			"0.023": 0.0,
			"0.024": 0.0,
			"0.025": 0.0
		}
	}
}
