{
	 "smiles": "NC(CSC(C1=CC=CC=C1)(C1=CC=CC=C1)C1=CC=CC=C1)C(O)=O", 
	 "Tm": 455.15, 
	 "num_atms": 47, 
	 "gaussian": { 
		 "optdone": 1, 
		 "sigma_profile": "yes", 
		 "theory": "DFT", 
		 "functional": "B3LYP", 
		 "basiset": "6-31G**", 
		 "properties": { 
			 "R2extent": 9396.74, 
			 "electric_dipole_moment_norm": 2.58049190853, 
			 "electric_quadrupole_moment_norm": 13.1504095685, 
			 "total_energy": -1454.37971235, 
			 "HOMO_LUMO_gap": 0.19837, 
			 "cosmo_polarized_energy": -18.32, 
			 "cosmo_cavitation_energy": 50.15, 
			 "cosmo_dispersion_energy": -32.98, 
			 "cosmo_repulsion_energy": 2.55, 
			 "cosmo_total_nonelectrostatic_energy": 19.71, 
			 "SMD_solvation_energy": 8.03 
		},
		"coords": [
			{
				"x": -0.5295934867,
				"y": 5.0857842197,
				"z": -0.4573299859,
				"element": "N" 
			},
			{
				"x": -1.0036707526,
				"y": 4.0001367944,
				"z": 0.4094624446,
				"element": "C" 
			},
			{
				"x": -0.3883615227,
				"y": 2.6813960431,
				"z": -0.0853261944,
				"element": "C" 
			},
			{
				"x": -0.8168559881,
				"y": 1.3133372454,
				"z": 1.0647954281,
				"element": "S" 
			},
			{
				"x": 0.0416379747,
				"y": -0.1832240845,
				"z": 0.2772446707,
				"element": "C" 
			},
			{
				"x": -0.3513690325,
				"y": -0.1786398983,
				"z": -1.210740734,
				"element": "C" 
			},
			{
				"x": 0.5780019782,
				"y": 0.0523232498,
				"z": -2.2333738841,
				"element": "C" 
			},
			{
				"x": 0.1783406231,
				"y": 0.1052768139,
				"z": -3.573139922,
				"element": "C" 
			},
			{
				"x": -1.1593323475,
				"y": -0.0670361192,
				"z": -3.9178113687,
				"element": "C" 
			},
			{
				"x": -2.1013096578,
				"y": -0.2807241033,
				"z": -2.9067113374,
				"element": "C" 
			},
			{
				"x": -1.7035732224,
				"y": -0.3273678799,
				"z": -1.5736127201,
				"element": "C" 
			},
			{
				"x": 1.5734121072,
				"y": -0.1819246221,
				"z": 0.4984664634,
				"element": "C" 
			},
			{
				"x": 2.2602162666,
				"y": 0.8244583648,
				"z": 1.1845187105,
				"element": "C" 
			},
			{
				"x": 3.6433538571,
				"y": 0.7493685284,
				"z": 1.378263658,
				"element": "C" 
			},
			{
				"x": 4.3664955631,
				"y": -0.337146057,
				"z": 0.8928825038,
				"element": "C" 
			},
			{
				"x": 3.69171769,
				"y": -1.3571205088,
				"z": 0.2167209883,
				"element": "C" 
			},
			{
				"x": 2.3141272971,
				"y": -1.2812861641,
				"z": 0.0272756458,
				"element": "C" 
			},
			{
				"x": -0.5160511381,
				"y": -1.3970047944,
				"z": 1.0593314358,
				"element": "C" 
			},
			{
				"x": -0.5108973194,
				"y": -1.3754714512,
				"z": 2.4643493225,
				"element": "C" 
			},
			{
				"x": -0.9491370164,
				"y": -2.4736064185,
				"z": 3.2013572695,
				"element": "C" 
			},
			{
				"x": -1.3838655831,
				"y": -3.6307278543,
				"z": 2.5518551799,
				"element": "C" 
			},
			{
				"x": -1.3703853772,
				"y": -3.674494,
				"z": 1.1591803959,
				"element": "C" 
			},
			{
				"x": -0.9416673934,
				"y": -2.5690519097,
				"z": 0.4195927906,
				"element": "C" 
			},
			{
				"x": -2.5310358112,
				"y": 3.9363850098,
				"z": 0.4829497919,
				"element": "C" 
			},
			{
				"x": -3.0803016503,
				"y": 3.6880759898,
				"z": -0.7347054935,
				"element": "O" 
			},
			{
				"x": -3.1996659526,
				"y": 4.1369739189,
				"z": 1.4718054771,
				"element": "O" 
			},
			{
				"x": -0.9527736654,
				"y": 4.9955872773,
				"z": -1.3785506419,
				"element": "H" 
			},
			{
				"x": -0.8249768496,
				"y": 5.9843345932,
				"z": -0.0829452069,
				"element": "H" 
			},
			{
				"x": -0.6670826063,
				"y": 4.2070850363,
				"z": 1.4290684191,
				"element": "H" 
			},
			{
				"x": -0.7688628412,
				"y": 2.4470751526,
				"z": -1.082501542,
				"element": "H" 
			},
			{
				"x": 0.6939359333,
				"y": 2.8150057335,
				"z": -0.1432938581,
				"element": "H" 
			},
			{
				"x": 1.6242195093,
				"y": 0.1945432871,
				"z": -1.9911509425,
				"element": "H" 
			},
			{
				"x": 0.922778612,
				"y": 0.2855423214,
				"z": -4.3436045057,
				"element": "H" 
			},
			{
				"x": -1.4695768008,
				"y": -0.028322182,
				"z": -4.9580553172,
				"element": "H" 
			},
			{
				"x": -3.1511908548,
				"y": -0.4055618216,
				"z": -3.1568479818,
				"element": "H" 
			},
			{
				"x": -2.4477846906,
				"y": -0.4704526912,
				"z": -0.7974576307,
				"element": "H" 
			},
			{
				"x": 1.7089996192,
				"y": 1.6626618985,
				"z": 1.5945218752,
				"element": "H" 
			},
			{
				"x": 4.1495155884,
				"y": 1.5461022865,
				"z": 1.9162007857,
				"element": "H" 
			},
			{
				"x": 5.440413938,
				"y": -0.3959020798,
				"z": 1.0446054873,
				"element": "H" 
			},
			{
				"x": 4.2376639376,
				"y": -2.2183967594,
				"z": -0.1581650454,
				"element": "H" 
			},
			{
				"x": 1.8035300707,
				"y": -2.0893774242,
				"z": -0.4871355552,
				"element": "H" 
			},
			{
				"x": -0.1526277656,
				"y": -0.4939843421,
				"z": 2.9862818011,
				"element": "H" 
			},
			{
				"x": -0.9432832612,
				"y": -2.4258228581,
				"z": 4.2865921672,
				"element": "H" 
			},
			{
				"x": -1.7224231589,
				"y": -4.4885263441,
				"z": 3.1257077363,
				"element": "H" 
			},
			{
				"x": -1.69547225,
				"y": -4.5704823665,
				"z": 0.6376203636,
				"element": "H" 
			},
			{
				"x": -0.9419884552,
				"y": -2.6267274314,
				"z": -0.6626105993,
				"element": "H" 
			},
			{
				"x": -4.0428441142,
				"y": 3.6839284012,
				"z": -0.6019803451,
				"element": "H" 
			}
		],
		 "valence_orbital": [ 
			{
				"type": "occ",
				"energy": -0.24552,
				"method": "rhf"
			},
			{
				"type": "occ",
				"energy": -0.24407,
				"method": "rhf"
			},
			{
				"type": "occ",
				"energy": -0.24294,
				"method": "rhf"
			},
			{
				"type": "occ",
				"energy": -0.23145,
				"method": "rhf"
			},
			{
				"type": "occ",
				"energy": -0.21876,
				"method": "rhf"
			},
			{
				"type": "unocc",
				"energy": -0.02039,
				"method": "rhf"
			},
			{
				"type": "unocc",
				"energy": -0.01327,
				"method": "rhf"
			},
			{
				"type": "unocc",
				"energy": -0.00893,
				"method": "rhf"
			},
			{
				"type": "unocc",
				"energy": -0.0029,
				"method": "rhf"
			},
			{
				"type": "unocc",
				"energy": 0.0046,
				"method": "rhf"
			}
		],
		"cosmo_sigma_profile": { 
			"-0.025": 0.0,
			"-0.024": 0.0,
			"-0.023": 0.0,
			"-0.022": 0.0,
			"-0.021": 0.0,
			"-0.02": 0.0,
			"-0.019": 0.0781341830757,
			"-0.018": 0.928264162419,
			"-0.017": 0.589996292359,
			"-0.016": 0.732595846565,
			"-0.015": 1.14216298524,
			"-0.014": 0.487565327213,
			"-0.013": 0.607251707838,
			"-0.012": 1.2360650762,
			"-0.011": 2.3535591602,
			"-0.01": 2.98784114756,
			"-0.009": 3.62042918734,
			"-0.008": 3.50582585606,
			"-0.007": 4.40285192633,
			"-0.006": 16.8149397245,
			"-0.005": 27.0339908965,
			"-0.004": 37.3682090797,
			"-0.003": 35.0283540547,
			"-0.002": 24.8155088911,
			"-0.001": 27.5273264921,
			"0.0": 27.9852719188,
			"0.001": 24.1778175144,
			"0.002": 24.8022963436,
			"0.003": 26.9871349635,
			"0.004": 29.3675892733,
			"0.005": 33.5800701529,
			"0.006": 14.6012343578,
			"0.007": 5.36757659445,
			"0.008": 3.36984140161,
			"0.009": 2.31987665744,
			"0.01": 2.51141377809,
			"0.011": 5.1543845804,
			"0.012": 4.64015609037,
			"0.013": 1.04087739199,
			"0.014": 0.349863865267,
			"0.015": 0.694400153249,
			"0.016": 0.628375886312,
			"0.017": 0.496928835403,
			"0.018": 0.104937104105,
			"0.019": 0.0,
			"0.02": 0.0,
			"0.021": 0.0,
			"0.022": 0.0,
			"0.023": 0.0,
			"0.024": 0.0,
			"0.025": 0.0
		}
	}
}
