{
	 "smiles": "CC1(C)CC(C=CC2=NC=CC=C2)=CC2=C1SC(N)=C2C#N", 
	 "Tm": 474.15, 
	 "num_atms": 39, 
	 "gaussian": { 
		 "optdone": 1, 
		 "sigma_profile": "yes", 
		 "theory": "DFT", 
		 "functional": "B3LYP", 
		 "basiset": "6-31G**", 
		 "properties": { 
			 "R2extent": 8536.1473, 
			 "electric_dipole_moment_norm": 4.77402537488, 
			 "electric_quadrupole_moment_norm": 12.1538097299, 
			 "total_energy": -1258.55986375, 
			 "HOMO_LUMO_gap": 0.1317, 
			 "cosmo_polarized_energy": -17.86, 
			 "cosmo_cavitation_energy": 44.23, 
			 "cosmo_dispersion_energy": -29.84, 
			 "cosmo_repulsion_energy": 2.23, 
			 "cosmo_total_nonelectrostatic_energy": 16.62, 
			 "SMD_solvation_energy": 6.65 
		},
		"coords": [
			{
				"x": 0.9830062915,
				"y": -3.61636793,
				"z": 0.3734122729,
				"element": "C" 
			},
			{
				"x": -0.3610805601,
				"y": -2.8644391906,
				"z": 0.2095092546,
				"element": "C" 
			},
			{
				"x": -1.444882749,
				"y": -3.8484745955,
				"z": -0.2672210611,
				"element": "C" 
			},
			{
				"x": -0.7976022417,
				"y": -2.2456712627,
				"z": 1.5652276632,
				"element": "C" 
			},
			{
				"x": -0.0257176016,
				"y": -1.0067170891,
				"z": 2.0016884249,
				"element": "C" 
			},
			{
				"x": 0.1712986913,
				"y": -0.8244900132,
				"z": 3.4435732752,
				"element": "C" 
			},
			{
				"x": 0.1849724042,
				"y": 0.2754074555,
				"z": 4.2307229892,
				"element": "C" 
			},
			{
				"x": -0.1207572558,
				"y": 1.6952420991,
				"z": 3.9762664162,
				"element": "C" 
			},
			{
				"x": 0.3683822931,
				"y": 2.5306115542,
				"z": 4.9198307479,
				"element": "N" 
			},
			{
				"x": 0.1217441299,
				"y": 3.8374444844,
				"z": 4.8016793871,
				"element": "C" 
			},
			{
				"x": -0.6352456891,
				"y": 4.3953528589,
				"z": 3.7709299897,
				"element": "C" 
			},
			{
				"x": -1.1685700895,
				"y": 3.5318017754,
				"z": 2.8134369514,
				"element": "C" 
			},
			{
				"x": -0.9098794206,
				"y": 2.1692733764,
				"z": 2.9127530764,
				"element": "C" 
			},
			{
				"x": 0.4459433261,
				"y": -0.1662340691,
				"z": 1.0497296617,
				"element": "C" 
			},
			{
				"x": 0.2537279024,
				"y": -0.4684032348,
				"z": -0.3601416614,
				"element": "C" 
			},
			{
				"x": -0.1727860938,
				"y": -1.7094324858,
				"z": -0.7533916145,
				"element": "C" 
			},
			{
				"x": -0.2353643411,
				"y": -1.8407077348,
				"z": -2.5054858739,
				"element": "S" 
			},
			{
				"x": 0.3249054512,
				"y": -0.195455974,
				"z": -2.7051534832,
				"element": "C" 
			},
			{
				"x": 0.3995004174,
				"y": 0.3834430433,
				"z": -3.950282292,
				"element": "N" 
			},
			{
				"x": 0.5392842368,
				"y": 0.4095154724,
				"z": -1.4765027916,
				"element": "C" 
			},
			{
				"x": 0.9915387146,
				"y": 1.7504120654,
				"z": -1.380311017,
				"element": "C" 
			},
			{
				"x": 1.3680036043,
				"y": 2.8541373795,
				"z": -1.3484870763,
				"element": "N" 
			},
			{
				"x": 0.8707602297,
				"y": -4.4516193856,
				"z": 1.0747302734,
				"element": "H" 
			},
			{
				"x": 1.3234395622,
				"y": -4.0216183859,
				"z": -0.5846052032,
				"element": "H" 
			},
			{
				"x": 1.7603199137,
				"y": -2.9487502057,
				"z": 0.7556740916,
				"element": "H" 
			},
			{
				"x": -1.1607731021,
				"y": -4.3283378296,
				"z": -1.210688503,
				"element": "H" 
			},
			{
				"x": -1.5900732216,
				"y": -4.6433123583,
				"z": 0.4721062687,
				"element": "H" 
			},
			{
				"x": -2.4034778843,
				"y": -3.3423017293,
				"z": -0.4181077318,
				"element": "H" 
			},
			{
				"x": -0.7373791507,
				"y": -3.0191421311,
				"z": 2.3401493351,
				"element": "H" 
			},
			{
				"x": -1.861052262,
				"y": -1.9674381191,
				"z": 1.4985662964,
				"element": "H" 
			},
			{
				"x": 0.3494749706,
				"y": -1.762666088,
				"z": 3.971894662,
				"element": "H" 
			},
			{
				"x": 0.4651165521,
				"y": 0.1184777655,
				"z": 5.2699604233,
				"element": "H" 
			},
			{
				"x": 0.544768594,
				"y": 4.473227323,
				"z": 5.5782914512,
				"element": "H" 
			},
			{
				"x": -0.8058069761,
				"y": 5.4662447644,
				"z": 3.7275629505,
				"element": "H" 
			},
			{
				"x": -1.7767907247,
				"y": 3.9140917967,
				"z": 1.9987298276,
				"element": "H" 
			},
			{
				"x": -1.311462374,
				"y": 1.4777730489,
				"z": 2.1824922605,
				"element": "H" 
			},
			{
				"x": 0.9877495398,
				"y": 0.7355562684,
				"z": 1.3173965479,
				"element": "H" 
			},
			{
				"x": 0.6749111377,
				"y": -0.2123409911,
				"z": -4.7183568423,
				"element": "H" 
			},
			{
				"x": 0.8457537754,
				"y": 1.2923082722,
				"z": -3.9664793471,
				"element": "H" 
			}
		],
		 "valence_orbital": [ 
			{
				"type": "occ",
				"energy": -0.27696,
				"method": "rhf"
			},
			{
				"type": "occ",
				"energy": -0.25047,
				"method": "rhf"
			},
			{
				"type": "occ",
				"energy": -0.24817,
				"method": "rhf"
			},
			{
				"type": "occ",
				"energy": -0.22251,
				"method": "rhf"
			},
			{
				"type": "occ",
				"energy": -0.19356,
				"method": "rhf"
			},
			{
				"type": "unocc",
				"energy": -0.06186,
				"method": "rhf"
			},
			{
				"type": "unocc",
				"energy": -0.02566,
				"method": "rhf"
			},
			{
				"type": "unocc",
				"energy": -0.01517,
				"method": "rhf"
			},
			{
				"type": "unocc",
				"energy": -0.00547,
				"method": "rhf"
			},
			{
				"type": "unocc",
				"energy": -0.00415,
				"method": "rhf"
			}
		],
		"cosmo_sigma_profile": { 
			"-0.025": 0.0,
			"-0.024": 0.0,
			"-0.023": 0.0,
			"-0.022": 0.0,
			"-0.021": 0.0,
			"-0.02": 0.0,
			"-0.019": 0.0,
			"-0.018": 0.0,
			"-0.017": 0.0,
			"-0.016": 0.0,
			"-0.015": 0.752756799464,
			"-0.014": 2.2592859147,
			"-0.013": 2.63143685313,
			"-0.012": 2.62852860408,
			"-0.011": 2.66350499649,
			"-0.01": 2.68596245464,
			"-0.009": 1.70756457517,
			"-0.008": 1.79010409061,
			"-0.007": 4.68527901737,
			"-0.006": 9.69517343769,
			"-0.005": 16.3265423319,
			"-0.004": 25.4463910261,
			"-0.003": 32.4321890187,
			"-0.002": 29.0332495575,
			"-0.001": 30.7423584953,
			"0.0": 34.613416001,
			"0.001": 32.3618638603,
			"0.002": 33.9398885652,
			"0.003": 28.2356440303,
			"0.004": 13.9114884843,
			"0.005": 8.13188483241,
			"0.006": 4.84228243407,
			"0.007": 3.86966807744,
			"0.008": 4.16422072185,
			"0.009": 5.09611931509,
			"0.01": 4.97392353879,
			"0.011": 4.1772738493,
			"0.012": 4.35353049016,
			"0.013": 3.33886403786,
			"0.014": 1.53474966405,
			"0.015": 0.602000579084,
			"0.016": 0.557622903552,
			"0.017": 0.0466315374107,
			"0.018": 0.0,
			"0.019": 0.0,
			"0.02": 0.0,
			"0.021": 0.0,
			"0.022": 0.0,
			"0.023": 0.0,
			"0.024": 0.0,
			"0.025": 0.0
		}
	}
}
