{
	 "smiles": "NC1=NC=C(CC2=C(F)C(F)=C(F)C=C2)S1", 
	 "Tm": 379.15, 
	 "num_atms": 23, 
	 "gaussian": { 
		 "optdone": 1, 
		 "sigma_profile": "yes", 
		 "theory": "DFT", 
		 "functional": "B3LYP", 
		 "basiset": "6-31G**", 
		 "properties": { 
			 "R2extent": 5003.102, 
			 "electric_dipole_moment_norm": 2.07848297804, 
			 "electric_quadrupole_moment_norm": 16.660386952, 
			 "total_energy": -1192.45835252, 
			 "HOMO_LUMO_gap": 0.19141, 
			 "cosmo_polarized_energy": -12.12, 
			 "cosmo_cavitation_energy": 30.98, 
			 "cosmo_dispersion_energy": -22.31, 
			 "cosmo_repulsion_energy": 1.64, 
			 "cosmo_total_nonelectrostatic_energy": 10.32, 
			 "SMD_solvation_energy": 4.61 
		},
		"coords": [
			{
				"x": -0.5998887944,
				"y": 3.8441622029,
				"z": -1.3882381786,
				"element": "N" 
			},
			{
				"x": 0.1639832633,
				"y": 2.813022932,
				"z": -0.8876324014,
				"element": "C" 
			},
			{
				"x": 0.8864761664,
				"y": 2.9016231799,
				"z": 0.1918761345,
				"element": "N" 
			},
			{
				"x": 1.4667806646,
				"y": 1.6835898588,
				"z": 0.4784458135,
				"element": "C" 
			},
			{
				"x": 1.2177462068,
				"y": 0.6465721198,
				"z": -0.3684356188,
				"element": "C" 
			},
			{
				"x": 1.7337035147,
				"y": -0.7654521437,
				"z": -0.3010296507,
				"element": "C" 
			},
			{
				"x": 0.6710530439,
				"y": -1.8118841323,
				"z": -0.0080588263,
				"element": "C" 
			},
			{
				"x": -0.0605725184,
				"y": -2.3788065256,
				"z": -1.0513728616,
				"element": "C" 
			},
			{
				"x": 0.1786240844,
				"y": -1.9986034272,
				"z": -2.3234227202,
				"element": "F" 
			},
			{
				"x": -1.0498919633,
				"y": -3.3328557039,
				"z": -0.8298344384,
				"element": "C" 
			},
			{
				"x": -1.7303305429,
				"y": -3.855649559,
				"z": -1.8579105217,
				"element": "F" 
			},
			{
				"x": -1.3176515254,
				"y": -3.7350722988,
				"z": 0.4768522923,
				"element": "C" 
			},
			{
				"x": -2.2721172855,
				"y": -4.6571212721,
				"z": 0.6810756437,
				"element": "F" 
			},
			{
				"x": -0.6119264894,
				"y": -3.1923764185,
				"z": 1.5430323663,
				"element": "C" 
			},
			{
				"x": 0.3737831023,
				"y": -2.2372630675,
				"z": 1.2917077538,
				"element": "C" 
			},
			{
				"x": 0.1402314708,
				"y": 1.2139555941,
				"z": -1.6461850511,
				"element": "S" 
			},
			{
				"x": -0.7330494137,
				"y": 3.8691659462,
				"z": -2.3892068426,
				"element": "H" 
			},
			{
				"x": -0.3562471881,
				"y": 4.7399676241,
				"z": -0.9853683372,
				"element": "H" 
			},
			{
				"x": 2.105441367,
				"y": 1.6041986326,
				"z": 1.352437551,
				"element": "H" 
			},
			{
				"x": 2.4874566558,
				"y": -0.7989722007,
				"z": 0.4926407678,
				"element": "H" 
			},
			{
				"x": 2.2466240589,
				"y": -1.0264761287,
				"z": -1.2337444584,
				"element": "H" 
			},
			{
				"x": -0.8418469801,
				"y": -3.5248548179,
				"z": 2.5489830465,
				"element": "H" 
			},
			{
				"x": 0.9254191022,
				"y": -1.8098703945,
				"z": 2.1234885376,
				"element": "H" 
			}
		],
		 "valence_orbital": [ 
			{
				"type": "occ",
				"energy": -0.27329,
				"method": "rhf"
			},
			{
				"type": "occ",
				"energy": -0.27129,
				"method": "rhf"
			},
			{
				"type": "occ",
				"energy": -0.25642,
				"method": "rhf"
			},
			{
				"type": "occ",
				"energy": -0.25081,
				"method": "rhf"
			},
			{
				"type": "occ",
				"energy": -0.2082,
				"method": "rhf"
			},
			{
				"type": "unocc",
				"energy": -0.01679,
				"method": "rhf"
			},
			{
				"type": "unocc",
				"energy": -0.0147,
				"method": "rhf"
			},
			{
				"type": "unocc",
				"energy": -0.00027,
				"method": "rhf"
			},
			{
				"type": "unocc",
				"energy": 0.01313,
				"method": "rhf"
			},
			{
				"type": "unocc",
				"energy": 0.05009,
				"method": "rhf"
			}
		],
		"cosmo_sigma_profile": { 
			"-0.025": 0.0,
			"-0.024": 0.0,
			"-0.023": 0.0,
			"-0.022": 0.0,
			"-0.021": 0.0,
			"-0.02": 0.0,
			"-0.019": 0.0,
			"-0.018": 0.0,
			"-0.017": 0.0,
			"-0.016": 0.0,
			"-0.015": 0.224896394152,
			"-0.014": 1.86514650753,
			"-0.013": 1.99930400768,
			"-0.012": 3.12590429496,
			"-0.011": 2.46181141327,
			"-0.01": 2.7739375779,
			"-0.009": 2.52694600715,
			"-0.008": 2.98466478743,
			"-0.007": 7.97619524196,
			"-0.006": 11.8770285654,
			"-0.005": 10.5950753925,
			"-0.004": 9.87552530666,
			"-0.003": 9.84034616764,
			"-0.002": 16.3079552892,
			"-0.001": 17.2995942913,
			"0.0": 18.8305199737,
			"0.001": 17.3629740601,
			"0.002": 22.5573439352,
			"0.003": 43.1734012092,
			"0.004": 22.1603952018,
			"0.005": 7.19440353539,
			"0.006": 2.78431904224,
			"0.007": 2.2852407128,
			"0.008": 2.22789949325,
			"0.009": 1.72002304759,
			"0.01": 1.74090347562,
			"0.011": 1.83946113618,
			"0.012": 1.47305462456,
			"0.013": 1.22585145886,
			"0.014": 1.00583873052,
			"0.015": 0.823183906812,
			"0.016": 0.568836731369,
			"0.017": 0.0,
			"0.018": 0.0,
			"0.019": 0.0,
			"0.02": 0.0,
			"0.021": 0.0,
			"0.022": 0.0,
			"0.023": 0.0,
			"0.024": 0.0,
			"0.025": 0.0
		}
	}
}
