{
	 "smiles": "COCCNC1=NN=NN1C", 
	 "Tm": 333.15, 
	 "num_atms": 22, 
	 "gaussian": { 
		 "optdone": 1, 
		 "sigma_profile": "yes", 
		 "theory": "DFT", 
		 "functional": "B3LYP", 
		 "basiset": "6-31G**", 
		 "properties": { 
			 "R2extent": 2246.734, 
			 "electric_dipole_moment_norm": 7.70505878822, 
			 "electric_quadrupole_moment_norm": 18.4393428326, 
			 "total_energy": -546.066983773, 
			 "HOMO_LUMO_gap": 0.24174, 
			 "cosmo_polarized_energy": -17.98, 
			 "cosmo_cavitation_energy": 25.46, 
			 "cosmo_dispersion_energy": -18.5, 
			 "cosmo_repulsion_energy": 1.51, 
			 "cosmo_total_nonelectrostatic_energy": 8.47, 
			 "SMD_solvation_energy": 2.49 
		},
		"coords": [
			{
				"x": 3.3083219342,
				"y": 0.6924469193,
				"z": -0.930422061,
				"element": "C" 
			},
			{
				"x": 2.0755523792,
				"y": 0.1539500427,
				"z": -0.4943443691,
				"element": "O" 
			},
			{
				"x": 2.1530744215,
				"y": -0.4508015847,
				"z": 0.7801972404,
				"element": "C" 
			},
			{
				"x": 0.7596148601,
				"y": -0.897165753,
				"z": 1.2044365075,
				"element": "C" 
			},
			{
				"x": -0.1155514607,
				"y": 0.2391825558,
				"z": 1.5278846318,
				"element": "N" 
			},
			{
				"x": -1.4367574168,
				"y": 0.2593280969,
				"z": 1.1287538927,
				"element": "C" 
			},
			{
				"x": -2.4773564233,
				"y": 0.4440352161,
				"z": 1.9294751259,
				"element": "N" 
			},
			{
				"x": -3.5647521235,
				"y": 0.4898682121,
				"z": 1.1160101756,
				"element": "N" 
			},
			{
				"x": -3.2379221546,
				"y": 0.3262180739,
				"z": -0.1208518315,
				"element": "N" 
			},
			{
				"x": -1.8795062375,
				"y": 0.1917637678,
				"z": -0.1489837591,
				"element": "N" 
			},
			{
				"x": -1.1616673653,
				"y": 0.0929894156,
				"z": -1.4083978338,
				"element": "C" 
			},
			{
				"x": 3.1410115808,
				"y": 1.1283835804,
				"z": -1.9177441328,
				"element": "H" 
			},
			{
				"x": 4.0855472695,
				"y": -0.083128342,
				"z": -1.0106680475,
				"element": "H" 
			},
			{
				"x": 3.6707000456,
				"y": 1.4781473235,
				"z": -0.2503364244,
				"element": "H" 
			},
			{
				"x": 2.8226994409,
				"y": -1.3275816112,
				"z": 0.7535585424,
				"element": "H" 
			},
			{
				"x": 2.5630699259,
				"y": 0.2546399545,
				"z": 1.5224151533,
				"element": "H" 
			},
			{
				"x": 0.850412678,
				"y": -1.5746445413,
				"z": 2.0647963316,
				"element": "H" 
			},
			{
				"x": 0.3135227925,
				"y": -1.4767469643,
				"z": 0.3922198408,
				"element": "H" 
			},
			{
				"x": -0.0678967689,
				"y": 0.5072160481,
				"z": 2.503967049,
				"element": "H" 
			},
			{
				"x": -1.6595645509,
				"y": 0.7380855362,
				"z": -2.1336249264,
				"element": "H" 
			},
			{
				"x": -0.1310706314,
				"y": 0.4179843376,
				"z": -1.256563498,
				"element": "H" 
			},
			{
				"x": -1.1684821953,
				"y": -0.9350702838,
				"z": -1.7838776074,
				"element": "H" 
			}
		],
		 "valence_orbital": [ 
			{
				"type": "occ",
				"energy": -0.29047,
				"method": "rhf"
			},
			{
				"type": "occ",
				"energy": -0.278,
				"method": "rhf"
			},
			{
				"type": "occ",
				"energy": -0.27673,
				"method": "rhf"
			},
			{
				"type": "occ",
				"energy": -0.26571,
				"method": "rhf"
			},
			{
				"type": "occ",
				"energy": -0.23584,
				"method": "rhf"
			},
			{
				"type": "unocc",
				"energy": 0.0059,
				"method": "rhf"
			},
			{
				"type": "unocc",
				"energy": 0.04493,
				"method": "rhf"
			},
			{
				"type": "unocc",
				"energy": 0.06726,
				"method": "rhf"
			},
			{
				"type": "unocc",
				"energy": 0.08092,
				"method": "rhf"
			},
			{
				"type": "unocc",
				"energy": 0.09291,
				"method": "rhf"
			}
		],
		"cosmo_sigma_profile": { 
			"-0.025": 0.0,
			"-0.024": 0.0,
			"-0.023": 0.0,
			"-0.022": 0.0,
			"-0.021": 0.0,
			"-0.02": 0.0,
			"-0.019": 0.0,
			"-0.018": 0.0,
			"-0.017": 0.0,
			"-0.016": 0.0,
			"-0.015": 0.0585903789371,
			"-0.014": 0.775673034802,
			"-0.013": 1.22628308295,
			"-0.012": 1.04670220123,
			"-0.011": 1.16237654987,
			"-0.01": 1.23278405344,
			"-0.009": 1.05207583317,
			"-0.008": 1.93006524697,
			"-0.007": 7.63002858084,
			"-0.006": 11.7180419302,
			"-0.005": 14.5022021451,
			"-0.004": 26.0048523406,
			"-0.003": 27.58408609,
			"-0.002": 19.5278534172,
			"-0.001": 9.06861846002,
			"0.0": 5.68978885577,
			"0.001": 5.11783852759,
			"0.002": 7.23134904328,
			"0.003": 4.21981605472,
			"0.004": 4.09885657151,
			"0.005": 4.48779547498,
			"0.006": 5.01346273792,
			"0.007": 4.68164097263,
			"0.008": 5.09566739471,
			"0.009": 6.24865487897,
			"0.01": 5.17780469774,
			"0.011": 6.43768430694,
			"0.012": 4.8759122984,
			"0.013": 3.25227601108,
			"0.014": 2.6773939886,
			"0.015": 1.46500516213,
			"0.016": 0.438020346763,
			"0.017": 0.0,
			"0.018": 0.0,
			"0.019": 0.0,
			"0.02": 0.0,
			"0.021": 0.0,
			"0.022": 0.0,
			"0.023": 0.0,
			"0.024": 0.0,
			"0.025": 0.0
		}
	}
}
