{
	 "smiles": "OC(=O)C1CCCN1C1=C(Cl)C=C(C=N1)C(F)(F)F", 
	 "Tm": 373.15, 
	 "num_atms": 29, 
	 "gaussian": { 
		 "optdone": 1, 
		 "sigma_profile": "yes", 
		 "theory": "DFT", 
		 "functional": "B3LYP", 
		 "basiset": "6-31G**", 
		 "properties": { 
			 "R2extent": 6052.6291, 
			 "electric_dipole_moment_norm": 4.75185110141, 
			 "electric_quadrupole_moment_norm": 16.3153916015, 
			 "total_energy": -1444.86076886, 
			 "HOMO_LUMO_gap": 0.19139, 
			 "cosmo_polarized_energy": -15.46, 
			 "cosmo_cavitation_energy": 35.29, 
			 "cosmo_dispersion_energy": -24.47, 
			 "cosmo_repulsion_energy": 1.83, 
			 "cosmo_total_nonelectrostatic_energy": 12.65, 
			 "SMD_solvation_energy": 6.24 
		},
		"coords": [
			{
				"x": -0.6761528149,
				"y": -1.4894564558,
				"z": -3.0616423826,
				"element": "O" 
			},
			{
				"x": 0.6247707178,
				"y": -1.3073174616,
				"z": -2.7182776389,
				"element": "C" 
			},
			{
				"x": 1.417978604,
				"y": -0.8357986017,
				"z": -3.490978804,
				"element": "O" 
			},
			{
				"x": 1.0087785026,
				"y": -1.8901534664,
				"z": -1.3633094772,
				"element": "C" 
			},
			{
				"x": 2.3663944539,
				"y": -1.4742237325,
				"z": -0.7784894028,
				"element": "C" 
			},
			{
				"x": 2.214639824,
				"y": -1.8083824013,
				"z": 0.7317205965,
				"element": "C" 
			},
			{
				"x": 0.7360051522,
				"y": -2.2615805104,
				"z": 0.9043934774,
				"element": "C" 
			},
			{
				"x": 0.0147960748,
				"y": -1.7075146407,
				"z": -0.2750135996,
				"element": "N" 
			},
			{
				"x": -0.5404928093,
				"y": -0.4270084584,
				"z": -0.1080947572,
				"element": "C" 
			},
			{
				"x": -1.6278815527,
				"y": -0.2043686893,
				"z": 0.7752548334,
				"element": "C" 
			},
			{
				"x": -2.3869747864,
				"y": -1.5179101757,
				"z": 1.6527426896,
				"element": "Cl" 
			},
			{
				"x": -2.1518257178,
				"y": 1.0719556619,
				"z": 0.9023415365,
				"element": "C" 
			},
			{
				"x": -1.6199827398,
				"y": 2.1060616866,
				"z": 0.1258329887,
				"element": "C" 
			},
			{
				"x": -0.5932332046,
				"y": 1.7961078097,
				"z": -0.7619914153,
				"element": "C" 
			},
			{
				"x": -0.0671699501,
				"y": 0.5740920586,
				"z": -0.8569356924,
				"element": "N" 
			},
			{
				"x": -2.1337586465,
				"y": 3.5099319329,
				"z": 0.273063702,
				"element": "C" 
			},
			{
				"x": -1.9042010371,
				"y": 4.243265838,
				"z": -0.8348408603,
				"element": "F" 
			},
			{
				"x": -1.5409283366,
				"y": 4.1504532766,
				"z": 1.3063945669,
				"element": "F" 
			},
			{
				"x": -3.4635192341,
				"y": 3.5261116369,
				"z": 0.5142148377,
				"element": "F" 
			},
			{
				"x": -1.1497112671,
				"y": -1.8902578212,
				"z": -2.3152788599,
				"element": "H" 
			},
			{
				"x": 1.0254873605,
				"y": -2.9794330097,
				"z": -1.5282237831,
				"element": "H" 
			},
			{
				"x": 2.522773515,
				"y": -0.407330253,
				"z": -0.9462376936,
				"element": "H" 
			},
			{
				"x": 3.1877360264,
				"y": -2.0123578648,
				"z": -1.2562137072,
				"element": "H" 
			},
			{
				"x": 2.9006941115,
				"y": -2.5955700304,
				"z": 1.0570758537,
				"element": "H" 
			},
			{
				"x": 2.4191232024,
				"y": -0.9275661294,
				"z": 1.3467912463,
				"element": "H" 
			},
			{
				"x": 0.2824830528,
				"y": -1.9204261847,
				"z": 1.8333820959,
				"element": "H" 
			},
			{
				"x": 0.6502341862,
				"y": -3.3524598806,
				"z": 0.8709867829,
				"element": "H" 
			},
			{
				"x": -2.9861954191,
				"y": 1.2523935187,
				"z": 1.5705401644,
				"element": "H" 
			},
			{
				"x": -0.1759672679,
				"y": 2.5538423475,
				"z": -1.4187072977,
				"element": "H" 
			}
		],
		 "valence_orbital": [ 
			{
				"type": "occ",
				"energy": -0.31163,
				"method": "rhf"
			},
			{
				"type": "occ",
				"energy": -0.29637,
				"method": "rhf"
			},
			{
				"type": "occ",
				"energy": -0.28842,
				"method": "rhf"
			},
			{
				"type": "occ",
				"energy": -0.26834,
				"method": "rhf"
			},
			{
				"type": "occ",
				"energy": -0.24837,
				"method": "rhf"
			},
			{
				"type": "unocc",
				"energy": -0.05698,
				"method": "rhf"
			},
			{
				"type": "unocc",
				"energy": -0.04772,
				"method": "rhf"
			},
			{
				"type": "unocc",
				"energy": 0.00775,
				"method": "rhf"
			},
			{
				"type": "unocc",
				"energy": 0.014,
				"method": "rhf"
			},
			{
				"type": "unocc",
				"energy": 0.06139,
				"method": "rhf"
			}
		],
		"cosmo_sigma_profile": { 
			"-0.025": 0.0,
			"-0.024": 0.0,
			"-0.023": 0.0,
			"-0.022": 0.0,
			"-0.021": 0.0,
			"-0.02": 0.0,
			"-0.019": 0.0,
			"-0.018": 0.0,
			"-0.017": 0.0189854711193,
			"-0.016": 0.719512685057,
			"-0.015": 0.515571292795,
			"-0.014": 0.620476304647,
			"-0.013": 0.787113735516,
			"-0.012": 1.05879735337,
			"-0.011": 1.18145604015,
			"-0.01": 1.19187426711,
			"-0.009": 2.86683853091,
			"-0.008": 6.5374985585,
			"-0.007": 7.28158276259,
			"-0.006": 8.71904852848,
			"-0.005": 13.1377335437,
			"-0.004": 19.3189243064,
			"-0.003": 24.3630101909,
			"-0.002": 23.4410527103,
			"-0.001": 26.5929813613,
			"0.0": 21.8150696642,
			"0.001": 17.2982237096,
			"0.002": 29.41680598,
			"0.003": 28.0903897863,
			"0.004": 8.0283308761,
			"0.005": 4.3025379009,
			"0.006": 4.37677711284,
			"0.007": 4.05941647346,
			"0.008": 3.61299563631,
			"0.009": 4.75742250242,
			"0.01": 5.918765015,
			"0.011": 5.44433750237,
			"0.012": 5.45348437294,
			"0.013": 1.69627668666,
			"0.014": 0.0,
			"0.015": 0.0,
			"0.016": 0.0,
			"0.017": 0.0,
			"0.018": 0.0,
			"0.019": 0.0,
			"0.02": 0.0,
			"0.021": 0.0,
			"0.022": 0.0,
			"0.023": 0.0,
			"0.024": 0.0,
			"0.025": 0.0
		}
	}
}
