{
	 "smiles": "CC1CCN(CC1)C1=C(C=C(C=C1)[N+]([O-])=O)C(O)=O", 
	 "Tm": 434.15, 
	 "num_atms": 35, 
	 "gaussian": { 
		 "optdone": 1, 
		 "sigma_profile": "yes", 
		 "theory": "DFT", 
		 "functional": "B3LYP", 
		 "basiset": "6-31G**", 
		 "properties": { 
			 "R2extent": 6960.7905, 
			 "electric_dipole_moment_norm": 6.66639120214, 
			 "electric_quadrupole_moment_norm": 29.166939534, 
			 "total_energy": -915.349622829, 
			 "HOMO_LUMO_gap": 0.14095, 
			 "cosmo_polarized_energy": -15.5, 
			 "cosmo_cavitation_energy": 37.27, 
			 "cosmo_dispersion_energy": -26.65, 
			 "cosmo_repulsion_energy": 2.04, 
			 "cosmo_total_nonelectrostatic_energy": 12.66, 
			 "SMD_solvation_energy": 8.83 
		},
		"coords": [
			{
				"x": -0.4094685276,
				"y": -0.0311773313,
				"z": 4.3226997376,
				"element": "C" 
			},
			{
				"x": -0.674896529,
				"y": -0.6884072013,
				"z": 2.9648315884,
				"element": "C" 
			},
			{
				"x": -1.5550398803,
				"y": 0.1893118879,
				"z": 2.0588423997,
				"element": "C" 
			},
			{
				"x": -1.7552715898,
				"y": -0.4717808564,
				"z": 0.6908675592,
				"element": "C" 
			},
			{
				"x": -0.4856663303,
				"y": -0.800179378,
				"z": 0.0371101515,
				"element": "N" 
			},
			{
				"x": 0.3877436253,
				"y": -1.6563685307,
				"z": 0.8418247297,
				"element": "C" 
			},
			{
				"x": 0.6292301272,
				"y": -1.0283410923,
				"z": 2.2253354473,
				"element": "C" 
			},
			{
				"x": -0.1447084979,
				"y": -0.3064798318,
				"z": -1.198592579,
				"element": "C" 
			},
			{
				"x": 0.6542258318,
				"y": -1.0334582083,
				"z": -2.1423131983,
				"element": "C" 
			},
			{
				"x": 1.1055569752,
				"y": -0.3981620728,
				"z": -3.3064922994,
				"element": "C" 
			},
			{
				"x": 0.7201863166,
				"y": 0.9017468209,
				"z": -3.5964849024,
				"element": "C" 
			},
			{
				"x": -0.1373227668,
				"y": 1.6012895266,
				"z": -2.7382679391,
				"element": "C" 
			},
			{
				"x": -0.5570191737,
				"y": 1.0044606878,
				"z": -1.5681020815,
				"element": "C" 
			},
			{
				"x": 1.1922250981,
				"y": 1.5371690291,
				"z": -4.8188624304,
				"element": "N" 
			},
			{
				"x": 0.7955585709,
				"y": 2.6813842066,
				"z": -5.058269383,
				"element": "O" 
			},
			{
				"x": 1.960013392,
				"y": 0.899453685,
				"z": -5.5435219204,
				"element": "O" 
			},
			{
				"x": 0.8353026492,
				"y": -2.5067162017,
				"z": -2.0596528204,
				"element": "C" 
			},
			{
				"x": 1.8601180098,
				"y": -2.9504092956,
				"z": -2.8343768482,
				"element": "O" 
			},
			{
				"x": 0.135397399,
				"y": -3.2825450642,
				"z": -1.4355603737,
				"element": "O" 
			},
			{
				"x": -1.3456045322,
				"y": 0.187268685,
				"z": 4.8479909266,
				"element": "H" 
			},
			{
				"x": 0.1926372971,
				"y": -0.6806959749,
				"z": 4.9671395828,
				"element": "H" 
			},
			{
				"x": 0.1335186952,
				"y": 0.9138099199,
				"z": 4.2022194334,
				"element": "H" 
			},
			{
				"x": -1.2171972253,
				"y": -1.6312927577,
				"z": 3.1385300671,
				"element": "H" 
			},
			{
				"x": -1.0817052373,
				"y": 1.1719800515,
				"z": 1.9266906505,
				"element": "H" 
			},
			{
				"x": -2.5333460433,
				"y": 0.3612346406,
				"z": 2.5245866201,
				"element": "H" 
			},
			{
				"x": -2.3089649482,
				"y": -1.4144875748,
				"z": 0.8252466675,
				"element": "H" 
			},
			{
				"x": -2.3574454879,
				"y": 0.1482769405,
				"z": 0.0262819136,
				"element": "H" 
			},
			{
				"x": -0.0505815853,
				"y": -2.6577878688,
				"z": 0.9349302021,
				"element": "H" 
			},
			{
				"x": 1.3422651848,
				"y": -1.7715750671,
				"z": 0.3283658826,
				"element": "H" 
			},
			{
				"x": 1.2227800565,
				"y": -0.1120236076,
				"z": 2.1021852517,
				"element": "H" 
			},
			{
				"x": 1.2338962985,
				"y": -1.723138719,
				"z": 2.8214431325,
				"element": "H" 
			},
			{
				"x": 1.718713528,
				"y": -0.9373470517,
				"z": -4.0156488262,
				"element": "H" 
			},
			{
				"x": -0.4276587172,
				"y": 2.6140876329,
				"z": -2.9893719967,
				"element": "H" 
			},
			{
				"x": -1.1578172678,
				"y": 1.5829570624,
				"z": -0.87647513,
				"element": "H" 
			},
			{
				"x": 1.825345285,
				"y": -3.9195570909,
				"z": -2.7810292151,
				"element": "H" 
			}
		],
		 "valence_orbital": [ 
			{
				"type": "occ",
				"energy": -0.29615,
				"method": "rhf"
			},
			{
				"type": "occ",
				"energy": -0.28254,
				"method": "rhf"
			},
			{
				"type": "occ",
				"energy": -0.27736,
				"method": "rhf"
			},
			{
				"type": "occ",
				"energy": -0.27562,
				"method": "rhf"
			},
			{
				"type": "occ",
				"energy": -0.21726,
				"method": "rhf"
			},
			{
				"type": "unocc",
				"energy": -0.07631,
				"method": "rhf"
			},
			{
				"type": "unocc",
				"energy": -0.05365,
				"method": "rhf"
			},
			{
				"type": "unocc",
				"energy": -0.00066,
				"method": "rhf"
			},
			{
				"type": "unocc",
				"energy": 0.04669,
				"method": "rhf"
			},
			{
				"type": "unocc",
				"energy": 0.06983,
				"method": "rhf"
			}
		],
		"cosmo_sigma_profile": { 
			"-0.025": 0.0,
			"-0.024": 0.0,
			"-0.023": 0.0,
			"-0.022": 0.0,
			"-0.021": 0.0,
			"-0.02": 0.0,
			"-0.019": 0.0834694700376,
			"-0.018": 0.795975948274,
			"-0.017": 0.50944348104,
			"-0.016": 0.967111002289,
			"-0.015": 1.23711551651,
			"-0.014": 0.588017400202,
			"-0.013": 0.340853358078,
			"-0.012": 0.490003120966,
			"-0.011": 0.804217921463,
			"-0.01": 0.684614267481,
			"-0.009": 0.422382877788,
			"-0.008": 1.86607577414,
			"-0.007": 5.98802315156,
			"-0.006": 7.70730929344,
			"-0.005": 8.61500542168,
			"-0.004": 16.4472970987,
			"-0.003": 35.8154069734,
			"-0.002": 43.2729104488,
			"-0.001": 31.7325954911,
			"0.0": 28.9588283829,
			"0.001": 27.3367249534,
			"0.002": 13.4867559739,
			"0.003": 7.44473354699,
			"0.004": 5.17919236066,
			"0.005": 4.79612629094,
			"0.006": 5.99960416521,
			"0.007": 6.26252965657,
			"0.008": 11.7448575808,
			"0.009": 8.69179482378,
			"0.01": 6.26855194872,
			"0.011": 5.54582320491,
			"0.012": 2.88127411067,
			"0.013": 0.127323548634,
			"0.014": 0.0,
			"0.015": 0.0,
			"0.016": 0.0,
			"0.017": 0.0,
			"0.018": 0.0,
			"0.019": 0.0,
			"0.02": 0.0,
			"0.021": 0.0,
			"0.022": 0.0,
			"0.023": 0.0,
			"0.024": 0.0,
			"0.025": 0.0
		}
	}
}
