{
	 "smiles": "COCCNC(=O)NC1=CC=C(N)C=C1", 
	 "Tm": 409.15, 
	 "num_atms": 30, 
	 "gaussian": { 
		 "optdone": 1, 
		 "sigma_profile": "yes", 
		 "theory": "DFT", 
		 "functional": "B3LYP", 
		 "basiset": "6-31G**", 
		 "properties": { 
			 "R2extent": 4802.1824, 
			 "electric_dipole_moment_norm": 6.62033284133, 
			 "electric_quadrupole_moment_norm": 11.9117682898, 
			 "total_energy": -704.814541894, 
			 "HOMO_LUMO_gap": 0.18826, 
			 "cosmo_polarized_energy": -19.56, 
			 "cosmo_cavitation_energy": 33.29, 
			 "cosmo_dispersion_energy": -23.68, 
			 "cosmo_repulsion_energy": 1.89, 
			 "cosmo_total_nonelectrostatic_energy": 11.5, 
			 "SMD_solvation_energy": 6.48 
		},
		"coords": [
			{
				"x": 0.5456628941,
				"y": 3.0331252852,
				"z": -3.3904265805,
				"element": "C" 
			},
			{
				"x": -0.8444683789,
				"y": 2.9803705825,
				"z": -3.6686569539,
				"element": "O" 
			},
			{
				"x": -1.6209271309,
				"y": 2.2663614954,
				"z": -2.7321738729,
				"element": "C" 
			},
			{
				"x": -1.3691877337,
				"y": 0.7473328554,
				"z": -2.6746000929,
				"element": "C" 
			},
			{
				"x": -0.3186336488,
				"y": 0.3375161469,
				"z": -1.7520810235,
				"element": "N" 
			},
			{
				"x": 0.8216203564,
				"y": -0.2912674063,
				"z": -2.187497107,
				"element": "C" 
			},
			{
				"x": 1.1174068163,
				"y": -0.4192725788,
				"z": -3.3735363564,
				"element": "O" 
			},
			{
				"x": 1.6748532709,
				"y": -0.7668527003,
				"z": -1.1955768845,
				"element": "N" 
			},
			{
				"x": 1.4749937377,
				"y": -0.8005572109,
				"z": 0.209170771,
				"element": "C" 
			},
			{
				"x": 1.5282363666,
				"y": -2.0171571756,
				"z": 0.9037515299,
				"element": "C" 
			},
			{
				"x": 1.3849702251,
				"y": -2.0599289324,
				"z": 2.2865301392,
				"element": "C" 
			},
			{
				"x": 1.1529038367,
				"y": -0.8850377161,
				"z": 3.0234948985,
				"element": "C" 
			},
			{
				"x": 0.9314954638,
				"y": -0.9348790702,
				"z": 4.4005617137,
				"element": "N" 
			},
			{
				"x": 1.0946950226,
				"y": 0.3335437158,
				"z": 2.3260263645,
				"element": "C" 
			},
			{
				"x": 1.2728747388,
				"y": 0.3762133807,
				"z": 0.9459141973,
				"element": "C" 
			},
			{
				"x": 0.7382056091,
				"y": 3.3630424869,
				"z": -2.3567056579,
				"element": "H" 
			},
			{
				"x": 1.0377282115,
				"y": 2.0673264783,
				"z": -3.5555840304,
				"element": "H" 
			},
			{
				"x": 0.9725096923,
				"y": 3.7699695285,
				"z": -4.0764952242,
				"element": "H" 
			},
			{
				"x": -1.5023639622,
				"y": 2.6912862977,
				"z": -1.7187806101,
				"element": "H" 
			},
			{
				"x": -2.6592267164,
				"y": 2.4319907966,
				"z": -3.0414941686,
				"element": "H" 
			},
			{
				"x": -1.0921893057,
				"y": 0.3886123906,
				"z": -3.6685861821,
				"element": "H" 
			},
			{
				"x": -2.3060311779,
				"y": 0.2529019339,
				"z": -2.3847372679,
				"element": "H" 
			},
			{
				"x": -0.5495927096,
				"y": 0.2679995002,
				"z": -0.7718982689,
				"element": "H" 
			},
			{
				"x": 2.4104251226,
				"y": -1.3372844429,
				"z": -1.5877241252,
				"element": "H" 
			},
			{
				"x": 1.6853595164,
				"y": -2.9387619762,
				"z": 0.3499074395,
				"element": "H" 
			},
			{
				"x": 1.4333270518,
				"y": -3.0154839874,
				"z": 2.802821335,
				"element": "H" 
			},
			{
				"x": 1.3251912857,
				"y": -1.7377281563,
				"z": 4.8715977273,
				"element": "H" 
			},
			{
				"x": 1.1216064753,
				"y": -0.0763118989,
				"z": 4.8988783358,
				"element": "H" 
			},
			{
				"x": 0.9290399682,
				"y": 1.2576030223,
				"z": 2.874438834,
				"element": "H" 
			},
			{
				"x": 1.2712151021,
				"y": 1.3320273556,
				"z": 0.4310611213,
				"element": "H" 
			}
		],
		 "valence_orbital": [ 
			{
				"type": "occ",
				"energy": -0.26078,
				"method": "rhf"
			},
			{
				"type": "occ",
				"energy": -0.25284,
				"method": "rhf"
			},
			{
				"type": "occ",
				"energy": -0.25084,
				"method": "rhf"
			},
			{
				"type": "occ",
				"energy": -0.23134,
				"method": "rhf"
			},
			{
				"type": "occ",
				"energy": -0.20141,
				"method": "rhf"
			},
			{
				"type": "unocc",
				"energy": -0.01315,
				"method": "rhf"
			},
			{
				"type": "unocc",
				"energy": 0.00211,
				"method": "rhf"
			},
			{
				"type": "unocc",
				"energy": 0.06729,
				"method": "rhf"
			},
			{
				"type": "unocc",
				"energy": 0.07418,
				"method": "rhf"
			},
			{
				"type": "unocc",
				"energy": 0.08969,
				"method": "rhf"
			}
		],
		"cosmo_sigma_profile": { 
			"-0.025": 0.0,
			"-0.024": 0.0,
			"-0.023": 0.0,
			"-0.022": 0.0,
			"-0.021": 0.0,
			"-0.02": 0.0,
			"-0.019": 0.0,
			"-0.018": 0.0,
			"-0.017": 0.0,
			"-0.016": 0.0,
			"-0.015": 0.0,
			"-0.014": 0.179064635654,
			"-0.013": 1.08272498094,
			"-0.012": 4.19853808844,
			"-0.011": 4.41412372566,
			"-0.01": 4.75488717611,
			"-0.009": 4.64355676823,
			"-0.008": 5.06929305151,
			"-0.007": 5.89233374712,
			"-0.006": 9.18724355991,
			"-0.005": 18.705763392,
			"-0.004": 19.3867327127,
			"-0.003": 22.4534267422,
			"-0.002": 19.5766147604,
			"-0.001": 20.0875618524,
			"0.0": 14.3057367018,
			"0.001": 14.1673614776,
			"0.002": 12.1696146331,
			"0.003": 11.1449515204,
			"0.004": 10.8773170041,
			"0.005": 12.8928941937,
			"0.006": 12.3055240991,
			"0.007": 4.34590668452,
			"0.008": 3.21106684227,
			"0.009": 3.93259446676,
			"0.01": 3.10732135719,
			"0.011": 2.76220306109,
			"0.012": 3.03554775847,
			"0.013": 4.68241989498,
			"0.014": 5.26651069804,
			"0.015": 3.8057818818,
			"0.016": 0.0731461620105,
			"0.017": 0.0,
			"0.018": 0.0,
			"0.019": 0.0,
			"0.02": 0.0,
			"0.021": 0.0,
			"0.022": 0.0,
			"0.023": 0.0,
			"0.024": 0.0,
			"0.025": 0.0
		}
	}
}
