{
	 "smiles": "CC(C)N1C=C(C#N)C(=O)N(CC2=CC=CC=C2)C1=O", 
	 "Tm": 425.15, 
	 "num_atms": 35, 
	 "gaussian": { 
		 "optdone": 1, 
		 "sigma_profile": "yes", 
		 "theory": "DFT", 
		 "functional": "B3LYP", 
		 "basiset": "6-31G**", 
		 "properties": { 
			 "R2extent": 7262.5282, 
			 "electric_dipole_moment_norm": 6.3093140269, 
			 "electric_quadrupole_moment_norm": 20.866365281, 
			 "total_energy": -895.36615189, 
			 "HOMO_LUMO_gap": 0.17899, 
			 "cosmo_polarized_energy": -19.47, 
			 "cosmo_cavitation_energy": 39.43, 
			 "cosmo_dispersion_energy": -26.72, 
			 "cosmo_repulsion_energy": 2.05, 
			 "cosmo_total_nonelectrostatic_energy": 14.76, 
			 "SMD_solvation_energy": 9.33 
		},
		"coords": [
			{
				"x": 2.4686563886,
				"y": 1.2820983093,
				"z": 1.717584856,
				"element": "C" 
			},
			{
				"x": 1.8918154081,
				"y": 0.7274529978,
				"z": 0.4115001197,
				"element": "C" 
			},
			{
				"x": 2.4536398585,
				"y": -0.6480883095,
				"z": 0.0390048415,
				"element": "C" 
			},
			{
				"x": 0.4002028532,
				"y": 0.6941780779,
				"z": 0.461454636,
				"element": "N" 
			},
			{
				"x": -0.2446523752,
				"y": -0.080892526,
				"z": 1.3715789751,
				"element": "C" 
			},
			{
				"x": -1.6034938718,
				"y": -0.1529544304,
				"z": 1.4580423528,
				"element": "C" 
			},
			{
				"x": -2.227326549,
				"y": -0.9812273323,
				"z": 2.4346543203,
				"element": "C" 
			},
			{
				"x": -2.7076652691,
				"y": -1.6654290178,
				"z": 3.2437432033,
				"element": "N" 
			},
			{
				"x": -2.4347210401,
				"y": 0.6225089607,
				"z": 0.5317679295,
				"element": "C" 
			},
			{
				"x": -3.654547315,
				"y": 0.6167369125,
				"z": 0.5257341752,
				"element": "O" 
			},
			{
				"x": -1.6969699798,
				"y": 1.4073357773,
				"z": -0.3840272871,
				"element": "N" 
			},
			{
				"x": -2.4706426091,
				"y": 2.2137556088,
				"z": -1.3653085218,
				"element": "C" 
			},
			{
				"x": -2.7295564792,
				"y": 1.4804822688,
				"z": -2.6665895189,
				"element": "C" 
			},
			{
				"x": -1.8600922659,
				"y": 1.634837009,
				"z": -3.7545286323,
				"element": "C" 
			},
			{
				"x": -2.1032858817,
				"y": 0.962579802,
				"z": -4.9532950361,
				"element": "C" 
			},
			{
				"x": -3.2164116759,
				"y": 0.1288026787,
				"z": -5.0758999155,
				"element": "C" 
			},
			{
				"x": -4.0862312869,
				"y": -0.0304446021,
				"z": -3.9949324481,
				"element": "C" 
			},
			{
				"x": -3.8456562307,
				"y": 0.6419919185,
				"z": -2.7962634641,
				"element": "C" 
			},
			{
				"x": -0.312337633,
				"y": 1.4818578203,
				"z": -0.4681835816,
				"element": "C" 
			},
			{
				"x": 0.2658233829,
				"y": 2.1835757695,
				"z": -1.2837222564,
				"element": "O" 
			},
			{
				"x": 2.2774942467,
				"y": 0.6200291116,
				"z": 2.569312034,
				"element": "H" 
			},
			{
				"x": 2.0505758436,
				"y": 2.2666460752,
				"z": 1.9447184481,
				"element": "H" 
			},
			{
				"x": 3.5533136927,
				"y": 1.3866116587,
				"z": 1.6215373772,
				"element": "H" 
			},
			{
				"x": 2.1046607783,
				"y": 1.428140213,
				"z": -0.3957572071,
				"element": "H" 
			},
			{
				"x": 2.0271991418,
				"y": -1.0038481727,
				"z": -0.9028977287,
				"element": "H" 
			},
			{
				"x": 3.5386058057,
				"y": -0.5789083849,
				"z": -0.082573286,
				"element": "H" 
			},
			{
				"x": 2.2570963127,
				"y": -1.3981699933,
				"z": 0.8130751579,
				"element": "H" 
			},
			{
				"x": 0.3851436905,
				"y": -0.6535631521,
				"z": 2.0420214416,
				"element": "H" 
			},
			{
				"x": -1.8968710428,
				"y": 3.1232035422,
				"z": -1.5401497241,
				"element": "H" 
			},
			{
				"x": -3.4085726382,
				"y": 2.4602262705,
				"z": -0.8687368333,
				"element": "H" 
			},
			{
				"x": -0.9904313756,
				"y": 2.2768260623,
				"z": -3.6527635432,
				"element": "H" 
			},
			{
				"x": -1.4248220201,
				"y": 1.0924385736,
				"z": -5.7918775902,
				"element": "H" 
			},
			{
				"x": -3.4069127247,
				"y": -0.3922135153,
				"z": -6.0100170529,
				"element": "H" 
			},
			{
				"x": -4.955399611,
				"y": -0.6758028553,
				"z": -4.0855488375,
				"element": "H" 
			},
			{
				"x": -4.5162275285,
				"y": 0.5166268733,
				"z": -1.9515574031,
				"element": "H" 
			}
		],
		 "valence_orbital": [ 
			{
				"type": "occ",
				"energy": -0.28647,
				"method": "rhf"
			},
			{
				"type": "occ",
				"energy": -0.27909,
				"method": "rhf"
			},
			{
				"type": "occ",
				"energy": -0.25537,
				"method": "rhf"
			},
			{
				"type": "occ",
				"energy": -0.24891,
				"method": "rhf"
			},
			{
				"type": "occ",
				"energy": -0.24739,
				"method": "rhf"
			},
			{
				"type": "unocc",
				"energy": -0.0684,
				"method": "rhf"
			},
			{
				"type": "unocc",
				"energy": -0.01817,
				"method": "rhf"
			},
			{
				"type": "unocc",
				"energy": -0.00751,
				"method": "rhf"
			},
			{
				"type": "unocc",
				"energy": -0.00079,
				"method": "rhf"
			},
			{
				"type": "unocc",
				"energy": 0.02736,
				"method": "rhf"
			}
		],
		"cosmo_sigma_profile": { 
			"-0.025": 0.0,
			"-0.024": 0.0,
			"-0.023": 0.0,
			"-0.022": 0.0,
			"-0.021": 0.0,
			"-0.02": 0.0,
			"-0.019": 0.0,
			"-0.018": 0.0,
			"-0.017": 0.0,
			"-0.016": 0.0,
			"-0.015": 0.0,
			"-0.014": 0.0,
			"-0.013": 0.0,
			"-0.012": 0.604815204919,
			"-0.011": 3.07161468448,
			"-0.01": 2.82796445161,
			"-0.009": 1.83969679102,
			"-0.008": 2.84534080293,
			"-0.007": 4.24507553374,
			"-0.006": 9.63093868561,
			"-0.005": 28.1562130342,
			"-0.004": 35.5362078418,
			"-0.003": 36.1822655719,
			"-0.002": 28.0430300797,
			"-0.001": 24.2993917159,
			"0.0": 19.6329907658,
			"0.001": 11.4657896991,
			"0.002": 12.4963350201,
			"0.003": 12.9265521681,
			"0.004": 14.5685167188,
			"0.005": 14.500823937,
			"0.006": 10.8536086288,
			"0.007": 6.71660617281,
			"0.008": 6.08831603011,
			"0.009": 6.97453176746,
			"0.01": 7.25700975326,
			"0.011": 7.68379849079,
			"0.012": 5.00998455627,
			"0.013": 1.5579937426,
			"0.014": 0.0154688562695,
			"0.015": 0.0,
			"0.016": 0.0,
			"0.017": 0.0,
			"0.018": 0.0,
			"0.019": 0.0,
			"0.02": 0.0,
			"0.021": 0.0,
			"0.022": 0.0,
			"0.023": 0.0,
			"0.024": 0.0,
			"0.025": 0.0
		}
	}
}
