{
	 "smiles": "COP(=O)(OC)OC(=CCl)C1=C(Cl)C=C(Cl)C(Cl)=C1", 
	 "Tm": 369.95, 
	 "num_atms": 28, 
	 "gaussian": { 
		 "optdone": 1, 
		 "sigma_profile": "yes", 
		 "theory": "DFT", 
		 "functional": "B3LYP", 
		 "basiset": "6-31G**", 
		 "properties": { 
			 "R2extent": 10753.8322, 
			 "electric_dipole_moment_norm": 4.00027221824, 
			 "electric_quadrupole_moment_norm": 15.6018481848, 
			 "total_energy": -2869.53559673, 
			 "HOMO_LUMO_gap": 0.19581, 
			 "cosmo_polarized_energy": -12.33, 
			 "cosmo_cavitation_energy": 42.06, 
			 "cosmo_dispersion_energy": -28.73, 
			 "cosmo_repulsion_energy": 2.26, 
			 "cosmo_total_nonelectrostatic_energy": 15.58, 
			 "SMD_solvation_energy": 9.49 
		},
		"coords": [
			{
				"x": -1.8319297597,
				"y": 2.0724868338,
				"z": -1.7768914674,
				"element": "C" 
			},
			{
				"x": -0.5501253509,
				"y": 1.42696215,
				"z": -1.9177707273,
				"element": "O" 
			},
			{
				"x": -0.4327358514,
				"y": -0.1476602707,
				"z": -1.6472955984,
				"element": "P" 
			},
			{
				"x": -1.3728498706,
				"y": -1.0482087252,
				"z": -2.3409845511,
				"element": "O" 
			},
			{
				"x": 1.099371424,
				"y": -0.4323480119,
				"z": -1.9656263432,
				"element": "O" 
			},
			{
				"x": 2.1624036864,
				"y": 0.4204417237,
				"z": -1.4889920101,
				"element": "C" 
			},
			{
				"x": -0.5562508211,
				"y": -0.1428712355,
				"z": -0.0072428781,
				"element": "O" 
			},
			{
				"x": -0.8991944941,
				"y": -1.21689477,
				"z": 0.8127984227,
				"element": "C" 
			},
			{
				"x": -1.3770127809,
				"y": -2.3785125514,
				"z": 0.3537118204,
				"element": "C" 
			},
			{
				"x": -1.7873682761,
				"y": -3.7001073788,
				"z": 1.4128740807,
				"element": "Cl" 
			},
			{
				"x": -0.7319737778,
				"y": -0.8578806823,
				"z": 2.2466566193,
				"element": "C" 
			},
			{
				"x": 0.5188328446,
				"y": -0.797353964,
				"z": 2.8781663471,
				"element": "C" 
			},
			{
				"x": 1.9770494588,
				"y": -1.2325348971,
				"z": 2.0111360432,
				"element": "Cl" 
			},
			{
				"x": 0.6384116553,
				"y": -0.419258249,
				"z": 4.2123293253,
				"element": "C" 
			},
			{
				"x": -0.5008561404,
				"y": -0.087272299,
				"z": 4.9467738469,
				"element": "C" 
			},
			{
				"x": -0.3087479556,
				"y": 0.3845159139,
				"z": 6.6123996847,
				"element": "Cl" 
			},
			{
				"x": -1.7621681626,
				"y": -0.1426406578,
				"z": 4.338548958,
				"element": "C" 
			},
			{
				"x": -3.2166463282,
				"y": 0.2591389867,
				"z": 5.2104820874,
				"element": "Cl" 
			},
			{
				"x": -1.8616432385,
				"y": -0.5250746666,
				"z": 3.0013534347,
				"element": "C" 
			},
			{
				"x": -2.1201082087,
				"y": 2.1093932069,
				"z": -0.722389679,
				"element": "H" 
			},
			{
				"x": -2.59173369,
				"y": 1.5422321025,
				"z": -2.3565252681,
				"element": "H" 
			},
			{
				"x": -1.7093813713,
				"y": 3.0849090675,
				"z": -2.1621484877,
				"element": "H" 
			},
			{
				"x": 2.1477198392,
				"y": 0.4773543965,
				"z": -0.3983863876,
				"element": "H" 
			},
			{
				"x": 3.0901853056,
				"y": -0.0448143524,
				"z": -1.822387469,
				"element": "H" 
			},
			{
				"x": 2.0658992012,
				"y": 1.4181485149,
				"z": -1.9225057209,
				"element": "H" 
			},
			{
				"x": -1.5393974922,
				"y": -2.5750595059,
				"z": -0.6972637062,
				"element": "H" 
			},
			{
				"x": 1.6116316726,
				"y": -0.3858796712,
				"z": 4.6860732922,
				"element": "H" 
			},
			{
				"x": -2.8399815177,
				"y": -0.5692110078,
				"z": 2.5370063315,
				"element": "H" 
			}
		],
		 "valence_orbital": [ 
			{
				"type": "occ",
				"energy": -0.31382,
				"method": "rhf"
			},
			{
				"type": "occ",
				"energy": -0.29807,
				"method": "rhf"
			},
			{
				"type": "occ",
				"energy": -0.27972,
				"method": "rhf"
			},
			{
				"type": "occ",
				"energy": -0.26114,
				"method": "rhf"
			},
			{
				"type": "occ",
				"energy": -0.24815,
				"method": "rhf"
			},
			{
				"type": "unocc",
				"energy": -0.05234,
				"method": "rhf"
			},
			{
				"type": "unocc",
				"energy": -0.04329,
				"method": "rhf"
			},
			{
				"type": "unocc",
				"energy": -0.01966,
				"method": "rhf"
			},
			{
				"type": "unocc",
				"energy": -0.0025,
				"method": "rhf"
			},
			{
				"type": "unocc",
				"energy": 0.01971,
				"method": "rhf"
			}
		],
		"cosmo_sigma_profile": { 
			"-0.025": 0.0,
			"-0.024": 0.0,
			"-0.023": 0.0,
			"-0.022": 0.0,
			"-0.021": 0.0,
			"-0.02": 0.0,
			"-0.019": 0.0,
			"-0.018": 0.0,
			"-0.017": 0.0,
			"-0.016": 0.0,
			"-0.015": 0.0,
			"-0.014": 0.0,
			"-0.013": 0.0,
			"-0.012": 0.0,
			"-0.011": 0.0,
			"-0.01": 0.233758908011,
			"-0.009": 2.1811488984,
			"-0.008": 3.72124214083,
			"-0.007": 7.78909266638,
			"-0.006": 14.5242385364,
			"-0.005": 18.941130037,
			"-0.004": 25.3981170799,
			"-0.003": 21.3847952478,
			"-0.002": 25.7133785467,
			"-0.001": 37.639811244,
			"0.0": 36.5485321712,
			"0.001": 28.2775445883,
			"0.002": 31.6821563151,
			"0.003": 36.0903573807,
			"0.004": 24.4120067079,
			"0.005": 7.02189639832,
			"0.006": 3.65603979833,
			"0.007": 2.74368685924,
			"0.008": 2.92928542694,
			"0.009": 2.65591409905,
			"0.01": 0.954228281784,
			"0.011": 1.70346325037,
			"0.012": 2.82647421139,
			"0.013": 3.68456277614,
			"0.014": 0.903940860811,
			"0.015": 0.0,
			"0.016": 0.0,
			"0.017": 0.0,
			"0.018": 0.0,
			"0.019": 0.0,
			"0.02": 0.0,
			"0.021": 0.0,
			"0.022": 0.0,
			"0.023": 0.0,
			"0.024": 0.0,
			"0.025": 0.0
		}
	}
}
