{
	 "smiles": "OC(=O)C1=CN(C(=O)C=C1)C1=CC=C(F)C=C1", 
	 "Tm": 573.15, 
	 "num_atms": 25, 
	 "gaussian": { 
		 "optdone": 1, 
		 "sigma_profile": "yes", 
		 "theory": "DFT", 
		 "functional": "B3LYP", 
		 "basiset": "6-31G**", 
		 "properties": { 
			 "R2extent": 5278.9611, 
			 "electric_dipole_moment_norm": 2.93917495396, 
			 "electric_quadrupole_moment_norm": 13.38996646, 
			 "total_energy": -842.373834895, 
			 "HOMO_LUMO_gap": 0.16925, 
			 "cosmo_polarized_energy": -15.71, 
			 "cosmo_cavitation_energy": 31.19, 
			 "cosmo_dispersion_energy": -22.35, 
			 "cosmo_repulsion_energy": 1.69, 
			 "cosmo_total_nonelectrostatic_energy": 10.53, 
			 "SMD_solvation_energy": 7.96 
		},
		"coords": [
			{
				"x": -2.9215033632,
				"y": 2.2826461482,
				"z": 0.2225476985,
				"element": "O" 
			},
			{
				"x": -2.241234619,
				"y": 2.3881734687,
				"z": -0.9511625077,
				"element": "C" 
			},
			{
				"x": -2.4150297528,
				"y": 3.3151137354,
				"z": -1.7187140164,
				"element": "O" 
			},
			{
				"x": -1.2993284197,
				"y": 1.2793691159,
				"z": -1.1778803192,
				"element": "C" 
			},
			{
				"x": -1.1414021492,
				"y": 0.2612411745,
				"z": -0.2710715139,
				"element": "C" 
			},
			{
				"x": -0.265351154,
				"y": -0.7619693326,
				"z": -0.4741387241,
				"element": "N" 
			},
			{
				"x": 0.5804990899,
				"y": -0.8352629039,
				"z": -1.6453582526,
				"element": "C" 
			},
			{
				"x": 1.3750122233,
				"y": -1.7553347766,
				"z": -1.7757239026,
				"element": "O" 
			},
			{
				"x": 0.3783591041,
				"y": 0.2490528917,
				"z": -2.5878828525,
				"element": "C" 
			},
			{
				"x": -0.511300385,
				"y": 1.2536582172,
				"z": -2.370201798,
				"element": "C" 
			},
			{
				"x": -0.2110745285,
				"y": -1.8315863439,
				"z": 0.4887518646,
				"element": "C" 
			},
			{
				"x": -1.3971108946,
				"y": -2.4599622962,
				"z": 0.8788019646,
				"element": "C" 
			},
			{
				"x": -1.3732456895,
				"y": -3.4690857936,
				"z": 1.8409021918,
				"element": "C" 
			},
			{
				"x": -0.149862923,
				"y": -3.8429291923,
				"z": 2.3830983348,
				"element": "C" 
			},
			{
				"x": -0.1169187486,
				"y": -4.8204614475,
				"z": 3.3088281065,
				"element": "F" 
			},
			{
				"x": 1.0433926278,
				"y": -3.2406247377,
				"z": 1.9953108198,
				"element": "C" 
			},
			{
				"x": 1.0117680403,
				"y": -2.2273994821,
				"z": 1.0414075934,
				"element": "C" 
			},
			{
				"x": -3.5016809573,
				"y": 3.0602044618,
				"z": 0.2609018191,
				"element": "H" 
			},
			{
				"x": -1.698880718,
				"y": 0.2340923242,
				"z": 0.656576984,
				"element": "H" 
			},
			{
				"x": 0.989728799,
				"y": 0.2028626628,
				"z": -3.4814691072,
				"element": "H" 
			},
			{
				"x": -0.6437074646,
				"y": 2.0591889215,
				"z": -3.085429362,
				"element": "H" 
			},
			{
				"x": -2.3381708972,
				"y": -2.1717660549,
				"z": 0.4211116372,
				"element": "H" 
			},
			{
				"x": -2.2803035179,
				"y": -3.9704423268,
				"z": 2.1590715035,
				"element": "H" 
			},
			{
				"x": 1.9768820476,
				"y": -3.5663667989,
				"z": 2.4403371361,
				"element": "H" 
			},
			{
				"x": 1.92886425,
				"y": -1.7523116348,
				"z": 0.7186847022,
				"element": "H" 
			}
		],
		 "valence_orbital": [ 
			{
				"type": "occ",
				"energy": -0.28653,
				"method": "rhf"
			},
			{
				"type": "occ",
				"energy": -0.27911,
				"method": "rhf"
			},
			{
				"type": "occ",
				"energy": -0.26378,
				"method": "rhf"
			},
			{
				"type": "occ",
				"energy": -0.25904,
				"method": "rhf"
			},
			{
				"type": "occ",
				"energy": -0.22999,
				"method": "rhf"
			},
			{
				"type": "unocc",
				"energy": -0.06074,
				"method": "rhf"
			},
			{
				"type": "unocc",
				"energy": -0.04014,
				"method": "rhf"
			},
			{
				"type": "unocc",
				"energy": -0.02661,
				"method": "rhf"
			},
			{
				"type": "unocc",
				"energy": -0.01075,
				"method": "rhf"
			},
			{
				"type": "unocc",
				"energy": 0.05605,
				"method": "rhf"
			}
		],
		"cosmo_sigma_profile": { 
			"-0.025": 0.0,
			"-0.024": 0.0,
			"-0.023": 0.0,
			"-0.022": 0.0,
			"-0.021": 0.0,
			"-0.02": 0.0,
			"-0.019": 0.0644524492383,
			"-0.018": 0.791120373121,
			"-0.017": 0.994996323089,
			"-0.016": 1.04508843384,
			"-0.015": 0.205908638164,
			"-0.014": 1.16200093114,
			"-0.013": 0.0890190264093,
			"-0.012": 0.632985929576,
			"-0.011": 1.46228813865,
			"-0.01": 0.532696514838,
			"-0.009": 1.07635306271,
			"-0.008": 7.77014177038,
			"-0.007": 12.5433750663,
			"-0.006": 13.46989164,
			"-0.005": 12.8204959028,
			"-0.004": 12.39846993,
			"-0.003": 16.1062428288,
			"-0.002": 16.5929302069,
			"-0.001": 19.0159842753,
			"0.0": 22.5765603567,
			"0.001": 20.5010616779,
			"0.002": 20.3066160159,
			"0.003": 11.6393664175,
			"0.004": 15.0321151212,
			"0.005": 6.15151627234,
			"0.006": 3.48240199942,
			"0.007": 4.98362257135,
			"0.008": 2.12849644463,
			"0.009": 2.71074953924,
			"0.01": 4.62079081125,
			"0.011": 5.15851043779,
			"0.012": 6.87983773247,
			"0.013": 4.71227368285,
			"0.014": 1.47294929132,
			"0.015": 0.0,
			"0.016": 0.0,
			"0.017": 0.0,
			"0.018": 0.0,
			"0.019": 0.0,
			"0.02": 0.0,
			"0.021": 0.0,
			"0.022": 0.0,
			"0.023": 0.0,
			"0.024": 0.0,
			"0.025": 0.0
		}
	}
}
