{
	 "smiles": "CC1=C(I)C(C)=NN1", 
	 "Tm": 412.15, 
	 "num_atms": 15, 
	 "gaussian": { 
		 "optdone": 1, 
		 "sigma_profile": "no", 
		 "theory": "DFT", 
		 "functional": "B3LYP", 
		 "basiset": "6-31G**", 
		 "properties": { 
			 "R2extent": 1113.4101, 
			 "electric_dipole_moment_norm": 2.51370441779, 
			 "electric_quadrupole_moment_norm": 7.64490060694, 
			 "total_energy": -315.630809786, 
			 "HOMO_LUMO_gap": 0.19968, 
			 "cosmo_polarized_energy": -82280.97, 
			 "cosmo_cavitation_energy": 21.78, 
			 "cosmo_dispersion_energy": -17.33, 
			 "cosmo_repulsion_energy": 1.41, 
			 "cosmo_total_nonelectrostatic_energy": 5.86, 
			 "SMD_solvation_energy": 2.15 
		},
		"coords": [
			{
				"x": 1.2426518079,
				"y": -0.6661320764,
				"z": -2.3271993858,
				"element": "C" 
			},
			{
				"x": 0.47608784,
				"y": -0.2924169277,
				"z": -1.1012317403,
				"element": "C" 
			},
			{
				"x": -0.8815917229,
				"y": -0.1560740069,
				"z": -0.8515691845,
				"element": "C" 
			},
			{
				"x": -2.4144195081,
				"y": -0.4573312061,
				"z": -2.2346422345,
				"element": "I" 
			},
			{
				"x": -1.0087492378,
				"y": 0.2231345782,
				"z": 0.511351611,
				"element": "C" 
			},
			{
				"x": -2.249320928,
				"y": 0.5006594737,
				"z": 1.2983786263,
				"element": "C" 
			},
			{
				"x": 0.1964473704,
				"y": 0.3165595402,
				"z": 1.0735497635,
				"element": "N" 
			},
			{
				"x": 1.0672064503,
				"y": 0.0025867565,
				"z": 0.0858035955,
				"element": "N" 
			},
			{
				"x": 0.9617170722,
				"y": -1.663907189,
				"z": -2.6798108152,
				"element": "H" 
			},
			{
				"x": 1.0469081812,
				"y": 0.0355692345,
				"z": -3.1445842552,
				"element": "H" 
			},
			{
				"x": 2.3193187573,
				"y": -0.6669078643,
				"z": -2.1327150172,
				"element": "H" 
			},
			{
				"x": -2.9080130818,
				"y": -0.374244971,
				"z": 1.3252052109,
				"element": "H" 
			},
			{
				"x": -1.9802571824,
				"y": 0.7675328695,
				"z": 2.3222856436,
				"element": "H" 
			},
			{
				"x": -2.8230190291,
				"y": 1.3245545659,
				"z": 0.8600691018,
				"element": "H" 
			},
			{
				"x": 2.0555332109,
				"y": 0.0079172229,
				"z": 0.28660908,
				"element": "H" 
			}
		],
		 "valence_orbital": [ 
			{
				"type": "occ",
				"energy": -0.29882,
				"method": "rhf"
			},
			{
				"type": "occ",
				"energy": -0.29262,
				"method": "rhf"
			},
			{
				"type": "occ",
				"energy": -0.26409,
				"method": "rhf"
			},
			{
				"type": "occ",
				"energy": -0.24697,
				"method": "rhf"
			},
			{
				"type": "occ",
				"energy": -0.22585,
				"method": "rhf"
			},
			{
				"type": "unocc",
				"energy": -0.02617,
				"method": "rhf"
			},
			{
				"type": "unocc",
				"energy": 0.0187,
				"method": "rhf"
			},
			{
				"type": "unocc",
				"energy": 0.04039,
				"method": "rhf"
			},
			{
				"type": "unocc",
				"energy": 0.048,
				"method": "rhf"
			},
			{
				"type": "unocc",
				"energy": 0.05678,
				"method": "rhf"
			}
		],
		"cosmo_sigma_profile": { 
			"0.0": 0.0,
			"0.0": 0.0,
			"0.0": 0.0,
			"0.0": 0.0,
			"0.0": 0.0,
			"0.0": 0.0,
			"0.0": 0.0,
			"0.0": 0.0,
			"0.0": 0.0,
			"0.0": 0.0,
			"0.0": 0.0,
			"0.0": 0.0,
			"0.0": 0.0,
			"0.0": 0.0,
			"0.0": 0.0,
			"0.0": 0.0,
			"0.0": 0.0,
			"0.0": 0.0,
			"0.0": 0.0,
			"0.0": 0.0,
			"0.0": 0.0,
			"0.0": 0.0,
			"0.0": 0.0,
			"0.0": 0.0,
			"0.0": 0.0,
			"0.0": 0.0,
			"0.0": 0.0,
			"0.0": 0.0,
			"0.0": 0.0,
			"0.0": 0.0,
			"0.0": 0.0,
			"0.0": 0.0,
			"0.0": 0.0,
			"0.0": 0.0,
			"0.0": 0.0,
			"0.0": 0.0,
			"0.0": 0.0,
			"0.0": 0.0,
			"0.0": 0.0,
			"0.0": 0.0,
			"0.0": 0.0,
			"0.0": 0.0,
			"0.0": 0.0,
			"0.0": 0.0,
			"0.0": 0.0,
			"0.0": 0.0,
			"0.0": 0.0,
			"0.0": 0.0,
			"0.0": 0.0,
			"0.0": 0.0,
			"0.0": 0.0
		}
	}
}
