{
	 "smiles": "ClCC(=O)C1=C(Cl)C=C(Cl)C=C1", 
	 "Tm": 327.15, 
	 "num_atms": 17, 
	 "gaussian": { 
		 "optdone": 1, 
		 "sigma_profile": "yes", 
		 "theory": "DFT", 
		 "functional": "B3LYP", 
		 "basiset": "6-31G**", 
		 "properties": { 
			 "R2extent": 4530.086, 
			 "electric_dipole_moment_norm": 0.874408154125, 
			 "electric_quadrupole_moment_norm": 6.21992498025, 
			 "total_energy": -1763.65414881, 
			 "HOMO_LUMO_gap": 0.18385, 
			 "cosmo_polarized_energy": -7.21, 
			 "cosmo_cavitation_energy": 26.85, 
			 "cosmo_dispersion_energy": -19.77, 
			 "cosmo_repulsion_energy": 1.58, 
			 "cosmo_total_nonelectrostatic_energy": 8.67, 
			 "SMD_solvation_energy": 4.39 
		},
		"coords": [
			{
				"x": -2.9401065373,
				"y": 0.275572661,
				"z": -1.6416319488,
				"element": "Cl" 
			},
			{
				"x": -3.358625874,
				"y": -1.2533510511,
				"z": -0.7677195314,
				"element": "C" 
			},
			{
				"x": -2.3218185909,
				"y": -1.6008673794,
				"z": 0.2995061292,
				"element": "C" 
			},
			{
				"x": -2.7124157461,
				"y": -1.7691149256,
				"z": 1.4414890189,
				"element": "O" 
			},
			{
				"x": -0.8476036396,
				"y": -1.6621172131,
				"z": 0.0030713005,
				"element": "C" 
			},
			{
				"x": -0.2213429643,
				"y": -2.1053883817,
				"z": -1.175034048,
				"element": "C" 
			},
			{
				"x": -1.118628886,
				"y": -2.759377158,
				"z": -2.5373670644,
				"element": "Cl" 
			},
			{
				"x": 1.1679065508,
				"y": -2.1120070615,
				"z": -1.3030029218,
				"element": "C" 
			},
			{
				"x": 1.9506503408,
				"y": -1.6649175772,
				"z": -0.241313334,
				"element": "C" 
			},
			{
				"x": 3.6915095708,
				"y": -1.6583733128,
				"z": -0.4122804884,
				"element": "Cl" 
			},
			{
				"x": 1.3698260271,
				"y": -1.2362511115,
				"z": 0.9525312139,
				"element": "C" 
			},
			{
				"x": -0.0137733575,
				"y": -1.2526260489,
				"z": 1.0599984017,
				"element": "C" 
			},
			{
				"x": -4.3067681501,
				"y": -1.096140288,
				"z": -0.2563674677,
				"element": "H" 
			},
			{
				"x": -3.4545087996,
				"y": -2.0376517918,
				"z": -1.5176479348,
				"element": "H" 
			},
			{
				"x": 1.6278944939,
				"y": -2.469345815,
				"z": -2.2157529839,
				"element": "H" 
			},
			{
				"x": 1.9899673896,
				"y": -0.900771832,
				"z": 1.7754998472,
				"element": "H" 
			},
			{
				"x": -0.4921618276,
				"y": -0.9373717133,
				"z": 1.9807218116,
				"element": "H" 
			}
		],
		 "valence_orbital": [ 
			{
				"type": "occ",
				"energy": -0.32174,
				"method": "rhf"
			},
			{
				"type": "occ",
				"energy": -0.30842,
				"method": "rhf"
			},
			{
				"type": "occ",
				"energy": -0.28183,
				"method": "rhf"
			},
			{
				"type": "occ",
				"energy": -0.27449,
				"method": "rhf"
			},
			{
				"type": "occ",
				"energy": -0.26632,
				"method": "rhf"
			},
			{
				"type": "unocc",
				"energy": -0.08247,
				"method": "rhf"
			},
			{
				"type": "unocc",
				"energy": -0.03877,
				"method": "rhf"
			},
			{
				"type": "unocc",
				"energy": -0.017,
				"method": "rhf"
			},
			{
				"type": "unocc",
				"energy": -0.00579,
				"method": "rhf"
			},
			{
				"type": "unocc",
				"energy": 0.0321,
				"method": "rhf"
			}
		],
		"cosmo_sigma_profile": { 
			"-0.025": 0.0,
			"-0.024": 0.0,
			"-0.023": 0.0,
			"-0.022": 0.0,
			"-0.021": 0.0,
			"-0.02": 0.0,
			"-0.019": 0.0,
			"-0.018": 0.0,
			"-0.017": 0.0,
			"-0.016": 0.0,
			"-0.015": 0.0,
			"-0.014": 0.0,
			"-0.013": 0.0,
			"-0.012": 0.0,
			"-0.011": 0.0,
			"-0.01": 0.00430366297415,
			"-0.009": 2.19083591241,
			"-0.008": 7.50771891474,
			"-0.007": 8.96690951844,
			"-0.006": 10.0169376143,
			"-0.005": 9.5440882685,
			"-0.004": 9.72319502906,
			"-0.003": 11.6330648843,
			"-0.002": 13.8001592464,
			"-0.001": 19.044845958,
			"0.0": 26.9861260789,
			"0.001": 21.4216750206,
			"0.002": 17.303488402,
			"0.003": 21.4230795512,
			"0.004": 16.8865731722,
			"0.005": 10.4477352008,
			"0.006": 4.16894960024,
			"0.007": 1.43782777143,
			"0.008": 1.99713114958,
			"0.009": 2.32668792398,
			"0.01": 4.16747695445,
			"0.011": 1.43312957979,
			"0.012": 0.00743483060814,
			"0.013": 0.0,
			"0.014": 0.0,
			"0.015": 0.0,
			"0.016": 0.0,
			"0.017": 0.0,
			"0.018": 0.0,
			"0.019": 0.0,
			"0.02": 0.0,
			"0.021": 0.0,
			"0.022": 0.0,
			"0.023": 0.0,
			"0.024": 0.0,
			"0.025": 0.0
		}
	}
}
