{
	 "smiles": "OC(=O)CCNC(=O)C1=CC=CO1", 
	 "Tm": 410.15, 
	 "num_atms": 22, 
	 "gaussian": { 
		 "optdone": 1, 
		 "sigma_profile": "yes", 
		 "theory": "DFT", 
		 "functional": "B3LYP", 
		 "basiset": "6-31G**", 
		 "properties": { 
			 "R2extent": 3188.1872, 
			 "electric_dipole_moment_norm": 3.11737538003, 
			 "electric_quadrupole_moment_norm": 18.6631127281, 
			 "total_energy": -665.9215337, 
			 "HOMO_LUMO_gap": 0.20492, 
			 "cosmo_polarized_energy": -17.44, 
			 "cosmo_cavitation_energy": 27.43, 
			 "cosmo_dispersion_energy": -19.43, 
			 "cosmo_repulsion_energy": 1.57, 
			 "cosmo_total_nonelectrostatic_energy": 9.57, 
			 "SMD_solvation_energy": 7.02 
		},
		"coords": [
			{
				"x": 1.4108426091,
				"y": -3.2188443923,
				"z": -0.6320988128,
				"element": "O" 
			},
			{
				"x": 0.3663055952,
				"y": -2.3597640994,
				"z": -0.702321095,
				"element": "C" 
			},
			{
				"x": -0.7796164749,
				"y": -2.7335958317,
				"z": -0.8333003583,
				"element": "O" 
			},
			{
				"x": 0.8165010519,
				"y": -0.9207319482,
				"z": -0.6003166857,
				"element": "C" 
			},
			{
				"x": -0.3660523275,
				"y": 0.0556207282,
				"z": -0.6538261644,
				"element": "C" 
			},
			{
				"x": 0.0486175782,
				"y": 1.4534882903,
				"z": -0.6429873803,
				"element": "N" 
			},
			{
				"x": 0.2567331461,
				"y": 2.3312383394,
				"z": 0.3901004754,
				"element": "C" 
			},
			{
				"x": 0.521404424,
				"y": 3.5122592123,
				"z": 0.1679611079,
				"element": "O" 
			},
			{
				"x": 0.1695667319,
				"y": 1.8812259095,
				"z": 1.7961389975,
				"element": "C" 
			},
			{
				"x": 0.2430599206,
				"y": 2.6502657259,
				"z": 2.9252966049,
				"element": "C" 
			},
			{
				"x": 0.1337841235,
				"y": 1.7606562646,
				"z": 4.0354230578,
				"element": "C" 
			},
			{
				"x": 0.0063336608,
				"y": 0.5097903539,
				"z": 3.5075333462,
				"element": "C" 
			},
			{
				"x": 0.0257919485,
				"y": 0.5595694706,
				"z": 2.1478538748,
				"element": "O" 
			},
			{
				"x": 1.0328423504,
				"y": -4.1113187555,
				"z": -0.7091079721,
				"element": "H" 
			},
			{
				"x": 1.5276886249,
				"y": -0.7231907192,
				"z": -1.4114691301,
				"element": "H" 
			},
			{
				"x": 1.3759621346,
				"y": -0.7967009034,
				"z": 0.3325791922,
				"element": "H" 
			},
			{
				"x": -0.9377479208,
				"y": -0.1142843716,
				"z": -1.5701136868,
				"element": "H" 
			},
			{
				"x": -1.04501442,
				"y": -0.1418012842,
				"z": 0.1750559009,
				"element": "H" 
			},
			{
				"x": 0.1695165337,
				"y": 1.9128460644,
				"z": -1.5360295063,
				"element": "H" 
			},
			{
				"x": 0.3625693737,
				"y": 3.7227763806,
				"z": 2.9346920523,
				"element": "H" 
			},
			{
				"x": 0.1496600176,
				"y": 2.0148801538,
				"z": 5.085286917,
				"element": "H" 
			},
			{
				"x": -0.1027486814,
				"y": -0.4731845882,
				"z": 3.9395492649,
				"element": "H" 
			}
		],
		 "valence_orbital": [ 
			{
				"type": "occ",
				"energy": -0.29072,
				"method": "rhf"
			},
			{
				"type": "occ",
				"energy": -0.2847,
				"method": "rhf"
			},
			{
				"type": "occ",
				"energy": -0.25411,
				"method": "rhf"
			},
			{
				"type": "occ",
				"energy": -0.2502,
				"method": "rhf"
			},
			{
				"type": "occ",
				"energy": -0.23796,
				"method": "rhf"
			},
			{
				"type": "unocc",
				"energy": -0.03304,
				"method": "rhf"
			},
			{
				"type": "unocc",
				"energy": 0.00268,
				"method": "rhf"
			},
			{
				"type": "unocc",
				"energy": 0.04256,
				"method": "rhf"
			},
			{
				"type": "unocc",
				"energy": 0.073,
				"method": "rhf"
			},
			{
				"type": "unocc",
				"energy": 0.08146,
				"method": "rhf"
			}
		],
		"cosmo_sigma_profile": { 
			"-0.025": 0.0,
			"-0.024": 0.0,
			"-0.023": 0.0,
			"-0.022": 0.0,
			"-0.021": 0.0,
			"-0.02": 0.0,
			"-0.019": 0.0437043651674,
			"-0.018": 0.848734336065,
			"-0.017": 0.680692298662,
			"-0.016": 0.868743789053,
			"-0.015": 0.686698718476,
			"-0.014": 1.35506552859,
			"-0.013": 1.79145585297,
			"-0.012": 1.48439087759,
			"-0.011": 2.33195473701,
			"-0.01": 2.30667625659,
			"-0.009": 3.75810332763,
			"-0.008": 4.55686751771,
			"-0.007": 8.81748539644,
			"-0.006": 11.65398522,
			"-0.005": 11.4799306123,
			"-0.004": 14.1927567662,
			"-0.003": 14.8726884466,
			"-0.002": 13.2588911547,
			"-0.001": 14.218353827,
			"0.0": 12.1867678573,
			"0.001": 16.7746817953,
			"0.002": 13.2811721731,
			"0.003": 11.340782497,
			"0.004": 9.20068136857,
			"0.005": 5.35434314931,
			"0.006": 3.1539400965,
			"0.007": 3.3764905094,
			"0.008": 4.81484534302,
			"0.009": 4.77943459948,
			"0.01": 3.70527805625,
			"0.011": 5.36658889639,
			"0.012": 5.82564671368,
			"0.013": 3.02540070495,
			"0.014": 5.95893207115,
			"0.015": 0.601899679835,
			"0.016": 0.0,
			"0.017": 0.0,
			"0.018": 0.0,
			"0.019": 0.0,
			"0.02": 0.0,
			"0.021": 0.0,
			"0.022": 0.0,
			"0.023": 0.0,
			"0.024": 0.0,
			"0.025": 0.0
		}
	}
}
