{
	 "smiles": "NC(=O)C1NCCC2=C1C=CC=C2", 
	 "Tm": 454.15, 
	 "num_atms": 25, 
	 "gaussian": { 
		 "optdone": 1, 
		 "sigma_profile": "yes", 
		 "theory": "DFT", 
		 "functional": "B3LYP", 
		 "basiset": "6-31G**", 
		 "properties": { 
			 "R2extent": 2505.4723, 
			 "electric_dipole_moment_norm": 2.66322166745, 
			 "electric_quadrupole_moment_norm": 17.9576385594, 
			 "total_energy": -573.035888602, 
			 "HOMO_LUMO_gap": 0.20645, 
			 "cosmo_polarized_energy": -15.88, 
			 "cosmo_cavitation_energy": 27.02, 
			 "cosmo_dispersion_energy": -20.1, 
			 "cosmo_repulsion_energy": 1.59, 
			 "cosmo_total_nonelectrostatic_energy": 8.52, 
			 "SMD_solvation_energy": 2.66 
		},
		"coords": [
			{
				"x": -0.149258612,
				"y": -3.2163925318,
				"z": 2.2233503428,
				"element": "N" 
			},
			{
				"x": -0.2614104004,
				"y": -2.8191669102,
				"z": 0.9192229395,
				"element": "C" 
			},
			{
				"x": -1.1918618414,
				"y": -3.1757245506,
				"z": 0.2105991795,
				"element": "O" 
			},
			{
				"x": 0.8845622227,
				"y": -1.9020894856,
				"z": 0.4087922,
				"element": "C" 
			},
			{
				"x": 1.2521060856,
				"y": -2.1905677592,
				"z": -0.9742859665,
				"element": "N" 
			},
			{
				"x": 0.3526579216,
				"y": -1.5987065968,
				"z": -1.9756299806,
				"element": "C" 
			},
			{
				"x": 0.4996269774,
				"y": -0.0820908635,
				"z": -1.9067788236,
				"element": "C" 
			},
			{
				"x": 0.3238872436,
				"y": 0.4242010548,
				"z": -0.4912684575,
				"element": "C" 
			},
			{
				"x": 0.5160904136,
				"y": -0.4311114816,
				"z": 0.6068221046,
				"element": "C" 
			},
			{
				"x": 0.3719285743,
				"y": 0.0784811995,
				"z": 1.9054689002,
				"element": "C" 
			},
			{
				"x": 0.0404158077,
				"y": 1.412074142,
				"z": 2.1256381576,
				"element": "C" 
			},
			{
				"x": -0.1554072967,
				"y": 2.2628631,
				"z": 1.0352969884,
				"element": "C" 
			},
			{
				"x": -0.0133142549,
				"y": 1.7648342054,
				"z": -0.2563685815,
				"element": "C" 
			},
			{
				"x": 0.6721960295,
				"y": -3.0351702515,
				"z": 2.7760646922,
				"element": "H" 
			},
			{
				"x": -0.8634736001,
				"y": -3.8236045136,
				"z": 2.5974125264,
				"element": "H" 
			},
			{
				"x": 1.7693953706,
				"y": -2.1068404156,
				"z": 1.0306934555,
				"element": "H" 
			},
			{
				"x": 1.2809735055,
				"y": -3.1978149311,
				"z": -1.1021669502,
				"element": "H" 
			},
			{
				"x": 0.6666083495,
				"y": -1.9626308996,
				"z": -2.9596661803,
				"element": "H" 
			},
			{
				"x": -0.6954843707,
				"y": -1.8888169481,
				"z": -1.8250443637,
				"element": "H" 
			},
			{
				"x": -0.2265161036,
				"y": 0.4025386076,
				"z": -2.5698436202,
				"element": "H" 
			},
			{
				"x": 1.499438916,
				"y": 0.1956901674,
				"z": -2.2665194537,
				"element": "H" 
			},
			{
				"x": 0.5157086225,
				"y": -0.5795250502,
				"z": 2.7581986428,
				"element": "H" 
			},
			{
				"x": -0.0647161316,
				"y": 1.784825195,
				"z": 3.1404081687,
				"element": "H" 
			},
			{
				"x": -0.4185333373,
				"y": 3.3050397529,
				"z": 1.1922663191,
				"element": "H" 
			},
			{
				"x": -0.1664200915,
				"y": 2.4225057642,
				"z": -1.1090622395,
				"element": "H" 
			}
		],
		 "valence_orbital": [ 
			{
				"type": "occ",
				"energy": -0.27129,
				"method": "rhf"
			},
			{
				"type": "occ",
				"energy": -0.26581,
				"method": "rhf"
			},
			{
				"type": "occ",
				"energy": -0.24396,
				"method": "rhf"
			},
			{
				"type": "occ",
				"energy": -0.23431,
				"method": "rhf"
			},
			{
				"type": "occ",
				"energy": -0.21071,
				"method": "rhf"
			},
			{
				"type": "unocc",
				"energy": -0.00426,
				"method": "rhf"
			},
			{
				"type": "unocc",
				"energy": 0.00209,
				"method": "rhf"
			},
			{
				"type": "unocc",
				"energy": 0.03291,
				"method": "rhf"
			},
			{
				"type": "unocc",
				"energy": 0.06272,
				"method": "rhf"
			},
			{
				"type": "unocc",
				"energy": 0.10122,
				"method": "rhf"
			}
		],
		"cosmo_sigma_profile": { 
			"-0.025": 0.0,
			"-0.024": 0.0,
			"-0.023": 0.0,
			"-0.022": 0.0,
			"-0.021": 0.0,
			"-0.02": 0.0,
			"-0.019": 0.0,
			"-0.018": 0.0,
			"-0.017": 0.0,
			"-0.016": 0.0,
			"-0.015": 0.128237351902,
			"-0.014": 1.83312400988,
			"-0.013": 2.59007003419,
			"-0.012": 3.21508171168,
			"-0.011": 3.49509453547,
			"-0.01": 3.77029018857,
			"-0.009": 3.20333353773,
			"-0.008": 3.95405233606,
			"-0.007": 3.98532421859,
			"-0.006": 5.89960496948,
			"-0.005": 9.84122088271,
			"-0.004": 15.173175148,
			"-0.003": 19.4920850153,
			"-0.002": 14.1085076169,
			"-0.001": 18.1739545551,
			"0.0": 13.9573364206,
			"0.001": 9.24695503259,
			"0.002": 9.4943332525,
			"0.003": 11.6969794472,
			"0.004": 12.6374070338,
			"0.005": 10.9365845549,
			"0.006": 10.4577890285,
			"0.007": 3.74576184475,
			"0.008": 2.186469845,
			"0.009": 2.20788266327,
			"0.01": 2.14764702822,
			"0.011": 2.56250753686,
			"0.012": 1.64141699368,
			"0.013": 4.54606952377,
			"0.014": 4.56490316012,
			"0.015": 0.887982742531,
			"0.016": 0.313072801038,
			"0.017": 0.378605402447,
			"0.018": 0.0649964625882,
			"0.019": 0.0,
			"0.02": 0.0,
			"0.021": 0.0,
			"0.022": 0.0,
			"0.023": 0.0,
			"0.024": 0.0,
			"0.025": 0.0
		}
	}
}
