{
	 "smiles": "CC(=O)O[C@H]1CC[C@]2(C)[C@H]3CC[C@@]4(C)[C@@H](CCC4=O)[C@@H]3CC=C2C1", 
	 "Tm": 420.15, 
	 "num_atms": 54, 
	 "gaussian": { 
		 "optdone": 1, 
		 "sigma_profile": "yes", 
		 "theory": "DFT", 
		 "functional": "B3LYP", 
		 "basiset": "6-31G**", 
		 "properties": { 
			 "R2extent": 11017.7334, 
			 "electric_dipole_moment_norm": 1.81518456637, 
			 "electric_quadrupole_moment_norm": 30.8845837795, 
			 "total_energy": -1044.0089526, 
			 "HOMO_LUMO_gap": 0.21716, 
			 "cosmo_polarized_energy": -13.09, 
			 "cosmo_cavitation_energy": 48.4, 
			 "cosmo_dispersion_energy": -33.26, 
			 "cosmo_repulsion_energy": 2.47, 
			 "cosmo_total_nonelectrostatic_energy": 17.62, 
			 "SMD_solvation_energy": 8.53 
		},
		"coords": [
			{
				"x": -2.4442266652,
				"y": -4.2895223882,
				"z": -2.993232686,
				"element": "C" 
			},
			{
				"x": -1.0584996164,
				"y": -3.7230456756,
				"z": -3.1995016071,
				"element": "C" 
			},
			{
				"x": -0.1418150819,
				"y": -4.2989091705,
				"z": -3.7458072056,
				"element": "O" 
			},
			{
				"x": -0.9716949765,
				"y": -2.4722371143,
				"z": -2.6892391868,
				"element": "O" 
			},
			{
				"x": 0.3165640985,
				"y": -1.7929824918,
				"z": -2.809594037,
				"element": "C" 
			},
			{
				"x": 0.0446149728,
				"y": -0.2747051972,
				"z": -2.7554925449,
				"element": "C" 
			},
			{
				"x": 0.4989459429,
				"y": 0.4081203573,
				"z": -1.4465486683,
				"element": "C" 
			},
			{
				"x": 0.201102097,
				"y": -0.4135921692,
				"z": -0.1651594558,
				"element": "C" 
			},
			{
				"x": -1.3298115667,
				"y": -0.643804521,
				"z": -0.05221059,
				"element": "C" 
			},
			{
				"x": 0.7630410659,
				"y": 0.3108441224,
				"z": 1.1070051553,
				"element": "C" 
			},
			{
				"x": 0.1902883167,
				"y": 1.7337672035,
				"z": 1.3288540054,
				"element": "C" 
			},
			{
				"x": 0.7014204637,
				"y": 2.4261421256,
				"z": 2.6106551461,
				"element": "C" 
			},
			{
				"x": 0.4780837329,
				"y": 1.5266909248,
				"z": 3.8295970781,
				"element": "C" 
			},
			{
				"x": -1.0318860974,
				"y": 1.4141836448,
				"z": 4.1712379748,
				"element": "C" 
			},
			{
				"x": 1.173973859,
				"y": 0.1673924039,
				"z": 3.5841570393,
				"element": "C" 
			},
			{
				"x": 1.2246084263,
				"y": -0.4920997885,
				"z": 4.9787203098,
				"element": "C" 
			},
			{
				"x": 1.5784738436,
				"y": 0.697592296,
				"z": 5.9022847275,
				"element": "C" 
			},
			{
				"x": 1.1500260593,
				"y": 1.9656467615,
				"z": 5.1357699577,
				"element": "C" 
			},
			{
				"x": 1.3201791457,
				"y": 3.1060221282,
				"z": 5.5101417157,
				"element": "O" 
			},
			{
				"x": 0.6207148154,
				"y": -0.5885580323,
				"z": 2.3715490449,
				"element": "C" 
			},
			{
				"x": 1.3287089328,
				"y": -1.9456961231,
				"z": 2.1812718317,
				"element": "C" 
			},
			{
				"x": 1.3673567639,
				"y": -2.4376991989,
				"z": 0.7613623036,
				"element": "C" 
			},
			{
				"x": 0.9246874981,
				"y": -1.7601765774,
				"z": -0.3041502645,
				"element": "C" 
			},
			{
				"x": 1.2675807056,
				"y": -2.2452298927,
				"z": -1.7041139843,
				"element": "C" 
			},
			{
				"x": -2.6508452169,
				"y": -4.3839205882,
				"z": -1.922679219,
				"element": "H" 
			},
			{
				"x": -3.1963623479,
				"y": -3.6152771174,
				"z": -3.4124644414,
				"element": "H" 
			},
			{
				"x": -2.5100223054,
				"y": -5.2677121104,
				"z": -3.4685627269,
				"element": "H" 
			},
			{
				"x": 0.7296401965,
				"y": -2.0887876323,
				"z": -3.7763044022,
				"element": "H" 
			},
			{
				"x": -1.0262299205,
				"y": -0.1208307137,
				"z": -2.917162212,
				"element": "H" 
			},
			{
				"x": 0.55166291,
				"y": 0.2103857709,
				"z": -3.5967669266,
				"element": "H" 
			},
			{
				"x": 0.0170858973,
				"y": 1.3889615107,
				"z": -1.3891406645,
				"element": "H" 
			},
			{
				"x": 1.5794877994,
				"y": 0.5999923682,
				"z": -1.4908660719,
				"element": "H" 
			},
			{
				"x": -1.7008908272,
				"y": -1.2423969034,
				"z": -0.8844097521,
				"element": "H" 
			},
			{
				"x": -1.8734547571,
				"y": 0.3076394677,
				"z": -0.0541121896,
				"element": "H" 
			},
			{
				"x": -1.5864048596,
				"y": -1.1804021375,
				"z": 0.864505755,
				"element": "H" 
			},
			{
				"x": 1.8451834579,
				"y": 0.4270388746,
				"z": 0.9335344233,
				"element": "H" 
			},
			{
				"x": -0.9044024484,
				"y": 1.6927967977,
				"z": 1.3573388664,
				"element": "H" 
			},
			{
				"x": 0.4434321999,
				"y": 2.3666154968,
				"z": 0.4720099876,
				"element": "H" 
			},
			{
				"x": 0.2068027027,
				"y": 3.3949762622,
				"z": 2.7419186132,
				"element": "H" 
			},
			{
				"x": 1.7746840977,
				"y": 2.6361699358,
				"z": 2.5144178082,
				"element": "H" 
			},
			{
				"x": -1.424421246,
				"y": 2.4114239583,
				"z": 4.3935216221,
				"element": "H" 
			},
			{
				"x": -1.6108342978,
				"y": 0.9987757295,
				"z": 3.3432060926,
				"element": "H" 
			},
			{
				"x": -1.2170110931,
				"y": 0.7849930245,
				"z": 5.0471292727,
				"element": "H" 
			},
			{
				"x": 2.2210910767,
				"y": 0.4140430052,
				"z": 3.3339519325,
				"element": "H" 
			},
			{
				"x": 1.9607629494,
				"y": -1.2986489658,
				"z": 5.0368981571,
				"element": "H" 
			},
			{
				"x": 0.2533665539,
				"y": -0.9235794239,
				"z": 5.246299287,
				"element": "H" 
			},
			{
				"x": 2.6578679495,
				"y": 0.7678594045,
				"z": 6.0819847483,
				"element": "H" 
			},
			{
				"x": 1.1017008807,
				"y": 0.6691006115,
				"z": 6.8872284278,
				"element": "H" 
			},
			{
				"x": -0.445134861,
				"y": -0.7823751435,
				"z": 2.5422862188,
				"element": "H" 
			},
			{
				"x": 0.8744058483,
				"y": -2.6998138216,
				"z": 2.8390717019,
				"element": "H" 
			},
			{
				"x": 2.3725468095,
				"y": -1.863189304,
				"z": 2.5263448445,
				"element": "H" 
			},
			{
				"x": 1.8827753062,
				"y": -3.3858414666,
				"z": 0.6027114559,
				"element": "H" 
			},
			{
				"x": 1.3771941414,
				"y": -3.3328580263,
				"z": -1.7313341965,
				"element": "H" 
			},
			{
				"x": 2.2536866677,
				"y": -1.8379824909,
				"z": -1.9770124717,
				"element": "H" 
			}
		],
		 "valence_orbital": [ 
			{
				"type": "occ",
				"energy": -0.28436,
				"method": "rhf"
			},
			{
				"type": "occ",
				"energy": -0.28081,
				"method": "rhf"
			},
			{
				"type": "occ",
				"energy": -0.26801,
				"method": "rhf"
			},
			{
				"type": "occ",
				"energy": -0.22978,
				"method": "rhf"
			},
			{
				"type": "occ",
				"energy": -0.22882,
				"method": "rhf"
			},
			{
				"type": "unocc",
				"energy": -0.01166,
				"method": "rhf"
			},
			{
				"type": "unocc",
				"energy": 0.01293,
				"method": "rhf"
			},
			{
				"type": "unocc",
				"energy": 0.02382,
				"method": "rhf"
			},
			{
				"type": "unocc",
				"energy": 0.07286,
				"method": "rhf"
			},
			{
				"type": "unocc",
				"energy": 0.0817,
				"method": "rhf"
			}
		],
		"cosmo_sigma_profile": { 
			"-0.025": 0.0,
			"-0.024": 0.0,
			"-0.023": 0.0,
			"-0.022": 0.0,
			"-0.021": 0.0,
			"-0.02": 0.0,
			"-0.019": 0.0,
			"-0.018": 0.0,
			"-0.017": 0.0,
			"-0.016": 0.0,
			"-0.015": 0.0,
			"-0.014": 0.0,
			"-0.013": 0.0,
			"-0.012": 0.0,
			"-0.011": 0.0,
			"-0.01": 0.0,
			"-0.009": 0.0,
			"-0.008": 0.0,
			"-0.007": 0.550040447692,
			"-0.006": 4.467748795,
			"-0.005": 12.5640582796,
			"-0.004": 28.3264424844,
			"-0.003": 48.8696221618,
			"-0.002": 65.9566142242,
			"-0.001": 60.3929727615,
			"0.0": 48.0519712594,
			"0.001": 24.5956623086,
			"0.002": 14.4813128586,
			"0.003": 10.404135117,
			"0.004": 7.84798944459,
			"0.005": 6.45576596106,
			"0.006": 5.93612707332,
			"0.007": 4.27203097513,
			"0.008": 3.67366657118,
			"0.009": 3.37059160294,
			"0.01": 3.0967820361,
			"0.011": 5.64178025045,
			"0.012": 9.17177048509,
			"0.013": 4.93806977018,
			"0.014": 0.495387155115,
			"0.015": 0.0,
			"0.016": 0.0,
			"0.017": 0.0,
			"0.018": 0.0,
			"0.019": 0.0,
			"0.02": 0.0,
			"0.021": 0.0,
			"0.022": 0.0,
			"0.023": 0.0,
			"0.024": 0.0,
			"0.025": 0.0
		}
	}
}
