{
	 "smiles": "NCC1=NN=CN1C1=CC=CC=C1", 
	 "Tm": 333.15, 
	 "num_atms": 23, 
	 "gaussian": { 
		 "optdone": 1, 
		 "sigma_profile": "yes", 
		 "theory": "DFT", 
		 "functional": "B3LYP", 
		 "basiset": "6-31G**", 
		 "properties": { 
			 "R2extent": 2462.0199, 
			 "electric_dipole_moment_norm": 5.08092664974, 
			 "electric_quadrupole_moment_norm": 16.1196532184, 
			 "total_energy": -567.961351088, 
			 "HOMO_LUMO_gap": 0.21509, 
			 "cosmo_polarized_energy": -16.35, 
			 "cosmo_cavitation_energy": 26.7, 
			 "cosmo_dispersion_energy": -19.49, 
			 "cosmo_repulsion_energy": 1.55, 
			 "cosmo_total_nonelectrostatic_energy": 8.76, 
			 "SMD_solvation_energy": 2.4 
		},
		"coords": [
			{
				"x": -2.3605216598,
				"y": -1.6381601461,
				"z": -0.6819683835,
				"element": "N" 
			},
			{
				"x": -2.3315879879,
				"y": -0.1644820164,
				"z": -0.71097953,
				"element": "C" 
			},
			{
				"x": -0.9972796309,
				"y": 0.3301581986,
				"z": -1.1746870551,
				"element": "C" 
			},
			{
				"x": -0.7368558812,
				"y": 0.6640845621,
				"z": -2.4190110762,
				"element": "N" 
			},
			{
				"x": 0.5868261879,
				"y": 1.0477242608,
				"z": -2.4925648865,
				"element": "N" 
			},
			{
				"x": 1.0820964024,
				"y": 0.9412518451,
				"z": -1.286716573,
				"element": "C" 
			},
			{
				"x": 0.1358097821,
				"y": 0.4879980573,
				"z": -0.3972102933,
				"element": "N" 
			},
			{
				"x": 0.3239488767,
				"y": 0.2829194602,
				"z": 1.002974088,
				"element": "C" 
			},
			{
				"x": 1.0230093009,
				"y": 1.2440462396,
				"z": 1.7427583832,
				"element": "C" 
			},
			{
				"x": 1.2437797989,
				"y": 1.0385747413,
				"z": 3.1039470126,
				"element": "C" 
			},
			{
				"x": 0.7551759679,
				"y": -0.1098103207,
				"z": 3.7302418557,
				"element": "C" 
			},
			{
				"x": 0.0474305414,
				"y": -1.0561179795,
				"z": 2.9866896314,
				"element": "C" 
			},
			{
				"x": -0.165791303,
				"y": -0.8736214733,
				"z": 1.6197480153,
				"element": "C" 
			},
			{
				"x": -2.2109812182,
				"y": -1.9875245429,
				"z": -1.6262904369,
				"element": "H" 
			},
			{
				"x": -3.2857652645,
				"y": -1.9524974405,
				"z": -0.3975899489,
				"element": "H" 
			},
			{
				"x": -3.0747435429,
				"y": 0.2859766903,
				"z": -1.3834636578,
				"element": "H" 
			},
			{
				"x": -2.5343351022,
				"y": 0.1993155921,
				"z": 0.3024188704,
				"element": "H" 
			},
			{
				"x": 2.1019947713,
				"y": 1.1489994839,
				"z": -0.9973028814,
				"element": "H" 
			},
			{
				"x": 1.3741834068,
				"y": 2.1490360793,
				"z": 1.2571699207,
				"element": "H" 
			},
			{
				"x": 1.7879622371,
				"y": 1.7840129122,
				"z": 3.6760535992,
				"element": "H" 
			},
			{
				"x": 0.9230632481,
				"y": -0.2640798469,
				"z": 4.7918717306,
				"element": "H" 
			},
			{
				"x": -0.3337070246,
				"y": -1.9517252124,
				"z": 3.4685716519,
				"element": "H" 
			},
			{
				"x": -0.7077119064,
				"y": -1.605079144,
				"z": 1.0257399636,
				"element": "H" 
			}
		],
		 "valence_orbital": [ 
			{
				"type": "occ",
				"energy": -0.26682,
				"method": "rhf"
			},
			{
				"type": "occ",
				"energy": -0.25865,
				"method": "rhf"
			},
			{
				"type": "occ",
				"energy": -0.25587,
				"method": "rhf"
			},
			{
				"type": "occ",
				"energy": -0.25267,
				"method": "rhf"
			},
			{
				"type": "occ",
				"energy": -0.24208,
				"method": "rhf"
			},
			{
				"type": "unocc",
				"energy": -0.02699,
				"method": "rhf"
			},
			{
				"type": "unocc",
				"energy": -0.01803,
				"method": "rhf"
			},
			{
				"type": "unocc",
				"energy": 0.02405,
				"method": "rhf"
			},
			{
				"type": "unocc",
				"energy": 0.04312,
				"method": "rhf"
			},
			{
				"type": "unocc",
				"energy": 0.08365,
				"method": "rhf"
			}
		],
		"cosmo_sigma_profile": { 
			"-0.025": 0.0,
			"-0.024": 0.0,
			"-0.023": 0.0,
			"-0.022": 0.0,
			"-0.021": 0.0,
			"-0.02": 0.0,
			"-0.019": 0.0,
			"-0.018": 0.0,
			"-0.017": 0.0,
			"-0.016": 0.0,
			"-0.015": 0.0,
			"-0.014": 0.0,
			"-0.013": 0.0,
			"-0.012": 0.0,
			"-0.011": 1.17461763215,
			"-0.01": 3.86601239848,
			"-0.009": 5.32480341491,
			"-0.008": 5.34152930504,
			"-0.007": 7.68933514929,
			"-0.006": 12.7311708498,
			"-0.005": 17.8831002685,
			"-0.004": 18.3820696031,
			"-0.003": 15.7862756131,
			"-0.002": 12.8323596371,
			"-0.001": 13.5836317806,
			"0.0": 11.2795107872,
			"0.001": 11.3661886398,
			"0.002": 12.2623509944,
			"0.003": 12.1347478878,
			"0.004": 13.1005610983,
			"0.005": 6.15368014353,
			"0.006": 3.12177610689,
			"0.007": 2.28821467471,
			"0.008": 2.71940175211,
			"0.009": 2.09469428436,
			"0.01": 3.08034263793,
			"0.011": 3.03275128948,
			"0.012": 2.67955088965,
			"0.013": 3.23007227603,
			"0.014": 3.08523132906,
			"0.015": 3.41717646573,
			"0.016": 1.86723685065,
			"0.017": 1.64826715229,
			"0.018": 0.0,
			"0.019": 0.0,
			"0.02": 0.0,
			"0.021": 0.0,
			"0.022": 0.0,
			"0.023": 0.0,
			"0.024": 0.0,
			"0.025": 0.0
		}
	}
}
