{
	 "smiles": "CC(C)C1=NN=C(S)N1C1CC1", 
	 "Tm": 420.15, 
	 "num_atms": 25, 
	 "gaussian": { 
		 "optdone": 1, 
		 "sigma_profile": "yes", 
		 "theory": "DFT", 
		 "functional": "B3LYP", 
		 "basiset": "6-31G**", 
		 "properties": { 
			 "R2extent": 3711.7243, 
			 "electric_dipole_moment_norm": 4.93079574207, 
			 "electric_quadrupole_moment_norm": 9.75897148525, 
			 "total_energy": -875.07840357, 
			 "HOMO_LUMO_gap": 0.23573, 
			 "cosmo_polarized_energy": -14.83, 
			 "cosmo_cavitation_energy": 28.94, 
			 "cosmo_dispersion_energy": -20.84, 
			 "cosmo_repulsion_energy": 1.64, 
			 "cosmo_total_nonelectrostatic_energy": 9.74, 
			 "SMD_solvation_energy": 2.24 
		},
		"coords": [
			{
				"x": -0.7142941805,
				"y": 2.7847917645,
				"z": 0.3004806641,
				"element": "C" 
			},
			{
				"x": -0.6567365634,
				"y": 1.2466397802,
				"z": 0.2502645589,
				"element": "C" 
			},
			{
				"x": 0.4493732242,
				"y": 0.7044775763,
				"z": 1.177479975,
				"element": "C" 
			},
			{
				"x": -0.4396639739,
				"y": 0.778911544,
				"z": -1.1660150526,
				"element": "C" 
			},
			{
				"x": 0.5270867244,
				"y": 1.194684312,
				"z": -1.9461825489,
				"element": "N" 
			},
			{
				"x": 0.402967785,
				"y": 0.5611855812,
				"z": -3.1713913295,
				"element": "N" 
			},
			{
				"x": -0.6430463978,
				"y": -0.2218029999,
				"z": -3.0868682277,
				"element": "C" 
			},
			{
				"x": -1.2817453073,
				"y": -1.2299591531,
				"z": -4.3931547338,
				"element": "S" 
			},
			{
				"x": -1.220139736,
				"y": -0.1535969168,
				"z": -1.8376856417,
				"element": "N" 
			},
			{
				"x": -2.4348640007,
				"y": -0.7962373542,
				"z": -1.4075955015,
				"element": "C" 
			},
			{
				"x": -2.4316400009,
				"y": -1.641598998,
				"z": -0.1569922191,
				"element": "C" 
			},
			{
				"x": -2.5475043145,
				"y": -2.3005976736,
				"z": -1.5034258346,
				"element": "C" 
			},
			{
				"x": -1.5356182876,
				"y": 3.1723958886,
				"z": -0.3100774493,
				"element": "H" 
			},
			{
				"x": -0.8608993281,
				"y": 3.1274281449,
				"z": 1.3301015856,
				"element": "H" 
			},
			{
				"x": 0.2167904977,
				"y": 3.2108453867,
				"z": -0.08206199,
				"element": "H" 
			},
			{
				"x": -1.6203269418,
				"y": 0.8531734623,
				"z": 0.5920771672,
				"element": "H" 
			},
			{
				"x": 1.4275983259,
				"y": 1.0638178345,
				"z": 0.8454981412,
				"element": "H" 
			},
			{
				"x": 0.4784187581,
				"y": -0.3902153174,
				"z": 1.1769155105,
				"element": "H" 
			},
			{
				"x": 0.2858584176,
				"y": 1.0395453943,
				"z": 2.207112125,
				"element": "H" 
			},
			{
				"x": -0.352937683,
				"y": -0.7878411648,
				"z": -5.2623162744,
				"element": "H" 
			},
			{
				"x": -3.3326354188,
				"y": -0.2187594976,
				"z": -1.616257861,
				"element": "H" 
			},
			{
				"x": -3.3065994832,
				"y": -1.5876358653,
				"z": 0.4827801476,
				"element": "H" 
			},
			{
				"x": -1.4901200736,
				"y": -1.750720905,
				"z": 0.3704146242,
				"element": "H" 
			},
			{
				"x": -1.6841149044,
				"y": -2.8448122283,
				"z": -1.8703634725,
				"element": "H" 
			},
			{
				"x": -3.5044071375,
				"y": -2.7068185956,
				"z": -1.8138363627,
				"element": "H" 
			}
		],
		 "valence_orbital": [ 
			{
				"type": "occ",
				"energy": -0.30149,
				"method": "rhf"
			},
			{
				"type": "occ",
				"energy": -0.29807,
				"method": "rhf"
			},
			{
				"type": "occ",
				"energy": -0.28126,
				"method": "rhf"
			},
			{
				"type": "occ",
				"energy": -0.24608,
				"method": "rhf"
			},
			{
				"type": "occ",
				"energy": -0.22191,
				"method": "rhf"
			},
			{
				"type": "unocc",
				"energy": 0.01382,
				"method": "rhf"
			},
			{
				"type": "unocc",
				"energy": 0.01959,
				"method": "rhf"
			},
			{
				"type": "unocc",
				"energy": 0.0469,
				"method": "rhf"
			},
			{
				"type": "unocc",
				"energy": 0.06682,
				"method": "rhf"
			},
			{
				"type": "unocc",
				"energy": 0.07406,
				"method": "rhf"
			}
		],
		"cosmo_sigma_profile": { 
			"-0.025": 0.0,
			"-0.024": 0.0,
			"-0.023": 0.0,
			"-0.022": 0.0,
			"-0.021": 0.0,
			"-0.02": 0.0,
			"-0.019": 0.0,
			"-0.018": 0.0,
			"-0.017": 0.0,
			"-0.016": 0.0,
			"-0.015": 0.0,
			"-0.014": 0.0,
			"-0.013": 0.0,
			"-0.012": 0.657120943791,
			"-0.011": 1.50412950053,
			"-0.01": 1.51128910253,
			"-0.009": 0.73528847559,
			"-0.008": 1.68160731765,
			"-0.007": 4.09971135719,
			"-0.006": 11.3353867746,
			"-0.005": 15.0703868911,
			"-0.004": 17.290044002,
			"-0.003": 25.4505272585,
			"-0.002": 25.9382956153,
			"-0.001": 21.460709648,
			"0.0": 21.9397129587,
			"0.001": 20.2884689855,
			"0.002": 10.5998347911,
			"0.003": 8.79650666829,
			"0.004": 6.48491691137,
			"0.005": 4.4173838273,
			"0.006": 4.9547674392,
			"0.007": 3.55756268733,
			"0.008": 1.74166196314,
			"0.009": 1.4746524246,
			"0.01": 2.68081890064,
			"0.011": 2.10888289984,
			"0.012": 2.12607580533,
			"0.013": 2.90789822556,
			"0.014": 3.51190714567,
			"0.015": 2.37665791668,
			"0.016": 2.17776981603,
			"0.017": 1.13221095583,
			"0.018": 0.0,
			"0.019": 0.0,
			"0.02": 0.0,
			"0.021": 0.0,
			"0.022": 0.0,
			"0.023": 0.0,
			"0.024": 0.0,
			"0.025": 0.0
		}
	}
}
