{
	 "smiles": "NCC1=CC(F)=C(C=C1)N1CCN(CC1)C1=NC=CC=N1", 
	 "Tm": 364.15, 
	 "num_atms": 39, 
	 "gaussian": { 
		 "optdone": 1, 
		 "sigma_profile": "yes", 
		 "theory": "DFT", 
		 "functional": "B3LYP", 
		 "basiset": "6-31G**", 
		 "properties": { 
			 "R2extent": 10492.3778, 
			 "electric_dipole_moment_norm": 2.5158752791, 
			 "electric_quadrupole_moment_norm": 5.99169053774, 
			 "total_energy": -956.023169948, 
			 "HOMO_LUMO_gap": 0.16183, 
			 "cosmo_polarized_energy": -13.2, 
			 "cosmo_cavitation_energy": 41.36, 
			 "cosmo_dispersion_energy": -30.04, 
			 "cosmo_repulsion_energy": 2.27, 
			 "cosmo_total_nonelectrostatic_energy": 13.59, 
			 "SMD_solvation_energy": 1.86 
		},
		"coords": [
			{
				"x": -3.9025010792,
				"y": -3.9295714141,
				"z": 3.8379724228,
				"element": "N" 
			},
			{
				"x": -2.4346309486,
				"y": -3.8742539898,
				"z": 3.9581881247,
				"element": "C" 
			},
			{
				"x": -1.7489465331,
				"y": -2.7585522035,
				"z": 3.1913546996,
				"element": "C" 
			},
			{
				"x": -1.6413275279,
				"y": -1.4700004881,
				"z": 3.735938671,
				"element": "C" 
			},
			{
				"x": -1.0575503199,
				"y": -0.4463916923,
				"z": 3.0131169573,
				"element": "C" 
			},
			{
				"x": -0.9279871191,
				"y": 0.7664286169,
				"z": 3.6147198432,
				"element": "F" 
			},
			{
				"x": -0.567564075,
				"y": -0.609200707,
				"z": 1.6993231765,
				"element": "C" 
			},
			{
				"x": -0.6741715316,
				"y": -1.9112253612,
				"z": 1.1713606494,
				"element": "C" 
			},
			{
				"x": -1.242424383,
				"y": -2.954726254,
				"z": 1.9037270267,
				"element": "C" 
			},
			{
				"x": 0.0329029057,
				"y": 0.4420213302,
				"z": 1.0088879846,
				"element": "N" 
			},
			{
				"x": -0.4932750786,
				"y": 1.8146658097,
				"z": 1.117793128,
				"element": "C" 
			},
			{
				"x": -0.5367966923,
				"y": 2.5048462507,
				"z": -0.245974303,
				"element": "C" 
			},
			{
				"x": 0.7873833753,
				"y": 2.5059992499,
				"z": -0.8616680231,
				"element": "N" 
			},
			{
				"x": 1.6470759625,
				"y": 1.350252501,
				"z": -0.6079057398,
				"element": "C" 
			},
			{
				"x": 0.8025253066,
				"y": 0.1475098151,
				"z": -0.1934563078,
				"element": "C" 
			},
			{
				"x": 1.2316058814,
				"y": 3.5545908655,
				"z": -1.615127216,
				"element": "C" 
			},
			{
				"x": 2.4995793191,
				"y": 3.4756005369,
				"z": -2.0824650206,
				"element": "N" 
			},
			{
				"x": 2.9152836815,
				"y": 4.5031826552,
				"z": -2.8213895695,
				"element": "C" 
			},
			{
				"x": 2.1203651715,
				"y": 5.6131150814,
				"z": -3.1050461192,
				"element": "C" 
			},
			{
				"x": 0.8343845862,
				"y": 5.5861767989,
				"z": -2.5652405657,
				"element": "C" 
			},
			{
				"x": 0.3710395657,
				"y": 4.576871797,
				"z": -1.8305799634,
				"element": "N" 
			},
			{
				"x": -4.2959661182,
				"y": -3.0466521494,
				"z": 4.1591645693,
				"element": "H" 
			},
			{
				"x": -4.1508318666,
				"y": -3.9919211148,
				"z": 2.8520274831,
				"element": "H" 
			},
			{
				"x": -2.1969743577,
				"y": -3.791500383,
				"z": 5.0252662393,
				"element": "H" 
			},
			{
				"x": -2.0399595544,
				"y": -4.8407798741,
				"z": 3.6246556002,
				"element": "H" 
			},
			{
				"x": -1.982148033,
				"y": -1.2516627227,
				"z": 4.7445107092,
				"element": "H" 
			},
			{
				"x": -0.3137688714,
				"y": -2.110496201,
				"z": 0.1688858262,
				"element": "H" 
			},
			{
				"x": -1.2963986637,
				"y": -3.9426787272,
				"z": 1.4521241748,
				"element": "H" 
			},
			{
				"x": 0.1140049145,
				"y": 2.4110020133,
				"z": 1.8105002475,
				"element": "H" 
			},
			{
				"x": -1.5083422315,
				"y": 1.7873231878,
				"z": 1.5200376231,
				"element": "H" 
			},
			{
				"x": -0.8655188608,
				"y": 3.538104349,
				"z": -0.1294311006,
				"element": "H" 
			},
			{
				"x": -1.2691439136,
				"y": 2.0053690425,
				"z": -0.8974722138,
				"element": "H" 
			},
			{
				"x": 2.2094933145,
				"y": 1.1134161496,
				"z": -1.5137789685,
				"element": "H" 
			},
			{
				"x": 2.3828066082,
				"y": 1.5761344971,
				"z": 0.1766672964,
				"element": "H" 
			},
			{
				"x": 1.4772104783,
				"y": -0.6897071687,
				"z": 0.0146942738,
				"element": "H" 
			},
			{
				"x": 0.1636796119,
				"y": -0.156357244,
				"z": -1.0414274291,
				"element": "H" 
			},
			{
				"x": 3.9348786221,
				"y": 4.4352645033,
				"z": -3.2001007143,
				"element": "H" 
			},
			{
				"x": 2.4776790636,
				"y": 6.4415889382,
				"z": -3.7045828478,
				"element": "H" 
			},
			{
				"x": 0.1413293905,
				"y": 6.4103137054,
				"z": -2.7327706244,
				"element": "H" 
			}
		],
		 "valence_orbital": [ 
			{
				"type": "occ",
				"energy": -0.24505,
				"method": "rhf"
			},
			{
				"type": "occ",
				"energy": -0.24231,
				"method": "rhf"
			},
			{
				"type": "occ",
				"energy": -0.23557,
				"method": "rhf"
			},
			{
				"type": "occ",
				"energy": -0.21211,
				"method": "rhf"
			},
			{
				"type": "occ",
				"energy": -0.19185,
				"method": "rhf"
			},
			{
				"type": "unocc",
				"energy": -0.03002,
				"method": "rhf"
			},
			{
				"type": "unocc",
				"energy": -0.00082,
				"method": "rhf"
			},
			{
				"type": "unocc",
				"energy": 0.00301,
				"method": "rhf"
			},
			{
				"type": "unocc",
				"energy": 0.00806,
				"method": "rhf"
			},
			{
				"type": "unocc",
				"energy": 0.08171,
				"method": "rhf"
			}
		],
		"cosmo_sigma_profile": { 
			"-0.025": 0.0,
			"-0.024": 0.0,
			"-0.023": 0.0,
			"-0.022": 0.0,
			"-0.021": 0.0,
			"-0.02": 0.0,
			"-0.019": 0.0,
			"-0.018": 0.0,
			"-0.017": 0.0,
			"-0.016": 0.0,
			"-0.015": 0.0,
			"-0.014": 0.0,
			"-0.013": 0.0,
			"-0.012": 0.0,
			"-0.011": 0.0,
			"-0.01": 0.148300727972,
			"-0.009": 2.05994977867,
			"-0.008": 2.20243119698,
			"-0.007": 7.081680566,
			"-0.006": 14.7594516435,
			"-0.005": 24.848131633,
			"-0.004": 39.4601387938,
			"-0.003": 34.8745645878,
			"-0.002": 22.8789837979,
			"-0.001": 19.1772110618,
			"0.0": 19.8629966276,
			"0.001": 22.2788414188,
			"0.002": 23.9616641653,
			"0.003": 21.7071611731,
			"0.004": 18.8221748162,
			"0.005": 18.2507957974,
			"0.006": 9.29135502385,
			"0.007": 4.77345149554,
			"0.008": 2.99878660442,
			"0.009": 3.03019867942,
			"0.01": 2.6549520567,
			"0.011": 3.15172106868,
			"0.012": 2.12926936902,
			"0.013": 1.86017233155,
			"0.014": 1.06598670667,
			"0.015": 0.428825847564,
			"0.016": 0.314521152352,
			"0.017": 0.483340690999,
			"0.018": 1.12347137205,
			"0.019": 0.570725430619,
			"0.02": 0.4051005724,
			"0.021": 0.0292403183608,
			"0.022": 0.0,
			"0.023": 0.0,
			"0.024": 0.0,
			"0.025": 0.0
		}
	}
}
