{
	 "smiles": "CC1=C(C=NO)C=NC=C1", 
	 "Tm": 453.15, 
	 "num_atms": 18, 
	 "gaussian": { 
		 "optdone": 1, 
		 "sigma_profile": "yes", 
		 "theory": "DFT", 
		 "functional": "B3LYP", 
		 "basiset": "6-31G**", 
		 "properties": { 
			 "R2extent": 1675.0317, 
			 "electric_dipole_moment_norm": 2.46963121336, 
			 "electric_quadrupole_moment_norm": 10.1679709987, 
			 "total_energy": -456.230230932, 
			 "HOMO_LUMO_gap": 0.18054, 
			 "cosmo_polarized_energy": -10.66, 
			 "cosmo_cavitation_energy": 22.41, 
			 "cosmo_dispersion_energy": -16.53, 
			 "cosmo_repulsion_energy": 1.34, 
			 "cosmo_total_nonelectrostatic_energy": 7.23, 
			 "SMD_solvation_energy": 3.04 
		},
		"coords": [
			{
				"x": -0.1473051448,
				"y": -2.1590745441,
				"z": 0.2601370342,
				"element": "C" 
			},
			{
				"x": -0.6156761052,
				"y": -0.7247869558,
				"z": 0.1953761247,
				"element": "C" 
			},
			{
				"x": 0.2268742668,
				"y": 0.3339044518,
				"z": -0.2098071994,
				"element": "C" 
			},
			{
				"x": 1.6217026927,
				"y": 0.0894615941,
				"z": -0.5941443681,
				"element": "C" 
			},
			{
				"x": 2.3884670398,
				"y": 1.0500945298,
				"z": -0.9625585521,
				"element": "N" 
			},
			{
				"x": 3.6640794824,
				"y": 0.5745510067,
				"z": -1.2778106336,
				"element": "O" 
			},
			{
				"x": -0.3103218451,
				"y": 1.6350227982,
				"z": -0.2348640905,
				"element": "C" 
			},
			{
				"x": -1.5637948451,
				"y": 1.9436880907,
				"z": 0.0978590794,
				"element": "N" 
			},
			{
				"x": -2.3539637845,
				"y": 0.9308259119,
				"z": 0.4807689129,
				"element": "C" 
			},
			{
				"x": -1.9288774913,
				"y": -0.3939692738,
				"z": 0.5428849147,
				"element": "C" 
			},
			{
				"x": 0.1881029018,
				"y": -2.5203647654,
				"z": -0.7184756558,
				"element": "H" 
			},
			{
				"x": -0.9549297137,
				"y": -2.8134274358,
				"z": 0.5968278466,
				"element": "H" 
			},
			{
				"x": 0.6913459188,
				"y": -2.2804768428,
				"z": 0.9548525235,
				"element": "H" 
			},
			{
				"x": 2.0128917507,
				"y": -0.9285482684,
				"z": -0.5656475254,
				"element": "H" 
			},
			{
				"x": 4.1317886801,
				"y": 1.3808817253,
				"z": -1.5341651214,
				"element": "H" 
			},
			{
				"x": 0.3279177725,
				"y": 2.4585261251,
				"z": -0.5449025181,
				"element": "H" 
			},
			{
				"x": -3.3757603982,
				"y": 1.1920500766,
				"z": 0.7506318809,
				"element": "H" 
			},
			{
				"x": -2.6192411777,
				"y": -1.1698582241,
				"z": 0.8617373475,
				"element": "H" 
			}
		],
		 "valence_orbital": [ 
			{
				"type": "occ",
				"energy": -0.30558,
				"method": "rhf"
			},
			{
				"type": "occ",
				"energy": -0.28689,
				"method": "rhf"
			},
			{
				"type": "occ",
				"energy": -0.27318,
				"method": "rhf"
			},
			{
				"type": "occ",
				"energy": -0.25041,
				"method": "rhf"
			},
			{
				"type": "occ",
				"energy": -0.23256,
				"method": "rhf"
			},
			{
				"type": "unocc",
				"energy": -0.05202,
				"method": "rhf"
			},
			{
				"type": "unocc",
				"energy": -0.0184,
				"method": "rhf"
			},
			{
				"type": "unocc",
				"energy": 0.04209,
				"method": "rhf"
			},
			{
				"type": "unocc",
				"energy": 0.07168,
				"method": "rhf"
			},
			{
				"type": "unocc",
				"energy": 0.09428,
				"method": "rhf"
			}
		],
		"cosmo_sigma_profile": { 
			"-0.025": 0.0,
			"-0.024": 0.0,
			"-0.023": 0.0,
			"-0.022": 0.0,
			"-0.021": 0.0,
			"-0.02": 0.0,
			"-0.019": 0.0,
			"-0.018": 0.246686426057,
			"-0.017": 1.23018393529,
			"-0.016": 1.00928044753,
			"-0.015": 0.552347353032,
			"-0.014": 0.933726636341,
			"-0.013": 1.10600476665,
			"-0.012": 0.390502167558,
			"-0.011": 0.0524007714019,
			"-0.01": 0.965127801709,
			"-0.009": 0.774923632864,
			"-0.008": 0.843487642789,
			"-0.007": 3.98471728598,
			"-0.006": 11.9357117332,
			"-0.005": 13.5292571111,
			"-0.004": 11.8679700189,
			"-0.003": 11.3558420021,
			"-0.002": 11.9299048767,
			"-0.001": 12.7166100534,
			"0.0": 11.4035331875,
			"0.001": 14.7042605267,
			"0.002": 17.3285023443,
			"0.003": 9.26665208454,
			"0.004": 7.20416509503,
			"0.005": 5.62376821639,
			"0.006": 4.56916909377,
			"0.007": 3.76349668003,
			"0.008": 4.7906168328,
			"0.009": 3.80059445796,
			"0.01": 3.59797382026,
			"0.011": 2.19730644405,
			"0.012": 0.733439431066,
			"0.013": 1.02043390387,
			"0.014": 1.02969855517,
			"0.015": 0.762187293549,
			"0.016": 0.966063575984,
			"0.017": 0.278560492562,
			"0.018": 0.0,
			"0.019": 0.0,
			"0.02": 0.0,
			"0.021": 0.0,
			"0.022": 0.0,
			"0.023": 0.0,
			"0.024": 0.0,
			"0.025": 0.0
		}
	}
}
