{
	 "smiles": "COC(=O)[C@@H](O)[C@H](O)C(=O)OC", 
	 "Tm": 332.15, 
	 "num_atms": 22, 
	 "gaussian": { 
		 "optdone": 1, 
		 "sigma_profile": "yes", 
		 "theory": "DFT", 
		 "functional": "B3LYP", 
		 "basiset": "6-31G**", 
		 "properties": { 
			 "R2extent": 2264.5586, 
			 "electric_dipole_moment_norm": 4.16593174932, 
			 "electric_quadrupole_moment_norm": 15.3424727495, 
			 "total_energy": -685.999513079, 
			 "HOMO_LUMO_gap": 0.24653, 
			 "cosmo_polarized_energy": -15.74, 
			 "cosmo_cavitation_energy": 26.22, 
			 "cosmo_dispersion_energy": -18.42, 
			 "cosmo_repulsion_energy": 1.51, 
			 "cosmo_total_nonelectrostatic_energy": 9.3, 
			 "SMD_solvation_energy": 7.4 
		},
		"coords": [
			{
				"x": -1.6426101402,
				"y": -3.5584570559,
				"z": 0.7441873643,
				"element": "C" 
			},
			{
				"x": -0.6202848086,
				"y": -2.5514708717,
				"z": 0.8804050316,
				"element": "O" 
			},
			{
				"x": -1.0626985848,
				"y": -1.3129546699,
				"z": 1.1140225088,
				"element": "C" 
			},
			{
				"x": -2.2438358927,
				"y": -1.0162267968,
				"z": 1.191025546,
				"element": "O" 
			},
			{
				"x": 0.0630737737,
				"y": -0.2843215846,
				"z": 1.2859182037,
				"element": "C" 
			},
			{
				"x": 1.324077032,
				"y": -0.7124086197,
				"z": 0.850302855,
				"element": "O" 
			},
			{
				"x": -0.3876872725,
				"y": 1.0815642133,
				"z": 0.6770822688,
				"element": "C" 
			},
			{
				"x": -1.4046724928,
				"y": 1.6831005303,
				"z": 1.4218332414,
				"element": "O" 
			},
			{
				"x": -0.7824179228,
				"y": 0.9584725922,
				"z": -0.8032065107,
				"element": "C" 
			},
			{
				"x": -1.7816649583,
				"y": 1.4050404742,
				"z": -1.306378165,
				"element": "O" 
			},
			{
				"x": 0.160133278,
				"y": 0.2597128136,
				"z": -1.5017385681,
				"element": "O" 
			},
			{
				"x": -0.1083007225,
				"y": 0.0996002685,
				"z": -2.9098036669,
				"element": "C" 
			},
			{
				"x": -2.3094375083,
				"y": -3.3166091747,
				"z": -0.0866063237,
				"element": "H" 
			},
			{
				"x": -1.1100594531,
				"y": -4.4896579422,
				"z": 0.5550953512,
				"element": "H" 
			},
			{
				"x": -2.2314518559,
				"y": -3.6295492636,
				"z": 1.6615347242,
				"element": "H" 
			},
			{
				"x": 0.1445701165,
				"y": -0.1020732861,
				"z": 2.364151323,
				"element": "H" 
			},
			{
				"x": 1.2863080834,
				"y": -0.7644678997,
				"z": -0.1165743655,
				"element": "H" 
			},
			{
				"x": 0.4922283555,
				"y": 1.7340476996,
				"z": 0.7262167966,
				"element": "H" 
			},
			{
				"x": -2.1691751854,
				"y": 1.0850917322,
				"z": 1.3688487867,
				"element": "H" 
			},
			{
				"x": -0.1792699894,
				"y": 1.0761248832,
				"z": -3.3933178866,
				"element": "H" 
			},
			{
				"x": -1.0453620537,
				"y": -0.440867248,
				"z": -3.060690909,
				"element": "H" 
			},
			{
				"x": 0.7330382019,
				"y": -0.4664907942,
				"z": -3.3084076059,
				"element": "H" 
			}
		],
		 "valence_orbital": [ 
			{
				"type": "occ",
				"energy": -0.32075,
				"method": "rhf"
			},
			{
				"type": "occ",
				"energy": -0.31823,
				"method": "rhf"
			},
			{
				"type": "occ",
				"energy": -0.29797,
				"method": "rhf"
			},
			{
				"type": "occ",
				"energy": -0.27807,
				"method": "rhf"
			},
			{
				"type": "occ",
				"energy": -0.25802,
				"method": "rhf"
			},
			{
				"type": "unocc",
				"energy": -0.01149,
				"method": "rhf"
			},
			{
				"type": "unocc",
				"energy": -0.00173,
				"method": "rhf"
			},
			{
				"type": "unocc",
				"energy": 0.07603,
				"method": "rhf"
			},
			{
				"type": "unocc",
				"energy": 0.09292,
				"method": "rhf"
			},
			{
				"type": "unocc",
				"energy": 0.10361,
				"method": "rhf"
			}
		],
		"cosmo_sigma_profile": { 
			"-0.025": 0.0,
			"-0.024": 0.0,
			"-0.023": 0.0,
			"-0.022": 0.0,
			"-0.021": 0.0,
			"-0.02": 0.0,
			"-0.019": 0.0,
			"-0.018": 0.0,
			"-0.017": 0.0,
			"-0.016": 0.0,
			"-0.015": 0.0,
			"-0.014": 0.0,
			"-0.013": 0.0,
			"-0.012": 0.0360332228849,
			"-0.011": 0.779211778057,
			"-0.01": 0.469741612103,
			"-0.009": 1.80043295995,
			"-0.008": 6.30337173162,
			"-0.007": 10.5820935813,
			"-0.006": 18.0369887726,
			"-0.005": 22.1272808805,
			"-0.004": 23.9370031539,
			"-0.003": 17.4142573907,
			"-0.002": 11.86028145,
			"-0.001": 7.86233360147,
			"0.0": 5.94913351972,
			"0.001": 7.25819455286,
			"0.002": 6.75198822398,
			"0.003": 5.76193893283,
			"0.004": 5.23711373148,
			"0.005": 4.98081939972,
			"0.006": 5.03543915137,
			"0.007": 5.13709984062,
			"0.008": 5.18660950536,
			"0.009": 6.15241532298,
			"0.01": 8.3567051557,
			"0.011": 9.16974800446,
			"0.012": 6.27160813502,
			"0.013": 3.63790286531,
			"0.014": 0.00915694150313,
			"0.015": 0.0,
			"0.016": 0.0,
			"0.017": 0.0,
			"0.018": 0.0,
			"0.019": 0.0,
			"0.02": 0.0,
			"0.021": 0.0,
			"0.022": 0.0,
			"0.023": 0.0,
			"0.024": 0.0,
			"0.025": 0.0
		}
	}
}
