{
	 "smiles": "CC(OC1=CC=C(F)C=C1)C(=O)NN", 
	 "Tm": 439.15, 
	 "num_atms": 25, 
	 "gaussian": { 
		 "optdone": 1, 
		 "sigma_profile": "yes", 
		 "theory": "DFT", 
		 "functional": "B3LYP", 
		 "basiset": "6-31G**", 
		 "properties": { 
			 "R2extent": 3795.3034, 
			 "electric_dipole_moment_norm": 2.23782016257, 
			 "electric_quadrupole_moment_norm": 15.50900661, 
			 "total_energy": -709.337456265, 
			 "HOMO_LUMO_gap": 0.20559, 
			 "cosmo_polarized_energy": -14.97, 
			 "cosmo_cavitation_energy": 29.5, 
			 "cosmo_dispersion_energy": -20.78, 
			 "cosmo_repulsion_energy": 1.63, 
			 "cosmo_total_nonelectrostatic_energy": 10.35, 
			 "SMD_solvation_energy": 6.91 
		},
		"coords": [
			{
				"x": -0.4679285753,
				"y": -2.0137679724,
				"z": 0.6406934817,
				"element": "C" 
			},
			{
				"x": -0.1734750074,
				"y": -0.5291996229,
				"z": 0.7955386478,
				"element": "C" 
			},
			{
				"x": 0.7235848395,
				"y": -0.050786765,
				"z": -0.2233721915,
				"element": "O" 
			},
			{
				"x": 0.2578432548,
				"y": 0.1873080485,
				"z": -1.4956603153,
				"element": "C" 
			},
			{
				"x": -1.0838753137,
				"y": 0.1277439653,
				"z": -1.8890742171,
				"element": "C" 
			},
			{
				"x": -1.4358052304,
				"y": 0.4282509579,
				"z": -3.2091450898,
				"element": "C" 
			},
			{
				"x": -0.4477710473,
				"y": 0.7811765046,
				"z": -4.1157484338,
				"element": "C" 
			},
			{
				"x": -0.7905518041,
				"y": 1.0696873552,
				"z": -5.3902160584,
				"element": "F" 
			},
			{
				"x": 0.8924020428,
				"y": 0.841294569,
				"z": -3.7427836276,
				"element": "C" 
			},
			{
				"x": 1.2417468964,
				"y": 0.5417948906,
				"z": -2.4305814934,
				"element": "C" 
			},
			{
				"x": 0.53102751,
				"y": -0.2449433035,
				"z": 2.1401145698,
				"element": "C" 
			},
			{
				"x": 0.8592462742,
				"y": -1.1411424001,
				"z": 2.9038909793,
				"element": "O" 
			},
			{
				"x": 0.7441037095,
				"y": 1.0709426516,
				"z": 2.4476900893,
				"element": "N" 
			},
			{
				"x": 0.5207350061,
				"y": 2.1954284887,
				"z": 1.6349322882,
				"element": "N" 
			},
			{
				"x": 0.4539746841,
				"y": -2.5860550215,
				"z": 0.7563949505,
				"element": "H" 
			},
			{
				"x": -0.9052649157,
				"y": -2.2234225724,
				"z": -0.3380400136,
				"element": "H" 
			},
			{
				"x": -1.1643331911,
				"y": -2.340065489,
				"z": 1.4171179097,
				"element": "H" 
			},
			{
				"x": -1.1000334254,
				"y": 0.0629614541,
				"z": 0.7667250866,
				"element": "H" 
			},
			{
				"x": -1.8634982479,
				"y": -0.1549609602,
				"z": -1.1923648404,
				"element": "H" 
			},
			{
				"x": -2.4699625171,
				"y": 0.3850752727,
				"z": -3.5332222446,
				"element": "H" 
			},
			{
				"x": 1.6423305764,
				"y": 1.117247229,
				"z": -4.4761172941,
				"element": "H" 
			},
			{
				"x": 2.2768861239,
				"y": 0.5753892595,
				"z": -2.1073531612,
				"element": "H" 
			},
			{
				"x": 1.2775343158,
				"y": 1.2405566242,
				"z": 3.2907859168,
				"element": "H" 
			},
			{
				"x": -0.4782095219,
				"y": 2.3706032046,
				"z": 1.5508944242,
				"element": "H" 
			},
			{
				"x": 0.8985935638,
				"y": 2.0170836314,
				"z": 0.7087006369,
				"element": "H" 
			}
		],
		 "valence_orbital": [ 
			{
				"type": "occ",
				"energy": -0.294,
				"method": "rhf"
			},
			{
				"type": "occ",
				"energy": -0.2703,
				"method": "rhf"
			},
			{
				"type": "occ",
				"energy": -0.26138,
				"method": "rhf"
			},
			{
				"type": "occ",
				"energy": -0.25173,
				"method": "rhf"
			},
			{
				"type": "occ",
				"energy": -0.22768,
				"method": "rhf"
			},
			{
				"type": "unocc",
				"energy": -0.02209,
				"method": "rhf"
			},
			{
				"type": "unocc",
				"energy": 0.00434,
				"method": "rhf"
			},
			{
				"type": "unocc",
				"energy": 0.00548,
				"method": "rhf"
			},
			{
				"type": "unocc",
				"energy": 0.06457,
				"method": "rhf"
			},
			{
				"type": "unocc",
				"energy": 0.07677,
				"method": "rhf"
			}
		],
		"cosmo_sigma_profile": { 
			"-0.025": 0.0,
			"-0.024": 0.0,
			"-0.023": 0.0,
			"-0.022": 0.0,
			"-0.021": 0.0,
			"-0.02": 0.0,
			"-0.019": 0.0,
			"-0.018": 0.0,
			"-0.017": 0.0,
			"-0.016": 0.0,
			"-0.015": 0.0,
			"-0.014": 0.359906792228,
			"-0.013": 1.273145732,
			"-0.012": 1.48199213894,
			"-0.011": 2.88426567386,
			"-0.01": 2.16045824704,
			"-0.009": 3.89698142157,
			"-0.008": 7.21045637036,
			"-0.007": 11.7453145347,
			"-0.006": 11.2150584381,
			"-0.005": 12.5077019846,
			"-0.004": 14.2054800475,
			"-0.003": 12.1053795261,
			"-0.002": 13.5938313167,
			"-0.001": 12.6879622509,
			"0.0": 17.5497808502,
			"0.001": 16.3568857881,
			"0.002": 17.5348634733,
			"0.003": 17.2744392611,
			"0.004": 19.1793003832,
			"0.005": 10.3483340116,
			"0.006": 3.16793701845,
			"0.007": 3.02629408146,
			"0.008": 2.48060650247,
			"0.009": 1.65620564947,
			"0.01": 2.6656134587,
			"0.011": 2.47666321398,
			"0.012": 2.84400356281,
			"0.013": 6.04864264513,
			"0.014": 2.40201100878,
			"0.015": 0.955278318656,
			"0.016": 0.363451213127,
			"0.017": 0.0,
			"0.018": 0.0,
			"0.019": 0.0,
			"0.02": 0.0,
			"0.021": 0.0,
			"0.022": 0.0,
			"0.023": 0.0,
			"0.024": 0.0,
			"0.025": 0.0
		}
	}
}
