{
	 "smiles": "CC1=NC2=C(C3=C(CCC3)S2)C(Cl)=N1", 
	 "Tm": 365.15, 
	 "num_atms": 23, 
	 "gaussian": { 
		 "optdone": 1, 
		 "sigma_profile": "yes", 
		 "theory": "DFT", 
		 "functional": "B3LYP", 
		 "basiset": "6-31G**", 
		 "properties": { 
			 "R2extent": 4704.1394, 
			 "electric_dipole_moment_norm": 2.67698044446, 
			 "electric_quadrupole_moment_norm": 7.24149048401, 
			 "total_energy": -1354.38346585, 
			 "HOMO_LUMO_gap": 0.17909, 
			 "cosmo_polarized_energy": -6.17, 
			 "cosmo_cavitation_energy": 29.39, 
			 "cosmo_dispersion_energy": -22.67, 
			 "cosmo_repulsion_energy": 1.75, 
			 "cosmo_total_nonelectrostatic_energy": 8.47, 
			 "SMD_solvation_energy": 0.64 
		},
		"coords": [
			{
				"x": 4.1346889282,
				"y": 0.4174827003,
				"z": -4.1919250271,
				"element": "C" 
			},
			{
				"x": 3.1736489438,
				"y": 0.4597683832,
				"z": -3.0378131393,
				"element": "C" 
			},
			{
				"x": 3.0422102199,
				"y": -0.6352958538,
				"z": -2.2825237885,
				"element": "N" 
			},
			{
				"x": 2.1780959904,
				"y": -0.5335610642,
				"z": -1.2777282849,
				"element": "C" 
			},
			{
				"x": 1.4066770866,
				"y": 0.6201628664,
				"z": -0.9688022988,
				"element": "C" 
			},
			{
				"x": 0.5581810381,
				"y": 0.4065770853,
				"z": 0.1680912817,
				"element": "C" 
			},
			{
				"x": 0.6944566787,
				"y": -0.8447970301,
				"z": 0.6867579335,
				"element": "C" 
			},
			{
				"x": -0.1334626168,
				"y": -1.0799953178,
				"z": 1.9175702732,
				"element": "C" 
			},
			{
				"x": -1.0885188765,
				"y": 0.1528977544,
				"z": 1.8861287462,
				"element": "C" 
			},
			{
				"x": -0.4129150124,
				"y": 1.228192685,
				"z": 0.9809383918,
				"element": "C" 
			},
			{
				"x": 1.850520036,
				"y": -1.8541774177,
				"z": -0.1537694187,
				"element": "S" 
			},
			{
				"x": 1.6551093091,
				"y": 1.6864387517,
				"z": -1.8472396263,
				"element": "C" 
			},
			{
				"x": 0.8028179604,
				"y": 3.2132784905,
				"z": -1.6267187226,
				"element": "Cl" 
			},
			{
				"x": 2.5039697652,
				"y": 1.6208767139,
				"z": -2.8461206396,
				"element": "N" 
			},
			{
				"x": 4.8985418785,
				"y": 1.1935780447,
				"z": -4.0781040381,
				"element": "H" 
			},
			{
				"x": 3.6093658169,
				"y": 0.6220096686,
				"z": -5.1305201255,
				"element": "H" 
			},
			{
				"x": 4.6138581262,
				"y": -0.5602870796,
				"z": -4.2478766449,
				"element": "H" 
			},
			{
				"x": 0.4987661846,
				"y": -1.0875301913,
				"z": 2.8160763543,
				"element": "H" 
			},
			{
				"x": -0.6785393638,
				"y": -2.0299148083,
				"z": 1.9050177595,
				"element": "H" 
			},
			{
				"x": -1.307058246,
				"y": 0.5300280686,
				"z": 2.8884733921,
				"element": "H" 
			},
			{
				"x": -2.0398323264,
				"y": -0.1474038037,
				"z": 1.4362298717,
				"element": "H" 
			},
			{
				"x": 0.1194446482,
				"y": 1.9841096896,
				"z": 1.5728669878,
				"element": "H" 
			},
			{
				"x": -1.1410261691,
				"y": 1.7675616643,
				"z": 0.3683907622,
				"element": "H" 
			}
		],
		 "valence_orbital": [ 
			{
				"type": "occ",
				"energy": -0.31205,
				"method": "rhf"
			},
			{
				"type": "occ",
				"energy": -0.30086,
				"method": "rhf"
			},
			{
				"type": "occ",
				"energy": -0.26851,
				"method": "rhf"
			},
			{
				"type": "occ",
				"energy": -0.26343,
				"method": "rhf"
			},
			{
				"type": "occ",
				"energy": -0.22684,
				"method": "rhf"
			},
			{
				"type": "unocc",
				"energy": -0.04775,
				"method": "rhf"
			},
			{
				"type": "unocc",
				"energy": -0.03707,
				"method": "rhf"
			},
			{
				"type": "unocc",
				"energy": 0.00569,
				"method": "rhf"
			},
			{
				"type": "unocc",
				"energy": 0.02944,
				"method": "rhf"
			},
			{
				"type": "unocc",
				"energy": 0.04037,
				"method": "rhf"
			}
		],
		"cosmo_sigma_profile": { 
			"-0.025": 0.0,
			"-0.024": 0.0,
			"-0.023": 0.0,
			"-0.022": 0.0,
			"-0.021": 0.0,
			"-0.02": 0.0,
			"-0.019": 0.0,
			"-0.018": 0.0,
			"-0.017": 0.0,
			"-0.016": 0.0,
			"-0.015": 0.0,
			"-0.014": 0.0,
			"-0.013": 0.0,
			"-0.012": 0.0,
			"-0.011": 0.0,
			"-0.01": 0.0,
			"-0.009": 0.0,
			"-0.008": 0.0,
			"-0.007": 0.0,
			"-0.006": 0.902508017288,
			"-0.005": 8.85190715752,
			"-0.004": 19.3052366307,
			"-0.003": 27.5934668686,
			"-0.002": 33.7438118815,
			"-0.001": 35.9214760163,
			"0.0": 27.7343055554,
			"0.001": 21.9401118293,
			"0.002": 17.1162261042,
			"0.003": 13.3654677419,
			"0.004": 11.1325259417,
			"0.005": 4.67802937166,
			"0.006": 3.14678403043,
			"0.007": 2.60100136107,
			"0.008": 2.13194601481,
			"0.009": 2.23969663578,
			"0.01": 1.56991626008,
			"0.011": 1.71161346242,
			"0.012": 1.70640594158,
			"0.013": 1.18129600206,
			"0.014": 0.250967275701,
			"0.015": 0.0,
			"0.016": 0.0,
			"0.017": 0.0,
			"0.018": 0.0,
			"0.019": 0.0,
			"0.02": 0.0,
			"0.021": 0.0,
			"0.022": 0.0,
			"0.023": 0.0,
			"0.024": 0.0,
			"0.025": 0.0
		}
	}
}
