{
	 "smiles": "COC1=CC=C(C=C1C(O)=O)[N+]([O-])=O", 
	 "Tm": 430.15, 
	 "num_atms": 21, 
	 "gaussian": { 
		 "optdone": 1, 
		 "sigma_profile": "yes", 
		 "theory": "DFT", 
		 "functional": "B3LYP", 
		 "basiset": "6-31G**", 
		 "properties": { 
			 "R2extent": 3458.8076, 
			 "electric_dipole_moment_norm": 8.80937922785, 
			 "electric_quadrupole_moment_norm": 15.475948789, 
			 "total_energy": -739.840375425, 
			 "HOMO_LUMO_gap": 0.18009, 
			 "cosmo_polarized_energy": -19.63, 
			 "cosmo_cavitation_energy": 26.45, 
			 "cosmo_dispersion_energy": -19.54, 
			 "cosmo_repulsion_energy": 1.52, 
			 "cosmo_total_nonelectrostatic_energy": 8.43, 
			 "SMD_solvation_energy": 8.87 
		},
		"coords": [
			{
				"x": -2.5046576604,
				"y": 1.7614868969,
				"z": 0.3490721929,
				"element": "C" 
			},
			{
				"x": -1.4442133507,
				"y": 0.8316604463,
				"z": 0.5867510143,
				"element": "O" 
			},
			{
				"x": -0.5085257642,
				"y": 0.5964951046,
				"z": -0.3795850209,
				"element": "C" 
			},
			{
				"x": -0.5384060891,
				"y": 1.2396559442,
				"z": -1.6253570485,
				"element": "C" 
			},
			{
				"x": 0.4380179504,
				"y": 0.9651613594,
				"z": -2.5751141964,
				"element": "C" 
			},
			{
				"x": 1.439463891,
				"y": 0.0467809711,
				"z": -2.2701565451,
				"element": "C" 
			},
			{
				"x": 1.4826514226,
				"y": -0.598595205,
				"z": -1.0406715762,
				"element": "C" 
			},
			{
				"x": 0.5116624632,
				"y": -0.3371018028,
				"z": -0.0731019428,
				"element": "C" 
			},
			{
				"x": 0.6603532693,
				"y": -1.0990501107,
				"z": 1.2277981896,
				"element": "C" 
			},
			{
				"x": -0.2490305254,
				"y": -0.8828008023,
				"z": 2.1935315958,
				"element": "O" 
			},
			{
				"x": 1.5699548527,
				"y": -1.8794202701,
				"z": 1.3945780448,
				"element": "O" 
			},
			{
				"x": 2.4711431063,
				"y": -0.2427033134,
				"z": -3.2745081128,
				"element": "N" 
			},
			{
				"x": 3.3429697221,
				"y": -1.0567992232,
				"z": -2.9790617872,
				"element": "O" 
			},
			{
				"x": 2.395281602,
				"y": 0.3511823554,
				"z": -4.3510678931,
				"element": "O" 
			},
			{
				"x": -3.1235674916,
				"y": 1.44059631,
				"z": -0.4949355019,
				"element": "H" 
			},
			{
				"x": -2.1095643891,
				"y": 2.7656360836,
				"z": 0.1647899985,
				"element": "H" 
			},
			{
				"x": -3.1020973554,
				"y": 1.76498755,
				"z": 1.2603299805,
				"element": "H" 
			},
			{
				"x": -1.317789209,
				"y": 1.9531126703,
				"z": -1.8600245106,
				"element": "H" 
			},
			{
				"x": 0.4345874641,
				"y": 1.4498833408,
				"z": -3.5433920615,
				"element": "H" 
			},
			{
				"x": 2.2652944945,
				"y": -1.3113345696,
				"z": -0.8126513589,
				"element": "H" 
			},
			{
				"x": -0.9060284033,
				"y": -0.2296337355,
				"z": 1.8920765394,
				"element": "H" 
			}
		],
		 "valence_orbital": [ 
			{
				"type": "occ",
				"energy": -0.31165,
				"method": "rhf"
			},
			{
				"type": "occ",
				"energy": -0.29527,
				"method": "rhf"
			},
			{
				"type": "occ",
				"energy": -0.29194,
				"method": "rhf"
			},
			{
				"type": "occ",
				"energy": -0.2789,
				"method": "rhf"
			},
			{
				"type": "occ",
				"energy": -0.27366,
				"method": "rhf"
			},
			{
				"type": "unocc",
				"energy": -0.09357,
				"method": "rhf"
			},
			{
				"type": "unocc",
				"energy": -0.06637,
				"method": "rhf"
			},
			{
				"type": "unocc",
				"energy": -0.01232,
				"method": "rhf"
			},
			{
				"type": "unocc",
				"energy": 0.04769,
				"method": "rhf"
			},
			{
				"type": "unocc",
				"energy": 0.05399,
				"method": "rhf"
			}
		],
		"cosmo_sigma_profile": { 
			"-0.025": 0.0,
			"-0.024": 0.0,
			"-0.023": 0.0,
			"-0.022": 0.0,
			"-0.021": 0.0,
			"-0.02": 0.0,
			"-0.019": 0.0,
			"-0.018": 0.0,
			"-0.017": 0.0,
			"-0.016": 0.0,
			"-0.015": 0.0,
			"-0.014": 0.0,
			"-0.013": 0.0,
			"-0.012": 0.0,
			"-0.011": 0.432814639973,
			"-0.01": 0.74554361103,
			"-0.009": 4.13251833756,
			"-0.008": 7.87058139706,
			"-0.007": 15.6039354579,
			"-0.006": 14.3045103039,
			"-0.005": 14.835663515,
			"-0.004": 13.8602213352,
			"-0.003": 13.7408318838,
			"-0.002": 17.7559578243,
			"-0.001": 20.1592360806,
			"0.0": 11.1430821172,
			"0.001": 6.95092305647,
			"0.002": 5.73271283729,
			"0.003": 3.29390890491,
			"0.004": 4.12024123322,
			"0.005": 5.19520286758,
			"0.006": 6.69326670401,
			"0.007": 9.2938690476,
			"0.008": 10.7644893591,
			"0.009": 7.60096726795,
			"0.01": 6.78004144982,
			"0.011": 5.97790486777,
			"0.012": 3.77586768464,
			"0.013": 1.61983543007,
			"0.014": 0.0707326541164,
			"0.015": 0.0,
			"0.016": 0.0,
			"0.017": 0.0,
			"0.018": 0.0,
			"0.019": 0.0,
			"0.02": 0.0,
			"0.021": 0.0,
			"0.022": 0.0,
			"0.023": 0.0,
			"0.024": 0.0,
			"0.025": 0.0
		}
	}
}
