{
	 "smiles": "OC(=O)C1=NN(CCOC2=CC=CC=C2)C(=O)C=C1", 
	 "Tm": 412.15, 
	 "num_atms": 31, 
	 "gaussian": { 
		 "optdone": 1, 
		 "sigma_profile": "yes", 
		 "theory": "DFT", 
		 "functional": "B3LYP", 
		 "basiset": "6-31G**", 
		 "properties": { 
			 "R2extent": 4870.8713, 
			 "electric_dipole_moment_norm": 2.82476568409, 
			 "electric_quadrupole_moment_norm": 26.9804987181, 
			 "total_energy": -912.993225337, 
			 "HOMO_LUMO_gap": 0.13314, 
			 "cosmo_polarized_energy": -17.19, 
			 "cosmo_cavitation_energy": 35.75, 
			 "cosmo_dispersion_energy": -24.22, 
			 "cosmo_repulsion_energy": 1.88, 
			 "cosmo_total_nonelectrostatic_energy": 13.41, 
			 "SMD_solvation_energy": 7.62 
		},
		"coords": [
			{
				"x": -3.7791009558,
				"y": -0.9095981462,
				"z": 0.9564794845,
				"element": "O" 
			},
			{
				"x": -3.1974903385,
				"y": -1.759760149,
				"z": 0.0940042826,
				"element": "C" 
			},
			{
				"x": -3.8022390882,
				"y": -2.2966070964,
				"z": -0.8057019213,
				"element": "O" 
			},
			{
				"x": -1.7341119675,
				"y": -2.0024803084,
				"z": 0.3252944715,
				"element": "C" 
			},
			{
				"x": -1.1997894898,
				"y": -1.3965439307,
				"z": 1.3581375364,
				"element": "N" 
			},
			{
				"x": 0.0967775835,
				"y": -1.5780092647,
				"z": 1.6061421829,
				"element": "N" 
			},
			{
				"x": 0.6411189007,
				"y": -0.8810946747,
				"z": 2.7780686398,
				"element": "C" 
			},
			{
				"x": 1.4466322009,
				"y": 0.3742650386,
				"z": 2.4334408607,
				"element": "C" 
			},
			{
				"x": 0.6286233095,
				"y": 1.3638611094,
				"z": 1.8252063727,
				"element": "O" 
			},
			{
				"x": 0.6877664692,
				"y": 1.6074708563,
				"z": 0.4738400222,
				"element": "C" 
			},
			{
				"x": 1.4611459852,
				"y": 0.8938223206,
				"z": -0.4492887429,
				"element": "C" 
			},
			{
				"x": 1.4262146207,
				"y": 1.2603258399,
				"z": -1.7991540706,
				"element": "C" 
			},
			{
				"x": 0.6328443707,
				"y": 2.3173603639,
				"z": -2.2391419566,
				"element": "C" 
			},
			{
				"x": -0.1390686732,
				"y": 3.020870487,
				"z": -1.3090820012,
				"element": "C" 
			},
			{
				"x": -0.112679165,
				"y": 2.6729953675,
				"z": 0.0373158158,
				"element": "C" 
			},
			{
				"x": 0.9783306943,
				"y": -2.3717079688,
				"z": 0.8263252761,
				"element": "C" 
			},
			{
				"x": 2.1690190867,
				"y": -2.4273826148,
				"z": 1.1200464976,
				"element": "O" 
			},
			{
				"x": 0.3307848604,
				"y": -3.0495120722,
				"z": -0.2835077015,
				"element": "C" 
			},
			{
				"x": -0.9899969829,
				"y": -2.8637939557,
				"z": -0.5366831414,
				"element": "C" 
			},
			{
				"x": -3.0959649984,
				"y": -0.6002334585,
				"z": 1.5795336425,
				"element": "H" 
			},
			{
				"x": 1.2900257695,
				"y": -1.5809774055,
				"z": 3.3112784945,
				"element": "H" 
			},
			{
				"x": -0.2147720313,
				"y": -0.6180930701,
				"z": 3.4006343778,
				"element": "H" 
			},
			{
				"x": 2.3179363115,
				"y": 0.1199786871,
				"z": 1.8286984363,
				"element": "H" 
			},
			{
				"x": 1.8053543187,
				"y": 0.8035857749,
				"z": 3.3757852674,
				"element": "H" 
			},
			{
				"x": 2.0831774707,
				"y": 0.0595136784,
				"z": -0.1472882865,
				"element": "H" 
			},
			{
				"x": 2.0303121173,
				"y": 0.7015044957,
				"z": -2.5085020997,
				"element": "H" 
			},
			{
				"x": 0.6128340962,
				"y": 2.5899921945,
				"z": -3.2895519934,
				"element": "H" 
			},
			{
				"x": -0.7644056844,
				"y": 3.8480016024,
				"z": -1.6329024131,
				"element": "H" 
			},
			{
				"x": -0.7011327247,
				"y": 3.2117497015,
				"z": 0.7728614147,
				"element": "H" 
			},
			{
				"x": 0.9634645307,
				"y": -3.6870618167,
				"z": -0.8905937096,
				"element": "H" 
			},
			{
				"x": -1.5078105968,
				"y": -3.3400415853,
				"z": -1.3617950384,
				"element": "H" 
			}
		],
		 "valence_orbital": [ 
			{
				"type": "occ",
				"energy": -0.28829,
				"method": "rhf"
			},
			{
				"type": "occ",
				"energy": -0.27306,
				"method": "rhf"
			},
			{
				"type": "occ",
				"energy": -0.2616,
				"method": "rhf"
			},
			{
				"type": "occ",
				"energy": -0.25348,
				"method": "rhf"
			},
			{
				"type": "occ",
				"energy": -0.22317,
				"method": "rhf"
			},
			{
				"type": "unocc",
				"energy": -0.09003,
				"method": "rhf"
			},
			{
				"type": "unocc",
				"energy": -0.05141,
				"method": "rhf"
			},
			{
				"type": "unocc",
				"energy": -0.0053,
				"method": "rhf"
			},
			{
				"type": "unocc",
				"energy": 0.00912,
				"method": "rhf"
			},
			{
				"type": "unocc",
				"energy": 0.04228,
				"method": "rhf"
			}
		],
		"cosmo_sigma_profile": { 
			"-0.025": 0.0,
			"-0.024": 0.0,
			"-0.023": 0.0,
			"-0.022": 0.0,
			"-0.021": 0.0,
			"-0.02": 0.0,
			"-0.019": 0.0,
			"-0.018": 0.0,
			"-0.017": 0.0,
			"-0.016": 0.0,
			"-0.015": 0.316408686574,
			"-0.014": 0.838428539244,
			"-0.013": 0.508761827392,
			"-0.012": 0.476470054169,
			"-0.011": 0.504916146725,
			"-0.01": 0.858343037851,
			"-0.009": 2.35592462681,
			"-0.008": 5.51648844022,
			"-0.007": 13.1051083104,
			"-0.006": 18.9941980978,
			"-0.005": 23.615621215,
			"-0.004": 26.4981446556,
			"-0.003": 22.3344144535,
			"-0.002": 19.3363238933,
			"-0.001": 18.8216798268,
			"0.0": 16.2363486756,
			"0.001": 11.5378670593,
			"0.002": 11.5909956115,
			"0.003": 13.4995591348,
			"0.004": 14.3885558711,
			"0.005": 12.9172323245,
			"0.006": 12.3176971408,
			"0.007": 4.50272691937,
			"0.008": 6.14692694871,
			"0.009": 6.02915355505,
			"0.01": 7.12081278276,
			"0.011": 6.41305675919,
			"0.012": 6.00623252576,
			"0.013": 2.91062867312,
			"0.014": 0.567563867891,
			"0.015": 0.0,
			"0.016": 0.0,
			"0.017": 0.0,
			"0.018": 0.0,
			"0.019": 0.0,
			"0.02": 0.0,
			"0.021": 0.0,
			"0.022": 0.0,
			"0.023": 0.0,
			"0.024": 0.0,
			"0.025": 0.0
		}
	}
}
