{
	 "smiles": "FC(F)(F)OC1=CC=C(C=C1)C(=O)CC#N", 
	 "Tm": 356.15, 
	 "num_atms": 22, 
	 "gaussian": { 
		 "optdone": 1, 
		 "sigma_profile": "yes", 
		 "theory": "DFT", 
		 "functional": "B3LYP", 
		 "basiset": "6-31G**", 
		 "properties": { 
			 "R2extent": 5108.2247, 
			 "electric_dipole_moment_norm": 3.00532882727, 
			 "electric_quadrupole_moment_norm": 13.262764259, 
			 "total_energy": -889.37824276, 
			 "HOMO_LUMO_gap": 0.18814, 
			 "cosmo_polarized_energy": -12.45, 
			 "cosmo_cavitation_energy": 29.84, 
			 "cosmo_dispersion_energy": -20.56, 
			 "cosmo_repulsion_energy": 1.54, 
			 "cosmo_total_nonelectrostatic_energy": 10.82, 
			 "SMD_solvation_energy": 8.55 
		},
		"coords": [
			{
				"x": 4.6165349963,
				"y": 3.166950407,
				"z": 0.5730082369,
				"element": "F" 
			},
			{
				"x": 3.4489384396,
				"y": 2.612573775,
				"z": 0.8825145975,
				"element": "C" 
			},
			{
				"x": 2.5867595172,
				"y": 3.5855017176,
				"z": 1.2311062974,
				"element": "F" 
			},
			{
				"x": 3.6171354211,
				"y": 1.8188829622,
				"z": 1.9553479437,
				"element": "F" 
			},
			{
				"x": 3.0298696383,
				"y": 1.9203024769,
				"z": -0.2124389166,
				"element": "O" 
			},
			{
				"x": 1.8278985177,
				"y": 1.2267656084,
				"z": -0.2169985511,
				"element": "C" 
			},
			{
				"x": 0.9484125024,
				"y": 1.1483496189,
				"z": 0.864584915,
				"element": "C" 
			},
			{
				"x": -0.2275014217,
				"y": 0.414791002,
				"z": 0.7189161624,
				"element": "C" 
			},
			{
				"x": -0.5333468144,
				"y": -0.2365955812,
				"z": -0.4845215597,
				"element": "C" 
			},
			{
				"x": 0.3728067594,
				"y": -0.1403194887,
				"z": -1.5562685623,
				"element": "C" 
			},
			{
				"x": 1.5459842652,
				"y": 0.5845877518,
				"z": -1.4274306529,
				"element": "C" 
			},
			{
				"x": -1.7800845156,
				"y": -1.017300015,
				"z": -0.7012982168,
				"element": "C" 
			},
			{
				"x": -2.0402649893,
				"y": -1.5397455531,
				"z": -1.7698542408,
				"element": "O" 
			},
			{
				"x": -2.8160986021,
				"y": -1.1401943938,
				"z": 0.446259849,
				"element": "C" 
			},
			{
				"x": -2.3165606204,
				"y": -1.837071042,
				"z": 1.6307278693,
				"element": "C" 
			},
			{
				"x": -1.9096049053,
				"y": -2.3905676323,
				"z": 2.5665108112,
				"element": "N" 
			},
			{
				"x": 1.1643868098,
				"y": 1.6381029403,
				"z": 1.804083716,
				"element": "H" 
			},
			{
				"x": -0.8955059979,
				"y": 0.3511823182,
				"z": 1.5706883227,
				"element": "H" 
			},
			{
				"x": 0.1308432821,
				"y": -0.6452694519,
				"z": -2.4848968013,
				"element": "H" 
			},
			{
				"x": 2.2552255297,
				"y": 0.6686411106,
				"z": -2.2434547834,
				"element": "H" 
			},
			{
				"x": -3.1618733568,
				"y": -0.1416668825,
				"z": 0.7411534943,
				"element": "H" 
			},
			{
				"x": -3.6683544555,
				"y": -1.6860016484,
				"z": 0.0337600693,
				"element": "H" 
			}
		],
		 "valence_orbital": [ 
			{
				"type": "occ",
				"energy": -0.34656,
				"method": "rhf"
			},
			{
				"type": "occ",
				"energy": -0.33662,
				"method": "rhf"
			},
			{
				"type": "occ",
				"energy": -0.28614,
				"method": "rhf"
			},
			{
				"type": "occ",
				"energy": -0.27694,
				"method": "rhf"
			},
			{
				"type": "occ",
				"energy": -0.26895,
				"method": "rhf"
			},
			{
				"type": "unocc",
				"energy": -0.08081,
				"method": "rhf"
			},
			{
				"type": "unocc",
				"energy": -0.03491,
				"method": "rhf"
			},
			{
				"type": "unocc",
				"energy": 0.00929,
				"method": "rhf"
			},
			{
				"type": "unocc",
				"energy": 0.02368,
				"method": "rhf"
			},
			{
				"type": "unocc",
				"energy": 0.03387,
				"method": "rhf"
			}
		],
		"cosmo_sigma_profile": { 
			"-0.025": 0.0,
			"-0.024": 0.0,
			"-0.023": 0.0,
			"-0.022": 0.0,
			"-0.021": 0.0,
			"-0.02": 0.0,
			"-0.019": 0.0,
			"-0.018": 0.0,
			"-0.017": 0.0,
			"-0.016": 0.0,
			"-0.015": 0.0,
			"-0.014": 0.0,
			"-0.013": 0.0,
			"-0.012": 0.203459776237,
			"-0.011": 1.73972293215,
			"-0.01": 4.52894871346,
			"-0.009": 5.21832713047,
			"-0.008": 8.01995123724,
			"-0.007": 10.0474450833,
			"-0.006": 9.49166732678,
			"-0.005": 9.59504439981,
			"-0.004": 8.83840178849,
			"-0.003": 9.02534740157,
			"-0.002": 14.6849485573,
			"-0.001": 18.2304640317,
			"0.0": 25.288871746,
			"0.001": 39.8760919822,
			"0.002": 28.266881057,
			"0.003": 6.12377491043,
			"0.004": 4.13320226291,
			"0.005": 4.29882744224,
			"0.006": 4.20626824838,
			"0.007": 3.84384071454,
			"0.008": 4.87899036405,
			"0.009": 5.47731549453,
			"0.01": 6.43219189382,
			"0.011": 5.31911247034,
			"0.012": 2.54257204521,
			"0.013": 1.04257512778,
			"0.014": 0.0,
			"0.015": 0.0,
			"0.016": 0.0,
			"0.017": 0.0,
			"0.018": 0.0,
			"0.019": 0.0,
			"0.02": 0.0,
			"0.021": 0.0,
			"0.022": 0.0,
			"0.023": 0.0,
			"0.024": 0.0,
			"0.025": 0.0
		}
	}
}
