{
	 "smiles": "CC1CC2=C(C(=O)O1)C(O)=C(C=C2Cl)C(=O)NC(CC1=CC=CC=C1)C(O)=O", 
	 "Tm": 442.15, 
	 "num_atms": 46, 
	 "gaussian": { 
		 "optdone": 1, 
		 "sigma_profile": "yes", 
		 "theory": "DFT", 
		 "functional": "B3LYP", 
		 "basiset": "6-31G**", 
		 "properties": { 
			 "R2extent": 13587.5567, 
			 "electric_dipole_moment_norm": 2.28338011509, 
			 "electric_quadrupole_moment_norm": 36.1440220461, 
			 "total_energy": -1739.33945526, 
			 "HOMO_LUMO_gap": 0.16482, 
			 "cosmo_polarized_energy": -20.92, 
			 "cosmo_cavitation_energy": 51.32, 
			 "cosmo_dispersion_energy": -34.87, 
			 "cosmo_repulsion_energy": 2.64, 
			 "cosmo_total_nonelectrostatic_energy": 19.09, 
			 "SMD_solvation_energy": 10.18 
		},
		"coords": [
			{
				"x": -3.2700279039,
				"y": 1.8334345724,
				"z": 3.5104831599,
				"element": "C" 
			},
			{
				"x": -3.2014180572,
				"y": 0.3594043253,
				"z": 3.8998521475,
				"element": "C" 
			},
			{
				"x": -1.8307387317,
				"y": -0.1022991733,
				"z": 4.3923397238,
				"element": "C" 
			},
			{
				"x": -0.8460817703,
				"y": -0.2025193773,
				"z": 3.2572874501,
				"element": "C" 
			},
			{
				"x": -1.3459300742,
				"y": -0.5505260543,
				"z": 1.9859506459,
				"element": "C" 
			},
			{
				"x": -2.792917715,
				"y": -0.7592048353,
				"z": 1.7884368364,
				"element": "C" 
			},
			{
				"x": -3.258729246,
				"y": -1.2172267817,
				"z": 0.7432034389,
				"element": "O" 
			},
			{
				"x": -3.6460899883,
				"y": -0.4585490857,
				"z": 2.7773373679,
				"element": "O" 
			},
			{
				"x": -0.4782294801,
				"y": -0.7375971447,
				"z": 0.8763134595,
				"element": "C" 
			},
			{
				"x": -0.9634187711,
				"y": -1.1122717733,
				"z": -0.3137953334,
				"element": "O" 
			},
			{
				"x": 0.9097790929,
				"y": -0.5248688594,
				"z": 1.0403138076,
				"element": "C" 
			},
			{
				"x": 1.382146714,
				"y": -0.16846311,
				"z": 2.3034557898,
				"element": "C" 
			},
			{
				"x": 0.5283557889,
				"y": -0.0202863457,
				"z": 3.3941968557,
				"element": "C" 
			},
			{
				"x": 1.2264845536,
				"y": 0.3925655628,
				"z": 4.9576014532,
				"element": "Cl" 
			},
			{
				"x": 1.9688117629,
				"y": -0.6597192001,
				"z": -0.0293214325,
				"element": "C" 
			},
			{
				"x": 3.1530088054,
				"y": -0.4459255182,
				"z": 0.2438622889,
				"element": "O" 
			},
			{
				"x": 1.5710729774,
				"y": -1.0100356979,
				"z": -1.2789036904,
				"element": "N" 
			},
			{
				"x": 2.5515828722,
				"y": -1.216807245,
				"z": -2.3243595444,
				"element": "C" 
			},
			{
				"x": 3.0797133875,
				"y": 0.108724286,
				"z": -2.9549615067,
				"element": "C" 
			},
			{
				"x": 2.0315298606,
				"y": 0.9290945405,
				"z": -3.6726450702,
				"element": "C" 
			},
			{
				"x": 1.817034687,
				"y": 0.7731043171,
				"z": -5.0499387728,
				"element": "C" 
			},
			{
				"x": 0.8385245899,
				"y": 1.5157745664,
				"z": -5.7120648544,
				"element": "C" 
			},
			{
				"x": 0.0564542265,
				"y": 2.4308346381,
				"z": -5.0054972186,
				"element": "C" 
			},
			{
				"x": 0.2630606707,
				"y": 2.5998752279,
				"z": -3.6351688233,
				"element": "C" 
			},
			{
				"x": 1.242968277,
				"y": 1.8563207828,
				"z": -2.9764552061,
				"element": "C" 
			},
			{
				"x": 1.9396207104,
				"y": -2.1401556103,
				"z": -3.3649423172,
				"element": "C" 
			},
			{
				"x": 2.8365572217,
				"y": -2.48165449,
				"z": -4.3167792595,
				"element": "O" 
			},
			{
				"x": 0.7946506719,
				"y": -2.5344347172,
				"z": -3.3663116465,
				"element": "O" 
			},
			{
				"x": -2.5203746298,
				"y": 2.0855244598,
				"z": 2.7547818645,
				"element": "H" 
			},
			{
				"x": -3.0919483782,
				"y": 2.4597905311,
				"z": 4.3901353057,
				"element": "H" 
			},
			{
				"x": -4.2595604237,
				"y": 2.0702337887,
				"z": 3.1117223296,
				"element": "H" 
			},
			{
				"x": -3.9505909556,
				"y": 0.1522009283,
				"z": 4.6679313803,
				"element": "H" 
			},
			{
				"x": -1.4687835338,
				"y": 0.5836667507,
				"z": 5.1620556453,
				"element": "H" 
			},
			{
				"x": -1.9256207735,
				"y": -1.0867329281,
				"z": 4.8700540474,
				"element": "H" 
			},
			{
				"x": -1.9450016699,
				"y": -1.2668899095,
				"z": -0.1930000623,
				"element": "H" 
			},
			{
				"x": 2.4511454922,
				"y": -0.019011681,
				"z": 2.406000119,
				"element": "H" 
			},
			{
				"x": 0.6024687337,
				"y": -1.2416852217,
				"z": -1.4703306225,
				"element": "H" 
			},
			{
				"x": 3.4229505558,
				"y": -1.7220657876,
				"z": -1.8904925302,
				"element": "H" 
			},
			{
				"x": 3.891443909,
				"y": -0.1542124962,
				"z": -3.6399258647,
				"element": "H" 
			},
			{
				"x": 3.5177783805,
				"y": 0.674126246,
				"z": -2.128107042,
				"element": "H" 
			},
			{
				"x": 2.4269039174,
				"y": 0.0658014409,
				"z": -5.6062578032,
				"element": "H" 
			},
			{
				"x": 0.6907830568,
				"y": 1.3832454857,
				"z": -6.7802953809,
				"element": "H" 
			},
			{
				"x": -0.7036305627,
				"y": 3.012123638,
				"z": -5.5196140501,
				"element": "H" 
			},
			{
				"x": -0.3358427683,
				"y": 3.3156295559,
				"z": -3.0788110938,
				"element": "H" 
			},
			{
				"x": 1.40584103,
				"y": 2.0004921984,
				"z": -1.9120099812,
				"element": "H" 
			},
			{
				"x": 2.3639634875,
				"y": -3.0579247991,
				"z": -4.9409260097,
				"element": "H" 
			}
		],
		 "valence_orbital": [ 
			{
				"type": "occ",
				"energy": -0.25862,
				"method": "rhf"
			},
			{
				"type": "occ",
				"energy": -0.25777,
				"method": "rhf"
			},
			{
				"type": "occ",
				"energy": -0.24592,
				"method": "rhf"
			},
			{
				"type": "occ",
				"energy": -0.24113,
				"method": "rhf"
			},
			{
				"type": "occ",
				"energy": -0.23846,
				"method": "rhf"
			},
			{
				"type": "unocc",
				"energy": -0.07364,
				"method": "rhf"
			},
			{
				"type": "unocc",
				"energy": -0.03587,
				"method": "rhf"
			},
			{
				"type": "unocc",
				"energy": -0.0067,
				"method": "rhf"
			},
			{
				"type": "unocc",
				"energy": 8e-05,
				"method": "rhf"
			},
			{
				"type": "unocc",
				"energy": 0.00687,
				"method": "rhf"
			}
		],
		"cosmo_sigma_profile": { 
			"-0.025": 0.0,
			"-0.024": 0.0,
			"-0.023": 0.0,
			"-0.022": 0.0,
			"-0.021": 0.0,
			"-0.02": 0.0,
			"-0.019": 0.438551850137,
			"-0.018": 1.071746181,
			"-0.017": 1.07235174452,
			"-0.016": 0.575934099663,
			"-0.015": 0.549193896151,
			"-0.014": 0.368327895006,
			"-0.013": 0.776883637462,
			"-0.012": 1.0913983285,
			"-0.011": 1.29410028327,
			"-0.01": 0.132055604291,
			"-0.009": 0.425948591923,
			"-0.008": 1.43393203969,
			"-0.007": 10.8862673673,
			"-0.006": 17.7644971672,
			"-0.005": 27.8036385675,
			"-0.004": 36.2180598989,
			"-0.003": 35.9850976862,
			"-0.002": 35.3297233011,
			"-0.001": 38.7430476039,
			"0.0": 32.6677194571,
			"0.001": 27.2605722487,
			"0.002": 21.6439057784,
			"0.003": 21.250165506,
			"0.004": 23.8972982258,
			"0.005": 17.3107682636,
			"0.006": 11.9752670038,
			"0.007": 6.92294863073,
			"0.008": 6.45597131713,
			"0.009": 6.54308228272,
			"0.01": 7.61344247946,
			"0.011": 6.85629660821,
			"0.012": 3.61283815859,
			"0.013": 3.79541292828,
			"0.014": 0.879041651884,
			"0.015": 0.0,
			"0.016": 0.0,
			"0.017": 0.0,
			"0.018": 0.0,
			"0.019": 0.0,
			"0.02": 0.0,
			"0.021": 0.0,
			"0.022": 0.0,
			"0.023": 0.0,
			"0.024": 0.0,
			"0.025": 0.0
		}
	}
}
