{
	 "smiles": "OCCNC(=O)C1=CN=CC=C1", 
	 "Tm": 348.15, 
	 "num_atms": 22, 
	 "gaussian": { 
		 "optdone": 1, 
		 "sigma_profile": "yes", 
		 "theory": "DFT", 
		 "functional": "B3LYP", 
		 "basiset": "6-31G**", 
		 "properties": { 
			 "R2extent": 3276.3466, 
			 "electric_dipole_moment_norm": 5.80084622878, 
			 "electric_quadrupole_moment_norm": 11.4693514668, 
			 "total_energy": -570.828168436, 
			 "HOMO_LUMO_gap": 0.20108, 
			 "cosmo_polarized_energy": -16.99, 
			 "cosmo_cavitation_energy": 26.3, 
			 "cosmo_dispersion_energy": -19.32, 
			 "cosmo_repulsion_energy": 1.57, 
			 "cosmo_total_nonelectrostatic_energy": 8.55, 
			 "SMD_solvation_energy": 3.32 
		},
		"coords": [
			{
				"x": 2.2558300173,
				"y": -1.2521459035,
				"z": -0.1236190227,
				"element": "O" 
			},
			{
				"x": 2.3853639685,
				"y": -0.2421888308,
				"z": 0.8759944026,
				"element": "C" 
			},
			{
				"x": 1.092788071,
				"y": -0.2438067896,
				"z": 1.6764985026,
				"element": "C" 
			},
			{
				"x": -0.040817953,
				"y": -0.0085411803,
				"z": 0.799916088,
				"element": "N" 
			},
			{
				"x": -1.1253808995,
				"y": 0.7244649422,
				"z": 1.190155081,
				"element": "C" 
			},
			{
				"x": -1.2026353862,
				"y": 1.2592730194,
				"z": 2.2938357484,
				"element": "O" 
			},
			{
				"x": -2.2347493245,
				"y": 0.8484111992,
				"z": 0.1828459731,
				"element": "C" 
			},
			{
				"x": -3.5067208219,
				"y": 1.2070416067,
				"z": 0.6542465585,
				"element": "C" 
			},
			{
				"x": -4.5805169581,
				"y": 1.3536238857,
				"z": -0.1272847197,
				"element": "N" 
			},
			{
				"x": -4.4142256094,
				"y": 1.1554890755,
				"z": -1.4420247263,
				"element": "C" 
			},
			{
				"x": -3.1925835972,
				"y": 0.8130507335,
				"z": -2.0231679368,
				"element": "C" 
			},
			{
				"x": -2.0834624927,
				"y": 0.6568711731,
				"z": -1.1947321194,
				"element": "C" 
			},
			{
				"x": 3.0209205173,
				"y": -1.2054564564,
				"z": -0.7093355345,
				"element": "H" 
			},
			{
				"x": 3.2313980543,
				"y": -0.4471969783,
				"z": 1.5492312161,
				"element": "H" 
			},
			{
				"x": 2.5375337931,
				"y": 0.7486187334,
				"z": 0.4227458741,
				"element": "H" 
			},
			{
				"x": 0.9902080964,
				"y": -1.2075193346,
				"z": 2.1943925867,
				"element": "H" 
			},
			{
				"x": 1.0981938367,
				"y": 0.5433359961,
				"z": 2.4332252289,
				"element": "H" 
			},
			{
				"x": -0.0721164482,
				"y": -0.5674426323,
				"z": -0.0396006546,
				"element": "H" 
			},
			{
				"x": -3.6377541089,
				"y": 1.3793248877,
				"z": 1.7191872749,
				"element": "H" 
			},
			{
				"x": -5.3001251719,
				"y": 1.2834466678,
				"z": -2.0618332163,
				"element": "H" 
			},
			{
				"x": -3.1130361513,
				"y": 0.6808122627,
				"z": -3.0975737475,
				"element": "H" 
			},
			{
				"x": -1.1143114318,
				"y": 0.4190339226,
				"z": -1.6249028571,
				"element": "H" 
			}
		],
		 "valence_orbital": [ 
			{
				"type": "occ",
				"energy": -0.28818,
				"method": "rhf"
			},
			{
				"type": "occ",
				"energy": -0.26768,
				"method": "rhf"
			},
			{
				"type": "occ",
				"energy": -0.26011,
				"method": "rhf"
			},
			{
				"type": "occ",
				"energy": -0.25347,
				"method": "rhf"
			},
			{
				"type": "occ",
				"energy": -0.24454,
				"method": "rhf"
			},
			{
				"type": "unocc",
				"energy": -0.04346,
				"method": "rhf"
			},
			{
				"type": "unocc",
				"energy": -0.02362,
				"method": "rhf"
			},
			{
				"type": "unocc",
				"energy": 0.05487,
				"method": "rhf"
			},
			{
				"type": "unocc",
				"energy": 0.05756,
				"method": "rhf"
			},
			{
				"type": "unocc",
				"energy": 0.08736,
				"method": "rhf"
			}
		],
		"cosmo_sigma_profile": { 
			"-0.025": 0.0,
			"-0.024": 0.0,
			"-0.023": 0.0,
			"-0.022": 0.0,
			"-0.021": 0.0,
			"-0.02": 0.0,
			"-0.019": 0.0,
			"-0.018": 0.0,
			"-0.017": 0.0105115380289,
			"-0.016": 0.798183420717,
			"-0.015": 1.09007400679,
			"-0.014": 1.16647023527,
			"-0.013": 1.10419955372,
			"-0.012": 1.67479939178,
			"-0.011": 1.74584019223,
			"-0.01": 2.47129211401,
			"-0.009": 2.03639950157,
			"-0.008": 2.75206462164,
			"-0.007": 7.38242765112,
			"-0.006": 9.84116865041,
			"-0.005": 13.001394933,
			"-0.004": 19.8079644072,
			"-0.003": 15.8460233154,
			"-0.002": 13.5330126458,
			"-0.001": 14.1340285157,
			"0.0": 13.37275357,
			"0.001": 18.5679186219,
			"0.002": 13.7549207374,
			"0.003": 6.06343205734,
			"0.004": 5.63281577938,
			"0.005": 4.91899810798,
			"0.006": 3.9809931756,
			"0.007": 4.03435080343,
			"0.008": 4.46879101878,
			"0.009": 3.05529789156,
			"0.01": 3.13133660128,
			"0.011": 3.91110489554,
			"0.012": 3.3594101672,
			"0.013": 5.4093242215,
			"0.014": 4.99980293794,
			"0.015": 0.675175310845,
			"0.016": 0.86619774263,
			"0.017": 0.0644847132182,
			"0.018": 0.0,
			"0.019": 0.0,
			"0.02": 0.0,
			"0.021": 0.0,
			"0.022": 0.0,
			"0.023": 0.0,
			"0.024": 0.0,
			"0.025": 0.0
		}
	}
}
