{
	 "smiles": "COC1=C(OC)C=C(CCNC2=NN=C(S)S2)C=C1", 
	 "Tm": 463.15, 
	 "num_atms": 34, 
	 "gaussian": { 
		 "optdone": 1, 
		 "sigma_profile": "yes", 
		 "theory": "DFT", 
		 "functional": "B3LYP", 
		 "basiset": "6-31G**", 
		 "properties": { 
			 "R2extent": 10909.9705, 
			 "electric_dipole_moment_norm": 4.69537302991, 
			 "electric_quadrupole_moment_norm": 25.5779083005, 
			 "total_energy": -1577.32576215, 
			 "HOMO_LUMO_gap": 0.19068, 
			 "cosmo_polarized_energy": -17.72, 
			 "cosmo_cavitation_energy": 41.74, 
			 "cosmo_dispersion_energy": -29.71, 
			 "cosmo_repulsion_energy": 2.24, 
			 "cosmo_total_nonelectrostatic_energy": 14.28, 
			 "SMD_solvation_energy": 4.87 
		},
		"coords": [
			{
				"x": 0.0158050383,
				"y": 1.2930270319,
				"z": 3.770970162,
				"element": "C" 
			},
			{
				"x": 0.9946278075,
				"y": 0.5229995487,
				"z": 3.0631145487,
				"element": "O" 
			},
			{
				"x": 0.9773234674,
				"y": 0.680689867,
				"z": 1.6948983959,
				"element": "C" 
			},
			{
				"x": 1.3816480836,
				"y": 1.8842473345,
				"z": 1.0839456795,
				"element": "C" 
			},
			{
				"x": 1.7591708443,
				"y": 2.9791639994,
				"z": 1.8293510928,
				"element": "O" 
			},
			{
				"x": 3.0000679346,
				"y": 2.8306950052,
				"z": 2.5316393718,
				"element": "C" 
			},
			{
				"x": 1.3651025615,
				"y": 1.9923475036,
				"z": -0.3061511126,
				"element": "C" 
			},
			{
				"x": 0.9722950114,
				"y": 0.920009144,
				"z": -1.120205204,
				"element": "C" 
			},
			{
				"x": 0.9170572832,
				"y": 1.0746082574,
				"z": -2.6245729101,
				"element": "C" 
			},
			{
				"x": -0.3959959265,
				"y": 1.7224385932,
				"z": -3.117098444,
				"element": "C" 
			},
			{
				"x": -1.6000339414,
				"y": 0.9574874048,
				"z": -2.7887483667,
				"element": "N" 
			},
			{
				"x": -1.9436652386,
				"y": -0.1333510754,
				"z": -3.5301178294,
				"element": "C" 
			},
			{
				"x": -1.3554896463,
				"y": -0.4699215376,
				"z": -4.6553573125,
				"element": "N" 
			},
			{
				"x": -1.9518022917,
				"y": -1.5340511029,
				"z": -5.2703187289,
				"element": "N" 
			},
			{
				"x": -2.9599486423,
				"y": -2.0247500019,
				"z": -4.6212356947,
				"element": "C" 
			},
			{
				"x": -3.8030568237,
				"y": -3.4963836506,
				"z": -5.1265511751,
				"element": "S" 
			},
			{
				"x": -3.3038770891,
				"y": -1.175387329,
				"z": -3.0966666661,
				"element": "S" 
			},
			{
				"x": 0.6004084133,
				"y": -0.280027341,
				"z": -0.4994771734,
				"element": "C" 
			},
			{
				"x": 0.59846271,
				"y": -0.3948101924,
				"z": 0.8922656329,
				"element": "C" 
			},
			{
				"x": 0.1588166869,
				"y": 1.0698611377,
				"z": 4.8301839283,
				"element": "H" 
			},
			{
				"x": 0.1485429553,
				"y": 2.3653342667,
				"z": 3.5971144556,
				"element": "H" 
			},
			{
				"x": -0.9986036074,
				"y": 0.9978986113,
				"z": 3.4737882159,
				"element": "H" 
			},
			{
				"x": 3.8269530679,
				"y": 2.6771143188,
				"z": 1.8270746064,
				"element": "H" 
			},
			{
				"x": 2.9622555435,
				"y": 1.9946099416,
				"z": 3.2364650118,
				"element": "H" 
			},
			{
				"x": 3.1574977411,
				"y": 3.7653084401,
				"z": 3.073710156,
				"element": "H" 
			},
			{
				"x": 1.6798165173,
				"y": 2.9370028138,
				"z": -0.7419742582,
				"element": "H" 
			},
			{
				"x": 1.0252084804,
				"y": 0.1026351558,
				"z": -3.115693179,
				"element": "H" 
			},
			{
				"x": 1.7464351667,
				"y": 1.7033539484,
				"z": -2.9703331423,
				"element": "H" 
			},
			{
				"x": -0.5158754348,
				"y": 2.7158667029,
				"z": -2.6727444472,
				"element": "H" 
			},
			{
				"x": -0.3683183176,
				"y": 1.8338821143,
				"z": -4.20280141,
				"element": "H" 
			},
			{
				"x": -1.8462414553,
				"y": 0.9274001151,
				"z": -1.8092526794,
				"element": "H" 
			},
			{
				"x": -5.0487828254,
				"y": -2.9752216405,
				"z": -5.1285496261,
				"element": "H" 
			},
			{
				"x": 0.3150109972,
				"y": -1.1343193372,
				"z": -1.10750279,
				"element": "H" 
			},
			{
				"x": 0.3083849285,
				"y": -1.3205580479,
				"z": 1.3795308921,
				"element": "H" 
			}
		],
		 "valence_orbital": [ 
			{
				"type": "occ",
				"energy": -0.26871,
				"method": "rhf"
			},
			{
				"type": "occ",
				"energy": -0.25804,
				"method": "rhf"
			},
			{
				"type": "occ",
				"energy": -0.24874,
				"method": "rhf"
			},
			{
				"type": "occ",
				"energy": -0.23264,
				"method": "rhf"
			},
			{
				"type": "occ",
				"energy": -0.22303,
				"method": "rhf"
			},
			{
				"type": "unocc",
				"energy": -0.03235,
				"method": "rhf"
			},
			{
				"type": "unocc",
				"energy": -0.01196,
				"method": "rhf"
			},
			{
				"type": "unocc",
				"energy": -0.00864,
				"method": "rhf"
			},
			{
				"type": "unocc",
				"energy": -0.0043,
				"method": "rhf"
			},
			{
				"type": "unocc",
				"energy": 0.02197,
				"method": "rhf"
			}
		],
		"cosmo_sigma_profile": { 
			"-0.025": 0.0,
			"-0.024": 0.0,
			"-0.023": 0.0,
			"-0.022": 0.0,
			"-0.021": 0.0,
			"-0.02": 0.0,
			"-0.019": 0.0,
			"-0.018": 0.0,
			"-0.017": 0.0,
			"-0.016": 0.0,
			"-0.015": 0.101284624029,
			"-0.014": 1.00282106462,
			"-0.013": 1.17503336115,
			"-0.012": 1.51899290243,
			"-0.011": 4.12036001446,
			"-0.01": 3.22513692184,
			"-0.009": 2.80119138126,
			"-0.008": 2.93328139697,
			"-0.007": 3.30214238064,
			"-0.006": 7.70308739219,
			"-0.005": 21.013912926,
			"-0.004": 28.5376221266,
			"-0.003": 36.2307352268,
			"-0.002": 30.5185460997,
			"-0.001": 28.1667418468,
			"0.0": 28.4862754189,
			"0.001": 21.1959420841,
			"0.002": 20.7673104419,
			"0.003": 19.9580976089,
			"0.004": 16.0061351006,
			"0.005": 12.8792291286,
			"0.006": 7.7268354097,
			"0.007": 7.34123462639,
			"0.008": 6.05408422714,
			"0.009": 4.05833087491,
			"0.01": 4.69575607364,
			"0.011": 4.88174670825,
			"0.012": 4.68917118589,
			"0.013": 2.65604204951,
			"0.014": 1.88359861581,
			"0.015": 0.454930131286,
			"0.016": 0.0,
			"0.017": 0.0,
			"0.018": 0.0,
			"0.019": 0.0,
			"0.02": 0.0,
			"0.021": 0.0,
			"0.022": 0.0,
			"0.023": 0.0,
			"0.024": 0.0,
			"0.025": 0.0
		}
	}
}
