{
	 "smiles": "COC1=C(C=C[N+]([O-])=O)C=CC=C1", 
	 "Tm": 320.15, 
	 "num_atms": 22, 
	 "gaussian": { 
		 "optdone": 1, 
		 "sigma_profile": "yes", 
		 "theory": "DFT", 
		 "functional": "B3LYP", 
		 "basiset": "6-31G**", 
		 "properties": { 
			 "R2extent": 3438.8134, 
			 "electric_dipole_moment_norm": 3.91682531267, 
			 "electric_quadrupole_moment_norm": 16.6492503297, 
			 "total_energy": -628.664670615, 
			 "HOMO_LUMO_gap": 0.14397, 
			 "cosmo_polarized_energy": -11.89, 
			 "cosmo_cavitation_energy": 26.67, 
			 "cosmo_dispersion_energy": -18.86, 
			 "cosmo_repulsion_energy": 1.49, 
			 "cosmo_total_nonelectrostatic_energy": 9.29, 
			 "SMD_solvation_energy": 7.89 
		},
		"coords": [
			{
				"x": 1.3269073636,
				"y": 3.4229650664,
				"z": -0.6069707979,
				"element": "C" 
			},
			{
				"x": 1.2198934218,
				"y": 2.2059978148,
				"z": -1.3347260092,
				"element": "O" 
			},
			{
				"x": 1.0686904712,
				"y": 1.0434959794,
				"z": -0.6571252271,
				"element": "C" 
			},
			{
				"x": 0.7978935128,
				"y": -0.1104073314,
				"z": -1.4353198111,
				"element": "C" 
			},
			{
				"x": 0.6208477923,
				"y": -0.0897859289,
				"z": -2.8904911722,
				"element": "C" 
			},
			{
				"x": -0.0082362111,
				"y": 0.7544494932,
				"z": -3.723471197,
				"element": "C" 
			},
			{
				"x": -0.81497947,
				"y": 1.9003792749,
				"z": -3.3498825107,
				"element": "N" 
			},
			{
				"x": -1.3263463618,
				"y": 1.9460290955,
				"z": -2.2320336201,
				"element": "O" 
			},
			{
				"x": -0.9680156611,
				"y": 2.7521988533,
				"z": -4.2317301355,
				"element": "O" 
			},
			{
				"x": 0.7657538009,
				"y": -1.3572624395,
				"z": -0.7898648942,
				"element": "C" 
			},
			{
				"x": 0.9086690382,
				"y": -1.4724880777,
				"z": 0.5897468812,
				"element": "C" 
			},
			{
				"x": 1.1251923894,
				"y": -0.320728995,
				"z": 1.3460243032,
				"element": "C" 
			},
			{
				"x": 1.2157054798,
				"y": 0.928002645,
				"z": 0.7305395596,
				"element": "C" 
			},
			{
				"x": 0.4589483659,
				"y": 3.5723621343,
				"z": 0.044810756,
				"element": "H" 
			},
			{
				"x": 2.2468145289,
				"y": 3.4556370469,
				"z": -0.0100309543,
				"element": "H" 
			},
			{
				"x": 1.3558141641,
				"y": 4.2141548588,
				"z": -1.3566417859,
				"element": "H" 
			},
			{
				"x": 1.0812804798,
				"y": -0.9321492624,
				"z": -3.4068879962,
				"element": "H" 
			},
			{
				"x": 0.0284384552,
				"y": 0.6440511732,
				"z": -4.7988606286,
				"element": "H" 
			},
			{
				"x": 0.5945880877,
				"y": -2.2464548366,
				"z": -1.3911514249,
				"element": "H" 
			},
			{
				"x": 0.8543632438,
				"y": -2.445607218,
				"z": 1.0665387793,
				"element": "H" 
			},
			{
				"x": 1.2407327312,
				"y": -0.3889885201,
				"z": 2.4239144313,
				"element": "H" 
			},
			{
				"x": 1.4092443777,
				"y": 1.8069491743,
				"z": 1.3330134544,
				"element": "H" 
			}
		],
		 "valence_orbital": [ 
			{
				"type": "occ",
				"energy": -0.29243,
				"method": "rhf"
			},
			{
				"type": "occ",
				"energy": -0.29117,
				"method": "rhf"
			},
			{
				"type": "occ",
				"energy": -0.27374,
				"method": "rhf"
			},
			{
				"type": "occ",
				"energy": -0.25271,
				"method": "rhf"
			},
			{
				"type": "occ",
				"energy": -0.22674,
				"method": "rhf"
			},
			{
				"type": "unocc",
				"energy": -0.08277,
				"method": "rhf"
			},
			{
				"type": "unocc",
				"energy": -0.01859,
				"method": "rhf"
			},
			{
				"type": "unocc",
				"energy": 0.0011,
				"method": "rhf"
			},
			{
				"type": "unocc",
				"energy": 0.04177,
				"method": "rhf"
			},
			{
				"type": "unocc",
				"energy": 0.08235,
				"method": "rhf"
			}
		],
		"cosmo_sigma_profile": { 
			"-0.025": 0.0,
			"-0.024": 0.0,
			"-0.023": 0.0,
			"-0.022": 0.0,
			"-0.021": 0.0,
			"-0.02": 0.0,
			"-0.019": 0.0,
			"-0.018": 0.0,
			"-0.017": 0.0,
			"-0.016": 0.0,
			"-0.015": 0.0,
			"-0.014": 0.0,
			"-0.013": 0.0,
			"-0.012": 0.0,
			"-0.011": 0.0,
			"-0.01": 0.17015038892,
			"-0.009": 2.95439312667,
			"-0.008": 5.65166664835,
			"-0.007": 7.48220079078,
			"-0.006": 16.0331505409,
			"-0.005": 19.6946936922,
			"-0.004": 18.415335009,
			"-0.003": 14.7290063578,
			"-0.002": 11.8599724928,
			"-0.001": 8.78009199746,
			"0.0": 10.5657822107,
			"0.001": 13.1855673426,
			"0.002": 12.4216255219,
			"0.003": 11.4625424096,
			"0.004": 13.7967600214,
			"0.005": 10.8051320249,
			"0.006": 5.44908448371,
			"0.007": 4.24510133012,
			"0.008": 10.0797833343,
			"0.009": 8.59808173347,
			"0.01": 4.28462918416,
			"0.011": 2.23500122407,
			"0.012": 0.00197875131623,
			"0.013": 0.0,
			"0.014": 0.0,
			"0.015": 0.0,
			"0.016": 0.0,
			"0.017": 0.0,
			"0.018": 0.0,
			"0.019": 0.0,
			"0.02": 0.0,
			"0.021": 0.0,
			"0.022": 0.0,
			"0.023": 0.0,
			"0.024": 0.0,
			"0.025": 0.0
		}
	}
}
