{
	 "smiles": "COC(=O)C1=C(O)C2=C(C=CC=C2)C=C1", 
	 "Tm": 349.15, 
	 "num_atms": 25, 
	 "gaussian": { 
		 "optdone": 1, 
		 "sigma_profile": "yes", 
		 "theory": "DFT", 
		 "functional": "B3LYP", 
		 "basiset": "6-31G**", 
		 "properties": { 
			 "R2extent": 3811.4024, 
			 "electric_dipole_moment_norm": 1.56428306262, 
			 "electric_quadrupole_moment_norm": 17.5761021797, 
			 "total_energy": -689.00298454, 
			 "HOMO_LUMO_gap": 0.15669, 
			 "cosmo_polarized_energy": -9.1, 
			 "cosmo_cavitation_energy": 28.83, 
			 "cosmo_dispersion_energy": -21.66, 
			 "cosmo_repulsion_energy": 1.65, 
			 "cosmo_total_nonelectrostatic_energy": 8.82, 
			 "SMD_solvation_energy": 6.45 
		},
		"coords": [
			{
				"x": 0.5461114935,
				"y": 0.8106536613,
				"z": 5.086038629,
				"element": "C" 
			},
			{
				"x": 0.1750926924,
				"y": 0.7076132089,
				"z": 3.6986489827,
				"element": "O" 
			},
			{
				"x": 0.4318058214,
				"y": -0.5070432144,
				"z": 3.1021752493,
				"element": "C" 
			},
			{
				"x": 0.9389717614,
				"y": -1.4156615055,
				"z": 3.7271867549,
				"element": "O" 
			},
			{
				"x": 0.0317118399,
				"y": -0.5570683297,
				"z": 1.6822722825,
				"element": "C" 
			},
			{
				"x": -0.5525270933,
				"y": 0.5049969541,
				"z": 0.9806295186,
				"element": "C" 
			},
			{
				"x": -0.8232828416,
				"y": 1.7110822493,
				"z": 1.5175919252,
				"element": "O" 
			},
			{
				"x": -0.9032666044,
				"y": 0.347004984,
				"z": -0.401369258,
				"element": "C" 
			},
			{
				"x": -0.6500030354,
				"y": -0.9011387687,
				"z": -1.0484390464,
				"element": "C" 
			},
			{
				"x": -1.0039816885,
				"y": -1.0374624896,
				"z": -2.4149991613,
				"element": "C" 
			},
			{
				"x": -1.5792109909,
				"y": 0.0076960826,
				"z": -3.1062114227,
				"element": "C" 
			},
			{
				"x": -1.8276306148,
				"y": 1.24072174,
				"z": -2.460932486,
				"element": "C" 
			},
			{
				"x": -1.4958602127,
				"y": 1.4074441901,
				"z": -1.1331185871,
				"element": "C" 
			},
			{
				"x": -0.0541292716,
				"y": -1.9648730131,
				"z": -0.309463459,
				"element": "C" 
			},
			{
				"x": 0.2716494175,
				"y": -1.7914766408,
				"z": 1.006307916,
				"element": "C" 
			},
			{
				"x": 1.6189937742,
				"y": 0.6457820374,
				"z": 5.2047635432,
				"element": "H" 
			},
			{
				"x": 0.2753111216,
				"y": 1.8217965838,
				"z": 5.3888823717,
				"element": "H" 
			},
			{
				"x": 0.0041573021,
				"y": 0.0712002469,
				"z": 5.679212229,
				"element": "H" 
			},
			{
				"x": -0.5428035284,
				"y": 1.6961330373,
				"z": 2.4526674978,
				"element": "H" 
			},
			{
				"x": -0.8124760307,
				"y": -1.9859117368,
				"z": -2.9099242053,
				"element": "H" 
			},
			{
				"x": -1.8439559877,
				"y": -0.114492433,
				"z": -4.1527209181,
				"element": "H" 
			},
			{
				"x": -2.2811254838,
				"y": 2.057291773,
				"z": -3.014823738,
				"element": "H" 
			},
			{
				"x": -1.6815085948,
				"y": 2.34808707,
				"z": -0.6276095348,
				"element": "H" 
			},
			{
				"x": 0.1360563,
				"y": -2.9114471469,
				"z": -0.8067037909,
				"element": "H" 
			},
			{
				"x": 0.7254004546,
				"y": -2.5882285401,
				"z": 1.5852387078,
				"element": "H" 
			}
		],
		 "valence_orbital": [ 
			{
				"type": "occ",
				"energy": -0.31182,
				"method": "rhf"
			},
			{
				"type": "occ",
				"energy": -0.28311,
				"method": "rhf"
			},
			{
				"type": "occ",
				"energy": -0.26736,
				"method": "rhf"
			},
			{
				"type": "occ",
				"energy": -0.24874,
				"method": "rhf"
			},
			{
				"type": "occ",
				"energy": -0.20825,
				"method": "rhf"
			},
			{
				"type": "unocc",
				"energy": -0.05156,
				"method": "rhf"
			},
			{
				"type": "unocc",
				"energy": -0.02521,
				"method": "rhf"
			},
			{
				"type": "unocc",
				"energy": 0.02576,
				"method": "rhf"
			},
			{
				"type": "unocc",
				"energy": 0.04678,
				"method": "rhf"
			},
			{
				"type": "unocc",
				"energy": 0.09071,
				"method": "rhf"
			}
		],
		"cosmo_sigma_profile": { 
			"-0.025": 0.0,
			"-0.024": 0.0,
			"-0.023": 0.0,
			"-0.022": 0.0,
			"-0.021": 0.0,
			"-0.02": 0.0,
			"-0.019": 0.0,
			"-0.018": 0.0,
			"-0.017": 0.0,
			"-0.016": 0.0,
			"-0.015": 0.0,
			"-0.014": 0.0,
			"-0.013": 0.0,
			"-0.012": 0.0,
			"-0.011": 0.0380873121642,
			"-0.01": 0.461711427663,
			"-0.009": 0.692800265844,
			"-0.008": 0.663854180976,
			"-0.007": 3.59217395314,
			"-0.006": 16.4901326664,
			"-0.005": 18.4116667205,
			"-0.004": 24.0462068027,
			"-0.003": 19.6497414261,
			"-0.002": 15.4664328152,
			"-0.001": 12.4683047452,
			"0.0": 12.9120706337,
			"0.001": 15.0096267162,
			"0.002": 19.558634841,
			"0.003": 22.0086104024,
			"0.004": 19.7722201622,
			"0.005": 9.16320610298,
			"0.006": 3.07927356676,
			"0.007": 3.75198152822,
			"0.008": 2.88535276349,
			"0.009": 2.42257419828,
			"0.01": 2.17756459214,
			"0.011": 3.55668650083,
			"0.012": 2.968516069,
			"0.013": 0.0,
			"0.014": 0.0,
			"0.015": 0.0,
			"0.016": 0.0,
			"0.017": 0.0,
			"0.018": 0.0,
			"0.019": 0.0,
			"0.02": 0.0,
			"0.021": 0.0,
			"0.022": 0.0,
			"0.023": 0.0,
			"0.024": 0.0,
			"0.025": 0.0
		}
	}
}
