{
	 "smiles": "ClC(Cl)(Cl)C(=O)C1=CC=CN1", 
	 "Tm": 346.15, 
	 "num_atms": 15, 
	 "gaussian": { 
		 "optdone": 1, 
		 "sigma_profile": "yes", 
		 "theory": "DFT", 
		 "functional": "B3LYP", 
		 "basiset": "6-31G**", 
		 "properties": { 
			 "R2extent": 4274.0683, 
			 "electric_dipole_moment_norm": 4.05304861185, 
			 "electric_quadrupole_moment_norm": 6.2940210462, 
			 "total_energy": -1741.56624005, 
			 "HOMO_LUMO_gap": 0.167, 
			 "cosmo_polarized_energy": -9.57, 
			 "cosmo_cavitation_energy": 24.69, 
			 "cosmo_dispersion_energy": -18.27, 
			 "cosmo_repulsion_energy": 1.46, 
			 "cosmo_total_nonelectrostatic_energy": 7.88, 
			 "SMD_solvation_energy": 4.18 
		},
		"coords": [
			{
				"x": -2.4968752389,
				"y": 2.029958017,
				"z": -0.6876975344,
				"element": "Cl" 
			},
			{
				"x": -0.9821446588,
				"y": 2.9814544103,
				"z": -0.989665621,
				"element": "C" 
			},
			{
				"x": -0.45953676,
				"y": 3.7707851091,
				"z": 0.5578243553,
				"element": "Cl" 
			},
			{
				"x": -1.3113988053,
				"y": 4.2334108749,
				"z": -2.200883644,
				"element": "Cl" 
			},
			{
				"x": 0.1602749951,
				"y": 2.0041932075,
				"z": -1.4922589199,
				"element": "C" 
			},
			{
				"x": 0.6499326431,
				"y": 2.2119990378,
				"z": -2.5845275836,
				"element": "O" 
			},
			{
				"x": 0.5824958686,
				"y": 0.902925634,
				"z": -0.6435269656,
				"element": "C" 
			},
			{
				"x": 1.5736085656,
				"y": -0.0273104064,
				"z": -0.9651488966,
				"element": "C" 
			},
			{
				"x": 1.6862283336,
				"y": -0.9276224893,
				"z": 0.1090938227,
				"element": "C" 
			},
			{
				"x": 0.7630175667,
				"y": -0.5343642656,
				"z": 1.0703179311,
				"element": "C" 
			},
			{
				"x": 0.1051151147,
				"y": 0.5631815259,
				"z": 0.6126798727,
				"element": "N" 
			},
			{
				"x": 2.1328637091,
				"y": -0.0212269852,
				"z": -1.8889522501,
				"element": "H" 
			},
			{
				"x": 2.3582785786,
				"y": -1.7699038239,
				"z": 0.1866230648,
				"element": "H" 
			},
			{
				"x": 0.5330644663,
				"y": -0.9570970847,
				"z": 2.0376238991,
				"element": "H" 
			},
			{
				"x": -0.6196243783,
				"y": 1.0540172384,
				"z": 1.1124984696,
				"element": "H" 
			}
		],
		 "valence_orbital": [ 
			{
				"type": "occ",
				"energy": -0.32382,
				"method": "rhf"
			},
			{
				"type": "occ",
				"energy": -0.31597,
				"method": "rhf"
			},
			{
				"type": "occ",
				"energy": -0.27868,
				"method": "rhf"
			},
			{
				"type": "occ",
				"energy": -0.27043,
				"method": "rhf"
			},
			{
				"type": "occ",
				"energy": -0.24122,
				"method": "rhf"
			},
			{
				"type": "unocc",
				"energy": -0.07422,
				"method": "rhf"
			},
			{
				"type": "unocc",
				"energy": -0.05137,
				"method": "rhf"
			},
			{
				"type": "unocc",
				"energy": -0.00433,
				"method": "rhf"
			},
			{
				"type": "unocc",
				"energy": -0.00028,
				"method": "rhf"
			},
			{
				"type": "unocc",
				"energy": 0.04482,
				"method": "rhf"
			}
		],
		"cosmo_sigma_profile": { 
			"-0.025": 0.0,
			"-0.024": 0.0,
			"-0.023": 0.0,
			"-0.022": 0.0,
			"-0.021": 0.0,
			"-0.02": 0.0,
			"-0.019": 0.0,
			"-0.018": 0.0,
			"-0.017": 0.0185993792266,
			"-0.016": 0.446978431728,
			"-0.015": 0.587392973456,
			"-0.014": 0.751167338188,
			"-0.013": 0.954430504899,
			"-0.012": 0.81437876202,
			"-0.011": 0.95465692625,
			"-0.01": 1.78059030531,
			"-0.009": 3.38047358303,
			"-0.008": 3.0869364303,
			"-0.007": 4.65017969123,
			"-0.006": 5.38090507259,
			"-0.005": 6.15089370905,
			"-0.004": 10.7966240389,
			"-0.003": 14.222027335,
			"-0.002": 13.1236628883,
			"-0.001": 14.9045862337,
			"0.0": 17.7519171002,
			"0.001": 21.6969902803,
			"0.002": 31.7142133855,
			"0.003": 21.9771601145,
			"0.004": 8.25564259678,
			"0.005": 5.27766719889,
			"0.006": 1.99247533101,
			"0.007": 1.97661412484,
			"0.008": 2.46998625278,
			"0.009": 2.0399277085,
			"0.01": 4.58874804813,
			"0.011": 3.05853727166,
			"0.012": 0.134582391891,
			"0.013": 0.0,
			"0.014": 0.0,
			"0.015": 0.0,
			"0.016": 0.0,
			"0.017": 0.0,
			"0.018": 0.0,
			"0.019": 0.0,
			"0.02": 0.0,
			"0.021": 0.0,
			"0.022": 0.0,
			"0.023": 0.0,
			"0.024": 0.0,
			"0.025": 0.0
		}
	}
}
