{
	 "smiles": "CCN1C(=O)CNC1=O", 
	 "Tm": 374.15, 
	 "num_atms": 17, 
	 "gaussian": { 
		 "optdone": 1, 
		 "sigma_profile": "yes", 
		 "theory": "DFT", 
		 "functional": "B3LYP", 
		 "basiset": "6-31G**", 
		 "properties": { 
			 "R2extent": 1296.0834, 
			 "electric_dipole_moment_norm": 2.00994496193, 
			 "electric_quadrupole_moment_norm": 16.3447791808, 
			 "total_energy": -455.347859765, 
			 "HOMO_LUMO_gap": 0.25557, 
			 "cosmo_polarized_energy": -13.79, 
			 "cosmo_cavitation_energy": 20.86, 
			 "cosmo_dispersion_energy": -15.31, 
			 "cosmo_repulsion_energy": 1.29, 
			 "cosmo_total_nonelectrostatic_energy": 6.83, 
			 "SMD_solvation_energy": 4.44 
		},
		"coords": [
			{
				"x": -1.9005684369,
				"y": -1.2850756138,
				"z": 1.4288134995,
				"element": "C" 
			},
			{
				"x": -1.989950132,
				"y": -0.5603571553,
				"z": 0.084903502,
				"element": "C" 
			},
			{
				"x": -0.6969260062,
				"y": -0.4543174858,
				"z": -0.5841703714,
				"element": "N" 
			},
			{
				"x": -0.2224833934,
				"y": -1.3476329286,
				"z": -1.5222375558,
				"element": "C" 
			},
			{
				"x": -0.7947656311,
				"y": -2.330331391,
				"z": -1.9489911958,
				"element": "O" 
			},
			{
				"x": 1.1717084133,
				"y": -0.8451346874,
				"z": -1.9214870305,
				"element": "C" 
			},
			{
				"x": 1.3089181719,
				"y": 0.3517064301,
				"z": -1.1188505016,
				"element": "N" 
			},
			{
				"x": 0.22751337,
				"y": 0.5798018129,
				"z": -0.3065850901,
				"element": "C" 
			},
			{
				"x": 0.0603034618,
				"y": 1.479248556,
				"z": 0.4932299171,
				"element": "O" 
			},
			{
				"x": -1.2336569598,
				"y": -0.7496883468,
				"z": 2.1101473556,
				"element": "H" 
			},
			{
				"x": -1.5287357994,
				"y": -2.3053826982,
				"z": 1.2969661089,
				"element": "H" 
			},
			{
				"x": -2.8912328393,
				"y": -1.3393811703,
				"z": 1.8912452664,
				"element": "H" 
			},
			{
				"x": -2.3643517195,
				"y": 0.4574238245,
				"z": 0.2207385214,
				"element": "H" 
			},
			{
				"x": -2.6515955191,
				"y": -1.0925772159,
				"z": -0.6030925641,
				"element": "H" 
			},
			{
				"x": 1.9196752748,
				"y": -1.6135214891,
				"z": -1.6906822818,
				"element": "H" 
			},
			{
				"x": 1.1993453329,
				"y": -0.6506422584,
				"z": -3.0001457984,
				"element": "H" 
			},
			{
				"x": 2.131402412,
				"y": 0.9284618169,
				"z": -1.0534017816,
				"element": "H" 
			}
		],
		 "valence_orbital": [ 
			{
				"type": "occ",
				"energy": -0.35701,
				"method": "rhf"
			},
			{
				"type": "occ",
				"energy": -0.28934,
				"method": "rhf"
			},
			{
				"type": "occ",
				"energy": -0.27643,
				"method": "rhf"
			},
			{
				"type": "occ",
				"energy": -0.26454,
				"method": "rhf"
			},
			{
				"type": "occ",
				"energy": -0.26345,
				"method": "rhf"
			},
			{
				"type": "unocc",
				"energy": -0.00788,
				"method": "rhf"
			},
			{
				"type": "unocc",
				"energy": 0.06158,
				"method": "rhf"
			},
			{
				"type": "unocc",
				"energy": 0.07801,
				"method": "rhf"
			},
			{
				"type": "unocc",
				"energy": 0.10663,
				"method": "rhf"
			},
			{
				"type": "unocc",
				"energy": 0.11285,
				"method": "rhf"
			}
		],
		"cosmo_sigma_profile": { 
			"-0.025": 0.0,
			"-0.024": 0.0,
			"-0.023": 0.0,
			"-0.022": 0.0,
			"-0.021": 0.0,
			"-0.02": 0.0,
			"-0.019": 0.0,
			"-0.018": 0.0,
			"-0.017": 0.0,
			"-0.016": 0.297872836688,
			"-0.015": 1.30325962294,
			"-0.014": 1.61759851603,
			"-0.013": 0.606804509579,
			"-0.012": 1.05224338148,
			"-0.011": 1.03547005308,
			"-0.01": 0.796946675331,
			"-0.009": 1.1902798594,
			"-0.008": 4.08249646334,
			"-0.007": 7.28428636648,
			"-0.006": 8.04481422526,
			"-0.005": 10.3935542323,
			"-0.004": 12.6765019257,
			"-0.003": 16.9210896205,
			"-0.002": 16.1646533092,
			"-0.001": 12.7768700916,
			"0.0": 12.9536499572,
			"0.001": 6.62488065441,
			"0.002": 4.02801418748,
			"0.003": 3.62471741382,
			"0.004": 2.48151990092,
			"0.005": 3.36553461614,
			"0.006": 2.91290859937,
			"0.007": 1.56409545755,
			"0.008": 3.0213547749,
			"0.009": 2.70833100873,
			"0.01": 3.33390709597,
			"0.011": 3.65630681014,
			"0.012": 8.81388861967,
			"0.013": 8.06039280189,
			"0.014": 0.98960571894,
			"0.015": 0.0,
			"0.016": 0.0,
			"0.017": 0.0,
			"0.018": 0.0,
			"0.019": 0.0,
			"0.02": 0.0,
			"0.021": 0.0,
			"0.022": 0.0,
			"0.023": 0.0,
			"0.024": 0.0,
			"0.025": 0.0
		}
	}
}
