{
	 "smiles": "NS(=O)(=O)C1=CC=C(C(F)=C1)S(=O)(=O)CCO", 
	 "Tm": 438.15, 
	 "num_atms": 27, 
	 "gaussian": { 
		 "optdone": 1, 
		 "sigma_profile": "yes", 
		 "theory": "DFT", 
		 "functional": "B3LYP", 
		 "basiset": "6-31G**", 
		 "properties": { 
			 "R2extent": 7319.7884, 
			 "electric_dipole_moment_norm": 6.36837100521, 
			 "electric_quadrupole_moment_norm": 19.40907811, 
			 "total_energy": -1637.79957676, 
			 "HOMO_LUMO_gap": 0.20933, 
			 "cosmo_polarized_energy": -30.16, 
			 "cosmo_cavitation_energy": 34.9, 
			 "cosmo_dispersion_energy": -25.92, 
			 "cosmo_repulsion_energy": 1.93, 
			 "cosmo_total_nonelectrostatic_energy": 10.91, 
			 "SMD_solvation_energy": 5.4 
		},
		"coords": [
			{
				"x": 1.8494529012,
				"y": -2.0763941903,
				"z": 4.5430119985,
				"element": "N" 
			},
			{
				"x": 0.8620637623,
				"y": -0.7385734046,
				"z": 4.7286548164,
				"element": "S" 
			},
			{
				"x": -0.3089603874,
				"y": -1.2050643065,
				"z": 5.4652845388,
				"element": "O" 
			},
			{
				"x": 1.7313238298,
				"y": 0.3397124219,
				"z": 5.1892507282,
				"element": "O" 
			},
			{
				"x": 0.2949597361,
				"y": -0.2842134703,
				"z": 3.0729106812,
				"element": "C" 
			},
			{
				"x": 1.0632659752,
				"y": 0.5874383082,
				"z": 2.2981489661,
				"element": "C" 
			},
			{
				"x": 0.6321350996,
				"y": 0.9078867822,
				"z": 1.0113762589,
				"element": "C" 
			},
			{
				"x": -0.5558112965,
				"y": 0.3675437235,
				"z": 0.5148491505,
				"element": "C" 
			},
			{
				"x": -1.312350432,
				"y": -0.4855734837,
				"z": 1.3209919622,
				"element": "C" 
			},
			{
				"x": -2.4570683442,
				"y": -1.0080928388,
				"z": 0.8489983867,
				"element": "F" 
			},
			{
				"x": -0.9011673561,
				"y": -0.8275813049,
				"z": 2.602215315,
				"element": "C" 
			},
			{
				"x": -1.1184359387,
				"y": 0.8858722829,
				"z": -1.1264383979,
				"element": "S" 
			},
			{
				"x": -0.0304073787,
				"y": 1.6990737403,
				"z": -1.6941614964,
				"element": "O" 
			},
			{
				"x": -2.4746879256,
				"y": 1.4360409455,
				"z": -1.0037578927,
				"element": "O" 
			},
			{
				"x": -1.2086401783,
				"y": -0.6701727649,
				"z": -2.0515013169,
				"element": "C" 
			},
			{
				"x": -1.7177721977,
				"y": -0.4256828636,
				"z": -3.4715308102,
				"element": "C" 
			},
			{
				"x": -1.7310871704,
				"y": -1.7013171883,
				"z": -4.094946808,
				"element": "O" 
			},
			{
				"x": 1.3632184869,
				"y": -2.911489159,
				"z": 4.2352843071,
				"element": "H" 
			},
			{
				"x": 2.7148420782,
				"y": -1.888275108,
				"z": 4.0488319757,
				"element": "H" 
			},
			{
				"x": 1.9672600176,
				"y": 1.0235928161,
				"z": 2.7080651654,
				"element": "H" 
			},
			{
				"x": 1.1967742931,
				"y": 1.5832105655,
				"z": 0.3772626924,
				"element": "H" 
			},
			{
				"x": -1.5134999087,
				"y": -1.4733440653,
				"z": 3.2212469769,
				"element": "H" 
			},
			{
				"x": -1.8835794702,
				"y": -1.3325174675,
				"z": -1.5055691416,
				"element": "H" 
			},
			{
				"x": -0.2015770779,
				"y": -1.0948174465,
				"z": -2.0696840466,
				"element": "H" 
			},
			{
				"x": -2.7184600803,
				"y": 0.0249444339,
				"z": -3.4270721779,
				"element": "H" 
			},
			{
				"x": -1.0472681727,
				"y": 0.277423885,
				"z": -3.9851809351,
				"element": "H" 
			},
			{
				"x": -2.0747228645,
				"y": -1.5916308428,
				"z": -4.9904408966,
				"element": "H" 
			}
		],
		 "valence_orbital": [ 
			{
				"type": "occ",
				"energy": -0.31088,
				"method": "rhf"
			},
			{
				"type": "occ",
				"energy": -0.30512,
				"method": "rhf"
			},
			{
				"type": "occ",
				"energy": -0.2962,
				"method": "rhf"
			},
			{
				"type": "occ",
				"energy": -0.28868,
				"method": "rhf"
			},
			{
				"type": "occ",
				"energy": -0.28746,
				"method": "rhf"
			},
			{
				"type": "unocc",
				"energy": -0.07813,
				"method": "rhf"
			},
			{
				"type": "unocc",
				"energy": -0.04567,
				"method": "rhf"
			},
			{
				"type": "unocc",
				"energy": 0.02189,
				"method": "rhf"
			},
			{
				"type": "unocc",
				"energy": 0.03791,
				"method": "rhf"
			},
			{
				"type": "unocc",
				"energy": 0.04684,
				"method": "rhf"
			}
		],
		"cosmo_sigma_profile": { 
			"-0.025": 0.0,
			"-0.024": 0.0,
			"-0.023": 0.0,
			"-0.022": 0.0,
			"-0.021": 0.0,
			"-0.02": 0.0,
			"-0.019": 0.0,
			"-0.018": 0.0,
			"-0.017": 0.379179876518,
			"-0.016": 2.40505119137,
			"-0.015": 3.9027087279,
			"-0.014": 3.90943652162,
			"-0.013": 3.93978719787,
			"-0.012": 3.59597388464,
			"-0.011": 2.86207783343,
			"-0.01": 3.08424463019,
			"-0.009": 6.91623866898,
			"-0.008": 9.79834133799,
			"-0.007": 11.5625617523,
			"-0.006": 10.5690266434,
			"-0.005": 14.3344772133,
			"-0.004": 16.8656536573,
			"-0.003": 16.529777949,
			"-0.002": 18.0041619324,
			"-0.001": 17.4396315481,
			"0.0": 12.541470531,
			"0.001": 8.00974993559,
			"0.002": 10.8192455002,
			"0.003": 8.33635805064,
			"0.004": 7.52571334577,
			"0.005": 6.66915368929,
			"0.006": 8.20353974116,
			"0.007": 7.8507395346,
			"0.008": 8.71224430939,
			"0.009": 10.0713626671,
			"0.01": 19.5226729704,
			"0.011": 17.7988006999,
			"0.012": 3.80393403289,
			"0.013": 1.60311177576,
			"0.014": 0.0,
			"0.015": 0.0,
			"0.016": 0.0,
			"0.017": 0.0,
			"0.018": 0.0,
			"0.019": 0.0,
			"0.02": 0.0,
			"0.021": 0.0,
			"0.022": 0.0,
			"0.023": 0.0,
			"0.024": 0.0,
			"0.025": 0.0
		}
	}
}
