{
	 "smiles": "CNC(=O)C1=CC=CC=C1N", 
	 "Tm": 348.65, 
	 "num_atms": 21, 
	 "gaussian": { 
		 "optdone": 1, 
		 "sigma_profile": "yes", 
		 "theory": "DFT", 
		 "functional": "B3LYP", 
		 "basiset": "6-31G**", 
		 "properties": { 
			 "R2extent": 1949.4138, 
			 "electric_dipole_moment_norm": 4.47814903839, 
			 "electric_quadrupole_moment_norm": 14.9214858037, 
			 "total_energy": -495.617784342, 
			 "HOMO_LUMO_gap": 0.17863, 
			 "cosmo_polarized_energy": -14.06, 
			 "cosmo_cavitation_energy": 24.14, 
			 "cosmo_dispersion_energy": -17.76, 
			 "cosmo_repulsion_energy": 1.45, 
			 "cosmo_total_nonelectrostatic_energy": 7.82, 
			 "SMD_solvation_energy": 4.74 
		},
		"coords": [
			{
				"x": -0.3614026268,
				"y": -0.3983239105,
				"z": 2.3582082999,
				"element": "C" 
			},
			{
				"x": 0.2687035384,
				"y": 0.9252841544,
				"z": 2.325801821,
				"element": "N" 
			},
			{
				"x": 1.2424475405,
				"y": 1.2730713158,
				"z": 1.3837076709,
				"element": "C" 
			},
			{
				"x": 2.2184691257,
				"y": 1.9293287537,
				"z": 1.7237145291,
				"element": "O" 
			},
			{
				"x": 1.0213678229,
				"y": 0.8482526171,
				"z": -0.0348098173,
				"element": "C" 
			},
			{
				"x": 2.1442610682,
				"y": 0.3966151988,
				"z": -0.7438120418,
				"element": "C" 
			},
			{
				"x": 2.0552906392,
				"y": -0.0094876682,
				"z": -2.0698744461,
				"element": "C" 
			},
			{
				"x": 0.8164042831,
				"y": 0.069434711,
				"z": -2.7158032286,
				"element": "C" 
			},
			{
				"x": -0.3009108327,
				"y": 0.5567649533,
				"z": -2.050183115,
				"element": "C" 
			},
			{
				"x": -0.2248501862,
				"y": 0.96628642,
				"z": -0.7032579986,
				"element": "C" 
			},
			{
				"x": -1.330957244,
				"y": 1.5314448516,
				"z": -0.095669149,
				"element": "N" 
			},
			{
				"x": -0.7437729717,
				"y": -0.6573694614,
				"z": 1.3709113238,
				"element": "H" 
			},
			{
				"x": -1.2034898179,
				"y": -0.3764863556,
				"z": 3.05549447,
				"element": "H" 
			},
			{
				"x": 0.3327658442,
				"y": -1.1870012319,
				"z": 2.6773627174,
				"element": "H" 
			},
			{
				"x": 0.5659640611,
				"y": 1.2589481062,
				"z": 3.2375969367,
				"element": "H" 
			},
			{
				"x": 3.0927524683,
				"y": 0.3649853158,
				"z": -0.2167511892,
				"element": "H" 
			},
			{
				"x": 2.931852015,
				"y": -0.3745108863,
				"z": -2.5949169283,
				"element": "H" 
			},
			{
				"x": 0.7216751941,
				"y": -0.2412041529,
				"z": -3.7528431519,
				"element": "H" 
			},
			{
				"x": -1.2505691942,
				"y": 0.6461801942,
				"z": -2.5723550847,
				"element": "H" 
			},
			{
				"x": -2.2347844351,
				"y": 1.358377468,
				"z": -0.5051435272,
				"element": "H" 
			},
			{
				"x": -1.3055162921,
				"y": 1.6630096068,
				"z": 0.9049219089,
				"element": "H" 
			}
		],
		 "valence_orbital": [ 
			{
				"type": "occ",
				"energy": -0.30885,
				"method": "rhf"
			},
			{
				"type": "occ",
				"energy": -0.26817,
				"method": "rhf"
			},
			{
				"type": "occ",
				"energy": -0.25294,
				"method": "rhf"
			},
			{
				"type": "occ",
				"energy": -0.23721,
				"method": "rhf"
			},
			{
				"type": "occ",
				"energy": -0.20214,
				"method": "rhf"
			},
			{
				"type": "unocc",
				"energy": -0.02351,
				"method": "rhf"
			},
			{
				"type": "unocc",
				"energy": 0.0132,
				"method": "rhf"
			},
			{
				"type": "unocc",
				"energy": 0.04726,
				"method": "rhf"
			},
			{
				"type": "unocc",
				"energy": 0.08002,
				"method": "rhf"
			},
			{
				"type": "unocc",
				"energy": 0.09901,
				"method": "rhf"
			}
		],
		"cosmo_sigma_profile": { 
			"-0.025": 0.0,
			"-0.024": 0.0,
			"-0.023": 0.0,
			"-0.022": 0.0,
			"-0.021": 0.0,
			"-0.02": 0.0,
			"-0.019": 0.0,
			"-0.018": 0.0,
			"-0.017": 0.0,
			"-0.016": 0.0,
			"-0.015": 0.0,
			"-0.014": 0.0,
			"-0.013": 1.23849861847,
			"-0.012": 2.54466969196,
			"-0.011": 2.32961637833,
			"-0.01": 1.82713652507,
			"-0.009": 4.11337090343,
			"-0.008": 3.56013722087,
			"-0.007": 3.14543408969,
			"-0.006": 5.42940988431,
			"-0.005": 14.4413563657,
			"-0.004": 17.2220271331,
			"-0.003": 17.8065962047,
			"-0.002": 18.8914135672,
			"-0.001": 13.1727376529,
			"0.0": 8.32941954832,
			"0.001": 7.84614296694,
			"0.002": 8.19492576917,
			"0.003": 7.88807358901,
			"0.004": 8.29610984732,
			"0.005": 10.3764069355,
			"0.006": 10.6561420983,
			"0.007": 4.08287416467,
			"0.008": 2.03989326179,
			"0.009": 1.72690010823,
			"0.01": 2.12517000008,
			"0.011": 2.83751099238,
			"0.012": 2.40953004355,
			"0.013": 5.36932465912,
			"0.014": 3.04711991194,
			"0.015": 0.229268012088,
			"0.016": 0.0,
			"0.017": 0.0,
			"0.018": 0.0,
			"0.019": 0.0,
			"0.02": 0.0,
			"0.021": 0.0,
			"0.022": 0.0,
			"0.023": 0.0,
			"0.024": 0.0,
			"0.025": 0.0
		}
	}
}
