{
	 "smiles": "OCC(=O)NCC1=CC=CC=C1", 
	 "Tm": 375.15, 
	 "num_atms": 23, 
	 "gaussian": { 
		 "optdone": 1, 
		 "sigma_profile": "yes", 
		 "theory": "DFT", 
		 "functional": "B3LYP", 
		 "basiset": "6-31G**", 
		 "properties": { 
			 "R2extent": 2522.2606, 
			 "electric_dipole_moment_norm": 4.93387031244, 
			 "electric_quadrupole_moment_norm": 15.2041259519, 
			 "total_energy": -554.779524284, 
			 "HOMO_LUMO_gap": 0.21641, 
			 "cosmo_polarized_energy": -15.88, 
			 "cosmo_cavitation_energy": 26.24, 
			 "cosmo_dispersion_energy": -18.91, 
			 "cosmo_repulsion_energy": 1.52, 
			 "cosmo_total_nonelectrostatic_energy": 8.86, 
			 "SMD_solvation_energy": 4.9 
		},
		"coords": [
			{
				"x": 0.3787579625,
				"y": 0.51607036,
				"z": 2.9358358362,
				"element": "O" 
			},
			{
				"x": 0.0882125977,
				"y": -0.8150468043,
				"z": 3.3286756975,
				"element": "C" 
			},
			{
				"x": 0.8537693946,
				"y": -1.872810447,
				"z": 2.5197350743,
				"element": "C" 
			},
			{
				"x": 1.7677285482,
				"y": -2.5222521974,
				"z": 3.0074436691,
				"element": "O" 
			},
			{
				"x": 0.4842571839,
				"y": -2.0567215419,
				"z": 1.2049409636,
				"element": "N" 
			},
			{
				"x": -0.6312664364,
				"y": -1.4699229226,
				"z": 0.4841286718,
				"element": "C" 
			},
			{
				"x": -0.3566123861,
				"y": -0.1439840946,
				"z": -0.223890752,
				"element": "C" 
			},
			{
				"x": 0.9365075281,
				"y": 0.371593311,
				"z": -0.3642737416,
				"element": "C" 
			},
			{
				"x": 1.1490623179,
				"y": 1.5739712495,
				"z": -1.0457651299,
				"element": "C" 
			},
			{
				"x": 0.0737908191,
				"y": 2.2708156598,
				"z": -1.5948462948,
				"element": "C" 
			},
			{
				"x": -1.2215262873,
				"y": 1.763476298,
				"z": -1.4564378866,
				"element": "C" 
			},
			{
				"x": -1.4337133193,
				"y": 0.5671506207,
				"z": -0.7743031007,
				"element": "C" 
			},
			{
				"x": 0.0705673642,
				"y": 0.6613341527,
				"z": 2.0307932885,
				"element": "H" 
			},
			{
				"x": 0.4341074181,
				"y": -0.9221934001,
				"z": 4.3573251502,
				"element": "H" 
			},
			{
				"x": -0.9942103057,
				"y": -1.0263192287,
				"z": 3.3110058495,
				"element": "H" 
			},
			{
				"x": 1.0586024143,
				"y": -2.7380657624,
				"z": 0.7261616303,
				"element": "H" 
			},
			{
				"x": -1.4810208757,
				"y": -1.3454292302,
				"z": 1.1651998594,
				"element": "H" 
			},
			{
				"x": -0.9622082567,
				"y": -2.2049995035,
				"z": -0.2593892445,
				"element": "H" 
			},
			{
				"x": 1.7750179045,
				"y": -0.1659434678,
				"z": 0.0667521738,
				"element": "H" 
			},
			{
				"x": 2.1582525365,
				"y": 1.9634028255,
				"z": -1.1430753445,
				"element": "H" 
			},
			{
				"x": 0.239914172,
				"y": 3.2052874159,
				"z": -2.1225397644,
				"element": "H" 
			},
			{
				"x": -2.0659040066,
				"y": 2.3030961236,
				"z": -1.8756282819,
				"element": "H" 
			},
			{
				"x": -2.4447862875,
				"y": 0.1791905839,
				"z": -0.6680483232,
				"element": "H" 
			}
		],
		 "valence_orbital": [ 
			{
				"type": "occ",
				"energy": -0.29411,
				"method": "rhf"
			},
			{
				"type": "occ",
				"energy": -0.26425,
				"method": "rhf"
			},
			{
				"type": "occ",
				"energy": -0.25894,
				"method": "rhf"
			},
			{
				"type": "occ",
				"energy": -0.25727,
				"method": "rhf"
			},
			{
				"type": "occ",
				"energy": -0.23676,
				"method": "rhf"
			},
			{
				"type": "unocc",
				"energy": -0.02035,
				"method": "rhf"
			},
			{
				"type": "unocc",
				"energy": -0.01407,
				"method": "rhf"
			},
			{
				"type": "unocc",
				"energy": 0.01627,
				"method": "rhf"
			},
			{
				"type": "unocc",
				"energy": 0.06802,
				"method": "rhf"
			},
			{
				"type": "unocc",
				"energy": 0.08673,
				"method": "rhf"
			}
		],
		"cosmo_sigma_profile": { 
			"-0.025": 0.0,
			"-0.024": 0.0,
			"-0.023": 0.0,
			"-0.022": 0.0,
			"-0.021": 0.0,
			"-0.02": 0.0,
			"-0.019": 0.0,
			"-0.018": 0.0,
			"-0.017": 0.0,
			"-0.016": 0.0,
			"-0.015": 0.0,
			"-0.014": 0.452412040594,
			"-0.013": 1.33354019493,
			"-0.012": 1.319117401,
			"-0.011": 1.03875767435,
			"-0.01": 1.44613051558,
			"-0.009": 2.13447834439,
			"-0.008": 4.13153373841,
			"-0.007": 6.72130521179,
			"-0.006": 14.9784285819,
			"-0.005": 20.2646752324,
			"-0.004": 19.6143080789,
			"-0.003": 16.4593037181,
			"-0.002": 12.2905583618,
			"-0.001": 11.3508572412,
			"0.0": 9.30013893505,
			"0.001": 10.0873926796,
			"0.002": 10.9769682816,
			"0.003": 9.15077547926,
			"0.004": 10.5628858329,
			"0.005": 9.66240092225,
			"0.006": 4.83843826455,
			"0.007": 2.75925383776,
			"0.008": 2.44372303275,
			"0.009": 2.13080240535,
			"0.01": 2.79030266472,
			"0.011": 2.63790622023,
			"0.012": 3.61936321079,
			"0.013": 6.56320119375,
			"0.014": 5.97952426673,
			"0.015": 0.620035352351,
			"0.016": 0.0,
			"0.017": 0.0,
			"0.018": 0.0,
			"0.019": 0.0,
			"0.02": 0.0,
			"0.021": 0.0,
			"0.022": 0.0,
			"0.023": 0.0,
			"0.024": 0.0,
			"0.025": 0.0
		}
	}
}
