{
	 "smiles": "BrC1=CC(=CC=C1)N=C1NNC(=S)S1", 
	 "Tm": 499.15, 
	 "num_atms": 20, 
	 "gaussian": { 
		 "optdone": 1, 
		 "sigma_profile": "yes", 
		 "theory": "DFT", 
		 "functional": "B3LYP", 
		 "basiset": "6-31G**", 
		 "properties": { 
			 "R2extent": 6828.7706, 
			 "electric_dipole_moment_norm": 3.50667734045, 
			 "electric_quadrupole_moment_norm": 15.090710425, 
			 "total_energy": -3840.45482802, 
			 "HOMO_LUMO_gap": 0.17294, 
			 "cosmo_polarized_energy": -16.79, 
			 "cosmo_cavitation_energy": 31.02, 
			 "cosmo_dispersion_energy": -24.18, 
			 "cosmo_repulsion_energy": 1.83, 
			 "cosmo_total_nonelectrostatic_energy": 8.67, 
			 "SMD_solvation_energy": 1.44 
		},
		"coords": [
			{
				"x": -2.5530161471,
				"y": -3.6181955556,
				"z": -0.1718723952,
				"element": "Br" 
			},
			{
				"x": -2.4756345101,
				"y": -1.855358128,
				"z": -0.91520756,
				"element": "C" 
			},
			{
				"x": -1.2703225274,
				"y": -1.1589562908,
				"z": -0.8657768986,
				"element": "C" 
			},
			{
				"x": -1.1987668611,
				"y": 0.1366674881,
				"z": -1.414099142,
				"element": "C" 
			},
			{
				"x": -2.3443029114,
				"y": 0.687420704,
				"z": -2.0151273652,
				"element": "C" 
			},
			{
				"x": -3.539432553,
				"y": -0.0239377024,
				"z": -2.0354480142,
				"element": "C" 
			},
			{
				"x": -3.6215457637,
				"y": -1.3060832521,
				"z": -1.4846473497,
				"element": "C" 
			},
			{
				"x": -0.0234889555,
				"y": 0.9049698313,
				"z": -1.4583660692,
				"element": "N" 
			},
			{
				"x": 0.8552506416,
				"y": 0.926885169,
				"z": -0.5423102772,
				"element": "C" 
			},
			{
				"x": 0.8655754523,
				"y": 0.2662548313,
				"z": 0.7003813065,
				"element": "N" 
			},
			{
				"x": 1.8345345313,
				"y": 0.8145920334,
				"z": 1.5720603177,
				"element": "N" 
			},
			{
				"x": 2.8142599791,
				"y": 1.5685089996,
				"z": 0.989915866,
				"element": "C" 
			},
			{
				"x": 4.206854674,
				"y": 2.0527341919,
				"z": 1.7229281453,
				"element": "S" 
			},
			{
				"x": 2.3336293253,
				"y": 1.9199625778,
				"z": -0.6843449654,
				"element": "S" 
			},
			{
				"x": -0.3918847339,
				"y": -1.6277247064,
				"z": -0.4390460213,
				"element": "H" 
			},
			{
				"x": -2.269705327,
				"y": 1.6751291145,
				"z": -2.456866596,
				"element": "H" 
			},
			{
				"x": -4.4205362928,
				"y": 0.4159604128,
				"z": -2.4931099136,
				"element": "H" 
			},
			{
				"x": -4.5484871996,
				"y": -1.8666781142,
				"z": -1.5051116077,
				"element": "H" 
			},
			{
				"x": -0.0554453054,
				"y": 0.2253045574,
				"z": 1.1361835333,
				"element": "H" 
			},
			{
				"x": 2.1233644844,
				"y": 0.1993438384,
				"z": 2.3252650064,
				"element": "H" 
			}
		],
		 "valence_orbital": [ 
			{
				"type": "occ",
				"energy": -0.27847,
				"method": "rhf"
			},
			{
				"type": "occ",
				"energy": -0.25712,
				"method": "rhf"
			},
			{
				"type": "occ",
				"energy": -0.24504,
				"method": "rhf"
			},
			{
				"type": "occ",
				"energy": -0.23821,
				"method": "rhf"
			},
			{
				"type": "occ",
				"energy": -0.23216,
				"method": "rhf"
			},
			{
				"type": "unocc",
				"energy": -0.05922,
				"method": "rhf"
			},
			{
				"type": "unocc",
				"energy": -0.04789,
				"method": "rhf"
			},
			{
				"type": "unocc",
				"energy": -0.0254,
				"method": "rhf"
			},
			{
				"type": "unocc",
				"energy": -0.01707,
				"method": "rhf"
			},
			{
				"type": "unocc",
				"energy": -0.00197,
				"method": "rhf"
			}
		],
		"cosmo_sigma_profile": { 
			"-0.025": 0.0,
			"-0.024": 0.0,
			"-0.023": 0.0,
			"-0.022": 0.0,
			"-0.021": 0.0,
			"-0.02": 0.0,
			"-0.019": 0.0,
			"-0.018": 0.926086577465,
			"-0.017": 2.32089150833,
			"-0.016": 3.09154433938,
			"-0.015": 2.55950464417,
			"-0.014": 1.56192073694,
			"-0.013": 2.0259677065,
			"-0.012": 1.64655266232,
			"-0.011": 1.67078707726,
			"-0.01": 2.4005098796,
			"-0.009": 1.13694152105,
			"-0.008": 2.12395914603,
			"-0.007": 4.99286312828,
			"-0.006": 8.74052186906,
			"-0.005": 11.6557095454,
			"-0.004": 10.6815404736,
			"-0.003": 11.2420260357,
			"-0.002": 14.8848191236,
			"-0.001": 16.9746109167,
			"0.0": 18.4620518375,
			"0.001": 21.381750298,
			"0.002": 25.5173119789,
			"0.003": 26.9121340568,
			"0.004": 21.3232751924,
			"0.005": 13.6016575832,
			"0.006": 6.10318604377,
			"0.007": 8.12379469072,
			"0.008": 7.13943568833,
			"0.009": 5.35294367226,
			"0.01": 2.32925181918,
			"0.011": 0.709978012041,
			"0.012": 0.56682713442,
			"0.013": 0.0925952591798,
			"0.014": 0.0,
			"0.015": 0.0,
			"0.016": 0.0,
			"0.017": 0.0,
			"0.018": 0.0,
			"0.019": 0.0,
			"0.02": 0.0,
			"0.021": 0.0,
			"0.022": 0.0,
			"0.023": 0.0,
			"0.024": 0.0,
			"0.025": 0.0
		}
	}
}
