{
	 "smiles": "CCOC=C(C#N)C(=O)OCC", 
	 "Tm": 322.65, 
	 "num_atms": 23, 
	 "gaussian": { 
		 "optdone": 1, 
		 "sigma_profile": "yes", 
		 "theory": "DFT", 
		 "functional": "B3LYP", 
		 "basiset": "6-31G**", 
		 "properties": { 
			 "R2extent": 2890.5486, 
			 "electric_dipole_moment_norm": 8.06958251398, 
			 "electric_quadrupole_moment_norm": 14.0595163772, 
			 "total_energy": -591.876768571, 
			 "HOMO_LUMO_gap": 0.19625, 
			 "cosmo_polarized_energy": -17.69, 
			 "cosmo_cavitation_energy": 28.93, 
			 "cosmo_dispersion_energy": -19.82, 
			 "cosmo_repulsion_energy": 1.67, 
			 "cosmo_total_nonelectrostatic_energy": 10.78, 
			 "SMD_solvation_energy": 8.46 
		},
		"coords": [
			{
				"x": -0.5374642727,
				"y": -2.3379231392,
				"z": -3.3247324973,
				"element": "C" 
			},
			{
				"x": 0.8211715146,
				"y": -2.1256813967,
				"z": -2.6766470883,
				"element": "C" 
			},
			{
				"x": 0.8843156895,
				"y": -0.8462695844,
				"z": -2.0078407706,
				"element": "O" 
			},
			{
				"x": 0.4935830939,
				"y": -0.7960108059,
				"z": -0.7401054298,
				"element": "C" 
			},
			{
				"x": 0.4103746078,
				"y": 0.3735708681,
				"z": -0.0507821018,
				"element": "C" 
			},
			{
				"x": 0.7157072284,
				"y": 1.619570902,
				"z": -0.6782246852,
				"element": "C" 
			},
			{
				"x": 0.9662928213,
				"y": 2.6242119539,
				"z": -1.207852447,
				"element": "N" 
			},
			{
				"x": 0.0013518544,
				"y": 0.4057386505,
				"z": 1.3752608704,
				"element": "C" 
			},
			{
				"x": -0.0865462745,
				"y": 1.4208758131,
				"z": 2.0330187494,
				"element": "O" 
			},
			{
				"x": -0.2595263875,
				"y": -0.8378831106,
				"z": 1.8541476761,
				"element": "O" 
			},
			{
				"x": -0.6756255649,
				"y": -0.9134923336,
				"z": 3.2401537589,
				"element": "C" 
			},
			{
				"x": -2.1732195678,
				"y": -0.6902023191,
				"z": 3.3839143845,
				"element": "C" 
			},
			{
				"x": -0.7623563276,
				"y": -1.5246321665,
				"z": -4.0196801686,
				"element": "H" 
			},
			{
				"x": -1.3325097522,
				"y": -2.3814944258,
				"z": -2.5737803484,
				"element": "H" 
			},
			{
				"x": -0.5408812056,
				"y": -3.2809055513,
				"z": -3.8807767957,
				"element": "H" 
			},
			{
				"x": 1.6183338096,
				"y": -2.0891726944,
				"z": -3.4222261988,
				"element": "H" 
			},
			{
				"x": 1.0580009049,
				"y": -2.9194377954,
				"z": -1.9574681268,
				"element": "H" 
			},
			{
				"x": 0.2488174235,
				"y": -1.734410877,
				"z": -0.2472450987,
				"element": "H" 
			},
			{
				"x": -0.386733695,
				"y": -1.9196383521,
				"z": 3.5536505797,
				"element": "H" 
			},
			{
				"x": -0.1102272555,
				"y": -0.1772720243,
				"z": 3.8156798391,
				"element": "H" 
			},
			{
				"x": -2.7359112272,
				"y": -1.402695961,
				"z": 2.7732678137,
				"element": "H" 
			},
			{
				"x": -2.440202076,
				"y": 0.3252721623,
				"z": 3.0820042095,
				"element": "H" 
			},
			{
				"x": -2.4688453415,
				"y": -0.8261178126,
				"z": 4.4295638757,
				"element": "H" 
			}
		],
		 "valence_orbital": [ 
			{
				"type": "occ",
				"energy": -0.34054,
				"method": "rhf"
			},
			{
				"type": "occ",
				"energy": -0.31798,
				"method": "rhf"
			},
			{
				"type": "occ",
				"energy": -0.30395,
				"method": "rhf"
			},
			{
				"type": "occ",
				"energy": -0.28004,
				"method": "rhf"
			},
			{
				"type": "occ",
				"energy": -0.25113,
				"method": "rhf"
			},
			{
				"type": "unocc",
				"energy": -0.05488,
				"method": "rhf"
			},
			{
				"type": "unocc",
				"energy": 0.02886,
				"method": "rhf"
			},
			{
				"type": "unocc",
				"energy": 0.03689,
				"method": "rhf"
			},
			{
				"type": "unocc",
				"energy": 0.0726,
				"method": "rhf"
			},
			{
				"type": "unocc",
				"energy": 0.09412,
				"method": "rhf"
			}
		],
		"cosmo_sigma_profile": { 
			"-0.025": 0.0,
			"-0.024": 0.0,
			"-0.023": 0.0,
			"-0.022": 0.0,
			"-0.021": 0.0,
			"-0.02": 0.0,
			"-0.019": 0.0,
			"-0.018": 0.0,
			"-0.017": 0.0,
			"-0.016": 0.0,
			"-0.015": 0.0,
			"-0.014": 0.0,
			"-0.013": 0.0,
			"-0.012": 0.0153704656419,
			"-0.011": 1.55752452577,
			"-0.01": 1.65267138233,
			"-0.009": 2.26299561545,
			"-0.008": 2.46341527209,
			"-0.007": 4.83643583412,
			"-0.006": 9.87483586807,
			"-0.005": 17.2993153991,
			"-0.004": 22.7775403809,
			"-0.003": 23.3072830026,
			"-0.002": 25.5949533667,
			"-0.001": 23.7462138039,
			"0.0": 17.3467119953,
			"0.001": 9.40287243842,
			"0.002": 6.35318169618,
			"0.003": 5.90845848757,
			"0.004": 6.83491196616,
			"0.005": 4.76212689802,
			"0.006": 6.47767788776,
			"0.007": 6.64061614146,
			"0.008": 5.86087483568,
			"0.009": 5.2819118922,
			"0.01": 5.11346298277,
			"0.011": 6.83772162631,
			"0.012": 5.38567290689,
			"0.013": 1.92580184478,
			"0.014": 0.162524592752,
			"0.015": 0.0,
			"0.016": 0.0,
			"0.017": 0.0,
			"0.018": 0.0,
			"0.019": 0.0,
			"0.02": 0.0,
			"0.021": 0.0,
			"0.022": 0.0,
			"0.023": 0.0,
			"0.024": 0.0,
			"0.025": 0.0
		}
	}
}
