{
	 "smiles": "CCCCCCCCCCCCCCCCCCC1=CC=CC=C1", 
	 "Tm": 302.15, 
	 "num_atms": 66, 
	 "gaussian": { 
		 "optdone": 1, 
		 "sigma_profile": "yes", 
		 "theory": "DFT", 
		 "functional": "B3LYP", 
		 "basiset": "6-31G**", 
		 "properties": { 
			 "R2extent": 14382.4346, 
			 "electric_dipole_moment_norm": 0.401684092291, 
			 "electric_quadrupole_moment_norm": 5.28798904878, 
			 "total_energy": -939.917490231, 
			 "HOMO_LUMO_gap": 0.23941, 
			 "cosmo_polarized_energy": -3.9, 
			 "cosmo_cavitation_energy": 63.53, 
			 "cosmo_dispersion_energy": -39.67, 
			 "cosmo_repulsion_energy": 3.2, 
			 "cosmo_total_nonelectrostatic_energy": 27.06, 
			 "SMD_solvation_energy": 8.04 
		},
		"coords": [
			{
				"x": -2.4322561488,
				"y": -3.7964317766,
				"z": -1.7636989521,
				"element": "C" 
			},
			{
				"x": -3.5550221874,
				"y": -2.781318239,
				"z": -1.5202433625,
				"element": "C" 
			},
			{
				"x": -4.2524592218,
				"y": -2.8612663737,
				"z": -0.1499287194,
				"element": "C" 
			},
			{
				"x": -3.3754803316,
				"y": -2.5452453558,
				"z": 1.0832586265,
				"element": "C" 
			},
			{
				"x": -2.6854322805,
				"y": -3.7634192815,
				"z": 1.7192437966,
				"element": "C" 
			},
			{
				"x": -1.9369241875,
				"y": -3.4962771571,
				"z": 3.038055919,
				"element": "C" 
			},
			{
				"x": -0.7057202261,
				"y": -2.5663899979,
				"z": 2.9457128344,
				"element": "C" 
			},
			{
				"x": -0.9839612888,
				"y": -1.0791281863,
				"z": 3.2142990683,
				"element": "C" 
			},
			{
				"x": 0.2708183717,
				"y": -0.2013846392,
				"z": 3.117578038,
				"element": "C" 
			},
			{
				"x": 0.0026385068,
				"y": 1.2785734619,
				"z": 3.426386779,
				"element": "C" 
			},
			{
				"x": 1.2533414277,
				"y": 2.1762965704,
				"z": 3.3592324181,
				"element": "C" 
			},
			{
				"x": 1.8469706778,
				"y": 2.4308797545,
				"z": 1.9538005138,
				"element": "C" 
			},
			{
				"x": 1.3370365114,
				"y": 3.6964048942,
				"z": 1.2366688836,
				"element": "C" 
			},
			{
				"x": -0.1509456473,
				"y": 3.7342179382,
				"z": 0.845556559,
				"element": "C" 
			},
			{
				"x": -0.6495723071,
				"y": 2.6773543153,
				"z": -0.1594602839,
				"element": "C" 
			},
			{
				"x": -0.0687223501,
				"y": 2.770289703,
				"z": -1.5882179159,
				"element": "C" 
			},
			{
				"x": 1.2071494455,
				"y": 1.9525577256,
				"z": -1.8396210109,
				"element": "C" 
			},
			{
				"x": 1.7069748455,
				"y": 2.05890398,
				"z": -3.2949377646,
				"element": "C" 
			},
			{
				"x": 2.9512516957,
				"y": 1.2377082785,
				"z": -3.5570067899,
				"element": "C" 
			},
			{
				"x": 4.227838714,
				"y": 1.78357144,
				"z": -3.3635541885,
				"element": "C" 
			},
			{
				"x": 5.3762236297,
				"y": 1.0170418769,
				"z": -3.5669414517,
				"element": "C" 
			},
			{
				"x": 5.2671296444,
				"y": -0.3151848319,
				"z": -3.9699506345,
				"element": "C" 
			},
			{
				"x": 4.0022737977,
				"y": -0.8719902048,
				"z": -4.1683465245,
				"element": "C" 
			},
			{
				"x": 2.857427041,
				"y": -0.1006726674,
				"z": -3.9633297331,
				"element": "C" 
			},
			{
				"x": -2.7822836965,
				"y": -4.8231446829,
				"z": -1.6056288405,
				"element": "H" 
			},
			{
				"x": -1.5792825473,
				"y": -3.6304248056,
				"z": -1.0984867558,
				"element": "H" 
			},
			{
				"x": -2.0611348716,
				"y": -3.7277527065,
				"z": -2.7920844082,
				"element": "H" 
			},
			{
				"x": -4.3191408885,
				"y": -2.9093394471,
				"z": -2.2983170801,
				"element": "H" 
			},
			{
				"x": -3.1576942638,
				"y": -1.7656369345,
				"z": -1.6552915178,
				"element": "H" 
			},
			{
				"x": -5.091118682,
				"y": -2.15381506,
				"z": -0.1708103443,
				"element": "H" 
			},
			{
				"x": -4.7055071352,
				"y": -3.8558189542,
				"z": -0.0290216575,
				"element": "H" 
			},
			{
				"x": -4.0043965574,
				"y": -2.0765769697,
				"z": 1.8522554343,
				"element": "H" 
			},
			{
				"x": -2.629798361,
				"y": -1.7886841042,
				"z": 0.8056538503,
				"element": "H" 
			},
			{
				"x": -1.9865045395,
				"y": -4.21637469,
				"z": 1.0051649318,
				"element": "H" 
			},
			{
				"x": -3.4520112783,
				"y": -4.5272771015,
				"z": 1.9110545796,
				"element": "H" 
			},
			{
				"x": -1.6126211861,
				"y": -4.4685776642,
				"z": 3.4297255729,
				"element": "H" 
			},
			{
				"x": -2.6396590304,
				"y": -3.0960418489,
				"z": 3.7830186333,
				"element": "H" 
			},
			{
				"x": -0.2356857907,
				"y": -2.6800742115,
				"z": 1.9580570989,
				"element": "H" 
			},
			{
				"x": 0.0481628653,
				"y": -2.9016362201,
				"z": 3.6704311426,
				"element": "H" 
			},
			{
				"x": -1.7422236579,
				"y": -0.7017641386,
				"z": 2.5170333924,
				"element": "H" 
			},
			{
				"x": -1.4215140757,
				"y": -0.9761123081,
				"z": 4.2177991417,
				"element": "H" 
			},
			{
				"x": 0.7018120625,
				"y": -0.3041188752,
				"z": 2.1122154246,
				"element": "H" 
			},
			{
				"x": 1.0347037675,
				"y": -0.5804732058,
				"z": 3.8121330063,
				"element": "H" 
			},
			{
				"x": -0.4232064364,
				"y": 1.3507091478,
				"z": 4.4367119172,
				"element": "H" 
			},
			{
				"x": -0.772992913,
				"y": 1.6543643437,
				"z": 2.7474920007,
				"element": "H" 
			},
			{
				"x": 1.0261082243,
				"y": 3.14432116,
				"z": 3.8264043204,
				"element": "H" 
			},
			{
				"x": 2.0250947862,
				"y": 1.7182465644,
				"z": 3.9923976394,
				"element": "H" 
			},
			{
				"x": 1.6977963403,
				"y": 1.5502085836,
				"z": 1.3170675933,
				"element": "H" 
			},
			{
				"x": 2.9348803782,
				"y": 2.5350965659,
				"z": 2.0508889556,
				"element": "H" 
			},
			{
				"x": 1.5358326806,
				"y": 4.5593867955,
				"z": 1.8876433034,
				"element": "H" 
			},
			{
				"x": 1.9488010794,
				"y": 3.8606209457,
				"z": 0.3404533192,
				"element": "H" 
			},
			{
				"x": -0.3657926304,
				"y": 4.7275621184,
				"z": 0.4271948883,
				"element": "H" 
			},
			{
				"x": -0.7616185263,
				"y": 3.6623638209,
				"z": 1.7545243966,
				"element": "H" 
			},
			{
				"x": -0.4815247841,
				"y": 1.6665039501,
				"z": 0.2355777495,
				"element": "H" 
			},
			{
				"x": -1.7394296037,
				"y": 2.7883773505,
				"z": -0.2232904838,
				"element": "H" 
			},
			{
				"x": 0.1153057988,
				"y": 3.8250583237,
				"z": -1.8390777448,
				"element": "H" 
			},
			{
				"x": -0.8307766187,
				"y": 2.4263855365,
				"z": -2.3006459725,
				"element": "H" 
			},
			{
				"x": 1.0136925217,
				"y": 0.8968429789,
				"z": -1.6061178119,
				"element": "H" 
			},
			{
				"x": 2.0117447105,
				"y": 2.2681447684,
				"z": -1.1660528026,
				"element": "H" 
			},
			{
				"x": 1.90588225,
				"y": 3.1130095942,
				"z": -3.5272636167,
				"element": "H" 
			},
			{
				"x": 0.9043637675,
				"y": 1.7384450412,
				"z": -3.9717096995,
				"element": "H" 
			},
			{
				"x": 4.3214192417,
				"y": 2.8224091393,
				"z": -3.0547209876,
				"element": "H" 
			},
			{
				"x": 6.3560999411,
				"y": 1.4615920045,
				"z": -3.4151994649,
				"element": "H" 
			},
			{
				"x": 6.159690953,
				"y": -0.9126530969,
				"z": -4.1323787724,
				"element": "H" 
			},
			{
				"x": 3.906572348,
				"y": -1.9063134098,
				"z": -4.4874515526,
				"element": "H" 
			},
			{
				"x": 1.8756762264,
				"y": -0.5403295254,
				"z": -4.1251048834,
				"element": "H" 
			}
		],
		 "valence_orbital": [ 
			{
				"type": "occ",
				"energy": -0.29651,
				"method": "rhf"
			},
			{
				"type": "occ",
				"energy": -0.29477,
				"method": "rhf"
			},
			{
				"type": "occ",
				"energy": -0.29116,
				"method": "rhf"
			},
			{
				"type": "occ",
				"energy": -0.24367,
				"method": "rhf"
			},
			{
				"type": "occ",
				"energy": -0.23479,
				"method": "rhf"
			},
			{
				"type": "unocc",
				"energy": 0.00462,
				"method": "rhf"
			},
			{
				"type": "unocc",
				"energy": 0.00542,
				"method": "rhf"
			},
			{
				"type": "unocc",
				"energy": 0.07074,
				"method": "rhf"
			},
			{
				"type": "unocc",
				"energy": 0.08282,
				"method": "rhf"
			},
			{
				"type": "unocc",
				"energy": 0.08943,
				"method": "rhf"
			}
		],
		"cosmo_sigma_profile": { 
			"-0.025": 0.0,
			"-0.024": 0.0,
			"-0.023": 0.0,
			"-0.022": 0.0,
			"-0.021": 0.0,
			"-0.02": 0.0,
			"-0.019": 0.0,
			"-0.018": 0.0,
			"-0.017": 0.0,
			"-0.016": 0.0,
			"-0.015": 0.0,
			"-0.014": 0.0,
			"-0.013": 0.0,
			"-0.012": 0.0,
			"-0.011": 0.0,
			"-0.01": 0.0,
			"-0.009": 0.0,
			"-0.008": 0.0,
			"-0.007": 0.0,
			"-0.006": 0.850973511906,
			"-0.005": 8.08035013302,
			"-0.004": 11.4410097126,
			"-0.003": 18.1744316647,
			"-0.002": 53.0256714904,
			"-0.001": 111.915094341,
			"0.0": 113.877422889,
			"0.001": 88.6725775057,
			"0.002": 44.2184133993,
			"0.003": 8.99105139847,
			"0.004": 8.03169090723,
			"0.005": 7.49828491412,
			"0.006": 8.65795854643,
			"0.007": 5.41051462622,
			"0.008": 0.0439626340161,
			"0.009": 0.0,
			"0.01": 0.0,
			"0.011": 0.0,
			"0.012": 0.0,
			"0.013": 0.0,
			"0.014": 0.0,
			"0.015": 0.0,
			"0.016": 0.0,
			"0.017": 0.0,
			"0.018": 0.0,
			"0.019": 0.0,
			"0.02": 0.0,
			"0.021": 0.0,
			"0.022": 0.0,
			"0.023": 0.0,
			"0.024": 0.0,
			"0.025": 0.0
		}
	}
}
