{
	 "smiles": "COC1=C2N(C=C(C(O)=O)C(=O)C2=CC(F)=C1N1C[C@@H]2CCCN[C@@H]2C1)C1CC1", 
	 "Tm": 513.15, 
	 "num_atms": 53, 
	 "gaussian": { 
		 "optdone": 1, 
		 "sigma_profile": "yes", 
		 "theory": "DFT", 
		 "functional": "B3LYP", 
		 "basiset": "6-31G**", 
		 "properties": { 
			 "R2extent": 14438.248, 
			 "electric_dipole_moment_norm": 12.6553119965, 
			 "electric_quadrupole_moment_norm": 52.7351431068, 
			 "total_energy": -1379.6459829, 
			 "HOMO_LUMO_gap": 0.15614, 
			 "cosmo_polarized_energy": -23.02, 
			 "cosmo_cavitation_energy": 51.46, 
			 "cosmo_dispersion_energy": -36.4, 
			 "cosmo_repulsion_energy": 2.66, 
			 "cosmo_total_nonelectrostatic_energy": 17.72, 
			 "SMD_solvation_energy": 6.85 
		},
		"coords": [
			{
				"x": -0.2026769826,
				"y": -3.5984803995,
				"z": 0.3865227136,
				"element": "C" 
			},
			{
				"x": 0.062139494,
				"y": -2.3177413816,
				"z": -0.1988169867,
				"element": "O" 
			},
			{
				"x": 0.2766360715,
				"y": -1.3400482194,
				"z": 0.7570929733,
				"element": "C" 
			},
			{
				"x": 1.5946078584,
				"y": -1.0995631541,
				"z": 1.2268516398,
				"element": "C" 
			},
			{
				"x": 2.7472449198,
				"y": -1.6136740418,
				"z": 0.5821164868,
				"element": "N" 
			},
			{
				"x": 3.9668948168,
				"y": -1.3686467346,
				"z": 1.129335957,
				"element": "C" 
			},
			{
				"x": 4.1940787578,
				"y": -0.6814989651,
				"z": 2.2887124561,
				"element": "C" 
			},
			{
				"x": 5.6152431824,
				"y": -0.5400610087,
				"z": 2.7411001125,
				"element": "C" 
			},
			{
				"x": 5.7851827641,
				"y": 0.1781121794,
				"z": 3.8538562655,
				"element": "O" 
			},
			{
				"x": 6.5438911621,
				"y": -1.045063279,
				"z": 2.1361166166,
				"element": "O" 
			},
			{
				"x": 3.0890531615,
				"y": -0.0696922702,
				"z": 2.9849017028,
				"element": "C" 
			},
			{
				"x": 3.2292989488,
				"y": 0.6135030199,
				"z": 4.0274213934,
				"element": "O" 
			},
			{
				"x": 1.77654749,
				"y": -0.299235948,
				"z": 2.3819561797,
				"element": "C" 
			},
			{
				"x": 0.6514632628,
				"y": 0.2577627217,
				"z": 3.0070678848,
				"element": "C" 
			},
			{
				"x": -0.5959543208,
				"y": 0.093985876,
				"z": 2.4760702595,
				"element": "C" 
			},
			{
				"x": -1.6434193002,
				"y": 0.6189335908,
				"z": 3.1632993972,
				"element": "F" 
			},
			{
				"x": -0.8496078151,
				"y": -0.6401232522,
				"z": 1.2780105259,
				"element": "C" 
			},
			{
				"x": -2.1146751089,
				"y": -0.6909514758,
				"z": 0.7300071926,
				"element": "N" 
			},
			{
				"x": -2.4356931381,
				"y": -1.3279852136,
				"z": -0.5658386814,
				"element": "C" 
			},
			{
				"x": -3.908276036,
				"y": -0.9672323847,
				"z": -0.7991096394,
				"element": "C" 
			},
			{
				"x": -4.4018693728,
				"y": -1.0816973991,
				"z": -2.2503545955,
				"element": "C" 
			},
			{
				"x": -3.8799244032,
				"y": 0.0505507597,
				"z": -3.1491197145,
				"element": "C" 
			},
			{
				"x": -4.0890166468,
				"y": 1.4068035936,
				"z": -2.4705821203,
				"element": "C" 
			},
			{
				"x": -3.4105072265,
				"y": 1.4014734101,
				"z": -1.1732479589,
				"element": "N" 
			},
			{
				"x": -3.9961255344,
				"y": 0.4550377052,
				"z": -0.2220179866,
				"element": "C" 
			},
			{
				"x": -3.1238049268,
				"y": 0.3622611663,
				"z": 1.0310394865,
				"element": "C" 
			},
			{
				"x": 2.6841564279,
				"y": -2.1640429379,
				"z": -0.7757058762,
				"element": "C" 
			},
			{
				"x": 3.8749161792,
				"y": -2.7861385187,
				"z": -1.4547807531,
				"element": "C" 
			},
			{
				"x": 2.6966848341,
				"y": -3.6421949936,
				"z": -1.0547192427,
				"element": "C" 
			},
			{
				"x": -0.3653559465,
				"y": -4.2922043003,
				"z": -0.4411049284,
				"element": "H" 
			},
			{
				"x": 0.6447352081,
				"y": -3.9413351608,
				"z": 0.9903834542,
				"element": "H" 
			},
			{
				"x": -1.0981319543,
				"y": -3.565834721,
				"z": 1.0191285969,
				"element": "H" 
			},
			{
				"x": 4.8288843368,
				"y": -1.7383320216,
				"z": 0.5931299567,
				"element": "H" 
			},
			{
				"x": 4.8863705157,
				"y": 0.4900151595,
				"z": 4.1594523053,
				"element": "H" 
			},
			{
				"x": 0.7896635419,
				"y": 0.8221805023,
				"z": 3.9217120136,
				"element": "H" 
			},
			{
				"x": -1.7953342966,
				"y": -0.9347149107,
				"z": -1.361734607,
				"element": "H" 
			},
			{
				"x": -2.3032077359,
				"y": -2.4088801158,
				"z": -0.5262559393,
				"element": "H" 
			},
			{
				"x": -4.5199873697,
				"y": -1.6213700028,
				"z": -0.1641118662,
				"element": "H" 
			},
			{
				"x": -5.4992231281,
				"y": -1.0439126093,
				"z": -2.2393751406,
				"element": "H" 
			},
			{
				"x": -4.1338154907,
				"y": -2.0614535777,
				"z": -2.664847639,
				"element": "H" 
			},
			{
				"x": -2.8102890049,
				"y": -0.0777605798,
				"z": -3.3497657599,
				"element": "H" 
			},
			{
				"x": -4.3960223791,
				"y": 0.0278012741,
				"z": -4.1158034371,
				"element": "H" 
			},
			{
				"x": -3.6622266669,
				"y": 2.2098786521,
				"z": -3.0805814947,
				"element": "H" 
			},
			{
				"x": -5.1757566806,
				"y": 1.6063145796,
				"z": -2.3828864519,
				"element": "H" 
			},
			{
				"x": -3.4101453912,
				"y": 2.3344192645,
				"z": -0.7702757236,
				"element": "H" 
			},
			{
				"x": -5.0381265142,
				"y": 0.7096963145,
				"z": 0.0455944006,
				"element": "H" 
			},
			{
				"x": -3.7207165783,
				"y": 0.087822684,
				"z": 1.9067088246,
				"element": "H" 
			},
			{
				"x": -2.6407460903,
				"y": 1.3183849312,
				"z": 1.2415269449,
				"element": "H" 
			},
			{
				"x": 2.0433487577,
				"y": -1.563080345,
				"z": -1.4092801235,
				"element": "H" 
			},
			{
				"x": 4.8044837427,
				"y": -2.946654342,
				"z": -0.9214395036,
				"element": "H" 
			},
			{
				"x": 4.0139763229,
				"y": -2.5322042113,
				"z": -2.5009966254,
				"element": "H" 
			},
			{
				"x": 2.0221377507,
				"y": -4.0254381204,
				"z": -1.8136604359,
				"element": "H" 
			},
			{
				"x": 2.8555965317,
				"y": -4.3053907881,
				"z": -0.2098025092,
				"element": "H" 
			}
		],
		 "valence_orbital": [ 
			{
				"type": "occ",
				"energy": -0.25227,
				"method": "rhf"
			},
			{
				"type": "occ",
				"energy": -0.24293,
				"method": "rhf"
			},
			{
				"type": "occ",
				"energy": -0.23772,
				"method": "rhf"
			},
			{
				"type": "occ",
				"energy": -0.22075,
				"method": "rhf"
			},
			{
				"type": "occ",
				"energy": -0.20725,
				"method": "rhf"
			},
			{
				"type": "unocc",
				"energy": -0.05111,
				"method": "rhf"
			},
			{
				"type": "unocc",
				"energy": -0.03247,
				"method": "rhf"
			},
			{
				"type": "unocc",
				"energy": 0.00048,
				"method": "rhf"
			},
			{
				"type": "unocc",
				"energy": 0.03957,
				"method": "rhf"
			},
			{
				"type": "unocc",
				"energy": 0.05591,
				"method": "rhf"
			}
		],
		"cosmo_sigma_profile": { 
			"-0.025": 0.0,
			"-0.024": 0.0,
			"-0.023": 0.0,
			"-0.022": 0.0,
			"-0.021": 0.0,
			"-0.02": 0.0,
			"-0.019": 0.0,
			"-0.018": 0.0,
			"-0.017": 0.0,
			"-0.016": 0.0,
			"-0.015": 0.0,
			"-0.014": 0.0,
			"-0.013": 0.0,
			"-0.012": 0.0,
			"-0.011": 0.0412536927722,
			"-0.01": 0.999229813591,
			"-0.009": 2.84961484641,
			"-0.008": 3.6398538037,
			"-0.007": 4.1833709124,
			"-0.006": 13.2536917302,
			"-0.005": 20.9609984418,
			"-0.004": 30.0235528787,
			"-0.003": 49.0307211568,
			"-0.002": 56.480957476,
			"-0.001": 50.0456763494,
			"0.0": 40.0639197339,
			"0.001": 30.4144558249,
			"0.002": 18.3539615471,
			"0.003": 13.1075492765,
			"0.004": 14.905607081,
			"0.005": 6.72271982655,
			"0.006": 4.64994696727,
			"0.007": 4.11172625142,
			"0.008": 5.50248798822,
			"0.009": 5.8525915439,
			"0.01": 4.68268693367,
			"0.011": 6.91428051214,
			"0.012": 8.34191911198,
			"0.013": 5.94753788312,
			"0.014": 3.00504781139,
			"0.015": 0.643971368925,
			"0.016": 0.198019620281,
			"0.017": 0.0,
			"0.018": 0.0,
			"0.019": 0.0,
			"0.02": 0.0,
			"0.021": 0.0,
			"0.022": 0.0,
			"0.023": 0.0,
			"0.024": 0.0,
			"0.025": 0.0
		}
	}
}
