{
	 "smiles": "CCC1=C(C(O)=O)C2=C(O1)C=CC=C2", 
	 "Tm": 363.15, 
	 "num_atms": 24, 
	 "gaussian": { 
		 "optdone": 1, 
		 "sigma_profile": "yes", 
		 "theory": "DFT", 
		 "functional": "B3LYP", 
		 "basiset": "6-31G**", 
		 "properties": { 
			 "R2extent": 3360.1287, 
			 "electric_dipole_moment_norm": 2.04335036643, 
			 "electric_quadrupole_moment_norm": 11.9718951336, 
			 "total_energy": -650.892854223, 
			 "HOMO_LUMO_gap": 0.18454, 
			 "cosmo_polarized_energy": -9.25, 
			 "cosmo_cavitation_energy": 28.2, 
			 "cosmo_dispersion_energy": -20.57, 
			 "cosmo_repulsion_energy": 1.62, 
			 "cosmo_total_nonelectrostatic_energy": 9.25, 
			 "SMD_solvation_energy": 6.17 
		},
		"coords": [
			{
				"x": -1.4492019552,
				"y": 1.4788583884,
				"z": 4.3549123855,
				"element": "C" 
			},
			{
				"x": -0.2255349056,
				"y": 1.8720635327,
				"z": 3.5030780701,
				"element": "C" 
			},
			{
				"x": -0.3444720381,
				"y": 1.4251719468,
				"z": 2.0843014851,
				"element": "C" 
			},
			{
				"x": 0.0451602322,
				"y": 0.2978287135,
				"z": 1.3983094056,
				"element": "C" 
			},
			{
				"x": 0.7656093111,
				"y": -0.8758643954,
				"z": 1.888852362,
				"element": "C" 
			},
			{
				"x": 1.0306993166,
				"y": -0.8431731701,
				"z": 3.2252921605,
				"element": "O" 
			},
			{
				"x": 1.1057170547,
				"y": -1.8182783003,
				"z": 1.1968352424,
				"element": "O" 
			},
			{
				"x": -0.4068693987,
				"y": 0.4687602917,
				"z": 0.0299523581,
				"element": "C" 
			},
			{
				"x": -1.0535844786,
				"y": 1.7119384227,
				"z": 0.0078776978,
				"element": "C" 
			},
			{
				"x": -1.0113726622,
				"y": 2.2870917286,
				"z": 1.2588756828,
				"element": "O" 
			},
			{
				"x": -1.6385279465,
				"y": 2.2636282573,
				"z": -1.1238282887,
				"element": "C" 
			},
			{
				"x": -1.5579741104,
				"y": 1.5013751637,
				"z": -2.2896818729,
				"element": "C" 
			},
			{
				"x": -0.916080779,
				"y": 0.2491118128,
				"z": -2.2998796617,
				"element": "C" 
			},
			{
				"x": -0.3349627016,
				"y": -0.2830219988,
				"z": -1.1507593736,
				"element": "C" 
			},
			{
				"x": -1.5488124872,
				"y": 0.3911267282,
				"z": 4.4040343326,
				"element": "H" 
			},
			{
				"x": -1.337587229,
				"y": 1.8594243464,
				"z": 5.3747037248,
				"element": "H" 
			},
			{
				"x": -2.3708565155,
				"y": 1.891944456,
				"z": 3.9347589154,
				"element": "H" 
			},
			{
				"x": -0.1094924432,
				"y": 2.9614636707,
				"z": 3.5018326334,
				"element": "H" 
			},
			{
				"x": 0.6770057372,
				"y": 1.4346565772,
				"z": 3.9329901595,
				"element": "H" 
			},
			{
				"x": 1.5097044054,
				"y": -1.6676902509,
				"z": 3.4116777695,
				"element": "H" 
			},
			{
				"x": -2.1281574138,
				"y": 3.2308084533,
				"z": -1.0951075847,
				"element": "H" 
			},
			{
				"x": -1.9990031232,
				"y": 1.883200648,
				"z": -3.2054535468,
				"element": "H" 
			},
			{
				"x": -0.8736253962,
				"y": -0.3142946286,
				"z": -3.2273554771,
				"element": "H" 
			},
			{
				"x": 0.1617195269,
				"y": -1.2459303938,
				"z": -1.1523185794,
				"element": "H" 
			}
		],
		 "valence_orbital": [ 
			{
				"type": "occ",
				"energy": -0.32082,
				"method": "rhf"
			},
			{
				"type": "occ",
				"energy": -0.29094,
				"method": "rhf"
			},
			{
				"type": "occ",
				"energy": -0.27663,
				"method": "rhf"
			},
			{
				"type": "occ",
				"energy": -0.24052,
				"method": "rhf"
			},
			{
				"type": "occ",
				"energy": -0.22417,
				"method": "rhf"
			},
			{
				"type": "unocc",
				"energy": -0.03963,
				"method": "rhf"
			},
			{
				"type": "unocc",
				"energy": -0.00237,
				"method": "rhf"
			},
			{
				"type": "unocc",
				"energy": 0.01211,
				"method": "rhf"
			},
			{
				"type": "unocc",
				"energy": 0.07601,
				"method": "rhf"
			},
			{
				"type": "unocc",
				"energy": 0.09826,
				"method": "rhf"
			}
		],
		"cosmo_sigma_profile": { 
			"-0.025": 0.0,
			"-0.024": 0.0,
			"-0.023": 0.0,
			"-0.022": 0.0,
			"-0.021": 0.0,
			"-0.02": 0.0,
			"-0.019": 0.0,
			"-0.018": 0.59513095592,
			"-0.017": 0.919063264527,
			"-0.016": 0.750343367709,
			"-0.015": 0.868864521436,
			"-0.014": 0.749040711475,
			"-0.013": 0.878442899507,
			"-0.012": 0.204157690548,
			"-0.011": 0.612483061173,
			"-0.01": 0.952856265709,
			"-0.009": 0.442344133258,
			"-0.008": 0.542891528758,
			"-0.007": 3.05174111541,
			"-0.006": 5.81628911256,
			"-0.005": 9.71315528244,
			"-0.004": 15.038495282,
			"-0.003": 17.723269783,
			"-0.002": 24.2699325163,
			"-0.001": 22.3622798787,
			"0.0": 22.143940521,
			"0.001": 18.727603103,
			"0.002": 15.6058174365,
			"0.003": 15.4667789322,
			"0.004": 15.5922904001,
			"0.005": 12.9412511426,
			"0.006": 5.10129496341,
			"0.007": 1.76451502006,
			"0.008": 1.39055897417,
			"0.009": 2.00518385417,
			"0.01": 2.11568456015,
			"0.011": 2.93130371917,
			"0.012": 3.25024770521,
			"0.013": 0.272216755829,
			"0.014": 0.0,
			"0.015": 0.0,
			"0.016": 0.0,
			"0.017": 0.0,
			"0.018": 0.0,
			"0.019": 0.0,
			"0.02": 0.0,
			"0.021": 0.0,
			"0.022": 0.0,
			"0.023": 0.0,
			"0.024": 0.0,
			"0.025": 0.0
		}
	}
}
