{
	 "smiles": "CSC1=NC=C(Br)C(=N1)C(O)=O", 
	 "Tm": 429.15, 
	 "num_atms": 17, 
	 "gaussian": { 
		 "optdone": 1, 
		 "sigma_profile": "yes", 
		 "theory": "DFT", 
		 "functional": "B3LYP", 
		 "basiset": "6-31G**", 
		 "properties": { 
			 "R2extent": 5723.4023, 
			 "electric_dipole_moment_norm": 1.72027072869, 
			 "electric_quadrupole_moment_norm": 15.4024399632, 
			 "total_energy": -3461.18874672, 
			 "HOMO_LUMO_gap": 0.15366, 
			 "cosmo_polarized_energy": -12.73, 
			 "cosmo_cavitation_energy": 26.48, 
			 "cosmo_dispersion_energy": -20.39, 
			 "cosmo_repulsion_energy": 1.6, 
			 "cosmo_total_nonelectrostatic_energy": 7.7, 
			 "SMD_solvation_energy": 2.78 
		},
		"coords": [
			{
				"x": 0.5933119309,
				"y": 2.553809085,
				"z": -3.596748266,
				"element": "C" 
			},
			{
				"x": 0.1869987018,
				"y": 2.2895087131,
				"z": -1.8380956551,
				"element": "S" 
			},
			{
				"x": -0.5174362278,
				"y": 0.6690870524,
				"z": -1.8806312753,
				"element": "C" 
			},
			{
				"x": -0.6124281886,
				"y": 0.0136731966,
				"z": -3.046407335,
				"element": "N" 
			},
			{
				"x": -1.1578543953,
				"y": -1.2003690161,
				"z": -2.991251226,
				"element": "C" 
			},
			{
				"x": -1.6226901527,
				"y": -1.7704400465,
				"z": -1.8029677083,
				"element": "C" 
			},
			{
				"x": -2.3509064503,
				"y": -3.5176880017,
				"z": -1.8734893953,
				"element": "Br" 
			},
			{
				"x": -1.4702673005,
				"y": -1.0002189089,
				"z": -0.6384323077,
				"element": "C" 
			},
			{
				"x": -0.9117221878,
				"y": 0.2113873707,
				"z": -0.6866862426,
				"element": "N" 
			},
			{
				"x": -1.9567006403,
				"y": -1.4512346017,
				"z": 0.7180879476,
				"element": "C" 
			},
			{
				"x": -1.2045029056,
				"y": -0.9512418592,
				"z": 1.7132858272,
				"element": "O" 
			},
			{
				"x": -2.9179924751,
				"y": -2.165684411,
				"z": 0.8925464744,
				"element": "O" 
			},
			{
				"x": -0.3053626776,
				"y": 2.5163515304,
				"z": -4.2129820895,
				"element": "H" 
			},
			{
				"x": 1.3084195245,
				"y": 1.8087504764,
				"z": -3.9464074204,
				"element": "H" 
			},
			{
				"x": 1.0384669682,
				"y": 3.5497772124,
				"z": -3.6478922621,
				"element": "H" 
			},
			{
				"x": -1.2342635038,
				"y": -1.7521367657,
				"z": -3.9250289913,
				"element": "H" 
			},
			{
				"x": -1.6092700202,
				"y": -1.2675310263,
				"z": 2.5387999256,
				"element": "H" 
			}
		],
		 "valence_orbital": [ 
			{
				"type": "occ",
				"energy": -0.30926,
				"method": "rhf"
			},
			{
				"type": "occ",
				"energy": -0.29577,
				"method": "rhf"
			},
			{
				"type": "occ",
				"energy": -0.289,
				"method": "rhf"
			},
			{
				"type": "occ",
				"energy": -0.26433,
				"method": "rhf"
			},
			{
				"type": "occ",
				"energy": -0.23651,
				"method": "rhf"
			},
			{
				"type": "unocc",
				"energy": -0.08285,
				"method": "rhf"
			},
			{
				"type": "unocc",
				"energy": -0.04865,
				"method": "rhf"
			},
			{
				"type": "unocc",
				"energy": -0.0063,
				"method": "rhf"
			},
			{
				"type": "unocc",
				"energy": 0.02078,
				"method": "rhf"
			},
			{
				"type": "unocc",
				"energy": 0.02883,
				"method": "rhf"
			}
		],
		"cosmo_sigma_profile": { 
			"-0.025": 0.0,
			"-0.024": 0.0,
			"-0.023": 0.0,
			"-0.022": 0.0,
			"-0.021": 0.0,
			"-0.02": 0.195285863213,
			"-0.019": 0.704363691678,
			"-0.018": 0.879273870751,
			"-0.017": 0.959185401858,
			"-0.016": 1.14118701158,
			"-0.015": 0.72250034114,
			"-0.014": 0.383100053819,
			"-0.013": 0.513128143683,
			"-0.012": 1.0344537111,
			"-0.011": 0.590932650056,
			"-0.01": 0.538353122853,
			"-0.009": 2.3594170258,
			"-0.008": 3.14499277735,
			"-0.007": 5.04372949698,
			"-0.006": 9.45656110931,
			"-0.005": 12.982279167,
			"-0.004": 16.3748533516,
			"-0.003": 19.2339796697,
			"-0.002": 18.1675380891,
			"-0.001": 13.0748414466,
			"0.0": 12.6717559869,
			"0.001": 11.2777860595,
			"0.002": 12.3017799235,
			"0.003": 16.3355868699,
			"0.004": 12.7083575379,
			"0.005": 7.90811851009,
			"0.006": 8.36563028122,
			"0.007": 5.79009430687,
			"0.008": 5.4229649865,
			"0.009": 4.78455875906,
			"0.01": 5.51002012451,
			"0.011": 4.8033714942,
			"0.012": 1.28852111582,
			"0.013": 0.902906044218,
			"0.014": 0.28019627069,
			"0.015": 0.0,
			"0.016": 0.0,
			"0.017": 0.0,
			"0.018": 0.0,
			"0.019": 0.0,
			"0.02": 0.0,
			"0.021": 0.0,
			"0.022": 0.0,
			"0.023": 0.0,
			"0.024": 0.0,
			"0.025": 0.0
		}
	}
}
