{
	 "smiles": "OC1CNC2=C3C=CC=CC3=CC=C2C1", 
	 "Tm": 418.15, 
	 "num_atms": 28, 
	 "gaussian": { 
		 "optdone": 1, 
		 "sigma_profile": "yes", 
		 "theory": "DFT", 
		 "functional": "B3LYP", 
		 "basiset": "6-31G**", 
		 "properties": { 
			 "R2extent": 3554.8186, 
			 "electric_dipole_moment_norm": 2.1655055045, 
			 "electric_quadrupole_moment_norm": 13.6664983522, 
			 "total_energy": -633.205126677, 
			 "HOMO_LUMO_gap": 0.15902, 
			 "cosmo_polarized_energy": -10.45, 
			 "cosmo_cavitation_energy": 29.3, 
			 "cosmo_dispersion_energy": -22.27, 
			 "cosmo_repulsion_energy": 1.7, 
			 "cosmo_total_nonelectrostatic_energy": 8.73, 
			 "SMD_solvation_energy": 3.44 
		},
		"coords": [
			{
				"x": -1.3613028884,
				"y": -2.6553642098,
				"z": -1.2669225512,
				"element": "O" 
			},
			{
				"x": -1.714025824,
				"y": -1.5240493827,
				"z": -2.0487878529,
				"element": "C" 
			},
			{
				"x": -2.8291596346,
				"y": -0.7338770608,
				"z": -1.3579289919,
				"element": "C" 
			},
			{
				"x": -2.3186120251,
				"y": -0.311971654,
				"z": -0.0527007165,
				"element": "N" 
			},
			{
				"x": -1.1231426584,
				"y": 0.4300784287,
				"z": -0.0412520687,
				"element": "C" 
			},
			{
				"x": -0.8047296196,
				"y": 1.2529253057,
				"z": 1.0953078145,
				"element": "C" 
			},
			{
				"x": -1.6471184754,
				"y": 1.3561823115,
				"z": 2.2354756002,
				"element": "C" 
			},
			{
				"x": -1.3183508383,
				"y": 2.1696470814,
				"z": 3.2991808598,
				"element": "C" 
			},
			{
				"x": -0.1225962418,
				"y": 2.922571089,
				"z": 3.2783860283,
				"element": "C" 
			},
			{
				"x": 0.7245177171,
				"y": 2.8317065398,
				"z": 2.1969321384,
				"element": "C" 
			},
			{
				"x": 0.4190767659,
				"y": 1.9991789405,
				"z": 1.0875722531,
				"element": "C" 
			},
			{
				"x": 1.3002520152,
				"y": 1.8841488888,
				"z": -0.0204388026,
				"element": "C" 
			},
			{
				"x": 0.9824113661,
				"y": 1.0542333052,
				"z": -1.0667630398,
				"element": "C" 
			},
			{
				"x": -0.2269279907,
				"y": 0.31635379,
				"z": -1.1010434531,
				"element": "C" 
			},
			{
				"x": -0.5205080937,
				"y": -0.5855585005,
				"z": -2.2872514572,
				"element": "C" 
			},
			{
				"x": -1.3699834677,
				"y": -2.3562612755,
				"z": -0.3442047881,
				"element": "H" 
			},
			{
				"x": -2.0723726128,
				"y": -1.9132646185,
				"z": -3.0078010296,
				"element": "H" 
			},
			{
				"x": -3.7013518177,
				"y": -1.3735310494,
				"z": -1.1950484983,
				"element": "H" 
			},
			{
				"x": -3.1322182309,
				"y": 0.1188777511,
				"z": -1.9871137397,
				"element": "H" 
			},
			{
				"x": -3.0371682705,
				"y": 0.0642584483,
				"z": 0.549072215,
				"element": "H" 
			},
			{
				"x": -2.5574568705,
				"y": 0.7674974584,
				"z": 2.3002142998,
				"element": "H" 
			},
			{
				"x": -1.9783090903,
				"y": 2.2265744518,
				"z": 4.1599254932,
				"element": "H" 
			},
			{
				"x": 0.1282716536,
				"y": 3.5634097667,
				"z": 4.1186613657,
				"element": "H" 
			},
			{
				"x": 1.6526782689,
				"y": 3.3973232302,
				"z": 2.1770365843,
				"element": "H" 
			},
			{
				"x": 2.2284188083,
				"y": 2.4484249575,
				"z": -0.0193252114,
				"element": "H" 
			},
			{
				"x": 1.6675640835,
				"y": 0.9539484314,
				"z": -1.9055386541,
				"element": "H" 
			},
			{
				"x": -0.7140328406,
				"y": 0.0271326288,
				"z": -3.1795822097,
				"element": "H" 
			},
			{
				"x": 0.3564768122,
				"y": -1.2012950536,
				"z": -2.5175615874,
				"element": "H" 
			}
		],
		 "valence_orbital": [ 
			{
				"type": "occ",
				"energy": -0.30169,
				"method": "rhf"
			},
			{
				"type": "occ",
				"energy": -0.26108,
				"method": "rhf"
			},
			{
				"type": "occ",
				"energy": -0.24942,
				"method": "rhf"
			},
			{
				"type": "occ",
				"energy": -0.23576,
				"method": "rhf"
			},
			{
				"type": "occ",
				"energy": -0.19,
				"method": "rhf"
			},
			{
				"type": "unocc",
				"energy": -0.03098,
				"method": "rhf"
			},
			{
				"type": "unocc",
				"energy": -0.0072,
				"method": "rhf"
			},
			{
				"type": "unocc",
				"energy": 0.0424,
				"method": "rhf"
			},
			{
				"type": "unocc",
				"energy": 0.07233,
				"method": "rhf"
			},
			{
				"type": "unocc",
				"energy": 0.08936,
				"method": "rhf"
			}
		],
		"cosmo_sigma_profile": { 
			"-0.025": 0.0,
			"-0.024": 0.0,
			"-0.023": 0.0,
			"-0.022": 0.0,
			"-0.021": 0.0,
			"-0.02": 0.0,
			"-0.019": 0.0,
			"-0.018": 0.0,
			"-0.017": 0.0,
			"-0.016": 0.0,
			"-0.015": 0.0,
			"-0.014": 0.0354543282445,
			"-0.013": 0.679427415034,
			"-0.012": 1.44302310373,
			"-0.011": 1.33980561876,
			"-0.01": 1.40267901357,
			"-0.009": 1.72812093648,
			"-0.008": 2.46418511824,
			"-0.007": 2.3416187815,
			"-0.006": 4.47417930204,
			"-0.005": 17.3657267368,
			"-0.004": 27.4461760365,
			"-0.003": 25.4247937497,
			"-0.002": 21.1102638155,
			"-0.001": 15.9650679379,
			"0.0": 11.2365082358,
			"0.001": 10.9915267866,
			"0.002": 10.3200771256,
			"0.003": 12.8097569298,
			"0.004": 15.9729821731,
			"0.005": 21.9734573085,
			"0.006": 12.5459728575,
			"0.007": 1.71635700543,
			"0.008": 1.28080335051,
			"0.009": 1.20688406804,
			"0.01": 1.19652310302,
			"0.011": 1.42061376965,
			"0.012": 0.76192711642,
			"0.013": 1.65874734562,
			"0.014": 2.26974850606,
			"0.015": 1.33050389728,
			"0.016": 0.0,
			"0.017": 0.0,
			"0.018": 0.0,
			"0.019": 0.0,
			"0.02": 0.0,
			"0.021": 0.0,
			"0.022": 0.0,
			"0.023": 0.0,
			"0.024": 0.0,
			"0.025": 0.0
		}
	}
}
