{
	 "smiles": "CN(C)S(=O)(=O)C1=CC2=C(NC(=O)O2)C=C1", 
	 "Tm": 476.15, 
	 "num_atms": 26, 
	 "gaussian": { 
		 "optdone": 1, 
		 "sigma_profile": "yes", 
		 "theory": "DFT", 
		 "functional": "B3LYP", 
		 "basiset": "6-31G**", 
		 "properties": { 
			 "R2extent": 6232.647, 
			 "electric_dipole_moment_norm": 5.65917780601, 
			 "electric_quadrupole_moment_norm": 26.0207120306, 
			 "total_energy": -1157.51118497, 
			 "HOMO_LUMO_gap": 0.1981, 
			 "cosmo_polarized_energy": -21.38, 
			 "cosmo_cavitation_energy": 31.59, 
			 "cosmo_dispersion_energy": -23.37, 
			 "cosmo_repulsion_energy": 1.76, 
			 "cosmo_total_nonelectrostatic_energy": 9.98, 
			 "SMD_solvation_energy": 5.48 
		},
		"coords": [
			{
				"x": 0.8757030523,
				"y": 0.5773975401,
				"z": -1.5308231267,
				"element": "C" 
			},
			{
				"x": 0.0913923521,
				"y": -0.5130685913,
				"z": -0.9384143258,
				"element": "N" 
			},
			{
				"x": -0.0297949478,
				"y": -1.6923627313,
				"z": -1.8101932396,
				"element": "C" 
			},
			{
				"x": 0.5364456139,
				"y": -0.8808614844,
				"z": 0.6658455713,
				"element": "S" 
			},
			{
				"x": -0.1981352118,
				"y": -2.0993483006,
				"z": 1.0198496733,
				"element": "O" 
			},
			{
				"x": 1.9940193627,
				"y": -0.8077085923,
				"z": 0.8463480216,
				"element": "O" 
			},
			{
				"x": -0.1784843334,
				"y": 0.5031073096,
				"z": 1.5561507378,
				"element": "C" 
			},
			{
				"x": 0.6866355764,
				"y": 1.422354135,
				"z": 2.1684107053,
				"element": "C" 
			},
			{
				"x": 0.077013579,
				"y": 2.4393731268,
				"z": 2.8743490586,
				"element": "C" 
			},
			{
				"x": -1.3152506679,
				"y": 2.5526863787,
				"z": 2.9858061185,
				"element": "C" 
			},
			{
				"x": -1.5250664125,
				"y": 3.6820394241,
				"z": 3.7619398842,
				"element": "N" 
			},
			{
				"x": -0.3152498462,
				"y": 4.2579152828,
				"z": 4.1279174451,
				"element": "C" 
			},
			{
				"x": -0.1097702905,
				"y": 5.2368115497,
				"z": 4.791817832,
				"element": "O" 
			},
			{
				"x": 0.6815110751,
				"y": 3.4658902157,
				"z": 3.5614472801,
				"element": "O" 
			},
			{
				"x": -2.1654192647,
				"y": 1.6319800597,
				"z": 2.382081671,
				"element": "C" 
			},
			{
				"x": -1.5711422992,
				"y": 0.5933108697,
				"z": 1.6596874012,
				"element": "C" 
			},
			{
				"x": 0.3941537695,
				"y": 0.8649801562,
				"z": -2.4695177307,
				"element": "H" 
			},
			{
				"x": 0.8683719119,
				"y": 1.4461559788,
				"z": -0.8686076728,
				"element": "H" 
			},
			{
				"x": 1.9168384748,
				"y": 0.2919120216,
				"z": -1.7306728652,
				"element": "H" 
			},
			{
				"x": 0.9455836201,
				"y": -2.1079120614,
				"z": -2.1008792451,
				"element": "H" 
			},
			{
				"x": -0.6100879266,
				"y": -2.4611108164,
				"z": -1.3015565008,
				"element": "H" 
			},
			{
				"x": -0.5625520761,
				"y": -1.3814608158,
				"z": -2.713462647,
				"element": "H" 
			},
			{
				"x": 1.76226532,
				"y": 1.3198203282,
				"z": 2.0929898603,
				"element": "H" 
			},
			{
				"x": -2.4050247895,
				"y": 4.0717739791,
				"z": 4.0606459761,
				"element": "H" 
			},
			{
				"x": -3.2438218089,
				"y": 1.707771684,
				"z": 2.4689458472,
				"element": "H" 
			},
			{
				"x": -2.1892338326,
				"y": -0.1563466465,
				"z": 1.1791942698,
				"element": "H" 
			}
		],
		 "valence_orbital": [ 
			{
				"type": "occ",
				"energy": -0.30536,
				"method": "rhf"
			},
			{
				"type": "occ",
				"energy": -0.30178,
				"method": "rhf"
			},
			{
				"type": "occ",
				"energy": -0.27846,
				"method": "rhf"
			},
			{
				"type": "occ",
				"energy": -0.26157,
				"method": "rhf"
			},
			{
				"type": "occ",
				"energy": -0.24288,
				"method": "rhf"
			},
			{
				"type": "unocc",
				"energy": -0.04478,
				"method": "rhf"
			},
			{
				"type": "unocc",
				"energy": -0.0305,
				"method": "rhf"
			},
			{
				"type": "unocc",
				"energy": 0.0313,
				"method": "rhf"
			},
			{
				"type": "unocc",
				"energy": 0.05146,
				"method": "rhf"
			},
			{
				"type": "unocc",
				"energy": 0.06029,
				"method": "rhf"
			}
		],
		"cosmo_sigma_profile": { 
			"-0.025": 0.0,
			"-0.024": 0.0,
			"-0.023": 0.0,
			"-0.022": 0.0,
			"-0.021": 0.0,
			"-0.02": 0.0,
			"-0.019": 0.0,
			"-0.018": 1.02575354305,
			"-0.017": 1.61406627794,
			"-0.016": 1.43534416847,
			"-0.015": 1.0762666835,
			"-0.014": 0.861221591522,
			"-0.013": 1.34046366697,
			"-0.012": 1.15403700419,
			"-0.011": 1.01804650606,
			"-0.01": 1.48065727541,
			"-0.009": 2.71809495621,
			"-0.008": 4.60729453955,
			"-0.007": 5.63740173346,
			"-0.006": 11.7578165189,
			"-0.005": 15.4528863004,
			"-0.004": 22.6407333092,
			"-0.003": 22.8430777871,
			"-0.002": 26.0894106546,
			"-0.001": 17.1403825749,
			"0.0": 13.2870300074,
			"0.001": 12.7355907249,
			"0.002": 10.5251673032,
			"0.003": 8.64065827305,
			"0.004": 5.54056583915,
			"0.005": 5.86779443918,
			"0.006": 6.38540357702,
			"0.007": 7.43877167111,
			"0.008": 5.84566073839,
			"0.009": 5.12296174503,
			"0.01": 9.80027191957,
			"0.011": 14.6256504034,
			"0.012": 6.45389550989,
			"0.013": 0.0193137441884,
			"0.014": 0.0,
			"0.015": 0.0,
			"0.016": 0.0,
			"0.017": 0.0,
			"0.018": 0.0,
			"0.019": 0.0,
			"0.02": 0.0,
			"0.021": 0.0,
			"0.022": 0.0,
			"0.023": 0.0,
			"0.024": 0.0,
			"0.025": 0.0
		}
	}
}
