{
	 "smiles": "OC(=O)C1=CC(CN2CCS(=O)(=O)CC2)=CC=C1", 
	 "Tm": 504.15, 
	 "num_atms": 33, 
	 "gaussian": { 
		 "optdone": 1, 
		 "sigma_profile": "yes", 
		 "theory": "DFT", 
		 "functional": "B3LYP", 
		 "basiset": "6-31G**", 
		 "properties": { 
			 "R2extent": 7870.8914, 
			 "electric_dipole_moment_norm": 4.49898038449, 
			 "electric_quadrupole_moment_norm": 34.3133600208, 
			 "total_energy": -1220.09442476, 
			 "HOMO_LUMO_gap": 0.19524, 
			 "cosmo_polarized_energy": -27.82, 
			 "cosmo_cavitation_energy": 36.97, 
			 "cosmo_dispersion_energy": -26.53, 
			 "cosmo_repulsion_energy": 2.0, 
			 "cosmo_total_nonelectrostatic_energy": 12.43, 
			 "SMD_solvation_energy": 4.95 
		},
		"coords": [
			{
				"x": 0.1483838378,
				"y": 3.10550368,
				"z": 3.7062304876,
				"element": "O" 
			},
			{
				"x": 1.4313493215,
				"y": 2.8699012581,
				"z": 3.322894109,
				"element": "C" 
			},
			{
				"x": 2.3362459164,
				"y": 3.4887819754,
				"z": 3.8311062479,
				"element": "O" 
			},
			{
				"x": 1.6434550419,
				"y": 1.8263556081,
				"z": 2.2645140572,
				"element": "C" 
			},
			{
				"x": 0.6285779024,
				"y": 1.4004051205,
				"z": 1.3999183349,
				"element": "C" 
			},
			{
				"x": 0.8787975938,
				"y": 0.436856915,
				"z": 0.415124392,
				"element": "C" 
			},
			{
				"x": -0.2143545923,
				"y": 0.0367084384,
				"z": -0.5584627598,
				"element": "C" 
			},
			{
				"x": -1.5037283061,
				"y": -0.2125928251,
				"z": 0.0976758763,
				"element": "N" 
			},
			{
				"x": -1.4648554658,
				"y": -1.4456402751,
				"z": 0.896433911,
				"element": "C" 
			},
			{
				"x": -2.6742137321,
				"y": -1.5659910951,
				"z": 1.8265299871,
				"element": "C" 
			},
			{
				"x": -4.2150769405,
				"y": -1.6280525996,
				"z": 0.8707178571,
				"element": "S" 
			},
			{
				"x": -5.3588322952,
				"y": -1.4067946035,
				"z": 1.7669619312,
				"element": "O" 
			},
			{
				"x": -4.1541916993,
				"y": -2.8145937425,
				"z": -0.0015563728,
				"element": "O" 
			},
			{
				"x": -3.9720100624,
				"y": -0.1636900164,
				"z": -0.1721239755,
				"element": "C" 
			},
			{
				"x": -2.6091976653,
				"y": -0.2123648794,
				"z": -0.8684847404,
				"element": "C" 
			},
			{
				"x": 2.1652038453,
				"y": -0.1021415854,
				"z": 0.3146558343,
				"element": "C" 
			},
			{
				"x": 3.1890233506,
				"y": 0.3277907626,
				"z": 1.1641182567,
				"element": "C" 
			},
			{
				"x": 2.9346143845,
				"y": 1.2950997108,
				"z": 2.1304017759,
				"element": "C" 
			},
			{
				"x": -0.4421821115,
				"y": 2.4417842324,
				"z": 3.3245633818,
				"element": "H" 
			},
			{
				"x": -0.3737077314,
				"y": 1.8192497234,
				"z": 1.4491413669,
				"element": "H" 
			},
			{
				"x": -0.3669078688,
				"y": 0.8564669742,
				"z": -1.2716325356,
				"element": "H" 
			},
			{
				"x": 0.1242567119,
				"y": -0.8312807344,
				"z": -1.1532258514,
				"element": "H" 
			},
			{
				"x": -0.5619202306,
				"y": -1.4238852469,
				"z": 1.5136721258,
				"element": "H" 
			},
			{
				"x": -1.4089137209,
				"y": -2.34521244,
				"z": 0.2588705676,
				"element": "H" 
			},
			{
				"x": -2.7536716978,
				"y": -0.7130510489,
				"z": 2.5052151202,
				"element": "H" 
			},
			{
				"x": -2.6474810392,
				"y": -2.492497563,
				"z": 2.4063999383,
				"element": "H" 
			},
			{
				"x": -4.7945613861,
				"y": -0.173175361,
				"z": -0.8923577253,
				"element": "H" 
			},
			{
				"x": -4.064305813,
				"y": 0.7106411292,
				"z": 0.4770765537,
				"element": "H" 
			},
			{
				"x": -2.5800194627,
				"y": -1.088338347,
				"z": -1.5395656924,
				"element": "H" 
			},
			{
				"x": -2.5180874204,
				"y": 0.6822329384,
				"z": -1.4936450878,
				"element": "H" 
			},
			{
				"x": 2.3700634171,
				"y": -0.8586913843,
				"z": -0.4387631224,
				"element": "H" 
			},
			{
				"x": 4.1840092032,
				"y": -0.0964716683,
				"z": 1.0692838216,
				"element": "H" 
			},
			{
				"x": 3.7132387149,
				"y": 1.6530869495,
				"z": 2.7949119293,
				"element": "H" 
			}
		],
		 "valence_orbital": [ 
			{
				"type": "occ",
				"energy": -0.28673,
				"method": "rhf"
			},
			{
				"type": "occ",
				"energy": -0.28328,
				"method": "rhf"
			},
			{
				"type": "occ",
				"energy": -0.27834,
				"method": "rhf"
			},
			{
				"type": "occ",
				"energy": -0.26996,
				"method": "rhf"
			},
			{
				"type": "occ",
				"energy": -0.25399,
				"method": "rhf"
			},
			{
				"type": "unocc",
				"energy": -0.05875,
				"method": "rhf"
			},
			{
				"type": "unocc",
				"energy": -0.03437,
				"method": "rhf"
			},
			{
				"type": "unocc",
				"energy": 0.03917,
				"method": "rhf"
			},
			{
				"type": "unocc",
				"energy": 0.04455,
				"method": "rhf"
			},
			{
				"type": "unocc",
				"energy": 0.05786,
				"method": "rhf"
			}
		],
		"cosmo_sigma_profile": { 
			"-0.025": 0.0,
			"-0.024": 0.0,
			"-0.023": 0.0,
			"-0.022": 0.0,
			"-0.021": 0.0,
			"-0.02": 0.0,
			"-0.019": 0.0,
			"-0.018": 0.399526014324,
			"-0.017": 0.949792712167,
			"-0.016": 0.987614881162,
			"-0.015": 1.00134907481,
			"-0.014": 0.978790456042,
			"-0.013": 0.613113705859,
			"-0.012": 1.27363984619,
			"-0.011": 1.06871060473,
			"-0.01": 0.932256408132,
			"-0.009": 3.66990073718,
			"-0.008": 8.71434779022,
			"-0.007": 12.5141672497,
			"-0.006": 22.288747438,
			"-0.005": 23.6787139472,
			"-0.004": 28.2971684816,
			"-0.003": 24.6845855388,
			"-0.002": 18.3014079031,
			"-0.001": 13.1630929202,
			"0.0": 11.0278564022,
			"0.001": 10.6016620874,
			"0.002": 13.8385691098,
			"0.003": 15.4201764833,
			"0.004": 8.55359055047,
			"0.005": 4.58735445582,
			"0.006": 5.4048674906,
			"0.007": 4.95166425009,
			"0.008": 5.30225874232,
			"0.009": 5.14666203753,
			"0.01": 8.98395021001,
			"0.011": 13.9357502177,
			"0.012": 16.4153526658,
			"0.013": 4.07972752031,
			"0.014": 0.0850251152141,
			"0.015": 0.0,
			"0.016": 0.0,
			"0.017": 0.0,
			"0.018": 0.0,
			"0.019": 0.0,
			"0.02": 0.0,
			"0.021": 0.0,
			"0.022": 0.0,
			"0.023": 0.0,
			"0.024": 0.0,
			"0.025": 0.0
		}
	}
}
