{
	 "smiles": "COC1=CC=C(C=C1)C1(CCCCC1)C#N", 
	 "Tm": 316.15, 
	 "num_atms": 33, 
	 "gaussian": { 
		 "optdone": 1, 
		 "sigma_profile": "yes", 
		 "theory": "DFT", 
		 "functional": "B3LYP", 
		 "basiset": "6-31G**", 
		 "properties": { 
			 "R2extent": 4378.1924, 
			 "electric_dipole_moment_norm": 5.24290979133, 
			 "electric_quadrupole_moment_norm": 11.3408275712, 
			 "total_energy": -673.684328987, 
			 "HOMO_LUMO_gap": 0.21253, 
			 "cosmo_polarized_energy": -11.39, 
			 "cosmo_cavitation_energy": 33.97, 
			 "cosmo_dispersion_energy": -24.11, 
			 "cosmo_repulsion_energy": 1.88, 
			 "cosmo_total_nonelectrostatic_energy": 11.74, 
			 "SMD_solvation_energy": 6.98 
		},
		"coords": [
			{
				"x": -2.3537328403,
				"y": 4.0758477908,
				"z": -2.2939579342,
				"element": "C" 
			},
			{
				"x": -2.4202633764,
				"y": 3.6619398655,
				"z": -0.9383842282,
				"element": "O" 
			},
			{
				"x": -1.6377586995,
				"y": 2.6175465735,
				"z": -0.5443132138,
				"element": "C" 
			},
			{
				"x": -1.753521597,
				"y": 2.2393072357,
				"z": 0.8024200246,
				"element": "C" 
			},
			{
				"x": -0.9980814015,
				"y": 1.1883912909,
				"z": 1.2985008856,
				"element": "C" 
			},
			{
				"x": -0.1007919737,
				"y": 0.4723029015,
				"z": 0.4828684489,
				"element": "C" 
			},
			{
				"x": -0.0045872042,
				"y": 0.8582098466,
				"z": -0.8546302068,
				"element": "C" 
			},
			{
				"x": -0.7578760059,
				"y": 1.9184509203,
				"z": -1.3737225304,
				"element": "C" 
			},
			{
				"x": 0.7382349327,
				"y": -0.6615113694,
				"z": 1.1171428299,
				"element": "C" 
			},
			{
				"x": 1.5007328413,
				"y": -1.5850348341,
				"z": 0.0965149829,
				"element": "C" 
			},
			{
				"x": 3.0051642684,
				"y": -1.2576008188,
				"z": -0.0378941432,
				"element": "C" 
			},
			{
				"x": 3.3048862339,
				"y": 0.2438132768,
				"z": 0.0596373813,
				"element": "C" 
			},
			{
				"x": 2.8142814348,
				"y": 0.8360105572,
				"z": 1.4063693285,
				"element": "C" 
			},
			{
				"x": 1.7814979801,
				"y": -0.060380454,
				"z": 2.1140092473,
				"element": "C" 
			},
			{
				"x": -0.1803417056,
				"y": -1.519390669,
				"z": 1.8944004217,
				"element": "C" 
			},
			{
				"x": -0.8814049438,
				"y": -2.2028199481,
				"z": 2.5198725717,
				"element": "N" 
			},
			{
				"x": -3.0518951131,
				"y": 4.9087062623,
				"z": -2.3897014833,
				"element": "H" 
			},
			{
				"x": -2.6551522957,
				"y": 3.2720614924,
				"z": -2.9779619035,
				"element": "H" 
			},
			{
				"x": -1.3460985713,
				"y": 4.417312296,
				"z": -2.5643950904,
				"element": "H" 
			},
			{
				"x": -2.4483114055,
				"y": 2.7802737303,
				"z": 1.4363812618,
				"element": "H" 
			},
			{
				"x": -1.1216566991,
				"y": 0.9032195362,
				"z": 2.3395169971,
				"element": "H" 
			},
			{
				"x": 0.663465046,
				"y": 0.3404483649,
				"z": -1.5329638053,
				"element": "H" 
			},
			{
				"x": -0.6476255084,
				"y": 2.1789710808,
				"z": -2.4196381958,
				"element": "H" 
			},
			{
				"x": 1.0024379937,
				"y": -1.5351102319,
				"z": -0.8745859809,
				"element": "H" 
			},
			{
				"x": 1.3975399936,
				"y": -2.6223342797,
				"z": 0.4266480777,
				"element": "H" 
			},
			{
				"x": 3.3744310902,
				"y": -1.6612673376,
				"z": -0.987386071,
				"element": "H" 
			},
			{
				"x": 3.5611603283,
				"y": -1.7828077503,
				"z": 0.7486396903,
				"element": "H" 
			},
			{
				"x": 2.8176232906,
				"y": 0.7639090826,
				"z": -0.7719608898,
				"element": "H" 
			},
			{
				"x": 4.3795785787,
				"y": 0.4167648398,
				"z": -0.0622473996,
				"element": "H" 
			},
			{
				"x": 2.3820089073,
				"y": 1.8273811707,
				"z": 1.2383996546,
				"element": "H" 
			},
			{
				"x": 3.6588575957,
				"y": 0.978139363,
				"z": 2.0898832985,
				"element": "H" 
			},
			{
				"x": 2.2829126289,
				"y": -0.8960137914,
				"z": 2.6154934355,
				"element": "H" 
			},
			{
				"x": 1.2625861968,
				"y": 0.5037640065,
				"z": 2.8943445383,
				"element": "H" 
			}
		],
		 "valence_orbital": [ 
			{
				"type": "occ",
				"energy": -0.31609,
				"method": "rhf"
			},
			{
				"type": "occ",
				"energy": -0.30535,
				"method": "rhf"
			},
			{
				"type": "occ",
				"energy": -0.29754,
				"method": "rhf"
			},
			{
				"type": "occ",
				"energy": -0.25657,
				"method": "rhf"
			},
			{
				"type": "occ",
				"energy": -0.22294,
				"method": "rhf"
			},
			{
				"type": "unocc",
				"energy": -0.01041,
				"method": "rhf"
			},
			{
				"type": "unocc",
				"energy": -0.00026,
				"method": "rhf"
			},
			{
				"type": "unocc",
				"energy": 0.04736,
				"method": "rhf"
			},
			{
				"type": "unocc",
				"energy": 0.05567,
				"method": "rhf"
			},
			{
				"type": "unocc",
				"energy": 0.06778,
				"method": "rhf"
			}
		],
		"cosmo_sigma_profile": { 
			"-0.025": 0.0,
			"-0.024": 0.0,
			"-0.023": 0.0,
			"-0.022": 0.0,
			"-0.021": 0.0,
			"-0.02": 0.0,
			"-0.019": 0.0,
			"-0.018": 0.0,
			"-0.017": 0.0,
			"-0.016": 0.0,
			"-0.015": 0.0,
			"-0.014": 0.0,
			"-0.013": 0.0,
			"-0.012": 0.0,
			"-0.011": 0.0,
			"-0.01": 0.0,
			"-0.009": 0.0,
			"-0.008": 0.0,
			"-0.007": 0.973739987305,
			"-0.006": 11.3091442889,
			"-0.005": 20.3591509723,
			"-0.004": 25.1699900303,
			"-0.003": 32.3668499301,
			"-0.002": 31.4328884874,
			"-0.001": 31.0108000103,
			"0.0": 22.8196653153,
			"0.001": 15.5808511523,
			"0.002": 9.14024236544,
			"0.003": 12.5453940067,
			"0.004": 12.6046073623,
			"0.005": 11.2315370351,
			"0.006": 4.32043986022,
			"0.007": 3.43068234224,
			"0.008": 3.80344990245,
			"0.009": 4.93328849151,
			"0.01": 4.75227290879,
			"0.011": 3.80770401764,
			"0.012": 2.37819657474,
			"0.013": 2.50478743022,
			"0.014": 0.865469628279,
			"0.015": 0.0,
			"0.016": 0.0,
			"0.017": 0.0,
			"0.018": 0.0,
			"0.019": 0.0,
			"0.02": 0.0,
			"0.021": 0.0,
			"0.022": 0.0,
			"0.023": 0.0,
			"0.024": 0.0,
			"0.025": 0.0
		}
	}
}
