{
	 "smiles": "NC1=NC(Cl)=CC(O)=N1", 
	 "Tm": 535.15, 
	 "num_atms": 13, 
	 "gaussian": { 
		 "optdone": 1, 
		 "sigma_profile": "yes", 
		 "theory": "DFT", 
		 "functional": "B3LYP", 
		 "basiset": "6-31G**", 
		 "properties": { 
			 "R2extent": 1770.0617, 
			 "electric_dipole_moment_norm": 1.23991630766, 
			 "electric_quadrupole_moment_norm": 16.3845648136, 
			 "total_energy": -854.522578591, 
			 "HOMO_LUMO_gap": 0.20952, 
			 "cosmo_polarized_energy": -15.12, 
			 "cosmo_cavitation_energy": 19.73, 
			 "cosmo_dispersion_energy": -15.33, 
			 "cosmo_repulsion_energy": 1.29, 
			 "cosmo_total_nonelectrostatic_energy": 5.69, 
			 "SMD_solvation_energy": 0.72 
		},
		"coords": [
			{
				"x": -1.2572406754,
				"y": 0.9900676171,
				"z": 2.05378013,
				"element": "N" 
			},
			{
				"x": -0.2319705523,
				"y": 0.3331540037,
				"z": 1.4549987314,
				"element": "C" 
			},
			{
				"x": -0.5347628773,
				"y": -0.8499895277,
				"z": 0.8737812377,
				"element": "N" 
			},
			{
				"x": 0.4769522119,
				"y": -1.44756266,
				"z": 0.2770317776,
				"element": "C" 
			},
			{
				"x": 0.1335949077,
				"y": -2.9919047655,
				"z": -0.493598161,
				"element": "Cl" 
			},
			{
				"x": 1.7741371026,
				"y": -0.9518012319,
				"z": 0.2177990821,
				"element": "C" 
			},
			{
				"x": 1.9522176627,
				"y": 0.2818159652,
				"z": 0.8684022228,
				"element": "C" 
			},
			{
				"x": 3.1507174489,
				"y": 0.9003546657,
				"z": 0.9128917565,
				"element": "O" 
			},
			{
				"x": 0.9723796176,
				"y": 0.9281754393,
				"z": 1.484735061,
				"element": "N" 
			},
			{
				"x": -2.1345147616,
				"y": 0.5102504919,
				"z": 2.1667460905,
				"element": "H" 
			},
			{
				"x": -1.0467700051,
				"y": 1.8013267738,
				"z": 2.610791702,
				"element": "H" 
			},
			{
				"x": 2.5734794371,
				"y": -1.4810612004,
				"z": -0.2846911176,
				"element": "H" 
			},
			{
				"x": 3.8041804831,
				"y": 0.3640744288,
				"z": 0.4439314871,
				"element": "H" 
			}
		],
		 "valence_orbital": [ 
			{
				"type": "occ",
				"energy": -0.316,
				"method": "rhf"
			},
			{
				"type": "occ",
				"energy": -0.2989,
				"method": "rhf"
			},
			{
				"type": "occ",
				"energy": -0.28266,
				"method": "rhf"
			},
			{
				"type": "occ",
				"energy": -0.26638,
				"method": "rhf"
			},
			{
				"type": "occ",
				"energy": -0.23489,
				"method": "rhf"
			},
			{
				"type": "unocc",
				"energy": -0.02537,
				"method": "rhf"
			},
			{
				"type": "unocc",
				"energy": -0.00215,
				"method": "rhf"
			},
			{
				"type": "unocc",
				"energy": 0.0312,
				"method": "rhf"
			},
			{
				"type": "unocc",
				"energy": 0.0571,
				"method": "rhf"
			},
			{
				"type": "unocc",
				"energy": 0.0872,
				"method": "rhf"
			}
		],
		"cosmo_sigma_profile": { 
			"-0.025": 0.0,
			"-0.024": 0.0,
			"-0.023": 0.0,
			"-0.022": 0.0,
			"-0.021": 0.0,
			"-0.02": 0.229826158465,
			"-0.019": 1.13936999564,
			"-0.018": 1.24278591417,
			"-0.017": 1.36865588338,
			"-0.016": 0.75431040778,
			"-0.015": 1.07185245895,
			"-0.014": 2.62543368715,
			"-0.013": 2.96228944807,
			"-0.012": 3.4808941584,
			"-0.011": 3.0586799067,
			"-0.01": 3.42302217343,
			"-0.009": 3.17128709398,
			"-0.008": 2.72391353952,
			"-0.007": 3.76302395898,
			"-0.006": 2.45556306569,
			"-0.005": 2.91681013474,
			"-0.004": 2.89995856227,
			"-0.003": 3.94212238425,
			"-0.002": 7.92155066889,
			"-0.001": 9.85654740857,
			"0.0": 13.9691975034,
			"0.001": 12.9918912715,
			"0.002": 10.0897382011,
			"0.003": 11.3082945916,
			"0.004": 13.406299991,
			"0.005": 6.93487507344,
			"0.006": 5.48662533387,
			"0.007": 4.37358199728,
			"0.008": 3.17213630754,
			"0.009": 3.47084902697,
			"0.01": 3.60937200744,
			"0.011": 4.35866306925,
			"0.012": 2.18009891052,
			"0.013": 2.3126901305,
			"0.014": 1.16289196694,
			"0.015": 0.237842142614,
			"0.016": 0.0,
			"0.017": 0.0,
			"0.018": 0.0,
			"0.019": 0.0,
			"0.02": 0.0,
			"0.021": 0.0,
			"0.022": 0.0,
			"0.023": 0.0,
			"0.024": 0.0,
			"0.025": 0.0
		}
	}
}
