{
	 "smiles": "CCCC1(C)NC(=O)NC1=O", 
	 "Tm": 397.15, 
	 "num_atms": 23, 
	 "gaussian": { 
		 "optdone": 1, 
		 "sigma_profile": "yes", 
		 "theory": "DFT", 
		 "functional": "B3LYP", 
		 "basiset": "6-31G**", 
		 "properties": { 
			 "R2extent": 2857.2347, 
			 "electric_dipole_moment_norm": 2.61820307081, 
			 "electric_quadrupole_moment_norm": 15.1098022849, 
			 "total_energy": -533.984809346, 
			 "HOMO_LUMO_gap": 0.25219, 
			 "cosmo_polarized_energy": -14.95, 
			 "cosmo_cavitation_energy": 25.98, 
			 "cosmo_dispersion_energy": -18.33, 
			 "cosmo_repulsion_energy": 1.52, 
			 "cosmo_total_nonelectrostatic_energy": 9.16, 
			 "SMD_solvation_energy": 5.89 
		},
		"coords": [
			{
				"x": -2.3109537585,
				"y": 0.6781235168,
				"z": 1.3653268635,
				"element": "C" 
			},
			{
				"x": -1.0002251945,
				"y": -0.1009726076,
				"z": 1.5169930535,
				"element": "C" 
			},
			{
				"x": 0.1911495947,
				"y": 0.6392252139,
				"z": 0.8981297064,
				"element": "C" 
			},
			{
				"x": 1.5614330299,
				"y": -0.0552927049,
				"z": 1.0546955803,
				"element": "C" 
			},
			{
				"x": 2.6719645843,
				"y": 0.7681778192,
				"z": 0.3777151231,
				"element": "C" 
			},
			{
				"x": 1.8854124253,
				"y": -0.3755937493,
				"z": 2.4467451516,
				"element": "N" 
			},
			{
				"x": 2.1676831624,
				"y": -1.7009373522,
				"z": 2.6611174443,
				"element": "C" 
			},
			{
				"x": 2.556358037,
				"y": -2.2421841394,
				"z": 3.6750939024,
				"element": "O" 
			},
			{
				"x": 1.9021274672,
				"y": -2.3407667747,
				"z": 1.4295928235,
				"element": "N" 
			},
			{
				"x": 1.5306279197,
				"y": -1.4689016566,
				"z": 0.4299391785,
				"element": "C" 
			},
			{
				"x": 1.2449033375,
				"y": -1.7423366567,
				"z": -0.7175378291,
				"element": "O" 
			},
			{
				"x": -2.2525153409,
				"y": 1.6553854061,
				"z": 1.8583351137,
				"element": "H" 
			},
			{
				"x": -2.5504877502,
				"y": 0.8531644646,
				"z": 0.3105435703,
				"element": "H" 
			},
			{
				"x": -3.1486778245,
				"y": 0.13199675,
				"z": 1.810061834,
				"element": "H" 
			},
			{
				"x": -0.8016632751,
				"y": -0.2884849751,
				"z": 2.578656735,
				"element": "H" 
			},
			{
				"x": -1.1062259356,
				"y": -1.0830356604,
				"z": 1.0393902856,
				"element": "H" 
			},
			{
				"x": 0.2707552835,
				"y": 1.6442822255,
				"z": 1.3352168233,
				"element": "H" 
			},
			{
				"x": 0.0218056823,
				"y": 0.7762527659,
				"z": -0.1762920064,
				"element": "H" 
			},
			{
				"x": 2.7166248478,
				"y": 1.7742882853,
				"z": 0.8078404831,
				"element": "H" 
			},
			{
				"x": 2.4685388648,
				"y": 0.8563834347,
				"z": -0.6925666751,
				"element": "H" 
			},
			{
				"x": 3.6478848178,
				"y": 0.2916406629,
				"z": 0.5085421486,
				"element": "H" 
			},
			{
				"x": 2.1724744466,
				"y": 0.3085755009,
				"z": 3.1299694789,
				"element": "H" 
			},
			{
				"x": 1.9883055785,
				"y": -3.340289769,
				"z": 1.3135912109,
				"element": "H" 
			}
		],
		 "valence_orbital": [ 
			{
				"type": "occ",
				"energy": -0.33698,
				"method": "rhf"
			},
			{
				"type": "occ",
				"energy": -0.28932,
				"method": "rhf"
			},
			{
				"type": "occ",
				"energy": -0.28792,
				"method": "rhf"
			},
			{
				"type": "occ",
				"energy": -0.26684,
				"method": "rhf"
			},
			{
				"type": "occ",
				"energy": -0.26077,
				"method": "rhf"
			},
			{
				"type": "unocc",
				"energy": -0.00858,
				"method": "rhf"
			},
			{
				"type": "unocc",
				"energy": 0.06024,
				"method": "rhf"
			},
			{
				"type": "unocc",
				"energy": 0.06911,
				"method": "rhf"
			},
			{
				"type": "unocc",
				"energy": 0.09044,
				"method": "rhf"
			},
			{
				"type": "unocc",
				"energy": 0.10166,
				"method": "rhf"
			}
		],
		"cosmo_sigma_profile": { 
			"-0.025": 0.0,
			"-0.024": 0.0,
			"-0.023": 0.0,
			"-0.022": 0.0,
			"-0.021": 0.0,
			"-0.02": 0.0,
			"-0.019": 0.0,
			"-0.018": 0.0,
			"-0.017": 0.392699665722,
			"-0.016": 1.1971343123,
			"-0.015": 1.82571940895,
			"-0.014": 2.36181870031,
			"-0.013": 1.47954110967,
			"-0.012": 1.09245412217,
			"-0.011": 2.65337348098,
			"-0.01": 1.76022622004,
			"-0.009": 2.07836220711,
			"-0.008": 2.07894688686,
			"-0.007": 2.47377834496,
			"-0.006": 3.14483540318,
			"-0.005": 7.36607797588,
			"-0.004": 11.093547985,
			"-0.003": 18.1941319058,
			"-0.002": 26.0949156649,
			"-0.001": 28.2604865655,
			"0.0": 22.7294933779,
			"0.001": 14.4938798887,
			"0.002": 6.49731196875,
			"0.003": 3.01977063605,
			"0.004": 3.50268474037,
			"0.005": 2.49293215606,
			"0.006": 2.23801122227,
			"0.007": 2.68793496142,
			"0.008": 1.6005664874,
			"0.009": 3.1188298699,
			"0.01": 3.37911501831,
			"0.011": 3.93398780318,
			"0.012": 9.19765886353,
			"0.013": 8.65780952704,
			"0.014": 1.23871324775,
			"0.015": 0.0,
			"0.016": 0.0,
			"0.017": 0.0,
			"0.018": 0.0,
			"0.019": 0.0,
			"0.02": 0.0,
			"0.021": 0.0,
			"0.022": 0.0,
			"0.023": 0.0,
			"0.024": 0.0,
			"0.025": 0.0
		}
	}
}
