{
	 "smiles": "OC(=O)C1=C(OC2=CC(Br)=CC=C2)C=CC=C1", 
	 "Tm": 382.15, 
	 "num_atms": 26, 
	 "gaussian": { 
		 "optdone": 1, 
		 "sigma_profile": "yes", 
		 "theory": "DFT", 
		 "functional": "B3LYP", 
		 "basiset": "6-31G**", 
		 "properties": { 
			 "R2extent": 6566.4203, 
			 "electric_dipole_moment_norm": 2.47622365105, 
			 "electric_quadrupole_moment_norm": 14.1046225859, 
			 "total_energy": -3297.88555571, 
			 "HOMO_LUMO_gap": 0.16906, 
			 "cosmo_polarized_energy": -12.27, 
			 "cosmo_cavitation_energy": 33.63, 
			 "cosmo_dispersion_energy": -24.08, 
			 "cosmo_repulsion_energy": 1.89, 
			 "cosmo_total_nonelectrostatic_energy": 11.44, 
			 "SMD_solvation_energy": 5.88 
		},
		"coords": [
			{
				"x": -2.9039302287,
				"y": -1.9741408049,
				"z": 0.4714786869,
				"element": "O" 
			},
			{
				"x": -1.6290834106,
				"y": -1.6055716875,
				"z": 0.1720131121,
				"element": "C" 
			},
			{
				"x": -0.9289464738,
				"y": -1.0323220841,
				"z": 0.9799845752,
				"element": "O" 
			},
			{
				"x": -1.2466898813,
				"y": -1.9890014268,
				"z": -1.2158403318,
				"element": "C" 
			},
			{
				"x": 0.0664386943,
				"y": -1.8058431167,
				"z": -1.6985579173,
				"element": "C" 
			},
			{
				"x": 1.0829543228,
				"y": -1.3359083866,
				"z": -0.895894318,
				"element": "O" 
			},
			{
				"x": 1.2834627267,
				"y": 0.01736951,
				"z": -0.7375833667,
				"element": "C" 
			},
			{
				"x": 0.6127631841,
				"y": 0.983230622,
				"z": -1.4905381074,
				"element": "C" 
			},
			{
				"x": 0.9224663598,
				"y": 2.3246754298,
				"z": -1.2697865541,
				"element": "C" 
			},
			{
				"x": 0.0063717663,
				"y": 3.6557510247,
				"z": -2.2978486034,
				"element": "Br" 
			},
			{
				"x": 1.8728188884,
				"y": 2.7225410101,
				"z": -0.3350858108,
				"element": "C" 
			},
			{
				"x": 2.5294168978,
				"y": 1.7319612612,
				"z": 0.4018703288,
				"element": "C" 
			},
			{
				"x": 2.2430299609,
				"y": 0.384602993,
				"z": 0.2098431931,
				"element": "C" 
			},
			{
				"x": 0.4034918823,
				"y": -2.1937678349,
				"z": -2.9961482979,
				"element": "C" 
			},
			{
				"x": -0.5561041623,
				"y": -2.759724474,
				"z": -3.8331059268,
				"element": "C" 
			},
			{
				"x": -1.8617660905,
				"y": -2.9436062809,
				"z": -3.3734774116,
				"element": "C" 
			},
			{
				"x": -2.1967589136,
				"y": -2.564809697,
				"z": -2.0772646405,
				"element": "C" 
			},
			{
				"x": -3.050886278,
				"y": -1.6705864022,
				"z": 1.3821870042,
				"element": "H" 
			},
			{
				"x": -0.1282789491,
				"y": 0.703551085,
				"z": -2.2279961044,
				"element": "H" 
			},
			{
				"x": 2.0930207971,
				"y": 3.7724375914,
				"z": -0.185027401,
				"element": "H" 
			},
			{
				"x": 3.2722549652,
				"y": 2.0211799771,
				"z": 1.1393391801,
				"element": "H" 
			},
			{
				"x": 2.7384119073,
				"y": -0.3916451803,
				"z": 0.781864808,
				"element": "H" 
			},
			{
				"x": 1.4269397322,
				"y": -2.049094991,
				"z": -3.3254526447,
				"element": "H" 
			},
			{
				"x": -0.2824508321,
				"y": -3.0569821043,
				"z": -4.8411104969,
				"element": "H" 
			},
			{
				"x": -2.6138687979,
				"y": -3.3845964228,
				"z": -4.0198745503,
				"element": "H" 
			},
			{
				"x": -3.2048780673,
				"y": -2.7120996104,
				"z": -1.7093884047,
				"element": "H" 
			}
		],
		 "valence_orbital": [ 
			{
				"type": "occ",
				"energy": -0.27626,
				"method": "rhf"
			},
			{
				"type": "occ",
				"energy": -0.274,
				"method": "rhf"
			},
			{
				"type": "occ",
				"energy": -0.26104,
				"method": "rhf"
			},
			{
				"type": "occ",
				"energy": -0.24531,
				"method": "rhf"
			},
			{
				"type": "occ",
				"energy": -0.22645,
				"method": "rhf"
			},
			{
				"type": "unocc",
				"energy": -0.05739,
				"method": "rhf"
			},
			{
				"type": "unocc",
				"energy": -0.0204,
				"method": "rhf"
			},
			{
				"type": "unocc",
				"energy": -0.00806,
				"method": "rhf"
			},
			{
				"type": "unocc",
				"energy": 0.00413,
				"method": "rhf"
			},
			{
				"type": "unocc",
				"energy": 0.01129,
				"method": "rhf"
			}
		],
		"cosmo_sigma_profile": { 
			"-0.025": 0.0,
			"-0.024": 0.0,
			"-0.023": 0.0,
			"-0.022": 0.0,
			"-0.021": 0.0,
			"-0.02": 0.0,
			"-0.019": 0.0215110508395,
			"-0.018": 0.678883290848,
			"-0.017": 0.856737544379,
			"-0.016": 0.964356491077,
			"-0.015": 0.812458572672,
			"-0.014": 0.658044922616,
			"-0.013": 0.644663488229,
			"-0.012": 0.578795005412,
			"-0.011": 0.890795873408,
			"-0.01": 0.750314195737,
			"-0.009": 0.56364230821,
			"-0.008": 0.877310617798,
			"-0.007": 10.1156004951,
			"-0.006": 15.7728428874,
			"-0.005": 17.0244788384,
			"-0.004": 14.5963934202,
			"-0.003": 17.4874432555,
			"-0.002": 18.2901078201,
			"-0.001": 16.3601036206,
			"0.0": 18.5157918028,
			"0.001": 23.125620494,
			"0.002": 27.644386616,
			"0.003": 29.0094465188,
			"0.004": 20.7705972658,
			"0.005": 11.7910411198,
			"0.006": 4.61952028918,
			"0.007": 4.25671914072,
			"0.008": 3.54121325702,
			"0.009": 3.01177614559,
			"0.01": 3.77107617784,
			"0.011": 3.94812605426,
			"0.012": 1.69220075316,
			"0.013": 0.000841343514248,
			"0.014": 0.0,
			"0.015": 0.0,
			"0.016": 0.0,
			"0.017": 0.0,
			"0.018": 0.0,
			"0.019": 0.0,
			"0.02": 0.0,
			"0.021": 0.0,
			"0.022": 0.0,
			"0.023": 0.0,
			"0.024": 0.0,
			"0.025": 0.0
		}
	}
}
