{
	 "smiles": "COC1=CC=C(CC(=O)C2=CC=C(OC)C=C2)C=C1", 
	 "Tm": 384.15, 
	 "num_atms": 35, 
	 "gaussian": { 
		 "optdone": 1, 
		 "sigma_profile": "yes", 
		 "theory": "DFT", 
		 "functional": "B3LYP", 
		 "basiset": "6-31G**", 
		 "properties": { 
			 "R2extent": 7479.9312, 
			 "electric_dipole_moment_norm": 2.66458291295, 
			 "electric_quadrupole_moment_norm": 20.1989405272, 
			 "total_energy": -844.999049171, 
			 "HOMO_LUMO_gap": 0.16473, 
			 "cosmo_polarized_energy": -13.39, 
			 "cosmo_cavitation_energy": 39.0, 
			 "cosmo_dispersion_energy": -27.74, 
			 "cosmo_repulsion_energy": 2.13, 
			 "cosmo_total_nonelectrostatic_energy": 13.38, 
			 "SMD_solvation_energy": 8.41 
		},
		"coords": [
			{
				"x": -2.1553026023,
				"y": 4.8362386973,
				"z": 2.0208051309,
				"element": "C" 
			},
			{
				"x": -1.1427301162,
				"y": 3.9684156451,
				"z": 2.5030014408,
				"element": "O" 
			},
			{
				"x": -1.238219516,
				"y": 2.6383822158,
				"z": 2.2064312155,
				"element": "C" 
			},
			{
				"x": -0.2112798407,
				"y": 1.8262811059,
				"z": 2.7069628562,
				"element": "C" 
			},
			{
				"x": -0.2197276387,
				"y": 0.4589009583,
				"z": 2.4564909647,
				"element": "C" 
			},
			{
				"x": -1.2442301143,
				"y": -0.1390259999,
				"z": 1.7077296709,
				"element": "C" 
			},
			{
				"x": -1.2653734533,
				"y": -1.6384638062,
				"z": 1.4500681428,
				"element": "C" 
			},
			{
				"x": -1.4292964436,
				"y": -1.9679206367,
				"z": -0.0372546617,
				"element": "C" 
			},
			{
				"x": -2.5485327206,
				"y": -2.2039243718,
				"z": -0.4775762493,
				"element": "O" 
			},
			{
				"x": -0.2378660203,
				"y": -1.9743951772,
				"z": -0.9326968047,
				"element": "C" 
			},
			{
				"x": 1.0580083767,
				"y": -1.6248941929,
				"z": -0.5091788544,
				"element": "C" 
			},
			{
				"x": 2.1271953627,
				"y": -1.6527530374,
				"z": -1.3914246336,
				"element": "C" 
			},
			{
				"x": 1.9289064096,
				"y": -2.0382446521,
				"z": -2.7275128481,
				"element": "C" 
			},
			{
				"x": 3.0395745881,
				"y": -2.0384285455,
				"z": -3.5106630675,
				"element": "O" 
			},
			{
				"x": 2.9087897036,
				"y": -2.4129960025,
				"z": -4.8753757118,
				"element": "C" 
			},
			{
				"x": 0.6429433692,
				"y": -2.3884272285,
				"z": -3.1680906949,
				"element": "C" 
			},
			{
				"x": -0.4199518227,
				"y": -2.3492656319,
				"z": -2.2719715906,
				"element": "C" 
			},
			{
				"x": -2.2628014842,
				"y": 0.6838590367,
				"z": 1.2163530869,
				"element": "C" 
			},
			{
				"x": -2.2698581365,
				"y": 2.0595569441,
				"z": 1.4571775687,
				"element": "C" 
			},
			{
				"x": -2.2029262642,
				"y": 4.835245184,
				"z": 0.9240027839,
				"element": "H" 
			},
			{
				"x": -3.1425429816,
				"y": 4.57066795,
				"z": 2.42092863,
				"element": "H" 
			},
			{
				"x": -1.8862999852,
				"y": 5.8357155139,
				"z": 2.3664229463,
				"element": "H" 
			},
			{
				"x": 0.5796496317,
				"y": 2.288774242,
				"z": 3.2884714796,
				"element": "H" 
			},
			{
				"x": 0.5813163334,
				"y": -0.1567578781,
				"z": 2.8594676466,
				"element": "H" 
			},
			{
				"x": -0.3595008529,
				"y": -2.0979672217,
				"z": 1.8570310871,
				"element": "H" 
			},
			{
				"x": -2.124394064,
				"y": -2.0969545698,
				"z": 1.9503706286,
				"element": "H" 
			},
			{
				"x": 1.2340761152,
				"y": -1.3095262317,
				"z": 0.5132279998,
				"element": "H" 
			},
			{
				"x": 3.1285213814,
				"y": -1.3793146063,
				"z": -1.0759155299,
				"element": "H" 
			},
			{
				"x": 3.9095153517,
				"y": -2.3397108359,
				"z": -5.3031539201,
				"element": "H" 
			},
			{
				"x": 2.233943261,
				"y": -1.7378411261,
				"z": -5.4159321907,
				"element": "H" 
			},
			{
				"x": 2.5461866684,
				"y": -3.4432965989,
				"z": -4.9779355388,
				"element": "H" 
			},
			{
				"x": 0.4670067908,
				"y": -2.6873239493,
				"z": -4.1945786245,
				"element": "H" 
			},
			{
				"x": -1.4219586338,
				"y": -2.6130083065,
				"z": -2.5939451165,
				"element": "H" 
			},
			{
				"x": -3.0661462894,
				"y": 0.2428373673,
				"z": 0.632828406,
				"element": "H" 
			},
			{
				"x": -3.0773943629,
				"y": 2.6626657465,
				"z": 1.0591343515,
				"element": "H" 
			}
		],
		 "valence_orbital": [ 
			{
				"type": "occ",
				"energy": -0.25873,
				"method": "rhf"
			},
			{
				"type": "occ",
				"energy": -0.24847,
				"method": "rhf"
			},
			{
				"type": "occ",
				"energy": -0.2418,
				"method": "rhf"
			},
			{
				"type": "occ",
				"energy": -0.2272,
				"method": "rhf"
			},
			{
				"type": "occ",
				"energy": -0.21003,
				"method": "rhf"
			},
			{
				"type": "unocc",
				"energy": -0.0453,
				"method": "rhf"
			},
			{
				"type": "unocc",
				"energy": -0.00702,
				"method": "rhf"
			},
			{
				"type": "unocc",
				"energy": -0.0004,
				"method": "rhf"
			},
			{
				"type": "unocc",
				"energy": 0.01543,
				"method": "rhf"
			},
			{
				"type": "unocc",
				"energy": 0.05265,
				"method": "rhf"
			}
		],
		"cosmo_sigma_profile": { 
			"-0.025": 0.0,
			"-0.024": 0.0,
			"-0.023": 0.0,
			"-0.022": 0.0,
			"-0.021": 0.0,
			"-0.02": 0.0,
			"-0.019": 0.0,
			"-0.018": 0.0,
			"-0.017": 0.0,
			"-0.016": 0.0,
			"-0.015": 0.0,
			"-0.014": 0.0,
			"-0.013": 0.0,
			"-0.012": 0.0,
			"-0.011": 0.0,
			"-0.01": 0.0,
			"-0.009": 0.0521879027768,
			"-0.008": 0.982339538068,
			"-0.007": 5.16073800584,
			"-0.006": 20.6552432671,
			"-0.005": 32.295907492,
			"-0.004": 32.3654995095,
			"-0.003": 29.7039832268,
			"-0.002": 20.5622532525,
			"-0.001": 16.277516207,
			"0.0": 15.6217276341,
			"0.001": 17.3333638549,
			"0.002": 21.816032488,
			"0.003": 24.3177558663,
			"0.004": 24.3799214877,
			"0.005": 14.8624900577,
			"0.006": 8.77617987459,
			"0.007": 4.74415776911,
			"0.008": 3.47653914953,
			"0.009": 4.20847926306,
			"0.01": 3.884605407,
			"0.011": 2.80304667126,
			"0.012": 3.76867698515,
			"0.013": 2.01851205703,
			"0.014": 0.312083222756,
			"0.015": 0.0,
			"0.016": 0.0,
			"0.017": 0.0,
			"0.018": 0.0,
			"0.019": 0.0,
			"0.02": 0.0,
			"0.021": 0.0,
			"0.022": 0.0,
			"0.023": 0.0,
			"0.024": 0.0,
			"0.025": 0.0
		}
	}
}
