{
	 "smiles": "[O-][N+](=O)C1=C(Cl)C=CC=N1", 
	 "Tm": 364.15, 
	 "num_atms": 13, 
	 "gaussian": { 
		 "optdone": 1, 
		 "sigma_profile": "yes", 
		 "theory": "DFT", 
		 "functional": "B3LYP", 
		 "basiset": "6-31G**", 
		 "properties": { 
			 "R2extent": 3080.239, 
			 "electric_dipole_moment_norm": 5.54854085143, 
			 "electric_quadrupole_moment_norm": 14.3029086203, 
			 "total_energy": -912.356271613, 
			 "HOMO_LUMO_gap": 0.20184, 
			 "cosmo_polarized_energy": -9.51, 
			 "cosmo_cavitation_energy": 20.77, 
			 "cosmo_dispersion_energy": -15.08, 
			 "cosmo_repulsion_energy": 1.23, 
			 "cosmo_total_nonelectrostatic_energy": 6.92, 
			 "SMD_solvation_energy": 4.65 
		},
		"coords": [
			{
				"x": 2.4752910027,
				"y": 1.5792391429,
				"z": 3.0039778517,
				"element": "O" 
			},
			{
				"x": 1.9101588051,
				"y": 2.4506386468,
				"z": 2.3563503429,
				"element": "N" 
			},
			{
				"x": 1.8327854496,
				"y": 3.6410407602,
				"z": 2.6303711202,
				"element": "O" 
			},
			{
				"x": 1.2570961222,
				"y": 2.0182079395,
				"z": 1.0929711485,
				"element": "C" 
			},
			{
				"x": -0.0756215595,
				"y": 1.6042090753,
				"z": 1.0992531129,
				"element": "C" 
			},
			{
				"x": -1.0187760004,
				"y": 1.5754080282,
				"z": 2.5614008292,
				"element": "Cl" 
			},
			{
				"x": -0.6269533461,
				"y": 1.2115251527,
				"z": -0.119828344,
				"element": "C" 
			},
			{
				"x": 0.1730042611,
				"y": 1.2539659182,
				"z": -1.2605916319,
				"element": "C" 
			},
			{
				"x": 1.4937887437,
				"y": 1.6870289712,
				"z": -1.1410244788,
				"element": "C" 
			},
			{
				"x": 2.0298724349,
				"y": 2.0654283114,
				"z": 0.0254928079,
				"element": "N" 
			},
			{
				"x": -1.6593869388,
				"y": 0.8821659231,
				"z": -0.1626601381,
				"element": "H" 
			},
			{
				"x": -0.2236906969,
				"y": 0.9556163215,
				"z": -2.225117598,
				"element": "H" 
			},
			{
				"x": 2.1493317223,
				"y": 1.7344258092,
				"z": -2.0062950227,
				"element": "H" 
			}
		],
		 "valence_orbital": [ 
			{
				"type": "occ",
				"energy": -0.32659,
				"method": "rhf"
			},
			{
				"type": "occ",
				"energy": -0.32086,
				"method": "rhf"
			},
			{
				"type": "occ",
				"energy": -0.30652,
				"method": "rhf"
			},
			{
				"type": "occ",
				"energy": -0.29288,
				"method": "rhf"
			},
			{
				"type": "occ",
				"energy": -0.27907,
				"method": "rhf"
			},
			{
				"type": "unocc",
				"energy": -0.07723,
				"method": "rhf"
			},
			{
				"type": "unocc",
				"energy": -0.06401,
				"method": "rhf"
			},
			{
				"type": "unocc",
				"energy": -0.05156,
				"method": "rhf"
			},
			{
				"type": "unocc",
				"energy": 0.00127,
				"method": "rhf"
			},
			{
				"type": "unocc",
				"energy": 0.08787,
				"method": "rhf"
			}
		],
		"cosmo_sigma_profile": { 
			"-0.025": 0.0,
			"-0.024": 0.0,
			"-0.023": 0.0,
			"-0.022": 0.0,
			"-0.021": 0.0,
			"-0.02": 0.0,
			"-0.019": 0.0,
			"-0.018": 0.0,
			"-0.017": 0.0,
			"-0.016": 0.0,
			"-0.015": 0.0,
			"-0.014": 0.0,
			"-0.013": 0.0,
			"-0.012": 0.0,
			"-0.011": 0.0,
			"-0.01": 0.973556071283,
			"-0.009": 4.42776683106,
			"-0.008": 8.71530322917,
			"-0.007": 6.42852023426,
			"-0.006": 5.08533802797,
			"-0.005": 4.12050325708,
			"-0.004": 7.18782912665,
			"-0.003": 11.9879753491,
			"-0.002": 16.4529745488,
			"-0.001": 17.0665063343,
			"0.0": 13.7522065259,
			"0.001": 10.9458540626,
			"0.002": 13.3383002683,
			"0.003": 8.61462485935,
			"0.004": 5.6525031049,
			"0.005": 5.78681765522,
			"0.006": 11.1255351432,
			"0.007": 9.93155805652,
			"0.008": 5.12860398929,
			"0.009": 1.49423950607,
			"0.01": 0.606299198121,
			"0.011": 1.05283547998,
			"0.012": 0.277891659896,
			"0.013": 0.0,
			"0.014": 0.0,
			"0.015": 0.0,
			"0.016": 0.0,
			"0.017": 0.0,
			"0.018": 0.0,
			"0.019": 0.0,
			"0.02": 0.0,
			"0.021": 0.0,
			"0.022": 0.0,
			"0.023": 0.0,
			"0.024": 0.0,
			"0.025": 0.0
		}
	}
}
