{
	 "smiles": "[O-][N+](=O)C1=CC(C=O)=CC=C1SC1CCCCC1", 
	 "Tm": 368.15, 
	 "num_atms": 33, 
	 "gaussian": { 
		 "optdone": 1, 
		 "sigma_profile": "yes", 
		 "theory": "DFT", 
		 "functional": "B3LYP", 
		 "basiset": "6-31G**", 
		 "properties": { 
			 "R2extent": 5561.252, 
			 "electric_dipole_moment_norm": 5.15992260892, 
			 "electric_quadrupole_moment_norm": 12.7403584914, 
			 "total_energy": -1182.91823734, 
			 "HOMO_LUMO_gap": 0.14111, 
			 "cosmo_polarized_energy": -13.7, 
			 "cosmo_cavitation_energy": 36.99, 
			 "cosmo_dispersion_energy": -25.89, 
			 "cosmo_repulsion_energy": 1.96, 
			 "cosmo_total_nonelectrostatic_energy": 13.06, 
			 "SMD_solvation_energy": 8.16 
		},
		"coords": [
			{
				"x": -0.6463383944,
				"y": -2.0753721691,
				"z": -1.5344124609,
				"element": "O" 
			},
			{
				"x": 0.0449809807,
				"y": -1.0645751258,
				"z": -1.5276584417,
				"element": "N" 
			},
			{
				"x": 1.2707502569,
				"y": -1.0325786104,
				"z": -1.6392808931,
				"element": "O" 
			},
			{
				"x": -0.6394936669,
				"y": 0.2403873413,
				"z": -1.4154979321,
				"element": "C" 
			},
			{
				"x": -0.2398315641,
				"y": 1.2047805785,
				"z": -2.330086262,
				"element": "C" 
			},
			{
				"x": -0.8794642973,
				"y": 2.4490221496,
				"z": -2.3464748021,
				"element": "C" 
			},
			{
				"x": -0.4769540761,
				"y": 3.4761938544,
				"z": -3.3400418356,
				"element": "C" 
			},
			{
				"x": 0.3919901044,
				"y": 3.3155139731,
				"z": -4.1728414975,
				"element": "O" 
			},
			{
				"x": -1.8930632885,
				"y": 2.7131207789,
				"z": -1.420502284,
				"element": "C" 
			},
			{
				"x": -2.2539852151,
				"y": 1.7486472639,
				"z": -0.481553583,
				"element": "C" 
			},
			{
				"x": -1.6392066876,
				"y": 0.4861441975,
				"z": -0.4495781759,
				"element": "C" 
			},
			{
				"x": -2.1967109321,
				"y": -0.6886336364,
				"z": 0.7859298026,
				"element": "S" 
			},
			{
				"x": -0.9131811215,
				"y": -0.5650029829,
				"z": 2.1346772592,
				"element": "C" 
			},
			{
				"x": 0.4651066689,
				"y": -1.12539033,
				"z": 1.7654052744,
				"element": "C" 
			},
			{
				"x": 1.3231802148,
				"y": -1.3229068302,
				"z": 3.0430162525,
				"element": "C" 
			},
			{
				"x": 0.9902042473,
				"y": -0.2958860329,
				"z": 4.1520062051,
				"element": "C" 
			},
			{
				"x": 0.5121965325,
				"y": 1.0294914755,
				"z": 3.5465802998,
				"element": "C" 
			},
			{
				"x": -0.8064492146,
				"y": 0.8456820075,
				"z": 2.7525332314,
				"element": "C" 
			},
			{
				"x": 0.5538020686,
				"y": 0.9985274945,
				"z": -3.0393902537,
				"element": "H" 
			},
			{
				"x": -1.039448189,
				"y": 4.4327716612,
				"z": -3.270972428,
				"element": "H" 
			},
			{
				"x": -2.39346519,
				"y": 3.6783645732,
				"z": -1.4273686654,
				"element": "H" 
			},
			{
				"x": -3.0259514838,
				"y": 1.9589849581,
				"z": 0.2502742974,
				"element": "H" 
			},
			{
				"x": -1.3736779038,
				"y": -1.2452143371,
				"z": 2.8626364141,
				"element": "H" 
			},
			{
				"x": 0.3631068959,
				"y": -2.0712452366,
				"z": 1.2270194287,
				"element": "H" 
			},
			{
				"x": 0.9669411383,
				"y": -0.4278985307,
				"z": 1.0846529242,
				"element": "H" 
			},
			{
				"x": 2.3809781475,
				"y": -1.2463686309,
				"z": 2.7676504052,
				"element": "H" 
			},
			{
				"x": 1.1786892326,
				"y": -2.3381731315,
				"z": 3.4296785012,
				"element": "H" 
			},
			{
				"x": 0.2036421051,
				"y": -0.6922322213,
				"z": 4.8077602461,
				"element": "H" 
			},
			{
				"x": 1.8648309717,
				"y": -0.1354348105,
				"z": 4.7915536508,
				"element": "H" 
			},
			{
				"x": 1.2932373725,
				"y": 1.4177476182,
				"z": 2.8806041366,
				"element": "H" 
			},
			{
				"x": 0.3696369794,
				"y": 1.7869433777,
				"z": 4.3251058455,
				"element": "H" 
			},
			{
				"x": -0.8567367651,
				"y": 1.6037526651,
				"z": 1.9638717494,
				"element": "H" 
			},
			{
				"x": -1.6733159272,
				"y": 1.0129366478,
				"z": 3.4013035912,
				"element": "H" 
			}
		],
		 "valence_orbital": [ 
			{
				"type": "occ",
				"energy": -0.30705,
				"method": "rhf"
			},
			{
				"type": "occ",
				"energy": -0.28367,
				"method": "rhf"
			},
			{
				"type": "occ",
				"energy": -0.27936,
				"method": "rhf"
			},
			{
				"type": "occ",
				"energy": -0.27504,
				"method": "rhf"
			},
			{
				"type": "occ",
				"energy": -0.23767,
				"method": "rhf"
			},
			{
				"type": "unocc",
				"energy": -0.09656,
				"method": "rhf"
			},
			{
				"type": "unocc",
				"energy": -0.08143,
				"method": "rhf"
			},
			{
				"type": "unocc",
				"energy": -0.03245,
				"method": "rhf"
			},
			{
				"type": "unocc",
				"energy": 0.00339,
				"method": "rhf"
			},
			{
				"type": "unocc",
				"energy": 0.0337,
				"method": "rhf"
			}
		],
		"cosmo_sigma_profile": { 
			"-0.025": 0.0,
			"-0.024": 0.0,
			"-0.023": 0.0,
			"-0.022": 0.0,
			"-0.021": 0.0,
			"-0.02": 0.0,
			"-0.019": 0.0,
			"-0.018": 0.0,
			"-0.017": 0.0,
			"-0.016": 0.0,
			"-0.015": 0.0,
			"-0.014": 0.0,
			"-0.013": 0.0,
			"-0.012": 0.0,
			"-0.011": 0.0,
			"-0.01": 0.433960405011,
			"-0.009": 3.39072279653,
			"-0.008": 7.31561313798,
			"-0.007": 9.69624426569,
			"-0.006": 7.93185785499,
			"-0.005": 10.3706493174,
			"-0.004": 12.2567605984,
			"-0.003": 25.9431421865,
			"-0.002": 42.4251367492,
			"-0.001": 41.8220767972,
			"0.0": 33.0784389617,
			"0.001": 21.3812330158,
			"0.002": 7.49048435788,
			"0.003": 7.1845154062,
			"0.004": 7.59093311252,
			"0.005": 7.33156101373,
			"0.006": 7.18220712474,
			"0.007": 12.5118774851,
			"0.008": 10.1209821001,
			"0.009": 7.51937358654,
			"0.01": 5.67469515614,
			"0.011": 3.73001846344,
			"0.012": 1.02896686471,
			"0.013": 0.0094021584194,
			"0.014": 0.0,
			"0.015": 0.0,
			"0.016": 0.0,
			"0.017": 0.0,
			"0.018": 0.0,
			"0.019": 0.0,
			"0.02": 0.0,
			"0.021": 0.0,
			"0.022": 0.0,
			"0.023": 0.0,
			"0.024": 0.0,
			"0.025": 0.0
		}
	}
}
