{
	 "smiles": "NC1=CC(OCCF)=CC=C1", 
	 "Tm": 307.15, 
	 "num_atms": 21, 
	 "gaussian": { 
		 "optdone": 1, 
		 "sigma_profile": "yes", 
		 "theory": "DFT", 
		 "functional": "B3LYP", 
		 "basiset": "6-31G**", 
		 "properties": { 
			 "R2extent": 2501.7676, 
			 "electric_dipole_moment_norm": 3.77740436543, 
			 "electric_quadrupole_moment_norm": 6.95644057115, 
			 "total_energy": -540.675108779, 
			 "HOMO_LUMO_gap": 0.20882, 
			 "cosmo_polarized_energy": -12.69, 
			 "cosmo_cavitation_energy": 25.14, 
			 "cosmo_dispersion_energy": -18.48, 
			 "cosmo_repulsion_energy": 1.5, 
			 "cosmo_total_nonelectrostatic_energy": 8.16, 
			 "SMD_solvation_energy": 4.97 
		},
		"coords": [
			{
				"x": 2.9045959571,
				"y": -0.803223918,
				"z": -1.2603141507,
				"element": "N" 
			},
			{
				"x": 2.040280823,
				"y": 0.2631389992,
				"z": -0.9955604587,
				"element": "C" 
			},
			{
				"x": 0.6826516243,
				"y": 0.0114857117,
				"z": -0.7199759821,
				"element": "C" 
			},
			{
				"x": -0.1711628407,
				"y": 1.0686894775,
				"z": -0.3970997923,
				"element": "C" 
			},
			{
				"x": -1.5034106398,
				"y": 0.9170949079,
				"z": -0.1207684716,
				"element": "O" 
			},
			{
				"x": -2.0584469129,
				"y": -0.3864556988,
				"z": -0.1169549877,
				"element": "C" 
			},
			{
				"x": -3.5180559411,
				"y": -0.2762018386,
				"z": 0.2631337083,
				"element": "C" 
			},
			{
				"x": -3.6475838153,
				"y": 0.066192914,
				"z": 1.5998726736,
				"element": "F" 
			},
			{
				"x": 0.308868647,
				"y": 2.3852277985,
				"z": -0.3458278568,
				"element": "C" 
			},
			{
				"x": 1.6511880833,
				"y": 2.6210867089,
				"z": -0.620277702,
				"element": "C" 
			},
			{
				"x": 2.5211124342,
				"y": 1.5793980779,
				"z": -0.9451240654,
				"element": "C" 
			},
			{
				"x": 3.742976448,
				"y": -0.5528192419,
				"z": -1.7663420491,
				"element": "H" 
			},
			{
				"x": 2.4651675633,
				"y": -1.6254390867,
				"z": -1.6509232499,
				"element": "H" 
			},
			{
				"x": 0.3219030941,
				"y": -1.0105498912,
				"z": -0.7541994986,
				"element": "H" 
			},
			{
				"x": -1.5392150201,
				"y": -1.0325404085,
				"z": 0.6044569431,
				"element": "H" 
			},
			{
				"x": -1.9804089072,
				"y": -0.8492783768,
				"z": -1.1131028958,
				"element": "H" 
			},
			{
				"x": -4.0106541493,
				"y": 0.4904247444,
				"z": -0.3461996628,
				"element": "H" 
			},
			{
				"x": -4.012488021,
				"y": -1.2420096061,
				"z": 0.0967697133,
				"element": "H" 
			},
			{
				"x": -0.3767984298,
				"y": 3.1856207473,
				"z": -0.0922043431,
				"element": "H" 
			},
			{
				"x": 2.031305414,
				"y": 3.6382987225,
				"z": -0.5835138241,
				"element": "H" 
			},
			{
				"x": 3.5685745888,
				"y": 1.7803592567,
				"z": -1.1527440474,
				"element": "H" 
			}
		],
		 "valence_orbital": [ 
			{
				"type": "occ",
				"energy": -0.33398,
				"method": "rhf"
			},
			{
				"type": "occ",
				"energy": -0.32103,
				"method": "rhf"
			},
			{
				"type": "occ",
				"energy": -0.28573,
				"method": "rhf"
			},
			{
				"type": "occ",
				"energy": -0.22485,
				"method": "rhf"
			},
			{
				"type": "occ",
				"energy": -0.19481,
				"method": "rhf"
			},
			{
				"type": "unocc",
				"energy": 0.01401,
				"method": "rhf"
			},
			{
				"type": "unocc",
				"energy": 0.02559,
				"method": "rhf"
			},
			{
				"type": "unocc",
				"energy": 0.0802,
				"method": "rhf"
			},
			{
				"type": "unocc",
				"energy": 0.09788,
				"method": "rhf"
			},
			{
				"type": "unocc",
				"energy": 0.10443,
				"method": "rhf"
			}
		],
		"cosmo_sigma_profile": { 
			"-0.025": 0.0,
			"-0.024": 0.0,
			"-0.023": 0.0,
			"-0.022": 0.0,
			"-0.021": 0.0,
			"-0.02": 0.0,
			"-0.019": 0.0,
			"-0.018": 0.0,
			"-0.017": 0.0,
			"-0.016": 0.0,
			"-0.015": 0.0,
			"-0.014": 0.0,
			"-0.013": 0.129920327744,
			"-0.012": 2.33466594422,
			"-0.011": 3.05663330022,
			"-0.01": 2.52643084841,
			"-0.009": 3.03549362002,
			"-0.008": 2.73345103914,
			"-0.007": 6.71333167642,
			"-0.006": 17.9834806702,
			"-0.005": 18.4348768295,
			"-0.004": 13.3504152669,
			"-0.003": 10.9113236894,
			"-0.002": 9.69346972416,
			"-0.001": 6.82523204805,
			"0.0": 8.19839484461,
			"0.001": 7.10355257051,
			"0.002": 7.29255601307,
			"0.003": 8.61068412097,
			"0.004": 9.4089156944,
			"0.005": 13.3501373367,
			"0.006": 19.2748005537,
			"0.007": 15.6244569223,
			"0.008": 3.88110546329,
			"0.009": 3.52682717093,
			"0.01": 1.74204741319,
			"0.011": 0.624392536196,
			"0.012": 0.787117146774,
			"0.013": 0.17756599579,
			"0.014": 1.08754074048,
			"0.015": 0.203171287732,
			"0.016": 0.0,
			"0.017": 0.0,
			"0.018": 0.0,
			"0.019": 0.0,
			"0.02": 0.0,
			"0.021": 0.0,
			"0.022": 0.0,
			"0.023": 0.0,
			"0.024": 0.0,
			"0.025": 0.0
		}
	}
}
