{
	 "smiles": "CC(Cl)C(=O)NCC(=O)C1=CC=CC=C1", 
	 "Tm": 360.15, 
	 "num_atms": 27, 
	 "gaussian": { 
		 "optdone": 1, 
		 "sigma_profile": "yes", 
		 "theory": "DFT", 
		 "functional": "B3LYP", 
		 "basiset": "6-31G**", 
		 "properties": { 
			 "R2extent": 6114.2661, 
			 "electric_dipole_moment_norm": 1.29509212414, 
			 "electric_quadrupole_moment_norm": 21.8125899668, 
			 "total_energy": -1091.80366213, 
			 "HOMO_LUMO_gap": 0.18512, 
			 "cosmo_polarized_energy": -14.19, 
			 "cosmo_cavitation_energy": 32.38, 
			 "cosmo_dispersion_energy": -22.73, 
			 "cosmo_repulsion_energy": 1.79, 
			 "cosmo_total_nonelectrostatic_energy": 11.43, 
			 "SMD_solvation_energy": 6.41 
		},
		"coords": [
			{
				"x": 1.3569265196,
				"y": -2.5159286902,
				"z": -3.8662657142,
				"element": "C" 
			},
			{
				"x": 0.139679844,
				"y": -1.5966404535,
				"z": -3.8798038541,
				"element": "C" 
			},
			{
				"x": -0.8475416307,
				"y": -1.8047872129,
				"z": -2.3409878787,
				"element": "Cl" 
			},
			{
				"x": 0.4657562447,
				"y": -0.125283271,
				"z": -4.1841429054,
				"element": "C" 
			},
			{
				"x": 0.1506745389,
				"y": 0.3138541777,
				"z": -5.2826717573,
				"element": "O" 
			},
			{
				"x": 1.1211814363,
				"y": 0.6572008937,
				"z": -3.2722957357,
				"element": "N" 
			},
			{
				"x": 1.7942700792,
				"y": 0.293863079,
				"z": -2.0297758621,
				"element": "C" 
			},
			{
				"x": 1.9797726371,
				"y": 1.5084365767,
				"z": -1.1023618405,
				"element": "C" 
			},
			{
				"x": 3.1147818744,
				"y": 1.8067935965,
				"z": -0.7628469885,
				"element": "O" 
			},
			{
				"x": 0.7948098712,
				"y": 2.2821589471,
				"z": -0.6286953741,
				"element": "C" 
			},
			{
				"x": 1.0352074919,
				"y": 3.4628925753,
				"z": 0.095534512,
				"element": "C" 
			},
			{
				"x": -0.0257408601,
				"y": 4.2172848685,
				"z": 0.5841567882,
				"element": "C" 
			},
			{
				"x": -1.3412662109,
				"y": 3.797033074,
				"z": 0.3616274238,
				"element": "C" 
			},
			{
				"x": -1.5897776464,
				"y": 2.6219583168,
				"z": -0.3502354105,
				"element": "C" 
			},
			{
				"x": -0.5286314583,
				"y": 1.866491661,
				"z": -0.8482999671,
				"element": "C" 
			},
			{
				"x": 2.0403322538,
				"y": -2.2906593287,
				"z": -3.0450539218,
				"element": "H" 
			},
			{
				"x": 1.0416994695,
				"y": -3.5580535314,
				"z": -3.7766730669,
				"element": "H" 
			},
			{
				"x": 1.8971183201,
				"y": -2.3977292008,
				"z": -4.8119435862,
				"element": "H" 
			},
			{
				"x": -0.5463941518,
				"y": -1.8859185106,
				"z": -4.6736258284,
				"element": "H" 
			},
			{
				"x": 1.3418615658,
				"y": 1.5657312063,
				"z": -3.6632940225,
				"element": "H" 
			},
			{
				"x": 1.2088595361,
				"y": -0.4687592518,
				"z": -1.5095880494,
				"element": "H" 
			},
			{
				"x": 2.8029803321,
				"y": -0.0966957761,
				"z": -2.2058365289,
				"element": "H" 
			},
			{
				"x": 2.0643149575,
				"y": 3.7627336172,
				"z": 0.2625082402,
				"element": "H" 
			},
			{
				"x": 0.1676181277,
				"y": 5.1302497731,
				"z": 1.1396154294,
				"element": "H" 
			},
			{
				"x": -2.1709142457,
				"y": 4.3851715683,
				"z": 0.7436611074,
				"element": "H" 
			},
			{
				"x": -2.6105466824,
				"y": 2.2931599495,
				"z": -0.5202348043,
				"element": "H" 
			},
			{
				"x": -0.7358322133,
				"y": 0.9578413461,
				"z": -1.4016704041,
				"element": "H" 
			}
		],
		 "valence_orbital": [ 
			{
				"type": "occ",
				"energy": -0.27494,
				"method": "rhf"
			},
			{
				"type": "occ",
				"energy": -0.27002,
				"method": "rhf"
			},
			{
				"type": "occ",
				"energy": -0.26438,
				"method": "rhf"
			},
			{
				"type": "occ",
				"energy": -0.26292,
				"method": "rhf"
			},
			{
				"type": "occ",
				"energy": -0.25364,
				"method": "rhf"
			},
			{
				"type": "unocc",
				"energy": -0.06852,
				"method": "rhf"
			},
			{
				"type": "unocc",
				"energy": -0.02327,
				"method": "rhf"
			},
			{
				"type": "unocc",
				"energy": -0.01243,
				"method": "rhf"
			},
			{
				"type": "unocc",
				"energy": 0.02548,
				"method": "rhf"
			},
			{
				"type": "unocc",
				"energy": 0.03938,
				"method": "rhf"
			}
		],
		"cosmo_sigma_profile": { 
			"-0.025": 0.0,
			"-0.024": 0.0,
			"-0.023": 0.0,
			"-0.022": 0.0,
			"-0.021": 0.0,
			"-0.02": 0.0,
			"-0.019": 0.0,
			"-0.018": 0.0,
			"-0.017": 0.0,
			"-0.016": 0.0,
			"-0.015": 0.254891180083,
			"-0.014": 1.11984337068,
			"-0.013": 1.31706594791,
			"-0.012": 0.963936465607,
			"-0.011": 0.923436127652,
			"-0.01": 0.664293458912,
			"-0.009": 1.1351609388,
			"-0.008": 1.9190265229,
			"-0.007": 6.21208887457,
			"-0.006": 19.7092994648,
			"-0.005": 22.2292337836,
			"-0.004": 23.0248268216,
			"-0.003": 17.0170928252,
			"-0.002": 18.8878420127,
			"-0.001": 18.0674690609,
			"0.0": 16.2252950329,
			"0.001": 15.2396813817,
			"0.002": 16.5144754203,
			"0.003": 16.8967928622,
			"0.004": 18.3814258188,
			"0.005": 7.51396519521,
			"0.006": 5.09059733813,
			"0.007": 2.45004798277,
			"0.008": 3.02244268843,
			"0.009": 2.88658085458,
			"0.01": 4.11288557741,
			"0.011": 5.86234387017,
			"0.012": 5.48274445322,
			"0.013": 5.5227351871,
			"0.014": 0.768920186883,
			"0.015": 0.0,
			"0.016": 0.0,
			"0.017": 0.0,
			"0.018": 0.0,
			"0.019": 0.0,
			"0.02": 0.0,
			"0.021": 0.0,
			"0.022": 0.0,
			"0.023": 0.0,
			"0.024": 0.0,
			"0.025": 0.0
		}
	}
}
