{
	 "smiles": "BrC1=CC(=CC=C1)N1C(=O)C2C3CC(C=C3)C2C1=O", 
	 "Tm": 466.15, 
	 "num_atms": 31, 
	 "gaussian": { 
		 "optdone": 1, 
		 "sigma_profile": "yes", 
		 "theory": "DFT", 
		 "functional": "B3LYP", 
		 "basiset": "6-31G**", 
		 "properties": { 
			 "R2extent": 7787.7704, 
			 "electric_dipole_moment_norm": 3.38722776766, 
			 "electric_quadrupole_moment_norm": 15.5610431874, 
			 "total_energy": -3355.42263271, 
			 "HOMO_LUMO_gap": 0.21122, 
			 "cosmo_polarized_energy": -12.56, 
			 "cosmo_cavitation_energy": 35.79, 
			 "cosmo_dispersion_energy": -25.98, 
			 "cosmo_repulsion_energy": 2.0, 
			 "cosmo_total_nonelectrostatic_energy": 11.8, 
			 "SMD_solvation_energy": 5.26 
		},
		"coords": [
			{
				"x": -3.3697273772,
				"y": 1.0518604777,
				"z": 3.9488431323,
				"element": "Br" 
			},
			{
				"x": -1.709278982,
				"y": 0.1768845186,
				"z": 3.5814511261,
				"element": "C" 
			},
			{
				"x": -1.2696386552,
				"y": 0.0949746247,
				"z": 2.2636690039,
				"element": "C" 
			},
			{
				"x": -0.0548244361,
				"y": -0.5485045324,
				"z": 1.9980900193,
				"element": "C" 
			},
			{
				"x": 0.7017164827,
				"y": -1.0946765119,
				"z": 3.0411582732,
				"element": "C" 
			},
			{
				"x": 0.2385250472,
				"y": -0.9887089265,
				"z": 4.3511358293,
				"element": "C" 
			},
			{
				"x": -0.9712689851,
				"y": -0.3552520748,
				"z": 4.6364693658,
				"element": "C" 
			},
			{
				"x": 0.4138010385,
				"y": -0.6438585169,
				"z": 0.6510828608,
				"element": "N" 
			},
			{
				"x": -0.4260516268,
				"y": -0.8987479422,
				"z": -0.4574922617,
				"element": "C" 
			},
			{
				"x": -1.623569207,
				"y": -1.0754785304,
				"z": -0.396624349,
				"element": "O" 
			},
			{
				"x": 0.4323956838,
				"y": -0.9037607928,
				"z": -1.7094020622,
				"element": "C" 
			},
			{
				"x": 0.1411991504,
				"y": 0.2655123752,
				"z": -2.730760857,
				"element": "C" 
			},
			{
				"x": 1.5490868898,
				"y": 0.3906845616,
				"z": -3.3666875661,
				"element": "C" 
			},
			{
				"x": 2.2428750129,
				"y": 0.7129301658,
				"z": -2.0184531366,
				"element": "C" 
			},
			{
				"x": 1.3365136768,
				"y": 1.8253795517,
				"z": -1.5095604764,
				"element": "C" 
			},
			{
				"x": 0.0919923279,
				"y": 1.5613843322,
				"z": -1.9331192324,
				"element": "C" 
			},
			{
				"x": 1.8666317425,
				"y": -0.6003734436,
				"z": -1.2267982721,
				"element": "C" 
			},
			{
				"x": 1.7640062573,
				"y": -0.4464032445,
				"z": 0.2797415275,
				"element": "C" 
			},
			{
				"x": 2.667721725,
				"y": -0.1989535905,
				"z": 1.0486236121,
				"element": "O" 
			},
			{
				"x": -1.8626088597,
				"y": 0.5055569578,
				"z": 1.4593653828,
				"element": "H" 
			},
			{
				"x": 1.6455421026,
				"y": -1.5787645537,
				"z": 2.8292745327,
				"element": "H" 
			},
			{
				"x": 0.8265767341,
				"y": -1.4079750367,
				"z": 5.1617408401,
				"element": "H" 
			},
			{
				"x": -1.334438211,
				"y": -0.2762892944,
				"z": 5.6544521708,
				"element": "H" 
			},
			{
				"x": 0.3259956382,
				"y": -1.8731418701,
				"z": -2.2045922437,
				"element": "H" 
			},
			{
				"x": -0.7033389967,
				"y": 0.066470678,
				"z": -3.3906683404,
				"element": "H" 
			},
			{
				"x": 1.6159799379,
				"y": 1.2145982818,
				"z": -4.0819486993,
				"element": "H" 
			},
			{
				"x": 1.9047879397,
				"y": -0.5345025275,
				"z": -3.8346491936,
				"element": "H" 
			},
			{
				"x": 3.3126095345,
				"y": 0.9225255845,
				"z": -2.0300860527,
				"element": "H" 
			},
			{
				"x": 1.6507109362,
				"y": 2.6185098963,
				"z": -0.8405800609,
				"element": "H" 
			},
			{
				"x": -0.8169100824,
				"y": 2.0963915233,
				"z": -1.6819549197,
				"element": "H" 
			},
			{
				"x": 2.5864875612,
				"y": -1.3931721404,
				"z": -1.4499199529,
				"element": "H" 
			}
		],
		 "valence_orbital": [ 
			{
				"type": "occ",
				"energy": -0.28313,
				"method": "rhf"
			},
			{
				"type": "occ",
				"energy": -0.26258,
				"method": "rhf"
			},
			{
				"type": "occ",
				"energy": -0.25954,
				"method": "rhf"
			},
			{
				"type": "occ",
				"energy": -0.25202,
				"method": "rhf"
			},
			{
				"type": "occ",
				"energy": -0.23979,
				"method": "rhf"
			},
			{
				"type": "unocc",
				"energy": -0.02857,
				"method": "rhf"
			},
			{
				"type": "unocc",
				"energy": -0.02804,
				"method": "rhf"
			},
			{
				"type": "unocc",
				"energy": -0.01335,
				"method": "rhf"
			},
			{
				"type": "unocc",
				"energy": -0.0026,
				"method": "rhf"
			},
			{
				"type": "unocc",
				"energy": 0.00753,
				"method": "rhf"
			}
		],
		"cosmo_sigma_profile": { 
			"-0.025": 0.0,
			"-0.024": 0.0,
			"-0.023": 0.0,
			"-0.022": 0.0,
			"-0.021": 0.0,
			"-0.02": 0.0,
			"-0.019": 0.0,
			"-0.018": 0.0,
			"-0.017": 0.0,
			"-0.016": 0.0,
			"-0.015": 0.0,
			"-0.014": 0.0,
			"-0.013": 0.0,
			"-0.012": 0.0,
			"-0.011": 0.0,
			"-0.01": 0.0,
			"-0.009": 0.0,
			"-0.008": 0.653612768639,
			"-0.007": 11.3932571342,
			"-0.006": 20.0174219422,
			"-0.005": 22.73113166,
			"-0.004": 23.3544749892,
			"-0.003": 23.0543992339,
			"-0.002": 21.2445877901,
			"-0.001": 23.6490502984,
			"0.0": 20.7709179149,
			"0.001": 18.7415864887,
			"0.002": 23.309886372,
			"0.003": 21.1534723626,
			"0.004": 17.0540825228,
			"0.005": 9.46674050074,
			"0.006": 3.47261436495,
			"0.007": 3.65696075846,
			"0.008": 3.14894718123,
			"0.009": 3.95772913703,
			"0.01": 4.65111375812,
			"0.011": 7.66303977262,
			"0.012": 4.92211999,
			"0.013": 0.507768533201,
			"0.014": 0.0,
			"0.015": 0.0,
			"0.016": 0.0,
			"0.017": 0.0,
			"0.018": 0.0,
			"0.019": 0.0,
			"0.02": 0.0,
			"0.021": 0.0,
			"0.022": 0.0,
			"0.023": 0.0,
			"0.024": 0.0,
			"0.025": 0.0
		}
	}
}
