{
	 "smiles": "SCC1=CC=C(Cl)C=C1", 
	 "Tm": 292.65, 
	 "num_atms": 16, 
	 "gaussian": { 
		 "optdone": 1, 
		 "sigma_profile": "yes", 
		 "theory": "DFT", 
		 "functional": "B3LYP", 
		 "basiset": "6-31G**", 
		 "properties": { 
			 "R2extent": 3177.2829, 
			 "electric_dipole_moment_norm": 1.38483950334, 
			 "electric_quadrupole_moment_norm": 10.9184750474, 
			 "total_energy": -1129.34519522, 
			 "HOMO_LUMO_gap": 0.21069, 
			 "cosmo_polarized_energy": -6.72, 
			 "cosmo_cavitation_energy": 23.4, 
			 "cosmo_dispersion_energy": -17.71, 
			 "cosmo_repulsion_energy": 1.42, 
			 "cosmo_total_nonelectrostatic_energy": 7.1, 
			 "SMD_solvation_energy": 3.13 
		},
		"coords": [
			{
				"x": 2.13022169,
				"y": -0.3259021153,
				"z": -2.6521822961,
				"element": "S" 
			},
			{
				"x": 2.0655554314,
				"y": -1.9185316016,
				"z": -1.7031340293,
				"element": "C" 
			},
			{
				"x": 0.9564638495,
				"y": -1.9988298866,
				"z": -0.6858877991,
				"element": "C" 
			},
			{
				"x": -0.1313462007,
				"y": -2.8553157483,
				"z": -0.8905437932,
				"element": "C" 
			},
			{
				"x": -1.1672793229,
				"y": -2.9455562591,
				"z": 0.0411497237,
				"element": "C" 
			},
			{
				"x": -1.1090197185,
				"y": -2.1657433558,
				"z": 1.1933583658,
				"element": "C" 
			},
			{
				"x": -2.4043239976,
				"y": -2.2701210477,
				"z": 2.3774215691,
				"element": "Cl" 
			},
			{
				"x": -0.0363093039,
				"y": -1.3021707655,
				"z": 1.4240096965,
				"element": "C" 
			},
			{
				"x": 0.9862961241,
				"y": -1.2239385992,
				"z": 0.4825471165,
				"element": "C" 
			},
			{
				"x": 0.8633802204,
				"y": -0.370311585,
				"z": -3.111640767,
				"element": "H" 
			},
			{
				"x": 3.0469022186,
				"y": -1.9662670614,
				"z": -1.2222148788,
				"element": "H" 
			},
			{
				"x": 2.0063259566,
				"y": -2.7486066897,
				"z": -2.4105652169,
				"element": "H" 
			},
			{
				"x": -0.1729510077,
				"y": -3.4674606781,
				"z": -1.787970301,
				"element": "H" 
			},
			{
				"x": -2.005808714,
				"y": -3.6129911494,
				"z": -0.1239064953,
				"element": "H" 
			},
			{
				"x": -0.0060764948,
				"y": -0.7031309216,
				"z": 2.3274237979,
				"element": "H" 
			},
			{
				"x": 1.8160692696,
				"y": -0.5437225358,
				"z": 0.6533353073,
				"element": "H" 
			}
		],
		 "valence_orbital": [ 
			{
				"type": "occ",
				"energy": -0.32512,
				"method": "rhf"
			},
			{
				"type": "occ",
				"energy": -0.31445,
				"method": "rhf"
			},
			{
				"type": "occ",
				"energy": -0.26878,
				"method": "rhf"
			},
			{
				"type": "occ",
				"energy": -0.25243,
				"method": "rhf"
			},
			{
				"type": "occ",
				"energy": -0.23723,
				"method": "rhf"
			},
			{
				"type": "unocc",
				"energy": -0.02654,
				"method": "rhf"
			},
			{
				"type": "unocc",
				"energy": -0.0183,
				"method": "rhf"
			},
			{
				"type": "unocc",
				"energy": 0.02456,
				"method": "rhf"
			},
			{
				"type": "unocc",
				"energy": 0.02822,
				"method": "rhf"
			},
			{
				"type": "unocc",
				"energy": 0.0701,
				"method": "rhf"
			}
		],
		"cosmo_sigma_profile": { 
			"-0.025": 0.0,
			"-0.024": 0.0,
			"-0.023": 0.0,
			"-0.022": 0.0,
			"-0.021": 0.0,
			"-0.02": 0.0,
			"-0.019": 0.0,
			"-0.018": 0.0,
			"-0.017": 0.0,
			"-0.016": 0.0,
			"-0.015": 0.0,
			"-0.014": 0.0,
			"-0.013": 0.0,
			"-0.012": 0.0,
			"-0.011": 0.0,
			"-0.01": 0.0184727923699,
			"-0.009": 1.36953304968,
			"-0.008": 2.09281421852,
			"-0.007": 7.93879968943,
			"-0.006": 15.9632107355,
			"-0.005": 14.5652701299,
			"-0.004": 11.6249578337,
			"-0.003": 10.4022820451,
			"-0.002": 9.27415675707,
			"-0.001": 11.6887198187,
			"0.0": 10.2190614804,
			"0.001": 13.4246036165,
			"0.002": 16.6454989355,
			"0.003": 17.3909539706,
			"0.004": 21.6979624989,
			"0.005": 12.9573467411,
			"0.006": 4.46162728769,
			"0.007": 2.3771025547,
			"0.008": 2.23138835049,
			"0.009": 2.51962892501,
			"0.01": 1.88020017327,
			"0.011": 0.572358710767,
			"0.012": 0.0,
			"0.013": 0.0,
			"0.014": 0.0,
			"0.015": 0.0,
			"0.016": 0.0,
			"0.017": 0.0,
			"0.018": 0.0,
			"0.019": 0.0,
			"0.02": 0.0,
			"0.021": 0.0,
			"0.022": 0.0,
			"0.023": 0.0,
			"0.024": 0.0,
			"0.025": 0.0
		}
	}
}
