{
	 "smiles": "CN1N=C(C=C1N)C(C)(C)C", 
	 "Tm": 430.15, 
	 "num_atms": 26, 
	 "gaussian": { 
		 "optdone": 1, 
		 "sigma_profile": "yes", 
		 "theory": "DFT", 
		 "functional": "B3LYP", 
		 "basiset": "6-31G**", 
		 "properties": { 
			 "R2extent": 2088.8641, 
			 "electric_dipole_moment_norm": 3.17479213493, 
			 "electric_quadrupole_moment_norm": 7.76299127978, 
			 "total_energy": -478.139745502, 
			 "HOMO_LUMO_gap": 0.23958, 
			 "cosmo_polarized_energy": -11.04, 
			 "cosmo_cavitation_energy": 27.82, 
			 "cosmo_dispersion_energy": -19.77, 
			 "cosmo_repulsion_energy": 1.61, 
			 "cosmo_total_nonelectrostatic_energy": 9.67, 
			 "SMD_solvation_energy": 4.43 
		},
		"coords": [
			{
				"x": -0.9070922506,
				"y": 0.0126212159,
				"z": 2.9326558526,
				"element": "C" 
			},
			{
				"x": -0.3388401648,
				"y": 0.1599750217,
				"z": 1.6105742114,
				"element": "N" 
			},
			{
				"x": -1.1091646871,
				"y": -0.0313229814,
				"z": 0.5057706757,
				"element": "N" 
			},
			{
				"x": -0.2934751329,
				"y": 0.1748395168,
				"z": -0.5305876318,
				"element": "C" 
			},
			{
				"x": 1.0076256762,
				"y": 0.5291589319,
				"z": -0.0939829068,
				"element": "C" 
			},
			{
				"x": 0.9358925913,
				"y": 0.5160016176,
				"z": 1.2912872331,
				"element": "C" 
			},
			{
				"x": 1.8999751733,
				"y": 0.7178782526,
				"z": 2.2927309858,
				"element": "N" 
			},
			{
				"x": -0.820617294,
				"y": 0.0162032594,
				"z": -1.9497708029,
				"element": "C" 
			},
			{
				"x": -1.2833584543,
				"y": -1.4437692063,
				"z": -2.1571463361,
				"element": "C" 
			},
			{
				"x": -2.0220091428,
				"y": 0.9653316808,
				"z": -2.1559215655,
				"element": "C" 
			},
			{
				"x": 0.2783938585,
				"y": 0.3529658169,
				"z": -2.9732107709,
				"element": "C" 
			},
			{
				"x": -0.1219120642,
				"y": -0.3045522355,
				"z": 3.623192324,
				"element": "H" 
			},
			{
				"x": -1.6867511036,
				"y": -0.7485290322,
				"z": 2.8849528016,
				"element": "H" 
			},
			{
				"x": -1.3509378604,
				"y": 0.9482938484,
				"z": 3.2950709691,
				"element": "H" 
			},
			{
				"x": 1.8745357564,
				"y": 0.7690449092,
				"z": -0.6908058128,
				"element": "H" 
			},
			{
				"x": 1.7007970311,
				"y": 1.5199077945,
				"z": 2.883842344,
				"element": "H" 
			},
			{
				"x": 2.8231731757,
				"y": 0.8305069875,
				"z": 1.8917648376,
				"element": "H" 
			},
			{
				"x": -2.0539622474,
				"y": -1.7088417347,
				"z": -1.4284799231,
				"element": "H" 
			},
			{
				"x": -1.6930895324,
				"y": -1.580148822,
				"z": -3.1649611096,
				"element": "H" 
			},
			{
				"x": -0.4478750933,
				"y": -2.1411317363,
				"z": -2.0323323046,
				"element": "H" 
			},
			{
				"x": -1.7194294127,
				"y": 2.0115989077,
				"z": -2.0384091005,
				"element": "H" 
			},
			{
				"x": -2.8052291107,
				"y": 0.7580107417,
				"z": -1.4223014688,
				"element": "H" 
			},
			{
				"x": -2.4421654289,
				"y": 0.8433112002,
				"z": -3.1611888042,
				"element": "H" 
			},
			{
				"x": 1.1423919062,
				"y": -0.3120688925,
				"z": -2.8673844401,
				"element": "H" 
			},
			{
				"x": -0.1065063541,
				"y": 0.2392094802,
				"z": -3.9922170618,
				"element": "H" 
			},
			{
				"x": 0.6275301656,
				"y": 1.3853054578,
				"z": -2.8615421952,
				"element": "H" 
			}
		],
		 "valence_orbital": [ 
			{
				"type": "occ",
				"energy": -0.31491,
				"method": "rhf"
			},
			{
				"type": "occ",
				"energy": -0.30183,
				"method": "rhf"
			},
			{
				"type": "occ",
				"energy": -0.26361,
				"method": "rhf"
			},
			{
				"type": "occ",
				"energy": -0.22534,
				"method": "rhf"
			},
			{
				"type": "occ",
				"energy": -0.20301,
				"method": "rhf"
			},
			{
				"type": "unocc",
				"energy": 0.03657,
				"method": "rhf"
			},
			{
				"type": "unocc",
				"energy": 0.07099,
				"method": "rhf"
			},
			{
				"type": "unocc",
				"energy": 0.08812,
				"method": "rhf"
			},
			{
				"type": "unocc",
				"energy": 0.10075,
				"method": "rhf"
			},
			{
				"type": "unocc",
				"energy": 0.11894,
				"method": "rhf"
			}
		],
		"cosmo_sigma_profile": { 
			"-0.025": 0.0,
			"-0.024": 0.0,
			"-0.023": 0.0,
			"-0.022": 0.0,
			"-0.021": 0.0,
			"-0.02": 0.0,
			"-0.019": 0.0,
			"-0.018": 0.0,
			"-0.017": 0.0,
			"-0.016": 0.0,
			"-0.015": 0.0,
			"-0.014": 0.0,
			"-0.013": 0.542556894239,
			"-0.012": 2.71984186383,
			"-0.011": 3.06603249414,
			"-0.01": 2.97051220447,
			"-0.009": 3.03663988207,
			"-0.008": 2.39832899117,
			"-0.007": 2.59678664801,
			"-0.006": 3.23353152043,
			"-0.005": 10.3110602739,
			"-0.004": 8.14290334574,
			"-0.003": 14.4255985069,
			"-0.002": 28.2902141811,
			"-0.001": 23.2459389992,
			"0.0": 20.2085265936,
			"0.001": 24.8236140164,
			"0.002": 17.8933717043,
			"0.003": 6.15186960802,
			"0.004": 6.35757505259,
			"0.005": 6.2142740767,
			"0.006": 7.45695363296,
			"0.007": 6.33052384096,
			"0.008": 3.60843900615,
			"0.009": 2.30931311216,
			"0.01": 2.57089603103,
			"0.011": 1.92134801263,
			"0.012": 1.31260064791,
			"0.013": 1.4559600109,
			"0.014": 1.19809226104,
			"0.015": 0.712348536207,
			"0.016": 0.53619308353,
			"0.017": 0.133804616576,
			"0.018": 0.0,
			"0.019": 0.0,
			"0.02": 0.0,
			"0.021": 0.0,
			"0.022": 0.0,
			"0.023": 0.0,
			"0.024": 0.0,
			"0.025": 0.0
		}
	}
}
