{
	 "smiles": "CCSC1=CC2=C(SC3=C(C=CC=C3)N2CCCN2CCN(C)CC2)C=C1", 
	 "Tm": 336.15, 
	 "num_atms": 56, 
	 "gaussian": { 
		 "optdone": 1, 
		 "sigma_profile": "yes", 
		 "theory": "DFT", 
		 "functional": "B3LYP", 
		 "basiset": "6-31G**", 
		 "properties": { 
			 "R2extent": 14619.9767, 
			 "electric_dipole_moment_norm": 3.25552617867, 
			 "electric_quadrupole_moment_norm": 9.96346235804, 
			 "total_energy": -1816.43568195, 
			 "HOMO_LUMO_gap": 0.16683, 
			 "cosmo_polarized_energy": -12.12, 
			 "cosmo_cavitation_energy": 57.7, 
			 "cosmo_dispersion_energy": -39.47, 
			 "cosmo_repulsion_energy": 2.95, 
			 "cosmo_total_nonelectrostatic_energy": 21.18, 
			 "SMD_solvation_energy": 3.73 
		},
		"coords": [
			{
				"x": -3.5489392704,
				"y": -4.8476089771,
				"z": -0.7832738912,
				"element": "C" 
			},
			{
				"x": -2.3635040045,
				"y": -4.6300720591,
				"z": 0.1519310472,
				"element": "C" 
			},
			{
				"x": -2.6275106258,
				"y": -3.3282611666,
				"z": 1.4371227711,
				"element": "S" 
			},
			{
				"x": -2.6558829188,
				"y": -1.838788708,
				"z": 0.4336892679,
				"element": "C" 
			},
			{
				"x": -1.4529030255,
				"y": -1.2800736364,
				"z": -0.0204210004,
				"element": "C" 
			},
			{
				"x": -1.4412426895,
				"y": -0.0916534363,
				"z": -0.7648347104,
				"element": "C" 
			},
			{
				"x": -2.6776148474,
				"y": 0.5102773838,
				"z": -1.0797857193,
				"element": "C" 
			},
			{
				"x": -2.6821102522,
				"y": 2.0532782218,
				"z": -1.9679846858,
				"element": "S" 
			},
			{
				"x": -1.2956018371,
				"y": 1.7283662886,
				"z": -3.0410063043,
				"element": "C" 
			},
			{
				"x": -0.1935690461,
				"y": 1.0164547391,
				"z": -2.5276961844,
				"element": "C" 
			},
			{
				"x": 0.9152945153,
				"y": 0.8180196044,
				"z": -3.3652060181,
				"element": "C" 
			},
			{
				"x": 0.9353059006,
				"y": 1.3411638129,
				"z": -4.6590453445,
				"element": "C" 
			},
			{
				"x": -0.162116507,
				"y": 2.0416639236,
				"z": -5.1570732166,
				"element": "C" 
			},
			{
				"x": -1.28567913,
				"y": 2.2170571992,
				"z": -4.3476587222,
				"element": "C" 
			},
			{
				"x": -0.2407382686,
				"y": 0.5179231269,
				"z": -1.2025754142,
				"element": "N" 
			},
			{
				"x": 1.0098514637,
				"y": 0.2311477012,
				"z": -0.4963271693,
				"element": "C" 
			},
			{
				"x": 1.8778769818,
				"y": 1.480923837,
				"z": -0.2927001849,
				"element": "C" 
			},
			{
				"x": 3.1282076866,
				"y": 1.1757088026,
				"z": 0.5435957056,
				"element": "C" 
			},
			{
				"x": 2.8288564929,
				"y": 0.633110945,
				"z": 1.8701445547,
				"element": "N" 
			},
			{
				"x": 3.9860976975,
				"y": -0.0472991205,
				"z": 2.460922886,
				"element": "C" 
			},
			{
				"x": 3.594793948,
				"y": -0.6885370996,
				"z": 3.801392999,
				"element": "C" 
			},
			{
				"x": 3.0259146868,
				"y": 0.255496371,
				"z": 4.7640137616,
				"element": "N" 
			},
			{
				"x": 4.0114859446,
				"y": 1.09475927,
				"z": 5.4355817092,
				"element": "C" 
			},
			{
				"x": 1.9316323253,
				"y": 0.9965909641,
				"z": 4.1358077769,
				"element": "C" 
			},
			{
				"x": 2.3081780644,
				"y": 1.6468605895,
				"z": 2.7946818762,
				"element": "C" 
			},
			{
				"x": -3.8750714954,
				"y": -0.0584719837,
				"z": -0.6480588133,
				"element": "C" 
			},
			{
				"x": -3.8715021749,
				"y": -1.2208915026,
				"z": 0.124257223,
				"element": "C" 
			},
			{
				"x": -3.7817815986,
				"y": -3.9361148842,
				"z": -1.3413025329,
				"element": "H" 
			},
			{
				"x": -3.3198315835,
				"y": -5.6376348473,
				"z": -1.5083341552,
				"element": "H" 
			},
			{
				"x": -4.4420135234,
				"y": -5.1419140299,
				"z": -0.2244447159,
				"element": "H" 
			},
			{
				"x": -2.1500332518,
				"y": -5.5319526096,
				"z": 0.7349151496,
				"element": "H" 
			},
			{
				"x": -1.4563220011,
				"y": -4.3803180195,
				"z": -0.4065062846,
				"element": "H" 
			},
			{
				"x": -0.5236752522,
				"y": -1.7827149096,
				"z": 0.2200550165,
				"element": "H" 
			},
			{
				"x": 1.7688663281,
				"y": 0.2540113923,
				"z": -3.0069457223,
				"element": "H" 
			},
			{
				"x": 1.8119813054,
				"y": 1.1849521376,
				"z": -5.280856464,
				"element": "H" 
			},
			{
				"x": -0.1507033273,
				"y": 2.4429640573,
				"z": -6.1655631072,
				"element": "H" 
			},
			{
				"x": -2.1570964721,
				"y": 2.7466435569,
				"z": -4.721019094,
				"element": "H" 
			},
			{
				"x": 0.7555856861,
				"y": -0.1501945098,
				"z": 0.4917957882,
				"element": "H" 
			},
			{
				"x": 1.5916616219,
				"y": -0.5619156345,
				"z": -0.99336957,
				"element": "H" 
			},
			{
				"x": 2.2012668453,
				"y": 1.8961836122,
				"z": -1.2524525524,
				"element": "H" 
			},
			{
				"x": 1.2649550405,
				"y": 2.2545712226,
				"z": 0.1821488339,
				"element": "H" 
			},
			{
				"x": 3.7536604423,
				"y": 2.0874748809,
				"z": 0.606913201,
				"element": "H" 
			},
			{
				"x": 3.7304143401,
				"y": 0.4264865055,
				"z": 0.0134947726,
				"element": "H" 
			},
			{
				"x": 4.3247934646,
				"y": -0.8278000181,
				"z": 1.7690033493,
				"element": "H" 
			},
			{
				"x": 4.8373528166,
				"y": 0.6479976863,
				"z": 2.6045711816,
				"element": "H" 
			},
			{
				"x": 4.4652856928,
				"y": -1.1787720126,
				"z": 4.251385752,
				"element": "H" 
			},
			{
				"x": 2.8418052179,
				"y": -1.4623246635,
				"z": 3.6018418843,
				"element": "H" 
			},
			{
				"x": 4.5774123224,
				"y": 1.7830603927,
				"z": 4.7834047301,
				"element": "H" 
			},
			{
				"x": 3.5071892706,
				"y": 1.7008165856,
				"z": 6.1959583122,
				"element": "H" 
			},
			{
				"x": 4.7375369803,
				"y": 0.4544897505,
				"z": 5.9483002307,
				"element": "H" 
			},
			{
				"x": 1.5697687743,
				"y": 1.7604459174,
				"z": 4.8327812384,
				"element": "H" 
			},
			{
				"x": 1.1072727857,
				"y": 0.2944281716,
				"z": 3.9549112309,
				"element": "H" 
			},
			{
				"x": 1.4155566253,
				"y": 2.1093990054,
				"z": 2.3613720858,
				"element": "H" 
			},
			{
				"x": 3.0471185598,
				"y": 2.4582226242,
				"z": 2.9528024836,
				"element": "H" 
			},
			{
				"x": -4.8139380538,
				"y": 0.4198150241,
				"z": -0.910810417,
				"element": "H" 
			},
			{
				"x": -4.8026986705,
				"y": -1.6500514752,
				"z": 0.4772551754,
				"element": "H" 
			}
		],
		 "valence_orbital": [ 
			{
				"type": "occ",
				"energy": -0.2273,
				"method": "rhf"
			},
			{
				"type": "occ",
				"energy": -0.22394,
				"method": "rhf"
			},
			{
				"type": "occ",
				"energy": -0.21849,
				"method": "rhf"
			},
			{
				"type": "occ",
				"energy": -0.19762,
				"method": "rhf"
			},
			{
				"type": "occ",
				"energy": -0.1881,
				"method": "rhf"
			},
			{
				"type": "unocc",
				"energy": -0.02127,
				"method": "rhf"
			},
			{
				"type": "unocc",
				"energy": -0.01118,
				"method": "rhf"
			},
			{
				"type": "unocc",
				"energy": -0.00371,
				"method": "rhf"
			},
			{
				"type": "unocc",
				"energy": 0.0075,
				"method": "rhf"
			},
			{
				"type": "unocc",
				"energy": 0.03695,
				"method": "rhf"
			}
		],
		"cosmo_sigma_profile": { 
			"-0.025": 0.0,
			"-0.024": 0.0,
			"-0.023": 0.0,
			"-0.022": 0.0,
			"-0.021": 0.0,
			"-0.02": 0.0,
			"-0.019": 0.0,
			"-0.018": 0.0,
			"-0.017": 0.0,
			"-0.016": 0.0,
			"-0.015": 0.0,
			"-0.014": 0.0,
			"-0.013": 0.0,
			"-0.012": 0.0,
			"-0.011": 0.0,
			"-0.01": 0.0,
			"-0.009": 0.0,
			"-0.008": 0.0,
			"-0.007": 1.97603115137,
			"-0.006": 12.5528854083,
			"-0.005": 19.1324223812,
			"-0.004": 36.5479335649,
			"-0.003": 47.729708232,
			"-0.002": 57.6906185127,
			"-0.001": 63.8879835512,
			"0.0": 49.9329838473,
			"0.001": 33.1846732444,
			"0.002": 25.262968412,
			"0.003": 27.7129091651,
			"0.004": 27.6437194283,
			"0.005": 18.3844526104,
			"0.006": 10.9188456651,
			"0.007": 7.96165953685,
			"0.008": 5.66215170157,
			"0.009": 3.97802255013,
			"0.01": 2.86659534834,
			"0.011": 0.5984019461,
			"0.012": 0.725342610252,
			"0.013": 0.482486295166,
			"0.014": 0.412753353038,
			"0.015": 0.717124535348,
			"0.016": 0.446547157355,
			"0.017": 0.238739617647,
			"0.018": 0.0,
			"0.019": 0.0,
			"0.02": 0.0,
			"0.021": 0.0,
			"0.022": 0.0,
			"0.023": 0.0,
			"0.024": 0.0,
			"0.025": 0.0
		}
	}
}
