{
	 "smiles": "CCS(=O)(=O)C1=CC2=C(OC(N)=N2)C=C1", 
	 "Tm": 483.15, 
	 "num_atms": 25, 
	 "gaussian": { 
		 "optdone": 1, 
		 "sigma_profile": "yes", 
		 "theory": "DFT", 
		 "functional": "B3LYP", 
		 "basiset": "6-31G**", 
		 "properties": { 
			 "R2extent": 4911.8598, 
			 "electric_dipole_moment_norm": 7.68138272318, 
			 "electric_quadrupole_moment_norm": 11.271574677, 
			 "total_energy": -1082.29456682, 
			 "HOMO_LUMO_gap": 0.19993, 
			 "cosmo_polarized_energy": -21.59, 
			 "cosmo_cavitation_energy": 30.57, 
			 "cosmo_dispersion_energy": -22.87, 
			 "cosmo_repulsion_energy": 1.75, 
			 "cosmo_total_nonelectrostatic_energy": 9.45, 
			 "SMD_solvation_energy": 2.93 
		},
		"coords": [
			{
				"x": 2.1569633178,
				"y": 1.4798191395,
				"z": -3.3930121445,
				"element": "C" 
			},
			{
				"x": 0.7674704798,
				"y": 2.0194322812,
				"z": -3.710568945,
				"element": "C" 
			},
			{
				"x": -0.2973503639,
				"y": 2.230095066,
				"z": -2.2442201386,
				"element": "S" 
			},
			{
				"x": -1.5608164239,
				"y": 2.8150127137,
				"z": -2.725593415,
				"element": "O" 
			},
			{
				"x": 0.5026322224,
				"y": 2.8962024545,
				"z": -1.2015190882,
				"element": "O" 
			},
			{
				"x": -0.6432251391,
				"y": 0.5522984413,
				"z": -1.6875702682,
				"element": "C" 
			},
			{
				"x": 0.1680823556,
				"y": -0.0018772563,
				"z": -0.6910853077,
				"element": "C" 
			},
			{
				"x": -0.1321704997,
				"y": -1.3038066759,
				"z": -0.293970867,
				"element": "C" 
			},
			{
				"x": -1.2105105864,
				"y": -1.9764734931,
				"z": -0.8940288784,
				"element": "C" 
			},
			{
				"x": -1.285146937,
				"y": -3.2263924548,
				"z": -0.3153788359,
				"element": "O" 
			},
			{
				"x": -0.2494760301,
				"y": -3.2219094155,
				"z": 0.5906006051,
				"element": "C" 
			},
			{
				"x": -0.1329767541,
				"y": -4.3428438674,
				"z": 1.3477894836,
				"element": "N" 
			},
			{
				"x": 0.4644049597,
				"y": -2.1384049291,
				"z": 0.65125984,
				"element": "N" 
			},
			{
				"x": -2.026708844,
				"y": -1.4374719028,
				"z": -1.8719018763,
				"element": "C" 
			},
			{
				"x": -1.7219713992,
				"y": -0.1313437126,
				"z": -2.2697240665,
				"element": "C" 
			},
			{
				"x": 2.1101070709,
				"y": 0.4695216086,
				"z": -2.9767161672,
				"element": "H" 
			},
			{
				"x": 2.7539338721,
				"y": 1.439517118,
				"z": -4.3092470784,
				"element": "H" 
			},
			{
				"x": 2.6658341994,
				"y": 2.1274642886,
				"z": -2.6754400787,
				"element": "H" 
			},
			{
				"x": 0.2079643564,
				"y": 1.382742868,
				"z": -4.401627182,
				"element": "H" 
			},
			{
				"x": 0.8045521207,
				"y": 3.028907735,
				"z": -4.1326211726,
				"element": "H" 
			},
			{
				"x": 0.9706059396,
				"y": 0.5691068974,
				"z": -0.2396083157,
				"element": "H" 
			},
			{
				"x": 0.7326420422,
				"y": -4.4309059613,
				"z": 1.8579372446,
				"element": "H" 
			},
			{
				"x": -0.5320981148,
				"y": -5.193293278,
				"z": 0.980775113,
				"element": "H" 
			},
			{
				"x": -2.8599681457,
				"y": -1.9867454199,
				"z": -2.2952396503,
				"element": "H" 
			},
			{
				"x": -2.3338736985,
				"y": 0.3747477551,
				"z": -3.0078888102,
				"element": "H" 
			}
		],
		 "valence_orbital": [ 
			{
				"type": "occ",
				"energy": -0.30043,
				"method": "rhf"
			},
			{
				"type": "occ",
				"energy": -0.28733,
				"method": "rhf"
			},
			{
				"type": "occ",
				"energy": -0.27619,
				"method": "rhf"
			},
			{
				"type": "occ",
				"energy": -0.26281,
				"method": "rhf"
			},
			{
				"type": "occ",
				"energy": -0.22942,
				"method": "rhf"
			},
			{
				"type": "unocc",
				"energy": -0.02949,
				"method": "rhf"
			},
			{
				"type": "unocc",
				"energy": -0.02219,
				"method": "rhf"
			},
			{
				"type": "unocc",
				"energy": 0.03821,
				"method": "rhf"
			},
			{
				"type": "unocc",
				"energy": 0.05863,
				"method": "rhf"
			},
			{
				"type": "unocc",
				"energy": 0.07382,
				"method": "rhf"
			}
		],
		"cosmo_sigma_profile": { 
			"-0.025": 0.0,
			"-0.024": 0.0,
			"-0.023": 0.0,
			"-0.022": 0.0,
			"-0.021": 0.0,
			"-0.02": 0.0,
			"-0.019": 0.0,
			"-0.018": 0.0,
			"-0.017": 0.0,
			"-0.016": 0.382900237554,
			"-0.015": 2.74814129976,
			"-0.014": 2.52944356794,
			"-0.013": 2.0411354878,
			"-0.012": 2.21703902692,
			"-0.011": 2.16526499476,
			"-0.01": 2.21188790786,
			"-0.009": 2.27851019126,
			"-0.008": 5.89326603218,
			"-0.007": 10.3151416801,
			"-0.006": 10.0235101754,
			"-0.005": 13.3445132945,
			"-0.004": 17.5816848143,
			"-0.003": 17.5715702621,
			"-0.002": 17.0366237981,
			"-0.001": 16.0189639233,
			"0.0": 16.8535552187,
			"0.001": 15.5879421524,
			"0.002": 15.1053255263,
			"0.003": 10.5204625443,
			"0.004": 6.56777432868,
			"0.005": 6.1542405788,
			"0.006": 5.50563893211,
			"0.007": 5.11895997277,
			"0.008": 3.62428196834,
			"0.009": 5.08744532901,
			"0.01": 5.54845303323,
			"0.011": 8.41071094135,
			"0.012": 9.44049283688,
			"0.013": 3.49478863919,
			"0.014": 0.950291016175,
			"0.015": 0.804069173124,
			"0.016": 0.491597249869,
			"0.017": 0.0,
			"0.018": 0.0,
			"0.019": 0.0,
			"0.02": 0.0,
			"0.021": 0.0,
			"0.022": 0.0,
			"0.023": 0.0,
			"0.024": 0.0,
			"0.025": 0.0
		}
	}
}
