{
	 "smiles": "CC1=C(Cl)N=CC(C=O)=C1", 
	 "Tm": 321.15, 
	 "num_atms": 16, 
	 "gaussian": { 
		 "optdone": 1, 
		 "sigma_profile": "yes", 
		 "theory": "DFT", 
		 "functional": "B3LYP", 
		 "basiset": "6-31G**", 
		 "properties": { 
			 "R2extent": 2287.7541, 
			 "electric_dipole_moment_norm": 4.02937798177, 
			 "electric_quadrupole_moment_norm": 9.4630070279, 
			 "total_energy": -860.520621026, 
			 "HOMO_LUMO_gap": 0.18353, 
			 "cosmo_polarized_energy": -10.08, 
			 "cosmo_cavitation_energy": 22.55, 
			 "cosmo_dispersion_energy": -16.58, 
			 "cosmo_repulsion_energy": 1.33, 
			 "cosmo_total_nonelectrostatic_energy": 7.3, 
			 "SMD_solvation_energy": 3.43 
		},
		"coords": [
			{
				"x": -2.9621702593,
				"y": -1.6540850323,
				"z": 0.5649920551,
				"element": "C" 
			},
			{
				"x": -1.5640660619,
				"y": -1.1029058866,
				"z": 0.6306168432,
				"element": "C" 
			},
			{
				"x": -0.4405720222,
				"y": -1.8939801325,
				"z": 0.944493083,
				"element": "C" 
			},
			{
				"x": -0.6811650156,
				"y": -3.6064835627,
				"z": 1.2758200121,
				"element": "Cl" 
			},
			{
				"x": 0.8107113987,
				"y": -1.4697391401,
				"z": 1.0177980629,
				"element": "N" 
			},
			{
				"x": 1.0446727439,
				"y": -0.1786373949,
				"z": 0.7749924988,
				"element": "C" 
			},
			{
				"x": 0.0266134041,
				"y": 0.7260629834,
				"z": 0.4507796058,
				"element": "C" 
			},
			{
				"x": 0.3295560598,
				"y": 2.1510415314,
				"z": 0.1886522813,
				"element": "C" 
			},
			{
				"x": 1.4437646035,
				"y": 2.6341973692,
				"z": 0.2317114641,
				"element": "O" 
			},
			{
				"x": -1.2841190083,
				"y": 0.2413048803,
				"z": 0.3825567627,
				"element": "C" 
			},
			{
				"x": -3.2616609568,
				"y": -2.0894577726,
				"z": 1.5238423765,
				"element": "H" 
			},
			{
				"x": -3.0392860545,
				"y": -2.4502048129,
				"z": -0.1825988249,
				"element": "H" 
			},
			{
				"x": -3.6748556973,
				"y": -0.8672770566,
				"z": 0.3057774198,
				"element": "H" 
			},
			{
				"x": 2.0744161213,
				"y": 0.1626558895,
				"z": 0.8369550115,
				"element": "H" 
			},
			{
				"x": -0.5580458049,
				"y": 2.7752137868,
				"z": -0.059291894,
				"element": "H" 
			},
			{
				"x": -2.0980934505,
				"y": 0.9193943506,
				"z": 0.1329032421,
				"element": "H" 
			}
		],
		 "valence_orbital": [ 
			{
				"type": "occ",
				"energy": -0.32433,
				"method": "rhf"
			},
			{
				"type": "occ",
				"energy": -0.30658,
				"method": "rhf"
			},
			{
				"type": "occ",
				"energy": -0.29145,
				"method": "rhf"
			},
			{
				"type": "occ",
				"energy": -0.26831,
				"method": "rhf"
			},
			{
				"type": "occ",
				"energy": -0.26497,
				"method": "rhf"
			},
			{
				"type": "unocc",
				"energy": -0.08144,
				"method": "rhf"
			},
			{
				"type": "unocc",
				"energy": -0.04517,
				"method": "rhf"
			},
			{
				"type": "unocc",
				"energy": 0.01469,
				"method": "rhf"
			},
			{
				"type": "unocc",
				"energy": 0.02581,
				"method": "rhf"
			},
			{
				"type": "unocc",
				"energy": 0.09162,
				"method": "rhf"
			}
		],
		"cosmo_sigma_profile": { 
			"-0.025": 0.0,
			"-0.024": 0.0,
			"-0.023": 0.0,
			"-0.022": 0.0,
			"-0.021": 0.0,
			"-0.02": 0.0,
			"-0.019": 0.0,
			"-0.018": 0.0,
			"-0.017": 0.0,
			"-0.016": 0.0,
			"-0.015": 0.0,
			"-0.014": 0.0,
			"-0.013": 0.0,
			"-0.012": 0.0,
			"-0.011": 0.0,
			"-0.01": 0.410303089374,
			"-0.009": 2.63695427085,
			"-0.008": 5.01875248977,
			"-0.007": 6.96207915743,
			"-0.006": 6.61227131817,
			"-0.005": 10.5344401268,
			"-0.004": 10.9392636374,
			"-0.003": 13.8802965247,
			"-0.002": 21.6148098618,
			"-0.001": 24.7413509523,
			"0.0": 12.9700184707,
			"0.001": 7.81895135709,
			"0.002": 8.92054596335,
			"0.003": 9.68757681272,
			"0.004": 8.9310711207,
			"0.005": 4.70990984842,
			"0.006": 3.751798092,
			"0.007": 3.6006386166,
			"0.008": 2.30606156378,
			"0.009": 3.58925016634,
			"0.01": 4.41072831918,
			"0.011": 5.10595591937,
			"0.012": 2.2891062751,
			"0.013": 1.07577173536,
			"0.014": 0.49870760928,
			"0.015": 0.00645803945166,
			"0.016": 0.0,
			"0.017": 0.0,
			"0.018": 0.0,
			"0.019": 0.0,
			"0.02": 0.0,
			"0.021": 0.0,
			"0.022": 0.0,
			"0.023": 0.0,
			"0.024": 0.0,
			"0.025": 0.0
		}
	}
}
