{
	 "smiles": "OCC1OC1C1=CC=CC=C1", 
	 "Tm": 325.15, 
	 "num_atms": 21, 
	 "gaussian": { 
		 "optdone": 1, 
		 "sigma_profile": "yes", 
		 "theory": "DFT", 
		 "functional": "B3LYP", 
		 "basiset": "6-31G**", 
		 "properties": { 
			 "R2extent": 2601.7086, 
			 "electric_dipole_moment_norm": 1.6003860628, 
			 "electric_quadrupole_moment_norm": 9.88596611111, 
			 "total_energy": -499.378464082, 
			 "HOMO_LUMO_gap": 0.23007, 
			 "cosmo_polarized_energy": -10.86, 
			 "cosmo_cavitation_energy": 24.96, 
			 "cosmo_dispersion_energy": -18.18, 
			 "cosmo_repulsion_energy": 1.49, 
			 "cosmo_total_nonelectrostatic_energy": 8.26, 
			 "SMD_solvation_energy": 3.94 
		},
		"coords": [
			{
				"x": 0.7376839446,
				"y": 3.374499088,
				"z": -2.0463568451,
				"element": "O" 
			},
			{
				"x": 1.0816785483,
				"y": 3.5852237718,
				"z": -0.6842903135,
				"element": "C" 
			},
			{
				"x": 1.4856685109,
				"y": 2.300905187,
				"z": 0.0094924835,
				"element": "C" 
			},
			{
				"x": 1.4819010304,
				"y": 2.3356550895,
				"z": 1.4404242049,
				"element": "O" 
			},
			{
				"x": 0.5225384069,
				"y": 1.4885943859,
				"z": 0.7809611238,
				"element": "C" 
			},
			{
				"x": 0.6742591285,
				"y": 0.0145769745,
				"z": 0.951338702,
				"element": "C" 
			},
			{
				"x": 1.8502459728,
				"y": -0.5328665997,
				"z": 1.4793776666,
				"element": "C" 
			},
			{
				"x": 1.9865676158,
				"y": -1.9151150217,
				"z": 1.6056594675,
				"element": "C" 
			},
			{
				"x": 0.9508365369,
				"y": -2.7639944828,
				"z": 1.2083857001,
				"element": "C" 
			},
			{
				"x": -0.2270944294,
				"y": -2.2225125578,
				"z": 0.689392151,
				"element": "C" 
			},
			{
				"x": -0.3662339867,
				"y": -0.8400269963,
				"z": 0.565791767,
				"element": "C" 
			},
			{
				"x": 1.5450390638,
				"y": 3.158611281,
				"z": -2.5301600055,
				"element": "H" 
			},
			{
				"x": 0.1938190813,
				"y": 3.995171354,
				"z": -0.1936412714,
				"element": "H" 
			},
			{
				"x": 1.8866901464,
				"y": 4.3289835629,
				"z": -0.5745269579,
				"element": "H" 
			},
			{
				"x": 2.3416842971,
				"y": 1.7759419311,
				"z": -0.4251272588,
				"element": "H" 
			},
			{
				"x": -0.5034573824,
				"y": 1.8597013722,
				"z": 0.8252406846,
				"element": "H" 
			},
			{
				"x": 2.6396150355,
				"y": 0.136936873,
				"z": 1.8057131739,
				"element": "H" 
			},
			{
				"x": 2.9003867596,
				"y": -2.3304747729,
				"z": 2.0214125356,
				"element": "H" 
			},
			{
				"x": 1.0578437528,
				"y": -3.8401855087,
				"z": 1.3094458991,
				"element": "H" 
			},
			{
				"x": -1.0399678786,
				"y": -2.8759436816,
				"z": 0.3854733176,
				"element": "H" 
			},
			{
				"x": -1.2866041546,
				"y": -0.4207812494,
				"z": 0.166193775,
				"element": "H" 
			}
		],
		 "valence_orbital": [ 
			{
				"type": "occ",
				"energy": -0.31416,
				"method": "rhf"
			},
			{
				"type": "occ",
				"energy": -0.29147,
				"method": "rhf"
			},
			{
				"type": "occ",
				"energy": -0.26769,
				"method": "rhf"
			},
			{
				"type": "occ",
				"energy": -0.25087,
				"method": "rhf"
			},
			{
				"type": "occ",
				"energy": -0.23825,
				"method": "rhf"
			},
			{
				"type": "unocc",
				"energy": -0.00818,
				"method": "rhf"
			},
			{
				"type": "unocc",
				"energy": -0.00233,
				"method": "rhf"
			},
			{
				"type": "unocc",
				"energy": 0.06137,
				"method": "rhf"
			},
			{
				"type": "unocc",
				"energy": 0.09728,
				"method": "rhf"
			},
			{
				"type": "unocc",
				"energy": 0.10765,
				"method": "rhf"
			}
		],
		"cosmo_sigma_profile": { 
			"-0.025": 0.0,
			"-0.024": 0.0,
			"-0.023": 0.0,
			"-0.022": 0.0,
			"-0.021": 0.0,
			"-0.02": 0.0,
			"-0.019": 0.0,
			"-0.018": 0.0,
			"-0.017": 0.0173735604471,
			"-0.016": 0.805242365508,
			"-0.015": 1.30908571183,
			"-0.014": 1.06160831099,
			"-0.013": 1.09551872858,
			"-0.012": 1.22589334413,
			"-0.011": 0.895239485445,
			"-0.01": 0.876423274087,
			"-0.009": 0.955695513427,
			"-0.008": 1.57829855671,
			"-0.007": 3.55415537527,
			"-0.006": 12.1357636092,
			"-0.005": 16.9200617084,
			"-0.004": 16.7954310551,
			"-0.003": 17.6770618415,
			"-0.002": 13.1036963432,
			"-0.001": 10.6526119758,
			"0.0": 9.47266442731,
			"0.001": 10.6849272299,
			"0.002": 10.9675834553,
			"0.003": 9.9760262116,
			"0.004": 12.0161977251,
			"0.005": 12.6157836583,
			"0.006": 9.42245087201,
			"0.007": 2.51489652276,
			"0.008": 2.42314907937,
			"0.009": 2.90882447399,
			"0.01": 3.39083273093,
			"0.011": 4.41362838009,
			"0.012": 2.03255607479,
			"0.013": 1.91573558034,
			"0.014": 2.0385949068,
			"0.015": 0.0485116629099,
			"0.016": 0.0,
			"0.017": 0.0,
			"0.018": 0.0,
			"0.019": 0.0,
			"0.02": 0.0,
			"0.021": 0.0,
			"0.022": 0.0,
			"0.023": 0.0,
			"0.024": 0.0,
			"0.025": 0.0
		}
	}
}
