{
	 "smiles": "CCC(C)(C)NC(=O)C(Br)C(C)C", 
	 "Tm": 406.15, 
	 "num_atms": 33, 
	 "gaussian": { 
		 "optdone": 1, 
		 "sigma_profile": "yes", 
		 "theory": "DFT", 
		 "functional": "B3LYP", 
		 "basiset": "6-31G**", 
		 "properties": { 
			 "R2extent": 5341.9931, 
			 "electric_dipole_moment_norm": 2.93989137384, 
			 "electric_quadrupole_moment_norm": 8.34657968452, 
			 "total_energy": -3094.54578792, 
			 "HOMO_LUMO_gap": 0.21666, 
			 "cosmo_polarized_energy": -10.36, 
			 "cosmo_cavitation_energy": 34.9, 
			 "cosmo_dispersion_energy": -23.94, 
			 "cosmo_repulsion_energy": 1.89, 
			 "cosmo_total_nonelectrostatic_energy": 12.86, 
			 "SMD_solvation_energy": 5.27 
		},
		"coords": [
			{
				"x": -0.5141994788,
				"y": -1.3460933907,
				"z": -3.2933320751,
				"element": "C" 
			},
			{
				"x": -0.0511545711,
				"y": 0.0145463908,
				"z": -2.7620823416,
				"element": "C" 
			},
			{
				"x": -0.5766284202,
				"y": 0.4078547761,
				"z": -1.3561423688,
				"element": "C" 
			},
			{
				"x": -0.0164538248,
				"y": 1.7876752871,
				"z": -0.9630328211,
				"element": "C" 
			},
			{
				"x": -2.1127272117,
				"y": 0.4535078144,
				"z": -1.3215299493,
				"element": "C" 
			},
			{
				"x": -0.1696130134,
				"y": -0.5943308373,
				"z": -0.3386857537,
				"element": "N" 
			},
			{
				"x": 1.1114769704,
				"y": -0.9471308771,
				"z": -0.0438035701,
				"element": "C" 
			},
			{
				"x": 2.1088425943,
				"y": -0.4004815819,
				"z": -0.5029456078,
				"element": "O" 
			},
			{
				"x": 1.2302222784,
				"y": -2.0980577455,
				"z": 0.9744443557,
				"element": "C" 
			},
			{
				"x": 0.9480692588,
				"y": -3.7854658233,
				"z": -0.0899306516,
				"element": "Br" 
			},
			{
				"x": 2.5594222603,
				"y": -2.1070166118,
				"z": 1.7327202086,
				"element": "C" 
			},
			{
				"x": 2.7293375184,
				"y": -3.3393361457,
				"z": 2.6301400809,
				"element": "C" 
			},
			{
				"x": 2.6612304899,
				"y": -0.8172548632,
				"z": 2.573533338,
				"element": "C" 
			},
			{
				"x": -1.5974274272,
				"y": -1.3865729851,
				"z": -3.450144721,
				"element": "H" 
			},
			{
				"x": -0.040118244,
				"y": -1.5543529126,
				"z": -4.2576769521,
				"element": "H" 
			},
			{
				"x": -0.2382005388,
				"y": -2.1569777401,
				"z": -2.6118977137,
				"element": "H" 
			},
			{
				"x": 1.0416847157,
				"y": 0.0354404163,
				"z": -2.7220965358,
				"element": "H" 
			},
			{
				"x": -0.35736614,
				"y": 0.806618793,
				"z": -3.4577151147,
				"element": "H" 
			},
			{
				"x": -0.3758808174,
				"y": 2.0792763061,
				"z": 0.0291068096,
				"element": "H" 
			},
			{
				"x": -0.3468993194,
				"y": 2.5435531851,
				"z": -1.6829017178,
				"element": "H" 
			},
			{
				"x": 1.0742263021,
				"y": 1.7699316521,
				"z": -0.9477203381,
				"element": "H" 
			},
			{
				"x": -2.4832436138,
				"y": 1.1654025969,
				"z": -2.064417559,
				"element": "H" 
			},
			{
				"x": -2.4694291189,
				"y": 0.7759545129,
				"z": -0.3374042571,
				"element": "H" 
			},
			{
				"x": -2.5566155543,
				"y": -0.5223780811,
				"z": -1.544860743,
				"element": "H" 
			},
			{
				"x": -0.8941873478,
				"y": -1.2164569898,
				"z": -0.0087771647,
				"element": "H" 
			},
			{
				"x": 0.3851539361,
				"y": -2.1022333772,
				"z": 1.6676195256,
				"element": "H" 
			},
			{
				"x": 3.3549806822,
				"y": -2.0860485524,
				"z": 0.9804535627,
				"element": "H" 
			},
			{
				"x": 2.7162318964,
				"y": -4.2676411567,
				"z": 2.055318806,
				"element": "H" 
			},
			{
				"x": 1.9325172408,
				"y": -3.3950817004,
				"z": 3.3821137566,
				"element": "H" 
			},
			{
				"x": 3.6832987258,
				"y": -3.281956237,
				"z": 3.1636450811,
				"element": "H" 
			},
			{
				"x": 1.8558049023,
				"y": -0.763708345,
				"z": 3.3166113147,
				"element": "H" 
			},
			{
				"x": 2.6233427211,
				"y": 0.0750136629,
				"z": 1.9461945728,
				"element": "H" 
			},
			{
				"x": 3.6106021485,
				"y": -0.8072994398,
				"z": 3.1180965438,
				"element": "H" 
			}
		],
		 "valence_orbital": [ 
			{
				"type": "occ",
				"energy": -0.32519,
				"method": "rhf"
			},
			{
				"type": "occ",
				"energy": -0.28427,
				"method": "rhf"
			},
			{
				"type": "occ",
				"energy": -0.2794,
				"method": "rhf"
			},
			{
				"type": "occ",
				"energy": -0.25498,
				"method": "rhf"
			},
			{
				"type": "occ",
				"energy": -0.2494,
				"method": "rhf"
			},
			{
				"type": "unocc",
				"energy": -0.03274,
				"method": "rhf"
			},
			{
				"type": "unocc",
				"energy": 0.04612,
				"method": "rhf"
			},
			{
				"type": "unocc",
				"energy": 0.06913,
				"method": "rhf"
			},
			{
				"type": "unocc",
				"energy": 0.0975,
				"method": "rhf"
			},
			{
				"type": "unocc",
				"energy": 0.09944,
				"method": "rhf"
			}
		],
		"cosmo_sigma_profile": { 
			"-0.025": 0.0,
			"-0.024": 0.0,
			"-0.023": 0.0,
			"-0.022": 0.0,
			"-0.021": 0.0,
			"-0.02": 0.0,
			"-0.019": 0.0,
			"-0.018": 0.0,
			"-0.017": 0.0,
			"-0.016": 0.0,
			"-0.015": 0.0,
			"-0.014": 0.137806972446,
			"-0.013": 1.12334745413,
			"-0.012": 1.08400139772,
			"-0.011": 1.22877415555,
			"-0.01": 1.45417215492,
			"-0.009": 1.55025824687,
			"-0.008": 2.50790266627,
			"-0.007": 2.61722746384,
			"-0.006": 3.6505446943,
			"-0.005": 3.3956978832,
			"-0.004": 10.5619322966,
			"-0.003": 30.849798655,
			"-0.002": 29.8174451745,
			"-0.001": 33.8076067841,
			"0.0": 36.5168011568,
			"0.001": 43.6687480551,
			"0.002": 21.5597278863,
			"0.003": 9.80350331601,
			"0.004": 8.80428109358,
			"0.005": 8.53833578546,
			"0.006": 6.39276837605,
			"0.007": 1.95283562094,
			"0.008": 1.85410656559,
			"0.009": 1.40625118403,
			"0.01": 1.33700013622,
			"0.011": 1.68334927716,
			"0.012": 1.66116178267,
			"0.013": 2.76798829807,
			"0.014": 1.09970547761,
			"0.015": 0.0,
			"0.016": 0.0,
			"0.017": 0.0,
			"0.018": 0.0,
			"0.019": 0.0,
			"0.02": 0.0,
			"0.021": 0.0,
			"0.022": 0.0,
			"0.023": 0.0,
			"0.024": 0.0,
			"0.025": 0.0
		}
	}
}
