{
	 "smiles": "NCC1=CC(NC(=O)C2CCCC2)=CC=C1", 
	 "Tm": 360.15, 
	 "num_atms": 34, 
	 "gaussian": { 
		 "optdone": 1, 
		 "sigma_profile": "yes", 
		 "theory": "DFT", 
		 "functional": "B3LYP", 
		 "basiset": "6-31G**", 
		 "properties": { 
			 "R2extent": 5250.6856, 
			 "electric_dipole_moment_norm": 4.47469855074, 
			 "electric_quadrupole_moment_norm": 19.2499611758, 
			 "total_energy": -690.978617766, 
			 "HOMO_LUMO_gap": 0.21039, 
			 "cosmo_polarized_energy": -13.52, 
			 "cosmo_cavitation_energy": 35.55, 
			 "cosmo_dispersion_energy": -25.63, 
			 "cosmo_repulsion_energy": 2.05, 
			 "cosmo_total_nonelectrostatic_energy": 11.97, 
			 "SMD_solvation_energy": 4.95 
		},
		"coords": [
			{
				"x": 0.1612683785,
				"y": 5.4888086992,
				"z": -1.2282923335,
				"element": "N" 
			},
			{
				"x": -0.4065788349,
				"y": 4.5811353304,
				"z": -2.2283860458,
				"element": "C" 
			},
			{
				"x": -0.0132306472,
				"y": 3.136834883,
				"z": -1.9727984494,
				"element": "C" 
			},
			{
				"x": 0.1685317775,
				"y": 2.672872945,
				"z": -0.6675473034,
				"element": "C" 
			},
			{
				"x": 0.4991458793,
				"y": 1.3340424541,
				"z": -0.4174288407,
				"element": "C" 
			},
			{
				"x": 0.7184278255,
				"y": 0.9349845546,
				"z": 0.923310203,
				"element": "N" 
			},
			{
				"x": 0.3339629219,
				"y": -0.1894922061,
				"z": 1.6322023253,
				"element": "C" 
			},
			{
				"x": 0.6999656714,
				"y": -0.3124329809,
				"z": 2.7962975939,
				"element": "O" 
			},
			{
				"x": -0.563798413,
				"y": -1.2273215886,
				"z": 0.9728339931,
				"element": "C" 
			},
			{
				"x": -1.7707506038,
				"y": -1.5824323349,
				"z": 1.9062020412,
				"element": "C" 
			},
			{
				"x": -1.5362402558,
				"y": -3.0346743208,
				"z": 2.3626987054,
				"element": "C" 
			},
			{
				"x": -0.7962747887,
				"y": -3.6709981528,
				"z": 1.1784319676,
				"element": "C" 
			},
			{
				"x": 0.2012564208,
				"y": -2.5744323377,
				"z": 0.7676518406,
				"element": "C" 
			},
			{
				"x": 0.6651184495,
				"y": 0.4515714691,
				"z": -1.4945216213,
				"element": "C" 
			},
			{
				"x": 0.4603600022,
				"y": 0.9078127439,
				"z": -2.7962253807,
				"element": "C" 
			},
			{
				"x": 0.1297763405,
				"y": 2.2405857493,
				"z": -3.0393067894,
				"element": "C" 
			},
			{
				"x": 1.1698303567,
				"y": 5.5487689123,
				"z": -1.3469640773,
				"element": "H" 
			},
			{
				"x": -0.2076152229,
				"y": 6.4265393711,
				"z": -1.3593778199,
				"element": "H" 
			},
			{
				"x": -1.4998505974,
				"y": 4.6676147172,
				"z": -2.1593935443,
				"element": "H" 
			},
			{
				"x": -0.1479841653,
				"y": 4.8333521766,
				"z": -3.2713218486,
				"element": "H" 
			},
			{
				"x": 0.0505048879,
				"y": 3.3696827344,
				"z": 0.1566812313,
				"element": "H" 
			},
			{
				"x": 1.1828940188,
				"y": 1.6068294582,
				"z": 1.5230094161,
				"element": "H" 
			},
			{
				"x": -0.9366813064,
				"y": -0.8564489815,
				"z": 0.0165024934,
				"element": "H" 
			},
			{
				"x": -1.8519414375,
				"y": -0.8923276023,
				"z": 2.7485175448,
				"element": "H" 
			},
			{
				"x": -2.6986518853,
				"y": -1.5136840173,
				"z": 1.327442379,
				"element": "H" 
			},
			{
				"x": -0.8877232846,
				"y": -3.039767176,
				"z": 3.2461984032,
				"element": "H" 
			},
			{
				"x": -2.464764589,
				"y": -3.5519162531,
				"z": 2.625657839,
				"element": "H" 
			},
			{
				"x": -1.4988888436,
				"y": -3.8735500123,
				"z": 0.359180565,
				"element": "H" 
			},
			{
				"x": -0.3026467035,
				"y": -4.6159634025,
				"z": 1.428181869,
				"element": "H" 
			},
			{
				"x": 1.064333796,
				"y": -2.6011949292,
				"z": 1.4411421057,
				"element": "H" 
			},
			{
				"x": 0.5732300609,
				"y": -2.6916074071,
				"z": -0.2556155605,
				"element": "H" 
			},
			{
				"x": 0.9818697301,
				"y": -0.5698045139,
				"z": -1.3159079583,
				"element": "H" 
			},
			{
				"x": 0.5913383462,
				"y": 0.2218545048,
				"z": -3.628349631,
				"element": "H" 
			},
			{
				"x": -0.0061932848,
				"y": 2.5896575136,
				"z": -4.0598053128,
				"element": "H" 
			}
		],
		 "valence_orbital": [ 
			{
				"type": "occ",
				"energy": -0.28511,
				"method": "rhf"
			},
			{
				"type": "occ",
				"energy": -0.25442,
				"method": "rhf"
			},
			{
				"type": "occ",
				"energy": -0.24291,
				"method": "rhf"
			},
			{
				"type": "occ",
				"energy": -0.23995,
				"method": "rhf"
			},
			{
				"type": "occ",
				"energy": -0.22097,
				"method": "rhf"
			},
			{
				"type": "unocc",
				"energy": -0.01058,
				"method": "rhf"
			},
			{
				"type": "unocc",
				"energy": -0.0073,
				"method": "rhf"
			},
			{
				"type": "unocc",
				"energy": 0.03767,
				"method": "rhf"
			},
			{
				"type": "unocc",
				"energy": 0.07987,
				"method": "rhf"
			},
			{
				"type": "unocc",
				"energy": 0.08716,
				"method": "rhf"
			}
		],
		"cosmo_sigma_profile": { 
			"-0.025": 0.0,
			"-0.024": 0.0,
			"-0.023": 0.0,
			"-0.022": 0.0,
			"-0.021": 0.0,
			"-0.02": 0.0,
			"-0.019": 0.0,
			"-0.018": 0.0,
			"-0.017": 0.0,
			"-0.016": 0.0,
			"-0.015": 0.0,
			"-0.014": 0.18142489327,
			"-0.013": 1.17094439724,
			"-0.012": 0.700794167886,
			"-0.011": 1.18956254802,
			"-0.01": 2.96853244219,
			"-0.009": 3.53218518237,
			"-0.008": 3.39039518526,
			"-0.007": 4.18184555607,
			"-0.006": 6.03776465629,
			"-0.005": 12.5438458467,
			"-0.004": 15.8691218142,
			"-0.003": 26.0292897816,
			"-0.002": 35.6267451295,
			"-0.001": 34.7403721531,
			"0.0": 26.5184283703,
			"0.001": 26.4612675771,
			"0.002": 12.588656921,
			"0.003": 12.7005667689,
			"0.004": 9.99580668269,
			"0.005": 10.0088566353,
			"0.006": 5.84639244987,
			"0.007": 3.32632775881,
			"0.008": 2.71009487197,
			"0.009": 2.31498455429,
			"0.01": 1.53020673839,
			"0.011": 2.4189152697,
			"0.012": 2.1120216341,
			"0.013": 3.63232665351,
			"0.014": 5.67010804978,
			"0.015": 1.2378710861,
			"0.016": 0.627770704301,
			"0.017": 0.030166845183,
			"0.018": 0.0,
			"0.019": 0.0,
			"0.02": 0.0,
			"0.021": 0.0,
			"0.022": 0.0,
			"0.023": 0.0,
			"0.024": 0.0,
			"0.025": 0.0
		}
	}
}
