{
	 "smiles": "CS(=O)(=O)CC1=CC=C(O1)C(O)=O", 
	 "Tm": 460.15, 
	 "num_atms": 21, 
	 "gaussian": { 
		 "optdone": 1, 
		 "sigma_profile": "yes", 
		 "theory": "DFT", 
		 "functional": "B3LYP", 
		 "basiset": "6-31G**", 
		 "properties": { 
			 "R2extent": 3243.8792, 
			 "electric_dipole_moment_norm": 3.12231584885, 
			 "electric_quadrupole_moment_norm": 23.6554334067, 
			 "total_energy": -1045.80307716, 
			 "HOMO_LUMO_gap": 0.18757, 
			 "cosmo_polarized_energy": -21.64, 
			 "cosmo_cavitation_energy": 28.01, 
			 "cosmo_dispersion_energy": -20.08, 
			 "cosmo_repulsion_energy": 1.56, 
			 "cosmo_total_nonelectrostatic_energy": 9.48, 
			 "SMD_solvation_energy": 6.22 
		},
		"coords": [
			{
				"x": 2.3090749888,
				"y": 1.1420300166,
				"z": -1.0038687617,
				"element": "C" 
			},
			{
				"x": 1.0158314863,
				"y": 0.635343194,
				"z": -2.1597113235,
				"element": "S" 
			},
			{
				"x": -0.073002392,
				"y": 1.619545807,
				"z": -2.0932237183,
				"element": "O" 
			},
			{
				"x": 1.6493661196,
				"y": 0.2916244391,
				"z": -3.4412980052,
				"element": "O" 
			},
			{
				"x": 0.386739378,
				"y": -0.9593528315,
				"z": -1.4589289086,
				"element": "C" 
			},
			{
				"x": -0.3433725274,
				"y": -0.8276284042,
				"z": -0.181689445,
				"element": "C" 
			},
			{
				"x": -1.6742377261,
				"y": -0.7268675546,
				"z": 0.1311857329,
				"element": "C" 
			},
			{
				"x": -1.7459269886,
				"y": -0.5858945559,
				"z": 1.5443088532,
				"element": "C" 
			},
			{
				"x": -0.4543801131,
				"y": -0.6014589731,
				"z": 2.0003775881,
				"element": "C" 
			},
			{
				"x": 0.4127955543,
				"y": -0.7487598201,
				"z": 0.9503959083,
				"element": "O" 
			},
			{
				"x": 0.063408721,
				"y": -0.4891126498,
				"z": 3.3636992817,
				"element": "C" 
			},
			{
				"x": 1.4157748102,
				"y": -0.5131139374,
				"z": 3.4199372793,
				"element": "O" 
			},
			{
				"x": -0.6482887097,
				"y": -0.3806752768,
				"z": 4.3426350663,
				"element": "O" 
			},
			{
				"x": 3.1179481637,
				"y": 0.4106478583,
				"z": -1.0301301462,
				"element": "H" 
			},
			{
				"x": 1.8892064376,
				"y": 1.2295403765,
				"z": -0.0017133748,
				"element": "H" 
			},
			{
				"x": 2.6623295413,
				"y": 2.1115740346,
				"z": -1.3598495719,
				"element": "H" 
			},
			{
				"x": -0.2684399076,
				"y": -1.3266951321,
				"z": -2.2521947633,
				"element": "H" 
			},
			{
				"x": 1.2523339098,
				"y": -1.6227579961,
				"z": -1.3815875867,
				"element": "H" 
			},
			{
				"x": -2.4948722276,
				"y": -0.7452849352,
				"z": -0.5708772989,
				"element": "H" 
			},
			{
				"x": -2.6257726672,
				"y": -0.4833475231,
				"z": 2.1617398164,
				"element": "H" 
			},
			{
				"x": 1.6397841487,
				"y": -0.4332561362,
				"z": 4.3620933777,
				"element": "H" 
			}
		],
		 "valence_orbital": [ 
			{
				"type": "occ",
				"energy": -0.30903,
				"method": "rhf"
			},
			{
				"type": "occ",
				"energy": -0.30176,
				"method": "rhf"
			},
			{
				"type": "occ",
				"energy": -0.30013,
				"method": "rhf"
			},
			{
				"type": "occ",
				"energy": -0.29178,
				"method": "rhf"
			},
			{
				"type": "occ",
				"energy": -0.25041,
				"method": "rhf"
			},
			{
				"type": "unocc",
				"energy": -0.06284,
				"method": "rhf"
			},
			{
				"type": "unocc",
				"energy": 0.00845,
				"method": "rhf"
			},
			{
				"type": "unocc",
				"energy": 0.05944,
				"method": "rhf"
			},
			{
				"type": "unocc",
				"energy": 0.0641,
				"method": "rhf"
			},
			{
				"type": "unocc",
				"energy": 0.06968,
				"method": "rhf"
			}
		],
		"cosmo_sigma_profile": { 
			"-0.025": 0.0,
			"-0.024": 0.0,
			"-0.023": 0.0,
			"-0.022": 0.0,
			"-0.021": 0.0,
			"-0.02": 0.0,
			"-0.019": 0.306253317529,
			"-0.018": 0.780231449261,
			"-0.017": 1.1665789969,
			"-0.016": 0.905123781665,
			"-0.015": 0.418024021321,
			"-0.014": 0.65664172939,
			"-0.013": 0.318329799205,
			"-0.012": 1.77111151352,
			"-0.011": 2.10101799938,
			"-0.01": 4.9015177095,
			"-0.009": 9.12162636331,
			"-0.008": 11.7616570578,
			"-0.007": 12.707995856,
			"-0.006": 11.5933831111,
			"-0.005": 11.4160137471,
			"-0.004": 12.0910117278,
			"-0.003": 11.7984180612,
			"-0.002": 11.8667302814,
			"-0.001": 9.70445154776,
			"0.0": 10.9132129112,
			"0.001": 10.4847981778,
			"0.002": 9.88654151382,
			"0.003": 6.74717670081,
			"0.004": 5.58953143826,
			"0.005": 5.23184682742,
			"0.006": 5.46410427907,
			"0.007": 4.71237206408,
			"0.008": 5.96071504943,
			"0.009": 6.9081360603,
			"0.01": 8.12913188069,
			"0.011": 15.5045209221,
			"0.012": 12.0691536854,
			"0.013": 0.353414781546,
			"0.014": 0.0,
			"0.015": 0.0,
			"0.016": 0.0,
			"0.017": 0.0,
			"0.018": 0.0,
			"0.019": 0.0,
			"0.02": 0.0,
			"0.021": 0.0,
			"0.022": 0.0,
			"0.023": 0.0,
			"0.024": 0.0,
			"0.025": 0.0
		}
	}
}
