{
	 "smiles": "CN1C=CN=C1COC1=CC=C(C=C1)C(O)=O", 
	 "Tm": 509.15, 
	 "num_atms": 29, 
	 "gaussian": { 
		 "optdone": 1, 
		 "sigma_profile": "yes", 
		 "theory": "DFT", 
		 "functional": "B3LYP", 
		 "basiset": "6-31G**", 
		 "properties": { 
			 "R2extent": 5344.2458, 
			 "electric_dipole_moment_norm": 7.51040003329, 
			 "electric_quadrupole_moment_norm": 23.2206213543, 
			 "total_energy": -799.678349736, 
			 "HOMO_LUMO_gap": 0.19852, 
			 "cosmo_polarized_energy": -20.46, 
			 "cosmo_cavitation_energy": 33.53, 
			 "cosmo_dispersion_energy": -23.94, 
			 "cosmo_repulsion_energy": 1.84, 
			 "cosmo_total_nonelectrostatic_energy": 11.43, 
			 "SMD_solvation_energy": 6.25 
		},
		"coords": [
			{
				"x": -1.4866792528,
				"y": -2.3500605553,
				"z": 2.8564025099,
				"element": "C" 
			},
			{
				"x": -0.3190145151,
				"y": -1.4836460456,
				"z": 2.9528244285,
				"element": "N" 
			},
			{
				"x": 0.0159979897,
				"y": -0.6838240316,
				"z": 4.024927978,
				"element": "C" 
			},
			{
				"x": 1.2067528729,
				"y": -0.0857061479,
				"z": 3.6911352167,
				"element": "C" 
			},
			{
				"x": 1.6122070841,
				"y": -0.49254018,
				"z": 2.4443166619,
				"element": "N" 
			},
			{
				"x": 0.6822031619,
				"y": -1.3351276896,
				"z": 2.026700074,
				"element": "C" 
			},
			{
				"x": 0.7242115763,
				"y": -2.0518196117,
				"z": 0.7137318835,
				"element": "C" 
			},
			{
				"x": -0.3774480329,
				"y": -1.7520160127,
				"z": -0.1605325989,
				"element": "O" 
			},
			{
				"x": -0.39949836,
				"y": -0.5624079183,
				"z": -0.8324916488,
				"element": "C" 
			},
			{
				"x": 0.5276477209,
				"y": 0.4731126367,
				"z": -0.6562889043,
				"element": "C" 
			},
			{
				"x": 0.3958620255,
				"y": 1.6356588719,
				"z": -1.4162999613,
				"element": "C" 
			},
			{
				"x": -0.6411735294,
				"y": 1.7913912382,
				"z": -2.3438796868,
				"element": "C" 
			},
			{
				"x": -1.5510827868,
				"y": 0.7344935194,
				"z": -2.5165200791,
				"element": "C" 
			},
			{
				"x": -1.4398993301,
				"y": -0.4243140729,
				"z": -1.7667245499,
				"element": "C" 
			},
			{
				"x": -0.8203409512,
				"y": 3.0091588382,
				"z": -3.1903001299,
				"element": "C" 
			},
			{
				"x": -0.1845357937,
				"y": 4.14329045,
				"z": -2.7821674947,
				"element": "O" 
			},
			{
				"x": -1.4921786854,
				"y": 3.0297416793,
				"z": -4.1963442218,
				"element": "O" 
			},
			{
				"x": -2.3226142028,
				"y": -1.8910708158,
				"z": 3.3882944906,
				"element": "H" 
			},
			{
				"x": -1.763327992,
				"y": -2.466969308,
				"z": 1.8081799087,
				"element": "H" 
			},
			{
				"x": -1.2879982425,
				"y": -3.3344973588,
				"z": 3.2937856,
				"element": "H" 
			},
			{
				"x": -0.6160390273,
				"y": -0.6117564047,
				"z": 4.8973300302,
				"element": "H" 
			},
			{
				"x": 1.784722438,
				"y": 0.6177115532,
				"z": 4.2740999254,
				"element": "H" 
			},
			{
				"x": 0.6598723059,
				"y": -3.1361108507,
				"z": 0.845705964,
				"element": "H" 
			},
			{
				"x": 1.6806497218,
				"y": -1.820739183,
				"z": 0.2356388405,
				"element": "H" 
			},
			{
				"x": 1.3254441051,
				"y": 0.3967890302,
				"z": 0.0725431926,
				"element": "H" 
			},
			{
				"x": 1.1490976821,
				"y": 2.4097570351,
				"z": -1.287128694,
				"element": "H" 
			},
			{
				"x": -2.3401358587,
				"y": 0.8487791877,
				"z": -3.2518517317,
				"element": "H" 
			},
			{
				"x": -2.1384075073,
				"y": -1.2454047965,
				"z": -1.8902364558,
				"element": "H" 
			},
			{
				"x": 0.1677053839,
				"y": 4.0235269432,
				"z": -1.8897505478,
				"element": "H" 
			}
		],
		 "valence_orbital": [ 
			{
				"type": "occ",
				"energy": -0.27969,
				"method": "rhf"
			},
			{
				"type": "occ",
				"energy": -0.26685,
				"method": "rhf"
			},
			{
				"type": "occ",
				"energy": -0.26286,
				"method": "rhf"
			},
			{
				"type": "occ",
				"energy": -0.23673,
				"method": "rhf"
			},
			{
				"type": "occ",
				"energy": -0.23565,
				"method": "rhf"
			},
			{
				"type": "unocc",
				"energy": -0.03713,
				"method": "rhf"
			},
			{
				"type": "unocc",
				"energy": -0.01563,
				"method": "rhf"
			},
			{
				"type": "unocc",
				"energy": 0.00065,
				"method": "rhf"
			},
			{
				"type": "unocc",
				"energy": 0.05118,
				"method": "rhf"
			},
			{
				"type": "unocc",
				"energy": 0.05997,
				"method": "rhf"
			}
		],
		"cosmo_sigma_profile": { 
			"-0.025": 0.0,
			"-0.024": 0.0,
			"-0.023": 0.0,
			"-0.022": 0.0,
			"-0.021": 0.0,
			"-0.02": 0.0,
			"-0.019": 0.0158579809045,
			"-0.018": 0.871512960941,
			"-0.017": 0.932989636339,
			"-0.016": 1.17923750885,
			"-0.015": 0.865297745366,
			"-0.014": 0.837327608602,
			"-0.013": 0.720628502402,
			"-0.012": 1.22811845642,
			"-0.011": 1.35259246418,
			"-0.01": 1.31876331381,
			"-0.009": 1.55190896944,
			"-0.008": 5.27760832083,
			"-0.007": 12.1553756597,
			"-0.006": 17.2521191145,
			"-0.005": 19.9480296879,
			"-0.004": 21.2187953925,
			"-0.003": 20.3051502894,
			"-0.002": 12.6850767624,
			"-0.001": 13.2341298817,
			"0.0": 14.0129852227,
			"0.001": 15.6189134032,
			"0.002": 18.0293518511,
			"0.003": 20.6430781595,
			"0.004": 12.141321463,
			"0.005": 9.1938403024,
			"0.006": 6.69222042565,
			"0.007": 5.05152338385,
			"0.008": 5.03880838956,
			"0.009": 4.83089339073,
			"0.01": 4.92768176069,
			"0.011": 6.16386536652,
			"0.012": 6.94562537974,
			"0.013": 3.11467595369,
			"0.014": 0.866623811364,
			"0.015": 0.611110978705,
			"0.016": 1.06234560406,
			"0.017": 0.40005271836,
			"0.018": 0.0,
			"0.019": 0.0,
			"0.02": 0.0,
			"0.021": 0.0,
			"0.022": 0.0,
			"0.023": 0.0,
			"0.024": 0.0,
			"0.025": 0.0
		}
	}
}
