{
	 "smiles": "CCCNC1=CC=C(C=N1)[N+]([O-])=O", 
	 "Tm": 368.15, 
	 "num_atms": 24, 
	 "gaussian": { 
		 "optdone": 1, 
		 "sigma_profile": "yes", 
		 "theory": "DFT", 
		 "functional": "B3LYP", 
		 "basiset": "6-31G**", 
		 "properties": { 
			 "R2extent": 4385.7449, 
			 "electric_dipole_moment_norm": 7.47875364015, 
			 "electric_quadrupole_moment_norm": 17.8598794965, 
			 "total_energy": -626.09654054, 
			 "HOMO_LUMO_gap": 0.1551, 
			 "cosmo_polarized_energy": -12.93, 
			 "cosmo_cavitation_energy": 28.43, 
			 "cosmo_dispersion_energy": -20.78, 
			 "cosmo_repulsion_energy": 1.66, 
			 "cosmo_total_nonelectrostatic_energy": 9.31, 
			 "SMD_solvation_energy": 5.16 
		},
		"coords": [
			{
				"x": 1.7315691006,
				"y": 2.1858750512,
				"z": 2.6281193586,
				"element": "C" 
			},
			{
				"x": 1.1922986543,
				"y": 0.9202148254,
				"z": 3.3037357509,
				"element": "C" 
			},
			{
				"x": 0.6922502858,
				"y": -0.1457768432,
				"z": 2.3236478427,
				"element": "C" 
			},
			{
				"x": -0.4689256414,
				"y": 0.3247383507,
				"z": 1.5864945288,
				"element": "N" 
			},
			{
				"x": -1.0850921993,
				"y": -0.3294687462,
				"z": 0.5680796609,
				"element": "C" 
			},
			{
				"x": -0.5804411561,
				"y": -1.5378315331,
				"z": 0.020190375,
				"element": "C" 
			},
			{
				"x": -1.2644495034,
				"y": -2.1207211381,
				"z": -1.0276374544,
				"element": "C" 
			},
			{
				"x": -2.4252263752,
				"y": -1.4982400457,
				"z": -1.4988438157,
				"element": "C" 
			},
			{
				"x": -2.8605856763,
				"y": -0.3136573975,
				"z": -0.8973210375,
				"element": "C" 
			},
			{
				"x": -2.2151974598,
				"y": 0.2611811963,
				"z": 0.1092429583,
				"element": "N" 
			},
			{
				"x": -3.1739328228,
				"y": -2.0787136959,
				"z": -2.595564167,
				"element": "N" 
			},
			{
				"x": -2.7484011194,
				"y": -3.1272747767,
				"z": -3.0897239635,
				"element": "O" 
			},
			{
				"x": -4.1924750394,
				"y": -1.492106478,
				"z": -2.9724743261,
				"element": "O" 
			},
			{
				"x": 0.9694277977,
				"y": 2.6789402636,
				"z": 2.0165164887,
				"element": "H" 
			},
			{
				"x": 2.5767434777,
				"y": 1.9501244468,
				"z": 1.9722559175,
				"element": "H" 
			},
			{
				"x": 2.0778376527,
				"y": 2.9079061238,
				"z": 3.3735927964,
				"element": "H" 
			},
			{
				"x": 0.3787498799,
				"y": 1.1764691252,
				"z": 3.9960122745,
				"element": "H" 
			},
			{
				"x": 1.9779389963,
				"y": 0.4644525266,
				"z": 3.9167701073,
				"element": "H" 
			},
			{
				"x": 0.4526886935,
				"y": -1.0700232519,
				"z": 2.8713477216,
				"element": "H" 
			},
			{
				"x": 1.4949209779,
				"y": -0.3915600908,
				"z": 1.6149194872,
				"element": "H" 
			},
			{
				"x": -0.9808138514,
				"y": 1.1237145779,
				"z": 1.9351668002,
				"element": "H" 
			},
			{
				"x": 0.3177840856,
				"y": -1.9966961776,
				"z": 0.4149366472,
				"element": "H" 
			},
			{
				"x": -0.9298531013,
				"y": -3.0423642137,
				"z": -1.4885326122,
				"element": "H" 
			},
			{
				"x": -3.7644156561,
				"y": 0.169617901,
				"z": -1.2556313394,
				"element": "H" 
			}
		],
		 "valence_orbital": [ 
			{
				"type": "occ",
				"energy": -0.30081,
				"method": "rhf"
			},
			{
				"type": "occ",
				"energy": -0.2933,
				"method": "rhf"
			},
			{
				"type": "occ",
				"energy": -0.27836,
				"method": "rhf"
			},
			{
				"type": "occ",
				"energy": -0.27371,
				"method": "rhf"
			},
			{
				"type": "occ",
				"energy": -0.22982,
				"method": "rhf"
			},
			{
				"type": "unocc",
				"energy": -0.07472,
				"method": "rhf"
			},
			{
				"type": "unocc",
				"energy": -0.03484,
				"method": "rhf"
			},
			{
				"type": "unocc",
				"energy": 0.01663,
				"method": "rhf"
			},
			{
				"type": "unocc",
				"energy": 0.06875,
				"method": "rhf"
			},
			{
				"type": "unocc",
				"energy": 0.08051,
				"method": "rhf"
			}
		],
		"cosmo_sigma_profile": { 
			"-0.025": 0.0,
			"-0.024": 0.0,
			"-0.023": 0.0,
			"-0.022": 0.0,
			"-0.021": 0.0,
			"-0.02": 0.0,
			"-0.019": 0.0,
			"-0.018": 0.0,
			"-0.017": 0.0,
			"-0.016": 0.0,
			"-0.015": 0.0,
			"-0.014": 0.0,
			"-0.013": 0.493229460462,
			"-0.012": 0.811594087445,
			"-0.011": 0.974813997289,
			"-0.01": 0.816520718836,
			"-0.009": 1.176604825,
			"-0.008": 2.61671557737,
			"-0.007": 6.83490893087,
			"-0.006": 7.6071653339,
			"-0.005": 11.3960075258,
			"-0.004": 16.5255118241,
			"-0.003": 23.6829184559,
			"-0.002": 22.0161331524,
			"-0.001": 24.8179672957,
			"0.0": 24.7063987799,
			"0.001": 18.6422864755,
			"0.002": 10.6272917198,
			"0.003": 5.36628734576,
			"0.004": 3.88033698435,
			"0.005": 4.35553863668,
			"0.006": 3.94351911497,
			"0.007": 5.05829814078,
			"0.008": 9.52101309662,
			"0.009": 7.38320717364,
			"0.01": 5.99434170068,
			"0.011": 3.72330276968,
			"0.012": 0.580187188347,
			"0.013": 0.787069841185,
			"0.014": 0.601251980908,
			"0.015": 0.0,
			"0.016": 0.0,
			"0.017": 0.0,
			"0.018": 0.0,
			"0.019": 0.0,
			"0.02": 0.0,
			"0.021": 0.0,
			"0.022": 0.0,
			"0.023": 0.0,
			"0.024": 0.0,
			"0.025": 0.0
		}
	}
}
