{
	 "smiles": "BrCC(=O)C1=CC(Br)=CC=C1", 
	 "Tm": 324.65, 
	 "num_atms": 17, 
	 "gaussian": { 
		 "optdone": 1, 
		 "sigma_profile": "yes", 
		 "theory": "DFT", 
		 "functional": "B3LYP", 
		 "basiset": "6-31G**", 
		 "properties": { 
			 "R2extent": 6581.9063, 
			 "electric_dipole_moment_norm": 4.51802085099, 
			 "electric_quadrupole_moment_norm": 6.55533438506, 
			 "total_energy": -5526.493658, 
			 "HOMO_LUMO_gap": 0.18245, 
			 "cosmo_polarized_energy": -11.95, 
			 "cosmo_cavitation_energy": 26.33, 
			 "cosmo_dispersion_energy": -20.16, 
			 "cosmo_repulsion_energy": 1.62, 
			 "cosmo_total_nonelectrostatic_energy": 7.8, 
			 "SMD_solvation_energy": 2.67 
		},
		"coords": [
			{
				"x": -2.3841761248,
				"y": 3.043626409,
				"z": 2.8150741308,
				"element": "Br" 
			},
			{
				"x": -1.0646056753,
				"y": 1.9991438087,
				"z": 1.8309334696,
				"element": "C" 
			},
			{
				"x": -1.5741280179,
				"y": 1.4968264609,
				"z": 0.4783496487,
				"element": "C" 
			},
			{
				"x": -2.6945750571,
				"y": 1.7356955475,
				"z": 0.0757146051,
				"element": "O" 
			},
			{
				"x": -0.6097062912,
				"y": 0.6829410501,
				"z": -0.3391834538,
				"element": "C" 
			},
			{
				"x": -1.0670847121,
				"y": 0.216025328,
				"z": -1.5817246243,
				"element": "C" 
			},
			{
				"x": -0.2221211166,
				"y": -0.5409954689,
				"z": -2.3821870814,
				"element": "C" 
			},
			{
				"x": -0.844024763,
				"y": -1.1762631899,
				"z": -4.07243063,
				"element": "Br" 
			},
			{
				"x": 1.0780381217,
				"y": -0.8484029416,
				"z": -1.9748813272,
				"element": "C" 
			},
			{
				"x": 1.529659036,
				"y": -0.3832244608,
				"z": -0.7398629965,
				"element": "C" 
			},
			{
				"x": 0.6947978063,
				"y": 0.3785414504,
				"z": 0.0773801479,
				"element": "C" 
			},
			{
				"x": -0.783430823,
				"y": 1.1589624136,
				"z": 2.4688977978,
				"element": "H" 
			},
			{
				"x": -0.1893695559,
				"y": 2.6376731525,
				"z": 1.6961886321,
				"element": "H" 
			},
			{
				"x": -2.0765432386,
				"y": 0.4583190629,
				"z": -1.8913540656,
				"element": "H" 
			},
			{
				"x": 1.7228937573,
				"y": -1.4408694013,
				"z": -2.6139224157,
				"element": "H" 
			},
			{
				"x": 2.5390422969,
				"y": -0.6181193649,
				"z": -0.416490204,
				"element": "H" 
			},
			{
				"x": 1.0695343575,
				"y": 0.728520144,
				"z": 1.0331983664,
				"element": "H" 
			}
		],
		 "valence_orbital": [ 
			{
				"type": "occ",
				"energy": -0.28312,
				"method": "rhf"
			},
			{
				"type": "occ",
				"energy": -0.27894,
				"method": "rhf"
			},
			{
				"type": "occ",
				"energy": -0.27724,
				"method": "rhf"
			},
			{
				"type": "occ",
				"energy": -0.27308,
				"method": "rhf"
			},
			{
				"type": "occ",
				"energy": -0.25975,
				"method": "rhf"
			},
			{
				"type": "unocc",
				"energy": -0.0773,
				"method": "rhf"
			},
			{
				"type": "unocc",
				"energy": -0.03222,
				"method": "rhf"
			},
			{
				"type": "unocc",
				"energy": -0.0101,
				"method": "rhf"
			},
			{
				"type": "unocc",
				"energy": 0.00282,
				"method": "rhf"
			},
			{
				"type": "unocc",
				"energy": 0.01647,
				"method": "rhf"
			}
		],
		"cosmo_sigma_profile": { 
			"-0.025": 0.0,
			"-0.024": 0.0,
			"-0.023": 0.0,
			"-0.022": 0.0,
			"-0.021": 0.0,
			"-0.02": 0.0,
			"-0.019": 0.0,
			"-0.018": 0.0,
			"-0.017": 0.0,
			"-0.016": 0.0,
			"-0.015": 0.0,
			"-0.014": 0.0,
			"-0.013": 0.0,
			"-0.012": 0.0,
			"-0.011": 0.0,
			"-0.01": 3.0854670347,
			"-0.009": 8.90871297965,
			"-0.008": 6.60404277441,
			"-0.007": 9.40427394561,
			"-0.006": 10.4740969132,
			"-0.005": 8.29026480235,
			"-0.004": 9.68642902576,
			"-0.003": 10.1519978388,
			"-0.002": 11.583224337,
			"-0.001": 12.1316686312,
			"0.0": 16.5857748058,
			"0.001": 22.9383851852,
			"0.002": 20.7502077876,
			"0.003": 14.8672691633,
			"0.004": 17.0940264677,
			"0.005": 11.6200257515,
			"0.006": 7.20681894981,
			"0.007": 3.00014662813,
			"0.008": 2.24095703919,
			"0.009": 2.45502524837,
			"0.01": 3.36740656825,
			"0.011": 3.46214239094,
			"0.012": 1.82109865813,
			"0.013": 0.287838570424,
			"0.014": 0.0,
			"0.015": 0.0,
			"0.016": 0.0,
			"0.017": 0.0,
			"0.018": 0.0,
			"0.019": 0.0,
			"0.02": 0.0,
			"0.021": 0.0,
			"0.022": 0.0,
			"0.023": 0.0,
			"0.024": 0.0,
			"0.025": 0.0
		}
	}
}
