{
	 "smiles": "BrC1=CC=C(OC2=CC=CC=C2)C=C1", 
	 "Tm": 291.55, 
	 "num_atms": 23, 
	 "gaussian": { 
		 "optdone": 1, 
		 "sigma_profile": "yes", 
		 "theory": "DFT", 
		 "functional": "B3LYP", 
		 "basiset": "6-31G**", 
		 "properties": { 
			 "R2extent": 7228.0661, 
			 "electric_dipole_moment_norm": 2.10672352719, 
			 "electric_quadrupole_moment_norm": 6.9377546238, 
			 "total_energy": -3109.31915361, 
			 "HOMO_LUMO_gap": 0.20014, 
			 "cosmo_polarized_energy": -5.84, 
			 "cosmo_cavitation_energy": 29.87, 
			 "cosmo_dispersion_energy": -22.19, 
			 "cosmo_repulsion_energy": 1.75, 
			 "cosmo_total_nonelectrostatic_energy": 9.43, 
			 "SMD_solvation_energy": 4.13 
		},
		"coords": [
			{
				"x": 1.5273254704,
				"y": -1.0615457886,
				"z": -5.4749861131,
				"element": "Br" 
			},
			{
				"x": 0.9107003621,
				"y": -0.3729643631,
				"z": -3.8008619419,
				"element": "C" 
			},
			{
				"x": 1.4349806802,
				"y": -0.8797785513,
				"z": -2.6132813755,
				"element": "C" 
			},
			{
				"x": 0.9879271836,
				"y": -0.379885842,
				"z": -1.3901404872,
				"element": "C" 
			},
			{
				"x": 0.0229926864,
				"y": 0.6321988192,
				"z": -1.3670638078,
				"element": "C" 
			},
			{
				"x": -0.5177813751,
				"y": 1.1342457768,
				"z": -0.2043876195,
				"element": "O" 
			},
			{
				"x": 0.2358119744,
				"y": 1.2086447012,
				"z": 0.9549520326,
				"element": "C" 
			},
			{
				"x": 1.533528951,
				"y": 1.7283646295,
				"z": 0.9667747804,
				"element": "C" 
			},
			{
				"x": 2.206654974,
				"y": 1.8480658603,
				"z": 2.1830333579,
				"element": "C" 
			},
			{
				"x": 1.591566833,
				"y": 1.4645874215,
				"z": 3.3771057222,
				"element": "C" 
			},
			{
				"x": 0.2910567165,
				"y": 0.9567072536,
				"z": 3.3509974816,
				"element": "C" 
			},
			{
				"x": -0.3904121391,
				"y": 0.8229131801,
				"z": 2.1409605702,
				"element": "C" 
			},
			{
				"x": -0.4996720418,
				"y": 1.1343874173,
				"z": -2.5621654899,
				"element": "C" 
			},
			{
				"x": -0.0583843898,
				"y": 0.6296445163,
				"z": -3.7832943006,
				"element": "C" 
			},
			{
				"x": 2.182079039,
				"y": -1.6649434255,
				"z": -2.6388173725,
				"element": "H" 
			},
			{
				"x": 1.3853422343,
				"y": -0.7770873217,
				"z": -0.4629595911,
				"element": "H" 
			},
			{
				"x": 2.0026270745,
				"y": 2.0366408684,
				"z": 0.038437313,
				"element": "H" 
			},
			{
				"x": 3.214766725,
				"y": 2.2523299107,
				"z": 2.1952039655,
				"element": "H" 
			},
			{
				"x": 2.1207206181,
				"y": 1.5638084048,
				"z": 4.3198269836,
				"element": "H" 
			},
			{
				"x": -0.196526918,
				"y": 0.6579767953,
				"z": 4.2743997862,
				"element": "H" 
			},
			{
				"x": -1.400865495,
				"y": 0.4301943917,
				"z": 2.097479276,
				"element": "H" 
			},
			{
				"x": -1.251412712,
				"y": 1.915337732,
				"z": -2.5196798081,
				"element": "H" 
			},
			{
				"x": -0.4609264517,
				"y": 1.0165576136,
				"z": -4.7124333619,
				"element": "H" 
			}
		],
		 "valence_orbital": [ 
			{
				"type": "occ",
				"energy": -0.28567,
				"method": "rhf"
			},
			{
				"type": "occ",
				"energy": -0.26759,
				"method": "rhf"
			},
			{
				"type": "occ",
				"energy": -0.25895,
				"method": "rhf"
			},
			{
				"type": "occ",
				"energy": -0.24956,
				"method": "rhf"
			},
			{
				"type": "occ",
				"energy": -0.22055,
				"method": "rhf"
			},
			{
				"type": "unocc",
				"energy": -0.02041,
				"method": "rhf"
			},
			{
				"type": "unocc",
				"energy": -0.01365,
				"method": "rhf"
			},
			{
				"type": "unocc",
				"energy": -0.00636,
				"method": "rhf"
			},
			{
				"type": "unocc",
				"energy": 0.00316,
				"method": "rhf"
			},
			{
				"type": "unocc",
				"energy": 0.00992,
				"method": "rhf"
			}
		],
		"cosmo_sigma_profile": { 
			"-0.025": 0.0,
			"-0.024": 0.0,
			"-0.023": 0.0,
			"-0.022": 0.0,
			"-0.021": 0.0,
			"-0.02": 0.0,
			"-0.019": 0.0,
			"-0.018": 0.0,
			"-0.017": 0.0,
			"-0.016": 0.0,
			"-0.015": 0.0,
			"-0.014": 0.0,
			"-0.013": 0.0,
			"-0.012": 0.0,
			"-0.011": 0.0,
			"-0.01": 0.0,
			"-0.009": 0.0,
			"-0.008": 0.283375354276,
			"-0.007": 6.48089201052,
			"-0.006": 15.1263530386,
			"-0.005": 16.8638896765,
			"-0.004": 19.2841259101,
			"-0.003": 15.8220964151,
			"-0.002": 14.7747510474,
			"-0.001": 15.4870893605,
			"0.0": 16.1734707618,
			"0.001": 19.0858973836,
			"0.002": 25.800740135,
			"0.003": 30.6465073104,
			"0.004": 23.0269991692,
			"0.005": 18.7084754359,
			"0.006": 3.03607345139,
			"0.007": 1.2603922139,
			"0.008": 1.05354710411,
			"0.009": 0.696450394464,
			"0.01": 0.00636679521213,
			"0.011": 0.0,
			"0.012": 0.0,
			"0.013": 0.0,
			"0.014": 0.0,
			"0.015": 0.0,
			"0.016": 0.0,
			"0.017": 0.0,
			"0.018": 0.0,
			"0.019": 0.0,
			"0.02": 0.0,
			"0.021": 0.0,
			"0.022": 0.0,
			"0.023": 0.0,
			"0.024": 0.0,
			"0.025": 0.0
		}
	}
}
