{
	 "smiles": "CCCCCCOC1=CC=C(CC(O)=O)C=C1", 
	 "Tm": 353.15, 
	 "num_atms": 37, 
	 "gaussian": { 
		 "optdone": 1, 
		 "sigma_profile": "yes", 
		 "theory": "DFT", 
		 "functional": "B3LYP", 
		 "basiset": "6-31G**", 
		 "properties": { 
			 "R2extent": 8990.8674, 
			 "electric_dipole_moment_norm": 3.02456283453, 
			 "electric_quadrupole_moment_norm": 11.9847796029, 
			 "total_energy": -771.241710266, 
			 "HOMO_LUMO_gap": 0.21003, 
			 "cosmo_polarized_energy": -11.82, 
			 "cosmo_cavitation_energy": 40.11, 
			 "cosmo_dispersion_energy": -28.02, 
			 "cosmo_repulsion_energy": 2.25, 
			 "cosmo_total_nonelectrostatic_energy": 14.34, 
			 "SMD_solvation_energy": 7.57 
		},
		"coords": [
			{
				"x": 2.8137945154,
				"y": 4.5738491396,
				"z": 0.248387458,
				"element": "C" 
			},
			{
				"x": 2.089871012,
				"y": 3.262467479,
				"z": -0.0742854688,
				"element": "C" 
			},
			{
				"x": 0.9866171334,
				"y": 3.4346836891,
				"z": -1.1278601423,
				"element": "C" 
			},
			{
				"x": 0.2783775732,
				"y": 2.1336968335,
				"z": -1.5404811005,
				"element": "C" 
			},
			{
				"x": -0.5420222071,
				"y": 1.4749728746,
				"z": -0.4218730626,
				"element": "C" 
			},
			{
				"x": -1.3059763799,
				"y": 0.2472984837,
				"z": -0.9200648739,
				"element": "C" 
			},
			{
				"x": -2.1261225358,
				"y": -0.3436154215,
				"z": 0.0897534592,
				"element": "O" 
			},
			{
				"x": -1.5750386238,
				"y": -1.1885398289,
				"z": 1.0100531336,
				"element": "C" 
			},
			{
				"x": -2.4652264462,
				"y": -1.690600534,
				"z": 1.973469561,
				"element": "C" 
			},
			{
				"x": -2.0220612076,
				"y": -2.5753288506,
				"z": 2.9466209755,
				"element": "C" 
			},
			{
				"x": -0.6803633107,
				"y": -2.9881982997,
				"z": 2.9904138063,
				"element": "C" 
			},
			{
				"x": -0.2034845662,
				"y": -3.9613804879,
				"z": 4.0576436033,
				"element": "C" 
			},
			{
				"x": -0.3433045078,
				"y": -3.360508331,
				"z": 5.4440285421,
				"element": "C" 
			},
			{
				"x": 0.801151048,
				"y": -2.7689017128,
				"z": 5.8617737717,
				"element": "O" 
			},
			{
				"x": -1.3563993728,
				"y": -3.3654745175,
				"z": 6.1092200483,
				"element": "O" 
			},
			{
				"x": 0.1973844496,
				"y": -2.4770680576,
				"z": 2.0343052354,
				"element": "C" 
			},
			{
				"x": -0.2332828909,
				"y": -1.5853204072,
				"z": 1.0468387177,
				"element": "C" 
			},
			{
				"x": 3.2863543411,
				"y": 4.9963658866,
				"z": -0.6457827222,
				"element": "H" 
			},
			{
				"x": 3.5962807082,
				"y": 4.4250877593,
				"z": 0.9995534907,
				"element": "H" 
			},
			{
				"x": 2.1173576907,
				"y": 5.3248138131,
				"z": 0.6386430996,
				"element": "H" 
			},
			{
				"x": 2.8173877592,
				"y": 2.5211080361,
				"z": -0.4333844664,
				"element": "H" 
			},
			{
				"x": 1.6648926368,
				"y": 2.8495956656,
				"z": 0.8491005518,
				"element": "H" 
			},
			{
				"x": 0.2396760532,
				"y": 4.1511059907,
				"z": -0.7571842944,
				"element": "H" 
			},
			{
				"x": 1.4255594078,
				"y": 3.8929509009,
				"z": -2.0244293027,
				"element": "H" 
			},
			{
				"x": -0.3860323505,
				"y": 2.3491191889,
				"z": -2.388569036,
				"element": "H" 
			},
			{
				"x": 1.0258775589,
				"y": 1.4197773024,
				"z": -1.9158276343,
				"element": "H" 
			},
			{
				"x": 0.1072057323,
				"y": 1.1859066612,
				"z": 0.4114661789,
				"element": "H" 
			},
			{
				"x": -1.2688798452,
				"y": 2.1911436294,
				"z": -0.0182859865,
				"element": "H" 
			},
			{
				"x": -0.6258459236,
				"y": -0.5010827257,
				"z": -1.3486666256,
				"element": "H" 
			},
			{
				"x": -2.0074767339,
				"y": 0.5369017545,
				"z": -1.7088949969,
				"element": "H" 
			},
			{
				"x": -3.5018443994,
				"y": -1.3722735073,
				"z": 1.9327839233,
				"element": "H" 
			},
			{
				"x": -2.718993967,
				"y": -2.9481063293,
				"z": 3.6918832619,
				"element": "H" 
			},
			{
				"x": 0.8393546374,
				"y": -4.2344192321,
				"z": 3.8807992914,
				"element": "H" 
			},
			{
				"x": -0.8109845097,
				"y": -4.8717272924,
				"z": 4.04479867,
				"element": "H" 
			},
			{
				"x": 0.600199526,
				"y": -2.3785453107,
				"z": 6.7294191044,
				"element": "H" 
			},
			{
				"x": 1.2428356034,
				"y": -2.7747044271,
				"z": 2.0514416158,
				"element": "H" 
			},
			{
				"x": 0.4835623916,
				"y": -1.211749815,
				"z": 0.3254922133,
				"element": "H" 
			}
		],
		 "valence_orbital": [ 
			{
				"type": "occ",
				"energy": -0.31515,
				"method": "rhf"
			},
			{
				"type": "occ",
				"energy": -0.30652,
				"method": "rhf"
			},
			{
				"type": "occ",
				"energy": -0.27201,
				"method": "rhf"
			},
			{
				"type": "occ",
				"energy": -0.24934,
				"method": "rhf"
			},
			{
				"type": "occ",
				"energy": -0.21282,
				"method": "rhf"
			},
			{
				"type": "unocc",
				"energy": -0.00279,
				"method": "rhf"
			},
			{
				"type": "unocc",
				"energy": 0.00011,
				"method": "rhf"
			},
			{
				"type": "unocc",
				"energy": 0.02644,
				"method": "rhf"
			},
			{
				"type": "unocc",
				"energy": 0.07775,
				"method": "rhf"
			},
			{
				"type": "unocc",
				"energy": 0.08091,
				"method": "rhf"
			}
		],
		"cosmo_sigma_profile": { 
			"-0.025": 0.0,
			"-0.024": 0.0,
			"-0.023": 0.0,
			"-0.022": 0.0,
			"-0.021": 0.0,
			"-0.02": 0.0,
			"-0.019": 0.0355658679448,
			"-0.018": 0.681812589489,
			"-0.017": 0.860686312245,
			"-0.016": 0.868812450474,
			"-0.015": 0.864340170871,
			"-0.014": 0.878815546861,
			"-0.013": 0.266579639428,
			"-0.012": 0.560613422108,
			"-0.011": 1.22552865457,
			"-0.01": 0.55819302689,
			"-0.009": 0.492878710391,
			"-0.008": 0.445687483526,
			"-0.007": 1.99647285676,
			"-0.006": 10.3292121187,
			"-0.005": 15.1639395316,
			"-0.004": 18.4216097399,
			"-0.003": 24.8397806443,
			"-0.002": 37.730868626,
			"-0.001": 38.6575091988,
			"0.0": 36.2128333798,
			"0.001": 29.945371191,
			"0.002": 19.0183098256,
			"0.003": 13.1961298264,
			"0.004": 13.3812655287,
			"0.005": 14.6421514775,
			"0.006": 7.73703169987,
			"0.007": 3.31044118281,
			"0.008": 3.97210506887,
			"0.009": 4.4719820327,
			"0.01": 3.56167246911,
			"0.011": 4.21367515286,
			"0.012": 4.39467691962,
			"0.013": 0.421532979301,
			"0.014": 0.0,
			"0.015": 0.0,
			"0.016": 0.0,
			"0.017": 0.0,
			"0.018": 0.0,
			"0.019": 0.0,
			"0.02": 0.0,
			"0.021": 0.0,
			"0.022": 0.0,
			"0.023": 0.0,
			"0.024": 0.0,
			"0.025": 0.0
		}
	}
}
