{
	 "smiles": "OC1CCN(CC1)C1=C2C=CC=CC2=CN=N1", 
	 "Tm": 409.15, 
	 "num_atms": 32, 
	 "gaussian": { 
		 "optdone": 1, 
		 "sigma_profile": "yes", 
		 "theory": "DFT", 
		 "functional": "B3LYP", 
		 "basiset": "6-31G**", 
		 "properties": { 
			 "R2extent": 4730.7797, 
			 "electric_dipole_moment_norm": 3.33640503237, 
			 "electric_quadrupole_moment_norm": 23.2575738133, 
			 "total_energy": -743.85957607, 
			 "HOMO_LUMO_gap": 0.1564, 
			 "cosmo_polarized_energy": -16.92, 
			 "cosmo_cavitation_energy": 33.29, 
			 "cosmo_dispersion_energy": -24.55, 
			 "cosmo_repulsion_energy": 1.87, 
			 "cosmo_total_nonelectrostatic_energy": 10.61, 
			 "SMD_solvation_energy": 2.78 
		},
		"coords": [
			{
				"x": 3.483340791,
				"y": -1.6059467544,
				"z": 1.5533308803,
				"element": "O" 
			},
			{
				"x": 2.4363861307,
				"y": -0.9431236378,
				"z": 0.8502118119,
				"element": "C" 
			},
			{
				"x": 2.3290745393,
				"y": -1.3981389269,
				"z": -0.6097638137,
				"element": "C" 
			},
			{
				"x": 1.2168653695,
				"y": -0.6373327182,
				"z": -1.3632675367,
				"element": "C" 
			},
			{
				"x": 0.1641690931,
				"y": -0.2120740221,
				"z": -0.4221263765,
				"element": "N" 
			},
			{
				"x": -0.073006549,
				"y": -1.2160548978,
				"z": 0.6294084653,
				"element": "C" 
			},
			{
				"x": 1.1265555083,
				"y": -1.2612930593,
				"z": 1.5918921468,
				"element": "C" 
			},
			{
				"x": -0.8990458364,
				"y": 0.507747476,
				"z": -0.9586116668,
				"element": "C" 
			},
			{
				"x": -1.8006735124,
				"y": 1.2543887074,
				"z": -0.1058735384,
				"element": "C" 
			},
			{
				"x": -1.6338407639,
				"y": 1.466720111,
				"z": 1.283737363,
				"element": "C" 
			},
			{
				"x": -2.5660551826,
				"y": 2.2000329541,
				"z": 1.9931775622,
				"element": "C" 
			},
			{
				"x": -3.6910293134,
				"y": 2.7555617591,
				"z": 1.3447314604,
				"element": "C" 
			},
			{
				"x": -3.8451793524,
				"y": 2.6080903811,
				"z": -0.0181929887,
				"element": "C" 
			},
			{
				"x": -2.8931927655,
				"y": 1.8743978453,
				"z": -0.7648574401,
				"element": "C" 
			},
			{
				"x": -2.9262576534,
				"y": 1.7826686237,
				"z": -2.1872910438,
				"element": "C" 
			},
			{
				"x": -1.9969444833,
				"y": 1.2003134681,
				"z": -2.9036413439,
				"element": "N" 
			},
			{
				"x": -0.9859923579,
				"y": 0.5376724286,
				"z": -2.2821049011,
				"element": "N" 
			},
			{
				"x": 4.3224186677,
				"y": -1.3466607821,
				"z": 1.1508281168,
				"element": "H" 
			},
			{
				"x": 2.5995206814,
				"y": 0.1459251509,
				"z": 0.8651046532,
				"element": "H" 
			},
			{
				"x": 3.2825836166,
				"y": -1.2443395152,
				"z": -1.1289626577,
				"element": "H" 
			},
			{
				"x": 2.1429610868,
				"y": -2.4786513161,
				"z": -0.6169872792,
				"element": "H" 
			},
			{
				"x": 1.609757585,
				"y": 0.2635244818,
				"z": -1.8429363527,
				"element": "H" 
			},
			{
				"x": 0.8004250318,
				"y": -1.2575855293,
				"z": -2.1675136186,
				"element": "H" 
			},
			{
				"x": -0.2177718589,
				"y": -2.2009780749,
				"z": 0.1573779608,
				"element": "H" 
			},
			{
				"x": -0.9997667617,
				"y": -0.9924136584,
				"z": 1.1564749975,
				"element": "H" 
			},
			{
				"x": 1.2179158464,
				"y": -2.2637395033,
				"z": 2.0239521143,
				"element": "H" 
			},
			{
				"x": 0.9937254697,
				"y": -0.5615883288,
				"z": 2.4243351402,
				"element": "H" 
			},
			{
				"x": -0.7538001993,
				"y": 1.0833880119,
				"z": 1.7863000956,
				"element": "H" 
			},
			{
				"x": -2.4262766222,
				"y": 2.3625173079,
				"z": 3.0578679586,
				"element": "H" 
			},
			{
				"x": -4.4188259311,
				"y": 3.320921262,
				"z": 1.9192783632,
				"element": "H" 
			},
			{
				"x": -4.6841049936,
				"y": 3.0648767841,
				"z": -0.5361847695,
				"element": "H" 
			},
			{
				"x": -3.7366352807,
				"y": 2.2498739716,
				"z": -2.7446937625,
				"element": "H" 
			}
		],
		 "valence_orbital": [ 
			{
				"type": "occ",
				"energy": -0.27413,
				"method": "rhf"
			},
			{
				"type": "occ",
				"energy": -0.26901,
				"method": "rhf"
			},
			{
				"type": "occ",
				"energy": -0.25537,
				"method": "rhf"
			},
			{
				"type": "occ",
				"energy": -0.22129,
				"method": "rhf"
			},
			{
				"type": "occ",
				"energy": -0.20869,
				"method": "rhf"
			},
			{
				"type": "unocc",
				"energy": -0.05229,
				"method": "rhf"
			},
			{
				"type": "unocc",
				"energy": -0.03592,
				"method": "rhf"
			},
			{
				"type": "unocc",
				"energy": 0.02412,
				"method": "rhf"
			},
			{
				"type": "unocc",
				"energy": 0.06628,
				"method": "rhf"
			},
			{
				"type": "unocc",
				"energy": 0.07472,
				"method": "rhf"
			}
		],
		"cosmo_sigma_profile": { 
			"-0.025": 0.0,
			"-0.024": 0.0,
			"-0.023": 0.0,
			"-0.022": 0.0,
			"-0.021": 0.0,
			"-0.02": 0.0,
			"-0.019": 0.0,
			"-0.018": 0.0,
			"-0.017": 0.0,
			"-0.016": 0.0486362070342,
			"-0.015": 0.917151367204,
			"-0.014": 1.0274833267,
			"-0.013": 0.667498847653,
			"-0.012": 1.2004514307,
			"-0.011": 1.0447386699,
			"-0.01": 0.932392212539,
			"-0.009": 0.552941795871,
			"-0.008": 1.06452801214,
			"-0.007": 9.02560115531,
			"-0.006": 13.0216848026,
			"-0.005": 15.2591962908,
			"-0.004": 21.8446669422,
			"-0.003": 29.1956716907,
			"-0.002": 28.6546563566,
			"-0.001": 19.2461641703,
			"0.0": 18.8259615434,
			"0.001": 19.3089983502,
			"0.002": 18.2177209701,
			"0.003": 15.3056187201,
			"0.004": 5.5995890227,
			"0.005": 4.90139386189,
			"0.006": 3.13768067497,
			"0.007": 3.47576882739,
			"0.008": 3.82170557222,
			"0.009": 2.64295248717,
			"0.01": 3.22742520406,
			"0.011": 3.34779623167,
			"0.012": 3.31616271246,
			"0.013": 3.02242829911,
			"0.014": 4.60748348639,
			"0.015": 2.86419014118,
			"0.016": 2.48865257522,
			"0.017": 0.792118523954,
			"0.018": 0.0129495145772,
			"0.019": 0.0,
			"0.02": 0.0,
			"0.021": 0.0,
			"0.022": 0.0,
			"0.023": 0.0,
			"0.024": 0.0,
			"0.025": 0.0
		}
	}
}
