{
	 "smiles": "ClC1=CC=C(C=C1)C(=O)C#N", 
	 "Tm": 315.15, 
	 "num_atms": 15, 
	 "gaussian": { 
		 "optdone": 1, 
		 "sigma_profile": "yes", 
		 "theory": "DFT", 
		 "functional": "B3LYP", 
		 "basiset": "6-31G**", 
		 "properties": { 
			 "R2extent": 3056.2007, 
			 "electric_dipole_moment_norm": 3.37832771353, 
			 "electric_quadrupole_moment_norm": 9.99774823198, 
			 "total_energy": -897.396098191, 
			 "HOMO_LUMO_gap": 0.16768, 
			 "cosmo_polarized_energy": -8.17, 
			 "cosmo_cavitation_energy": 23.27, 
			 "cosmo_dispersion_energy": -16.57, 
			 "cosmo_repulsion_energy": 1.32, 
			 "cosmo_total_nonelectrostatic_energy": 8.02, 
			 "SMD_solvation_energy": 5.85 
		},
		"coords": [
			{
				"x": 1.5704773307,
				"y": -4.0712064104,
				"z": -0.7795153131,
				"element": "Cl" 
			},
			{
				"x": 1.2804387846,
				"y": -2.5242920795,
				"z": -0.0183896618,
				"element": "C" 
			},
			{
				"x": 2.3718247568,
				"y": -1.7308947202,
				"z": 0.3539277025,
				"element": "C" 
			},
			{
				"x": 2.137399478,
				"y": -0.5033892254,
				"z": 0.9579758229,
				"element": "C" 
			},
			{
				"x": 0.8224368341,
				"y": -0.0664223745,
				"z": 1.1909354772,
				"element": "C" 
			},
			{
				"x": -0.2589304561,
				"y": -0.8759012095,
				"z": 0.8106157352,
				"element": "C" 
			},
			{
				"x": -0.0340119256,
				"y": -2.1082275088,
				"z": 0.2043534367,
				"element": "C" 
			},
			{
				"x": 0.6284475907,
				"y": 1.2491813123,
				"z": 1.8373944336,
				"element": "C" 
			},
			{
				"x": 1.5304729183,
				"y": 1.9901388229,
				"z": 2.1867016433,
				"element": "O" 
			},
			{
				"x": -0.7736021036,
				"y": 1.6749055618,
				"z": 2.0661463712,
				"element": "C" 
			},
			{
				"x": -1.8604467877,
				"y": 2.0368286202,
				"z": 2.2590653632,
				"element": "N" 
			},
			{
				"x": 3.3820053576,
				"y": -2.0782084861,
				"z": 0.1692348772,
				"element": "H" 
			},
			{
				"x": 2.960938341,
				"y": 0.1355158155,
				"z": 1.2585753313,
				"element": "H" 
			},
			{
				"x": -1.2773552925,
				"y": -0.5436113,
				"z": 0.9880620866,
				"element": "H" 
			},
			{
				"x": -0.8621948264,
				"y": -2.7410168181,
				"z": -0.093183306,
				"element": "H" 
			}
		],
		 "valence_orbital": [ 
			{
				"type": "occ",
				"energy": -0.35369,
				"method": "rhf"
			},
			{
				"type": "occ",
				"energy": -0.33624,
				"method": "rhf"
			},
			{
				"type": "occ",
				"energy": -0.30121,
				"method": "rhf"
			},
			{
				"type": "occ",
				"energy": -0.29448,
				"method": "rhf"
			},
			{
				"type": "occ",
				"energy": -0.27767,
				"method": "rhf"
			},
			{
				"type": "unocc",
				"energy": -0.10999,
				"method": "rhf"
			},
			{
				"type": "unocc",
				"energy": -0.04307,
				"method": "rhf"
			},
			{
				"type": "unocc",
				"energy": -0.02327,
				"method": "rhf"
			},
			{
				"type": "unocc",
				"energy": 0.00619,
				"method": "rhf"
			},
			{
				"type": "unocc",
				"energy": 0.01348,
				"method": "rhf"
			}
		],
		"cosmo_sigma_profile": { 
			"-0.025": 0.0,
			"-0.024": 0.0,
			"-0.023": 0.0,
			"-0.022": 0.0,
			"-0.021": 0.0,
			"-0.02": 0.0,
			"-0.019": 0.0,
			"-0.018": 0.0,
			"-0.017": 0.0,
			"-0.016": 0.0,
			"-0.015": 0.0,
			"-0.014": 0.0,
			"-0.013": 0.0,
			"-0.012": 0.0,
			"-0.011": 0.0,
			"-0.01": 0.0,
			"-0.009": 1.13711921847,
			"-0.008": 7.40956901716,
			"-0.007": 9.25883283658,
			"-0.006": 10.1689345375,
			"-0.005": 9.31740095085,
			"-0.004": 9.67999380288,
			"-0.003": 9.82927057268,
			"-0.002": 12.8372819092,
			"-0.001": 16.3257192267,
			"0.0": 23.1117578095,
			"0.001": 19.9227384478,
			"0.002": 9.97109697215,
			"0.003": 13.4185100211,
			"0.004": 9.01283234585,
			"0.005": 4.37647276543,
			"0.006": 4.08362749378,
			"0.007": 5.17148496129,
			"0.008": 5.29774539119,
			"0.009": 6.37583385045,
			"0.01": 3.67839333569,
			"0.011": 1.31695013758,
			"0.012": 0.0204947532219,
			"0.013": 0.0,
			"0.014": 0.0,
			"0.015": 0.0,
			"0.016": 0.0,
			"0.017": 0.0,
			"0.018": 0.0,
			"0.019": 0.0,
			"0.02": 0.0,
			"0.021": 0.0,
			"0.022": 0.0,
			"0.023": 0.0,
			"0.024": 0.0,
			"0.025": 0.0
		}
	}
}
