{
	 "smiles": "OC(=O)CCSCC1=NC2=C(C=CC=C2)C(=O)N1", 
	 "Tm": 467.15, 
	 "num_atms": 30, 
	 "gaussian": { 
		 "optdone": 1, 
		 "sigma_profile": "yes", 
		 "theory": "DFT", 
		 "functional": "B3LYP", 
		 "basiset": "6-31G**", 
		 "properties": { 
			 "R2extent": 6376.3418, 
			 "electric_dipole_moment_norm": 3.84695993481, 
			 "electric_quadrupole_moment_norm": 31.8771188824, 
			 "total_energy": -1197.91769149, 
			 "HOMO_LUMO_gap": 0.18545, 
			 "cosmo_polarized_energy": -23.37, 
			 "cosmo_cavitation_energy": 35.94, 
			 "cosmo_dispersion_energy": -25.68, 
			 "cosmo_repulsion_energy": 1.94, 
			 "cosmo_total_nonelectrostatic_energy": 12.2, 
			 "SMD_solvation_energy": 5.92 
		},
		"coords": [
			{
				"x": 4.3579461873,
				"y": 1.3780625697,
				"z": 1.8476454573,
				"element": "O" 
			},
			{
				"x": 3.390793001,
				"y": 0.9287446889,
				"z": 2.6770376352,
				"element": "C" 
			},
			{
				"x": 3.4488670312,
				"y": 1.1431878258,
				"z": 3.8633225018,
				"element": "O" 
			},
			{
				"x": 2.2111855096,
				"y": 0.1828782129,
				"z": 2.0460662098,
				"element": "C" 
			},
			{
				"x": 2.5158063116,
				"y": -0.8317178479,
				"z": 0.9348402532,
				"element": "C" 
			},
			{
				"x": 3.1668868082,
				"y": -0.1481666376,
				"z": -0.6517938069,
				"element": "S" 
			},
			{
				"x": 1.7699833989,
				"y": 0.9249370904,
				"z": -1.2034446157,
				"element": "C" 
			},
			{
				"x": 0.4605649758,
				"y": 0.1966118566,
				"z": -1.3418795383,
				"element": "C" 
			},
			{
				"x": -0.515264631,
				"y": 0.5064736359,
				"z": -0.549002177,
				"element": "N" 
			},
			{
				"x": -1.7162060828,
				"y": -0.1808522593,
				"z": -0.7100750279,
				"element": "C" 
			},
			{
				"x": -1.8914528989,
				"y": -1.1910096883,
				"z": -1.6866849157,
				"element": "C" 
			},
			{
				"x": -3.1202565281,
				"y": -1.8563681026,
				"z": -1.8094528873,
				"element": "C" 
			},
			{
				"x": -4.17349537,
				"y": -1.5231494562,
				"z": -0.9703925882,
				"element": "C" 
			},
			{
				"x": -4.0060509649,
				"y": -0.5208808883,
				"z": 0.0014097091,
				"element": "C" 
			},
			{
				"x": -2.7952650052,
				"y": 0.143559571,
				"z": 0.1333138844,
				"element": "C" 
			},
			{
				"x": -0.7708132804,
				"y": -1.5447237015,
				"z": -2.5669154333,
				"element": "C" 
			},
			{
				"x": -0.7673054162,
				"y": -2.3988552226,
				"z": -3.4399654141,
				"element": "O" 
			},
			{
				"x": 0.3770759538,
				"y": -0.7753057993,
				"z": -2.3114479369,
				"element": "N" 
			},
			{
				"x": 4.1779372237,
				"y": 1.1166830621,
				"z": 0.9222077385,
				"element": "H" 
			},
			{
				"x": 1.4835077527,
				"y": 0.9211309029,
				"z": 1.6866337771,
				"element": "H" 
			},
			{
				"x": 1.7223640257,
				"y": -0.3444320792,
				"z": 2.8697321441,
				"element": "H" 
			},
			{
				"x": 3.2895476179,
				"y": -1.5407142756,
				"z": 1.245496324,
				"element": "H" 
			},
			{
				"x": 1.6167781463,
				"y": -1.4104659485,
				"z": 0.7099550586,
				"element": "H" 
			},
			{
				"x": 1.6215495193,
				"y": 1.7575622014,
				"z": -0.5160581529,
				"element": "H" 
			},
			{
				"x": 2.1052900131,
				"y": 1.3247718729,
				"z": -2.1660913559,
				"element": "H" 
			},
			{
				"x": -3.2150105007,
				"y": -2.625269925,
				"z": -2.5690889823,
				"element": "H" 
			},
			{
				"x": -5.1265848304,
				"y": -2.0346108484,
				"z": -1.0624843478,
				"element": "H" 
			},
			{
				"x": -4.8335506696,
				"y": -0.2632492977,
				"z": 0.6561189749,
				"element": "H" 
			},
			{
				"x": -2.6497484487,
				"y": 0.9198646475,
				"z": 0.8771232095,
				"element": "H" 
			},
			{
				"x": 1.1903211506,
				"y": -1.0105961601,
				"z": -2.8693256973,
				"element": "H" 
			}
		],
		 "valence_orbital": [ 
			{
				"type": "occ",
				"energy": -0.27774,
				"method": "rhf"
			},
			{
				"type": "occ",
				"energy": -0.27315,
				"method": "rhf"
			},
			{
				"type": "occ",
				"energy": -0.27088,
				"method": "rhf"
			},
			{
				"type": "occ",
				"energy": -0.26398,
				"method": "rhf"
			},
			{
				"type": "occ",
				"energy": -0.24539,
				"method": "rhf"
			},
			{
				"type": "unocc",
				"energy": -0.05994,
				"method": "rhf"
			},
			{
				"type": "unocc",
				"energy": -0.05313,
				"method": "rhf"
			},
			{
				"type": "unocc",
				"energy": 0.00241,
				"method": "rhf"
			},
			{
				"type": "unocc",
				"energy": 0.01073,
				"method": "rhf"
			},
			{
				"type": "unocc",
				"energy": 0.01596,
				"method": "rhf"
			}
		],
		"cosmo_sigma_profile": { 
			"-0.025": 0.0,
			"-0.024": 0.0,
			"-0.023": 0.0,
			"-0.022": 0.0,
			"-0.021": 0.0,
			"-0.02": 0.0,
			"-0.019": 0.0,
			"-0.018": 0.0,
			"-0.017": 0.0,
			"-0.016": 0.153270131546,
			"-0.015": 0.905840056071,
			"-0.014": 1.36423172217,
			"-0.013": 0.915782877716,
			"-0.012": 1.2509311117,
			"-0.011": 2.10225607921,
			"-0.01": 2.17267736138,
			"-0.009": 5.05922189889,
			"-0.008": 8.92678460076,
			"-0.007": 12.8933279046,
			"-0.006": 21.4704803389,
			"-0.005": 23.2150098651,
			"-0.004": 20.5909895933,
			"-0.003": 18.433671556,
			"-0.002": 15.690813315,
			"-0.001": 13.4473668075,
			"0.0": 13.7695838899,
			"0.001": 14.5921761623,
			"0.002": 18.9974581934,
			"0.003": 20.2337987473,
			"0.004": 11.8955033591,
			"0.005": 5.24098235662,
			"0.006": 5.44983588989,
			"0.007": 6.28957214832,
			"0.008": 4.34409196795,
			"0.009": 4.98069738445,
			"0.01": 6.05382827876,
			"0.011": 8.11462979267,
			"0.012": 10.9672669322,
			"0.013": 8.204426501,
			"0.014": 0.591974436418,
			"0.015": 0.0,
			"0.016": 0.0,
			"0.017": 0.0,
			"0.018": 0.0,
			"0.019": 0.0,
			"0.02": 0.0,
			"0.021": 0.0,
			"0.022": 0.0,
			"0.023": 0.0,
			"0.024": 0.0,
			"0.025": 0.0
		}
	}
}
