{
	 "smiles": "BrC1=CC=CC2=C1NC=C2", 
	 "Tm": 319.65, 
	 "num_atms": 16, 
	 "gaussian": { 
		 "optdone": 1, 
		 "sigma_profile": "yes", 
		 "theory": "DFT", 
		 "functional": "B3LYP", 
		 "basiset": "6-31G**", 
		 "properties": { 
			 "R2extent": 2811.5866, 
			 "electric_dipole_moment_norm": 1.6433241281, 
			 "electric_quadrupole_moment_norm": 11.745700309, 
			 "total_energy": -2934.6267437, 
			 "HOMO_LUMO_gap": 0.19142, 
			 "cosmo_polarized_energy": -6.8, 
			 "cosmo_cavitation_energy": 22.02, 
			 "cosmo_dispersion_energy": -17.12, 
			 "cosmo_repulsion_energy": 1.37, 
			 "cosmo_total_nonelectrostatic_energy": 6.28, 
			 "SMD_solvation_energy": 2.59 
		},
		"coords": [
			{
				"x": 1.3246591846,
				"y": -1.2379383573,
				"z": -2.8676870827,
				"element": "Br" 
			},
			{
				"x": 0.2619878099,
				"y": -0.068420296,
				"z": -1.7892105115,
				"element": "C" 
			},
			{
				"x": -1.1150025535,
				"y": -0.0053395626,
				"z": -1.9333620804,
				"element": "C" 
			},
			{
				"x": -1.8683149371,
				"y": 0.868119313,
				"z": -1.1214657009,
				"element": "C" 
			},
			{
				"x": -1.2641294061,
				"y": 1.6779411361,
				"z": -0.1689843772,
				"element": "C" 
			},
			{
				"x": 0.1319999832,
				"y": 1.6242665696,
				"z": -0.0119639312,
				"element": "C" 
			},
			{
				"x": 0.885159558,
				"y": 0.7392232586,
				"z": -0.8362162625,
				"element": "C" 
			},
			{
				"x": 2.2090727619,
				"y": 0.8707826316,
				"z": -0.493619538,
				"element": "N" 
			},
			{
				"x": 2.3216994918,
				"y": 1.8067443863,
				"z": 0.5174679585,
				"element": "C" 
			},
			{
				"x": 1.0803150706,
				"y": 2.2890988437,
				"z": 0.8392610141,
				"element": "C" 
			},
			{
				"x": -1.6077794909,
				"y": -0.6286670324,
				"z": -2.6707205474,
				"element": "H" 
			},
			{
				"x": -2.9456512645,
				"y": 0.8994960201,
				"z": -1.2533243593,
				"element": "H" 
			},
			{
				"x": -1.8609691161,
				"y": 2.3441359121,
				"z": 0.446884571,
				"element": "H" 
			},
			{
				"x": 2.9619202419,
				"y": 0.357487128,
				"z": -0.9234295989,
				"element": "H" 
			},
			{
				"x": 3.2903953703,
				"y": 2.0532923603,
				"z": 0.9277400593,
				"element": "H" 
			},
			{
				"x": 0.8634372958,
				"y": 3.0312776889,
				"z": 1.5940303871,
				"element": "H" 
			}
		],
		 "valence_orbital": [ 
			{
				"type": "occ",
				"energy": -0.31362,
				"method": "rhf"
			},
			{
				"type": "occ",
				"energy": -0.29168,
				"method": "rhf"
			},
			{
				"type": "occ",
				"energy": -0.26574,
				"method": "rhf"
			},
			{
				"type": "occ",
				"energy": -0.22723,
				"method": "rhf"
			},
			{
				"type": "occ",
				"energy": -0.20841,
				"method": "rhf"
			},
			{
				"type": "unocc",
				"energy": -0.01699,
				"method": "rhf"
			},
			{
				"type": "unocc",
				"energy": 0.00923,
				"method": "rhf"
			},
			{
				"type": "unocc",
				"energy": 0.02018,
				"method": "rhf"
			},
			{
				"type": "unocc",
				"energy": 0.06491,
				"method": "rhf"
			},
			{
				"type": "unocc",
				"energy": 0.08462,
				"method": "rhf"
			}
		],
		"cosmo_sigma_profile": { 
			"-0.025": 0.0,
			"-0.024": 0.0,
			"-0.023": 0.0,
			"-0.022": 0.0,
			"-0.021": 0.0,
			"-0.02": 0.0,
			"-0.019": 0.0,
			"-0.018": 0.0,
			"-0.017": 0.0,
			"-0.016": 0.196598093909,
			"-0.015": 0.827308405561,
			"-0.014": 0.500043009775,
			"-0.013": 1.2988792504,
			"-0.012": 0.957900920856,
			"-0.011": 1.14701205085,
			"-0.01": 1.06231656388,
			"-0.009": 1.35143464223,
			"-0.008": 3.21364848372,
			"-0.007": 3.11463410597,
			"-0.006": 7.38501016227,
			"-0.005": 9.85484843336,
			"-0.004": 11.8594432004,
			"-0.003": 12.5688243457,
			"-0.002": 9.98596346979,
			"-0.001": 9.56039251968,
			"0.0": 10.0903230819,
			"0.001": 11.3418253234,
			"0.002": 14.5322543596,
			"0.003": 18.5287454827,
			"0.004": 21.928058982,
			"0.005": 19.2776221824,
			"0.006": 9.00198360736,
			"0.007": 0.925355489252,
			"0.008": 0.0,
			"0.009": 0.0,
			"0.01": 0.0,
			"0.011": 0.0,
			"0.012": 0.0,
			"0.013": 0.0,
			"0.014": 0.0,
			"0.015": 0.0,
			"0.016": 0.0,
			"0.017": 0.0,
			"0.018": 0.0,
			"0.019": 0.0,
			"0.02": 0.0,
			"0.021": 0.0,
			"0.022": 0.0,
			"0.023": 0.0,
			"0.024": 0.0,
			"0.025": 0.0
		}
	}
}
