{
	 "smiles": "ClC1=C(NC(=O)CC#N)C=CC=C1", 
	 "Tm": 398.15, 
	 "num_atms": 20, 
	 "gaussian": { 
		 "optdone": 1, 
		 "sigma_profile": "yes", 
		 "theory": "DFT", 
		 "functional": "B3LYP", 
		 "basiset": "6-31G**", 
		 "properties": { 
			 "R2extent": 3713.5564, 
			 "electric_dipole_moment_norm": 4.88630758344, 
			 "electric_quadrupole_moment_norm": 10.7139118379, 
			 "total_energy": -992.083979939, 
			 "HOMO_LUMO_gap": 0.20963, 
			 "cosmo_polarized_energy": -14.53, 
			 "cosmo_cavitation_energy": 27.34, 
			 "cosmo_dispersion_energy": -19.1, 
			 "cosmo_repulsion_energy": 1.52, 
			 "cosmo_total_nonelectrostatic_energy": 9.76, 
			 "SMD_solvation_energy": 6.48 
		},
		"coords": [
			{
				"x": -0.6586032162,
				"y": 4.1855556514,
				"z": 0.3878090129,
				"element": "Cl" 
			},
			{
				"x": -0.2032406972,
				"y": 3.0756225793,
				"z": -0.8960844167,
				"element": "C" 
			},
			{
				"x": 0.518723099,
				"y": 1.9073904574,
				"z": -0.5855314841,
				"element": "C" 
			},
			{
				"x": 0.8948588043,
				"y": 1.6457005122,
				"z": 0.7495612181,
				"element": "N" 
			},
			{
				"x": 0.798390076,
				"y": 0.4983175964,
				"z": 1.5065089925,
				"element": "C" 
			},
			{
				"x": 1.1770962677,
				"y": 0.4707020919,
				"z": 2.6623734006,
				"element": "O" 
			},
			{
				"x": 0.1461131586,
				"y": -0.7442506223,
				"z": 0.8636746198,
				"element": "C" 
			},
			{
				"x": 1.1358429864,
				"y": -1.6591632599,
				"z": 0.2954143482,
				"element": "C" 
			},
			{
				"x": 1.926361693,
				"y": -2.3671962371,
				"z": -0.1749777718,
				"element": "N" 
			},
			{
				"x": 0.8929387442,
				"y": 1.0628968922,
				"z": -1.6415812647,
				"element": "C" 
			},
			{
				"x": 0.5121738439,
				"y": 1.3477181116,
				"z": -2.9516212726,
				"element": "C" 
			},
			{
				"x": -0.2131140439,
				"y": 2.5042109345,
				"z": -3.2379940824,
				"element": "C" 
			},
			{
				"x": -0.5612869352,
				"y": 3.377445893,
				"z": -2.2076720559,
				"element": "C" 
			},
			{
				"x": 1.169956333,
				"y": 2.4436002687,
				"z": 1.311894061,
				"element": "H" 
			},
			{
				"x": -0.3800764469,
				"y": -1.252884623,
				"z": 1.6762072125,
				"element": "H" 
			},
			{
				"x": -0.5765988967,
				"y": -0.4765856737,
				"z": 0.0870961637,
				"element": "H" 
			},
			{
				"x": 1.5058817591,
				"y": 0.1929672445,
				"z": -1.4332598225,
				"element": "H" 
			},
			{
				"x": 0.8073155743,
				"y": 0.6736576991,
				"z": -3.7493578505,
				"element": "H" 
			},
			{
				"x": -0.5004929274,
				"y": 2.7363720753,
				"z": -4.2584362442,
				"element": "H" 
			},
			{
				"x": -1.1159391761,
				"y": 4.2869224085,
				"z": -2.4100227638,
				"element": "H" 
			}
		],
		 "valence_orbital": [ 
			{
				"type": "occ",
				"energy": -0.33378,
				"method": "rhf"
			},
			{
				"type": "occ",
				"energy": -0.31839,
				"method": "rhf"
			},
			{
				"type": "occ",
				"energy": -0.2791,
				"method": "rhf"
			},
			{
				"type": "occ",
				"energy": -0.27205,
				"method": "rhf"
			},
			{
				"type": "occ",
				"energy": -0.25184,
				"method": "rhf"
			},
			{
				"type": "unocc",
				"energy": -0.04221,
				"method": "rhf"
			},
			{
				"type": "unocc",
				"energy": -0.03414,
				"method": "rhf"
			},
			{
				"type": "unocc",
				"energy": -0.00103,
				"method": "rhf"
			},
			{
				"type": "unocc",
				"energy": 0.00939,
				"method": "rhf"
			},
			{
				"type": "unocc",
				"energy": 0.02564,
				"method": "rhf"
			}
		],
		"cosmo_sigma_profile": { 
			"-0.025": 0.0,
			"-0.024": 0.0,
			"-0.023": 0.0,
			"-0.022": 0.0,
			"-0.021": 0.0,
			"-0.02": 0.0,
			"-0.019": 0.0,
			"-0.018": 0.0,
			"-0.017": 0.0,
			"-0.016": 0.0,
			"-0.015": 0.00259199416465,
			"-0.014": 0.64148763281,
			"-0.013": 0.52654380408,
			"-0.012": 0.829907535765,
			"-0.011": 0.889118516893,
			"-0.01": 3.39663805784,
			"-0.009": 5.99479740939,
			"-0.008": 6.56088333671,
			"-0.007": 12.3320690561,
			"-0.006": 11.7339703473,
			"-0.005": 14.2369558652,
			"-0.004": 11.0948610142,
			"-0.003": 10.3378455972,
			"-0.002": 12.3935994586,
			"-0.001": 12.9236701073,
			"0.0": 15.7565112808,
			"0.001": 17.8851238775,
			"0.002": 17.0951639601,
			"0.003": 16.547423659,
			"0.004": 11.1883461934,
			"0.005": 5.65565774249,
			"0.006": 2.36398968842,
			"0.007": 4.0330547258,
			"0.008": 4.0162321224,
			"0.009": 4.48460664411,
			"0.01": 4.42240672058,
			"0.011": 6.00205387129,
			"0.012": 7.19508803768,
			"0.013": 2.0553637879,
			"0.014": 0.0,
			"0.015": 0.0,
			"0.016": 0.0,
			"0.017": 0.0,
			"0.018": 0.0,
			"0.019": 0.0,
			"0.02": 0.0,
			"0.021": 0.0,
			"0.022": 0.0,
			"0.023": 0.0,
			"0.024": 0.0,
			"0.0": 0.0
		}
	}
}
