{
	 "smiles": "O=C1C=C(NCCNC2=CC=CC=C2)C(=O)C2=CC=CC=C12", 
	 "Tm": 414.15, 
	 "num_atms": 38, 
	 "gaussian": { 
		 "optdone": 1, 
		 "sigma_profile": "yes", 
		 "theory": "DFT", 
		 "functional": "B3LYP", 
		 "basiset": "6-31G**", 
		 "properties": { 
			 "R2extent": 7204.229, 
			 "electric_dipole_moment_norm": 2.86206723017, 
			 "electric_quadrupole_moment_norm": 23.0639221849, 
			 "total_energy": -955.511871624, 
			 "HOMO_LUMO_gap": 0.09765, 
			 "cosmo_polarized_energy": -19.1, 
			 "cosmo_cavitation_energy": 41.84, 
			 "cosmo_dispersion_energy": -28.72, 
			 "cosmo_repulsion_energy": 2.19, 
			 "cosmo_total_nonelectrostatic_energy": 15.32, 
			 "SMD_solvation_energy": 7.43 
		},
		"coords": [
			{
				"x": -2.1796032853,
				"y": 2.2923538194,
				"z": 1.5117367463,
				"element": "O" 
			},
			{
				"x": -1.034901103,
				"y": 1.9872229629,
				"z": 1.1701458235,
				"element": "C" 
			},
			{
				"x": -0.3082003399,
				"y": 0.8977021092,
				"z": 1.7967780826,
				"element": "C" 
			},
			{
				"x": 0.9690633258,
				"y": 0.56442133,
				"z": 1.4395142235,
				"element": "C" 
			},
			{
				"x": 1.7505447708,
				"y": -0.4020082761,
				"z": 1.9805841731,
				"element": "N" 
			},
			{
				"x": 1.4381790169,
				"y": -1.2315762773,
				"z": 3.1254953428,
				"element": "C" 
			},
			{
				"x": 0.8917684489,
				"y": -2.6302320478,
				"z": 2.7756351576,
				"element": "C" 
			},
			{
				"x": -0.3957557244,
				"y": -2.6144927651,
				"z": 2.102834084,
				"element": "N" 
			},
			{
				"x": -0.5796719248,
				"y": -2.9777389948,
				"z": 0.7662315893,
				"element": "C" 
			},
			{
				"x": 0.4364899042,
				"y": -2.8512501136,
				"z": -0.1980463208,
				"element": "C" 
			},
			{
				"x": 0.1980052772,
				"y": -3.2153136162,
				"z": -1.5235029796,
				"element": "C" 
			},
			{
				"x": -1.0479338689,
				"y": -3.6958723602,
				"z": -1.926371442,
				"element": "C" 
			},
			{
				"x": -2.065088327,
				"y": -3.8074868174,
				"z": -0.9747603791,
				"element": "C" 
			},
			{
				"x": -1.8367410895,
				"y": -3.4598090519,
				"z": 0.352740995,
				"element": "C" 
			},
			{
				"x": 1.6778686735,
				"y": 1.309191144,
				"z": 0.3328354349,
				"element": "C" 
			},
			{
				"x": 2.8205324592,
				"y": 0.9772296305,
				"z": 0.0255533726,
				"element": "O" 
			},
			{
				"x": 0.9568498034,
				"y": 2.4143263152,
				"z": -0.3326306135,
				"element": "C" 
			},
			{
				"x": 1.5823808376,
				"y": 3.1286567926,
				"z": -1.3621602064,
				"element": "C" 
			},
			{
				"x": 0.908491832,
				"y": 4.1747165137,
				"z": -1.9881581672,
				"element": "C" 
			},
			{
				"x": -0.3898039354,
				"y": 4.5088967355,
				"z": -1.5872256514,
				"element": "C" 
			},
			{
				"x": -1.0157637091,
				"y": 3.7989271532,
				"z": -0.5619297269,
				"element": "C" 
			},
			{
				"x": -0.3487729947,
				"y": 2.7492307121,
				"z": 0.0704402232,
				"element": "C" 
			},
			{
				"x": -0.851194977,
				"y": 0.3407608671,
				"z": 2.5508349981,
				"element": "H" 
			},
			{
				"x": 2.6723463341,
				"y": -0.4520383231,
				"z": 1.561213681,
				"element": "H" 
			},
			{
				"x": 0.7174148081,
				"y": -0.7036555994,
				"z": 3.7587365586,
				"element": "H" 
			},
			{
				"x": 2.3540266691,
				"y": -1.3570916933,
				"z": 3.7174315671,
				"element": "H" 
			},
			{
				"x": 0.8051181891,
				"y": -3.1915092535,
				"z": 3.7162585758,
				"element": "H" 
			},
			{
				"x": 1.6250054385,
				"y": -3.1653705,
				"z": 2.1613433011,
				"element": "H" 
			},
			{
				"x": -1.1793064414,
				"y": -2.8487945559,
				"z": 2.6943154594,
				"element": "H" 
			},
			{
				"x": 1.4008683908,
				"y": -2.4393354948,
				"z": 0.0774064673,
				"element": "H" 
			},
			{
				"x": 0.9993977543,
				"y": -3.1078628144,
				"z": -2.2496226258,
				"element": "H" 
			},
			{
				"x": -1.2263531023,
				"y": -3.9716677735,
				"z": -2.9608392091,
				"element": "H" 
			},
			{
				"x": -3.0452258122,
				"y": -4.1763436801,
				"z": -1.2647345058,
				"element": "H" 
			},
			{
				"x": -2.6353134811,
				"y": -3.5610725779,
				"z": 1.0848171227,
				"element": "H" 
			},
			{
				"x": 2.589574366,
				"y": 2.8487758383,
				"z": -1.6525177262,
				"element": "H" 
			},
			{
				"x": 1.3913581281,
				"y": 4.7300136621,
				"z": -2.7867787792,
				"element": "H" 
			},
			{
				"x": -0.9136777652,
				"y": 5.3248384295,
				"z": -2.077032787,
				"element": "H" 
			},
			{
				"x": -2.0218765465,
				"y": 4.0362585709,
				"z": -0.2328718595,
				"element": "H" 
			}
		],
		 "valence_orbital": [ 
			{
				"type": "occ",
				"energy": -0.25952,
				"method": "rhf"
			},
			{
				"type": "occ",
				"energy": -0.24206,
				"method": "rhf"
			},
			{
				"type": "occ",
				"energy": -0.23943,
				"method": "rhf"
			},
			{
				"type": "occ",
				"energy": -0.2189,
				"method": "rhf"
			},
			{
				"type": "occ",
				"energy": -0.19442,
				"method": "rhf"
			},
			{
				"type": "unocc",
				"energy": -0.09677,
				"method": "rhf"
			},
			{
				"type": "unocc",
				"energy": -0.0295,
				"method": "rhf"
			},
			{
				"type": "unocc",
				"energy": -0.00118,
				"method": "rhf"
			},
			{
				"type": "unocc",
				"energy": 0.00669,
				"method": "rhf"
			},
			{
				"type": "unocc",
				"energy": 0.02126,
				"method": "rhf"
			}
		],
		"cosmo_sigma_profile": { 
			"-0.025": 0.0,
			"-0.024": 0.0,
			"-0.023": 0.0,
			"-0.022": 0.0,
			"-0.021": 0.0,
			"-0.02": 0.0,
			"-0.019": 0.0,
			"-0.018": 0.0,
			"-0.017": 0.0,
			"-0.016": 0.0,
			"-0.015": 0.0,
			"-0.014": 0.0,
			"-0.013": 0.361076506049,
			"-0.012": 2.30562078912,
			"-0.011": 2.57579282672,
			"-0.01": 1.65213980105,
			"-0.009": 2.73816612494,
			"-0.008": 3.49415193935,
			"-0.007": 7.93833193284,
			"-0.006": 18.745024719,
			"-0.005": 29.3258214539,
			"-0.004": 25.6993260422,
			"-0.003": 25.7951845111,
			"-0.002": 24.5143472875,
			"-0.001": 22.129494049,
			"0.0": 22.1318060713,
			"0.001": 23.0704409907,
			"0.002": 23.3912435631,
			"0.003": 22.3233205515,
			"0.004": 11.0128623564,
			"0.005": 12.239248798,
			"0.006": 13.3573564069,
			"0.007": 11.7927873346,
			"0.008": 6.52540432337,
			"0.009": 3.3873039781,
			"0.01": 4.84767891692,
			"0.011": 2.86846064676,
			"0.012": 2.95160693883,
			"0.013": 4.54165208066,
			"0.014": 2.07735216787,
			"0.015": 0.381243624215,
			"0.016": 0.0,
			"0.017": 0.0,
			"0.018": 0.0,
			"0.019": 0.0,
			"0.02": 0.0,
			"0.021": 0.0,
			"0.022": 0.0,
			"0.023": 0.0,
			"0.024": 0.0,
			"0.025": 0.0
		}
	}
}
