{
	 "smiles": "CC1(C)C2CCC(C2)C1=C", 
	 "Tm": 324.15, 
	 "num_atms": 26, 
	 "gaussian": { 
		 "optdone": 1, 
		 "sigma_profile": "yes", 
		 "theory": "DFT", 
		 "functional": "B3LYP", 
		 "basiset": "6-31G**", 
		 "properties": { 
			 "R2extent": 1682.7503, 
			 "electric_dipole_moment_norm": 0.56204351255, 
			 "electric_quadrupole_moment_norm": 1.59887183977, 
			 "total_energy": -390.692096275, 
			 "HOMO_LUMO_gap": 0.26074, 
			 "cosmo_polarized_energy": -1.76, 
			 "cosmo_cavitation_energy": 25.07, 
			 "cosmo_dispersion_energy": -18.26, 
			 "cosmo_repulsion_energy": 1.44, 
			 "cosmo_total_nonelectrostatic_energy": 8.25, 
			 "SMD_solvation_energy": 4.31 
		},
		"coords": [
			{
				"x": -1.4018535125,
				"y": 2.0025449874,
				"z": -1.924301828,
				"element": "C" 
			},
			{
				"x": -1.2153450645,
				"y": 0.6436770515,
				"z": -1.2232294263,
				"element": "C" 
			},
			{
				"x": -2.6119226057,
				"y": 0.0081819509,
				"z": -1.0408468708,
				"element": "C" 
			},
			{
				"x": -0.4670433328,
				"y": 0.7227285006,
				"z": 0.1534171013,
				"element": "C" 
			},
			{
				"x": 0.8535025724,
				"y": 1.520009879,
				"z": 0.0195695938,
				"element": "C" 
			},
			{
				"x": 1.7479867202,
				"y": 0.5798562144,
				"z": -0.8520027341,
				"element": "C" 
			},
			{
				"x": 0.8478702906,
				"y": -0.6758962444,
				"z": -1.0496986616,
				"element": "C" 
			},
			{
				"x": 0.0924869835,
				"y": -0.7125658037,
				"z": 0.2997091167,
				"element": "C" 
			},
			{
				"x": -0.270764818,
				"y": -0.2973155197,
				"z": -2.0024351882,
				"element": "C" 
			},
			{
				"x": -0.4112710514,
				"y": -0.7052400576,
				"z": -3.2637869989,
				"element": "C" 
			},
			{
				"x": -1.9478162973,
				"y": 2.7027408965,
				"z": -1.2805672455,
				"element": "H" 
			},
			{
				"x": -1.9834739334,
				"y": 1.8784503442,
				"z": -2.8437069596,
				"element": "H" 
			},
			{
				"x": -0.4516797695,
				"y": 2.4639507922,
				"z": -2.2036533745,
				"element": "H" 
			},
			{
				"x": -3.0831745931,
				"y": -0.1672458441,
				"z": -2.0132439763,
				"element": "H" 
			},
			{
				"x": -2.5697627849,
				"y": -0.951908875,
				"z": -0.5200191376,
				"element": "H" 
			},
			{
				"x": -3.2640820718,
				"y": 0.6764944164,
				"z": -0.4659492258,
				"element": "H" 
			},
			{
				"x": -1.1119896564,
				"y": 1.0752713358,
				"z": 0.9642202654,
				"element": "H" 
			},
			{
				"x": 1.2946008305,
				"y": 1.6688813583,
				"z": 1.0108712081,
				"element": "H" 
			},
			{
				"x": 0.7205878081,
				"y": 2.5114978705,
				"z": -0.4188088729,
				"element": "H" 
			},
			{
				"x": 2.0330517236,
				"y": 1.0276484408,
				"z": -1.8082627061,
				"element": "H" 
			},
			{
				"x": 2.6704138544,
				"y": 0.3080617838,
				"z": -0.327384472,
				"element": "H" 
			},
			{
				"x": 1.3981307075,
				"y": -1.5745727916,
				"z": -1.3394318468,
				"element": "H" 
			},
			{
				"x": 0.7599986946,
				"y": -0.8226150241,
				"z": 1.161434297,
				"element": "H" 
			},
			{
				"x": -0.6710036016,
				"y": -1.4931262531,
				"z": 0.3489760162,
				"element": "H" 
			},
			{
				"x": 0.3023308539,
				"y": -1.383141682,
				"z": -3.7248821824,
				"element": "H" 
			},
			{
				"x": -1.2414779464,
				"y": -0.381367727,
				"z": -3.8864858911,
				"element": "H" 
			}
		],
		 "valence_orbital": [ 
			{
				"type": "occ",
				"energy": -0.32185,
				"method": "rhf"
			},
			{
				"type": "occ",
				"energy": -0.30924,
				"method": "rhf"
			},
			{
				"type": "occ",
				"energy": -0.29396,
				"method": "rhf"
			},
			{
				"type": "occ",
				"energy": -0.29041,
				"method": "rhf"
			},
			{
				"type": "occ",
				"energy": -0.23357,
				"method": "rhf"
			},
			{
				"type": "unocc",
				"energy": 0.02717,
				"method": "rhf"
			},
			{
				"type": "unocc",
				"energy": 0.08079,
				"method": "rhf"
			},
			{
				"type": "unocc",
				"energy": 0.10481,
				"method": "rhf"
			},
			{
				"type": "unocc",
				"energy": 0.11766,
				"method": "rhf"
			},
			{
				"type": "unocc",
				"energy": 0.13445,
				"method": "rhf"
			}
		],
		"cosmo_sigma_profile": { 
			"-0.025": 0.0,
			"-0.024": 0.0,
			"-0.023": 0.0,
			"-0.022": 0.0,
			"-0.021": 0.0,
			"-0.02": 0.0,
			"-0.019": 0.0,
			"-0.018": 0.0,
			"-0.017": 0.0,
			"-0.016": 0.0,
			"-0.015": 0.0,
			"-0.014": 0.0,
			"-0.013": 0.0,
			"-0.012": 0.0,
			"-0.011": 0.0,
			"-0.01": 0.0,
			"-0.009": 0.0,
			"-0.008": 0.0,
			"-0.007": 0.0,
			"-0.006": 0.0,
			"-0.005": 0.0,
			"-0.004": 2.73338783903,
			"-0.003": 16.8091199361,
			"-0.002": 34.7063511613,
			"-0.001": 33.8679083383,
			"0.0": 30.7383472091,
			"0.001": 35.5930264878,
			"0.002": 21.0908854152,
			"0.003": 4.30959434893,
			"0.004": 3.89916582451,
			"0.005": 3.3733362922,
			"0.006": 3.39177609283,
			"0.007": 2.09954394234,
			"0.008": 0.832748827423,
			"0.009": 0.0,
			"0.01": 0.0,
			"0.011": 0.0,
			"0.012": 0.0,
			"0.013": 0.0,
			"0.014": 0.0,
			"0.015": 0.0,
			"0.016": 0.0,
			"0.017": 0.0,
			"0.018": 0.0,
			"0.019": 0.0,
			"0.02": 0.0,
			"0.021": 0.0,
			"0.022": 0.0,
			"0.023": 0.0,
			"0.024": 0.0,
			"0.025": 0.0
		}
	}
}
