{
	 "smiles": "CC1=C(N)C=C(C=C1)S(=O)(=O)N1CCCCC1", 
	 "Tm": 381.15, 
	 "num_atms": 35, 
	 "gaussian": { 
		 "optdone": 1, 
		 "sigma_profile": "yes", 
		 "theory": "DFT", 
		 "functional": "B3LYP", 
		 "basiset": "6-31G**", 
		 "properties": { 
			 "R2extent": 4846.2256, 
			 "electric_dipole_moment_norm": 7.26197962955, 
			 "electric_quadrupole_moment_norm": 14.6016731192, 
			 "total_energy": -1126.20647536, 
			 "HOMO_LUMO_gap": 0.19141, 
			 "cosmo_polarized_energy": -18.61, 
			 "cosmo_cavitation_energy": 36.81, 
			 "cosmo_dispersion_energy": -26.55, 
			 "cosmo_repulsion_energy": 2.03, 
			 "cosmo_total_nonelectrostatic_energy": 12.3, 
			 "SMD_solvation_energy": 3.69 
		},
		"coords": [
			{
				"x": -2.9763380742,
				"y": -2.6801274028,
				"z": 2.6580233829,
				"element": "C" 
			},
			{
				"x": -2.314945922,
				"y": -1.7572260918,
				"z": 1.6663867452,
				"element": "C" 
			},
			{
				"x": -2.5628609905,
				"y": -0.3633398723,
				"z": 1.7213821008,
				"element": "C" 
			},
			{
				"x": -3.4571894181,
				"y": 0.1539697104,
				"z": 2.6567005603,
				"element": "N" 
			},
			{
				"x": -1.9551571926,
				"y": 0.4842245302,
				"z": 0.7829853359,
				"element": "C" 
			},
			{
				"x": -1.1205542138,
				"y": -0.0473529258,
				"z": -0.1993045422,
				"element": "C" 
			},
			{
				"x": -0.8717130889,
				"y": -1.4185627297,
				"z": -0.2777633328,
				"element": "C" 
			},
			{
				"x": -1.4768524159,
				"y": -2.2513518955,
				"z": 0.6645950153,
				"element": "C" 
			},
			{
				"x": -0.3080311776,
				"y": 1.0722574242,
				"z": -1.3499615861,
				"element": "S" 
			},
			{
				"x": -0.0375712068,
				"y": 0.3125498865,
				"z": -2.5730682781,
				"element": "O" 
			},
			{
				"x": -1.0772068734,
				"y": 2.3206377391,
				"z": -1.3581108408,
				"element": "O" 
			},
			{
				"x": 1.1917379898,
				"y": 1.4452585606,
				"z": -0.6973090373,
				"element": "N" 
			},
			{
				"x": 2.2151852938,
				"y": 0.3790773359,
				"z": -0.7153088366,
				"element": "C" 
			},
			{
				"x": 3.5164274987,
				"y": 0.928827008,
				"z": -0.1270615928,
				"element": "C" 
			},
			{
				"x": 3.3495164387,
				"y": 1.3372824549,
				"z": 1.3546354616,
				"element": "C" 
			},
			{
				"x": 1.9121639334,
				"y": 1.8288479356,
				"z": 1.6495298367,
				"element": "C" 
			},
			{
				"x": 1.2639430675,
				"y": 2.4343915231,
				"z": 0.4010340843,
				"element": "C" 
			},
			{
				"x": -4.0682689673,
				"y": -2.5771571434,
				"z": 2.6315160363,
				"element": "H" 
			},
			{
				"x": -2.6585397905,
				"y": -2.4716564743,
				"z": 3.6897436759,
				"element": "H" 
			},
			{
				"x": -2.7308085267,
				"y": -3.7240287057,
				"z": 2.4494263894,
				"element": "H" 
			},
			{
				"x": -3.5421122657,
				"y": -0.3552925389,
				"z": 3.5243608281,
				"element": "H" 
			},
			{
				"x": -3.4067334217,
				"y": 1.1527626665,
				"z": 2.7991431309,
				"element": "H" 
			},
			{
				"x": -2.1636476629,
				"y": 1.5494779823,
				"z": 0.7893339892,
				"element": "H" 
			},
			{
				"x": -0.2562295376,
				"y": -1.8201491124,
				"z": -1.0736208487,
				"element": "H" 
			},
			{
				"x": -1.3033437385,
				"y": -3.3233597631,
				"z": 0.6146540349,
				"element": "H" 
			},
			{
				"x": 2.3533167472,
				"y": 0.0599602497,
				"z": -1.7497963357,
				"element": "H" 
			},
			{
				"x": 1.8891089765,
				"y": -0.4985918557,
				"z": -0.1336558429,
				"element": "H" 
			},
			{
				"x": 4.3021838684,
				"y": 0.1738732464,
				"z": -0.2342795053,
				"element": "H" 
			},
			{
				"x": 3.8277400173,
				"y": 1.7915647317,
				"z": -0.7270351937,
				"element": "H" 
			},
			{
				"x": 3.5839162198,
				"y": 0.4888662258,
				"z": 2.0073974819,
				"element": "H" 
			},
			{
				"x": 4.0750453061,
				"y": 2.1220768342,
				"z": 1.5959959383,
				"element": "H" 
			},
			{
				"x": 1.9145838758,
				"y": 2.5711795059,
				"z": 2.4553886449,
				"element": "H" 
			},
			{
				"x": 1.2890985322,
				"y": 0.9950125726,
				"z": 1.9933599934,
				"element": "H" 
			},
			{
				"x": 1.8429574382,
				"y": 3.3002837585,
				"z": 0.0538711362,
				"element": "H" 
			},
			{
				"x": 0.2573792813,
				"y": 2.8011146292,
				"z": 0.6078119704,
				"element": "H" 
			}
		],
		 "valence_orbital": [ 
			{
				"type": "occ",
				"energy": -0.28825,
				"method": "rhf"
			},
			{
				"type": "occ",
				"energy": -0.28705,
				"method": "rhf"
			},
			{
				"type": "occ",
				"energy": -0.26179,
				"method": "rhf"
			},
			{
				"type": "occ",
				"energy": -0.23438,
				"method": "rhf"
			},
			{
				"type": "occ",
				"energy": -0.21438,
				"method": "rhf"
			},
			{
				"type": "unocc",
				"energy": -0.02297,
				"method": "rhf"
			},
			{
				"type": "unocc",
				"energy": 0.00029,
				"method": "rhf"
			},
			{
				"type": "unocc",
				"energy": 0.06432,
				"method": "rhf"
			},
			{
				"type": "unocc",
				"energy": 0.0677,
				"method": "rhf"
			},
			{
				"type": "unocc",
				"energy": 0.07711,
				"method": "rhf"
			}
		],
		"cosmo_sigma_profile": { 
			"-0.025": 0.0,
			"-0.024": 0.0,
			"-0.023": 0.0,
			"-0.022": 0.0,
			"-0.021": 0.0,
			"-0.02": 0.0,
			"-0.019": 0.0,
			"-0.018": 0.0,
			"-0.017": 0.0,
			"-0.016": 0.0,
			"-0.015": 0.0,
			"-0.014": 0.00907656760759,
			"-0.013": 0.78730526922,
			"-0.012": 2.32824130692,
			"-0.011": 2.64740415619,
			"-0.01": 3.37393800094,
			"-0.009": 3.23261545133,
			"-0.008": 2.7936011598,
			"-0.007": 3.39428330996,
			"-0.006": 5.4883126582,
			"-0.005": 10.6415458129,
			"-0.004": 23.269923076,
			"-0.003": 36.6356277685,
			"-0.002": 39.5278304133,
			"-0.001": 28.2461723178,
			"0.0": 26.9818189659,
			"0.001": 13.0705767392,
			"0.002": 8.98457642859,
			"0.003": 10.7035509794,
			"0.004": 14.1402120119,
			"0.005": 8.44516246796,
			"0.006": 5.93506055716,
			"0.007": 5.01524185554,
			"0.008": 5.19157904641,
			"0.009": 4.12001278706,
			"0.01": 5.29819297984,
			"0.011": 8.73014232625,
			"0.012": 7.97823617357,
			"0.013": 1.17148866993,
			"0.014": 0.116291087536,
			"0.015": 0.0,
			"0.016": 0.0,
			"0.017": 0.0,
			"0.018": 0.0,
			"0.019": 0.0,
			"0.02": 0.0,
			"0.021": 0.0,
			"0.022": 0.0,
			"0.023": 0.0,
			"0.024": 0.0,
			"0.025": 0.0
		}
	}
}
