{
	 "smiles": "CC1=C(Cl)C=CC(OCC2=CC=C(C=C2)C(=O)NN)=C1", 
	 "Tm": 352.15, 
	 "num_atms": 35, 
	 "gaussian": { 
		 "optdone": 1, 
		 "sigma_profile": "yes", 
		 "theory": "DFT", 
		 "functional": "B3LYP", 
		 "basiset": "6-31G**", 
		 "properties": { 
			 "R2extent": 13054.3416, 
			 "electric_dipole_moment_norm": 2.44566975694, 
			 "electric_quadrupole_moment_norm": 20.0638679818, 
			 "total_energy": -1300.7645597, 
			 "HOMO_LUMO_gap": 0.17828, 
			 "cosmo_polarized_energy": -16.65, 
			 "cosmo_cavitation_energy": 41.54, 
			 "cosmo_dispersion_energy": -30.15, 
			 "cosmo_repulsion_energy": 2.31, 
			 "cosmo_total_nonelectrostatic_energy": 13.7, 
			 "SMD_solvation_energy": 7.79 
		},
		"coords": [
			{
				"x": 6.0099549419,
				"y": -0.3438764116,
				"z": 2.2460605218,
				"element": "C" 
			},
			{
				"x": 5.0387504175,
				"y": 0.3782858993,
				"z": 1.3481548077,
				"element": "C" 
			},
			{
				"x": 5.4288167323,
				"y": 1.4671779393,
				"z": 0.5472769387,
				"element": "C" 
			},
			{
				"x": 7.1021245227,
				"y": 2.0247621841,
				"z": 0.5763983265,
				"element": "Cl" 
			},
			{
				"x": 4.5247285137,
				"y": 2.1250216144,
				"z": -0.2776244278,
				"element": "C" 
			},
			{
				"x": 3.1898174861,
				"y": 1.7157976127,
				"z": -0.3314101334,
				"element": "C" 
			},
			{
				"x": 2.777059526,
				"y": 0.6376784332,
				"z": 0.4565332811,
				"element": "C" 
			},
			{
				"x": 1.5044183757,
				"y": 0.1402665811,
				"z": 0.4927964181,
				"element": "O" 
			},
			{
				"x": 0.5056471247,
				"y": 0.7773902692,
				"z": -0.2941725492,
				"element": "C" 
			},
			{
				"x": -0.8258428204,
				"y": 0.1092631655,
				"z": -0.0437854221,
				"element": "C" 
			},
			{
				"x": -1.1359985535,
				"y": -0.4488949051,
				"z": 1.2028142531,
				"element": "C" 
			},
			{
				"x": -2.3872952367,
				"y": -1.013656803,
				"z": 1.4291772984,
				"element": "C" 
			},
			{
				"x": -3.3531487885,
				"y": -1.0384442083,
				"z": 0.414656767,
				"element": "C" 
			},
			{
				"x": -3.0491108399,
				"y": -0.4667150216,
				"z": -0.8283988858,
				"element": "C" 
			},
			{
				"x": -1.794054407,
				"y": 0.0954927598,
				"z": -1.0539672691,
				"element": "C" 
			},
			{
				"x": -4.678534319,
				"y": -1.6626664632,
				"z": 0.729713982,
				"element": "C" 
			},
			{
				"x": -5.0836692949,
				"y": -1.8136095479,
				"z": 1.8790857271,
				"element": "O" 
			},
			{
				"x": -5.4271341518,
				"y": -2.0697110647,
				"z": -0.3528338943,
				"element": "N" 
			},
			{
				"x": -6.6081101384,
				"y": -2.8183745797,
				"z": -0.1410870892,
				"element": "N" 
			},
			{
				"x": 3.7021899301,
				"y": -0.0154739591,
				"z": 1.2821707431,
				"element": "C" 
			},
			{
				"x": 5.5128610809,
				"y": -1.1560204713,
				"z": 2.7816376976,
				"element": "H" 
			},
			{
				"x": 6.4500106629,
				"y": 0.3367590103,
				"z": 2.9826219102,
				"element": "H" 
			},
			{
				"x": 6.8409695348,
				"y": -0.7670607709,
				"z": 1.6718130865,
				"element": "H" 
			},
			{
				"x": 4.8600880539,
				"y": 2.9601385864,
				"z": -0.8828068139,
				"element": "H" 
			},
			{
				"x": 2.5026417893,
				"y": 2.2403066552,
				"z": -0.9836820721,
				"element": "H" 
			},
			{
				"x": 0.4484613778,
				"y": 1.8441187731,
				"z": -0.0258676843,
				"element": "H" 
			},
			{
				"x": 0.7641662363,
				"y": 0.7212921883,
				"z": -1.3611038545,
				"element": "H" 
			},
			{
				"x": -0.3868274296,
				"y": -0.445561262,
				"z": 1.9867869001,
				"element": "H" 
			},
			{
				"x": -2.641995281,
				"y": -1.4421986379,
				"z": 2.3926505172,
				"element": "H" 
			},
			{
				"x": -3.7957153228,
				"y": -0.4351224281,
				"z": -1.6163343924,
				"element": "H" 
			},
			{
				"x": -1.569400138,
				"y": 0.5324065386,
				"z": -2.0239657838,
				"element": "H" 
			},
			{
				"x": -4.9454007173,
				"y": -2.3121479463,
				"z": -1.2072424411,
				"element": "H" 
			},
			{
				"x": -6.4997795526,
				"y": -3.2685588074,
				"z": 0.7700830883,
				"element": "H" 
			},
			{
				"x": -7.3687510645,
				"y": -2.1504451916,
				"z": -0.0186498697,
				"element": "H" 
			},
			{
				"x": 3.3519617496,
				"y": -0.8506197308,
				"z": 1.8807003182,
				"element": "H" 
			}
		],
		 "valence_orbital": [ 
			{
				"type": "occ",
				"energy": -0.26556,
				"method": "rhf"
			},
			{
				"type": "occ",
				"energy": -0.25753,
				"method": "rhf"
			},
			{
				"type": "occ",
				"energy": -0.25479,
				"method": "rhf"
			},
			{
				"type": "occ",
				"energy": -0.25222,
				"method": "rhf"
			},
			{
				"type": "occ",
				"energy": -0.2228,
				"method": "rhf"
			},
			{
				"type": "unocc",
				"energy": -0.04452,
				"method": "rhf"
			},
			{
				"type": "unocc",
				"energy": -0.01709,
				"method": "rhf"
			},
			{
				"type": "unocc",
				"energy": -0.01176,
				"method": "rhf"
			},
			{
				"type": "unocc",
				"energy": -0.00072,
				"method": "rhf"
			},
			{
				"type": "unocc",
				"energy": 0.03391,
				"method": "rhf"
			}
		],
		"cosmo_sigma_profile": { 
			"-0.025": 0.0,
			"-0.024": 0.0,
			"-0.023": 0.0,
			"-0.022": 0.0,
			"-0.021": 0.0,
			"-0.02": 0.0,
			"-0.019": 0.0,
			"-0.018": 0.0,
			"-0.017": 0.0,
			"-0.016": 0.0,
			"-0.015": 0.0,
			"-0.014": 0.799226232714,
			"-0.013": 1.00387928005,
			"-0.012": 1.14097691922,
			"-0.011": 2.64019189555,
			"-0.01": 3.33910391559,
			"-0.009": 4.05020044372,
			"-0.008": 3.18039980178,
			"-0.007": 12.5312891435,
			"-0.006": 20.3323431032,
			"-0.005": 20.8667046662,
			"-0.004": 20.4759659136,
			"-0.003": 17.9434400129,
			"-0.002": 20.326146289,
			"-0.001": 21.6178548756,
			"0.0": 26.4534720408,
			"0.001": 20.7778183089,
			"0.002": 24.7935089818,
			"0.003": 30.9830863485,
			"0.004": 36.8841233241,
			"0.005": 13.1358054388,
			"0.006": 5.05849497638,
			"0.007": 2.58596232094,
			"0.008": 3.30607887488,
			"0.009": 2.14164660313,
			"0.01": 2.45541203239,
			"0.011": 2.19414169007,
			"0.012": 2.81061557212,
			"0.013": 5.34475229571,
			"0.014": 1.66447849842,
			"0.015": 0.818407575471,
			"0.016": 0.390681878167,
			"0.017": 0.405388799697,
			"0.018": 0.0,
			"0.019": 0.0,
			"0.02": 0.0,
			"0.021": 0.0,
			"0.022": 0.0,
			"0.023": 0.0,
			"0.024": 0.0,
			"0.025": 0.0
		}
	}
}
