{
	 "smiles": "COC1=CC2=C(C=C1OCC1=CC=CC=C1)C(C)NCC2", 
	 "Tm": 364.15, 
	 "num_atms": 42, 
	 "gaussian": { 
		 "optdone": 1, 
		 "sigma_profile": "yes", 
		 "theory": "DFT", 
		 "functional": "B3LYP", 
		 "basiset": "6-31G**", 
		 "properties": { 
			 "R2extent": 7171.8735, 
			 "electric_dipole_moment_norm": 1.84299360281, 
			 "electric_quadrupole_moment_norm": 9.08954088059, 
			 "total_energy": -903.748327462, 
			 "HOMO_LUMO_gap": 0.19686, 
			 "cosmo_polarized_energy": -11.7, 
			 "cosmo_cavitation_energy": 43.21, 
			 "cosmo_dispersion_energy": -29.67, 
			 "cosmo_repulsion_energy": 2.31, 
			 "cosmo_total_nonelectrostatic_energy": 15.84, 
			 "SMD_solvation_energy": 5.36 
		},
		"coords": [
			{
				"x": -2.6456954907,
				"y": 0.9065506172,
				"z": 3.6119242813,
				"element": "C" 
			},
			{
				"x": -1.8699552217,
				"y": -0.2697575586,
				"z": 3.3797878848,
				"element": "O" 
			},
			{
				"x": -0.8245071662,
				"y": -0.1277193939,
				"z": 2.4967949002,
				"element": "C" 
			},
			{
				"x": 0.4770923626,
				"y": -0.2290687237,
				"z": 2.9687549576,
				"element": "C" 
			},
			{
				"x": 1.5876192104,
				"y": -0.1609892953,
				"z": 2.1148643822,
				"element": "C" 
			},
			{
				"x": 1.3742803263,
				"y": 0.0315961527,
				"z": 0.7419327413,
				"element": "C" 
			},
			{
				"x": 0.0570510521,
				"y": 0.1112177885,
				"z": 0.2571989786,
				"element": "C" 
			},
			{
				"x": -1.041310901,
				"y": 0.0407296284,
				"z": 1.1118581139,
				"element": "C" 
			},
			{
				"x": -2.354718663,
				"y": 0.1151144033,
				"z": 0.7177618842,
				"element": "O" 
			},
			{
				"x": -2.6573877197,
				"y": 0.3597513141,
				"z": -0.652513849,
				"element": "C" 
			},
			{
				"x": -2.5094934329,
				"y": -0.8555541611,
				"z": -1.5487023492,
				"element": "C" 
			},
			{
				"x": -2.7170754643,
				"y": -2.1448830788,
				"z": -1.0454375629,
				"element": "C" 
			},
			{
				"x": -2.6327008674,
				"y": -3.2520368221,
				"z": -1.8900011667,
				"element": "C" 
			},
			{
				"x": -2.3485976032,
				"y": -3.0830330535,
				"z": -3.2470608864,
				"element": "C" 
			},
			{
				"x": -2.1431708743,
				"y": -1.7993688771,
				"z": -3.7553723799,
				"element": "C" 
			},
			{
				"x": -2.2191685829,
				"y": -0.6924850323,
				"z": -2.908154814,
				"element": "C" 
			},
			{
				"x": 2.5520927133,
				"y": 0.0793192414,
				"z": -0.2427787107,
				"element": "C" 
			},
			{
				"x": 2.4488356629,
				"y": 1.2310959837,
				"z": -1.2516547411,
				"element": "C" 
			},
			{
				"x": 3.8728754437,
				"y": 0.1539201061,
				"z": 0.3968213549,
				"element": "N" 
			},
			{
				"x": 3.9826743059,
				"y": -0.7021325318,
				"z": 1.5773019518,
				"element": "C" 
			},
			{
				"x": 2.988037709,
				"y": -0.3105590262,
				"z": 2.6771367035,
				"element": "C" 
			},
			{
				"x": -3.1433051877,
				"y": 1.2474871084,
				"z": 2.6988916181,
				"element": "H" 
			},
			{
				"x": -3.3978790283,
				"y": 0.6346695976,
				"z": 4.3558909431,
				"element": "H" 
			},
			{
				"x": -2.0210668098,
				"y": 1.7167068393,
				"z": 4.0115895006,
				"element": "H" 
			},
			{
				"x": 0.6130443146,
				"y": -0.3824453434,
				"z": 4.0361255631,
				"element": "H" 
			},
			{
				"x": -0.1063552671,
				"y": 0.1945822883,
				"z": -0.8102260608,
				"element": "H" 
			},
			{
				"x": -2.0611967439,
				"y": 1.1985706508,
				"z": -1.0364715917,
				"element": "H" 
			},
			{
				"x": -3.703902046,
				"y": 0.6844151865,
				"z": -0.636949095,
				"element": "H" 
			},
			{
				"x": -2.9334251082,
				"y": -2.2724555802,
				"z": 0.010621972,
				"element": "H" 
			},
			{
				"x": -2.7892345073,
				"y": -4.2489212379,
				"z": -1.4875550931,
				"element": "H" 
			},
			{
				"x": -2.2835521713,
				"y": -3.946341438,
				"z": -3.9030314297,
				"element": "H" 
			},
			{
				"x": -1.9155816446,
				"y": -1.6592203494,
				"z": -4.8083628533,
				"element": "H" 
			},
			{
				"x": -2.0506094481,
				"y": 0.3054726381,
				"z": -3.30778947,
				"element": "H" 
			},
			{
				"x": 2.535741058,
				"y": -0.8636849563,
				"z": -0.8125831691,
				"element": "H" 
			},
			{
				"x": 3.3327173508,
				"y": 1.229387067,
				"z": -1.8959910588,
				"element": "H" 
			},
			{
				"x": 2.3965427392,
				"y": 2.1963269156,
				"z": -0.7340369294,
				"element": "H" 
			},
			{
				"x": 1.5632026679,
				"y": 1.1451389855,
				"z": -1.8853787562,
				"element": "H" 
			},
			{
				"x": 4.042287892,
				"y": 1.1191594991,
				"z": 0.6783655598,
				"element": "H" 
			},
			{
				"x": 3.7996921061,
				"y": -1.7367118573,
				"z": 1.2592824169,
				"element": "H" 
			},
			{
				"x": 5.0120299949,
				"y": -0.6605226449,
				"z": 1.9508405614,
				"element": "H" 
			},
			{
				"x": 3.315723683,
				"y": 0.6364081656,
				"z": 3.133043681,
				"element": "H" 
			},
			{
				"x": 2.9890493569,
				"y": -1.0517292151,
				"z": 3.4866620165,
				"element": "H" 
			}
		],
		 "valence_orbital": [ 
			{
				"type": "occ",
				"energy": -0.25168,
				"method": "rhf"
			},
			{
				"type": "occ",
				"energy": -0.24596,
				"method": "rhf"
			},
			{
				"type": "occ",
				"energy": -0.22948,
				"method": "rhf"
			},
			{
				"type": "occ",
				"energy": -0.21525,
				"method": "rhf"
			},
			{
				"type": "occ",
				"energy": -0.20377,
				"method": "rhf"
			},
			{
				"type": "unocc",
				"energy": -0.00691,
				"method": "rhf"
			},
			{
				"type": "unocc",
				"energy": -0.00427,
				"method": "rhf"
			},
			{
				"type": "unocc",
				"energy": 0.00723,
				"method": "rhf"
			},
			{
				"type": "unocc",
				"energy": 0.01752,
				"method": "rhf"
			},
			{
				"type": "unocc",
				"energy": 0.08521,
				"method": "rhf"
			}
		],
		"cosmo_sigma_profile": { 
			"-0.025": 0.0,
			"-0.024": 0.0,
			"-0.023": 0.0,
			"-0.022": 0.0,
			"-0.021": 0.0,
			"-0.02": 0.0,
			"-0.019": 0.0,
			"-0.018": 0.0,
			"-0.017": 0.0,
			"-0.016": 0.0,
			"-0.015": 0.0,
			"-0.014": 0.0,
			"-0.013": 0.0,
			"-0.012": 0.0,
			"-0.011": 0.0,
			"-0.01": 0.0673669221721,
			"-0.009": 1.09119001584,
			"-0.008": 1.17262297949,
			"-0.007": 2.10882399468,
			"-0.006": 12.9446288417,
			"-0.005": 22.822427216,
			"-0.004": 28.0337456069,
			"-0.003": 42.0983321884,
			"-0.002": 38.4476118715,
			"-0.001": 31.9676710348,
			"0.0": 29.2351651241,
			"0.001": 22.9284244612,
			"0.002": 19.4117267366,
			"0.003": 16.958551196,
			"0.004": 17.4741708087,
			"0.005": 19.4738748031,
			"0.006": 14.8390587415,
			"0.007": 2.78153833029,
			"0.008": 2.38241005586,
			"0.009": 2.74464570615,
			"0.01": 2.43009928343,
			"0.011": 2.69833093129,
			"0.012": 3.08743909827,
			"0.013": 0.483053231164,
			"0.014": 0.581745642796,
			"0.015": 0.304628261694,
			"0.016": 0.663598194434,
			"0.017": 0.659419644597,
			"0.018": 0.364435423278,
			"0.019": 0.10220271414,
			"0.02": 0.0,
			"0.021": 0.0,
			"0.022": 0.0,
			"0.023": 0.0,
			"0.024": 0.0,
			"0.025": 0.0
		}
	}
}
