{
	 "smiles": "CCOC(=O)C1=C(N(N=C1)C1=CC=C(C=C1)[N+]([O-])=O)C(F)(F)F", 
	 "Tm": 381.15, 
	 "num_atms": 33, 
	 "gaussian": { 
		 "optdone": 1, 
		 "sigma_profile": "yes", 
		 "theory": "DFT", 
		 "functional": "B3LYP", 
		 "basiset": "6-31G**", 
		 "properties": { 
			 "R2extent": 9527.019, 
			 "electric_dipole_moment_norm": 3.92679718982, 
			 "electric_quadrupole_moment_norm": 21.1028056533, 
			 "total_energy": -1265.96947037, 
			 "HOMO_LUMO_gap": 0.16798, 
			 "cosmo_polarized_energy": -13.05, 
			 "cosmo_cavitation_energy": 40.41, 
			 "cosmo_dispersion_energy": -27.88, 
			 "cosmo_repulsion_energy": 2.06, 
			 "cosmo_total_nonelectrostatic_energy": 14.6, 
			 "SMD_solvation_energy": 10.62 
		},
		"coords": [
			{
				"x": -3.8033850926,
				"y": 0.4579525071,
				"z": 4.8859299299,
				"element": "C" 
			},
			{
				"x": -4.1231935076,
				"y": -0.1596345312,
				"z": 3.5336006812,
				"element": "C" 
			},
			{
				"x": -2.9743784705,
				"y": -0.1092115999,
				"z": 2.6487280515,
				"element": "O" 
			},
			{
				"x": -2.1003115593,
				"y": -1.1269038137,
				"z": 2.7373549054,
				"element": "C" 
			},
			{
				"x": -2.1835440896,
				"y": -2.0450505844,
				"z": 3.5303898664,
				"element": "O" 
			},
			{
				"x": -0.9646688194,
				"y": -0.9929522425,
				"z": 1.7977324747,
				"element": "C" 
			},
			{
				"x": -0.776993507,
				"y": -0.2638634203,
				"z": 0.6270057432,
				"element": "C" 
			},
			{
				"x": 0.5199790211,
				"y": -0.4875388688,
				"z": 0.2346588594,
				"element": "N" 
			},
			{
				"x": 1.1613525799,
				"y": -1.3409003085,
				"z": 1.0792803747,
				"element": "N" 
			},
			{
				"x": 0.2721835594,
				"y": -1.6473843404,
				"z": 2.0077152029,
				"element": "C" 
			},
			{
				"x": 1.282914286,
				"y": 0.0646208525,
				"z": -0.8377181912,
				"element": "C" 
			},
			{
				"x": 2.1687731688,
				"y": -0.7775886076,
				"z": -1.5192086171,
				"element": "C" 
			},
			{
				"x": 2.9608702384,
				"y": -0.2613622902,
				"z": -2.5378299339,
				"element": "C" 
			},
			{
				"x": 2.8503784768,
				"y": 1.0909173857,
				"z": -2.8564512396,
				"element": "C" 
			},
			{
				"x": 1.9798526046,
				"y": 1.9414304271,
				"z": -2.1787907995,
				"element": "C" 
			},
			{
				"x": 1.1959130159,
				"y": 1.4250132758,
				"z": -1.1529922762,
				"element": "C" 
			},
			{
				"x": 3.6845044548,
				"y": 1.6397880747,
				"z": -3.9377685958,
				"element": "N" 
			},
			{
				"x": 3.5658745839,
				"y": 2.8367090144,
				"z": -4.1957836367,
				"element": "O" 
			},
			{
				"x": 4.4472722917,
				"y": 0.8667887168,
				"z": -4.515381,
				"element": "O" 
			},
			{
				"x": -1.7672208676,
				"y": 0.5197406177,
				"z": -0.1919976295,
				"element": "C" 
			},
			{
				"x": -1.4840035931,
				"y": 0.4356147739,
				"z": -1.5107271976,
				"element": "F" 
			},
			{
				"x": -1.7642077681,
				"y": 1.8338412013,
				"z": 0.1345397236,
				"element": "F" 
			},
			{
				"x": -3.0125131721,
				"y": 0.0587436252,
				"z": -0.0265567817,
				"element": "F" 
			},
			{
				"x": -4.706692008,
				"y": 0.4792938509,
				"z": 5.5044751723,
				"element": "H" 
			},
			{
				"x": -3.4420182188,
				"y": 1.4839301855,
				"z": 4.7706694619,
				"element": "H" 
			},
			{
				"x": -3.0447507392,
				"y": -0.1301705018,
				"z": 5.4078527098,
				"element": "H" 
			},
			{
				"x": -4.8926818289,
				"y": 0.4055861688,
				"z": 3.0032388125,
				"element": "H" 
			},
			{
				"x": -4.4400360466,
				"y": -1.1997614706,
				"z": 3.6374878404,
				"element": "H" 
			},
			{
				"x": 0.5232383632,
				"y": -2.3150743955,
				"z": 2.8195051449,
				"element": "H" 
			},
			{
				"x": 2.2313798999,
				"y": -1.8215241233,
				"z": -1.2381999501,
				"element": "H" 
			},
			{
				"x": 3.6531823899,
				"y": -0.8849437452,
				"z": -3.0889194217,
				"element": "H" 
			},
			{
				"x": 1.9379906165,
				"y": 2.9886307813,
				"z": -2.4496418544,
				"element": "H" 
			},
			{
				"x": 0.5286397375,
				"y": 2.0746633853,
				"z": -0.6003978297,
				"element": "H" 
			}
		],
		 "valence_orbital": [ 
			{
				"type": "occ",
				"energy": -0.29872,
				"method": "rhf"
			},
			{
				"type": "occ",
				"energy": -0.29365,
				"method": "rhf"
			},
			{
				"type": "occ",
				"energy": -0.29208,
				"method": "rhf"
			},
			{
				"type": "occ",
				"energy": -0.28796,
				"method": "rhf"
			},
			{
				"type": "occ",
				"energy": -0.27023,
				"method": "rhf"
			},
			{
				"type": "unocc",
				"energy": -0.10225,
				"method": "rhf"
			},
			{
				"type": "unocc",
				"energy": -0.05856,
				"method": "rhf"
			},
			{
				"type": "unocc",
				"energy": -0.0413,
				"method": "rhf"
			},
			{
				"type": "unocc",
				"energy": -0.01832,
				"method": "rhf"
			},
			{
				"type": "unocc",
				"energy": 0.00118,
				"method": "rhf"
			}
		],
		"cosmo_sigma_profile": { 
			"-0.025": 0.0,
			"-0.024": 0.0,
			"-0.023": 0.0,
			"-0.022": 0.0,
			"-0.021": 0.0,
			"-0.02": 0.0,
			"-0.019": 0.0,
			"-0.018": 0.0,
			"-0.017": 0.0,
			"-0.016": 0.0,
			"-0.015": 0.0,
			"-0.014": 0.0,
			"-0.013": 0.0,
			"-0.012": 0.0,
			"-0.011": 0.0,
			"-0.01": 0.0878567244015,
			"-0.009": 2.07974511671,
			"-0.008": 7.13050168031,
			"-0.007": 10.3034284621,
			"-0.006": 11.8389781888,
			"-0.005": 16.4489429481,
			"-0.004": 24.3043874549,
			"-0.003": 27.160332734,
			"-0.002": 29.2079949246,
			"-0.001": 32.2788768359,
			"0.0": 33.6963998415,
			"0.001": 27.2608139627,
			"0.002": 28.3281235707,
			"0.003": 12.4944531135,
			"0.004": 8.83375050823,
			"0.005": 7.49391662694,
			"0.006": 7.02354785337,
			"0.007": 11.4934591141,
			"0.008": 8.58175041486,
			"0.009": 6.54204376418,
			"0.01": 4.74489034879,
			"0.011": 4.63691122214,
			"0.012": 2.60774484287,
			"0.013": 0.0105971232315,
			"0.014": 0.0,
			"0.015": 0.0,
			"0.016": 0.0,
			"0.017": 0.0,
			"0.018": 0.0,
			"0.019": 0.0,
			"0.02": 0.0,
			"0.021": 0.0,
			"0.022": 0.0,
			"0.023": 0.0,
			"0.024": 0.0,
			"0.025": 0.0
		}
	}
}
