{
	 "smiles": "OC(=O)C1=CC2=C(N1)C=CC=C2F", 
	 "Tm": 483.15, 
	 "num_atms": 19, 
	 "gaussian": { 
		 "optdone": 1, 
		 "sigma_profile": "yes", 
		 "theory": "DFT", 
		 "functional": "B3LYP", 
		 "basiset": "6-31G**", 
		 "properties": { 
			 "R2extent": 3002.1102, 
			 "electric_dipole_moment_norm": 2.62749120836, 
			 "electric_quadrupole_moment_norm": 16.7312441056, 
			 "total_energy": -651.623482353, 
			 "HOMO_LUMO_gap": 0.16659, 
			 "cosmo_polarized_energy": -14.59, 
			 "cosmo_cavitation_energy": 24.54, 
			 "cosmo_dispersion_energy": -18.21, 
			 "cosmo_repulsion_energy": 1.4, 
			 "cosmo_total_nonelectrostatic_energy": 7.72, 
			 "SMD_solvation_energy": 5.54 
		},
		"coords": [
			{
				"x": 4.683247343,
				"y": 1.3146419735,
				"z": -0.4706561357,
				"element": "O" 
			},
			{
				"x": 3.7398966769,
				"y": 1.2209089098,
				"z": 0.4959218734,
				"element": "C" 
			},
			{
				"x": 4.0056804624,
				"y": 1.4802362743,
				"z": 1.6509642226,
				"element": "O" 
			},
			{
				"x": 2.3912530521,
				"y": 0.795016363,
				"z": 0.0828167984,
				"element": "C" 
			},
			{
				"x": 1.8309000229,
				"y": 0.4482038334,
				"z": -1.1314110213,
				"element": "C" 
			},
			{
				"x": 0.4659019351,
				"y": 0.12745384,
				"z": -0.8718738285,
				"element": "C" 
			},
			{
				"x": 0.2403970405,
				"y": 0.2952020727,
				"z": 0.525851671,
				"element": "C" 
			},
			{
				"x": 1.4303548968,
				"y": 0.7005985358,
				"z": 1.0714818779,
				"element": "N" 
			},
			{
				"x": -1.0109172663,
				"y": 0.0586786957,
				"z": 1.1169036186,
				"element": "C" 
			},
			{
				"x": -2.039769231,
				"y": -0.350937809,
				"z": 0.2820891535,
				"element": "C" 
			},
			{
				"x": -1.8532502624,
				"y": -0.5278927066,
				"z": -1.1087368299,
				"element": "C" 
			},
			{
				"x": -0.6145625362,
				"y": -0.28904337,
				"z": -1.6646852357,
				"element": "C" 
			},
			{
				"x": -0.4165569019,
				"y": -0.4522290643,
				"z": -2.989452906,
				"element": "F" 
			},
			{
				"x": 4.313323706,
				"y": 1.0758373385,
				"z": -1.3322578926,
				"element": "H" 
			},
			{
				"x": 2.3149052814,
				"y": 0.4194838505,
				"z": -2.0979068833,
				"element": "H" 
			},
			{
				"x": 1.6381003838,
				"y": 0.9130817784,
				"z": 2.0364727346,
				"element": "H" 
			},
			{
				"x": -1.1671196368,
				"y": 0.1907244724,
				"z": 2.1823969373,
				"element": "H" 
			},
			{
				"x": -3.0216711412,
				"y": -0.5435011785,
				"z": 0.7029753804,
				"element": "H" 
			},
			{
				"x": -2.6697138253,
				"y": -0.8487638094,
				"z": -1.7456935348,
				"element": "H" 
			}
		],
		 "valence_orbital": [ 
			{
				"type": "occ",
				"energy": -0.32215,
				"method": "rhf"
			},
			{
				"type": "occ",
				"energy": -0.29583,
				"method": "rhf"
			},
			{
				"type": "occ",
				"energy": -0.28637,
				"method": "rhf"
			},
			{
				"type": "occ",
				"energy": -0.24457,
				"method": "rhf"
			},
			{
				"type": "occ",
				"energy": -0.22436,
				"method": "rhf"
			},
			{
				"type": "unocc",
				"energy": -0.05777,
				"method": "rhf"
			},
			{
				"type": "unocc",
				"energy": 0.00717,
				"method": "rhf"
			},
			{
				"type": "unocc",
				"energy": 0.01433,
				"method": "rhf"
			},
			{
				"type": "unocc",
				"energy": 0.0476,
				"method": "rhf"
			},
			{
				"type": "unocc",
				"energy": 0.08884,
				"method": "rhf"
			}
		],
		"cosmo_sigma_profile": { 
			"-0.025": 0.0,
			"-0.024": 0.0,
			"-0.023": 0.0,
			"-0.022": 0.0,
			"-0.021": 0.0,
			"-0.02": 0.0,
			"-0.019": 0.580960150884,
			"-0.018": 0.837386959199,
			"-0.017": 1.23600266523,
			"-0.016": 1.56886863225,
			"-0.015": 1.42548241645,
			"-0.014": 1.4227696991,
			"-0.013": 2.56415604834,
			"-0.012": 2.16569201269,
			"-0.011": 2.0947613803,
			"-0.01": 2.1903165036,
			"-0.009": 2.18360946875,
			"-0.008": 2.31034221367,
			"-0.007": 6.72675720527,
			"-0.006": 8.49646364897,
			"-0.005": 6.9688260374,
			"-0.004": 9.85361017478,
			"-0.003": 7.67089863052,
			"-0.002": 8.58007445714,
			"-0.001": 10.122633373,
			"0.0": 10.8175174234,
			"0.001": 15.7585756155,
			"0.002": 20.0401389596,
			"0.003": 19.8053497854,
			"0.004": 18.8449321479,
			"0.005": 7.75665054675,
			"0.006": 2.30723042324,
			"0.007": 2.66660856104,
			"0.008": 2.72055455949,
			"0.009": 3.44760107853,
			"0.01": 4.68544135235,
			"0.011": 4.73571172819,
			"0.012": 3.50858157226,
			"0.013": 1.39275192387,
			"0.014": 0.030037753902,
			"0.015": 0.0,
			"0.016": 0.0,
			"0.017": 0.0,
			"0.018": 0.0,
			"0.019": 0.0,
			"0.02": 0.0,
			"0.021": 0.0,
			"0.022": 0.0,
			"0.023": 0.0,
			"0.024": 0.0,
			"0.025": 0.0
		}
	}
}
