{
	 "smiles": "NS(=O)(=O)C1=CC(Cl)=C(Cl)C(=C1)S(N)(=O)=O", 
	 "Tm": 502.15, 
	 "num_atms": 22, 
	 "gaussian": { 
		 "optdone": 1, 
		 "sigma_profile": "yes", 
		 "theory": "DFT", 
		 "functional": "B3LYP", 
		 "basiset": "6-31G**", 
		 "properties": { 
			 "R2extent": 6343.2662, 
			 "electric_dipole_moment_norm": 2.47588143093, 
			 "electric_quadrupole_moment_norm": 35.8947359836, 
			 "total_energy": -2359.25603072, 
			 "HOMO_LUMO_gap": 0.20316, 
			 "cosmo_polarized_energy": -25.61, 
			 "cosmo_cavitation_energy": 32.97, 
			 "cosmo_dispersion_energy": -25.26, 
			 "cosmo_repulsion_energy": 1.89, 
			 "cosmo_total_nonelectrostatic_energy": 9.61, 
			 "SMD_solvation_energy": 4.39 
		},
		"coords": [
			{
				"x": -0.6425926374,
				"y": 0.6920016801,
				"z": 3.7447896071,
				"element": "N" 
			},
			{
				"x": -1.705254135,
				"y": 1.0361804523,
				"z": 2.4825406747,
				"element": "S" 
			},
			{
				"x": -2.3833439083,
				"y": 2.2949055827,
				"z": 2.7992661177,
				"element": "O" 
			},
			{
				"x": -2.4242847375,
				"y": -0.1983460995,
				"z": 2.1675753348,
				"element": "O" 
			},
			{
				"x": -0.5990052451,
				"y": 1.3716820635,
				"z": 1.1029598166,
				"element": "C" 
			},
			{
				"x": -0.3421017021,
				"y": 2.691098382,
				"z": 0.751743368,
				"element": "C" 
			},
			{
				"x": 0.5046233663,
				"y": 2.9573748185,
				"z": -0.3257306631,
				"element": "C" 
			},
			{
				"x": 0.8001287251,
				"y": 4.6203207754,
				"z": -0.7507368872,
				"element": "Cl" 
			},
			{
				"x": 1.0943566572,
				"y": 1.9037100365,
				"z": -1.0437233153,
				"element": "C" 
			},
			{
				"x": 2.1359465087,
				"y": 2.2612648126,
				"z": -2.3923700987,
				"element": "Cl" 
			},
			{
				"x": 0.8115466772,
				"y": 0.576719354,
				"z": -0.6729458307,
				"element": "C" 
			},
			{
				"x": -0.0391936044,
				"y": 0.3094540573,
				"z": 0.3973731835,
				"element": "C" 
			},
			{
				"x": 1.548601793,
				"y": -0.8811951926,
				"z": -1.4863096006,
				"element": "S" 
			},
			{
				"x": 1.0636808362,
				"y": -0.852216539,
				"z": -3.0789190301,
				"element": "N" 
			},
			{
				"x": 0.8844603422,
				"y": -2.0355994454,
				"z": -0.8873286207,
				"element": "O" 
			},
			{
				"x": 2.9950184708,
				"y": -0.7098945824,
				"z": -1.4700013582,
				"element": "O" 
			},
			{
				"x": -0.7973080145,
				"y": -0.25368724,
				"z": 4.0836307551,
				"element": "H" 
			},
			{
				"x": -0.7358256679,
				"y": 1.384555104,
				"z": 4.4826341245,
				"element": "H" 
			},
			{
				"x": -0.806829809,
				"y": 3.504314384,
				"z": 1.2964801113,
				"element": "H" 
			},
			{
				"x": -0.259558255,
				"y": -0.719913906,
				"z": 0.6549864707,
				"element": "H" 
			},
			{
				"x": 0.0730567716,
				"y": -1.0296486358,
				"z": -3.2058883728,
				"element": "H" 
			},
			{
				"x": 1.4293775679,
				"y": -0.0700798622,
				"z": -3.6114257865,
				"element": "H" 
			}
		],
		 "valence_orbital": [ 
			{
				"type": "occ",
				"energy": -0.32191,
				"method": "rhf"
			},
			{
				"type": "occ",
				"energy": -0.31622,
				"method": "rhf"
			},
			{
				"type": "occ",
				"energy": -0.31492,
				"method": "rhf"
			},
			{
				"type": "occ",
				"energy": -0.29344,
				"method": "rhf"
			},
			{
				"type": "occ",
				"energy": -0.28169,
				"method": "rhf"
			},
			{
				"type": "unocc",
				"energy": -0.07853,
				"method": "rhf"
			},
			{
				"type": "unocc",
				"energy": -0.06401,
				"method": "rhf"
			},
			{
				"type": "unocc",
				"energy": -0.03224,
				"method": "rhf"
			},
			{
				"type": "unocc",
				"energy": 0.02731,
				"method": "rhf"
			},
			{
				"type": "unocc",
				"energy": 0.03808,
				"method": "rhf"
			}
		],
		"cosmo_sigma_profile": { 
			"-0.025": 0.0,
			"-0.024": 0.0,
			"-0.023": 0.0,
			"-0.022": 0.0,
			"-0.021": 0.0,
			"-0.02": 0.0,
			"-0.019": 0.0,
			"-0.018": 0.0,
			"-0.017": 0.181386969513,
			"-0.016": 1.93990323922,
			"-0.015": 3.24017612204,
			"-0.014": 4.45718075042,
			"-0.013": 5.85098694793,
			"-0.012": 5.18325882632,
			"-0.011": 3.45157916894,
			"-0.01": 4.20054875422,
			"-0.009": 4.77320750058,
			"-0.008": 6.31729638404,
			"-0.007": 5.87426435182,
			"-0.006": 7.29731568106,
			"-0.005": 8.14018158817,
			"-0.004": 12.1612421821,
			"-0.003": 22.2229847105,
			"-0.002": 20.4412980122,
			"-0.001": 13.4993496204,
			"0.0": 12.1410056123,
			"0.001": 14.0891789837,
			"0.002": 16.5696401931,
			"0.003": 14.8975095574,
			"0.004": 8.01092425858,
			"0.005": 6.89211904335,
			"0.006": 7.9453172006,
			"0.007": 8.55282607428,
			"0.008": 7.41195802303,
			"0.009": 12.0281489382,
			"0.01": 19.9820113796,
			"0.011": 10.630570185,
			"0.012": 0.0198975195117,
			"0.013": 0.0,
			"0.014": 0.0,
			"0.015": 0.0,
			"0.016": 0.0,
			"0.017": 0.0,
			"0.018": 0.0,
			"0.019": 0.0,
			"0.02": 0.0,
			"0.021": 0.0,
			"0.022": 0.0,
			"0.023": 0.0,
			"0.024": 0.0,
			"0.025": 0.0
		}
	}
}
