{
	 "smiles": "CC(C)(C)OC(=O)NC1(CCC2=CC=CC=C2C1)C(O)=O", 
	 "Tm": 459.15, 
	 "num_atms": 42, 
	 "gaussian": { 
		 "optdone": 1, 
		 "sigma_profile": "yes", 
		 "theory": "DFT", 
		 "functional": "B3LYP", 
		 "basiset": "6-31G**", 
		 "properties": { 
			 "R2extent": 8458.8779, 
			 "electric_dipole_moment_norm": 1.34572181746, 
			 "electric_quadrupole_moment_norm": 15.4732665262, 
			 "total_energy": -978.07050543, 
			 "HOMO_LUMO_gap": 0.23046, 
			 "cosmo_polarized_energy": -17.34, 
			 "cosmo_cavitation_energy": 42.93, 
			 "cosmo_dispersion_energy": -28.45, 
			 "cosmo_repulsion_energy": 2.16, 
			 "cosmo_total_nonelectrostatic_energy": 16.63, 
			 "SMD_solvation_energy": 8.21 
		},
		"coords": [
			{
				"x": 2.180918723,
				"y": 0.2790081849,
				"z": 2.2207690946,
				"element": "C" 
			},
			{
				"x": 0.6745293062,
				"y": 0.2882374948,
				"z": 2.4974502152,
				"element": "C" 
			},
			{
				"x": 0.2565419696,
				"y": -0.9421813138,
				"z": 3.3063839827,
				"element": "C" 
			},
			{
				"x": 0.2168775187,
				"y": 1.577829654,
				"z": 3.186621104,
				"element": "C" 
			},
			{
				"x": -0.0692920786,
				"y": 0.1090174114,
				"z": 1.2373687698,
				"element": "O" 
			},
			{
				"x": 0.0025711754,
				"y": 1.0251758773,
				"z": 0.2445125907,
				"element": "C" 
			},
			{
				"x": 0.7117304518,
				"y": 2.0165630869,
				"z": 0.2201880661,
				"element": "O" 
			},
			{
				"x": -0.8422289164,
				"y": 0.6859891866,
				"z": -0.7845429302,
				"element": "N" 
			},
			{
				"x": -1.8759457153,
				"y": -0.3513542076,
				"z": -0.7726959348,
				"element": "C" 
			},
			{
				"x": -2.7936125676,
				"y": -0.0908093753,
				"z": -1.9920022943,
				"element": "C" 
			},
			{
				"x": -3.9240462704,
				"y": -1.1182586652,
				"z": -2.0952313649,
				"element": "C" 
			},
			{
				"x": -3.4374123597,
				"y": -2.5498402512,
				"z": -1.9881698703,
				"element": "C" 
			},
			{
				"x": -4.238931987,
				"y": -3.5968535253,
				"z": -2.4637146851,
				"element": "C" 
			},
			{
				"x": -3.8375637732,
				"y": -4.9244716768,
				"z": -2.3447953802,
				"element": "C" 
			},
			{
				"x": -2.6137751855,
				"y": -5.220814533,
				"z": -1.7395499569,
				"element": "C" 
			},
			{
				"x": -1.8118141981,
				"y": -4.1863533874,
				"z": -1.2656752421,
				"element": "C" 
			},
			{
				"x": -2.2055823537,
				"y": -2.8457531655,
				"z": -1.3837187335,
				"element": "C" 
			},
			{
				"x": -1.2597708831,
				"y": -1.7612156743,
				"z": -0.8983899793,
				"element": "C" 
			},
			{
				"x": -2.7319969089,
				"y": -0.2532466021,
				"z": 0.5051432958,
				"element": "C" 
			},
			{
				"x": -3.0994439918,
				"y": 1.0243572426,
				"z": 0.7696517267,
				"element": "O" 
			},
			{
				"x": -3.0966765634,
				"y": -1.1883113853,
				"z": 1.1800177863,
				"element": "O" 
			},
			{
				"x": 2.4622919546,
				"y": -0.6319643329,
				"z": 1.6831583228,
				"element": "H" 
			},
			{
				"x": 2.7272196084,
				"y": 0.2952186691,
				"z": 3.1695859753,
				"element": "H" 
			},
			{
				"x": 2.4743406549,
				"y": 1.1451663605,
				"z": 1.6274812245,
				"element": "H" 
			},
			{
				"x": 0.7150101981,
				"y": -0.9111461191,
				"z": 4.2993081679,
				"element": "H" 
			},
			{
				"x": -0.830294184,
				"y": -0.9782657769,
				"z": 3.4211773192,
				"element": "H" 
			},
			{
				"x": 0.5773616958,
				"y": -1.8611290302,
				"z": 2.807027471,
				"element": "H" 
			},
			{
				"x": 0.4920852864,
				"y": 2.4539818752,
				"z": 2.598842803,
				"element": "H" 
			},
			{
				"x": -0.8692180217,
				"y": 1.56910262,
				"z": 3.32284509,
				"element": "H" 
			},
			{
				"x": 0.6836009595,
				"y": 1.6524039894,
				"z": 4.1740219352,
				"element": "H" 
			},
			{
				"x": -0.9176811347,
				"y": 1.4169432507,
				"z": -1.4769159404,
				"element": "H" 
			},
			{
				"x": -2.1614717573,
				"y": -0.1411579028,
				"z": -2.8875817895,
				"element": "H" 
			},
			{
				"x": -3.2030522545,
				"y": 0.9230099232,
				"z": -1.9283134057,
				"element": "H" 
			},
			{
				"x": -4.4563531737,
				"y": -0.9729717148,
				"z": -3.0421141664,
				"element": "H" 
			},
			{
				"x": -4.6638142857,
				"y": -0.9292114833,
				"z": -1.3046343359,
				"element": "H" 
			},
			{
				"x": -5.1920959669,
				"y": -3.3608211861,
				"z": -2.9321260119,
				"element": "H" 
			},
			{
				"x": -4.472301829,
				"y": -5.7217582554,
				"z": -2.7208074715,
				"element": "H" 
			},
			{
				"x": -2.2879674617,
				"y": -6.2519702706,
				"z": -1.636449792,
				"element": "H" 
			},
			{
				"x": -0.85956419,
				"y": -4.4161508197,
				"z": -0.7929338114,
				"element": "H" 
			},
			{
				"x": -0.823472431,
				"y": -2.0494113068,
				"z": 0.0602448935,
				"element": "H" 
			},
			{
				"x": -0.427893869,
				"y": -1.6680216314,
				"z": -1.6078947762,
				"element": "H" 
			},
			{
				"x": -3.6549051903,
				"y": 0.9814387661,
				"z": 1.5658580382,
				"element": "H" 
			}
		],
		 "valence_orbital": [ 
			{
				"type": "occ",
				"energy": -0.28738,
				"method": "rhf"
			},
			{
				"type": "occ",
				"energy": -0.26371,
				"method": "rhf"
			},
			{
				"type": "occ",
				"energy": -0.25068,
				"method": "rhf"
			},
			{
				"type": "occ",
				"energy": -0.23912,
				"method": "rhf"
			},
			{
				"type": "occ",
				"energy": -0.23236,
				"method": "rhf"
			},
			{
				"type": "unocc",
				"energy": -0.0019,
				"method": "rhf"
			},
			{
				"type": "unocc",
				"energy": 0.0018,
				"method": "rhf"
			},
			{
				"type": "unocc",
				"energy": 0.009,
				"method": "rhf"
			},
			{
				"type": "unocc",
				"energy": 0.05255,
				"method": "rhf"
			},
			{
				"type": "unocc",
				"energy": 0.0619,
				"method": "rhf"
			}
		],
		"cosmo_sigma_profile": { 
			"-0.025": 0.0,
			"-0.024": 0.0,
			"-0.023": 0.0,
			"-0.022": 0.0,
			"-0.021": 0.0,
			"-0.02": 0.0,
			"-0.019": 0.0157679939967,
			"-0.018": 0.65877385112,
			"-0.017": 1.03974055825,
			"-0.016": 1.09745200363,
			"-0.015": 0.480859698006,
			"-0.014": 0.443617868986,
			"-0.013": 2.02793459307,
			"-0.012": 1.70427951454,
			"-0.011": 1.95211760574,
			"-0.01": 1.37065546235,
			"-0.009": 2.03317104629,
			"-0.008": 1.49081109818,
			"-0.007": 2.09313441793,
			"-0.006": 3.42189450683,
			"-0.005": 16.3693298406,
			"-0.004": 34.3556801073,
			"-0.003": 36.198417471,
			"-0.002": 33.8530838425,
			"-0.001": 30.7314699164,
			"0.0": 34.654356639,
			"0.001": 26.1748623542,
			"0.002": 15.942082867,
			"0.003": 13.7737599515,
			"0.004": 13.1576183716,
			"0.005": 12.5911127954,
			"0.006": 12.449232861,
			"0.007": 8.43017422134,
			"0.008": 4.55482533818,
			"0.009": 4.04707452091,
			"0.01": 3.02528344968,
			"0.011": 6.00900796516,
			"0.012": 4.50248861761,
			"0.013": 3.60858812088,
			"0.014": 1.14919168695,
			"0.015": 0.0,
			"0.016": 0.0,
			"0.017": 0.0,
			"0.018": 0.0,
			"0.019": 0.0,
			"0.02": 0.0,
			"0.021": 0.0,
			"0.022": 0.0,
			"0.023": 0.0,
			"0.024": 0.0,
			"0.025": 0.0
		}
	}
}
