{
	 "smiles": "CC1=CN=CC(=N1)N1CCC(CO)CC1", 
	 "Tm": 378.15, 
	 "num_atms": 32, 
	 "gaussian": { 
		 "optdone": 1, 
		 "sigma_profile": "yes", 
		 "theory": "DFT", 
		 "functional": "B3LYP", 
		 "basiset": "6-31G**", 
		 "properties": { 
			 "R2extent": 6662.5976, 
			 "electric_dipole_moment_norm": 2.53766792745, 
			 "electric_quadrupole_moment_norm": 24.110234217, 
			 "total_energy": -668.886390808, 
			 "HOMO_LUMO_gap": 0.17317, 
			 "cosmo_polarized_energy": -12.67, 
			 "cosmo_cavitation_energy": 33.07, 
			 "cosmo_dispersion_energy": -24.23, 
			 "cosmo_repulsion_energy": 1.9, 
			 "cosmo_total_nonelectrostatic_energy": 10.74, 
			 "SMD_solvation_energy": 2.14 
		},
		"coords": [
			{
				"x": 4.8582896865,
				"y": 1.4186373637,
				"z": 1.5317471491,
				"element": "C" 
			},
			{
				"x": 3.5327521003,
				"y": 1.9382960678,
				"z": 2.030675589,
				"element": "C" 
			},
			{
				"x": 3.3619420348,
				"y": 2.3581833831,
				"z": 3.3549323946,
				"element": "C" 
			},
			{
				"x": 2.1802328432,
				"y": 2.7994658477,
				"z": 3.802878844,
				"element": "N" 
			},
			{
				"x": 1.1697857934,
				"y": 2.8397333876,
				"z": 2.9414139157,
				"element": "C" 
			},
			{
				"x": 1.3289891734,
				"y": 2.4439988599,
				"z": 1.5857144191,
				"element": "C" 
			},
			{
				"x": 2.5219339406,
				"y": 1.9868750208,
				"z": 1.1556077234,
				"element": "N" 
			},
			{
				"x": 0.3021090797,
				"y": 2.5062207614,
				"z": 0.6759200528,
				"element": "N" 
			},
			{
				"x": 0.4309799732,
				"y": 1.902061087,
				"z": -0.6559636562,
				"element": "C" 
			},
			{
				"x": -0.8499171903,
				"y": 1.1471807193,
				"z": -1.0201433073,
				"element": "C" 
			},
			{
				"x": -2.0911375368,
				"y": 2.0761173436,
				"z": -1.0447623193,
				"element": "C" 
			},
			{
				"x": -2.4720642605,
				"y": 2.4861729601,
				"z": -2.4747084958,
				"element": "C" 
			},
			{
				"x": -2.7605771046,
				"y": 1.3836233655,
				"z": -3.3225693741,
				"element": "O" 
			},
			{
				"x": -1.852160979,
				"y": 3.3339246427,
				"z": -0.1817372889,
				"element": "C" 
			},
			{
				"x": -1.0007477837,
				"y": 3.0492807127,
				"z": 1.0581355881,
				"element": "C" 
			},
			{
				"x": 5.6430678516,
				"y": 2.1770966396,
				"z": 1.6306993548,
				"element": "H" 
			},
			{
				"x": 4.7730057767,
				"y": 1.138995242,
				"z": 0.4803803953,
				"element": "H" 
			},
			{
				"x": 5.1817884695,
				"y": 0.542437167,
				"z": 2.1047310802,
				"element": "H" 
			},
			{
				"x": 4.1850702724,
				"y": 2.3304612529,
				"z": 4.0653956675,
				"element": "H" 
			},
			{
				"x": 0.2138664368,
				"y": 3.1771524772,
				"z": 3.3295113821,
				"element": "H" 
			},
			{
				"x": 1.2911891165,
				"y": 1.233642498,
				"z": -0.6323690863,
				"element": "H" 
			},
			{
				"x": 0.6540263913,
				"y": 2.6727404674,
				"z": -1.4094276475,
				"element": "H" 
			},
			{
				"x": -0.9941415066,
				"y": 0.3469221031,
				"z": -0.2851604946,
				"element": "H" 
			},
			{
				"x": -0.7384864623,
				"y": 0.6619259679,
				"z": -1.9951875009,
				"element": "H" 
			},
			{
				"x": -2.9455375606,
				"y": 1.5260984338,
				"z": -0.6224195606,
				"element": "H" 
			},
			{
				"x": -1.6284409676,
				"y": 3.0043879275,
				"z": -2.9463404752,
				"element": "H" 
			},
			{
				"x": -3.3122580901,
				"y": 3.1994084686,
				"z": -2.4452987779,
				"element": "H" 
			},
			{
				"x": -3.5332979052,
				"y": 0.9281921846,
				"z": -2.9633157142,
				"element": "H" 
			},
			{
				"x": -2.8045179765,
				"y": 3.7723348392,
				"z": 0.1351343935,
				"element": "H" 
			},
			{
				"x": -1.3423465949,
				"y": 4.1003543074,
				"z": -0.7802109536,
				"element": "H" 
			},
			{
				"x": -0.8554941858,
				"y": 3.9825601303,
				"z": 1.6150868581,
				"element": "H" 
			},
			{
				"x": -1.5373028352,
				"y": 2.3589183705,
				"z": 1.7308498448,
				"element": "H" 
			}
		],
		 "valence_orbital": [ 
			{
				"type": "occ",
				"energy": -0.28382,
				"method": "rhf"
			},
			{
				"type": "occ",
				"energy": -0.27249,
				"method": "rhf"
			},
			{
				"type": "occ",
				"energy": -0.27158,
				"method": "rhf"
			},
			{
				"type": "occ",
				"energy": -0.23155,
				"method": "rhf"
			},
			{
				"type": "occ",
				"energy": -0.19715,
				"method": "rhf"
			},
			{
				"type": "unocc",
				"energy": -0.02398,
				"method": "rhf"
			},
			{
				"type": "unocc",
				"energy": 0.00934,
				"method": "rhf"
			},
			{
				"type": "unocc",
				"energy": 0.06347,
				"method": "rhf"
			},
			{
				"type": "unocc",
				"energy": 0.07761,
				"method": "rhf"
			},
			{
				"type": "unocc",
				"energy": 0.10092,
				"method": "rhf"
			}
		],
		"cosmo_sigma_profile": { 
			"-0.025": 0.0,
			"-0.024": 0.0,
			"-0.023": 0.0,
			"-0.022": 0.0,
			"-0.021": 0.0,
			"-0.02": 0.0,
			"-0.019": 0.0,
			"-0.018": 0.0,
			"-0.017": 0.0,
			"-0.016": 0.0,
			"-0.015": 1.09261438337,
			"-0.014": 0.88799176202,
			"-0.013": 0.59032573005,
			"-0.012": 0.801333976721,
			"-0.011": 1.14182062616,
			"-0.01": 1.0782155388,
			"-0.009": 0.913190300834,
			"-0.008": 0.774988203671,
			"-0.007": 1.29095287425,
			"-0.006": 4.53932802841,
			"-0.005": 8.77701824479,
			"-0.004": 23.7049562956,
			"-0.003": 39.3667208553,
			"-0.002": 37.8486219979,
			"-0.001": 26.2515184103,
			"0.0": 19.0177808847,
			"0.001": 18.0803192343,
			"0.002": 12.9486072313,
			"0.003": 9.34380116451,
			"0.004": 8.42605313769,
			"0.005": 6.38892923606,
			"0.006": 5.36315774944,
			"0.007": 4.56683349751,
			"0.008": 4.36200356584,
			"0.009": 4.13729416938,
			"0.01": 3.24372628337,
			"0.011": 2.59895884373,
			"0.012": 2.4314977949,
			"0.013": 2.31188923815,
			"0.014": 2.95834951248,
			"0.015": 1.94286088579,
			"0.016": 0.660428811538,
			"0.017": 0.272748886169,
			"0.018": 0.0,
			"0.019": 0.0,
			"0.02": 0.0,
			"0.021": 0.0,
			"0.022": 0.0,
			"0.023": 0.0,
			"0.024": 0.0,
			"0.025": 0.0
		}
	}
}
