{
	 "smiles": "NC1=CC=CC(F)=C1", 
	 "Tm": 268.15, 
	 "num_atms": 14, 
	 "gaussian": { 
		 "optdone": 1, 
		 "sigma_profile": "yes", 
		 "theory": "DFT", 
		 "functional": "B3LYP", 
		 "basiset": "6-31G**", 
		 "properties": { 
			 "R2extent": 1058.9752, 
			 "electric_dipole_moment_norm": 2.6459639321, 
			 "electric_quadrupole_moment_norm": 8.276560854, 
			 "total_energy": -386.842520615, 
			 "HOMO_LUMO_gap": 0.21042, 
			 "cosmo_polarized_energy": -7.92, 
			 "cosmo_cavitation_energy": 18.26, 
			 "cosmo_dispersion_energy": -13.66, 
			 "cosmo_repulsion_energy": 1.12, 
			 "cosmo_total_nonelectrostatic_energy": 5.72, 
			 "SMD_solvation_energy": 3.69 
		},
		"coords": [
			{
				"x": 1.2350768718,
				"y": 1.6821346004,
				"z": -1.3648857721,
				"element": "N" 
			},
			{
				"x": 0.3939177569,
				"y": 0.7110205692,
				"z": -0.823751723,
				"element": "C" 
			},
			{
				"x": 0.5994620023,
				"y": 0.2290522505,
				"z": 0.4825896591,
				"element": "C" 
			},
			{
				"x": -0.2791312635,
				"y": -0.6987134106,
				"z": 1.0361441144,
				"element": "C" 
			},
			{
				"x": -1.3787554686,
				"y": -1.1755220163,
				"z": 0.319092715,
				"element": "C" 
			},
			{
				"x": -1.5617412888,
				"y": -0.6856215419,
				"z": -0.968762469,
				"element": "C" 
			},
			{
				"x": -2.6148213698,
				"y": -1.128069828,
				"z": -1.6921801788,
				"element": "F" 
			},
			{
				"x": -0.7089490932,
				"y": 0.2387014037,
				"z": -1.5551539327,
				"element": "C" 
			},
			{
				"x": 1.2561800013,
				"y": 1.7252791062,
				"z": -2.3742091199,
				"element": "H" 
			},
			{
				"x": 2.1614652564,
				"y": 1.7224026459,
				"z": -0.9634250269,
				"element": "H" 
			},
			{
				"x": 1.4466010535,
				"y": 0.5907540895,
				"z": 1.0590559989,
				"element": "H" 
			},
			{
				"x": -0.1031473019,
				"y": -1.0601426749,
				"z": 2.0452789971,
				"element": "H" 
			},
			{
				"x": -2.0729456818,
				"y": -1.8983593965,
				"z": 0.7309147564,
				"element": "H" 
			},
			{
				"x": -0.9100114746,
				"y": 0.5852842027,
				"z": -2.5638080185,
				"element": "H" 
			}
		],
		 "valence_orbital": [ 
			{
				"type": "occ",
				"energy": -0.36791,
				"method": "rhf"
			},
			{
				"type": "occ",
				"energy": -0.34444,
				"method": "rhf"
			},
			{
				"type": "occ",
				"energy": -0.30515,
				"method": "rhf"
			},
			{
				"type": "occ",
				"energy": -0.24062,
				"method": "rhf"
			},
			{
				"type": "occ",
				"energy": -0.20615,
				"method": "rhf"
			},
			{
				"type": "unocc",
				"energy": 0.00427,
				"method": "rhf"
			},
			{
				"type": "unocc",
				"energy": 0.01858,
				"method": "rhf"
			},
			{
				"type": "unocc",
				"energy": 0.07797,
				"method": "rhf"
			},
			{
				"type": "unocc",
				"energy": 0.09825,
				"method": "rhf"
			},
			{
				"type": "unocc",
				"energy": 0.1182,
				"method": "rhf"
			}
		],
		"cosmo_sigma_profile": { 
			"-0.025": 0.0,
			"-0.024": 0.0,
			"-0.023": 0.0,
			"-0.022": 0.0,
			"-0.021": 0.0,
			"-0.02": 0.0,
			"-0.019": 0.0,
			"-0.018": 0.0,
			"-0.017": 0.0,
			"-0.016": 0.0,
			"-0.015": 0.0,
			"-0.014": 0.0,
			"-0.013": 0.712974487715,
			"-0.012": 2.82848610926,
			"-0.011": 2.5149787382,
			"-0.01": 3.16878294906,
			"-0.009": 3.54223218459,
			"-0.008": 2.67193106048,
			"-0.007": 4.23828846016,
			"-0.006": 7.1032722334,
			"-0.005": 6.8994423218,
			"-0.004": 7.5790384397,
			"-0.003": 8.5654846517,
			"-0.002": 5.08578667233,
			"-0.001": 6.45997569423,
			"0.0": 4.99874105038,
			"0.001": 7.42613718361,
			"0.002": 11.5179628633,
			"0.003": 11.2353099684,
			"0.004": 15.2089617814,
			"0.005": 19.5281768432,
			"0.006": 8.39992698495,
			"0.007": 0.907729556487,
			"0.008": 0.586986220786,
			"0.009": 0.858362280601,
			"0.01": 1.13494592473,
			"0.011": 0.483653934775,
			"0.012": 0.616463386616,
			"0.013": 0.630125092595,
			"0.014": 0.632086484583,
			"0.015": 0.00412867398161,
			"0.016": 0.0,
			"0.017": 0.0,
			"0.018": 0.0,
			"0.019": 0.0,
			"0.02": 0.0,
			"0.021": 0.0,
			"0.022": 0.0,
			"0.023": 0.0,
			"0.024": 0.0,
			"0.025": 0.0
		}
	}
}
