{
	 "smiles": "CCCC(C)CC", 
	 "Tm": 154.15, 
	 "num_atms": 23, 
	 "gaussian": { 
		 "optdone": 1, 
		 "sigma_profile": "yes", 
		 "theory": "DFT", 
		 "functional": "B3LYP", 
		 "basiset": "6-31G**", 
		 "properties": { 
			 "R2extent": 1398.9853, 
			 "electric_dipole_moment_norm": 0.111583959421, 
			 "electric_quadrupole_moment_norm": 0.41746505243, 
			 "total_energy": -276.408707948, 
			 "HOMO_LUMO_gap": 0.37721, 
			 "cosmo_polarized_energy": -0.59, 
			 "cosmo_cavitation_energy": 23.13, 
			 "cosmo_dispersion_energy": -16.7, 
			 "cosmo_repulsion_energy": 1.41, 
			 "cosmo_total_nonelectrostatic_energy": 7.84, 
			 "SMD_solvation_energy": 3.86 
		},
		"coords": [
			{
				"x": 2.1921510068,
				"y": 0.848767376,
				"z": 0.269776716,
				"element": "C" 
			},
			{
				"x": 1.4080330095,
				"y": 0.3080932445,
				"z": 1.4711434562,
				"element": "C" 
			},
			{
				"x": 0.0586593798,
				"y": -0.3624056809,
				"z": 1.1525310145,
				"element": "C" 
			},
			{
				"x": 0.1316946653,
				"y": -1.6545377723,
				"z": 0.2964054514,
				"element": "C" 
			},
			{
				"x": -0.0176033082,
				"y": -1.3775762145,
				"z": -1.2098780042,
				"element": "C" 
			},
			{
				"x": -0.8824996564,
				"y": -2.7209311371,
				"z": 0.7743572751,
				"element": "C" 
			},
			{
				"x": -2.3616794556,
				"y": -2.3258390852,
				"z": 0.6711401772,
				"element": "C" 
			},
			{
				"x": 2.5195012733,
				"y": 0.04731667,
				"z": -0.3999167953,
				"element": "H" 
			},
			{
				"x": 1.5879064045,
				"y": 1.5491622435,
				"z": -0.318539869,
				"element": "H" 
			},
			{
				"x": 3.0897480376,
				"y": 1.3826524988,
				"z": 0.6001120487,
				"element": "H" 
			},
			{
				"x": 2.0373580991,
				"y": -0.408165951,
				"z": 2.0175545931,
				"element": "H" 
			},
			{
				"x": 1.2209118661,
				"y": 1.1349282766,
				"z": 2.1689710372,
				"element": "H" 
			},
			{
				"x": -0.4166053664,
				"y": -0.6005215237,
				"z": 2.1133126187,
				"element": "H" 
			},
			{
				"x": -0.6032010251,
				"y": 0.368072745,
				"z": 0.6665222341,
				"element": "H" 
			},
			{
				"x": 1.1280259214,
				"y": -2.0953646179,
				"z": 0.4523773143,
				"element": "H" 
			},
			{
				"x": 0.0585836579,
				"y": -2.3045409706,
				"z": -1.7900612226,
				"element": "H" 
			},
			{
				"x": 0.7522168416,
				"y": -0.6931285202,
				"z": -1.5757009046,
				"element": "H" 
			},
			{
				"x": -0.9882974892,
				"y": -0.9230765649,
				"z": -1.4368028206,
				"element": "H" 
			},
			{
				"x": -0.6540134761,
				"y": -2.9702050284,
				"z": 1.8193242562,
				"element": "H" 
			},
			{
				"x": -0.7189602434,
				"y": -3.642845657,
				"z": 0.1999537546,
				"element": "H" 
			},
			{
				"x": -2.6648687962,
				"y": -2.1439079654,
				"z": -0.3648989065,
				"element": "H" 
			},
			{
				"x": -2.5799088402,
				"y": -1.4186420764,
				"z": 1.2447422874,
				"element": "H" 
			},
			{
				"x": -3.0021525062,
				"y": -3.1230042888,
				"z": 1.062874288,
				"element": "H" 
			}
		],
		 "valence_orbital": [ 
			{
				"type": "occ",
				"energy": -0.33435,
				"method": "rhf"
			},
			{
				"type": "occ",
				"energy": -0.32392,
				"method": "rhf"
			},
			{
				"type": "occ",
				"energy": -0.30824,
				"method": "rhf"
			},
			{
				"type": "occ",
				"energy": -0.3036,
				"method": "rhf"
			},
			{
				"type": "occ",
				"energy": -0.29545,
				"method": "rhf"
			},
			{
				"type": "unocc",
				"energy": 0.08176,
				"method": "rhf"
			},
			{
				"type": "unocc",
				"energy": 0.11234,
				"method": "rhf"
			},
			{
				"type": "unocc",
				"energy": 0.12002,
				"method": "rhf"
			},
			{
				"type": "unocc",
				"energy": 0.1255,
				"method": "rhf"
			},
			{
				"type": "unocc",
				"energy": 0.14271,
				"method": "rhf"
			}
		],
		"cosmo_sigma_profile": { 
			"-0.025": 0.0,
			"-0.024": 0.0,
			"-0.023": 0.0,
			"-0.022": 0.0,
			"-0.021": 0.0,
			"-0.02": 0.0,
			"-0.019": 0.0,
			"-0.018": 0.0,
			"-0.017": 0.0,
			"-0.016": 0.0,
			"-0.015": 0.0,
			"-0.014": 0.0,
			"-0.013": 0.0,
			"-0.012": 0.0,
			"-0.011": 0.0,
			"-0.01": 0.0,
			"-0.009": 0.0,
			"-0.008": 0.0,
			"-0.007": 0.0,
			"-0.006": 0.0,
			"-0.005": 0.0,
			"-0.004": 0.0,
			"-0.003": 2.63284689898,
			"-0.002": 22.2525669959,
			"-0.001": 39.2879096815,
			"0.0": 46.6718241781,
			"0.001": 41.794375464,
			"0.002": 22.8449510825,
			"0.003": 1.44594550999,
			"0.004": 0.0,
			"0.005": 0.0,
			"0.006": 0.0,
			"0.007": 0.0,
			"0.008": 0.0,
			"0.009": 0.0,
			"0.01": 0.0,
			"0.011": 0.0,
			"0.012": 0.0,
			"0.013": 0.0,
			"0.014": 0.0,
			"0.015": 0.0,
			"0.016": 0.0,
			"0.017": 0.0,
			"0.018": 0.0,
			"0.019": 0.0,
			"0.02": 0.0,
			"0.021": 0.0,
			"0.022": 0.0,
			"0.023": 0.0,
			"0.024": 0.0,
			"0.025": 0.0
		}
	}
}
