{
	 "smiles": "CC(NC1=CC=C(C=C1)N(C)C)C1=NC=CC=C1", 
	 "Tm": 395.15, 
	 "num_atms": 37, 
	 "gaussian": { 
		 "optdone": 1, 
		 "sigma_profile": "yes", 
		 "theory": "DFT", 
		 "functional": "B3LYP", 
		 "basiset": "6-31G**", 
		 "properties": { 
			 "R2extent": 6523.1119, 
			 "electric_dipole_moment_norm": 2.36358194273, 
			 "electric_quadrupole_moment_norm": 11.0429795997, 
			 "total_energy": -747.293595792, 
			 "HOMO_LUMO_gap": 0.13689, 
			 "cosmo_polarized_energy": -11.2, 
			 "cosmo_cavitation_energy": 39.27, 
			 "cosmo_dispersion_energy": -27.35, 
			 "cosmo_repulsion_energy": 2.13, 
			 "cosmo_total_nonelectrostatic_energy": 14.04, 
			 "SMD_solvation_energy": 4.03 
		},
		"coords": [
			{
				"x": 4.4333022073,
				"y": -0.4813692176,
				"z": -1.3573716823,
				"element": "C" 
			},
			{
				"x": 2.9408628902,
				"y": -0.4821856979,
				"z": -0.9974348303,
				"element": "C" 
			},
			{
				"x": 2.4282712076,
				"y": 0.894448204,
				"z": -1.0525741456,
				"element": "N" 
			},
			{
				"x": 1.2173909841,
				"y": 1.204262947,
				"z": -0.3884599429,
				"element": "C" 
			},
			{
				"x": 0.1909276885,
				"y": 1.8974751925,
				"z": -1.0442345432,
				"element": "C" 
			},
			{
				"x": -0.9727170345,
				"y": 2.2836138632,
				"z": -0.3836623056,
				"element": "C" 
			},
			{
				"x": -1.1874467528,
				"y": 1.963651584,
				"z": 0.9724465548,
				"element": "C" 
			},
			{
				"x": -0.1475744539,
				"y": 1.2745932186,
				"z": 1.6317023935,
				"element": "C" 
			},
			{
				"x": 1.022187761,
				"y": 0.9123664458,
				"z": 0.9697057881,
				"element": "C" 
			},
			{
				"x": -2.3826243099,
				"y": 2.297494853,
				"z": 1.629447919,
				"element": "N" 
			},
			{
				"x": -2.4046371771,
				"y": 2.2475899605,
				"z": 3.081112625,
				"element": "C" 
			},
			{
				"x": -3.2603012702,
				"y": 3.2700738475,
				"z": 1.0018778014,
				"element": "C" 
			},
			{
				"x": 2.1654962324,
				"y": -1.4141792699,
				"z": -1.9279840528,
				"element": "C" 
			},
			{
				"x": 2.0094525153,
				"y": -0.9718996034,
				"z": -3.1871258783,
				"element": "N" 
			},
			{
				"x": 1.345863951,
				"y": -1.7449549376,
				"z": -4.0519645517,
				"element": "C" 
			},
			{
				"x": 0.8051117109,
				"y": -2.9882585894,
				"z": -3.7189156702,
				"element": "C" 
			},
			{
				"x": 0.9651528601,
				"y": -3.4439820584,
				"z": -2.41159696,
				"element": "C" 
			},
			{
				"x": 1.6559229808,
				"y": -2.6447926236,
				"z": -1.5013303915,
				"element": "C" 
			},
			{
				"x": 4.9781707073,
				"y": 0.1915374605,
				"z": -0.6899758881,
				"element": "H" 
			},
			{
				"x": 4.5696352691,
				"y": -0.1388698613,
				"z": -2.3880932563,
				"element": "H" 
			},
			{
				"x": 4.8581590974,
				"y": -1.4873781112,
				"z": -1.2780602209,
				"element": "H" 
			},
			{
				"x": 2.8264535352,
				"y": -0.844994284,
				"z": 0.0279256663,
				"element": "H" 
			},
			{
				"x": 2.3788539853,
				"y": 1.170858497,
				"z": -2.029642054,
				"element": "H" 
			},
			{
				"x": 0.3053982125,
				"y": 2.1464788449,
				"z": -2.0969319865,
				"element": "H" 
			},
			{
				"x": -1.7217299983,
				"y": 2.8280498822,
				"z": -0.9457444996,
				"element": "H" 
			},
			{
				"x": -0.2354534069,
				"y": 1.0252956924,
				"z": 2.6822608272,
				"element": "H" 
			},
			{
				"x": 1.8063869203,
				"y": 0.4158142919,
				"z": 1.5340600101,
				"element": "H" 
			},
			{
				"x": -3.4007524739,
				"y": 2.5250608805,
				"z": 3.4322989683,
				"element": "H" 
			},
			{
				"x": -2.2067314442,
				"y": 1.2316326085,
				"z": 3.4391300406,
				"element": "H" 
			},
			{
				"x": -1.6711046633,
				"y": 2.9217824996,
				"z": 3.5551945608,
				"element": "H" 
			},
			{
				"x": -3.6101908685,
				"y": 2.9082594862,
				"z": 0.0292118841,
				"element": "H" 
			},
			{
				"x": -2.7852629452,
				"y": 4.2536073597,
				"z": 0.845547753,
				"element": "H" 
			},
			{
				"x": -4.1422692078,
				"y": 3.4122205849,
				"z": 1.6299549621,
				"element": "H" 
			},
			{
				"x": 1.23863153,
				"y": -1.3519820983,
				"z": -5.0619862997,
				"element": "H" 
			},
			{
				"x": 0.2727534977,
				"y": -3.5731923173,
				"z": -4.4621176404,
				"element": "H" 
			},
			{
				"x": 0.5549816898,
				"y": -4.4018655706,
				"z": -2.1038092156,
				"element": "H" 
			},
			{
				"x": 1.7954285727,
				"y": -2.9644639642,
				"z": -0.4727617387,
				"element": "H" 
			}
		],
		 "valence_orbital": [ 
			{
				"type": "occ",
				"energy": -0.25785,
				"method": "rhf"
			},
			{
				"type": "occ",
				"energy": -0.2542,
				"method": "rhf"
			},
			{
				"type": "occ",
				"energy": -0.23214,
				"method": "rhf"
			},
			{
				"type": "occ",
				"energy": -0.22785,
				"method": "rhf"
			},
			{
				"type": "occ",
				"energy": -0.16134,
				"method": "rhf"
			},
			{
				"type": "unocc",
				"energy": -0.02445,
				"method": "rhf"
			},
			{
				"type": "unocc",
				"energy": -0.00818,
				"method": "rhf"
			},
			{
				"type": "unocc",
				"energy": 0.01553,
				"method": "rhf"
			},
			{
				"type": "unocc",
				"energy": 0.03901,
				"method": "rhf"
			},
			{
				"type": "unocc",
				"energy": 0.09201,
				"method": "rhf"
			}
		],
		"cosmo_sigma_profile": { 
			"-0.025": 0.0,
			"-0.024": 0.0,
			"-0.023": 0.0,
			"-0.022": 0.0,
			"-0.021": 0.0,
			"-0.02": 0.0,
			"-0.019": 0.0,
			"-0.018": 0.0,
			"-0.017": 0.0,
			"-0.016": 0.0,
			"-0.015": 0.0,
			"-0.014": 0.0,
			"-0.013": 0.0,
			"-0.012": 0.0,
			"-0.011": 0.0,
			"-0.01": 0.0,
			"-0.009": 0.147328376256,
			"-0.008": 0.936359423012,
			"-0.007": 4.34524221996,
			"-0.006": 14.7381997965,
			"-0.005": 24.4998717498,
			"-0.004": 23.9858013368,
			"-0.003": 28.6276367928,
			"-0.002": 33.3047509729,
			"-0.001": 33.4930048788,
			"0.0": 25.3229474176,
			"0.001": 19.6467692234,
			"0.002": 17.4239490527,
			"0.003": 20.784102564,
			"0.004": 14.1899692658,
			"0.005": 10.3707784595,
			"0.006": 9.49831541049,
			"0.007": 11.9298123277,
			"0.008": 8.00027967744,
			"0.009": 2.87600497953,
			"0.01": 1.76829104781,
			"0.011": 1.67646465976,
			"0.012": 0.680934740282,
			"0.013": 1.09920525006,
			"0.014": 0.726288478103,
			"0.015": 0.347747906033,
			"0.016": 0.0,
			"0.017": 0.0,
			"0.018": 0.0,
			"0.019": 0.0,
			"0.02": 0.0,
			"0.021": 0.0,
			"0.022": 0.0,
			"0.023": 0.0,
			"0.024": 0.0,
			"0.025": 0.0
		}
	}
}
