{
	 "smiles": "COC(C)C1=NC(C)=C(S1)C(O)=O", 
	 "Tm": 400.15, 
	 "num_atms": 24, 
	 "gaussian": { 
		 "optdone": 1, 
		 "sigma_profile": "yes", 
		 "theory": "DFT", 
		 "functional": "B3LYP", 
		 "basiset": "6-31G**", 
		 "properties": { 
			 "R2extent": 3356.1689, 
			 "electric_dipole_moment_norm": 4.57311058471, 
			 "electric_quadrupole_moment_norm": 15.6865550409, 
			 "total_energy": -990.084222341, 
			 "HOMO_LUMO_gap": 0.18879, 
			 "cosmo_polarized_energy": -13.72, 
			 "cosmo_cavitation_energy": 28.92, 
			 "cosmo_dispersion_energy": -21.44, 
			 "cosmo_repulsion_energy": 1.68, 
			 "cosmo_total_nonelectrostatic_energy": 9.16, 
			 "SMD_solvation_energy": 5.09 
		},
		"coords": [
			{
				"x": -0.166306137,
				"y": 0.646689378,
				"z": -2.7362464909,
				"element": "C" 
			},
			{
				"x": -0.7053672685,
				"y": -0.5402107195,
				"z": -2.16616137,
				"element": "O" 
			},
			{
				"x": -1.523794405,
				"y": -0.3669975591,
				"z": -1.0137656262,
				"element": "C" 
			},
			{
				"x": -2.6371433913,
				"y": 0.6729078147,
				"z": -1.1518946392,
				"element": "C" 
			},
			{
				"x": -0.6653769238,
				"y": -0.1238884037,
				"z": 0.2141801653,
				"element": "C" 
			},
			{
				"x": -1.0524184916,
				"y": 0.4801073227,
				"z": 1.2982990167,
				"element": "N" 
			},
			{
				"x": -0.0866022259,
				"y": 0.4672930774,
				"z": 2.2830769863,
				"element": "C" 
			},
			{
				"x": -0.3995833672,
				"y": 1.1359681661,
				"z": 3.5863905782,
				"element": "C" 
			},
			{
				"x": 1.0880543156,
				"y": -0.1690135541,
				"z": 1.9272067386,
				"element": "C" 
			},
			{
				"x": 0.9555688432,
				"y": -0.7894718897,
				"z": 0.2910740704,
				"element": "S" 
			},
			{
				"x": 2.3121358352,
				"y": -0.316929273,
				"z": 2.7491288227,
				"element": "C" 
			},
			{
				"x": 3.4450324793,
				"y": -0.7026585863,
				"z": 2.1009868841,
				"element": "O" 
			},
			{
				"x": 2.3498588018,
				"y": -0.1213229961,
				"z": 3.9432470983,
				"element": "O" 
			},
			{
				"x": 0.5393118555,
				"y": 0.3210720887,
				"z": -3.5033577301,
				"element": "H" 
			},
			{
				"x": -0.9405505843,
				"y": 1.2633141787,
				"z": -3.2089363146,
				"element": "H" 
			},
			{
				"x": 0.3726075004,
				"y": 1.2570149547,
				"z": -1.9987504686,
				"element": "H" 
			},
			{
				"x": -1.9904326657,
				"y": -1.3524851502,
				"z": -0.8838295162,
				"element": "H" 
			},
			{
				"x": -2.2427718882,
				"y": 1.6893964899,
				"z": -1.2244935945,
				"element": "H" 
			},
			{
				"x": -3.281550502,
				"y": 0.6338879267,
				"z": -0.2714513925,
				"element": "H" 
			},
			{
				"x": -3.2331674596,
				"y": 0.4541896925,
				"z": -2.0422067182,
				"element": "H" 
			},
			{
				"x": -0.7918431367,
				"y": 2.1406079706,
				"z": 3.399821751,
				"element": "H" 
			},
			{
				"x": -1.1847384422,
				"y": 0.5762838481,
				"z": 4.1079247276,
				"element": "H" 
			},
			{
				"x": 0.4770144392,
				"y": 1.1816930357,
				"z": 4.2292090096,
				"element": "H" 
			},
			{
				"x": 3.3219628188,
				"y": -0.7079478126,
				"z": 1.140748012,
				"element": "H" 
			}
		],
		 "valence_orbital": [ 
			{
				"type": "occ",
				"energy": -0.29864,
				"method": "rhf"
			},
			{
				"type": "occ",
				"energy": -0.29381,
				"method": "rhf"
			},
			{
				"type": "occ",
				"energy": -0.27837,
				"method": "rhf"
			},
			{
				"type": "occ",
				"energy": -0.27607,
				"method": "rhf"
			},
			{
				"type": "occ",
				"energy": -0.25365,
				"method": "rhf"
			},
			{
				"type": "unocc",
				"energy": -0.06486,
				"method": "rhf"
			},
			{
				"type": "unocc",
				"energy": -0.00697,
				"method": "rhf"
			},
			{
				"type": "unocc",
				"energy": 0.00355,
				"method": "rhf"
			},
			{
				"type": "unocc",
				"energy": 0.05956,
				"method": "rhf"
			},
			{
				"type": "unocc",
				"energy": 0.08016,
				"method": "rhf"
			}
		],
		"cosmo_sigma_profile": { 
			"-0.025": 0.0,
			"-0.024": 0.0,
			"-0.023": 0.0,
			"-0.022": 0.0,
			"-0.021": 0.0,
			"-0.02": 0.0,
			"-0.019": 0.0,
			"-0.018": 0.340805673105,
			"-0.017": 0.495137166068,
			"-0.016": 1.28608719924,
			"-0.015": 0.83508237468,
			"-0.014": 0.747175578292,
			"-0.013": 1.30794620599,
			"-0.012": 0.680031041704,
			"-0.011": 0.886739120096,
			"-0.01": 0.756662731074,
			"-0.009": 1.05347618806,
			"-0.008": 1.03600757457,
			"-0.007": 3.64198432205,
			"-0.006": 4.90851268154,
			"-0.005": 13.1595615451,
			"-0.004": 22.8965313108,
			"-0.003": 24.0717321124,
			"-0.002": 24.6113098752,
			"-0.001": 24.5831845479,
			"0.0": 21.5444709628,
			"0.001": 15.1915827295,
			"0.002": 9.18753333758,
			"0.003": 6.35663456265,
			"0.004": 5.31475880223,
			"0.005": 5.42732512645,
			"0.006": 4.5249041597,
			"0.007": 5.68198972739,
			"0.008": 4.10364188139,
			"0.009": 5.92785239147,
			"0.01": 7.31906955276,
			"0.011": 6.59417339548,
			"0.012": 4.61462840894,
			"0.013": 1.49138521769,
			"0.014": 0.0,
			"0.015": 0.0,
			"0.016": 0.0,
			"0.017": 0.0,
			"0.018": 0.0,
			"0.019": 0.0,
			"0.02": 0.0,
			"0.021": 0.0,
			"0.022": 0.0,
			"0.023": 0.0,
			"0.024": 0.0,
			"0.025": 0.0
		}
	}
}
