{
	 "smiles": "COC1=CC(OC)=C2C(=O)C(=O)NC2=C1", 
	 "Tm": 563.15, 
	 "num_atms": 24, 
	 "gaussian": { 
		 "optdone": 1, 
		 "sigma_profile": "yes", 
		 "theory": "DFT", 
		 "functional": "B3LYP", 
		 "basiset": "6-31G**", 
		 "properties": { 
			 "R2extent": 3889.5371, 
			 "electric_dipole_moment_norm": 6.36792333497, 
			 "electric_quadrupole_moment_norm": 17.1159831196, 
			 "total_energy": -742.113450833, 
			 "HOMO_LUMO_gap": 0.14687, 
			 "cosmo_polarized_energy": -17.12, 
			 "cosmo_cavitation_energy": 28.64, 
			 "cosmo_dispersion_energy": -21.26, 
			 "cosmo_repulsion_energy": 1.65, 
			 "cosmo_total_nonelectrostatic_energy": 9.04, 
			 "SMD_solvation_energy": 7.83 
		},
		"coords": [
			{
				"x": 0.438969977,
				"y": 2.8385605192,
				"z": 2.5078922549,
				"element": "C" 
			},
			{
				"x": 1.5168612728,
				"y": 2.0968817801,
				"z": 1.9451130406,
				"element": "O" 
			},
			{
				"x": 1.2362598462,
				"y": 1.029699182,
				"z": 1.1623984713,
				"element": "C" 
			},
			{
				"x": -0.0551163847,
				"y": 0.5782826122,
				"z": 0.890959796,
				"element": "C" 
			},
			{
				"x": -0.2675650799,
				"y": -0.5498241216,
				"z": 0.0755419972,
				"element": "C" 
			},
			{
				"x": -1.5664939544,
				"y": -0.8699705205,
				"z": -0.0811279161,
				"element": "O" 
			},
			{
				"x": -1.9679832728,
				"y": -2.2353755479,
				"z": -0.2804661334,
				"element": "C" 
			},
			{
				"x": 0.8423809546,
				"y": -1.2136969797,
				"z": -0.4946352483,
				"element": "C" 
			},
			{
				"x": 1.0238563564,
				"y": -2.2803549737,
				"z": -1.48351703,
				"element": "C" 
			},
			{
				"x": 0.2440417343,
				"y": -2.9369344637,
				"z": -2.1508913546,
				"element": "O" 
			},
			{
				"x": 2.5718254033,
				"y": -2.4484395957,
				"z": -1.6363576539,
				"element": "C" 
			},
			{
				"x": 3.1609090928,
				"y": -3.2473096976,
				"z": -2.3284397943,
				"element": "O" 
			},
			{
				"x": 3.1224240287,
				"y": -1.4807723491,
				"z": -0.8182213194,
				"element": "N" 
			},
			{
				"x": 2.1439280432,
				"y": -0.7203993254,
				"z": -0.1712623386,
				"element": "C" 
			},
			{
				"x": 2.3695105257,
				"y": 0.3682399697,
				"z": 0.6368686403,
				"element": "C" 
			},
			{
				"x": -0.2089433488,
				"y": 3.254589475,
				"z": 1.7278455113,
				"element": "H" 
			},
			{
				"x": -0.1597841964,
				"y": 2.2196479179,
				"z": 3.1862583449,
				"element": "H" 
			},
			{
				"x": 0.899696925,
				"y": 3.6512915805,
				"z": 3.0701533533,
				"element": "H" 
			},
			{
				"x": -0.9304947008,
				"y": 1.0507327197,
				"z": 1.3149455567,
				"element": "H" 
			},
			{
				"x": -1.6329264391,
				"y": -2.6163688574,
				"z": -1.244877608,
				"element": "H" 
			},
			{
				"x": -1.5654363088,
				"y": -2.8652554378,
				"z": 0.5212612692,
				"element": "H" 
			},
			{
				"x": -3.0570095744,
				"y": -2.2226909467,
				"z": -0.2197052955,
				"element": "H" 
			},
			{
				"x": 4.1161381334,
				"y": -1.3185966157,
				"z": -0.7464149351,
				"element": "H" 
			},
			{
				"x": 3.3615509667,
				"y": 0.739263676,
				"z": 0.8658783917,
				"element": "H" 
			}
		],
		 "valence_orbital": [ 
			{
				"type": "occ",
				"energy": -0.29779,
				"method": "rhf"
			},
			{
				"type": "occ",
				"energy": -0.28122,
				"method": "rhf"
			},
			{
				"type": "occ",
				"energy": -0.24139,
				"method": "rhf"
			},
			{
				"type": "occ",
				"energy": -0.23907,
				"method": "rhf"
			},
			{
				"type": "occ",
				"energy": -0.23018,
				"method": "rhf"
			},
			{
				"type": "unocc",
				"energy": -0.08331,
				"method": "rhf"
			},
			{
				"type": "unocc",
				"energy": -0.00932,
				"method": "rhf"
			},
			{
				"type": "unocc",
				"energy": 0.02098,
				"method": "rhf"
			},
			{
				"type": "unocc",
				"energy": 0.07835,
				"method": "rhf"
			},
			{
				"type": "unocc",
				"energy": 0.08537,
				"method": "rhf"
			}
		],
		"cosmo_sigma_profile": { 
			"-0.025": 0.0,
			"-0.024": 0.0,
			"-0.023": 0.0,
			"-0.022": 0.0,
			"-0.021": 0.0,
			"-0.02": 0.0,
			"-0.019": 0.0,
			"-0.018": 0.0,
			"-0.017": 0.363089556514,
			"-0.016": 1.53804369274,
			"-0.015": 1.23040946464,
			"-0.014": 1.09365086206,
			"-0.013": 1.32119721689,
			"-0.012": 1.01711213279,
			"-0.011": 0.838963743189,
			"-0.01": 1.62813870876,
			"-0.009": 1.48923043168,
			"-0.008": 1.82236832458,
			"-0.007": 5.46776876689,
			"-0.006": 15.9765362006,
			"-0.005": 17.7521762023,
			"-0.004": 19.4053680953,
			"-0.003": 16.8193911445,
			"-0.002": 15.2933593267,
			"-0.001": 12.4855852087,
			"0.0": 14.0939366771,
			"0.001": 17.3520049015,
			"0.002": 17.5507416119,
			"0.003": 9.75010864224,
			"0.004": 6.76194006341,
			"0.005": 5.60932959429,
			"0.006": 5.04202488055,
			"0.007": 4.87579018365,
			"0.008": 5.20753523514,
			"0.009": 6.01052142594,
			"0.01": 5.04751122566,
			"0.011": 7.53348015325,
			"0.012": 5.70990332249,
			"0.013": 2.97000787148,
			"0.014": 0.133808308573,
			"0.015": 0.0,
			"0.016": 0.0,
			"0.017": 0.0,
			"0.018": 0.0,
			"0.019": 0.0,
			"0.02": 0.0,
			"0.021": 0.0,
			"0.022": 0.0,
			"0.023": 0.0,
			"0.024": 0.0,
			"0.025": 0.0
		}
	}
}
