{
	 "smiles": "CC(C)(C)NCC(O)COC1=NSN=C1N1CCOCC1", 
	 "Tm": 475.15, 
	 "num_atms": 45, 
	 "gaussian": { 
		 "optdone": 1, 
		 "sigma_profile": "yes", 
		 "theory": "DFT", 
		 "functional": "B3LYP", 
		 "basiset": "6-31G**", 
		 "properties": { 
			 "R2extent": 11921.9629, 
			 "electric_dipole_moment_norm": 1.88948356436, 
			 "electric_quadrupole_moment_norm": 7.91876287055, 
			 "total_energy": -1352.67064788, 
			 "HOMO_LUMO_gap": 0.17776, 
			 "cosmo_polarized_energy": -14.01, 
			 "cosmo_cavitation_energy": 46.81, 
			 "cosmo_dispersion_energy": -33.14, 
			 "cosmo_repulsion_energy": 2.53, 
			 "cosmo_total_nonelectrostatic_energy": 16.2, 
			 "SMD_solvation_energy": 3.25 
		},
		"coords": [
			{
				"x": -3.7123675747,
				"y": 1.1160604145,
				"z": -3.0071222878,
				"element": "C" 
			},
			{
				"x": -3.7877027308,
				"y": 1.1137133232,
				"z": -1.4706837747,
				"element": "C" 
			},
			{
				"x": -4.9438755814,
				"y": 0.1941405865,
				"z": -1.0161516769,
				"element": "C" 
			},
			{
				"x": -4.0340364084,
				"y": 2.5497039651,
				"z": -0.9751824435,
				"element": "C" 
			},
			{
				"x": -2.4620324866,
				"y": 0.6556442029,
				"z": -1.0001127532,
				"element": "N" 
			},
			{
				"x": -2.254851796,
				"y": 0.4930785255,
				"z": 0.4347003507,
				"element": "C" 
			},
			{
				"x": -0.8341232981,
				"y": -0.0072468402,
				"z": 0.7007763979,
				"element": "C" 
			},
			{
				"x": -0.7228319853,
				"y": -1.2913735309,
				"z": 0.0893796028,
				"element": "O" 
			},
			{
				"x": 0.2215346699,
				"y": 0.9431259817,
				"z": 0.152096426,
				"element": "C" 
			},
			{
				"x": 1.5033486402,
				"y": 0.3585178487,
				"z": 0.494288336,
				"element": "O" 
			},
			{
				"x": 2.5970726091,
				"y": 0.9919967758,
				"z": 0.0225345245,
				"element": "C" 
			},
			{
				"x": 2.5355932118,
				"y": 2.0407793052,
				"z": -0.7497383898,
				"element": "N" 
			},
			{
				"x": 4.1099550243,
				"y": 2.5190560058,
				"z": -1.0579227021,
				"element": "S" 
			},
			{
				"x": 4.8776913213,
				"y": 1.3162150209,
				"z": -0.1836677129,
				"element": "N" 
			},
			{
				"x": 3.9543827055,
				"y": 0.5565866007,
				"z": 0.3675879735,
				"element": "C" 
			},
			{
				"x": 4.2790832344,
				"y": -0.4620963977,
				"z": 1.2503705111,
				"element": "N" 
			},
			{
				"x": 3.5664530102,
				"y": -1.7460946809,
				"z": 1.1666119758,
				"element": "C" 
			},
			{
				"x": 3.8264876056,
				"y": -2.5529978336,
				"z": 2.436770895,
				"element": "C" 
			},
			{
				"x": 5.2148360473,
				"y": -2.7465622478,
				"z": 2.6552315643,
				"element": "O" 
			},
			{
				"x": 5.8790363197,
				"y": -1.4960876029,
				"z": 2.782013909,
				"element": "C" 
			},
			{
				"x": 5.7093760152,
				"y": -0.6370042179,
				"z": 1.531867848,
				"element": "C" 
			},
			{
				"x": -3.5298061085,
				"y": 0.1050293711,
				"z": -3.3909602981,
				"element": "H" 
			},
			{
				"x": -2.8965955927,
				"y": 1.7600761261,
				"z": -3.3481932403,
				"element": "H" 
			},
			{
				"x": -4.6494357871,
				"y": 1.4734695977,
				"z": -3.4455198399,
				"element": "H" 
			},
			{
				"x": -5.9000620613,
				"y": 0.5336124758,
				"z": -1.4291338506,
				"element": "H" 
			},
			{
				"x": -5.0456601202,
				"y": 0.1777172475,
				"z": 0.0737147359,
				"element": "H" 
			},
			{
				"x": -4.7787275528,
				"y": -0.8349758074,
				"z": -1.3554380858,
				"element": "H" 
			},
			{
				"x": -4.1538502455,
				"y": 2.5939232175,
				"z": 0.1123133,
				"element": "H" 
			},
			{
				"x": -4.9495436235,
				"y": 2.9540081135,
				"z": -1.4186321216,
				"element": "H" 
			},
			{
				"x": -3.1973661607,
				"y": 3.197054706,
				"z": -1.254975104,
				"element": "H" 
			},
			{
				"x": -2.2452347425,
				"y": -0.2377066743,
				"z": -1.4374526117,
				"element": "H" 
			},
			{
				"x": -2.3834995236,
				"y": 1.4568876389,
				"z": 0.9401549128,
				"element": "H" 
			},
			{
				"x": -2.9463860024,
				"y": -0.2184706972,
				"z": 0.917525681,
				"element": "H" 
			},
			{
				"x": -0.692416481,
				"y": -0.0931407883,
				"z": 1.7906253429,
				"element": "H" 
			},
			{
				"x": 0.2174705907,
				"y": -1.5111955883,
				"z": 0.0543366608,
				"element": "H" 
			},
			{
				"x": 0.1490168812,
				"y": 1.9375579747,
				"z": 0.60515851,
				"element": "H" 
			},
			{
				"x": 0.1357712461,
				"y": 1.0455934566,
				"z": -0.9308009281,
				"element": "H" 
			},
			{
				"x": 3.9122079047,
				"y": -2.323271921,
				"z": 0.2929408617,
				"element": "H" 
			},
			{
				"x": 2.4977424498,
				"y": -1.5610388933,
				"z": 1.0625015364,
				"element": "H" 
			},
			{
				"x": 3.3787598459,
				"y": -3.5472038768,
				"z": 2.3491680392,
				"element": "H" 
			},
			{
				"x": 3.3719729228,
				"y": -2.0356458998,
				"z": 3.2976593796,
				"element": "H" 
			},
			{
				"x": 6.9374073319,
				"y": -1.7179060065,
				"z": 2.945511475,
				"element": "H" 
			},
			{
				"x": 5.494546433,
				"y": -0.9505379734,
				"z": 3.6592712792,
				"element": "H" 
			},
			{
				"x": 6.2202797827,
				"y": -1.109626953,
				"z": 0.6780251707,
				"element": "H" 
			},
			{
				"x": 6.1605800599,
				"y": 0.3464359493,
				"z": 1.6799506214,
				"element": "H" 
			}
		],
		 "valence_orbital": [ 
			{
				"type": "occ",
				"energy": -0.27785,
				"method": "rhf"
			},
			{
				"type": "occ",
				"energy": -0.27043,
				"method": "rhf"
			},
			{
				"type": "occ",
				"energy": -0.25747,
				"method": "rhf"
			},
			{
				"type": "occ",
				"energy": -0.21859,
				"method": "rhf"
			},
			{
				"type": "occ",
				"energy": -0.21127,
				"method": "rhf"
			},
			{
				"type": "unocc",
				"energy": -0.03351,
				"method": "rhf"
			},
			{
				"type": "unocc",
				"energy": 0.00977,
				"method": "rhf"
			},
			{
				"type": "unocc",
				"energy": 0.05104,
				"method": "rhf"
			},
			{
				"type": "unocc",
				"energy": 0.06322,
				"method": "rhf"
			},
			{
				"type": "unocc",
				"energy": 0.07016,
				"method": "rhf"
			}
		],
		"cosmo_sigma_profile": { 
			"-0.025": 0.0,
			"-0.024": 0.0,
			"-0.023": 0.0,
			"-0.022": 0.0,
			"-0.021": 0.0,
			"-0.02": 0.0,
			"-0.019": 0.0,
			"-0.018": 0.0,
			"-0.017": 0.0,
			"-0.016": 0.0,
			"-0.015": 0.0,
			"-0.014": 0.0,
			"-0.013": 0.0378467482777,
			"-0.012": 0.829178498076,
			"-0.011": 1.45981344364,
			"-0.01": 1.02563535692,
			"-0.009": 1.33632224035,
			"-0.008": 1.32271482805,
			"-0.007": 2.02272057729,
			"-0.006": 8.73838910554,
			"-0.005": 16.7241588536,
			"-0.004": 34.9451362246,
			"-0.003": 46.0477121747,
			"-0.002": 46.549592821,
			"-0.001": 35.2045245791,
			"0.0": 30.527304829,
			"0.001": 34.9286865869,
			"0.002": 25.6722700853,
			"0.003": 16.6247327003,
			"0.004": 10.2432462287,
			"0.005": 9.69782069709,
			"0.006": 7.73273554997,
			"0.007": 6.70083591205,
			"0.008": 4.48821947697,
			"0.009": 5.04856326129,
			"0.01": 5.68672315529,
			"0.011": 3.9797485824,
			"0.012": 4.65151150365,
			"0.013": 3.38205839196,
			"0.014": 0.90443635766,
			"0.015": 0.0522619572502,
			"0.016": 0.0,
			"0.017": 0.0,
			"0.018": 0.0,
			"0.019": 0.0,
			"0.02": 0.0,
			"0.021": 0.0,
			"0.022": 0.0,
			"0.023": 0.0,
			"0.024": 0.0,
			"0.025": 0.0
		}
	}
}
