{
	 "smiles": "CCCCOC(=O)CCCCCCCCC(=O)OCCCC", 
	 "Tm": 262.65, 
	 "num_atms": 56, 
	 "gaussian": { 
		 "optdone": 1, 
		 "sigma_profile": "yes", 
		 "theory": "DFT", 
		 "functional": "B3LYP", 
		 "basiset": "6-31G**", 
		 "properties": { 
			 "R2extent": 9022.1551, 
			 "electric_dipole_moment_norm": 4.10156316543, 
			 "electric_quadrupole_moment_norm": 11.3261221691, 
			 "total_energy": -1007.37083119, 
			 "HOMO_LUMO_gap": 0.26351, 
			 "cosmo_polarized_energy": -11.92, 
			 "cosmo_cavitation_energy": 56.37, 
			 "cosmo_dispersion_energy": -33.44, 
			 "cosmo_repulsion_energy": 2.64, 
			 "cosmo_total_nonelectrostatic_energy": 25.57, 
			 "SMD_solvation_energy": 9.35 
		},
		"coords": [
			{
				"x": -1.3700577492,
				"y": 5.0545685047,
				"z": 1.1995064601,
				"element": "C" 
			},
			{
				"x": 0.0844766722,
				"y": 4.6980353541,
				"z": 0.8767585282,
				"element": "C" 
			},
			{
				"x": 0.4963727097,
				"y": 3.324909414,
				"z": 1.4249220443,
				"element": "C" 
			},
			{
				"x": 1.9488215944,
				"y": 2.9904666766,
				"z": 1.1037464936,
				"element": "C" 
			},
			{
				"x": 2.3456609258,
				"y": 1.7299714752,
				"z": 1.6940047214,
				"element": "O" 
			},
			{
				"x": 2.1984097878,
				"y": 0.6168320223,
				"z": 0.9399404238,
				"element": "C" 
			},
			{
				"x": 1.7540086877,
				"y": 0.618991787,
				"z": -0.1909188144,
				"element": "O" 
			},
			{
				"x": 2.7108942617,
				"y": -0.6083535394,
				"z": 1.6737114635,
				"element": "C" 
			},
			{
				"x": 2.1024693567,
				"y": -0.8634568014,
				"z": 3.0700565328,
				"element": "C" 
			},
			{
				"x": 0.7052852589,
				"y": -1.5063540904,
				"z": 3.0720443548,
				"element": "C" 
			},
			{
				"x": -0.4169848241,
				"y": -0.6440155793,
				"z": 2.4745947967,
				"element": "C" 
			},
			{
				"x": -1.8293294121,
				"y": -1.2245128775,
				"z": 2.6752322029,
				"element": "C" 
			},
			{
				"x": -2.0783683287,
				"y": -2.6120741862,
				"z": 2.0537805025,
				"element": "C" 
			},
			{
				"x": -1.8421767127,
				"y": -2.7150884402,
				"z": 0.5382875921,
				"element": "C" 
			},
			{
				"x": -2.8130045866,
				"y": -1.8644083148,
				"z": -0.3089024312,
				"element": "C" 
			},
			{
				"x": -2.4727191913,
				"y": -1.9818609311,
				"z": -1.7800395973,
				"element": "C" 
			},
			{
				"x": -2.9808214388,
				"y": -2.758193361,
				"z": -2.5616943074,
				"element": "O" 
			},
			{
				"x": -1.4693122614,
				"y": -1.1366371015,
				"z": -2.1057790797,
				"element": "O" 
			},
			{
				"x": -0.9536228269,
				"y": -1.2400215623,
				"z": -3.4540257233,
				"element": "C" 
			},
			{
				"x": 0.2157249202,
				"y": -0.2754701605,
				"z": -3.6101935383,
				"element": "C" 
			},
			{
				"x": -0.1555930915,
				"y": 1.2090150919,
				"z": -3.7712226425,
				"element": "C" 
			},
			{
				"x": -0.7418789441,
				"y": 1.8727340949,
				"z": -2.5189585696,
				"element": "C" 
			},
			{
				"x": -1.6372854196,
				"y": 6.0369327153,
				"z": 0.7973241435,
				"element": "H" 
			},
			{
				"x": -2.0607902151,
				"y": 4.319960968,
				"z": 0.7711603261,
				"element": "H" 
			},
			{
				"x": -1.541442598,
				"y": 5.0794515892,
				"z": 2.2815894083,
				"element": "H" 
			},
			{
				"x": 0.7500557731,
				"y": 5.4701742571,
				"z": 1.286464941,
				"element": "H" 
			},
			{
				"x": 0.2311004146,
				"y": 4.7125500554,
				"z": -0.211254186,
				"element": "H" 
			},
			{
				"x": -0.1489915663,
				"y": 2.5475953913,
				"z": 0.9994816851,
				"element": "H" 
			},
			{
				"x": 0.3573539436,
				"y": 3.2993046658,
				"z": 2.5134047747,
				"element": "H" 
			},
			{
				"x": 2.6284593125,
				"y": 3.7272127011,
				"z": 1.5416100513,
				"element": "H" 
			},
			{
				"x": 2.1130865068,
				"y": 2.943229114,
				"z": 0.0243859215,
				"element": "H" 
			},
			{
				"x": 2.5583960981,
				"y": -1.4661370206,
				"z": 1.012940192,
				"element": "H" 
			},
			{
				"x": 3.7932378953,
				"y": -0.465969925,
				"z": 1.7850339902,
				"element": "H" 
			},
			{
				"x": 2.7852905702,
				"y": -1.5297671368,
				"z": 3.6103458246,
				"element": "H" 
			},
			{
				"x": 2.0865674529,
				"y": 0.0797265315,
				"z": 3.6277014784,
				"element": "H" 
			},
			{
				"x": 0.4468516217,
				"y": -1.7516744605,
				"z": 4.1116913133,
				"element": "H" 
			},
			{
				"x": 0.7604256939,
				"y": -2.4662802806,
				"z": 2.5412998164,
				"element": "H" 
			},
			{
				"x": -0.2340784714,
				"y": -0.4812330875,
				"z": 1.4058277587,
				"element": "H" 
			},
			{
				"x": -0.3859726877,
				"y": 0.3498788439,
				"z": 2.9410550476,
				"element": "H" 
			},
			{
				"x": -2.5604878563,
				"y": -0.5086153165,
				"z": 2.278507689,
				"element": "H" 
			},
			{
				"x": -2.0353156445,
				"y": -1.2916240455,
				"z": 3.7522258949,
				"element": "H" 
			},
			{
				"x": -1.4388252762,
				"y": -3.3520935369,
				"z": 2.5508546093,
				"element": "H" 
			},
			{
				"x": -3.1105326295,
				"y": -2.9138894766,
				"z": 2.2769616857,
				"element": "H" 
			},
			{
				"x": -1.9445604073,
				"y": -3.7628508709,
				"z": 0.2314536304,
				"element": "H" 
			},
			{
				"x": -0.814538782,
				"y": -2.4205080342,
				"z": 0.2960345728,
				"element": "H" 
			},
			{
				"x": -2.7535364668,
				"y": -0.8128061517,
				"z": -0.0134504312,
				"element": "H" 
			},
			{
				"x": -3.8404960006,
				"y": -2.2127441604,
				"z": -0.1706822256,
				"element": "H" 
			},
			{
				"x": -0.641960733,
				"y": -2.2763705316,
				"z": -3.6210409598,
				"element": "H" 
			},
			{
				"x": -1.7628473231,
				"y": -1.0248520165,
				"z": -4.1612799375,
				"element": "H" 
			},
			{
				"x": 0.769394999,
				"y": -0.5958046926,
				"z": -4.5027734316,
				"element": "H" 
			},
			{
				"x": 0.8919631351,
				"y": -0.4012352387,
				"z": -2.7557382211,
				"element": "H" 
			},
			{
				"x": -0.8568244096,
				"y": 1.3134591566,
				"z": -4.6114021831,
				"element": "H" 
			},
			{
				"x": 0.7514018153,
				"y": 1.7515891877,
				"z": -4.0672605029,
				"element": "H" 
			},
			{
				"x": -1.6978181862,
				"y": 1.424264989,
				"z": -2.2353810019,
				"element": "H" 
			},
			{
				"x": -0.9082493809,
				"y": 2.9424350824,
				"z": -2.6907321667,
				"element": "H" 
			},
			{
				"x": -0.0583859857,
				"y": 1.7589132599,
				"z": -1.6715109204,
				"element": "H" 
			}
		],
		 "valence_orbital": [ 
			{
				"type": "occ",
				"energy": -0.30871,
				"method": "rhf"
			},
			{
				"type": "occ",
				"energy": -0.29448,
				"method": "rhf"
			},
			{
				"type": "occ",
				"energy": -0.28388,
				"method": "rhf"
			},
			{
				"type": "occ",
				"energy": -0.26943,
				"method": "rhf"
			},
			{
				"type": "occ",
				"energy": -0.25516,
				"method": "rhf"
			},
			{
				"type": "unocc",
				"energy": 0.00835,
				"method": "rhf"
			},
			{
				"type": "unocc",
				"energy": 0.02287,
				"method": "rhf"
			},
			{
				"type": "unocc",
				"energy": 0.06929,
				"method": "rhf"
			},
			{
				"type": "unocc",
				"energy": 0.07935,
				"method": "rhf"
			},
			{
				"type": "unocc",
				"energy": 0.09547,
				"method": "rhf"
			}
		],
		"cosmo_sigma_profile": { 
			"-0.025": 0.0,
			"-0.024": 0.0,
			"-0.023": 0.0,
			"-0.022": 0.0,
			"-0.021": 0.0,
			"-0.02": 0.0,
			"-0.019": 0.0,
			"-0.018": 0.0,
			"-0.017": 0.0,
			"-0.016": 0.0,
			"-0.015": 0.0,
			"-0.014": 0.0,
			"-0.013": 0.0,
			"-0.012": 0.0,
			"-0.011": 0.0,
			"-0.01": 0.0,
			"-0.009": 0.0,
			"-0.008": 0.0,
			"-0.007": 0.00207288578267,
			"-0.006": 2.0721161548,
			"-0.005": 9.2772769098,
			"-0.004": 22.4831595582,
			"-0.003": 46.1779740387,
			"-0.002": 78.0119357062,
			"-0.001": 74.464400089,
			"0.0": 71.5163658908,
			"0.001": 46.6810737341,
			"0.002": 20.3443296751,
			"0.003": 9.70928530582,
			"0.004": 7.8967192773,
			"0.005": 6.89760635972,
			"0.006": 8.04380958133,
			"0.007": 7.65673861308,
			"0.008": 5.12519193221,
			"0.009": 4.66069010492,
			"0.01": 3.48727832282,
			"0.011": 2.06185277355,
			"0.012": 4.81323219414,
			"0.013": 2.85623388805,
			"0.014": 0.335209585696,
			"0.015": 0.0,
			"0.016": 0.0,
			"0.017": 0.0,
			"0.018": 0.0,
			"0.019": 0.0,
			"0.02": 0.0,
			"0.021": 0.0,
			"0.022": 0.0,
			"0.023": 0.0,
			"0.024": 0.0,
			"0.025": 0.0
		}
	}
}
