{
	 "smiles": "OC(=O)C=C1C2=CC=CC=C2C2=CC=CC=C12", 
	 "Tm": 505.15, 
	 "num_atms": 27, 
	 "gaussian": { 
		 "optdone": 1, 
		 "sigma_profile": "yes", 
		 "theory": "DFT", 
		 "functional": "B3LYP", 
		 "basiset": "6-31G**", 
		 "properties": { 
			 "R2extent": 4397.5842, 
			 "electric_dipole_moment_norm": 1.53755917285, 
			 "electric_quadrupole_moment_norm": 10.6815079282, 
			 "total_energy": -728.088911586, 
			 "HOMO_LUMO_gap": 0.13455, 
			 "cosmo_polarized_energy": -10.29, 
			 "cosmo_cavitation_energy": 31.28, 
			 "cosmo_dispersion_energy": -23.1, 
			 "cosmo_repulsion_energy": 1.73, 
			 "cosmo_total_nonelectrostatic_energy": 9.91, 
			 "SMD_solvation_energy": 5.86 
		},
		"coords": [
			{
				"x": -1.8424535154,
				"y": -2.3527962692,
				"z": 2.2429415545,
				"element": "O" 
			},
			{
				"x": -1.1461668935,
				"y": -2.2514266864,
				"z": 1.0765141256,
				"element": "C" 
			},
			{
				"x": -1.045166854,
				"y": -3.2046391084,
				"z": 0.3226472136,
				"element": "O" 
			},
			{
				"x": -0.602076978,
				"y": -0.8948138822,
				"z": 0.9367108319,
				"element": "C" 
			},
			{
				"x": 0.1469297126,
				"y": -0.3583648827,
				"z": -0.0602050308,
				"element": "C" 
			},
			{
				"x": 0.5992738388,
				"y": 1.0583176484,
				"z": -0.0022117784,
				"element": "C" 
			},
			{
				"x": 0.3856462411,
				"y": 2.0372883781,
				"z": 0.9654688453,
				"element": "C" 
			},
			{
				"x": 0.9309543139,
				"y": 3.3112080298,
				"z": 0.7733035644,
				"element": "C" 
			},
			{
				"x": 1.6795209091,
				"y": 3.599308907,
				"z": -0.37239222,
				"element": "C" 
			},
			{
				"x": 1.8976660376,
				"y": 2.6203508134,
				"z": -1.3480466628,
				"element": "C" 
			},
			{
				"x": 1.3552341148,
				"y": 1.3524926329,
				"z": -1.1572967791,
				"element": "C" 
			},
			{
				"x": 1.4097336204,
				"y": 0.1399709257,
				"z": -1.9855013587,
				"element": "C" 
			},
			{
				"x": 2.0292704107,
				"y": -0.0798020718,
				"z": -3.2104070663,
				"element": "C" 
			},
			{
				"x": 1.9297210045,
				"y": -1.3456308226,
				"z": -3.7992297478,
				"element": "C" 
			},
			{
				"x": 1.220015786,
				"y": -2.3676186883,
				"z": -3.1652286497,
				"element": "C" 
			},
			{
				"x": 0.5931453802,
				"y": -2.1546058975,
				"z": -1.9314761126,
				"element": "C" 
			},
			{
				"x": 0.6862415922,
				"y": -0.8950210393,
				"z": -1.334971549,
				"element": "C" 
			},
			{
				"x": -2.1720642334,
				"y": -3.2658726792,
				"z": 2.2724062763,
				"element": "H" 
			},
			{
				"x": -0.8557944392,
				"y": -0.2511649122,
				"z": 1.7728368288,
				"element": "H" 
			},
			{
				"x": -0.1935071759,
				"y": 1.8285374674,
				"z": 1.8604169911,
				"element": "H" 
			},
			{
				"x": 0.7710114014,
				"y": 4.0823535474,
				"z": 1.5208333227,
				"element": "H" 
			},
			{
				"x": 2.0958852253,
				"y": 4.5935784542,
				"z": -0.506112407,
				"element": "H" 
			},
			{
				"x": 2.4800720987,
				"y": 2.8511532177,
				"z": -2.2354763549,
				"element": "H" 
			},
			{
				"x": 2.5817505634,
				"y": 0.7142165484,
				"z": -3.7048401649,
				"element": "H" 
			},
			{
				"x": 2.4084919153,
				"y": -1.5327796785,
				"z": -4.7563191964,
				"element": "H" 
			},
			{
				"x": 1.1508565859,
				"y": -3.3450447394,
				"z": -3.6335520239,
				"element": "H" 
			},
			{
				"x": 0.0439093375,
				"y": -2.9469952128,
				"z": -1.4418124519,
				"element": "H" 
			}
		],
		 "valence_orbital": [ 
			{
				"type": "occ",
				"energy": -0.2842,
				"method": "rhf"
			},
			{
				"type": "occ",
				"energy": -0.27261,
				"method": "rhf"
			},
			{
				"type": "occ",
				"energy": -0.25412,
				"method": "rhf"
			},
			{
				"type": "occ",
				"energy": -0.23535,
				"method": "rhf"
			},
			{
				"type": "occ",
				"energy": -0.22076,
				"method": "rhf"
			},
			{
				"type": "unocc",
				"energy": -0.08621,
				"method": "rhf"
			},
			{
				"type": "unocc",
				"energy": -0.03151,
				"method": "rhf"
			},
			{
				"type": "unocc",
				"energy": 0.00257,
				"method": "rhf"
			},
			{
				"type": "unocc",
				"energy": 0.02626,
				"method": "rhf"
			},
			{
				"type": "unocc",
				"energy": 0.03728,
				"method": "rhf"
			}
		],
		"cosmo_sigma_profile": { 
			"-0.025": 0.0,
			"-0.024": 0.0,
			"-0.023": 0.0,
			"-0.022": 0.0,
			"-0.021": 0.0,
			"-0.02": 0.0,
			"-0.019": 0.0,
			"-0.018": 0.475120947598,
			"-0.017": 0.930842627888,
			"-0.016": 1.04566566433,
			"-0.015": 0.225583596142,
			"-0.014": 0.719374633107,
			"-0.013": 0.593574603737,
			"-0.012": 0.885396651278,
			"-0.011": 1.0727699452,
			"-0.01": 0.758378968369,
			"-0.009": 1.16502549503,
			"-0.008": 2.12176218835,
			"-0.007": 4.65852199283,
			"-0.006": 15.6201098249,
			"-0.005": 16.1848625725,
			"-0.004": 16.8216309252,
			"-0.003": 12.7968956861,
			"-0.002": 15.9424797592,
			"-0.001": 14.5443151325,
			"0.0": 15.7945469082,
			"0.001": 22.7582239787,
			"0.002": 24.5767775418,
			"0.003": 25.2918236845,
			"0.004": 24.6531458177,
			"0.005": 14.1658381976,
			"0.006": 3.39246965444,
			"0.007": 3.09179540983,
			"0.008": 2.57950905673,
			"0.009": 3.11833424163,
			"0.01": 2.68131265698,
			"0.011": 2.03890937247,
			"0.012": 1.5162475669,
			"0.013": 0.0493339181465,
			"0.014": 0.0,
			"0.015": 0.0,
			"0.016": 0.0,
			"0.017": 0.0,
			"0.018": 0.0,
			"0.019": 0.0,
			"0.02": 0.0,
			"0.021": 0.0,
			"0.022": 0.0,
			"0.023": 0.0,
			"0.024": 0.0,
			"0.025": 0.0
		}
	}
}
