{
	 "smiles": "CNC(=O)NCC(O)=O", 
	 "Tm": 412.15, 
	 "num_atms": 17, 
	 "gaussian": { 
		 "optdone": 1, 
		 "sigma_profile": "yes", 
		 "theory": "DFT", 
		 "functional": "B3LYP", 
		 "basiset": "6-31G**", 
		 "properties": { 
			 "R2extent": 2121.159, 
			 "electric_dipole_moment_norm": 1.44557539063, 
			 "electric_quadrupole_moment_norm": 21.9709408023, 
			 "total_energy": -492.45016219, 
			 "HOMO_LUMO_gap": 0.25913, 
			 "cosmo_polarized_energy": -19.42, 
			 "cosmo_cavitation_energy": 21.19, 
			 "cosmo_dispersion_energy": -15.56, 
			 "cosmo_repulsion_energy": 1.32, 
			 "cosmo_total_nonelectrostatic_energy": 6.95, 
			 "SMD_solvation_energy": 5.46 
		},
		"coords": [
			{
				"x": -1.3776723077,
				"y": -1.7991629008,
				"z": -2.1090977284,
				"element": "C" 
			},
			{
				"x": -0.6515979682,
				"y": -1.7281367342,
				"z": -0.8483434675,
				"element": "N" 
			},
			{
				"x": -0.3545502355,
				"y": -0.5062348532,
				"z": -0.3015114003,
				"element": "C" 
			},
			{
				"x": -0.7362949664,
				"y": 0.563121929,
				"z": -0.7517581858,
				"element": "O" 
			},
			{
				"x": 0.4620481045,
				"y": -0.5572353164,
				"z": 0.8541911565,
				"element": "N" 
			},
			{
				"x": 0.3563967704,
				"y": -1.6390733339,
				"z": 1.8363897301,
				"element": "C" 
			},
			{
				"x": 1.4159088184,
				"y": -2.7370087428,
				"z": 1.6405342683,
				"element": "C" 
			},
			{
				"x": 2.3308881544,
				"y": -2.4588693712,
				"z": 0.6910172823,
				"element": "O" 
			},
			{
				"x": 1.4160046233,
				"y": -3.7613106344,
				"z": 2.2757326257,
				"element": "O" 
			},
			{
				"x": -0.7170292018,
				"y": -1.6935725487,
				"z": -2.9786505075,
				"element": "H" 
			},
			{
				"x": -1.9008687932,
				"y": -2.7562773069,
				"z": -2.1724132145,
				"element": "H" 
			},
			{
				"x": -2.1040548246,
				"y": -0.9869388525,
				"z": -2.1329229194,
				"element": "H" 
			},
			{
				"x": -0.0505886976,
				"y": -2.5080547361,
				"z": -0.622550707,
				"element": "H" 
			},
			{
				"x": 0.5132049433,
				"y": 0.3750551505,
				"z": 1.2463441896,
				"element": "H" 
			},
			{
				"x": 0.498052177,
				"y": -1.2303993366,
				"z": 2.8408785226,
				"element": "H" 
			},
			{
				"x": -0.6266213729,
				"y": -2.1209087426,
				"z": 1.820868263,
				"element": "H" 
			},
			{
				"x": 2.1319747766,
				"y": -1.5515936692,
				"z": 0.3771920921,
				"element": "H" 
			}
		],
		 "valence_orbital": [ 
			{
				"type": "occ",
				"energy": -0.32209,
				"method": "rhf"
			},
			{
				"type": "occ",
				"energy": -0.30549,
				"method": "rhf"
			},
			{
				"type": "occ",
				"energy": -0.28596,
				"method": "rhf"
			},
			{
				"type": "occ",
				"energy": -0.26895,
				"method": "rhf"
			},
			{
				"type": "occ",
				"energy": -0.26172,
				"method": "rhf"
			},
			{
				"type": "unocc",
				"energy": -0.00259,
				"method": "rhf"
			},
			{
				"type": "unocc",
				"energy": 0.02847,
				"method": "rhf"
			},
			{
				"type": "unocc",
				"energy": 0.05759,
				"method": "rhf"
			},
			{
				"type": "unocc",
				"energy": 0.08267,
				"method": "rhf"
			},
			{
				"type": "unocc",
				"energy": 0.11157,
				"method": "rhf"
			}
		],
		"cosmo_sigma_profile": { 
			"-0.025": 0.0,
			"-0.024": 0.0,
			"-0.023": 0.0,
			"-0.022": 0.0,
			"-0.021": 0.0,
			"-0.02": 0.0,
			"-0.019": 0.0,
			"-0.018": 0.0,
			"-0.017": 0.0,
			"-0.016": 0.0,
			"-0.015": 0.0424438170774,
			"-0.014": 1.36284288694,
			"-0.013": 3.16259702605,
			"-0.012": 2.97937179489,
			"-0.011": 3.961325432,
			"-0.01": 4.70601354099,
			"-0.009": 6.77344930055,
			"-0.008": 6.01405517731,
			"-0.007": 6.83626940204,
			"-0.006": 7.19131872281,
			"-0.005": 10.2228690736,
			"-0.004": 12.770038707,
			"-0.003": 10.2452666341,
			"-0.002": 10.3392134863,
			"-0.001": 8.32625182549,
			"0.0": 5.16680927916,
			"0.001": 4.6402772642,
			"0.002": 4.17581887352,
			"0.003": 3.4506645554,
			"0.004": 4.02844694262,
			"0.005": 3.70760104254,
			"0.006": 3.15610345893,
			"0.007": 4.055636195,
			"0.008": 4.41598097201,
			"0.009": 4.42087989897,
			"0.01": 6.01630022093,
			"0.011": 6.15291144539,
			"0.012": 7.62539230331,
			"0.013": 6.14004759708,
			"0.014": 4.63737080047,
			"0.015": 0.120208970327,
			"0.016": 0.0,
			"0.017": 0.0,
			"0.018": 0.0,
			"0.019": 0.0,
			"0.02": 0.0,
			"0.021": 0.0,
			"0.022": 0.0,
			"0.023": 0.0,
			"0.024": 0.0,
			"0.025": 0.0
		}
	}
}
