{
	 "smiles": "COC(=O)C1=CC2=C(N1)C=C(F)C=C2F", 
	 "Tm": 472.15, 
	 "num_atms": 22, 
	 "gaussian": { 
		 "optdone": 1, 
		 "sigma_profile": "yes", 
		 "theory": "DFT", 
		 "functional": "B3LYP", 
		 "basiset": "6-31G**", 
		 "properties": { 
			 "R2extent": 4422.0736, 
			 "electric_dipole_moment_norm": 3.61458101306, 
			 "electric_quadrupole_moment_norm": 10.2823939518, 
			 "total_energy": -790.165047312, 
			 "HOMO_LUMO_gap": 0.16624, 
			 "cosmo_polarized_energy": -10.53, 
			 "cosmo_cavitation_energy": 28.44, 
			 "cosmo_dispersion_energy": -20.62, 
			 "cosmo_repulsion_energy": 1.56, 
			 "cosmo_total_nonelectrostatic_energy": 9.38, 
			 "SMD_solvation_energy": 7.12 
		},
		"coords": [
			{
				"x": 0.4425023198,
				"y": 4.0936363151,
				"z": 1.038218937,
				"element": "C" 
			},
			{
				"x": 0.2895871212,
				"y": 2.6705459542,
				"z": 0.9116556994,
				"element": "O" 
			},
			{
				"x": 1.400692871,
				"y": 2.0070035459,
				"z": 0.4896207012,
				"element": "C" 
			},
			{
				"x": 2.4553684992,
				"y": 2.5500644245,
				"z": 0.2318598116,
				"element": "O" 
			},
			{
				"x": 1.1464459529,
				"y": 0.5676341489,
				"z": 0.3920218655,
				"element": "C" 
			},
			{
				"x": 2.0159085004,
				"y": -0.426736126,
				"z": 0.0039345267,
				"element": "C" 
			},
			{
				"x": 1.2915000176,
				"y": -1.6525372308,
				"z": 0.0768316804,
				"element": "C" 
			},
			{
				"x": -0.030861145,
				"y": -1.3497806076,
				"z": 0.5195041898,
				"element": "C" 
			},
			{
				"x": -0.0874294519,
				"y": 0.0062149302,
				"z": 0.7021756144,
				"element": "N" 
			},
			{
				"x": -1.0152607076,
				"y": -2.333723732,
				"z": 0.7016170044,
				"element": "C" 
			},
			{
				"x": -0.6283293618,
				"y": -3.6312320571,
				"z": 0.42476421,
				"element": "C" 
			},
			{
				"x": -1.5295915285,
				"y": -4.6222355609,
				"z": 0.5804733314,
				"element": "F" 
			},
			{
				"x": 0.6595517164,
				"y": -3.9934755176,
				"z": -0.0144913502,
				"element": "C" 
			},
			{
				"x": 1.5991463186,
				"y": -2.9973382408,
				"z": -0.1813986343,
				"element": "C" 
			},
			{
				"x": 2.8390630704,
				"y": -3.3103960452,
				"z": -0.5999473684,
				"element": "F" 
			},
			{
				"x": 1.2247056517,
				"y": 4.3325932155,
				"z": 1.7629253077,
				"element": "H" 
			},
			{
				"x": 0.7064293511,
				"y": 4.5383620653,
				"z": 0.0755654854,
				"element": "H" 
			},
			{
				"x": -0.5233749873,
				"y": 4.4650665783,
				"z": 1.3801759478,
				"element": "H" 
			},
			{
				"x": 3.0427010455,
				"y": -0.2788314703,
				"z": -0.2931323031,
				"element": "H" 
			},
			{
				"x": -0.8812050235,
				"y": 0.5441277754,
				"z": 1.0114568744,
				"element": "H" 
			},
			{
				"x": -2.0220542639,
				"y": -2.1155490044,
				"z": 1.0371390759,
				"element": "H" 
			},
			{
				"x": 0.8984040336,
				"y": -5.0304133605,
				"z": -0.2140706072,
				"element": "H" 
			}
		],
		 "valence_orbital": [ 
			{
				"type": "occ",
				"energy": -0.31071,
				"method": "rhf"
			},
			{
				"type": "occ",
				"energy": -0.28984,
				"method": "rhf"
			},
			{
				"type": "occ",
				"energy": -0.28349,
				"method": "rhf"
			},
			{
				"type": "occ",
				"energy": -0.24159,
				"method": "rhf"
			},
			{
				"type": "occ",
				"energy": -0.21819,
				"method": "rhf"
			},
			{
				"type": "unocc",
				"energy": -0.05195,
				"method": "rhf"
			},
			{
				"type": "unocc",
				"energy": 0.0052,
				"method": "rhf"
			},
			{
				"type": "unocc",
				"energy": 0.02263,
				"method": "rhf"
			},
			{
				"type": "unocc",
				"energy": 0.0778,
				"method": "rhf"
			},
			{
				"type": "unocc",
				"energy": 0.08852,
				"method": "rhf"
			}
		],
		"cosmo_sigma_profile": { 
			"-0.025": 0.0,
			"-0.024": 0.0,
			"-0.023": 0.0,
			"-0.022": 0.0,
			"-0.021": 0.0,
			"-0.02": 0.0,
			"-0.019": 0.0,
			"-0.018": 0.0,
			"-0.017": 0.0,
			"-0.016": 0.598581731996,
			"-0.015": 0.836259917593,
			"-0.014": 0.866050179451,
			"-0.013": 1.18857816584,
			"-0.012": 0.596651875244,
			"-0.011": 1.05184722353,
			"-0.01": 0.979611247305,
			"-0.009": 1.85388431116,
			"-0.008": 4.32161912199,
			"-0.007": 5.81384254222,
			"-0.006": 10.250892143,
			"-0.005": 11.3798304168,
			"-0.004": 13.1718890416,
			"-0.003": 13.8777879338,
			"-0.002": 12.2380542485,
			"-0.001": 11.313892548,
			"0.0": 17.1095314617,
			"0.001": 28.1191481677,
			"0.002": 30.4270158438,
			"0.003": 20.3213063099,
			"0.004": 22.50994334,
			"0.005": 3.82444205035,
			"0.006": 1.79732689701,
			"0.007": 1.32928271571,
			"0.008": 1.41769489804,
			"0.009": 1.34271528622,
			"0.01": 2.11163667146,
			"0.011": 3.60834986739,
			"0.012": 4.2899763996,
			"0.013": 0.204168800245,
			"0.014": 0.0,
			"0.015": 0.0,
			"0.016": 0.0,
			"0.017": 0.0,
			"0.018": 0.0,
			"0.019": 0.0,
			"0.02": 0.0,
			"0.021": 0.0,
			"0.022": 0.0,
			"0.023": 0.0,
			"0.024": 0.0,
			"0.025": 0.0
		}
	}
}
