{
	 "smiles": "COC1=C(OC)C=C2C(CCO)NCCC2=C1", 
	 "Tm": 378.15, 
	 "num_atms": 36, 
	 "gaussian": { 
		 "optdone": 1, 
		 "sigma_profile": "yes", 
		 "theory": "DFT", 
		 "functional": "B3LYP", 
		 "basiset": "6-31G**", 
		 "properties": { 
			 "R2extent": 5058.7324, 
			 "electric_dipole_moment_norm": 1.32084698962, 
			 "electric_quadrupole_moment_norm": 10.1000600884, 
			 "total_energy": -787.21955685, 
			 "HOMO_LUMO_gap": 0.20342, 
			 "cosmo_polarized_energy": -14.68, 
			 "cosmo_cavitation_energy": 36.41, 
			 "cosmo_dispersion_energy": -26.09, 
			 "cosmo_repulsion_energy": 2.04, 
			 "cosmo_total_nonelectrostatic_energy": 12.37, 
			 "SMD_solvation_energy": 4.95 
		},
		"coords": [
			{
				"x": -2.4269307565,
				"y": 3.5350340715,
				"z": -1.3288716584,
				"element": "C" 
			},
			{
				"x": -1.5828016834,
				"y": 3.3684215883,
				"z": -0.2049138914,
				"element": "O" 
			},
			{
				"x": -0.6746114655,
				"y": 2.3501595634,
				"z": -0.2351435019,
				"element": "C" 
			},
			{
				"x": 0.1557981485,
				"y": 2.233374678,
				"z": 0.9092648765,
				"element": "C" 
			},
			{
				"x": -0.0506292048,
				"y": 3.1626513026,
				"z": 1.8864973127,
				"element": "O" 
			},
			{
				"x": 0.7638888252,
				"y": 3.0923321893,
				"z": 3.0444419375,
				"element": "C" 
			},
			{
				"x": 1.1005734102,
				"y": 1.2156826281,
				"z": 0.9603527307,
				"element": "C" 
			},
			{
				"x": 1.2509966094,
				"y": 0.2949434521,
				"z": -0.0971588423,
				"element": "C" 
			},
			{
				"x": 2.3018376249,
				"y": -0.8096100419,
				"z": 0.0070668907,
				"element": "C" 
			},
			{
				"x": 1.9006568886,
				"y": -1.9730946926,
				"z": 0.9505783319,
				"element": "C" 
			},
			{
				"x": 1.6399870816,
				"y": -1.5939046918,
				"z": 2.4081469652,
				"element": "C" 
			},
			{
				"x": 2.6957060337,
				"y": -0.8364001913,
				"z": 3.0005889598,
				"element": "O" 
			},
			{
				"x": 2.683949313,
				"y": -1.3829256464,
				"z": -1.2963526489,
				"element": "N" 
			},
			{
				"x": 1.5217549023,
				"y": -1.6917298004,
				"z": -2.1359692862,
				"element": "C" 
			},
			{
				"x": 0.6486615908,
				"y": -0.4668891946,
				"z": -2.4464080907,
				"element": "C" 
			},
			{
				"x": 0.4517190998,
				"y": 0.4259566404,
				"z": -1.2346862956,
				"element": "C" 
			},
			{
				"x": -0.5079479273,
				"y": 1.4551524237,
				"z": -1.2850236412,
				"element": "C" 
			},
			{
				"x": -3.0536231193,
				"y": 2.6499189723,
				"z": -1.5030615734,
				"element": "H" 
			},
			{
				"x": -3.0679121303,
				"y": 4.3884228724,
				"z": -1.1008657112,
				"element": "H" 
			},
			{
				"x": -1.8539656842,
				"y": 3.7485061629,
				"z": -2.2414035418,
				"element": "H" 
			},
			{
				"x": 0.6439901574,
				"y": 2.1365990886,
				"z": 3.5709262139,
				"element": "H" 
			},
			{
				"x": 0.4343849923,
				"y": 3.9057735504,
				"z": 3.693171792,
				"element": "H" 
			},
			{
				"x": 1.8261655077,
				"y": 3.2297024483,
				"z": 2.8031030944,
				"element": "H" 
			},
			{
				"x": 1.7512468158,
				"y": 1.1201972067,
				"z": 1.8224260596,
				"element": "H" 
			},
			{
				"x": 3.2113308526,
				"y": -0.3693722858,
				"z": 0.4327124255,
				"element": "H" 
			},
			{
				"x": 1.0005947251,
				"y": -2.4735939047,
				"z": 0.5724214519,
				"element": "H" 
			},
			{
				"x": 2.7114690409,
				"y": -2.7122327831,
				"z": 0.8972766728,
				"element": "H" 
			},
			{
				"x": 0.7520810587,
				"y": -0.9613997839,
				"z": 2.4874282108,
				"element": "H" 
			},
			{
				"x": 1.4418290328,
				"y": -2.507791566,
				"z": 2.9896687727,
				"element": "H" 
			},
			{
				"x": 3.5081575511,
				"y": -1.3543986576,
				"z": 2.926691305,
				"element": "H" 
			},
			{
				"x": 3.2613635673,
				"y": -0.703411159,
				"z": -1.7880976452,
				"element": "H" 
			},
			{
				"x": 1.8762733359,
				"y": -2.1532855583,
				"z": -3.0643521387,
				"element": "H" 
			},
			{
				"x": 0.9240837394,
				"y": -2.4527738092,
				"z": -1.6215162126,
				"element": "H" 
			},
			{
				"x": 1.1245153642,
				"y": 0.1210440789,
				"z": -3.2464475562,
				"element": "H" 
			},
			{
				"x": -0.3217775834,
				"y": -0.7863042615,
				"z": -2.8492088494,
				"element": "H" 
			},
			{
				"x": -1.1236157144,
				"y": 1.5461451101,
				"z": -2.1737829183,
				"element": "H" 
			}
		],
		 "valence_orbital": [ 
			{
				"type": "occ",
				"energy": -0.28994,
				"method": "rhf"
			},
			{
				"type": "occ",
				"energy": -0.26781,
				"method": "rhf"
			},
			{
				"type": "occ",
				"energy": -0.22236,
				"method": "rhf"
			},
			{
				"type": "occ",
				"energy": -0.21705,
				"method": "rhf"
			},
			{
				"type": "occ",
				"energy": -0.18859,
				"method": "rhf"
			},
			{
				"type": "unocc",
				"energy": 0.01483,
				"method": "rhf"
			},
			{
				"type": "unocc",
				"energy": 0.02359,
				"method": "rhf"
			},
			{
				"type": "unocc",
				"energy": 0.07181,
				"method": "rhf"
			},
			{
				"type": "unocc",
				"energy": 0.0928,
				"method": "rhf"
			},
			{
				"type": "unocc",
				"energy": 0.10243,
				"method": "rhf"
			}
		],
		"cosmo_sigma_profile": { 
			"-0.025": 0.0,
			"-0.024": 0.0,
			"-0.023": 0.0,
			"-0.022": 0.0,
			"-0.021": 0.0,
			"-0.02": 0.0,
			"-0.019": 0.0,
			"-0.018": 0.0,
			"-0.017": 0.0,
			"-0.016": 0.0758340731251,
			"-0.015": 0.827752726335,
			"-0.014": 0.891812558232,
			"-0.013": 0.894762834158,
			"-0.012": 1.11386635961,
			"-0.011": 0.688405730674,
			"-0.01": 1.17394128533,
			"-0.009": 1.94471264856,
			"-0.008": 2.07313055275,
			"-0.007": 2.21972203086,
			"-0.006": 6.87383564682,
			"-0.005": 17.6860076859,
			"-0.004": 25.8377867967,
			"-0.003": 42.5696899504,
			"-0.002": 34.5948540484,
			"-0.001": 27.0659614366,
			"0.0": 18.5805029188,
			"0.001": 12.5338313627,
			"0.002": 10.6588467682,
			"0.003": 11.0290805176,
			"0.004": 11.272969784,
			"0.005": 10.2155712099,
			"0.006": 9.61374150693,
			"0.007": 6.82437155392,
			"0.008": 3.0976151856,
			"0.009": 4.18341371982,
			"0.01": 3.47514943816,
			"0.011": 3.28166487745,
			"0.012": 3.35651935575,
			"0.013": 3.4088396296,
			"0.014": 2.60117387462,
			"0.015": 1.70028558671,
			"0.016": 0.611859986086,
			"0.017": 0.703794275759,
			"0.018": 0.275317843899,
			"0.019": 0.0,
			"0.02": 0.0,
			"0.021": 0.0,
			"0.022": 0.0,
			"0.023": 0.0,
			"0.024": 0.0,
			"0.025": 0.0
		}
	}
}
