{
	 "smiles": "CCCCCCCC(=O)OCC", 
	 "Tm": 228.15, 
	 "num_atms": 32, 
	 "gaussian": { 
		 "optdone": 1, 
		 "sigma_profile": "yes", 
		 "theory": "DFT", 
		 "functional": "B3LYP", 
		 "basiset": "6-31G**", 
		 "properties": { 
			 "R2extent": 2977.5195, 
			 "electric_dipole_moment_norm": 1.58331447919, 
			 "electric_quadrupole_moment_norm": 5.57312214921, 
			 "total_energy": -543.605414112, 
			 "HOMO_LUMO_gap": 0.28261, 
			 "cosmo_polarized_energy": -5.8, 
			 "cosmo_cavitation_energy": 33.05, 
			 "cosmo_dispersion_energy": -22.38, 
			 "cosmo_repulsion_energy": 1.84, 
			 "cosmo_total_nonelectrostatic_energy": 12.51, 
			 "SMD_solvation_energy": 5.85 
		},
		"coords": [
			{
				"x": -4.0209784759,
				"y": 1.6600865048,
				"z": -0.3189696727,
				"element": "C" 
			},
			{
				"x": -3.1741561544,
				"y": 0.5416594952,
				"z": 0.29667376,
				"element": "C" 
			},
			{
				"x": -2.4603489502,
				"y": -0.322231478,
				"z": -0.7514588521,
				"element": "C" 
			},
			{
				"x": -1.615607103,
				"y": -1.4444292397,
				"z": -0.1331025507,
				"element": "C" 
			},
			{
				"x": -0.9721740837,
				"y": -2.4021508086,
				"z": -1.1508538726,
				"element": "C" 
			},
			{
				"x": 0.1054926582,
				"y": -1.810847167,
				"z": -2.078296948,
				"element": "C" 
			},
			{
				"x": 1.3808764227,
				"y": -1.3369193196,
				"z": -1.3626189674,
				"element": "C" 
			},
			{
				"x": 1.308109304,
				"y": 0.0805108658,
				"z": -0.8253448918,
				"element": "C" 
			},
			{
				"x": 0.6507271683,
				"y": 0.9801414832,
				"z": -1.3088274977,
				"element": "O" 
			},
			{
				"x": 2.1263946994,
				"y": 0.237431312,
				"z": 0.2400786654,
				"element": "O" 
			},
			{
				"x": 2.2248550362,
				"y": 1.5719245526,
				"z": 0.794428568,
				"element": "C" 
			},
			{
				"x": 1.1334134053,
				"y": 1.8269732944,
				"z": 1.8228210175,
				"element": "C" 
			},
			{
				"x": -4.5156702723,
				"y": 2.2607669665,
				"z": 0.451739817,
				"element": "H" 
			},
			{
				"x": -4.800421929,
				"y": 1.251879443,
				"z": -0.9728291984,
				"element": "H" 
			},
			{
				"x": -3.4041620295,
				"y": 2.3346349131,
				"z": -0.9233229089,
				"element": "H" 
			},
			{
				"x": -3.8103659778,
				"y": -0.0969452298,
				"z": 0.9253911169,
				"element": "H" 
			},
			{
				"x": -2.4262171748,
				"y": 0.9807866938,
				"z": 0.9715798535,
				"element": "H" 
			},
			{
				"x": -1.8241393696,
				"y": 0.3213771455,
				"z": -1.3696209979,
				"element": "H" 
			},
			{
				"x": -3.2101057091,
				"y": -0.7656275975,
				"z": -1.4235009434,
				"element": "H" 
			},
			{
				"x": -2.2521358177,
				"y": -2.0398355467,
				"z": 0.5362027151,
				"element": "H" 
			},
			{
				"x": -0.8419600914,
				"y": -1.0066477732,
				"z": 0.513398524,
				"element": "H" 
			},
			{
				"x": -0.5313794941,
				"y": -3.2496485735,
				"z": -0.6074136949,
				"element": "H" 
			},
			{
				"x": -1.7664996835,
				"y": -2.8288936981,
				"z": -1.7783524882,
				"element": "H" 
			},
			{
				"x": 0.3884757291,
				"y": -2.5853118133,
				"z": -2.8006853859,
				"element": "H" 
			},
			{
				"x": -0.2966151461,
				"y": -0.9753249402,
				"z": -2.6604705164,
				"element": "H" 
			},
			{
				"x": 1.6712109194,
				"y": -2.0131204546,
				"z": -0.5521398518,
				"element": "H" 
			},
			{
				"x": 2.2210138356,
				"y": -1.3336001264,
				"z": -2.0707018488,
				"element": "H" 
			},
			{
				"x": 2.1743753881,
				"y": 2.2976497739,
				"z": -0.0207726467,
				"element": "H" 
			},
			{
				"x": 3.217877654,
				"y": 1.6042539895,
				"z": 1.2495770016,
				"element": "H" 
			},
			{
				"x": 1.1571638873,
				"y": 1.0702309912,
				"z": 2.6125543394,
				"element": "H" 
			},
			{
				"x": 1.2786997809,
				"y": 2.8096308831,
				"z": 2.2841078387,
				"element": "H" 
			},
			{
				"x": 0.1489515735,
				"y": 1.813995459,
				"z": 1.3485305173,
				"element": "H" 
			}
		],
		 "valence_orbital": [ 
			{
				"type": "occ",
				"energy": -0.31262,
				"method": "rhf"
			},
			{
				"type": "occ",
				"energy": -0.30751,
				"method": "rhf"
			},
			{
				"type": "occ",
				"energy": -0.30123,
				"method": "rhf"
			},
			{
				"type": "occ",
				"energy": -0.29517,
				"method": "rhf"
			},
			{
				"type": "occ",
				"energy": -0.26852,
				"method": "rhf"
			},
			{
				"type": "unocc",
				"energy": 0.01409,
				"method": "rhf"
			},
			{
				"type": "unocc",
				"energy": 0.07738,
				"method": "rhf"
			},
			{
				"type": "unocc",
				"energy": 0.09663,
				"method": "rhf"
			},
			{
				"type": "unocc",
				"energy": 0.11139,
				"method": "rhf"
			},
			{
				"type": "unocc",
				"energy": 0.12187,
				"method": "rhf"
			}
		],
		"cosmo_sigma_profile": { 
			"-0.025": 0.0,
			"-0.024": 0.0,
			"-0.023": 0.0,
			"-0.022": 0.0,
			"-0.021": 0.0,
			"-0.02": 0.0,
			"-0.019": 0.0,
			"-0.018": 0.0,
			"-0.017": 0.0,
			"-0.016": 0.0,
			"-0.015": 0.0,
			"-0.014": 0.0,
			"-0.013": 0.0,
			"-0.012": 0.0,
			"-0.011": 0.0,
			"-0.01": 0.0,
			"-0.009": 0.0,
			"-0.008": 0.0,
			"-0.007": 0.158257090741,
			"-0.006": 3.34482687303,
			"-0.005": 6.99777751853,
			"-0.004": 12.7826953097,
			"-0.003": 21.4581738747,
			"-0.002": 36.7607363413,
			"-0.001": 44.5706821585,
			"0.0": 44.57437017,
			"0.001": 36.2364977568,
			"0.002": 17.0824130991,
			"0.003": 5.086779393,
			"0.004": 3.46392675872,
			"0.005": 3.28552697979,
			"0.006": 4.04850340338,
			"0.007": 2.59594109592,
			"0.008": 1.9635065052,
			"0.009": 2.89505529126,
			"0.01": 2.21077798882,
			"0.011": 1.5167028818,
			"0.012": 3.04621950537,
			"0.013": 0.793992898405,
			"0.014": 0.0,
			"0.015": 0.0,
			"0.016": 0.0,
			"0.017": 0.0,
			"0.018": 0.0,
			"0.019": 0.0,
			"0.02": 0.0,
			"0.021": 0.0,
			"0.022": 0.0,
			"0.023": 0.0,
			"0.024": 0.0,
			"0.025": 0.0
		}
	}
}
