{
	 "smiles": "N[C@H](CC1=CC=C(Cl)C=C1)C(O)=O", 
	 "Tm": 533.15, 
	 "num_atms": 23, 
	 "gaussian": { 
		 "optdone": 1, 
		 "sigma_profile": "yes", 
		 "theory": "DFT", 
		 "functional": "B3LYP", 
		 "basiset": "6-31G**", 
		 "properties": { 
			 "R2extent": 3761.5696, 
			 "electric_dipole_moment_norm": 2.52658781165, 
			 "electric_quadrupole_moment_norm": 14.3650631506, 
			 "total_energy": -1014.38588451, 
			 "HOMO_LUMO_gap": 0.21753, 
			 "cosmo_polarized_energy": -15.59, 
			 "cosmo_cavitation_energy": 28.72, 
			 "cosmo_dispersion_energy": -20.48, 
			 "cosmo_repulsion_energy": 1.63, 
			 "cosmo_total_nonelectrostatic_energy": 9.87, 
			 "SMD_solvation_energy": 4.36 
		},
		"coords": [
			{
				"x": -1.8726518215,
				"y": -3.5517084209,
				"z": -0.0728344128,
				"element": "N" 
			},
			{
				"x": -1.5166368698,
				"y": -2.1402738699,
				"z": -0.0356499502,
				"element": "C" 
			},
			{
				"x": -0.1859374403,
				"y": -1.927042379,
				"z": -0.8146505551,
				"element": "C" 
			},
			{
				"x": 0.1431859973,
				"y": -0.488752032,
				"z": -1.1565827781,
				"element": "C" 
			},
			{
				"x": -0.5733705714,
				"y": 0.1854717988,
				"z": -2.1595103754,
				"element": "C" 
			},
			{
				"x": -0.286505579,
				"y": 1.5082730133,
				"z": -2.4938118163,
				"element": "C" 
			},
			{
				"x": 0.7368997298,
				"y": 2.1729847706,
				"z": -1.8171075938,
				"element": "C" 
			},
			{
				"x": 1.1096043372,
				"y": 3.8375180332,
				"z": -2.2332444234,
				"element": "Cl" 
			},
			{
				"x": 1.4669245765,
				"y": 1.5331375744,
				"z": -0.8169360346,
				"element": "C" 
			},
			{
				"x": 1.1634845072,
				"y": 0.2096236514,
				"z": -0.4940569736,
				"element": "C" 
			},
			{
				"x": -1.4146545119,
				"y": -1.5950217463,
				"z": 1.4051358273,
				"element": "C" 
			},
			{
				"x": -1.332202545,
				"y": -0.2501016704,
				"z": 1.5444141189,
				"element": "O" 
			},
			{
				"x": -1.4033295788,
				"y": -2.3114334114,
				"z": 2.3772301824,
				"element": "O" 
			},
			{
				"x": -1.2653586519,
				"y": -4.0460985516,
				"z": 0.5801908066,
				"element": "H" 
			},
			{
				"x": -2.8056918144,
				"y": -3.6663764941,
				"z": 0.3176674492,
				"element": "H" 
			},
			{
				"x": -2.3039502333,
				"y": -1.5765582437,
				"z": -0.5544554715,
				"element": "H" 
			},
			{
				"x": 0.6335365633,
				"y": -2.3731257836,
				"z": -0.2390830426,
				"element": "H" 
			},
			{
				"x": -0.2868959359,
				"y": -2.5170860089,
				"z": -1.7307905674,
				"element": "H" 
			},
			{
				"x": -1.360337307,
				"y": -0.335687539,
				"z": -2.6993419874,
				"element": "H" 
			},
			{
				"x": -0.8422776249,
				"y": 2.0165321839,
				"z": -3.2740031958,
				"element": "H" 
			},
			{
				"x": 2.2596779349,
				"y": 2.0611471537,
				"z": -0.2988250092,
				"element": "H" 
			},
			{
				"x": 1.7328305391,
				"y": -0.2868270642,
				"z": 0.286844403,
				"element": "H" 
			},
			{
				"x": -1.2692436999,
				"y": 0.1770050358,
				"z": 0.6758013998,
				"element": "H" 
			}
		],
		 "valence_orbital": [ 
			{
				"type": "occ",
				"energy": -0.31848,
				"method": "rhf"
			},
			{
				"type": "occ",
				"energy": -0.28012,
				"method": "rhf"
			},
			{
				"type": "occ",
				"energy": -0.27717,
				"method": "rhf"
			},
			{
				"type": "occ",
				"energy": -0.261,
				"method": "rhf"
			},
			{
				"type": "occ",
				"energy": -0.25066,
				"method": "rhf"
			},
			{
				"type": "unocc",
				"energy": -0.03313,
				"method": "rhf"
			},
			{
				"type": "unocc",
				"energy": -0.02989,
				"method": "rhf"
			},
			{
				"type": "unocc",
				"energy": 0.00508,
				"method": "rhf"
			},
			{
				"type": "unocc",
				"energy": 0.01966,
				"method": "rhf"
			},
			{
				"type": "unocc",
				"energy": 0.07542,
				"method": "rhf"
			}
		],
		"cosmo_sigma_profile": { 
			"-0.025": 0.0,
			"-0.024": 0.0,
			"-0.023": 0.0,
			"-0.022": 0.0,
			"-0.021": 0.0,
			"-0.02": 0.0,
			"-0.019": 0.0,
			"-0.018": 0.0,
			"-0.017": 0.0,
			"-0.016": 0.0,
			"-0.015": 0.0,
			"-0.014": 0.0539693437828,
			"-0.013": 1.40755136945,
			"-0.012": 1.21457884121,
			"-0.011": 1.32022621516,
			"-0.01": 3.01162950674,
			"-0.009": 3.74129539979,
			"-0.008": 4.90554758289,
			"-0.007": 15.2200936066,
			"-0.006": 17.943247997,
			"-0.005": 14.5241890968,
			"-0.004": 12.6820494578,
			"-0.003": 10.0469600191,
			"-0.002": 12.3998560197,
			"-0.001": 11.862911851,
			"0.0": 12.8853570836,
			"0.001": 15.5143207457,
			"0.002": 18.1962644389,
			"0.003": 14.1509930839,
			"0.004": 14.2489716882,
			"0.005": 9.48244260619,
			"0.006": 3.27713254099,
			"0.007": 3.37009351957,
			"0.008": 2.95935315083,
			"0.009": 3.89757110716,
			"0.01": 4.77452789099,
			"0.011": 6.07602893069,
			"0.012": 5.29707346735,
			"0.013": 2.16917328003,
			"0.014": 1.04327159504,
			"0.015": 0.310545005082,
			"0.016": 0.238324929513,
			"0.017": 0.963214234142,
			"0.018": 0.28356342901,
			"0.019": 0.00430493317797,
			"0.02": 0.0,
			"0.021": 0.0,
			"0.022": 0.0,
			"0.023": 0.0,
			"0.024": 0.0,
			"0.025": 0.0
		}
	}
}
