{
	 "smiles": "OC(=O)CC1=NOC(=C1)C1=CC=CC=C1", 
	 "Tm": 446.15, 
	 "num_atms": 24, 
	 "gaussian": { 
		 "optdone": 1, 
		 "sigma_profile": "yes", 
		 "theory": "DFT", 
		 "functional": "B3LYP", 
		 "basiset": "6-31G**", 
		 "properties": { 
			 "R2extent": 4798.5742, 
			 "electric_dipole_moment_norm": 2.10592309451, 
			 "electric_quadrupole_moment_norm": 15.5103046505, 
			 "total_energy": -704.988402436, 
			 "HOMO_LUMO_gap": 0.18263, 
			 "cosmo_polarized_energy": -13.63, 
			 "cosmo_cavitation_energy": 29.61, 
			 "cosmo_dispersion_energy": -21.72, 
			 "cosmo_repulsion_energy": 1.69, 
			 "cosmo_total_nonelectrostatic_energy": 9.59, 
			 "SMD_solvation_energy": 5.85 
		},
		"coords": [
			{
				"x": -0.9398479162,
				"y": -2.8036849766,
				"z": 3.0141235109,
				"element": "O" 
			},
			{
				"x": -0.9020259,
				"y": -1.6199501663,
				"z": 2.3619067982,
				"element": "C" 
			},
			{
				"x": -1.8902659687,
				"y": -0.9502330216,
				"z": 2.1599385718,
				"element": "O" 
			},
			{
				"x": 0.5234115392,
				"y": -1.2521678534,
				"z": 1.992090426,
				"element": "C" 
			},
			{
				"x": 0.6364981037,
				"y": -0.3145185193,
				"z": 0.8266749694,
				"element": "C" 
			},
			{
				"x": 1.5589892964,
				"y": -0.553198697,
				"z": -0.0826428235,
				"element": "N" 
			},
			{
				"x": 1.4538780509,
				"y": 0.4905596944,
				"z": -1.0001908943,
				"element": "O" 
			},
			{
				"x": 0.4632437298,
				"y": 1.3345022816,
				"z": -0.6192155838,
				"element": "C" 
			},
			{
				"x": -0.0936821848,
				"y": 0.8713611867,
				"z": 0.5428236588,
				"element": "C" 
			},
			{
				"x": 0.201326467,
				"y": 2.4933392586,
				"z": -1.4707688717,
				"element": "C" 
			},
			{
				"x": -0.8313371141,
				"y": 3.3901329573,
				"z": -1.147457483,
				"element": "C" 
			},
			{
				"x": -1.082569489,
				"y": 4.4956907378,
				"z": -1.9552295204,
				"element": "C" 
			},
			{
				"x": -0.3090108032,
				"y": 4.7235698853,
				"z": -3.0963335435,
				"element": "C" 
			},
			{
				"x": 0.7184109686,
				"y": 3.8364839961,
				"z": -3.4242952835,
				"element": "C" 
			},
			{
				"x": 0.9750378738,
				"y": 2.7282997465,
				"z": -2.6201644746,
				"element": "C" 
			},
			{
				"x": -1.8695867459,
				"y": -2.9515066376,
				"z": 3.2576575088,
				"element": "H" 
			},
			{
				"x": 1.1032231352,
				"y": -2.1568497346,
				"z": 1.7968565749,
				"element": "H" 
			},
			{
				"x": 0.960779877,
				"y": -0.790494987,
				"z": 2.8890266353,
				"element": "H" 
			},
			{
				"x": -0.9166241969,
				"y": 1.2754898475,
				"z": 1.1079065825,
				"element": "H" 
			},
			{
				"x": -1.4387501579,
				"y": 3.2186749797,
				"z": -0.2641847425,
				"element": "H" 
			},
			{
				"x": -1.8842138441,
				"y": 5.180416178,
				"z": -1.694488667,
				"element": "H" 
			},
			{
				"x": -0.506738416,
				"y": 5.5865078246,
				"z": -3.7253590886,
				"element": "H" 
			},
			{
				"x": 1.3231357741,
				"y": 4.0074905295,
				"z": -4.31007528,
				"element": "H" 
			},
			{
				"x": 1.7728179211,
				"y": 2.0391854897,
				"z": -2.8743989803,
				"element": "H" 
			}
		],
		 "valence_orbital": [ 
			{
				"type": "occ",
				"energy": -0.29791,
				"method": "rhf"
			},
			{
				"type": "occ",
				"energy": -0.28824,
				"method": "rhf"
			},
			{
				"type": "occ",
				"energy": -0.28536,
				"method": "rhf"
			},
			{
				"type": "occ",
				"energy": -0.25888,
				"method": "rhf"
			},
			{
				"type": "occ",
				"energy": -0.22861,
				"method": "rhf"
			},
			{
				"type": "unocc",
				"energy": -0.04598,
				"method": "rhf"
			},
			{
				"type": "unocc",
				"energy": -0.00869,
				"method": "rhf"
			},
			{
				"type": "unocc",
				"energy": -0.00197,
				"method": "rhf"
			},
			{
				"type": "unocc",
				"energy": 0.02444,
				"method": "rhf"
			},
			{
				"type": "unocc",
				"energy": 0.06887,
				"method": "rhf"
			}
		],
		"cosmo_sigma_profile": { 
			"-0.025": 0.0,
			"-0.024": 0.0,
			"-0.023": 0.0,
			"-0.022": 0.0,
			"-0.021": 0.0,
			"-0.02": 0.0,
			"-0.019": 0.0736247218942,
			"-0.018": 1.21439478857,
			"-0.017": 0.595173669513,
			"-0.016": 0.910584281326,
			"-0.015": 0.840552483396,
			"-0.014": 0.616264864926,
			"-0.013": 0.613673198038,
			"-0.012": 1.03335899902,
			"-0.011": 0.566824609192,
			"-0.01": 0.903014945615,
			"-0.009": 2.59579130723,
			"-0.008": 5.74765976823,
			"-0.007": 7.59017657911,
			"-0.006": 12.9724483173,
			"-0.005": 16.9924815074,
			"-0.004": 17.1713182737,
			"-0.003": 13.3062775877,
			"-0.002": 12.7758151373,
			"-0.001": 11.0187270891,
			"0.0": 16.7323724344,
			"0.001": 20.062564052,
			"0.002": 15.8263111291,
			"0.003": 14.8503159491,
			"0.004": 17.2842096704,
			"0.005": 9.00950821475,
			"0.006": 4.91515695422,
			"0.007": 6.59272638758,
			"0.008": 5.92080379942,
			"0.009": 5.52268918465,
			"0.01": 3.53481087388,
			"0.011": 4.86985125598,
			"0.012": 2.5344450925,
			"0.013": 1.14579418287,
			"0.014": 0.902141166852,
			"0.015": 0.120879255862,
			"0.016": 0.0,
			"0.017": 0.0,
			"0.018": 0.0,
			"0.019": 0.0,
			"0.02": 0.0,
			"0.021": 0.0,
			"0.022": 0.0,
			"0.023": 0.0,
			"0.024": 0.0,
			"0.025": 0.0
		}
	}
}
