{
	 "smiles": "CCNC(=O)CCCl", 
	 "Tm": 338.15, 
	 "num_atms": 18, 
	 "gaussian": { 
		 "optdone": 1, 
		 "sigma_profile": "yes", 
		 "theory": "DFT", 
		 "functional": "B3LYP", 
		 "basiset": "6-31G**", 
		 "properties": { 
			 "R2extent": 1802.0038, 
			 "electric_dipole_moment_norm": 3.36444154207, 
			 "electric_quadrupole_moment_norm": 8.59802907066, 
			 "total_energy": -786.75609983, 
			 "HOMO_LUMO_gap": 0.26854, 
			 "cosmo_polarized_energy": -12.68, 
			 "cosmo_cavitation_energy": 23.08, 
			 "cosmo_dispersion_energy": -16.44, 
			 "cosmo_repulsion_energy": 1.41, 
			 "cosmo_total_nonelectrostatic_energy": 8.05, 
			 "SMD_solvation_energy": 3.75 
		},
		"coords": [
			{
				"x": -1.5976854824,
				"y": -0.8639520899,
				"z": 1.4594292633,
				"element": "C" 
			},
			{
				"x": -1.6819829106,
				"y": 0.3155541203,
				"z": 0.4867482245,
				"element": "C" 
			},
			{
				"x": -0.39219168,
				"y": 0.6719560999,
				"z": -0.0959505851,
				"element": "N" 
			},
			{
				"x": 0.0203649466,
				"y": 0.1758781937,
				"z": -1.2969887815,
				"element": "C" 
			},
			{
				"x": -0.6827138344,
				"y": -0.5224449461,
				"z": -2.0186033427,
				"element": "O" 
			},
			{
				"x": 1.4282679365,
				"y": 0.5881508735,
				"z": -1.7353787181,
				"element": "C" 
			},
			{
				"x": 2.226317916,
				"y": -0.6099278288,
				"z": -2.2271004421,
				"element": "C" 
			},
			{
				"x": 2.7317473181,
				"y": -1.6860408923,
				"z": -0.8469456226,
				"element": "Cl" 
			},
			{
				"x": -1.223170168,
				"y": -1.7543014575,
				"z": 0.9470938039,
				"element": "H" 
			},
			{
				"x": -2.5873016899,
				"y": -1.0915916831,
				"z": 1.8695220398,
				"element": "H" 
			},
			{
				"x": -0.9283027435,
				"y": -0.6437762693,
				"z": 2.2983362466,
				"element": "H" 
			},
			{
				"x": -2.3381346339,
				"y": 0.0694759736,
				"z": -0.3506941494,
				"element": "H" 
			},
			{
				"x": -2.0904076911,
				"y": 1.2010883476,
				"z": 0.987045966,
				"element": "H" 
			},
			{
				"x": 0.2917306436,
				"y": 1.1196856169,
				"z": 0.4961962433,
				"element": "H" 
			},
			{
				"x": 1.3058605578,
				"y": 1.2731595467,
				"z": -2.5848102062,
				"element": "H" 
			},
			{
				"x": 1.9772936768,
				"y": 1.1257634073,
				"z": -0.955785225,
				"element": "H" 
			},
			{
				"x": 1.6135850352,
				"y": -1.2208883336,
				"z": -2.8897420406,
				"element": "H" 
			},
			{
				"x": 3.1460228031,
				"y": -0.3088886789,
				"z": -2.7286726743,
				"element": "H" 
			}
		],
		 "valence_orbital": [ 
			{
				"type": "occ",
				"energy": -0.35219,
				"method": "rhf"
			},
			{
				"type": "occ",
				"energy": -0.29636,
				"method": "rhf"
			},
			{
				"type": "occ",
				"energy": -0.29327,
				"method": "rhf"
			},
			{
				"type": "occ",
				"energy": -0.25778,
				"method": "rhf"
			},
			{
				"type": "occ",
				"energy": -0.24998,
				"method": "rhf"
			},
			{
				"type": "unocc",
				"energy": 0.01856,
				"method": "rhf"
			},
			{
				"type": "unocc",
				"energy": 0.03055,
				"method": "rhf"
			},
			{
				"type": "unocc",
				"energy": 0.07065,
				"method": "rhf"
			},
			{
				"type": "unocc",
				"energy": 0.11118,
				"method": "rhf"
			},
			{
				"type": "unocc",
				"energy": 0.11209,
				"method": "rhf"
			}
		],
		"cosmo_sigma_profile": { 
			"-0.025": 0.0,
			"-0.024": 0.0,
			"-0.023": 0.0,
			"-0.022": 0.0,
			"-0.021": 0.0,
			"-0.02": 0.0,
			"-0.019": 0.0,
			"-0.018": 0.0,
			"-0.017": 0.0,
			"-0.016": 0.0,
			"-0.015": 0.00925160815811,
			"-0.014": 1.05756234663,
			"-0.013": 1.43280852806,
			"-0.012": 1.5947190424,
			"-0.011": 1.26371332199,
			"-0.01": 1.37251317306,
			"-0.009": 1.58879700956,
			"-0.008": 1.69769942093,
			"-0.007": 5.92073198159,
			"-0.006": 9.39121880468,
			"-0.005": 11.1826684401,
			"-0.004": 14.9819846286,
			"-0.003": 16.0036274711,
			"-0.002": 13.8645950851,
			"-0.001": 12.6328432719,
			"0.0": 13.7959358771,
			"0.001": 11.984344582,
			"0.002": 8.00192177245,
			"0.003": 7.23686762818,
			"0.004": 7.97269636262,
			"0.005": 8.135011956,
			"0.006": 9.80263804978,
			"0.007": 6.64908566788,
			"0.008": 1.1737456167,
			"0.009": 1.64615035951,
			"0.01": 0.843251160137,
			"0.011": 1.35215406246,
			"0.012": 1.91662962102,
			"0.013": 2.76670380838,
			"0.014": 4.79083139464,
			"0.015": 0.554762650385,
			"0.016": 0.0,
			"0.017": 0.0,
			"0.018": 0.0,
			"0.019": 0.0,
			"0.02": 0.0,
			"0.021": 0.0,
			"0.022": 0.0,
			"0.023": 0.0,
			"0.024": 0.0,
			"0.025": 0.0
		}
	}
}
