{
	 "smiles": "COC(=O)CS(=O)(=O)C1=CC=CC=C1", 
	 "Tm": 305.65, 
	 "num_atms": 24, 
	 "gaussian": { 
		 "optdone": 1, 
		 "sigma_profile": "yes", 
		 "theory": "DFT", 
		 "functional": "B3LYP", 
		 "basiset": "6-31G**", 
		 "properties": { 
			 "R2extent": 3446.1951, 
			 "electric_dipole_moment_norm": 3.87458891755, 
			 "electric_quadrupole_moment_norm": 18.6246781959, 
			 "total_energy": -1048.00242428, 
			 "HOMO_LUMO_gap": 0.2257, 
			 "cosmo_polarized_energy": -16.04, 
			 "cosmo_cavitation_energy": 29.93, 
			 "cosmo_dispersion_energy": -21.57, 
			 "cosmo_repulsion_energy": 1.66, 
			 "cosmo_total_nonelectrostatic_energy": 10.03, 
			 "SMD_solvation_energy": 5.93 
		},
		"coords": [
			{
				"x": -2.9330829793,
				"y": -0.5238497587,
				"z": 2.1743816015,
				"element": "C" 
			},
			{
				"x": -1.7164537687,
				"y": 0.2348294926,
				"z": 2.0397247502,
				"element": "O" 
			},
			{
				"x": -1.1905117966,
				"y": 0.2616667856,
				"z": 0.8053527438,
				"element": "C" 
			},
			{
				"x": -1.6855415352,
				"y": -0.2676407637,
				"z": -0.1664032547,
				"element": "O" 
			},
			{
				"x": 0.1116797795,
				"y": 1.0327307649,
				"z": 0.7906751614,
				"element": "C" 
			},
			{
				"x": 1.5673974688,
				"y": -0.0738465669,
				"z": 0.5710682681,
				"element": "S" 
			},
			{
				"x": 2.7372577934,
				"y": 0.7685388121,
				"z": 0.8618745129,
				"element": "O" 
			},
			{
				"x": 1.297800914,
				"y": -1.304310568,
				"z": 1.3287291147,
				"element": "O" 
			},
			{
				"x": 1.6000700461,
				"y": -0.4748577886,
				"z": -1.1801760301,
				"element": "C" 
			},
			{
				"x": 0.8686274355,
				"y": -1.5676121837,
				"z": -1.6497234099,
				"element": "C" 
			},
			{
				"x": 0.91939503,
				"y": -1.8720341269,
				"z": -3.0097670001,
				"element": "C" 
			},
			{
				"x": 1.6919363677,
				"y": -1.0939191052,
				"z": -3.8755084256,
				"element": "C" 
			},
			{
				"x": 2.4242205886,
				"y": -0.0084159212,
				"z": -3.3885081697,
				"element": "C" 
			},
			{
				"x": 2.383143535,
				"y": 0.3085788586,
				"z": -2.0307161878,
				"element": "C" 
			},
			{
				"x": -3.7078165649,
				"y": -0.1248346781,
				"z": 1.5154882787,
				"element": "H" 
			},
			{
				"x": -3.2248283962,
				"y": -0.4240232006,
				"z": 3.2190564488,
				"element": "H" 
			},
			{
				"x": -2.7536612192,
				"y": -1.5715525375,
				"z": 1.9227425556,
				"element": "H" 
			},
			{
				"x": 0.3010962883,
				"y": 1.5365610543,
				"z": 1.7396951859,
				"element": "H" 
			},
			{
				"x": 0.126287332,
				"y": 1.7501164738,
				"z": -0.0318116155,
				"element": "H" 
			},
			{
				"x": 0.28034445,
				"y": -2.1630516034,
				"z": -0.9622371509,
				"element": "H" 
			},
			{
				"x": 0.3572831928,
				"y": -2.7183763445,
				"z": -3.3921710192,
				"element": "H" 
			},
			{
				"x": 1.7278166877,
				"y": -1.3378921669,
				"z": -4.9332738998,
				"element": "H" 
			},
			{
				"x": 3.0328756273,
				"y": 0.5863789365,
				"z": -4.0627383163,
				"element": "H" 
			},
			{
				"x": 2.9609637235,
				"y": 1.1320161354,
				"z": -1.6251541421,
				"element": "H" 
			}
		],
		 "valence_orbital": [ 
			{
				"type": "occ",
				"energy": -0.30328,
				"method": "rhf"
			},
			{
				"type": "occ",
				"energy": -0.29484,
				"method": "rhf"
			},
			{
				"type": "occ",
				"energy": -0.28554,
				"method": "rhf"
			},
			{
				"type": "occ",
				"energy": -0.27438,
				"method": "rhf"
			},
			{
				"type": "occ",
				"energy": -0.26876,
				"method": "rhf"
			},
			{
				"type": "unocc",
				"energy": -0.04306,
				"method": "rhf"
			},
			{
				"type": "unocc",
				"energy": -0.02178,
				"method": "rhf"
			},
			{
				"type": "unocc",
				"energy": -0.01673,
				"method": "rhf"
			},
			{
				"type": "unocc",
				"energy": 0.06444,
				"method": "rhf"
			},
			{
				"type": "unocc",
				"energy": 0.07653,
				"method": "rhf"
			}
		],
		"cosmo_sigma_profile": { 
			"-0.025": 0.0,
			"-0.024": 0.0,
			"-0.023": 0.0,
			"-0.022": 0.0,
			"-0.021": 0.0,
			"-0.02": 0.0,
			"-0.019": 0.0,
			"-0.018": 0.0,
			"-0.017": 0.0,
			"-0.016": 0.0,
			"-0.015": 0.0,
			"-0.014": 0.0,
			"-0.013": 0.0,
			"-0.012": 0.0,
			"-0.011": 0.109532438748,
			"-0.01": 2.8667075963,
			"-0.009": 4.21224612988,
			"-0.008": 3.91624611919,
			"-0.007": 13.1137698882,
			"-0.006": 21.9805474135,
			"-0.005": 20.2715188731,
			"-0.004": 19.3279529925,
			"-0.003": 13.0469600888,
			"-0.002": 12.0857071721,
			"-0.001": 11.8372535904,
			"0.0": 11.5872378785,
			"0.001": 13.8905030294,
			"0.002": 15.2315582616,
			"0.003": 15.4854571279,
			"0.004": 7.35799852733,
			"0.005": 5.57468400456,
			"0.006": 5.69763527516,
			"0.007": 5.73545189569,
			"0.008": 5.28850147728,
			"0.009": 5.44915306505,
			"0.01": 9.42464871478,
			"0.011": 12.2315267904,
			"0.012": 2.96559517762,
			"0.013": 0.0,
			"0.014": 0.0,
			"0.015": 0.0,
			"0.016": 0.0,
			"0.017": 0.0,
			"0.018": 0.0,
			"0.019": 0.0,
			"0.02": 0.0,
			"0.021": 0.0,
			"0.022": 0.0,
			"0.023": 0.0,
			"0.024": 0.0,
			"0.025": 0.0
		}
	}
}
