{
	 "smiles": "COC(=O)C1=C(O)C(Br)=C(C)S1", 
	 "Tm": 369.15, 
	 "num_atms": 19, 
	 "gaussian": { 
		 "optdone": 1, 
		 "sigma_profile": "yes", 
		 "theory": "DFT", 
		 "functional": "B3LYP", 
		 "basiset": "6-31G**", 
		 "properties": { 
			 "R2extent": 3982.3172, 
			 "electric_dipole_moment_norm": 2.91153603103, 
			 "electric_quadrupole_moment_norm": 10.4933275509, 
			 "total_energy": -3466.2332286, 
			 "HOMO_LUMO_gap": 0.17687, 
			 "cosmo_polarized_energy": -7.6, 
			 "cosmo_cavitation_energy": 27.23, 
			 "cosmo_dispersion_energy": -21.05, 
			 "cosmo_repulsion_energy": 1.64, 
			 "cosmo_total_nonelectrostatic_energy": 7.82, 
			 "SMD_solvation_energy": 5.26 
		},
		"coords": [
			{
				"x": -2.8870930028,
				"y": -1.4592293271,
				"z": 3.4423989737,
				"element": "C" 
			},
			{
				"x": -1.7766740954,
				"y": -1.1054605429,
				"z": 2.5997231393,
				"element": "O" 
			},
			{
				"x": -2.0658987558,
				"y": -0.9157474632,
				"z": 1.3006985792,
				"element": "C" 
			},
			{
				"x": -3.2061434173,
				"y": -1.0319810882,
				"z": 0.8390870633,
				"element": "O" 
			},
			{
				"x": -0.9323175485,
				"y": -0.5611860928,
				"z": 0.4825517006,
				"element": "C" 
			},
			{
				"x": -1.058942538,
				"y": -0.3292525981,
				"z": -0.8820503817,
				"element": "C" 
			},
			{
				"x": -2.1989265914,
				"y": -0.4048627897,
				"z": -1.5674404161,
				"element": "O" 
			},
			{
				"x": 0.192946041,
				"y": 0.0059910328,
				"z": -1.4817686921,
				"element": "C" 
			},
			{
				"x": 0.3628648664,
				"y": 0.380521071,
				"z": -3.3272706733,
				"element": "Br" 
			},
			{
				"x": 1.2449361131,
				"y": 0.0294528396,
				"z": -0.6014949524,
				"element": "C" 
			},
			{
				"x": 2.6799163014,
				"y": 0.3400012185,
				"z": -0.8940572416,
				"element": "C" 
			},
			{
				"x": 0.7226614427,
				"y": -0.3648937363,
				"z": 1.0131137107,
				"element": "S" 
			},
			{
				"x": -3.3392113277,
				"y": -2.3960850745,
				"z": 3.1083908523,
				"element": "H" 
			},
			{
				"x": -2.4687661934,
				"y": -1.5702687407,
				"z": 4.4422576705,
				"element": "H" 
			},
			{
				"x": -3.6456430255,
				"y": -0.6730597471,
				"z": 3.4279452659,
				"element": "H" 
			},
			{
				"x": -2.8927022715,
				"y": -0.6516905797,
				"z": -0.9087647835,
				"element": "H" 
			},
			{
				"x": 3.0820396243,
				"y": -0.3611652762,
				"z": -1.6332024785,
				"element": "H" 
			},
			{
				"x": 2.7775009308,
				"y": 1.3469266661,
				"z": -1.3138857298,
				"element": "H" 
			},
			{
				"x": 3.2950534478,
				"y": 0.2812902285,
				"z": 0.0067683934,
				"element": "H" 
			}
		],
		 "valence_orbital": [ 
			{
				"type": "occ",
				"energy": -0.3136,
				"method": "rhf"
			},
			{
				"type": "occ",
				"energy": -0.29331,
				"method": "rhf"
			},
			{
				"type": "occ",
				"energy": -0.2911,
				"method": "rhf"
			},
			{
				"type": "occ",
				"energy": -0.23968,
				"method": "rhf"
			},
			{
				"type": "occ",
				"energy": -0.23059,
				"method": "rhf"
			},
			{
				"type": "unocc",
				"energy": -0.05372,
				"method": "rhf"
			},
			{
				"type": "unocc",
				"energy": -0.00418,
				"method": "rhf"
			},
			{
				"type": "unocc",
				"energy": 0.02334,
				"method": "rhf"
			},
			{
				"type": "unocc",
				"energy": 0.02511,
				"method": "rhf"
			},
			{
				"type": "unocc",
				"energy": 0.08911,
				"method": "rhf"
			}
		],
		"cosmo_sigma_profile": { 
			"-0.025": 0.0,
			"-0.024": 0.0,
			"-0.023": 0.0,
			"-0.022": 0.0,
			"-0.021": 0.0,
			"-0.02": 0.0,
			"-0.019": 0.0,
			"-0.018": 0.0,
			"-0.017": 0.0,
			"-0.016": 0.0,
			"-0.015": 0.0,
			"-0.014": 0.0,
			"-0.013": 0.0,
			"-0.012": 0.0,
			"-0.011": 0.0,
			"-0.01": 0.0463401938506,
			"-0.009": 0.50357552517,
			"-0.008": 0.837723592057,
			"-0.007": 3.19100534182,
			"-0.006": 11.4015953201,
			"-0.005": 14.5200469576,
			"-0.004": 19.1560569291,
			"-0.003": 19.1155951337,
			"-0.002": 20.3162360991,
			"-0.001": 17.3977550491,
			"0.0": 19.1839950932,
			"0.001": 21.6127267009,
			"0.002": 18.5938920815,
			"0.003": 15.8204260723,
			"0.004": 13.8688481294,
			"0.005": 5.91321415473,
			"0.006": 5.2336200028,
			"0.007": 3.38064789143,
			"0.008": 3.37562296316,
			"0.009": 3.54812467367,
			"0.01": 3.30293599095,
			"0.011": 1.99036832831,
			"0.012": 0.450498971041,
			"0.013": 0.0,
			"0.014": 0.0,
			"0.015": 0.0,
			"0.016": 0.0,
			"0.017": 0.0,
			"0.018": 0.0,
			"0.019": 0.0,
			"0.02": 0.0,
			"0.021": 0.0,
			"0.022": 0.0,
			"0.023": 0.0,
			"0.024": 0.0,
			"0.025": 0.0
		}
	}
}
