{
	 "smiles": "FC(F)(F)C(F)(F)C(F)(F)N(C(F)(F)C(F)(F)C(F)(F)F)C(F)(F)C(F)(F)C(F)(F)F", 
	 "Tm": 221.15, 
	 "num_atms": 31, 
	 "gaussian": { 
		 "optdone": 1, 
		 "sigma_profile": "yes", 
		 "theory": "DFT", 
		 "functional": "B3LYP", 
		 "basiset": "6-31G**", 
		 "properties": { 
			 "R2extent": 10266.603, 
			 "electric_dipole_moment_norm": 0.0428862448811, 
			 "electric_quadrupole_moment_norm": 0.851182119173, 
			 "total_energy": -2494.28045889, 
			 "HOMO_LUMO_gap": 0.35177, 
			 "cosmo_polarized_energy": -1.45, 
			 "cosmo_cavitation_energy": 40.27, 
			 "cosmo_dispersion_energy": -26.18, 
			 "cosmo_repulsion_energy": 1.58, 
			 "cosmo_total_nonelectrostatic_energy": 15.67, 
			 "SMD_solvation_energy": 13.04 
		},
		"coords": [
			{
				"x": 0.6857055636,
				"y": -1.7585396659,
				"z": -1.809300421,
				"element": "F" 
			},
			{
				"x": -0.2304389276,
				"y": -0.8919781989,
				"z": -2.2638106736,
				"element": "C" 
			},
			{
				"x": 0.3592286108,
				"y": 0.2846244183,
				"z": -2.5159103195,
				"element": "F" 
			},
			{
				"x": -0.7460020911,
				"y": -1.3702088353,
				"z": -3.4002106617,
				"element": "F" 
			},
			{
				"x": -1.3636558041,
				"y": -0.7044380875,
				"z": -1.2307699041,
				"element": "C" 
			},
			{
				"x": -2.3037843384,
				"y": 0.0826969113,
				"z": -1.8065944702,
				"element": "F" 
			},
			{
				"x": -1.9221061416,
				"y": -1.9049754665,
				"z": -0.9932007871,
				"element": "F" 
			},
			{
				"x": -0.9531976665,
				"y": 0.0271208706,
				"z": 0.1086489196,
				"element": "C" 
			},
			{
				"x": -0.9413011394,
				"y": 1.3386677483,
				"z": -0.2013083429,
				"element": "F" 
			},
			{
				"x": -1.956485212,
				"y": -0.1883559252,
				"z": 0.9915079986,
				"element": "F" 
			},
			{
				"x": 0.3484788387,
				"y": -0.2898122907,
				"z": 0.6940250901,
				"element": "N" 
			},
			{
				"x": 0.4636026284,
				"y": -1.5458797487,
				"z": 1.4240143353,
				"element": "C" 
			},
			{
				"x": -0.4871256991,
				"y": -2.3741675654,
				"z": 0.9368103443,
				"element": "F" 
			},
			{
				"x": 0.2123815807,
				"y": -1.3869785311,
				"z": 2.7424086079,
				"element": "F" 
			},
			{
				"x": 1.8567460357,
				"y": -2.288417677,
				"z": 1.2746491947,
				"element": "C" 
			},
			{
				"x": 2.5792972736,
				"y": -1.7290639126,
				"z": 0.2813308492,
				"element": "F" 
			},
			{
				"x": 2.5427057466,
				"y": -2.1993131521,
				"z": 2.4314238265,
				"element": "F" 
			},
			{
				"x": 1.7328543331,
				"y": -3.8035562102,
				"z": 0.9537363654,
				"element": "C" 
			},
			{
				"x": 0.9812991118,
				"y": -4.4153951805,
				"z": 1.8782508077,
				"element": "F" 
			},
			{
				"x": 2.9588436682,
				"y": -4.3397631273,
				"z": 0.972267396,
				"element": "F" 
			},
			{
				"x": 1.2003305633,
				"y": -3.998115183,
				"z": -0.2571083172,
				"element": "F" 
			},
			{
				"x": 1.1643122061,
				"y": 0.8189912259,
				"z": 1.1826109345,
				"element": "C" 
			},
			{
				"x": 2.0733296873,
				"y": 0.288054019,
				"z": 2.03917516,
				"element": "F" 
			},
			{
				"x": 0.4383926793,
				"y": 1.7215766044,
				"z": 1.8751185142,
				"element": "F" 
			},
			{
				"x": 1.9967593817,
				"y": 1.5881259477,
				"z": 0.0938382306,
				"element": "C" 
			},
			{
				"x": 1.2387452778,
				"y": 2.5297514807,
				"z": -0.5023231377,
				"element": "F" 
			},
			{
				"x": 2.4338616298,
				"y": 0.7125168281,
				"z": -0.8343676321,
				"element": "F" 
			},
			{
				"x": 3.2451252915,
				"y": 2.3152051506,
				"z": 0.6739153277,
				"element": "C" 
			},
			{
				"x": 4.200135521,
				"y": 1.4390079807,
				"z": 0.9986030204,
				"element": "F" 
			},
			{
				"x": 3.7258162541,
				"y": 3.1469153279,
				"z": -0.2572753087,
				"element": "F" 
			},
			{
				"x": 2.9098451367,
				"y": 3.0280042445,
				"z": 1.7584450531,
				"element": "F" 
			}
		],
		 "valence_orbital": [ 
			{
				"type": "occ",
				"energy": -0.4202,
				"method": "rhf"
			},
			{
				"type": "occ",
				"energy": -0.38447,
				"method": "rhf"
			},
			{
				"type": "occ",
				"energy": -0.37215,
				"method": "rhf"
			},
			{
				"type": "occ",
				"energy": -0.36921,
				"method": "rhf"
			},
			{
				"type": "occ",
				"energy": -0.33989,
				"method": "rhf"
			},
			{
				"type": "unocc",
				"energy": 0.01188,
				"method": "rhf"
			},
			{
				"type": "unocc",
				"energy": 0.01394,
				"method": "rhf"
			},
			{
				"type": "unocc",
				"energy": 0.03963,
				"method": "rhf"
			},
			{
				"type": "unocc",
				"energy": 0.04913,
				"method": "rhf"
			},
			{
				"type": "unocc",
				"energy": 0.04992,
				"method": "rhf"
			}
		],
		"cosmo_sigma_profile": { 
			"-0.025": 0.0,
			"-0.024": 0.0,
			"-0.023": 0.0,
			"-0.022": 0.0,
			"-0.021": 0.0,
			"-0.02": 0.0,
			"-0.019": 0.0,
			"-0.018": 0.0,
			"-0.017": 0.0,
			"-0.016": 0.0,
			"-0.015": 0.0,
			"-0.014": 0.0,
			"-0.013": 0.0,
			"-0.012": 0.0,
			"-0.011": 0.0,
			"-0.01": 0.0,
			"-0.009": 0.0,
			"-0.008": 0.0,
			"-0.007": 0.0,
			"-0.006": 0.0382493746397,
			"-0.005": 0.817564576193,
			"-0.004": 3.96880785439,
			"-0.003": 12.7184003868,
			"-0.002": 23.4845303683,
			"-0.001": 43.1540786583,
			"0.0": 97.8367546801,
			"0.001": 133.904991908,
			"0.002": 8.4443837077,
			"0.003": 0.0,
			"0.004": 0.0,
			"0.005": 0.0,
			"0.006": 0.0,
			"0.007": 0.0,
			"0.008": 0.0,
			"0.009": 0.0,
			"0.01": 0.0,
			"0.011": 0.0,
			"0.012": 0.0,
			"0.013": 0.0,
			"0.014": 0.0,
			"0.015": 0.0,
			"0.016": 0.0,
			"0.017": 0.0,
			"0.018": 0.0,
			"0.019": 0.0,
			"0.02": 0.0,
			"0.021": 0.0,
			"0.022": 0.0,
			"0.023": 0.0,
			"0.024": 0.0,
			"0.025": 0.0
		}
	}
}
