{
	 "smiles": "CN(N=O)C1=CC=CC=C1", 
	 "Tm": 287.85, 
	 "num_atms": 18, 
	 "gaussian": { 
		 "optdone": 1, 
		 "sigma_profile": "yes", 
		 "theory": "DFT", 
		 "functional": "B3LYP", 
		 "basiset": "6-31G**", 
		 "properties": { 
			 "R2extent": 1852.2598, 
			 "electric_dipole_moment_norm": 3.39559695194, 
			 "electric_quadrupole_moment_norm": 11.5903247767, 
			 "total_energy": -456.214282692, 
			 "HOMO_LUMO_gap": 0.17544, 
			 "cosmo_polarized_energy": -8.0, 
			 "cosmo_cavitation_energy": 21.92, 
			 "cosmo_dispersion_energy": -16.34, 
			 "cosmo_repulsion_energy": 1.32, 
			 "cosmo_total_nonelectrostatic_energy": 6.89, 
			 "SMD_solvation_energy": 4.63 
		},
		"coords": [
			{
				"x": -0.2477432889,
				"y": -2.3126098727,
				"z": -1.39843069,
				"element": "C" 
			},
			{
				"x": 0.7134018934,
				"y": -1.8124871289,
				"z": -0.4219813008,
				"element": "N" 
			},
			{
				"x": 1.9437527155,
				"y": -2.371048796,
				"z": -0.3063667526,
				"element": "N" 
			},
			{
				"x": 2.1717928708,
				"y": -3.3064329291,
				"z": -1.0598113304,
				"element": "O" 
			},
			{
				"x": 0.429575438,
				"y": -0.7134690801,
				"z": 0.4311254072,
				"element": "C" 
			},
			{
				"x": -0.6679860882,
				"y": 0.1142576846,
				"z": 0.1589335236,
				"element": "C" 
			},
			{
				"x": -0.95462164,
				"y": 1.1925351784,
				"z": 0.9981926879,
				"element": "C" 
			},
			{
				"x": -0.1544785681,
				"y": 1.461285467,
				"z": 2.1064844493,
				"element": "C" 
			},
			{
				"x": 0.9406135992,
				"y": 0.6342247596,
				"z": 2.3729959572,
				"element": "C" 
			},
			{
				"x": 1.2348086497,
				"y": -0.4498237338,
				"z": 1.5523484619,
				"element": "C" 
			},
			{
				"x": -0.3348404861,
				"y": -1.6329867378,
				"z": -2.2528371062,
				"element": "H" 
			},
			{
				"x": -1.225409559,
				"y": -2.4324952823,
				"z": -0.92663026,
				"element": "H" 
			},
			{
				"x": 0.1287669697,
				"y": -3.2737839328,
				"z": -1.7461923959,
				"element": "H" 
			},
			{
				"x": -1.294699863,
				"y": -0.0675059157,
				"z": -0.7062591486,
				"element": "H" 
			},
			{
				"x": -1.8089720641,
				"y": 1.8244428191,
				"z": 0.7738800404,
				"element": "H" 
			},
			{
				"x": -0.3802310363,
				"y": 2.3004660269,
				"z": 2.7570406854,
				"element": "H" 
			},
			{
				"x": 1.5702404214,
				"y": 0.8273427921,
				"z": 3.2367075417,
				"element": "H" 
			},
			{
				"x": 2.077930036,
				"y": -1.0932113184,
				"z": 1.7665002299,
				"element": "H" 
			}
		],
		 "valence_orbital": [ 
			{
				"type": "occ",
				"energy": -0.35376,
				"method": "rhf"
			},
			{
				"type": "occ",
				"energy": -0.30985,
				"method": "rhf"
			},
			{
				"type": "occ",
				"energy": -0.26077,
				"method": "rhf"
			},
			{
				"type": "occ",
				"energy": -0.23324,
				"method": "rhf"
			},
			{
				"type": "occ",
				"energy": -0.229,
				"method": "rhf"
			},
			{
				"type": "unocc",
				"energy": -0.05356,
				"method": "rhf"
			},
			{
				"type": "unocc",
				"energy": -0.01048,
				"method": "rhf"
			},
			{
				"type": "unocc",
				"energy": 0.01017,
				"method": "rhf"
			},
			{
				"type": "unocc",
				"energy": 0.08185,
				"method": "rhf"
			},
			{
				"type": "unocc",
				"energy": 0.10641,
				"method": "rhf"
			}
		],
		"cosmo_sigma_profile": { 
			"-0.025": 0.0,
			"-0.024": 0.0,
			"-0.023": 0.0,
			"-0.022": 0.0,
			"-0.021": 0.0,
			"-0.02": 0.0,
			"-0.019": 0.0,
			"-0.018": 0.0,
			"-0.017": 0.0,
			"-0.016": 0.0,
			"-0.015": 0.0,
			"-0.014": 0.0,
			"-0.013": 0.0,
			"-0.012": 0.0,
			"-0.011": 0.0,
			"-0.01": 0.0,
			"-0.009": 0.0,
			"-0.008": 0.135860837335,
			"-0.007": 5.65107391199,
			"-0.006": 14.2397369611,
			"-0.005": 14.7727776307,
			"-0.004": 16.2873266952,
			"-0.003": 15.7452002568,
			"-0.002": 12.3640480877,
			"-0.001": 11.1953073037,
			"0.0": 9.09581550825,
			"0.001": 9.74840034172,
			"0.002": 10.8005367821,
			"0.003": 11.1754802823,
			"0.004": 11.9832586815,
			"0.005": 10.704689635,
			"0.006": 3.44994849238,
			"0.007": 2.93290063647,
			"0.008": 4.05201739192,
			"0.009": 5.10577597821,
			"0.01": 2.73204881915,
			"0.011": 1.8503716812,
			"0.012": 1.17476616246,
			"0.013": 0.0776151588022,
			"0.014": 0.0,
			"0.015": 0.0,
			"0.016": 0.0,
			"0.017": 0.0,
			"0.018": 0.0,
			"0.019": 0.0,
			"0.02": 0.0,
			"0.021": 0.0,
			"0.022": 0.0,
			"0.023": 0.0,
			"0.024": 0.0,
			"0.025": 0.0
		}
	}
}
