{
	 "smiles": "CN(C1=CC2=NC3=C(C=CC4=C3COCN4)C=C2C=C1)S(C)(=O)=O", 
	 "Tm": 573.15, 
	 "num_atms": 41, 
	 "gaussian": { 
		 "optdone": 1, 
		 "sigma_profile": "yes", 
		 "theory": "DFT", 
		 "functional": "B3LYP", 
		 "basiset": "6-31G**", 
		 "properties": { 
			 "R2extent": 11538.6734, 
			 "electric_dipole_moment_norm": 7.42841515601, 
			 "electric_quadrupole_moment_norm": 17.459502773, 
			 "total_energy": -1446.0976058, 
			 "HOMO_LUMO_gap": 0.12314, 
			 "cosmo_polarized_energy": -23.79, 
			 "cosmo_cavitation_energy": 44.5, 
			 "cosmo_dispersion_energy": -32.69, 
			 "cosmo_repulsion_energy": 2.39, 
			 "cosmo_total_nonelectrostatic_energy": 14.2, 
			 "SMD_solvation_energy": 4.41 
		},
		"coords": [
			{
				"x": -4.6601138437,
				"y": -2.7042908632,
				"z": -1.2969644788,
				"element": "C" 
			},
			{
				"x": -4.1790940331,
				"y": -1.7080282207,
				"z": -0.3203202149,
				"element": "N" 
			},
			{
				"x": -2.7969351257,
				"y": -1.8010357191,
				"z": 0.0624686892,
				"element": "C" 
			},
			{
				"x": -1.8256150114,
				"y": -0.9132345466,
				"z": -0.340548915,
				"element": "C" 
			},
			{
				"x": -0.4742183383,
				"y": -1.0647545095,
				"z": 0.1037252827,
				"element": "C" 
			},
			{
				"x": 0.4335728679,
				"y": -0.1635004092,
				"z": -0.3101523907,
				"element": "N" 
			},
			{
				"x": 1.7126094753,
				"y": -0.3030484152,
				"z": 0.0851901491,
				"element": "C" 
			},
			{
				"x": 2.1489780063,
				"y": -1.3874113284,
				"z": 0.9398651228,
				"element": "C" 
			},
			{
				"x": 3.5274284889,
				"y": -1.4607797265,
				"z": 1.3106298953,
				"element": "C" 
			},
			{
				"x": 4.4161914937,
				"y": -0.5216670747,
				"z": 0.8742306153,
				"element": "C" 
			},
			{
				"x": 3.9868080131,
				"y": 0.5630313409,
				"z": 0.0397052335,
				"element": "C" 
			},
			{
				"x": 2.6617892369,
				"y": 0.6636348546,
				"z": -0.3585671898,
				"element": "C" 
			},
			{
				"x": 2.2318226173,
				"y": 1.7855583452,
				"z": -1.2762212601,
				"element": "C" 
			},
			{
				"x": 3.3523599694,
				"y": 2.4599395516,
				"z": -1.8578733673,
				"element": "O" 
			},
			{
				"x": 4.3443152454,
				"y": 2.7465693608,
				"z": -0.9125138756,
				"element": "C" 
			},
			{
				"x": 4.9057035709,
				"y": 1.5041633279,
				"z": -0.3959127533,
				"element": "N" 
			},
			{
				"x": 1.1943956228,
				"y": -2.3124850151,
				"z": 1.3572323131,
				"element": "C" 
			},
			{
				"x": -0.1401123923,
				"y": -2.1807989931,
				"z": 0.9534789757,
				"element": "C" 
			},
			{
				"x": -1.1726395069,
				"y": -3.0859581425,
				"z": 1.3400098092,
				"element": "C" 
			},
			{
				"x": -2.4610466199,
				"y": -2.9001003949,
				"z": 0.9192654853,
				"element": "C" 
			},
			{
				"x": -4.9456614047,
				"y": -0.1862319792,
				"z": -0.3939063959,
				"element": "S" 
			},
			{
				"x": -4.8052685696,
				"y": 0.3430358189,
				"z": 1.3212323491,
				"element": "C" 
			},
			{
				"x": -4.2183834835,
				"y": 0.7805014616,
				"z": -1.2269343899,
				"element": "O" 
			},
			{
				"x": -6.3512594678,
				"y": -0.4732249638,
				"z": -0.6943045926,
				"element": "O" 
			},
			{
				"x": -5.7451996389,
				"y": -2.6380550656,
				"z": -1.3663800019,
				"element": "H" 
			},
			{
				"x": -4.2155973735,
				"y": -2.5549825511,
				"z": -2.2886614176,
				"element": "H" 
			},
			{
				"x": -4.3837785167,
				"y": -3.6967487154,
				"z": -0.9341977264,
				"element": "H" 
			},
			{
				"x": -2.0543891838,
				"y": -0.0820482304,
				"z": -0.9956549178,
				"element": "H" 
			},
			{
				"x": 3.8574785362,
				"y": -2.2769965832,
				"z": 1.9478006268,
				"element": "H" 
			},
			{
				"x": 5.4652041232,
				"y": -0.5815243802,
				"z": 1.1536994154,
				"element": "H" 
			},
			{
				"x": 1.5873190623,
				"y": 2.5028306337,
				"z": -0.7432965231,
				"element": "H" 
			},
			{
				"x": 1.6465187145,
				"y": 1.3936083741,
				"z": -2.1111627703,
				"element": "H" 
			},
			{
				"x": 3.9259033017,
				"y": 3.3629146203,
				"z": -0.093428044,
				"element": "H" 
			},
			{
				"x": 5.1316786586,
				"y": 3.3111555365,
				"z": -1.4189407111,
				"element": "H" 
			},
			{
				"x": 5.7586579007,
				"y": 1.5850187438,
				"z": 0.1404862499,
				"element": "H" 
			},
			{
				"x": 1.4869947455,
				"y": -3.1419291855,
				"z": 1.9984347149,
				"element": "H" 
			},
			{
				"x": -0.922592946,
				"y": -3.9201478794,
				"z": 1.9907256572,
				"element": "H" 
			},
			{
				"x": -3.2525823587,
				"y": -3.5707079593,
				"z": 1.2383024945,
				"element": "H" 
			},
			{
				"x": -5.3614761374,
				"y": -0.3542098562,
				"z": 1.9469713421,
				"element": "H" 
			},
			{
				"x": -5.2419635466,
				"y": 1.3420118889,
				"z": 1.3655748377,
				"element": "H" 
			},
			{
				"x": -3.7529021522,
				"y": 0.3786268493,
				"z": 1.6029126775,
				"element": "H" 
			}
		],
		 "valence_orbital": [ 
			{
				"type": "occ",
				"energy": -0.25588,
				"method": "rhf"
			},
			{
				"type": "occ",
				"energy": -0.25251,
				"method": "rhf"
			},
			{
				"type": "occ",
				"energy": -0.24994,
				"method": "rhf"
			},
			{
				"type": "occ",
				"energy": -0.22273,
				"method": "rhf"
			},
			{
				"type": "occ",
				"energy": -0.19725,
				"method": "rhf"
			},
			{
				"type": "unocc",
				"energy": -0.07411,
				"method": "rhf"
			},
			{
				"type": "unocc",
				"energy": -0.02082,
				"method": "rhf"
			},
			{
				"type": "unocc",
				"energy": -0.00089,
				"method": "rhf"
			},
			{
				"type": "unocc",
				"energy": 0.02894,
				"method": "rhf"
			},
			{
				"type": "unocc",
				"energy": 0.04988,
				"method": "rhf"
			}
		],
		"cosmo_sigma_profile": { 
			"-0.025": 0.0,
			"-0.024": 0.0,
			"-0.023": 0.0,
			"-0.022": 0.0,
			"-0.021": 0.0,
			"-0.02": 0.0,
			"-0.019": 0.0,
			"-0.018": 0.0,
			"-0.017": 0.0,
			"-0.016": 0.0,
			"-0.015": 0.0,
			"-0.014": 0.911336757803,
			"-0.013": 1.55019212547,
			"-0.012": 1.45014538493,
			"-0.011": 1.80856885552,
			"-0.01": 1.37270466246,
			"-0.009": 4.02792554561,
			"-0.008": 6.83308831099,
			"-0.007": 16.7757415984,
			"-0.006": 21.6125438992,
			"-0.005": 24.6552326727,
			"-0.004": 32.3033440681,
			"-0.003": 26.0026101361,
			"-0.002": 21.3827122081,
			"-0.001": 15.6960159807,
			"0.0": 15.7890557968,
			"0.001": 20.8490773163,
			"0.002": 32.0649338475,
			"0.003": 28.3213436692,
			"0.004": 16.0108601974,
			"0.005": 7.87502128678,
			"0.006": 6.28358464073,
			"0.007": 6.75316890873,
			"0.008": 6.4302816808,
			"0.009": 6.90244057729,
			"0.01": 9.62975460804,
			"0.011": 13.0992248304,
			"0.012": 6.83920621338,
			"0.013": 1.11898015853,
			"0.014": 0.0,
			"0.015": 0.0,
			"0.016": 0.0,
			"0.017": 0.0,
			"0.018": 0.0,
			"0.019": 0.0,
			"0.02": 0.0,
			"0.021": 0.0,
			"0.022": 0.0,
			"0.023": 0.0,
			"0.024": 0.0,
			"0.025": 0.0
		}
	}
}
