{
	 "smiles": "CCOC1OC2C(CO)OC(C2O1)N1C=NC2=C1N=CN=C2N", 
	 "Tm": 503.15, 
	 "num_atms": 40, 
	 "gaussian": { 
		 "optdone": 1, 
		 "sigma_profile": "yes", 
		 "theory": "DFT", 
		 "functional": "B3LYP", 
		 "basiset": "6-31G**", 
		 "properties": { 
			 "R2extent": 8390.0891, 
			 "electric_dipole_moment_norm": 2.41274682882, 
			 "electric_quadrupole_moment_norm": 20.1981357001, 
			 "total_energy": -1155.4895241, 
			 "HOMO_LUMO_gap": 0.19934, 
			 "cosmo_polarized_energy": -21.86, 
			 "cosmo_cavitation_energy": 42.56, 
			 "cosmo_dispersion_energy": -29.93, 
			 "cosmo_repulsion_energy": 2.3, 
			 "cosmo_total_nonelectrostatic_energy": 14.94, 
			 "SMD_solvation_energy": 3.65 
		},
		"coords": [
			{
				"x": -4.0816785936,
				"y": 4.1699847444,
				"z": 0.7934550145,
				"element": "C" 
			},
			{
				"x": -3.5243666549,
				"y": 3.5377591004,
				"z": -0.4698583742,
				"element": "C" 
			},
			{
				"x": -3.0203328339,
				"y": 2.2423055518,
				"z": -0.1321857875,
				"element": "O" 
			},
			{
				"x": -2.5343538386,
				"y": 1.5117445288,
				"z": -1.2245879437,
				"element": "C" 
			},
			{
				"x": -1.3671719133,
				"y": 2.0757656278,
				"z": -1.7699643916,
				"element": "O" 
			},
			{
				"x": -0.2379958815,
				"y": 1.4866459121,
				"z": -1.1104077736,
				"element": "C" 
			},
			{
				"x": 0.3969318039,
				"y": 2.3778765612,
				"z": -0.0321410522,
				"element": "C" 
			},
			{
				"x": 1.9266940809,
				"y": 2.4250604166,
				"z": -0.1219027599,
				"element": "C" 
			},
			{
				"x": 2.3554244067,
				"y": 3.0033868926,
				"z": -1.3468191536,
				"element": "O" 
			},
			{
				"x": 0.014729822,
				"y": 1.854450167,
				"z": 1.2506896663,
				"element": "O" 
			},
			{
				"x": -0.6905984806,
				"y": 0.6338765863,
				"z": 1.1511642871,
				"element": "C" 
			},
			{
				"x": -0.8380247972,
				"y": 0.2817244822,
				"z": -0.3537688903,
				"element": "C" 
			},
			{
				"x": -2.2004357464,
				"y": 0.236760352,
				"z": -0.771436329,
				"element": "O" 
			},
			{
				"x": -0.0275954942,
				"y": -0.4044774594,
				"z": 1.929685595,
				"element": "N" 
			},
			{
				"x": -0.4106922957,
				"y": -0.8363814536,
				"z": 3.1892901707,
				"element": "C" 
			},
			{
				"x": 0.3892769036,
				"y": -1.7276000782,
				"z": 3.7186502392,
				"element": "N" 
			},
			{
				"x": 1.3752449789,
				"y": -1.8928253866,
				"z": 2.7609930341,
				"element": "C" 
			},
			{
				"x": 1.1459825447,
				"y": -1.0809937454,
				"z": 1.6464918537,
				"element": "C" 
			},
			{
				"x": 1.9053267592,
				"y": -1.0107141533,
				"z": 0.5424960982,
				"element": "N" 
			},
			{
				"x": 2.9572771745,
				"y": -1.8354080656,
				"z": 0.6160623381,
				"element": "C" 
			},
			{
				"x": 3.3039889721,
				"y": -2.6655352079,
				"z": 1.6103075509,
				"element": "N" 
			},
			{
				"x": 2.5231137577,
				"y": -2.7118066635,
				"z": 2.706228462,
				"element": "C" 
			},
			{
				"x": 2.8729560057,
				"y": -3.5324773601,
				"z": 3.7235928268,
				"element": "N" 
			},
			{
				"x": -4.4788623254,
				"y": 5.1662214755,
				"z": 0.5753061537,
				"element": "H" 
			},
			{
				"x": -4.8872822394,
				"y": 3.5579356312,
				"z": 1.2089320005,
				"element": "H" 
			},
			{
				"x": -3.2985323298,
				"y": 4.2672839003,
				"z": 1.550901141,
				"element": "H" 
			},
			{
				"x": -2.7208587899,
				"y": 4.1507262605,
				"z": -0.89794345,
				"element": "H" 
			},
			{
				"x": -4.3094294113,
				"y": 3.4381366784,
				"z": -1.2363209998,
				"element": "H" 
			},
			{
				"x": -3.2900504437,
				"y": 1.442783628,
				"z": -2.0177719104,
				"element": "H" 
			},
			{
				"x": 0.4890858151,
				"y": 1.2223377412,
				"z": -1.8796206023,
				"element": "H" 
			},
			{
				"x": -0.0120065264,
				"y": 3.3931719573,
				"z": -0.1218587469,
				"element": "H" 
			},
			{
				"x": 2.3201228353,
				"y": 1.405231603,
				"z": -0.1004336134,
				"element": "H" 
			},
			{
				"x": 2.319619478,
				"y": 2.9592486077,
				"z": 0.7548795654,
				"element": "H" 
			},
			{
				"x": 2.1009904899,
				"y": 3.9355050714,
				"z": -1.3462185396,
				"element": "H" 
			},
			{
				"x": -1.6881738678,
				"y": 0.7499169193,
				"z": 1.5849262422,
				"element": "H" 
			},
			{
				"x": -0.3765954989,
				"y": -0.6737041589,
				"z": -0.5965741391,
				"element": "H" 
			},
			{
				"x": -1.3072777673,
				"y": -0.4464546501,
				"z": 3.6540703152,
				"element": "H" 
			},
			{
				"x": 3.6214327345,
				"y": -1.8354103643,
				"z": -0.2457395296,
				"element": "H" 
			},
			{
				"x": 3.6493350989,
				"y": -4.1602566186,
				"z": 3.5918781586,
				"element": "H" 
			},
			{
				"x": 2.2505820683,
				"y": -3.6514950315,
				"z": 4.5058532737,
				"element": "H" 
			}
		],
		 "valence_orbital": [ 
			{
				"type": "occ",
				"energy": -0.27498,
				"method": "rhf"
			},
			{
				"type": "occ",
				"energy": -0.26387,
				"method": "rhf"
			},
			{
				"type": "occ",
				"energy": -0.25785,
				"method": "rhf"
			},
			{
				"type": "occ",
				"energy": -0.24997,
				"method": "rhf"
			},
			{
				"type": "occ",
				"energy": -0.22059,
				"method": "rhf"
			},
			{
				"type": "unocc",
				"energy": -0.02125,
				"method": "rhf"
			},
			{
				"type": "unocc",
				"energy": 0.00284,
				"method": "rhf"
			},
			{
				"type": "unocc",
				"energy": 0.03612,
				"method": "rhf"
			},
			{
				"type": "unocc",
				"energy": 0.06539,
				"method": "rhf"
			},
			{
				"type": "unocc",
				"energy": 0.07208,
				"method": "rhf"
			}
		],
		"cosmo_sigma_profile": { 
			"-0.025": 0.0,
			"-0.024": 0.0,
			"-0.023": 0.0,
			"-0.022": 0.0,
			"-0.021": 0.0,
			"-0.02": 0.0,
			"-0.019": 0.0,
			"-0.018": 0.0,
			"-0.017": 0.0,
			"-0.016": 0.70127002725,
			"-0.015": 1.25776749824,
			"-0.014": 3.148418542,
			"-0.013": 2.96695687688,
			"-0.012": 2.8076164533,
			"-0.011": 3.66121383632,
			"-0.01": 6.7215081498,
			"-0.009": 5.5616549835,
			"-0.008": 5.14973209301,
			"-0.007": 10.1408998836,
			"-0.006": 12.4345109607,
			"-0.005": 14.5932000195,
			"-0.004": 21.1697843584,
			"-0.003": 24.5239789943,
			"-0.002": 21.6023303937,
			"-0.001": 23.9384578365,
			"0.0": 28.8677091051,
			"0.001": 24.8628587113,
			"0.002": 20.4636605194,
			"0.003": 16.1202712022,
			"0.004": 11.8160058196,
			"0.005": 11.9756588398,
			"0.006": 8.92354968009,
			"0.007": 10.0847306205,
			"0.008": 8.21882915648,
			"0.009": 8.00392089911,
			"0.01": 8.33993120227,
			"0.011": 5.58000461789,
			"0.012": 3.96375784927,
			"0.013": 3.43834605058,
			"0.014": 3.08194178536,
			"0.015": 1.408899399,
			"0.016": 0.224455689016,
			"0.017": 0.0,
			"0.018": 0.0,
			"0.019": 0.0,
			"0.02": 0.0,
			"0.021": 0.0,
			"0.022": 0.0,
			"0.023": 0.0,
			"0.024": 0.0,
			"0.025": 0.0
		}
	}
}
