{
	 "smiles": "NC1=CC(=CC=C1)C1=NNC=C1", 
	 "Tm": 411.15, 
	 "num_atms": 21, 
	 "gaussian": { 
		 "optdone": 1, 
		 "sigma_profile": "yes", 
		 "theory": "DFT", 
		 "functional": "B3LYP", 
		 "basiset": "6-31G**", 
		 "properties": { 
			 "R2extent": 2614.9334, 
			 "electric_dipole_moment_norm": 2.54859413991, 
			 "electric_quadrupole_moment_norm": 17.8533230083, 
			 "total_energy": -512.621285828, 
			 "HOMO_LUMO_gap": 0.18266, 
			 "cosmo_polarized_energy": -16.03, 
			 "cosmo_cavitation_energy": 25.06, 
			 "cosmo_dispersion_energy": -18.91, 
			 "cosmo_repulsion_energy": 1.5, 
			 "cosmo_total_nonelectrostatic_energy": 7.65, 
			 "SMD_solvation_energy": 3.68 
		},
		"coords": [
			{
				"x": -1.8023315948,
				"y": 2.6500778449,
				"z": 0.4892560198,
				"element": "N" 
			},
			{
				"x": -1.3539023804,
				"y": 1.6982426606,
				"z": -0.4347475962,
				"element": "C" 
			},
			{
				"x": -0.1863938321,
				"y": 0.9608165515,
				"z": -0.1864208684,
				"element": "C" 
			},
			{
				"x": 0.2467085702,
				"y": -0.0349603776,
				"z": -1.0709431678,
				"element": "C" 
			},
			{
				"x": -0.50161954,
				"y": -0.2948437714,
				"z": -2.2311025625,
				"element": "C" 
			},
			{
				"x": -1.6595216644,
				"y": 0.4369759538,
				"z": -2.4803123094,
				"element": "C" 
			},
			{
				"x": -2.0921054639,
				"y": 1.4254741303,
				"z": -1.5977647683,
				"element": "C" 
			},
			{
				"x": 1.4749693395,
				"y": -0.8005521803,
				"z": -0.7911463127,
				"element": "C" 
			},
			{
				"x": 1.978401811,
				"y": -1.6413616367,
				"z": -1.7052227612,
				"element": "N" 
			},
			{
				"x": 3.0740568952,
				"y": -2.1650846166,
				"z": -1.1243371781,
				"element": "N" 
			},
			{
				"x": 3.2948355806,
				"y": -1.6905407882,
				"z": 0.1300320413,
				"element": "C" 
			},
			{
				"x": 2.275712995,
				"y": -0.7992080113,
				"z": 0.3858822142,
				"element": "C" 
			},
			{
				"x": -2.3942516856,
				"y": 3.3700788789,
				"z": 0.0973286902,
				"element": "H" 
			},
			{
				"x": -1.0771854306,
				"y": 3.0470612378,
				"z": 1.0715200731,
				"element": "H" 
			},
			{
				"x": 0.3879540502,
				"y": 1.1772896677,
				"z": 0.7106272525,
				"element": "H" 
			},
			{
				"x": -0.166592394,
				"y": -1.0638740721,
				"z": -2.9170137755,
				"element": "H" 
			},
			{
				"x": -2.2386153597,
				"y": 0.236692486,
				"z": -3.3778712727,
				"element": "H" 
			},
			{
				"x": -3.0012533606,
				"y": 1.9858593459,
				"z": -1.8019373607,
				"element": "H" 
			},
			{
				"x": 3.6254921761,
				"y": -2.8333117131,
				"z": -1.6390081585,
				"element": "H" 
			},
			{
				"x": 4.1337425075,
				"y": -2.0176612874,
				"z": 0.726789009,
				"element": "H" 
			},
			{
				"x": 2.124598781,
				"y": -0.2402703028,
				"z": 1.2963927919,
				"element": "H" 
			}
		],
		 "valence_orbital": [ 
			{
				"type": "occ",
				"energy": -0.28243,
				"method": "rhf"
			},
			{
				"type": "occ",
				"energy": -0.26923,
				"method": "rhf"
			},
			{
				"type": "occ",
				"energy": -0.2447,
				"method": "rhf"
			},
			{
				"type": "occ",
				"energy": -0.21575,
				"method": "rhf"
			},
			{
				"type": "occ",
				"energy": -0.19179,
				"method": "rhf"
			},
			{
				"type": "unocc",
				"energy": -0.00913,
				"method": "rhf"
			},
			{
				"type": "unocc",
				"energy": 0.01942,
				"method": "rhf"
			},
			{
				"type": "unocc",
				"energy": 0.03888,
				"method": "rhf"
			},
			{
				"type": "unocc",
				"energy": 0.08097,
				"method": "rhf"
			},
			{
				"type": "unocc",
				"energy": 0.08483,
				"method": "rhf"
			}
		],
		"cosmo_sigma_profile": { 
			"-0.025": 0.0,
			"-0.024": 0.0,
			"-0.023": 0.0,
			"-0.022": 0.0,
			"-0.021": 0.0,
			"-0.02": 0.0,
			"-0.019": 0.0,
			"-0.018": 0.0,
			"-0.017": 0.267247756828,
			"-0.016": 1.62065760567,
			"-0.015": 1.71277161377,
			"-0.014": 0.93132547836,
			"-0.013": 1.20126996189,
			"-0.012": 3.0665355065,
			"-0.011": 3.80318080589,
			"-0.01": 3.85575430678,
			"-0.009": 6.22931530755,
			"-0.008": 6.1615246225,
			"-0.007": 6.16704626043,
			"-0.006": 8.65547059528,
			"-0.005": 9.50107394223,
			"-0.004": 10.3025193147,
			"-0.003": 9.42527348787,
			"-0.002": 8.62397879838,
			"-0.001": 9.15491227064,
			"0.0": 7.48731990879,
			"0.001": 7.84031949818,
			"0.002": 9.65382951331,
			"0.003": 9.72818706951,
			"0.004": 13.5882949453,
			"0.005": 19.3288958375,
			"0.006": 15.9715574837,
			"0.007": 10.4818617673,
			"0.008": 2.48934455065,
			"0.009": 2.81396643794,
			"0.01": 2.03243366621,
			"0.011": 1.90404765006,
			"0.012": 2.26573982212,
			"0.013": 1.36404336551,
			"0.014": 1.71094789312,
			"0.015": 0.69851709241,
			"0.016": 0.0,
			"0.017": 0.0,
			"0.018": 0.0,
			"0.019": 0.0,
			"0.02": 0.0,
			"0.021": 0.0,
			"0.022": 0.0,
			"0.023": 0.0,
			"0.024": 0.0,
			"0.025": 0.0
		}
	}
}
