{
	 "smiles": "OC(C=O)C1OC(=O)C(O)C1O", 
	 "Tm": 451.15, 
	 "num_atms": 20, 
	 "gaussian": { 
		 "optdone": 1, 
		 "sigma_profile": "yes", 
		 "theory": "DFT", 
		 "functional": "B3LYP", 
		 "basiset": "6-31G**", 
		 "properties": { 
			 "R2extent": 2812.482, 
			 "electric_dipole_moment_norm": 3.90900493093, 
			 "electric_quadrupole_moment_norm": 11.8983756728, 
			 "total_energy": -684.752730773, 
			 "HOMO_LUMO_gap": 0.20168, 
			 "cosmo_polarized_energy": -22.44, 
			 "cosmo_cavitation_energy": 23.81, 
			 "cosmo_dispersion_energy": -17.47, 
			 "cosmo_repulsion_energy": 1.41, 
			 "cosmo_total_nonelectrostatic_energy": 7.75, 
			 "SMD_solvation_energy": 5.79 
		},
		"coords": [
			{
				"x": -2.5233814362,
				"y": -0.6227895528,
				"z": 3.0475713389,
				"element": "O" 
			},
			{
				"x": -1.8620029849,
				"y": -0.8785250459,
				"z": 1.8253407907,
				"element": "C" 
			},
			{
				"x": -2.8441967926,
				"y": -1.4648479838,
				"z": 0.8048662218,
				"element": "C" 
			},
			{
				"x": -2.6142387824,
				"y": -1.5897727161,
				"z": -0.3774268159,
				"element": "O" 
			},
			{
				"x": -1.0923200503,
				"y": 0.3704155224,
				"z": 1.3697268056,
				"element": "C" 
			},
			{
				"x": -2.0333263189,
				"y": 1.4682595265,
				"z": 1.2644734851,
				"element": "O" 
			},
			{
				"x": -2.0634147983,
				"y": 2.0002625159,
				"z": -0.0145148935,
				"element": "C" 
			},
			{
				"x": -2.6871941005,
				"y": 2.9897166357,
				"z": -0.2675791146,
				"element": "O" 
			},
			{
				"x": -1.2250886179,
				"y": 1.1019422433,
				"z": -0.9420497018,
				"element": "C" 
			},
			{
				"x": -0.544818565,
				"y": 1.7914476187,
				"z": -1.948719272,
				"element": "O" 
			},
			{
				"x": -0.3093818954,
				"y": 0.3417056826,
				"z": 0.0399245455,
				"element": "C" 
			},
			{
				"x": 0.9476609402,
				"y": 1.011585404,
				"z": 0.1563590696,
				"element": "O" 
			},
			{
				"x": -3.0033661261,
				"y": 0.2127503511,
				"z": 2.9409759452,
				"element": "H" 
			},
			{
				"x": -1.1263922841,
				"y": -1.6713094783,
				"z": 2.0267415169,
				"element": "H" 
			},
			{
				"x": -3.7965510007,
				"y": -1.8075812863,
				"z": 1.2630718255,
				"element": "H" 
			},
			{
				"x": -0.4081492736,
				"y": 0.6152360656,
				"z": 2.1900641526,
				"element": "H" 
			},
			{
				"x": -1.9246356218,
				"y": 0.3968637837,
				"z": -1.4035498366,
				"element": "H" 
			},
			{
				"x": 0.3564935442,
				"y": 1.9298484367,
				"z": -1.6143877724,
				"element": "H" 
			},
			{
				"x": -0.0815987477,
				"y": -0.6679733884,
				"z": -0.3005744151,
				"element": "H" 
			},
			{
				"x": 0.832602912,
				"y": 1.8100656652,
				"z": 0.6924861242,
				"element": "H" 
			}
		],
		 "valence_orbital": [ 
			{
				"type": "occ",
				"energy": -0.32676,
				"method": "rhf"
			},
			{
				"type": "occ",
				"energy": -0.31345,
				"method": "rhf"
			},
			{
				"type": "occ",
				"energy": -0.31271,
				"method": "rhf"
			},
			{
				"type": "occ",
				"energy": -0.27697,
				"method": "rhf"
			},
			{
				"type": "occ",
				"energy": -0.26466,
				"method": "rhf"
			},
			{
				"type": "unocc",
				"energy": -0.06298,
				"method": "rhf"
			},
			{
				"type": "unocc",
				"energy": -0.01657,
				"method": "rhf"
			},
			{
				"type": "unocc",
				"energy": 0.04651,
				"method": "rhf"
			},
			{
				"type": "unocc",
				"energy": 0.06368,
				"method": "rhf"
			},
			{
				"type": "unocc",
				"energy": 0.07565,
				"method": "rhf"
			}
		],
		"cosmo_sigma_profile": { 
			"-0.025": 0.0,
			"-0.024": 0.0,
			"-0.023": 0.0,
			"-0.022": 0.0,
			"-0.021": 0.0,
			"-0.02": 0.0,
			"-0.019": 0.0,
			"-0.018": 0.428681813016,
			"-0.017": 1.82911932033,
			"-0.016": 1.63938619588,
			"-0.015": 1.73073432375,
			"-0.014": 2.19102753607,
			"-0.013": 1.73531203653,
			"-0.012": 2.80880918495,
			"-0.011": 2.55633075281,
			"-0.01": 4.06607033688,
			"-0.009": 8.0235662182,
			"-0.008": 8.25159294957,
			"-0.007": 12.4216832803,
			"-0.006": 10.6964540789,
			"-0.005": 8.07193976,
			"-0.004": 7.83421835759,
			"-0.003": 8.38770032388,
			"-0.002": 5.89191609373,
			"-0.001": 5.39559721961,
			"0.0": 5.60105650272,
			"0.001": 6.14356839312,
			"0.002": 6.60284919074,
			"0.003": 5.13160508542,
			"0.004": 4.37220023507,
			"0.005": 6.35991794035,
			"0.006": 5.90468952574,
			"0.007": 5.88459331791,
			"0.008": 6.52048995578,
			"0.009": 9.52143669292,
			"0.01": 9.01428925959,
			"0.011": 11.1725384137,
			"0.012": 7.64482914868,
			"0.013": 3.27513801963,
			"0.014": 0.054143875561,
			"0.015": 0.0,
			"0.016": 0.0,
			"0.017": 0.0,
			"0.018": 0.0,
			"0.019": 0.0,
			"0.02": 0.0,
			"0.021": 0.0,
			"0.022": 0.0,
			"0.023": 0.0,
			"0.024": 0.0,
			"0.025": 0.0
		}
	}
}
