{
	 "smiles": "CSC1=C(CC(O)=O)C=CC=C1", 
	 "Tm": 389.15, 
	 "num_atms": 22, 
	 "gaussian": { 
		 "optdone": 1, 
		 "sigma_profile": "yes", 
		 "theory": "DFT", 
		 "functional": "B3LYP", 
		 "basiset": "6-31G**", 
		 "properties": { 
			 "R2extent": 2658.696, 
			 "electric_dipole_moment_norm": 5.75296733869, 
			 "electric_quadrupole_moment_norm": 13.2816612308, 
			 "total_energy": -897.631704983, 
			 "HOMO_LUMO_gap": 0.21108, 
			 "cosmo_polarized_energy": -13.28, 
			 "cosmo_cavitation_energy": 26.97, 
			 "cosmo_dispersion_energy": -19.7, 
			 "cosmo_repulsion_energy": 1.53, 
			 "cosmo_total_nonelectrostatic_energy": 8.79, 
			 "SMD_solvation_energy": 5.93 
		},
		"coords": [
			{
				"x": -2.4309917249,
				"y": -0.2701219561,
				"z": 0.6454351259,
				"element": "C" 
			},
			{
				"x": -0.8400414067,
				"y": 0.5687495792,
				"z": 1.0090891243,
				"element": "S" 
			},
			{
				"x": 0.297280839,
				"y": -0.8245330971,
				"z": 1.1280804689,
				"element": "C" 
			},
			{
				"x": 0.8993596152,
				"y": -1.3981141115,
				"z": -0.0122314325,
				"element": "C" 
			},
			{
				"x": 0.608157933,
				"y": -0.9417269932,
				"z": -1.4313827153,
				"element": "C" 
			},
			{
				"x": 1.5106595982,
				"y": 0.2196322227,
				"z": -1.8822775321,
				"element": "C" 
			},
			{
				"x": 1.1969784326,
				"y": 1.4326786534,
				"z": -1.3842320362,
				"element": "O" 
			},
			{
				"x": 2.4452604618,
				"y": 0.0701249052,
				"z": -2.6304780991,
				"element": "O" 
			},
			{
				"x": 1.8265594631,
				"y": -2.4318137945,
				"z": 0.181284652,
				"element": "C" 
			},
			{
				"x": 2.1509458954,
				"y": -2.8907639683,
				"z": 1.4569050619,
				"element": "C" 
			},
			{
				"x": 1.5472519781,
				"y": -2.320224748,
				"z": 2.577151668,
				"element": "C" 
			},
			{
				"x": 0.6251347877,
				"y": -1.2883868171,
				"z": 2.4088612867,
				"element": "C" 
			},
			{
				"x": -3.1844616954,
				"y": 0.5162409706,
				"z": 0.5613175543,
				"element": "H" 
			},
			{
				"x": -2.3872140462,
				"y": -0.829611253,
				"z": -0.2911401702,
				"element": "H" 
			},
			{
				"x": -2.6964862004,
				"y": -0.9395177721,
				"z": 1.4654752524,
				"element": "H" 
			},
			{
				"x": 0.7987847717,
				"y": -1.7617014195,
				"z": -2.1251149421,
				"element": "H" 
			},
			{
				"x": -0.4386465025,
				"y": -0.6419055743,
				"z": -1.5378361239,
				"element": "H" 
			},
			{
				"x": 0.4220016263,
				"y": 1.3656811758,
				"z": -0.7904496844,
				"element": "H" 
			},
			{
				"x": 2.303225122,
				"y": -2.875060641,
				"z": -0.6884988076,
				"element": "H" 
			},
			{
				"x": 2.8752601953,
				"y": -3.6915104276,
				"z": 1.5731740953,
				"element": "H" 
			},
			{
				"x": 1.7934350048,
				"y": -2.6703562715,
				"z": 3.5750164839,
				"element": "H" 
			},
			{
				"x": 0.1554458519,
				"y": -0.826358662,
				"z": 3.2713507696,
				"element": "H" 
			}
		],
		 "valence_orbital": [ 
			{
				"type": "occ",
				"energy": -0.30233,
				"method": "rhf"
			},
			{
				"type": "occ",
				"energy": -0.27836,
				"method": "rhf"
			},
			{
				"type": "occ",
				"energy": -0.26759,
				"method": "rhf"
			},
			{
				"type": "occ",
				"energy": -0.25488,
				"method": "rhf"
			},
			{
				"type": "occ",
				"energy": -0.24866,
				"method": "rhf"
			},
			{
				"type": "unocc",
				"energy": -0.03758,
				"method": "rhf"
			},
			{
				"type": "unocc",
				"energy": -0.02203,
				"method": "rhf"
			},
			{
				"type": "unocc",
				"energy": 0.02132,
				"method": "rhf"
			},
			{
				"type": "unocc",
				"energy": 0.03198,
				"method": "rhf"
			},
			{
				"type": "unocc",
				"energy": 0.0561,
				"method": "rhf"
			}
		],
		"cosmo_sigma_profile": { 
			"-0.025": 0.0,
			"-0.024": 0.0,
			"-0.023": 0.0,
			"-0.022": 0.0,
			"-0.021": 0.0,
			"-0.02": 0.0,
			"-0.019": 0.0,
			"-0.018": 0.0,
			"-0.017": 0.0,
			"-0.016": 0.0,
			"-0.015": 0.0,
			"-0.014": 0.0,
			"-0.013": 0.0,
			"-0.012": 0.0,
			"-0.011": 0.0,
			"-0.01": 0.17880442396,
			"-0.009": 0.718574597528,
			"-0.008": 2.02204466606,
			"-0.007": 8.40945693291,
			"-0.006": 17.5455143036,
			"-0.005": 19.5765212112,
			"-0.004": 19.7059835579,
			"-0.003": 17.8524334059,
			"-0.002": 17.8535965551,
			"-0.001": 14.329551705,
			"0.0": 12.6243242734,
			"0.001": 11.9173677902,
			"0.002": 11.2360557685,
			"0.003": 11.8428063797,
			"0.004": 12.5476818167,
			"0.005": 5.5812204039,
			"0.006": 3.1442084661,
			"0.007": 3.77297911805,
			"0.008": 3.59994805004,
			"0.009": 3.21146303905,
			"0.01": 4.13303777322,
			"0.011": 5.74116328448,
			"0.012": 5.87288379926,
			"0.013": 2.85706244989,
			"0.014": 0.158387326168,
			"0.015": 0.0,
			"0.016": 0.0,
			"0.017": 0.0,
			"0.018": 0.0,
			"0.019": 0.0,
			"0.02": 0.0,
			"0.021": 0.0,
			"0.022": 0.0,
			"0.023": 0.0,
			"0.024": 0.0,
			"0.025": 0.0
		}
	}
}
