{
	 "smiles": "NC1=C(C=CC(Cl)=C1)C(=O)N1CCCCC1CCO", 
	 "Tm": 389.15, 
	 "num_atms": 38, 
	 "gaussian": { 
		 "optdone": 1, 
		 "sigma_profile": "yes", 
		 "theory": "DFT", 
		 "functional": "B3LYP", 
		 "basiset": "6-31G**", 
		 "properties": { 
			 "R2extent": 6671.9957, 
			 "electric_dipole_moment_norm": 1.33667359516, 
			 "electric_quadrupole_moment_norm": 16.8563423636, 
			 "total_energy": -1265.10024902, 
			 "HOMO_LUMO_gap": 0.18094, 
			 "cosmo_polarized_energy": -15.55, 
			 "cosmo_cavitation_energy": 39.88, 
			 "cosmo_dispersion_energy": -27.89, 
			 "cosmo_repulsion_energy": 2.19, 
			 "cosmo_total_nonelectrostatic_energy": 14.18, 
			 "SMD_solvation_energy": 6.07 
		},
		"coords": [
			{
				"x": 2.8792612146,
				"y": 0.256700868,
				"z": 1.9647445947,
				"element": "N" 
			},
			{
				"x": 1.6174180259,
				"y": -0.3116119433,
				"z": 1.9213981534,
				"element": "C" 
			},
			{
				"x": 0.7079333906,
				"y": 0.0213544183,
				"z": 0.8818068579,
				"element": "C" 
			},
			{
				"x": -0.5699247187,
				"y": -0.5496226803,
				"z": 0.8917201328,
				"element": "C" 
			},
			{
				"x": -0.9615752003,
				"y": -1.4828263065,
				"z": 1.8490514029,
				"element": "C" 
			},
			{
				"x": -0.0292364595,
				"y": -1.8447183631,
				"z": 2.8211574121,
				"element": "C" 
			},
			{
				"x": -0.4735353688,
				"y": -3.0357860777,
				"z": 4.0370795468,
				"element": "Cl" 
			},
			{
				"x": 1.2375799081,
				"y": -1.277791029,
				"z": 2.8712961937,
				"element": "C" 
			},
			{
				"x": 1.0869611815,
				"y": 1.0943995785,
				"z": -0.1010428111,
				"element": "C" 
			},
			{
				"x": 1.5980757027,
				"y": 2.1428988621,
				"z": 0.3193347803,
				"element": "O" 
			},
			{
				"x": 0.8357426803,
				"y": 0.9058603388,
				"z": -1.4360581576,
				"element": "N" 
			},
			{
				"x": 0.9750167397,
				"y": 2.0487056262,
				"z": -2.3459351875,
				"element": "C" 
			},
			{
				"x": -0.3847427852,
				"y": 2.3515775964,
				"z": -3.0141761575,
				"element": "C" 
			},
			{
				"x": -1.2226958858,
				"y": 1.0619414702,
				"z": -3.1643427153,
				"element": "C" 
			},
			{
				"x": -0.3066435766,
				"y": -0.1520889258,
				"z": -3.3545342358,
				"element": "C" 
			},
			{
				"x": 0.6002799744,
				"y": -0.3901571192,
				"z": -2.1170334578,
				"element": "C" 
			},
			{
				"x": 1.9088824402,
				"y": -1.0872177789,
				"z": -2.5341648775,
				"element": "C" 
			},
			{
				"x": 2.7719287197,
				"y": -1.6070758486,
				"z": -1.3906231462,
				"element": "C" 
			},
			{
				"x": 3.8947035555,
				"y": -2.2545393986,
				"z": -1.9822642129,
				"element": "O" 
			},
			{
				"x": 3.3633744482,
				"y": 0.1649687627,
				"z": 2.8465747288,
				"element": "H" 
			},
			{
				"x": 2.9069311317,
				"y": 1.1928410678,
				"z": 1.5731260353,
				"element": "H" 
			},
			{
				"x": -1.2881605249,
				"y": -0.2405013316,
				"z": 0.1383032182,
				"element": "H" 
			},
			{
				"x": -1.9556616018,
				"y": -1.9128060282,
				"z": 1.8457734358,
				"element": "H" 
			},
			{
				"x": 1.929010277,
				"y": -1.5635943007,
				"z": 3.6573235801,
				"element": "H" 
			},
			{
				"x": 1.350090251,
				"y": 2.8910612568,
				"z": -1.7674110035,
				"element": "H" 
			},
			{
				"x": 1.7293135525,
				"y": 1.8073300117,
				"z": -3.1045173318,
				"element": "H" 
			},
			{
				"x": -0.2012605307,
				"y": 2.804277303,
				"z": -3.9958469225,
				"element": "H" 
			},
			{
				"x": -0.9378172769,
				"y": 3.0894152838,
				"z": -2.4235381488,
				"element": "H" 
			},
			{
				"x": -1.8365374024,
				"y": 0.9126962425,
				"z": -2.267691593,
				"element": "H" 
			},
			{
				"x": -1.9199817355,
				"y": 1.1517880057,
				"z": -4.0038861044,
				"element": "H" 
			},
			{
				"x": -0.8861802229,
				"y": -1.0614630671,
				"z": -3.5452238347,
				"element": "H" 
			},
			{
				"x": 0.3195694331,
				"y": 0.003716669,
				"z": -4.2428438145,
				"element": "H" 
			},
			{
				"x": 0.0711458177,
				"y": -1.0396340501,
				"z": -1.4190596874,
				"element": "H" 
			},
			{
				"x": 2.512947327,
				"y": -0.4102420127,
				"z": -3.1507338381,
				"element": "H" 
			},
			{
				"x": 1.6494317618,
				"y": -1.9393484955,
				"z": -3.1751687455,
				"element": "H" 
			},
			{
				"x": 2.1888301609,
				"y": -2.3069621566,
				"z": -0.7701307499,
				"element": "H" 
			},
			{
				"x": 3.0916770746,
				"y": -0.7829629071,
				"z": -0.7373742461,
				"element": "H" 
			},
			{
				"x": 4.4891485216,
				"y": -2.5232835411,
				"z": -1.2711890935,
				"element": "H" 
			}
		],
		 "valence_orbital": [ 
			{
				"type": "occ",
				"energy": -0.26289,
				"method": "rhf"
			},
			{
				"type": "occ",
				"energy": -0.26183,
				"method": "rhf"
			},
			{
				"type": "occ",
				"energy": -0.2441,
				"method": "rhf"
			},
			{
				"type": "occ",
				"energy": -0.23822,
				"method": "rhf"
			},
			{
				"type": "occ",
				"energy": -0.21367,
				"method": "rhf"
			},
			{
				"type": "unocc",
				"energy": -0.03273,
				"method": "rhf"
			},
			{
				"type": "unocc",
				"energy": -0.00157,
				"method": "rhf"
			},
			{
				"type": "unocc",
				"energy": 0.02922,
				"method": "rhf"
			},
			{
				"type": "unocc",
				"energy": 0.0369,
				"method": "rhf"
			},
			{
				"type": "unocc",
				"energy": 0.07037,
				"method": "rhf"
			}
		],
		"cosmo_sigma_profile": { 
			"-0.025": 0.0,
			"-0.024": 0.0,
			"-0.023": 0.0,
			"-0.022": 0.0,
			"-0.021": 0.0,
			"-0.02": 0.0,
			"-0.019": 0.0,
			"-0.018": 0.0,
			"-0.017": 0.0,
			"-0.016": 0.130405120419,
			"-0.015": 0.956294201223,
			"-0.014": 1.32629821581,
			"-0.013": 1.37859425817,
			"-0.012": 2.6233199158,
			"-0.011": 2.57597150881,
			"-0.01": 2.27523066897,
			"-0.009": 3.6595462908,
			"-0.008": 3.02164400557,
			"-0.007": 4.067023408,
			"-0.006": 6.85619525206,
			"-0.005": 12.0619823349,
			"-0.004": 20.554841279,
			"-0.003": 32.690505101,
			"-0.002": 34.1161531212,
			"-0.001": 34.2105123664,
			"0.0": 26.8151014397,
			"0.001": 18.6914011587,
			"0.002": 18.7427400777,
			"0.003": 21.4366751441,
			"0.004": 19.7327674161,
			"0.005": 12.6349662119,
			"0.006": 4.09226558925,
			"0.007": 3.92837098056,
			"0.008": 3.46729030862,
			"0.009": 4.01713733461,
			"0.01": 2.2786986751,
			"0.011": 3.37509368681,
			"0.012": 3.51833406849,
			"0.013": 4.8940799948,
			"0.014": 3.43765342051,
			"0.015": 0.686524966937,
			"0.016": 0.0,
			"0.017": 0.0,
			"0.018": 0.0,
			"0.019": 0.0,
			"0.02": 0.0,
			"0.021": 0.0,
			"0.022": 0.0,
			"0.023": 0.0,
			"0.024": 0.0,
			"0.025": 0.0
		}
	}
}
