{
	 "smiles": "CC1=CC(=CC(C)=C1)P(C1=CC(C)=CC(C)=C1)C1=CC(C)=CC(C)=C1", 
	 "Tm": 434.15, 
	 "num_atms": 52, 
	 "gaussian": { 
		 "optdone": 1, 
		 "sigma_profile": "yes", 
		 "theory": "DFT", 
		 "functional": "B3LYP", 
		 "basiset": "6-31G**", 
		 "properties": { 
			 "R2extent": 10539.0843, 
			 "electric_dipole_moment_norm": 1.81261596043, 
			 "electric_quadrupole_moment_norm": 4.53764540153, 
			 "total_energy": -1272.22401615, 
			 "HOMO_LUMO_gap": 0.19061, 
			 "cosmo_polarized_energy": -8.53, 
			 "cosmo_cavitation_energy": 55.52, 
			 "cosmo_dispersion_energy": -36.36, 
			 "cosmo_repulsion_energy": 2.99, 
			 "cosmo_total_nonelectrostatic_energy": 22.16, 
			 "SMD_solvation_energy": 9.64 
		},
		"coords": [
			{
				"x": -0.8907842758,
				"y": 3.3921663125,
				"z": -4.1133050234,
				"element": "C" 
			},
			{
				"x": 0.0361553792,
				"y": 2.6173919113,
				"z": -3.2050966097,
				"element": "C" 
			},
			{
				"x": -0.3901946462,
				"y": 1.4510263935,
				"z": -2.5652929245,
				"element": "C" 
			},
			{
				"x": 0.4582730464,
				"y": 0.738539738,
				"z": -1.7008680198,
				"element": "C" 
			},
			{
				"x": 1.7622252175,
				"y": 1.2050310825,
				"z": -1.4999482684,
				"element": "C" 
			},
			{
				"x": 2.2221791727,
				"y": 2.3666265457,
				"z": -2.1382825111,
				"element": "C" 
			},
			{
				"x": 3.6293443269,
				"y": 2.8646446387,
				"z": -1.8980304987,
				"element": "C" 
			},
			{
				"x": 1.3491524581,
				"y": 3.0571023118,
				"z": -2.9832861531,
				"element": "C" 
			},
			{
				"x": -0.2331241435,
				"y": -0.8046323915,
				"z": -0.940893214,
				"element": "P" 
			},
			{
				"x": 1.2869323357,
				"y": -1.6676141249,
				"z": -0.323834108,
				"element": "C" 
			},
			{
				"x": 1.9117988431,
				"y": -2.5572550816,
				"z": -1.2121743656,
				"element": "C" 
			},
			{
				"x": 3.0616616385,
				"y": -3.2637812141,
				"z": -0.8463720602,
				"element": "C" 
			},
			{
				"x": 3.7508784923,
				"y": -4.1864506941,
				"z": -1.8252079723,
				"element": "C" 
			},
			{
				"x": 3.5694930816,
				"y": -3.085141896,
				"z": 0.4470585476,
				"element": "C" 
			},
			{
				"x": 2.9610792524,
				"y": -2.2203850323,
				"z": 1.3628775577,
				"element": "C" 
			},
			{
				"x": 3.5027958352,
				"y": -2.0749033262,
				"z": 2.7667273732,
				"element": "C" 
			},
			{
				"x": 1.8210974802,
				"y": -1.5105426091,
				"z": 0.9614186438,
				"element": "C" 
			},
			{
				"x": -1.002303572,
				"y": -0.1740796003,
				"z": 0.6236487261,
				"element": "C" 
			},
			{
				"x": -1.91378692,
				"y": -1.0275742615,
				"z": 1.2674277516,
				"element": "C" 
			},
			{
				"x": -2.5639128136,
				"y": -0.6441442054,
				"z": 2.4433813129,
				"element": "C" 
			},
			{
				"x": -3.5229869134,
				"y": -1.5788741207,
				"z": 3.1439656358,
				"element": "C" 
			},
			{
				"x": -2.303466545,
				"y": 0.6316484749,
				"z": 2.9629493284,
				"element": "C" 
			},
			{
				"x": -1.4102527136,
				"y": 1.5095134803,
				"z": 2.3420346211,
				"element": "C" 
			},
			{
				"x": -1.1271642138,
				"y": 2.8736398875,
				"z": 2.9292904316,
				"element": "C" 
			},
			{
				"x": -0.7635864874,
				"y": 1.0926467979,
				"z": 1.1693109055,
				"element": "C" 
			},
			{
				"x": -1.2624358296,
				"y": 4.2996189936,
				"z": -3.6211902417,
				"element": "H" 
			},
			{
				"x": -0.3815350105,
				"y": 3.7091673676,
				"z": -5.02959353,
				"element": "H" 
			},
			{
				"x": -1.7608617447,
				"y": 2.7947293607,
				"z": -4.3996604294,
				"element": "H" 
			},
			{
				"x": -1.3970540062,
				"y": 1.0819641778,
				"z": -2.7488201272,
				"element": "H" 
			},
			{
				"x": 2.4350980672,
				"y": 0.6569428942,
				"z": -0.8465445671,
				"element": "H" 
			},
			{
				"x": 3.9331783185,
				"y": 3.5893566501,
				"z": -2.6589412586,
				"element": "H" 
			},
			{
				"x": 3.7156543994,
				"y": 3.357693495,
				"z": -0.9216817275,
				"element": "H" 
			},
			{
				"x": 4.3512634643,
				"y": 2.0415075444,
				"z": -1.9065089863,
				"element": "H" 
			},
			{
				"x": 1.7005733064,
				"y": 3.9541534243,
				"z": -3.4900974812,
				"element": "H" 
			},
			{
				"x": 1.491874824,
				"y": -2.703166155,
				"z": -2.2052331796,
				"element": "H" 
			},
			{
				"x": 4.5941151983,
				"y": -3.6850896597,
				"z": -2.3168999483,
				"element": "H" 
			},
			{
				"x": 3.0662745364,
				"y": -4.5184492586,
				"z": -2.6110599195,
				"element": "H" 
			},
			{
				"x": 4.1504921336,
				"y": -5.0749367971,
				"z": -1.3258627278,
				"element": "H" 
			},
			{
				"x": 4.4564454316,
				"y": -3.6391851854,
				"z": 0.7495703777,
				"element": "H" 
			},
			{
				"x": 4.5810422623,
				"y": -2.2585067401,
				"z": 2.8021777751,
				"element": "H" 
			},
			{
				"x": 3.3153441898,
				"y": -1.0735013608,
				"z": 3.1660550518,
				"element": "H" 
			},
			{
				"x": 3.0280156987,
				"y": -2.7900122614,
				"z": 3.450405797,
				"element": "H" 
			},
			{
				"x": 1.3432672031,
				"y": -0.8330565429,
				"z": 1.6632491982,
				"element": "H" 
			},
			{
				"x": -2.1269349496,
				"y": -2.0035633456,
				"z": 0.8365067126,
				"element": "H" 
			},
			{
				"x": -3.0577121453,
				"y": -2.0380381226,
				"z": 4.0251898738,
				"element": "H" 
			},
			{
				"x": -4.4166891373,
				"y": -1.0497803576,
				"z": 3.4911992042,
				"element": "H" 
			},
			{
				"x": -3.844872056,
				"y": -2.3893101504,
				"z": 2.4839445691,
				"element": "H" 
			},
			{
				"x": -2.8177738863,
				"y": 0.9507320944,
				"z": 3.867817844,
				"element": "H" 
			},
			{
				"x": -1.0082928368,
				"y": 3.6289917502,
				"z": 2.1460460845,
				"element": "H" 
			},
			{
				"x": -1.932651174,
				"y": 3.1985549251,
				"z": 3.5944489566,
				"element": "H" 
			},
			{
				"x": -0.2000840552,
				"y": 2.8692547615,
				"z": 3.5163895973,
				"element": "H" 
			},
			{
				"x": -0.0738455177,
				"y": 1.7703294814,
				"z": 0.6742939756,
				"element": "H" 
			}
		],
		 "valence_orbital": [ 
			{
				"type": "occ",
				"energy": -0.24181,
				"method": "rhf"
			},
			{
				"type": "occ",
				"energy": -0.23377,
				"method": "rhf"
			},
			{
				"type": "occ",
				"energy": -0.22871,
				"method": "rhf"
			},
			{
				"type": "occ",
				"energy": -0.22846,
				"method": "rhf"
			},
			{
				"type": "occ",
				"energy": -0.20324,
				"method": "rhf"
			},
			{
				"type": "unocc",
				"energy": -0.01263,
				"method": "rhf"
			},
			{
				"type": "unocc",
				"energy": -0.01221,
				"method": "rhf"
			},
			{
				"type": "unocc",
				"energy": -0.00058,
				"method": "rhf"
			},
			{
				"type": "unocc",
				"energy": 0.00688,
				"method": "rhf"
			},
			{
				"type": "unocc",
				"energy": 0.01128,
				"method": "rhf"
			}
		],
		"cosmo_sigma_profile": { 
			"-0.025": 0.0,
			"-0.024": 0.0,
			"-0.023": 0.0,
			"-0.022": 0.0,
			"-0.021": 0.0,
			"-0.02": 0.0,
			"-0.019": 0.0,
			"-0.018": 0.0,
			"-0.017": 0.0,
			"-0.016": 0.0,
			"-0.015": 0.0,
			"-0.014": 0.0,
			"-0.013": 0.0,
			"-0.012": 0.0,
			"-0.011": 0.0,
			"-0.01": 0.0,
			"-0.009": 0.0,
			"-0.008": 0.0,
			"-0.007": 0.0,
			"-0.006": 0.0,
			"-0.005": 7.8102554282,
			"-0.004": 47.187611848,
			"-0.003": 52.8002487138,
			"-0.002": 51.2944675615,
			"-0.001": 52.6225554592,
			"0.0": 64.961710761,
			"0.001": 43.0249658085,
			"0.002": 24.9665967917,
			"0.003": 23.6915801707,
			"0.004": 26.4720319817,
			"0.005": 20.5353628947,
			"0.006": 15.4953938789,
			"0.007": 2.62399113838,
			"0.008": 0.900545993515,
			"0.009": 0.917153595819,
			"0.01": 0.930695183838,
			"0.011": 0.47439185707,
			"0.012": 0.424227011364,
			"0.013": 0.707292144457,
			"0.014": 0.586714505543,
			"0.015": 0.0,
			"0.016": 0.0,
			"0.017": 0.0,
			"0.018": 0.0,
			"0.019": 0.0,
			"0.02": 0.0,
			"0.021": 0.0,
			"0.022": 0.0,
			"0.023": 0.0,
			"0.024": 0.0,
			"0.025": 0.0
		}
	}
}
