{
	 "smiles": "OC(=O)C1=C(Cl)C=CC(=C1)S(=O)(=O)N1CCC1", 
	 "Tm": 446.15, 
	 "num_atms": 27, 
	 "gaussian": { 
		 "optdone": 1, 
		 "sigma_profile": "yes", 
		 "theory": "DFT", 
		 "functional": "B3LYP", 
		 "basiset": "6-31G**", 
		 "properties": { 
			 "R2extent": 7812.4714, 
			 "electric_dipole_moment_norm": 3.91674502744, 
			 "electric_quadrupole_moment_norm": 25.8851581295, 
			 "total_energy": -1601.01343612, 
			 "HOMO_LUMO_gap": 0.19517, 
			 "cosmo_polarized_energy": -21.2, 
			 "cosmo_cavitation_energy": 34.72, 
			 "cosmo_dispersion_energy": -25.02, 
			 "cosmo_repulsion_energy": 1.93, 
			 "cosmo_total_nonelectrostatic_energy": 11.62, 
			 "SMD_solvation_energy": 4.6 
		},
		"coords": [
			{
				"x": -0.8558791439,
				"y": 5.2159567786,
				"z": -0.0475010042,
				"element": "O" 
			},
			{
				"x": -2.0339251679,
				"y": 4.566276526,
				"z": 0.1448597334,
				"element": "C" 
			},
			{
				"x": -2.8571958011,
				"y": 4.998650494,
				"z": 0.9086461753,
				"element": "O" 
			},
			{
				"x": -2.1774823554,
				"y": 3.2702952734,
				"z": -0.6127758067,
				"element": "C" 
			},
			{
				"x": -3.3755011556,
				"y": 2.8771520797,
				"z": -1.2417416232,
				"element": "C" 
			},
			{
				"x": -4.7662982874,
				"y": 3.9286390216,
				"z": -1.2878027131,
				"element": "Cl" 
			},
			{
				"x": -3.4715207915,
				"y": 1.6445383035,
				"z": -1.889734051,
				"element": "C" 
			},
			{
				"x": -2.3850965125,
				"y": 0.770945255,
				"z": -1.9032505983,
				"element": "C" 
			},
			{
				"x": -1.2039079711,
				"y": 1.1472454785,
				"z": -1.2685709724,
				"element": "C" 
			},
			{
				"x": -1.0926082967,
				"y": 2.3858686514,
				"z": -0.6401968753,
				"element": "C" 
			},
			{
				"x": 0.2174316143,
				"y": 0.050972041,
				"z": -1.2955432623,
				"element": "S" 
			},
			{
				"x": 1.4253298888,
				"y": 0.8605052454,
				"z": -1.487335788,
				"element": "O" 
			},
			{
				"x": -0.1111483277,
				"y": -1.0520969054,
				"z": -2.2102594589,
				"element": "O" 
			},
			{
				"x": 0.2791364562,
				"y": -0.4779010277,
				"z": 0.3062878915,
				"element": "N" 
			},
			{
				"x": 1.5914863896,
				"y": -0.9379300762,
				"z": 0.865621801,
				"element": "C" 
			},
			{
				"x": 0.8166817556,
				"y": -2.0256816213,
				"z": 1.6499139926,
				"element": "C" 
			},
			{
				"x": -0.3932506053,
				"y": -1.7454436235,
				"z": 0.7271128098,
				"element": "C" 
			},
			{
				"x": -0.367166549,
				"y": 4.8211433913,
				"z": -0.7842285286,
				"element": "H" 
			},
			{
				"x": -4.3974863731,
				"y": 1.3774809338,
				"z": -2.3861920554,
				"element": "H" 
			},
			{
				"x": -2.443533329,
				"y": -0.1860809855,
				"z": -2.4097101811,
				"element": "H" 
			},
			{
				"x": -0.1611370087,
				"y": 2.6528806768,
				"z": -0.1509921482,
				"element": "H" 
			},
			{
				"x": 2.1097090058,
				"y": -0.1635666275,
				"z": 1.4345612915,
				"element": "H" 
			},
			{
				"x": 2.2681080025,
				"y": -1.3473607526,
				"z": 0.1087288559,
				"element": "H" 
			},
			{
				"x": 1.2294593473,
				"y": -3.034651654,
				"z": 1.6105804373,
				"element": "H" 
			},
			{
				"x": 0.6314530838,
				"y": -1.7461778112,
				"z": 2.688562642,
				"element": "H" 
			},
			{
				"x": -0.4883020147,
				"y": -2.4606584801,
				"z": -0.0966447053,
				"element": "H" 
			},
			{
				"x": -1.3671558533,
				"y": -1.5849005851,
				"z": 1.1970041417,
				"element": "H" 
			}
		],
		 "valence_orbital": [ 
			{
				"type": "occ",
				"energy": -0.31044,
				"method": "rhf"
			},
			{
				"type": "occ",
				"energy": -0.29876,
				"method": "rhf"
			},
			{
				"type": "occ",
				"energy": -0.28476,
				"method": "rhf"
			},
			{
				"type": "occ",
				"energy": -0.28081,
				"method": "rhf"
			},
			{
				"type": "occ",
				"energy": -0.26449,
				"method": "rhf"
			},
			{
				"type": "unocc",
				"energy": -0.06932,
				"method": "rhf"
			},
			{
				"type": "unocc",
				"energy": -0.05925,
				"method": "rhf"
			},
			{
				"type": "unocc",
				"energy": 0.00961,
				"method": "rhf"
			},
			{
				"type": "unocc",
				"energy": 0.01554,
				"method": "rhf"
			},
			{
				"type": "unocc",
				"energy": 0.04672,
				"method": "rhf"
			}
		],
		"cosmo_sigma_profile": { 
			"-0.025": 0.0,
			"-0.024": 0.0,
			"-0.023": 0.0,
			"-0.022": 0.0,
			"-0.021": 0.0,
			"-0.02": 0.135425569315,
			"-0.019": 0.853582960291,
			"-0.018": 0.744829442311,
			"-0.017": 0.808722451605,
			"-0.016": 1.18370491414,
			"-0.015": 1.29966204009,
			"-0.014": 0.882582536917,
			"-0.013": 1.2005448864,
			"-0.012": 1.51180069702,
			"-0.011": 0.715208425184,
			"-0.01": 1.08901067328,
			"-0.009": 4.04130416975,
			"-0.008": 6.32090612354,
			"-0.007": 4.81891753684,
			"-0.006": 9.05238946081,
			"-0.005": 21.2889199389,
			"-0.004": 24.7158594654,
			"-0.003": 24.1124175395,
			"-0.002": 23.6574819235,
			"-0.001": 25.4662981322,
			"0.0": 17.066323119,
			"0.001": 11.9310867474,
			"0.002": 10.3903910415,
			"0.003": 12.9068300721,
			"0.004": 7.34864908528,
			"0.005": 6.63295578054,
			"0.006": 6.1879619746,
			"0.007": 7.06606634718,
			"0.008": 6.64381508407,
			"0.009": 9.53859585347,
			"0.01": 12.9193451345,
			"0.011": 13.1973083797,
			"0.012": 3.43877323841,
			"0.013": 0.0147890593817,
			"0.014": 0.0,
			"0.015": 0.0,
			"0.016": 0.0,
			"0.017": 0.0,
			"0.018": 0.0,
			"0.019": 0.0,
			"0.02": 0.0,
			"0.021": 0.0,
			"0.022": 0.0,
			"0.023": 0.0,
			"0.024": 0.0,
			"0.025": 0.0
		}
	}
}
