{
	 "smiles": "CC(C(O)=O)S(C)(=O)=O", 
	 "Tm": 360.15, 
	 "num_atms": 17, 
	 "gaussian": { 
		 "optdone": 1, 
		 "sigma_profile": "yes", 
		 "theory": "DFT", 
		 "functional": "B3LYP", 
		 "basiset": "6-31G**", 
		 "properties": { 
			 "R2extent": 1380.8236, 
			 "electric_dipole_moment_norm": 3.7534038605, 
			 "electric_quadrupole_moment_norm": 9.89943121396, 
			 "total_energy": -856.283558174, 
			 "HOMO_LUMO_gap": 0.2599, 
			 "cosmo_polarized_energy": -17.33, 
			 "cosmo_cavitation_energy": 21.97, 
			 "cosmo_dispersion_energy": -16.32, 
			 "cosmo_repulsion_energy": 1.3, 
			 "cosmo_total_nonelectrostatic_energy": 6.94, 
			 "SMD_solvation_energy": 4.7 
		},
		"coords": [
			{
				"x": 0.5217421538,
				"y": 1.8643034093,
				"z": 0.0841509144,
				"element": "C" 
			},
			{
				"x": -0.240628789,
				"y": 0.6433012249,
				"z": -0.4339840498,
				"element": "C" 
			},
			{
				"x": -1.744681927,
				"y": 0.8475124413,
				"z": -0.4190546082,
				"element": "C" 
			},
			{
				"x": -2.2934392123,
				"y": 0.647379283,
				"z": -1.628725473,
				"element": "O" 
			},
			{
				"x": -2.3820865038,
				"y": 1.1679066518,
				"z": 0.5628909751,
				"element": "O" 
			},
			{
				"x": 0.1747110703,
				"y": -0.8924151975,
				"z": 0.5140544546,
				"element": "S" 
			},
			{
				"x": -0.2333974332,
				"y": -0.5217475307,
				"z": 2.2341976458,
				"element": "C" 
			},
			{
				"x": 1.6322773152,
				"y": -1.0592359025,
				"z": 0.4092929795,
				"element": "O" 
			},
			{
				"x": -0.741250691,
				"y": -1.9413034596,
				"z": 0.0420204574,
				"element": "O" 
			},
			{
				"x": 1.5853272121,
				"y": 1.6316178799,
				"z": 0.1715626714,
				"element": "H" 
			},
			{
				"x": 0.1337744178,
				"y": 2.1865686124,
				"z": 1.0533295741,
				"element": "H" 
			},
			{
				"x": 0.4075170583,
				"y": 2.6957914371,
				"z": -0.6176307477,
				"element": "H" 
			},
			{
				"x": 0.0847500495,
				"y": 0.3678042844,
				"z": -1.4407320748,
				"element": "H" 
			},
			{
				"x": -3.2529325021,
				"y": 0.7735840477,
				"z": -1.5273349238,
				"element": "H" 
			},
			{
				"x": -0.1198491048,
				"y": -1.4684528966,
				"z": 2.7656131023,
				"element": "H" 
			},
			{
				"x": 0.4683913754,
				"y": 0.2170559948,
				"z": 2.6214121794,
				"element": "H" 
			},
			{
				"x": -1.2608244892,
				"y": -0.1618702798,
				"z": 2.2854369233,
				"element": "H" 
			}
		],
		 "valence_orbital": [ 
			{
				"type": "occ",
				"energy": -0.32839,
				"method": "rhf"
			},
			{
				"type": "occ",
				"energy": -0.31894,
				"method": "rhf"
			},
			{
				"type": "occ",
				"energy": -0.30464,
				"method": "rhf"
			},
			{
				"type": "occ",
				"energy": -0.29731,
				"method": "rhf"
			},
			{
				"type": "occ",
				"energy": -0.28925,
				"method": "rhf"
			},
			{
				"type": "unocc",
				"energy": -0.02935,
				"method": "rhf"
			},
			{
				"type": "unocc",
				"energy": 0.05827,
				"method": "rhf"
			},
			{
				"type": "unocc",
				"energy": 0.06167,
				"method": "rhf"
			},
			{
				"type": "unocc",
				"energy": 0.0722,
				"method": "rhf"
			},
			{
				"type": "unocc",
				"energy": 0.0763,
				"method": "rhf"
			}
		],
		"cosmo_sigma_profile": { 
			"-0.025": 0.0,
			"-0.024": 0.0,
			"-0.023": 0.0,
			"-0.022": 0.0,
			"-0.021": 0.0,
			"-0.02": 0.0762772151144,
			"-0.019": 0.894599437875,
			"-0.018": 0.844904627867,
			"-0.017": 0.766215831594,
			"-0.016": 1.25891296788,
			"-0.015": 0.577927113498,
			"-0.014": 0.433705409582,
			"-0.013": 0.941589659023,
			"-0.012": 0.877948704383,
			"-0.011": 0.440472754902,
			"-0.01": 1.66641551291,
			"-0.009": 4.13070715718,
			"-0.008": 6.99134431347,
			"-0.007": 9.9471695853,
			"-0.006": 10.3637254162,
			"-0.005": 12.3242338167,
			"-0.004": 13.307916618,
			"-0.003": 12.867414942,
			"-0.002": 10.0107794184,
			"-0.001": 6.65796959907,
			"0.0": 4.89261396312,
			"0.001": 5.69759901242,
			"0.002": 4.9284946815,
			"0.003": 4.18835010628,
			"0.004": 4.17292616672,
			"0.005": 5.09299826419,
			"0.006": 5.07525159156,
			"0.007": 4.78863520966,
			"0.008": 5.4216548609,
			"0.009": 5.29854047148,
			"0.01": 9.5044176824,
			"0.011": 12.002839949,
			"0.012": 6.37684179283,
			"0.013": 0.0402346570165,
			"0.014": 0.0,
			"0.015": 0.0,
			"0.016": 0.0,
			"0.017": 0.0,
			"0.018": 0.0,
			"0.019": 0.0,
			"0.02": 0.0,
			"0.021": 0.0,
			"0.022": 0.0,
			"0.023": 0.0,
			"0.024": 0.0,
			"0.025": 0.0
		}
	}
}
