{
	 "smiles": "OC(=O)CCC1=NC(CC2=CC=CC=C2)=NO1", 
	 "Tm": 340.15, 
	 "num_atms": 29, 
	 "gaussian": { 
		 "optdone": 1, 
		 "sigma_profile": "yes", 
		 "theory": "DFT", 
		 "functional": "B3LYP", 
		 "basiset": "6-31G**", 
		 "properties": { 
			 "R2extent": 5019.7051, 
			 "electric_dipole_moment_norm": 2.8752443844, 
			 "electric_quadrupole_moment_norm": 14.2918952078, 
			 "total_energy": -799.671562567, 
			 "HOMO_LUMO_gap": 0.22193, 
			 "cosmo_polarized_energy": -16.23, 
			 "cosmo_cavitation_energy": 34.74, 
			 "cosmo_dispersion_energy": -23.57, 
			 "cosmo_repulsion_energy": 1.89, 
			 "cosmo_total_nonelectrostatic_energy": 13.05, 
			 "SMD_solvation_energy": 5.03 
		},
		"coords": [
			{
				"x": 3.4333344334,
				"y": 2.6339807494,
				"z": -1.4660797162,
				"element": "O" 
			},
			{
				"x": 3.2840689097,
				"y": 1.3607975081,
				"z": -1.8938516136,
				"element": "C" 
			},
			{
				"x": 2.644687595,
				"y": 1.0661507216,
				"z": -2.8794749942,
				"element": "O" 
			},
			{
				"x": 4.032284298,
				"y": 0.3859012218,
				"z": -1.0074132249,
				"element": "C" 
			},
			{
				"x": 3.7010989493,
				"y": -1.0669215586,
				"z": -1.3501072042,
				"element": "C" 
			},
			{
				"x": 2.3097627871,
				"y": -1.436473897,
				"z": -0.9474789921,
				"element": "C" 
			},
			{
				"x": 1.5431441936,
				"y": -0.857958058,
				"z": -0.0697301323,
				"element": "N" 
			},
			{
				"x": 0.4122911647,
				"y": -1.6493537976,
				"z": -0.0993261753,
				"element": "C" 
			},
			{
				"x": -0.804580837,
				"y": -1.3838906549,
				"z": 0.7356922415,
				"element": "C" 
			},
			{
				"x": -1.5679901649,
				"y": -0.1445716029,
				"z": 0.2921879988,
				"element": "C" 
			},
			{
				"x": -1.7007620658,
				"y": 0.95834816,
				"z": 1.141359454,
				"element": "C" 
			},
			{
				"x": -2.4162501287,
				"y": 2.0871715737,
				"z": 0.7354907536,
				"element": "C" 
			},
			{
				"x": -3.0045419791,
				"y": 2.1252077757,
				"z": -0.5287869222,
				"element": "C" 
			},
			{
				"x": -2.8731057088,
				"y": 1.0290188749,
				"z": -1.3852408966,
				"element": "C" 
			},
			{
				"x": -2.1596481238,
				"y": -0.097144051,
				"z": -0.977317674,
				"element": "C" 
			},
			{
				"x": 0.472373588,
				"y": -2.6559911939,
				"z": -0.9352244029,
				"element": "N" 
			},
			{
				"x": 1.7516690589,
				"y": -2.5170621874,
				"z": -1.5140723372,
				"element": "O" 
			},
			{
				"x": 2.9319041958,
				"y": 3.19009395,
				"z": -2.0859763127,
				"element": "H" 
			},
			{
				"x": 5.1048049113,
				"y": 0.5724383579,
				"z": -1.1362518603,
				"element": "H" 
			},
			{
				"x": 3.7941144688,
				"y": 0.6110221728,
				"z": 0.0356755269,
				"element": "H" 
			},
			{
				"x": 3.8094240687,
				"y": -1.2429306451,
				"z": -2.4237215421,
				"element": "H" 
			},
			{
				"x": 4.4015239873,
				"y": -1.7383237627,
				"z": -0.8384342878,
				"element": "H" 
			},
			{
				"x": -0.4893101891,
				"y": -1.2699145247,
				"z": 1.77772916,
				"element": "H" 
			},
			{
				"x": -1.4476245344,
				"y": -2.2681692059,
				"z": 0.6787033585,
				"element": "H" 
			},
			{
				"x": -1.2419151075,
				"y": 0.9343289066,
				"z": 2.1265477618,
				"element": "H" 
			},
			{
				"x": -2.5117979944,
				"y": 2.935309596,
				"z": 1.407724502,
				"element": "H" 
			},
			{
				"x": -3.5616478534,
				"y": 3.002095368,
				"z": -0.8461056209,
				"element": "H" 
			},
			{
				"x": -3.3268980543,
				"y": 1.0512007023,
				"z": -2.3720320118,
				"element": "H" 
			},
			{
				"x": -2.0539138683,
				"y": -0.9462604992,
				"z": -1.6478848359,
				"element": "H" 
			}
		],
		 "valence_orbital": [ 
			{
				"type": "occ",
				"energy": -0.29322,
				"method": "rhf"
			},
			{
				"type": "occ",
				"energy": -0.28404,
				"method": "rhf"
			},
			{
				"type": "occ",
				"energy": -0.27796,
				"method": "rhf"
			},
			{
				"type": "occ",
				"energy": -0.24784,
				"method": "rhf"
			},
			{
				"type": "occ",
				"energy": -0.24241,
				"method": "rhf"
			},
			{
				"type": "unocc",
				"energy": -0.02048,
				"method": "rhf"
			},
			{
				"type": "unocc",
				"energy": -0.00121,
				"method": "rhf"
			},
			{
				"type": "unocc",
				"energy": 0.00376,
				"method": "rhf"
			},
			{
				"type": "unocc",
				"energy": 0.00614,
				"method": "rhf"
			},
			{
				"type": "unocc",
				"energy": 0.04305,
				"method": "rhf"
			}
		],
		"cosmo_sigma_profile": { 
			"-0.025": 0.0,
			"-0.024": 0.0,
			"-0.023": 0.0,
			"-0.022": 0.0,
			"-0.021": 0.0,
			"-0.02": 0.0,
			"-0.019": 0.0305031171114,
			"-0.018": 1.01290564661,
			"-0.017": 0.767642297127,
			"-0.016": 0.942985312245,
			"-0.015": 0.77875210353,
			"-0.014": 0.388951265285,
			"-0.013": 0.425029813436,
			"-0.012": 1.01431022079,
			"-0.011": 1.21079490918,
			"-0.01": 0.515084524179,
			"-0.009": 0.527618931879,
			"-0.008": 3.1253877955,
			"-0.007": 9.30165319679,
			"-0.006": 18.6533693537,
			"-0.005": 24.2724571208,
			"-0.004": 24.8076355056,
			"-0.003": 20.8857580095,
			"-0.002": 18.0822734089,
			"-0.001": 15.6154968557,
			"0.0": 12.5819830081,
			"0.001": 13.0558371842,
			"0.002": 13.4840865303,
			"0.003": 13.9442075929,
			"0.004": 14.4966578012,
			"0.005": 16.2673684504,
			"0.006": 15.7524250651,
			"0.007": 7.64777746217,
			"0.008": 5.17254131245,
			"0.009": 5.283573693,
			"0.01": 4.88403355693,
			"0.011": 5.51575189789,
			"0.012": 4.4158075308,
			"0.013": 1.27695894618,
			"0.014": 0.155093477522,
			"0.015": 0.0,
			"0.016": 0.0,
			"0.017": 0.0,
			"0.018": 0.0,
			"0.019": 0.0,
			"0.02": 0.0,
			"0.021": 0.0,
			"0.022": 0.0,
			"0.023": 0.0,
			"0.024": 0.0,
			"0.025": 0.0
		}
	}
}
