{
	 "smiles": "OC(=O)C1=CC=C(CN2CCCCC2)C=C1", 
	 "Tm": 563.15, 
	 "num_atms": 33, 
	 "gaussian": { 
		 "optdone": 1, 
		 "sigma_profile": "yes", 
		 "theory": "DFT", 
		 "functional": "B3LYP", 
		 "basiset": "6-31G**", 
		 "properties": { 
			 "R2extent": 6616.6286, 
			 "electric_dipole_moment_norm": 5.77752725394, 
			 "electric_quadrupole_moment_norm": 29.9235410253, 
			 "total_energy": -710.832186801, 
			 "HOMO_LUMO_gap": 0.16559, 
			 "cosmo_polarized_energy": -13.94, 
			 "cosmo_cavitation_energy": 34.55, 
			 "cosmo_dispersion_energy": -25.01, 
			 "cosmo_repulsion_energy": 1.95, 
			 "cosmo_total_nonelectrostatic_energy": 11.5, 
			 "SMD_solvation_energy": 4.94 
		},
		"coords": [
			{
				"x": 4.8214037998,
				"y": -2.335456187,
				"z": -3.8544986131,
				"element": "O" 
			},
			{
				"x": 3.5962617212,
				"y": -2.9097933817,
				"z": -3.7014449699,
				"element": "C" 
			},
			{
				"x": 3.4048707686,
				"y": -4.0329205842,
				"z": -4.1062073806,
				"element": "O" 
			},
			{
				"x": 2.5443598401,
				"y": -2.0837950891,
				"z": -3.0274214936,
				"element": "C" 
			},
			{
				"x": 1.2064653092,
				"y": -2.4589270725,
				"z": -3.2057786531,
				"element": "C" 
			},
			{
				"x": 0.186272883,
				"y": -1.733094107,
				"z": -2.5985127809,
				"element": "C" 
			},
			{
				"x": 0.4730237854,
				"y": -0.6236707246,
				"z": -1.7916971221,
				"element": "C" 
			},
			{
				"x": -0.6475287291,
				"y": 0.1983444517,
				"z": -1.1791783038,
				"element": "C" 
			},
			{
				"x": -0.323542063,
				"y": 0.7426821837,
				"z": 0.1325325981,
				"element": "N" 
			},
			{
				"x": -1.1836902139,
				"y": 1.8868964658,
				"z": 0.4725031974,
				"element": "C" 
			},
			{
				"x": -1.074922443,
				"y": 2.2187948729,
				"z": 1.9610784265,
				"element": "C" 
			},
			{
				"x": -1.6414378796,
				"y": 1.0674676931,
				"z": 2.8262038751,
				"element": "C" 
			},
			{
				"x": -1.4825982341,
				"y": -0.2932555492,
				"z": 2.1096671851,
				"element": "C" 
			},
			{
				"x": -0.2453747713,
				"y": -0.2801939035,
				"z": 1.2021801375,
				"element": "C" 
			},
			{
				"x": 1.8128320573,
				"y": -0.265359744,
				"z": -1.5941046647,
				"element": "C" 
			},
			{
				"x": 2.8365642606,
				"y": -0.9854798949,
				"z": -2.2042951211,
				"element": "C" 
			},
			{
				"x": 4.7766764114,
				"y": -1.3952921927,
				"z": -3.6324878624,
				"element": "H" 
			},
			{
				"x": 0.9909927114,
				"y": -3.3262240708,
				"z": -3.8206460638,
				"element": "H" 
			},
			{
				"x": -0.8481735226,
				"y": -2.033144432,
				"z": -2.7472809983,
				"element": "H" 
			},
			{
				"x": -0.8455348729,
				"y": 1.0511014004,
				"z": -1.843862871,
				"element": "H" 
			},
			{
				"x": -1.5788204114,
				"y": -0.4018371045,
				"z": -1.1797601385,
				"element": "H" 
			},
			{
				"x": -2.2468895846,
				"y": 1.6917490549,
				"z": 0.2290562958,
				"element": "H" 
			},
			{
				"x": -0.8777436568,
				"y": 2.7441283711,
				"z": -0.1407478711,
				"element": "H" 
			},
			{
				"x": -0.018412405,
				"y": 2.3908125343,
				"z": 2.1987921212,
				"element": "H" 
			},
			{
				"x": -1.5998848852,
				"y": 3.1566180961,
				"z": 2.1703360711,
				"element": "H" 
			},
			{
				"x": -1.1248005882,
				"y": 1.0479413056,
				"z": 3.7925027779,
				"element": "H" 
			},
			{
				"x": -2.7003692319,
				"y": 1.2462261829,
				"z": 3.0452553068,
				"element": "H" 
			},
			{
				"x": -2.3699654156,
				"y": -0.5049398027,
				"z": 1.500060854,
				"element": "H" 
			},
			{
				"x": -1.4064551969,
				"y": -1.1101425193,
				"z": 2.8359196095,
				"element": "H" 
			},
			{
				"x": -0.0970386855,
				"y": -1.2586285112,
				"z": 0.7356207022,
				"element": "H" 
			},
			{
				"x": 0.64809926,
				"y": -0.0955375982,
				"z": 1.8148917172,
				"element": "H" 
			},
			{
				"x": 2.0354683357,
				"y": 0.57225675,
				"z": -0.9411908657,
				"element": "H" 
			},
			{
				"x": 3.8669916466,
				"y": -0.7045268934,
				"z": -1.9963851019,
				"element": "H" 
			}
		],
		 "valence_orbital": [ 
			{
				"type": "occ",
				"energy": -0.31028,
				"method": "rhf"
			},
			{
				"type": "occ",
				"energy": -0.27004,
				"method": "rhf"
			},
			{
				"type": "occ",
				"energy": -0.26548,
				"method": "rhf"
			},
			{
				"type": "occ",
				"energy": -0.25501,
				"method": "rhf"
			},
			{
				"type": "occ",
				"energy": -0.21143,
				"method": "rhf"
			},
			{
				"type": "unocc",
				"energy": -0.04584,
				"method": "rhf"
			},
			{
				"type": "unocc",
				"energy": -0.01708,
				"method": "rhf"
			},
			{
				"type": "unocc",
				"energy": 0.04984,
				"method": "rhf"
			},
			{
				"type": "unocc",
				"energy": 0.06688,
				"method": "rhf"
			},
			{
				"type": "unocc",
				"energy": 0.06979,
				"method": "rhf"
			}
		],
		"cosmo_sigma_profile": { 
			"-0.025": 0.0,
			"-0.024": 0.0,
			"-0.023": 0.0,
			"-0.022": 0.0,
			"-0.021": 0.0,
			"-0.02": 0.0,
			"-0.019": 0.144507013434,
			"-0.018": 0.569478671915,
			"-0.017": 1.39996752748,
			"-0.016": 0.509575013362,
			"-0.015": 0.835590868587,
			"-0.014": 0.736176141937,
			"-0.013": 1.01428834129,
			"-0.012": 1.41306073596,
			"-0.011": 1.46494900613,
			"-0.01": 0.968305438625,
			"-0.009": 0.916151626327,
			"-0.008": 1.3198880497,
			"-0.007": 2.03494657223,
			"-0.006": 4.52374543984,
			"-0.005": 9.23445905802,
			"-0.004": 11.6491560785,
			"-0.003": 21.6728463078,
			"-0.002": 38.6343949011,
			"-0.001": 45.2522802972,
			"0.0": 30.2810134009,
			"0.001": 22.3763693405,
			"0.002": 13.2615763838,
			"0.003": 13.4224476779,
			"0.004": 11.2532890828,
			"0.005": 3.56644503898,
			"0.006": 3.54920459232,
			"0.007": 2.73310992904,
			"0.008": 3.34111364501,
			"0.009": 4.29295909511,
			"0.01": 4.41916967947,
			"0.011": 6.07031966087,
			"0.012": 5.59083266368,
			"0.013": 2.0052750195,
			"0.014": 0.124334181807,
			"0.015": 0.0,
			"0.016": 0.0,
			"0.017": 0.0,
			"0.018": 0.0,
			"0.019": 0.0,
			"0.02": 0.0,
			"0.021": 0.0,
			"0.022": 0.0,
			"0.023": 0.0,
			"0.024": 0.0,
			"0.025": 0.0
		}
	}
}
