{
	 "smiles": "COC1=CC=C(C=C1)C1=CSC2=C1C(Cl)=NC=N2", 
	 "Tm": 438.15, 
	 "num_atms": 27, 
	 "gaussian": { 
		 "optdone": 1, 
		 "sigma_profile": "yes", 
		 "theory": "DFT", 
		 "functional": "B3LYP", 
		 "basiset": "6-31G**", 
		 "properties": { 
			 "R2extent": 6676.8572, 
			 "electric_dipole_moment_norm": 3.43549700335, 
			 "electric_quadrupole_moment_norm": 7.44411550354, 
			 "total_energy": -1543.89553097, 
			 "HOMO_LUMO_gap": 0.15964, 
			 "cosmo_polarized_energy": -10.13, 
			 "cosmo_cavitation_energy": 34.93, 
			 "cosmo_dispersion_energy": -25.82, 
			 "cosmo_repulsion_energy": 1.93, 
			 "cosmo_total_nonelectrostatic_energy": 11.04, 
			 "SMD_solvation_energy": 3.07 
		},
		"coords": [
			{
				"x": 0.6264954531,
				"y": 0.6586919473,
				"z": -4.7761055987,
				"element": "C" 
			},
			{
				"x": 0.1828169897,
				"y": 1.668794392,
				"z": -3.8829021866,
				"element": "O" 
			},
			{
				"x": -0.0983548732,
				"y": 1.3173167043,
				"z": -2.5965754774,
				"element": "C" 
			},
			{
				"x": 0.0046825189,
				"y": 0.0173270397,
				"z": -2.0842960157,
				"element": "C" 
			},
			{
				"x": -0.307926158,
				"y": -0.2252457899,
				"z": -0.746622364,
				"element": "C" 
			},
			{
				"x": -0.7220969099,
				"y": 0.8054985011,
				"z": 0.1054990461,
				"element": "C" 
			},
			{
				"x": -0.826387628,
				"y": 2.1022401412,
				"z": -0.4278483259,
				"element": "C" 
			},
			{
				"x": -0.5187446943,
				"y": 2.3592376061,
				"z": -1.7572104199,
				"element": "C" 
			},
			{
				"x": -1.127191048,
				"y": 0.5399313098,
				"z": 1.5094026656,
				"element": "C" 
			},
			{
				"x": -2.393076008,
				"y": 0.8212601507,
				"z": 1.9435187325,
				"element": "C" 
			},
			{
				"x": -2.7222694431,
				"y": 0.4068562675,
				"z": 3.6055089561,
				"element": "S" 
			},
			{
				"x": -1.087228953,
				"y": -0.1895273134,
				"z": 3.7839846822,
				"element": "C" 
			},
			{
				"x": -0.3374276749,
				"y": -0.0384124688,
				"z": 2.5837497123,
				"element": "C" 
			},
			{
				"x": 1.0085782352,
				"y": -0.4327041721,
				"z": 2.7386951461,
				"element": "C" 
			},
			{
				"x": 2.1780302273,
				"y": -0.2276859299,
				"z": 1.4475150526,
				"element": "Cl" 
			},
			{
				"x": 1.4839144331,
				"y": -0.946114231,
				"z": 3.8554537553,
				"element": "N" 
			},
			{
				"x": 0.64135682,
				"y": -1.0681871058,
				"z": 4.895800657,
				"element": "C" 
			},
			{
				"x": -0.6338990859,
				"y": -0.6952471549,
				"z": 4.9300528485,
				"element": "N" 
			},
			{
				"x": 0.7987455949,
				"y": 1.1564010943,
				"z": -5.7315150888,
				"element": "H" 
			},
			{
				"x": 1.5628080354,
				"y": 0.1992495558,
				"z": -4.4345680991,
				"element": "H" 
			},
			{
				"x": -0.1301264855,
				"y": -0.1251402671,
				"z": -4.9095870785,
				"element": "H" 
			},
			{
				"x": 0.3198183283,
				"y": -0.8074273607,
				"z": -2.7121526254,
				"element": "H" 
			},
			{
				"x": -0.2328129839,
				"y": -1.2389401272,
				"z": -0.3653155955,
				"element": "H" 
			},
			{
				"x": -1.1395208393,
				"y": 2.918655063,
				"z": 0.2163713295,
				"element": "H" 
			},
			{
				"x": -0.5897698906,
				"y": 3.3605897929,
				"z": -2.1688506126,
				"element": "H" 
			},
			{
				"x": -3.1870285474,
				"y": 1.2374651833,
				"z": 1.3380073818,
				"element": "H" 
			},
			{
				"x": 1.0549145869,
				"y": -1.5045828283,
				"z": 5.8010895226,
				"element": "H" 
			}
		],
		 "valence_orbital": [ 
			{
				"type": "occ",
				"energy": -0.27789,
				"method": "rhf"
			},
			{
				"type": "occ",
				"energy": -0.27086,
				"method": "rhf"
			},
			{
				"type": "occ",
				"energy": -0.25804,
				"method": "rhf"
			},
			{
				"type": "occ",
				"energy": -0.24956,
				"method": "rhf"
			},
			{
				"type": "occ",
				"energy": -0.21838,
				"method": "rhf"
			},
			{
				"type": "unocc",
				"energy": -0.05874,
				"method": "rhf"
			},
			{
				"type": "unocc",
				"energy": -0.04082,
				"method": "rhf"
			},
			{
				"type": "unocc",
				"energy": -0.01343,
				"method": "rhf"
			},
			{
				"type": "unocc",
				"energy": -0.00794,
				"method": "rhf"
			},
			{
				"type": "unocc",
				"energy": 0.00794,
				"method": "rhf"
			}
		],
		"cosmo_sigma_profile": { 
			"-0.025": 0.0,
			"-0.024": 0.0,
			"-0.023": 0.0,
			"-0.022": 0.0,
			"-0.021": 0.0,
			"-0.02": 0.0,
			"-0.019": 0.0,
			"-0.018": 0.0,
			"-0.017": 0.0,
			"-0.016": 0.0,
			"-0.015": 0.0,
			"-0.014": 0.0,
			"-0.013": 0.0,
			"-0.012": 0.0,
			"-0.011": 0.0,
			"-0.01": 0.801615410983,
			"-0.009": 2.38305296987,
			"-0.008": 3.69164161007,
			"-0.007": 4.45444087476,
			"-0.006": 12.7673542855,
			"-0.005": 20.8265665328,
			"-0.004": 21.6907235332,
			"-0.003": 24.1397465522,
			"-0.002": 24.4142795875,
			"-0.001": 21.5810145437,
			"0.0": 23.7654563347,
			"0.001": 23.837383826,
			"0.002": 20.9784457693,
			"0.003": 20.5449375324,
			"0.004": 19.7376946547,
			"0.005": 14.7625243681,
			"0.006": 6.63462639761,
			"0.007": 3.36348045334,
			"0.008": 2.83277324977,
			"0.009": 3.48097254566,
			"0.01": 3.51883451941,
			"0.011": 1.94996719689,
			"0.012": 2.03913544537,
			"0.013": 1.15488179321,
			"0.014": 0.386205522991,
			"0.015": 0.0,
			"0.016": 0.0,
			"0.017": 0.0,
			"0.018": 0.0,
			"0.019": 0.0,
			"0.02": 0.0,
			"0.021": 0.0,
			"0.022": 0.0,
			"0.023": 0.0,
			"0.024": 0.0,
			"0.025": 0.0
		}
	}
}
