{
	 "smiles": "COC1=CC=C(C=C1)N1N=C(C=C1C)C(O)=O", 
	 "Tm": 423.15, 
	 "num_atms": 29, 
	 "gaussian": { 
		 "optdone": 1, 
		 "sigma_profile": "yes", 
		 "theory": "DFT", 
		 "functional": "B3LYP", 
		 "basiset": "6-31G**", 
		 "properties": { 
			 "R2extent": 6023.7224, 
			 "electric_dipole_moment_norm": 7.92808979957, 
			 "electric_quadrupole_moment_norm": 32.7318075326, 
			 "total_energy": -799.67277096, 
			 "HOMO_LUMO_gap": 0.19273, 
			 "cosmo_polarized_energy": -16.02, 
			 "cosmo_cavitation_energy": 33.87, 
			 "cosmo_dispersion_energy": -24.38, 
			 "cosmo_repulsion_energy": 1.89, 
			 "cosmo_total_nonelectrostatic_energy": 11.38, 
			 "SMD_solvation_energy": 7.32 
		},
		"coords": [
			{
				"x": 4.9395926456,
				"y": 0.0597222627,
				"z": -2.0410888631,
				"element": "C" 
			},
			{
				"x": 3.7578447717,
				"y": 0.846584808,
				"z": -1.9863725612,
				"element": "O" 
			},
			{
				"x": 2.6420820389,
				"y": 0.3015198639,
				"z": -1.430040541,
				"element": "C" 
			},
			{
				"x": 2.5621589321,
				"y": -0.9972803129,
				"z": -0.9094061879,
				"element": "C" 
			},
			{
				"x": 1.3602335822,
				"y": -1.4558225619,
				"z": -0.3706150746,
				"element": "C" 
			},
			{
				"x": 0.239183572,
				"y": -0.6265342311,
				"z": -0.3358991816,
				"element": "C" 
			},
			{
				"x": 0.3239412182,
				"y": 0.6785003844,
				"z": -0.8373073985,
				"element": "C" 
			},
			{
				"x": 1.5131381655,
				"y": 1.134464058,
				"z": -1.3894542752,
				"element": "C" 
			},
			{
				"x": -0.9724753631,
				"y": -1.1134364231,
				"z": 0.2392032631,
				"element": "N" 
			},
			{
				"x": -0.9238671326,
				"y": -1.7757688335,
				"z": 1.4160035086,
				"element": "N" 
			},
			{
				"x": -2.1834801074,
				"y": -2.1428451554,
				"z": 1.6619907577,
				"element": "C" 
			},
			{
				"x": -3.0560023247,
				"y": -1.724139552,
				"z": 0.6381485062,
				"element": "C" 
			},
			{
				"x": -2.2533290875,
				"y": -1.0665857427,
				"z": -0.2743520729,
				"element": "C" 
			},
			{
				"x": -2.6052662541,
				"y": -0.4459536793,
				"z": -1.5896135397,
				"element": "C" 
			},
			{
				"x": -2.5004553021,
				"y": -2.8959837025,
				"z": 2.9012646782,
				"element": "C" 
			},
			{
				"x": -1.4324406101,
				"y": -3.1300726892,
				"z": 3.6978952942,
				"element": "O" 
			},
			{
				"x": -3.6127082414,
				"y": -3.2754714993,
				"z": 3.1875743689,
				"element": "O" 
			},
			{
				"x": 5.2803538844,
				"y": -0.2268727806,
				"z": -1.0382383476,
				"element": "H" 
			},
			{
				"x": 5.6966276573,
				"y": 0.6880704893,
				"z": -2.5118808208,
				"element": "H" 
			},
			{
				"x": 4.7947840978,
				"y": -0.8449997485,
				"z": -2.6449542203,
				"element": "H" 
			},
			{
				"x": 3.4195142094,
				"y": -1.6590055265,
				"z": -0.9240979166,
				"element": "H" 
			},
			{
				"x": 1.2882301574,
				"y": -2.4598704858,
				"z": 0.0320199951,
				"element": "H" 
			},
			{
				"x": -0.5313005664,
				"y": 1.342134259,
				"z": -0.7756440912,
				"element": "H" 
			},
			{
				"x": 1.5982624627,
				"y": 2.142410152,
				"z": -1.7809508869,
				"element": "H" 
			},
			{
				"x": -4.1197702774,
				"y": -1.894393609,
				"z": 0.5774337537,
				"element": "H" 
			},
			{
				"x": -2.7257071713,
				"y": 0.6410106296,
				"z": -1.5193967967,
				"element": "H" 
			},
			{
				"x": -1.8422761837,
				"y": -0.645231792,
				"z": -2.3476952819,
				"element": "H" 
			},
			{
				"x": -3.5538216433,
				"y": -0.8589243893,
				"z": -1.9400904905,
				"element": "H" 
			},
			{
				"x": -0.65194713,
				"y": -2.7289241925,
				"z": 3.2748644227,
				"element": "H" 
			}
		],
		 "valence_orbital": [ 
			{
				"type": "occ",
				"energy": -0.27653,
				"method": "rhf"
			},
			{
				"type": "occ",
				"energy": -0.27248,
				"method": "rhf"
			},
			{
				"type": "occ",
				"energy": -0.26071,
				"method": "rhf"
			},
			{
				"type": "occ",
				"energy": -0.25541,
				"method": "rhf"
			},
			{
				"type": "occ",
				"energy": -0.2288,
				"method": "rhf"
			},
			{
				"type": "unocc",
				"energy": -0.03607,
				"method": "rhf"
			},
			{
				"type": "unocc",
				"energy": -0.02344,
				"method": "rhf"
			},
			{
				"type": "unocc",
				"energy": -0.00477,
				"method": "rhf"
			},
			{
				"type": "unocc",
				"energy": 0.02717,
				"method": "rhf"
			},
			{
				"type": "unocc",
				"energy": 0.07317,
				"method": "rhf"
			}
		],
		"cosmo_sigma_profile": { 
			"-0.025": 0.0,
			"-0.024": 0.0,
			"-0.023": 0.0,
			"-0.022": 0.0,
			"-0.021": 0.0,
			"-0.02": 0.0,
			"-0.019": 0.0,
			"-0.018": 0.0,
			"-0.017": 0.0,
			"-0.016": 0.0,
			"-0.015": 0.0454021369679,
			"-0.014": 0.451469729645,
			"-0.013": 0.589834209103,
			"-0.012": 0.434580888867,
			"-0.011": 0.885505290942,
			"-0.01": 0.313351350153,
			"-0.009": 0.463886245319,
			"-0.008": 1.64131697919,
			"-0.007": 9.02651835912,
			"-0.006": 19.5488570588,
			"-0.005": 24.031282464,
			"-0.004": 21.3183110956,
			"-0.003": 23.4655757938,
			"-0.002": 21.2846594403,
			"-0.001": 18.1964417936,
			"0.0": 14.8270052769,
			"0.001": 15.0741646823,
			"0.002": 17.9516287223,
			"0.003": 21.3334723029,
			"0.004": 14.3357844429,
			"0.005": 6.38891549041,
			"0.006": 4.71825299588,
			"0.007": 4.44223997839,
			"0.008": 5.51639259293,
			"0.009": 5.3539790103,
			"0.01": 5.54896678422,
			"0.011": 5.38140559796,
			"0.012": 5.56575633119,
			"0.013": 2.0489345376,
			"0.014": 0.167421281346,
			"0.015": 0.0,
			"0.016": 0.0,
			"0.017": 0.0,
			"0.018": 0.0,
			"0.019": 0.0,
			"0.02": 0.0,
			"0.021": 0.0,
			"0.022": 0.0,
			"0.023": 0.0,
			"0.024": 0.0,
			"0.025": 0.0
		}
	}
}
