{
	 "smiles": "CC1(O)CC2=CC=CC=C12", 
	 "Tm": 351.15, 
	 "num_atms": 20, 
	 "gaussian": { 
		 "optdone": 1, 
		 "sigma_profile": "yes", 
		 "theory": "DFT", 
		 "functional": "B3LYP", 
		 "basiset": "6-31G**", 
		 "properties": { 
			 "R2extent": 1580.7144, 
			 "electric_dipole_moment_norm": 1.6067382363, 
			 "electric_quadrupole_moment_norm": 8.29536116393, 
			 "total_energy": -424.167725769, 
			 "HOMO_LUMO_gap": 0.23179, 
			 "cosmo_polarized_energy": -7.99, 
			 "cosmo_cavitation_energy": 23.0, 
			 "cosmo_dispersion_energy": -16.76, 
			 "cosmo_repulsion_energy": 1.37, 
			 "cosmo_total_nonelectrostatic_energy": 7.62, 
			 "SMD_solvation_energy": 3.73 
		},
		"coords": [
			{
				"x": -0.4473582004,
				"y": -1.6402657562,
				"z": -0.7677280422,
				"element": "C" 
			},
			{
				"x": -0.0139577931,
				"y": -0.5876439789,
				"z": 0.2507514631,
				"element": "C" 
			},
			{
				"x": -0.2147512811,
				"y": -1.0472951901,
				"z": 1.5782768845,
				"element": "O" 
			},
			{
				"x": 1.4127864134,
				"y": 0.0710958221,
				"z": -0.0318679218,
				"element": "C" 
			},
			{
				"x": 0.6553540571,
				"y": 1.3718242916,
				"z": -0.2486448355,
				"element": "C" 
			},
			{
				"x": 0.79666382,
				"y": 2.7101594849,
				"z": -0.5911679731,
				"element": "C" 
			},
			{
				"x": -0.3835696385,
				"y": 3.4705325318,
				"z": -0.6010329561,
				"element": "C" 
			},
			{
				"x": -1.6297070941,
				"y": 2.9074497629,
				"z": -0.2857773034,
				"element": "C" 
			},
			{
				"x": -1.7604722442,
				"y": 1.5506190177,
				"z": 0.0485567217,
				"element": "C" 
			},
			{
				"x": -0.5849023271,
				"y": 0.8132709133,
				"z": 0.0485960457,
				"element": "C" 
			},
			{
				"x": -0.3226680651,
				"y": -1.2798339162,
				"z": -1.7929260117,
				"element": "H" 
			},
			{
				"x": -1.4990499348,
				"y": -1.9026115897,
				"z": -0.6163150137,
				"element": "H" 
			},
			{
				"x": 0.1528548775,
				"y": -2.5532503162,
				"z": -0.6578265304,
				"element": "H" 
			},
			{
				"x": 0.1845437018,
				"y": -1.925312081,
				"z": 1.6493557468,
				"element": "H" 
			},
			{
				"x": 1.9649576947,
				"y": -0.328392844,
				"z": -0.8907372808,
				"element": "H" 
			},
			{
				"x": 2.0565476421,
				"y": 0.0535364317,
				"z": 0.8533626922,
				"element": "H" 
			},
			{
				"x": 1.7540483124,
				"y": 3.164289133,
				"z": -0.831875422,
				"element": "H" 
			},
			{
				"x": -0.3346505983,
				"y": 4.5261037895,
				"z": -0.8552868722,
				"element": "H" 
			},
			{
				"x": -2.5120983825,
				"y": 3.5414731371,
				"z": -0.3027010793,
				"element": "H" 
			},
			{
				"x": -2.7293709597,
				"y": 1.1241513568,
				"z": 0.2918876881,
				"element": "H" 
			}
		],
		 "valence_orbital": [ 
			{
				"type": "occ",
				"energy": -0.3161,
				"method": "rhf"
			},
			{
				"type": "occ",
				"energy": -0.306,
				"method": "rhf"
			},
			{
				"type": "occ",
				"energy": -0.26047,
				"method": "rhf"
			},
			{
				"type": "occ",
				"energy": -0.24494,
				"method": "rhf"
			},
			{
				"type": "occ",
				"energy": -0.23478,
				"method": "rhf"
			},
			{
				"type": "unocc",
				"energy": -0.00299,
				"method": "rhf"
			},
			{
				"type": "unocc",
				"energy": 0.00812,
				"method": "rhf"
			},
			{
				"type": "unocc",
				"energy": 0.07644,
				"method": "rhf"
			},
			{
				"type": "unocc",
				"energy": 0.10435,
				"method": "rhf"
			},
			{
				"type": "unocc",
				"energy": 0.12949,
				"method": "rhf"
			}
		],
		"cosmo_sigma_profile": { 
			"-0.025": 0.0,
			"-0.024": 0.0,
			"-0.023": 0.0,
			"-0.022": 0.0,
			"-0.021": 0.0,
			"-0.02": 0.0,
			"-0.019": 0.0,
			"-0.018": 0.0,
			"-0.017": 0.0,
			"-0.016": 0.0804098063339,
			"-0.015": 0.740371356857,
			"-0.014": 1.13607597493,
			"-0.013": 0.768808164942,
			"-0.012": 0.603861270155,
			"-0.011": 1.28069997214,
			"-0.01": 1.11627887959,
			"-0.009": 0.860651411327,
			"-0.008": 0.385452503406,
			"-0.007": 1.06888909697,
			"-0.006": 4.46499478815,
			"-0.005": 9.50169287312,
			"-0.004": 14.5637528239,
			"-0.003": 19.7835043895,
			"-0.002": 17.4247368432,
			"-0.001": 18.8912619258,
			"0.0": 19.0076861964,
			"0.001": 12.5060028659,
			"0.002": 9.12830933362,
			"0.003": 7.07333759049,
			"0.004": 7.877794495,
			"0.005": 9.49191503298,
			"0.006": 9.9640642921,
			"0.007": 3.40377462085,
			"0.008": 1.36760404898,
			"0.009": 0.817432184503,
			"0.01": 2.02128090701,
			"0.011": 0.87702618869,
			"0.012": 1.39266285291,
			"0.013": 1.87755539305,
			"0.014": 2.00097767504,
			"0.015": 0.180791154282,
			"0.016": 0.0,
			"0.017": 0.0,
			"0.018": 0.0,
			"0.019": 0.0,
			"0.02": 0.0,
			"0.021": 0.0,
			"0.022": 0.0,
			"0.023": 0.0,
			"0.024": 0.0,
			"0.025": 0.0
		}
	}
}
