{
	 "smiles": "CC1=CC=NC2=NC(=NN12)C(O)=O", 
	 "Tm": 514.15, 
	 "num_atms": 19, 
	 "gaussian": { 
		 "optdone": 1, 
		 "sigma_profile": "yes", 
		 "theory": "DFT", 
		 "functional": "B3LYP", 
		 "basiset": "6-31G**", 
		 "properties": { 
			 "R2extent": 2842.8338, 
			 "electric_dipole_moment_norm": 7.59855396375, 
			 "electric_quadrupole_moment_norm": 9.77543822905, 
			 "total_energy": -639.811720335, 
			 "HOMO_LUMO_gap": 0.19045, 
			 "cosmo_polarized_energy": -18.49, 
			 "cosmo_cavitation_energy": 24.46, 
			 "cosmo_dispersion_energy": -18.39, 
			 "cosmo_repulsion_energy": 1.44, 
			 "cosmo_total_nonelectrostatic_energy": 7.51, 
			 "SMD_solvation_energy": 1.96 
		},
		"coords": [
			{
				"x": 0.2607588914,
				"y": -1.2710638229,
				"z": 2.5056681912,
				"element": "C" 
			},
			{
				"x": -0.8091897063,
				"y": -0.3954835372,
				"z": 1.9439249618,
				"element": "C" 
			},
			{
				"x": -1.6749618927,
				"y": 0.413657394,
				"z": 2.6456269615,
				"element": "C" 
			},
			{
				"x": -2.6405853509,
				"y": 1.1873640604,
				"z": 1.951192064,
				"element": "C" 
			},
			{
				"x": -2.7891029572,
				"y": 1.2012081677,
				"z": 0.6379632592,
				"element": "N" 
			},
			{
				"x": -1.94759296,
				"y": 0.4143374816,
				"z": -0.0495547476,
				"element": "C" 
			},
			{
				"x": -1.8451480289,
				"y": 0.2114122358,
				"z": -1.3630048911,
				"element": "N" 
			},
			{
				"x": -0.8274589637,
				"y": -0.6765793057,
				"z": -1.4643177737,
				"element": "C" 
			},
			{
				"x": -0.256124983,
				"y": -1.0706758922,
				"z": -0.323699243,
				"element": "N" 
			},
			{
				"x": -0.9735630429,
				"y": -0.371730147,
				"z": 0.585906216,
				"element": "N" 
			},
			{
				"x": -0.3885095816,
				"y": -1.1730560455,
				"z": -2.8103924507,
				"element": "C" 
			},
			{
				"x": -1.1080467304,
				"y": -0.6386207026,
				"z": -3.8149542603,
				"element": "O" 
			},
			{
				"x": 0.5070973406,
				"y": -1.961243526,
				"z": -2.9818649037,
				"element": "O" 
			},
			{
				"x": 1.2373702482,
				"y": -0.9882120399,
				"z": 2.0996453897,
				"element": "H" 
			},
			{
				"x": 0.2828975507,
				"y": -1.1955596816,
				"z": 3.5936779418,
				"element": "H" 
			},
			{
				"x": 0.092607408,
				"y": -2.3130830471,
				"z": 2.2148896644,
				"element": "H" 
			},
			{
				"x": -1.6140304202,
				"y": 0.4551809466,
				"z": 3.7263749083,
				"element": "H" 
			},
			{
				"x": -3.3183143556,
				"y": 1.8222881947,
				"z": 2.5182211333,
				"element": "H" 
			},
			{
				"x": -1.7685024656,
				"y": -0.0342407332,
				"z": -3.4251024214,
				"element": "H" 
			}
		],
		 "valence_orbital": [ 
			{
				"type": "occ",
				"energy": -0.31346,
				"method": "rhf"
			},
			{
				"type": "occ",
				"energy": -0.29716,
				"method": "rhf"
			},
			{
				"type": "occ",
				"energy": -0.2913,
				"method": "rhf"
			},
			{
				"type": "occ",
				"energy": -0.27451,
				"method": "rhf"
			},
			{
				"type": "occ",
				"energy": -0.27393,
				"method": "rhf"
			},
			{
				"type": "unocc",
				"energy": -0.08348,
				"method": "rhf"
			},
			{
				"type": "unocc",
				"energy": -0.05077,
				"method": "rhf"
			},
			{
				"type": "unocc",
				"energy": -0.01369,
				"method": "rhf"
			},
			{
				"type": "unocc",
				"energy": 0.07395,
				"method": "rhf"
			},
			{
				"type": "unocc",
				"energy": 0.09413,
				"method": "rhf"
			}
		],
		"cosmo_sigma_profile": { 
			"-0.025": 0.0,
			"-0.024": 0.0,
			"-0.023": 0.0,
			"-0.022": 0.0,
			"-0.021": 0.0,
			"-0.02": 0.0,
			"-0.019": 0.0,
			"-0.018": 0.0,
			"-0.017": 0.0,
			"-0.016": 0.0,
			"-0.015": 0.0724214814079,
			"-0.014": 0.536595660745,
			"-0.013": 0.605004736755,
			"-0.012": 0.971821951042,
			"-0.011": 0.56259531105,
			"-0.01": 0.376007253276,
			"-0.009": 4.63855923924,
			"-0.008": 7.61311602784,
			"-0.007": 11.6384057859,
			"-0.006": 15.2181883015,
			"-0.005": 15.3281303224,
			"-0.004": 15.5744473903,
			"-0.003": 17.6035985507,
			"-0.002": 14.0279918982,
			"-0.001": 11.3028654459,
			"0.0": 6.57165737648,
			"0.001": 4.67733167713,
			"0.002": 5.09611736101,
			"0.003": 4.65390455482,
			"0.004": 5.27722557694,
			"0.005": 5.11024260739,
			"0.006": 4.80543749721,
			"0.007": 5.62444728126,
			"0.008": 6.42224495951,
			"0.009": 8.22813522872,
			"0.01": 7.98133814552,
			"0.011": 8.56344331409,
			"0.012": 6.02789044809,
			"0.013": 1.42014298211,
			"0.014": 0.624027723639,
			"0.015": 0.0214406968673,
			"0.016": 0.0,
			"0.017": 0.0,
			"0.018": 0.0,
			"0.019": 0.0,
			"0.02": 0.0,
			"0.021": 0.0,
			"0.022": 0.0,
			"0.023": 0.0,
			"0.024": 0.0,
			"0.0": 0.0
		}
	}
}
