{
	 "smiles": "O=C1NC2(CCCCC2)C(=O)N1CC1=CC=CC=C1", 
	 "Tm": 425.15, 
	 "num_atms": 37, 
	 "gaussian": { 
		 "optdone": 1, 
		 "sigma_profile": "yes", 
		 "theory": "DFT", 
		 "functional": "B3LYP", 
		 "basiset": "6-31G**", 
		 "properties": { 
			 "R2extent": 6041.4628, 
			 "electric_dipole_moment_norm": 2.56946941021, 
			 "electric_quadrupole_moment_norm": 15.1361576828, 
			 "total_energy": -842.454277968, 
			 "HOMO_LUMO_gap": 0.23513, 
			 "cosmo_polarized_energy": -14.22, 
			 "cosmo_cavitation_energy": 38.52, 
			 "cosmo_dispersion_energy": -26.88, 
			 "cosmo_repulsion_energy": 2.07, 
			 "cosmo_total_nonelectrostatic_energy": 13.71, 
			 "SMD_solvation_energy": 6.28 
		},
		"coords": [
			{
				"x": 2.666015925,
				"y": -0.0322911974,
				"z": 2.448420572,
				"element": "O" 
			},
			{
				"x": 1.8253758761,
				"y": -0.3655615987,
				"z": 1.6342298658,
				"element": "C" 
			},
			{
				"x": 0.8355961183,
				"y": -1.3042561929,
				"z": 1.7616288047,
				"element": "N" 
			},
			{
				"x": 0.0964819515,
				"y": -1.5473554135,
				"z": 0.5211408147,
				"element": "C" 
			},
			{
				"x": 0.4275454776,
				"y": -2.9488823184,
				"z": -0.0703438398,
				"element": "C" 
			},
			{
				"x": -0.6497951734,
				"y": -3.4057286084,
				"z": -1.0608376879,
				"element": "C" 
			},
			{
				"x": -2.0103013302,
				"y": -3.6109076698,
				"z": -0.350508761,
				"element": "C" 
			},
			{
				"x": -2.1679158117,
				"y": -2.6862894867,
				"z": 0.8798784448,
				"element": "C" 
			},
			{
				"x": -1.4385347176,
				"y": -1.3544452133,
				"z": 0.6675206605,
				"element": "C" 
			},
			{
				"x": 0.6821175898,
				"y": -0.4391625168,
				"z": -0.3762160096,
				"element": "C" 
			},
			{
				"x": 0.3279116789,
				"y": -0.1627340893,
				"z": -1.5092783722,
				"element": "O" 
			},
			{
				"x": 1.6903458925,
				"y": 0.1705102436,
				"z": 0.3334121062,
				"element": "N" 
			},
			{
				"x": 2.5008592795,
				"y": 1.2870056873,
				"z": -0.1557096186,
				"element": "C" 
			},
			{
				"x": 1.8900755043,
				"y": 2.6424291793,
				"z": 0.1429957904,
				"element": "C" 
			},
			{
				"x": 1.0347696139,
				"y": 3.2536558293,
				"z": -0.7822810846,
				"element": "C" 
			},
			{
				"x": 0.4637562628,
				"y": 4.4957977501,
				"z": -0.5013212753,
				"element": "C" 
			},
			{
				"x": 0.7412167873,
				"y": 5.1364320884,
				"z": 0.7080288961,
				"element": "C" 
			},
			{
				"x": 1.5880139187,
				"y": 4.5286376796,
				"z": 1.6376201064,
				"element": "C" 
			},
			{
				"x": 2.1596640908,
				"y": 3.2869385625,
				"z": 1.3571779663,
				"element": "C" 
			},
			{
				"x": 0.8754465309,
				"y": -1.960123038,
				"z": 2.526956011,
				"element": "H" 
			},
			{
				"x": 1.4190067131,
				"y": -2.9290554942,
				"z": -0.5352409527,
				"element": "H" 
			},
			{
				"x": 0.4903299402,
				"y": -3.6616641126,
				"z": 0.7627970311,
				"element": "H" 
			},
			{
				"x": -0.7375073515,
				"y": -2.6472362972,
				"z": -1.8456474258,
				"element": "H" 
			},
			{
				"x": -0.3344834967,
				"y": -4.3307945596,
				"z": -1.5547537073,
				"element": "H" 
			},
			{
				"x": -2.116732545,
				"y": -4.6551612272,
				"z": -0.0342606743,
				"element": "H" 
			},
			{
				"x": -2.8211137703,
				"y": -3.4209004303,
				"z": -1.0627627735,
				"element": "H" 
			},
			{
				"x": -1.7702163034,
				"y": -3.1808258138,
				"z": 1.7761787142,
				"element": "H" 
			},
			{
				"x": -3.2277931435,
				"y": -2.50323649,
				"z": 1.0858078102,
				"element": "H" 
			},
			{
				"x": -1.6243200675,
				"y": -0.6563560867,
				"z": 1.4894481975,
				"element": "H" 
			},
			{
				"x": -1.8065429754,
				"y": -0.8814986681,
				"z": -0.2500785317,
				"element": "H" 
			},
			{
				"x": 2.6120437533,
				"y": 1.1426843446,
				"z": -1.2328799555,
				"element": "H" 
			},
			{
				"x": 3.4790133105,
				"y": 1.1904491777,
				"z": 0.3207371537,
				"element": "H" 
			},
			{
				"x": 0.8113000042,
				"y": 2.746057232,
				"z": -1.7166264527,
				"element": "H" 
			},
			{
				"x": -0.1959201096,
				"y": 4.9634452978,
				"z": -1.2268820332,
				"element": "H" 
			},
			{
				"x": 0.299546025,
				"y": 6.1049749881,
				"z": 0.9252197037,
				"element": "H" 
			},
			{
				"x": 1.8053455676,
				"y": 5.022264805,
				"z": 2.580692437,
				"element": "H" 
			},
			{
				"x": 2.8086989839,
				"y": 2.8039836576,
				"z": 2.082438069,
				"element": "H" 
			}
		],
		 "valence_orbital": [ 
			{
				"type": "occ",
				"energy": -0.27138,
				"method": "rhf"
			},
			{
				"type": "occ",
				"energy": -0.26317,
				"method": "rhf"
			},
			{
				"type": "occ",
				"energy": -0.25577,
				"method": "rhf"
			},
			{
				"type": "occ",
				"energy": -0.24627,
				"method": "rhf"
			},
			{
				"type": "occ",
				"energy": -0.24303,
				"method": "rhf"
			},
			{
				"type": "unocc",
				"energy": -0.0079,
				"method": "rhf"
			},
			{
				"type": "unocc",
				"energy": -0.00178,
				"method": "rhf"
			},
			{
				"type": "unocc",
				"energy": 0.00224,
				"method": "rhf"
			},
			{
				"type": "unocc",
				"energy": 0.05845,
				"method": "rhf"
			},
			{
				"type": "unocc",
				"energy": 0.06614,
				"method": "rhf"
			}
		],
		"cosmo_sigma_profile": { 
			"-0.025": 0.0,
			"-0.024": 0.0,
			"-0.023": 0.0,
			"-0.022": 0.0,
			"-0.021": 0.0,
			"-0.02": 0.0,
			"-0.019": 0.0,
			"-0.018": 0.0,
			"-0.017": 0.0,
			"-0.016": 0.0,
			"-0.015": 0.530951759755,
			"-0.014": 1.02250128104,
			"-0.013": 1.01489635444,
			"-0.012": 1.50603173013,
			"-0.011": 1.03223871832,
			"-0.01": 1.29030190776,
			"-0.009": 0.995547685966,
			"-0.008": 1.73339082409,
			"-0.007": 1.41903356562,
			"-0.006": 7.72135776557,
			"-0.005": 16.9144400252,
			"-0.004": 24.7171862315,
			"-0.003": 31.1573714503,
			"-0.002": 37.1736133135,
			"-0.001": 37.8811263986,
			"0.0": 26.0357872859,
			"0.001": 20.203523019,
			"0.002": 13.6822761827,
			"0.003": 13.8533166506,
			"0.004": 13.5292005857,
			"0.005": 14.0615222886,
			"0.006": 7.88272887288,
			"0.007": 3.0437945411,
			"0.008": 2.72484335062,
			"0.009": 2.67540471885,
			"0.01": 3.46507964111,
			"0.011": 3.63057281055,
			"0.012": 6.33011064212,
			"0.013": 4.57820182573,
			"0.014": 0.745700782736,
			"0.015": 0.0,
			"0.016": 0.0,
			"0.017": 0.0,
			"0.018": 0.0,
			"0.019": 0.0,
			"0.02": 0.0,
			"0.021": 0.0,
			"0.022": 0.0,
			"0.023": 0.0,
			"0.024": 0.0,
			"0.025": 0.0
		}
	}
}
