{
	 "smiles": "CCCCCCC(C=O)=CC1=CC=CC=C1", 
	 "Tm": 312.35, 
	 "num_atms": 36, 
	 "gaussian": { 
		 "optdone": 1, 
		 "sigma_profile": "yes", 
		 "theory": "DFT", 
		 "functional": "B3LYP", 
		 "basiset": "6-31G**", 
		 "properties": { 
			 "R2extent": 5854.7757, 
			 "electric_dipole_moment_norm": 2.49854056801, 
			 "electric_quadrupole_moment_norm": 13.4976841403, 
			 "total_energy": -658.864819092, 
			 "HOMO_LUMO_gap": 0.1531, 
			 "cosmo_polarized_energy": -7.42, 
			 "cosmo_cavitation_energy": 38.07, 
			 "cosmo_dispersion_energy": -26.24, 
			 "cosmo_repulsion_energy": 2.08, 
			 "cosmo_total_nonelectrostatic_energy": 13.9, 
			 "SMD_solvation_energy": 6.77 
		},
		"coords": [
			{
				"x": 3.4760025294,
				"y": -1.7228235741,
				"z": 2.8179173486,
				"element": "C" 
			},
			{
				"x": 2.6537107541,
				"y": -0.4298276018,
				"z": 2.8029305465,
				"element": "C" 
			},
			{
				"x": 2.1808302788,
				"y": -0.0384790566,
				"z": 1.3956536336,
				"element": "C" 
			},
			{
				"x": 1.4265616434,
				"y": 1.3006645064,
				"z": 1.3150108698,
				"element": "C" 
			},
			{
				"x": 0.0858145761,
				"y": 1.36420631,
				"z": 2.0670918429,
				"element": "C" 
			},
			{
				"x": -1.0280397676,
				"y": 0.4485223268,
				"z": 1.505651772,
				"element": "C" 
			},
			{
				"x": -1.5045122285,
				"y": 0.8351353885,
				"z": 0.1114864059,
				"element": "C" 
			},
			{
				"x": -2.3520265336,
				"y": 2.0467182915,
				"z": 0.1113974216,
				"element": "C" 
			},
			{
				"x": -2.7903578929,
				"y": 2.6815190789,
				"z": -0.8355730447,
				"element": "O" 
			},
			{
				"x": -1.1498804453,
				"y": 0.0491830075,
				"z": -0.9472413832,
				"element": "C" 
			},
			{
				"x": -1.378402109,
				"y": 0.0359105827,
				"z": -2.3933623809,
				"element": "C" 
			},
			{
				"x": -2.01735747,
				"y": 1.0390554844,
				"z": -3.1532543615,
				"element": "C" 
			},
			{
				"x": -2.1636093068,
				"y": 0.8935689785,
				"z": -4.5309603887,
				"element": "C" 
			},
			{
				"x": -1.6825863249,
				"y": -0.2409670676,
				"z": -5.1881548293,
				"element": "C" 
			},
			{
				"x": -1.0425930991,
				"y": -1.2425294889,
				"z": -4.4541918747,
				"element": "C" 
			},
			{
				"x": -0.8917758111,
				"y": -1.1014043762,
				"z": -3.0794329299,
				"element": "C" 
			},
			{
				"x": 2.8930035661,
				"y": -2.5680991078,
				"z": 2.4340783555,
				"element": "H" 
			},
			{
				"x": 4.3712403524,
				"y": -1.6302183801,
				"z": 2.1923972119,
				"element": "H" 
			},
			{
				"x": 3.8031471952,
				"y": -1.9788577063,
				"z": 3.8309722745,
				"element": "H" 
			},
			{
				"x": 3.2529466892,
				"y": 0.3907048916,
				"z": 3.221281714,
				"element": "H" 
			},
			{
				"x": 1.7907763162,
				"y": -0.5453515995,
				"z": 3.4711381634,
				"element": "H" 
			},
			{
				"x": 3.0569265877,
				"y": 0.0213881049,
				"z": 0.7357224931,
				"element": "H" 
			},
			{
				"x": 1.5606748838,
				"y": -0.8485212154,
				"z": 0.9868816513,
				"element": "H" 
			},
			{
				"x": 2.0786847655,
				"y": 2.0925591405,
				"z": 1.7072902821,
				"element": "H" 
			},
			{
				"x": 1.2535411334,
				"y": 1.5471694119,
				"z": 0.2601438648,
				"element": "H" 
			},
			{
				"x": 0.2365309858,
				"y": 1.1150915273,
				"z": 3.1246962921,
				"element": "H" 
			},
			{
				"x": -0.2706746104,
				"y": 2.4027507954,
				"z": 2.0548832509,
				"element": "H" 
			},
			{
				"x": -1.8791618346,
				"y": 0.4858059937,
				"z": 2.1990826137,
				"element": "H" 
			},
			{
				"x": -0.6876629261,
				"y": -0.5918303478,
				"z": 1.5039286092,
				"element": "H" 
			},
			{
				"x": -2.604374384,
				"y": 2.3858373894,
				"z": 1.1406222474,
				"element": "H" 
			},
			{
				"x": -0.5539152329,
				"y": -0.8135809516,
				"z": -0.6465201639,
				"element": "H" 
			},
			{
				"x": -2.3905174249,
				"y": 1.9203417311,
				"z": -2.6505836831,
				"element": "H" 
			},
			{
				"x": -2.6578234321,
				"y": 1.6781134592,
				"z": -5.0970238802,
				"element": "H" 
			},
			{
				"x": -1.8019176725,
				"y": -0.3431394664,
				"z": -6.2631136764,
				"element": "H" 
			},
			{
				"x": -0.660870485,
				"y": -2.1288398701,
				"z": -4.9526398324,
				"element": "H" 
			},
			{
				"x": -0.3907332659,
				"y": -1.8839765898,
				"z": -2.5150064356,
				"element": "H" 
			}
		],
		 "valence_orbital": [ 
			{
				"type": "occ",
				"energy": -0.31141,
				"method": "rhf"
			},
			{
				"type": "occ",
				"energy": -0.29571,
				"method": "rhf"
			},
			{
				"type": "occ",
				"energy": -0.25189,
				"method": "rhf"
			},
			{
				"type": "occ",
				"energy": -0.2482,
				"method": "rhf"
			},
			{
				"type": "occ",
				"energy": -0.2281,
				"method": "rhf"
			},
			{
				"type": "unocc",
				"energy": -0.075,
				"method": "rhf"
			},
			{
				"type": "unocc",
				"energy": -0.00078,
				"method": "rhf"
			},
			{
				"type": "unocc",
				"energy": 0.00511,
				"method": "rhf"
			},
			{
				"type": "unocc",
				"energy": 0.0675,
				"method": "rhf"
			},
			{
				"type": "unocc",
				"energy": 0.08092,
				"method": "rhf"
			}
		],
		"cosmo_sigma_profile": { 
			"-0.025": 0.0,
			"-0.024": 0.0,
			"-0.023": 0.0,
			"-0.022": 0.0,
			"-0.021": 0.0,
			"-0.02": 0.0,
			"-0.019": 0.0,
			"-0.018": 0.0,
			"-0.017": 0.0,
			"-0.016": 0.0,
			"-0.015": 0.0,
			"-0.014": 0.0,
			"-0.013": 0.0,
			"-0.012": 0.0,
			"-0.011": 0.0,
			"-0.01": 0.0,
			"-0.009": 0.0,
			"-0.008": 0.00238712551122,
			"-0.007": 1.71718969471,
			"-0.006": 8.77388218476,
			"-0.005": 16.9089932002,
			"-0.004": 19.2872982825,
			"-0.003": 20.1584504912,
			"-0.002": 31.490371894,
			"-0.001": 40.0637390898,
			"0.0": 41.445474853,
			"0.001": 38.1435046978,
			"0.002": 23.1841607929,
			"0.003": 16.3558172811,
			"0.004": 14.1316791015,
			"0.005": 12.6965153934,
			"0.006": 2.48214468318,
			"0.007": 1.55822264968,
			"0.008": 2.43142016178,
			"0.009": 1.39207128296,
			"0.01": 1.67275989951,
			"0.011": 2.17080489839,
			"0.012": 1.88896291719,
			"0.013": 1.00230751183,
			"0.014": 0.0176799391776,
			"0.015": 0.0,
			"0.016": 0.0,
			"0.017": 0.0,
			"0.018": 0.0,
			"0.019": 0.0,
			"0.02": 0.0,
			"0.021": 0.0,
			"0.022": 0.0,
			"0.023": 0.0,
			"0.024": 0.0,
			"0.025": 0.0
		}
	}
}
