{
	 "smiles": "FC(F)(F)C1=CC=C(C=C1)C(=O)C1=CC(=CC=C1)C(F)(F)F", 
	 "Tm": 369.15, 
	 "num_atms": 30, 
	 "gaussian": { 
		 "optdone": 1, 
		 "sigma_profile": "yes", 
		 "theory": "DFT", 
		 "functional": "B3LYP", 
		 "basiset": "6-31G**", 
		 "properties": { 
			 "R2extent": 9604.4711, 
			 "electric_dipole_moment_norm": 2.2677265642, 
			 "electric_quadrupole_moment_norm": 9.04493802964, 
			 "total_energy": -1250.69966697, 
			 "HOMO_LUMO_gap": 0.1781, 
			 "cosmo_polarized_energy": -8.82, 
			 "cosmo_cavitation_energy": 38.4, 
			 "cosmo_dispersion_energy": -26.1, 
			 "cosmo_repulsion_energy": 1.85, 
			 "cosmo_total_nonelectrostatic_energy": 14.16, 
			 "SMD_solvation_energy": 9.2 
		},
		"coords": [
			{
				"x": -0.5344404876,
				"y": 5.8358760249,
				"z": 2.6724506406,
				"element": "F" 
			},
			{
				"x": 0.2274884273,
				"y": 5.0320020767,
				"z": 1.8998119316,
				"element": "C" 
			},
			{
				"x": 1.4284047907,
				"y": 4.9023844104,
				"z": 2.503457512,
				"element": "F" 
			},
			{
				"x": 0.4376475417,
				"y": 5.6874565212,
				"z": 0.7355270844,
				"element": "F" 
			},
			{
				"x": -0.4304099941,
				"y": 3.6966986408,
				"z": 1.6655530298,
				"element": "C" 
			},
			{
				"x": 0.3518336371,
				"y": 2.5524242202,
				"z": 1.4998754254,
				"element": "C" 
			},
			{
				"x": -0.2571908118,
				"y": 1.3303780721,
				"z": 1.2188510116,
				"element": "C" 
			},
			{
				"x": -1.6530093913,
				"y": 1.2415545992,
				"z": 1.1111746029,
				"element": "C" 
			},
			{
				"x": -2.4295735994,
				"y": 2.3946193082,
				"z": 1.3082341396,
				"element": "C" 
			},
			{
				"x": -1.8244551695,
				"y": 3.6175258357,
				"z": 1.5707691399,
				"element": "C" 
			},
			{
				"x": -2.3782797525,
				"y": -0.0544793407,
				"z": 0.8856957503,
				"element": "C" 
			},
			{
				"x": -3.5065307288,
				"y": -0.2037367002,
				"z": 1.3384384468,
				"element": "O" 
			},
			{
				"x": -1.736536747,
				"y": -1.1692522962,
				"z": 0.1105661412,
				"element": "C" 
			},
			{
				"x": -0.7901825217,
				"y": -0.9505440103,
				"z": -0.8988463179,
				"element": "C" 
			},
			{
				"x": -0.2810702692,
				"y": -2.0288748556,
				"z": -1.6256651847,
				"element": "C" 
			},
			{
				"x": -0.70195556,
				"y": -3.3309470753,
				"z": -1.3459886936,
				"element": "C" 
			},
			{
				"x": -1.6510415628,
				"y": -3.5515467254,
				"z": -0.345969374,
				"element": "C" 
			},
			{
				"x": -2.1752047031,
				"y": -2.4782384358,
				"z": 0.3675936904,
				"element": "C" 
			},
			{
				"x": 0.6841608499,
				"y": -1.7774938737,
				"z": -2.7544057149,
				"element": "C" 
			},
			{
				"x": 1.5233129479,
				"y": -2.8203003977,
				"z": -2.9365246401,
				"element": "F" 
			},
			{
				"x": 1.4397049293,
				"y": -0.6791069705,
				"z": -2.5317196798,
				"element": "F" 
			},
			{
				"x": 0.0389720462,
				"y": -1.5804610979,
				"z": -3.9262215165,
				"element": "F" 
			},
			{
				"x": 1.4296169166,
				"y": 2.6158711889,
				"z": 1.6002768431,
				"element": "H" 
			},
			{
				"x": 0.3564645198,
				"y": 0.442668241,
				"z": 1.1116275023,
				"element": "H" 
			},
			{
				"x": -3.5093428482,
				"y": 2.3073029377,
				"z": 1.2563347686,
				"element": "H" 
			},
			{
				"x": -2.4264646136,
				"y": 4.5078841819,
				"z": 1.716641864,
				"element": "H" 
			},
			{
				"x": -0.4580317717,
				"y": 0.0535995036,
				"z": -1.134424972,
				"element": "H" 
			},
			{
				"x": -0.2871909848,
				"y": -4.1624586552,
				"z": -1.9055672153,
				"element": "H" 
			},
			{
				"x": -1.9813989945,
				"y": -4.5625099727,
				"z": -0.1287869403,
				"element": "H" 
			},
			{
				"x": -2.9287960949,
				"y": -2.6279953552,
				"z": 1.1333407247,
				"element": "H" 
			}
		],
		 "valence_orbital": [ 
			{
				"type": "occ",
				"energy": -0.28456,
				"method": "rhf"
			},
			{
				"type": "occ",
				"energy": -0.28371,
				"method": "rhf"
			},
			{
				"type": "occ",
				"energy": -0.28245,
				"method": "rhf"
			},
			{
				"type": "occ",
				"energy": -0.27982,
				"method": "rhf"
			},
			{
				"type": "occ",
				"energy": -0.26458,
				"method": "rhf"
			},
			{
				"type": "unocc",
				"energy": -0.08648,
				"method": "rhf"
			},
			{
				"type": "unocc",
				"energy": -0.04133,
				"method": "rhf"
			},
			{
				"type": "unocc",
				"energy": -0.04024,
				"method": "rhf"
			},
			{
				"type": "unocc",
				"energy": -0.02779,
				"method": "rhf"
			},
			{
				"type": "unocc",
				"energy": 0.02714,
				"method": "rhf"
			}
		],
		"cosmo_sigma_profile": { 
			"-0.025": 0.0,
			"-0.024": 0.0,
			"-0.023": 0.0,
			"-0.022": 0.0,
			"-0.021": 0.0,
			"-0.02": 0.0,
			"-0.019": 0.0,
			"-0.018": 0.0,
			"-0.017": 0.0,
			"-0.016": 0.0,
			"-0.015": 0.0,
			"-0.014": 0.0,
			"-0.013": 0.0,
			"-0.012": 0.0,
			"-0.011": 0.0,
			"-0.01": 0.0,
			"-0.009": 0.0,
			"-0.008": 2.67251570829,
			"-0.007": 11.4972776411,
			"-0.006": 16.8410236587,
			"-0.005": 17.2951167495,
			"-0.004": 16.7699997733,
			"-0.003": 15.5248397654,
			"-0.002": 17.9667144394,
			"-0.001": 21.4958200376,
			"0.0": 26.8093973987,
			"0.001": 36.2816222169,
			"0.002": 57.5113974748,
			"0.003": 49.7015953431,
			"0.004": 3.11110452014,
			"0.005": 1.80993002471,
			"0.006": 1.62000229904,
			"0.007": 1.52896719467,
			"0.008": 1.6576661972,
			"0.009": 2.40109177513,
			"0.01": 2.02986216171,
			"0.011": 3.95278476972,
			"0.012": 1.44945756496,
			"0.013": 0.0,
			"0.014": 0.0,
			"0.015": 0.0,
			"0.016": 0.0,
			"0.017": 0.0,
			"0.018": 0.0,
			"0.019": 0.0,
			"0.02": 0.0,
			"0.021": 0.0,
			"0.022": 0.0,
			"0.023": 0.0,
			"0.024": 0.0,
			"0.025": 0.0
		}
	}
}
