{
	 "smiles": "CC(SC1=C(Cl)C=CC=C1)C(O)=O", 
	 "Tm": 324.15, 
	 "num_atms": 22, 
	 "gaussian": { 
		 "optdone": 1, 
		 "sigma_profile": "yes", 
		 "theory": "DFT", 
		 "functional": "B3LYP", 
		 "basiset": "6-31G**", 
		 "properties": { 
			 "R2extent": 4456.8762, 
			 "electric_dipole_moment_norm": 6.28501688621, 
			 "electric_quadrupole_moment_norm": 11.1223522301, 
			 "total_energy": -1357.21660477, 
			 "HOMO_LUMO_gap": 0.20393, 
			 "cosmo_polarized_energy": -11.55, 
			 "cosmo_cavitation_energy": 29.05, 
			 "cosmo_dispersion_energy": -21.06, 
			 "cosmo_repulsion_energy": 1.62, 
			 "cosmo_total_nonelectrostatic_energy": 9.61, 
			 "SMD_solvation_energy": 5.59 
		},
		"coords": [
			{
				"x": -0.4485801722,
				"y": 0.3294052145,
				"z": 2.0163130918,
				"element": "C" 
			},
			{
				"x": -0.8560691673,
				"y": 1.3555606785,
				"z": 0.9649235592,
				"element": "C" 
			},
			{
				"x": -2.4444879433,
				"y": 0.9053432382,
				"z": 0.0884573662,
				"element": "S" 
			},
			{
				"x": -1.8483847861,
				"y": -0.0284025148,
				"z": -1.3158767912,
				"element": "C" 
			},
			{
				"x": -1.2191540034,
				"y": 0.5533120172,
				"z": -2.4322031634,
				"element": "C" 
			},
			{
				"x": -0.8893284147,
				"y": 2.2792850673,
				"z": -2.4972237157,
				"element": "Cl" 
			},
			{
				"x": -0.8300030722,
				"y": -0.2199310675,
				"z": -3.5260160354,
				"element": "C" 
			},
			{
				"x": -1.080879187,
				"y": -1.5917208289,
				"z": -3.5283104285,
				"element": "C" 
			},
			{
				"x": -1.7142544497,
				"y": -2.1887596153,
				"z": -2.4386116798,
				"element": "C" 
			},
			{
				"x": -2.0887271186,
				"y": -1.4111693042,
				"z": -1.3442341991,
				"element": "C" 
			},
			{
				"x": -0.9603205839,
				"y": 2.7772378246,
				"z": 1.5519263117,
				"element": "C" 
			},
			{
				"x": -1.5671403449,
				"y": 3.69922167,
				"z": 0.7801662231,
				"element": "O" 
			},
			{
				"x": -0.4762536658,
				"y": 3.0683829461,
				"z": 2.6180635194,
				"element": "O" 
			},
			{
				"x": 0.4843850778,
				"y": 0.6418565652,
				"z": 2.4920111812,
				"element": "H" 
			},
			{
				"x": -1.2109896788,
				"y": 0.2439384481,
				"z": 2.7944299246,
				"element": "H" 
			},
			{
				"x": -0.3041762464,
				"y": -0.6510579559,
				"z": 1.5556338961,
				"element": "H" 
			},
			{
				"x": -0.0996569788,
				"y": 1.4155337526,
				"z": 0.1742353291,
				"element": "H" 
			},
			{
				"x": -0.3420257339,
				"y": 0.2572498383,
				"z": -4.3685952949,
				"element": "H" 
			},
			{
				"x": -0.7803806742,
				"y": -2.1876864424,
				"z": -4.3845364886,
				"element": "H" 
			},
			{
				"x": -1.9124980641,
				"y": -3.2559214783,
				"z": -2.4355879793,
				"element": "H" 
			},
			{
				"x": -2.5783039695,
				"y": -1.8664415355,
				"z": -0.4897497517,
				"element": "H" 
			},
			{
				"x": -1.9495708229,
				"y": 3.2642634821,
				"z": -0.003614875,
				"element": "H" 
			}
		],
		 "valence_orbital": [ 
			{
				"type": "occ",
				"energy": -0.31158,
				"method": "rhf"
			},
			{
				"type": "occ",
				"energy": -0.28982,
				"method": "rhf"
			},
			{
				"type": "occ",
				"energy": -0.27225,
				"method": "rhf"
			},
			{
				"type": "occ",
				"energy": -0.2656,
				"method": "rhf"
			},
			{
				"type": "occ",
				"energy": -0.25224,
				"method": "rhf"
			},
			{
				"type": "unocc",
				"energy": -0.04831,
				"method": "rhf"
			},
			{
				"type": "unocc",
				"energy": -0.03406,
				"method": "rhf"
			},
			{
				"type": "unocc",
				"energy": -0.00868,
				"method": "rhf"
			},
			{
				"type": "unocc",
				"energy": 0.00668,
				"method": "rhf"
			},
			{
				"type": "unocc",
				"energy": 0.03317,
				"method": "rhf"
			}
		],
		"cosmo_sigma_profile": { 
			"-0.025": 0.0,
			"-0.024": 0.0,
			"-0.023": 0.0,
			"-0.022": 0.0,
			"-0.021": 0.0,
			"-0.02": 0.0,
			"-0.019": 0.0,
			"-0.018": 0.0,
			"-0.017": 0.0,
			"-0.016": 0.0,
			"-0.015": 0.0,
			"-0.014": 0.0,
			"-0.013": 0.0,
			"-0.012": 0.0,
			"-0.011": 0.565343850331,
			"-0.01": 0.471274044675,
			"-0.009": 0.689080484105,
			"-0.008": 3.0093393404,
			"-0.007": 10.6867738464,
			"-0.006": 13.2127768947,
			"-0.005": 15.4422772163,
			"-0.004": 16.1438602179,
			"-0.003": 19.444115078,
			"-0.002": 16.4393773873,
			"-0.001": 18.7102676513,
			"0.0": 20.040874829,
			"0.001": 18.9148416332,
			"0.002": 18.3790189633,
			"0.003": 19.8393060774,
			"0.004": 11.2194991025,
			"0.005": 3.22244143611,
			"0.006": 3.53903837927,
			"0.007": 3.85594607764,
			"0.008": 3.17155428922,
			"0.009": 4.04910155777,
			"0.01": 4.9269408419,
			"0.011": 5.06419017665,
			"0.012": 3.90346617074,
			"0.013": 0.573962061992,
			"0.014": 0.0,
			"0.015": 0.0,
			"0.016": 0.0,
			"0.017": 0.0,
			"0.018": 0.0,
			"0.019": 0.0,
			"0.02": 0.0,
			"0.021": 0.0,
			"0.022": 0.0,
			"0.023": 0.0,
			"0.024": 0.0,
			"0.025": 0.0
		}
	}
}
