{
	 "smiles": "ClC(C(=O)NC1=CN=CC=C1)C(=O)C1=CC=CC=C1", 
	 "Tm": 361.15, 
	 "num_atms": 30, 
	 "gaussian": { 
		 "optdone": 1, 
		 "sigma_profile": "yes", 
		 "theory": "DFT", 
		 "functional": "B3LYP", 
		 "basiset": "6-31G**", 
		 "properties": { 
			 "R2extent": 6653.3742, 
			 "electric_dipole_moment_norm": 3.18577130849, 
			 "electric_quadrupole_moment_norm": 27.8959438804, 
			 "total_energy": -1260.26660444, 
			 "HOMO_LUMO_gap": 0.15473, 
			 "cosmo_polarized_energy": -15.52, 
			 "cosmo_cavitation_energy": 36.9, 
			 "cosmo_dispersion_energy": -26.21, 
			 "cosmo_repulsion_energy": 2.0, 
			 "cosmo_total_nonelectrostatic_energy": 12.69, 
			 "SMD_solvation_energy": 5.4 
		},
		"coords": [
			{
				"x": -0.3432069918,
				"y": -3.0368121659,
				"z": 0.4792993061,
				"element": "Cl" 
			},
			{
				"x": -0.5372166734,
				"y": -1.3398505701,
				"z": 1.0738309411,
				"element": "C" 
			},
			{
				"x": -1.3707328463,
				"y": -0.4838298581,
				"z": 0.0934050706,
				"element": "C" 
			},
			{
				"x": -2.3438307015,
				"y": 0.1351825318,
				"z": 0.4983936793,
				"element": "O" 
			},
			{
				"x": -0.8725511377,
				"y": -0.4630824521,
				"z": -1.1765509436,
				"element": "N" 
			},
			{
				"x": -1.3730394158,
				"y": 0.2160344067,
				"z": -2.3056489196,
				"element": "C" 
			},
			{
				"x": -2.5201706434,
				"y": 1.0309041203,
				"z": -2.2864635142,
				"element": "C" 
			},
			{
				"x": -2.9710496235,
				"y": 1.6639872093,
				"z": -3.3744334237,
				"element": "N" 
			},
			{
				"x": -2.3049411905,
				"y": 1.5167890007,
				"z": -4.5242543567,
				"element": "C" 
			},
			{
				"x": -1.157659864,
				"y": 0.7307866065,
				"z": -4.6439327067,
				"element": "C" 
			},
			{
				"x": -0.6850505971,
				"y": 0.0696433038,
				"z": -3.5169273639,
				"element": "C" 
			},
			{
				"x": 0.8497208235,
				"y": -0.6840774459,
				"z": 1.2866329982,
				"element": "C" 
			},
			{
				"x": 1.7755859276,
				"y": -0.9825491615,
				"z": 0.551840077,
				"element": "O" 
			},
			{
				"x": 0.9825100435,
				"y": 0.3305702108,
				"z": 2.3676799129,
				"element": "C" 
			},
			{
				"x": 2.2817366051,
				"y": 0.7495161268,
				"z": 2.7052738819,
				"element": "C" 
			},
			{
				"x": 2.4753508351,
				"y": 1.6955964912,
				"z": 3.7052257723,
				"element": "C" 
			},
			{
				"x": 1.3731849957,
				"y": 2.2479101787,
				"z": 4.3664106201,
				"element": "C" 
			},
			{
				"x": 0.0790156951,
				"y": 1.8521442699,
				"z": 4.0235474936,
				"element": "C" 
			},
			{
				"x": -0.1214178673,
				"y": 0.8915479239,
				"z": 3.0328607785,
				"element": "C" 
			},
			{
				"x": -1.1089417552,
				"y": -1.4025829484,
				"z": 1.9956226438,
				"element": "H" 
			},
			{
				"x": -0.0363327807,
				"y": -1.0167020953,
				"z": -1.3262114912,
				"element": "H" 
			},
			{
				"x": -3.0747402651,
				"y": 1.165079707,
				"z": -1.3662227256,
				"element": "H" 
			},
			{
				"x": -2.7039835695,
				"y": 2.0485402465,
				"z": -5.3856792289,
				"element": "H" 
			},
			{
				"x": -0.6465585359,
				"y": 0.6378561246,
				"z": -5.5968880836,
				"element": "H" 
			},
			{
				"x": 0.2053815028,
				"y": -0.5525546161,
				"z": -3.5693632273,
				"element": "H" 
			},
			{
				"x": 3.119866261,
				"y": 0.3141742347,
				"z": 2.171824897,
				"element": "H" 
			},
			{
				"x": 3.4813832195,
				"y": 2.0068261124,
				"z": 3.969964184,
				"element": "H" 
			},
			{
				"x": 1.5241650079,
				"y": 2.9894861831,
				"z": 5.1456085958,
				"element": "H" 
			},
			{
				"x": -0.7767603276,
				"y": 2.2921686683,
				"z": 4.5261145564,
				"element": "H" 
			},
			{
				"x": -1.1345161307,
				"y": 0.6178976562,
				"z": 2.7567405765,
				"element": "H" 
			}
		],
		 "valence_orbital": [ 
			{
				"type": "occ",
				"energy": -0.27464,
				"method": "rhf"
			},
			{
				"type": "occ",
				"energy": -0.27161,
				"method": "rhf"
			},
			{
				"type": "occ",
				"energy": -0.26867,
				"method": "rhf"
			},
			{
				"type": "occ",
				"energy": -0.25351,
				"method": "rhf"
			},
			{
				"type": "occ",
				"energy": -0.23955,
				"method": "rhf"
			},
			{
				"type": "unocc",
				"energy": -0.08482,
				"method": "rhf"
			},
			{
				"type": "unocc",
				"energy": -0.03685,
				"method": "rhf"
			},
			{
				"type": "unocc",
				"energy": -0.02597,
				"method": "rhf"
			},
			{
				"type": "unocc",
				"energy": -0.02193,
				"method": "rhf"
			},
			{
				"type": "unocc",
				"energy": -0.00326,
				"method": "rhf"
			}
		],
		"cosmo_sigma_profile": { 
			"-0.025": 0.0,
			"-0.024": 0.0,
			"-0.023": 0.0,
			"-0.022": 0.0,
			"-0.021": 0.0,
			"-0.02": 0.0,
			"-0.019": 0.0,
			"-0.018": 0.0,
			"-0.017": 0.0,
			"-0.016": 0.0,
			"-0.015": 0.383535999514,
			"-0.014": 1.10331392055,
			"-0.013": 0.769872992176,
			"-0.012": 1.0927447869,
			"-0.011": 0.47202820707,
			"-0.01": 2.80902219367,
			"-0.009": 3.03615122474,
			"-0.008": 4.64722420364,
			"-0.007": 10.7822994533,
			"-0.006": 19.1078913289,
			"-0.005": 19.6841568399,
			"-0.004": 16.6803858946,
			"-0.003": 17.1367286229,
			"-0.002": 17.7483192238,
			"-0.001": 20.7335382526,
			"0.0": 22.2438614932,
			"0.001": 26.2510438588,
			"0.002": 29.7381899423,
			"0.003": 26.4773205814,
			"0.004": 13.448567331,
			"0.005": 9.66553159041,
			"0.006": 3.47572013733,
			"0.007": 4.77971549152,
			"0.008": 4.63503273476,
			"0.009": 5.23763982906,
			"0.01": 6.58037944064,
			"0.011": 5.74143767869,
			"0.012": 1.21564052626,
			"0.013": 0.930365927094,
			"0.014": 0.766647243537,
			"0.015": 0.950934778883,
			"0.016": 0.868491193321,
			"0.017": 0.101319883597,
			"0.018": 0.0,
			"0.019": 0.0,
			"0.02": 0.0,
			"0.021": 0.0,
			"0.022": 0.0,
			"0.023": 0.0,
			"0.024": 0.0,
			"0.025": 0.0
		}
	}
}
