{
	 "smiles": "CCOC(=O)C1=C(N)C2=C(S1)SC(C(=O)OCC)=C2N", 
	 "Tm": 473.15, 
	 "num_atms": 34, 
	 "gaussian": { 
		 "optdone": 1, 
		 "sigma_profile": "yes", 
		 "theory": "DFT", 
		 "functional": "B3LYP", 
		 "basiset": "6-31G**", 
		 "properties": { 
			 "R2extent": 9642.5479, 
			 "electric_dipole_moment_norm": 6.86644809854, 
			 "electric_quadrupole_moment_norm": 8.54204770298, 
			 "total_energy": -1672.52109178, 
			 "HOMO_LUMO_gap": 0.15816, 
			 "cosmo_polarized_energy": -18.63, 
			 "cosmo_cavitation_energy": 41.13, 
			 "cosmo_dispersion_energy": -30.7, 
			 "cosmo_repulsion_energy": 2.3, 
			 "cosmo_total_nonelectrostatic_energy": 12.72, 
			 "SMD_solvation_energy": 7.92 
		},
		"coords": [
			{
				"x": 5.535795934,
				"y": -2.3119322263,
				"z": -0.8845678476,
				"element": "C" 
			},
			{
				"x": 4.8990916077,
				"y": -1.3368752955,
				"z": -1.862873518,
				"element": "C" 
			},
			{
				"x": 3.5780767467,
				"y": -0.9331921439,
				"z": -1.423328108,
				"element": "O" 
			},
			{
				"x": 2.547400834,
				"y": -1.76754061,
				"z": -1.7692119945,
				"element": "C" 
			},
			{
				"x": 2.7062736384,
				"y": -2.7875238624,
				"z": -2.418046727,
				"element": "O" 
			},
			{
				"x": 1.2651488086,
				"y": -1.2905997777,
				"z": -1.2838211439,
				"element": "C" 
			},
			{
				"x": 0.9351519595,
				"y": -0.1492488759,
				"z": -0.563361427,
				"element": "C" 
			},
			{
				"x": 1.8117590803,
				"y": 0.8056235849,
				"z": -0.0794536662,
				"element": "N" 
			},
			{
				"x": -0.4804224801,
				"y": -0.0762669325,
				"z": -0.3291685964,
				"element": "C" 
			},
			{
				"x": -1.1777087657,
				"y": -1.1293670274,
				"z": -0.9109643138,
				"element": "C" 
			},
			{
				"x": -0.154401464,
				"y": -2.2741535705,
				"z": -1.7035559602,
				"element": "S" 
			},
			{
				"x": -2.8883867035,
				"y": -1.0223286796,
				"z": -0.692046404,
				"element": "S" 
			},
			{
				"x": -2.670870049,
				"y": 0.4664515202,
				"z": 0.2536967453,
				"element": "C" 
			},
			{
				"x": -3.8749569856,
				"y": 1.0618181908,
				"z": 0.8056286538,
				"element": "C" 
			},
			{
				"x": -5.0014808171,
				"y": 0.6236798051,
				"z": 0.6496833906,
				"element": "O" 
			},
			{
				"x": -3.6142882749,
				"y": 2.1881381823,
				"z": 1.5388757713,
				"element": "O" 
			},
			{
				"x": -4.7730283599,
				"y": 2.829170228,
				"z": 2.1221084278,
				"element": "C" 
			},
			{
				"x": -4.2892974554,
				"y": 4.0523641699,
				"z": 2.877701348,
				"element": "C" 
			},
			{
				"x": -1.3380303484,
				"y": 0.8398626045,
				"z": 0.3706199667,
				"element": "C" 
			},
			{
				"x": -0.8449074672,
				"y": 1.9524391164,
				"z": 1.029760485,
				"element": "N" 
			},
			{
				"x": 4.9684677213,
				"y": -3.2449093386,
				"z": -0.8522628021,
				"element": "H" 
			},
			{
				"x": 5.5769872838,
				"y": -1.8858807191,
				"z": 0.122363473,
				"element": "H" 
			},
			{
				"x": 6.558226269,
				"y": -2.5417767262,
				"z": -1.2028479728,
				"element": "H" 
			},
			{
				"x": 5.4622613139,
				"y": -0.4021186016,
				"z": -1.9232336984,
				"element": "H" 
			},
			{
				"x": 4.8162004304,
				"y": -1.775392914,
				"z": -2.8594805003,
				"element": "H" 
			},
			{
				"x": 1.461434459,
				"y": 1.7539997548,
				"z": -0.1350118759,
				"element": "H" 
			},
			{
				"x": 2.7570685859,
				"y": 0.6973905061,
				"z": -0.4269243491,
				"element": "H" 
			},
			{
				"x": -5.4699519019,
				"y": 3.0909281128,
				"z": 1.3204517166,
				"element": "H" 
			},
			{
				"x": -5.2794619108,
				"y": 2.1144696054,
				"z": 2.7779188028,
				"element": "H" 
			},
			{
				"x": -5.1415707729,
				"y": 4.5686704176,
				"z": 3.3300697982,
				"element": "H" 
			},
			{
				"x": -3.5974551216,
				"y": 3.7732098285,
				"z": 3.6784424976,
				"element": "H" 
			},
			{
				"x": -3.782164299,
				"y": 4.753177908,
				"z": 2.2077496191,
				"element": "H" 
			},
			{
				"x": 0.0257337186,
				"y": 1.7888779105,
				"z": 1.5202109615,
				"element": "H" 
			},
			{
				"x": -1.5415952141,
				"y": 2.4343358555,
				"z": 1.5849792479,
				"element": "H" 
			}
		],
		 "valence_orbital": [ 
			{
				"type": "occ",
				"energy": -0.27622,
				"method": "rhf"
			},
			{
				"type": "occ",
				"energy": -0.27376,
				"method": "rhf"
			},
			{
				"type": "occ",
				"energy": -0.24611,
				"method": "rhf"
			},
			{
				"type": "occ",
				"energy": -0.22923,
				"method": "rhf"
			},
			{
				"type": "occ",
				"energy": -0.20383,
				"method": "rhf"
			},
			{
				"type": "unocc",
				"energy": -0.04567,
				"method": "rhf"
			},
			{
				"type": "unocc",
				"energy": -0.03886,
				"method": "rhf"
			},
			{
				"type": "unocc",
				"energy": 0.00516,
				"method": "rhf"
			},
			{
				"type": "unocc",
				"energy": 0.03239,
				"method": "rhf"
			},
			{
				"type": "unocc",
				"energy": 0.04692,
				"method": "rhf"
			}
		],
		"cosmo_sigma_profile": { 
			"-0.025": 0.0,
			"-0.024": 0.0,
			"-0.023": 0.0,
			"-0.022": 0.0,
			"-0.021": 0.0,
			"-0.02": 0.0,
			"-0.019": 0.0,
			"-0.018": 0.0,
			"-0.017": 0.0,
			"-0.016": 0.0,
			"-0.015": 0.0,
			"-0.014": 0.0,
			"-0.013": 0.913745142674,
			"-0.012": 1.86610838814,
			"-0.011": 2.95571953499,
			"-0.01": 4.80755658015,
			"-0.009": 4.5674084569,
			"-0.008": 3.81966341587,
			"-0.007": 3.58041640473,
			"-0.006": 6.71853101502,
			"-0.005": 14.7235427924,
			"-0.004": 26.0293433526,
			"-0.003": 30.1973742666,
			"-0.002": 28.3114796144,
			"-0.001": 28.4859046126,
			"0.0": 33.8367173518,
			"0.001": 34.8371168888,
			"0.002": 26.7519539183,
			"0.003": 19.6220005555,
			"0.004": 13.6854658467,
			"0.005": 6.73759735541,
			"0.006": 5.0848566584,
			"0.007": 4.89026930022,
			"0.008": 3.77937420876,
			"0.009": 3.86403599903,
			"0.01": 4.74569380949,
			"0.011": 4.22591696028,
			"0.012": 9.24877928281,
			"0.013": 2.5274957155,
			"0.014": 0.0,
			"0.015": 0.0,
			"0.016": 0.0,
			"0.017": 0.0,
			"0.018": 0.0,
			"0.019": 0.0,
			"0.02": 0.0,
			"0.021": 0.0,
			"0.022": 0.0,
			"0.023": 0.0,
			"0.024": 0.0,
			"0.025": 0.0
		}
	}
}
