{
	 "smiles": "CC(C)C1=CC=C2C=CC=CC2=C1", 
	 "Tm": 287.35, 
	 "num_atms": 27, 
	 "gaussian": { 
		 "optdone": 1, 
		 "sigma_profile": "yes", 
		 "theory": "DFT", 
		 "functional": "B3LYP", 
		 "basiset": "6-31G**", 
		 "properties": { 
			 "R2extent": 3118.6192, 
			 "electric_dipole_moment_norm": 0.38382701833, 
			 "electric_quadrupole_moment_norm": 7.19747835287, 
			 "total_energy": -503.847183362, 
			 "HOMO_LUMO_gap": 0.17406, 
			 "cosmo_polarized_energy": -4.54, 
			 "cosmo_cavitation_energy": 29.26, 
			 "cosmo_dispersion_energy": -21.12, 
			 "cosmo_repulsion_energy": 1.66, 
			 "cosmo_total_nonelectrostatic_energy": 9.8, 
			 "SMD_solvation_energy": 4.76 
		},
		"coords": [
			{
				"x": 0.5958546574,
				"y": -0.1949602288,
				"z": -3.3329961049,
				"element": "C" 
			},
			{
				"x": 1.6197255563,
				"y": -0.0517719415,
				"z": -2.1909810505,
				"element": "C" 
			},
			{
				"x": 2.818026459,
				"y": -0.9970535355,
				"z": -2.3998611002,
				"element": "C" 
			},
			{
				"x": 0.9761026989,
				"y": -0.2432157027,
				"z": -0.8222953285,
				"element": "C" 
			},
			{
				"x": 0.9690041181,
				"y": 0.8248125757,
				"z": 0.1160558804,
				"element": "C" 
			},
			{
				"x": 0.3969844196,
				"y": 0.6860995295,
				"z": 1.3602485524,
				"element": "C" 
			},
			{
				"x": -0.2094027942,
				"y": -0.5358859325,
				"z": 1.7515989848,
				"element": "C" 
			},
			{
				"x": -0.8107693781,
				"y": -0.7205765504,
				"z": 3.0259413909,
				"element": "C" 
			},
			{
				"x": -1.3885130307,
				"y": -1.9227303572,
				"z": 3.365969066,
				"element": "C" 
			},
			{
				"x": -1.391218815,
				"y": -2.9991321798,
				"z": 2.4436166556,
				"element": "C" 
			},
			{
				"x": -0.8169055027,
				"y": -2.852039704,
				"z": 1.2014496276,
				"element": "C" 
			},
			{
				"x": -0.2113228226,
				"y": -1.6238335564,
				"z": 0.817537612,
				"element": "C" 
			},
			{
				"x": 0.3891442055,
				"y": -1.4400947304,
				"z": -0.4553850062,
				"element": "C" 
			},
			{
				"x": 1.0656723087,
				"y": 0.0075068234,
				"z": -4.3018562439,
				"element": "H" 
			},
			{
				"x": -0.2396528697,
				"y": 0.5004973349,
				"z": -3.206603888,
				"element": "H" 
			},
			{
				"x": 0.1824444053,
				"y": -1.2087947704,
				"z": -3.3694139097,
				"element": "H" 
			},
			{
				"x": 2.0042033465,
				"y": 0.9763025397,
				"z": -2.2228423214,
				"element": "H" 
			},
			{
				"x": 3.3031966291,
				"y": -0.8003412073,
				"z": -3.3623222255,
				"element": "H" 
			},
			{
				"x": 3.5644646834,
				"y": -0.8724061976,
				"z": -1.6092942183,
				"element": "H" 
			},
			{
				"x": 2.5006977195,
				"y": -2.0455812611,
				"z": -2.3956763908,
				"element": "H" 
			},
			{
				"x": 1.4281017554,
				"y": 1.7704130565,
				"z": -0.1626034628,
				"element": "H" 
			},
			{
				"x": 0.403616105,
				"y": 1.5170420289,
				"z": 2.0615514855,
				"element": "H" 
			},
			{
				"x": -0.8065426869,
				"y": 0.1075423392,
				"z": 3.7305270194,
				"element": "H" 
			},
			{
				"x": -1.8448517698,
				"y": -2.0509177253,
				"z": 4.3433286598,
				"element": "H" 
			},
			{
				"x": -1.8499029183,
				"y": -3.9436983136,
				"z": 2.7220247587,
				"element": "H" 
			},
			{
				"x": -0.8186807256,
				"y": -3.677284406,
				"z": 0.4934960435,
				"element": "H" 
			},
			{
				"x": 0.3773242458,
				"y": -2.2775979272,
				"z": -1.1496144859,
				"element": "H" 
			}
		],
		 "valence_orbital": [ 
			{
				"type": "occ",
				"energy": -0.31607,
				"method": "rhf"
			},
			{
				"type": "occ",
				"energy": -0.31308,
				"method": "rhf"
			},
			{
				"type": "occ",
				"energy": -0.27785,
				"method": "rhf"
			},
			{
				"type": "occ",
				"energy": -0.23497,
				"method": "rhf"
			},
			{
				"type": "occ",
				"energy": -0.20872,
				"method": "rhf"
			},
			{
				"type": "unocc",
				"energy": -0.03466,
				"method": "rhf"
			},
			{
				"type": "unocc",
				"energy": -0.00302,
				"method": "rhf"
			},
			{
				"type": "unocc",
				"energy": 0.03648,
				"method": "rhf"
			},
			{
				"type": "unocc",
				"energy": 0.09024,
				"method": "rhf"
			},
			{
				"type": "unocc",
				"energy": 0.1011,
				"method": "rhf"
			}
		],
		"cosmo_sigma_profile": { 
			"-0.025": 0.0,
			"-0.024": 0.0,
			"-0.023": 0.0,
			"-0.022": 0.0,
			"-0.021": 0.0,
			"-0.02": 0.0,
			"-0.019": 0.0,
			"-0.018": 0.0,
			"-0.017": 0.0,
			"-0.016": 0.0,
			"-0.015": 0.0,
			"-0.014": 0.0,
			"-0.013": 0.0,
			"-0.012": 0.0,
			"-0.011": 0.0,
			"-0.01": 0.0,
			"-0.009": 0.0,
			"-0.008": 0.0,
			"-0.007": 0.0,
			"-0.006": 4.10043121969,
			"-0.005": 15.9987634989,
			"-0.004": 18.1689628284,
			"-0.003": 24.0714250943,
			"-0.002": 22.9647438382,
			"-0.001": 24.7531495833,
			"0.0": 21.594437506,
			"0.001": 24.0757619953,
			"0.002": 16.5049374395,
			"0.003": 11.4383128928,
			"0.004": 17.3895374628,
			"0.005": 22.6514849474,
			"0.006": 7.4869077705,
			"0.007": 0.0,
			"0.008": 0.0,
			"0.009": 0.0,
			"0.01": 0.0,
			"0.011": 0.0,
			"0.012": 0.0,
			"0.013": 0.0,
			"0.014": 0.0,
			"0.015": 0.0,
			"0.016": 0.0,
			"0.017": 0.0,
			"0.018": 0.0,
			"0.019": 0.0,
			"0.02": 0.0,
			"0.021": 0.0,
			"0.022": 0.0,
			"0.023": 0.0,
			"0.024": 0.0,
			"0.025": 0.0
		}
	}
}
