{
	 "smiles": "CC1=NNC(=O)C2=C1C=CC=C2", 
	 "Tm": 498.15, 
	 "num_atms": 20, 
	 "gaussian": { 
		 "optdone": 1, 
		 "sigma_profile": "yes", 
		 "theory": "DFT", 
		 "functional": "B3LYP", 
		 "basiset": "6-31G**", 
		 "properties": { 
			 "R2extent": 1940.2938, 
			 "electric_dipole_moment_norm": 3.67770777251, 
			 "electric_quadrupole_moment_norm": 7.40769576589, 
			 "total_energy": -532.512155673, 
			 "HOMO_LUMO_gap": 0.17782, 
			 "cosmo_polarized_energy": -11.46, 
			 "cosmo_cavitation_energy": 23.85, 
			 "cosmo_dispersion_energy": -18.0, 
			 "cosmo_repulsion_energy": 1.41, 
			 "cosmo_total_nonelectrostatic_energy": 7.26, 
			 "SMD_solvation_energy": 3.94 
		},
		"coords": [
			{
				"x": -2.2146138495,
				"y": 1.4693672123,
				"z": -1.3704021108,
				"element": "C" 
			},
			{
				"x": -0.9103550119,
				"y": 1.2170316189,
				"z": -0.6619475654,
				"element": "C" 
			},
			{
				"x": 0.075644143,
				"y": 2.0074213335,
				"z": -0.9743039515,
				"element": "N" 
			},
			{
				"x": 1.2669442411,
				"y": 1.810426844,
				"z": -0.356179196,
				"element": "N" 
			},
			{
				"x": 1.6072351974,
				"y": 0.858724485,
				"z": 0.594120222,
				"element": "C" 
			},
			{
				"x": 2.739090982,
				"y": 0.8073155609,
				"z": 1.0647770578,
				"element": "O" 
			},
			{
				"x": 0.4869477117,
				"y": -0.0309029173,
				"z": 0.9420518476,
				"element": "C" 
			},
			{
				"x": -0.7683057413,
				"y": 0.1469973893,
				"z": 0.3163648309,
				"element": "C" 
			},
			{
				"x": -1.8233899318,
				"y": -0.7193769174,
				"z": 0.6685308203,
				"element": "C" 
			},
			{
				"x": -1.6240622272,
				"y": -1.7207337631,
				"z": 1.6089342144,
				"element": "C" 
			},
			{
				"x": -0.3718927142,
				"y": -1.8868230273,
				"z": 2.223282564,
				"element": "C" 
			},
			{
				"x": 0.6791915928,
				"y": -1.044503094,
				"z": 1.8904545955,
				"element": "C" 
			},
			{
				"x": -2.5337724211,
				"y": 0.5931699073,
				"z": -1.9466700418,
				"element": "H" 
			},
			{
				"x": -3.0169834728,
				"y": 1.7042777979,
				"z": -0.661394506,
				"element": "H" 
			},
			{
				"x": -2.0951857819,
				"y": 2.3113910989,
				"z": -2.053411663,
				"element": "H" 
			},
			{
				"x": 1.9994116941,
				"y": 2.4511171823,
				"z": -0.6342296825,
				"element": "H" 
			},
			{
				"x": -2.7960307803,
				"y": -0.6031620555,
				"z": 0.2024301276,
				"element": "H" 
			},
			{
				"x": -2.4452126121,
				"y": -2.3815357856,
				"z": 1.8713261059,
				"element": "H" 
			},
			{
				"x": -0.2291974519,
				"y": -2.6741117277,
				"z": 2.9573542335,
				"element": "H" 
			},
			{
				"x": 1.6602364339,
				"y": -1.1415911427,
				"z": 2.3432120976,
				"element": "H" 
			}
		],
		 "valence_orbital": [ 
			{
				"type": "occ",
				"energy": -0.3046,
				"method": "rhf"
			},
			{
				"type": "occ",
				"energy": -0.28609,
				"method": "rhf"
			},
			{
				"type": "occ",
				"energy": -0.26737,
				"method": "rhf"
			},
			{
				"type": "occ",
				"energy": -0.24929,
				"method": "rhf"
			},
			{
				"type": "occ",
				"energy": -0.22905,
				"method": "rhf"
			},
			{
				"type": "unocc",
				"energy": -0.05123,
				"method": "rhf"
			},
			{
				"type": "unocc",
				"energy": -0.04413,
				"method": "rhf"
			},
			{
				"type": "unocc",
				"energy": 0.03132,
				"method": "rhf"
			},
			{
				"type": "unocc",
				"energy": 0.06928,
				"method": "rhf"
			},
			{
				"type": "unocc",
				"energy": 0.08592,
				"method": "rhf"
			}
		],
		"cosmo_sigma_profile": { 
			"-0.025": 0.0,
			"-0.024": 0.0,
			"-0.023": 0.0,
			"-0.022": 0.0,
			"-0.021": 0.0,
			"-0.02": 0.0,
			"-0.019": 0.0,
			"-0.018": 0.0,
			"-0.017": 0.0,
			"-0.016": 0.163551608475,
			"-0.015": 1.12432358417,
			"-0.014": 1.05281970465,
			"-0.013": 0.798029075917,
			"-0.012": 0.589556259349,
			"-0.011": 0.864636709734,
			"-0.01": 0.709338357024,
			"-0.009": 1.0029679143,
			"-0.008": 0.513398861896,
			"-0.007": 4.58757621066,
			"-0.006": 11.0505907927,
			"-0.005": 15.9201548262,
			"-0.004": 13.6560880555,
			"-0.003": 13.6636664919,
			"-0.002": 13.3829721143,
			"-0.001": 17.885185884,
			"0.0": 17.1853084306,
			"0.001": 14.0092523282,
			"0.002": 15.2012208843,
			"0.003": 12.7156633774,
			"0.004": 5.1342617929,
			"0.005": 3.41921797731,
			"0.006": 2.3665402646,
			"0.007": 2.01822924358,
			"0.008": 2.79715697836,
			"0.009": 2.24267054423,
			"0.01": 1.89709599604,
			"0.011": 2.56016385487,
			"0.012": 2.92428203935,
			"0.013": 5.86048436815,
			"0.014": 3.4288816596,
			"0.015": 0.077133220707,
			"0.016": 0.0,
			"0.017": 0.0,
			"0.018": 0.0,
			"0.019": 0.0,
			"0.02": 0.0,
			"0.021": 0.0,
			"0.022": 0.0,
			"0.023": 0.0,
			"0.024": 0.0,
			"0.025": 0.0
		}
	}
}
