{
	 "smiles": "ClC(=O)C1=CC=CN=C1OC1=CC=CC=C1", 
	 "Tm": 363.65, 
	 "num_atms": 24, 
	 "gaussian": { 
		 "optdone": 1, 
		 "sigma_profile": "yes", 
		 "theory": "DFT", 
		 "functional": "B3LYP", 
		 "basiset": "6-31G**", 
		 "properties": { 
			 "R2extent": 4228.5949, 
			 "electric_dipole_moment_norm": 3.82098844411, 
			 "electric_quadrupole_moment_norm": 16.2584196806, 
			 "total_energy": -1127.47935208, 
			 "HOMO_LUMO_gap": 0.16534, 
			 "cosmo_polarized_energy": -10.04, 
			 "cosmo_cavitation_energy": 31.54, 
			 "cosmo_dispersion_energy": -22.38, 
			 "cosmo_repulsion_energy": 1.76, 
			 "cosmo_total_nonelectrostatic_energy": 10.92, 
			 "SMD_solvation_energy": 5.34 
		},
		"coords": [
			{
				"x": 2.9992117551,
				"y": -0.8402554898,
				"z": 0.1904028374,
				"element": "Cl" 
			},
			{
				"x": 2.198444673,
				"y": -0.8388291236,
				"z": 1.8125343527,
				"element": "C" 
			},
			{
				"x": 2.8797527068,
				"y": -0.8946972355,
				"z": 2.7956515755,
				"element": "O" 
			},
			{
				"x": 0.7146545836,
				"y": -0.8779250551,
				"z": 1.8235049351,
				"element": "C" 
			},
			{
				"x": 0.1337024057,
				"y": -1.5250923047,
				"z": 2.9232604128,
				"element": "C" 
			},
			{
				"x": -1.247816293,
				"y": -1.6524282325,
				"z": 3.0135786822,
				"element": "C" 
			},
			{
				"x": -2.0139304125,
				"y": -1.1029075389,
				"z": 1.987214781,
				"element": "C" 
			},
			{
				"x": -1.493822848,
				"y": -0.4374744772,
				"z": 0.9513016837,
				"element": "N" 
			},
			{
				"x": -0.1743121942,
				"y": -0.3132590606,
				"z": 0.8727420216,
				"element": "C" 
			},
			{
				"x": 0.3504127069,
				"y": 0.4351836454,
				"z": -0.120358018,
				"element": "O" 
			},
			{
				"x": -0.4585269059,
				"y": 0.9070002184,
				"z": -1.160381757,
				"element": "C" 
			},
			{
				"x": -0.6391222702,
				"y": 2.2823018834,
				"z": -1.263682053,
				"element": "C" 
			},
			{
				"x": -1.3525543585,
				"y": 2.791776219,
				"z": -2.35050706,
				"element": "C" 
			},
			{
				"x": -1.8756373275,
				"y": 1.9293528862,
				"z": -3.3151356293,
				"element": "C" 
			},
			{
				"x": -1.6796703491,
				"y": 0.5509253598,
				"z": -3.1955255321,
				"element": "C" 
			},
			{
				"x": -0.9650963623,
				"y": 0.030334445,
				"z": -2.1171596685,
				"element": "C" 
			},
			{
				"x": 0.790191767,
				"y": -1.9349782417,
				"z": 3.6832946007,
				"element": "H" 
			},
			{
				"x": -1.7158722656,
				"y": -2.1658277188,
				"z": 3.8457508411,
				"element": "H" 
			},
			{
				"x": -3.0987207707,
				"y": -1.1905965491,
				"z": 1.9950959579,
				"element": "H" 
			},
			{
				"x": -0.2188524508,
				"y": 2.9333755414,
				"z": -0.5045461727,
				"element": "H" 
			},
			{
				"x": -1.4970622603,
				"y": 3.8642855516,
				"z": -2.4405032325,
				"element": "H" 
			},
			{
				"x": -2.4298177185,
				"y": 2.3284621866,
				"z": -4.1592085935,
				"element": "H" 
			},
			{
				"x": -2.079779431,
				"y": -0.1235357515,
				"z": -3.9467808692,
				"element": "H" 
			},
			{
				"x": -0.7980763799,
				"y": -1.0363911579,
				"z": -2.015344096,
				"element": "H" 
			}
		],
		 "valence_orbital": [ 
			{
				"type": "occ",
				"energy": -0.29752,
				"method": "rhf"
			},
			{
				"type": "occ",
				"energy": -0.28159,
				"method": "rhf"
			},
			{
				"type": "occ",
				"energy": -0.26429,
				"method": "rhf"
			},
			{
				"type": "occ",
				"energy": -0.25766,
				"method": "rhf"
			},
			{
				"type": "occ",
				"energy": -0.24281,
				"method": "rhf"
			},
			{
				"type": "unocc",
				"energy": -0.07747,
				"method": "rhf"
			},
			{
				"type": "unocc",
				"energy": -0.03128,
				"method": "rhf"
			},
			{
				"type": "unocc",
				"energy": -0.00892,
				"method": "rhf"
			},
			{
				"type": "unocc",
				"energy": -0.00239,
				"method": "rhf"
			},
			{
				"type": "unocc",
				"energy": 0.00328,
				"method": "rhf"
			}
		],
		"cosmo_sigma_profile": { 
			"-0.025": 0.0,
			"-0.024": 0.0,
			"-0.023": 0.0,
			"-0.022": 0.0,
			"-0.021": 0.0,
			"-0.02": 0.0,
			"-0.019": 0.0,
			"-0.018": 0.0,
			"-0.017": 0.0,
			"-0.016": 0.0,
			"-0.015": 0.0,
			"-0.014": 0.0,
			"-0.013": 0.0,
			"-0.012": 0.0,
			"-0.011": 0.0,
			"-0.01": 0.0,
			"-0.009": 0.210927577146,
			"-0.008": 4.52973495678,
			"-0.007": 10.1192703244,
			"-0.006": 16.3899952162,
			"-0.005": 15.9982406078,
			"-0.004": 19.5154503401,
			"-0.003": 15.5173484619,
			"-0.002": 20.017256296,
			"-0.001": 19.6828111318,
			"0.0": 20.2384695308,
			"0.001": 18.0408141172,
			"0.002": 15.2867760232,
			"0.003": 18.0104165,
			"0.004": 21.8559070736,
			"0.005": 15.2886814753,
			"0.006": 6.73983531505,
			"0.007": 5.49744027008,
			"0.008": 5.595310192,
			"0.009": 4.39985828905,
			"0.01": 1.31534077601,
			"0.011": 1.13954448839,
			"0.012": 0.942588833975,
			"0.013": 0.539207099319,
			"0.014": 0.0,
			"0.015": 0.0,
			"0.016": 0.0,
			"0.017": 0.0,
			"0.018": 0.0,
			"0.019": 0.0,
			"0.02": 0.0,
			"0.021": 0.0,
			"0.022": 0.0,
			"0.023": 0.0,
			"0.024": 0.0,
			"0.025": 0.0
		}
	}
}
