{
	 "smiles": "CC(CC(C(N)=O)(C1=CC=CC=C1)C1=CC=CC=C1)N(C)C", 
	 "Tm": 410.15, 
	 "num_atms": 46, 
	 "gaussian": { 
		 "optdone": 1, 
		 "sigma_profile": "yes", 
		 "theory": "DFT", 
		 "functional": "B3LYP", 
		 "basiset": "6-31G**", 
		 "properties": { 
			 "R2extent": 6573.5693, 
			 "electric_dipole_moment_norm": 3.00125058267, 
			 "electric_quadrupole_moment_norm": 8.37503439157, 
			 "total_energy": -923.211840163, 
			 "HOMO_LUMO_gap": 0.1775, 
			 "cosmo_polarized_energy": -12.93, 
			 "cosmo_cavitation_energy": 44.66, 
			 "cosmo_dispersion_energy": -29.17, 
			 "cosmo_repulsion_energy": 2.24, 
			 "cosmo_total_nonelectrostatic_energy": 17.73, 
			 "SMD_solvation_energy": 8.47 
		},
		"coords": [
			{
				"x": 2.2401537586,
				"y": 1.28032629,
				"z": 2.536869084,
				"element": "C" 
			},
			{
				"x": 1.0256512766,
				"y": 1.4571829073,
				"z": 1.5945365129,
				"element": "C" 
			},
			{
				"x": 0.7153144189,
				"y": 0.0997966116,
				"z": 0.9292639526,
				"element": "C" 
			},
			{
				"x": -0.6411918181,
				"y": -0.1206920102,
				"z": 0.1737934063,
				"element": "C" 
			},
			{
				"x": -0.7119168868,
				"y": -1.6731091024,
				"z": -0.0837631141,
				"element": "C" 
			},
			{
				"x": -1.9394101898,
				"y": -2.1796918669,
				"z": -0.3854168318,
				"element": "N" 
			},
			{
				"x": 0.28799314,
				"y": -2.3803125091,
				"z": -0.0749669137,
				"element": "O" 
			},
			{
				"x": -1.8705101826,
				"y": 0.2566924096,
				"z": 1.0282276372,
				"element": "C" 
			},
			{
				"x": -3.0844482966,
				"y": 0.6782841582,
				"z": 0.4557002678,
				"element": "C" 
			},
			{
				"x": -4.2183071748,
				"y": 0.909347707,
				"z": 1.2387701782,
				"element": "C" 
			},
			{
				"x": -4.1732707207,
				"y": 0.723261107,
				"z": 2.6197654531,
				"element": "C" 
			},
			{
				"x": -2.9829337217,
				"y": 0.2908455392,
				"z": 3.2049473696,
				"element": "C" 
			},
			{
				"x": -1.8541272284,
				"y": 0.0552320006,
				"z": 2.4197040465,
				"element": "C" 
			},
			{
				"x": -0.5969711022,
				"y": 0.5711015897,
				"z": -1.2128398875,
				"element": "C" 
			},
			{
				"x": -0.0874931844,
				"y": -0.1084870111,
				"z": -2.3301833061,
				"element": "C" 
			},
			{
				"x": 0.0074196841,
				"y": 0.5146180704,
				"z": -3.5769843272,
				"element": "C" 
			},
			{
				"x": -0.405048892,
				"y": 1.8360143741,
				"z": -3.7365745552,
				"element": "C" 
			},
			{
				"x": -0.8998209666,
				"y": 2.5308046435,
				"z": -2.6313172201,
				"element": "C" 
			},
			{
				"x": -0.9865387279,
				"y": 1.9089695738,
				"z": -1.3858267528,
				"element": "C" 
			},
			{
				"x": 1.1627995318,
				"y": 2.5671200782,
				"z": 0.6382989952,
				"element": "N" 
			},
			{
				"x": 2.3095224584,
				"y": 2.5033810044,
				"z": -0.2559528261,
				"element": "C" 
			},
			{
				"x": 1.0346456307,
				"y": 3.8802528743,
				"z": 1.2485479799,
				"element": "C" 
			},
			{
				"x": 2.5251008404,
				"y": 2.2293728832,
				"z": 3.0015539736,
				"element": "H" 
			},
			{
				"x": 3.1124525605,
				"y": 0.8914649567,
				"z": 2.0008230236,
				"element": "H" 
			},
			{
				"x": 2.0080367238,
				"y": 0.5748356914,
				"z": 3.3416416563,
				"element": "H" 
			},
			{
				"x": 0.1681246956,
				"y": 1.730003796,
				"z": 2.2205708984,
				"element": "H" 
			},
			{
				"x": 0.7834651274,
				"y": -0.6612927565,
				"z": 1.7120296899,
				"element": "H" 
			},
			{
				"x": 1.5112130046,
				"y": -0.1727189629,
				"z": 0.23274989,
				"element": "H" 
			},
			{
				"x": -2.7842240165,
				"y": -1.6515194781,
				"z": -0.237935586,
				"element": "H" 
			},
			{
				"x": -1.9995460802,
				"y": -3.1767918085,
				"z": -0.5255548305,
				"element": "H" 
			},
			{
				"x": -3.1466381046,
				"y": 0.8354220284,
				"z": -0.6154357527,
				"element": "H" 
			},
			{
				"x": -5.1371101938,
				"y": 1.2392991431,
				"z": 0.7616852802,
				"element": "H" 
			},
			{
				"x": -5.0523732647,
				"y": 0.9077680064,
				"z": 3.2301669622,
				"element": "H" 
			},
			{
				"x": -2.9298643555,
				"y": 0.1288178136,
				"z": 4.2779564326,
				"element": "H" 
			},
			{
				"x": -0.9522642376,
				"y": -0.3028387654,
				"z": 2.9038078387,
				"element": "H" 
			},
			{
				"x": 0.253774302,
				"y": -1.1334697778,
				"z": -2.230589985,
				"element": "H" 
			},
			{
				"x": 0.4037793258,
				"y": -0.0413209258,
				"z": -4.4221720121,
				"element": "H" 
			},
			{
				"x": -0.3384633775,
				"y": 2.3209694688,
				"z": -4.7064689458,
				"element": "H" 
			},
			{
				"x": -1.2152497731,
				"y": 3.5656738351,
				"z": -2.7338339956,
				"element": "H" 
			},
			{
				"x": -1.3487222371,
				"y": 2.4755812083,
				"z": -0.5380299967,
				"element": "H" 
			},
			{
				"x": 2.1975752254,
				"y": 3.267939731,
				"z": -1.0322354029,
				"element": "H" 
			},
			{
				"x": 2.3500695979,
				"y": 1.5355194928,
				"z": -0.7606205947,
				"element": "H" 
			},
			{
				"x": 3.2804713364,
				"y": 2.6742539762,
				"z": 0.2445518919,
				"element": "H" 
			},
			{
				"x": 0.1265029775,
				"y": 3.9218302683,
				"z": 1.8594478824,
				"element": "H" 
			},
			{
				"x": 1.8877065577,
				"y": 4.1730591462,
				"z": 1.8904476673,
				"element": "H" 
			},
			{
				"x": 0.946172559,
				"y": 4.6390025904,
				"z": 0.4624448663,
				"element": "H" 
			}
		],
		 "valence_orbital": [ 
			{
				"type": "occ",
				"energy": -0.25572,
				"method": "rhf"
			},
			{
				"type": "occ",
				"energy": -0.24299,
				"method": "rhf"
			},
			{
				"type": "occ",
				"energy": -0.23937,
				"method": "rhf"
			},
			{
				"type": "occ",
				"energy": -0.22807,
				"method": "rhf"
			},
			{
				"type": "occ",
				"energy": -0.19258,
				"method": "rhf"
			},
			{
				"type": "unocc",
				"energy": -0.01508,
				"method": "rhf"
			},
			{
				"type": "unocc",
				"energy": -0.011,
				"method": "rhf"
			},
			{
				"type": "unocc",
				"energy": 0.0047,
				"method": "rhf"
			},
			{
				"type": "unocc",
				"energy": 0.01098,
				"method": "rhf"
			},
			{
				"type": "unocc",
				"energy": 0.03493,
				"method": "rhf"
			}
		],
		"cosmo_sigma_profile": { 
			"-0.025": 0.0,
			"-0.024": 0.0,
			"-0.023": 0.0,
			"-0.022": 0.0,
			"-0.021": 0.0,
			"-0.02": 0.0,
			"-0.019": 0.0,
			"-0.018": 0.0,
			"-0.017": 0.0,
			"-0.016": 0.0,
			"-0.015": 0.0,
			"-0.014": 0.697024263546,
			"-0.013": 0.906530509157,
			"-0.012": 1.23988937158,
			"-0.011": 2.06526587866,
			"-0.01": 2.02302177235,
			"-0.009": 1.92998484876,
			"-0.008": 1.7395884265,
			"-0.007": 1.82167542697,
			"-0.006": 7.73242526121,
			"-0.005": 18.0485484318,
			"-0.004": 23.1173699209,
			"-0.003": 34.9291117608,
			"-0.002": 33.8608377399,
			"-0.001": 39.3506253147,
			"0.0": 41.2040480708,
			"0.001": 32.8629003261,
			"0.002": 23.3760254462,
			"0.003": 19.0873393019,
			"0.004": 17.407962658,
			"0.005": 17.0560855955,
			"0.006": 12.7974431713,
			"0.007": 2.12268568388,
			"0.008": 1.12519687244,
			"0.009": 1.72605097086,
			"0.01": 1.35386012506,
			"0.011": 1.40722224834,
			"0.012": 1.67248502844,
			"0.013": 3.4000785885,
			"0.014": 4.13995841538,
			"0.015": 0.284352628433,
			"0.016": 0.0,
			"0.017": 0.0,
			"0.018": 0.0,
			"0.019": 0.0,
			"0.02": 0.0,
			"0.021": 0.0,
			"0.022": 0.0,
			"0.023": 0.0,
			"0.024": 0.0,
			"0.025": 0.0
		}
	}
}
