{
	 "smiles": "O=C(C=CC1=CC=CC=C1)C1=CC(=CC=C1)C(=O)C=CC1=CC=CC=C1", 
	 "Tm": 415.15, 
	 "num_atms": 44, 
	 "gaussian": { 
		 "optdone": 1, 
		 "sigma_profile": "yes", 
		 "theory": "DFT", 
		 "functional": "B3LYP", 
		 "basiset": "6-31G**", 
		 "properties": { 
			 "R2extent": 17128.847, 
			 "electric_dipole_moment_norm": 3.2855667715, 
			 "electric_quadrupole_moment_norm": 11.8356814916, 
			 "total_energy": -1075.81764711, 
			 "HOMO_LUMO_gap": 0.14953, 
			 "cosmo_polarized_energy": -14.39, 
			 "cosmo_cavitation_energy": 49.35, 
			 "cosmo_dispersion_energy": -35.47, 
			 "cosmo_repulsion_energy": 2.62, 
			 "cosmo_total_nonelectrostatic_energy": 16.5, 
			 "SMD_solvation_energy": 8.99 
		},
		"coords": [
			{
				"x": 2.404450266,
				"y": 1.1662528345,
				"z": -2.9428222974,
				"element": "O" 
			},
			{
				"x": 1.7850997981,
				"y": 0.7547297282,
				"z": -1.9610683592,
				"element": "C" 
			},
			{
				"x": 1.0037159401,
				"y": -0.4978395887,
				"z": -1.9339469745,
				"element": "C" 
			},
			{
				"x": 0.5292741736,
				"y": -1.2890578863,
				"z": -2.9328871202,
				"element": "C" 
			},
			{
				"x": 0.5261168955,
				"y": -1.2552572466,
				"z": -4.39612255,
				"element": "C" 
			},
			{
				"x": -0.2871812489,
				"y": -2.217606266,
				"z": -5.0364164951,
				"element": "C" 
			},
			{
				"x": -0.3836607809,
				"y": -2.2792447945,
				"z": -6.4222146602,
				"element": "C" 
			},
			{
				"x": 0.3420568796,
				"y": -1.3807476085,
				"z": -7.2080091617,
				"element": "C" 
			},
			{
				"x": 1.1604715307,
				"y": -0.4299048443,
				"z": -6.5935199273,
				"element": "C" 
			},
			{
				"x": 1.2590508578,
				"y": -0.3619422598,
				"z": -5.2058015719,
				"element": "C" 
			},
			{
				"x": 1.8516746913,
				"y": 1.5520537671,
				"z": -0.6835630876,
				"element": "C" 
			},
			{
				"x": 0.9020921843,
				"y": 1.4442254591,
				"z": 0.342209518,
				"element": "C" 
			},
			{
				"x": 0.9983904133,
				"y": 2.2296845188,
				"z": 1.4994875594,
				"element": "C" 
			},
			{
				"x": 2.0775278427,
				"y": 3.1172485232,
				"z": 1.6309661417,
				"element": "C" 
			},
			{
				"x": 3.0139524256,
				"y": 3.2477254242,
				"z": 0.6078522103,
				"element": "C" 
			},
			{
				"x": 2.8969125753,
				"y": 2.4786681851,
				"z": -0.5477943253,
				"element": "C" 
			},
			{
				"x": 0.0239202491,
				"y": 2.1382884805,
				"z": 2.6458953967,
				"element": "C" 
			},
			{
				"x": 0.375098994,
				"y": 2.5566451277,
				"z": 3.7497026707,
				"element": "O" 
			},
			{
				"x": -1.3118649999,
				"y": 1.5816291591,
				"z": 2.3523753123,
				"element": "C" 
			},
			{
				"x": -2.2984297055,
				"y": 1.1217756451,
				"z": 3.1673401811,
				"element": "C" 
			},
			{
				"x": -2.4753938601,
				"y": 0.9307705972,
				"z": 4.6076419734,
				"element": "C" 
			},
			{
				"x": -3.6252086966,
				"y": 0.2088462345,
				"z": 5.0003858703,
				"element": "C" 
			},
			{
				"x": -3.8976839459,
				"y": -0.048614998,
				"z": 6.3394260344,
				"element": "C" 
			},
			{
				"x": -3.0271447936,
				"y": 0.4201370764,
				"z": 7.3262779078,
				"element": "C" 
			},
			{
				"x": -1.8916740323,
				"y": 1.1458876437,
				"z": 6.9581934347,
				"element": "C" 
			},
			{
				"x": -1.6123238078,
				"y": 1.4044559344,
				"z": 5.6183340872,
				"element": "C" 
			},
			{
				"x": 0.7736811789,
				"y": -0.8527520057,
				"z": -0.9336788186,
				"element": "H" 
			},
			{
				"x": -0.019205304,
				"y": -2.1541771174,
				"z": -2.5580302035,
				"element": "H" 
			},
			{
				"x": -0.853462254,
				"y": -2.9195565813,
				"z": -4.4291879561,
				"element": "H" 
			},
			{
				"x": -1.0192379765,
				"y": -3.0262377379,
				"z": -6.8887120992,
				"element": "H" 
			},
			{
				"x": 0.2746249648,
				"y": -1.4259149288,
				"z": -8.2913619729,
				"element": "H" 
			},
			{
				"x": 1.7338505247,
				"y": 0.2643146992,
				"z": -7.2012671861,
				"element": "H" 
			},
			{
				"x": 1.9047575605,
				"y": 0.3643529853,
				"z": -4.7308796534,
				"element": "H" 
			},
			{
				"x": 0.081772523,
				"y": 0.7436864714,
				"z": 0.2391399713,
				"element": "H" 
			},
			{
				"x": 2.1557669104,
				"y": 3.6968377041,
				"z": 2.5445385156,
				"element": "H" 
			},
			{
				"x": 3.8361007033,
				"y": 3.9497672038,
				"z": 0.7112793412,
				"element": "H" 
			},
			{
				"x": 3.607223836,
				"y": 2.5725606482,
				"z": -1.3622224416,
				"element": "H" 
			},
			{
				"x": -1.5490317137,
				"y": 1.5388003261,
				"z": 1.2934383699,
				"element": "H" 
			},
			{
				"x": -3.1709586321,
				"y": 0.7723811898,
				"z": 2.6138037778,
				"element": "H" 
			},
			{
				"x": -4.3062129911,
				"y": -0.1574173976,
				"z": 4.2360433264,
				"element": "H" 
			},
			{
				"x": -4.7863710265,
				"y": -0.6094884462,
				"z": 6.6137147717,
				"element": "H" 
			},
			{
				"x": -3.2361194787,
				"y": 0.226288657,
				"z": 8.3746075028,
				"element": "H" 
			},
			{
				"x": -1.2173781709,
				"y": 1.5204101788,
				"z": 7.7231222227,
				"element": "H" 
			},
			{
				"x": -0.7411404999,
				"y": 1.9794353049,
				"z": 5.3347307644,
				"element": "H" 
			}
		],
		 "valence_orbital": [ 
			{
				"type": "occ",
				"energy": -0.2542,
				"method": "rhf"
			},
			{
				"type": "occ",
				"energy": -0.25027,
				"method": "rhf"
			},
			{
				"type": "occ",
				"energy": -0.24706,
				"method": "rhf"
			},
			{
				"type": "occ",
				"energy": -0.23529,
				"method": "rhf"
			},
			{
				"type": "occ",
				"energy": -0.2349,
				"method": "rhf"
			},
			{
				"type": "unocc",
				"energy": -0.08537,
				"method": "rhf"
			},
			{
				"type": "unocc",
				"energy": -0.07863,
				"method": "rhf"
			},
			{
				"type": "unocc",
				"energy": -0.02862,
				"method": "rhf"
			},
			{
				"type": "unocc",
				"energy": -0.02678,
				"method": "rhf"
			},
			{
				"type": "unocc",
				"energy": -0.0031,
				"method": "rhf"
			}
		],
		"cosmo_sigma_profile": { 
			"-0.025": 0.0,
			"-0.024": 0.0,
			"-0.023": 0.0,
			"-0.022": 0.0,
			"-0.021": 0.0,
			"-0.02": 0.0,
			"-0.019": 0.0,
			"-0.018": 0.0,
			"-0.017": 0.0,
			"-0.016": 0.0,
			"-0.015": 0.0,
			"-0.014": 0.0,
			"-0.013": 0.0,
			"-0.012": 0.0,
			"-0.011": 0.0,
			"-0.01": 0.0,
			"-0.009": 0.0128693126074,
			"-0.008": 2.88341063964,
			"-0.007": 12.5863307487,
			"-0.006": 28.6970567881,
			"-0.005": 29.6175112496,
			"-0.004": 29.3438669568,
			"-0.003": 24.4534499608,
			"-0.002": 26.0579465398,
			"-0.001": 25.5335675111,
			"0.0": 26.6720565929,
			"0.001": 29.5330378444,
			"0.002": 39.3560155535,
			"0.003": 44.4713595768,
			"0.004": 33.2846744977,
			"0.005": 20.1326358506,
			"0.006": 5.05557812908,
			"0.007": 3.74199722425,
			"0.008": 3.24400071221,
			"0.009": 3.7707144333,
			"0.01": 3.67756225371,
			"0.011": 3.96054599986,
			"0.012": 2.10110566333,
			"0.013": 0.0382103454201,
			"0.014": 0.0,
			"0.015": 0.0,
			"0.016": 0.0,
			"0.017": 0.0,
			"0.018": 0.0,
			"0.019": 0.0,
			"0.02": 0.0,
			"0.021": 0.0,
			"0.022": 0.0,
			"0.023": 0.0,
			"0.024": 0.0,
			"0.025": 0.0
		}
	}
}
