{
	 "smiles": "CCOC(=O)C(=CC1=CC=CC=C1Cl)C#N", 
	 "Tm": 361.15, 
	 "num_atms": 26, 
	 "gaussian": { 
		 "optdone": 1, 
		 "sigma_profile": "yes", 
		 "theory": "DFT", 
		 "functional": "B3LYP", 
		 "basiset": "6-31G**", 
		 "properties": { 
			 "R2extent": 4592.6405, 
			 "electric_dipole_moment_norm": 7.18700204397, 
			 "electric_quadrupole_moment_norm": 16.2862799924, 
			 "total_energy": -1128.66697728, 
			 "HOMO_LUMO_gap": 0.16487, 
			 "cosmo_polarized_energy": -14.28, 
			 "cosmo_cavitation_energy": 33.91, 
			 "cosmo_dispersion_energy": -22.81, 
			 "cosmo_repulsion_energy": 1.84, 
			 "cosmo_total_nonelectrostatic_energy": 12.94, 
			 "SMD_solvation_energy": 7.96 
		},
		"coords": [
			{
				"x": 1.4962302432,
				"y": 1.0250015763,
				"z": -3.8049763873,
				"element": "C" 
			},
			{
				"x": 1.3073515142,
				"y": 1.3519975837,
				"z": -2.3321894023,
				"element": "C" 
			},
			{
				"x": 0.4163151215,
				"y": 0.3980787095,
				"z": -1.6950815685,
				"element": "O" 
			},
			{
				"x": -0.8986520684,
				"y": 0.6615413389,
				"z": -1.7735669667,
				"element": "C" 
			},
			{
				"x": -1.3849082912,
				"y": 1.6090186468,
				"z": -2.3534440568,
				"element": "O" 
			},
			{
				"x": -1.732413006,
				"y": -0.3906659685,
				"z": -1.0935481825,
				"element": "C" 
			},
			{
				"x": -1.4058559361,
				"y": -1.1504467606,
				"z": -0.0173766419,
				"element": "C" 
			},
			{
				"x": -0.2367525172,
				"y": -1.0601521151,
				"z": 0.8628376925,
				"element": "C" 
			},
			{
				"x": 0.2835650899,
				"y": 0.1794768591,
				"z": 1.2822290815,
				"element": "C" 
			},
			{
				"x": 1.3376657512,
				"y": 0.2558453018,
				"z": 2.1850834281,
				"element": "C" 
			},
			{
				"x": 1.9036970276,
				"y": -0.9144593096,
				"z": 2.6963924816,
				"element": "C" 
			},
			{
				"x": 1.4050762466,
				"y": -2.1576208537,
				"z": 2.3106514815,
				"element": "C" 
			},
			{
				"x": 0.3414274018,
				"y": -2.2212993467,
				"z": 1.4128011499,
				"element": "C" 
			},
			{
				"x": -0.2549287874,
				"y": -3.8075690331,
				"z": 0.9471651593,
				"element": "Cl" 
			},
			{
				"x": -3.0234340354,
				"y": -0.5822304896,
				"z": -1.6917522889,
				"element": "C" 
			},
			{
				"x": -4.0699570304,
				"y": -0.7603720886,
				"z": -2.1668207783,
				"element": "N" 
			},
			{
				"x": 2.2319275321,
				"y": 1.7081691145,
				"z": -4.2420385273,
				"element": "H" 
			},
			{
				"x": 1.8586368825,
				"y": 0.0011384566,
				"z": -3.9334062168,
				"element": "H" 
			},
			{
				"x": 0.5560369758,
				"y": 1.1405342257,
				"z": -4.349378646,
				"element": "H" 
			},
			{
				"x": 2.2411287027,
				"y": 1.2563942564,
				"z": -1.7735905962,
				"element": "H" 
			},
			{
				"x": 0.9005907216,
				"y": 2.356915474,
				"z": -2.1978866809,
				"element": "H" 
			},
			{
				"x": -2.1294940815,
				"y": -1.9137840634,
				"z": 0.2593702068,
				"element": "H" 
			},
			{
				"x": -0.1758676108,
				"y": 1.0893873894,
				"z": 0.9124002116,
				"element": "H" 
			},
			{
				"x": 1.7102399097,
				"y": 1.2259663458,
				"z": 2.4982627636,
				"element": "H" 
			},
			{
				"x": 2.7272129993,
				"y": -0.8636025074,
				"z": 3.4020261333,
				"element": "H" 
			},
			{
				"x": 1.831561245,
				"y": -3.0753627423,
				"z": 2.6995371507,
				"element": "H" 
			}
		],
		 "valence_orbital": [ 
			{
				"type": "occ",
				"energy": -0.31494,
				"method": "rhf"
			},
			{
				"type": "occ",
				"energy": -0.30639,
				"method": "rhf"
			},
			{
				"type": "occ",
				"energy": -0.29151,
				"method": "rhf"
			},
			{
				"type": "occ",
				"energy": -0.27014,
				"method": "rhf"
			},
			{
				"type": "occ",
				"energy": -0.25705,
				"method": "rhf"
			},
			{
				"type": "unocc",
				"energy": -0.09218,
				"method": "rhf"
			},
			{
				"type": "unocc",
				"energy": -0.03092,
				"method": "rhf"
			},
			{
				"type": "unocc",
				"energy": -0.01559,
				"method": "rhf"
			},
			{
				"type": "unocc",
				"energy": 0.01021,
				"method": "rhf"
			},
			{
				"type": "unocc",
				"energy": 0.01497,
				"method": "rhf"
			}
		],
		"cosmo_sigma_profile": { 
			"-0.025": 0.0,
			"-0.024": 0.0,
			"-0.023": 0.0,
			"-0.022": 0.0,
			"-0.021": 0.0,
			"-0.02": 0.0,
			"-0.019": 0.0,
			"-0.018": 0.0,
			"-0.017": 0.0,
			"-0.016": 0.0,
			"-0.015": 0.0,
			"-0.014": 0.0,
			"-0.013": 0.0,
			"-0.012": 0.0,
			"-0.011": 0.0,
			"-0.01": 0.0492346518135,
			"-0.009": 1.56107892908,
			"-0.008": 5.17645993225,
			"-0.007": 10.3442139467,
			"-0.006": 15.0247636901,
			"-0.005": 18.0345681285,
			"-0.004": 21.4089234598,
			"-0.003": 23.4496405042,
			"-0.002": 20.9976689128,
			"-0.001": 21.9415336201,
			"0.0": 24.5883684159,
			"0.001": 18.5492630414,
			"0.002": 20.4207798435,
			"0.003": 18.2468252066,
			"0.004": 10.636013926,
			"0.005": 4.58624517289,
			"0.006": 6.66882059631,
			"0.007": 6.70315767603,
			"0.008": 4.77357654558,
			"0.009": 5.26801785651,
			"0.01": 5.99532287916,
			"0.011": 6.61191924515,
			"0.012": 2.6987293818,
			"0.013": 0.738423222857,
			"0.014": 0.0,
			"0.015": 0.0,
			"0.016": 0.0,
			"0.017": 0.0,
			"0.018": 0.0,
			"0.019": 0.0,
			"0.02": 0.0,
			"0.021": 0.0,
			"0.022": 0.0,
			"0.023": 0.0,
			"0.024": 0.0,
			"0.025": 0.0
		}
	}
}
