{
	 "smiles": "CC(C)(C)CNC(=O)NC1=CC(C(O)=O)=C(Cl)C=C1", 
	 "Tm": 482.15, 
	 "num_atms": 36, 
	 "gaussian": { 
		 "optdone": 1, 
		 "sigma_profile": "yes", 
		 "theory": "DFT", 
		 "functional": "B3LYP", 
		 "basiset": "6-31G**", 
		 "properties": { 
			 "R2extent": 12014.0299, 
			 "electric_dipole_moment_norm": 7.7483366957, 
			 "electric_quadrupole_moment_norm": 28.1001234003, 
			 "total_energy": -1301.04745778, 
			 "HOMO_LUMO_gap": 0.17304, 
			 "cosmo_polarized_energy": -22.4, 
			 "cosmo_cavitation_energy": 40.98, 
			 "cosmo_dispersion_energy": -29.14, 
			 "cosmo_repulsion_energy": 2.24, 
			 "cosmo_total_nonelectrostatic_energy": 14.08, 
			 "SMD_solvation_energy": 7.96 
		},
		"coords": [
			{
				"x": -0.8164964372,
				"y": 3.6271400665,
				"z": 1.5232083823,
				"element": "C" 
			},
			{
				"x": -1.6868882766,
				"y": 2.4441220199,
				"z": 1.0566918824,
				"element": "C" 
			},
			{
				"x": -2.4607521791,
				"y": 2.8624177207,
				"z": -0.2099746076,
				"element": "C" 
			},
			{
				"x": -2.6715492718,
				"y": 2.057535275,
				"z": 2.1763985802,
				"element": "C" 
			},
			{
				"x": -0.7311323335,
				"y": 1.2651959458,
				"z": 0.7483488733,
				"element": "C" 
			},
			{
				"x": -1.4315519213,
				"y": 0.0653516547,
				"z": 0.3097598969,
				"element": "N" 
			},
			{
				"x": -0.8712515639,
				"y": -1.153987859,
				"z": -0.0188249258,
				"element": "C" 
			},
			{
				"x": -1.5083783045,
				"y": -2.0048182378,
				"z": -0.6292304573,
				"element": "O" 
			},
			{
				"x": 0.4361627664,
				"y": -1.3255740293,
				"z": 0.4187272555,
				"element": "N" 
			},
			{
				"x": 1.2471046793,
				"y": -2.4650997833,
				"z": 0.2819538575,
				"element": "C" 
			},
			{
				"x": 0.8570306338,
				"y": -3.6211161631,
				"z": -0.4035581305,
				"element": "C" 
			},
			{
				"x": 1.7138825657,
				"y": -4.7302918417,
				"z": -0.5024234541,
				"element": "C" 
			},
			{
				"x": 1.2100600875,
				"y": -5.9462668817,
				"z": -1.2126949524,
				"element": "C" 
			},
			{
				"x": 0.1392485488,
				"y": -5.6673623909,
				"z": -2.000186032,
				"element": "O" 
			},
			{
				"x": 1.6571725226,
				"y": -7.0691536567,
				"z": -1.1210701301,
				"element": "O" 
			},
			{
				"x": 2.9897799934,
				"y": -4.669211029,
				"z": 0.088396809,
				"element": "C" 
			},
			{
				"x": 4.1632931597,
				"y": -5.9660102978,
				"z": -0.000215436,
				"element": "Cl" 
			},
			{
				"x": 3.3829800627,
				"y": -3.5116748327,
				"z": 0.7616759662,
				"element": "C" 
			},
			{
				"x": 2.5239905679,
				"y": -2.4260712839,
				"z": 0.8633214798,
				"element": "C" 
			},
			{
				"x": -0.2452901114,
				"y": 3.3714546295,
				"z": 2.4228180108,
				"element": "H" 
			},
			{
				"x": -1.4419107903,
				"y": 4.4931290276,
				"z": 1.7625297467,
				"element": "H" 
			},
			{
				"x": -0.1065320654,
				"y": 3.9335717751,
				"z": 0.7467583272,
				"element": "H" 
			},
			{
				"x": -3.1461683304,
				"y": 2.0835252428,
				"z": -0.5626170235,
				"element": "H" 
			},
			{
				"x": -3.0699547663,
				"y": 3.7488635294,
				"z": -0.0056391425,
				"element": "H" 
			},
			{
				"x": -1.7784196104,
				"y": 3.1068110477,
				"z": -1.0315750444,
				"element": "H" 
			},
			{
				"x": -3.2921029712,
				"y": 1.2018464257,
				"z": 1.894986699,
				"element": "H" 
			},
			{
				"x": -3.3374724141,
				"y": 2.8957332176,
				"z": 2.406959694,
				"element": "H" 
			},
			{
				"x": -2.1376088886,
				"y": 1.7916722936,
				"z": 3.0955196672,
				"element": "H" 
			},
			{
				"x": -0.1806497106,
				"y": 1.0403213297,
				"z": 1.6733281451,
				"element": "H" 
			},
			{
				"x": 0.0065878395,
				"y": 1.5952234391,
				"z": -0.0012968775,
				"element": "H" 
			},
			{
				"x": -2.3127683788,
				"y": 0.1885498095,
				"z": -0.1678560631,
				"element": "H" 
			},
			{
				"x": 0.8526063882,
				"y": -0.5689605961,
				"z": 0.9391466722,
				"element": "H" 
			},
			{
				"x": -0.1222497995,
				"y": -3.6599725445,
				"z": -0.8553868912,
				"element": "H" 
			},
			{
				"x": -0.1302508428,
				"y": -6.5199713427,
				"z": -2.3789770014,
				"element": "H" 
			},
			{
				"x": 4.3701845967,
				"y": -3.4681192392,
				"z": 1.2074058149,
				"element": "H" 
			},
			{
				"x": 2.8519945555,
				"y": -1.5385024408,
				"z": 1.3997904094,
				"element": "H" 
			}
		],
		 "valence_orbital": [ 
			{
				"type": "occ",
				"energy": -0.2687,
				"method": "rhf"
			},
			{
				"type": "occ",
				"energy": -0.26701,
				"method": "rhf"
			},
			{
				"type": "occ",
				"energy": -0.2602,
				"method": "rhf"
			},
			{
				"type": "occ",
				"energy": -0.25598,
				"method": "rhf"
			},
			{
				"type": "occ",
				"energy": -0.22059,
				"method": "rhf"
			},
			{
				"type": "unocc",
				"energy": -0.04755,
				"method": "rhf"
			},
			{
				"type": "unocc",
				"energy": -0.0128,
				"method": "rhf"
			},
			{
				"type": "unocc",
				"energy": 0.03634,
				"method": "rhf"
			},
			{
				"type": "unocc",
				"energy": 0.04286,
				"method": "rhf"
			},
			{
				"type": "unocc",
				"energy": 0.05178,
				"method": "rhf"
			}
		],
		"cosmo_sigma_profile": { 
			"-0.025": 0.0,
			"-0.024": 0.0,
			"-0.023": 0.0,
			"-0.022": 0.0,
			"-0.021": 0.0,
			"-0.02": 0.0,
			"-0.019": 0.145597055177,
			"-0.018": 0.949077330206,
			"-0.017": 0.715779997665,
			"-0.016": 1.3530804431,
			"-0.015": 1.19555416122,
			"-0.014": 1.39475694604,
			"-0.013": 1.862242355,
			"-0.012": 2.56233517374,
			"-0.011": 3.07749835528,
			"-0.01": 3.33647980917,
			"-0.009": 3.85372284436,
			"-0.008": 5.22801039565,
			"-0.007": 6.91385181883,
			"-0.006": 7.55474573286,
			"-0.005": 7.29706820195,
			"-0.004": 14.1997004391,
			"-0.003": 30.2213506767,
			"-0.002": 27.274659076,
			"-0.001": 27.6840577005,
			"0.0": 28.0536400265,
			"0.001": 42.2049598999,
			"0.002": 29.0415094893,
			"0.003": 14.4109727777,
			"0.004": 13.0883175294,
			"0.005": 10.37997067,
			"0.006": 6.62876033551,
			"0.007": 4.09286944858,
			"0.008": 4.58963737686,
			"0.009": 3.77708236696,
			"0.01": 3.72896679298,
			"0.011": 5.22434645344,
			"0.012": 6.42078189085,
			"0.013": 3.23607665949,
			"0.014": 2.8758799257,
			"0.015": 0.333480829435,
			"0.016": 0.0,
			"0.017": 0.0,
			"0.018": 0.0,
			"0.019": 0.0,
			"0.02": 0.0,
			"0.021": 0.0,
			"0.022": 0.0,
			"0.023": 0.0,
			"0.024": 0.0,
			"0.025": 0.0
		}
	}
}
