{
	 "smiles": "COC1=C(O)C=C(C(C=O)=C1)[N+]([O-])=O", 
	 "Tm": 481.15, 
	 "num_atms": 21, 
	 "gaussian": { 
		 "optdone": 1, 
		 "sigma_profile": "yes", 
		 "theory": "DFT", 
		 "functional": "B3LYP", 
		 "basiset": "6-31G**", 
		 "properties": { 
			 "R2extent": 3198.0714, 
			 "electric_dipole_moment_norm": 6.3471490025, 
			 "electric_quadrupole_moment_norm": 9.85307775571, 
			 "total_energy": -739.81009931, 
			 "HOMO_LUMO_gap": 0.14768, 
			 "cosmo_polarized_energy": -13.81, 
			 "cosmo_cavitation_energy": 26.56, 
			 "cosmo_dispersion_energy": -19.49, 
			 "cosmo_repulsion_energy": 1.53, 
			 "cosmo_total_nonelectrostatic_energy": 8.6, 
			 "SMD_solvation_energy": 8.98 
		},
		"coords": [
			{
				"x": -1.3052058056,
				"y": -1.0379743344,
				"z": -2.8556420194,
				"element": "C" 
			},
			{
				"x": -1.5214481605,
				"y": -0.1701443865,
				"z": -1.743213977,
				"element": "O" 
			},
			{
				"x": -0.4919241451,
				"y": 0.0395092626,
				"z": -0.8759527019,
				"element": "C" 
			},
			{
				"x": -0.8157156714,
				"y": 0.9188036258,
				"z": 0.1858681226,
				"element": "C" 
			},
			{
				"x": -2.0488901775,
				"y": 1.4620776533,
				"z": 0.2679207914,
				"element": "O" 
			},
			{
				"x": 0.1451576685,
				"y": 1.2241293247,
				"z": 1.1400238081,
				"element": "C" 
			},
			{
				"x": 1.42104442,
				"y": 0.6682353431,
				"z": 1.035320664,
				"element": "C" 
			},
			{
				"x": 1.7637174798,
				"y": -0.221602616,
				"z": 0.0016255737,
				"element": "C" 
			},
			{
				"x": 3.0534849885,
				"y": -0.9651680975,
				"z": -0.1493428296,
				"element": "C" 
			},
			{
				"x": 3.2763280734,
				"y": -1.6626824507,
				"z": -1.1234366994,
				"element": "O" 
			},
			{
				"x": 0.7725048589,
				"y": -0.5218470689,
				"z": -0.9498903453,
				"element": "C" 
			},
			{
				"x": 2.3921041286,
				"y": 1.0953374807,
				"z": 2.0548607703,
				"element": "N" 
			},
			{
				"x": 3.5914631101,
				"y": 1.0278779882,
				"z": 1.777017145,
				"element": "O" 
			},
			{
				"x": 1.9478659567,
				"y": 1.5164273282,
				"z": 3.1215145899,
				"element": "O" 
			},
			{
				"x": -0.5014158849,
				"y": -0.6602377414,
				"z": -3.4970851109,
				"element": "H" 
			},
			{
				"x": -1.0607446126,
				"y": -2.0519410551,
				"z": -2.5203819391,
				"element": "H" 
			},
			{
				"x": -2.2426149846,
				"y": -1.0519843896,
				"z": -3.4116647892,
				"element": "H" 
			},
			{
				"x": -2.5640163034,
				"y": 1.1353669348,
				"z": -0.487094858,
				"element": "H" 
			},
			{
				"x": -0.0920653512,
				"y": 1.8965676297,
				"z": 1.9537697317,
				"element": "H" 
			},
			{
				"x": 3.7802015654,
				"y": -0.8747059881,
				"z": 0.6692010858,
				"element": "H" 
			},
			{
				"x": 1.0489688467,
				"y": -1.2179444429,
				"z": -1.7330170127,
				"element": "H" 
			}
		],
		 "valence_orbital": [ 
			{
				"type": "occ",
				"energy": -0.3135,
				"method": "rhf"
			},
			{
				"type": "occ",
				"energy": -0.299,
				"method": "rhf"
			},
			{
				"type": "occ",
				"energy": -0.27467,
				"method": "rhf"
			},
			{
				"type": "occ",
				"energy": -0.26184,
				"method": "rhf"
			},
			{
				"type": "occ",
				"energy": -0.2459,
				"method": "rhf"
			},
			{
				"type": "unocc",
				"energy": -0.09822,
				"method": "rhf"
			},
			{
				"type": "unocc",
				"energy": -0.05979,
				"method": "rhf"
			},
			{
				"type": "unocc",
				"energy": -0.00959,
				"method": "rhf"
			},
			{
				"type": "unocc",
				"energy": 0.03141,
				"method": "rhf"
			},
			{
				"type": "unocc",
				"energy": 0.05265,
				"method": "rhf"
			}
		],
		"cosmo_sigma_profile": { 
			"-0.025": 0.0,
			"-0.024": 0.0,
			"-0.023": 0.0,
			"-0.022": 0.0,
			"-0.021": 0.0,
			"-0.02": 0.0,
			"-0.019": 0.0,
			"-0.018": 0.0,
			"-0.017": 0.0442221153176,
			"-0.016": 0.337496463074,
			"-0.015": 0.610162270848,
			"-0.014": 0.746002063535,
			"-0.013": 0.181859518348,
			"-0.012": 0.646634098757,
			"-0.011": 0.86715425805,
			"-0.01": 0.749842779323,
			"-0.009": 1.43476800239,
			"-0.008": 3.49977299928,
			"-0.007": 10.9769743599,
			"-0.006": 15.2195176813,
			"-0.005": 14.9101095913,
			"-0.004": 15.0967573245,
			"-0.003": 11.958597473,
			"-0.002": 13.6832096047,
			"-0.001": 19.6459619734,
			"0.0": 18.7032746076,
			"0.001": 12.0915592334,
			"0.002": 8.52198028722,
			"0.003": 6.41952510952,
			"0.004": 4.76960676645,
			"0.005": 6.29774487437,
			"0.006": 6.83630106561,
			"0.007": 10.716209248,
			"0.008": 8.64994281493,
			"0.009": 7.98893125884,
			"0.01": 6.2302307664,
			"0.011": 3.29013661895,
			"0.012": 1.67086849532,
			"0.013": 0.19687825452,
			"0.014": 0.0,
			"0.015": 0.0,
			"0.016": 0.0,
			"0.017": 0.0,
			"0.018": 0.0,
			"0.019": 0.0,
			"0.02": 0.0,
			"0.021": 0.0,
			"0.022": 0.0,
			"0.023": 0.0,
			"0.024": 0.0,
			"0.025": 0.0
		}
	}
}
