{
	 "smiles": "CCCCCCCCC(=O)OC1=CC=C(C=C1)N=NC1=CC=C(CCCC)C=C1", 
	 "Tm": 324.65, 
	 "num_atms": 63, 
	 "gaussian": { 
		 "optdone": 1, 
		 "sigma_profile": "yes", 
		 "theory": "DFT", 
		 "functional": "B3LYP", 
		 "basiset": "6-31G**", 
		 "properties": { 
			 "R2extent": 25758.0883, 
			 "electric_dipole_moment_norm": 3.26725581184, 
			 "electric_quadrupole_moment_norm": 30.6599330053, 
			 "total_energy": -1233.0859161, 
			 "HOMO_LUMO_gap": 0.13444, 
			 "cosmo_polarized_energy": -13.13, 
			 "cosmo_cavitation_energy": 64.88, 
			 "cosmo_dispersion_energy": -43.64, 
			 "cosmo_repulsion_energy": 3.41, 
			 "cosmo_total_nonelectrostatic_energy": 24.64, 
			 "SMD_solvation_energy": 8.48 
		},
		"coords": [
			{
				"x": -6.2164504572,
				"y": -2.6008537018,
				"z": -3.6047114197,
				"element": "C" 
			},
			{
				"x": -6.8927138063,
				"y": -1.3674876246,
				"z": -2.9904834515,
				"element": "C" 
			},
			{
				"x": -6.1104024044,
				"y": -0.6758766154,
				"z": -1.8527041703,
				"element": "C" 
			},
			{
				"x": -5.1086989564,
				"y": 0.416325224,
				"z": -2.277185704,
				"element": "C" 
			},
			{
				"x": -3.8875383092,
				"y": -0.0131493868,
				"z": -3.1103524179,
				"element": "C" 
			},
			{
				"x": -2.9400967914,
				"y": -0.9847921789,
				"z": -2.3917471672,
				"element": "C" 
			},
			{
				"x": -1.6988206615,
				"y": -1.3875232829,
				"z": -3.2075818645,
				"element": "C" 
			},
			{
				"x": -0.6926707964,
				"y": -0.2583831577,
				"z": -3.4625367534,
				"element": "C" 
			},
			{
				"x": 0.0488311052,
				"y": 0.1793643877,
				"z": -2.2155225676,
				"element": "C" 
			},
			{
				"x": 0.0780329358,
				"y": -0.4052035833,
				"z": -1.1596113134,
				"element": "O" 
			},
			{
				"x": 0.7237481735,
				"y": 1.3466749784,
				"z": -2.4706099421,
				"element": "O" 
			},
			{
				"x": 1.5329396882,
				"y": 1.9492419342,
				"z": -1.5093706431,
				"element": "C" 
			},
			{
				"x": 2.7246612732,
				"y": 2.5002419419,
				"z": -1.982269249,
				"element": "C" 
			},
			{
				"x": 3.548286856,
				"y": 3.2057728055,
				"z": -1.1115583339,
				"element": "C" 
			},
			{
				"x": 3.2157668421,
				"y": 3.3109246746,
				"z": 0.2459505281,
				"element": "C" 
			},
			{
				"x": 2.004872015,
				"y": 2.7685988181,
				"z": 0.7032552889,
				"element": "C" 
			},
			{
				"x": 1.1555682137,
				"y": 2.0973548413,
				"z": -0.1721944617,
				"element": "C" 
			},
			{
				"x": 4.0552588959,
				"y": 4.1559353411,
				"z": 1.0440720421,
				"element": "N" 
			},
			{
				"x": 4.4030519503,
				"y": 3.8971253184,
				"z": 2.2170638734,
				"element": "N" 
			},
			{
				"x": 4.1932977531,
				"y": 2.6340192136,
				"z": 2.8608679436,
				"element": "C" 
			},
			{
				"x": 3.8242000355,
				"y": 2.6761407925,
				"z": 4.2119690664,
				"element": "C" 
			},
			{
				"x": 3.7003104191,
				"y": 1.4962794999,
				"z": 4.9399997111,
				"element": "C" 
			},
			{
				"x": 4.0003062044,
				"y": 0.253486839,
				"z": 4.3630884158,
				"element": "C" 
			},
			{
				"x": 3.9290415452,
				"y": -1.0203923666,
				"z": 5.1753744766,
				"element": "C" 
			},
			{
				"x": 5.262260675,
				"y": -1.3580743501,
				"z": 5.8771455422,
				"element": "C" 
			},
			{
				"x": 5.2423972785,
				"y": -2.67395793,
				"z": 6.6715068996,
				"element": "C" 
			},
			{
				"x": 4.307720065,
				"y": -2.6704656138,
				"z": 7.8871269098,
				"element": "C" 
			},
			{
				"x": 4.421056547,
				"y": 0.2329829308,
				"z": 3.0246007828,
				"element": "C" 
			},
			{
				"x": 4.5104579042,
				"y": 1.400459005,
				"z": 2.2721875898,
				"element": "C" 
			},
			{
				"x": -6.0226385154,
				"y": -3.3608347018,
				"z": -2.8388667446,
				"element": "H" 
			},
			{
				"x": -6.8555971686,
				"y": -3.058472912,
				"z": -4.3677046249,
				"element": "H" 
			},
			{
				"x": -5.2604735425,
				"y": -2.361456291,
				"z": -4.0792735767,
				"element": "H" 
			},
			{
				"x": -7.8690623605,
				"y": -1.6803773203,
				"z": -2.5992278983,
				"element": "H" 
			},
			{
				"x": -7.1110591502,
				"y": -0.6335587567,
				"z": -3.7786649089,
				"element": "H" 
			},
			{
				"x": -5.6079638849,
				"y": -1.4369980644,
				"z": -1.2408524223,
				"element": "H" 
			},
			{
				"x": -6.8335671359,
				"y": -0.1942682548,
				"z": -1.1822886647,
				"element": "H" 
			},
			{
				"x": -5.6585871464,
				"y": 1.1836860408,
				"z": -2.8392675446,
				"element": "H" 
			},
			{
				"x": -4.7445550387,
				"y": 0.9154143803,
				"z": -1.3682632656,
				"element": "H" 
			},
			{
				"x": -4.2157801343,
				"y": -0.4556263546,
				"z": -4.0601013469,
				"element": "H" 
			},
			{
				"x": -3.3400558895,
				"y": 0.8985944889,
				"z": -3.3844206092,
				"element": "H" 
			},
			{
				"x": -3.4848122983,
				"y": -1.9013392015,
				"z": -2.1366720308,
				"element": "H" 
			},
			{
				"x": -2.6185095483,
				"y": -0.5508690062,
				"z": -1.4364949556,
				"element": "H" 
			},
			{
				"x": -1.1778246472,
				"y": -2.1980980123,
				"z": -2.6874143955,
				"element": "H" 
			},
			{
				"x": -2.016510263,
				"y": -1.7877945218,
				"z": -4.1787514613,
				"element": "H" 
			},
			{
				"x": 0.0717613036,
				"y": -0.5820227095,
				"z": -4.1816816523,
				"element": "H" 
			},
			{
				"x": -1.1579985574,
				"y": 0.6244847976,
				"z": -3.9127998106,
				"element": "H" 
			},
			{
				"x": 2.9768154335,
				"y": 2.3916612607,
				"z": -3.0318082467,
				"element": "H" 
			},
			{
				"x": 4.4591504076,
				"y": 3.6770562819,
				"z": -1.4666116817,
				"element": "H" 
			},
			{
				"x": 1.7189509794,
				"y": 2.8839120412,
				"z": 1.7426321646,
				"element": "H" 
			},
			{
				"x": 0.2211027351,
				"y": 1.6830928789,
				"z": 0.1816593189,
				"element": "H" 
			},
			{
				"x": 3.6270103367,
				"y": 3.6407569581,
				"z": 4.6697215276,
				"element": "H" 
			},
			{
				"x": 3.3823915807,
				"y": 1.540194276,
				"z": 5.9789049145,
				"element": "H" 
			},
			{
				"x": 3.6505400146,
				"y": -1.857482092,
				"z": 4.5222047135,
				"element": "H" 
			},
			{
				"x": 3.1323344688,
				"y": -0.9282751558,
				"z": 5.922179875,
				"element": "H" 
			},
			{
				"x": 6.0520609062,
				"y": -1.4075627676,
				"z": 5.1169520033,
				"element": "H" 
			},
			{
				"x": 5.5350230771,
				"y": -0.5291907145,
				"z": 6.5443896402,
				"element": "H" 
			},
			{
				"x": 6.2641276817,
				"y": -2.889193423,
				"z": 7.0091352786,
				"element": "H" 
			},
			{
				"x": 4.9662292337,
				"y": -3.497908823,
				"z": 5.9990845769,
				"element": "H" 
			},
			{
				"x": 4.3813580772,
				"y": -3.61147519,
				"z": 8.441989815,
				"element": "H" 
			},
			{
				"x": 4.5622202069,
				"y": -1.8577420941,
				"z": 8.5775346902,
				"element": "H" 
			},
			{
				"x": 3.2589400545,
				"y": -2.5439788587,
				"z": 7.5990629525,
				"element": "H" 
			},
			{
				"x": 4.6745286587,
				"y": -0.7173072197,
				"z": 2.5607509977,
				"element": "H" 
			},
			{
				"x": 4.8341759324,
				"y": 1.3594102867,
				"z": 1.2379937615,
				"element": "H" 
			}
		],
		 "valence_orbital": [ 
			{
				"type": "occ",
				"energy": -0.26368,
				"method": "rhf"
			},
			{
				"type": "occ",
				"energy": -0.25704,
				"method": "rhf"
			},
			{
				"type": "occ",
				"energy": -0.24742,
				"method": "rhf"
			},
			{
				"type": "occ",
				"energy": -0.24654,
				"method": "rhf"
			},
			{
				"type": "occ",
				"energy": -0.20423,
				"method": "rhf"
			},
			{
				"type": "unocc",
				"energy": -0.06979,
				"method": "rhf"
			},
			{
				"type": "unocc",
				"energy": -0.01509,
				"method": "rhf"
			},
			{
				"type": "unocc",
				"energy": -0.01088,
				"method": "rhf"
			},
			{
				"type": "unocc",
				"energy": -0.00222,
				"method": "rhf"
			},
			{
				"type": "unocc",
				"energy": 0.01008,
				"method": "rhf"
			}
		],
		"cosmo_sigma_profile": { 
			"-0.025": 0.0,
			"-0.024": 0.0,
			"-0.023": 0.0,
			"-0.022": 0.0,
			"-0.021": 0.0,
			"-0.02": 0.0,
			"-0.019": 0.0,
			"-0.018": 0.0,
			"-0.017": 0.0,
			"-0.016": 0.0,
			"-0.015": 0.0,
			"-0.014": 0.0,
			"-0.013": 0.0,
			"-0.012": 0.0,
			"-0.011": 0.0,
			"-0.01": 0.0,
			"-0.009": 0.0,
			"-0.008": 0.200672769094,
			"-0.007": 4.03683559659,
			"-0.006": 15.9148909058,
			"-0.005": 22.0104928181,
			"-0.004": 26.4754119567,
			"-0.003": 35.0366607502,
			"-0.002": 67.2235189651,
			"-0.001": 72.6323295422,
			"0.0": 76.690654337,
			"0.001": 63.3835517162,
			"0.002": 39.1692848235,
			"0.003": 23.2904326359,
			"0.004": 18.0681128224,
			"0.005": 9.52560375948,
			"0.006": 5.48137347266,
			"0.007": 4.30791034083,
			"0.008": 3.64092744844,
			"0.009": 3.2643721827,
			"0.01": 4.74819018422,
			"0.011": 5.64389229894,
			"0.012": 3.42751008981,
			"0.013": 2.40152719685,
			"0.014": 1.25530579363,
			"0.015": 0.0708307798431,
			"0.016": 0.0,
			"0.017": 0.0,
			"0.018": 0.0,
			"0.019": 0.0,
			"0.02": 0.0,
			"0.021": 0.0,
			"0.022": 0.0,
			"0.023": 0.0,
			"0.024": 0.0,
			"0.025": 0.0
		}
	}
}
