{
	 "smiles": "CC(O)CN1C=NC2=C1C(=O)N(C)C(=O)N2C", 
	 "Tm": 409.15, 
	 "num_atms": 31, 
	 "gaussian": { 
		 "optdone": 1, 
		 "sigma_profile": "yes", 
		 "theory": "DFT", 
		 "functional": "B3LYP", 
		 "basiset": "6-31G**", 
		 "properties": { 
			 "R2extent": 6164.9503, 
			 "electric_dipole_moment_norm": 4.32004635276, 
			 "electric_quadrupole_moment_norm": 5.09641477511, 
			 "total_energy": -834.226384653, 
			 "HOMO_LUMO_gap": 0.18658, 
			 "cosmo_polarized_energy": -16.22, 
			 "cosmo_cavitation_energy": 33.97, 
			 "cosmo_dispersion_energy": -24.45, 
			 "cosmo_repulsion_energy": 1.87, 
			 "cosmo_total_nonelectrostatic_energy": 11.39, 
			 "SMD_solvation_energy": 5.85 
		},
		"coords": [
			{
				"x": 1.7829710677,
				"y": 3.3891974322,
				"z": -1.9986668305,
				"element": "C" 
			},
			{
				"x": 0.5487389465,
				"y": 2.5486310459,
				"z": -1.6713410873,
				"element": "C" 
			},
			{
				"x": -0.3922128928,
				"y": 2.5575376709,
				"z": -2.7459571696,
				"element": "O" 
			},
			{
				"x": -0.1926592568,
				"y": 3.1062890413,
				"z": -0.4558394854,
				"element": "C" 
			},
			{
				"x": -1.2817777892,
				"y": 2.2365381323,
				"z": -0.0097268047,
				"element": "N" 
			},
			{
				"x": -2.476404163,
				"y": 2.0166878112,
				"z": -0.6181798358,
				"element": "C" 
			},
			{
				"x": -3.2482773602,
				"y": 1.1419860002,
				"z": 0.0235094799,
				"element": "N" 
			},
			{
				"x": -2.4994185469,
				"y": 0.7800944856,
				"z": 1.0985248637,
				"element": "C" 
			},
			{
				"x": -1.2786587677,
				"y": 1.4260520128,
				"z": 1.1192667658,
				"element": "C" 
			},
			{
				"x": -0.3024467181,
				"y": 1.2330114736,
				"z": 2.148811986,
				"element": "C" 
			},
			{
				"x": 0.7991873729,
				"y": 1.7778802236,
				"z": 2.2285469628,
				"element": "O" 
			},
			{
				"x": -0.7552829835,
				"y": 0.3010334207,
				"z": 3.1159995163,
				"element": "N" 
			},
			{
				"x": 0.1342780851,
				"y": -0.0084031783,
				"z": 4.2402449782,
				"element": "C" 
			},
			{
				"x": -1.9891358971,
				"y": -0.3790980001,
				"z": 3.1304118171,
				"element": "C" 
			},
			{
				"x": -2.2612693277,
				"y": -1.1630831652,
				"z": 4.0295820322,
				"element": "O" 
			},
			{
				"x": -2.8654177319,
				"y": -0.1116957529,
				"z": 2.0796176311,
				"element": "N" 
			},
			{
				"x": -4.165965939,
				"y": -0.776987557,
				"z": 2.0291909021,
				"element": "C" 
			},
			{
				"x": 1.4991233037,
				"y": 4.4276788606,
				"z": -2.197328612,
				"element": "H" 
			},
			{
				"x": 2.2840471131,
				"y": 3.000207825,
				"z": -2.891471744,
				"element": "H" 
			},
			{
				"x": 2.5043039507,
				"y": 3.3707247087,
				"z": -1.175444242,
				"element": "H" 
			},
			{
				"x": 0.8556459783,
				"y": 1.5171043054,
				"z": -1.4394809449,
				"element": "H" 
			},
			{
				"x": -0.0194679776,
				"y": 2.0573672533,
				"z": -3.4826515104,
				"element": "H" 
			},
			{
				"x": -0.6071540412,
				"y": 4.086845018,
				"z": -0.7116032388,
				"element": "H" 
			},
			{
				"x": 0.4909950555,
				"y": 3.2105573541,
				"z": 0.3873637574,
				"element": "H" 
			},
			{
				"x": -2.7339591067,
				"y": 2.5106437731,
				"z": -1.5431506991,
				"element": "H" 
			},
			{
				"x": 1.0407564999,
				"y": 0.5776470806,
				"z": 4.1064535359,
				"element": "H" 
			},
			{
				"x": -0.3528521621,
				"y": 0.2469475854,
				"z": 5.1836728023,
				"element": "H" 
			},
			{
				"x": 0.3639969957,
				"y": -1.0759416689,
				"z": 4.2521780664,
				"element": "H" 
			},
			{
				"x": -4.9678463793,
				"y": -0.0344457687,
				"z": 2.0506982747,
				"element": "H" 
			},
			{
				"x": -4.2316201919,
				"y": -1.4302738388,
				"z": 2.8965179781,
				"element": "H" 
			},
			{
				"x": -4.2539171363,
				"y": -1.3580335845,
				"z": 1.107550854,
				"element": "H" 
			}
		],
		 "valence_orbital": [ 
			{
				"type": "occ",
				"energy": -0.28246,
				"method": "rhf"
			},
			{
				"type": "occ",
				"energy": -0.27415,
				"method": "rhf"
			},
			{
				"type": "occ",
				"energy": -0.26322,
				"method": "rhf"
			},
			{
				"type": "occ",
				"energy": -0.25655,
				"method": "rhf"
			},
			{
				"type": "occ",
				"energy": -0.21461,
				"method": "rhf"
			},
			{
				"type": "unocc",
				"energy": -0.02803,
				"method": "rhf"
			},
			{
				"type": "unocc",
				"energy": 0.02735,
				"method": "rhf"
			},
			{
				"type": "unocc",
				"energy": 0.03977,
				"method": "rhf"
			},
			{
				"type": "unocc",
				"energy": 0.05711,
				"method": "rhf"
			},
			{
				"type": "unocc",
				"energy": 0.10074,
				"method": "rhf"
			}
		],
		"cosmo_sigma_profile": { 
			"-0.025": 0.0,
			"-0.024": 0.0,
			"-0.023": 0.0,
			"-0.022": 0.0,
			"-0.021": 0.0,
			"-0.02": 0.0,
			"-0.019": 0.0,
			"-0.018": 0.0,
			"-0.017": 0.0,
			"-0.016": 0.575572485835,
			"-0.015": 1.20343475051,
			"-0.014": 0.771426691822,
			"-0.013": 0.952600291679,
			"-0.012": 1.01435777091,
			"-0.011": 0.916629995293,
			"-0.01": 0.696411181411,
			"-0.009": 1.89132257989,
			"-0.008": 1.87742798237,
			"-0.007": 3.76366876277,
			"-0.006": 8.37023657722,
			"-0.005": 18.5122311941,
			"-0.004": 27.4925833893,
			"-0.003": 34.6153530592,
			"-0.002": 33.6174913593,
			"-0.001": 23.5777000652,
			"0.0": 20.5714651299,
			"0.001": 10.5747335804,
			"0.002": 8.26943798186,
			"0.003": 7.69476433398,
			"0.004": 7.5217771049,
			"0.005": 4.91474664058,
			"0.006": 7.0456879984,
			"0.007": 6.20896759945,
			"0.008": 3.94064851627,
			"0.009": 4.60323139928,
			"0.01": 4.8680481051,
			"0.011": 5.02483390349,
			"0.012": 8.09729458724,
			"0.013": 7.26308367583,
			"0.014": 0.913171553724,
			"0.015": 0.90399616081,
			"0.016": 0.0763676367947,
			"0.017": 0.0,
			"0.018": 0.0,
			"0.019": 0.0,
			"0.02": 0.0,
			"0.021": 0.0,
			"0.022": 0.0,
			"0.023": 0.0,
			"0.024": 0.0,
			"0.025": 0.0
		}
	}
}
