{
	 "smiles": "NC1=C(C(C2OC3=C(C=CC=C3)C2O1)C1=CC=C(Br)C=C1)C(=O)NC1=CC=CC=C1", 
	 "Tm": 555.15, 
	 "num_atms": 49, 
	 "gaussian": { 
		 "optdone": 1, 
		 "sigma_profile": "yes", 
		 "theory": "DFT", 
		 "functional": "B3LYP", 
		 "basiset": "6-31G**", 
		 "properties": { 
			 "R2extent": 16239.19, 
			 "electric_dipole_moment_norm": 4.66816358539, 
			 "electric_quadrupole_moment_norm": 13.7978424313, 
			 "total_energy": -3832.57702087, 
			 "HOMO_LUMO_gap": 0.18127, 
			 "cosmo_polarized_energy": -20.22, 
			 "cosmo_cavitation_energy": 53.99, 
			 "cosmo_dispersion_energy": -36.45, 
			 "cosmo_repulsion_energy": 2.75, 
			 "cosmo_total_nonelectrostatic_energy": 20.29, 
			 "SMD_solvation_energy": 8.07 
		},
		"coords": [
			{
				"x": 1.8917964588,
				"y": -1.1909646601,
				"z": 1.3473778143,
				"element": "N" 
			},
			{
				"x": 0.7251489083,
				"y": -0.9925779528,
				"z": 0.6762994396,
				"element": "C" 
			},
			{
				"x": -0.1517120666,
				"y": 0.0572634249,
				"z": 0.7651351924,
				"element": "C" 
			},
			{
				"x": -1.475357408,
				"y": -0.0467090063,
				"z": 0.0271275517,
				"element": "C" 
			},
			{
				"x": -1.9718450192,
				"y": -1.4988250175,
				"z": 0.0033311607,
				"element": "C" 
			},
			{
				"x": -2.5013766824,
				"y": -1.8441108533,
				"z": 1.3120905667,
				"element": "O" 
			},
			{
				"x": -2.0843607803,
				"y": -3.1041494431,
				"z": 1.6129814339,
				"element": "C" 
			},
			{
				"x": -1.1674231754,
				"y": -3.6186449027,
				"z": 0.6940158634,
				"element": "C" 
			},
			{
				"x": -0.6451326232,
				"y": -4.8978483235,
				"z": 0.8598185581,
				"element": "C" 
			},
			{
				"x": -1.0651528904,
				"y": -5.6557655462,
				"z": 1.956961375,
				"element": "C" 
			},
			{
				"x": -1.9846629,
				"y": -5.1233323732,
				"z": 2.8709473235,
				"element": "C" 
			},
			{
				"x": -2.5119516027,
				"y": -3.8384879474,
				"z": 2.7167669932,
				"element": "C" 
			},
			{
				"x": -0.8750918848,
				"y": -2.5424116333,
				"z": -0.3143567227,
				"element": "C" 
			},
			{
				"x": 0.4880042565,
				"y": -2.0420828518,
				"z": -0.1633825904,
				"element": "O" 
			},
			{
				"x": -1.47646492,
				"y": 0.5535811027,
				"z": -1.3797561367,
				"element": "C" 
			},
			{
				"x": -2.5092496882,
				"y": 1.4200822164,
				"z": -1.7610677125,
				"element": "C" 
			},
			{
				"x": -2.5624373116,
				"y": 1.9730501591,
				"z": -3.0415086152,
				"element": "C" 
			},
			{
				"x": -1.565710419,
				"y": 1.6509357399,
				"z": -3.9589626002,
				"element": "C" 
			},
			{
				"x": -1.623028701,
				"y": 2.399480639,
				"z": -5.7187270053,
				"element": "Br" 
			},
			{
				"x": -0.5234968007,
				"y": 0.7932729338,
				"z": -3.611540815,
				"element": "C" 
			},
			{
				"x": -0.4848157075,
				"y": 0.2526585297,
				"z": -2.325795166,
				"element": "C" 
			},
			{
				"x": -0.0285462959,
				"y": 1.1930850626,
				"z": 1.6847236611,
				"element": "C" 
			},
			{
				"x": -1.0075237989,
				"y": 1.7740403183,
				"z": 2.1504389592,
				"element": "O" 
			},
			{
				"x": 1.2529475603,
				"y": 1.6100920496,
				"z": 2.1118002539,
				"element": "N" 
			},
			{
				"x": 2.3915256991,
				"y": 1.8950340229,
				"z": 1.3105421294,
				"element": "C" 
			},
			{
				"x": 2.3464453988,
				"y": 1.978109932,
				"z": -0.0894945953,
				"element": "C" 
			},
			{
				"x": 3.5088889676,
				"y": 2.2607167372,
				"z": -0.8064355018,
				"element": "C" 
			},
			{
				"x": 4.7208531712,
				"y": 2.4868983002,
				"z": -0.1510226412,
				"element": "C" 
			},
			{
				"x": 4.7632945274,
				"y": 2.4219099641,
				"z": 1.2427562541,
				"element": "C" 
			},
			{
				"x": 3.6126955227,
				"y": 2.118582171,
				"z": 1.9689125133,
				"element": "C" 
			},
			{
				"x": 2.4689811525,
				"y": -1.9497889641,
				"z": 1.0212137624,
				"element": "H" 
			},
			{
				"x": 2.3393260986,
				"y": -0.4151402339,
				"z": 1.8073196651,
				"element": "H" 
			},
			{
				"x": -2.2005353963,
				"y": 0.5119407482,
				"z": 0.6252564903,
				"element": "H" 
			},
			{
				"x": -2.7952370152,
				"y": -1.6137125874,
				"z": -0.7109124867,
				"element": "H" 
			},
			{
				"x": 0.0750617769,
				"y": -5.2984032477,
				"z": 0.1516373662,
				"element": "H" 
			},
			{
				"x": -0.6784213262,
				"y": -6.6592874136,
				"z": 2.1034991661,
				"element": "H" 
			},
			{
				"x": -2.3008761439,
				"y": -5.7237444291,
				"z": 3.7193264713,
				"element": "H" 
			},
			{
				"x": -3.2248433976,
				"y": -3.4217385931,
				"z": 3.4194795291,
				"element": "H" 
			},
			{
				"x": -0.9121381824,
				"y": -2.8695630007,
				"z": -1.3547014086,
				"element": "H" 
			},
			{
				"x": -3.2830143847,
				"y": 1.6777352974,
				"z": -1.0427016301,
				"element": "H" 
			},
			{
				"x": -3.3642817714,
				"y": 2.6479429684,
				"z": -3.3189425801,
				"element": "H" 
			},
			{
				"x": 0.2473538789,
				"y": 0.5515557437,
				"z": -4.3348274078,
				"element": "H" 
			},
			{
				"x": 0.3315098517,
				"y": -0.4108414848,
				"z": -2.0579659041,
				"element": "H" 
			},
			{
				"x": 1.143959727,
				"y": 2.240978044,
				"z": 2.8990702894,
				"element": "H" 
			},
			{
				"x": 1.4087482446,
				"y": 1.8286151232,
				"z": -0.6112354737,
				"element": "H" 
			},
			{
				"x": 3.4574714629,
				"y": 2.3232964065,
				"z": -1.8898199234,
				"element": "H" 
			},
			{
				"x": 5.6177540459,
				"y": 2.7162246074,
				"z": -0.718043575,
				"element": "H" 
			},
			{
				"x": 5.695920381,
				"y": 2.5999642114,
				"z": 1.7705796549,
				"element": "H" 
			},
			{
				"x": 3.6495012027,
				"y": 2.0550840115,
				"z": 3.0535910533,
				"element": "H" 
			}
		],
		 "valence_orbital": [ 
			{
				"type": "occ",
				"energy": -0.2511,
				"method": "rhf"
			},
			{
				"type": "occ",
				"energy": -0.2389,
				"method": "rhf"
			},
			{
				"type": "occ",
				"energy": -0.22307,
				"method": "rhf"
			},
			{
				"type": "occ",
				"energy": -0.22145,
				"method": "rhf"
			},
			{
				"type": "occ",
				"energy": -0.20634,
				"method": "rhf"
			},
			{
				"type": "unocc",
				"energy": -0.02507,
				"method": "rhf"
			},
			{
				"type": "unocc",
				"energy": -0.01995,
				"method": "rhf"
			},
			{
				"type": "unocc",
				"energy": -0.01405,
				"method": "rhf"
			},
			{
				"type": "unocc",
				"energy": -0.01314,
				"method": "rhf"
			},
			{
				"type": "unocc",
				"energy": -0.0101,
				"method": "rhf"
			}
		],
		"cosmo_sigma_profile": { 
			"-0.025": 0.0,
			"-0.024": 0.0,
			"-0.023": 0.0,
			"-0.022": 0.0,
			"-0.021": 0.0,
			"-0.02": 0.0,
			"-0.019": 0.0,
			"-0.018": 0.0,
			"-0.017": 0.0,
			"-0.016": 0.0,
			"-0.015": 0.108545330156,
			"-0.014": 0.907763893926,
			"-0.013": 1.8721961795,
			"-0.012": 1.67995346215,
			"-0.011": 1.87103552564,
			"-0.01": 2.56749406988,
			"-0.009": 2.55022854271,
			"-0.008": 4.79750760582,
			"-0.007": 12.3185158815,
			"-0.006": 25.8794602484,
			"-0.005": 29.0508130779,
			"-0.004": 33.5399554539,
			"-0.003": 29.1276976334,
			"-0.002": 27.7315209455,
			"-0.001": 28.46434914,
			"0.0": 24.0227624048,
			"0.001": 30.0518331875,
			"0.002": 35.6654089185,
			"0.003": 40.0902349595,
			"0.004": 38.3396734545,
			"0.005": 27.7405436835,
			"0.006": 8.5492409167,
			"0.007": 4.95257647652,
			"0.008": 4.50094165374,
			"0.009": 3.33156957644,
			"0.01": 3.08016296852,
			"0.011": 2.45304114948,
			"0.012": 1.5160409111,
			"0.013": 4.01343556279,
			"0.014": 4.03926539564,
			"0.015": 0.228235191353,
			"0.016": 0.0,
			"0.017": 0.0,
			"0.018": 0.0,
			"0.019": 0.0,
			"0.02": 0.0,
			"0.021": 0.0,
			"0.022": 0.0,
			"0.023": 0.0,
			"0.024": 0.0,
			"0.025": 0.0
		}
	}
}
