{
	 "smiles": "CCOC(=O)C1=C(C)N2C(=C1C)C(=O)NN=C2S", 
	 "Tm": 492.15, 
	 "num_atms": 31, 
	 "gaussian": { 
		 "optdone": 1, 
		 "sigma_profile": "yes", 
		 "theory": "DFT", 
		 "functional": "B3LYP", 
		 "basiset": "6-31G**", 
		 "properties": { 
			 "R2extent": 7082.318, 
			 "electric_dipole_moment_norm": 1.63267917853, 
			 "electric_quadrupole_moment_norm": 21.0598276992, 
			 "total_energy": -1215.12075282, 
			 "HOMO_LUMO_gap": 0.17588, 
			 "cosmo_polarized_energy": -13.45, 
			 "cosmo_cavitation_energy": 35.59, 
			 "cosmo_dispersion_energy": -26.53, 
			 "cosmo_repulsion_energy": 1.99, 
			 "cosmo_total_nonelectrostatic_energy": 11.05, 
			 "SMD_solvation_energy": 6.94 
		},
		"coords": [
			{
				"x": -2.4178562785,
				"y": -0.3825210059,
				"z": 3.5738337844,
				"element": "C" 
			},
			{
				"x": -2.0806702864,
				"y": -1.7141774162,
				"z": 2.9197930508,
				"element": "C" 
			},
			{
				"x": -1.9035203433,
				"y": -1.5719095097,
				"z": 1.4899798768,
				"element": "O" 
			},
			{
				"x": -0.6773677348,
				"y": -1.1872374619,
				"z": 1.0669465739,
				"element": "C" 
			},
			{
				"x": 0.2435792802,
				"y": -0.9710721642,
				"z": 1.8388132168,
				"element": "O" 
			},
			{
				"x": -0.6142708499,
				"y": -1.0751376616,
				"z": -0.4055881654,
				"element": "C" 
			},
			{
				"x": 0.5341733993,
				"y": -0.6848130439,
				"z": -1.1024237879,
				"element": "C" 
			},
			{
				"x": 1.8756837949,
				"y": -0.3146961455,
				"z": -0.5532189106,
				"element": "C" 
			},
			{
				"x": 0.213503299,
				"y": -0.6956987573,
				"z": -2.4468438106,
				"element": "N" 
			},
			{
				"x": -1.1415647787,
				"y": -1.0942829499,
				"z": -2.5910806559,
				"element": "C" 
			},
			{
				"x": -1.6718455937,
				"y": -1.3335615539,
				"z": -1.3428299028,
				"element": "C" 
			},
			{
				"x": -3.0803989295,
				"y": -1.7758440586,
				"z": -1.0766026038,
				"element": "C" 
			},
			{
				"x": -1.7324506508,
				"y": -1.1858610218,
				"z": -3.9185120356,
				"element": "C" 
			},
			{
				"x": -2.8843854785,
				"y": -1.5148214221,
				"z": -4.1844865046,
				"element": "O" 
			},
			{
				"x": -0.8405907499,
				"y": -0.8518891439,
				"z": -4.9258299024,
				"element": "N" 
			},
			{
				"x": 0.4600969131,
				"y": -0.4723675272,
				"z": -4.7836922818,
				"element": "N" 
			},
			{
				"x": 0.957799919,
				"y": -0.399560174,
				"z": -3.5997060938,
				"element": "C" 
			},
			{
				"x": 2.6692681159,
				"y": 0.1015779454,
				"z": -3.4696252109,
				"element": "S" 
			},
			{
				"x": -2.6235444992,
				"y": -0.5346123128,
				"z": 4.6386902068,
				"element": "H" 
			},
			{
				"x": -3.3040041547,
				"y": 0.0646697499,
				"z": 3.1138085873,
				"element": "H" 
			},
			{
				"x": -1.5805462767,
				"y": 0.3132062091,
				"z": 3.4822492901,
				"element": "H" 
			},
			{
				"x": -1.1721843309,
				"y": -2.1445171882,
				"z": 3.3470093333,
				"element": "H" 
			},
			{
				"x": -2.9025251091,
				"y": -2.4274073144,
				"z": 3.0177283566,
				"element": "H" 
			},
			{
				"x": 2.66282518,
				"y": -0.9839399425,
				"z": -0.9151304631,
				"element": "H" 
			},
			{
				"x": 2.1546081874,
				"y": 0.7108690692,
				"z": -0.8154176626,
				"element": "H" 
			},
			{
				"x": 1.8281944,
				"y": -0.3941382275,
				"z": 0.5311143497,
				"element": "H" 
			},
			{
				"x": -3.5986117969,
				"y": -1.0561256701,
				"z": -0.43628688,
				"element": "H" 
			},
			{
				"x": -3.619528273,
				"y": -1.8794964174,
				"z": -2.0174148759,
				"element": "H" 
			},
			{
				"x": -3.0924834387,
				"y": -2.7302861366,
				"z": -0.5421129051,
				"element": "H" 
			},
			{
				"x": -1.175513111,
				"y": -0.8914677928,
				"z": -5.878621744,
				"element": "H" 
			},
			{
				"x": 2.7752301755,
				"y": 0.2160190461,
				"z": -4.8066422297,
				"element": "H" 
			}
		],
		 "valence_orbital": [ 
			{
				"type": "occ",
				"energy": -0.27481,
				"method": "rhf"
			},
			{
				"type": "occ",
				"energy": -0.27088,
				"method": "rhf"
			},
			{
				"type": "occ",
				"energy": -0.25951,
				"method": "rhf"
			},
			{
				"type": "occ",
				"energy": -0.23817,
				"method": "rhf"
			},
			{
				"type": "occ",
				"energy": -0.22253,
				"method": "rhf"
			},
			{
				"type": "unocc",
				"energy": -0.04665,
				"method": "rhf"
			},
			{
				"type": "unocc",
				"energy": -0.02824,
				"method": "rhf"
			},
			{
				"type": "unocc",
				"energy": -0.00439,
				"method": "rhf"
			},
			{
				"type": "unocc",
				"energy": 0.00344,
				"method": "rhf"
			},
			{
				"type": "unocc",
				"energy": 0.05258,
				"method": "rhf"
			}
		],
		"cosmo_sigma_profile": { 
			"-0.025": 0.0,
			"-0.024": 0.0,
			"-0.023": 0.0,
			"-0.022": 0.0,
			"-0.021": 0.0,
			"-0.02": 0.0,
			"-0.019": 0.0,
			"-0.018": 0.0,
			"-0.017": 0.0259795648853,
			"-0.016": 0.863770602373,
			"-0.015": 0.833866884916,
			"-0.014": 1.29807368257,
			"-0.013": 0.847943197419,
			"-0.012": 1.28037621537,
			"-0.011": 1.88100492821,
			"-0.01": 2.56752347782,
			"-0.009": 2.14600092115,
			"-0.008": 1.53341055544,
			"-0.007": 2.12517488773,
			"-0.006": 4.35728313581,
			"-0.005": 13.4757887176,
			"-0.004": 21.5928832928,
			"-0.003": 23.5665253782,
			"-0.002": 30.4902715803,
			"-0.001": 32.1128069816,
			"0.0": 35.669814303,
			"0.001": 27.5704704842,
			"0.002": 15.6742664117,
			"0.003": 12.7640712092,
			"0.004": 10.0634730418,
			"0.005": 6.86057603839,
			"0.006": 5.97712803028,
			"0.007": 4.45936333228,
			"0.008": 3.74167637935,
			"0.009": 3.63484411788,
			"0.01": 3.98753549588,
			"0.011": 4.02070308657,
			"0.012": 4.91438556359,
			"0.013": 4.22258026426,
			"0.014": 0.655753262421,
			"0.015": 0.0,
			"0.016": 0.0,
			"0.017": 0.0,
			"0.018": 0.0,
			"0.019": 0.0,
			"0.02": 0.0,
			"0.021": 0.0,
			"0.022": 0.0,
			"0.023": 0.0,
			"0.024": 0.0,
			"0.025": 0.0
		}
	}
}
