{
	 "smiles": "CC1=CN=C(S1)C1=CC(=CC=C1)C(O)=O", 
	 "Tm": 484.15, 
	 "num_atms": 24, 
	 "gaussian": { 
		 "optdone": 1, 
		 "sigma_profile": "yes", 
		 "theory": "DFT", 
		 "functional": "B3LYP", 
		 "basiset": "6-31G**", 
		 "properties": { 
			 "R2extent": 5294.3971, 
			 "electric_dipole_moment_norm": 6.34552457485, 
			 "electric_quadrupole_moment_norm": 16.9076854578, 
			 "total_energy": -1027.99431886, 
			 "HOMO_LUMO_gap": 0.16356, 
			 "cosmo_polarized_energy": -14.82, 
			 "cosmo_cavitation_energy": 30.47, 
			 "cosmo_dispersion_energy": -22.91, 
			 "cosmo_repulsion_energy": 1.73, 
			 "cosmo_total_nonelectrostatic_energy": 9.29, 
			 "SMD_solvation_energy": 4.92 
		},
		"coords": [
			{
				"x": 0.1539731883,
				"y": -2.0332798564,
				"z": -4.0789355019,
				"element": "C" 
			},
			{
				"x": 0.3473682248,
				"y": -1.2908288529,
				"z": -2.7934069543,
				"element": "C" 
			},
			{
				"x": -0.1849068796,
				"y": -0.0890424411,
				"z": -2.4103629154,
				"element": "C" 
			},
			{
				"x": 0.1564704253,
				"y": 0.3749328574,
				"z": -1.1673915582,
				"element": "N" 
			},
			{
				"x": 0.9606908654,
				"y": -0.4500548129,
				"z": -0.5498123416,
				"element": "C" 
			},
			{
				"x": 1.3518953582,
				"y": -1.8897315414,
				"z": -1.4974654456,
				"element": "S" 
			},
			{
				"x": 1.4896150254,
				"y": -0.2149815344,
				"z": 0.8002762906,
				"element": "C" 
			},
			{
				"x": 1.0676541546,
				"y": 0.9294508138,
				"z": 1.4975871455,
				"element": "C" 
			},
			{
				"x": 1.5399057583,
				"y": 1.1978402635,
				"z": 2.783809517,
				"element": "C" 
			},
			{
				"x": 2.4291688016,
				"y": 0.3036363651,
				"z": 3.398544487,
				"element": "C" 
			},
			{
				"x": 2.8576402088,
				"y": -0.8286582553,
				"z": 2.712019151,
				"element": "C" 
			},
			{
				"x": 2.3958133952,
				"y": -1.0875144603,
				"z": 1.4214448771,
				"element": "C" 
			},
			{
				"x": 1.1117036705,
				"y": 2.4011196914,
				"z": 3.5743664877,
				"element": "C" 
			},
			{
				"x": 0.5559518796,
				"y": 3.4280266896,
				"z": 2.8814745654,
				"element": "O" 
			},
			{
				"x": 1.2456864279,
				"y": 2.4830410149,
				"z": 4.7729836704,
				"element": "O" 
			},
			{
				"x": -0.2908609153,
				"y": -3.0213597369,
				"z": -3.9171601782,
				"element": "H" 
			},
			{
				"x": 1.0997615158,
				"y": -2.180601094,
				"z": -4.6120282066,
				"element": "H" 
			},
			{
				"x": -0.5151932364,
				"y": -1.4664229594,
				"z": -4.7321187142,
				"element": "H" 
			},
			{
				"x": -0.8498741636,
				"y": 0.5017586546,
				"z": -3.0312211863,
				"element": "H" 
			},
			{
				"x": 0.3394951827,
				"y": 1.5656559369,
				"z": 1.0030174252,
				"element": "H" 
			},
			{
				"x": 2.7666140703,
				"y": 0.5190631464,
				"z": 4.4062219134,
				"element": "H" 
			},
			{
				"x": 3.5540313213,
				"y": -1.516702853,
				"z": 3.1813089774,
				"element": "H" 
			},
			{
				"x": 2.7419251123,
				"y": -1.9750009233,
				"z": 0.8991332409,
				"element": "H" 
			},
			{
				"x": 0.6370706086,
				"y": 3.2769538879,
				"z": 1.9295152536,
				"element": "H" 
			}
		],
		 "valence_orbital": [ 
			{
				"type": "occ",
				"energy": -0.28875,
				"method": "rhf"
			},
			{
				"type": "occ",
				"energy": -0.28498,
				"method": "rhf"
			},
			{
				"type": "occ",
				"energy": -0.27635,
				"method": "rhf"
			},
			{
				"type": "occ",
				"energy": -0.26908,
				"method": "rhf"
			},
			{
				"type": "occ",
				"energy": -0.23106,
				"method": "rhf"
			},
			{
				"type": "unocc",
				"energy": -0.0675,
				"method": "rhf"
			},
			{
				"type": "unocc",
				"energy": -0.04841,
				"method": "rhf"
			},
			{
				"type": "unocc",
				"energy": 0.00183,
				"method": "rhf"
			},
			{
				"type": "unocc",
				"energy": 0.00741,
				"method": "rhf"
			},
			{
				"type": "unocc",
				"energy": 0.04293,
				"method": "rhf"
			}
		],
		"cosmo_sigma_profile": { 
			"-0.025": 0.0,
			"-0.024": 0.0,
			"-0.023": 0.0,
			"-0.022": 0.0,
			"-0.021": 0.0,
			"-0.02": 0.0,
			"-0.019": 0.277471996339,
			"-0.018": 0.763316566353,
			"-0.017": 0.510806067118,
			"-0.016": 1.45326344839,
			"-0.015": 0.70167642074,
			"-0.014": 1.22682627099,
			"-0.013": 0.917223575432,
			"-0.012": 1.04964670714,
			"-0.011": 0.890523112222,
			"-0.01": 0.893921699251,
			"-0.009": 0.535120821794,
			"-0.008": 1.87186630586,
			"-0.007": 6.64735651967,
			"-0.006": 13.2372811238,
			"-0.005": 16.8000746737,
			"-0.004": 16.836260971,
			"-0.003": 16.0267497748,
			"-0.002": 16.6421129429,
			"-0.001": 18.0997290453,
			"0.0": 16.7831826469,
			"0.001": 23.4411558595,
			"0.002": 27.4705739673,
			"0.003": 17.8150291856,
			"0.004": 6.06813289875,
			"0.005": 4.16509621506,
			"0.006": 3.44088426762,
			"0.007": 4.92291577019,
			"0.008": 4.30226353736,
			"0.009": 4.11367281765,
			"0.01": 5.96084401226,
			"0.011": 6.57607140511,
			"0.012": 4.91330514608,
			"0.013": 1.44712572727,
			"0.014": 0.0114793435467,
			"0.015": 0.0,
			"0.016": 0.0,
			"0.017": 0.0,
			"0.018": 0.0,
			"0.019": 0.0,
			"0.02": 0.0,
			"0.021": 0.0,
			"0.022": 0.0,
			"0.023": 0.0,
			"0.024": 0.0,
			"0.025": 0.0
		}
	}
}
