{
	 "smiles": "BrC(C(=O)C(=O)CC1=CC=CC=C1)C1=CC=CC=C1", 
	 "Tm": 346.15, 
	 "num_atms": 32, 
	 "gaussian": { 
		 "optdone": 1, 
		 "sigma_profile": "yes", 
		 "theory": "DFT", 
		 "functional": "B3LYP", 
		 "basiset": "6-31G**", 
		 "properties": { 
			 "R2extent": 8130.4581, 
			 "electric_dipole_moment_norm": 0.785211627525, 
			 "electric_quadrupole_moment_norm": 14.2866369076, 
			 "total_energy": -3339.3723325, 
			 "HOMO_LUMO_gap": 0.15245, 
			 "cosmo_polarized_energy": -11.59, 
			 "cosmo_cavitation_energy": 39.24, 
			 "cosmo_dispersion_energy": -27.29, 
			 "cosmo_repulsion_energy": 2.12, 
			 "cosmo_total_nonelectrostatic_energy": 14.06, 
			 "SMD_solvation_energy": 6.28 
		},
		"coords": [
			{
				"x": 2.1392410023,
				"y": -1.7204231293,
				"z": 1.6049119731,
				"element": "Br" 
			},
			{
				"x": 0.178834782,
				"y": -2.1573593939,
				"z": 1.7367906404,
				"element": "C" 
			},
			{
				"x": -0.6019555244,
				"y": -0.8555734732,
				"z": 1.525477078,
				"element": "C" 
			},
			{
				"x": -1.5490427941,
				"y": -0.6084918656,
				"z": 2.2443812432,
				"element": "O" 
			},
			{
				"x": -0.2301312953,
				"y": 0.1626850563,
				"z": 0.4158780592,
				"element": "C" 
			},
			{
				"x": 0.088142954,
				"y": -0.216342915,
				"z": -0.6906596974,
				"element": "O" 
			},
			{
				"x": -0.3762744665,
				"y": 1.6203097169,
				"z": 0.8295670974,
				"element": "C" 
			},
			{
				"x": -0.2975050129,
				"y": 2.608476533,
				"z": -0.3074720484,
				"element": "C" 
			},
			{
				"x": -1.447790913,
				"y": 3.2701562915,
				"z": -0.7521977167,
				"element": "C" 
			},
			{
				"x": -1.3822944486,
				"y": 4.1843439449,
				"z": -1.8052422719,
				"element": "C" 
			},
			{
				"x": -0.1617392275,
				"y": 4.4456218577,
				"z": -2.4286368418,
				"element": "C" 
			},
			{
				"x": 0.9913933615,
				"y": 3.7882476147,
				"z": -1.9936567757,
				"element": "C" 
			},
			{
				"x": 0.9230421338,
				"y": 2.8765066895,
				"z": -0.9410610508,
				"element": "C" 
			},
			{
				"x": -0.2194603901,
				"y": -3.3467759275,
				"z": 0.904548618,
				"element": "C" 
			},
			{
				"x": -0.5933171686,
				"y": -4.5202382453,
				"z": 1.5766922382,
				"element": "C" 
			},
			{
				"x": -0.9907223884,
				"y": -5.6508191655,
				"z": 0.8638516451,
				"element": "C" 
			},
			{
				"x": -1.0158510177,
				"y": -5.6208623113,
				"z": -0.5308840582,
				"element": "C" 
			},
			{
				"x": -0.6423100786,
				"y": -4.4561970137,
				"z": -1.2062465792,
				"element": "C" 
			},
			{
				"x": -0.2462626958,
				"y": -3.3231569613,
				"z": -0.4982744911,
				"element": "C" 
			},
			{
				"x": 0.0453302083,
				"y": -2.3927909468,
				"z": 2.7914263635,
				"element": "H" 
			},
			{
				"x": -1.3151783965,
				"y": 1.7081109726,
				"z": 1.3859713602,
				"element": "H" 
			},
			{
				"x": 0.4179841504,
				"y": 1.7995706102,
				"z": 1.5707045305,
				"element": "H" 
			},
			{
				"x": -2.4011392808,
				"y": 3.0709930874,
				"z": -0.2687505636,
				"element": "H" 
			},
			{
				"x": -2.2839120285,
				"y": 4.6923328873,
				"z": -2.1355328889,
				"element": "H" 
			},
			{
				"x": -0.1079375248,
				"y": 5.1578472278,
				"z": -3.2469909397,
				"element": "H" 
			},
			{
				"x": 1.9452355255,
				"y": 3.9863048592,
				"z": -2.4742502108,
				"element": "H" 
			},
			{
				"x": 1.8233990468,
				"y": 2.366651548,
				"z": -0.6088725883,
				"element": "H" 
			},
			{
				"x": -0.5715135551,
				"y": -4.5483418034,
				"z": 2.6628888732,
				"element": "H" 
			},
			{
				"x": -1.2776766551,
				"y": -6.5517539127,
				"z": 1.3979964974,
				"element": "H" 
			},
			{
				"x": -1.3239118965,
				"y": -6.5000876668,
				"z": -1.0892971373,
				"element": "H" 
			},
			{
				"x": -0.6599411723,
				"y": -4.4282662834,
				"z": -2.2918170477,
				"element": "H" 
			},
			{
				"x": 0.0420647666,
				"y": -2.4186778825,
				"z": -1.0211433101,
				"element": "H" 
			}
		],
		 "valence_orbital": [ 
			{
				"type": "occ",
				"energy": -0.26341,
				"method": "rhf"
			},
			{
				"type": "occ",
				"energy": -0.25934,
				"method": "rhf"
			},
			{
				"type": "occ",
				"energy": -0.25206,
				"method": "rhf"
			},
			{
				"type": "occ",
				"energy": -0.24875,
				"method": "rhf"
			},
			{
				"type": "occ",
				"energy": -0.24041,
				"method": "rhf"
			},
			{
				"type": "unocc",
				"energy": -0.08796,
				"method": "rhf"
			},
			{
				"type": "unocc",
				"energy": -0.04416,
				"method": "rhf"
			},
			{
				"type": "unocc",
				"energy": -0.0126,
				"method": "rhf"
			},
			{
				"type": "unocc",
				"energy": -0.00478,
				"method": "rhf"
			},
			{
				"type": "unocc",
				"energy": -0.00317,
				"method": "rhf"
			}
		],
		"cosmo_sigma_profile": { 
			"-0.025": 0.0,
			"-0.024": 0.0,
			"-0.023": 0.0,
			"-0.022": 0.0,
			"-0.021": 0.0,
			"-0.02": 0.0,
			"-0.019": 0.0,
			"-0.018": 0.0,
			"-0.017": 0.0,
			"-0.016": 0.0,
			"-0.015": 0.0,
			"-0.014": 0.0,
			"-0.013": 0.0,
			"-0.012": 0.0,
			"-0.011": 0.0,
			"-0.01": 0.632134824339,
			"-0.009": 2.74737375622,
			"-0.008": 3.79994825023,
			"-0.007": 8.04956136729,
			"-0.006": 21.0663019619,
			"-0.005": 24.3393795106,
			"-0.004": 27.2362337427,
			"-0.003": 24.7119535,
			"-0.002": 19.261771258,
			"-0.001": 19.4638881528,
			"0.0": 16.194961635,
			"0.001": 20.3439005618,
			"0.002": 21.3312252786,
			"0.003": 24.3899094581,
			"0.004": 27.9271368432,
			"0.005": 24.1731124605,
			"0.006": 11.6855954114,
			"0.007": 5.38536651344,
			"0.008": 5.08005876251,
			"0.009": 5.52375055971,
			"0.01": 3.07566201806,
			"0.011": 0.817339191589,
			"0.012": 0.0,
			"0.013": 0.0,
			"0.014": 0.0,
			"0.015": 0.0,
			"0.016": 0.0,
			"0.017": 0.0,
			"0.018": 0.0,
			"0.019": 0.0,
			"0.02": 0.0,
			"0.021": 0.0,
			"0.022": 0.0,
			"0.023": 0.0,
			"0.024": 0.0,
			"0.025": 0.0
		}
	}
}
