{
	 "smiles": "FS(=O)(=O)C1=CC2=C(C=NN2)C=C1", 
	 "Tm": 493.15, 
	 "num_atms": 18, 
	 "gaussian": { 
		 "optdone": 1, 
		 "sigma_profile": "yes", 
		 "theory": "DFT", 
		 "functional": "B3LYP", 
		 "basiset": "6-31G**", 
		 "properties": { 
			 "R2extent": 3125.2754, 
			 "electric_dipole_moment_norm": 4.08160454356, 
			 "electric_quadrupole_moment_norm": 15.7822610177, 
			 "total_energy": -1027.65409847, 
			 "HOMO_LUMO_gap": 0.18015, 
			 "cosmo_polarized_energy": -13.8, 
			 "cosmo_cavitation_energy": 24.78, 
			 "cosmo_dispersion_energy": -19.15, 
			 "cosmo_repulsion_energy": 1.43, 
			 "cosmo_total_nonelectrostatic_energy": 7.06, 
			 "SMD_solvation_energy": 2.8 
		},
		"coords": [
			{
				"x": -2.1389693135,
				"y": -1.838354288,
				"z": -2.6738278097,
				"element": "F" 
			},
			{
				"x": -0.5514832034,
				"y": -1.5796079858,
				"z": -2.4472807891,
				"element": "S" 
			},
			{
				"x": 0.041506689,
				"y": -2.8962124049,
				"z": -2.3054697542,
				"element": "O" 
			},
			{
				"x": -0.1524213165,
				"y": -0.6502342514,
				"z": -3.4888260853,
				"element": "O" 
			},
			{
				"x": -0.6084760796,
				"y": -0.755057657,
				"z": -0.8760204198,
				"element": "C" 
			},
			{
				"x": -0.5912518747,
				"y": 0.6326459394,
				"z": -0.8741574686,
				"element": "C" 
			},
			{
				"x": -0.6436863154,
				"y": 1.2364570006,
				"z": 0.3878987817,
				"element": "C" 
			},
			{
				"x": -0.7107486966,
				"y": 0.4820148327,
				"z": 1.5903164192,
				"element": "C" 
			},
			{
				"x": -0.7447047362,
				"y": 1.4699615809,
				"z": 2.6211513119,
				"element": "C" 
			},
			{
				"x": -0.7034360974,
				"y": 2.692616047,
				"z": 2.1208879372,
				"element": "N" 
			},
			{
				"x": -0.6414504785,
				"y": 2.5474245671,
				"z": 0.7742430821,
				"element": "N" 
			},
			{
				"x": -0.720680923,
				"y": -0.9244426052,
				"z": 1.5346939131,
				"element": "C" 
			},
			{
				"x": -0.6675653189,
				"y": -1.5426541746,
				"z": 0.2980411214,
				"element": "C" 
			},
			{
				"x": -0.5313297509,
				"y": 1.1928772337,
				"z": -1.8001009925,
				"element": "H" 
			},
			{
				"x": -0.7970465524,
				"y": 1.32779444,
				"z": 3.6918692642,
				"element": "H" 
			},
			{
				"x": -0.6017682792,
				"y": 3.3718898329,
				"z": 0.1959574131,
				"element": "H" 
			},
			{
				"x": -0.7628048136,
				"y": -1.5166525918,
				"z": 2.4432070658,
				"element": "H" 
			},
			{
				"x": -0.6559829392,
				"y": -2.6228655155,
				"z": 0.2125170095,
				"element": "H" 
			}
		],
		 "valence_orbital": [ 
			{
				"type": "occ",
				"energy": -0.32631,
				"method": "rhf"
			},
			{
				"type": "occ",
				"energy": -0.32282,
				"method": "rhf"
			},
			{
				"type": "occ",
				"energy": -0.31708,
				"method": "rhf"
			},
			{
				"type": "occ",
				"energy": -0.27744,
				"method": "rhf"
			},
			{
				"type": "occ",
				"energy": -0.25353,
				"method": "rhf"
			},
			{
				"type": "unocc",
				"energy": -0.07338,
				"method": "rhf"
			},
			{
				"type": "unocc",
				"energy": -0.02744,
				"method": "rhf"
			},
			{
				"type": "unocc",
				"energy": 0.01752,
				"method": "rhf"
			},
			{
				"type": "unocc",
				"energy": 0.03058,
				"method": "rhf"
			},
			{
				"type": "unocc",
				"energy": 0.063,
				"method": "rhf"
			}
		],
		"cosmo_sigma_profile": { 
			"-0.025": 0.0,
			"-0.024": 0.0,
			"-0.023": 0.0,
			"-0.022": 0.0,
			"-0.021": 0.0,
			"-0.02": 0.0,
			"-0.019": 0.0,
			"-0.018": 0.142981454488,
			"-0.017": 1.62778525858,
			"-0.016": 1.73494949895,
			"-0.015": 1.74704923288,
			"-0.014": 0.767609522597,
			"-0.013": 0.489676729575,
			"-0.012": 1.69188825968,
			"-0.011": 1.81557920848,
			"-0.01": 1.42279517629,
			"-0.009": 1.46712276712,
			"-0.008": 6.06456702914,
			"-0.007": 8.00584132345,
			"-0.006": 9.62953782543,
			"-0.005": 8.46499359436,
			"-0.004": 6.29952432615,
			"-0.003": 9.57739677918,
			"-0.002": 9.60843952412,
			"-0.001": 9.78847933872,
			"0.0": 21.0995904583,
			"0.001": 18.0885650875,
			"0.002": 20.4042755926,
			"0.003": 13.7919646202,
			"0.004": 6.1511916239,
			"0.005": 4.82629242927,
			"0.006": 3.63943687629,
			"0.007": 6.6297361868,
			"0.008": 10.0260928885,
			"0.009": 8.90412571281,
			"0.01": 2.29082082026,
			"0.011": 1.26769628193,
			"0.012": 0.921593109633,
			"0.013": 1.23548221691,
			"0.014": 0.729574593522,
			"0.015": 0.124996638463,
			"0.016": 0.0,
			"0.017": 0.0,
			"0.018": 0.0,
			"0.019": 0.0,
			"0.02": 0.0,
			"0.021": 0.0,
			"0.022": 0.0,
			"0.023": 0.0,
			"0.024": 0.0,
			"0.025": 0.0
		}
	}
}
