{
	 "smiles": "CC(C)CN1N=CN=C1CO", 
	 "Tm": 366.15, 
	 "num_atms": 24, 
	 "gaussian": { 
		 "optdone": 1, 
		 "sigma_profile": "yes", 
		 "theory": "DFT", 
		 "functional": "B3LYP", 
		 "basiset": "6-31G**", 
		 "properties": { 
			 "R2extent": 2146.5122, 
			 "electric_dipole_moment_norm": 3.89352589821, 
			 "electric_quadrupole_moment_norm": 9.04387020031, 
			 "total_energy": -514.044960156, 
			 "HOMO_LUMO_gap": 0.25307, 
			 "cosmo_polarized_energy": -12.98, 
			 "cosmo_cavitation_energy": 26.66, 
			 "cosmo_dispersion_energy": -18.82, 
			 "cosmo_repulsion_energy": 1.53, 
			 "cosmo_total_nonelectrostatic_energy": 9.37, 
			 "SMD_solvation_energy": 2.49 
		},
		"coords": [
			{
				"x": 0.5145371651,
				"y": -1.8640647227,
				"z": -1.7925612766,
				"element": "C" 
			},
			{
				"x": -0.1887132829,
				"y": -1.3622544357,
				"z": -0.5225830488,
				"element": "C" 
			},
			{
				"x": -0.039851617,
				"y": -2.363267801,
				"z": 0.6302634862,
				"element": "C" 
			},
			{
				"x": 0.3552823328,
				"y": 0.0354253027,
				"z": -0.1638752236,
				"element": "C" 
			},
			{
				"x": -0.3697654888,
				"y": 0.6970414738,
				"z": 0.9189623027,
				"element": "N" 
			},
			{
				"x": -0.0103698731,
				"y": 0.5069986174,
				"z": 2.2164782663,
				"element": "N" 
			},
			{
				"x": -0.901591913,
				"y": 1.2386155978,
				"z": 2.8704951437,
				"element": "C" 
			},
			{
				"x": -1.8003250581,
				"y": 1.8926548157,
				"z": 2.0878625018,
				"element": "N" 
			},
			{
				"x": -1.4397889888,
				"y": 1.5310844296,
				"z": 0.86252791,
				"element": "C" 
			},
			{
				"x": -2.1305816465,
				"y": 1.9679085944,
				"z": -0.391163201,
				"element": "C" 
			},
			{
				"x": -1.1776283463,
				"y": 2.5594156458,
				"z": -1.273449906,
				"element": "O" 
			},
			{
				"x": 0.128682935,
				"y": -2.8444827296,
				"z": -2.0889448925,
				"element": "H" 
			},
			{
				"x": 1.593340536,
				"y": -1.9706654583,
				"z": -1.6269106137,
				"element": "H" 
			},
			{
				"x": 0.3716612255,
				"y": -1.1776454019,
				"z": -2.6344739709,
				"element": "H" 
			},
			{
				"x": -1.2595312187,
				"y": -1.2495398086,
				"z": -0.7475013474,
				"element": "H" 
			},
			{
				"x": 1.0184449123,
				"y": -2.5331746962,
				"z": 0.86132219,
				"element": "H" 
			},
			{
				"x": -0.4834880217,
				"y": -3.3280385482,
				"z": 0.3621833303,
				"element": "H" 
			},
			{
				"x": -0.5198859936,
				"y": -2.003871946,
				"z": 1.5435125448,
				"element": "H" 
			},
			{
				"x": 1.3985874469,
				"y": -0.0335397832,
				"z": 0.1574704275,
				"element": "H" 
			},
			{
				"x": 0.3013425771,
				"y": 0.7006151077,
				"z": -1.0282877441,
				"element": "H" 
			},
			{
				"x": -0.893564673,
				"y": 1.3086578655,
				"z": 3.9496643428,
				"element": "H" 
			},
			{
				"x": -2.6246823188,
				"y": 1.1061438703,
				"z": -0.868502742,
				"element": "H" 
			},
			{
				"x": -2.9105326704,
				"y": 2.6762309105,
				"z": -0.0865050085,
				"element": "H" 
			},
			{
				"x": -1.6364780201,
				"y": 2.7907531002,
				"z": -2.090983471,
				"element": "H" 
			}
		],
		 "valence_orbital": [ 
			{
				"type": "occ",
				"energy": -0.31491,
				"method": "rhf"
			},
			{
				"type": "occ",
				"energy": -0.29002,
				"method": "rhf"
			},
			{
				"type": "occ",
				"energy": -0.27713,
				"method": "rhf"
			},
			{
				"type": "occ",
				"energy": -0.26624,
				"method": "rhf"
			},
			{
				"type": "occ",
				"energy": -0.25112,
				"method": "rhf"
			},
			{
				"type": "unocc",
				"energy": 0.00195,
				"method": "rhf"
			},
			{
				"type": "unocc",
				"energy": 0.053,
				"method": "rhf"
			},
			{
				"type": "unocc",
				"energy": 0.07513,
				"method": "rhf"
			},
			{
				"type": "unocc",
				"energy": 0.08701,
				"method": "rhf"
			},
			{
				"type": "unocc",
				"energy": 0.10676,
				"method": "rhf"
			}
		],
		"cosmo_sigma_profile": { 
			"-0.025": 0.0,
			"-0.024": 0.0,
			"-0.023": 0.0,
			"-0.022": 0.0,
			"-0.021": 0.0,
			"-0.02": 0.0,
			"-0.019": 0.0,
			"-0.018": 0.0,
			"-0.017": 0.301060962696,
			"-0.016": 1.42841485433,
			"-0.015": 0.828422687487,
			"-0.014": 0.779727977635,
			"-0.013": 1.16298527494,
			"-0.012": 1.12683913407,
			"-0.011": 0.830364254557,
			"-0.01": 0.787867615068,
			"-0.009": 0.9595466682,
			"-0.008": 2.59138680666,
			"-0.007": 2.41249628954,
			"-0.006": 8.47865515708,
			"-0.005": 11.7643173188,
			"-0.004": 12.7791819832,
			"-0.003": 21.2079367769,
			"-0.002": 20.9705931876,
			"-0.001": 20.3567995176,
			"0.0": 17.9276372933,
			"0.001": 20.2068690064,
			"0.002": 12.0281226992,
			"0.003": 7.05009504448,
			"0.004": 5.95900119394,
			"0.005": 5.07538527488,
			"0.006": 3.99189070913,
			"0.007": 3.86789066439,
			"0.008": 3.18611609942,
			"0.009": 3.97714107627,
			"0.01": 3.57247804611,
			"0.011": 2.90783984297,
			"0.012": 3.14107223493,
			"0.013": 2.42397686411,
			"0.014": 1.65850707515,
			"0.015": 1.33655765466,
			"0.016": 1.08313290595,
			"0.017": 0.338815895339,
			"0.018": 0.0,
			"0.019": 0.0,
			"0.02": 0.0,
			"0.021": 0.0,
			"0.022": 0.0,
			"0.023": 0.0,
			"0.024": 0.0,
			"0.025": 0.0
		}
	}
}
