{
	 "smiles": "CC1CCC2=CC(F)=CC3=C2N1C=C(C(O)=O)C3=O", 
	 "Tm": 526.15, 
	 "num_atms": 31, 
	 "gaussian": { 
		 "optdone": 1, 
		 "sigma_profile": "yes", 
		 "theory": "DFT", 
		 "functional": "B3LYP", 
		 "basiset": "6-31G**", 
		 "properties": { 
			 "R2extent": 6427.2236, 
			 "electric_dipole_moment_norm": 9.73971942152, 
			 "electric_quadrupole_moment_norm": 21.2267683169, 
			 "total_energy": -921.032882405, 
			 "HOMO_LUMO_gap": 0.16509, 
			 "cosmo_polarized_energy": -19.95, 
			 "cosmo_cavitation_energy": 33.68, 
			 "cosmo_dispersion_energy": -24.87, 
			 "cosmo_repulsion_energy": 1.82, 
			 "cosmo_total_nonelectrostatic_energy": 10.63, 
			 "SMD_solvation_energy": 6.96 
		},
		"coords": [
			{
				"x": -0.6962560017,
				"y": 2.1336571363,
				"z": -0.7030601472,
				"element": "C" 
			},
			{
				"x": -0.9523484499,
				"y": 0.655038632,
				"z": -0.4057878958,
				"element": "C" 
			},
			{
				"x": -1.3898793078,
				"y": 0.4480714692,
				"z": 1.047128056,
				"element": "C" 
			},
			{
				"x": -1.7452245841,
				"y": -1.0152177751,
				"z": 1.2989391228,
				"element": "C" 
			},
			{
				"x": -0.6227014683,
				"y": -1.9248505131,
				"z": 0.8581818139,
				"element": "C" 
			},
			{
				"x": -0.4919179098,
				"y": -3.1961603726,
				"z": 1.4029382327,
				"element": "C" 
			},
			{
				"x": 0.5513182711,
				"y": -4.0359085691,
				"z": 1.0075376992,
				"element": "C" 
			},
			{
				"x": 0.6338974213,
				"y": -5.2599591255,
				"z": 1.5628949425,
				"element": "F" 
			},
			{
				"x": 1.4888377133,
				"y": -3.6348109668,
				"z": 0.0824612942,
				"element": "C" 
			},
			{
				"x": 1.3829864895,
				"y": -2.3540846822,
				"z": -0.481791245,
				"element": "C" 
			},
			{
				"x": 0.3224079714,
				"y": -1.4928182373,
				"z": -0.1050102049,
				"element": "C" 
			},
			{
				"x": 0.233877614,
				"y": -0.2132363634,
				"z": -0.6877776189,
				"element": "N" 
			},
			{
				"x": 1.1652902435,
				"y": 0.1644856112,
				"z": -1.592334555,
				"element": "C" 
			},
			{
				"x": 2.2249436537,
				"y": -0.607941577,
				"z": -1.9946354439,
				"element": "C" 
			},
			{
				"x": 3.1613832507,
				"y": -0.0102408114,
				"z": -3.0019391749,
				"element": "C" 
			},
			{
				"x": 4.1725622552,
				"y": -0.7970997732,
				"z": -3.3759032769,
				"element": "O" 
			},
			{
				"x": 3.0039987188,
				"y": 1.1131860719,
				"z": -3.4440191105,
				"element": "O" 
			},
			{
				"x": 2.398603193,
				"y": -1.9363684849,
				"z": -1.4644099214,
				"element": "C" 
			},
			{
				"x": 3.3355633123,
				"y": -2.6956584284,
				"z": -1.7985347543,
				"element": "O" 
			},
			{
				"x": -1.5723256691,
				"y": 2.7024170228,
				"z": -0.3797509573,
				"element": "H" 
			},
			{
				"x": 0.1732461183,
				"y": 2.5079877197,
				"z": -0.1538892594,
				"element": "H" 
			},
			{
				"x": -0.5557509014,
				"y": 2.3407260336,
				"z": -1.7660431268,
				"element": "H" 
			},
			{
				"x": -1.7617959148,
				"y": 0.3014704036,
				"z": -1.0605008249,
				"element": "H" 
			},
			{
				"x": -2.2529213898,
				"y": 1.0903193949,
				"z": 1.2465615026,
				"element": "H" 
			},
			{
				"x": -0.581855793,
				"y": 0.7689777416,
				"z": 1.7160181695,
				"element": "H" 
			},
			{
				"x": -2.6634381915,
				"y": -1.2662715354,
				"z": 0.7493194384,
				"element": "H" 
			},
			{
				"x": -1.9649800352,
				"y": -1.1845278657,
				"z": 2.3580039567,
				"element": "H" 
			},
			{
				"x": -1.1969789016,
				"y": -3.5484302946,
				"z": 2.1495018849,
				"element": "H" 
			},
			{
				"x": 2.3080529605,
				"y": -4.2753096205,
				"z": -0.2218244149,
				"element": "H" 
			},
			{
				"x": 1.0736976143,
				"y": 1.1484764708,
				"z": -2.030716511,
				"element": "H" 
			},
			{
				"x": 4.0922077172,
				"y": -1.6614187114,
				"z": -2.8852576706,
				"element": "H" 
			}
		],
		 "valence_orbital": [ 
			{
				"type": "occ",
				"energy": -0.2759,
				"method": "rhf"
			},
			{
				"type": "occ",
				"energy": -0.27266,
				"method": "rhf"
			},
			{
				"type": "occ",
				"energy": -0.26409,
				"method": "rhf"
			},
			{
				"type": "occ",
				"energy": -0.25282,
				"method": "rhf"
			},
			{
				"type": "occ",
				"energy": -0.23202,
				"method": "rhf"
			},
			{
				"type": "unocc",
				"energy": -0.06693,
				"method": "rhf"
			},
			{
				"type": "unocc",
				"energy": -0.04724,
				"method": "rhf"
			},
			{
				"type": "unocc",
				"energy": -0.01023,
				"method": "rhf"
			},
			{
				"type": "unocc",
				"energy": 0.03255,
				"method": "rhf"
			},
			{
				"type": "unocc",
				"energy": 0.06091,
				"method": "rhf"
			}
		],
		"cosmo_sigma_profile": { 
			"-0.025": 0.0,
			"-0.024": 0.0,
			"-0.023": 0.0,
			"-0.022": 0.0,
			"-0.021": 0.0,
			"-0.02": 0.0,
			"-0.019": 0.0,
			"-0.018": 0.0,
			"-0.017": 0.0,
			"-0.016": 0.0,
			"-0.015": 0.0,
			"-0.014": 0.0,
			"-0.013": 0.0,
			"-0.012": 0.0,
			"-0.011": 0.0,
			"-0.01": 0.0,
			"-0.009": 0.532558881739,
			"-0.008": 2.7462300226,
			"-0.007": 6.93011479251,
			"-0.006": 16.6312154341,
			"-0.005": 26.8973814541,
			"-0.004": 22.7412883807,
			"-0.003": 25.6629753657,
			"-0.002": 25.9515198232,
			"-0.001": 23.7820091865,
			"0.0": 21.0187172345,
			"0.001": 19.5073049486,
			"0.002": 10.2782436101,
			"0.003": 7.73865205403,
			"0.004": 13.3468691365,
			"0.005": 4.12745010173,
			"0.006": 3.41513520344,
			"0.007": 3.95041856913,
			"0.008": 3.54148654527,
			"0.009": 3.43621677371,
			"0.01": 5.31942436485,
			"0.011": 6.20658218956,
			"0.012": 7.99803401933,
			"0.013": 4.46795440152,
			"0.014": 1.9496768999,
			"0.015": 0.195844918664,
			"0.016": 0.0,
			"0.017": 0.0,
			"0.018": 0.0,
			"0.019": 0.0,
			"0.02": 0.0,
			"0.021": 0.0,
			"0.022": 0.0,
			"0.023": 0.0,
			"0.024": 0.0,
			"0.025": 0.0
		}
	}
}
