{
	 "smiles": "O=C(C1SC(=S)N(C1=O)C1=CC=CC=C1)C1=CC=CC=C1", 
	 "Tm": 432.15, 
	 "num_atms": 32, 
	 "gaussian": { 
		 "optdone": 1, 
		 "sigma_profile": "yes", 
		 "theory": "DFT", 
		 "functional": "B3LYP", 
		 "basiset": "6-31G**", 
		 "properties": { 
			 "R2extent": 7948.4161, 
			 "electric_dipole_moment_norm": 3.04716488724, 
			 "electric_quadrupole_moment_norm": 24.4542466954, 
			 "total_energy": -1617.906388, 
			 "HOMO_LUMO_gap": 0.15301, 
			 "cosmo_polarized_energy": -15.11, 
			 "cosmo_cavitation_energy": 40.34, 
			 "cosmo_dispersion_energy": -27.83, 
			 "cosmo_repulsion_energy": 2.05, 
			 "cosmo_total_nonelectrostatic_energy": 14.56, 
			 "SMD_solvation_energy": 6.52 
		},
		"coords": [
			{
				"x": 3.5592730148,
				"y": 0.8629115495,
				"z": 2.687160143,
				"element": "O" 
			},
			{
				"x": 2.5996807433,
				"y": 0.6580020567,
				"z": 1.9646761399,
				"element": "C" 
			},
			{
				"x": 2.0809077877,
				"y": 1.8633589595,
				"z": 1.1396980825,
				"element": "C" 
			},
			{
				"x": 0.4606098718,
				"y": 2.5400588616,
				"z": 1.6810698463,
				"element": "S" 
			},
			{
				"x": -0.2108680935,
				"y": 2.5350058571,
				"z": 0.0416306907,
				"element": "C" 
			},
			{
				"x": -1.7404762787,
				"y": 3.041256254,
				"z": -0.276509729,
				"element": "S" 
			},
			{
				"x": 0.719507672,
				"y": 2.0424717048,
				"z": -0.8655775134,
				"element": "N" 
			},
			{
				"x": 1.9633220354,
				"y": 1.6098511239,
				"z": -0.3606925226,
				"element": "C" 
			},
			{
				"x": 2.8371012885,
				"y": 1.1177865052,
				"z": -1.0348077777,
				"element": "O" 
			},
			{
				"x": 0.4510604169,
				"y": 1.9344795576,
				"z": -2.2793879944,
				"element": "C" 
			},
			{
				"x": 0.3683407371,
				"y": 3.0912079305,
				"z": -3.0545124629,
				"element": "C" 
			},
			{
				"x": 0.1309985863,
				"y": 2.9777068875,
				"z": -4.4235278817,
				"element": "C" 
			},
			{
				"x": -0.0127146509,
				"y": 1.7180041015,
				"z": -5.0089812318,
				"element": "C" 
			},
			{
				"x": 0.0803950353,
				"y": 0.5671391659,
				"z": -4.2245105092,
				"element": "C" 
			},
			{
				"x": 0.3119685216,
				"y": 0.6711555996,
				"z": -2.8531295135,
				"element": "C" 
			},
			{
				"x": 1.9589994931,
				"y": -0.6864277633,
				"z": 1.8795260672,
				"element": "C" 
			},
			{
				"x": 0.7805470445,
				"y": -0.9522025504,
				"z": 1.1646846512,
				"element": "C" 
			},
			{
				"x": 0.249980978,
				"y": -2.2411009191,
				"z": 1.1364064058,
				"element": "C" 
			},
			{
				"x": 0.8912609616,
				"y": -3.2773646223,
				"z": 1.8173999168,
				"element": "C" 
			},
			{
				"x": 2.0646568237,
				"y": -3.0221431191,
				"z": 2.5335039491,
				"element": "C" 
			},
			{
				"x": 2.5925724339,
				"y": -1.7361681611,
				"z": 2.5674156241,
				"element": "C" 
			},
			{
				"x": 2.8443127072,
				"y": 2.6329066601,
				"z": 1.2802531752,
				"element": "H" 
			},
			{
				"x": 0.4828903522,
				"y": 4.0635311609,
				"z": -2.5880238066,
				"element": "H" 
			},
			{
				"x": 0.0611739338,
				"y": 3.8740851426,
				"z": -5.0318591544,
				"element": "H" 
			},
			{
				"x": -0.1947989239,
				"y": 1.6336743042,
				"z": -6.0761480165,
				"element": "H" 
			},
			{
				"x": -0.0261321098,
				"y": -0.4134882759,
				"z": -4.6778522865,
				"element": "H" 
			},
			{
				"x": 0.3920811788,
				"y": -0.2159173824,
				"z": -2.2339738929,
				"element": "H" 
			},
			{
				"x": 0.255190136,
				"y": -0.1613851896,
				"z": 0.6436430912,
				"element": "H" 
			},
			{
				"x": -0.6668754248,
				"y": -2.4335159457,
				"z": 0.5876954329,
				"element": "H" 
			},
			{
				"x": 0.4765512038,
				"y": -4.2809338612,
				"z": 1.7924281294,
				"element": "H" 
			},
			{
				"x": 2.5648853324,
				"y": -3.8267201793,
				"z": 3.0640424961,
				"element": "H" 
			},
			{
				"x": 3.5004971918,
				"y": -1.5153254132,
				"z": 3.1176604517,
				"element": "H" 
			}
		],
		 "valence_orbital": [ 
			{
				"type": "occ",
				"energy": -0.27009,
				"method": "rhf"
			},
			{
				"type": "occ",
				"energy": -0.26745,
				"method": "rhf"
			},
			{
				"type": "occ",
				"energy": -0.26445,
				"method": "rhf"
			},
			{
				"type": "occ",
				"energy": -0.24894,
				"method": "rhf"
			},
			{
				"type": "occ",
				"energy": -0.23339,
				"method": "rhf"
			},
			{
				"type": "unocc",
				"energy": -0.08038,
				"method": "rhf"
			},
			{
				"type": "unocc",
				"energy": -0.07355,
				"method": "rhf"
			},
			{
				"type": "unocc",
				"energy": -0.03096,
				"method": "rhf"
			},
			{
				"type": "unocc",
				"energy": -0.02169,
				"method": "rhf"
			},
			{
				"type": "unocc",
				"energy": -0.01689,
				"method": "rhf"
			}
		],
		"cosmo_sigma_profile": { 
			"-0.025": 0.0,
			"-0.024": 0.0,
			"-0.023": 0.0,
			"-0.022": 0.0,
			"-0.021": 0.0,
			"-0.02": 0.0,
			"-0.019": 0.0,
			"-0.018": 0.0,
			"-0.017": 0.0,
			"-0.016": 0.0,
			"-0.015": 0.0,
			"-0.014": 0.0,
			"-0.013": 0.0,
			"-0.012": 0.0,
			"-0.011": 1.58348021747,
			"-0.01": 2.53102335515,
			"-0.009": 2.60917070657,
			"-0.008": 3.57810238237,
			"-0.007": 14.3049796197,
			"-0.006": 26.3891105797,
			"-0.005": 26.8374618533,
			"-0.004": 20.0368508897,
			"-0.003": 16.2854801118,
			"-0.002": 15.9861562583,
			"-0.001": 15.9239668987,
			"0.0": 22.6374565798,
			"0.001": 27.3513468338,
			"0.002": 27.3447828205,
			"0.003": 30.4160481964,
			"0.004": 19.7611403135,
			"0.005": 13.7366543891,
			"0.006": 9.14122273374,
			"0.007": 7.07657797023,
			"0.008": 8.87191715646,
			"0.009": 7.07460912002,
			"0.01": 7.99704622236,
			"0.011": 2.16817740495,
			"0.012": 0.0375980393646,
			"0.013": 0.0,
			"0.014": 0.0,
			"0.015": 0.0,
			"0.016": 0.0,
			"0.017": 0.0,
			"0.018": 0.0,
			"0.019": 0.0,
			"0.02": 0.0,
			"0.021": 0.0,
			"0.022": 0.0,
			"0.023": 0.0,
			"0.024": 0.0,
			"0.025": 0.0
		}
	}
}
