{
	 "smiles": "CCCS(=O)(=O)NC1=CC=C(C=C1)C(O)=O", 
	 "Tm": 461.15, 
	 "num_atms": 29, 
	 "gaussian": { 
		 "optdone": 1, 
		 "sigma_profile": "yes", 
		 "theory": "DFT", 
		 "functional": "B3LYP", 
		 "basiset": "6-31G**", 
		 "properties": { 
			 "R2extent": 5620.6799, 
			 "electric_dipole_moment_norm": 4.91386672794, 
			 "electric_quadrupole_moment_norm": 39.486262214, 
			 "total_energy": -1142.68537428, 
			 "HOMO_LUMO_gap": 0.19308, 
			 "cosmo_polarized_energy": -25.79, 
			 "cosmo_cavitation_energy": 34.18, 
			 "cosmo_dispersion_energy": -24.87, 
			 "cosmo_repulsion_energy": 1.9, 
			 "cosmo_total_nonelectrostatic_energy": 11.22, 
			 "SMD_solvation_energy": 6.19 
		},
		"coords": [
			{
				"x": -2.9214872944,
				"y": -0.4579464487,
				"z": 3.6658601523,
				"element": "C" 
			},
			{
				"x": -3.1781960352,
				"y": -1.3254930435,
				"z": 2.4292738836,
				"element": "C" 
			},
			{
				"x": -2.2035498997,
				"y": -1.1010645162,
				"z": 1.2633034496,
				"element": "C" 
			},
			{
				"x": -2.5016849042,
				"y": 0.4626036735,
				"z": 0.381827352,
				"element": "S" 
			},
			{
				"x": -3.8102838452,
				"y": 0.3900890395,
				"z": -0.2689248514,
				"element": "O" 
			},
			{
				"x": -2.1390309232,
				"y": 1.578538081,
				"z": 1.2561559784,
				"element": "O" 
			},
			{
				"x": -1.4060146032,
				"y": 0.4269830284,
				"z": -0.9159029329,
				"element": "N" 
			},
			{
				"x": -0.0020874874,
				"y": 0.3629524863,
				"z": -0.8373386444,
				"element": "C" 
			},
			{
				"x": 0.6952845098,
				"y": -0.2757813631,
				"z": -1.8761295724,
				"element": "C" 
			},
			{
				"x": 2.0841880517,
				"y": -0.3282185941,
				"z": -1.8600769424,
				"element": "C" 
			},
			{
				"x": 2.8106191084,
				"y": 0.2333080087,
				"z": -0.8004895608,
				"element": "C" 
			},
			{
				"x": 2.1040824811,
				"y": 0.8464419684,
				"z": 0.2438993906,
				"element": "C" 
			},
			{
				"x": 0.7182104536,
				"y": 0.9352805664,
				"z": 0.2267206332,
				"element": "C" 
			},
			{
				"x": 4.3015106586,
				"y": 0.1801575785,
				"z": -0.7022810338,
				"element": "C" 
			},
			{
				"x": 4.9860314681,
				"y": -0.0377833774,
				"z": -1.8597233288,
				"element": "O" 
			},
			{
				"x": 4.9045103528,
				"y": 0.3164112582,
				"z": 0.3366505887,
				"element": "O" 
			},
			{
				"x": -1.91018771,
				"y": -0.6186561329,
				"z": 4.0557704459,
				"element": "H" 
			},
			{
				"x": -3.02772802,
				"y": 0.6055762775,
				"z": 3.4419817557,
				"element": "H" 
			},
			{
				"x": -3.6292302435,
				"y": -0.7150646397,
				"z": 4.4596380024,
				"element": "H" 
			},
			{
				"x": -4.2012757383,
				"y": -1.1843984342,
				"z": 2.0630852334,
				"element": "H" 
			},
			{
				"x": -3.0929789084,
				"y": -2.3853286567,
				"z": 2.6983668846,
				"element": "H" 
			},
			{
				"x": -1.1601284133,
				"y": -1.0778832643,
				"z": 1.5926370865,
				"element": "H" 
			},
			{
				"x": -2.3174003863,
				"y": -1.8755975232,
				"z": 0.4994986292,
				"element": "H" 
			},
			{
				"x": -1.8405098244,
				"y": 0.0338553052,
				"z": -1.7427500024,
				"element": "H" 
			},
			{
				"x": 0.1450912907,
				"y": -0.7375667944,
				"z": -2.6916833877,
				"element": "H" 
			},
			{
				"x": 2.5886328954,
				"y": -0.8596936005,
				"z": -2.6634562798,
				"element": "H" 
			},
			{
				"x": 2.6695960558,
				"y": 1.2702214899,
				"z": 1.066867447,
				"element": "H" 
			},
			{
				"x": 0.1902116711,
				"y": 1.4556230613,
				"z": 1.0164397251,
				"element": "H" 
			},
			{
				"x": 4.3965052398,
				"y": 0.0604345661,
				"z": -2.6198201014,
				"element": "H" 
			}
		],
		 "valence_orbital": [ 
			{
				"type": "occ",
				"energy": -0.31422,
				"method": "rhf"
			},
			{
				"type": "occ",
				"energy": -0.31254,
				"method": "rhf"
			},
			{
				"type": "occ",
				"energy": -0.28122,
				"method": "rhf"
			},
			{
				"type": "occ",
				"energy": -0.27506,
				"method": "rhf"
			},
			{
				"type": "occ",
				"energy": -0.24653,
				"method": "rhf"
			},
			{
				"type": "unocc",
				"energy": -0.05345,
				"method": "rhf"
			},
			{
				"type": "unocc",
				"energy": -0.03216,
				"method": "rhf"
			},
			{
				"type": "unocc",
				"energy": 0.03247,
				"method": "rhf"
			},
			{
				"type": "unocc",
				"energy": 0.04592,
				"method": "rhf"
			},
			{
				"type": "unocc",
				"energy": 0.04919,
				"method": "rhf"
			}
		],
		"cosmo_sigma_profile": { 
			"-0.025": 0.0,
			"-0.024": 0.0,
			"-0.023": 0.0,
			"-0.022": 0.0,
			"-0.021": 0.0,
			"-0.02": 0.0,
			"-0.019": 0.330109782607,
			"-0.018": 0.773921939583,
			"-0.017": 0.861672201166,
			"-0.016": 2.02359823247,
			"-0.015": 1.89531516542,
			"-0.014": 1.52242756599,
			"-0.013": 3.24810773123,
			"-0.012": 2.45458478084,
			"-0.011": 2.67760137223,
			"-0.01": 2.69375662841,
			"-0.009": 4.15722749102,
			"-0.008": 5.56586198461,
			"-0.007": 8.55053431815,
			"-0.006": 10.6282921708,
			"-0.005": 15.6095089877,
			"-0.004": 17.5623044315,
			"-0.003": 17.5959000853,
			"-0.002": 17.9258734871,
			"-0.001": 18.9104583511,
			"0.0": 15.9298250363,
			"0.001": 16.9064367848,
			"0.002": 17.2713144769,
			"0.003": 15.1328599226,
			"0.004": 7.57414888086,
			"0.005": 6.00659666575,
			"0.006": 5.35301729259,
			"0.007": 5.62301584593,
			"0.008": 6.48700453199,
			"0.009": 7.31821028487,
			"0.01": 11.1949095379,
			"0.011": 12.1634827805,
			"0.012": 6.68577662801,
			"0.013": 2.15504103848,
			"0.014": 0.156676940227,
			"0.015": 0.0,
			"0.016": 0.0,
			"0.017": 0.0,
			"0.018": 0.0,
			"0.019": 0.0,
			"0.02": 0.0,
			"0.021": 0.0,
			"0.022": 0.0,
			"0.023": 0.0,
			"0.024": 0.0,
			"0.025": 0.0
		}
	}
}
