{
	 "smiles": "COC1=CC2=C(OC(C=O)=C2)C=C1", 
	 "Tm": 333.15, 
	 "num_atms": 21, 
	 "gaussian": { 
		 "optdone": 1, 
		 "sigma_profile": "yes", 
		 "theory": "DFT", 
		 "functional": "B3LYP", 
		 "basiset": "6-31G**", 
		 "properties": { 
			 "R2extent": 3444.7615, 
			 "electric_dipole_moment_norm": 4.57522297708, 
			 "electric_quadrupole_moment_norm": 21.2257954798, 
			 "total_energy": -611.517821297, 
			 "HOMO_LUMO_gap": 0.14961, 
			 "cosmo_polarized_energy": -11.86, 
			 "cosmo_cavitation_energy": 26.12, 
			 "cosmo_dispersion_energy": -19.34, 
			 "cosmo_repulsion_energy": 1.51, 
			 "cosmo_total_nonelectrostatic_energy": 8.29, 
			 "SMD_solvation_energy": 6.71 
		},
		"coords": [
			{
				"x": -0.480338321,
				"y": 3.703087711,
				"z": -1.263510642,
				"element": "C" 
			},
			{
				"x": 0.3008634638,
				"y": 2.9559055759,
				"z": -0.3456053825,
				"element": "O" 
			},
			{
				"x": 0.4258723358,
				"y": 1.6074169341,
				"z": -0.5332438414,
				"element": "C" 
			},
			{
				"x": 1.2092828604,
				"y": 0.9401149163,
				"z": 0.4092364455,
				"element": "C" 
			},
			{
				"x": 1.3772727429,
				"y": -0.4441805353,
				"z": 0.2734417677,
				"element": "C" 
			},
			{
				"x": 0.757350877,
				"y": -1.1203486448,
				"z": -0.8002082959,
				"element": "C" 
			},
			{
				"x": 1.0382132369,
				"y": -2.4562914964,
				"z": -0.7608121893,
				"element": "O" 
			},
			{
				"x": 1.8396354276,
				"y": -2.6416580723,
				"z": 0.3387921237,
				"element": "C" 
			},
			{
				"x": 2.3104227462,
				"y": -3.9883080089,
				"z": 0.6479175016,
				"element": "C" 
			},
			{
				"x": 2.0503703776,
				"y": -4.9865648587,
				"z": 0.0030673726,
				"element": "O" 
			},
			{
				"x": 2.0766085224,
				"y": -1.4648068659,
				"z": 0.9991579005,
				"element": "C" 
			},
			{
				"x": -0.0245507954,
				"y": -0.4713433378,
				"z": -1.7454971774,
				"element": "C" 
			},
			{
				"x": -0.1846146296,
				"y": 0.9058866192,
				"z": -1.6002129372,
				"element": "C" 
			},
			{
				"x": -0.4372218866,
				"y": 4.7379787194,
				"z": -0.9206094181,
				"element": "H" 
			},
			{
				"x": -0.0771290806,
				"y": 3.6463984879,
				"z": -2.2830608613,
				"element": "H" 
			},
			{
				"x": -1.5270264396,
				"y": 3.3719731104,
				"z": -1.2724813664,
				"element": "H" 
			},
			{
				"x": 1.6647081638,
				"y": 1.5036377335,
				"z": 1.2160952161,
				"element": "H" 
			},
			{
				"x": 2.9500966316,
				"y": -4.0236572988,
				"z": 1.5562679653,
				"element": "H" 
			},
			{
				"x": 2.6767603411,
				"y": -1.3508752717,
				"z": 1.891358282,
				"element": "H" 
			},
			{
				"x": -0.4904524718,
				"y": -1.0124792723,
				"z": -2.5613246344,
				"element": "H" 
			},
			{
				"x": -0.7898241026,
				"y": 1.437813855,
				"z": -2.3237678295,
				"element": "H" 
			}
		],
		 "valence_orbital": [ 
			{
				"type": "occ",
				"energy": -0.31921,
				"method": "rhf"
			},
			{
				"type": "occ",
				"energy": -0.30665,
				"method": "rhf"
			},
			{
				"type": "occ",
				"energy": -0.25769,
				"method": "rhf"
			},
			{
				"type": "occ",
				"energy": -0.23771,
				"method": "rhf"
			},
			{
				"type": "occ",
				"energy": -0.2226,
				"method": "rhf"
			},
			{
				"type": "unocc",
				"energy": -0.07299,
				"method": "rhf"
			},
			{
				"type": "unocc",
				"energy": -0.00066,
				"method": "rhf"
			},
			{
				"type": "unocc",
				"energy": 0.01952,
				"method": "rhf"
			},
			{
				"type": "unocc",
				"energy": 0.08442,
				"method": "rhf"
			},
			{
				"type": "unocc",
				"energy": 0.0848,
				"method": "rhf"
			}
		],
		"cosmo_sigma_profile": { 
			"-0.025": 0.0,
			"-0.024": 0.0,
			"-0.023": 0.0,
			"-0.022": 0.0,
			"-0.021": 0.0,
			"-0.02": 0.0,
			"-0.019": 0.0,
			"-0.018": 0.0,
			"-0.017": 0.0,
			"-0.016": 0.0,
			"-0.015": 0.0,
			"-0.014": 0.0,
			"-0.013": 0.0,
			"-0.012": 0.0,
			"-0.011": 0.0,
			"-0.01": 0.0,
			"-0.009": 2.06325651619,
			"-0.008": 4.69228899563,
			"-0.007": 10.9464892439,
			"-0.006": 14.2907720666,
			"-0.005": 17.8532900632,
			"-0.004": 15.8658008388,
			"-0.003": 15.2688954171,
			"-0.002": 12.412640047,
			"-0.001": 10.4263299316,
			"0.0": 13.2219166111,
			"0.001": 15.2046199124,
			"0.002": 15.467736243,
			"0.003": 16.6374726597,
			"0.004": 9.23757167789,
			"0.005": 4.1660251548,
			"0.006": 4.78786065596,
			"0.007": 2.9988552644,
			"0.008": 3.5070624834,
			"0.009": 5.22448971658,
			"0.01": 5.55483272064,
			"0.011": 5.0901948514,
			"0.012": 4.03919877008,
			"0.013": 0.896276492618,
			"0.014": 0.0,
			"0.015": 0.0,
			"0.016": 0.0,
			"0.017": 0.0,
			"0.018": 0.0,
			"0.019": 0.0,
			"0.02": 0.0,
			"0.021": 0.0,
			"0.022": 0.0,
			"0.023": 0.0,
			"0.024": 0.0,
			"0.025": 0.0
		}
	}
}
