{
	 "smiles": "CC(CBr)C1=CC=CC=C1", 
	 "Tm": 213.85, 
	 "num_atms": 21, 
	 "gaussian": { 
		 "optdone": 1, 
		 "sigma_profile": "yes", 
		 "theory": "DFT", 
		 "functional": "B3LYP", 
		 "basiset": "6-31G**", 
		 "properties": { 
			 "R2extent": 4081.7058, 
			 "electric_dipole_moment_norm": 2.17799758035, 
			 "electric_quadrupole_moment_norm": 13.0282341781, 
			 "total_energy": -2921.0038431, 
			 "HOMO_LUMO_gap": 0.23979, 
			 "cosmo_polarized_energy": -6.81, 
			 "cosmo_cavitation_energy": 25.94, 
			 "cosmo_dispersion_energy": -18.74, 
			 "cosmo_repulsion_energy": 1.54, 
			 "cosmo_total_nonelectrostatic_energy": 8.73, 
			 "SMD_solvation_energy": 3.24 
		},
		"coords": [
			{
				"x": -1.7059880621,
				"y": -0.8329751261,
				"z": 0.411575111,
				"element": "C" 
			},
			{
				"x": -1.3522419964,
				"y": 0.577774427,
				"z": 0.933172466,
				"element": "C" 
			},
			{
				"x": -2.6158943777,
				"y": 1.4435367201,
				"z": 0.9047233161,
				"element": "C" 
			},
			{
				"x": -2.3842561017,
				"y": 3.1772995701,
				"z": 1.8343339563,
				"element": "Br" 
			},
			{
				"x": -0.1883992829,
				"y": 1.1886377563,
				"z": 0.1653729162,
				"element": "C" 
			},
			{
				"x": 1.0037730303,
				"y": 1.5107069754,
				"z": 0.8242350106,
				"element": "C" 
			},
			{
				"x": 2.0858599068,
				"y": 2.0536082136,
				"z": 0.1288043149,
				"element": "C" 
			},
			{
				"x": 1.9905510824,
				"y": 2.2851974795,
				"z": -1.2434023883,
				"element": "C" 
			},
			{
				"x": 0.8065112998,
				"y": 1.9696920014,
				"z": -1.91340854,
				"element": "C" 
			},
			{
				"x": -0.2705704453,
				"y": 1.4252411256,
				"z": -1.2145572359,
				"element": "C" 
			},
			{
				"x": -0.8257772567,
				"y": -1.481015232,
				"z": 0.446944739,
				"element": "H" 
			},
			{
				"x": -2.4931142549,
				"y": -1.2918806073,
				"z": 1.0193333088,
				"element": "H" 
			},
			{
				"x": -2.0547346134,
				"y": -0.803381933,
				"z": -0.6259722666,
				"element": "H" 
			},
			{
				"x": -1.0483451902,
				"y": 0.4796465486,
				"z": 1.9815765846,
				"element": "H" 
			},
			{
				"x": -3.444369934,
				"y": 0.9567445584,
				"z": 1.4195684524,
				"element": "H" 
			},
			{
				"x": -2.9204647888,
				"y": 1.6996507954,
				"z": -0.1103034921,
				"element": "H" 
			},
			{
				"x": 1.0831324516,
				"y": 1.3393042147,
				"z": 1.8947152563,
				"element": "H" 
			},
			{
				"x": 3.0008703546,
				"y": 2.2977724807,
				"z": 0.6611509722,
				"element": "H" 
			},
			{
				"x": 2.8300122091,
				"y": 2.7088299314,
				"z": -1.7871529657,
				"element": "H" 
			},
			{
				"x": 0.7215615307,
				"y": 2.1471013417,
				"z": -2.9819215458,
				"element": "H" 
			},
			{
				"x": -1.1831155612,
				"y": 1.1833087587,
				"z": -1.7541879699,
				"element": "H" 
			}
		],
		 "valence_orbital": [ 
			{
				"type": "occ",
				"energy": -0.33095,
				"method": "rhf"
			},
			{
				"type": "occ",
				"energy": -0.26742,
				"method": "rhf"
			},
			{
				"type": "occ",
				"energy": -0.26612,
				"method": "rhf"
			},
			{
				"type": "occ",
				"energy": -0.2486,
				"method": "rhf"
			},
			{
				"type": "occ",
				"energy": -0.24279,
				"method": "rhf"
			},
			{
				"type": "unocc",
				"energy": -0.003,
				"method": "rhf"
			},
			{
				"type": "unocc",
				"energy": 0.00041,
				"method": "rhf"
			},
			{
				"type": "unocc",
				"energy": 0.0071,
				"method": "rhf"
			},
			{
				"type": "unocc",
				"energy": 0.08343,
				"method": "rhf"
			},
			{
				"type": "unocc",
				"energy": 0.10432,
				"method": "rhf"
			}
		],
		"cosmo_sigma_profile": { 
			"-0.025": 0.0,
			"-0.024": 0.0,
			"-0.023": 0.0,
			"-0.022": 0.0,
			"-0.021": 0.0,
			"-0.02": 0.0,
			"-0.019": 0.0,
			"-0.018": 0.0,
			"-0.017": 0.0,
			"-0.016": 0.0,
			"-0.015": 0.0,
			"-0.014": 0.0,
			"-0.013": 0.0,
			"-0.012": 0.0,
			"-0.011": 0.0,
			"-0.01": 0.0,
			"-0.009": 0.0,
			"-0.008": 0.167225649031,
			"-0.007": 3.35124485452,
			"-0.006": 8.7558619478,
			"-0.005": 16.7171798814,
			"-0.004": 20.9317352358,
			"-0.003": 22.2112241734,
			"-0.002": 16.6189458681,
			"-0.001": 16.8003133682,
			"0.0": 15.5557918661,
			"0.001": 12.4395051524,
			"0.002": 10.0839401321,
			"0.003": 10.911913558,
			"0.004": 11.4180987461,
			"0.005": 13.2873483197,
			"0.006": 17.9822329045,
			"0.007": 10.2121042356,
			"0.008": 0.498361240153,
			"0.009": 0.0,
			"0.01": 0.0,
			"0.011": 0.0,
			"0.012": 0.0,
			"0.013": 0.0,
			"0.014": 0.0,
			"0.015": 0.0,
			"0.016": 0.0,
			"0.017": 0.0,
			"0.018": 0.0,
			"0.019": 0.0,
			"0.02": 0.0,
			"0.021": 0.0,
			"0.022": 0.0,
			"0.023": 0.0,
			"0.024": 0.0,
			"0.025": 0.0
		}
	}
}
