{
	 "smiles": "CCOC(=O)C1=C(C)OC2=C1C(=O)NC=N2", 
	 "Tm": 290.15, 
	 "num_atms": 26, 
	 "gaussian": { 
		 "optdone": 1, 
		 "sigma_profile": "yes", 
		 "theory": "DFT", 
		 "functional": "B3LYP", 
		 "basiset": "6-31G**", 
		 "properties": { 
			 "R2extent": 4138.7098, 
			 "electric_dipole_moment_norm": 2.07200388513, 
			 "electric_quadrupole_moment_norm": 22.7763387106, 
			 "total_energy": -797.510632818, 
			 "HOMO_LUMO_gap": 0.1825, 
			 "cosmo_polarized_energy": -20.9, 
			 "cosmo_cavitation_energy": 30.99, 
			 "cosmo_dispersion_energy": -22.53, 
			 "cosmo_repulsion_energy": 1.77, 
			 "cosmo_total_nonelectrostatic_energy": 10.23, 
			 "SMD_solvation_energy": 6.26 
		},
		"coords": [
			{
				"x": -3.2658712178,
				"y": 0.9123261032,
				"z": 1.5373208164,
				"element": "C" 
			},
			{
				"x": -2.9482425108,
				"y": 0.6002977998,
				"z": 0.0827610759,
				"element": "C" 
			},
			{
				"x": -1.547883387,
				"y": 0.8301045566,
				"z": -0.2117925806,
				"element": "O" 
			},
			{
				"x": -0.7032519101,
				"y": -0.1958072268,
				"z": 0.0773371409,
				"element": "C" 
			},
			{
				"x": -1.0611150673,
				"y": -1.2446666751,
				"z": 0.5664653081,
				"element": "O" 
			},
			{
				"x": 0.6951125337,
				"y": 0.1195962193,
				"z": -0.2906304864,
				"element": "C" 
			},
			{
				"x": 1.1362220961,
				"y": 0.9848492312,
				"z": -1.2639940013,
				"element": "C" 
			},
			{
				"x": 0.4740211544,
				"y": 1.9145936116,
				"z": -2.2160553817,
				"element": "C" 
			},
			{
				"x": 2.504055639,
				"y": 0.9271460966,
				"z": -1.3721929304,
				"element": "O" 
			},
			{
				"x": 2.9462187977,
				"y": 0.0258750686,
				"z": -0.4577338531,
				"element": "C" 
			},
			{
				"x": 1.880679173,
				"y": -0.5129825172,
				"z": 0.2425479577,
				"element": "C" 
			},
			{
				"x": 2.1713311364,
				"y": -1.4442415323,
				"z": 1.3170278905,
				"element": "C" 
			},
			{
				"x": 1.4402570653,
				"y": -1.988390461,
				"z": 2.123162543,
				"element": "O" 
			},
			{
				"x": 3.5845013392,
				"y": -1.6858755725,
				"z": 1.3689165086,
				"element": "N" 
			},
			{
				"x": 4.5311752293,
				"y": -1.0934729648,
				"z": 0.5907689625,
				"element": "C" 
			},
			{
				"x": 4.2698812012,
				"y": -0.2191016196,
				"z": -0.3403955822,
				"element": "N" 
			},
			{
				"x": -2.9778300384,
				"y": 1.937599051,
				"z": 1.7878625295,
				"element": "H" 
			},
			{
				"x": -4.3415471217,
				"y": 0.8045291486,
				"z": 1.7127666785,
				"element": "H" 
			},
			{
				"x": -2.7386305041,
				"y": 0.222577658,
				"z": 2.2002820563,
				"element": "H" 
			},
			{
				"x": -3.1943553958,
				"y": -0.4360438383,
				"z": -0.1601143694,
				"element": "H" 
			},
			{
				"x": -3.4806885352,
				"y": 1.2702737478,
				"z": -0.5969171723,
				"element": "H" 
			},
			{
				"x": 0.7661543895,
				"y": 1.6786814859,
				"z": -3.2451077785,
				"element": "H" 
			},
			{
				"x": 0.779651246,
				"y": 2.9484268427,
				"z": -2.0175420498,
				"element": "H" 
			},
			{
				"x": -0.6071364532,
				"y": 1.8454320587,
				"z": -2.1164389152,
				"element": "H" 
			},
			{
				"x": 3.8624692553,
				"y": -2.3385628736,
				"z": 2.092510296,
				"element": "H" 
			},
			{
				"x": 5.5613218855,
				"y": -1.3834633982,
				"z": 0.7806853371,
				"element": "H" 
			}
		],
		 "valence_orbital": [ 
			{
				"type": "occ",
				"energy": -0.29681,
				"method": "rhf"
			},
			{
				"type": "occ",
				"energy": -0.28849,
				"method": "rhf"
			},
			{
				"type": "occ",
				"energy": -0.27406,
				"method": "rhf"
			},
			{
				"type": "occ",
				"energy": -0.25791,
				"method": "rhf"
			},
			{
				"type": "occ",
				"energy": -0.22368,
				"method": "rhf"
			},
			{
				"type": "unocc",
				"energy": -0.04118,
				"method": "rhf"
			},
			{
				"type": "unocc",
				"energy": -0.03064,
				"method": "rhf"
			},
			{
				"type": "unocc",
				"energy": 0.00251,
				"method": "rhf"
			},
			{
				"type": "unocc",
				"energy": 0.06891,
				"method": "rhf"
			},
			{
				"type": "unocc",
				"energy": 0.07452,
				"method": "rhf"
			}
		],
		"cosmo_sigma_profile": { 
			"-0.025": 0.0,
			"-0.024": 0.0,
			"-0.023": 0.0,
			"-0.022": 0.0,
			"-0.021": 0.0,
			"-0.02": 0.0,
			"-0.019": 0.0,
			"-0.018": 0.0,
			"-0.017": 1.21072844093,
			"-0.016": 1.48464729936,
			"-0.015": 1.74600773449,
			"-0.014": 1.31084144296,
			"-0.013": 1.00019857593,
			"-0.012": 1.03511561787,
			"-0.011": 2.43413288664,
			"-0.01": 2.57889971092,
			"-0.009": 2.4791372631,
			"-0.008": 2.38135836755,
			"-0.007": 2.42577681705,
			"-0.006": 7.03683315285,
			"-0.005": 12.3988182419,
			"-0.004": 20.2611856535,
			"-0.003": 28.8580824974,
			"-0.002": 32.47487909,
			"-0.001": 22.1704458652,
			"0.0": 20.0394720089,
			"0.001": 12.3669018842,
			"0.002": 6.50872826433,
			"0.003": 5.53216117073,
			"0.004": 7.63838859131,
			"0.005": 4.36573165674,
			"0.006": 6.11054414716,
			"0.007": 6.25573356884,
			"0.008": 3.32845364912,
			"0.009": 3.10494806147,
			"0.01": 4.38593747708,
			"0.011": 4.56246611685,
			"0.012": 6.85372126754,
			"0.013": 7.07021060053,
			"0.014": 2.92168168316,
			"0.015": 2.12975379352,
			"0.016": 0.92341640759,
			"0.017": 0.0263373252442,
			"0.018": 0.0,
			"0.019": 0.0,
			"0.02": 0.0,
			"0.021": 0.0,
			"0.022": 0.0,
			"0.023": 0.0,
			"0.024": 0.0,
			"0.025": 0.0
		}
	}
}
