{
	 "smiles": "OCC1=C(F)C=CC=C1Cl", 
	 "Tm": 316.15, 
	 "num_atms": 16, 
	 "gaussian": { 
		 "optdone": 1, 
		 "sigma_profile": "yes", 
		 "theory": "DFT", 
		 "functional": "B3LYP", 
		 "basiset": "6-31G**", 
		 "properties": { 
			 "R2extent": 1975.7739, 
			 "electric_dipole_moment_norm": 1.2046022165, 
			 "electric_quadrupole_moment_norm": 11.2536298944, 
			 "total_energy": -905.59591009, 
			 "HOMO_LUMO_gap": 0.22278, 
			 "cosmo_polarized_energy": -8.64, 
			 "cosmo_cavitation_energy": 22.12, 
			 "cosmo_dispersion_energy": -16.36, 
			 "cosmo_repulsion_energy": 1.32, 
			 "cosmo_total_nonelectrostatic_energy": 7.07, 
			 "SMD_solvation_energy": 4.1 
		},
		"coords": [
			{
				"x": -0.5857133051,
				"y": -3.0849845126,
				"z": -0.2832098269,
				"element": "O" 
			},
			{
				"x": -1.0001727826,
				"y": -1.7454257199,
				"z": -0.0251128399,
				"element": "C" 
			},
			{
				"x": 0.0188837451,
				"y": -0.814439291,
				"z": -0.6304602679,
				"element": "C" 
			},
			{
				"x": -0.1946915887,
				"y": -0.2519511685,
				"z": -1.892788787,
				"element": "C" 
			},
			{
				"x": -1.3522063792,
				"y": -0.5319221327,
				"z": -2.5297305443,
				"element": "F" 
			},
			{
				"x": 0.7109610653,
				"y": 0.5906406195,
				"z": -2.5243475404,
				"element": "C" 
			},
			{
				"x": 1.9062289995,
				"y": 0.8855414318,
				"z": -1.8715968857,
				"element": "C" 
			},
			{
				"x": 2.1776642612,
				"y": 0.3467715727,
				"z": -0.6140879726,
				"element": "C" 
			},
			{
				"x": 1.2391490755,
				"y": -0.4945182152,
				"z": -0.0165906226,
				"element": "C" 
			},
			{
				"x": 1.6183396029,
				"y": -1.1540434345,
				"z": 1.5688860842,
				"element": "Cl" 
			},
			{
				"x": -1.1816955541,
				"y": -3.6723572238,
				"z": 0.1992714154,
				"element": "H" 
			},
			{
				"x": -1.0679149088,
				"y": -1.5485510539,
				"z": 1.053082988,
				"element": "H" 
			},
			{
				"x": -1.9797878091,
				"y": -1.536528125,
				"z": -0.4728373222,
				"element": "H" 
			},
			{
				"x": 0.471921339,
				"y": 0.9925826194,
				"z": -3.5022865179,
				"element": "H" 
			},
			{
				"x": 2.6324017713,
				"y": 1.5400022094,
				"z": -2.3434831839,
				"element": "H" 
			},
			{
				"x": 3.1050324679,
				"y": 0.5693824243,
				"z": -0.0996081763,
				"element": "H" 
			}
		],
		 "valence_orbital": [ 
			{
				"type": "occ",
				"energy": -0.33203,
				"method": "rhf"
			},
			{
				"type": "occ",
				"energy": -0.31343,
				"method": "rhf"
			},
			{
				"type": "occ",
				"energy": -0.2703,
				"method": "rhf"
			},
			{
				"type": "occ",
				"energy": -0.25975,
				"method": "rhf"
			},
			{
				"type": "occ",
				"energy": -0.24857,
				"method": "rhf"
			},
			{
				"type": "unocc",
				"energy": -0.02579,
				"method": "rhf"
			},
			{
				"type": "unocc",
				"energy": -0.00981,
				"method": "rhf"
			},
			{
				"type": "unocc",
				"energy": 0.02595,
				"method": "rhf"
			},
			{
				"type": "unocc",
				"energy": 0.08187,
				"method": "rhf"
			},
			{
				"type": "unocc",
				"energy": 0.10364,
				"method": "rhf"
			}
		],
		"cosmo_sigma_profile": { 
			"-0.025": 0.0,
			"-0.024": 0.0,
			"-0.023": 0.0,
			"-0.022": 0.0,
			"-0.021": 0.0,
			"-0.02": 0.0,
			"-0.019": 0.0,
			"-0.018": 0.0,
			"-0.017": 0.00902518554644,
			"-0.016": 0.753400859728,
			"-0.015": 1.11967966422,
			"-0.014": 1.08859081928,
			"-0.013": 1.14776384956,
			"-0.012": 0.528729523736,
			"-0.011": 0.588470937408,
			"-0.01": 0.758174780204,
			"-0.009": 0.728262308435,
			"-0.008": 2.88593837545,
			"-0.007": 7.24188444397,
			"-0.006": 6.88167039502,
			"-0.005": 9.41182111042,
			"-0.004": 10.7258403445,
			"-0.003": 11.2170320231,
			"-0.002": 9.16159638348,
			"-0.001": 9.19681057285,
			"0.0": 14.3984941845,
			"0.001": 15.0404162342,
			"0.002": 19.2425888495,
			"0.003": 19.0013847399,
			"0.004": 16.9188922396,
			"0.005": 5.05260070625,
			"0.006": 2.39592918272,
			"0.007": 1.87611119809,
			"0.008": 2.02007771584,
			"0.009": 1.95046821393,
			"0.01": 1.60901475492,
			"0.011": 1.08770382443,
			"0.012": 1.95342891493,
			"0.013": 1.80502736645,
			"0.014": 0.962981197949,
			"0.015": 0.0,
			"0.016": 0.0,
			"0.017": 0.0,
			"0.018": 0.0,
			"0.019": 0.0,
			"0.02": 0.0,
			"0.021": 0.0,
			"0.022": 0.0,
			"0.023": 0.0,
			"0.024": 0.0,
			"0.025": 0.0
		}
	}
}
