{
	 "smiles": "NCC1=CC=C(C=C1)N1CCOC1=O", 
	 "Tm": 368.15, 
	 "num_atms": 26, 
	 "gaussian": { 
		 "optdone": 1, 
		 "sigma_profile": "yes", 
		 "theory": "DFT", 
		 "functional": "B3LYP", 
		 "basiset": "6-31G**", 
		 "properties": { 
			 "R2extent": 3664.7488, 
			 "electric_dipole_moment_norm": 4.82726543397, 
			 "electric_quadrupole_moment_norm": 19.6055110489, 
			 "total_energy": -648.256010323, 
			 "HOMO_LUMO_gap": 0.20693, 
			 "cosmo_polarized_energy": -16.72, 
			 "cosmo_cavitation_energy": 29.18, 
			 "cosmo_dispersion_energy": -21.7, 
			 "cosmo_repulsion_energy": 1.71, 
			 "cosmo_total_nonelectrostatic_energy": 9.19, 
			 "SMD_solvation_energy": 4.23 
		},
		"coords": [
			{
				"x": 3.3759648758,
				"y": -1.2127940514,
				"z": 3.6508776478,
				"element": "N" 
			},
			{
				"x": 3.0950322544,
				"y": -1.8891444915,
				"z": 2.3722230023,
				"element": "C" 
			},
			{
				"x": 2.0931345493,
				"y": -1.1956361796,
				"z": 1.466836413,
				"element": "C" 
			},
			{
				"x": 0.7140913563,
				"y": -1.397203905,
				"z": 1.6192218067,
				"element": "C" 
			},
			{
				"x": -0.2241046053,
				"y": -0.7270262616,
				"z": 0.8405082845,
				"element": "C" 
			},
			{
				"x": 0.2072452498,
				"y": 0.1815513797,
				"z": -0.1426633133,
				"element": "C" 
			},
			{
				"x": 1.5852162104,
				"y": 0.3897272238,
				"z": -0.3128813659,
				"element": "C" 
			},
			{
				"x": 2.5053135682,
				"y": -0.2921753213,
				"z": 0.4828345484,
				"element": "C" 
			},
			{
				"x": -0.70739496,
				"y": 0.900780898,
				"z": -0.9486439141,
				"element": "N" 
			},
			{
				"x": -0.2756548261,
				"y": 1.8809832526,
				"z": -1.9371654928,
				"element": "C" 
			},
			{
				"x": -1.6235446039,
				"y": 2.454696642,
				"z": -2.395723712,
				"element": "C" 
			},
			{
				"x": -2.5862508444,
				"y": 1.4541635636,
				"z": -2.041566167,
				"element": "O" 
			},
			{
				"x": -2.0574777662,
				"y": 0.60677409,
				"z": -1.106079606,
				"element": "C" 
			},
			{
				"x": -2.7195232289,
				"y": -0.2358803823,
				"z": -0.5497416904,
				"element": "O" 
			},
			{
				"x": 3.691993302,
				"y": -0.2631353879,
				"z": 3.4616284369,
				"element": "H" 
			},
			{
				"x": 2.5061944683,
				"y": -1.1091072749,
				"z": 4.1706599951,
				"element": "H" 
			},
			{
				"x": 4.0484329946,
				"y": -2.0054356034,
				"z": 1.8439233919,
				"element": "H" 
			},
			{
				"x": 2.7423131145,
				"y": -2.9001140649,
				"z": 2.6067139414,
				"element": "H" 
			},
			{
				"x": 0.3578095155,
				"y": -2.1031623661,
				"z": 2.3667405666,
				"element": "H" 
			},
			{
				"x": -1.2811313549,
				"y": -0.9108282024,
				"z": 0.9698232381,
				"element": "H" 
			},
			{
				"x": 1.9528136696,
				"y": 1.0727737339,
				"z": -1.0702176288,
				"element": "H" 
			},
			{
				"x": 3.5673575231,
				"y": -0.1178907875,
				"z": 0.3238882735,
				"element": "H" 
			},
			{
				"x": 0.2759075998,
				"y": 1.4009929494,
				"z": -2.7572086714,
				"element": "H" 
			},
			{
				"x": 0.3664708111,
				"y": 2.6461134509,
				"z": -1.4912414173,
				"element": "H" 
			},
			{
				"x": -1.8702094897,
				"y": 3.3841631136,
				"z": -1.8703332726,
				"element": "H" 
			},
			{
				"x": -1.6768993835,
				"y": 2.6259139822,
				"z": -3.4724132949,
				"element": "H" 
			}
		],
		 "valence_orbital": [ 
			{
				"type": "occ",
				"energy": -0.2997,
				"method": "rhf"
			},
			{
				"type": "occ",
				"energy": -0.27931,
				"method": "rhf"
			},
			{
				"type": "occ",
				"energy": -0.25431,
				"method": "rhf"
			},
			{
				"type": "occ",
				"energy": -0.24153,
				"method": "rhf"
			},
			{
				"type": "occ",
				"energy": -0.21516,
				"method": "rhf"
			},
			{
				"type": "unocc",
				"energy": -0.00823,
				"method": "rhf"
			},
			{
				"type": "unocc",
				"energy": -0.00625,
				"method": "rhf"
			},
			{
				"type": "unocc",
				"energy": 0.04986,
				"method": "rhf"
			},
			{
				"type": "unocc",
				"energy": 0.07259,
				"method": "rhf"
			},
			{
				"type": "unocc",
				"energy": 0.08539,
				"method": "rhf"
			}
		],
		"cosmo_sigma_profile": { 
			"-0.025": 0.0,
			"-0.024": 0.0,
			"-0.023": 0.0,
			"-0.022": 0.0,
			"-0.021": 0.0,
			"-0.02": 0.0,
			"-0.019": 0.0,
			"-0.018": 0.0,
			"-0.017": 0.0,
			"-0.016": 0.0,
			"-0.015": 0.0,
			"-0.014": 0.0,
			"-0.013": 0.0,
			"-0.012": 0.0,
			"-0.011": 0.0,
			"-0.01": 0.184319209266,
			"-0.009": 1.96870950747,
			"-0.008": 3.59082979274,
			"-0.007": 16.9112594669,
			"-0.006": 21.8591168414,
			"-0.005": 21.9239362031,
			"-0.004": 20.2204427991,
			"-0.003": 15.2230648197,
			"-0.002": 12.0528057162,
			"-0.001": 11.8425589217,
			"0.0": 11.1828292471,
			"0.001": 10.8999789691,
			"0.002": 9.08275292074,
			"0.003": 10.4457839252,
			"0.004": 11.2436770183,
			"0.005": 11.5855703241,
			"0.006": 7.94293627603,
			"0.007": 3.5709300629,
			"0.008": 3.70810605243,
			"0.009": 3.93977205564,
			"0.01": 5.33187107134,
			"0.011": 4.20389237432,
			"0.012": 4.60299196403,
			"0.013": 2.67695364083,
			"0.014": 0.878266236868,
			"0.015": 0.509734148536,
			"0.016": 0.9972046614,
			"0.017": 0.366532489078,
			"0.018": 0.895493932282,
			"0.019": 0.537555528543,
			"0.02": 0.420691341644,
			"0.021": 0.0,
			"0.022": 0.0,
			"0.023": 0.0,
			"0.024": 0.0,
			"0.025": 0.0
		}
	}
}
