{
	 "smiles": "CCCCCCCCl", 
	 "Tm": 203.35, 
	 "num_atms": 23, 
	 "gaussian": { 
		 "optdone": 1, 
		 "sigma_profile": "yes", 
		 "theory": "DFT", 
		 "functional": "B3LYP", 
		 "basiset": "6-31G**", 
		 "properties": { 
			 "R2extent": 3495.9843, 
			 "electric_dipole_moment_norm": 2.2555393324, 
			 "electric_quadrupole_moment_norm": 12.8523439489, 
			 "total_energy": -736.003355488, 
			 "HOMO_LUMO_gap": 0.31828, 
			 "cosmo_polarized_energy": -3.89, 
			 "cosmo_cavitation_energy": 25.78, 
			 "cosmo_dispersion_energy": -18.53, 
			 "cosmo_repulsion_energy": 1.57, 
			 "cosmo_total_nonelectrostatic_energy": 8.82, 
			 "SMD_solvation_energy": 3.57 
		},
		"coords": [
			{
				"x": 1.5271559202,
				"y": -1.3397823806,
				"z": -0.2192443235,
				"element": "C" 
			},
			{
				"x": 0.2323261968,
				"y": -1.2849917075,
				"z": 0.5983563545,
				"element": "C" 
			},
			{
				"x": 0.0098856425,
				"y": 0.0744701557,
				"z": 1.2760049293,
				"element": "C" 
			},
			{
				"x": -1.2318751247,
				"y": 0.147602073,
				"z": 2.1821933907,
				"element": "C" 
			},
			{
				"x": -2.5907413373,
				"y": -0.0606624103,
				"z": 1.4883485702,
				"element": "C" 
			},
			{
				"x": -2.9385829907,
				"y": 0.9491561145,
				"z": 0.3826855222,
				"element": "C" 
			},
			{
				"x": -3.0065977924,
				"y": 2.409529247,
				"z": 0.8142621319,
				"element": "C" 
			},
			{
				"x": -4.3182934397,
				"y": 2.7162112523,
				"z": 2.0458284722,
				"element": "Cl" 
			},
			{
				"x": 2.4027176927,
				"y": -1.1499153395,
				"z": 0.4121179103,
				"element": "H" 
			},
			{
				"x": 1.6630709262,
				"y": -2.3186298111,
				"z": -0.6906372998,
				"element": "H" 
			},
			{
				"x": 1.5261437485,
				"y": -0.5856866857,
				"z": -1.0148685361,
				"element": "H" 
			},
			{
				"x": -0.6166108915,
				"y": -1.5213155474,
				"z": -0.0558730711,
				"element": "H" 
			},
			{
				"x": 0.249998985,
				"y": -2.0703780725,
				"z": 1.3665978213,
				"element": "H" 
			},
			{
				"x": -0.035988227,
				"y": 0.8569970902,
				"z": 0.5052831678,
				"element": "H" 
			},
			{
				"x": 0.893712221,
				"y": 0.3128657044,
				"z": 1.88326047,
				"element": "H" 
			},
			{
				"x": -1.1355315795,
				"y": -0.609867631,
				"z": 2.9715246797,
				"element": "H" 
			},
			{
				"x": -1.2344753723,
				"y": 1.1131268079,
				"z": 2.704440974,
				"element": "H" 
			},
			{
				"x": -3.3787238437,
				"y": -0.0302511558,
				"z": 2.2493272675,
				"element": "H" 
			},
			{
				"x": -2.6317532261,
				"y": -1.0658102836,
				"z": 1.0518630579,
				"element": "H" 
			},
			{
				"x": -3.8964256409,
				"y": 0.6720201798,
				"z": -0.0720153551,
				"element": "H" 
			},
			{
				"x": -2.1917841928,
				"y": 0.9018570968,
				"z": -0.4224412285,
				"element": "H" 
			},
			{
				"x": -3.2384142269,
				"y": 3.0610830621,
				"z": -0.0294169701,
				"element": "H" 
			},
			{
				"x": -2.0800134472,
				"y": 2.7504722413,
				"z": 1.2782020652,
				"element": "H" 
			}
		],
		 "valence_orbital": [ 
			{
				"type": "occ",
				"energy": -0.31987,
				"method": "rhf"
			},
			{
				"type": "occ",
				"energy": -0.31722,
				"method": "rhf"
			},
			{
				"type": "occ",
				"energy": -0.31278,
				"method": "rhf"
			},
			{
				"type": "occ",
				"energy": -0.28981,
				"method": "rhf"
			},
			{
				"type": "occ",
				"energy": -0.28851,
				"method": "rhf"
			},
			{
				"type": "unocc",
				"energy": 0.02977,
				"method": "rhf"
			},
			{
				"type": "unocc",
				"energy": 0.07068,
				"method": "rhf"
			},
			{
				"type": "unocc",
				"energy": 0.10132,
				"method": "rhf"
			},
			{
				"type": "unocc",
				"energy": 0.10877,
				"method": "rhf"
			},
			{
				"type": "unocc",
				"energy": 0.11228,
				"method": "rhf"
			}
		],
		"cosmo_sigma_profile": { 
			"-0.025": 0.0,
			"-0.024": 0.0,
			"-0.023": 0.0,
			"-0.022": 0.0,
			"-0.021": 0.0,
			"-0.02": 0.0,
			"-0.019": 0.0,
			"-0.018": 0.0,
			"-0.017": 0.0,
			"-0.016": 0.0,
			"-0.015": 0.0,
			"-0.014": 0.0,
			"-0.013": 0.0,
			"-0.012": 0.0,
			"-0.011": 0.0,
			"-0.01": 0.0,
			"-0.009": 0.0,
			"-0.008": 0.0,
			"-0.007": 0.717538040236,
			"-0.006": 3.51527434116,
			"-0.005": 4.77152181176,
			"-0.004": 10.4971521238,
			"-0.003": 15.2554636793,
			"-0.002": 27.396989218,
			"-0.001": 30.7166221958,
			"0.0": 33.5426435492,
			"0.001": 30.0402237325,
			"0.002": 14.5699734281,
			"0.003": 4.08399254991,
			"0.004": 4.14233450176,
			"0.005": 5.89025491263,
			"0.006": 6.56950150572,
			"0.007": 8.31168331925,
			"0.008": 0.967176732874,
			"0.009": 0.0,
			"0.01": 0.0,
			"0.011": 0.0,
			"0.012": 0.0,
			"0.013": 0.0,
			"0.014": 0.0,
			"0.015": 0.0,
			"0.016": 0.0,
			"0.017": 0.0,
			"0.018": 0.0,
			"0.019": 0.0,
			"0.02": 0.0,
			"0.021": 0.0,
			"0.022": 0.0,
			"0.023": 0.0,
			"0.024": 0.0,
			"0.025": 0.0
		}
	}
}
