{
	 "smiles": "CC1=CC=C(CCC(=O)NCC(O)=O)C=C1", 
	 "Tm": 392.15, 
	 "num_atms": 31, 
	 "gaussian": { 
		 "optdone": 1, 
		 "sigma_profile": "yes", 
		 "theory": "DFT", 
		 "functional": "B3LYP", 
		 "basiset": "6-31G**", 
		 "properties": { 
			 "R2extent": 3610.4677, 
			 "electric_dipole_moment_norm": 1.76178803209, 
			 "electric_quadrupole_moment_norm": 16.5712815548, 
			 "total_energy": -746.779230974, 
			 "HOMO_LUMO_gap": 0.23098, 
			 "cosmo_polarized_energy": -16.57, 
			 "cosmo_cavitation_energy": 33.21, 
			 "cosmo_dispersion_energy": -22.83, 
			 "cosmo_repulsion_energy": 1.79, 
			 "cosmo_total_nonelectrostatic_energy": 12.16, 
			 "SMD_solvation_energy": 6.16 
		},
		"coords": [
			{
				"x": -0.5349306339,
				"y": -0.2296962601,
				"z": 4.6024532778,
				"element": "C" 
			},
			{
				"x": -0.9494133527,
				"y": -0.2404730821,
				"z": 3.1488225751,
				"element": "C" 
			},
			{
				"x": -1.1415459672,
				"y": 0.9549099422,
				"z": 2.4401021243,
				"element": "C" 
			},
			{
				"x": -1.5727041876,
				"y": 0.9428721646,
				"z": 1.1119186971,
				"element": "C" 
			},
			{
				"x": -1.8149880984,
				"y": -0.2629309479,
				"z": 0.4409446494,
				"element": "C" 
			},
			{
				"x": -2.2180275336,
				"y": -0.2751686927,
				"z": -1.0198623527,
				"element": "C" 
			},
			{
				"x": -1.0144519358,
				"y": -0.1488756863,
				"z": -1.9804390285,
				"element": "C" 
			},
			{
				"x": -0.1375686446,
				"y": -1.4001883168,
				"z": -1.9413852366,
				"element": "C" 
			},
			{
				"x": -0.6301531679,
				"y": -2.5215903374,
				"z": -1.9436899451,
				"element": "O" 
			},
			{
				"x": 1.2295979812,
				"y": -1.2398722219,
				"z": -1.9548107057,
				"element": "N" 
			},
			{
				"x": 1.9674561878,
				"y": -0.019037151,
				"z": -1.6963027464,
				"element": "C" 
			},
			{
				"x": 1.774972864,
				"y": 0.5918600116,
				"z": -0.3050451252,
				"element": "C" 
			},
			{
				"x": 1.5947982658,
				"y": -0.3472796541,
				"z": 0.6387823452,
				"element": "O" 
			},
			{
				"x": 1.7879530804,
				"y": 1.7837891799,
				"z": -0.0924792728,
				"element": "O" 
			},
			{
				"x": -1.61922015,
				"y": -1.4582819344,
				"z": 1.1468416582,
				"element": "C" 
			},
			{
				"x": -1.1951255454,
				"y": -1.4458386647,
				"z": 2.4750608013,
				"element": "C" 
			},
			{
				"x": 0.0938759371,
				"y": -1.0913393526,
				"z": 4.8480213214,
				"element": "H" 
			},
			{
				"x": 0.0190727787,
				"y": 0.6791418759,
				"z": 4.856689864,
				"element": "H" 
			},
			{
				"x": -1.4100394765,
				"y": -0.2707578096,
				"z": 5.2630975144,
				"element": "H" 
			},
			{
				"x": -0.9630801978,
				"y": 1.9063458145,
				"z": 2.9357967276,
				"element": "H" 
			},
			{
				"x": -1.7124730188,
				"y": 1.8867390174,
				"z": 0.5900078082,
				"element": "H" 
			},
			{
				"x": -2.740626016,
				"y": -1.2055104205,
				"z": -1.2574032544,
				"element": "H" 
			},
			{
				"x": -2.9062026962,
				"y": 0.553183832,
				"z": -1.2224051001,
				"element": "H" 
			},
			{
				"x": -1.384083063,
				"y": -0.0607133589,
				"z": -3.0103038588,
				"element": "H" 
			},
			{
				"x": -0.4570912683,
				"y": 0.7661588241,
				"z": -1.7644871594,
				"element": "H" 
			},
			{
				"x": 1.7170833916,
				"y": -2.1170674568,
				"z": -1.8263836974,
				"element": "H" 
			},
			{
				"x": 1.7287029118,
				"y": 0.7646061888,
				"z": -2.4193675295,
				"element": "H" 
			},
			{
				"x": 3.0332619436,
				"y": -0.239569481,
				"z": -1.8182935951,
				"element": "H" 
			},
			{
				"x": 1.3346373421,
				"y": 0.1050544072,
				"z": 1.4611286517,
				"element": "H" 
			},
			{
				"x": -1.7796331215,
				"y": -2.4045539744,
				"z": 0.6385595912,
				"element": "H" 
			},
			{
				"x": -1.0506546089,
				"y": -2.388416455,
				"z": 2.9980310008,
				"element": "H" 
			}
		],
		 "valence_orbital": [ 
			{
				"type": "occ",
				"energy": -0.29318,
				"method": "rhf"
			},
			{
				"type": "occ",
				"energy": -0.25347,
				"method": "rhf"
			},
			{
				"type": "occ",
				"energy": -0.24953,
				"method": "rhf"
			},
			{
				"type": "occ",
				"energy": -0.2477,
				"method": "rhf"
			},
			{
				"type": "occ",
				"energy": -0.2355,
				"method": "rhf"
			},
			{
				"type": "unocc",
				"energy": -0.00452,
				"method": "rhf"
			},
			{
				"type": "unocc",
				"energy": -0.00405,
				"method": "rhf"
			},
			{
				"type": "unocc",
				"energy": 0.00259,
				"method": "rhf"
			},
			{
				"type": "unocc",
				"energy": 0.01812,
				"method": "rhf"
			},
			{
				"type": "unocc",
				"energy": 0.07403,
				"method": "rhf"
			}
		],
		"cosmo_sigma_profile": { 
			"-0.025": 0.0,
			"-0.024": 0.0,
			"-0.023": 0.0,
			"-0.022": 0.0,
			"-0.021": 0.0,
			"-0.02": 0.0,
			"-0.019": 0.0,
			"-0.018": 0.0,
			"-0.017": 0.0,
			"-0.016": 0.0,
			"-0.015": 0.0,
			"-0.014": 1.10652703555,
			"-0.013": 1.68814117493,
			"-0.012": 2.12129934477,
			"-0.011": 1.83006967738,
			"-0.01": 2.17260995363,
			"-0.009": 4.45057306348,
			"-0.008": 3.71771564076,
			"-0.007": 5.20701960385,
			"-0.006": 7.39636801977,
			"-0.005": 14.4110800642,
			"-0.004": 26.4957208417,
			"-0.003": 26.4806142054,
			"-0.002": 25.3823578812,
			"-0.001": 21.1249772063,
			"0.0": 19.7752457511,
			"0.001": 12.215388415,
			"0.002": 9.68259465661,
			"0.003": 9.33305083045,
			"0.004": 10.1240191993,
			"0.005": 9.56239423304,
			"0.006": 9.68122361191,
			"0.007": 5.65075884554,
			"0.008": 5.61011720064,
			"0.009": 4.08437294031,
			"0.01": 3.16296932982,
			"0.011": 4.37927850874,
			"0.012": 6.15615569932,
			"0.013": 3.5342502689,
			"0.014": 3.82499333786,
			"0.015": 0.401746379681,
			"0.016": 0.0,
			"0.017": 0.0,
			"0.018": 0.0,
			"0.019": 0.0,
			"0.02": 0.0,
			"0.021": 0.0,
			"0.022": 0.0,
			"0.023": 0.0,
			"0.024": 0.0,
			"0.025": 0.0
		}
	}
}
