{
	 "smiles": "CCOC(=O)C1=C(S)N=CC=C1", 
	 "Tm": 373.15, 
	 "num_atms": 21, 
	 "gaussian": { 
		 "optdone": 1, 
		 "sigma_profile": "yes", 
		 "theory": "DFT", 
		 "functional": "B3LYP", 
		 "basiset": "6-31G**", 
		 "properties": { 
			 "R2extent": 3140.0608, 
			 "electric_dipole_moment_norm": 2.01848019559, 
			 "electric_quadrupole_moment_norm": 22.6319676917, 
			 "total_energy": -913.667530248, 
			 "HOMO_LUMO_gap": 0.1724, 
			 "cosmo_polarized_energy": -9.54, 
			 "cosmo_cavitation_energy": 26.66, 
			 "cosmo_dispersion_energy": -19.95, 
			 "cosmo_repulsion_energy": 1.55, 
			 "cosmo_total_nonelectrostatic_energy": 8.25, 
			 "SMD_solvation_energy": 3.83 
		},
		"coords": [
			{
				"x": -3.1798382568,
				"y": -0.204464596,
				"z": 0.9686735925,
				"element": "C" 
			},
			{
				"x": -2.8599663484,
				"y": -0.8809148453,
				"z": -0.3547377969,
				"element": "C" 
			},
			{
				"x": -1.681015984,
				"y": -0.2995943781,
				"z": -0.9754606302,
				"element": "O" 
			},
			{
				"x": -0.4828475044,
				"y": -0.7764339683,
				"z": -0.5669786133,
				"element": "C" 
			},
			{
				"x": -0.3844972719,
				"y": -1.6511034771,
				"z": 0.2734950893,
				"element": "O" 
			},
			{
				"x": 0.7075426607,
				"y": -0.1538382916,
				"z": -1.227554323,
				"element": "C" 
			},
			{
				"x": 0.7625021432,
				"y": 0.8664153857,
				"z": -2.2160926382,
				"element": "C" 
			},
			{
				"x": -0.5810793477,
				"y": 1.7376160239,
				"z": -2.9903768073,
				"element": "S" 
			},
			{
				"x": 1.9279019015,
				"y": 1.315662732,
				"z": -2.7081459124,
				"element": "N" 
			},
			{
				"x": 3.0717421541,
				"y": 0.7985366642,
				"z": -2.265965817,
				"element": "C" 
			},
			{
				"x": 3.1368661293,
				"y": -0.2054462566,
				"z": -1.2990698928,
				"element": "C" 
			},
			{
				"x": 1.9377026313,
				"y": -0.6733852198,
				"z": -0.7863801285,
				"element": "C" 
			},
			{
				"x": -4.1128611911,
				"y": -0.6112646224,
				"z": 1.3724479948,
				"element": "H" 
			},
			{
				"x": -2.3843331968,
				"y": -0.385167645,
				"z": 1.695022591,
				"element": "H" 
			},
			{
				"x": -3.3047901582,
				"y": 0.8742943441,
				"z": 0.8373190754,
				"element": "H" 
			},
			{
				"x": -2.6895030416,
				"y": -1.9512723409,
				"z": -0.2250749234,
				"element": "H" 
			},
			{
				"x": -3.6514264568,
				"y": -0.7232300157,
				"z": -1.0909105811,
				"element": "H" 
			},
			{
				"x": -1.585175593,
				"y": 1.1225524446,
				"z": -2.3439518778,
				"element": "H" 
			},
			{
				"x": 3.9786469882,
				"y": 1.2083852529,
				"z": -2.7074718129,
				"element": "H" 
			},
			{
				"x": 4.0899693737,
				"y": -0.6005148529,
				"z": -0.9650372387,
				"element": "H" 
			},
			{
				"x": 1.9081603687,
				"y": -1.4520323377,
				"z": -0.0323493496,
				"element": "H" 
			}
		],
		 "valence_orbital": [ 
			{
				"type": "occ",
				"energy": -0.30795,
				"method": "rhf"
			},
			{
				"type": "occ",
				"energy": -0.29114,
				"method": "rhf"
			},
			{
				"type": "occ",
				"energy": -0.29088,
				"method": "rhf"
			},
			{
				"type": "occ",
				"energy": -0.26458,
				"method": "rhf"
			},
			{
				"type": "occ",
				"energy": -0.23298,
				"method": "rhf"
			},
			{
				"type": "unocc",
				"energy": -0.06058,
				"method": "rhf"
			},
			{
				"type": "unocc",
				"energy": -0.02831,
				"method": "rhf"
			},
			{
				"type": "unocc",
				"energy": 0.03354,
				"method": "rhf"
			},
			{
				"type": "unocc",
				"energy": 0.04122,
				"method": "rhf"
			},
			{
				"type": "unocc",
				"energy": 0.08332,
				"method": "rhf"
			}
		],
		"cosmo_sigma_profile": { 
			"-0.025": 0.0,
			"-0.024": 0.0,
			"-0.023": 0.0,
			"-0.022": 0.0,
			"-0.021": 0.0,
			"-0.02": 0.0,
			"-0.019": 0.0,
			"-0.018": 0.0,
			"-0.017": 0.0,
			"-0.016": 0.0,
			"-0.015": 0.0,
			"-0.014": 0.0,
			"-0.013": 0.0,
			"-0.012": 0.0,
			"-0.011": 0.0,
			"-0.01": 0.0,
			"-0.009": 0.411596908407,
			"-0.008": 2.03931014005,
			"-0.007": 6.51334178665,
			"-0.006": 11.6238374093,
			"-0.005": 13.1446705197,
			"-0.004": 17.1504651297,
			"-0.003": 20.5297286362,
			"-0.002": 19.7405761369,
			"-0.001": 20.5619487616,
			"0.0": 24.8816035656,
			"0.001": 16.6111524434,
			"0.002": 9.57693079532,
			"0.003": 6.29976011617,
			"0.004": 7.49935259398,
			"0.005": 7.0049913257,
			"0.006": 7.63373360525,
			"0.007": 6.25974030864,
			"0.008": 4.34385043806,
			"0.009": 3.09449528417,
			"0.01": 2.80662345805,
			"0.011": 4.35917222542,
			"0.012": 2.13781047218,
			"0.013": 0.703419792293,
			"0.014": 0.631069676384,
			"0.015": 0.0766877948445,
			"0.016": 0.0,
			"0.017": 0.0,
			"0.018": 0.0,
			"0.019": 0.0,
			"0.02": 0.0,
			"0.021": 0.0,
			"0.022": 0.0,
			"0.023": 0.0,
			"0.024": 0.0,
			"0.025": 0.0
		}
	}
}
