{
	 "smiles": "CN1C=CN=C1C(N)C1=C(F)C=CC=C1", 
	 "Tm": 332.15, 
	 "num_atms": 27, 
	 "gaussian": { 
		 "optdone": 1, 
		 "sigma_profile": "yes", 
		 "theory": "DFT", 
		 "functional": "B3LYP", 
		 "basiset": "6-31G**", 
		 "properties": { 
			 "R2extent": 3536.6107, 
			 "electric_dipole_moment_norm": 3.51376685055, 
			 "electric_quadrupole_moment_norm": 10.1192829316, 
			 "total_energy": -690.477342021, 
			 "HOMO_LUMO_gap": 0.19768, 
			 "cosmo_polarized_energy": -13.63, 
			 "cosmo_cavitation_energy": 30.06, 
			 "cosmo_dispersion_energy": -21.29, 
			 "cosmo_repulsion_energy": 1.63, 
			 "cosmo_total_nonelectrostatic_energy": 10.4, 
			 "SMD_solvation_energy": 2.91 
		},
		"coords": [
			{
				"x": -1.0123391,
				"y": -2.7632674989,
				"z": -0.9356655729,
				"element": "C" 
			},
			{
				"x": -1.3063032638,
				"y": -2.1759532481,
				"z": 0.3637887222,
				"element": "N" 
			},
			{
				"x": -1.2838688903,
				"y": -2.8768258993,
				"z": 1.555217054,
				"element": "C" 
			},
			{
				"x": -1.5227935318,
				"y": -1.9546189784,
				"z": 2.5404778782,
				"element": "C" 
			},
			{
				"x": -1.6869237933,
				"y": -0.705621145,
				"z": 1.9939411864,
				"element": "N" 
			},
			{
				"x": -1.5473738671,
				"y": -0.8589747751,
				"z": 0.6857093179,
				"element": "C" 
			},
			{
				"x": -1.7271495325,
				"y": 0.3119120531,
				"z": -0.2670939006,
				"element": "C" 
			},
			{
				"x": -3.015086992,
				"y": 0.3712734165,
				"z": -0.9745134391,
				"element": "N" 
			},
			{
				"x": -0.5316602055,
				"y": 0.5425455149,
				"z": -1.1912745548,
				"element": "C" 
			},
			{
				"x": -0.4736631305,
				"y": 0.1867327045,
				"z": -2.5395379251,
				"element": "C" 
			},
			{
				"x": -1.5229248934,
				"y": -0.4671314087,
				"z": -3.117458778,
				"element": "F" 
			},
			{
				"x": 0.6283863966,
				"y": 0.4366217226,
				"z": -3.3499736164,
				"element": "C" 
			},
			{
				"x": 1.7428926783,
				"y": 1.0672158174,
				"z": -2.8013354555,
				"element": "C" 
			},
			{
				"x": 1.7352551223,
				"y": 1.4289951425,
				"z": -1.4523337783,
				"element": "C" 
			},
			{
				"x": 0.611852195,
				"y": 1.1696514072,
				"z": -0.6700557989,
				"element": "C" 
			},
			{
				"x": -1.3330726526,
				"y": -3.8073926999,
				"z": -0.9332173969,
				"element": "H" 
			},
			{
				"x": 0.0595770064,
				"y": -2.7232206106,
				"z": -1.1563907683,
				"element": "H" 
			},
			{
				"x": -1.5469051626,
				"y": -2.2392746559,
				"z": -1.7258281697,
				"element": "H" 
			},
			{
				"x": -1.1044162901,
				"y": -3.9415151334,
				"z": 1.5781751616,
				"element": "H" 
			},
			{
				"x": -1.5908835859,
				"y": -2.1208259937,
				"z": 3.6069252529,
				"element": "H" 
			},
			{
				"x": -1.7335062362,
				"y": 1.1604855653,
				"z": 0.4237845752,
				"element": "H" 
			},
			{
				"x": -3.1225718047,
				"y": -0.4039435557,
				"z": -1.6194870295,
				"element": "H" 
			},
			{
				"x": -3.7594398231,
				"y": 0.3007161092,
				"z": -0.2853691057,
				"element": "H" 
			},
			{
				"x": 0.5920697178,
				"y": 0.1330035299,
				"z": -4.3907625869,
				"element": "H" 
			},
			{
				"x": 2.6089140915,
				"y": 1.2711384702,
				"z": -3.4234720469,
				"element": "H" 
			},
			{
				"x": 2.5974966094,
				"y": 1.9204734286,
				"z": -1.0125593019,
				"element": "H" 
			},
			{
				"x": 0.6057389378,
				"y": 1.4571007208,
				"z": 0.3780100769,
				"element": "H" 
			}
		],
		 "valence_orbital": [ 
			{
				"type": "occ",
				"energy": -0.26116,
				"method": "rhf"
			},
			{
				"type": "occ",
				"energy": -0.25991,
				"method": "rhf"
			},
			{
				"type": "occ",
				"energy": -0.24957,
				"method": "rhf"
			},
			{
				"type": "occ",
				"energy": -0.24039,
				"method": "rhf"
			},
			{
				"type": "occ",
				"energy": -0.21251,
				"method": "rhf"
			},
			{
				"type": "unocc",
				"energy": -0.01483,
				"method": "rhf"
			},
			{
				"type": "unocc",
				"energy": -0.00369,
				"method": "rhf"
			},
			{
				"type": "unocc",
				"energy": 0.02759,
				"method": "rhf"
			},
			{
				"type": "unocc",
				"energy": 0.07142,
				"method": "rhf"
			},
			{
				"type": "unocc",
				"energy": 0.08086,
				"method": "rhf"
			}
		],
		"cosmo_sigma_profile": { 
			"-0.025": 0.0,
			"-0.024": 0.0,
			"-0.023": 0.0,
			"-0.022": 0.0,
			"-0.021": 0.0,
			"-0.02": 0.0,
			"-0.019": 0.0,
			"-0.018": 0.0,
			"-0.017": 0.0,
			"-0.016": 0.0,
			"-0.015": 0.0,
			"-0.014": 0.0,
			"-0.013": 0.0,
			"-0.012": 0.0,
			"-0.011": 0.0599504157413,
			"-0.01": 1.03412652906,
			"-0.009": 2.90944065691,
			"-0.008": 5.08518051269,
			"-0.007": 9.39106857339,
			"-0.006": 16.5380085019,
			"-0.005": 19.2381094182,
			"-0.004": 19.9961216016,
			"-0.003": 21.0269517838,
			"-0.002": 16.4587198394,
			"-0.001": 12.4513837777,
			"0.0": 12.8228622628,
			"0.001": 13.8536060406,
			"0.002": 15.3270078169,
			"0.003": 15.168426822,
			"0.004": 17.3722043221,
			"0.005": 11.0921614646,
			"0.006": 5.9798358572,
			"0.007": 4.07968962716,
			"0.008": 2.65014433771,
			"0.009": 1.72671667464,
			"0.01": 2.27297978976,
			"0.011": 2.0579463033,
			"0.012": 1.28401792969,
			"0.013": 1.6097515433,
			"0.014": 1.73665711661,
			"0.015": 1.99714248708,
			"0.016": 1.30810469067,
			"0.017": 1.33919936101,
			"0.018": 1.2345118502,
			"0.019": 0.335010114204,
			"0.02": 0.0,
			"0.021": 0.0,
			"0.022": 0.0,
			"0.023": 0.0,
			"0.024": 0.0,
			"0.025": 0.0
		}
	}
}
