{
	 "smiles": "NS(=O)(=O)C1=CC2=C(CCCN2)C=C1", 
	 "Tm": 438.15, 
	 "num_atms": 26, 
	 "gaussian": { 
		 "optdone": 1, 
		 "sigma_profile": "yes", 
		 "theory": "DFT", 
		 "functional": "B3LYP", 
		 "basiset": "6-31G**", 
		 "properties": { 
			 "R2extent": 4078.0081, 
			 "electric_dipole_moment_norm": 7.32266188076, 
			 "electric_quadrupole_moment_norm": 24.5563440952, 
			 "total_energy": -1008.27078755, 
			 "HOMO_LUMO_gap": 0.17855, 
			 "cosmo_polarized_energy": -20.61, 
			 "cosmo_cavitation_energy": 29.82, 
			 "cosmo_dispersion_energy": -22.82, 
			 "cosmo_repulsion_energy": 1.75, 
			 "cosmo_total_nonelectrostatic_energy": 8.75, 
			 "SMD_solvation_energy": 3.18 
		},
		"coords": [
			{
				"x": -3.2887826531,
				"y": -2.8060483764,
				"z": 0.2267601651,
				"element": "N" 
			},
			{
				"x": -2.0286078279,
				"y": -2.6805361525,
				"z": 1.3412779429,
				"element": "S" 
			},
			{
				"x": -1.2435938104,
				"y": -3.9047138669,
				"z": 1.1812534541,
				"element": "O" 
			},
			{
				"x": -2.6617341537,
				"y": -2.3041020503,
				"z": 2.6042585366,
				"element": "O" 
			},
			{
				"x": -1.0081148961,
				"y": -1.3010056089,
				"z": 0.8066334864,
				"element": "C" 
			},
			{
				"x": 0.0788779667,
				"y": -1.5561025895,
				"z": -0.0228376416,
				"element": "C" 
			},
			{
				"x": 0.8754385067,
				"y": -0.4918796713,
				"z": -0.481876473,
				"element": "C" 
			},
			{
				"x": 0.5539125802,
				"y": 0.8311177942,
				"z": -0.0920698531,
				"element": "C" 
			},
			{
				"x": 1.4201152102,
				"y": 1.9887106199,
				"z": -0.552336022,
				"element": "C" 
			},
			{
				"x": 2.2566571536,
				"y": 1.6286651515,
				"z": -1.7881005662,
				"element": "C" 
			},
			{
				"x": 2.9471629943,
				"y": 0.2794404029,
				"z": -1.5799714259,
				"element": "C" 
			},
			{
				"x": 1.9370411169,
				"y": -0.7431526219,
				"z": -1.3415382206,
				"element": "N" 
			},
			{
				"x": -0.5479534972,
				"y": 1.0427986979,
				"z": 0.7401282971,
				"element": "C" 
			},
			{
				"x": -1.340470468,
				"y": -0.0049282647,
				"z": 1.2066459733,
				"element": "C" 
			},
			{
				"x": -3.8875105341,
				"y": -1.9856489066,
				"z": 0.233614112,
				"element": "H" 
			},
			{
				"x": -2.95406372,
				"y": -3.0326434464,
				"z": -0.7050150338,
				"element": "H" 
			},
			{
				"x": 0.320738303,
				"y": -2.5799863259,
				"z": -0.2918184547,
				"element": "H" 
			},
			{
				"x": 0.7928791517,
				"y": 2.8637557993,
				"z": -0.757711749,
				"element": "H" 
			},
			{
				"x": 2.0931325189,
				"y": 2.2839001654,
				"z": 0.265329688,
				"element": "H" 
			},
			{
				"x": 1.612364957,
				"y": 1.5618214682,
				"z": -2.6722599259,
				"element": "H" 
			},
			{
				"x": 3.0049777228,
				"y": 2.4034477309,
				"z": -1.983106786,
				"element": "H" 
			},
			{
				"x": 3.5180489948,
				"y": -0.0039098728,
				"z": -2.4701987481,
				"element": "H" 
			},
			{
				"x": 3.6614632659,
				"y": 0.3573388361,
				"z": -0.7423953399,
				"element": "H" 
			},
			{
				"x": 2.2677164789,
				"y": -1.6976285975,
				"z": -1.3449461524,
				"element": "H" 
			},
			{
				"x": -0.7822485255,
				"y": 2.0612473401,
				"z": 1.0415916951,
				"element": "H" 
			},
			{
				"x": -2.1714468354,
				"y": 0.1684423453,
				"z": 1.8804890416,
				"element": "H" 
			}
		],
		 "valence_orbital": [ 
			{
				"type": "occ",
				"energy": -0.29756,
				"method": "rhf"
			},
			{
				"type": "occ",
				"energy": -0.29488,
				"method": "rhf"
			},
			{
				"type": "occ",
				"energy": -0.29247,
				"method": "rhf"
			},
			{
				"type": "occ",
				"energy": -0.25519,
				"method": "rhf"
			},
			{
				"type": "occ",
				"energy": -0.20757,
				"method": "rhf"
			},
			{
				"type": "unocc",
				"energy": -0.02902,
				"method": "rhf"
			},
			{
				"type": "unocc",
				"energy": -0.00281,
				"method": "rhf"
			},
			{
				"type": "unocc",
				"energy": 0.05866,
				"method": "rhf"
			},
			{
				"type": "unocc",
				"energy": 0.07156,
				"method": "rhf"
			},
			{
				"type": "unocc",
				"energy": 0.08533,
				"method": "rhf"
			}
		],
		"cosmo_sigma_profile": { 
			"-0.025": 0.0,
			"-0.024": 0.0,
			"-0.023": 0.0,
			"-0.022": 0.0,
			"-0.021": 0.0,
			"-0.02": 0.0,
			"-0.019": 0.0,
			"-0.018": 0.0,
			"-0.017": 0.0,
			"-0.016": 0.00121166552443,
			"-0.015": 1.40896563658,
			"-0.014": 2.9024611549,
			"-0.013": 2.96181203695,
			"-0.012": 4.59636125799,
			"-0.011": 4.19434250279,
			"-0.01": 3.49606944542,
			"-0.009": 3.35027148174,
			"-0.008": 3.2454991569,
			"-0.007": 3.04174387729,
			"-0.006": 6.08090746831,
			"-0.005": 9.10907758811,
			"-0.004": 17.4495452945,
			"-0.003": 23.0445878961,
			"-0.002": 23.4774175605,
			"-0.001": 19.2173021277,
			"0.0": 11.6641041393,
			"0.001": 7.78368806788,
			"0.002": 9.2753171415,
			"0.003": 9.61827555904,
			"0.004": 13.4172195874,
			"0.005": 9.91556285951,
			"0.006": 4.33837674591,
			"0.007": 4.10392706891,
			"0.008": 5.27317951741,
			"0.009": 5.95764443465,
			"0.01": 6.47103781128,
			"0.011": 10.6373531479,
			"0.012": 8.23058531614,
			"0.013": 0.628069977479,
			"0.014": 0.0608912522413,
			"0.015": 0.0,
			"0.016": 0.0,
			"0.017": 0.0,
			"0.018": 0.0,
			"0.019": 0.0,
			"0.02": 0.0,
			"0.021": 0.0,
			"0.022": 0.0,
			"0.023": 0.0,
			"0.024": 0.0,
			"0.025": 0.0
		}
	}
}
