{
	 "smiles": "CCOC(=O)C(C)=P(C1=CC=CC=C1)(C1=CC=CC=C1)C1=CC=CC=C1", 
	 "Tm": 431.15, 
	 "num_atms": 49, 
	 "gaussian": { 
		 "optdone": 1, 
		 "sigma_profile": "yes", 
		 "theory": "DFT", 
		 "functional": "B3LYP", 
		 "basiset": "6-31G**", 
		 "properties": { 
			 "R2extent": 9343.6835, 
			 "electric_dipole_moment_norm": 4.38433748131, 
			 "electric_quadrupole_moment_norm": 8.03382499934, 
			 "total_energy": -1382.09327255, 
			 "HOMO_LUMO_gap": 0.13851, 
			 "cosmo_polarized_energy": -15.52, 
			 "cosmo_cavitation_energy": 51.64, 
			 "cosmo_dispersion_energy": -33.61, 
			 "cosmo_repulsion_energy": 2.59, 
			 "cosmo_total_nonelectrostatic_energy": 20.62, 
			 "SMD_solvation_energy": 9.91 
		},
		"coords": [
			{
				"x": 4.515216768,
				"y": 1.5367853944,
				"z": 0.7995604578,
				"element": "C" 
			},
			{
				"x": 4.2679400086,
				"y": 0.1664520225,
				"z": 0.1814175597,
				"element": "C" 
			},
			{
				"x": 3.1387526683,
				"y": 0.1792510124,
				"z": -0.7062631226,
				"element": "O" 
			},
			{
				"x": 1.9059549096,
				"y": 0.0128672273,
				"z": -0.121467968,
				"element": "C" 
			},
			{
				"x": 1.7978160772,
				"y": -0.1571658001,
				"z": 1.1071920153,
				"element": "O" 
			},
			{
				"x": 0.8257175875,
				"y": 0.0707594487,
				"z": -1.046706479,
				"element": "C" 
			},
			{
				"x": 1.0479037035,
				"y": 0.1943032657,
				"z": -2.5420336745,
				"element": "C" 
			},
			{
				"x": -0.7291831327,
				"y": -0.0737486331,
				"z": -0.2965250902,
				"element": "P" 
			},
			{
				"x": -2.005838563,
				"y": 0.2239650375,
				"z": -1.5795349074,
				"element": "C" 
			},
			{
				"x": -2.7568121042,
				"y": 1.4067212608,
				"z": -1.5986533008,
				"element": "C" 
			},
			{
				"x": -3.6929637162,
				"y": 1.6313617147,
				"z": -2.6107847884,
				"element": "C" 
			},
			{
				"x": -3.8874332056,
				"y": 0.6787291772,
				"z": -3.6106180436,
				"element": "C" 
			},
			{
				"x": -3.1424370996,
				"y": -0.5033594097,
				"z": -3.599408649,
				"element": "C" 
			},
			{
				"x": -2.2078807119,
				"y": -0.7310476789,
				"z": -2.5907065317,
				"element": "C" 
			},
			{
				"x": -1.2069036634,
				"y": -1.6982348339,
				"z": 0.4466146652,
				"element": "C" 
			},
			{
				"x": -0.233750076,
				"y": -2.474837174,
				"z": 1.0989042925,
				"element": "C" 
			},
			{
				"x": -0.5800410697,
				"y": -3.7082700706,
				"z": 1.6505861096,
				"element": "C" 
			},
			{
				"x": -1.8915498562,
				"y": -4.1804832729,
				"z": 1.5653528822,
				"element": "C" 
			},
			{
				"x": -2.8643076331,
				"y": -3.411500369,
				"z": 0.9259874378,
				"element": "C" 
			},
			{
				"x": -2.5254519727,
				"y": -2.177097243,
				"z": 0.3680231645,
				"element": "C" 
			},
			{
				"x": -1.028248508,
				"y": 1.1678798993,
				"z": 1.0258966861,
				"element": "C" 
			},
			{
				"x": -1.9632333032,
				"y": 0.9520670763,
				"z": 2.0474737802,
				"element": "C" 
			},
			{
				"x": -2.2033696579,
				"y": 1.944468399,
				"z": 2.9989193685,
				"element": "C" 
			},
			{
				"x": -1.5098032161,
				"y": 3.1544537458,
				"z": 2.9403096447,
				"element": "C" 
			},
			{
				"x": -0.5719698966,
				"y": 3.3709646051,
				"z": 1.9283127205,
				"element": "C" 
			},
			{
				"x": -0.3300526192,
				"y": 2.3820974815,
				"z": 0.9753126301,
				"element": "C" 
			},
			{
				"x": 3.6762883257,
				"y": 1.8133767708,
				"z": 1.4427025849,
				"element": "H" 
			},
			{
				"x": 5.4269260563,
				"y": 1.5201683932,
				"z": 1.4074761511,
				"element": "H" 
			},
			{
				"x": 4.6344519665,
				"y": 2.2983108952,
				"z": 0.0222574709,
				"element": "H" 
			},
			{
				"x": 4.1059635753,
				"y": -0.5815118226,
				"z": 0.9620078286,
				"element": "H" 
			},
			{
				"x": 5.1109362238,
				"y": -0.1413493373,
				"z": -0.4448806151,
				"element": "H" 
			},
			{
				"x": 1.2735454085,
				"y": -0.7645414163,
				"z": -3.0309503169,
				"element": "H" 
			},
			{
				"x": 0.1874161484,
				"y": 0.626978458,
				"z": -3.0584469656,
				"element": "H" 
			},
			{
				"x": 1.9037220027,
				"y": 0.8501848094,
				"z": -2.7261491225,
				"element": "H" 
			},
			{
				"x": -2.6116472798,
				"y": 2.1535725293,
				"z": -0.8256788526,
				"element": "H" 
			},
			{
				"x": -4.2693285022,
				"y": 2.5518552732,
				"z": -2.6142071663,
				"element": "H" 
			},
			{
				"x": -4.6164507754,
				"y": 0.85453524,
				"z": -4.3964173883,
				"element": "H" 
			},
			{
				"x": -3.2886359307,
				"y": -1.2482591193,
				"z": -4.3760982343,
				"element": "H" 
			},
			{
				"x": -1.6359078635,
				"y": -1.6538796364,
				"z": -2.5877421271,
				"element": "H" 
			},
			{
				"x": 0.7761945183,
				"y": -2.091189992,
				"z": 1.1899355674,
				"element": "H" 
			},
			{
				"x": 0.179687073,
				"y": -4.3005311833,
				"z": 2.1525939853,
				"element": "H" 
			},
			{
				"x": -2.1545883693,
				"y": -5.1424167304,
				"z": 1.9964558586,
				"element": "H" 
			},
			{
				"x": -3.8872415908,
				"y": -3.7705989863,
				"z": 0.8559842579,
				"element": "H" 
			},
			{
				"x": -3.2908429041,
				"y": -1.594746087,
				"z": -0.1342550429,
				"element": "H" 
			},
			{
				"x": -2.4958996398,
				"y": 0.0088316269,
				"z": 2.1096532248,
				"element": "H" 
			},
			{
				"x": -2.9272625691,
				"y": 1.7681563058,
				"z": 3.7893524128,
				"element": "H" 
			},
			{
				"x": -1.6948082595,
				"y": 3.9238636383,
				"z": 3.684586768,
				"element": "H" 
			},
			{
				"x": -0.0217487773,
				"y": 4.3065159075,
				"z": 1.8856487868,
				"element": "H" 
			},
			{
				"x": 0.4080594457,
				"y": 2.5354921804,
				"z": 0.194210075,
				"element": "H" 
			}
		],
		 "valence_orbital": [ 
			{
				"type": "occ",
				"energy": -0.2548,
				"method": "rhf"
			},
			{
				"type": "occ",
				"energy": -0.25228,
				"method": "rhf"
			},
			{
				"type": "occ",
				"energy": -0.2513,
				"method": "rhf"
			},
			{
				"type": "occ",
				"energy": -0.22802,
				"method": "rhf"
			},
			{
				"type": "occ",
				"energy": -0.17067,
				"method": "rhf"
			},
			{
				"type": "unocc",
				"energy": -0.03216,
				"method": "rhf"
			},
			{
				"type": "unocc",
				"energy": -0.0274,
				"method": "rhf"
			},
			{
				"type": "unocc",
				"energy": -0.02005,
				"method": "rhf"
			},
			{
				"type": "unocc",
				"energy": -0.01919,
				"method": "rhf"
			},
			{
				"type": "unocc",
				"energy": -0.00404,
				"method": "rhf"
			}
		],
		"cosmo_sigma_profile": { 
			"-0.025": 0.0,
			"-0.024": 0.0,
			"-0.023": 0.0,
			"-0.022": 0.0,
			"-0.021": 0.0,
			"-0.02": 0.0,
			"-0.019": 0.0,
			"-0.018": 0.0,
			"-0.017": 0.0,
			"-0.016": 0.0,
			"-0.015": 0.0,
			"-0.014": 0.0,
			"-0.013": 0.0,
			"-0.012": 0.0,
			"-0.011": 0.0,
			"-0.01": 0.0,
			"-0.009": 0.0,
			"-0.008": 0.0,
			"-0.007": 3.57837909343,
			"-0.006": 21.4689139405,
			"-0.005": 30.6123718907,
			"-0.004": 35.8165248076,
			"-0.003": 32.6083511527,
			"-0.002": 35.8315458143,
			"-0.001": 35.7688186221,
			"0.0": 36.1186873314,
			"0.001": 41.2325006956,
			"0.002": 32.6721016614,
			"0.003": 30.7762131494,
			"0.004": 31.1684975009,
			"0.005": 13.764117882,
			"0.006": 5.43323852319,
			"0.007": 4.42849290279,
			"0.008": 4.27490132892,
			"0.009": 3.21833574504,
			"0.01": 3.24412357238,
			"0.011": 1.57418276106,
			"0.012": 2.18386565871,
			"0.013": 1.12739085862,
			"0.014": 1.88518728939,
			"0.015": 1.58373357691,
			"0.016": 0.114587018892,
			"0.017": 0.0,
			"0.018": 0.0,
			"0.019": 0.0,
			"0.02": 0.0,
			"0.021": 0.0,
			"0.022": 0.0,
			"0.023": 0.0,
			"0.024": 0.0,
			"0.025": 0.0
		}
	}
}
