{
	 "smiles": "C(NC1=NN=CC=C1)C1CNCCO1", 
	 "Tm": 422.15, 
	 "num_atms": 28, 
	 "gaussian": { 
		 "optdone": 1, 
		 "sigma_profile": "yes", 
		 "theory": "DFT", 
		 "functional": "B3LYP", 
		 "basiset": "6-31G**", 
		 "properties": { 
			 "R2extent": 3905.5633, 
			 "electric_dipole_moment_norm": 5.44455433071, 
			 "electric_quadrupole_moment_norm": 18.4725479905, 
			 "total_energy": -645.567318889, 
			 "HOMO_LUMO_gap": 0.18001, 
			 "cosmo_polarized_energy": -17.2, 
			 "cosmo_cavitation_energy": 29.89, 
			 "cosmo_dispersion_energy": -22.02, 
			 "cosmo_repulsion_energy": 1.74, 
			 "cosmo_total_nonelectrostatic_energy": 9.61, 
			 "SMD_solvation_energy": 0.23 
		},
		"coords": [
			{
				"x": -0.1122107008,
				"y": 0.4112619184,
				"z": -1.3954597143,
				"element": "C" 
			},
			{
				"x": -0.8071151888,
				"y": 1.4381241922,
				"z": -0.6343135297,
				"element": "N" 
			},
			{
				"x": -1.2844508685,
				"y": 1.2760635553,
				"z": 0.6487557185,
				"element": "C" 
			},
			{
				"x": -2.310362254,
				"y": 2.0958462616,
				"z": 0.9594089177,
				"element": "N" 
			},
			{
				"x": -2.8553039889,
				"y": 2.0569124525,
				"z": 2.1696601288,
				"element": "N" 
			},
			{
				"x": -2.4017825754,
				"y": 1.1868748495,
				"z": 3.0732650293,
				"element": "C" 
			},
			{
				"x": -1.3390394782,
				"y": 0.3109855457,
				"z": 2.8153141714,
				"element": "C" 
			},
			{
				"x": -0.7439999448,
				"y": 0.3541926959,
				"z": 1.5711514163,
				"element": "C" 
			},
			{
				"x": 1.4164860992,
				"y": 0.5339290815,
				"z": -1.4249500724,
				"element": "C" 
			},
			{
				"x": 1.9246676869,
				"y": 1.924181303,
				"z": -1.8339133092,
				"element": "C" 
			},
			{
				"x": 3.3819242045,
				"y": 2.0604609014,
				"z": -1.733085668,
				"element": "N" 
			},
			{
				"x": 3.8549668783,
				"y": 1.6207702979,
				"z": -0.416800025,
				"element": "C" 
			},
			{
				"x": 3.3292091616,
				"y": 0.2345265399,
				"z": -0.039226484,
				"element": "C" 
			},
			{
				"x": 1.9064806416,
				"y": 0.1875797362,
				"z": -0.1281219547,
				"element": "O" 
			},
			{
				"x": -0.4699238449,
				"y": 0.4574412936,
				"z": -2.4303357593,
				"element": "H" 
			},
			{
				"x": -0.3679784822,
				"y": -0.5855224807,
				"z": -1.0137403181,
				"element": "H" 
			},
			{
				"x": -1.3788274666,
				"y": 2.0898749039,
				"z": -1.1552252102,
				"element": "H" 
			},
			{
				"x": -2.9068820331,
				"y": 1.2054193026,
				"z": 4.0348654118,
				"element": "H" 
			},
			{
				"x": -0.985300564,
				"y": -0.3707648742,
				"z": 3.5832742429,
				"element": "H" 
			},
			{
				"x": 0.1173326548,
				"y": -0.2492120301,
				"z": 1.3118250231,
				"element": "H" 
			},
			{
				"x": 1.791084291,
				"y": -0.2098523921,
				"z": -2.1546613226,
				"element": "H" 
			},
			{
				"x": 1.4626078354,
				"y": 2.6665286749,
				"z": -1.1732642828,
				"element": "H" 
			},
			{
				"x": 1.615429793,
				"y": 2.153675918,
				"z": -2.8607373748,
				"element": "H" 
			},
			{
				"x": 3.8228521737,
				"y": 1.4887301108,
				"z": -2.4524293626,
				"element": "H" 
			},
			{
				"x": 4.9509084861,
				"y": 1.63007374,
				"z": -0.4045259703,
				"element": "H" 
			},
			{
				"x": 3.508765297,
				"y": 2.3484373658,
				"z": 0.3280308317,
				"element": "H" 
			},
			{
				"x": 3.7689851971,
				"y": -0.5281084649,
				"z": -0.7065479795,
				"element": "H" 
			},
			{
				"x": 3.58097699,
				"y": -0.0291303984,
				"z": 0.9931874459,
				"element": "H" 
			}
		],
		 "valence_orbital": [ 
			{
				"type": "occ",
				"energy": -0.28932,
				"method": "rhf"
			},
			{
				"type": "occ",
				"energy": -0.282,
				"method": "rhf"
			},
			{
				"type": "occ",
				"energy": -0.22301,
				"method": "rhf"
			},
			{
				"type": "occ",
				"energy": -0.21602,
				"method": "rhf"
			},
			{
				"type": "occ",
				"energy": -0.21137,
				"method": "rhf"
			},
			{
				"type": "unocc",
				"energy": -0.03136,
				"method": "rhf"
			},
			{
				"type": "unocc",
				"energy": 0.00508,
				"method": "rhf"
			},
			{
				"type": "unocc",
				"energy": 0.06659,
				"method": "rhf"
			},
			{
				"type": "unocc",
				"energy": 0.08603,
				"method": "rhf"
			},
			{
				"type": "unocc",
				"energy": 0.10655,
				"method": "rhf"
			}
		],
		"cosmo_sigma_profile": { 
			"-0.025": 0.0,
			"-0.024": 0.0,
			"-0.023": 0.0,
			"-0.022": 0.0,
			"-0.021": 0.0,
			"-0.02": 0.0,
			"-0.019": 0.0,
			"-0.018": 0.0,
			"-0.017": 0.0,
			"-0.016": 0.0,
			"-0.015": 0.0,
			"-0.014": 0.0,
			"-0.013": 0.201089968728,
			"-0.012": 1.33519962959,
			"-0.011": 0.877589609352,
			"-0.01": 1.6532266516,
			"-0.009": 3.02774474354,
			"-0.008": 3.57930459113,
			"-0.007": 7.06220582788,
			"-0.006": 11.4850265183,
			"-0.005": 17.414778887,
			"-0.004": 27.0902744915,
			"-0.003": 24.89611195,
			"-0.002": 18.0752960043,
			"-0.001": 16.383087904,
			"0.0": 13.3485980892,
			"0.001": 13.528293252,
			"0.002": 14.5108371819,
			"0.003": 7.83291854265,
			"0.004": 7.28056117908,
			"0.005": 6.4677168405,
			"0.006": 4.8181505164,
			"0.007": 4.96053885501,
			"0.008": 4.03587566751,
			"0.009": 2.94641544463,
			"0.01": 3.17208044381,
			"0.011": 2.42865233345,
			"0.012": 2.49881768286,
			"0.013": 3.17795635698,
			"0.014": 2.77595091069,
			"0.015": 3.12227184607,
			"0.016": 2.75160725264,
			"0.017": 1.31239690022,
			"0.018": 0.447431596267,
			"0.019": 0.167749592297,
			"0.02": 0.0,
			"0.021": 0.0,
			"0.022": 0.0,
			"0.023": 0.0,
			"0.024": 0.0,
			"0.025": 0.0
		}
	}
}
