{
	 "smiles": "COC1=CC2=C(C=C1)C(=C(N2)C1=CC=CC=C1)C1=CC=CC=C1", 
	 "Tm": 485.15, 
	 "num_atms": 40, 
	 "gaussian": { 
		 "optdone": 1, 
		 "sigma_profile": "yes", 
		 "theory": "DFT", 
		 "functional": "B3LYP", 
		 "basiset": "6-31G**", 
		 "properties": { 
			 "R2extent": 9017.0837, 
			 "electric_dipole_moment_norm": 2.87420921994, 
			 "electric_quadrupole_moment_norm": 15.1647043423, 
			 "total_energy": -940.464954213, 
			 "HOMO_LUMO_gap": 0.14972, 
			 "cosmo_polarized_energy": -12.86, 
			 "cosmo_cavitation_energy": 43.34, 
			 "cosmo_dispersion_energy": -30.59, 
			 "cosmo_repulsion_energy": 2.32, 
			 "cosmo_total_nonelectrostatic_energy": 15.06, 
			 "SMD_solvation_energy": 7.25 
		},
		"coords": [
			{
				"x": 2.3682676502,
				"y": 5.2071197568,
				"z": 2.6557763677,
				"element": "C" 
			},
			{
				"x": 2.6854933232,
				"y": 4.4141578771,
				"z": 1.5267911549,
				"element": "O" 
			},
			{
				"x": 1.9251584714,
				"y": 3.3023525605,
				"z": 1.2854399755,
				"element": "C" 
			},
			{
				"x": 0.8551752601,
				"y": 2.8968281953,
				"z": 2.0805160032,
				"element": "C" 
			},
			{
				"x": 0.1843335921,
				"y": 1.7281151948,
				"z": 1.6922024041,
				"element": "C" 
			},
			{
				"x": 0.5555770722,
				"y": 0.9586815305,
				"z": 0.5625082173,
				"element": "C" 
			},
			{
				"x": 1.626198727,
				"y": 1.4155718937,
				"z": -0.2308170427,
				"element": "C" 
			},
			{
				"x": 2.2997709113,
				"y": 2.567231851,
				"z": 0.1336781892,
				"element": "C" 
			},
			{
				"x": -0.3504689588,
				"y": -0.1654221574,
				"z": 0.4852180266,
				"element": "C" 
			},
			{
				"x": -1.2280120008,
				"y": -0.0454232269,
				"z": 1.5547094367,
				"element": "C" 
			},
			{
				"x": -0.912263772,
				"y": 1.1175519008,
				"z": 2.2568501011,
				"element": "N" 
			},
			{
				"x": -2.3270241407,
				"y": -0.8951300148,
				"z": 2.030749599,
				"element": "C" 
			},
			{
				"x": -2.2589667475,
				"y": -2.2978724674,
				"z": 1.9391838093,
				"element": "C" 
			},
			{
				"x": -3.2955054376,
				"y": -3.0919513234,
				"z": 2.423134803,
				"element": "C" 
			},
			{
				"x": -4.4172985826,
				"y": -2.5090552249,
				"z": 3.0190916658,
				"element": "C" 
			},
			{
				"x": -4.4955264302,
				"y": -1.1194004805,
				"z": 3.1216116957,
				"element": "C" 
			},
			{
				"x": -3.4640835337,
				"y": -0.3203652458,
				"z": 2.6299468019,
				"element": "C" 
			},
			{
				"x": -0.3557055928,
				"y": -1.1807268062,
				"z": -0.5867986289,
				"element": "C" 
			},
			{
				"x": -1.5350689019,
				"y": -1.5125728592,
				"z": -1.2777337127,
				"element": "C" 
			},
			{
				"x": -1.5228265216,
				"y": -2.4583349563,
				"z": -2.3014561565,
				"element": "C" 
			},
			{
				"x": -0.3301275356,
				"y": -3.0870106284,
				"z": -2.6673735265,
				"element": "C" 
			},
			{
				"x": 0.8500698673,
				"y": -2.7630584848,
				"z": -1.9962078352,
				"element": "C" 
			},
			{
				"x": 0.8374244138,
				"y": -1.8220167111,
				"z": -0.9661561088,
				"element": "C" 
			},
			{
				"x": 2.4615863195,
				"y": 4.6385268764,
				"z": 3.590994738,
				"element": "H" 
			},
			{
				"x": 3.0872831954,
				"y": 6.0280953356,
				"z": 2.6630923191,
				"element": "H" 
			},
			{
				"x": 1.3521877315,
				"y": 5.6193644519,
				"z": 2.5905419915,
				"element": "H" 
			},
			{
				"x": 0.5419994353,
				"y": 3.4541899114,
				"z": 2.9552246358,
				"element": "H" 
			},
			{
				"x": 1.9220921036,
				"y": 0.8707035481,
				"z": -1.1217960313,
				"element": "H" 
			},
			{
				"x": 3.1319644944,
				"y": 2.9418227538,
				"z": -0.4527972917,
				"element": "H" 
			},
			{
				"x": -1.282553428,
				"y": 1.3260651584,
				"z": 3.1706042606,
				"element": "H" 
			},
			{
				"x": -1.3829424836,
				"y": -2.7588887696,
				"z": 1.4968516957,
				"element": "H" 
			},
			{
				"x": -3.2217595992,
				"y": -4.1730039975,
				"z": 2.3451116437,
				"element": "H" 
			},
			{
				"x": -5.2214610206,
				"y": -3.1322517845,
				"z": 3.3991764108,
				"element": "H" 
			},
			{
				"x": -5.3659418238,
				"y": -0.6538914466,
				"z": 3.5755670176,
				"element": "H" 
			},
			{
				"x": -3.552109042,
				"y": 0.7615226904,
				"z": 2.6832100595,
				"element": "H" 
			},
			{
				"x": -2.4618459915,
				"y": -1.0147753879,
				"z": -1.0102101392,
				"element": "H" 
			},
			{
				"x": -2.4459841237,
				"y": -2.697645691,
				"z": -2.8222920281,
				"element": "H" 
			},
			{
				"x": -0.3209559971,
				"y": -3.8199655466,
				"z": -3.4690462632,
				"element": "H" 
			},
			{
				"x": 1.7832485083,
				"y": -3.2479296193,
				"z": -2.2698282953,
				"element": "H" 
			},
			{
				"x": 1.7557005882,
				"y": -1.5886086561,
				"z": -0.4353699632,
				"element": "H" 
			}
		],
		 "valence_orbital": [ 
			{
				"type": "occ",
				"energy": -0.25217,
				"method": "rhf"
			},
			{
				"type": "occ",
				"energy": -0.24223,
				"method": "rhf"
			},
			{
				"type": "occ",
				"energy": -0.23468,
				"method": "rhf"
			},
			{
				"type": "occ",
				"energy": -0.20883,
				"method": "rhf"
			},
			{
				"type": "occ",
				"energy": -0.18086,
				"method": "rhf"
			},
			{
				"type": "unocc",
				"energy": -0.03114,
				"method": "rhf"
			},
			{
				"type": "unocc",
				"energy": -0.00569,
				"method": "rhf"
			},
			{
				"type": "unocc",
				"energy": 0.00505,
				"method": "rhf"
			},
			{
				"type": "unocc",
				"energy": 0.00883,
				"method": "rhf"
			},
			{
				"type": "unocc",
				"energy": 0.01536,
				"method": "rhf"
			}
		],
		"cosmo_sigma_profile": { 
			"-0.025": 0.0,
			"-0.024": 0.0,
			"-0.023": 0.0,
			"-0.022": 0.0,
			"-0.021": 0.0,
			"-0.02": 0.0,
			"-0.019": 0.0,
			"-0.018": 0.0,
			"-0.017": 0.0,
			"-0.016": 0.0,
			"-0.015": 0.590612186066,
			"-0.014": 1.05977910243,
			"-0.013": 1.29403654982,
			"-0.012": 1.09147050264,
			"-0.011": 1.19113086079,
			"-0.01": 1.19294257761,
			"-0.009": 2.04136121628,
			"-0.008": 1.48262449912,
			"-0.007": 2.85411104941,
			"-0.006": 11.3343834952,
			"-0.005": 28.4648068108,
			"-0.004": 32.0424293958,
			"-0.003": 35.2919624807,
			"-0.002": 24.5275638625,
			"-0.001": 20.1785892067,
			"0.0": 19.4663650117,
			"0.001": 19.4329930095,
			"0.002": 23.6533231941,
			"0.003": 24.0134981865,
			"0.004": 30.6432734199,
			"0.005": 34.5632753387,
			"0.006": 22.1616278715,
			"0.007": 3.01051166767,
			"0.008": 1.29652850573,
			"0.009": 1.4034614895,
			"0.01": 1.82147688485,
			"0.011": 0.818901433289,
			"0.012": 0.0,
			"0.013": 0.0,
			"0.014": 0.0,
			"0.015": 0.0,
			"0.016": 0.0,
			"0.017": 0.0,
			"0.018": 0.0,
			"0.019": 0.0,
			"0.02": 0.0,
			"0.021": 0.0,
			"0.022": 0.0,
			"0.023": 0.0,
			"0.024": 0.0,
			"0.025": 0.0
		}
	}
}
