{
	 "smiles": "CN=C1SC(CC(O)=O)C(=O)N1C", 
	 "Tm": 431.15, 
	 "num_atms": 23, 
	 "gaussian": { 
		 "optdone": 1, 
		 "sigma_profile": "yes", 
		 "theory": "DFT", 
		 "functional": "B3LYP", 
		 "basiset": "6-31G**", 
		 "properties": { 
			 "R2extent": 3320.8513, 
			 "electric_dipole_moment_norm": 2.03566134954, 
			 "electric_quadrupole_moment_norm": 10.5513364855, 
			 "total_energy": -1006.16009747, 
			 "HOMO_LUMO_gap": 0.22594, 
			 "cosmo_polarized_energy": -14.19, 
			 "cosmo_cavitation_energy": 28.63, 
			 "cosmo_dispersion_energy": -21.14, 
			 "cosmo_repulsion_energy": 1.67, 
			 "cosmo_total_nonelectrostatic_energy": 9.16, 
			 "SMD_solvation_energy": 4.65 
		},
		"coords": [
			{
				"x": -2.7668119467,
				"y": 0.8351218497,
				"z": -1.3641097162,
				"element": "C" 
			},
			{
				"x": -1.5815152531,
				"y": 0.3819242171,
				"z": -2.0614782722,
				"element": "N" 
			},
			{
				"x": -0.5877377914,
				"y": -0.0713241064,
				"z": -1.4254861671,
				"element": "C" 
			},
			{
				"x": -0.3821828242,
				"y": -0.2724616466,
				"z": 0.3611334336,
				"element": "S" 
			},
			{
				"x": 1.3151497237,
				"y": -0.9487897183,
				"z": 0.1582345177,
				"element": "C" 
			},
			{
				"x": 2.4005833813,
				"y": -0.1640760749,
				"z": 0.9037200173,
				"element": "C" 
			},
			{
				"x": 2.3210628241,
				"y": -0.1914224947,
				"z": 2.4165913313,
				"element": "C" 
			},
			{
				"x": 1.6317204499,
				"y": -1.2618147183,
				"z": 2.8841394093,
				"element": "O" 
			},
			{
				"x": 2.8349830073,
				"y": 0.6255174659,
				"z": 3.1442628451,
				"element": "O" 
			},
			{
				"x": 1.6176869358,
				"y": -0.970783039,
				"z": -1.3419090862,
				"element": "C" 
			},
			{
				"x": 2.6864428885,
				"y": -1.3482573255,
				"z": -1.7909285049,
				"element": "O" 
			},
			{
				"x": 0.5620469887,
				"y": -0.5121491091,
				"z": -2.0945914788,
				"element": "N" 
			},
			{
				"x": 0.6341737208,
				"y": -0.4484470749,
				"z": -3.5504278362,
				"element": "C" 
			},
			{
				"x": -3.0370440193,
				"y": 1.8332367903,
				"z": -1.7251860752,
				"element": "H" 
			},
			{
				"x": -2.6647851353,
				"y": 0.8835899198,
				"z": -0.2701019725,
				"element": "H" 
			},
			{
				"x": -3.6057817377,
				"y": 0.1694208834,
				"z": -1.5989534525,
				"element": "H" 
			},
			{
				"x": 1.3104475318,
				"y": -1.9831007084,
				"z": 0.5108913496,
				"element": "H" 
			},
			{
				"x": 3.3692598725,
				"y": -0.5930387506,
				"z": 0.6159483742,
				"element": "H" 
			},
			{
				"x": 2.41447215,
				"y": 0.88568126,
				"z": 0.600072155,
				"element": "H" 
			},
			{
				"x": 1.654314163,
				"y": -1.1979030347,
				"z": 3.8539888133,
				"element": "H" 
			},
			{
				"x": 1.6110384077,
				"y": -0.8332642049,
				"z": -3.8413794986,
				"element": "H" 
			},
			{
				"x": -0.1643351586,
				"y": -1.050795783,
				"z": -3.9891681791,
				"element": "H" 
			},
			{
				"x": 0.5121118213,
				"y": 0.5841354032,
				"z": -3.885262007,
				"element": "H" 
			}
		],
		 "valence_orbital": [ 
			{
				"type": "occ",
				"energy": -0.29073,
				"method": "rhf"
			},
			{
				"type": "occ",
				"energy": -0.28091,
				"method": "rhf"
			},
			{
				"type": "occ",
				"energy": -0.26489,
				"method": "rhf"
			},
			{
				"type": "occ",
				"energy": -0.25975,
				"method": "rhf"
			},
			{
				"type": "occ",
				"energy": -0.24607,
				"method": "rhf"
			},
			{
				"type": "unocc",
				"energy": -0.02013,
				"method": "rhf"
			},
			{
				"type": "unocc",
				"energy": -0.00658,
				"method": "rhf"
			},
			{
				"type": "unocc",
				"energy": 0.00893,
				"method": "rhf"
			},
			{
				"type": "unocc",
				"energy": 0.03624,
				"method": "rhf"
			},
			{
				"type": "unocc",
				"energy": 0.05715,
				"method": "rhf"
			}
		],
		"cosmo_sigma_profile": { 
			"-0.025": 0.0,
			"-0.024": 0.0,
			"-0.023": 0.0,
			"-0.022": 0.0,
			"-0.021": 0.0,
			"-0.02": 0.0,
			"-0.019": 0.341557122464,
			"-0.018": 0.990922972273,
			"-0.017": 0.505363420776,
			"-0.016": 1.40761877236,
			"-0.015": 0.802972970092,
			"-0.014": 0.310016121867,
			"-0.013": 0.29239708219,
			"-0.012": 0.969674589899,
			"-0.011": 0.950615635045,
			"-0.01": 0.69860239993,
			"-0.009": 1.21853491021,
			"-0.008": 5.46496363028,
			"-0.007": 7.35298469252,
			"-0.006": 9.3040723606,
			"-0.005": 13.7319920223,
			"-0.004": 18.3114446787,
			"-0.003": 23.0828096546,
			"-0.002": 23.6358832201,
			"-0.001": 16.8472210983,
			"0.0": 10.562706138,
			"0.001": 10.564769875,
			"0.002": 12.3239683904,
			"0.003": 8.84570094593,
			"0.004": 8.04694419752,
			"0.005": 7.88415743198,
			"0.006": 8.0665111247,
			"0.007": 4.94193020167,
			"0.008": 3.07864859754,
			"0.009": 4.85359088401,
			"0.01": 5.00556173506,
			"0.011": 9.20830156572,
			"0.012": 7.77644541066,
			"0.013": 0.886753178873,
			"0.014": 0.0394973925135,
			"0.015": 0.0,
			"0.016": 0.0,
			"0.017": 0.0,
			"0.018": 0.0,
			"0.019": 0.0,
			"0.02": 0.0,
			"0.021": 0.0,
			"0.022": 0.0,
			"0.023": 0.0,
			"0.024": 0.0,
			"0.025": 0.0
		}
	}
}
