{
	 "smiles": "NC1=NN(CCN2CCNC2=O)C=C1", 
	 "Tm": 392.15, 
	 "num_atms": 27, 
	 "gaussian": { 
		 "optdone": 1, 
		 "sigma_profile": "yes", 
		 "theory": "DFT", 
		 "functional": "B3LYP", 
		 "basiset": "6-31G**", 
		 "properties": { 
			 "R2extent": 3186.6608, 
			 "electric_dipole_moment_norm": 3.26280674727, 
			 "electric_quadrupole_moment_norm": 15.1994146453, 
			 "total_energy": -661.666459547, 
			 "HOMO_LUMO_gap": 0.22469, 
			 "cosmo_polarized_energy": -19.49, 
			 "cosmo_cavitation_energy": 30.12, 
			 "cosmo_dispersion_energy": -21.47, 
			 "cosmo_repulsion_energy": 1.72, 
			 "cosmo_total_nonelectrostatic_energy": 10.38, 
			 "SMD_solvation_energy": 3.37 
		},
		"coords": [
			{
				"x": 2.3667767539,
				"y": 3.2026630179,
				"z": -1.275712351,
				"element": "N" 
			},
			{
				"x": 2.5402453898,
				"y": 1.9492754625,
				"z": -0.6831074386,
				"element": "C" 
			},
			{
				"x": 1.5484186202,
				"y": 1.3812822769,
				"z": 0.0057291494,
				"element": "N" 
			},
			{
				"x": 2.0346948185,
				"y": 0.1614181037,
				"z": 0.3759366167,
				"element": "N" 
			},
			{
				"x": 1.1996744692,
				"y": -0.7713108968,
				"z": 1.1140098305,
				"element": "C" 
			},
			{
				"x": 0.3102498791,
				"y": -1.6922240468,
				"z": 0.2512575125,
				"element": "C" 
			},
			{
				"x": -0.867973991,
				"y": -1.0860261632,
				"z": -0.3268060676,
				"element": "N" 
			},
			{
				"x": -0.8938319142,
				"y": -0.2499817246,
				"z": -1.5254236765,
				"element": "C" 
			},
			{
				"x": -2.4044937336,
				"y": 0.0379235032,
				"z": -1.6642324302,
				"element": "C" 
			},
			{
				"x": -2.8414708846,
				"y": -0.0437199537,
				"z": -0.2736780699,
				"element": "N" 
			},
			{
				"x": -1.994498363,
				"y": -0.8768122872,
				"z": 0.4507971269,
				"element": "C" 
			},
			{
				"x": -2.1965123003,
				"y": -1.3345216189,
				"z": 1.5668600572,
				"element": "O" 
			},
			{
				"x": 3.3046974067,
				"y": -0.0277363906,
				"z": -0.0608959378,
				"element": "C" 
			},
			{
				"x": 3.6785596731,
				"y": 1.1061502542,
				"z": -0.7564913,
				"element": "C" 
			},
			{
				"x": 3.2006000681,
				"y": 3.7759347679,
				"z": -1.2488823686,
				"element": "H" 
			},
			{
				"x": 1.5798766794,
				"y": 3.6980333778,
				"z": -0.8728193697,
				"element": "H" 
			},
			{
				"x": 1.8672287735,
				"y": -1.3992255405,
				"z": 1.7138160341,
				"element": "H" 
			},
			{
				"x": 0.5728981769,
				"y": -0.1957871665,
				"z": 1.7988276077,
				"element": "H" 
			},
			{
				"x": 0.9086220924,
				"y": -2.1403832597,
				"z": -0.5503051599,
				"element": "H" 
			},
			{
				"x": -0.0439138732,
				"y": -2.4966220415,
				"z": 0.9037382429,
				"element": "H" 
			},
			{
				"x": -0.4918026928,
				"y": -0.7835813461,
				"z": -2.3931573586,
				"element": "H" 
			},
			{
				"x": -0.320395815,
				"y": 0.6718700704,
				"z": -1.3766861318,
				"element": "H" 
			},
			{
				"x": -2.893151527,
				"y": -0.7187699734,
				"z": -2.2964683166,
				"element": "H" 
			},
			{
				"x": -2.5945755295,
				"y": 1.0251896927,
				"z": -2.0944468081,
				"element": "H" 
			},
			{
				"x": -3.8226856842,
				"y": -0.1054757786,
				"z": -0.0429511584,
				"element": "H" 
			},
			{
				"x": 3.8469969973,
				"y": -0.9369523061,
				"z": 0.1581407589,
				"element": "H" 
			},
			{
				"x": 4.6243665104,
				"y": 1.3007899669,
				"z": -1.2395489933,
				"element": "H" 
			}
		],
		 "valence_orbital": [ 
			{
				"type": "occ",
				"energy": -0.25303,
				"method": "rhf"
			},
			{
				"type": "occ",
				"energy": -0.24228,
				"method": "rhf"
			},
			{
				"type": "occ",
				"energy": -0.24089,
				"method": "rhf"
			},
			{
				"type": "occ",
				"energy": -0.22399,
				"method": "rhf"
			},
			{
				"type": "occ",
				"energy": -0.19976,
				"method": "rhf"
			},
			{
				"type": "unocc",
				"energy": 0.02493,
				"method": "rhf"
			},
			{
				"type": "unocc",
				"energy": 0.06524,
				"method": "rhf"
			},
			{
				"type": "unocc",
				"energy": 0.07873,
				"method": "rhf"
			},
			{
				"type": "unocc",
				"energy": 0.08839,
				"method": "rhf"
			},
			{
				"type": "unocc",
				"energy": 0.09952,
				"method": "rhf"
			}
		],
		"cosmo_sigma_profile": { 
			"-0.025": 0.0,
			"-0.024": 0.0,
			"-0.023": 0.0,
			"-0.022": 0.0,
			"-0.021": 0.0,
			"-0.02": 0.0,
			"-0.019": 0.0,
			"-0.018": 0.0,
			"-0.017": 0.0,
			"-0.016": 0.0,
			"-0.015": 0.0,
			"-0.014": 0.35433434508,
			"-0.013": 1.42538834982,
			"-0.012": 2.14739755532,
			"-0.011": 3.27295460073,
			"-0.01": 4.30279608904,
			"-0.009": 3.61644582805,
			"-0.008": 6.53701662274,
			"-0.007": 6.70863996432,
			"-0.006": 12.1653237048,
			"-0.005": 20.304935205,
			"-0.004": 23.5750606074,
			"-0.003": 21.8390236202,
			"-0.002": 15.919274185,
			"-0.001": 10.7307893894,
			"0.0": 9.61875543315,
			"0.001": 8.05852941716,
			"0.002": 8.76079261347,
			"0.003": 9.29467309625,
			"0.004": 9.54304720342,
			"0.005": 10.0886199081,
			"0.006": 8.97175072316,
			"0.007": 6.90721135406,
			"0.008": 4.5196867338,
			"0.009": 3.2566042526,
			"0.01": 3.79683653556,
			"0.011": 2.90759067364,
			"0.012": 3.06795415396,
			"0.013": 2.96647584757,
			"0.014": 6.47369896605,
			"0.015": 4.95400626282,
			"0.016": 0.876570832934,
			"0.017": 0.00164043437742,
			"0.018": 0.0,
			"0.019": 0.0,
			"0.02": 0.0,
			"0.021": 0.0,
			"0.022": 0.0,
			"0.023": 0.0,
			"0.024": 0.0,
			"0.025": 0.0
		}
	}
}
