{
	 "smiles": "BrC1=CC=C2C=CC=NC2=C1", 
	 "Tm": 307.15, 
	 "num_atms": 17, 
	 "gaussian": { 
		 "optdone": 1, 
		 "sigma_profile": "yes", 
		 "theory": "DFT", 
		 "functional": "B3LYP", 
		 "basiset": "6-31G**", 
		 "properties": { 
			 "R2extent": 4727.0603, 
			 "electric_dipole_moment_norm": 3.22149466087, 
			 "electric_quadrupole_moment_norm": 5.20551659492, 
			 "total_energy": -2972.73419239, 
			 "HOMO_LUMO_gap": 0.17533, 
			 "cosmo_polarized_energy": -6.97, 
			 "cosmo_cavitation_energy": 23.49, 
			 "cosmo_dispersion_energy": -18.13, 
			 "cosmo_repulsion_energy": 1.43, 
			 "cosmo_total_nonelectrostatic_energy": 6.79, 
			 "SMD_solvation_energy": 1.25 
		},
		"coords": [
			{
				"x": -4.1889186111,
				"y": -1.8051803516,
				"z": 2.2527624774,
				"element": "Br" 
			},
			{
				"x": -2.6165046001,
				"y": -1.0531732684,
				"z": 1.4688325506,
				"element": "C" 
			},
			{
				"x": -2.6610495357,
				"y": -0.6768856481,
				"z": 0.104248154,
				"element": "C" 
			},
			{
				"x": -1.5417540001,
				"y": -0.1332076248,
				"z": -0.4822753497,
				"element": "C" 
			},
			{
				"x": -0.3471131708,
				"y": 0.054421098,
				"z": 0.2612767867,
				"element": "C" 
			},
			{
				"x": 0.8367075778,
				"y": 0.6089714466,
				"z": -0.2872959978,
				"element": "C" 
			},
			{
				"x": 1.9452939114,
				"y": 0.7513855482,
				"z": 0.5133718935,
				"element": "C" 
			},
			{
				"x": 1.8654227456,
				"y": 0.3363164862,
				"z": 1.8672776831,
				"element": "C" 
			},
			{
				"x": 0.7894067165,
				"y": -0.1840944867,
				"z": 2.42289627,
				"element": "N" 
			},
			{
				"x": -0.3186758397,
				"y": -0.3312681668,
				"z": 1.6395768151,
				"element": "C" 
			},
			{
				"x": -1.4839779302,
				"y": -0.8913244463,
				"z": 2.2293814543,
				"element": "C" 
			},
			{
				"x": -3.5740449889,
				"y": -0.820913015,
				"z": -0.4616930059,
				"element": "H" 
			},
			{
				"x": -1.5649920508,
				"y": 0.1591013236,
				"z": -1.5288907163,
				"element": "H" 
			},
			{
				"x": 0.8521792979,
				"y": 0.9134185409,
				"z": -1.3308270595,
				"element": "H" 
			},
			{
				"x": 2.8699519339,
				"y": 1.1714100803,
				"z": 0.130752972,
				"element": "H" 
			},
			{
				"x": 2.7370503187,
				"y": 0.4438486683,
				"z": 2.5121494745,
				"element": "H" 
			},
			{
				"x": -1.4442817742,
				"y": -1.1773261845,
				"z": 3.273355598,
				"element": "H" 
			}
		],
		 "valence_orbital": [ 
			{
				"type": "occ",
				"energy": -0.29806,
				"method": "rhf"
			},
			{
				"type": "occ",
				"energy": -0.28912,
				"method": "rhf"
			},
			{
				"type": "occ",
				"energy": -0.26129,
				"method": "rhf"
			},
			{
				"type": "occ",
				"energy": -0.25388,
				"method": "rhf"
			},
			{
				"type": "occ",
				"energy": -0.23754,
				"method": "rhf"
			},
			{
				"type": "unocc",
				"energy": -0.06221,
				"method": "rhf"
			},
			{
				"type": "unocc",
				"energy": -0.02652,
				"method": "rhf"
			},
			{
				"type": "unocc",
				"energy": 0.00507,
				"method": "rhf"
			},
			{
				"type": "unocc",
				"energy": 0.00949,
				"method": "rhf"
			},
			{
				"type": "unocc",
				"energy": 0.07779,
				"method": "rhf"
			}
		],
		"cosmo_sigma_profile": { 
			"-0.025": 0.0,
			"-0.024": 0.0,
			"-0.023": 0.0,
			"-0.022": 0.0,
			"-0.021": 0.0,
			"-0.02": 0.0,
			"-0.019": 0.0,
			"-0.018": 0.0,
			"-0.017": 0.0,
			"-0.016": 0.0,
			"-0.015": 0.0,
			"-0.014": 0.0,
			"-0.013": 0.0,
			"-0.012": 0.0,
			"-0.011": 0.0,
			"-0.01": 0.0,
			"-0.009": 0.0,
			"-0.008": 1.95708078922,
			"-0.007": 10.4790509569,
			"-0.006": 12.8204685781,
			"-0.005": 11.7073460077,
			"-0.004": 9.85618663429,
			"-0.003": 10.3275230107,
			"-0.002": 10.1397331642,
			"-0.001": 9.59102872382,
			"0.0": 13.9750787858,
			"0.001": 27.5148453038,
			"0.002": 30.2548414062,
			"0.003": 13.5109268556,
			"0.004": 14.5074374913,
			"0.005": 5.8517352163,
			"0.006": 1.50795171336,
			"0.007": 1.08291438537,
			"0.008": 1.19882362088,
			"0.009": 1.04478472203,
			"0.01": 0.854086340627,
			"0.011": 1.3662006566,
			"0.012": 0.749719708448,
			"0.013": 0.790410765338,
			"0.014": 0.705201066952,
			"0.015": 0.846007717118,
			"0.016": 0.383132481514,
			"0.017": 0.0,
			"0.018": 0.0,
			"0.019": 0.0,
			"0.02": 0.0,
			"0.021": 0.0,
			"0.022": 0.0,
			"0.023": 0.0,
			"0.024": 0.0,
			"0.025": 0.0
		}
	}
}
