{
	 "smiles": "CCC1=C2NC=C(C2=CC=C1)C1=CCNCC1", 
	 "Tm": 464.15, 
	 "num_atms": 35, 
	 "gaussian": { 
		 "optdone": 1, 
		 "sigma_profile": "yes", 
		 "theory": "DFT", 
		 "functional": "B3LYP", 
		 "basiset": "6-31G**", 
		 "properties": { 
			 "R2extent": 5295.9513, 
			 "electric_dipole_moment_norm": 2.62979587421, 
			 "electric_quadrupole_moment_norm": 9.74196732134, 
			 "total_energy": -691.943842682, 
			 "HOMO_LUMO_gap": 0.17864, 
			 "cosmo_polarized_energy": -11.73, 
			 "cosmo_cavitation_energy": 36.17, 
			 "cosmo_dispersion_energy": -26.23, 
			 "cosmo_repulsion_energy": 2.04, 
			 "cosmo_total_nonelectrostatic_energy": 11.98, 
			 "SMD_solvation_energy": 2.58 
		},
		"coords": [
			{
				"x": 4.2644234491,
				"y": 1.462948057,
				"z": -1.343692204,
				"element": "C" 
			},
			{
				"x": 3.0129552892,
				"y": 2.2140095314,
				"z": -1.8371407403,
				"element": "C" 
			},
			{
				"x": 1.8279618101,
				"y": 2.0889394901,
				"z": -0.9053498296,
				"element": "C" 
			},
			{
				"x": 1.0363600483,
				"y": 0.9276780632,
				"z": -0.8669479028,
				"element": "C" 
			},
			{
				"x": 1.1317050855,
				"y": -0.2200636579,
				"z": -1.6313703255,
				"element": "N" 
			},
			{
				"x": 0.1356731496,
				"y": -1.0982529104,
				"z": -1.2608991425,
				"element": "C" 
			},
			{
				"x": -0.6392574711,
				"y": -0.5492126726,
				"z": -0.2623499464,
				"element": "C" 
			},
			{
				"x": -0.0691183394,
				"y": 0.7569583956,
				"z": 0.0118998447,
				"element": "C" 
			},
			{
				"x": -0.3943470412,
				"y": 1.8121540664,
				"z": 0.8854882969,
				"element": "C" 
			},
			{
				"x": 0.3770728556,
				"y": 2.9657654827,
				"z": 0.8642421042,
				"element": "C" 
			},
			{
				"x": 1.4689296709,
				"y": 3.0994107005,
				"z": -0.0163935769,
				"element": "C" 
			},
			{
				"x": -1.7938581989,
				"y": -1.2090917094,
				"z": 0.3729648454,
				"element": "C" 
			},
			{
				"x": -2.6344381791,
				"y": -1.9934340684,
				"z": -0.3269029162,
				"element": "C" 
			},
			{
				"x": -3.7841593498,
				"y": -2.7557085931,
				"z": 0.2902782348,
				"element": "C" 
			},
			{
				"x": -4.0957839737,
				"y": -2.3972680937,
				"z": 1.6777665639,
				"element": "N" 
			},
			{
				"x": -2.8754847943,
				"y": -2.1543935202,
				"z": 2.451090184,
				"element": "C" 
			},
			{
				"x": -1.9978445392,
				"y": -1.0332382325,
				"z": 1.8709673256,
				"element": "C" 
			},
			{
				"x": 5.092289046,
				"y": 1.5684490934,
				"z": -2.0528963808,
				"element": "H" 
			},
			{
				"x": 4.5923401787,
				"y": 1.853775885,
				"z": -0.3756962135,
				"element": "H" 
			},
			{
				"x": 4.0662706939,
				"y": 0.3938115179,
				"z": -1.2116593054,
				"element": "H" 
			},
			{
				"x": 3.2568409819,
				"y": 3.27464321,
				"z": -1.9630551608,
				"element": "H" 
			},
			{
				"x": 2.7407767495,
				"y": 1.8485861468,
				"z": -2.8377539619,
				"element": "H" 
			},
			{
				"x": 1.8448235972,
				"y": -0.4089278924,
				"z": -2.315570966,
				"element": "H" 
			},
			{
				"x": 0.0632228794,
				"y": -2.0748222447,
				"z": -1.7176849065,
				"element": "H" 
			},
			{
				"x": -1.2366765578,
				"y": 1.7331230304,
				"z": 1.564150646,
				"element": "H" 
			},
			{
				"x": 0.1340329857,
				"y": 3.7864589942,
				"z": 1.5330995272,
				"element": "H" 
			},
			{
				"x": 2.0476995434,
				"y": 4.0200171138,
				"z": -0.0092195268,
				"element": "H" 
			},
			{
				"x": -2.4877510496,
				"y": -2.1160358362,
				"z": -1.3991688121,
				"element": "H" 
			},
			{
				"x": -4.6926747617,
				"y": -2.6206369672,
				"z": -0.310817424,
				"element": "H" 
			},
			{
				"x": -3.5656705375,
				"y": -3.8359724784,
				"z": 0.2481293237,
				"element": "H" 
			},
			{
				"x": -4.6464690351,
				"y": -1.5408872024,
				"z": 1.6722922339,
				"element": "H" 
			},
			{
				"x": -2.3038465153,
				"y": -3.0914801097,
				"z": 2.4718821956,
				"element": "H" 
			},
			{
				"x": -3.1531329792,
				"y": -1.9282920158,
				"z": 3.4867845054,
				"element": "H" 
			},
			{
				"x": -2.4706996999,
				"y": -0.0612482816,
				"z": 2.0755743908,
				"element": "H" 
			},
			{
				"x": -1.0257649912,
				"y": -1.006362292,
				"z": 2.3790590197,
				"element": "H" 
			}
		],
		 "valence_orbital": [ 
			{
				"type": "occ",
				"energy": -0.2754,
				"method": "rhf"
			},
			{
				"type": "occ",
				"energy": -0.2345,
				"method": "rhf"
			},
			{
				"type": "occ",
				"energy": -0.21596,
				"method": "rhf"
			},
			{
				"type": "occ",
				"energy": -0.21171,
				"method": "rhf"
			},
			{
				"type": "occ",
				"energy": -0.18665,
				"method": "rhf"
			},
			{
				"type": "unocc",
				"energy": -0.00801,
				"method": "rhf"
			},
			{
				"type": "unocc",
				"energy": 0.0188,
				"method": "rhf"
			},
			{
				"type": "unocc",
				"energy": 0.03157,
				"method": "rhf"
			},
			{
				"type": "unocc",
				"energy": 0.06388,
				"method": "rhf"
			},
			{
				"type": "unocc",
				"energy": 0.08866,
				"method": "rhf"
			}
		],
		"cosmo_sigma_profile": { 
			"-0.025": 0.0,
			"-0.024": 0.0,
			"-0.023": 0.0,
			"-0.022": 0.0,
			"-0.021": 0.0,
			"-0.02": 0.0,
			"-0.019": 0.0,
			"-0.018": 0.0,
			"-0.017": 0.0,
			"-0.016": 0.0,
			"-0.015": 0.722463181993,
			"-0.014": 0.946655966289,
			"-0.013": 0.679105754999,
			"-0.012": 1.23264943536,
			"-0.011": 1.06053548019,
			"-0.01": 1.69553263477,
			"-0.009": 3.19289678441,
			"-0.008": 3.84890017253,
			"-0.007": 4.84036815944,
			"-0.006": 5.21740920309,
			"-0.005": 7.83171469167,
			"-0.004": 18.4180767299,
			"-0.003": 29.3037567816,
			"-0.002": 32.9924053948,
			"-0.001": 32.3893663254,
			"0.0": 28.7901487697,
			"0.001": 22.2438750224,
			"0.002": 12.3494354331,
			"0.003": 12.3849249317,
			"0.004": 12.142143502,
			"0.005": 15.4645250991,
			"0.006": 14.5205959784,
			"0.007": 11.8956268951,
			"0.008": 3.33170664574,
			"0.009": 0.755531820225,
			"0.01": 0.761211251032,
			"0.011": 0.484776579749,
			"0.012": 0.713264872942,
			"0.013": 0.807167132146,
			"0.014": 0.446786630329,
			"0.015": 0.695539221724,
			"0.016": 0.463305140393,
			"0.017": 0.603927339924,
			"0.018": 0.619073215595,
			"0.019": 0.304596336089,
			"0.02": 0.0,
			"0.021": 0.0,
			"0.022": 0.0,
			"0.023": 0.0,
			"0.024": 0.0,
			"0.025": 0.0
		}
	}
}
