{
	 "smiles": "CC1=CC(Cl)=CC(Cl)=C1I", 
	 "Tm": 317.15, 
	 "num_atms": 15, 
	 "gaussian": { 
		 "optdone": 1, 
		 "sigma_profile": "no", 
		 "theory": "DFT", 
		 "functional": "B3LYP", 
		 "basiset": "6-31G**", 
		 "properties": { 
			 "R2extent": 2402.8078, 
			 "electric_dipole_moment_norm": 1.79608819661, 
			 "electric_quadrupole_moment_norm": 4.68000185577, 
			 "total_energy": -1201.52980106, 
			 "HOMO_LUMO_gap": 0.19411, 
			 "cosmo_polarized_energy": -78734.89, 
			 "cosmo_cavitation_energy": 25.34, 
			 "cosmo_dispersion_energy": -20.26, 
			 "cosmo_repulsion_energy": 1.59, 
			 "cosmo_total_nonelectrostatic_energy": 6.68, 
			 "SMD_solvation_energy": 3.04 
		},
		"coords": [
			{
				"x": -1.9458773499,
				"y": 1.7031420473,
				"z": -0.5867554114,
				"element": "C" 
			},
			{
				"x": -0.8861321372,
				"y": 0.7512401176,
				"z": -0.0889599284,
				"element": "C" 
			},
			{
				"x": 0.4548499621,
				"y": 1.0163056147,
				"z": -0.3919116865,
				"element": "C" 
			},
			{
				"x": 1.4647314799,
				"y": 0.1654769867,
				"z": 0.0467198552,
				"element": "C" 
			},
			{
				"x": 3.1336803935,
				"y": 0.5263902724,
				"z": -0.3500830713,
				"element": "Cl" 
			},
			{
				"x": 1.1746108673,
				"y": -0.9681968429,
				"z": 0.795550805,
				"element": "C" 
			},
			{
				"x": -0.1591194372,
				"y": -1.2436001328,
				"z": 1.1043323003,
				"element": "C" 
			},
			{
				"x": -0.4670294038,
				"y": -2.6825955843,
				"z": 2.0488503911,
				"element": "Cl" 
			},
			{
				"x": -1.1910497087,
				"y": -0.3972013143,
				"z": 0.6706314725,
				"element": "C" 
			},
			{
				"x": -3.2073831151,
				"y": -0.8300629479,
				"z": 1.1475307843,
				"element": "I" 
			},
			{
				"x": -1.4924112983,
				"y": 2.5209220246,
				"z": -1.1512167685,
				"element": "H" 
			},
			{
				"x": -2.5164602327,
				"y": 2.1322105118,
				"z": 0.2434079841,
				"element": "H" 
			},
			{
				"x": -2.6648531669,
				"y": 1.1931984644,
				"z": -1.2362699825,
				"element": "H" 
			},
			{
				"x": 0.7078509578,
				"y": 1.8947389039,
				"z": -0.9749516833,
				"element": "H" 
			},
			{
				"x": 1.9600921892,
				"y": -1.6303681212,
				"z": 1.1370249396,
				"element": "H" 
			}
		],
		 "valence_orbital": [ 
			{
				"type": "occ",
				"energy": -0.32335,
				"method": "rhf"
			},
			{
				"type": "occ",
				"energy": -0.29617,
				"method": "rhf"
			},
			{
				"type": "occ",
				"energy": -0.27035,
				"method": "rhf"
			},
			{
				"type": "occ",
				"energy": -0.26446,
				"method": "rhf"
			},
			{
				"type": "occ",
				"energy": -0.24596,
				"method": "rhf"
			},
			{
				"type": "unocc",
				"energy": -0.05185,
				"method": "rhf"
			},
			{
				"type": "unocc",
				"energy": -0.03627,
				"method": "rhf"
			},
			{
				"type": "unocc",
				"energy": -0.03141,
				"method": "rhf"
			},
			{
				"type": "unocc",
				"energy": 0.00856,
				"method": "rhf"
			},
			{
				"type": "unocc",
				"energy": 0.03544,
				"method": "rhf"
			}
		],
		"cosmo_sigma_profile": { 
			"0.0": 0.0,
			"0.0": 0.0,
			"0.0": 0.0,
			"0.0": 0.0,
			"0.0": 0.0,
			"0.0": 0.0,
			"0.0": 0.0,
			"0.0": 0.0,
			"0.0": 0.0,
			"0.0": 0.0,
			"0.0": 0.0,
			"0.0": 0.0,
			"0.0": 0.0,
			"0.0": 0.0,
			"0.0": 0.0,
			"0.0": 0.0,
			"0.0": 0.0,
			"0.0": 0.0,
			"0.0": 0.0,
			"0.0": 0.0,
			"0.0": 0.0,
			"0.0": 0.0,
			"0.0": 0.0,
			"0.0": 0.0,
			"0.0": 0.0,
			"0.0": 0.0,
			"0.0": 0.0,
			"0.0": 0.0,
			"0.0": 0.0,
			"0.0": 0.0,
			"0.0": 0.0,
			"0.0": 0.0,
			"0.0": 0.0,
			"0.0": 0.0,
			"0.0": 0.0,
			"0.0": 0.0,
			"0.0": 0.0,
			"0.0": 0.0,
			"0.0": 0.0,
			"0.0": 0.0,
			"0.0": 0.0,
			"0.0": 0.0,
			"0.0": 0.0,
			"0.0": 0.0,
			"0.0": 0.0,
			"0.0": 0.0,
			"0.0": 0.0,
			"0.0": 0.0,
			"0.0": 0.0,
			"0.0": 0.0,
			"0.0": 0.0
		}
	}
}
