{
	 "smiles": "CN1N=C(C)C(N=NC2=CC=CC=C2)=C1Cl", 
	 "Tm": 318.15, 
	 "num_atms": 27, 
	 "gaussian": { 
		 "optdone": 1, 
		 "sigma_profile": "yes", 
		 "theory": "DFT", 
		 "functional": "B3LYP", 
		 "basiset": "6-31G**", 
		 "properties": { 
			 "R2extent": 4008.863, 
			 "electric_dipole_moment_norm": 3.58636645785, 
			 "electric_quadrupole_moment_norm": 2.96346710628, 
			 "total_energy": -1104.91023512, 
			 "HOMO_LUMO_gap": 0.13788, 
			 "cosmo_polarized_energy": -10.98, 
			 "cosmo_cavitation_energy": 33.08, 
			 "cosmo_dispersion_energy": -22.99, 
			 "cosmo_repulsion_energy": 1.81, 
			 "cosmo_total_nonelectrostatic_energy": 11.9, 
			 "SMD_solvation_energy": 2.76 
		},
		"coords": [
			{
				"x": -4.054014612,
				"y": -1.33764281,
				"z": -0.0867409786,
				"element": "C" 
			},
			{
				"x": -2.7277122943,
				"y": -1.223475761,
				"z": 0.4930453632,
				"element": "N" 
			},
			{
				"x": -2.3442674848,
				"y": -2.0734432739,
				"z": 1.4822268516,
				"element": "N" 
			},
			{
				"x": -1.1422168892,
				"y": -1.6578206997,
				"z": 1.8697099388,
				"element": "C" 
			},
			{
				"x": -0.3871671104,
				"y": -2.3442506999,
				"z": 2.9622867187,
				"element": "C" 
			},
			{
				"x": -0.7044704632,
				"y": -0.5413017508,
				"z": 1.0978482569,
				"element": "C" 
			},
			{
				"x": 0.4530269445,
				"y": 0.1921783026,
				"z": 1.4368098371,
				"element": "N" 
			},
			{
				"x": 1.2432594569,
				"y": 0.7184728457,
				"z": 0.6176074096,
				"element": "N" 
			},
			{
				"x": 1.2181960897,
				"y": 0.4829001802,
				"z": -0.7920248902,
				"element": "C" 
			},
			{
				"x": 1.1391488055,
				"y": -0.8019132187,
				"z": -1.3519220957,
				"element": "C" 
			},
			{
				"x": 1.2944264499,
				"y": -0.9659278854,
				"z": -2.7271896809,
				"element": "C" 
			},
			{
				"x": 1.5129935661,
				"y": 0.1398110782,
				"z": -3.5530979354,
				"element": "C" 
			},
			{
				"x": 1.6072013802,
				"y": 1.4164106041,
				"z": -2.9923760245,
				"element": "C" 
			},
			{
				"x": 1.4879874557,
				"y": 1.5853611522,
				"z": -1.6153030888,
				"element": "C" 
			},
			{
				"x": -1.7731352091,
				"y": -0.2947177618,
				"z": 0.2347097974,
				"element": "C" 
			},
			{
				"x": -2.0526286269,
				"y": 0.981187577,
				"z": -0.8861182909,
				"element": "Cl" 
			},
			{
				"x": -3.9951366284,
				"y": -1.3831104291,
				"z": -1.1771015737,
				"element": "H" 
			},
			{
				"x": -4.6829357337,
				"y": -0.4898690015,
				"z": 0.2021636385,
				"element": "H" 
			},
			{
				"x": -4.483840821,
				"y": -2.2606868069,
				"z": 0.299334225,
				"element": "H" 
			},
			{
				"x": -1.0591528334,
				"y": -2.9945068525,
				"z": 3.5264234893,
				"element": "H" 
			},
			{
				"x": 0.0588085792,
				"y": -1.6060526259,
				"z": 3.6357338981,
				"element": "H" 
			},
			{
				"x": 0.4309199722,
				"y": -2.9568219517,
				"z": 2.5662784523,
				"element": "H" 
			},
			{
				"x": 0.9809652777,
				"y": -1.6632615206,
				"z": -0.7123076932,
				"element": "H" 
			},
			{
				"x": 1.2467489771,
				"y": -1.9631411845,
				"z": -3.1555184036,
				"element": "H" 
			},
			{
				"x": 1.6267700916,
				"y": 0.0047624891,
				"z": -4.6246009467,
				"element": "H" 
			},
			{
				"x": 1.7945967796,
				"y": 2.2779396494,
				"z": -3.6267069489,
				"element": "H" 
			},
			{
				"x": 1.5946288805,
				"y": 2.5631203552,
				"z": -1.1561693254,
				"element": "H" 
			}
		],
		 "valence_orbital": [ 
			{
				"type": "occ",
				"energy": -0.26204,
				"method": "rhf"
			},
			{
				"type": "occ",
				"energy": -0.25626,
				"method": "rhf"
			},
			{
				"type": "occ",
				"energy": -0.25203,
				"method": "rhf"
			},
			{
				"type": "occ",
				"energy": -0.24763,
				"method": "rhf"
			},
			{
				"type": "occ",
				"energy": -0.20736,
				"method": "rhf"
			},
			{
				"type": "unocc",
				"energy": -0.06948,
				"method": "rhf"
			},
			{
				"type": "unocc",
				"energy": -0.00733,
				"method": "rhf"
			},
			{
				"type": "unocc",
				"energy": 0.00393,
				"method": "rhf"
			},
			{
				"type": "unocc",
				"energy": 0.01519,
				"method": "rhf"
			},
			{
				"type": "unocc",
				"energy": 0.02653,
				"method": "rhf"
			}
		],
		"cosmo_sigma_profile": { 
			"-0.025": 0.0,
			"-0.024": 0.0,
			"-0.023": 0.0,
			"-0.022": 0.0,
			"-0.021": 0.0,
			"-0.02": 0.0,
			"-0.019": 0.0,
			"-0.018": 0.0,
			"-0.017": 0.0,
			"-0.016": 0.0,
			"-0.015": 0.0,
			"-0.014": 0.0,
			"-0.013": 0.0,
			"-0.012": 0.0,
			"-0.011": 0.0,
			"-0.01": 0.0,
			"-0.009": 0.0,
			"-0.008": 0.108817022218,
			"-0.007": 4.84604307888,
			"-0.006": 15.9807555736,
			"-0.005": 22.0667747026,
			"-0.004": 27.7248129404,
			"-0.003": 23.0040274471,
			"-0.002": 20.2028727667,
			"-0.001": 22.2425451534,
			"0.0": 21.2238998141,
			"0.001": 20.565063738,
			"0.002": 19.3302997554,
			"0.003": 16.3992526614,
			"0.004": 15.5914025854,
			"0.005": 10.3709418864,
			"0.006": 3.507386006,
			"0.007": 3.33628833735,
			"0.008": 3.01737811401,
			"0.009": 2.54942172298,
			"0.01": 3.06899082402,
			"0.011": 2.57952668157,
			"0.012": 4.26711346876,
			"0.013": 2.59225600309,
			"0.014": 1.70859901091,
			"0.015": 0.156921449551,
			"0.016": 0.0,
			"0.017": 0.0,
			"0.018": 0.0,
			"0.019": 0.0,
			"0.02": 0.0,
			"0.021": 0.0,
			"0.022": 0.0,
			"0.023": 0.0,
			"0.024": 0.0,
			"0.025": 0.0
		}
	}
}
