{
	 "smiles": "COCCCCC(=NOCCN)C1=CC=C(C=C1)C(F)(F)F", 
	 "Tm": 394.4, 
	 "num_atms": 43, 
	 "gaussian": { 
		 "optdone": 1, 
		 "sigma_profile": "yes", 
		 "theory": "DFT", 
		 "functional": "B3LYP", 
		 "basiset": "6-31G**", 
		 "properties": { 
			 "R2extent": 11971.2433, 
			 "electric_dipole_moment_norm": 1.63671786512, 
			 "electric_quadrupole_moment_norm": 22.302943269, 
			 "total_energy": -1143.6567175, 
			 "HOMO_LUMO_gap": 0.18496, 
			 "cosmo_polarized_energy": -13.43, 
			 "cosmo_cavitation_energy": 47.88, 
			 "cosmo_dispersion_energy": -31.8, 
			 "cosmo_repulsion_energy": 2.5, 
			 "cosmo_total_nonelectrostatic_energy": 18.58, 
			 "SMD_solvation_energy": 7.93 
		},
		"coords": [
			{
				"x": 0.8570522753,
				"y": -0.1227991139,
				"z": -5.9949950922,
				"element": "C" 
			},
			{
				"x": 1.8671535659,
				"y": 0.321945698,
				"z": -5.1150465548,
				"element": "O" 
			},
			{
				"x": 2.0863244353,
				"y": -0.5276460416,
				"z": -3.9997183506,
				"element": "C" 
			},
			{
				"x": 1.028466643,
				"y": -0.3951626594,
				"z": -2.8992705239,
				"element": "C" 
			},
			{
				"x": 1.3569836697,
				"y": -1.2730296321,
				"z": -1.6839266182,
				"element": "C" 
			},
			{
				"x": 0.3238318987,
				"y": -1.1942212711,
				"z": -0.5509438913,
				"element": "C" 
			},
			{
				"x": 0.3148867267,
				"y": 0.0843738836,
				"z": 0.2702213538,
				"element": "C" 
			},
			{
				"x": 1.2695898834,
				"y": 0.9167107964,
				"z": 0.0497352393,
				"element": "N" 
			},
			{
				"x": 1.2236329667,
				"y": 2.0553220371,
				"z": 0.8549925653,
				"element": "O" 
			},
			{
				"x": 2.2639132138,
				"y": 2.9621355607,
				"z": 0.458519745,
				"element": "C" 
			},
			{
				"x": 2.085373192,
				"y": 4.2190329335,
				"z": 1.2924132753,
				"element": "C" 
			},
			{
				"x": 0.8318934774,
				"y": 4.885617525,
				"z": 0.9397139092,
				"element": "N" 
			},
			{
				"x": -0.7593300585,
				"y": 0.2410323816,
				"z": 1.295592342,
				"element": "C" 
			},
			{
				"x": -0.4513413865,
				"y": 0.5751309666,
				"z": 2.6255145292,
				"element": "C" 
			},
			{
				"x": -1.4545396387,
				"y": 0.6722844081,
				"z": 3.5841874931,
				"element": "C" 
			},
			{
				"x": -2.7881011753,
				"y": 0.4492301724,
				"z": 3.2283155097,
				"element": "C" 
			},
			{
				"x": -3.1107517637,
				"y": 0.1226587493,
				"z": 1.9102606931,
				"element": "C" 
			},
			{
				"x": -2.1015149644,
				"y": 0.0107073681,
				"z": 0.9563518668,
				"element": "C" 
			},
			{
				"x": -3.8750718224,
				"y": 0.6191338724,
				"z": 4.2544932619,
				"element": "C" 
			},
			{
				"x": -3.4616050536,
				"y": 0.2541983328,
				"z": 5.4887014368,
				"element": "F" 
			},
			{
				"x": -4.969650819,
				"y": -0.1155074787,
				"z": 3.957695841,
				"element": "F" 
			},
			{
				"x": -4.2790403962,
				"y": 1.9083237562,
				"z": 4.3435928414,
				"element": "F" 
			},
			{
				"x": 0.8557905773,
				"y": 0.5570670829,
				"z": -6.8509897934,
				"element": "H" 
			},
			{
				"x": 1.0538717581,
				"y": -1.1451640026,
				"z": -6.3571347596,
				"element": "H" 
			},
			{
				"x": -0.1447608249,
				"y": -0.1076406175,
				"z": -5.5405120089,
				"element": "H" 
			},
			{
				"x": 3.0655840612,
				"y": -0.2402043963,
				"z": -3.5998555306,
				"element": "H" 
			},
			{
				"x": 2.162070134,
				"y": -1.578499845,
				"z": -4.3310539789,
				"element": "H" 
			},
			{
				"x": 0.0425581407,
				"y": -0.6768462584,
				"z": -3.2927386209,
				"element": "H" 
			},
			{
				"x": 0.9695455418,
				"y": 0.6550397291,
				"z": -2.5987623573,
				"element": "H" 
			},
			{
				"x": 1.4216197386,
				"y": -2.321631932,
				"z": -2.0030245278,
				"element": "H" 
			},
			{
				"x": 2.342459737,
				"y": -1.0013800883,
				"z": -1.2899248826,
				"element": "H" 
			},
			{
				"x": 0.4815069672,
				"y": -2.0243937942,
				"z": 0.1525186787,
				"element": "H" 
			},
			{
				"x": -0.6821879296,
				"y": -1.3585921741,
				"z": -0.9593252336,
				"element": "H" 
			},
			{
				"x": 2.1625542959,
				"y": 3.1913021782,
				"z": -0.6076987333,
				"element": "H" 
			},
			{
				"x": 3.2438704739,
				"y": 2.5025172418,
				"z": 0.6384962603,
				"element": "H" 
			},
			{
				"x": 2.1775997685,
				"y": 3.9438593775,
				"z": 2.3585110075,
				"element": "H" 
			},
			{
				"x": 2.9207531119,
				"y": 4.8920577736,
				"z": 1.0638713527,
				"element": "H" 
			},
			{
				"x": 0.6939006172,
				"y": 5.7058432304,
				"z": 1.5237885464,
				"element": "H" 
			},
			{
				"x": 0.0590371996,
				"y": 4.2535187119,
				"z": 1.1329487412,
				"element": "H" 
			},
			{
				"x": 0.5795942229,
				"y": 0.7587044775,
				"z": 2.9022809071,
				"element": "H" 
			},
			{
				"x": -1.2041593315,
				"y": 0.9142985589,
				"z": 4.6116572605,
				"element": "H" 
			},
			{
				"x": -4.1447939038,
				"y": -0.0531189388,
				"z": 1.6345160042,
				"element": "H" 
			},
			{
				"x": -2.3667692255,
				"y": -0.2432085595,
				"z": -0.0648692037,
				"element": "H" 
			}
		],
		 "valence_orbital": [ 
			{
				"type": "occ",
				"energy": -0.27473,
				"method": "rhf"
			},
			{
				"type": "occ",
				"energy": -0.26854,
				"method": "rhf"
			},
			{
				"type": "occ",
				"energy": -0.2454,
				"method": "rhf"
			},
			{
				"type": "occ",
				"energy": -0.23965,
				"method": "rhf"
			},
			{
				"type": "occ",
				"energy": -0.23289,
				"method": "rhf"
			},
			{
				"type": "unocc",
				"energy": -0.04793,
				"method": "rhf"
			},
			{
				"type": "unocc",
				"energy": -0.02014,
				"method": "rhf"
			},
			{
				"type": "unocc",
				"energy": 0.01538,
				"method": "rhf"
			},
			{
				"type": "unocc",
				"energy": 0.07661,
				"method": "rhf"
			},
			{
				"type": "unocc",
				"energy": 0.08111,
				"method": "rhf"
			}
		],
		"cosmo_sigma_profile": { 
			"-0.025": 0.0,
			"-0.024": 0.0,
			"-0.023": 0.0,
			"-0.022": 0.0,
			"-0.021": 0.0,
			"-0.02": 0.0,
			"-0.019": 0.0,
			"-0.018": 0.0,
			"-0.017": 0.0,
			"-0.016": 0.0,
			"-0.015": 0.0,
			"-0.014": 0.0,
			"-0.013": 0.0,
			"-0.012": 0.0,
			"-0.011": 0.0,
			"-0.01": 0.959903981629,
			"-0.009": 1.67519179905,
			"-0.008": 2.59291433486,
			"-0.007": 7.29291504507,
			"-0.006": 10.299609628,
			"-0.005": 15.330940863,
			"-0.004": 26.4562015099,
			"-0.003": 46.0425762169,
			"-0.002": 46.3280495653,
			"-0.001": 37.4540675182,
			"0.0": 27.1598675721,
			"0.001": 25.5060965296,
			"0.002": 33.7627830201,
			"0.003": 45.2593642453,
			"0.004": 13.4223386788,
			"0.005": 8.15694650629,
			"0.006": 3.59457135745,
			"0.007": 3.60858098965,
			"0.008": 3.11534854973,
			"0.009": 3.81259552167,
			"0.01": 2.86344015234,
			"0.011": 1.23529911667,
			"0.012": 2.97285821037,
			"0.013": 1.71353854973,
			"0.014": 1.92960684068,
			"0.015": 0.401472624957,
			"0.016": 0.863137811603,
			"0.017": 0.485142814819,
			"0.018": 0.641377758637,
			"0.019": 0.508939180273,
			"0.02": 0.250504385265,
			"0.021": 0.0,
			"0.022": 0.0,
			"0.023": 0.0,
			"0.024": 0.0,
			"0.025": 0.0
		}
	}
}
