{
	 "smiles": "NC1=C(F)C=CC(=C1)C1=CC=CO1", 
	 "Tm": 314.15, 
	 "num_atms": 21, 
	 "gaussian": { 
		 "optdone": 1, 
		 "sigma_profile": "yes", 
		 "theory": "DFT", 
		 "functional": "B3LYP", 
		 "basiset": "6-31G**", 
		 "properties": { 
			 "R2extent": 3474.0842, 
			 "electric_dipole_moment_norm": 1.48453632155, 
			 "electric_quadrupole_moment_norm": 14.8313724554, 
			 "total_energy": -615.676900339, 
			 "HOMO_LUMO_gap": 0.17004, 
			 "cosmo_polarized_energy": -9.01, 
			 "cosmo_cavitation_energy": 25.89, 
			 "cosmo_dispersion_energy": -19.2, 
			 "cosmo_repulsion_energy": 1.47, 
			 "cosmo_total_nonelectrostatic_energy": 8.16, 
			 "SMD_solvation_energy": 5.64 
		},
		"coords": [
			{
				"x": -4.2754026977,
				"y": 1.4906564436,
				"z": 0.1032301609,
				"element": "N" 
			},
			{
				"x": -2.9021329104,
				"y": 1.3079314986,
				"z": 0.2369529227,
				"element": "C" 
			},
			{
				"x": -2.2440629386,
				"y": 1.7854654668,
				"z": 1.3797771946,
				"element": "C" 
			},
			{
				"x": -3.0101946135,
				"y": 2.3498042691,
				"z": 2.3517784604,
				"element": "F" 
			},
			{
				"x": -0.8739574163,
				"y": 1.686142824,
				"z": 1.5466554581,
				"element": "C" 
			},
			{
				"x": -0.1041388513,
				"y": 1.0902699981,
				"z": 0.5494704085,
				"element": "C" 
			},
			{
				"x": -0.7223241584,
				"y": 0.5936626966,
				"z": -0.6114322043,
				"element": "C" 
			},
			{
				"x": -2.1151413918,
				"y": 0.7092421398,
				"z": -0.7537922071,
				"element": "C" 
			},
			{
				"x": 0.0751607434,
				"y": -0.0358144375,
				"z": -1.6590805319,
				"element": "C" 
			},
			{
				"x": 1.4168925716,
				"y": -0.2790507027,
				"z": -1.8117521666,
				"element": "C" 
			},
			{
				"x": 1.5791355033,
				"y": -0.9366702883,
				"z": -3.071015807,
				"element": "C" 
			},
			{
				"x": 0.3306210359,
				"y": -1.0510345535,
				"z": -3.6016612958,
				"element": "C" 
			},
			{
				"x": -0.5938552697,
				"y": -0.5103567115,
				"z": -2.7591510824,
				"element": "O" 
			},
			{
				"x": -4.7591967813,
				"y": 1.6518698258,
				"z": 0.9755360076,
				"element": "H" 
			},
			{
				"x": -4.7437753491,
				"y": 0.8197061426,
				"z": -0.4889405534,
				"element": "H" 
			},
			{
				"x": -0.4255849708,
				"y": 2.0718153913,
				"z": 2.4561290324,
				"element": "H" 
			},
			{
				"x": 0.969487357,
				"y": 1.0097553661,
				"z": 0.6780407093,
				"element": "H" 
			},
			{
				"x": -2.5921103729,
				"y": 0.3323167691,
				"z": -1.6524713882,
				"element": "H" 
			},
			{
				"x": 2.1991058551,
				"y": -0.020554353,
				"z": -1.1133095468,
				"element": "H" 
			},
			{
				"x": 2.5023743773,
				"y": -1.2765131817,
				"z": -3.5178090381,
				"element": "H" 
			},
			{
				"x": -0.0553997219,
				"y": -1.467244603,
				"z": -4.5190545329,
				"element": "H" 
			}
		],
		 "valence_orbital": [ 
			{
				"type": "occ",
				"energy": -0.32002,
				"method": "rhf"
			},
			{
				"type": "occ",
				"energy": -0.27637,
				"method": "rhf"
			},
			{
				"type": "occ",
				"energy": -0.26502,
				"method": "rhf"
			},
			{
				"type": "occ",
				"energy": -0.21574,
				"method": "rhf"
			},
			{
				"type": "occ",
				"energy": -0.19369,
				"method": "rhf"
			},
			{
				"type": "unocc",
				"energy": -0.02365,
				"method": "rhf"
			},
			{
				"type": "unocc",
				"energy": 0.00689,
				"method": "rhf"
			},
			{
				"type": "unocc",
				"energy": 0.04761,
				"method": "rhf"
			},
			{
				"type": "unocc",
				"energy": 0.08076,
				"method": "rhf"
			},
			{
				"type": "unocc",
				"energy": 0.09281,
				"method": "rhf"
			}
		],
		"cosmo_sigma_profile": { 
			"-0.025": 0.0,
			"-0.024": 0.0,
			"-0.023": 0.0,
			"-0.022": 0.0,
			"-0.021": 0.0,
			"-0.02": 0.0,
			"-0.019": 0.0,
			"-0.018": 0.0,
			"-0.017": 0.0,
			"-0.016": 0.0,
			"-0.015": 0.0,
			"-0.014": 0.0,
			"-0.013": 0.586077586033,
			"-0.012": 2.17972169269,
			"-0.011": 2.12636591092,
			"-0.01": 2.63546745641,
			"-0.009": 3.65128728474,
			"-0.008": 4.91369258764,
			"-0.007": 10.1504338725,
			"-0.006": 9.29985194012,
			"-0.005": 9.29521401554,
			"-0.004": 11.7967138232,
			"-0.003": 9.47215527889,
			"-0.002": 10.301921007,
			"-0.001": 8.170397759,
			"0.0": 8.64010499805,
			"0.001": 12.6926643107,
			"0.002": 18.733913264,
			"0.003": 23.0713133105,
			"0.004": 26.3759524152,
			"0.005": 21.4810501809,
			"0.006": 6.86579474245,
			"0.007": 0.866564716159,
			"0.008": 0.811118921421,
			"0.009": 0.679197594444,
			"0.01": 0.753929205961,
			"0.011": 0.787178287826,
			"0.012": 0.639133031657,
			"0.013": 0.566983743259,
			"0.014": 0.450479252074,
			"0.015": 0.00723740863567,
			"0.016": 0.0,
			"0.017": 0.0,
			"0.018": 0.0,
			"0.019": 0.0,
			"0.02": 0.0,
			"0.021": 0.0,
			"0.022": 0.0,
			"0.023": 0.0,
			"0.024": 0.0,
			"0.025": 0.0
		}
	}
}
