{
	 "smiles": "CC12CCC3=C(CCC4CC(=O)CCC34C)C1CCC2=O", 
	 "Tm": 421.15, 
	 "num_atms": 47, 
	 "gaussian": { 
		 "optdone": 1, 
		 "sigma_profile": "yes", 
		 "theory": "DFT", 
		 "functional": "B3LYP", 
		 "basiset": "6-31G**", 
		 "properties": { 
			 "R2extent": 7267.515, 
			 "electric_dipole_moment_norm": 2.88804327011, 
			 "electric_quadrupole_moment_norm": 27.7547223845, 
			 "total_energy": -890.150972131, 
			 "HOMO_LUMO_gap": 0.20848, 
			 "cosmo_polarized_energy": -13.4, 
			 "cosmo_cavitation_energy": 42.67, 
			 "cosmo_dispersion_energy": -29.5, 
			 "cosmo_repulsion_energy": 2.21, 
			 "cosmo_total_nonelectrostatic_energy": 15.38, 
			 "SMD_solvation_energy": 6.88 
		},
		"coords": [
			{
				"x": 0.7304134442,
				"y": 2.0078365006,
				"z": 2.3872224875,
				"element": "C" 
			},
			{
				"x": -0.4676093364,
				"y": 1.1680613419,
				"z": 1.8926180268,
				"element": "C" 
			},
			{
				"x": -0.9308927705,
				"y": 1.690654765,
				"z": 0.5175476812,
				"element": "C" 
			},
			{
				"x": -1.6239893184,
				"y": 0.6076205977,
				"z": -0.3209088624,
				"element": "C" 
			},
			{
				"x": -0.6976631085,
				"y": -0.5821541321,
				"z": -0.5275320149,
				"element": "C" 
			},
			{
				"x": 0.0047102947,
				"y": -1.0194461933,
				"z": 0.5359796553,
				"element": "C" 
			},
			{
				"x": 0.9264486404,
				"y": -2.2202346397,
				"z": 0.5071855745,
				"element": "C" 
			},
			{
				"x": 0.7732317424,
				"y": -3.0713695169,
				"z": -0.7565863495,
				"element": "C" 
			},
			{
				"x": 0.6347277711,
				"y": -2.1592822168,
				"z": -1.9770397838,
				"element": "C" 
			},
			{
				"x": 0.7551383701,
				"y": -2.9141332593,
				"z": -3.3148193845,
				"element": "C" 
			},
			{
				"x": 0.7346006128,
				"y": -1.9566261686,
				"z": -4.4972356463,
				"element": "C" 
			},
			{
				"x": 1.5209238727,
				"y": -2.0451753615,
				"z": -5.4214762182,
				"element": "O" 
			},
			{
				"x": -0.3428640201,
				"y": -0.8816933336,
				"z": -4.4483211712,
				"element": "C" 
			},
			{
				"x": -0.5254427828,
				"y": -0.2371428015,
				"z": -3.0568284317,
				"element": "C" 
			},
			{
				"x": -0.6440450803,
				"y": -1.2710407623,
				"z": -1.9004210183,
				"element": "C" 
			},
			{
				"x": -1.9569766957,
				"y": -2.0814456076,
				"z": -2.0618383371,
				"element": "C" 
			},
			{
				"x": -0.1465648977,
				"y": -0.3644591845,
				"z": 1.8965875446,
				"element": "C" 
			},
			{
				"x": -1.2858239879,
				"y": -1.0362142787,
				"z": 2.7357093016,
				"element": "C" 
			},
			{
				"x": -1.7440533008,
				"y": 0.0365928363,
				"z": 3.7294606114,
				"element": "C" 
			},
			{
				"x": -1.5947845417,
				"y": 1.3312185701,
				"z": 2.9403411995,
				"element": "C" 
			},
			{
				"x": -2.2482997777,
				"y": 2.3410062278,
				"z": 3.0944505805,
				"element": "O" 
			},
			{
				"x": 1.0427800753,
				"y": 1.7185398119,
				"z": 3.3970080812,
				"element": "H" 
			},
			{
				"x": 0.4682468399,
				"y": 3.0700770627,
				"z": 2.4061346396,
				"element": "H" 
			},
			{
				"x": 1.5869495236,
				"y": 1.8723606233,
				"z": 1.71805083,
				"element": "H" 
			},
			{
				"x": -0.0580781017,
				"y": 2.0492772324,
				"z": -0.0410930572,
				"element": "H" 
			},
			{
				"x": -1.5900398231,
				"y": 2.550604556,
				"z": 0.6784147233,
				"element": "H" 
			},
			{
				"x": -1.9414744954,
				"y": 1.0403258185,
				"z": -1.2724864246,
				"element": "H" 
			},
			{
				"x": -2.5507086779,
				"y": 0.2899362676,
				"z": 0.1805879958,
				"element": "H" 
			},
			{
				"x": 0.7531040577,
				"y": -2.8336118976,
				"z": 1.4020383796,
				"element": "H" 
			},
			{
				"x": 1.966830735,
				"y": -1.8693481848,
				"z": 0.5966080487,
				"element": "H" 
			},
			{
				"x": -0.1050007431,
				"y": -3.7234019801,
				"z": -0.6713252792,
				"element": "H" 
			},
			{
				"x": 1.6394151054,
				"y": -3.7331877997,
				"z": -0.8748056102,
				"element": "H" 
			},
			{
				"x": 1.4831666642,
				"y": -1.4578850891,
				"z": -1.9372157734,
				"element": "H" 
			},
			{
				"x": -0.0748458442,
				"y": -3.6260475126,
				"z": -3.4274998789,
				"element": "H" 
			},
			{
				"x": 1.6832821371,
				"y": -3.4916494179,
				"z": -3.3613390965,
				"element": "H" 
			},
			{
				"x": -1.2827237775,
				"y": -1.3608361434,
				"z": -4.7575642148,
				"element": "H" 
			},
			{
				"x": -0.1094868907,
				"y": -0.1295295485,
				"z": -5.2069229266,
				"element": "H" 
			},
			{
				"x": -1.4088089242,
				"y": 0.4072549808,
				"z": -3.0977109069,
				"element": "H" 
			},
			{
				"x": 0.3300451811,
				"y": 0.4188732299,
				"z": -2.8513508578,
				"element": "H" 
			},
			{
				"x": -2.0563852983,
				"y": -2.8391938139,
				"z": -1.2800329411,
				"element": "H" 
			},
			{
				"x": -2.0313138251,
				"y": -2.5871896074,
				"z": -3.0291164608,
				"element": "H" 
			},
			{
				"x": -2.8215356214,
				"y": -1.4143195378,
				"z": -1.9797145096,
				"element": "H" 
			},
			{
				"x": 0.7913421079,
				"y": -0.5126019313,
				"z": 2.4491233111,
				"element": "H" 
			},
			{
				"x": -2.1166247067,
				"y": -1.3042519265,
				"z": 2.0730832005,
				"element": "H" 
			},
			{
				"x": -0.9485340829,
				"y": -1.9579399573,
				"z": 3.2179501824,
				"element": "H" 
			},
			{
				"x": -1.0648997078,
				"y": 0.0889035344,
				"z": 4.59270264,
				"element": "H" 
			},
			{
				"x": -2.7594870373,
				"y": -0.0804321529,
				"z": 4.1152804604,
				"element": "H" 
			}
		],
		 "valence_orbital": [ 
			{
				"type": "occ",
				"energy": -0.30121,
				"method": "rhf"
			},
			{
				"type": "occ",
				"energy": -0.28885,
				"method": "rhf"
			},
			{
				"type": "occ",
				"energy": -0.23966,
				"method": "rhf"
			},
			{
				"type": "occ",
				"energy": -0.23478,
				"method": "rhf"
			},
			{
				"type": "occ",
				"energy": -0.22846,
				"method": "rhf"
			},
			{
				"type": "unocc",
				"energy": -0.01998,
				"method": "rhf"
			},
			{
				"type": "unocc",
				"energy": -0.01207,
				"method": "rhf"
			},
			{
				"type": "unocc",
				"energy": 0.0167,
				"method": "rhf"
			},
			{
				"type": "unocc",
				"energy": 0.07065,
				"method": "rhf"
			},
			{
				"type": "unocc",
				"energy": 0.07962,
				"method": "rhf"
			}
		],
		"cosmo_sigma_profile": { 
			"-0.025": 0.0,
			"-0.024": 0.0,
			"-0.023": 0.0,
			"-0.022": 0.0,
			"-0.021": 0.0,
			"-0.02": 0.0,
			"-0.019": 0.0,
			"-0.018": 0.0,
			"-0.017": 0.0,
			"-0.016": 0.0,
			"-0.015": 0.0,
			"-0.014": 0.0,
			"-0.013": 0.0,
			"-0.012": 0.0,
			"-0.011": 0.0,
			"-0.01": 0.0,
			"-0.009": 0.0,
			"-0.008": 0.093122795955,
			"-0.007": 1.1706458738,
			"-0.006": 5.90588203672,
			"-0.005": 12.0377115506,
			"-0.004": 22.1817448621,
			"-0.003": 45.1939044721,
			"-0.002": 58.0146810228,
			"-0.001": 52.3870551771,
			"0.0": 43.8752392513,
			"0.001": 25.3827745192,
			"0.002": 9.64111773127,
			"0.003": 6.23366972447,
			"0.004": 5.00185771357,
			"0.005": 3.11501240644,
			"0.006": 3.96306298247,
			"0.007": 3.03485678717,
			"0.008": 3.44803085973,
			"0.009": 2.47990467,
			"0.01": 4.59106604545,
			"0.011": 5.0442943498,
			"0.012": 8.81713577932,
			"0.013": 6.10846498333,
			"0.014": 1.32595018139,
			"0.015": 0.0,
			"0.016": 0.0,
			"0.017": 0.0,
			"0.018": 0.0,
			"0.019": 0.0,
			"0.02": 0.0,
			"0.021": 0.0,
			"0.022": 0.0,
			"0.023": 0.0,
			"0.024": 0.0,
			"0.025": 0.0
		}
	}
}
