{
	 "smiles": "NC(=NO)C1=CC=C(C=C1)C1=CC=CC=C1", 
	 "Tm": 456.15, 
	 "num_atms": 28, 
	 "gaussian": { 
		 "optdone": 1, 
		 "sigma_profile": "yes", 
		 "theory": "DFT", 
		 "functional": "B3LYP", 
		 "basiset": "6-31G**", 
		 "properties": { 
			 "R2extent": 6742.1417, 
			 "electric_dipole_moment_norm": 1.47725410475, 
			 "electric_quadrupole_moment_norm": 12.9522458002, 
			 "total_energy": -687.303694117, 
			 "HOMO_LUMO_gap": 0.16596, 
			 "cosmo_polarized_energy": -12.99, 
			 "cosmo_cavitation_energy": 32.25, 
			 "cosmo_dispersion_energy": -23.86, 
			 "cosmo_repulsion_energy": 1.85, 
			 "cosmo_total_nonelectrostatic_energy": 10.24, 
			 "SMD_solvation_energy": 5.34 
		},
		"coords": [
			{
				"x": 2.5752072725,
				"y": -0.6706132068,
				"z": 4.5459790922,
				"element": "N" 
			},
			{
				"x": 2.2388297617,
				"y": 0.6243890716,
				"z": 4.1940186289,
				"element": "C" 
			},
			{
				"x": 2.4882693845,
				"y": 1.6607522556,
				"z": 4.9289376413,
				"element": "N" 
			},
			{
				"x": 3.0447025008,
				"y": 1.2429788086,
				"z": 6.1704509609,
				"element": "O" 
			},
			{
				"x": 1.6106485813,
				"y": 0.8509044009,
				"z": 2.8720027509,
				"element": "C" 
			},
			{
				"x": 1.7562012573,
				"y": -0.0817587388,
				"z": 1.8344151397,
				"element": "C" 
			},
			{
				"x": 1.1565231357,
				"y": 0.1330253452,
				"z": 0.5958580611,
				"element": "C" 
			},
			{
				"x": 0.3973610725,
				"y": 1.2874534987,
				"z": 0.3461184855,
				"element": "C" 
			},
			{
				"x": 0.2648675937,
				"y": 2.2221207688,
				"z": 1.3899598132,
				"element": "C" 
			},
			{
				"x": 0.8550256772,
				"y": 2.0090117739,
				"z": 2.6294019944,
				"element": "C" 
			},
			{
				"x": -0.2433760372,
				"y": 1.5147463659,
				"z": -0.9733936346,
				"element": "C" 
			},
			{
				"x": -1.5136009007,
				"y": 2.1096004707,
				"z": -1.0666705878,
				"element": "C" 
			},
			{
				"x": -2.11586665,
				"y": 2.3233889153,
				"z": -2.305657761,
				"element": "C" 
			},
			{
				"x": -1.4619504417,
				"y": 1.9465547608,
				"z": -3.480282629,
				"element": "C" 
			},
			{
				"x": -0.1997173303,
				"y": 1.3545821488,
				"z": -3.4038840709,
				"element": "C" 
			},
			{
				"x": 0.4026769867,
				"y": 1.1417033502,
				"z": -2.1648438614,
				"element": "C" 
			},
			{
				"x": 1.9406745327,
				"y": -1.3879857025,
				"z": 4.2254681773,
				"element": "H" 
			},
			{
				"x": 2.8499937766,
				"y": -0.7616984832,
				"z": 5.5150024325,
				"element": "H" 
			},
			{
				"x": 3.1963324272,
				"y": 2.0860238341,
				"z": 6.6137649083,
				"element": "H" 
			},
			{
				"x": 2.3588524054,
				"y": -0.971308116,
				"z": 1.9896223569,
				"element": "H" 
			},
			{
				"x": 1.265250661,
				"y": -0.6148465,
				"z": -0.1838995908,
				"element": "H" 
			},
			{
				"x": -0.2952523188,
				"y": 3.1365116201,
				"z": 1.2185326674,
				"element": "H" 
			},
			{
				"x": 0.746032451,
				"y": 2.7372532362,
				"z": 3.4253049315,
				"element": "H" 
			},
			{
				"x": -2.0427385746,
				"y": 2.3825280258,
				"z": -0.158389672,
				"element": "H" 
			},
			{
				"x": -3.1017295089,
				"y": 2.7774752547,
				"z": -2.3527196689,
				"element": "H" 
			},
			{
				"x": -1.9310456941,
				"y": 2.1130475105,
				"z": -4.4456343553,
				"element": "H" 
			},
			{
				"x": 0.3223851304,
				"y": 1.0659609963,
				"z": -4.3118707129,
				"element": "H" 
			},
			{
				"x": 1.3965428484,
				"y": 0.7062983346,
				"z": -2.1188914975,
				"element": "H" 
			}
		],
		 "valence_orbital": [ 
			{
				"type": "occ",
				"energy": -0.27126,
				"method": "rhf"
			},
			{
				"type": "occ",
				"energy": -0.25271,
				"method": "rhf"
			},
			{
				"type": "occ",
				"energy": -0.25067,
				"method": "rhf"
			},
			{
				"type": "occ",
				"energy": -0.23253,
				"method": "rhf"
			},
			{
				"type": "occ",
				"energy": -0.20459,
				"method": "rhf"
			},
			{
				"type": "unocc",
				"energy": -0.03863,
				"method": "rhf"
			},
			{
				"type": "unocc",
				"energy": -0.00535,
				"method": "rhf"
			},
			{
				"type": "unocc",
				"energy": -0.00064,
				"method": "rhf"
			},
			{
				"type": "unocc",
				"energy": 0.01198,
				"method": "rhf"
			},
			{
				"type": "unocc",
				"energy": 0.0637,
				"method": "rhf"
			}
		],
		"cosmo_sigma_profile": { 
			"-0.025": 0.0,
			"-0.024": 0.0,
			"-0.023": 0.0,
			"-0.022": 0.0,
			"-0.021": 0.0,
			"-0.02": 0.0,
			"-0.019": 0.0,
			"-0.018": 0.0,
			"-0.017": 0.404777596179,
			"-0.016": 1.29520069945,
			"-0.015": 0.730101310757,
			"-0.014": 0.726727358027,
			"-0.013": 1.54834715096,
			"-0.012": 1.80489025163,
			"-0.011": 2.65858257145,
			"-0.01": 2.77422658502,
			"-0.009": 3.15905299443,
			"-0.008": 3.23790382405,
			"-0.007": 2.83347579859,
			"-0.006": 10.595966187,
			"-0.005": 20.963751551,
			"-0.004": 18.9746636052,
			"-0.003": 18.7691948535,
			"-0.002": 12.3402277704,
			"-0.001": 14.0384718111,
			"0.0": 13.4518859417,
			"0.001": 13.4583212284,
			"0.002": 18.3347197288,
			"0.003": 21.3998896896,
			"0.004": 22.7468266414,
			"0.005": 18.8501096546,
			"0.006": 10.8584194734,
			"0.007": 5.65968136056,
			"0.008": 4.93584713585,
			"0.009": 3.57773003337,
			"0.01": 2.89844522319,
			"0.011": 1.96864676827,
			"0.012": 1.22746831136,
			"0.013": 0.906813189327,
			"0.014": 0.361476361231,
			"0.015": 0.0,
			"0.016": 0.0,
			"0.017": 0.0,
			"0.018": 0.0,
			"0.019": 0.0,
			"0.02": 0.0,
			"0.021": 0.0,
			"0.022": 0.0,
			"0.023": 0.0,
			"0.024": 0.0,
			"0.025": 0.0
		}
	}
}
