{
	 "smiles": "CC(C)N(C)S(=O)(=O)C1=CC=C(C=C1)C(O)=O", 
	 "Tm": 450.15, 
	 "num_atms": 32, 
	 "gaussian": { 
		 "optdone": 1, 
		 "sigma_profile": "yes", 
		 "theory": "DFT", 
		 "functional": "B3LYP", 
		 "basiset": "6-31G**", 
		 "properties": { 
			 "R2extent": 6742.9937, 
			 "electric_dipole_moment_norm": 4.93374235849, 
			 "electric_quadrupole_moment_norm": 21.0074378014, 
			 "total_energy": -1181.98216243, 
			 "HOMO_LUMO_gap": 0.18002, 
			 "cosmo_polarized_energy": -21.5, 
			 "cosmo_cavitation_energy": 36.18, 
			 "cosmo_dispersion_energy": -25.53, 
			 "cosmo_repulsion_energy": 1.91, 
			 "cosmo_total_nonelectrostatic_energy": 12.56, 
			 "SMD_solvation_energy": 6.54 
		},
		"coords": [
			{
				"x": -0.7276958553,
				"y": 4.4818978427,
				"z": 2.1203443177,
				"element": "C" 
			},
			{
				"x": -0.6776577739,
				"y": 4.6418460913,
				"z": 0.5978154593,
				"element": "C" 
			},
			{
				"x": -1.7712566573,
				"y": 5.5767130077,
				"z": 0.0598379152,
				"element": "C" 
			},
			{
				"x": -0.5991555187,
				"y": 3.3169022025,
				"z": -0.1046926601,
				"element": "N" 
			},
			{
				"x": 0.2052252865,
				"y": 3.3256040486,
				"z": -1.3370755945,
				"element": "C" 
			},
			{
				"x": -2.0168574737,
				"y": 2.4021345879,
				"z": -0.2579390768,
				"element": "S" 
			},
			{
				"x": -2.5955646429,
				"y": 2.537714957,
				"z": -1.6024419304,
				"element": "O" 
			},
			{
				"x": -2.8376918207,
				"y": 2.6568384644,
				"z": 0.9297073147,
				"element": "O" 
			},
			{
				"x": -1.3662067372,
				"y": 0.7237145072,
				"z": -0.1388718821,
				"element": "C" 
			},
			{
				"x": -1.5166046962,
				"y": -0.137796004,
				"z": -1.2236250441,
				"element": "C" 
			},
			{
				"x": -1.0512766532,
				"y": -1.4493062873,
				"z": -1.1164822712,
				"element": "C" 
			},
			{
				"x": -0.4467920755,
				"y": -1.8920597457,
				"z": 0.0668750086,
				"element": "C" 
			},
			{
				"x": -0.3343267589,
				"y": -1.0169125103,
				"z": 1.1584406181,
				"element": "C" 
			},
			{
				"x": -0.787062052,
				"y": 0.2929416501,
				"z": 1.0588591522,
				"element": "C" 
			},
			{
				"x": 0.0627924931,
				"y": -3.2940918218,
				"z": 0.2513513525,
				"element": "C" 
			},
			{
				"x": 0.3337046204,
				"y": -4.0026022628,
				"z": -0.8752422542,
				"element": "O" 
			},
			{
				"x": 0.2342191243,
				"y": -3.7925254913,
				"z": 1.3378850802,
				"element": "O" 
			},
			{
				"x": -1.6817329903,
				"y": 4.0668308914,
				"z": 2.4471282965,
				"element": "H" 
			},
			{
				"x": -0.593880843,
				"y": 5.4609905713,
				"z": 2.5924356395,
				"element": "H" 
			},
			{
				"x": 0.0788845076,
				"y": 3.8265388703,
				"z": 2.4626828725,
				"element": "H" 
			},
			{
				"x": 0.2930897904,
				"y": 5.0886611879,
				"z": 0.3530713628,
				"element": "H" 
			},
			{
				"x": -1.6451039834,
				"y": 6.5769906438,
				"z": 0.4868005926,
				"element": "H" 
			},
			{
				"x": -1.7219210223,
				"y": 5.6671115616,
				"z": -1.0295585512,
				"element": "H" 
			},
			{
				"x": -2.7652040698,
				"y": 5.2135609996,
				"z": 0.3318708397,
				"element": "H" 
			},
			{
				"x": -0.2157697361,
				"y": 3.9640566931,
				"z": -2.1232650363,
				"element": "H" 
			},
			{
				"x": 1.2093518199,
				"y": 3.674364373,
				"z": -1.0829988102,
				"element": "H" 
			},
			{
				"x": 0.2953388223,
				"y": 2.3105426511,
				"z": -1.7306151834,
				"element": "H" 
			},
			{
				"x": -2.002027179,
				"y": 0.2183303609,
				"z": -2.125402848,
				"element": "H" 
			},
			{
				"x": -1.2062376077,
				"y": -2.1263447839,
				"z": -1.9528476448,
				"element": "H" 
			},
			{
				"x": 0.1097624401,
				"y": -1.3891086037,
				"z": 2.0750664001,
				"element": "H" 
			},
			{
				"x": -0.6990080548,
				"y": 0.9758807776,
				"z": 1.896602619,
				"element": "H" 
			},
			{
				"x": 0.3021652974,
				"y": -3.4289194302,
				"z": -1.6531160541,
				"element": "H" 
			}
		],
		 "valence_orbital": [ 
			{
				"type": "occ",
				"energy": -0.30199,
				"method": "rhf"
			},
			{
				"type": "occ",
				"energy": -0.2932,
				"method": "rhf"
			},
			{
				"type": "occ",
				"energy": -0.28938,
				"method": "rhf"
			},
			{
				"type": "occ",
				"energy": -0.28163,
				"method": "rhf"
			},
			{
				"type": "occ",
				"energy": -0.25629,
				"method": "rhf"
			},
			{
				"type": "unocc",
				"energy": -0.07627,
				"method": "rhf"
			},
			{
				"type": "unocc",
				"energy": -0.03894,
				"method": "rhf"
			},
			{
				"type": "unocc",
				"energy": 0.01968,
				"method": "rhf"
			},
			{
				"type": "unocc",
				"energy": 0.04398,
				"method": "rhf"
			},
			{
				"type": "unocc",
				"energy": 0.06443,
				"method": "rhf"
			}
		],
		"cosmo_sigma_profile": { 
			"-0.025": 0.0,
			"-0.024": 0.0,
			"-0.023": 0.0,
			"-0.022": 0.0,
			"-0.021": 0.0,
			"-0.02": 0.0,
			"-0.019": 0.594873897158,
			"-0.018": 1.01515530649,
			"-0.017": 1.32970948011,
			"-0.016": 0.57971074229,
			"-0.015": 1.13967835959,
			"-0.014": 1.05946435701,
			"-0.013": 1.02204055048,
			"-0.012": 1.37503734168,
			"-0.011": 1.56016079992,
			"-0.01": 1.11471804477,
			"-0.009": 2.06467105127,
			"-0.008": 2.94531644306,
			"-0.007": 8.39186098722,
			"-0.006": 11.2597136449,
			"-0.005": 13.9558579331,
			"-0.004": 23.2349004783,
			"-0.003": 25.7665251575,
			"-0.002": 25.4512020301,
			"-0.001": 22.5879619529,
			"0.0": 28.0720666184,
			"0.001": 28.0986667029,
			"0.002": 9.27048565553,
			"0.003": 7.52762254305,
			"0.004": 7.17524088131,
			"0.005": 5.11658196764,
			"0.006": 6.08119373063,
			"0.007": 5.71237510348,
			"0.008": 5.38221581268,
			"0.009": 8.34479258016,
			"0.01": 10.5300976947,
			"0.011": 12.2596320607,
			"0.012": 5.41969513442,
			"0.013": 0.601662929626,
			"0.014": 0.0,
			"0.015": 0.0,
			"0.016": 0.0,
			"0.017": 0.0,
			"0.018": 0.0,
			"0.019": 0.0,
			"0.02": 0.0,
			"0.021": 0.0,
			"0.022": 0.0,
			"0.023": 0.0,
			"0.024": 0.0,
			"0.025": 0.0
		}
	}
}
