{
	 "smiles": "N1N=C2C=CC=CC2=N1", 
	 "Tm": 370.15, 
	 "num_atms": 14, 
	 "gaussian": { 
		 "optdone": 1, 
		 "sigma_profile": "yes", 
		 "theory": "DFT", 
		 "functional": "B3LYP", 
		 "basiset": "6-31G**", 
		 "properties": { 
			 "R2extent": 1256.8976, 
			 "electric_dipole_moment_norm": 0.139462324662, 
			 "electric_quadrupole_moment_norm": 9.66561868687, 
			 "total_energy": -395.867861047, 
			 "HOMO_LUMO_gap": 0.1799, 
			 "cosmo_polarized_energy": -9.06, 
			 "cosmo_cavitation_energy": 18.2, 
			 "cosmo_dispersion_energy": -14.15, 
			 "cosmo_repulsion_energy": 1.15, 
			 "cosmo_total_nonelectrostatic_energy": 5.2, 
			 "SMD_solvation_energy": 0.9 
		},
		"coords": [
			{
				"x": -0.7726167501,
				"y": 0.0755931801,
				"z": 3.1921375782,
				"element": "N" 
			},
			{
				"x": 0.2254989418,
				"y": 0.9120874339,
				"z": 2.9408566161,
				"element": "N" 
			},
			{
				"x": 0.3108851982,
				"y": 0.8489450259,
				"z": 1.5916520893,
				"element": "C" 
			},
			{
				"x": 1.1825782914,
				"y": 1.5106711519,
				"z": 0.6944300114,
				"element": "C" 
			},
			{
				"x": 1.023766266,
				"y": 1.2376891261,
				"z": -0.6458134928,
				"element": "C" 
			},
			{
				"x": 0.0278652731,
				"y": 0.3295877255,
				"z": -1.120864824,
				"element": "C" 
			},
			{
				"x": -0.830370174,
				"y": -0.3248155228,
				"z": -0.2657689422,
				"element": "C" 
			},
			{
				"x": -0.6849694782,
				"y": -0.0591310122,
				"z": 1.1166213998,
				"element": "C" 
			},
			{
				"x": -1.3684258173,
				"y": -0.5414497898,
				"z": 2.1805229754,
				"element": "N" 
			},
			{
				"x": -1.0753744396,
				"y": -0.0894897855,
				"z": 4.142415042,
				"element": "H" 
			},
			{
				"x": 1.9377847009,
				"y": 2.1995641235,
				"z": 1.0572804082,
				"element": "H" 
			},
			{
				"x": 1.6709114102,
				"y": 1.7230360528,
				"z": -1.3704254824,
				"element": "H" 
			},
			{
				"x": -0.0477272263,
				"y": 0.1559112178,
				"z": -2.1902311083,
				"element": "H" 
			},
			{
				"x": -1.5870061961,
				"y": -1.0144989274,
				"z": -0.6241122706,
				"element": "H" 
			}
		],
		 "valence_orbital": [ 
			{
				"type": "occ",
				"energy": -0.31458,
				"method": "rhf"
			},
			{
				"type": "occ",
				"energy": -0.3129,
				"method": "rhf"
			},
			{
				"type": "occ",
				"energy": -0.30198,
				"method": "rhf"
			},
			{
				"type": "occ",
				"energy": -0.25819,
				"method": "rhf"
			},
			{
				"type": "occ",
				"energy": -0.23068,
				"method": "rhf"
			},
			{
				"type": "unocc",
				"energy": -0.05078,
				"method": "rhf"
			},
			{
				"type": "unocc",
				"energy": 0.02082,
				"method": "rhf"
			},
			{
				"type": "unocc",
				"energy": 0.02986,
				"method": "rhf"
			},
			{
				"type": "unocc",
				"energy": 0.07487,
				"method": "rhf"
			},
			{
				"type": "unocc",
				"energy": 0.09843,
				"method": "rhf"
			}
		],
		"cosmo_sigma_profile": { 
			"-0.025": 0.0,
			"-0.024": 0.0,
			"-0.023": 0.0,
			"-0.022": 0.0,
			"-0.021": 0.0,
			"-0.02": 0.0,
			"-0.019": 0.302211322283,
			"-0.018": 1.72455354367,
			"-0.017": 1.43190151717,
			"-0.016": 1.01282084068,
			"-0.015": 0.704425091152,
			"-0.014": 0.571323958099,
			"-0.013": 1.44971568035,
			"-0.012": 0.830929398914,
			"-0.011": 0.323630149362,
			"-0.01": 0.84414102338,
			"-0.009": 1.13695963184,
			"-0.008": 0.408485379829,
			"-0.007": 2.99403624342,
			"-0.006": 8.61528765625,
			"-0.005": 8.0909909833,
			"-0.004": 10.8419721529,
			"-0.003": 5.68030433005,
			"-0.002": 7.15265759487,
			"-0.001": 9.02112543437,
			"0.0": 8.20037914888,
			"0.001": 10.5708174277,
			"0.002": 13.5359398241,
			"0.003": 14.7634619417,
			"0.004": 12.0770298112,
			"0.005": 4.67167925821,
			"0.006": 2.31285251245,
			"0.007": 2.82478384014,
			"0.008": 2.62931274922,
			"0.009": 2.58191741656,
			"0.01": 2.06543640302,
			"0.011": 1.95260890974,
			"0.012": 1.6360702871,
			"0.013": 2.48680913003,
			"0.014": 1.31337058133,
			"0.015": 0.0646773867582,
			"0.016": 0.0,
			"0.017": 0.0,
			"0.018": 0.0,
			"0.019": 0.0,
			"0.02": 0.0,
			"0.021": 0.0,
			"0.022": 0.0,
			"0.023": 0.0,
			"0.024": 0.0,
			"0.025": 0.0
		}
	}
}
