{
	 "smiles": "CC12NC(CC3=CC=CC=C13)C1=C2C=CC=C1", 
	 "Tm": 341.95, 
	 "num_atms": 32, 
	 "gaussian": { 
		 "optdone": 1, 
		 "sigma_profile": "yes", 
		 "theory": "DFT", 
		 "functional": "B3LYP", 
		 "basiset": "6-31G**", 
		 "properties": { 
			 "R2extent": 3957.6763, 
			 "electric_dipole_moment_norm": 0.981834171334, 
			 "electric_quadrupole_moment_norm": 8.80595590212, 
			 "total_energy": -673.496460644, 
			 "HOMO_LUMO_gap": 0.2095, 
			 "cosmo_polarized_energy": -8.63, 
			 "cosmo_cavitation_energy": 32.76, 
			 "cosmo_dispersion_energy": -23.65, 
			 "cosmo_repulsion_energy": 1.8, 
			 "cosmo_total_nonelectrostatic_energy": 10.91, 
			 "SMD_solvation_energy": 2.68 
		},
		"coords": [
			{
				"x": 1.1482485222,
				"y": -1.1182446658,
				"z": 0.8284954563,
				"element": "C" 
			},
			{
				"x": -0.1645230471,
				"y": -0.7021856643,
				"z": 0.1697343966,
				"element": "C" 
			},
			{
				"x": -0.6760277459,
				"y": -1.7985503299,
				"z": -0.700555335,
				"element": "N" 
			},
			{
				"x": -2.0853645342,
				"y": -1.4165213508,
				"z": -0.9433316641,
				"element": "C" 
			},
			{
				"x": -2.1558066103,
				"y": -0.2191303906,
				"z": -1.9219260506,
				"element": "C" 
			},
			{
				"x": -1.0807032495,
				"y": 0.8233741243,
				"z": -1.6338881514,
				"element": "C" 
			},
			{
				"x": -1.0523198438,
				"y": 2.0085344633,
				"z": -2.3755619241,
				"element": "C" 
			},
			{
				"x": -0.0724044053,
				"y": 2.9769992449,
				"z": -2.1572570871,
				"element": "C" 
			},
			{
				"x": 0.9007432788,
				"y": 2.76230918,
				"z": -1.1821601971,
				"element": "C" 
			},
			{
				"x": 0.8837509429,
				"y": 1.5845736537,
				"z": -0.4333978957,
				"element": "C" 
			},
			{
				"x": -0.0931801661,
				"y": 0.605352512,
				"z": -0.6459686385,
				"element": "C" 
			},
			{
				"x": -2.4976443147,
				"y": -0.9995503724,
				"z": 0.4546065459,
				"element": "C" 
			},
			{
				"x": -1.3492244317,
				"y": -0.5709890655,
				"z": 1.1297771879,
				"element": "C" 
			},
			{
				"x": -1.4260581952,
				"y": -0.0874243436,
				"z": 2.4293112192,
				"element": "C" 
			},
			{
				"x": -2.6790289246,
				"y": -0.0539140421,
				"z": 3.0567983369,
				"element": "C" 
			},
			{
				"x": -3.825063321,
				"y": -0.4843920975,
				"z": 2.3843433552,
				"element": "C" 
			},
			{
				"x": -3.7430676975,
				"y": -0.9577351231,
				"z": 1.0674441346,
				"element": "C" 
			},
			{
				"x": 1.9503958912,
				"y": -1.2005584294,
				"z": 0.0875647917,
				"element": "H" 
			},
			{
				"x": 1.0122422255,
				"y": -2.092176257,
				"z": 1.3037884637,
				"element": "H" 
			},
			{
				"x": 1.4692998041,
				"y": -0.4025400229,
				"z": 1.5911769955,
				"element": "H" 
			},
			{
				"x": -0.152699828,
				"y": -1.8163280805,
				"z": -1.5759328781,
				"element": "H" 
			},
			{
				"x": -2.6603756971,
				"y": -2.2649617163,
				"z": -1.3301944157,
				"element": "H" 
			},
			{
				"x": -2.0277468007,
				"y": -0.5892478812,
				"z": -2.9494667801,
				"element": "H" 
			},
			{
				"x": -3.1491245147,
				"y": 0.2466705487,
				"z": -1.8890494403,
				"element": "H" 
			},
			{
				"x": -1.8118601778,
				"y": 2.1727717813,
				"z": -3.1372030709,
				"element": "H" 
			},
			{
				"x": -0.0700326812,
				"y": 3.8906162735,
				"z": -2.7448938973,
				"element": "H" 
			},
			{
				"x": 1.672099507,
				"y": 3.5061462686,
				"z": -1.0031043494,
				"element": "H" 
			},
			{
				"x": 1.6458052103,
				"y": 1.4296736833,
				"z": 0.3237636227,
				"element": "H" 
			},
			{
				"x": -0.5401064759,
				"y": 0.25421184,
				"z": 2.9576386206,
				"element": "H" 
			},
			{
				"x": -2.758488308,
				"y": 0.3077175794,
				"z": 4.0781481865,
				"element": "H" 
			},
			{
				"x": -4.7873569978,
				"y": -0.4565116898,
				"z": 2.8876431162,
				"element": "H" 
			},
			{
				"x": -4.6368774139,
				"y": -1.2933896305,
				"z": 0.5475573461,
				"element": "H" 
			}
		],
		 "valence_orbital": [ 
			{
				"type": "occ",
				"energy": -0.25446,
				"method": "rhf"
			},
			{
				"type": "occ",
				"energy": -0.24349,
				"method": "rhf"
			},
			{
				"type": "occ",
				"energy": -0.23959,
				"method": "rhf"
			},
			{
				"type": "occ",
				"energy": -0.22529,
				"method": "rhf"
			},
			{
				"type": "occ",
				"energy": -0.2181,
				"method": "rhf"
			},
			{
				"type": "unocc",
				"energy": -0.0086,
				"method": "rhf"
			},
			{
				"type": "unocc",
				"energy": -0.00515,
				"method": "rhf"
			},
			{
				"type": "unocc",
				"energy": 0.00924,
				"method": "rhf"
			},
			{
				"type": "unocc",
				"energy": 0.01829,
				"method": "rhf"
			},
			{
				"type": "unocc",
				"energy": 0.09197,
				"method": "rhf"
			}
		],
		"cosmo_sigma_profile": { 
			"-0.025": 0.0,
			"-0.024": 0.0,
			"-0.023": 0.0,
			"-0.022": 0.0,
			"-0.021": 0.0,
			"-0.02": 0.0,
			"-0.019": 0.0,
			"-0.018": 0.0,
			"-0.017": 0.0,
			"-0.016": 0.0,
			"-0.015": 0.0,
			"-0.014": 0.0,
			"-0.013": 0.0,
			"-0.012": 0.0,
			"-0.011": 0.00901224927056,
			"-0.01": 0.643416804495,
			"-0.009": 1.1200858137,
			"-0.008": 1.35893972801,
			"-0.007": 1.14493374701,
			"-0.006": 4.79959691041,
			"-0.005": 21.4609505707,
			"-0.004": 28.3110304303,
			"-0.003": 33.7129827802,
			"-0.002": 24.7574327596,
			"-0.001": 20.6827640466,
			"0.0": 17.4563413413,
			"0.001": 15.9762189756,
			"0.002": 13.418294627,
			"0.003": 13.3057443438,
			"0.004": 14.6105276508,
			"0.005": 15.4989723298,
			"0.006": 17.3407552398,
			"0.007": 6.8161023454,
			"0.008": 0.789868946427,
			"0.009": 0.948793472377,
			"0.01": 0.89897020095,
			"0.011": 0.725828516169,
			"0.012": 0.668371118246,
			"0.013": 0.578662501875,
			"0.014": 0.47416731345,
			"0.015": 0.609694963147,
			"0.016": 0.616554244087,
			"0.017": 0.458294418896,
			"0.018": 0.251211213599,
			"0.019": 0.0,
			"0.02": 0.0,
			"0.021": 0.0,
			"0.022": 0.0,
			"0.023": 0.0,
			"0.024": 0.0,
			"0.025": 0.0
		}
	}
}
