{
	 "smiles": "CC(NC(N)=S)C1=CC=CC=C1", 
	 "Tm": 368.15, 
	 "num_atms": 24, 
	 "gaussian": { 
		 "optdone": 1, 
		 "sigma_profile": "yes", 
		 "theory": "DFT", 
		 "functional": "B3LYP", 
		 "basiset": "6-31G**", 
		 "properties": { 
			 "R2extent": 2803.425, 
			 "electric_dipole_moment_norm": 6.11501331642, 
			 "electric_quadrupole_moment_norm": 17.7433729248, 
			 "total_energy": -857.906271315, 
			 "HOMO_LUMO_gap": 0.17599, 
			 "cosmo_polarized_energy": -17.26, 
			 "cosmo_cavitation_energy": 28.84, 
			 "cosmo_dispersion_energy": -20.74, 
			 "cosmo_repulsion_energy": 1.64, 
			 "cosmo_total_nonelectrostatic_energy": 9.74, 
			 "SMD_solvation_energy": 3.82 
		},
		"coords": [
			{
				"x": -0.269247025,
				"y": -0.1303806862,
				"z": -2.7089387057,
				"element": "C" 
			},
			{
				"x": -0.6515135924,
				"y": -0.2418738796,
				"z": -1.2252055183,
				"element": "C" 
			},
			{
				"x": -0.9422857281,
				"y": 1.1022804171,
				"z": -0.7213296741,
				"element": "N" 
			},
			{
				"x": -1.640542194,
				"y": 1.4000760969,
				"z": 0.4102611713,
				"element": "C" 
			},
			{
				"x": -1.8699226188,
				"y": 0.3596939012,
				"z": 1.2613291915,
				"element": "N" 
			},
			{
				"x": -2.2107447932,
				"y": 2.9555505394,
				"z": 0.711714242,
				"element": "S" 
			},
			{
				"x": 0.4418341331,
				"y": -0.9549562963,
				"z": -0.4288511214,
				"element": "C" 
			},
			{
				"x": 0.3658656529,
				"y": -2.3400942849,
				"z": -0.2304530692,
				"element": "C" 
			},
			{
				"x": 1.3812208569,
				"y": -3.0205443604,
				"z": 0.4447590465,
				"element": "C" 
			},
			{
				"x": 2.4843827399,
				"y": -2.3199734927,
				"z": 0.9347280556,
				"element": "C" 
			},
			{
				"x": 2.5643054711,
				"y": -0.9377372875,
				"z": 0.7487574239,
				"element": "C" 
			},
			{
				"x": 1.5499854615,
				"y": -0.2592652525,
				"z": 0.072687787,
				"element": "C" 
			},
			{
				"x": -1.08042519,
				"y": 0.32575075,
				"z": -3.2857970513,
				"element": "H" 
			},
			{
				"x": -0.0658806144,
				"y": -1.1212590481,
				"z": -3.1214257431,
				"element": "H" 
			},
			{
				"x": 0.635146717,
				"y": 0.4754175004,
				"z": -2.828370894,
				"element": "H" 
			},
			{
				"x": -1.5679896594,
				"y": -0.8450083987,
				"z": -1.1508170776,
				"element": "H" 
			},
			{
				"x": -0.8751627102,
				"y": 1.8773756805,
				"z": -1.3653148314,
				"element": "H" 
			},
			{
				"x": -1.2530127656,
				"y": -0.4425242118,
				"z": 1.2568200756,
				"element": "H" 
			},
			{
				"x": -2.2719778493,
				"y": 0.619376377,
				"z": 2.1490451723,
				"element": "H" 
			},
			{
				"x": -0.4936079923,
				"y": -2.8898006848,
				"z": -0.6087021737,
				"element": "H" 
			},
			{
				"x": 1.3065986269,
				"y": -4.0941442307,
				"z": 0.5920564912,
				"element": "H" 
			},
			{
				"x": 3.2733021347,
				"y": -2.8458117103,
				"z": 1.4644430108,
				"element": "H" 
			},
			{
				"x": 3.4162353222,
				"y": -0.3854379968,
				"z": 1.1348775612,
				"element": "H" 
			},
			{
				"x": 1.6049356166,
				"y": 0.8176905588,
				"z": -0.0564733689,
				"element": "H" 
			}
		],
		 "valence_orbital": [ 
			{
				"type": "occ",
				"energy": -0.2738,
				"method": "rhf"
			},
			{
				"type": "occ",
				"energy": -0.26576,
				"method": "rhf"
			},
			{
				"type": "occ",
				"energy": -0.26035,
				"method": "rhf"
			},
			{
				"type": "occ",
				"energy": -0.20477,
				"method": "rhf"
			},
			{
				"type": "occ",
				"energy": -0.19632,
				"method": "rhf"
			},
			{
				"type": "unocc",
				"energy": -0.02033,
				"method": "rhf"
			},
			{
				"type": "unocc",
				"energy": -0.01792,
				"method": "rhf"
			},
			{
				"type": "unocc",
				"energy": 0.00556,
				"method": "rhf"
			},
			{
				"type": "unocc",
				"energy": 0.06976,
				"method": "rhf"
			},
			{
				"type": "unocc",
				"energy": 0.08464,
				"method": "rhf"
			}
		],
		"cosmo_sigma_profile": { 
			"-0.025": 0.0,
			"-0.024": 0.0,
			"-0.023": 0.0,
			"-0.022": 0.0,
			"-0.021": 0.0,
			"-0.02": 0.0,
			"-0.019": 0.0,
			"-0.018": 0.0,
			"-0.017": 0.0,
			"-0.016": 0.0,
			"-0.015": 0.0,
			"-0.014": 0.668858668943,
			"-0.013": 1.26125350641,
			"-0.012": 2.68499111139,
			"-0.011": 2.94382043644,
			"-0.01": 2.61323560117,
			"-0.009": 2.43072675918,
			"-0.008": 2.30005084398,
			"-0.007": 4.49195066298,
			"-0.006": 11.5593057962,
			"-0.005": 18.2957745041,
			"-0.004": 22.8138620499,
			"-0.003": 21.2589722027,
			"-0.002": 14.971224532,
			"-0.001": 15.9770814354,
			"0.0": 14.5152584878,
			"0.001": 10.7904664592,
			"0.002": 9.38889960735,
			"0.003": 9.71751056631,
			"0.004": 10.5007831946,
			"0.005": 11.7938721373,
			"0.006": 5.81359741244,
			"0.007": 3.70852155683,
			"0.008": 3.47950853772,
			"0.009": 4.4679786378,
			"0.01": 3.64653240019,
			"0.011": 6.79740826346,
			"0.012": 7.92712109362,
			"0.013": 3.95408774648,
			"0.014": 0.0223540251755,
			"0.015": 0.0,
			"0.016": 0.0,
			"0.017": 0.0,
			"0.018": 0.0,
			"0.019": 0.0,
			"0.02": 0.0,
			"0.021": 0.0,
			"0.022": 0.0,
			"0.023": 0.0,
			"0.024": 0.0,
			"0.025": 0.0
		}
	}
}
