{
	 "smiles": "CCN(CC)CCO", 
	 "Tm": 203.15, 
	 "num_atms": 23, 
	 "gaussian": { 
		 "optdone": 1, 
		 "sigma_profile": "yes", 
		 "theory": "DFT", 
		 "functional": "B3LYP", 
		 "basiset": "6-31G**", 
		 "properties": { 
			 "R2extent": 1596.9186, 
			 "electric_dipole_moment_norm": 2.65163780709, 
			 "electric_quadrupole_moment_norm": 12.2859500516, 
			 "total_energy": -367.641657072, 
			 "HOMO_LUMO_gap": 0.29987, 
			 "cosmo_polarized_energy": -5.73, 
			 "cosmo_cavitation_energy": 23.51, 
			 "cosmo_dispersion_energy": -16.94, 
			 "cosmo_repulsion_energy": 1.41, 
			 "cosmo_total_nonelectrostatic_energy": 7.98, 
			 "SMD_solvation_energy": 3.9 
		},
		"coords": [
			{
				"x": -0.4729568392,
				"y": -0.4555308395,
				"z": 2.1779544582,
				"element": "C" 
			},
			{
				"x": -1.1027260218,
				"y": -0.3355440895,
				"z": 0.7896954944,
				"element": "C" 
			},
			{
				"x": -0.267249664,
				"y": -0.9127216135,
				"z": -0.2695315228,
				"element": "N" 
			},
			{
				"x": 0.9841907142,
				"y": -0.1624781003,
				"z": -0.5117135985,
				"element": "C" 
			},
			{
				"x": 2.2426818541,
				"y": -0.9732689504,
				"z": -0.187934411,
				"element": "C" 
			},
			{
				"x": -1.0064412595,
				"y": -1.2153804124,
				"z": -1.501006051,
				"element": "C" 
			},
			{
				"x": -0.2758482025,
				"y": -2.3038572037,
				"z": -2.2955950759,
				"element": "C" 
			},
			{
				"x": 0.0102509095,
				"y": -3.4148808232,
				"z": -1.4682230224,
				"element": "O" 
			},
			{
				"x": 0.4667918999,
				"y": 0.1007884538,
				"z": 2.2525994414,
				"element": "H" 
			},
			{
				"x": -0.2661067403,
				"y": -1.5034881143,
				"z": 2.4160051241,
				"element": "H" 
			},
			{
				"x": -1.1528104855,
				"y": -0.0542774521,
				"z": 2.9367737929,
				"element": "H" 
			},
			{
				"x": -1.343524565,
				"y": 0.7249397827,
				"z": 0.5841200392,
				"element": "H" 
			},
			{
				"x": -2.0552036438,
				"y": -0.876359008,
				"z": 0.7886634854,
				"element": "H" 
			},
			{
				"x": 0.9774581263,
				"y": 0.7606198214,
				"z": 0.0828349344,
				"element": "H" 
			},
			{
				"x": 1.0189769507,
				"y": 0.1606936951,
				"z": -1.5610332759,
				"element": "H" 
			},
			{
				"x": 3.1464953003,
				"y": -0.3969046722,
				"z": -0.415888829,
				"element": "H" 
			},
			{
				"x": 2.2699522308,
				"y": -1.2449183117,
				"z": 0.8718855642,
				"element": "H" 
			},
			{
				"x": 2.2693766157,
				"y": -1.899261673,
				"z": -0.7701854198,
				"element": "H" 
			},
			{
				"x": -1.989533475,
				"y": -1.6025447277,
				"z": -1.2130423956,
				"element": "H" 
			},
			{
				"x": -1.1715195347,
				"y": -0.3247936741,
				"z": -2.1352607308,
				"element": "H" 
			},
			{
				"x": -0.9080855029,
				"y": -2.6441500815,
				"z": -3.1241111611,
				"element": "H" 
			},
			{
				"x": 0.6450955765,
				"y": -1.8915403409,
				"z": -2.7418300692,
				"element": "H" 
			},
			{
				"x": 0.1544357561,
				"y": -3.022541665,
				"z": -0.5893767713,
				"element": "H" 
			}
		],
		 "valence_orbital": [ 
			{
				"type": "occ",
				"energy": -0.33976,
				"method": "rhf"
			},
			{
				"type": "occ",
				"energy": -0.33609,
				"method": "rhf"
			},
			{
				"type": "occ",
				"energy": -0.3123,
				"method": "rhf"
			},
			{
				"type": "occ",
				"energy": -0.25231,
				"method": "rhf"
			},
			{
				"type": "occ",
				"energy": -0.22083,
				"method": "rhf"
			},
			{
				"type": "unocc",
				"energy": 0.07904,
				"method": "rhf"
			},
			{
				"type": "unocc",
				"energy": 0.10348,
				"method": "rhf"
			},
			{
				"type": "unocc",
				"energy": 0.1082,
				"method": "rhf"
			},
			{
				"type": "unocc",
				"energy": 0.11739,
				"method": "rhf"
			},
			{
				"type": "unocc",
				"energy": 0.13033,
				"method": "rhf"
			}
		],
		"cosmo_sigma_profile": { 
			"-0.025": 0.0,
			"-0.024": 0.0,
			"-0.023": 0.0,
			"-0.022": 0.0,
			"-0.021": 0.0,
			"-0.02": 0.0,
			"-0.019": 0.0,
			"-0.018": 0.0,
			"-0.017": 0.0,
			"-0.016": 0.0,
			"-0.015": 0.0,
			"-0.014": 0.0,
			"-0.013": 0.0,
			"-0.012": 0.0,
			"-0.011": 0.0,
			"-0.01": 0.0,
			"-0.009": 0.0,
			"-0.008": 0.160292897609,
			"-0.007": 0.32561615217,
			"-0.006": 0.466448500203,
			"-0.005": 1.11487920704,
			"-0.004": 8.62570055868,
			"-0.003": 25.8400413234,
			"-0.002": 33.7995081397,
			"-0.001": 34.8502650817,
			"0.0": 28.1553133192,
			"0.001": 18.0309503315,
			"0.002": 8.0378512139,
			"0.003": 2.8235343334,
			"0.004": 1.87453382345,
			"0.005": 2.18254202413,
			"0.006": 1.07970801702,
			"0.007": 1.45453020993,
			"0.008": 1.00407044013,
			"0.009": 0.912015011053,
			"0.01": 1.37903052392,
			"0.011": 1.32328053523,
			"0.012": 0.981117888214,
			"0.013": 1.66975966394,
			"0.014": 1.89908355467,
			"0.015": 2.41590194139,
			"0.016": 0.394446276379,
			"0.017": 0.0,
			"0.018": 0.0,
			"0.019": 0.0,
			"0.02": 0.0,
			"0.021": 0.0,
			"0.022": 0.0,
			"0.023": 0.0,
			"0.024": 0.0,
			"0.025": 0.0
		}
	}
}
