{
	 "smiles": "SC1=NN=C(NC2=CC(Cl)=CC=C2)S1", 
	 "Tm": 484.15, 
	 "num_atms": 20, 
	 "gaussian": { 
		 "optdone": 1, 
		 "sigma_profile": "yes", 
		 "theory": "DFT", 
		 "functional": "B3LYP", 
		 "basiset": "6-31G**", 
		 "properties": { 
			 "R2extent": 6678.8388, 
			 "electric_dipole_moment_norm": 6.09151893537, 
			 "electric_quadrupole_moment_norm": 18.3926097662, 
			 "total_energy": -1729.24730756, 
			 "HOMO_LUMO_gap": 0.17274, 
			 "cosmo_polarized_energy": -17.95, 
			 "cosmo_cavitation_energy": 30.37, 
			 "cosmo_dispersion_energy": -23.78, 
			 "cosmo_repulsion_energy": 1.77, 
			 "cosmo_total_nonelectrostatic_energy": 8.37, 
			 "SMD_solvation_energy": 2.47 
		},
		"coords": [
			{
				"x": -6.0387215659,
				"y": -2.1835951869,
				"z": -0.6398178792,
				"element": "S" 
			},
			{
				"x": -4.3982247817,
				"y": -1.5211809669,
				"z": -0.6665239312,
				"element": "C" 
			},
			{
				"x": -3.3619018464,
				"y": -2.2928295905,
				"z": -0.633922025,
				"element": "N" 
			},
			{
				"x": -2.1692647742,
				"y": -1.6201729328,
				"z": -0.6609536859,
				"element": "N" 
			},
			{
				"x": -2.3132168799,
				"y": -0.3245536507,
				"z": -0.7146971795,
				"element": "C" 
			},
			{
				"x": -1.3098560522,
				"y": 0.6053612432,
				"z": -0.7525304854,
				"element": "N" 
			},
			{
				"x": 0.0845466786,
				"y": 0.4111914994,
				"z": -0.7439049245,
				"element": "C" 
			},
			{
				"x": 0.6816745416,
				"y": -0.8567859844,
				"z": -0.6919822909,
				"element": "C" 
			},
			{
				"x": 2.073508689,
				"y": -0.9322618822,
				"z": -0.6883400085,
				"element": "C" 
			},
			{
				"x": 2.8237933343,
				"y": -2.5211616284,
				"z": -0.6233686845,
				"element": "Cl" 
			},
			{
				"x": 2.8878050474,
				"y": 0.1972044341,
				"z": -0.7339744658,
				"element": "C" 
			},
			{
				"x": 2.2728451413,
				"y": 1.4495145778,
				"z": -0.7852105388,
				"element": "C" 
			},
			{
				"x": 0.8875118146,
				"y": 1.5637678646,
				"z": -0.7904775175,
				"element": "C" 
			},
			{
				"x": -4.0099569888,
				"y": 0.2075353955,
				"z": -0.737789198,
				"element": "S" 
			},
			{
				"x": -6.6709601876,
				"y": -0.9955543759,
				"z": -0.691264491,
				"element": "H" 
			},
			{
				"x": -1.6034488134,
				"y": 1.5691461201,
				"z": -0.7921832268,
				"element": "H" 
			},
			{
				"x": 0.0710751062,
				"y": -1.7478159048,
				"z": -0.6558721644,
				"element": "H" 
			},
			{
				"x": 3.9667588065,
				"y": 0.0983738342,
				"z": -0.7294718481,
				"element": "H" 
			},
			{
				"x": 2.8835112637,
				"y": 2.3464946849,
				"z": -0.821441401,
				"element": "H" 
			},
			{
				"x": 0.423321467,
				"y": 2.5462224497,
				"z": -0.8306740541,
				"element": "H" 
			}
		],
		 "valence_orbital": [ 
			{
				"type": "occ",
				"energy": -0.2994,
				"method": "rhf"
			},
			{
				"type": "occ",
				"energy": -0.27249,
				"method": "rhf"
			},
			{
				"type": "occ",
				"energy": -0.25914,
				"method": "rhf"
			},
			{
				"type": "occ",
				"energy": -0.2516,
				"method": "rhf"
			},
			{
				"type": "occ",
				"energy": -0.21661,
				"method": "rhf"
			},
			{
				"type": "unocc",
				"energy": -0.04387,
				"method": "rhf"
			},
			{
				"type": "unocc",
				"energy": -0.04008,
				"method": "rhf"
			},
			{
				"type": "unocc",
				"energy": -0.01689,
				"method": "rhf"
			},
			{
				"type": "unocc",
				"energy": -0.00258,
				"method": "rhf"
			},
			{
				"type": "unocc",
				"energy": 0.00921,
				"method": "rhf"
			}
		],
		"cosmo_sigma_profile": { 
			"-0.025": 0.0,
			"-0.024": 0.0,
			"-0.023": 0.0,
			"-0.022": 0.0,
			"-0.021": 0.0,
			"-0.02": 0.0,
			"-0.019": 0.0,
			"-0.018": 0.2436833107,
			"-0.017": 1.11365971504,
			"-0.016": 1.9248537034,
			"-0.015": 0.972706733959,
			"-0.014": 0.9654663876,
			"-0.013": 2.71849002555,
			"-0.012": 4.75884849195,
			"-0.011": 2.97501323943,
			"-0.01": 2.54520539632,
			"-0.009": 3.36870035211,
			"-0.008": 3.47975689699,
			"-0.007": 5.64515106475,
			"-0.006": 8.40532217579,
			"-0.005": 9.94139954564,
			"-0.004": 7.5525720498,
			"-0.003": 6.69302690645,
			"-0.002": 14.781147773,
			"-0.001": 17.8106185408,
			"0.0": 19.0209633514,
			"0.001": 23.6033303877,
			"0.002": 27.6306207477,
			"0.003": 26.1644532416,
			"0.004": 23.4683900749,
			"0.005": 14.5054599646,
			"0.006": 4.951357537,
			"0.007": 2.72145422656,
			"0.008": 2.49719329266,
			"0.009": 2.76669491092,
			"0.01": 3.14473078223,
			"0.011": 2.15796066362,
			"0.012": 1.74428687486,
			"0.013": 1.22672236128,
			"0.014": 0.737111290635,
			"0.015": 0.0278816500319,
			"0.016": 0.0,
			"0.017": 0.0,
			"0.018": 0.0,
			"0.019": 0.0,
			"0.02": 0.0,
			"0.021": 0.0,
			"0.022": 0.0,
			"0.023": 0.0,
			"0.024": 0.0,
			"0.025": 0.0
		}
	}
}
