{
	 "smiles": "CCCCCN", 
	 "Tm": 223.15, 
	 "num_atms": 19, 
	 "gaussian": { 
		 "optdone": 1, 
		 "sigma_profile": "yes", 
		 "theory": "DFT", 
		 "functional": "B3LYP", 
		 "basiset": "6-31G**", 
		 "properties": { 
			 "R2extent": 1356.1981, 
			 "electric_dipole_moment_norm": 1.26506233048, 
			 "electric_quadrupole_moment_norm": 6.6122217121, 
			 "total_energy": -253.126601118, 
			 "HOMO_LUMO_gap": 0.31451, 
			 "cosmo_polarized_energy": -4.83, 
			 "cosmo_cavitation_energy": 20.56, 
			 "cosmo_dispersion_energy": -15.19, 
			 "cosmo_repulsion_energy": 1.35, 
			 "cosmo_total_nonelectrostatic_energy": 6.72, 
			 "SMD_solvation_energy": 2.12 
		},
		"coords": [
			{
				"x": -0.3830423021,
				"y": -1.8889292862,
				"z": -0.5498919076,
				"element": "C" 
			},
			{
				"x": 0.6366692202,
				"y": -1.3706896713,
				"z": 0.4713528487,
				"element": "C" 
			},
			{
				"x": 1.723434191,
				"y": -0.4571403873,
				"z": -0.1198535049,
				"element": "C" 
			},
			{
				"x": 1.2062838656,
				"y": 0.8803370223,
				"z": -0.6656576451,
				"element": "C" 
			},
			{
				"x": 2.3235609031,
				"y": 1.7861695126,
				"z": -1.1885184919,
				"element": "C" 
			},
			{
				"x": 1.7780334544,
				"y": 3.0651486087,
				"z": -1.6575556755,
				"element": "N" 
			},
			{
				"x": -0.9592365122,
				"y": -1.0751213871,
				"z": -1.0018472985,
				"element": "H" 
			},
			{
				"x": 0.1137362388,
				"y": -2.4337167681,
				"z": -1.3615295313,
				"element": "H" 
			},
			{
				"x": -1.0973801437,
				"y": -2.5733649048,
				"z": -0.0803964073,
				"element": "H" 
			},
			{
				"x": 1.1243381112,
				"y": -2.2282123134,
				"z": 0.9525030031,
				"element": "H" 
			},
			{
				"x": 0.1108286824,
				"y": -0.8327948762,
				"z": 1.2719773875,
				"element": "H" 
			},
			{
				"x": 2.4728889825,
				"y": -0.2543063532,
				"z": 0.657524447,
				"element": "H" 
			},
			{
				"x": 2.2533179113,
				"y": -0.9981259127,
				"z": -0.9174397995,
				"element": "H" 
			},
			{
				"x": 0.4886295244,
				"y": 0.7014195893,
				"z": -1.4785019786,
				"element": "H" 
			},
			{
				"x": 0.6580249984,
				"y": 1.4212922997,
				"z": 0.115946065,
				"element": "H" 
			},
			{
				"x": 2.9022440204,
				"y": 1.2365621141,
				"z": -1.9544456716,
				"element": "H" 
			},
			{
				"x": 3.0236237534,
				"y": 2.0023495995,
				"z": -0.3710592757,
				"element": "H" 
			},
			{
				"x": 2.5329806044,
				"y": 3.672093566,
				"z": -1.9679651101,
				"element": "H" 
			},
			{
				"x": 1.1918644965,
				"y": 2.9058295481,
				"z": -2.4746414538,
				"element": "H" 
			}
		],
		 "valence_orbital": [ 
			{
				"type": "occ",
				"energy": -0.34053,
				"method": "rhf"
			},
			{
				"type": "occ",
				"energy": -0.31841,
				"method": "rhf"
			},
			{
				"type": "occ",
				"energy": -0.31577,
				"method": "rhf"
			},
			{
				"type": "occ",
				"energy": -0.31267,
				"method": "rhf"
			},
			{
				"type": "occ",
				"energy": -0.22797,
				"method": "rhf"
			},
			{
				"type": "unocc",
				"energy": 0.08654,
				"method": "rhf"
			},
			{
				"type": "unocc",
				"energy": 0.09492,
				"method": "rhf"
			},
			{
				"type": "unocc",
				"energy": 0.11998,
				"method": "rhf"
			},
			{
				"type": "unocc",
				"energy": 0.13274,
				"method": "rhf"
			},
			{
				"type": "unocc",
				"energy": 0.13497,
				"method": "rhf"
			}
		],
		"cosmo_sigma_profile": { 
			"-0.025": 0.0,
			"-0.024": 0.0,
			"-0.023": 0.0,
			"-0.022": 0.0,
			"-0.021": 0.0,
			"-0.02": 0.0,
			"-0.019": 0.0,
			"-0.018": 0.0,
			"-0.017": 0.0,
			"-0.016": 0.0,
			"-0.015": 0.0,
			"-0.014": 0.0,
			"-0.013": 0.0,
			"-0.012": 0.0,
			"-0.011": 0.0,
			"-0.01": 0.194524683548,
			"-0.009": 2.11534342709,
			"-0.008": 2.75462172336,
			"-0.007": 2.68679841742,
			"-0.006": 2.61407239938,
			"-0.005": 3.29366444119,
			"-0.004": 2.72792264712,
			"-0.003": 5.52556614448,
			"-0.002": 21.1686465848,
			"-0.001": 30.8274236591,
			"0.0": 31.0725908774,
			"0.001": 27.0190713819,
			"0.002": 10.4420691309,
			"0.003": 1.97332702616,
			"0.004": 1.08881162077,
			"0.005": 1.17838001131,
			"0.006": 0.889825066656,
			"0.007": 0.916230281135,
			"0.008": 0.91382459457,
			"0.009": 0.773157033794,
			"0.01": 0.761831117471,
			"0.011": 0.426132528598,
			"0.012": 0.732875306969,
			"0.013": 0.806546752967,
			"0.014": 0.636719621757,
			"0.015": 0.359027811544,
			"0.016": 0.814369444308,
			"0.017": 0.632748648977,
			"0.018": 0.640954889556,
			"0.019": 0.579688127336,
			"0.02": 0.406924890936,
			"0.021": 0.168786229503,
			"0.022": 0.0,
			"0.023": 0.0,
			"0.024": 0.0,
			"0.025": 0.0
		}
	}
}
