{
	 "smiles": "OC1=C(Cl)C=C(C=C1Cl)[N+]([O-])=O", 
	 "Tm": 400.15, 
	 "num_atms": 15, 
	 "gaussian": { 
		 "optdone": 1, 
		 "sigma_profile": "yes", 
		 "theory": "DFT", 
		 "functional": "B3LYP", 
		 "basiset": "6-31G**", 
		 "properties": { 
			 "R2extent": 3573.9413, 
			 "electric_dipole_moment_norm": 3.67901551233, 
			 "electric_quadrupole_moment_norm": 11.2125587789, 
			 "total_energy": -1431.1455458, 
			 "HOMO_LUMO_gap": 0.16762, 
			 "cosmo_polarized_energy": -10.05, 
			 "cosmo_cavitation_energy": 24.18, 
			 "cosmo_dispersion_energy": -18.34, 
			 "cosmo_repulsion_energy": 1.46, 
			 "cosmo_total_nonelectrostatic_energy": 7.3, 
			 "SMD_solvation_energy": 6.36 
		},
		"coords": [
			{
				"x": -1.8217640813,
				"y": 0.9510930366,
				"z": -1.1113251552,
				"element": "O" 
			},
			{
				"x": -0.5818080018,
				"y": 0.4424826843,
				"z": -1.1253044755,
				"element": "C" 
			},
			{
				"x": -0.1607030644,
				"y": -0.5940003291,
				"z": -0.267260802,
				"element": "C" 
			},
			{
				"x": -1.3321943561,
				"y": -1.2394340684,
				"z": 0.8706217573,
				"element": "Cl" 
			},
			{
				"x": 1.1285904418,
				"y": -1.1012711666,
				"z": -0.3033082313,
				"element": "C" 
			},
			{
				"x": 2.0190199816,
				"y": -0.5553188595,
				"z": -1.2234668189,
				"element": "C" 
			},
			{
				"x": 1.6536293148,
				"y": 0.4699405563,
				"z": -2.0937235913,
				"element": "C" 
			},
			{
				"x": 0.3576403173,
				"y": 0.9624161496,
				"z": -2.0401309216,
				"element": "C" 
			},
			{
				"x": -0.1343245746,
				"y": 2.2433919756,
				"z": -3.1126114545,
				"element": "Cl" 
			},
			{
				"x": 3.3883576054,
				"y": -1.0789212869,
				"z": -1.2769109802,
				"element": "N" 
			},
			{
				"x": 3.6806671934,
				"y": -1.9845092836,
				"z": -0.4963350285,
				"element": "O" 
			},
			{
				"x": 4.1554254836,
				"y": -0.5793892817,
				"z": -2.0988064613,
				"element": "O" 
			},
			{
				"x": -2.3471034346,
				"y": 0.4947792616,
				"z": -0.4343738692,
				"element": "H" 
			},
			{
				"x": 1.4472089622,
				"y": -1.8967923203,
				"z": 0.3571723148,
				"element": "H" 
			},
			{
				"x": 2.3757582128,
				"y": 0.8673329322,
				"z": -2.7946362826,
				"element": "H" 
			}
		],
		 "valence_orbital": [ 
			{
				"type": "occ",
				"energy": -0.31928,
				"method": "rhf"
			},
			{
				"type": "occ",
				"energy": -0.31741,
				"method": "rhf"
			},
			{
				"type": "occ",
				"energy": -0.30144,
				"method": "rhf"
			},
			{
				"type": "occ",
				"energy": -0.28121,
				"method": "rhf"
			},
			{
				"type": "occ",
				"energy": -0.26625,
				"method": "rhf"
			},
			{
				"type": "unocc",
				"energy": -0.09863,
				"method": "rhf"
			},
			{
				"type": "unocc",
				"energy": -0.0517,
				"method": "rhf"
			},
			{
				"type": "unocc",
				"energy": -0.02117,
				"method": "rhf"
			},
			{
				"type": "unocc",
				"energy": -0.00912,
				"method": "rhf"
			},
			{
				"type": "unocc",
				"energy": 0.02734,
				"method": "rhf"
			}
		],
		"cosmo_sigma_profile": { 
			"-0.025": 0.0,
			"-0.024": 0.0,
			"-0.023": 0.0,
			"-0.022": 0.0,
			"-0.021": 0.0,
			"-0.02": 0.0,
			"-0.019": 0.0,
			"-0.018": 0.1168262858,
			"-0.017": 0.62911089594,
			"-0.016": 0.457458960301,
			"-0.015": 0.253691747746,
			"-0.014": 0.786200406524,
			"-0.013": 1.45502217041,
			"-0.012": 1.08702170671,
			"-0.011": 0.75066753574,
			"-0.01": 0.976401409183,
			"-0.009": 2.89058879206,
			"-0.008": 3.11629773197,
			"-0.007": 4.44166550231,
			"-0.006": 5.52955970497,
			"-0.005": 6.31238473513,
			"-0.004": 10.1141544205,
			"-0.003": 16.4705926537,
			"-0.002": 23.6280301066,
			"-0.001": 22.2328068723,
			"0.0": 11.4626900357,
			"0.001": 11.8297892411,
			"0.002": 14.3331281732,
			"0.003": 14.9221809854,
			"0.004": 8.22247558982,
			"0.005": 5.23574059369,
			"0.006": 6.39272282213,
			"0.007": 10.4417711574,
			"0.008": 8.38828259934,
			"0.009": 5.44503441034,
			"0.01": 1.65833413271,
			"0.011": 0.000587489195678,
			"0.012": 0.0,
			"0.013": 0.0,
			"0.014": 0.0,
			"0.015": 0.0,
			"0.016": 0.0,
			"0.017": 0.0,
			"0.018": 0.0,
			"0.019": 0.0,
			"0.02": 0.0,
			"0.021": 0.0,
			"0.022": 0.0,
			"0.023": 0.0,
			"0.024": 0.0,
			"0.025": 0.0
		}
	}
}
