{
	 "smiles": "OCC1(CCC1)NCC1=CC=CC=C1", 
	 "Tm": 325.15, 
	 "num_atms": 31, 
	 "gaussian": { 
		 "optdone": 1, 
		 "sigma_profile": "yes", 
		 "theory": "DFT", 
		 "functional": "B3LYP", 
		 "basiset": "6-31G**", 
		 "properties": { 
			 "R2extent": 4103.9941, 
			 "electric_dipole_moment_norm": 2.59205314375, 
			 "electric_quadrupole_moment_norm": 14.1843237742, 
			 "total_energy": -597.46047026, 
			 "HOMO_LUMO_gap": 0.22893, 
			 "cosmo_polarized_energy": -9.42, 
			 "cosmo_cavitation_energy": 32.01, 
			 "cosmo_dispersion_energy": -22.4, 
			 "cosmo_repulsion_energy": 1.77, 
			 "cosmo_total_nonelectrostatic_energy": 11.38, 
			 "SMD_solvation_energy": 4.58 
		},
		"coords": [
			{
				"x": 4.2599623701,
				"y": -0.6977392049,
				"z": 0.8600518874,
				"element": "O" 
			},
			{
				"x": 3.2647226793,
				"y": -1.3708347558,
				"z": 1.6015713775,
				"element": "C" 
			},
			{
				"x": 1.8698730396,
				"y": -1.1758065272,
				"z": 0.9886566213,
				"element": "C" 
			},
			{
				"x": 0.8319332101,
				"y": -2.1645188384,
				"z": 1.6113508927,
				"element": "C" 
			},
			{
				"x": 1.0788792773,
				"y": -3.1170032411,
				"z": 0.4097841558,
				"element": "C" 
			},
			{
				"x": 1.7310560349,
				"y": -1.93574734,
				"z": -0.3601095616,
				"element": "C" 
			},
			{
				"x": 1.6413456386,
				"y": 0.2745822465,
				"z": 0.9900084715,
				"element": "N" 
			},
			{
				"x": 0.4436630559,
				"y": 0.8046821608,
				"z": 0.328393182,
				"element": "C" 
			},
			{
				"x": 0.6390371618,
				"y": 1.1676768351,
				"z": -1.1361665015,
				"element": "C" 
			},
			{
				"x": -0.4007110203,
				"y": 0.9730552409,
				"z": -2.053599812,
				"element": "C" 
			},
			{
				"x": -0.2600212238,
				"y": 1.3581575967,
				"z": -3.3883576376,
				"element": "C" 
			},
			{
				"x": 0.9295000282,
				"y": 1.9426677777,
				"z": -3.8250231221,
				"element": "C" 
			},
			{
				"x": 1.9731724459,
				"y": 2.1400459326,
				"z": -2.9177304248,
				"element": "C" 
			},
			{
				"x": 1.8274253713,
				"y": 1.7569528818,
				"z": -1.5844526584,
				"element": "C" 
			},
			{
				"x": 3.8471148362,
				"y": 0.146137889,
				"z": 0.6142884198,
				"element": "H" 
			},
			{
				"x": 3.5298020511,
				"y": -2.4330432871,
				"z": 1.6218889255,
				"element": "H" 
			},
			{
				"x": 3.2368914513,
				"y": -1.0245255119,
				"z": 2.653185639,
				"element": "H" 
			},
			{
				"x": 1.0470291998,
				"y": -2.5373539502,
				"z": 2.6193915561,
				"element": "H" 
			},
			{
				"x": -0.1834756874,
				"y": -1.7554682284,
				"z": 1.6051966592,
				"element": "H" 
			},
			{
				"x": 0.1959830622,
				"y": -3.5722931632,
				"z": -0.0462677972,
				"element": "H" 
			},
			{
				"x": 1.7911216456,
				"y": -3.912398701,
				"z": 0.6458349478,
				"element": "H" 
			},
			{
				"x": 2.6647519682,
				"y": -2.1122309737,
				"z": -0.9005777965,
				"element": "H" 
			},
			{
				"x": 1.0225392637,
				"y": -1.4568505161,
				"z": -1.0388626983,
				"element": "H" 
			},
			{
				"x": 1.6541885589,
				"y": 0.5936806812,
				"z": 1.9557162031,
				"element": "H" 
			},
			{
				"x": -0.4235363844,
				"y": 0.1308614776,
				"z": 0.4153026988,
				"element": "H" 
			},
			{
				"x": 0.1638434083,
				"y": 1.7176772105,
				"z": 0.8699843707,
				"element": "H" 
			},
			{
				"x": -1.328654921,
				"y": 0.512676073,
				"z": -1.720731507,
				"element": "H" 
			},
			{
				"x": -1.0764371687,
				"y": 1.1950885978,
				"z": -4.0864857812,
				"element": "H" 
			},
			{
				"x": 1.044359388,
				"y": 2.2388670588,
				"z": -4.863783669,
				"element": "H" 
			},
			{
				"x": 2.9033628285,
				"y": 2.5930726828,
				"z": -3.2496739714,
				"element": "H" 
			},
			{
				"x": 2.6385784309,
				"y": 1.9072318962,
				"z": -0.8790830695,
				"element": "H" 
			}
		],
		 "valence_orbital": [ 
			{
				"type": "occ",
				"energy": -0.30011,
				"method": "rhf"
			},
			{
				"type": "occ",
				"energy": -0.25554,
				"method": "rhf"
			},
			{
				"type": "occ",
				"energy": -0.24781,
				"method": "rhf"
			},
			{
				"type": "occ",
				"energy": -0.24154,
				"method": "rhf"
			},
			{
				"type": "occ",
				"energy": -0.22984,
				"method": "rhf"
			},
			{
				"type": "unocc",
				"energy": -0.00091,
				"method": "rhf"
			},
			{
				"type": "unocc",
				"energy": 0.00011,
				"method": "rhf"
			},
			{
				"type": "unocc",
				"energy": 0.07609,
				"method": "rhf"
			},
			{
				"type": "unocc",
				"energy": 0.08736,
				"method": "rhf"
			},
			{
				"type": "unocc",
				"energy": 0.09596,
				"method": "rhf"
			}
		],
		"cosmo_sigma_profile": { 
			"-0.025": 0.0,
			"-0.024": 0.0,
			"-0.023": 0.0,
			"-0.022": 0.0,
			"-0.021": 0.0,
			"-0.02": 0.0,
			"-0.019": 0.0,
			"-0.018": 0.0,
			"-0.017": 0.0,
			"-0.016": 0.0,
			"-0.015": 0.0,
			"-0.014": 0.0,
			"-0.013": 0.0,
			"-0.012": 0.0,
			"-0.011": 0.225378868618,
			"-0.01": 1.173756788,
			"-0.009": 1.73571111982,
			"-0.008": 2.17034764693,
			"-0.007": 2.19266417024,
			"-0.006": 4.33654508033,
			"-0.005": 13.2522498543,
			"-0.004": 21.8661466375,
			"-0.003": 29.568983222,
			"-0.002": 28.1320339269,
			"-0.001": 27.8622062129,
			"0.0": 22.4870131049,
			"0.001": 19.9133252436,
			"0.002": 16.9830396336,
			"0.003": 11.9310802645,
			"0.004": 11.363423367,
			"0.005": 9.41332610344,
			"0.006": 9.44766130525,
			"0.007": 4.21768339841,
			"0.008": 1.44973852864,
			"0.009": 1.48581900443,
			"0.01": 1.22030472833,
			"0.011": 1.09775277128,
			"0.012": 0.789877846536,
			"0.013": 1.8567231441,
			"0.014": 1.98744304402,
			"0.015": 1.90884584918,
			"0.016": 0.173847331482,
			"0.017": 0.0,
			"0.018": 0.0,
			"0.019": 0.0,
			"0.02": 0.0,
			"0.021": 0.0,
			"0.022": 0.0,
			"0.023": 0.0,
			"0.024": 0.0,
			"0.025": 0.0
		}
	}
}
