{
	 "smiles": "CC[C@@]1(O)C(=O)OCC2=C1C=C1N(CC3=CC4=C(C=CC(O)=C4CN(C)C)N=C13)C2=O", 
	 "Tm": 488.65, 
	 "num_atms": 54, 
	 "gaussian": { 
		 "optdone": 1, 
		 "sigma_profile": "yes", 
		 "theory": "DFT", 
		 "functional": "B3LYP", 
		 "basiset": "6-31G**", 
		 "properties": { 
			 "R2extent": 18984.2758, 
			 "electric_dipole_moment_norm": 8.26081568006, 
			 "electric_quadrupole_moment_norm": 25.5912991462, 
			 "total_energy": -1430.70467807, 
			 "HOMO_LUMO_gap": 0.13466, 
			 "cosmo_polarized_energy": -24.07, 
			 "cosmo_cavitation_energy": 55.16, 
			 "cosmo_dispersion_energy": -38.66, 
			 "cosmo_repulsion_energy": 2.85, 
			 "cosmo_total_nonelectrostatic_energy": 19.35, 
			 "SMD_solvation_energy": 7.81 
		},
		"coords": [
			{
				"x": -3.4268061588,
				"y": 0.2979326704,
				"z": 5.3529716223,
				"element": "C" 
			},
			{
				"x": -3.9510321677,
				"y": 1.3996372643,
				"z": 4.4287857108,
				"element": "C" 
			},
			{
				"x": -2.9482215264,
				"y": 2.5058501094,
				"z": 3.9752260353,
				"element": "C" 
			},
			{
				"x": -3.6550926924,
				"y": 3.420022763,
				"z": 3.1547099804,
				"element": "O" 
			},
			{
				"x": -2.4552502525,
				"y": 3.2816152827,
				"z": 5.211486828,
				"element": "C" 
			},
			{
				"x": -3.0996467091,
				"y": 4.2261157506,
				"z": 5.6207050773,
				"element": "O" 
			},
			{
				"x": -1.3434402707,
				"y": 2.8970630093,
				"z": 5.8505273701,
				"element": "O" 
			},
			{
				"x": -0.4556523479,
				"y": 1.8858589339,
				"z": 5.3196699088,
				"element": "C" 
			},
			{
				"x": -0.6267989962,
				"y": 1.6237888919,
				"z": 3.8550619421,
				"element": "C" 
			},
			{
				"x": -1.785940665,
				"y": 1.9363547923,
				"z": 3.1874763513,
				"element": "C" 
			},
			{
				"x": -1.9103258482,
				"y": 1.7175763928,
				"z": 1.7872135354,
				"element": "C" 
			},
			{
				"x": -0.84330391,
				"y": 1.1630420131,
				"z": 1.1365238331,
				"element": "C" 
			},
			{
				"x": 0.3114436159,
				"y": 0.8337047451,
				"z": 1.8150977714,
				"element": "N" 
			},
			{
				"x": 1.3504008775,
				"y": 0.2527929791,
				"z": 0.9491921568,
				"element": "C" 
			},
			{
				"x": 0.6799848393,
				"y": 0.2646149244,
				"z": -0.3989803037,
				"element": "C" 
			},
			{
				"x": 1.1118702063,
				"y": -0.1499406483,
				"z": -1.6310827043,
				"element": "C" 
			},
			{
				"x": 0.2235220845,
				"y": -0.0084987843,
				"z": -2.7386351403,
				"element": "C" 
			},
			{
				"x": -1.0810029737,
				"y": 0.5442738125,
				"z": -2.4796319468,
				"element": "C" 
			},
			{
				"x": -1.9942505073,
				"y": 0.6822168188,
				"z": -3.5575312849,
				"element": "C" 
			},
			{
				"x": -1.6352901937,
				"y": 0.2972329236,
				"z": -4.8230538582,
				"element": "C" 
			},
			{
				"x": -0.3452782372,
				"y": -0.2383390324,
				"z": -5.0788921173,
				"element": "C" 
			},
			{
				"x": -0.0024082891,
				"y": -0.611822611,
				"z": -6.3488393667,
				"element": "O" 
			},
			{
				"x": 0.5926938261,
				"y": -0.390872846,
				"z": -4.065162342,
				"element": "C" 
			},
			{
				"x": 1.9866214906,
				"y": -0.8975450512,
				"z": -4.3808444798,
				"element": "C" 
			},
			{
				"x": 2.3351893697,
				"y": -2.1534606047,
				"z": -3.6978655771,
				"element": "N" 
			},
			{
				"x": 1.4713380816,
				"y": -3.2602319001,
				"z": -4.0968169871,
				"element": "C" 
			},
			{
				"x": 3.73912284,
				"y": -2.4815648213,
				"z": -3.9162052231,
				"element": "C" 
			},
			{
				"x": -1.4976027138,
				"y": 0.947323587,
				"z": -1.2455528905,
				"element": "N" 
			},
			{
				"x": -0.629941728,
				"y": 0.8063918394,
				"z": -0.2681282041,
				"element": "C" 
			},
			{
				"x": 0.5168104347,
				"y": 1.0296215543,
				"z": 3.1811478354,
				"element": "C" 
			},
			{
				"x": 1.583346988,
				"y": 0.7124941083,
				"z": 3.7157642175,
				"element": "O" 
			},
			{
				"x": -2.6120569928,
				"y": -0.2674550514,
				"z": 4.8901959015,
				"element": "H" 
			},
			{
				"x": -3.0696699635,
				"y": 0.6991585151,
				"z": 6.3072224574,
				"element": "H" 
			},
			{
				"x": -4.2295966041,
				"y": -0.4101210389,
				"z": 5.5796656456,
				"element": "H" 
			},
			{
				"x": -4.3484986767,
				"y": 0.9642802102,
				"z": 3.5054527251,
				"element": "H" 
			},
			{
				"x": -4.7800371708,
				"y": 1.9306305293,
				"z": 4.9105933294,
				"element": "H" 
			},
			{
				"x": -3.9765257873,
				"y": 4.1068918387,
				"z": 3.7642242141,
				"element": "H" 
			},
			{
				"x": 0.5579143293,
				"y": 2.2429167926,
				"z": 5.5176587082,
				"element": "H" 
			},
			{
				"x": -0.5984579248,
				"y": 0.9769063547,
				"z": 5.9155450242,
				"element": "H" 
			},
			{
				"x": -2.8044396036,
				"y": 1.9950853931,
				"z": 1.2466333089,
				"element": "H" 
			},
			{
				"x": 2.2591941835,
				"y": 0.8629007719,
				"z": 1.0012910709,
				"element": "H" 
			},
			{
				"x": 1.6144935284,
				"y": -0.7494401083,
				"z": 1.3051319674,
				"element": "H" 
			},
			{
				"x": 2.0784746362,
				"y": -0.6168423574,
				"z": -1.7801781112,
				"element": "H" 
			},
			{
				"x": -2.9723414672,
				"y": 1.0989624004,
				"z": -3.3430544688,
				"element": "H" 
			},
			{
				"x": -2.3376017268,
				"y": 0.4020459302,
				"z": -5.6478281953,
				"element": "H" 
			},
			{
				"x": -0.7440251565,
				"y": -0.4383778115,
				"z": -6.9423650892,
				"element": "H" 
			},
			{
				"x": 2.0955846059,
				"y": -0.9872353565,
				"z": -5.4731411304,
				"element": "H" 
			},
			{
				"x": 2.7159463324,
				"y": -0.1442185458,
				"z": -4.0539294188,
				"element": "H" 
			},
			{
				"x": 1.7336789378,
				"y": -4.1524282212,
				"z": -3.5196241574,
				"element": "H" 
			},
			{
				"x": 1.5558221735,
				"y": -3.5085467765,
				"z": -5.1715857567,
				"element": "H" 
			},
			{
				"x": 0.4274795223,
				"y": -3.0140262631,
				"z": -3.8867156789,
				"element": "H" 
			},
			{
				"x": 3.985301663,
				"y": -2.6608938589,
				"z": -4.9804992466,
				"element": "H" 
			},
			{
				"x": 3.9976952162,
				"y": -3.3845710148,
				"z": -3.354353329,
				"element": "H" 
			},
			{
				"x": 4.3746074787,
				"y": -1.6648711987,
				"z": -3.5573775203,
				"element": "H" 
			}
		],
		 "valence_orbital": [ 
			{
				"type": "occ",
				"energy": -0.25603,
				"method": "rhf"
			},
			{
				"type": "occ",
				"energy": -0.25421,
				"method": "rhf"
			},
			{
				"type": "occ",
				"energy": -0.23246,
				"method": "rhf"
			},
			{
				"type": "occ",
				"energy": -0.22171,
				"method": "rhf"
			},
			{
				"type": "occ",
				"energy": -0.21061,
				"method": "rhf"
			},
			{
				"type": "unocc",
				"energy": -0.07595,
				"method": "rhf"
			},
			{
				"type": "unocc",
				"energy": -0.04855,
				"method": "rhf"
			},
			{
				"type": "unocc",
				"energy": -0.01645,
				"method": "rhf"
			},
			{
				"type": "unocc",
				"energy": 0.00415,
				"method": "rhf"
			},
			{
				"type": "unocc",
				"energy": 0.00591,
				"method": "rhf"
			}
		],
		"cosmo_sigma_profile": { 
			"-0.025": 0.0,
			"-0.024": 0.0,
			"-0.023": 0.0,
			"-0.022": 0.0,
			"-0.021": 0.0,
			"-0.02": 0.0,
			"-0.019": 0.0278129944051,
			"-0.018": 0.867388191008,
			"-0.017": 1.19443139203,
			"-0.016": 1.25973751103,
			"-0.015": 1.09335888244,
			"-0.014": 1.24505691566,
			"-0.013": 0.991605339963,
			"-0.012": 0.824237037631,
			"-0.011": 1.60703630824,
			"-0.01": 2.24424663402,
			"-0.009": 1.28805225444,
			"-0.008": 3.26369592191,
			"-0.007": 10.0493843446,
			"-0.006": 15.9286414077,
			"-0.005": 23.5154631916,
			"-0.004": 35.0471553254,
			"-0.003": 36.9955701041,
			"-0.002": 44.3056244729,
			"-0.001": 47.3254029705,
			"0.0": 42.0637713478,
			"0.001": 30.0643203284,
			"0.002": 27.3788157766,
			"0.003": 19.7350992109,
			"0.004": 12.0447472305,
			"0.005": 9.49268537914,
			"0.006": 10.1175775883,
			"0.007": 7.65914812827,
			"0.008": 8.8309365175,
			"0.009": 8.75636804576,
			"0.01": 9.78128077194,
			"0.011": 7.16488314904,
			"0.012": 5.14602063817,
			"0.013": 3.89233585543,
			"0.014": 4.79422058831,
			"0.015": 0.0960024614448,
			"0.016": 0.0,
			"0.017": 0.0,
			"0.018": 0.0,
			"0.019": 0.0,
			"0.02": 0.0,
			"0.021": 0.0,
			"0.022": 0.0,
			"0.023": 0.0,
			"0.024": 0.0,
			"0.025": 0.0
		}
	}
}
