{
	 "smiles": "CC(NS(=O)(=O)C1=CC(=CC=C1)C(O)=O)C1=CC=CC=C1", 
	 "Tm": 423.15, 
	 "num_atms": 36, 
	 "gaussian": { 
		 "optdone": 1, 
		 "sigma_profile": "yes", 
		 "theory": "DFT", 
		 "functional": "B3LYP", 
		 "basiset": "6-31G**", 
		 "properties": { 
			 "R2extent": 7086.7999, 
			 "electric_dipole_moment_norm": 4.57577485242, 
			 "electric_quadrupole_moment_norm": 26.5780179899, 
			 "total_energy": -1334.41050984, 
			 "HOMO_LUMO_gap": 0.19309, 
			 "cosmo_polarized_energy": -21.89, 
			 "cosmo_cavitation_energy": 40.38, 
			 "cosmo_dispersion_energy": -27.94, 
			 "cosmo_repulsion_energy": 2.09, 
			 "cosmo_total_nonelectrostatic_energy": 14.53, 
			 "SMD_solvation_energy": 6.72 
		},
		"coords": [
			{
				"x": -0.6981895763,
				"y": 2.4536905553,
				"z": -2.9645283268,
				"element": "C" 
			},
			{
				"x": -1.5105404768,
				"y": 1.4852760053,
				"z": -2.095069198,
				"element": "C" 
			},
			{
				"x": -0.8986308595,
				"y": 0.1287499461,
				"z": -1.988027471,
				"element": "N" 
			},
			{
				"x": 0.5644146412,
				"y": -0.1612910255,
				"z": -1.1941084718,
				"element": "S" 
			},
			{
				"x": 1.2203280001,
				"y": -1.2005105489,
				"z": -1.9991598849,
				"element": "O" 
			},
			{
				"x": 1.2353397577,
				"y": 1.0994769188,
				"z": -0.8624148151,
				"element": "O" 
			},
			{
				"x": 0.0891015041,
				"y": -0.9302932334,
				"z": 0.3605929608,
				"element": "C" 
			},
			{
				"x": -0.0401209688,
				"y": -2.3182963186,
				"z": 0.4010640722,
				"element": "C" 
			},
			{
				"x": -0.3945253019,
				"y": -2.9398520793,
				"z": 1.6031357895,
				"element": "C" 
			},
			{
				"x": -0.6325875605,
				"y": -2.1559421931,
				"z": 2.7417869413,
				"element": "C" 
			},
			{
				"x": -0.4810191544,
				"y": -0.7731359859,
				"z": 2.6903171045,
				"element": "C" 
			},
			{
				"x": -0.1126344824,
				"y": -0.1473190884,
				"z": 1.4966595206,
				"element": "C" 
			},
			{
				"x": -0.5662800017,
				"y": -4.4262413434,
				"z": 1.7298904765,
				"element": "C" 
			},
			{
				"x": 0.0467152746,
				"y": -5.1980248205,
				"z": 0.796324815,
				"element": "O" 
			},
			{
				"x": -1.2163005745,
				"y": -4.9385280343,
				"z": 2.6102441085,
				"element": "O" 
			},
			{
				"x": -1.9139023843,
				"y": 2.0140933019,
				"z": -0.7214019418,
				"element": "C" 
			},
			{
				"x": -2.9755028857,
				"y": 1.3927657599,
				"z": -0.0470730709,
				"element": "C" 
			},
			{
				"x": -3.3948345567,
				"y": 1.8458310538,
				"z": 1.2022139866,
				"element": "C" 
			},
			{
				"x": -2.7565553177,
				"y": 2.935922504,
				"z": 1.7998681618,
				"element": "C" 
			},
			{
				"x": -1.7002732145,
				"y": 3.5626226716,
				"z": 1.138279378,
				"element": "C" 
			},
			{
				"x": -1.2816575256,
				"y": 3.1051182432,
				"z": -0.114589609,
				"element": "C" 
			},
			{
				"x": 0.2823007192,
				"y": 2.658446384,
				"z": -2.5321733799,
				"element": "H" 
			},
			{
				"x": -1.2392877013,
				"y": 3.3967390287,
				"z": -3.0905492476,
				"element": "H" 
			},
			{
				"x": -0.5449726135,
				"y": 2.0194590406,
				"z": -3.9578888635,
				"element": "H" 
			},
			{
				"x": -2.4478037914,
				"y": 1.2734803811,
				"z": -2.6254265455,
				"element": "H" 
			},
			{
				"x": -0.8391658193,
				"y": -0.3538918499,
				"z": -2.8815693506,
				"element": "H" 
			},
			{
				"x": 0.124161592,
				"y": -2.8801094393,
				"z": -0.5132785285,
				"element": "H" 
			},
			{
				"x": -0.9280714519,
				"y": -2.6571562233,
				"z": 3.6571519774,
				"element": "H" 
			},
			{
				"x": -0.6485815428,
				"y": -0.1746236691,
				"z": 3.5800595019,
				"element": "H" 
			},
			{
				"x": 0.0148301515,
				"y": 0.9277380829,
				"z": 1.4437333073,
				"element": "H" 
			},
			{
				"x": 0.6577962865,
				"y": -4.6703840692,
				"z": 0.2632446981,
				"element": "H" 
			},
			{
				"x": -3.4707241828,
				"y": 0.5415674883,
				"z": -0.50732899,
				"element": "H" 
			},
			{
				"x": -4.2207525994,
				"y": 1.3526172843,
				"z": 1.706648061,
				"element": "H" 
			},
			{
				"x": -3.0840468748,
				"y": 3.2959253189,
				"z": 2.7710138426,
				"element": "H" 
			},
			{
				"x": -1.1987902978,
				"y": 4.4117995956,
				"z": 1.5937263011,
				"element": "H" 
			},
			{
				"x": -0.4533362106,
				"y": 3.5979803575,
				"z": -0.6104673099,
				"element": "H" 
			}
		],
		 "valence_orbital": [ 
			{
				"type": "occ",
				"energy": -0.2856,
				"method": "rhf"
			},
			{
				"type": "occ",
				"energy": -0.27807,
				"method": "rhf"
			},
			{
				"type": "occ",
				"energy": -0.26877,
				"method": "rhf"
			},
			{
				"type": "occ",
				"energy": -0.26071,
				"method": "rhf"
			},
			{
				"type": "occ",
				"energy": -0.2555,
				"method": "rhf"
			},
			{
				"type": "unocc",
				"energy": -0.06241,
				"method": "rhf"
			},
			{
				"type": "unocc",
				"energy": -0.04716,
				"method": "rhf"
			},
			{
				"type": "unocc",
				"energy": -0.01959,
				"method": "rhf"
			},
			{
				"type": "unocc",
				"energy": -0.0113,
				"method": "rhf"
			},
			{
				"type": "unocc",
				"energy": 0.03201,
				"method": "rhf"
			}
		],
		"cosmo_sigma_profile": { 
			"-0.025": 0.0,
			"-0.024": 0.0,
			"-0.023": 0.0,
			"-0.022": 0.0,
			"-0.021": 0.0,
			"-0.02": 0.0662702891411,
			"-0.019": 0.688221700373,
			"-0.018": 1.02930351646,
			"-0.017": 1.31840434649,
			"-0.016": 0.720924555183,
			"-0.015": 0.598855718525,
			"-0.014": 2.1193449871,
			"-0.013": 1.98732444856,
			"-0.012": 2.82392551808,
			"-0.011": 2.21420411369,
			"-0.01": 1.82940131797,
			"-0.009": 1.76270373236,
			"-0.008": 2.94994244317,
			"-0.007": 7.3731113217,
			"-0.006": 14.9167896303,
			"-0.005": 22.7063102391,
			"-0.004": 23.1748954248,
			"-0.003": 24.8299884064,
			"-0.002": 22.6233141405,
			"-0.001": 20.0171675538,
			"0.0": 24.8692216822,
			"0.001": 26.1821215428,
			"0.002": 19.5617134723,
			"0.003": 16.9268824514,
			"0.004": 10.9904687935,
			"0.005": 10.4507540051,
			"0.006": 7.80489787271,
			"0.007": 6.81526271943,
			"0.008": 5.89409785826,
			"0.009": 7.21877027432,
			"0.01": 11.5560262116,
			"0.011": 11.927090317,
			"0.012": 4.91123844304,
			"0.013": 0.797429321625,
			"0.014": 0.0,
			"0.015": 0.0,
			"0.016": 0.0,
			"0.017": 0.0,
			"0.018": 0.0,
			"0.019": 0.0,
			"0.02": 0.0,
			"0.021": 0.0,
			"0.022": 0.0,
			"0.023": 0.0,
			"0.024": 0.0,
			"0.025": 0.0
		}
	}
}
