{
	 "smiles": "COC1=CC=CC=C1C1NN2C(COC3=CC=CC=C3)=NN=C2S1", 
	 "Tm": 399.15, 
	 "num_atms": 40, 
	 "gaussian": { 
		 "optdone": 1, 
		 "sigma_profile": "yes", 
		 "theory": "DFT", 
		 "functional": "B3LYP", 
		 "basiset": "6-31G**", 
		 "properties": { 
			 "R2extent": 10924.8539, 
			 "electric_dipole_moment_norm": 7.46028304959, 
			 "electric_quadrupole_moment_norm": 27.2883643936, 
			 "total_energy": -1424.99757855, 
			 "HOMO_LUMO_gap": 0.17491, 
			 "cosmo_polarized_energy": -20.54, 
			 "cosmo_cavitation_energy": 45.71, 
			 "cosmo_dispersion_energy": -31.41, 
			 "cosmo_repulsion_energy": 2.35, 
			 "cosmo_total_nonelectrostatic_energy": 16.64, 
			 "SMD_solvation_energy": 4.91 
		},
		"coords": [
			{
				"x": -0.2884106842,
				"y": -2.8637583485,
				"z": 0.3506224411,
				"element": "C" 
			},
			{
				"x": -1.2470531772,
				"y": -1.8455163328,
				"z": 0.6246969839,
				"element": "O" 
			},
			{
				"x": -2.0459516453,
				"y": -1.9616403143,
				"z": 1.7280274811,
				"element": "C" 
			},
			{
				"x": -1.920363444,
				"y": -2.9889396786,
				"z": 2.6676821982,
				"element": "C" 
			},
			{
				"x": -2.7751459448,
				"y": -3.03382884,
				"z": 3.7713750856,
				"element": "C" 
			},
			{
				"x": -3.7534401053,
				"y": -2.0594375182,
				"z": 3.9500679713,
				"element": "C" 
			},
			{
				"x": -3.8704530031,
				"y": -1.0344951758,
				"z": 3.0111656874,
				"element": "C" 
			},
			{
				"x": -3.0327962038,
				"y": -0.962059881,
				"z": 1.893925305,
				"element": "C" 
			},
			{
				"x": -3.2487162776,
				"y": 0.1444731949,
				"z": 0.9045730218,
				"element": "C" 
			},
			{
				"x": -2.0393954036,
				"y": 0.8576451137,
				"z": 0.5010464559,
				"element": "N" 
			},
			{
				"x": -2.3668573699,
				"y": 1.4606186972,
				"z": -0.7247102464,
				"element": "N" 
			},
			{
				"x": -1.8670987615,
				"y": 2.5139976107,
				"z": -1.4403489769,
				"element": "C" 
			},
			{
				"x": -0.7409886543,
				"y": 3.3855413688,
				"z": -0.990298521,
				"element": "C" 
			},
			{
				"x": 0.4769551758,
				"y": 2.6696674683,
				"z": -0.7798190186,
				"element": "O" 
			},
			{
				"x": 1.2587006942,
				"y": 2.3354046536,
				"z": -1.8620999147,
				"element": "C" 
			},
			{
				"x": 0.8771824548,
				"y": 2.4783379581,
				"z": -3.2009413007,
				"element": "C" 
			},
			{
				"x": 1.7761298559,
				"y": 2.1051390493,
				"z": -4.2058584428,
				"element": "C" 
			},
			{
				"x": 3.0342349235,
				"y": 1.5929522845,
				"z": -3.8950663475,
				"element": "C" 
			},
			{
				"x": 3.400068391,
				"y": 1.4486281334,
				"z": -2.5528299799,
				"element": "C" 
			},
			{
				"x": 2.5207566715,
				"y": 1.8170814229,
				"z": -1.5395902334,
				"element": "C" 
			},
			{
				"x": -2.5275854207,
				"y": 2.6023403938,
				"z": -2.5765480994,
				"element": "N" 
			},
			{
				"x": -3.497505178,
				"y": 1.6039221263,
				"z": -2.612687203,
				"element": "N" 
			},
			{
				"x": -3.3639665748,
				"y": 0.9270386907,
				"z": -1.4983836386,
				"element": "C" 
			},
			{
				"x": -4.1209316481,
				"y": -0.4591066521,
				"z": -0.7251217789,
				"element": "S" 
			},
			{
				"x": 0.1854532791,
				"y": -2.5793259788,
				"z": -0.5890364967,
				"element": "H" 
			},
			{
				"x": -0.7727129151,
				"y": -3.8396547016,
				"z": 0.2343175882,
				"element": "H" 
			},
			{
				"x": 0.470703872,
				"y": -2.9211713606,
				"z": 1.1395570396,
				"element": "H" 
			},
			{
				"x": -1.1630003222,
				"y": -3.7535370663,
				"z": 2.546755387,
				"element": "H" 
			},
			{
				"x": -2.6657676067,
				"y": -3.8384797283,
				"z": 4.4924263997,
				"element": "H" 
			},
			{
				"x": -4.417132783,
				"y": -2.092474817,
				"z": 4.8076093962,
				"element": "H" 
			},
			{
				"x": -4.6311753711,
				"y": -0.2694798662,
				"z": 3.1409708748,
				"element": "H" 
			},
			{
				"x": -3.9529892508,
				"y": 0.8743231382,
				"z": 1.3075893007,
				"element": "H" 
			},
			{
				"x": -1.2965532902,
				"y": 0.1802710791,
				"z": 0.3201561578,
				"element": "H" 
			},
			{
				"x": -0.6182346734,
				"y": 4.192024892,
				"z": -1.7204723416,
				"element": "H" 
			},
			{
				"x": -0.9693419723,
				"y": 3.8237880617,
				"z": -0.0144185438,
				"element": "H" 
			},
			{
				"x": -0.1070798426,
				"y": 2.8420541344,
				"z": -3.4710499692,
				"element": "H" 
			},
			{
				"x": 1.4744732961,
				"y": 2.2147305457,
				"z": -5.2437229128,
				"element": "H" 
			},
			{
				"x": 3.7215078653,
				"y": 1.3070157838,
				"z": -4.6853611555,
				"element": "H" 
			},
			{
				"x": 4.3779424962,
				"y": 1.052622689,
				"z": -2.2928582323,
				"element": "H" 
			},
			{
				"x": 2.7900385483,
				"y": 1.7226877703,
				"z": -0.4923414214,
				"element": "H" 
			}
		],
		 "valence_orbital": [ 
			{
				"type": "occ",
				"energy": -0.25039,
				"method": "rhf"
			},
			{
				"type": "occ",
				"energy": -0.24577,
				"method": "rhf"
			},
			{
				"type": "occ",
				"energy": -0.24523,
				"method": "rhf"
			},
			{
				"type": "occ",
				"energy": -0.22207,
				"method": "rhf"
			},
			{
				"type": "occ",
				"energy": -0.21828,
				"method": "rhf"
			},
			{
				"type": "unocc",
				"energy": -0.04337,
				"method": "rhf"
			},
			{
				"type": "unocc",
				"energy": -0.01483,
				"method": "rhf"
			},
			{
				"type": "unocc",
				"energy": -0.00079,
				"method": "rhf"
			},
			{
				"type": "unocc",
				"energy": 0.00305,
				"method": "rhf"
			},
			{
				"type": "unocc",
				"energy": 0.01316,
				"method": "rhf"
			}
		],
		"cosmo_sigma_profile": { 
			"-0.025": 0.0,
			"-0.024": 0.0,
			"-0.023": 0.0,
			"-0.022": 0.0,
			"-0.021": 0.0,
			"-0.02": 0.0,
			"-0.019": 0.0,
			"-0.018": 0.0,
			"-0.017": 0.0,
			"-0.016": 0.0,
			"-0.015": 0.0,
			"-0.014": 0.0,
			"-0.013": 0.0,
			"-0.012": 0.0,
			"-0.011": 0.0,
			"-0.01": 0.147339658469,
			"-0.009": 2.52742308893,
			"-0.008": 7.24666911663,
			"-0.007": 12.5879842718,
			"-0.006": 26.4687888319,
			"-0.005": 32.6206349626,
			"-0.004": 30.9845746029,
			"-0.003": 30.0620248319,
			"-0.002": 21.4387974991,
			"-0.001": 21.3992684515,
			"0.0": 22.1755448788,
			"0.001": 19.7542577791,
			"0.002": 25.7081941665,
			"0.003": 24.6776966312,
			"0.004": 24.7413420896,
			"0.005": 20.7284390303,
			"0.006": 12.9266346681,
			"0.007": 5.8906664717,
			"0.008": 4.84783955474,
			"0.009": 3.56240493809,
			"0.01": 2.1759030124,
			"0.011": 2.51285960529,
			"0.012": 3.08959446043,
			"0.013": 3.38010719598,
			"0.014": 2.82860459641,
			"0.015": 2.14473885974,
			"0.016": 1.4817729356,
			"0.017": 0.22766357821,
			"0.018": 0.0,
			"0.019": 0.0,
			"0.02": 0.0,
			"0.021": 0.0,
			"0.022": 0.0,
			"0.023": 0.0,
			"0.024": 0.0,
			"0.025": 0.0
		}
	}
}
