{
	 "smiles": "CC1=NN(C2CCS(=O)(=O)C2)C(C)=C1C=O", 
	 "Tm": 396.15, 
	 "num_atms": 30, 
	 "gaussian": { 
		 "optdone": 1, 
		 "sigma_profile": "yes", 
		 "theory": "DFT", 
		 "functional": "B3LYP", 
		 "basiset": "6-31G**", 
		 "properties": { 
			 "R2extent": 5462.9787, 
			 "electric_dipole_moment_norm": 3.14323194817, 
			 "electric_quadrupole_moment_norm": 41.1365548073, 
			 "total_energy": -1122.79138357, 
			 "HOMO_LUMO_gap": 0.20376, 
			 "cosmo_polarized_energy": -21.9, 
			 "cosmo_cavitation_energy": 33.98, 
			 "cosmo_dispersion_energy": -24.37, 
			 "cosmo_repulsion_energy": 1.86, 
			 "cosmo_total_nonelectrostatic_energy": 11.46, 
			 "SMD_solvation_energy": 5.31 
		},
		"coords": [
			{
				"x": -0.7319488923,
				"y": 2.6911881094,
				"z": -0.2962208863,
				"element": "C" 
			},
			{
				"x": -0.6240558811,
				"y": 1.2629782105,
				"z": -0.7363642375,
				"element": "C" 
			},
			{
				"x": 0.437595141,
				"y": 0.5398103611,
				"z": -0.4070305461,
				"element": "N" 
			},
			{
				"x": 0.2229206621,
				"y": -0.6935195459,
				"z": -0.9599692334,
				"element": "N" 
			},
			{
				"x": 1.2292024467,
				"y": -1.7320344631,
				"z": -0.7521955684,
				"element": "C" 
			},
			{
				"x": 1.4041025139,
				"y": -2.0584458951,
				"z": 0.7671557788,
				"element": "C" 
			},
			{
				"x": 2.5523538796,
				"y": -1.2169537676,
				"z": 1.3206414403,
				"element": "C" 
			},
			{
				"x": 3.8170406997,
				"y": -1.3652033015,
				"z": 0.0206365347,
				"element": "S" 
			},
			{
				"x": 4.3517341915,
				"y": -2.737753963,
				"z": 0.0678112046,
				"element": "O" 
			},
			{
				"x": 4.7219667521,
				"y": -0.2096047632,
				"z": -0.0147200222,
				"element": "O" 
			},
			{
				"x": 2.5926715824,
				"y": -1.2913166044,
				"z": -1.3446712129,
				"element": "C" 
			},
			{
				"x": -0.9505323372,
				"y": -0.7739243221,
				"z": -1.6319885749,
				"element": "C" 
			},
			{
				"x": -1.4423588447,
				"y": -1.9981726422,
				"z": -2.3357327023,
				"element": "C" 
			},
			{
				"x": -1.5423171174,
				"y": 0.4908958355,
				"z": -1.5121992887,
				"element": "C" 
			},
			{
				"x": -2.816919237,
				"y": 0.9314181037,
				"z": -2.060617118,
				"element": "C" 
			},
			{
				"x": -3.5861288378,
				"y": 0.2470257275,
				"z": -2.7220619821,
				"element": "O" 
			},
			{
				"x": 0.1549751976,
				"y": 2.9641886293,
				"z": 0.2790816935,
				"element": "H" 
			},
			{
				"x": -0.8100540789,
				"y": 3.3695854063,
				"z": -1.1524151232,
				"element": "H" 
			},
			{
				"x": -1.6151869641,
				"y": 2.8525621928,
				"z": 0.3310474643,
				"element": "H" 
			},
			{
				"x": 0.8619538744,
				"y": -2.6184401042,
				"z": -1.2694633547,
				"element": "H" 
			},
			{
				"x": 1.6475360895,
				"y": -3.1193402485,
				"z": 0.8721386389,
				"element": "H" 
			},
			{
				"x": 0.4698312908,
				"y": -1.8652651691,
				"z": 1.2987854028,
				"element": "H" 
			},
			{
				"x": 2.2878036381,
				"y": -0.1611505714,
				"z": 1.4044876411,
				"element": "H" 
			},
			{
				"x": 2.9792129091,
				"y": -1.5933606777,
				"z": 2.2516671659,
				"element": "H" 
			},
			{
				"x": 2.559624172,
				"y": -0.2586011136,
				"z": -1.6919956581,
				"element": "H" 
			},
			{
				"x": 2.958429986,
				"y": -1.9492619792,
				"z": -2.1341990987,
				"element": "H" 
			},
			{
				"x": -1.5774266105,
				"y": -2.8372427253,
				"z": -1.6435294153,
				"element": "H" 
			},
			{
				"x": -2.4040809296,
				"y": -1.7657832731,
				"z": -2.7929191265,
				"element": "H" 
			},
			{
				"x": -0.7486197325,
				"y": -2.3198685962,
				"z": -3.1209532598,
				"element": "H" 
			},
			{
				"x": -3.0721255632,
				"y": 1.9889911505,
				"z": -1.8325065558,
				"element": "H" 
			}
		],
		 "valence_orbital": [ 
			{
				"type": "occ",
				"energy": -0.29758,
				"method": "rhf"
			},
			{
				"type": "occ",
				"energy": -0.28721,
				"method": "rhf"
			},
			{
				"type": "occ",
				"energy": -0.2673,
				"method": "rhf"
			},
			{
				"type": "occ",
				"energy": -0.26055,
				"method": "rhf"
			},
			{
				"type": "occ",
				"energy": -0.25489,
				"method": "rhf"
			},
			{
				"type": "unocc",
				"energy": -0.05113,
				"method": "rhf"
			},
			{
				"type": "unocc",
				"energy": -0.00407,
				"method": "rhf"
			},
			{
				"type": "unocc",
				"energy": 0.04609,
				"method": "rhf"
			},
			{
				"type": "unocc",
				"energy": 0.05568,
				"method": "rhf"
			},
			{
				"type": "unocc",
				"energy": 0.06449,
				"method": "rhf"
			}
		],
		"cosmo_sigma_profile": { 
			"-0.025": 0.0,
			"-0.024": 0.0,
			"-0.023": 0.0,
			"-0.022": 0.0,
			"-0.021": 0.0,
			"-0.02": 0.0,
			"-0.019": 0.0,
			"-0.018": 0.0,
			"-0.017": 0.0,
			"-0.016": 0.0,
			"-0.015": 0.0,
			"-0.014": 0.0,
			"-0.013": 0.0,
			"-0.012": 0.0,
			"-0.011": 0.0,
			"-0.01": 0.0,
			"-0.009": 4.95674520104,
			"-0.008": 10.8852466815,
			"-0.007": 11.7872351205,
			"-0.006": 18.3091509678,
			"-0.005": 27.8663598675,
			"-0.004": 24.874650254,
			"-0.003": 18.4693435519,
			"-0.002": 18.8590617227,
			"-0.001": 20.1256178598,
			"0.0": 13.5229628514,
			"0.001": 12.3017772912,
			"0.002": 11.7731001636,
			"0.003": 7.37910834391,
			"0.004": 5.10400766098,
			"0.005": 5.21039967817,
			"0.006": 5.49841801547,
			"0.007": 5.08376824354,
			"0.008": 4.27016153,
			"0.009": 5.80913471396,
			"0.01": 6.71318641138,
			"0.011": 13.2526345143,
			"0.012": 12.3830608057,
			"0.013": 3.57924222404,
			"0.014": 0.654002973697,
			"0.015": 0.0,
			"0.016": 0.0,
			"0.017": 0.0,
			"0.018": 0.0,
			"0.019": 0.0,
			"0.02": 0.0,
			"0.021": 0.0,
			"0.022": 0.0,
			"0.023": 0.0,
			"0.024": 0.0,
			"0.025": 0.0
		}
	}
}
