{
	 "smiles": "BrCCOC1=CC=C(OC2=CC=CC=C2)C=C1", 
	 "Tm": 309.15, 
	 "num_atms": 30, 
	 "gaussian": { 
		 "optdone": 1, 
		 "sigma_profile": "yes", 
		 "theory": "DFT", 
		 "functional": "B3LYP", 
		 "basiset": "6-31G**", 
		 "properties": { 
			 "R2extent": 9874.3304, 
			 "electric_dipole_moment_norm": 3.03278824022, 
			 "electric_quadrupole_moment_norm": 11.0999534864, 
			 "total_energy": -3263.15643229, 
			 "HOMO_LUMO_gap": 0.19323, 
			 "cosmo_polarized_energy": -11.64, 
			 "cosmo_cavitation_energy": 36.5, 
			 "cosmo_dispersion_energy": -26.53, 
			 "cosmo_repulsion_energy": 2.09, 
			 "cosmo_total_nonelectrostatic_energy": 12.06, 
			 "SMD_solvation_energy": 5.32 
		},
		"coords": [
			{
				"x": -4.3101752996,
				"y": -4.1264502995,
				"z": -0.2396667912,
				"element": "Br" 
			},
			{
				"x": -3.9955322075,
				"y": -2.6335441509,
				"z": 1.012825302,
				"element": "C" 
			},
			{
				"x": -2.7622955058,
				"y": -2.8608422891,
				"z": 1.8752108822,
				"element": "C" 
			},
			{
				"x": -1.551490142,
				"y": -2.920911392,
				"z": 1.1430246871,
				"element": "O" 
			},
			{
				"x": -0.9892733451,
				"y": -1.7695168574,
				"z": 0.6520073897,
				"element": "C" 
			},
			{
				"x": -1.4232739964,
				"y": -0.4694905953,
				"z": 0.9390639727,
				"element": "C" 
			},
			{
				"x": -0.7478992785,
				"y": 0.6280293513,
				"z": 0.3977218627,
				"element": "C" 
			},
			{
				"x": 0.364412797,
				"y": 0.4325494117,
				"z": -0.4190270588,
				"element": "C" 
			},
			{
				"x": 1.0124896499,
				"y": 1.4838186557,
				"z": -1.0450387467,
				"element": "O" 
			},
			{
				"x": 1.4674122863,
				"y": 2.5615924163,
				"z": -0.3127601245,
				"element": "C" 
			},
			{
				"x": 1.8355613064,
				"y": 2.477217864,
				"z": 1.0336298394,
				"element": "C" 
			},
			{
				"x": 2.3381235715,
				"y": 3.6111847071,
				"z": 1.6746575421,
				"element": "C" 
			},
			{
				"x": 2.4812524295,
				"y": 4.8171362703,
				"z": 0.9867642736,
				"element": "C" 
			},
			{
				"x": 2.1168991066,
				"y": 4.8851030895,
				"z": -0.360534956,
				"element": "C" 
			},
			{
				"x": 1.6079692833,
				"y": 3.7637335357,
				"z": -1.0127375694,
				"element": "C" 
			},
			{
				"x": 0.7988970223,
				"y": -0.8637128995,
				"z": -0.7084639242,
				"element": "C" 
			},
			{
				"x": 0.1221636983,
				"y": -1.9570380109,
				"z": -0.1813123779,
				"element": "C" 
			},
			{
				"x": -4.8892509061,
				"y": -2.567633278,
				"z": 1.6342663953,
				"element": "H" 
			},
			{
				"x": -3.9105792934,
				"y": -1.7421710239,
				"z": 0.3931510794,
				"element": "H" 
			},
			{
				"x": -2.8363755963,
				"y": -3.8232672076,
				"z": 2.3866693366,
				"element": "H" 
			},
			{
				"x": -2.7217983233,
				"y": -2.0752697323,
				"z": 2.6447567809,
				"element": "H" 
			},
			{
				"x": -2.2827187001,
				"y": -0.2877000877,
				"z": 1.573695651,
				"element": "H" 
			},
			{
				"x": -1.0906213538,
				"y": 1.6351195606,
				"z": 0.610904805,
				"element": "H" 
			},
			{
				"x": 1.7343094791,
				"y": 1.5392279677,
				"z": 1.5679154161,
				"element": "H" 
			},
			{
				"x": 2.6254061026,
				"y": 3.5440425354,
				"z": 2.7203046573,
				"element": "H" 
			},
			{
				"x": 2.8736397578,
				"y": 5.6934333677,
				"z": 1.4934133407,
				"element": "H" 
			},
			{
				"x": 2.2244656623,
				"y": 5.817095843,
				"z": -0.9081622046,
				"element": "H" 
			},
			{
				"x": 1.3179395147,
				"y": 3.7963539232,
				"z": -2.0578144634,
				"element": "H" 
			},
			{
				"x": 1.6606126123,
				"y": -0.9987553237,
				"z": -1.3536622992,
				"element": "H" 
			},
			{
				"x": 0.4411296679,
				"y": -2.9711353516,
				"z": -0.3970026977,
				"element": "H" 
			}
		],
		 "valence_orbital": [ 
			{
				"type": "occ",
				"energy": -0.27411,
				"method": "rhf"
			},
			{
				"type": "occ",
				"energy": -0.26106,
				"method": "rhf"
			},
			{
				"type": "occ",
				"energy": -0.25141,
				"method": "rhf"
			},
			{
				"type": "occ",
				"energy": -0.23589,
				"method": "rhf"
			},
			{
				"type": "occ",
				"energy": -0.20954,
				"method": "rhf"
			},
			{
				"type": "unocc",
				"energy": -0.01631,
				"method": "rhf"
			},
			{
				"type": "unocc",
				"energy": -0.00284,
				"method": "rhf"
			},
			{
				"type": "unocc",
				"energy": 0.0012,
				"method": "rhf"
			},
			{
				"type": "unocc",
				"energy": 0.00232,
				"method": "rhf"
			},
			{
				"type": "unocc",
				"energy": 0.01676,
				"method": "rhf"
			}
		],
		"cosmo_sigma_profile": { 
			"-0.025": 0.0,
			"-0.024": 0.0,
			"-0.023": 0.0,
			"-0.022": 0.0,
			"-0.021": 0.0,
			"-0.02": 0.0,
			"-0.019": 0.0,
			"-0.018": 0.0,
			"-0.017": 0.0,
			"-0.016": 0.0,
			"-0.015": 0.0,
			"-0.014": 0.0,
			"-0.013": 0.0,
			"-0.012": 0.0,
			"-0.011": 0.0,
			"-0.01": 0.269183347126,
			"-0.009": 1.52281228349,
			"-0.008": 5.85607380739,
			"-0.007": 11.2438882877,
			"-0.006": 20.1999545437,
			"-0.005": 23.2182544352,
			"-0.004": 21.0555738522,
			"-0.003": 19.8749425793,
			"-0.002": 15.8829150284,
			"-0.001": 17.4616103597,
			"0.0": 15.766709722,
			"0.001": 16.6781802854,
			"0.002": 20.1544939269,
			"0.003": 24.1788724246,
			"0.004": 28.1038900686,
			"0.005": 21.5774961587,
			"0.006": 17.6740557729,
			"0.007": 5.71110936193,
			"0.008": 3.83607132824,
			"0.009": 3.04952413049,
			"0.01": 1.55738579069,
			"0.011": 0.049675629476,
			"0.012": 0.0,
			"0.013": 0.0,
			"0.014": 0.0,
			"0.015": 0.0,
			"0.016": 0.0,
			"0.017": 0.0,
			"0.018": 0.0,
			"0.019": 0.0,
			"0.02": 0.0,
			"0.021": 0.0,
			"0.022": 0.0,
			"0.023": 0.0,
			"0.024": 0.0,
			"0.025": 0.0
		}
	}
}
