{
	 "smiles": "OC(=O)C1=CC(O)=C(Br)C=C1", 
	 "Tm": 493.15, 
	 "num_atms": 16, 
	 "gaussian": { 
		 "optdone": 1, 
		 "sigma_profile": "yes", 
		 "theory": "DFT", 
		 "functional": "B3LYP", 
		 "basiset": "6-31G**", 
		 "properties": { 
			 "R2extent": 3641.7367, 
			 "electric_dipole_moment_norm": 2.21843720894, 
			 "electric_quadrupole_moment_norm": 22.5404610521, 
			 "total_energy": -3066.8342247, 
			 "HOMO_LUMO_gap": 0.1856, 
			 "cosmo_polarized_energy": -17.9, 
			 "cosmo_cavitation_energy": 23.35, 
			 "cosmo_dispersion_energy": -17.87, 
			 "cosmo_repulsion_energy": 1.43, 
			 "cosmo_total_nonelectrostatic_energy": 6.91, 
			 "SMD_solvation_energy": 4.53 
		},
		"coords": [
			{
				"x": -3.6340973255,
				"y": -2.9419970143,
				"z": 1.0981811312,
				"element": "O" 
			},
			{
				"x": -2.8301986641,
				"y": -2.4110205308,
				"z": 0.1407640497,
				"element": "C" 
			},
			{
				"x": -2.7282268567,
				"y": -2.9542813484,
				"z": -0.9343769846,
				"element": "O" 
			},
			{
				"x": -2.098647314,
				"y": -1.1501164616,
				"z": 0.4945813372,
				"element": "C" 
			},
			{
				"x": -0.9995051165,
				"y": -0.8118360321,
				"z": -0.3008577529,
				"element": "C" 
			},
			{
				"x": -0.2572943535,
				"y": 0.3428815621,
				"z": -0.0501244095,
				"element": "C" 
			},
			{
				"x": 0.821053567,
				"y": 0.6974600857,
				"z": -0.7909928744,
				"element": "O" 
			},
			{
				"x": -0.6430326271,
				"y": 1.1759751919,
				"z": 1.0157137673,
				"element": "C" 
			},
			{
				"x": 0.3459616814,
				"y": 2.7549965005,
				"z": 1.3823681583,
				"element": "Br" 
			},
			{
				"x": -1.7489543312,
				"y": 0.855849565,
				"z": 1.7980423685,
				"element": "C" 
			},
			{
				"x": -2.4793808772,
				"y": -0.3042327034,
				"z": 1.5437521409,
				"element": "C" 
			},
			{
				"x": -3.4868991085,
				"y": -2.49784111,
				"z": 1.944648422,
				"element": "H" 
			},
			{
				"x": -0.7375610072,
				"y": -1.4716150343,
				"z": -1.1235731453,
				"element": "H" 
			},
			{
				"x": 0.956168716,
				"y": 0.0437375403,
				"z": -1.4900780097,
				"element": "H" 
			},
			{
				"x": -2.0385915635,
				"y": 1.5235497521,
				"z": 2.6013011404,
				"element": "H" 
			},
			{
				"x": -3.3634948192,
				"y": -0.5050099627,
				"z": 2.1422506608,
				"element": "H" 
			}
		],
		 "valence_orbital": [ 
			{
				"type": "occ",
				"energy": -0.31841,
				"method": "rhf"
			},
			{
				"type": "occ",
				"energy": -0.29503,
				"method": "rhf"
			},
			{
				"type": "occ",
				"energy": -0.28199,
				"method": "rhf"
			},
			{
				"type": "occ",
				"energy": -0.26656,
				"method": "rhf"
			},
			{
				"type": "occ",
				"energy": -0.24665,
				"method": "rhf"
			},
			{
				"type": "unocc",
				"energy": -0.06105,
				"method": "rhf"
			},
			{
				"type": "unocc",
				"energy": -0.02416,
				"method": "rhf"
			},
			{
				"type": "unocc",
				"energy": -0.003,
				"method": "rhf"
			},
			{
				"type": "unocc",
				"energy": 0.04255,
				"method": "rhf"
			},
			{
				"type": "unocc",
				"energy": 0.05261,
				"method": "rhf"
			}
		],
		"cosmo_sigma_profile": { 
			"-0.025": 0.0,
			"-0.024": 0.0,
			"-0.023": 0.0,
			"-0.022": 0.0,
			"-0.021": 0.0,
			"-0.02": 0.0,
			"-0.019": 0.949913970314,
			"-0.018": 2.39586678101,
			"-0.017": 2.29265155826,
			"-0.016": 1.68983139914,
			"-0.015": 2.50610353908,
			"-0.014": 1.31062912447,
			"-0.013": 1.37034465232,
			"-0.012": 2.90865792576,
			"-0.011": 3.00946249925,
			"-0.01": 2.04860815816,
			"-0.009": 1.7466362125,
			"-0.008": 4.12014885914,
			"-0.007": 5.80646493426,
			"-0.006": 5.22110609335,
			"-0.005": 5.62775993698,
			"-0.004": 6.71364795804,
			"-0.003": 7.84190707979,
			"-0.002": 7.06349383901,
			"-0.001": 8.92845360173,
			"0.0": 13.2876982476,
			"0.001": 20.2196773324,
			"0.002": 16.7040172834,
			"0.003": 12.2234207081,
			"0.004": 11.3814526832,
			"0.005": 6.56979179025,
			"0.006": 3.68788632069,
			"0.007": 4.82904095077,
			"0.008": 4.50598135249,
			"0.009": 5.69295717614,
			"0.01": 7.11033431908,
			"0.011": 5.70711750283,
			"0.012": 3.83696164909,
			"0.013": 1.20321623726,
			"0.014": 0.00652292304113,
			"0.015": 0.0,
			"0.016": 0.0,
			"0.017": 0.0,
			"0.018": 0.0,
			"0.019": 0.0,
			"0.02": 0.0,
			"0.021": 0.0,
			"0.022": 0.0,
			"0.023": 0.0,
			"0.024": 0.0,
			"0.025": 0.0
		}
	}
}
