{
	 "smiles": "ClCC1=NC2=C(N1)C=C(Br)C=N2", 
	 "Tm": 483.15, 
	 "num_atms": 17, 
	 "gaussian": { 
		 "optdone": 1, 
		 "sigma_profile": "yes", 
		 "theory": "DFT", 
		 "functional": "B3LYP", 
		 "basiset": "6-31G**", 
		 "properties": { 
			 "R2extent": 5046.7028, 
			 "electric_dipole_moment_norm": 3.90188189083, 
			 "electric_quadrupole_moment_norm": 8.63911886306, 
			 "total_energy": -3465.61553532, 
			 "HOMO_LUMO_gap": 0.1843, 
			 "cosmo_polarized_energy": -16.31, 
			 "cosmo_cavitation_energy": 25.99, 
			 "cosmo_dispersion_energy": -20.15, 
			 "cosmo_repulsion_energy": 1.61, 
			 "cosmo_total_nonelectrostatic_energy": 7.44, 
			 "SMD_solvation_energy": -0.96 
		},
		"coords": [
			{
				"x": -0.4092531696,
				"y": 2.1139712799,
				"z": -4.7034678009,
				"element": "Cl" 
			},
			{
				"x": -1.2293910924,
				"y": 0.7067986165,
				"z": -3.8902828553,
				"element": "C" 
			},
			{
				"x": -0.6887282946,
				"y": 0.4495141688,
				"z": -2.5241372875,
				"element": "C" 
			},
			{
				"x": -1.4381399699,
				"y": 0.1329609208,
				"z": -1.4976748637,
				"element": "N" 
			},
			{
				"x": -0.5433176432,
				"y": -0.0891092893,
				"z": -0.4641269467,
				"element": "C" 
			},
			{
				"x": 0.7881101107,
				"y": 0.1198895396,
				"z": -0.913267723,
				"element": "C" 
			},
			{
				"x": 0.6640166104,
				"y": 0.4487810675,
				"z": -2.2460759165,
				"element": "N" 
			},
			{
				"x": 1.864522613,
				"y": -0.0245132749,
				"z": -0.0432804582,
				"element": "C" 
			},
			{
				"x": 1.5141121808,
				"y": -0.3869593033,
				"z": 1.2535554732,
				"element": "C" 
			},
			{
				"x": 2.875048371,
				"y": -0.6300435377,
				"z": 2.5675844703,
				"element": "Br" 
			},
			{
				"x": 0.1675693609,
				"y": -0.5833247241,
				"z": 1.6249234667,
				"element": "C" 
			},
			{
				"x": -0.8568973899,
				"y": -0.4388769147,
				"z": 0.7866620231,
				"element": "N" 
			},
			{
				"x": -2.2920464451,
				"y": 0.9293130345,
				"z": -3.8145282471,
				"element": "H" 
			},
			{
				"x": -1.0790971548,
				"y": -0.1475517127,
				"z": -4.5540904338,
				"element": "H" 
			},
			{
				"x": 1.3896599137,
				"y": 0.7600049268,
				"z": -2.8750645249,
				"element": "H" 
			},
			{
				"x": 2.8974869221,
				"y": 0.1266658234,
				"z": -0.3351419686,
				"element": "H" 
			},
			{
				"x": -0.065454923,
				"y": -0.8679206212,
				"z": 2.647313593,
				"element": "H" 
			}
		],
		 "valence_orbital": [ 
			{
				"type": "occ",
				"energy": -0.307,
				"method": "rhf"
			},
			{
				"type": "occ",
				"energy": -0.29708,
				"method": "rhf"
			},
			{
				"type": "occ",
				"energy": -0.26765,
				"method": "rhf"
			},
			{
				"type": "occ",
				"energy": -0.26586,
				"method": "rhf"
			},
			{
				"type": "occ",
				"energy": -0.24154,
				"method": "rhf"
			},
			{
				"type": "unocc",
				"energy": -0.05724,
				"method": "rhf"
			},
			{
				"type": "unocc",
				"energy": -0.01505,
				"method": "rhf"
			},
			{
				"type": "unocc",
				"energy": -0.00202,
				"method": "rhf"
			},
			{
				"type": "unocc",
				"energy": 0.00094,
				"method": "rhf"
			},
			{
				"type": "unocc",
				"energy": 0.03608,
				"method": "rhf"
			}
		],
		"cosmo_sigma_profile": { 
			"-0.025": 0.0,
			"-0.024": 0.0,
			"-0.023": 0.0,
			"-0.022": 0.0,
			"-0.021": 0.0,
			"-0.02": 0.0,
			"-0.019": 0.0,
			"-0.018": 0.0,
			"-0.017": 1.01282550257,
			"-0.016": 0.72089038362,
			"-0.015": 1.26978215168,
			"-0.014": 0.941663113009,
			"-0.013": 1.14654091991,
			"-0.012": 1.9055556953,
			"-0.011": 1.01257893256,
			"-0.01": 2.57891839368,
			"-0.009": 8.08439790486,
			"-0.008": 6.23294053589,
			"-0.007": 7.68909846356,
			"-0.006": 7.42620310971,
			"-0.005": 8.15909864853,
			"-0.004": 6.04867237664,
			"-0.003": 8.9815765583,
			"-0.002": 11.8633841526,
			"-0.001": 18.066603999,
			"0.0": 20.0027548566,
			"0.001": 18.8654175571,
			"0.002": 13.0064088975,
			"0.003": 14.7166960745,
			"0.004": 18.1279172933,
			"0.005": 11.1271993859,
			"0.006": 4.85109740441,
			"0.007": 2.05794818451,
			"0.008": 1.84497711946,
			"0.009": 2.20471624793,
			"0.01": 2.15190764873,
			"0.011": 1.86195359611,
			"0.012": 2.28685066564,
			"0.013": 3.0878580405,
			"0.014": 2.60861181882,
			"0.015": 2.19954710822,
			"0.016": 0.758379530248,
			"0.017": 0.0,
			"0.018": 0.0,
			"0.019": 0.0,
			"0.02": 0.0,
			"0.021": 0.0,
			"0.022": 0.0,
			"0.023": 0.0,
			"0.024": 0.0,
			"0.025": 0.0
		}
	}
}
