{
	 "smiles": "ClC1OS(=O)(=O)C2=C1C=CC=C2", 
	 "Tm": 386.15, 
	 "num_atms": 17, 
	 "gaussian": { 
		 "optdone": 1, 
		 "sigma_profile": "yes", 
		 "theory": "DFT", 
		 "functional": "B3LYP", 
		 "basiset": "6-31G**", 
		 "properties": { 
			 "R2extent": 2857.473, 
			 "electric_dipole_moment_norm": 6.41057444072, 
			 "electric_quadrupole_moment_norm": 11.1576646141, 
			 "total_energy": -1353.72525678, 
			 "HOMO_LUMO_gap": 0.22678, 
			 "cosmo_polarized_energy": -14.38, 
			 "cosmo_cavitation_energy": 24.59, 
			 "cosmo_dispersion_energy": -18.86, 
			 "cosmo_repulsion_energy": 1.46, 
			 "cosmo_total_nonelectrostatic_energy": 7.19, 
			 "SMD_solvation_energy": 2.58 
		},
		"coords": [
			{
				"x": 2.6188913066,
				"y": -1.8589709854,
				"z": -0.5707220367,
				"element": "Cl" 
			},
			{
				"x": 2.1021443309,
				"y": -0.2718524836,
				"z": -1.3349749405,
				"element": "C" 
			},
			{
				"x": 2.7999520617,
				"y": 0.8082866671,
				"z": -0.7731266074,
				"element": "O" 
			},
			{
				"x": 1.8605631009,
				"y": 1.7645541136,
				"z": 0.2620763396,
				"element": "S" 
			},
			{
				"x": 2.0198649088,
				"y": 3.137707106,
				"z": -0.1900241894,
				"element": "O" 
			},
			{
				"x": 2.1379856296,
				"y": 1.3980593793,
				"z": 1.6421178253,
				"element": "O" 
			},
			{
				"x": 0.3456237053,
				"y": 1.029288377,
				"z": -0.3146457997,
				"element": "C" 
			},
			{
				"x": 0.6221322477,
				"y": -0.0477272292,
				"z": -1.1441703638,
				"element": "C" 
			},
			{
				"x": -0.4275169725,
				"y": -0.7815364713,
				"z": -1.6942152264,
				"element": "C" 
			},
			{
				"x": -1.7361690002,
				"y": -0.4014070359,
				"z": -1.392160807,
				"element": "C" 
			},
			{
				"x": -1.9968715344,
				"y": 0.6878172778,
				"z": -0.5498233532,
				"element": "C" 
			},
			{
				"x": -0.9493823616,
				"y": 1.4213452773,
				"z": 0.0085163105,
				"element": "C" 
			},
			{
				"x": 2.407235792,
				"y": -0.3588784603,
				"z": -2.3779619645,
				"element": "H" 
			},
			{
				"x": -0.2297609448,
				"y": -1.6348922791,
				"z": -2.3352766939,
				"element": "H" 
			},
			{
				"x": -2.5652429718,
				"y": -0.9593279062,
				"z": -1.8160195073,
				"element": "H" 
			},
			{
				"x": -3.0226946516,
				"y": 0.965581709,
				"z": -0.3298145154,
				"element": "H" 
			},
			{
				"x": -1.1365546466,
				"y": 2.267852944,
				"z": 0.6605255298,
				"element": "H" 
			}
		],
		 "valence_orbital": [ 
			{
				"type": "occ",
				"energy": -0.32734,
				"method": "rhf"
			},
			{
				"type": "occ",
				"energy": -0.31642,
				"method": "rhf"
			},
			{
				"type": "occ",
				"energy": -0.30619,
				"method": "rhf"
			},
			{
				"type": "occ",
				"energy": -0.29348,
				"method": "rhf"
			},
			{
				"type": "occ",
				"energy": -0.29054,
				"method": "rhf"
			},
			{
				"type": "unocc",
				"energy": -0.06376,
				"method": "rhf"
			},
			{
				"type": "unocc",
				"energy": -0.05642,
				"method": "rhf"
			},
			{
				"type": "unocc",
				"energy": 0.00557,
				"method": "rhf"
			},
			{
				"type": "unocc",
				"energy": 0.01735,
				"method": "rhf"
			},
			{
				"type": "unocc",
				"energy": 0.03388,
				"method": "rhf"
			}
		],
		"cosmo_sigma_profile": { 
			"-0.025": 0.0,
			"-0.024": 0.0,
			"-0.023": 0.0,
			"-0.022": 0.0,
			"-0.021": 0.0,
			"-0.02": 0.0,
			"-0.019": 0.0,
			"-0.018": 0.0,
			"-0.017": 0.0,
			"-0.016": 0.0,
			"-0.015": 0.0,
			"-0.014": 0.0,
			"-0.013": 0.0,
			"-0.012": 0.479897713934,
			"-0.011": 3.02490889216,
			"-0.01": 4.00290506201,
			"-0.009": 4.88241632102,
			"-0.008": 9.34513984015,
			"-0.007": 13.1314624165,
			"-0.006": 9.45174609673,
			"-0.005": 7.41009270295,
			"-0.004": 7.72316569954,
			"-0.003": 7.38743532453,
			"-0.002": 8.48973369541,
			"-0.001": 11.4417099273,
			"0.0": 16.205295939,
			"0.001": 17.7237932149,
			"0.002": 11.7758705121,
			"0.003": 7.75806791099,
			"0.004": 11.7984911487,
			"0.005": 13.5082295737,
			"0.006": 5.66100072643,
			"0.007": 4.51221832728,
			"0.008": 8.7608260454,
			"0.009": 13.7661920775,
			"0.01": 2.35980720875,
			"0.011": 0.0,
			"0.012": 0.0,
			"0.013": 0.0,
			"0.014": 0.0,
			"0.015": 0.0,
			"0.016": 0.0,
			"0.017": 0.0,
			"0.018": 0.0,
			"0.019": 0.0,
			"0.02": 0.0,
			"0.021": 0.0,
			"0.022": 0.0,
			"0.023": 0.0,
			"0.024": 0.0,
			"0.025": 0.0
		}
	}
}
