{
	 "smiles": "ClCC1=NC(=NC=C1)C1=CC=C(Br)C=C1", 
	 "Tm": 400.15, 
	 "num_atms": 23, 
	 "gaussian": { 
		 "optdone": 1, 
		 "sigma_profile": "yes", 
		 "theory": "DFT", 
		 "functional": "B3LYP", 
		 "basiset": "6-31G**", 
		 "properties": { 
			 "R2extent": 9482.2201, 
			 "electric_dipole_moment_norm": 1.4549072101, 
			 "electric_quadrupole_moment_norm": 11.473195632, 
			 "total_energy": -3565.10207453, 
			 "HOMO_LUMO_gap": 0.17461, 
			 "cosmo_polarized_energy": -7.58, 
			 "cosmo_cavitation_energy": 31.87, 
			 "cosmo_dispersion_energy": -24.17, 
			 "cosmo_repulsion_energy": 1.89, 
			 "cosmo_total_nonelectrostatic_energy": 9.6, 
			 "SMD_solvation_energy": 1.87 
		},
		"coords": [
			{
				"x": 4.3181565374,
				"y": -1.5082744327,
				"z": 0.8833015285,
				"element": "Cl" 
			},
			{
				"x": 2.9696313084,
				"y": -0.3299708675,
				"z": 1.1089911462,
				"element": "C" 
			},
			{
				"x": 1.7281249739,
				"y": -0.6149681987,
				"z": 0.2898941297,
				"element": "C" 
			},
			{
				"x": 0.7542118318,
				"y": 0.2789961413,
				"z": 0.4925937916,
				"element": "N" 
			},
			{
				"x": -0.3929749072,
				"y": 0.118152748,
				"z": -0.1876467022,
				"element": "C" 
			},
			{
				"x": -0.6370976155,
				"y": -0.8776754326,
				"z": -1.0603038778,
				"element": "N" 
			},
			{
				"x": 0.3451291437,
				"y": -1.7584246055,
				"z": -1.2489524604,
				"element": "C" 
			},
			{
				"x": 1.5736952389,
				"y": -1.6819006879,
				"z": -0.5930523144,
				"element": "C" 
			},
			{
				"x": -1.4712540544,
				"y": 1.1109836641,
				"z": 0.0390606259,
				"element": "C" 
			},
			{
				"x": -2.6940531467,
				"y": 0.9988367124,
				"z": -0.6405335665,
				"element": "C" 
			},
			{
				"x": -3.7109775036,
				"y": 1.9267458784,
				"z": -0.433144526,
				"element": "C" 
			},
			{
				"x": -3.5021849175,
				"y": 2.9758665374,
				"z": 0.4621243483,
				"element": "C" 
			},
			{
				"x": -4.892505601,
				"y": 4.2529519155,
				"z": 0.7521876243,
				"element": "Br" 
			},
			{
				"x": -2.2956672045,
				"y": 3.1090004161,
				"z": 1.1496725031,
				"element": "C" 
			},
			{
				"x": -1.2857791731,
				"y": 2.1754192652,
				"z": 0.9345724534,
				"element": "C" 
			},
			{
				"x": 2.7149438359,
				"y": -0.3311900697,
				"z": 2.1702579577,
				"element": "H" 
			},
			{
				"x": 3.3581489325,
				"y": 0.6570212327,
				"z": 0.8517824555,
				"element": "H" 
			},
			{
				"x": 0.1443862443,
				"y": -2.5624299487,
				"z": -1.9553377993,
				"element": "H" 
			},
			{
				"x": 2.3591000765,
				"y": -2.4073051949,
				"z": -0.7598915265,
				"element": "H" 
			},
			{
				"x": -2.8356511331,
				"y": 0.1761156452,
				"z": -1.3318256782,
				"element": "H" 
			},
			{
				"x": -4.6547750008,
				"y": 1.8385029708,
				"z": -0.9589509746,
				"element": "H" 
			},
			{
				"x": -2.1505698004,
				"y": 3.9305397487,
				"z": 1.8418003514,
				"element": "H" 
			},
			{
				"x": -0.3412380655,
				"y": 2.2616065623,
				"z": 1.4592005103,
				"element": "H" 
			}
		],
		 "valence_orbital": [ 
			{
				"type": "occ",
				"energy": -0.29063,
				"method": "rhf"
			},
			{
				"type": "occ",
				"energy": -0.28913,
				"method": "rhf"
			},
			{
				"type": "occ",
				"energy": -0.26546,
				"method": "rhf"
			},
			{
				"type": "occ",
				"energy": -0.26217,
				"method": "rhf"
			},
			{
				"type": "occ",
				"energy": -0.23801,
				"method": "rhf"
			},
			{
				"type": "unocc",
				"energy": -0.0634,
				"method": "rhf"
			},
			{
				"type": "unocc",
				"energy": -0.05234,
				"method": "rhf"
			},
			{
				"type": "unocc",
				"energy": -0.01247,
				"method": "rhf"
			},
			{
				"type": "unocc",
				"energy": 0.00665,
				"method": "rhf"
			},
			{
				"type": "unocc",
				"energy": 0.01567,
				"method": "rhf"
			}
		],
		"cosmo_sigma_profile": { 
			"-0.025": 0.0,
			"-0.024": 0.0,
			"-0.023": 0.0,
			"-0.022": 0.0,
			"-0.021": 0.0,
			"-0.02": 0.0,
			"-0.019": 0.0,
			"-0.018": 0.0,
			"-0.017": 0.0,
			"-0.016": 0.0,
			"-0.015": 0.0,
			"-0.014": 0.0,
			"-0.013": 0.0,
			"-0.012": 0.0,
			"-0.011": 0.0,
			"-0.01": 0.0,
			"-0.009": 1.41156830503,
			"-0.008": 6.33642521654,
			"-0.007": 11.1743130187,
			"-0.006": 11.5198301117,
			"-0.005": 13.8385812269,
			"-0.004": 12.4499354946,
			"-0.003": 13.5382097314,
			"-0.002": 16.3918707649,
			"-0.001": 22.437419386,
			"0.0": 23.0886853295,
			"0.001": 22.7845721259,
			"0.002": 28.9893093748,
			"0.003": 29.8682244341,
			"0.004": 18.8143630791,
			"0.005": 14.4159946102,
			"0.006": 7.81046325236,
			"0.007": 3.43843667961,
			"0.008": 1.36950177994,
			"0.009": 1.06028792542,
			"0.01": 1.20983221234,
			"0.011": 0.476052055801,
			"0.012": 0.0,
			"0.013": 0.0,
			"0.014": 0.0,
			"0.015": 0.0,
			"0.016": 0.0,
			"0.017": 0.0,
			"0.018": 0.0,
			"0.019": 0.0,
			"0.02": 0.0,
			"0.021": 0.0,
			"0.022": 0.0,
			"0.023": 0.0,
			"0.024": 0.0,
			"0.025": 0.0
		}
	}
}
