{
	 "smiles": "CCCN1C2=C(NC=N2)C(=O)NC1=O", 
	 "Tm": 562.15, 
	 "num_atms": 24, 
	 "gaussian": { 
		 "optdone": 1, 
		 "sigma_profile": "yes", 
		 "theory": "DFT", 
		 "functional": "B3LYP", 
		 "basiset": "6-31G**", 
		 "properties": { 
			 "R2extent": 3024.3736, 
			 "electric_dipole_moment_norm": 4.0190795501, 
			 "electric_quadrupole_moment_norm": 8.56975248359, 
			 "total_energy": -680.387121264, 
			 "HOMO_LUMO_gap": 0.18803, 
			 "cosmo_polarized_energy": -18.21, 
			 "cosmo_cavitation_energy": 28.24, 
			 "cosmo_dispersion_energy": -20.59, 
			 "cosmo_repulsion_energy": 1.63, 
			 "cosmo_total_nonelectrostatic_energy": 9.28, 
			 "SMD_solvation_energy": 4.91 
		},
		"coords": [
			{
				"x": -0.6900345676,
				"y": -2.9302690457,
				"z": 3.6666061898,
				"element": "C" 
			},
			{
				"x": -0.0126379614,
				"y": -2.2839426032,
				"z": 2.4545636776,
				"element": "C" 
			},
			{
				"x": -1.0284868564,
				"y": -1.9102292465,
				"z": 1.3695891262,
				"element": "C" 
			},
			{
				"x": -0.404262292,
				"y": -1.2880802399,
				"z": 0.1928461639,
				"element": "N" 
			},
			{
				"x": -0.2514255697,
				"y": 0.0790752194,
				"z": 0.0944769106,
				"element": "C" 
			},
			{
				"x": 0.3538010313,
				"y": 0.6764086846,
				"z": -0.9956879494,
				"element": "C" 
			},
			{
				"x": 0.3060666506,
				"y": 2.031019704,
				"z": -0.7280640124,
				"element": "N" 
			},
			{
				"x": -0.3080323709,
				"y": 2.1663356789,
				"z": 0.4754413913,
				"element": "C" 
			},
			{
				"x": -0.6621254762,
				"y": 1.0036177005,
				"z": 1.0092088135,
				"element": "N" 
			},
			{
				"x": 0.8837925273,
				"y": -0.0566154325,
				"z": -2.1112871354,
				"element": "C" 
			},
			{
				"x": 1.4341304147,
				"y": 0.38378471,
				"z": -3.1114849191,
				"element": "O" 
			},
			{
				"x": 0.6828312405,
				"y": -1.4348680105,
				"z": -1.9013049569,
				"element": "N" 
			},
			{
				"x": 0.0874017209,
				"y": -2.1053660021,
				"z": -0.824127133,
				"element": "C" 
			},
			{
				"x": 0.0079148131,
				"y": -3.3235558456,
				"z": -0.7957285754,
				"element": "O" 
			},
			{
				"x": -1.4186816492,
				"y": -2.2523638368,
				"z": 4.1254956645,
				"element": "H" 
			},
			{
				"x": 0.0455623098,
				"y": -3.1941245523,
				"z": 4.4323376495,
				"element": "H" 
			},
			{
				"x": -1.2187489786,
				"y": -3.8475237174,
				"z": 3.3843339374,
				"element": "H" 
			},
			{
				"x": 0.7217274722,
				"y": -2.9725948431,
				"z": 2.0223089501,
				"element": "H" 
			},
			{
				"x": 0.5275032894,
				"y": -1.3809881179,
				"z": 2.7629496837,
				"element": "H" 
			},
			{
				"x": -1.7596818875,
				"y": -1.1959439871,
				"z": 1.7554557605,
				"element": "H" 
			},
			{
				"x": -1.5515708605,
				"y": -2.8007793712,
				"z": 1.0152191088,
				"element": "H" 
			},
			{
				"x": 0.6664357505,
				"y": 2.7578786643,
				"z": -1.3286411667,
				"element": "H" 
			},
			{
				"x": -0.479095159,
				"y": 3.1310769289,
				"z": 0.9322878693,
				"element": "H" 
			},
			{
				"x": 1.0269164087,
				"y": -2.051152439,
				"z": -2.6274950485,
				"element": "H" 
			}
		],
		 "valence_orbital": [ 
			{
				"type": "occ",
				"energy": -0.29099,
				"method": "rhf"
			},
			{
				"type": "occ",
				"energy": -0.28828,
				"method": "rhf"
			},
			{
				"type": "occ",
				"energy": -0.28093,
				"method": "rhf"
			},
			{
				"type": "occ",
				"energy": -0.26178,
				"method": "rhf"
			},
			{
				"type": "occ",
				"energy": -0.22473,
				"method": "rhf"
			},
			{
				"type": "unocc",
				"energy": -0.0367,
				"method": "rhf"
			},
			{
				"type": "unocc",
				"energy": 0.02144,
				"method": "rhf"
			},
			{
				"type": "unocc",
				"energy": 0.02964,
				"method": "rhf"
			},
			{
				"type": "unocc",
				"energy": 0.06511,
				"method": "rhf"
			},
			{
				"type": "unocc",
				"energy": 0.09388,
				"method": "rhf"
			}
		],
		"cosmo_sigma_profile": { 
			"-0.025": 0.0,
			"-0.024": 0.0,
			"-0.023": 0.0,
			"-0.022": 0.0,
			"-0.021": 0.0,
			"-0.02": 0.0,
			"-0.019": 0.0,
			"-0.018": 0.637143064171,
			"-0.017": 1.58125346027,
			"-0.016": 1.29461871176,
			"-0.015": 1.96084200787,
			"-0.014": 1.71679602389,
			"-0.013": 2.00333258444,
			"-0.012": 2.00030977535,
			"-0.011": 2.62839425277,
			"-0.01": 4.57919335041,
			"-0.009": 2.72344696372,
			"-0.008": 3.66116910417,
			"-0.007": 2.99826222776,
			"-0.006": 2.39395329071,
			"-0.005": 4.95703179465,
			"-0.004": 11.3128988432,
			"-0.003": 20.9306449767,
			"-0.002": 24.277626973,
			"-0.001": 31.3395566792,
			"0.0": 23.9849915399,
			"0.001": 14.7041571841,
			"0.002": 4.84707045141,
			"0.003": 5.17924766578,
			"0.004": 5.2223216638,
			"0.005": 3.37634429941,
			"0.006": 3.76428557781,
			"0.007": 4.6725281078,
			"0.008": 2.54282250979,
			"0.009": 3.51906144424,
			"0.01": 4.08892014367,
			"0.011": 4.10411953299,
			"0.012": 7.72005686843,
			"0.013": 11.3501585638,
			"0.014": 1.73756704928,
			"0.015": 0.102883895728,
			"0.016": 0.0,
			"0.017": 0.0,
			"0.018": 0.0,
			"0.019": 0.0,
			"0.02": 0.0,
			"0.021": 0.0,
			"0.022": 0.0,
			"0.023": 0.0,
			"0.024": 0.0,
			"0.025": 0.0
		}
	}
}
