{
	 "smiles": "CN1N=C(C)C2=C1N=C(C)C=C2C(O)=O", 
	 "Tm": 536.15, 
	 "num_atms": 26, 
	 "gaussian": { 
		 "optdone": 1, 
		 "sigma_profile": "yes", 
		 "theory": "DFT", 
		 "functional": "B3LYP", 
		 "basiset": "6-31G**", 
		 "properties": { 
			 "R2extent": 3856.8298, 
			 "electric_dipole_moment_norm": 2.51929504425, 
			 "electric_quadrupole_moment_norm": 13.3150294776, 
			 "total_energy": -702.416487615, 
			 "HOMO_LUMO_gap": 0.15233, 
			 "cosmo_polarized_energy": -11.06, 
			 "cosmo_cavitation_energy": 29.94, 
			 "cosmo_dispersion_energy": -22.07, 
			 "cosmo_repulsion_energy": 1.73, 
			 "cosmo_total_nonelectrostatic_energy": 9.6, 
			 "SMD_solvation_energy": 4.24 
		},
		"coords": [
			{
				"x": 0.4525776881,
				"y": 2.9192837323,
				"z": 1.7529909063,
				"element": "C" 
			},
			{
				"x": 0.5507599706,
				"y": 1.4757820016,
				"z": 1.7963592552,
				"element": "N" 
			},
			{
				"x": 1.4389049807,
				"y": 0.8593011236,
				"z": 2.6177514352,
				"element": "N" 
			},
			{
				"x": 1.3100644648,
				"y": -0.4523324932,
				"z": 2.4501783426,
				"element": "C" 
			},
			{
				"x": 2.1871010992,
				"y": -1.3652014946,
				"z": 3.2508618915,
				"element": "C" 
			},
			{
				"x": 0.289357533,
				"y": -0.7223194342,
				"z": 1.4723468103,
				"element": "C" 
			},
			{
				"x": -0.1690189143,
				"y": 0.5682420858,
				"z": 1.0820405853,
				"element": "C" 
			},
			{
				"x": -1.1199482433,
				"y": 0.8708328271,
				"z": 0.1902055217,
				"element": "N" 
			},
			{
				"x": -1.7030066327,
				"y": -0.1728431449,
				"z": -0.3990599474,
				"element": "C" 
			},
			{
				"x": -2.7817200151,
				"y": 0.1167039391,
				"z": -1.412501473,
				"element": "C" 
			},
			{
				"x": -1.3427025165,
				"y": -1.5114007776,
				"z": -0.1034334954,
				"element": "C" 
			},
			{
				"x": -0.3509184967,
				"y": -1.8092093068,
				"z": 0.8273253161,
				"element": "C" 
			},
			{
				"x": 0.0021410607,
				"y": -3.2292956821,
				"z": 1.1132745245,
				"element": "C" 
			},
			{
				"x": -0.7305152922,
				"y": -4.110373254,
				"z": 0.3872127142,
				"element": "O" 
			},
			{
				"x": 0.8473599471,
				"y": -3.6026438254,
				"z": 1.9009840653,
				"element": "O" 
			},
			{
				"x": 0.1821169146,
				"y": 3.3114600737,
				"z": 2.7374692744,
				"element": "H" 
			},
			{
				"x": -0.3206495805,
				"y": 3.1763474147,
				"z": 1.028437137,
				"element": "H" 
			},
			{
				"x": 1.4071298587,
				"y": 3.3559966,
				"z": 1.4459615357,
				"element": "H" 
			},
			{
				"x": 2.8343639396,
				"y": -0.7563516909,
				"z": 3.886182957,
				"element": "H" 
			},
			{
				"x": 1.598807128,
				"y": -2.0411287722,
				"z": 3.8763238761,
				"element": "H" 
			},
			{
				"x": 2.803547364,
				"y": -1.9971955906,
				"z": 2.6068564198,
				"element": "H" 
			},
			{
				"x": -3.7344096719,
				"y": -0.3370740548,
				"z": -1.1163634864,
				"element": "H" 
			},
			{
				"x": -2.9206906675,
				"y": 1.1946576219,
				"z": -1.5071443787,
				"element": "H" 
			},
			{
				"x": -2.5212113986,
				"y": -0.2929534117,
				"z": -2.3951220309,
				"element": "H" 
			},
			{
				"x": -1.8516863355,
				"y": -2.3192968657,
				"z": -0.6142723384,
				"element": "H" 
			},
			{
				"x": -0.4177541844,
				"y": -4.9906876213,
				"z": 0.6528345819,
				"element": "H" 
			}
		],
		 "valence_orbital": [ 
			{
				"type": "occ",
				"energy": -0.29317,
				"method": "rhf"
			},
			{
				"type": "occ",
				"energy": -0.28529,
				"method": "rhf"
			},
			{
				"type": "occ",
				"energy": -0.26829,
				"method": "rhf"
			},
			{
				"type": "occ",
				"energy": -0.24383,
				"method": "rhf"
			},
			{
				"type": "occ",
				"energy": -0.22438,
				"method": "rhf"
			},
			{
				"type": "unocc",
				"energy": -0.07205,
				"method": "rhf"
			},
			{
				"type": "unocc",
				"energy": -0.00224,
				"method": "rhf"
			},
			{
				"type": "unocc",
				"energy": 0.03587,
				"method": "rhf"
			},
			{
				"type": "unocc",
				"energy": 0.06131,
				"method": "rhf"
			},
			{
				"type": "unocc",
				"energy": 0.07314,
				"method": "rhf"
			}
		],
		"cosmo_sigma_profile": { 
			"-0.025": 0.0,
			"-0.024": 0.0,
			"-0.023": 0.0,
			"-0.022": 0.0,
			"-0.021": 0.0,
			"-0.02": 0.0,
			"-0.019": 0.118385984338,
			"-0.018": 1.03885637979,
			"-0.017": 0.688322848973,
			"-0.016": 0.790586848897,
			"-0.015": 0.702117633048,
			"-0.014": 0.961351145255,
			"-0.013": 0.756771737492,
			"-0.012": 0.470472989291,
			"-0.011": 0.936962596924,
			"-0.01": 0.72057056348,
			"-0.009": 0.541128763301,
			"-0.008": 0.408485068555,
			"-0.007": 1.19904178051,
			"-0.006": 6.43025854445,
			"-0.005": 12.8209273475,
			"-0.004": 17.2407315769,
			"-0.003": 23.9287774118,
			"-0.002": 20.3587492031,
			"-0.001": 22.2922143388,
			"0.0": 33.1122342183,
			"0.001": 24.0686587785,
			"0.002": 14.0210398849,
			"0.003": 7.92973591951,
			"0.004": 7.38961752672,
			"0.005": 6.57438065153,
			"0.006": 6.86635586385,
			"0.007": 6.06675521782,
			"0.008": 3.97091337203,
			"0.009": 2.64924486239,
			"0.01": 4.68527679576,
			"0.011": 4.52857631519,
			"0.012": 1.51496833218,
			"0.013": 1.08226333811,
			"0.014": 0.527356854664,
			"0.015": 0.683579507287,
			"0.016": 0.0252070257265,
			"0.017": 0.0,
			"0.018": 0.0,
			"0.019": 0.0,
			"0.02": 0.0,
			"0.021": 0.0,
			"0.022": 0.0,
			"0.023": 0.0,
			"0.024": 0.0,
			"0.025": 0.0
		}
	}
}
