{
	 "smiles": "COC1=CC(N)=CC=C1Br", 
	 "Tm": 371.15, 
	 "num_atms": 18, 
	 "gaussian": { 
		 "optdone": 1, 
		 "sigma_profile": "yes", 
		 "theory": "DFT", 
		 "functional": "B3LYP", 
		 "basiset": "6-31G**", 
		 "properties": { 
			 "R2extent": 3103.5135, 
			 "electric_dipole_moment_norm": 4.29024281597, 
			 "electric_quadrupole_moment_norm": 9.628053942, 
			 "total_energy": -2972.93316317, 
			 "HOMO_LUMO_gap": 0.19964, 
			 "cosmo_polarized_energy": -11.95, 
			 "cosmo_cavitation_energy": 23.95, 
			 "cosmo_dispersion_energy": -18.26, 
			 "cosmo_repulsion_energy": 1.5, 
			 "cosmo_total_nonelectrostatic_energy": 7.18, 
			 "SMD_solvation_energy": 3.79 
		},
		"coords": [
			{
				"x": 1.5841844973,
				"y": 2.5282143578,
				"z": 2.1480981666,
				"element": "C" 
			},
			{
				"x": 0.4611724343,
				"y": 1.6726647702,
				"z": 2.2819451646,
				"element": "O" 
			},
			{
				"x": 0.2832296291,
				"y": 0.6818644659,
				"z": 1.3701722077,
				"element": "C" 
			},
			{
				"x": 1.1356379883,
				"y": 0.4586342331,
				"z": 0.2845556239,
				"element": "C" 
			},
			{
				"x": 0.8926762156,
				"y": -0.5860694703,
				"z": -0.6246727915,
				"element": "C" 
			},
			{
				"x": 1.7887426962,
				"y": -0.8264993647,
				"z": -1.6677954657,
				"element": "N" 
			},
			{
				"x": -0.2246180637,
				"y": -1.4111350312,
				"z": -0.4325361132,
				"element": "C" 
			},
			{
				"x": -1.0742976152,
				"y": -1.1888707752,
				"z": 0.6490373863,
				"element": "C" 
			},
			{
				"x": -0.833755212,
				"y": -0.1560350848,
				"z": 1.5465969042,
				"element": "C" 
			},
			{
				"x": -2.0198619876,
				"y": 0.1245509323,
				"z": 3.013956727,
				"element": "Br" 
			},
			{
				"x": 2.527518343,
				"y": 1.9704903424,
				"z": 2.2073324581,
				"element": "H" 
			},
			{
				"x": 1.5268297836,
				"y": 3.2273384688,
				"z": 2.9834551533,
				"element": "H" 
			},
			{
				"x": 1.5559898936,
				"y": 3.0895607583,
				"z": 1.2052367513,
				"element": "H" 
			},
			{
				"x": 2.0047195099,
				"y": 1.0898291224,
				"z": 0.1373847263,
				"element": "H" 
			},
			{
				"x": 1.4047079674,
				"y": -1.3388833264,
				"z": -2.4497453239,
				"element": "H" 
			},
			{
				"x": 2.3235625312,
				"y": -0.0244974228,
				"z": -1.9715663801,
				"element": "H" 
			},
			{
				"x": -0.4260729322,
				"y": -2.2260481055,
				"z": -1.1218024123,
				"element": "H" 
			},
			{
				"x": -1.9398656788,
				"y": -1.82510887,
				"z": 0.7976472174,
				"element": "H" 
			}
		],
		 "valence_orbital": [ 
			{
				"type": "occ",
				"energy": -0.31224,
				"method": "rhf"
			},
			{
				"type": "occ",
				"energy": -0.2704,
				"method": "rhf"
			},
			{
				"type": "occ",
				"energy": -0.2681,
				"method": "rhf"
			},
			{
				"type": "occ",
				"energy": -0.23242,
				"method": "rhf"
			},
			{
				"type": "occ",
				"energy": -0.19611,
				"method": "rhf"
			},
			{
				"type": "unocc",
				"energy": 0.00353,
				"method": "rhf"
			},
			{
				"type": "unocc",
				"energy": 0.01573,
				"method": "rhf"
			},
			{
				"type": "unocc",
				"energy": 0.02206,
				"method": "rhf"
			},
			{
				"type": "unocc",
				"energy": 0.07832,
				"method": "rhf"
			},
			{
				"type": "unocc",
				"energy": 0.09917,
				"method": "rhf"
			}
		],
		"cosmo_sigma_profile": { 
			"-0.025": 0.0,
			"-0.024": 0.0,
			"-0.023": 0.0,
			"-0.022": 0.0,
			"-0.021": 0.0,
			"-0.02": 0.0,
			"-0.019": 0.0,
			"-0.018": 0.0,
			"-0.017": 0.0,
			"-0.016": 0.0,
			"-0.015": 0.0,
			"-0.014": 0.0,
			"-0.013": 0.692262744714,
			"-0.012": 2.89124324039,
			"-0.011": 2.78913009721,
			"-0.01": 3.44121087685,
			"-0.009": 3.01756799697,
			"-0.008": 2.65780476608,
			"-0.007": 5.34043634256,
			"-0.006": 10.3312389239,
			"-0.005": 14.6802568928,
			"-0.004": 14.054971007,
			"-0.003": 13.4087809495,
			"-0.002": 9.01731400687,
			"-0.001": 6.87474078913,
			"0.0": 7.72406518677,
			"0.001": 8.86144618162,
			"0.002": 9.16609506908,
			"0.003": 14.2048085599,
			"0.004": 17.2767040593,
			"0.005": 21.6659159331,
			"0.006": 10.2838092768,
			"0.007": 3.22665938776,
			"0.008": 2.63967521869,
			"0.009": 2.78173935356,
			"0.01": 2.86840578773,
			"0.011": 1.78196060175,
			"0.012": 0.301335951255,
			"0.013": 0.635086837476,
			"0.014": 0.783988686029,
			"0.015": 0.0161192143291,
			"0.016": 0.0,
			"0.017": 0.0,
			"0.018": 0.0,
			"0.019": 0.0,
			"0.02": 0.0,
			"0.021": 0.0,
			"0.022": 0.0,
			"0.023": 0.0,
			"0.024": 0.0,
			"0.025": 0.0
		}
	}
}
