{
	 "smiles": "OC(=O)C12CCC(=O)N1C1=C(C=CC=C1)C(=O)N2CC1=CC=CC=C1", 
	 "Tm": 408.15, 
	 "num_atms": 41, 
	 "gaussian": { 
		 "optdone": 1, 
		 "sigma_profile": "yes", 
		 "theory": "DFT", 
		 "functional": "B3LYP", 
		 "basiset": "6-31G**", 
		 "properties": { 
			 "R2extent": 7823.4739, 
			 "electric_dipole_moment_norm": 3.03401185726, 
			 "electric_quadrupole_moment_norm": 23.8442620181, 
			 "total_energy": -1144.11197611, 
			 "HOMO_LUMO_gap": 0.18519, 
			 "cosmo_polarized_energy": -20.39, 
			 "cosmo_cavitation_energy": 43.15, 
			 "cosmo_dispersion_energy": -29.8, 
			 "cosmo_repulsion_energy": 2.22, 
			 "cosmo_total_nonelectrostatic_energy": 15.57, 
			 "SMD_solvation_energy": 8.51 
		},
		"coords": [
			{
				"x": -3.2713820273,
				"y": -0.5699461632,
				"z": -0.8055303449,
				"element": "O" 
			},
			{
				"x": -2.3878035547,
				"y": -1.4778225741,
				"z": -0.3488670017,
				"element": "C" 
			},
			{
				"x": -2.6689639685,
				"y": -2.6328357483,
				"z": -0.125711331,
				"element": "O" 
			},
			{
				"x": -0.9736253167,
				"y": -0.8775771165,
				"z": -0.0699762375,
				"element": "C" 
			},
			{
				"x": -0.7383617826,
				"y": -0.8748014506,
				"z": 1.4686120903,
				"element": "C" 
			},
			{
				"x": -0.1658823636,
				"y": -2.2651235759,
				"z": 1.7620544079,
				"element": "C" 
			},
			{
				"x": 0.4703883415,
				"y": -2.7043291418,
				"z": 0.4510255154,
				"element": "C" 
			},
			{
				"x": 1.2247549549,
				"y": -3.6421654643,
				"z": 0.2841562717,
				"element": "O" 
			},
			{
				"x": 0.0194866586,
				"y": -1.836503637,
				"z": -0.5426812255,
				"element": "N" 
			},
			{
				"x": 0.26030922,
				"y": -1.9204618147,
				"z": -1.9273974244,
				"element": "C" 
			},
			{
				"x": -0.0472008521,
				"y": -0.7778848076,
				"z": -2.6911485839,
				"element": "C" 
			},
			{
				"x": 0.1468018256,
				"y": -0.7966887995,
				"z": -4.0772137838,
				"element": "C" 
			},
			{
				"x": 0.6421544561,
				"y": -1.9352528154,
				"z": -4.701446641,
				"element": "C" 
			},
			{
				"x": 0.9635526662,
				"y": -3.0581178698,
				"z": -3.9305547886,
				"element": "C" 
			},
			{
				"x": 0.7822380003,
				"y": -3.0633481666,
				"z": -2.5493610544,
				"element": "C" 
			},
			{
				"x": -0.4819198304,
				"y": 0.4921667578,
				"z": -2.0483855727,
				"element": "C" 
			},
			{
				"x": -0.5273868478,
				"y": 1.5547972181,
				"z": -2.6644459708,
				"element": "O" 
			},
			{
				"x": -0.7774912823,
				"y": 0.4225303434,
				"z": -0.6959080593,
				"element": "N" 
			},
			{
				"x": -1.308429764,
				"y": 1.6385553105,
				"z": -0.0489367853,
				"element": "C" 
			},
			{
				"x": -0.2801085825,
				"y": 2.4420095414,
				"z": 0.7277436937,
				"element": "C" 
			},
			{
				"x": -0.4916672023,
				"y": 2.7538887491,
				"z": 2.0757660819,
				"element": "C" 
			},
			{
				"x": 0.4341137898,
				"y": 3.5220402156,
				"z": 2.7864711245,
				"element": "C" 
			},
			{
				"x": 1.5868650429,
				"y": 3.9851339268,
				"z": 2.1527989686,
				"element": "C" 
			},
			{
				"x": 1.803962028,
				"y": 3.6830316383,
				"z": 0.8053470742,
				"element": "C" 
			},
			{
				"x": 0.8770378593,
				"y": 2.9211880926,
				"z": 0.0955501429,
				"element": "C" 
			},
			{
				"x": -4.1178108716,
				"y": -1.0372927468,
				"z": -0.9146118919,
				"element": "H" 
			},
			{
				"x": -1.6517465293,
				"y": -0.6527773051,
				"z": 2.0243094485,
				"element": "H" 
			},
			{
				"x": -0.0057448794,
				"y": -0.0966717798,
				"z": 1.690046966,
				"element": "H" 
			},
			{
				"x": 0.5771286252,
				"y": -2.2764386217,
				"z": 2.562033013,
				"element": "H" 
			},
			{
				"x": -0.9468767668,
				"y": -2.9898606916,
				"z": 2.0111819806,
				"element": "H" 
			},
			{
				"x": -0.0858312369,
				"y": 0.1058081618,
				"z": -4.6318791752,
				"element": "H" 
			},
			{
				"x": 0.7893922294,
				"y": -1.94907039,
				"z": -5.7767865909,
				"element": "H" 
			},
			{
				"x": 1.3592873835,
				"y": -3.9485410178,
				"z": -4.4106276149,
				"element": "H" 
			},
			{
				"x": 1.0403650202,
				"y": -3.9251370355,
				"z": -1.9506120782,
				"element": "H" 
			},
			{
				"x": -2.1380921537,
				"y": 1.3543060132,
				"z": 0.602733242,
				"element": "H" 
			},
			{
				"x": -1.7195895477,
				"y": 2.2482473123,
				"z": -0.8572917372,
				"element": "H" 
			},
			{
				"x": -1.3898262692,
				"y": 2.3965625646,
				"z": 2.5751220538,
				"element": "H" 
			},
			{
				"x": 0.2541051102,
				"y": 3.7545441596,
				"z": 3.832332165,
				"element": "H" 
			},
			{
				"x": 2.3105506793,
				"y": 4.5801927068,
				"z": 2.702413881,
				"element": "H" 
			},
			{
				"x": 2.6959198905,
				"y": 4.0482192132,
				"z": 0.3040422216,
				"element": "H" 
			},
			{
				"x": 1.0351278483,
				"y": 2.7046268091,
				"z": -0.9563664493,
				"element": "H" 
			}
		],
		 "valence_orbital": [ 
			{
				"type": "occ",
				"energy": -0.25895,
				"method": "rhf"
			},
			{
				"type": "occ",
				"energy": -0.25516,
				"method": "rhf"
			},
			{
				"type": "occ",
				"energy": -0.25158,
				"method": "rhf"
			},
			{
				"type": "occ",
				"energy": -0.24447,
				"method": "rhf"
			},
			{
				"type": "occ",
				"energy": -0.23238,
				"method": "rhf"
			},
			{
				"type": "unocc",
				"energy": -0.04719,
				"method": "rhf"
			},
			{
				"type": "unocc",
				"energy": -0.02737,
				"method": "rhf"
			},
			{
				"type": "unocc",
				"energy": -0.01099,
				"method": "rhf"
			},
			{
				"type": "unocc",
				"energy": -0.00801,
				"method": "rhf"
			},
			{
				"type": "unocc",
				"energy": -0.00367,
				"method": "rhf"
			}
		],
		"cosmo_sigma_profile": { 
			"-0.025": 0.0,
			"-0.024": 0.0,
			"-0.023": 0.0,
			"-0.022": 0.0,
			"-0.021": 0.0,
			"-0.02": 0.0307357096659,
			"-0.019": 0.924142889788,
			"-0.018": 1.10911876954,
			"-0.017": 0.479178583743,
			"-0.016": 1.31208754699,
			"-0.015": 0.50412561619,
			"-0.014": 0.577464320284,
			"-0.013": 0.896260465743,
			"-0.012": 1.10219687797,
			"-0.011": 0.534679524115,
			"-0.01": 0.438566926549,
			"-0.009": 1.88773568593,
			"-0.008": 3.39186275936,
			"-0.007": 9.3966611569,
			"-0.006": 20.0747068019,
			"-0.005": 26.6849876025,
			"-0.004": 26.9081359277,
			"-0.003": 27.6117924084,
			"-0.002": 22.0756760503,
			"-0.001": 23.2996799337,
			"0.0": 20.0464359955,
			"0.001": 22.0258984687,
			"0.002": 23.890002527,
			"0.003": 27.1156261923,
			"0.004": 19.3941941824,
			"0.005": 14.4076071976,
			"0.006": 11.4997614473,
			"0.007": 4.22765887183,
			"0.008": 3.84824812303,
			"0.009": 5.46794392215,
			"0.01": 6.30240185855,
			"0.011": 6.8076696925,
			"0.012": 5.87166955589,
			"0.013": 4.13466673402,
			"0.014": 0.039114090943,
			"0.015": 0.0,
			"0.016": 0.0,
			"0.017": 0.0,
			"0.018": 0.0,
			"0.019": 0.0,
			"0.02": 0.0,
			"0.021": 0.0,
			"0.022": 0.0,
			"0.023": 0.0,
			"0.024": 0.0,
			"0.025": 0.0
		}
	}
}
