{
	 "smiles": "C=CCOCC1CO1", 
	 "Tm": 173.15, 
	 "num_atms": 18, 
	 "gaussian": { 
		 "optdone": 1, 
		 "sigma_profile": "yes", 
		 "theory": "DFT", 
		 "functional": "B3LYP", 
		 "basiset": "6-31G**", 
		 "properties": { 
			 "R2extent": 1632.0362, 
			 "electric_dipole_moment_norm": 2.05302791262, 
			 "electric_quadrupole_moment_norm": 6.18965688629, 
			 "total_energy": -385.018584642, 
			 "HOMO_LUMO_gap": 0.26286, 
			 "cosmo_polarized_energy": -7.75, 
			 "cosmo_cavitation_energy": 21.76, 
			 "cosmo_dispersion_energy": -15.6, 
			 "cosmo_repulsion_energy": 1.33, 
			 "cosmo_total_nonelectrostatic_energy": 7.49, 
			 "SMD_solvation_energy": 4.44 
		},
		"coords": [
			{
				"x": -1.5906831954,
				"y": -1.261894746,
				"z": 3.0986584913,
				"element": "C" 
			},
			{
				"x": -0.7512112392,
				"y": -1.021887111,
				"z": 2.0928405432,
				"element": "C" 
			},
			{
				"x": -0.7785051455,
				"y": 0.2137579195,
				"z": 1.2436528285,
				"element": "C" 
			},
			{
				"x": -0.7704202034,
				"y": -0.1787273397,
				"z": -0.1259246291,
				"element": "O" 
			},
			{
				"x": -0.8153111291,
				"y": 0.9031894843,
				"z": -1.0385385702,
				"element": "C" 
			},
			{
				"x": 0.4935002609,
				"y": 1.6659566837,
				"z": -1.1245906741,
				"element": "C" 
			},
			{
				"x": 0.6792407629,
				"y": 2.9893470598,
				"z": -0.5080206386,
				"element": "C" 
			},
			{
				"x": 0.4434641296,
				"y": 2.8601106817,
				"z": -1.914006854,
				"element": "O" 
			},
			{
				"x": -2.3898894291,
				"y": -0.5697039633,
				"z": 3.3535436256,
				"element": "H" 
			},
			{
				"x": -1.5096702241,
				"y": -2.1567275996,
				"z": 3.7083197066,
				"element": "H" 
			},
			{
				"x": 0.0353810136,
				"y": -1.7346225502,
				"z": 1.8493328685,
				"element": "H" 
			},
			{
				"x": 0.1033748927,
				"y": 0.8377139533,
				"z": 1.4662380521,
				"element": "H" 
			},
			{
				"x": -1.6717534012,
				"y": 0.8194310157,
				"z": 1.4687090327,
				"element": "H" 
			},
			{
				"x": -1.6311736477,
				"y": 1.6044281243,
				"z": -0.7992428093,
				"element": "H" 
			},
			{
				"x": -1.0329347869,
				"y": 0.4607419486,
				"z": -2.0165835849,
				"element": "H" 
			},
			{
				"x": 1.3751205036,
				"y": 1.0429924394,
				"z": -1.2903972649,
				"element": "H" 
			},
			{
				"x": -0.1362899278,
				"y": 3.4349498002,
				"z": 0.0630176348,
				"element": "H" 
			},
			{
				"x": 1.678960766,
				"y": 3.3221441995,
				"z": -0.2284077585,
				"element": "H" 
			}
		],
		 "valence_orbital": [ 
			{
				"type": "occ",
				"energy": -0.32543,
				"method": "rhf"
			},
			{
				"type": "occ",
				"energy": -0.30529,
				"method": "rhf"
			},
			{
				"type": "occ",
				"energy": -0.28296,
				"method": "rhf"
			},
			{
				"type": "occ",
				"energy": -0.26642,
				"method": "rhf"
			},
			{
				"type": "occ",
				"energy": -0.25437,
				"method": "rhf"
			},
			{
				"type": "unocc",
				"energy": 0.00849,
				"method": "rhf"
			},
			{
				"type": "unocc",
				"energy": 0.08477,
				"method": "rhf"
			},
			{
				"type": "unocc",
				"energy": 0.09376,
				"method": "rhf"
			},
			{
				"type": "unocc",
				"energy": 0.10911,
				"method": "rhf"
			},
			{
				"type": "unocc",
				"energy": 0.11384,
				"method": "rhf"
			}
		],
		"cosmo_sigma_profile": { 
			"-0.025": 0.0,
			"-0.024": 0.0,
			"-0.023": 0.0,
			"-0.022": 0.0,
			"-0.021": 0.0,
			"-0.02": 0.0,
			"-0.019": 0.0,
			"-0.018": 0.0,
			"-0.017": 0.0,
			"-0.016": 0.0,
			"-0.015": 0.0,
			"-0.014": 0.0,
			"-0.013": 0.0,
			"-0.012": 0.0,
			"-0.011": 0.0,
			"-0.01": 0.0,
			"-0.009": 0.0,
			"-0.008": 0.0,
			"-0.007": 0.577192899702,
			"-0.006": 7.70934418105,
			"-0.005": 18.4340835469,
			"-0.004": 23.8909452071,
			"-0.003": 22.6035803171,
			"-0.002": 17.2808856965,
			"-0.001": 12.2231918766,
			"0.0": 8.33313349125,
			"0.001": 6.94210656595,
			"0.002": 6.20901219711,
			"0.003": 6.83141101153,
			"0.004": 6.08381132254,
			"0.005": 4.66664418334,
			"0.006": 5.76922781784,
			"0.007": 3.8015460291,
			"0.008": 2.84784302894,
			"0.009": 3.39655308991,
			"0.01": 3.55118629068,
			"0.011": 4.42006609002,
			"0.012": 4.34931207968,
			"0.013": 1.0660962251,
			"0.014": 0.0,
			"0.015": 0.0,
			"0.016": 0.0,
			"0.017": 0.0,
			"0.018": 0.0,
			"0.019": 0.0,
			"0.02": 0.0,
			"0.021": 0.0,
			"0.022": 0.0,
			"0.023": 0.0,
			"0.024": 0.0,
			"0.025": 0.0
		}
	}
}
