{
	 "smiles": "OC(=O)C(=O)NCC1=CC=C(F)C=C1", 
	 "Tm": 408.15, 
	 "num_atms": 22, 
	 "gaussian": { 
		 "optdone": 1, 
		 "sigma_profile": "yes", 
		 "theory": "DFT", 
		 "functional": "B3LYP", 
		 "basiset": "6-31G**", 
		 "properties": { 
			 "R2extent": 3869.7622, 
			 "electric_dipole_moment_norm": 3.17094616952, 
			 "electric_quadrupole_moment_norm": 11.7025848935, 
			 "total_energy": -728.057385641, 
			 "HOMO_LUMO_gap": 0.18898, 
			 "cosmo_polarized_energy": -13.19, 
			 "cosmo_cavitation_energy": 27.6, 
			 "cosmo_dispersion_energy": -19.88, 
			 "cosmo_repulsion_energy": 1.54, 
			 "cosmo_total_nonelectrostatic_energy": 9.26, 
			 "SMD_solvation_energy": 6.77 
		},
		"coords": [
			{
				"x": -2.7098545993,
				"y": -0.0848486504,
				"z": -3.726718621,
				"element": "O" 
			},
			{
				"x": -1.7306167467,
				"y": 0.3493948858,
				"z": -2.9408285329,
				"element": "C" 
			},
			{
				"x": -1.8758433433,
				"y": 1.1827909094,
				"z": -2.0738034401,
				"element": "O" 
			},
			{
				"x": -0.4128490429,
				"y": -0.3914972296,
				"z": -3.298566135,
				"element": "C" 
			},
			{
				"x": -0.5012905093,
				"y": -1.2680042599,
				"z": -4.1668370248,
				"element": "O" 
			},
			{
				"x": 0.7428338986,
				"y": -0.0761838331,
				"z": -2.6872436033,
				"element": "N" 
			},
			{
				"x": 1.0353916995,
				"y": 0.9085457182,
				"z": -1.6303376796,
				"element": "C" 
			},
			{
				"x": 1.2117850574,
				"y": 0.272854127,
				"z": -0.2651077382,
				"element": "C" 
			},
			{
				"x": 2.4885734976,
				"y": -0.0182279646,
				"z": 0.2291395347,
				"element": "C" 
			},
			{
				"x": 2.6580907408,
				"y": -0.6229096863,
				"z": 1.4755286488,
				"element": "C" 
			},
			{
				"x": 1.5269903951,
				"y": -0.9313904781,
				"z": 2.2212703322,
				"element": "C" 
			},
			{
				"x": 1.6784353787,
				"y": -1.5140770223,
				"z": 3.4277468118,
				"element": "F" 
			},
			{
				"x": 0.2427370245,
				"y": -0.6516262485,
				"z": 1.7638204167,
				"element": "C" 
			},
			{
				"x": 0.0923191837,
				"y": -0.0478419476,
				"z": 0.5172726504,
				"element": "C" 
			},
			{
				"x": -2.2856418278,
				"y": -0.7712116935,
				"z": -4.2951202206,
				"element": "H" 
			},
			{
				"x": 1.5054012075,
				"y": -0.6810163842,
				"z": -2.9719670044,
				"element": "H" 
			},
			{
				"x": 1.9548294761,
				"y": 1.4260242805,
				"z": -1.9233796638,
				"element": "H" 
			},
			{
				"x": 0.222627885,
				"y": 1.6310805594,
				"z": -1.6200717671,
				"element": "H" 
			},
			{
				"x": 3.3665446121,
				"y": 0.2354774954,
				"z": -0.3603756445,
				"element": "H" 
			},
			{
				"x": 3.6415371502,
				"y": -0.8507100314,
				"z": 1.8719156562,
				"element": "H" 
			},
			{
				"x": -0.6121183083,
				"y": -0.9005503924,
				"z": 2.3832539687,
				"element": "H" 
			},
			{
				"x": -0.9010828291,
				"y": 0.1877278463,
				"z": 0.1472090557,
				"element": "H" 
			}
		],
		 "valence_orbital": [ 
			{
				"type": "occ",
				"energy": -0.33035,
				"method": "rhf"
			},
			{
				"type": "occ",
				"energy": -0.28519,
				"method": "rhf"
			},
			{
				"type": "occ",
				"energy": -0.27042,
				"method": "rhf"
			},
			{
				"type": "occ",
				"energy": -0.26942,
				"method": "rhf"
			},
			{
				"type": "occ",
				"energy": -0.25111,
				"method": "rhf"
			},
			{
				"type": "unocc",
				"energy": -0.06213,
				"method": "rhf"
			},
			{
				"type": "unocc",
				"energy": -0.02136,
				"method": "rhf"
			},
			{
				"type": "unocc",
				"energy": -0.01326,
				"method": "rhf"
			},
			{
				"type": "unocc",
				"energy": 0.06705,
				"method": "rhf"
			},
			{
				"type": "unocc",
				"energy": 0.07668,
				"method": "rhf"
			}
		],
		"cosmo_sigma_profile": { 
			"-0.025": 0.0,
			"-0.024": 0.0,
			"-0.023": 0.0,
			"-0.022": 0.0,
			"-0.021": 0.0,
			"-0.02": 0.0,
			"-0.019": 0.0,
			"-0.018": 0.0,
			"-0.017": 0.0,
			"-0.016": 0.0101239549788,
			"-0.015": 0.769328264137,
			"-0.014": 1.45677702118,
			"-0.013": 1.56791636291,
			"-0.012": 1.38060603496,
			"-0.011": 2.00870883556,
			"-0.01": 1.93267389385,
			"-0.009": 2.0251183318,
			"-0.008": 3.03207359568,
			"-0.007": 11.0222114411,
			"-0.006": 12.3550585871,
			"-0.005": 13.8757221284,
			"-0.004": 14.2351941892,
			"-0.003": 13.0958271866,
			"-0.002": 12.0503815514,
			"-0.001": 9.74936393032,
			"0.0": 14.3975522986,
			"0.001": 15.5526547656,
			"0.002": 15.0128764574,
			"0.003": 14.7715489167,
			"0.004": 21.5580813215,
			"0.005": 7.87542810143,
			"0.006": 3.65894382168,
			"0.007": 3.69415948903,
			"0.008": 4.98872032557,
			"0.009": 5.8213098548,
			"0.01": 4.66317991185,
			"0.011": 4.9386434095,
			"0.012": 3.10854216032,
			"0.013": 0.541492786988,
			"0.014": 0.0,
			"0.015": 0.0,
			"0.016": 0.0,
			"0.017": 0.0,
			"0.018": 0.0,
			"0.019": 0.0,
			"0.02": 0.0,
			"0.021": 0.0,
			"0.022": 0.0,
			"0.023": 0.0,
			"0.024": 0.0,
			"0.025": 0.0
		}
	}
}
