{
	 "smiles": "CC1=CC=C(Cl)C=C1O", 
	 "Tm": 346.15, 
	 "num_atms": 16, 
	 "gaussian": { 
		 "optdone": 1, 
		 "sigma_profile": "yes", 
		 "theory": "DFT", 
		 "functional": "B3LYP", 
		 "basiset": "6-31G**", 
		 "properties": { 
			 "R2extent": 1711.511, 
			 "electric_dipole_moment_norm": 1.55740492487, 
			 "electric_quadrupole_moment_norm": 9.56576801203, 
			 "total_energy": -806.384303123, 
			 "HOMO_LUMO_gap": 0.21602, 
			 "cosmo_polarized_energy": -7.86, 
			 "cosmo_cavitation_energy": 21.53, 
			 "cosmo_dispersion_energy": -16.22, 
			 "cosmo_repulsion_energy": 1.33, 
			 "cosmo_total_nonelectrostatic_energy": 6.64, 
			 "SMD_solvation_energy": 3.83 
		},
		"coords": [
			{
				"x": 0.2859601199,
				"y": -1.7364537466,
				"z": -3.1974458586,
				"element": "C" 
			},
			{
				"x": -0.0106335786,
				"y": -1.0884231527,
				"z": -1.8703598263,
				"element": "C" 
			},
			{
				"x": -0.0200020075,
				"y": -1.8037061738,
				"z": -0.6719346168,
				"element": "C" 
			},
			{
				"x": -0.295208689,
				"y": -1.2021290931,
				"z": 0.559193855,
				"element": "C" 
			},
			{
				"x": -0.5688317468,
				"y": 0.1612096513,
				"z": 0.5803374677,
				"element": "C" 
			},
			{
				"x": -0.9207233301,
				"y": 0.9592141347,
				"z": 2.1086360647,
				"element": "Cl" 
			},
			{
				"x": -0.5712801597,
				"y": 0.9183168425,
				"z": -0.5904232785,
				"element": "C" 
			},
			{
				"x": -0.2926063578,
				"y": 0.2893863083,
				"z": -1.8059949073,
				"element": "C" 
			},
			{
				"x": -0.2794238229,
				"y": 0.9753501764,
				"z": -2.9887602911,
				"element": "O" 
			},
			{
				"x": 0.482585352,
				"y": -2.8045314933,
				"z": -3.0745864456,
				"element": "H" 
			},
			{
				"x": -0.5512644642,
				"y": -1.6170924949,
				"z": -3.8940306948,
				"element": "H" 
			},
			{
				"x": 1.157244808,
				"y": -1.2777202265,
				"z": -3.6779178759,
				"element": "H" 
			},
			{
				"x": 0.1952157895,
				"y": -2.8688055197,
				"z": -0.6999919581,
				"element": "H" 
			},
			{
				"x": -0.2968415564,
				"y": -1.7779318455,
				"z": 1.4770867809,
				"element": "H" 
			},
			{
				"x": -0.7874367882,
				"y": 1.9821226525,
				"z": -0.5531285883,
				"element": "H" 
			},
			{
				"x": -0.4851535681,
				"y": 1.9042939804,
				"z": -2.8226798269,
				"element": "H" 
			}
		],
		 "valence_orbital": [ 
			{
				"type": "occ",
				"energy": -0.3502,
				"method": "rhf"
			},
			{
				"type": "occ",
				"energy": -0.31226,
				"method": "rhf"
			},
			{
				"type": "occ",
				"energy": -0.31009,
				"method": "rhf"
			},
			{
				"type": "occ",
				"energy": -0.24772,
				"method": "rhf"
			},
			{
				"type": "occ",
				"energy": -0.22422,
				"method": "rhf"
			},
			{
				"type": "unocc",
				"energy": -0.0082,
				"method": "rhf"
			},
			{
				"type": "unocc",
				"energy": 0.00328,
				"method": "rhf"
			},
			{
				"type": "unocc",
				"energy": 0.03077,
				"method": "rhf"
			},
			{
				"type": "unocc",
				"energy": 0.06303,
				"method": "rhf"
			},
			{
				"type": "unocc",
				"energy": 0.1157,
				"method": "rhf"
			}
		],
		"cosmo_sigma_profile": { 
			"-0.025": 0.0,
			"-0.024": 0.0,
			"-0.023": 0.0,
			"-0.022": 0.0,
			"-0.021": 0.0,
			"-0.02": 0.0,
			"-0.019": 0.0182248412053,
			"-0.018": 0.96752403867,
			"-0.017": 0.85017052854,
			"-0.016": 1.08533698796,
			"-0.015": 1.0176022549,
			"-0.014": 1.30915162438,
			"-0.013": 1.01629509788,
			"-0.012": 0.517495160655,
			"-0.011": 0.705741089403,
			"-0.01": 2.08009628958,
			"-0.009": 0.979629354262,
			"-0.008": 1.19015224887,
			"-0.007": 2.12700900505,
			"-0.006": 4.21972086718,
			"-0.005": 8.29213232033,
			"-0.004": 9.99842706277,
			"-0.003": 8.74474561912,
			"-0.002": 11.1838758816,
			"-0.001": 10.953466725,
			"0.0": 15.1609133007,
			"0.001": 13.1957211311,
			"0.002": 14.8914326895,
			"0.003": 19.1427151171,
			"0.004": 18.9716759499,
			"0.005": 15.9955081924,
			"0.006": 1.8673840774,
			"0.007": 1.55151352247,
			"0.008": 1.43605986243,
			"0.009": 2.04295466943,
			"0.01": 1.55701274442,
			"0.011": 0.342604700719,
			"0.012": 0.0,
			"0.013": 0.0,
			"0.014": 0.0,
			"0.015": 0.0,
			"0.016": 0.0,
			"0.017": 0.0,
			"0.018": 0.0,
			"0.019": 0.0,
			"0.02": 0.0,
			"0.021": 0.0,
			"0.022": 0.0,
			"0.023": 0.0,
			"0.024": 0.0,
			"0.025": 0.0
		}
	}
}
