{
	 "smiles": "OC(NC1=NC=CN=C1)=C1N=CC=CC1=O", 
	 "Tm": 430.15, 
	 "num_atms": 24, 
	 "gaussian": { 
		 "optdone": 1, 
		 "sigma_profile": "yes", 
		 "theory": "DFT", 
		 "functional": "B3LYP", 
		 "basiset": "6-31G**", 
		 "properties": { 
			 "R2extent": 3463.5429, 
			 "electric_dipole_moment_norm": 2.17645003848, 
			 "electric_quadrupole_moment_norm": 11.8715806306, 
			 "total_energy": -755.303320491, 
			 "HOMO_LUMO_gap": 0.1298, 
			 "cosmo_polarized_energy": -18.29, 
			 "cosmo_cavitation_energy": 29.09, 
			 "cosmo_dispersion_energy": -21.43, 
			 "cosmo_repulsion_energy": 1.66, 
			 "cosmo_total_nonelectrostatic_energy": 9.32, 
			 "SMD_solvation_energy": 2.99 
		},
		"coords": [
			{
				"x": -0.9016746256,
				"y": -1.2833140305,
				"z": -2.5001811552,
				"element": "O" 
			},
			{
				"x": -0.3995586593,
				"y": -0.5867885919,
				"z": -1.4866375901,
				"element": "C" 
			},
			{
				"x": -0.5970849007,
				"y": 0.7453095095,
				"z": -1.6075699599,
				"element": "N" 
			},
			{
				"x": -0.7731397745,
				"y": 1.6959900825,
				"z": -0.5761386111,
				"element": "C" 
			},
			{
				"x": -1.3000520345,
				"y": 1.2908375241,
				"z": 0.5749117627,
				"element": "N" 
			},
			{
				"x": -1.4836708624,
				"y": 2.2377731712,
				"z": 1.4987267913,
				"element": "C" 
			},
			{
				"x": -1.1862302234,
				"y": 3.5786008806,
				"z": 1.2548255272,
				"element": "C" 
			},
			{
				"x": -0.6888141083,
				"y": 3.9856377937,
				"z": 0.0793347523,
				"element": "N" 
			},
			{
				"x": -0.4724111555,
				"y": 3.0411554298,
				"z": -0.8328032887,
				"element": "C" 
			},
			{
				"x": 0.3039783343,
				"y": -1.2999726444,
				"z": -0.4885055375,
				"element": "C" 
			},
			{
				"x": 0.190552293,
				"y": -2.6564459597,
				"z": -0.6924759321,
				"element": "N" 
			},
			{
				"x": 0.8227927574,
				"y": -3.4851654938,
				"z": 0.0954194488,
				"element": "C" 
			},
			{
				"x": 1.646632675,
				"y": -3.0307288072,
				"z": 1.1758145113,
				"element": "C" 
			},
			{
				"x": 1.8163241268,
				"y": -1.69552398,
				"z": 1.3856280596,
				"element": "C" 
			},
			{
				"x": 1.1709280064,
				"y": -0.7015603834,
				"z": 0.5266670376,
				"element": "C" 
			},
			{
				"x": 1.380075095,
				"y": 0.5173823661,
				"z": 0.6433407689,
				"element": "O" 
			},
			{
				"x": -0.6611913516,
				"y": -2.2193823,
				"z": -2.2547024351,
				"element": "H" 
			},
			{
				"x": -0.9232382909,
				"y": 1.0203360814,
				"z": -2.5264480339,
				"element": "H" 
			},
			{
				"x": -1.8962231134,
				"y": 1.9190305418,
				"z": 2.4532460609,
				"element": "H" 
			},
			{
				"x": -1.3553438699,
				"y": 4.3385220937,
				"z": 2.0134872105,
				"element": "H" 
			},
			{
				"x": -0.0464348081,
				"y": 3.347622795,
				"z": -1.7865708005,
				"element": "H" 
			},
			{
				"x": 0.703807051,
				"y": -4.5489541005,
				"z": -0.0979064054,
				"element": "H" 
			},
			{
				"x": 2.1361344549,
				"y": -3.7658615876,
				"z": 1.809442065,
				"element": "H" 
			},
			{
				"x": 2.4457429844,
				"y": -1.3108003903,
				"z": 2.1824957533,
				"element": "H" 
			}
		],
		 "valence_orbital": [ 
			{
				"type": "occ",
				"energy": -0.28384,
				"method": "rhf"
			},
			{
				"type": "occ",
				"energy": -0.26307,
				"method": "rhf"
			},
			{
				"type": "occ",
				"energy": -0.25586,
				"method": "rhf"
			},
			{
				"type": "occ",
				"energy": -0.22055,
				"method": "rhf"
			},
			{
				"type": "occ",
				"energy": -0.20669,
				"method": "rhf"
			},
			{
				"type": "unocc",
				"energy": -0.07689,
				"method": "rhf"
			},
			{
				"type": "unocc",
				"energy": -0.04991,
				"method": "rhf"
			},
			{
				"type": "unocc",
				"energy": -0.0199,
				"method": "rhf"
			},
			{
				"type": "unocc",
				"energy": 0.01052,
				"method": "rhf"
			},
			{
				"type": "unocc",
				"energy": 0.0397,
				"method": "rhf"
			}
		],
		"cosmo_sigma_profile": { 
			"-0.025": 0.0,
			"-0.024": 0.0,
			"-0.023": 0.0,
			"-0.022": 0.0,
			"-0.021": 0.0,
			"-0.02": 0.0,
			"-0.019": 0.0,
			"-0.018": 0.161012845099,
			"-0.017": 1.25665911503,
			"-0.016": 1.02376735017,
			"-0.015": 1.05706306714,
			"-0.014": 1.38803214823,
			"-0.013": 1.16705885884,
			"-0.012": 1.2386807207,
			"-0.011": 1.51463711134,
			"-0.01": 2.50986053706,
			"-0.009": 2.43395396727,
			"-0.008": 6.72319830321,
			"-0.007": 11.2693619226,
			"-0.006": 13.7870809787,
			"-0.005": 13.3975914807,
			"-0.004": 11.9693455752,
			"-0.003": 11.9268070085,
			"-0.002": 12.7559716014,
			"-0.001": 15.1859500396,
			"0.0": 15.5869261164,
			"0.001": 16.9886316427,
			"0.002": 17.5628266112,
			"0.003": 14.6245792361,
			"0.004": 8.91786914379,
			"0.005": 7.95755966178,
			"0.006": 6.9233075306,
			"0.007": 6.01398038559,
			"0.008": 6.22618531077,
			"0.009": 4.80927947852,
			"0.01": 3.33904874212,
			"0.011": 2.85201609176,
			"0.012": 3.09849750611,
			"0.013": 2.72206644566,
			"0.014": 2.49953059931,
			"0.015": 2.25193732753,
			"0.016": 1.24302458644,
			"0.017": 0.0733621179099,
			"0.018": 0.0,
			"0.019": 0.0,
			"0.02": 0.0,
			"0.021": 0.0,
			"0.022": 0.0,
			"0.023": 0.0,
			"0.024": 0.0,
			"0.025": 0.0
		}
	}
}
