{
	 "smiles": "ClC1=CC(Cl)=C2C=CC=CC2=C1", 
	 "Tm": 335.45, 
	 "num_atms": 18, 
	 "gaussian": { 
		 "optdone": 1, 
		 "sigma_profile": "yes", 
		 "theory": "DFT", 
		 "functional": "B3LYP", 
		 "basiset": "6-31G**", 
		 "properties": { 
			 "R2extent": 3995.7538, 
			 "electric_dipole_moment_norm": 2.27419947454, 
			 "electric_quadrupole_moment_norm": 5.6740141549, 
			 "total_energy": -1305.07660192, 
			 "HOMO_LUMO_gap": 0.16959, 
			 "cosmo_polarized_energy": -4.37, 
			 "cosmo_cavitation_energy": 25.47, 
			 "cosmo_dispersion_energy": -19.35, 
			 "cosmo_repulsion_energy": 1.51, 
			 "cosmo_total_nonelectrostatic_energy": 7.64, 
			 "SMD_solvation_energy": 3.52 
		},
		"coords": [
			{
				"x": 3.8543257749,
				"y": -0.5843759402,
				"z": -2.5040989282,
				"element": "Cl" 
			},
			{
				"x": 2.402821553,
				"y": 0.1864167049,
				"z": -1.8865995431,
				"element": "C" 
			},
			{
				"x": 1.221734346,
				"y": 0.0995126748,
				"z": -2.6583075826,
				"element": "C" 
			},
			{
				"x": 0.075173371,
				"y": 0.6976788673,
				"z": -2.189695639,
				"element": "C" 
			},
			{
				"x": -1.3769387831,
				"y": 0.5710174759,
				"z": -3.1739315539,
				"element": "Cl" 
			},
			{
				"x": 0.0335752338,
				"y": 1.4039408387,
				"z": -0.9513058018,
				"element": "C" 
			},
			{
				"x": -1.1292484481,
				"y": 2.0336069974,
				"z": -0.4349829243,
				"element": "C" 
			},
			{
				"x": -1.0919701515,
				"y": 2.6983312004,
				"z": 0.7702948901,
				"element": "C" 
			},
			{
				"x": 0.107803296,
				"y": 2.7662684533,
				"z": 1.5178202935,
				"element": "C" 
			},
			{
				"x": 1.2515503167,
				"y": 2.1662778237,
				"z": 1.0445754307,
				"element": "C" 
			},
			{
				"x": 1.2528319569,
				"y": 1.4709483181,
				"z": -0.1952449823,
				"element": "C" 
			},
			{
				"x": 2.4321926795,
				"y": 0.8509869895,
				"z": -0.6856048484,
				"element": "C" 
			},
			{
				"x": 1.2241953448,
				"y": -0.4303711793,
				"z": -3.6025075142,
				"element": "H" 
			},
			{
				"x": -2.0498323336,
				"y": 1.9836790138,
				"z": -1.0046123091,
				"element": "H" 
			},
			{
				"x": -1.9902733351,
				"y": 3.1747072892,
				"z": 1.1511907507,
				"element": "H" 
			},
			{
				"x": 0.1224901865,
				"y": 3.2939053493,
				"z": 2.466810523,
				"element": "H" 
			},
			{
				"x": 2.1763523885,
				"y": 2.2141801366,
				"z": 1.6129015694,
				"element": "H" 
			},
			{
				"x": 3.3484166038,
				"y": 0.9066889867,
				"z": -0.1079018305,
				"element": "H" 
			}
		],
		 "valence_orbital": [ 
			{
				"type": "occ",
				"energy": -0.31675,
				"method": "rhf"
			},
			{
				"type": "occ",
				"energy": -0.31046,
				"method": "rhf"
			},
			{
				"type": "occ",
				"energy": -0.2869,
				"method": "rhf"
			},
			{
				"type": "occ",
				"energy": -0.25608,
				"method": "rhf"
			},
			{
				"type": "occ",
				"energy": -0.22746,
				"method": "rhf"
			},
			{
				"type": "unocc",
				"energy": -0.05787,
				"method": "rhf"
			},
			{
				"type": "unocc",
				"energy": -0.02819,
				"method": "rhf"
			},
			{
				"type": "unocc",
				"energy": 0.00769,
				"method": "rhf"
			},
			{
				"type": "unocc",
				"energy": 0.01572,
				"method": "rhf"
			},
			{
				"type": "unocc",
				"energy": 0.04655,
				"method": "rhf"
			}
		],
		"cosmo_sigma_profile": { 
			"-0.025": 0.0,
			"-0.024": 0.0,
			"-0.023": 0.0,
			"-0.022": 0.0,
			"-0.021": 0.0,
			"-0.02": 0.0,
			"-0.019": 0.0,
			"-0.018": 0.0,
			"-0.017": 0.0,
			"-0.016": 0.0,
			"-0.015": 0.0,
			"-0.014": 0.0,
			"-0.013": 0.0,
			"-0.012": 0.0,
			"-0.011": 0.0,
			"-0.01": 0.0,
			"-0.009": 0.111157288088,
			"-0.008": 3.13774581263,
			"-0.007": 5.52904465876,
			"-0.006": 11.0369973947,
			"-0.005": 10.6073897834,
			"-0.004": 11.2723214218,
			"-0.003": 8.35380376456,
			"-0.002": 12.6628260695,
			"-0.001": 12.5121179099,
			"0.0": 18.9512567973,
			"0.001": 31.051114012,
			"0.002": 31.5064063293,
			"0.003": 22.7271315852,
			"0.004": 25.3255760509,
			"0.005": 5.20048215099,
			"0.006": 0.0,
			"0.007": 0.0,
			"0.008": 0.0,
			"0.009": 0.0,
			"0.01": 0.0,
			"0.011": 0.0,
			"0.012": 0.0,
			"0.013": 0.0,
			"0.014": 0.0,
			"0.015": 0.0,
			"0.016": 0.0,
			"0.017": 0.0,
			"0.018": 0.0,
			"0.019": 0.0,
			"0.02": 0.0,
			"0.021": 0.0,
			"0.022": 0.0,
			"0.023": 0.0,
			"0.024": 0.0,
			"0.025": 0.0
		}
	}
}
