{
	 "smiles": "CC1=C(C(O)=O)C(=NO1)C1=CC=NC=C1", 
	 "Tm": 523.15, 
	 "num_atms": 23, 
	 "gaussian": { 
		 "optdone": 1, 
		 "sigma_profile": "yes", 
		 "theory": "DFT", 
		 "functional": "B3LYP", 
		 "basiset": "6-31G**", 
		 "properties": { 
			 "R2extent": 3362.1528, 
			 "electric_dipole_moment_norm": 5.11059787011, 
			 "electric_quadrupole_moment_norm": 7.89753474066, 
			 "total_energy": -721.025502365, 
			 "HOMO_LUMO_gap": 0.19897, 
			 "cosmo_polarized_energy": -13.7, 
			 "cosmo_cavitation_energy": 28.17, 
			 "cosmo_dispersion_energy": -20.79, 
			 "cosmo_repulsion_energy": 1.61, 
			 "cosmo_total_nonelectrostatic_energy": 8.99, 
			 "SMD_solvation_energy": 4.72 
		},
		"coords": [
			{
				"x": -1.2501484396,
				"y": 2.3555307131,
				"z": 2.4035086271,
				"element": "C" 
			},
			{
				"x": -0.9221817371,
				"y": 1.1146097265,
				"z": 1.6472736935,
				"element": "C" 
			},
			{
				"x": -0.1534803366,
				"y": 0.8261273809,
				"z": 0.5393337131,
				"element": "C" 
			},
			{
				"x": 0.6527568029,
				"y": 1.780426313,
				"z": -0.2289493684,
				"element": "C" 
			},
			{
				"x": 0.5883627828,
				"y": 3.0357729176,
				"z": 0.2935623675,
				"element": "O" 
			},
			{
				"x": 1.3195165036,
				"y": 1.538793999,
				"z": -1.2157252145,
				"element": "O" 
			},
			{
				"x": -0.2897521513,
				"y": -0.6039301671,
				"z": 0.3833219618,
				"element": "C" 
			},
			{
				"x": -1.0754878958,
				"y": -1.0984967726,
				"z": 1.3176011156,
				"element": "N" 
			},
			{
				"x": -1.4698517557,
				"y": -0.0151785785,
				"z": 2.1086415909,
				"element": "O" 
			},
			{
				"x": 0.286779967,
				"y": -1.5641897065,
				"z": -0.5857877934,
				"element": "C" 
			},
			{
				"x": 0.5534776391,
				"y": -2.8767613079,
				"z": -0.1667223684,
				"element": "C" 
			},
			{
				"x": 1.0457992466,
				"y": -3.7929294691,
				"z": -1.092653083,
				"element": "C" 
			},
			{
				"x": 1.2850082675,
				"y": -3.5004584345,
				"z": -2.3780456617,
				"element": "N" 
			},
			{
				"x": 1.0241949136,
				"y": -2.2473511595,
				"z": -2.7685198508,
				"element": "C" 
			},
			{
				"x": 0.5302251611,
				"y": -1.2494171993,
				"z": -1.9275922932,
				"element": "C" 
			},
			{
				"x": -1.6750503845,
				"y": 3.1118245076,
				"z": 1.7392196353,
				"element": "H" 
			},
			{
				"x": -0.3475640465,
				"y": 2.7874436501,
				"z": 2.8445192019,
				"element": "H" 
			},
			{
				"x": -1.963412916,
				"y": 2.1207812574,
				"z": 3.1956030795,
				"element": "H" 
			},
			{
				"x": 1.1489751044,
				"y": 3.5843127407,
				"z": -0.2802152021,
				"element": "H" 
			},
			{
				"x": 0.3780863148,
				"y": -3.1689168911,
				"z": 0.8622862546,
				"element": "H" 
			},
			{
				"x": 1.2613304334,
				"y": -4.8144103276,
				"z": -0.7843249203,
				"element": "H" 
			},
			{
				"x": 1.2209726441,
				"y": -2.0207353771,
				"z": -3.8148266139,
				"element": "H" 
			},
			{
				"x": 0.3592438822,
				"y": -0.2518478151,
				"z": -2.3076088712,
				"element": "H" 
			}
		],
		 "valence_orbital": [ 
			{
				"type": "occ",
				"energy": -0.29565,
				"method": "rhf"
			},
			{
				"type": "occ",
				"energy": -0.28098,
				"method": "rhf"
			},
			{
				"type": "occ",
				"energy": -0.26769,
				"method": "rhf"
			},
			{
				"type": "occ",
				"energy": -0.25922,
				"method": "rhf"
			},
			{
				"type": "occ",
				"energy": -0.252,
				"method": "rhf"
			},
			{
				"type": "unocc",
				"energy": -0.05303,
				"method": "rhf"
			},
			{
				"type": "unocc",
				"energy": -0.04844,
				"method": "rhf"
			},
			{
				"type": "unocc",
				"energy": -0.00805,
				"method": "rhf"
			},
			{
				"type": "unocc",
				"energy": 0.0134,
				"method": "rhf"
			},
			{
				"type": "unocc",
				"energy": 0.06376,
				"method": "rhf"
			}
		],
		"cosmo_sigma_profile": { 
			"-0.025": 0.0,
			"-0.024": 0.0,
			"-0.023": 0.0,
			"-0.022": 0.0,
			"-0.021": 0.0,
			"-0.02": 0.0,
			"-0.019": 0.0459026195413,
			"-0.018": 0.958979423114,
			"-0.017": 0.758066510487,
			"-0.016": 1.06782206736,
			"-0.015": 1.04544932255,
			"-0.014": 0.113268181687,
			"-0.013": 0.165961506254,
			"-0.012": 1.02720214652,
			"-0.011": 1.39689344174,
			"-0.01": 0.572229895739,
			"-0.009": 0.177858604683,
			"-0.008": 0.688247522346,
			"-0.007": 5.73799767041,
			"-0.006": 13.1890250555,
			"-0.005": 16.7868900895,
			"-0.004": 15.3391513731,
			"-0.003": 22.1991577413,
			"-0.002": 21.882885209,
			"-0.001": 13.0047857389,
			"0.0": 12.8239750667,
			"0.001": 15.8428325259,
			"0.002": 18.4389073708,
			"0.003": 8.49953479678,
			"0.004": 10.1736984124,
			"0.005": 7.12660723438,
			"0.006": 5.98546753208,
			"0.007": 7.24229548667,
			"0.008": 4.94616930269,
			"0.009": 2.82900442752,
			"0.01": 4.6295116759,
			"0.011": 5.19184216175,
			"0.012": 2.52631378045,
			"0.013": 1.57534540035,
			"0.014": 0.610193020979,
			"0.015": 0.65674722825,
			"0.016": 1.05983012925,
			"0.017": 0.0610963963753,
			"0.018": 0.0,
			"0.019": 0.0,
			"0.02": 0.0,
			"0.021": 0.0,
			"0.022": 0.0,
			"0.023": 0.0,
			"0.024": 0.0,
			"0.025": 0.0
		}
	}
}
