{
	 "smiles": "COC(=O)CN1C(S)=NC2=C(C=CC=C2)C1=O", 
	 "Tm": 290.15, 
	 "num_atms": 27, 
	 "gaussian": { 
		 "optdone": 1, 
		 "sigma_profile": "yes", 
		 "theory": "DFT", 
		 "functional": "B3LYP", 
		 "basiset": "6-31G**", 
		 "properties": { 
			 "R2extent": 5430.4379, 
			 "electric_dipole_moment_norm": 1.67176702922, 
			 "electric_quadrupole_moment_norm": 16.9944779855, 
			 "total_energy": -1158.58597975, 
			 "HOMO_LUMO_gap": 0.18046, 
			 "cosmo_polarized_energy": -14.11, 
			 "cosmo_cavitation_energy": 33.4, 
			 "cosmo_dispersion_energy": -24.42, 
			 "cosmo_repulsion_energy": 1.85, 
			 "cosmo_total_nonelectrostatic_energy": 10.83, 
			 "SMD_solvation_energy": 5.87 
		},
		"coords": [
			{
				"x": 1.4242527296,
				"y": 1.7118297339,
				"z": 4.9939644623,
				"element": "C" 
			},
			{
				"x": 0.835409851,
				"y": 1.9668806697,
				"z": 3.7046771668,
				"element": "O" 
			},
			{
				"x": 1.139132095,
				"y": 1.0730750858,
				"z": 2.7463999053,
				"element": "C" 
			},
			{
				"x": 1.8563658491,
				"y": 0.1130378729,
				"z": 2.8939426117,
				"element": "O" 
			},
			{
				"x": 0.4242697161,
				"y": 1.4543610072,
				"z": 1.4512916828,
				"element": "C" 
			},
			{
				"x": 0.7662991781,
				"y": 0.5561213048,
				"z": 0.3588745358,
				"element": "N" 
			},
			{
				"x": 1.9081819033,
				"y": 0.7100575147,
				"z": -0.4060578168,
				"element": "C" 
			},
			{
				"x": 2.8983179331,
				"y": 2.1619630929,
				"z": -0.0677805637,
				"element": "S" 
			},
			{
				"x": 2.2899867152,
				"y": -0.0905152995,
				"z": -1.3434142921,
				"element": "N" 
			},
			{
				"x": 1.5128076418,
				"y": -1.2086716302,
				"z": -1.5990231038,
				"element": "C" 
			},
			{
				"x": 0.3341544573,
				"y": -1.4842559731,
				"z": -0.8720582761,
				"element": "C" 
			},
			{
				"x": -0.4287708731,
				"y": -2.6286579057,
				"z": -1.156605898,
				"element": "C" 
			},
			{
				"x": -0.0255055573,
				"y": -3.4942881131,
				"z": -2.1610397661,
				"element": "C" 
			},
			{
				"x": 1.1482050891,
				"y": -3.2240666699,
				"z": -2.8890522505,
				"element": "C" 
			},
			{
				"x": 1.9105273341,
				"y": -2.0989048152,
				"z": -2.6158279566,
				"element": "C" 
			},
			{
				"x": -0.0840155548,
				"y": -0.5715324032,
				"z": 0.1896477434,
				"element": "C" 
			},
			{
				"x": -1.0747095342,
				"y": -0.7035145738,
				"z": 0.8960325244,
				"element": "O" 
			},
			{
				"x": 1.0913243609,
				"y": 0.7457397381,
				"z": 5.3803805903,
				"element": "H" 
			},
			{
				"x": 2.5143492479,
				"y": 1.7099825834,
				"z": 4.9217801539,
				"element": "H" 
			},
			{
				"x": 1.0824750038,
				"y": 2.5216561491,
				"z": 5.6377317029,
				"element": "H" 
			},
			{
				"x": -0.6513395837,
				"y": 1.3664105816,
				"z": 1.6177403128,
				"element": "H" 
			},
			{
				"x": 0.6454717794,
				"y": 2.4916789631,
				"z": 1.1890121925,
				"element": "H" 
			},
			{
				"x": 3.7809220347,
				"y": 1.8491151741,
				"z": -1.0329903011,
				"element": "H" 
			},
			{
				"x": -1.326206815,
				"y": -2.806897847,
				"z": -0.5737668079,
				"element": "H" 
			},
			{
				"x": -0.6115982805,
				"y": -4.379803077,
				"z": -2.3863591042,
				"element": "H" 
			},
			{
				"x": 1.4615426761,
				"y": -3.9059694594,
				"z": -3.6745876766,
				"element": "H" 
			},
			{
				"x": 2.818450603,
				"y": -1.8769317041,
				"z": -3.1665117713,
				"element": "H" 
			}
		],
		 "valence_orbital": [ 
			{
				"type": "occ",
				"energy": -0.27974,
				"method": "rhf"
			},
			{
				"type": "occ",
				"energy": -0.27854,
				"method": "rhf"
			},
			{
				"type": "occ",
				"energy": -0.27037,
				"method": "rhf"
			},
			{
				"type": "occ",
				"energy": -0.26111,
				"method": "rhf"
			},
			{
				"type": "occ",
				"energy": -0.225,
				"method": "rhf"
			},
			{
				"type": "unocc",
				"energy": -0.04454,
				"method": "rhf"
			},
			{
				"type": "unocc",
				"energy": -0.035,
				"method": "rhf"
			},
			{
				"type": "unocc",
				"energy": -0.00127,
				"method": "rhf"
			},
			{
				"type": "unocc",
				"energy": 0.00383,
				"method": "rhf"
			},
			{
				"type": "unocc",
				"energy": 0.02678,
				"method": "rhf"
			}
		],
		"cosmo_sigma_profile": { 
			"-0.025": 0.0,
			"-0.024": 0.0,
			"-0.023": 0.0,
			"-0.022": 0.0,
			"-0.021": 0.0,
			"-0.02": 0.0,
			"-0.019": 0.0,
			"-0.018": 0.0,
			"-0.017": 0.0,
			"-0.016": 0.0,
			"-0.015": 0.0,
			"-0.014": 0.0,
			"-0.013": 0.0366530431087,
			"-0.012": 1.02065141053,
			"-0.011": 1.39387471023,
			"-0.01": 1.34324749954,
			"-0.009": 1.62825189529,
			"-0.008": 4.20779285258,
			"-0.007": 9.37813097757,
			"-0.006": 18.5595719346,
			"-0.005": 21.6831412731,
			"-0.004": 22.8570217943,
			"-0.003": 19.9610496755,
			"-0.002": 13.6663867269,
			"-0.001": 15.4478153912,
			"0.0": 15.0795976551,
			"0.001": 20.0551102243,
			"0.002": 20.7285123138,
			"0.003": 21.7397333254,
			"0.004": 14.5868733498,
			"0.005": 8.22115842731,
			"0.006": 7.52496820597,
			"0.007": 4.65357296064,
			"0.008": 4.35907133511,
			"0.009": 4.87365714528,
			"0.01": 4.9097519656,
			"0.011": 7.17107018817,
			"0.012": 4.33273902937,
			"0.013": 0.456862414673,
			"0.014": 0.0,
			"0.015": 0.0,
			"0.016": 0.0,
			"0.017": 0.0,
			"0.018": 0.0,
			"0.019": 0.0,
			"0.02": 0.0,
			"0.021": 0.0,
			"0.022": 0.0,
			"0.023": 0.0,
			"0.024": 0.0,
			"0.025": 0.0
		}
	}
}
