{
	 "smiles": "OCC1=NN=C(N1C1=CC=CC=C1)C1=CC=CC=C1", 
	 "Tm": 473.15, 
	 "num_atms": 32, 
	 "gaussian": { 
		 "optdone": 1, 
		 "sigma_profile": "yes", 
		 "theory": "DFT", 
		 "functional": "B3LYP", 
		 "basiset": "6-31G**", 
		 "properties": { 
			 "R2extent": 5014.7576, 
			 "electric_dipole_moment_norm": 4.56436430075, 
			 "electric_quadrupole_moment_norm": 9.80862372558, 
			 "total_energy": -818.884113844, 
			 "HOMO_LUMO_gap": 0.19181, 
			 "cosmo_polarized_energy": -16.68, 
			 "cosmo_cavitation_energy": 35.9, 
			 "cosmo_dispersion_energy": -25.05, 
			 "cosmo_repulsion_energy": 1.93, 
			 "cosmo_total_nonelectrostatic_energy": 12.78, 
			 "SMD_solvation_energy": 4.05 
		},
		"coords": [
			{
				"x": 0.0572698692,
				"y": -0.7940651509,
				"z": -4.0744257793,
				"element": "O" 
			},
			{
				"x": -0.208743632,
				"y": -1.7220969831,
				"z": -3.0199961415,
				"element": "C" 
			},
			{
				"x": -1.0132532919,
				"y": -1.1149208965,
				"z": -1.9149341761,
				"element": "C" 
			},
			{
				"x": -2.3170586477,
				"y": -1.2341391838,
				"z": -1.80648152,
				"element": "N" 
			},
			{
				"x": -2.7215469867,
				"y": -0.4828442875,
				"z": -0.7339113397,
				"element": "N" 
			},
			{
				"x": -1.6541160686,
				"y": 0.0840877938,
				"z": -0.2024209263,
				"element": "C" 
			},
			{
				"x": -0.526792416,
				"y": -0.2850891885,
				"z": -0.9204204503,
				"element": "N" 
			},
			{
				"x": 0.853401708,
				"y": -0.0316622092,
				"z": -0.6317050946,
				"element": "C" 
			},
			{
				"x": 1.3710904256,
				"y": -0.3656899454,
				"z": 0.6245917645,
				"element": "C" 
			},
			{
				"x": 2.7150602685,
				"y": -0.1196914994,
				"z": 0.9001614483,
				"element": "C" 
			},
			{
				"x": 3.5430562818,
				"y": 0.4416477869,
				"z": -0.0751463657,
				"element": "C" 
			},
			{
				"x": 3.022392985,
				"y": 0.7562792524,
				"z": -1.3313239774,
				"element": "C" 
			},
			{
				"x": 1.6749313742,
				"y": 0.5276332196,
				"z": -1.6156050718,
				"element": "C" 
			},
			{
				"x": -1.7127436568,
				"y": 0.9923760945,
				"z": 0.9535403622,
				"element": "C" 
			},
			{
				"x": -2.7295708311,
				"y": 0.7878995821,
				"z": 1.902055194,
				"element": "C" 
			},
			{
				"x": -2.8609575134,
				"y": 1.646745257,
				"z": 2.9902650975,
				"element": "C" 
			},
			{
				"x": -1.9824392524,
				"y": 2.7214601163,
				"z": 3.1485972125,
				"element": "C" 
			},
			{
				"x": -0.977311913,
				"y": 2.9376095109,
				"z": 2.2043479395,
				"element": "C" 
			},
			{
				"x": -0.8418259464,
				"y": 2.0827969506,
				"z": 1.111027952,
				"element": "C" 
			},
			{
				"x": -0.8000352224,
				"y": -0.5073476317,
				"z": -4.4187953011,
				"element": "H" 
			},
			{
				"x": 0.7689454471,
				"y": -2.0555181781,
				"z": -2.663155739,
				"element": "H" 
			},
			{
				"x": -0.7638990116,
				"y": -2.5953760877,
				"z": -3.382377754,
				"element": "H" 
			},
			{
				"x": 0.7229691132,
				"y": -0.8094220806,
				"z": 1.3726307305,
				"element": "H" 
			},
			{
				"x": 3.1163859836,
				"y": -0.3751942793,
				"z": 1.8761739904,
				"element": "H" 
			},
			{
				"x": 4.5906240838,
				"y": 0.6270617097,
				"z": 0.1422832871,
				"element": "H" 
			},
			{
				"x": 3.6630150339,
				"y": 1.1846267951,
				"z": -2.0962347394,
				"element": "H" 
			},
			{
				"x": 1.2612301397,
				"y": 0.747180312,
				"z": -2.594029691,
				"element": "H" 
			},
			{
				"x": -3.4108254294,
				"y": -0.0444830717,
				"z": 1.7635109502,
				"element": "H" 
			},
			{
				"x": -3.6496598484,
				"y": 1.4758020886,
				"z": 3.7171941808,
				"element": "H" 
			},
			{
				"x": -2.0840071463,
				"y": 3.389119159,
				"z": 3.9992925942,
				"element": "H" 
			},
			{
				"x": -0.2996238598,
				"y": 3.7794729043,
				"z": 2.3125806936,
				"element": "H" 
			},
			{
				"x": -0.0697620397,
				"y": 2.2747421402,
				"z": 0.3743106701,
				"element": "H" 
			}
		],
		 "valence_orbital": [ 
			{
				"type": "occ",
				"energy": -0.26971,
				"method": "rhf"
			},
			{
				"type": "occ",
				"energy": -0.26384,
				"method": "rhf"
			},
			{
				"type": "occ",
				"energy": -0.2532,
				"method": "rhf"
			},
			{
				"type": "occ",
				"energy": -0.24499,
				"method": "rhf"
			},
			{
				"type": "occ",
				"energy": -0.22957,
				"method": "rhf"
			},
			{
				"type": "unocc",
				"energy": -0.03776,
				"method": "rhf"
			},
			{
				"type": "unocc",
				"energy": -0.02279,
				"method": "rhf"
			},
			{
				"type": "unocc",
				"energy": -0.01951,
				"method": "rhf"
			},
			{
				"type": "unocc",
				"energy": -0.00293,
				"method": "rhf"
			},
			{
				"type": "unocc",
				"energy": 0.0214,
				"method": "rhf"
			}
		],
		"cosmo_sigma_profile": { 
			"-0.025": 0.0,
			"-0.024": 0.0,
			"-0.023": 0.0,
			"-0.022": 0.0,
			"-0.021": 0.0,
			"-0.02": 0.0,
			"-0.019": 0.0,
			"-0.018": 0.0,
			"-0.017": 0.0,
			"-0.016": 0.563879046951,
			"-0.015": 1.2043631447,
			"-0.014": 0.517341681441,
			"-0.013": 0.882147078574,
			"-0.012": 0.952263823777,
			"-0.011": 1.14477548916,
			"-0.01": 0.538471183918,
			"-0.009": 0.588677228547,
			"-0.008": 0.936786605462,
			"-0.007": 5.32935615381,
			"-0.006": 20.8333088936,
			"-0.005": 26.2509911285,
			"-0.004": 28.7923322937,
			"-0.003": 22.2179791718,
			"-0.002": 21.4512028111,
			"-0.001": 15.9123456128,
			"0.0": 17.5758138379,
			"0.001": 16.3452016139,
			"0.002": 19.2424583866,
			"0.003": 21.0316311889,
			"0.004": 21.8241023594,
			"0.005": 9.88813151849,
			"0.006": 3.03237550367,
			"0.007": 2.99649540436,
			"0.008": 3.11829322788,
			"0.009": 2.49502220216,
			"0.01": 2.85629462217,
			"0.011": 3.87628365759,
			"0.012": 2.9271582734,
			"0.013": 4.69956433762,
			"0.014": 2.62883698171,
			"0.015": 2.56871943684,
			"0.016": 1.93005822705,
			"0.017": 0.410529711475,
			"0.018": 0.0,
			"0.019": 0.0,
			"0.02": 0.0,
			"0.021": 0.0,
			"0.022": 0.0,
			"0.023": 0.0,
			"0.024": 0.0,
			"0.025": 0.0
		}
	}
}
