{
	 "smiles": "ClC1=NNC=C1", 
	 "Tm": 342.15, 
	 "num_atms": 9, 
	 "gaussian": { 
		 "optdone": 1, 
		 "sigma_profile": "yes", 
		 "theory": "DFT", 
		 "functional": "B3LYP", 
		 "basiset": "6-31G**", 
		 "properties": { 
			 "R2extent": 1398.0351, 
			 "electric_dipole_moment_norm": 3.86886521476, 
			 "electric_quadrupole_moment_norm": 13.6579516349, 
			 "total_energy": -685.790342447, 
			 "HOMO_LUMO_gap": 0.25748, 
			 "cosmo_polarized_energy": -10.02, 
			 "cosmo_cavitation_energy": 15.04, 
			 "cosmo_dispersion_energy": -11.76, 
			 "cosmo_repulsion_energy": 1.03, 
			 "cosmo_total_nonelectrostatic_energy": 4.3, 
			 "SMD_solvation_energy": 1.95 
		},
		"coords": [
			{
				"x": -0.8449931925,
				"y": 1.7020425585,
				"z": 1.5672405512,
				"element": "Cl" 
			},
			{
				"x": -0.8318831162,
				"y": 1.7713452729,
				"z": -0.1652592953,
				"element": "C" 
			},
			{
				"x": -1.969100724,
				"y": 1.7331440722,
				"z": -0.8462520305,
				"element": "N" 
			},
			{
				"x": -1.5631659822,
				"y": 1.8073184983,
				"z": -2.1326465568,
				"element": "N" 
			},
			{
				"x": -0.2145140806,
				"y": 1.8899704772,
				"z": -2.2697195892,
				"element": "C" 
			},
			{
				"x": 0.309688809,
				"y": 1.8694718474,
				"z": -0.9924385733,
				"element": "C" 
			},
			{
				"x": -2.2610566359,
				"y": 1.7961020319,
				"z": -2.8598478681,
				"element": "H" 
			},
			{
				"x": 0.2598509565,
				"y": 1.9554700428,
				"z": -3.2380256536,
				"element": "H" 
			},
			{
				"x": 1.3444739659,
				"y": 1.9169351987,
				"z": -0.6935509845,
				"element": "H" 
			}
		],
		 "valence_orbital": [ 
			{
				"type": "occ",
				"energy": -0.34942,
				"method": "rhf"
			},
			{
				"type": "occ",
				"energy": -0.31468,
				"method": "rhf"
			},
			{
				"type": "occ",
				"energy": -0.30429,
				"method": "rhf"
			},
			{
				"type": "occ",
				"energy": -0.26171,
				"method": "rhf"
			},
			{
				"type": "occ",
				"energy": -0.25045,
				"method": "rhf"
			},
			{
				"type": "unocc",
				"energy": 0.00703,
				"method": "rhf"
			},
			{
				"type": "unocc",
				"energy": 0.03802,
				"method": "rhf"
			},
			{
				"type": "unocc",
				"energy": 0.05865,
				"method": "rhf"
			},
			{
				"type": "unocc",
				"energy": 0.0862,
				"method": "rhf"
			},
			{
				"type": "unocc",
				"energy": 0.1245,
				"method": "rhf"
			}
		],
		"cosmo_sigma_profile": { 
			"-0.025": 0.0,
			"-0.024": 0.0,
			"-0.023": 0.0,
			"-0.022": 0.0,
			"-0.021": 0.0,
			"-0.02": 0.0,
			"-0.019": 0.0,
			"-0.018": 0.0162167748078,
			"-0.017": 1.3841857851,
			"-0.016": 1.61183989438,
			"-0.015": 1.83875446338,
			"-0.014": 0.760460087124,
			"-0.013": 0.813196509786,
			"-0.012": 1.02037065893,
			"-0.011": 1.23376603822,
			"-0.01": 2.29980773102,
			"-0.009": 3.02702197398,
			"-0.008": 3.44093713733,
			"-0.007": 4.15937859948,
			"-0.006": 3.55614138469,
			"-0.005": 3.58596026318,
			"-0.004": 3.58055384705,
			"-0.003": 3.80258186842,
			"-0.002": 5.26981669211,
			"-0.001": 5.15479453001,
			"0.0": 5.78386698457,
			"0.001": 6.93696182412,
			"0.002": 12.1374856846,
			"0.003": 14.523148326,
			"0.004": 15.5289621959,
			"0.005": 8.13449838413,
			"0.006": 2.41186659425,
			"0.007": 2.04740680982,
			"0.008": 1.54552721837,
			"0.009": 1.57353280102,
			"0.01": 1.20052731131,
			"0.011": 1.27147813778,
			"0.012": 0.872639230481,
			"0.013": 1.08949648631,
			"0.014": 1.15545711651,
			"0.015": 0.638639139751,
			"0.016": 0.0,
			"0.017": 0.0,
			"0.018": 0.0,
			"0.019": 0.0,
			"0.02": 0.0,
			"0.021": 0.0,
			"0.022": 0.0,
			"0.023": 0.0,
			"0.024": 0.0,
			"0.025": 0.0
		}
	}
}
