{
	 "smiles": "NC(=O)NCC1=NC=CC=C1", 
	 "Tm": 413.15, 
	 "num_atms": 20, 
	 "gaussian": { 
		 "optdone": 1, 
		 "sigma_profile": "yes", 
		 "theory": "DFT", 
		 "functional": "B3LYP", 
		 "basiset": "6-31G**", 
		 "properties": { 
			 "R2extent": 2966.7278, 
			 "electric_dipole_moment_norm": 5.96438099638, 
			 "electric_quadrupole_moment_norm": 25.2818560058, 
			 "total_energy": -511.672286831, 
			 "HOMO_LUMO_gap": 0.18581, 
			 "cosmo_polarized_energy": -15.52, 
			 "cosmo_cavitation_energy": 23.9, 
			 "cosmo_dispersion_energy": -17.8, 
			 "cosmo_repulsion_energy": 1.45, 
			 "cosmo_total_nonelectrostatic_energy": 7.55, 
			 "SMD_solvation_energy": 3.82 
		},
		"coords": [
			{
				"x": 0.3023350453,
				"y": -3.1532245097,
				"z": -2.6857738421,
				"element": "N" 
			},
			{
				"x": -0.5503705672,
				"y": -3.8785804831,
				"z": -1.876695586,
				"element": "C" 
			},
			{
				"x": -1.2838969496,
				"y": -4.7734046619,
				"z": -2.2816676293,
				"element": "O" 
			},
			{
				"x": -0.5067025998,
				"y": -3.5359911931,
				"z": -0.5314134575,
				"element": "N" 
			},
			{
				"x": 0.5781624212,
				"y": -2.8146099641,
				"z": 0.1231778574,
				"element": "C" 
			},
			{
				"x": 0.3558289471,
				"y": -1.3108184055,
				"z": 0.1877493613,
				"element": "C" 
			},
			{
				"x": 0.4414177065,
				"y": -0.6513212324,
				"z": -0.9814300084,
				"element": "N" 
			},
			{
				"x": 0.2398141991,
				"y": 0.6707168761,
				"z": -0.9845455477,
				"element": "C" 
			},
			{
				"x": -0.0448200711,
				"y": 1.4069048432,
				"z": 0.1659200921,
				"element": "C" 
			},
			{
				"x": -0.1276767472,
				"y": 0.7254627876,
				"z": 1.3786207382,
				"element": "C" 
			},
			{
				"x": 0.0744767298,
				"y": -0.6541682098,
				"z": 1.3895643787,
				"element": "C" 
			},
			{
				"x": 0.4861194667,
				"y": -2.1872129178,
				"z": -2.4187832904,
				"element": "H" 
			},
			{
				"x": 0.1294700352,
				"y": -3.3189694273,
				"z": -3.666497231,
				"element": "H" 
			},
			{
				"x": -1.0772708695,
				"y": -4.1482077736,
				"z": 0.0318206997,
				"element": "H" 
			},
			{
				"x": 1.5177051396,
				"y": -3.0057838706,
				"z": -0.4088073155,
				"element": "H" 
			},
			{
				"x": 0.6891697428,
				"y": -3.2078903978,
				"z": 1.1379851507,
				"element": "H" 
			},
			{
				"x": 0.3145583373,
				"y": 1.1645208428,
				"z": -1.9513969054,
				"element": "H" 
			},
			{
				"x": -0.1945280699,
				"y": 2.4799695398,
				"z": 0.1071973138,
				"element": "H" 
			},
			{
				"x": -0.3463722262,
				"y": 1.2575622741,
				"z": 2.3000043855,
				"element": "H" 
			},
			{
				"x": 0.0150803301,
				"y": -1.217554117,
				"z": 2.3159708356,
				"element": "H" 
			}
		],
		 "valence_orbital": [ 
			{
				"type": "occ",
				"energy": -0.28265,
				"method": "rhf"
			},
			{
				"type": "occ",
				"energy": -0.27356,
				"method": "rhf"
			},
			{
				"type": "occ",
				"energy": -0.24954,
				"method": "rhf"
			},
			{
				"type": "occ",
				"energy": -0.24213,
				"method": "rhf"
			},
			{
				"type": "occ",
				"energy": -0.2276,
				"method": "rhf"
			},
			{
				"type": "unocc",
				"energy": -0.04179,
				"method": "rhf"
			},
			{
				"type": "unocc",
				"energy": -0.02479,
				"method": "rhf"
			},
			{
				"type": "unocc",
				"energy": 0.06936,
				"method": "rhf"
			},
			{
				"type": "unocc",
				"energy": 0.08059,
				"method": "rhf"
			},
			{
				"type": "unocc",
				"energy": 0.09497,
				"method": "rhf"
			}
		],
		"cosmo_sigma_profile": { 
			"-0.025": 0.0,
			"-0.024": 0.0,
			"-0.023": 0.0,
			"-0.022": 0.0,
			"-0.021": 0.0,
			"-0.02": 0.0,
			"-0.019": 0.0,
			"-0.018": 0.0,
			"-0.017": 0.0,
			"-0.016": 0.0,
			"-0.015": 0.0,
			"-0.014": 0.0,
			"-0.013": 1.16490209349,
			"-0.012": 2.11056919298,
			"-0.011": 2.06900003601,
			"-0.01": 1.67982447839,
			"-0.009": 2.58219718291,
			"-0.008": 3.24466966059,
			"-0.007": 11.787495272,
			"-0.006": 13.3231921746,
			"-0.005": 14.4423212411,
			"-0.004": 11.2893415707,
			"-0.003": 11.221031867,
			"-0.002": 9.74873470584,
			"-0.001": 9.17474359099,
			"0.0": 10.3723353538,
			"0.001": 12.7416447361,
			"0.002": 17.9018413137,
			"0.003": 13.9495712882,
			"0.004": 5.83295551873,
			"0.005": 5.28637950377,
			"0.006": 4.34848597571,
			"0.007": 3.67285021324,
			"0.008": 1.92558201668,
			"0.009": 1.35597721817,
			"0.01": 2.0241335755,
			"0.011": 1.64035646774,
			"0.012": 1.67164622955,
			"0.013": 2.04173007449,
			"0.014": 3.5336679428,
			"0.015": 6.62544166979,
			"0.016": 1.12588878827,
			"0.017": 0.0,
			"0.018": 0.0,
			"0.019": 0.0,
			"0.02": 0.0,
			"0.021": 0.0,
			"0.022": 0.0,
			"0.023": 0.0,
			"0.024": 0.0,
			"0.025": 0.0
		}
	}
}
