{
	 "smiles": "CC1=CC=C(C=C1)C1(C)CNCCO1", 
	 "Tm": 323.15, 
	 "num_atms": 31, 
	 "gaussian": { 
		 "optdone": 1, 
		 "sigma_profile": "yes", 
		 "theory": "DFT", 
		 "functional": "B3LYP", 
		 "basiset": "6-31G**", 
		 "properties": { 
			 "R2extent": 3597.5927, 
			 "electric_dipole_moment_norm": 2.09729744433, 
			 "electric_quadrupole_moment_norm": 9.99270653477, 
			 "total_energy": -597.484910838, 
			 "HOMO_LUMO_gap": 0.22014, 
			 "cosmo_polarized_energy": -8.57, 
			 "cosmo_cavitation_energy": 31.59, 
			 "cosmo_dispersion_energy": -22.88, 
			 "cosmo_repulsion_energy": 1.81, 
			 "cosmo_total_nonelectrostatic_energy": 10.51, 
			 "SMD_solvation_energy": 3.54 
		},
		"coords": [
			{
				"x": 2.6271853106,
				"y": -2.9302008471,
				"z": -0.1544092296,
				"element": "C" 
			},
			{
				"x": 1.5911037707,
				"y": -1.8476254648,
				"z": -0.347246965,
				"element": "C" 
			},
			{
				"x": 0.3751460845,
				"y": -2.1161196458,
				"z": -0.9898352673,
				"element": "C" 
			},
			{
				"x": -0.5946470931,
				"y": -1.1263082933,
				"z": -1.1411375334,
				"element": "C" 
			},
			{
				"x": -0.3835858854,
				"y": 0.1728941339,
				"z": -0.6563982651,
				"element": "C" 
			},
			{
				"x": 0.833599216,
				"y": 0.4459034772,
				"z": -0.0232431335,
				"element": "C" 
			},
			{
				"x": 1.8014279989,
				"y": -0.5480808229,
				"z": 0.1280923772,
				"element": "C" 
			},
			{
				"x": -1.4340410772,
				"y": 1.2698127409,
				"z": -0.8548101326,
				"element": "C" 
			},
			{
				"x": -1.4120941347,
				"y": 1.7955397376,
				"z": -2.2959704966,
				"element": "C" 
			},
			{
				"x": -2.8582803518,
				"y": 0.7581392337,
				"z": -0.483126049,
				"element": "C" 
			},
			{
				"x": -3.6989029222,
				"y": 1.9118955315,
				"z": -0.1914379409,
				"element": "N" 
			},
			{
				"x": -3.2858836424,
				"y": 2.6103066923,
				"z": 1.0332353721,
				"element": "C" 
			},
			{
				"x": -1.7682515058,
				"y": 2.4333717215,
				"z": 1.2142295784,
				"element": "C" 
			},
			{
				"x": -1.1131616872,
				"y": 2.4200384697,
				"z": -0.0442542515,
				"element": "O" 
			},
			{
				"x": 2.6146279361,
				"y": -3.649256023,
				"z": -0.9795527654,
				"element": "H" 
			},
			{
				"x": 2.4472226529,
				"y": -3.4947675409,
				"z": 0.7694578054,
				"element": "H" 
			},
			{
				"x": 3.6357589319,
				"y": -2.5111895147,
				"z": -0.0866238271,
				"element": "H" 
			},
			{
				"x": 0.1847240996,
				"y": -3.113913172,
				"z": -1.3788887206,
				"element": "H" 
			},
			{
				"x": -1.5213657509,
				"y": -1.3740338132,
				"z": -1.6525314478,
				"element": "H" 
			},
			{
				"x": 1.0164869827,
				"y": 1.4494049682,
				"z": 0.3445941135,
				"element": "H" 
			},
			{
				"x": 2.7396392886,
				"y": -0.3065897131,
				"z": 0.6229365961,
				"element": "H" 
			},
			{
				"x": -0.4608264922,
				"y": 2.2981234939,
				"z": -2.4904404096,
				"element": "H" 
			},
			{
				"x": -2.2283903161,
				"y": 2.5102808581,
				"z": -2.4295040513,
				"element": "H" 
			},
			{
				"x": -1.5229238055,
				"y": 0.97632599,
				"z": -3.0128932675,
				"element": "H" 
			},
			{
				"x": -3.2829454928,
				"y": 0.2219958135,
				"z": -1.3373356489,
				"element": "H" 
			},
			{
				"x": -2.7881910931,
				"y": 0.0318608963,
				"z": 0.3462316421,
				"element": "H" 
			},
			{
				"x": -4.677027937,
				"y": 1.6485637527,
				"z": -0.1481151115,
				"element": "H" 
			},
			{
				"x": -3.7902428007,
				"y": 2.239717969,
				"z": 1.9434218861,
				"element": "H" 
			},
			{
				"x": -3.5334127333,
				"y": 3.6741352442,
				"z": 0.932182378,
				"element": "H" 
			},
			{
				"x": -1.5471012841,
				"y": 1.5129927772,
				"z": 1.7750251867,
				"element": "H" 
			},
			{
				"x": -1.3463462668,
				"y": 3.2696813494,
				"z": 1.7786475787,
				"element": "H" 
			}
		],
		 "valence_orbital": [ 
			{
				"type": "occ",
				"energy": -0.29889,
				"method": "rhf"
			},
			{
				"type": "occ",
				"energy": -0.24711,
				"method": "rhf"
			},
			{
				"type": "occ",
				"energy": -0.24125,
				"method": "rhf"
			},
			{
				"type": "occ",
				"energy": -0.22748,
				"method": "rhf"
			},
			{
				"type": "occ",
				"energy": -0.21534,
				"method": "rhf"
			},
			{
				"type": "unocc",
				"energy": 0.0048,
				"method": "rhf"
			},
			{
				"type": "unocc",
				"energy": 0.00847,
				"method": "rhf"
			},
			{
				"type": "unocc",
				"energy": 0.07513,
				"method": "rhf"
			},
			{
				"type": "unocc",
				"energy": 0.10141,
				"method": "rhf"
			},
			{
				"type": "unocc",
				"energy": 0.11465,
				"method": "rhf"
			}
		],
		"cosmo_sigma_profile": { 
			"-0.025": 0.0,
			"-0.024": 0.0,
			"-0.023": 0.0,
			"-0.022": 0.0,
			"-0.021": 0.0,
			"-0.02": 0.0,
			"-0.019": 0.0,
			"-0.018": 0.0,
			"-0.017": 0.0,
			"-0.016": 0.0,
			"-0.015": 0.0,
			"-0.014": 0.0,
			"-0.013": 0.0,
			"-0.012": 0.0,
			"-0.011": 0.398971078721,
			"-0.01": 1.10457766308,
			"-0.009": 1.40869695217,
			"-0.008": 1.40981698173,
			"-0.007": 0.938733685396,
			"-0.006": 2.90766991114,
			"-0.005": 10.4868599411,
			"-0.004": 20.2254978191,
			"-0.003": 35.3731443249,
			"-0.002": 31.1598381546,
			"-0.001": 27.2665713033,
			"0.0": 25.1583691574,
			"0.001": 19.7837848637,
			"0.002": 12.8029568222,
			"0.003": 10.3369234268,
			"0.004": 9.19616905996,
			"0.005": 8.83850896932,
			"0.006": 8.47623038077,
			"0.007": 6.333484337,
			"0.008": 1.81234056015,
			"0.009": 1.90558734602,
			"0.01": 1.35153979631,
			"0.011": 2.60548256477,
			"0.012": 2.16389766055,
			"0.013": 1.96704517633,
			"0.014": 0.473092385792,
			"0.015": 0.503287017896,
			"0.016": 0.0307407278451,
			"0.017": 0.0,
			"0.018": 0.0,
			"0.019": 0.0,
			"0.02": 0.0,
			"0.021": 0.0,
			"0.022": 0.0,
			"0.023": 0.0,
			"0.024": 0.0,
			"0.025": 0.0
		}
	}
}
