{
	 "smiles": "COC1=C(C=CC(C)=C1)C(=O)CBr", 
	 "Tm": 351.15, 
	 "num_atms": 24, 
	 "gaussian": { 
		 "optdone": 1, 
		 "sigma_profile": "yes", 
		 "theory": "DFT", 
		 "functional": "B3LYP", 
		 "basiset": "6-31G**", 
		 "properties": { 
			 "R2extent": 5214.5544, 
			 "electric_dipole_moment_norm": 6.8449099512, 
			 "electric_quadrupole_moment_norm": 13.2012431032, 
			 "total_energy": -3109.53728875, 
			 "HOMO_LUMO_gap": 0.182, 
			 "cosmo_polarized_energy": -12.55, 
			 "cosmo_cavitation_energy": 29.84, 
			 "cosmo_dispersion_energy": -22.02, 
			 "cosmo_repulsion_energy": 1.75, 
			 "cosmo_total_nonelectrostatic_energy": 9.58, 
			 "SMD_solvation_energy": 5.26 
		},
		"coords": [
			{
				"x": -1.4674199548,
				"y": 0.7131821765,
				"z": 2.4478668664,
				"element": "C" 
			},
			{
				"x": -0.4980485455,
				"y": 0.9230944,
				"z": 1.4281119805,
				"element": "O" 
			},
			{
				"x": -0.6789467776,
				"y": 0.3511392107,
				"z": 0.2029898106,
				"element": "C" 
			},
			{
				"x": 0.3108505555,
				"y": 0.5862991537,
				"z": -0.7812782734,
				"element": "C" 
			},
			{
				"x": 0.1258013964,
				"y": -0.0057910817,
				"z": -2.0425297935,
				"element": "C" 
			},
			{
				"x": -0.9766095242,
				"y": -0.79402957,
				"z": -2.3347438184,
				"element": "C" 
			},
			{
				"x": -1.9563906763,
				"y": -1.0226139388,
				"z": -1.3583936561,
				"element": "C" 
			},
			{
				"x": -3.1762268154,
				"y": -1.8555662225,
				"z": -1.6684078866,
				"element": "C" 
			},
			{
				"x": -1.7922862019,
				"y": -0.4459740901,
				"z": -0.0953662382,
				"element": "C" 
			},
			{
				"x": 1.5594704948,
				"y": 1.4096923191,
				"z": -0.6243727873,
				"element": "C" 
			},
			{
				"x": 2.3323564394,
				"y": 1.5275930226,
				"z": -1.5585413249,
				"element": "O" 
			},
			{
				"x": 1.831178533,
				"y": 2.0869377404,
				"z": 0.7183102193,
				"element": "C" 
			},
			{
				"x": 3.4962973059,
				"y": 3.115940319,
				"z": 0.7338599866,
				"element": "Br" 
			},
			{
				"x": -2.449572071,
				"y": 1.1025510944,
				"z": 2.154859825,
				"element": "H" 
			},
			{
				"x": -1.1060014646,
				"y": 1.263509248,
				"z": 3.317465676,
				"element": "H" 
			},
			{
				"x": -1.5582829603,
				"y": -0.3491599589,
				"z": 2.7032750177,
				"element": "H" 
			},
			{
				"x": 0.8927684748,
				"y": 0.1797901704,
				"z": -2.786473027,
				"element": "H" 
			},
			{
				"x": -1.0814895137,
				"y": -1.2364128535,
				"z": -3.3213358522,
				"element": "H" 
			},
			{
				"x": -3.9004211826,
				"y": -1.2818060051,
				"z": -2.2597714691,
				"element": "H" 
			},
			{
				"x": -3.6826531173,
				"y": -2.1876063725,
				"z": -0.7579799654,
				"element": "H" 
			},
			{
				"x": -2.9123555428,
				"y": -2.7411219233,
				"z": -2.2550012248,
				"element": "H" 
			},
			{
				"x": -2.5471567369,
				"y": -0.626526373,
				"z": 0.6605863297,
				"element": "H" 
			},
			{
				"x": 1.9021045684,
				"y": 1.3493375175,
				"z": 1.5168457458,
				"element": "H" 
			},
			{
				"x": 1.0263333167,
				"y": 2.7745420169,
				"z": 0.9755238592,
				"element": "H" 
			}
		],
		 "valence_orbital": [ 
			{
				"type": "occ",
				"energy": -0.26289,
				"method": "rhf"
			},
			{
				"type": "occ",
				"energy": -0.26085,
				"method": "rhf"
			},
			{
				"type": "occ",
				"energy": -0.25669,
				"method": "rhf"
			},
			{
				"type": "occ",
				"energy": -0.25387,
				"method": "rhf"
			},
			{
				"type": "occ",
				"energy": -0.2365,
				"method": "rhf"
			},
			{
				"type": "unocc",
				"energy": -0.0545,
				"method": "rhf"
			},
			{
				"type": "unocc",
				"energy": -0.00294,
				"method": "rhf"
			},
			{
				"type": "unocc",
				"energy": 0.01721,
				"method": "rhf"
			},
			{
				"type": "unocc",
				"energy": 0.03312,
				"method": "rhf"
			},
			{
				"type": "unocc",
				"energy": 0.07859,
				"method": "rhf"
			}
		],
		"cosmo_sigma_profile": { 
			"-0.025": 0.0,
			"-0.024": 0.0,
			"-0.023": 0.0,
			"-0.022": 0.0,
			"-0.021": 0.0,
			"-0.02": 0.0,
			"-0.019": 0.0,
			"-0.018": 0.0,
			"-0.017": 0.0,
			"-0.016": 0.0,
			"-0.015": 0.0,
			"-0.014": 0.0,
			"-0.013": 0.0,
			"-0.012": 0.0,
			"-0.011": 0.0,
			"-0.01": 0.0,
			"-0.009": 0.0154409451084,
			"-0.008": 2.52009358941,
			"-0.007": 4.83308054881,
			"-0.006": 13.8017440942,
			"-0.005": 19.444330138,
			"-0.004": 24.1560413788,
			"-0.003": 21.0028371334,
			"-0.002": 17.7078844429,
			"-0.001": 20.0396217901,
			"0.0": 18.2675234243,
			"0.001": 14.830313528,
			"0.002": 15.3538729113,
			"0.003": 15.1624708476,
			"0.004": 13.9978600287,
			"0.005": 8.91218568178,
			"0.006": 10.4049298684,
			"0.007": 3.84654138352,
			"0.008": 2.33504647222,
			"0.009": 2.27440587454,
			"0.01": 2.74085560853,
			"0.011": 3.49346068944,
			"0.012": 3.26952581639,
			"0.013": 1.75157349124,
			"0.014": 0.168712347205,
			"0.015": 0.0,
			"0.016": 0.0,
			"0.017": 0.0,
			"0.018": 0.0,
			"0.019": 0.0,
			"0.02": 0.0,
			"0.021": 0.0,
			"0.022": 0.0,
			"0.023": 0.0,
			"0.024": 0.0,
			"0.025": 0.0
		}
	}
}
