{
	 "smiles": "C=CC1=CC=CO1", 
	 "Tm": 179.15, 
	 "num_atms": 13, 
	 "gaussian": { 
		 "optdone": 1, 
		 "sigma_profile": "yes", 
		 "theory": "DFT", 
		 "functional": "B3LYP", 
		 "basiset": "6-31G**", 
		 "properties": { 
			 "R2extent": 1624.8228, 
			 "electric_dipole_moment_norm": 0.658582128515, 
			 "electric_quadrupole_moment_norm": 6.15517906888, 
			 "total_energy": -307.429448764, 
			 "HOMO_LUMO_gap": 0.17979, 
			 "cosmo_polarized_energy": -4.03, 
			 "cosmo_cavitation_energy": 17.37, 
			 "cosmo_dispersion_energy": -12.71, 
			 "cosmo_repulsion_energy": 1.06, 
			 "cosmo_total_nonelectrostatic_energy": 5.72, 
			 "SMD_solvation_energy": 4.8 
		},
		"coords": [
			{
				"x": -1.9077428944,
				"y": -2.8005818187,
				"z": 3.1887209614,
				"element": "C" 
			},
			{
				"x": -1.5559932479,
				"y": -1.7085877027,
				"z": 2.4951868758,
				"element": "C" 
			},
			{
				"x": -1.2977389824,
				"y": -1.6497165398,
				"z": 1.0708250369,
				"element": "C" 
			},
			{
				"x": -1.3124325235,
				"y": -2.5559385952,
				"z": 0.0387884966,
				"element": "C" 
			},
			{
				"x": -0.9560436758,
				"y": -1.8404032853,
				"z": -1.1441189737,
				"element": "C" 
			},
			{
				"x": -0.7480032835,
				"y": -0.5489647591,
				"z": -0.7581166848,
				"element": "C" 
			},
			{
				"x": -0.9502425454,
				"y": -0.4141958104,
				"z": 0.5792840741,
				"element": "O" 
			},
			{
				"x": -2.0814636282,
				"y": -2.7499912244,
				"z": 4.2578056132,
				"element": "H" 
			},
			{
				"x": -2.0327838038,
				"y": -3.7713279595,
				"z": 2.7177713002,
				"element": "H" 
			},
			{
				"x": -1.4421929562,
				"y": -0.7562502171,
				"z": 3.0088157459,
				"element": "H" 
			},
			{
				"x": -1.5496058372,
				"y": -3.6070801578,
				"z": 0.1174850169,
				"element": "H" 
			},
			{
				"x": -0.8668039104,
				"y": -2.2342102434,
				"z": -2.1463969009,
				"element": "H" 
			},
			{
				"x": -0.4659527111,
				"y": 0.3487483133,
				"z": -1.2860505616,
				"element": "H" 
			}
		],
		 "valence_orbital": [ 
			{
				"type": "occ",
				"energy": -0.37416,
				"method": "rhf"
			},
			{
				"type": "occ",
				"energy": -0.35613,
				"method": "rhf"
			},
			{
				"type": "occ",
				"energy": -0.30175,
				"method": "rhf"
			},
			{
				"type": "occ",
				"energy": -0.27512,
				"method": "rhf"
			},
			{
				"type": "occ",
				"energy": -0.20579,
				"method": "rhf"
			},
			{
				"type": "unocc",
				"energy": -0.026,
				"method": "rhf"
			},
			{
				"type": "unocc",
				"energy": 0.04862,
				"method": "rhf"
			},
			{
				"type": "unocc",
				"energy": 0.11049,
				"method": "rhf"
			},
			{
				"type": "unocc",
				"energy": 0.11424,
				"method": "rhf"
			},
			{
				"type": "unocc",
				"energy": 0.11537,
				"method": "rhf"
			}
		],
		"cosmo_sigma_profile": { 
			"-0.025": 0.0,
			"-0.024": 0.0,
			"-0.023": 0.0,
			"-0.022": 0.0,
			"-0.021": 0.0,
			"-0.02": 0.0,
			"-0.019": 0.0,
			"-0.018": 0.0,
			"-0.017": 0.0,
			"-0.016": 0.0,
			"-0.015": 0.0,
			"-0.014": 0.0,
			"-0.013": 0.0,
			"-0.012": 0.0,
			"-0.011": 0.0,
			"-0.01": 0.0,
			"-0.009": 0.92450883511,
			"-0.008": 1.98373268557,
			"-0.007": 3.6175864179,
			"-0.006": 9.31313987991,
			"-0.005": 9.36031551607,
			"-0.004": 10.0805346107,
			"-0.003": 9.62418834137,
			"-0.002": 8.82528531153,
			"-0.001": 10.6218532782,
			"0.0": 8.08104669709,
			"0.001": 8.085863216,
			"0.002": 10.6842010327,
			"0.003": 13.7901823974,
			"0.004": 12.1262692622,
			"0.005": 12.5389195131,
			"0.006": 6.00831126604,
			"0.007": 2.21524557967,
			"0.008": 1.51616531907,
			"0.009": 0.263769155409,
			"0.01": 0.0,
			"0.011": 0.0,
			"0.012": 0.0,
			"0.013": 0.0,
			"0.014": 0.0,
			"0.015": 0.0,
			"0.016": 0.0,
			"0.017": 0.0,
			"0.018": 0.0,
			"0.019": 0.0,
			"0.02": 0.0,
			"0.021": 0.0,
			"0.022": 0.0,
			"0.023": 0.0,
			"0.024": 0.0,
			"0.025": 0.0
		}
	}
}
