{
	 "smiles": "CC1=CC2=C(N=CC(C#N)=C2Cl)C(C)=C1", 
	 "Tm": 415.15, 
	 "num_atms": 24, 
	 "gaussian": { 
		 "optdone": 1, 
		 "sigma_profile": "yes", 
		 "theory": "DFT", 
		 "functional": "B3LYP", 
		 "basiset": "6-31G**", 
		 "properties": { 
			 "R2extent": 3984.5389, 
			 "electric_dipole_moment_norm": 5.67792552082, 
			 "electric_quadrupole_moment_norm": 12.167544648, 
			 "total_energy": -1032.39840074, 
			 "HOMO_LUMO_gap": 0.16021, 
			 "cosmo_polarized_energy": -9.0, 
			 "cosmo_cavitation_energy": 30.63, 
			 "cosmo_dispersion_energy": -21.9, 
			 "cosmo_repulsion_energy": 1.7, 
			 "cosmo_total_nonelectrostatic_energy": 10.43, 
			 "SMD_solvation_energy": 5.17 
		},
		"coords": [
			{
				"x": -0.3026079605,
				"y": 4.1585563728,
				"z": -2.1001415394,
				"element": "C" 
			},
			{
				"x": -0.1883862643,
				"y": 2.9345928607,
				"z": -1.2260332949,
				"element": "C" 
			},
			{
				"x": 0.469823383,
				"y": 1.8023409294,
				"z": -1.6545980934,
				"element": "C" 
			},
			{
				"x": 0.567627976,
				"y": 0.6596346827,
				"z": -0.8186303235,
				"element": "C" 
			},
			{
				"x": -0.0258623873,
				"y": 0.6835268982,
				"z": 0.4881932285,
				"element": "C" 
			},
			{
				"x": 0.0280491698,
				"y": -0.3754360391,
				"z": 1.3450652669,
				"element": "N" 
			},
			{
				"x": 0.6487299274,
				"y": -1.4629271412,
				"z": 0.9591393977,
				"element": "C" 
			},
			{
				"x": 1.2785056786,
				"y": -1.6128810644,
				"z": -0.3124493447,
				"element": "C" 
			},
			{
				"x": 1.926962567,
				"y": -2.846561735,
				"z": -0.6256014139,
				"element": "C" 
			},
			{
				"x": 2.4411556178,
				"y": -3.8691392487,
				"z": -0.8330496506,
				"element": "N" 
			},
			{
				"x": 1.2293816309,
				"y": -0.5396989912,
				"z": -1.1930130157,
				"element": "C" 
			},
			{
				"x": 1.9852240029,
				"y": -0.6778366583,
				"z": -2.757545059,
				"element": "Cl" 
			},
			{
				"x": -0.7078739588,
				"y": 1.8628806161,
				"z": 0.9266296382,
				"element": "C" 
			},
			{
				"x": -1.3328305532,
				"y": 1.8953798759,
				"z": 2.2963602947,
				"element": "C" 
			},
			{
				"x": -0.771082785,
				"y": 2.9424074371,
				"z": 0.0715223176,
				"element": "C" 
			},
			{
				"x": 0.1537637733,
				"y": 5.0309358061,
				"z": -1.6181990368,
				"element": "H" 
			},
			{
				"x": -1.3523748455,
				"y": 4.4107388377,
				"z": -2.2898451882,
				"element": "H" 
			},
			{
				"x": 0.1886739254,
				"y": 4.0102078025,
				"z": -3.0648372911,
				"element": "H" 
			},
			{
				"x": 0.9213373869,
				"y": 1.7743086298,
				"z": -2.6396855854,
				"element": "H" 
			},
			{
				"x": 0.6825927148,
				"y": -2.2988410387,
				"z": 1.6549344209,
				"element": "H" 
			},
			{
				"x": -0.5833966892,
				"y": 1.7219471299,
				"z": 3.0746967044,
				"element": "H" 
			},
			{
				"x": -2.0791353232,
				"y": 1.1027445094,
				"z": 2.4069801333,
				"element": "H" 
			},
			{
				"x": -1.8140790665,
				"y": 2.8591840896,
				"z": 2.4808332008,
				"element": "H" 
			},
			{
				"x": -1.2883979203,
				"y": 3.8412354388,
				"z": 0.4000742339,
				"element": "H" 
			}
		],
		 "valence_orbital": [ 
			{
				"type": "occ",
				"energy": -0.33191,
				"method": "rhf"
			},
			{
				"type": "occ",
				"energy": -0.29637,
				"method": "rhf"
			},
			{
				"type": "occ",
				"energy": -0.27756,
				"method": "rhf"
			},
			{
				"type": "occ",
				"energy": -0.26599,
				"method": "rhf"
			},
			{
				"type": "occ",
				"energy": -0.24383,
				"method": "rhf"
			},
			{
				"type": "unocc",
				"energy": -0.08362,
				"method": "rhf"
			},
			{
				"type": "unocc",
				"energy": -0.05173,
				"method": "rhf"
			},
			{
				"type": "unocc",
				"energy": 0.00287,
				"method": "rhf"
			},
			{
				"type": "unocc",
				"energy": 0.01007,
				"method": "rhf"
			},
			{
				"type": "unocc",
				"energy": 0.02837,
				"method": "rhf"
			}
		],
		"cosmo_sigma_profile": { 
			"-0.025": 0.0,
			"-0.024": 0.0,
			"-0.023": 0.0,
			"-0.022": 0.0,
			"-0.021": 0.0,
			"-0.02": 0.0,
			"-0.019": 0.0,
			"-0.018": 0.0,
			"-0.017": 0.0,
			"-0.016": 0.0,
			"-0.015": 0.0,
			"-0.014": 0.0,
			"-0.013": 0.0,
			"-0.012": 0.0,
			"-0.011": 0.0,
			"-0.01": 0.0,
			"-0.009": 0.752478542014,
			"-0.008": 2.51479987673,
			"-0.007": 2.44846351861,
			"-0.006": 6.87753847743,
			"-0.005": 11.3950704251,
			"-0.004": 19.7229596767,
			"-0.003": 25.147560148,
			"-0.002": 30.5087379373,
			"-0.001": 28.4415712324,
			"0.0": 30.2314816457,
			"0.001": 21.0016863498,
			"0.002": 19.7175180583,
			"0.003": 13.6888629284,
			"0.004": 4.10075408178,
			"0.005": 4.0096023192,
			"0.006": 4.08898400294,
			"0.007": 4.53463257617,
			"0.008": 4.89978642358,
			"0.009": 4.09083172722,
			"0.01": 3.75452129001,
			"0.011": 3.32928382905,
			"0.012": 2.54563626285,
			"0.013": 0.745089515734,
			"0.014": 0.0,
			"0.015": 0.0,
			"0.016": 0.0,
			"0.017": 0.0,
			"0.018": 0.0,
			"0.019": 0.0,
			"0.02": 0.0,
			"0.021": 0.0,
			"0.022": 0.0,
			"0.023": 0.0,
			"0.024": 0.0,
			"0.025": 0.0
		}
	}
}
