{
	 "smiles": "CC(C)(C)NC(=O)C(C(F)(F)F)C(F)(F)F", 
	 "Tm": 474.15, 
	 "num_atms": 27, 
	 "gaussian": { 
		 "optdone": 1, 
		 "sigma_profile": "yes", 
		 "theory": "DFT", 
		 "functional": "B3LYP", 
		 "basiset": "6-31G**", 
		 "properties": { 
			 "R2extent": 4594.5143, 
			 "electric_dipole_moment_norm": 4.50700803416, 
			 "electric_quadrupole_moment_norm": 6.19167726226, 
			 "total_energy": -1040.53532967, 
			 "HOMO_LUMO_gap": 0.26651, 
			 "cosmo_polarized_energy": -11.58, 
			 "cosmo_cavitation_energy": 31.92, 
			 "cosmo_dispersion_energy": -21.07, 
			 "cosmo_repulsion_energy": 1.54, 
			 "cosmo_total_nonelectrostatic_energy": 12.39, 
			 "SMD_solvation_energy": 7.85 
		},
		"coords": [
			{
				"x": -0.5952167804,
				"y": 1.9275755305,
				"z": -0.3639385256,
				"element": "C" 
			},
			{
				"x": 0.6472492704,
				"y": 1.6037424219,
				"z": 0.4861516503,
				"element": "C" 
			},
			{
				"x": 1.863464983,
				"y": 2.3867205146,
				"z": -0.031750683,
				"element": "C" 
			},
			{
				"x": 0.3978414721,
				"y": 1.9366583833,
				"z": 1.9678018688,
				"element": "C" 
			},
			{
				"x": 0.9975369222,
				"y": 0.164620004,
				"z": 0.3529260416,
				"element": "N" 
			},
			{
				"x": 0.1778307508,
				"y": -0.8690736777,
				"z": 0.6757047188,
				"element": "C" 
			},
			{
				"x": -0.917060162,
				"y": -0.7645995512,
				"z": 1.2057290327,
				"element": "O" 
			},
			{
				"x": 0.7753434351,
				"y": -2.2652749522,
				"z": 0.3288048017,
				"element": "C" 
			},
			{
				"x": 0.6961762892,
				"y": -2.5219665873,
				"z": -1.178240669,
				"element": "C" 
			},
			{
				"x": -0.5367643932,
				"y": -2.313800874,
				"z": -1.6616602066,
				"element": "F" 
			},
			{
				"x": 1.5384525158,
				"y": -1.6704563182,
				"z": -1.8250390859,
				"element": "F" 
			},
			{
				"x": 1.0707389027,
				"y": -3.7678554802,
				"z": -1.5090690581,
				"element": "F" 
			},
			{
				"x": 0.1088090426,
				"y": -3.3739339584,
				"z": 1.1507393713,
				"element": "C" 
			},
			{
				"x": -1.1597682915,
				"y": -3.5942045093,
				"z": 0.7852330376,
				"element": "F" 
			},
			{
				"x": 0.1400093424,
				"y": -3.0661469383,
				"z": 2.4583730781,
				"element": "F" 
			},
			{
				"x": 0.7873142642,
				"y": -4.5339206131,
				"z": 1.000654461,
				"element": "F" 
			},
			{
				"x": -0.8378577461,
				"y": 2.9920641665,
				"z": -0.2829350599,
				"element": "H" 
			},
			{
				"x": -0.4130262574,
				"y": 1.6978082753,
				"z": -1.4189070468,
				"element": "H" 
			},
			{
				"x": -1.4549276944,
				"y": 1.347656694,
				"z": -0.0235677796,
				"element": "H" 
			},
			{
				"x": 2.0638290617,
				"y": 2.1595395728,
				"z": -1.0854496054,
				"element": "H" 
			},
			{
				"x": 2.7609584804,
				"y": 2.1559263146,
				"z": 0.552552161,
				"element": "H" 
			},
			{
				"x": 1.6776416147,
				"y": 3.4611384607,
				"z": 0.0465984711,
				"element": "H" 
			},
			{
				"x": 0.1710605854,
				"y": 3.0022021308,
				"z": 2.075482028,
				"element": "H" 
			},
			{
				"x": 1.2854896823,
				"y": 1.7124214588,
				"z": 2.5678917676,
				"element": "H" 
			},
			{
				"x": -0.4419316234,
				"y": 1.358846844,
				"z": 2.3565948765,
				"element": "H" 
			},
			{
				"x": 1.8076778463,
				"y": -0.0498655348,
				"z": -0.210864624,
				"element": "H" 
			},
			{
				"x": 1.8369284873,
				"y": -2.2927217772,
				"z": 0.5918849779,
				"element": "H" 
			}
		],
		 "valence_orbital": [ 
			{
				"type": "occ",
				"energy": -0.37127,
				"method": "rhf"
			},
			{
				"type": "occ",
				"energy": -0.34885,
				"method": "rhf"
			},
			{
				"type": "occ",
				"energy": -0.34618,
				"method": "rhf"
			},
			{
				"type": "occ",
				"energy": -0.27188,
				"method": "rhf"
			},
			{
				"type": "occ",
				"energy": -0.26691,
				"method": "rhf"
			},
			{
				"type": "unocc",
				"energy": -0.0004,
				"method": "rhf"
			},
			{
				"type": "unocc",
				"energy": 0.06,
				"method": "rhf"
			},
			{
				"type": "unocc",
				"energy": 0.08313,
				"method": "rhf"
			},
			{
				"type": "unocc",
				"energy": 0.09118,
				"method": "rhf"
			},
			{
				"type": "unocc",
				"energy": 0.1028,
				"method": "rhf"
			}
		],
		"cosmo_sigma_profile": { 
			"-0.025": 0.0,
			"-0.024": 0.0,
			"-0.023": 0.0,
			"-0.022": 0.0,
			"-0.021": 0.0,
			"-0.02": 0.0,
			"-0.019": 0.0,
			"-0.018": 0.0,
			"-0.017": 0.0,
			"-0.016": 0.0,
			"-0.015": 0.015726321208,
			"-0.014": 0.71138935851,
			"-0.013": 1.18503185268,
			"-0.012": 2.52169206998,
			"-0.011": 3.16596775655,
			"-0.01": 2.76036036702,
			"-0.009": 2.48772423283,
			"-0.008": 2.41949474644,
			"-0.007": 2.02779670313,
			"-0.006": 2.29439812391,
			"-0.005": 3.75440856608,
			"-0.004": 12.9740810445,
			"-0.003": 18.5668230055,
			"-0.002": 18.5116413047,
			"-0.001": 22.0668066437,
			"0.0": 29.7699727363,
			"0.001": 33.4656960252,
			"0.002": 51.2910251278,
			"0.003": 16.3152401923,
			"0.004": 4.61366223337,
			"0.005": 3.11829214083,
			"0.006": 2.49990947707,
			"0.007": 2.56096337078,
			"0.008": 1.84099887244,
			"0.009": 2.45264423626,
			"0.01": 2.06909438257,
			"0.011": 1.86494878402,
			"0.012": 3.09621415379,
			"0.013": 0.55798331845,
			"0.014": 0.0,
			"0.015": 0.0,
			"0.016": 0.0,
			"0.017": 0.0,
			"0.018": 0.0,
			"0.019": 0.0,
			"0.02": 0.0,
			"0.021": 0.0,
			"0.022": 0.0,
			"0.023": 0.0,
			"0.024": 0.0,
			"0.025": 0.0
		}
	}
}
