{
	 "smiles": "CC(C)(C)C(N)CN1CCC2=C(C1)C=CC=C2", 
	 "Tm": 336.15, 
	 "num_atms": 41, 
	 "gaussian": { 
		 "optdone": 1, 
		 "sigma_profile": "yes", 
		 "theory": "DFT", 
		 "functional": "B3LYP", 
		 "basiset": "6-31G**", 
		 "properties": { 
			 "R2extent": 5648.735, 
			 "electric_dipole_moment_norm": 1.86463909108, 
			 "electric_quadrupole_moment_norm": 7.49804393492, 
			 "total_energy": -695.568641851, 
			 "HOMO_LUMO_gap": 0.21313, 
			 "cosmo_polarized_energy": -8.38, 
			 "cosmo_cavitation_energy": 39.09, 
			 "cosmo_dispersion_energy": -27.04, 
			 "cosmo_repulsion_energy": 2.07, 
			 "cosmo_total_nonelectrostatic_energy": 14.12, 
			 "SMD_solvation_energy": 4.82 
		},
		"coords": [
			{
				"x": 0.3181219414,
				"y": 1.5768801518,
				"z": -1.6906982433,
				"element": "C" 
			},
			{
				"x": -0.1455953288,
				"y": 2.4603915397,
				"z": -0.513906166,
				"element": "C" 
			},
			{
				"x": 0.2998962287,
				"y": 3.909332317,
				"z": -0.8048624419,
				"element": "C" 
			},
			{
				"x": -1.6855102964,
				"y": 2.4169835439,
				"z": -0.4318753632,
				"element": "C" 
			},
			{
				"x": 0.5154299194,
				"y": 1.9874090689,
				"z": 0.826472187,
				"element": "C" 
			},
			{
				"x": 0.3226125928,
				"y": 3.0092482747,
				"z": 1.8736858707,
				"element": "N" 
			},
			{
				"x": 0.0594459043,
				"y": 0.6088254958,
				"z": 1.380187962,
				"element": "C" 
			},
			{
				"x": 0.3182843726,
				"y": -0.584846282,
				"z": 0.575975471,
				"element": "N" 
			},
			{
				"x": -0.4259578429,
				"y": -1.7478664621,
				"z": 1.063248386,
				"element": "C" 
			},
			{
				"x": -0.3719753478,
				"y": -2.8719688645,
				"z": 0.0284502904,
				"element": "C" 
			},
			{
				"x": 1.0442215249,
				"y": -3.1525374673,
				"z": -0.4259456424,
				"element": "C" 
			},
			{
				"x": 2.0445170814,
				"y": -2.1910068808,
				"z": -0.2223050612,
				"element": "C" 
			},
			{
				"x": 1.7461941017,
				"y": -0.8908824075,
				"z": 0.4992876148,
				"element": "C" 
			},
			{
				"x": 3.3494135515,
				"y": -2.4510130659,
				"z": -0.661244979,
				"element": "C" 
			},
			{
				"x": 3.6671280335,
				"y": -3.6488483988,
				"z": -1.2965202483,
				"element": "C" 
			},
			{
				"x": 2.67125464,
				"y": -4.6076253348,
				"z": -1.5012049369,
				"element": "C" 
			},
			{
				"x": 1.3724096529,
				"y": -4.3549052736,
				"z": -1.0667863593,
				"element": "C" 
			},
			{
				"x": -0.1287766816,
				"y": 1.9345199693,
				"z": -2.6255818102,
				"element": "H" 
			},
			{
				"x": 0.0415307948,
				"y": 0.5314086639,
				"z": -1.5452674643,
				"element": "H" 
			},
			{
				"x": 1.4071414824,
				"y": 1.6284623396,
				"z": -1.8120709138,
				"element": "H" 
			},
			{
				"x": 1.3932020622,
				"y": 3.9822402381,
				"z": -0.8384968241,
				"element": "H" 
			},
			{
				"x": -0.0489593038,
				"y": 4.602869277,
				"z": -0.0381187238,
				"element": "H" 
			},
			{
				"x": -0.0860768338,
				"y": 4.2313496329,
				"z": -1.7789874756,
				"element": "H" 
			},
			{
				"x": -2.1212761852,
				"y": 2.8309173427,
				"z": -1.3476767682,
				"element": "H" 
			},
			{
				"x": -2.0719992047,
				"y": 3.0138229824,
				"z": 0.4028014933,
				"element": "H" 
			},
			{
				"x": -2.0617790857,
				"y": 1.3942872784,
				"z": -0.3266905237,
				"element": "H" 
			},
			{
				"x": 1.5972399705,
				"y": 1.9556054329,
				"z": 0.6411711119,
				"element": "H" 
			},
			{
				"x": 0.8783707509,
				"y": 2.7681208623,
				"z": 2.6910326143,
				"element": "H" 
			},
			{
				"x": -0.6469375586,
				"y": 3.0043085576,
				"z": 2.1861273707,
				"element": "H" 
			},
			{
				"x": 0.5251973132,
				"y": 0.5057623294,
				"z": 2.3834855218,
				"element": "H" 
			},
			{
				"x": -1.0217610434,
				"y": 0.6596008192,
				"z": 1.5546363407,
				"element": "H" 
			},
			{
				"x": -1.4659820113,
				"y": -1.4503189675,
				"z": 1.2326861952,
				"element": "H" 
			},
			{
				"x": -0.0305135022,
				"y": -2.1074566407,
				"z": 2.0348064957,
				"element": "H" 
			},
			{
				"x": -0.9817605522,
				"y": -2.5810610451,
				"z": -0.837203433,
				"element": "H" 
			},
			{
				"x": -0.824529461,
				"y": -3.7813996232,
				"z": 0.4421507468,
				"element": "H" 
			},
			{
				"x": 2.1899019696,
				"y": -0.9392768959,
				"z": 1.5178031221,
				"element": "H" 
			},
			{
				"x": 2.2575424043,
				"y": -0.0731967519,
				"z": -0.0185918071,
				"element": "H" 
			},
			{
				"x": 4.1228518247,
				"y": -1.702333615,
				"z": -0.5025982883,
				"element": "H" 
			},
			{
				"x": 4.6834363929,
				"y": -3.8334041748,
				"z": -1.6327138375,
				"element": "H" 
			},
			{
				"x": 2.9073848678,
				"y": -5.5461256495,
				"z": -1.9947231031,
				"element": "H" 
			},
			{
				"x": 0.595160861,
				"y": -5.0998723163,
				"z": -1.2228383801,
				"element": "H" 
			}
		],
		 "valence_orbital": [ 
			{
				"type": "occ",
				"energy": -0.30266,
				"method": "rhf"
			},
			{
				"type": "occ",
				"energy": -0.24189,
				"method": "rhf"
			},
			{
				"type": "occ",
				"energy": -0.23377,
				"method": "rhf"
			},
			{
				"type": "occ",
				"energy": -0.23303,
				"method": "rhf"
			},
			{
				"type": "occ",
				"energy": -0.21303,
				"method": "rhf"
			},
			{
				"type": "unocc",
				"energy": 0.0001,
				"method": "rhf"
			},
			{
				"type": "unocc",
				"energy": 0.006,
				"method": "rhf"
			},
			{
				"type": "unocc",
				"energy": 0.07015,
				"method": "rhf"
			},
			{
				"type": "unocc",
				"energy": 0.08721,
				"method": "rhf"
			},
			{
				"type": "unocc",
				"energy": 0.09558,
				"method": "rhf"
			}
		],
		"cosmo_sigma_profile": { 
			"-0.025": 0.0,
			"-0.024": 0.0,
			"-0.023": 0.0,
			"-0.022": 0.0,
			"-0.021": 0.0,
			"-0.02": 0.0,
			"-0.019": 0.0,
			"-0.018": 0.0,
			"-0.017": 0.0,
			"-0.016": 0.0,
			"-0.015": 0.0,
			"-0.014": 0.0,
			"-0.013": 0.0,
			"-0.012": 0.0,
			"-0.011": 0.0,
			"-0.01": 0.0215067900694,
			"-0.009": 1.20377429298,
			"-0.008": 2.74607195084,
			"-0.007": 2.95731071817,
			"-0.006": 4.38814620438,
			"-0.005": 11.6986042024,
			"-0.004": 21.3750468907,
			"-0.003": 26.5831993836,
			"-0.002": 41.2040427107,
			"-0.001": 43.4796424409,
			"0.0": 31.0609679887,
			"0.001": 24.4442711236,
			"0.002": 27.379548554,
			"0.003": 18.0529930783,
			"0.004": 9.15713390509,
			"0.005": 11.1456588596,
			"0.006": 10.4321553089,
			"0.007": 7.63163088541,
			"0.008": 0.969570717587,
			"0.009": 0.551233499167,
			"0.01": 1.03362146683,
			"0.011": 0.716027944088,
			"0.012": 0.58063471035,
			"0.013": 0.752973502174,
			"0.014": 0.718751279098,
			"0.015": 0.376678703547,
			"0.016": 0.876431954395,
			"0.017": 0.540736200058,
			"0.018": 0.125410073388,
			"0.019": 0.0,
			"0.02": 0.0,
			"0.021": 0.0,
			"0.022": 0.0,
			"0.023": 0.0,
			"0.024": 0.0,
			"0.025": 0.0
		}
	}
}
