{
	 "smiles": "ClS(=O)(=O)C1CCS(=O)(=O)CC1", 
	 "Tm": 449.15, 
	 "num_atms": 21, 
	 "gaussian": { 
		 "optdone": 1, 
		 "sigma_profile": "yes", 
		 "theory": "DFT", 
		 "functional": "B3LYP", 
		 "basiset": "6-31G**", 
		 "properties": { 
			 "R2extent": 3686.5502, 
			 "electric_dipole_moment_norm": 3.03780868555, 
			 "electric_quadrupole_moment_norm": 21.2789286939, 
			 "total_energy": -1753.29996895, 
			 "HOMO_LUMO_gap": 0.2006, 
			 "cosmo_polarized_energy": -22.38, 
			 "cosmo_cavitation_energy": 27.75, 
			 "cosmo_dispersion_energy": -21.44, 
			 "cosmo_repulsion_energy": 1.6, 
			 "cosmo_total_nonelectrostatic_energy": 7.9, 
			 "SMD_solvation_energy": 2.05 
		},
		"coords": [
			{
				"x": 2.8871895041,
				"y": -1.0974534127,
				"z": 1.1672798512,
				"element": "Cl" 
			},
			{
				"x": 1.9416244774,
				"y": 0.7839300432,
				"z": 1.5429786073,
				"element": "S" 
			},
			{
				"x": 2.6058409236,
				"y": 1.7736675206,
				"z": 0.7036617955,
				"element": "O" 
			},
			{
				"x": 1.8620292104,
				"y": 0.9285075214,
				"z": 2.9914984519,
				"element": "O" 
			},
			{
				"x": 0.256345299,
				"y": 0.4302663194,
				"z": 0.888082828,
				"element": "C" 
			},
			{
				"x": -0.6785343408,
				"y": 1.5445677847,
				"z": 1.4009761209,
				"element": "C" 
			},
			{
				"x": -2.1350293039,
				"y": 1.2653811386,
				"z": 1.0095169111,
				"element": "C" 
			},
			{
				"x": -2.3317384027,
				"y": 1.1819469968,
				"z": -0.7969603631,
				"element": "S" 
			},
			{
				"x": -3.6665489143,
				"y": 0.6552652882,
				"z": -1.1089495276,
				"element": "O" 
			},
			{
				"x": -1.8645071185,
				"y": 2.4629338875,
				"z": -1.3522353812,
				"element": "O" 
			},
			{
				"x": -1.0853578955,
				"y": -0.0794279076,
				"z": -1.2013889014,
				"element": "C" 
			},
			{
				"x": 0.2922581492,
				"y": 0.2983582461,
				"z": -0.6410133742,
				"element": "C" 
			},
			{
				"x": 0.0006556716,
				"y": -0.5244899726,
				"z": 1.3613047153,
				"element": "H" 
			},
			{
				"x": -0.6091392999,
				"y": 1.6136348456,
				"z": 2.4898589393,
				"element": "H" 
			},
			{
				"x": -0.3708597282,
				"y": 2.507430148,
				"z": 0.9812001548,
				"element": "H" 
			},
			{
				"x": -2.5105933997,
				"y": 0.3221592772,
				"z": 1.4176193823,
				"element": "H" 
			},
			{
				"x": -2.7961625561,
				"y": 2.0732913897,
				"z": 1.3347031738,
				"element": "H" 
			},
			{
				"x": -1.4571058488,
				"y": -1.0326088099,
				"z": -0.8134264707,
				"element": "H" 
			},
			{
				"x": -1.0707963441,
				"y": -0.1302173644,
				"z": -2.2934123066,
				"element": "H" 
			},
			{
				"x": 0.6194655463,
				"y": 1.2441637518,
				"z": -1.0814085535,
				"element": "H" 
			},
			{
				"x": 1.0108643709,
				"y": -0.4719066918,
				"z": -0.9360860532,
				"element": "H" 
			}
		],
		 "valence_orbital": [ 
			{
				"type": "occ",
				"energy": -0.33959,
				"method": "rhf"
			},
			{
				"type": "occ",
				"energy": -0.32988,
				"method": "rhf"
			},
			{
				"type": "occ",
				"energy": -0.32899,
				"method": "rhf"
			},
			{
				"type": "occ",
				"energy": -0.3129,
				"method": "rhf"
			},
			{
				"type": "occ",
				"energy": -0.29922,
				"method": "rhf"
			},
			{
				"type": "unocc",
				"energy": -0.09862,
				"method": "rhf"
			},
			{
				"type": "unocc",
				"energy": 0.0126,
				"method": "rhf"
			},
			{
				"type": "unocc",
				"energy": 0.03753,
				"method": "rhf"
			},
			{
				"type": "unocc",
				"energy": 0.04446,
				"method": "rhf"
			},
			{
				"type": "unocc",
				"energy": 0.04721,
				"method": "rhf"
			}
		],
		"cosmo_sigma_profile": { 
			"-0.025": 0.0,
			"-0.024": 0.0,
			"-0.023": 0.0,
			"-0.022": 0.0,
			"-0.021": 0.0,
			"-0.02": 0.0,
			"-0.019": 0.0,
			"-0.018": 0.0,
			"-0.017": 0.0,
			"-0.016": 0.0,
			"-0.015": 0.0,
			"-0.014": 0.0246045289605,
			"-0.013": 0.824076837205,
			"-0.012": 1.814800422,
			"-0.011": 3.65781458137,
			"-0.01": 6.14341168651,
			"-0.009": 9.69723669548,
			"-0.008": 9.0805959823,
			"-0.007": 15.1504859245,
			"-0.006": 16.3586276136,
			"-0.005": 14.6965037848,
			"-0.004": 9.95242730309,
			"-0.003": 6.65057742851,
			"-0.002": 6.93526651797,
			"-0.001": 7.38127246496,
			"0.0": 8.27031596862,
			"0.001": 10.2310688442,
			"0.002": 10.6732093022,
			"0.003": 13.5001312345,
			"0.004": 7.21208100372,
			"0.005": 5.0135558539,
			"0.006": 6.79408280293,
			"0.007": 7.59485417796,
			"0.008": 12.5388699448,
			"0.009": 6.99026560591,
			"0.01": 4.90986133605,
			"0.011": 11.0295670922,
			"0.012": 7.59223479652,
			"0.013": 0.468209371221,
			"0.014": 0.0,
			"0.015": 0.0,
			"0.016": 0.0,
			"0.017": 0.0,
			"0.018": 0.0,
			"0.019": 0.0,
			"0.02": 0.0,
			"0.021": 0.0,
			"0.022": 0.0,
			"0.023": 0.0,
			"0.024": 0.0,
			"0.025": 0.0
		}
	}
}
