{
	 "smiles": "BrC1=CC=C2NC(=O)CN=C(C3=NC=CC=C3)C2=C1", 
	 "Tm": 511.15, 
	 "num_atms": 29, 
	 "gaussian": { 
		 "optdone": 1, 
		 "sigma_profile": "yes", 
		 "theory": "DFT", 
		 "functional": "B3LYP", 
		 "basiset": "6-31G**", 
		 "properties": { 
			 "R2extent": 8335.6289, 
			 "electric_dipole_moment_norm": 2.11915206392, 
			 "electric_quadrupole_moment_norm": 20.1993178622, 
			 "total_energy": -3350.39725942, 
			 "HOMO_LUMO_gap": 0.16366, 
			 "cosmo_polarized_energy": -15.3, 
			 "cosmo_cavitation_energy": 35.75, 
			 "cosmo_dispersion_energy": -26.13, 
			 "cosmo_repulsion_energy": 2.01, 
			 "cosmo_total_nonelectrostatic_energy": 11.64, 
			 "SMD_solvation_energy": 2.48 
		},
		"coords": [
			{
				"x": -4.6315218647,
				"y": 1.8020043384,
				"z": 2.4126235384,
				"element": "Br" 
			},
			{
				"x": -3.3657148473,
				"y": 1.6034051732,
				"z": 0.9955646508,
				"element": "C" 
			},
			{
				"x": -3.4520877996,
				"y": 2.434317636,
				"z": -0.123589283,
				"element": "C" 
			},
			{
				"x": -2.5465388375,
				"y": 2.2626098111,
				"z": -1.1602342015,
				"element": "C" 
			},
			{
				"x": -1.5457561603,
				"y": 1.2782707253,
				"z": -1.0960326919,
				"element": "C" 
			},
			{
				"x": -0.6554013023,
				"y": 1.1709174203,
				"z": -2.1789903792,
				"element": "N" 
			},
			{
				"x": -0.2171930677,
				"y": 0.0072584104,
				"z": -2.7956212739,
				"element": "C" 
			},
			{
				"x": 0.394320562,
				"y": 0.0373895616,
				"z": -3.8461433133,
				"element": "O" 
			},
			{
				"x": -0.5725131794,
				"y": -1.2704477722,
				"z": -2.0373997091,
				"element": "C" 
			},
			{
				"x": 0.0787586193,
				"y": -1.3011653338,
				"z": -0.7405489177,
				"element": "N" 
			},
			{
				"x": -0.3347955376,
				"y": -0.5263454051,
				"z": 0.19894829,
				"element": "C" 
			},
			{
				"x": 0.3862598113,
				"y": -0.6418573269,
				"z": 1.5131927883,
				"element": "C" 
			},
			{
				"x": 0.2114510563,
				"y": 0.3394746532,
				"z": 2.4124113935,
				"element": "N" 
			},
			{
				"x": 0.8766499703,
				"y": 0.2608778932,
				"z": 3.5698697957,
				"element": "C" 
			},
			{
				"x": 1.7414997819,
				"y": -0.7846160435,
				"z": 3.8921042302,
				"element": "C" 
			},
			{
				"x": 1.9182517913,
				"y": -1.8049714418,
				"z": 2.9557069277,
				"element": "C" 
			},
			{
				"x": 1.232582935,
				"y": -1.7375198755,
				"z": 1.7481956472,
				"element": "C" 
			},
			{
				"x": -1.4327632679,
				"y": 0.4700907614,
				"z": 0.0590115616,
				"element": "C" 
			},
			{
				"x": -2.3681634789,
				"y": 0.6463710936,
				"z": 1.0950033447,
				"element": "C" 
			},
			{
				"x": -4.2248148473,
				"y": 3.1916936528,
				"z": -0.1874068758,
				"element": "H" 
			},
			{
				"x": -2.618898321,
				"y": 2.8855283818,
				"z": -2.0474286034,
				"element": "H" 
			},
			{
				"x": -0.5264403352,
				"y": 1.9941484991,
				"z": -2.7549606295,
				"element": "H" 
			},
			{
				"x": -1.6695836296,
				"y": -1.3261793186,
				"z": -1.9488237282,
				"element": "H" 
			},
			{
				"x": -0.2220331648,
				"y": -2.1081621502,
				"z": -2.6408171903,
				"element": "H" 
			},
			{
				"x": 0.7096221172,
				"y": 1.0759571085,
				"z": 4.2717938448,
				"element": "H" 
			},
			{
				"x": 2.2567089859,
				"y": -0.7972345175,
				"z": 4.8473396527,
				"element": "H" 
			},
			{
				"x": 2.5792025578,
				"y": -2.6411086557,
				"z": 3.1652547796,
				"element": "H" 
			},
			{
				"x": 1.3364945047,
				"y": -2.4970941465,
				"z": 0.9833370253,
				"element": "H" 
			},
			{
				"x": -2.2960830522,
				"y": 0.0356868674,
				"z": 1.9841393263,
				"element": "H" 
			}
		],
		 "valence_orbital": [ 
			{
				"type": "occ",
				"energy": -0.27671,
				"method": "rhf"
			},
			{
				"type": "occ",
				"energy": -0.26634,
				"method": "rhf"
			},
			{
				"type": "occ",
				"energy": -0.25238,
				"method": "rhf"
			},
			{
				"type": "occ",
				"energy": -0.24704,
				"method": "rhf"
			},
			{
				"type": "occ",
				"energy": -0.23132,
				"method": "rhf"
			},
			{
				"type": "unocc",
				"energy": -0.06766,
				"method": "rhf"
			},
			{
				"type": "unocc",
				"energy": -0.03412,
				"method": "rhf"
			},
			{
				"type": "unocc",
				"energy": -0.02668,
				"method": "rhf"
			},
			{
				"type": "unocc",
				"energy": -0.02083,
				"method": "rhf"
			},
			{
				"type": "unocc",
				"energy": 0.00223,
				"method": "rhf"
			}
		],
		"cosmo_sigma_profile": { 
			"-0.025": 0.0,
			"-0.024": 0.0,
			"-0.023": 0.0,
			"-0.022": 0.0,
			"-0.021": 0.0,
			"-0.02": 0.0,
			"-0.019": 0.0,
			"-0.018": 0.0,
			"-0.017": 0.0,
			"-0.016": 0.134712838926,
			"-0.015": 0.850909925726,
			"-0.014": 1.56344779067,
			"-0.013": 1.20680657835,
			"-0.012": 1.06966184314,
			"-0.011": 1.09508138841,
			"-0.01": 1.33862451972,
			"-0.009": 1.59594885252,
			"-0.008": 3.73099073628,
			"-0.007": 11.9179344956,
			"-0.006": 16.966645669,
			"-0.005": 19.8224609247,
			"-0.004": 16.4111452619,
			"-0.003": 17.379384712,
			"-0.002": 16.2288948818,
			"-0.001": 16.6914075504,
			"0.0": 21.5118715569,
			"0.001": 28.5406599282,
			"0.002": 36.3129958622,
			"0.003": 18.3018221568,
			"0.004": 17.3453272731,
			"0.005": 9.35767233503,
			"0.006": 3.42617727507,
			"0.007": 3.86766244774,
			"0.008": 2.93152013582,
			"0.009": 3.21293370016,
			"0.01": 2.63260789566,
			"0.011": 4.35733498088,
			"0.012": 6.57216544317,
			"0.013": 3.93887597189,
			"0.014": 0.544113689299,
			"0.015": 0.0,
			"0.016": 0.0,
			"0.017": 0.0,
			"0.018": 0.0,
			"0.019": 0.0,
			"0.02": 0.0,
			"0.021": 0.0,
			"0.022": 0.0,
			"0.023": 0.0,
			"0.024": 0.0,
			"0.025": 0.0
		}
	}
}
