{
	 "smiles": "BrC1=CC(C=O)=CC(Br)=C1OCC1=CC=CC=C1", 
	 "Tm": 352.15, 
	 "num_atms": 28, 
	 "gaussian": { 
		 "optdone": 1, 
		 "sigma_profile": "yes", 
		 "theory": "DFT", 
		 "functional": "B3LYP", 
		 "basiset": "6-31G**", 
		 "properties": { 
			 "R2extent": 9259.3529, 
			 "electric_dipole_moment_norm": 2.72053992068, 
			 "electric_quadrupole_moment_norm": 13.3403299483, 
			 "total_energy": -5832.74614207, 
			 "HOMO_LUMO_gap": 0.17158, 
			 "cosmo_polarized_energy": -10.98, 
			 "cosmo_cavitation_energy": 37.83, 
			 "cosmo_dispersion_energy": -26.9, 
			 "cosmo_repulsion_energy": 2.06, 
			 "cosmo_total_nonelectrostatic_energy": 12.99, 
			 "SMD_solvation_energy": 5.43 
		},
		"coords": [
			{
				"x": -3.856928941,
				"y": -0.3849651087,
				"z": -0.9681667424,
				"element": "Br" 
			},
			{
				"x": -2.3288131301,
				"y": -1.4294409566,
				"z": -0.5209912763,
				"element": "C" 
			},
			{
				"x": -2.4983801442,
				"y": -2.7500261342,
				"z": -0.1202717139,
				"element": "C" 
			},
			{
				"x": -1.3819857941,
				"y": -3.5199694548,
				"z": 0.2196179323,
				"element": "C" 
			},
			{
				"x": -1.5583343578,
				"y": -4.9287427589,
				"z": 0.6468803211,
				"element": "C" 
			},
			{
				"x": -0.6463117148,
				"y": -5.6684932125,
				"z": 0.958173846,
				"element": "O" 
			},
			{
				"x": -0.0981555326,
				"y": -2.962054875,
				"z": 0.1626204935,
				"element": "C" 
			},
			{
				"x": 0.0559305827,
				"y": -1.643668503,
				"z": -0.2371326572,
				"element": "C" 
			},
			{
				"x": 1.8038755586,
				"y": -0.8861545481,
				"z": -0.2967331948,
				"element": "Br" 
			},
			{
				"x": -1.0517274036,
				"y": -0.8437323883,
				"z": -0.5883876897,
				"element": "C" 
			},
			{
				"x": -0.8987041986,
				"y": 0.4634398929,
				"z": -0.9155950555,
				"element": "O" 
			},
			{
				"x": -0.7030618159,
				"y": 0.7445509972,
				"z": -2.328868076,
				"element": "C" 
			},
			{
				"x": -0.4401769727,
				"y": 2.2172515131,
				"z": -2.4929580365,
				"element": "C" 
			},
			{
				"x": 0.581774138,
				"y": 2.8392912854,
				"z": -1.7627160163,
				"element": "C" 
			},
			{
				"x": 0.8431566235,
				"y": 4.1969838494,
				"z": -1.936398143,
				"element": "C" 
			},
			{
				"x": 0.0926362664,
				"y": 4.946696374,
				"z": -2.8467903611,
				"element": "C" 
			},
			{
				"x": -0.9254523953,
				"y": 4.3334230973,
				"z": -3.5767566927,
				"element": "C" 
			},
			{
				"x": -1.1940541485,
				"y": 2.9750043726,
				"z": -3.3943548384,
				"element": "C" 
			},
			{
				"x": -3.4949919559,
				"y": -3.1772432112,
				"z": -0.072249678,
				"element": "H" 
			},
			{
				"x": -2.6140928349,
				"y": -5.2775089405,
				"z": 0.6645142552,
				"element": "H" 
			},
			{
				"x": 0.754801704,
				"y": -3.5728570135,
				"z": 0.4348773958,
				"element": "H" 
			},
			{
				"x": -1.5979703845,
				"y": 0.4420393775,
				"z": -2.883414325,
				"element": "H" 
			},
			{
				"x": 0.1480358504,
				"y": 0.148891583,
				"z": -2.6823132679,
				"element": "H" 
			},
			{
				"x": 1.1598888936,
				"y": 2.25405194,
				"z": -1.0542742499,
				"element": "H" 
			},
			{
				"x": 1.6343348785,
				"y": 4.6717846843,
				"z": -1.3631294189,
				"element": "H" 
			},
			{
				"x": 0.2997998202,
				"y": 6.0042996283,
				"z": -2.9828464734,
				"element": "H" 
			},
			{
				"x": -1.5166907442,
				"y": 4.9112364314,
				"z": -4.2812976154,
				"element": "H" 
			},
			{
				"x": -1.9959018471,
				"y": 2.5017120792,
				"z": -3.9555387216,
				"element": "H" 
			}
		],
		 "valence_orbital": [ 
			{
				"type": "occ",
				"energy": -0.26888,
				"method": "rhf"
			},
			{
				"type": "occ",
				"energy": -0.26318,
				"method": "rhf"
			},
			{
				"type": "occ",
				"energy": -0.25981,
				"method": "rhf"
			},
			{
				"type": "occ",
				"energy": -0.254,
				"method": "rhf"
			},
			{
				"type": "occ",
				"energy": -0.2505,
				"method": "rhf"
			},
			{
				"type": "unocc",
				"energy": -0.07892,
				"method": "rhf"
			},
			{
				"type": "unocc",
				"energy": -0.03909,
				"method": "rhf"
			},
			{
				"type": "unocc",
				"energy": -0.02638,
				"method": "rhf"
			},
			{
				"type": "unocc",
				"energy": -0.012,
				"method": "rhf"
			},
			{
				"type": "unocc",
				"energy": -0.00459,
				"method": "rhf"
			}
		],
		"cosmo_sigma_profile": { 
			"-0.025": 0.0,
			"-0.024": 0.0,
			"-0.023": 0.0,
			"-0.022": 0.0,
			"-0.021": 0.0,
			"-0.02": 0.0,
			"-0.019": 0.0,
			"-0.018": 0.0,
			"-0.017": 0.0,
			"-0.016": 0.0,
			"-0.015": 0.0,
			"-0.014": 0.0,
			"-0.013": 0.0,
			"-0.012": 0.0,
			"-0.011": 0.0,
			"-0.01": 0.63618810491,
			"-0.009": 3.10613130557,
			"-0.008": 3.32568695906,
			"-0.007": 5.7466277073,
			"-0.006": 12.6723846472,
			"-0.005": 23.8358715679,
			"-0.004": 24.2262333568,
			"-0.003": 22.3552578025,
			"-0.002": 21.3877781236,
			"-0.001": 29.4950443735,
			"0.0": 33.7626211638,
			"0.001": 19.912317871,
			"0.002": 21.4136011407,
			"0.003": 22.9536992387,
			"0.004": 22.3364438464,
			"0.005": 14.0211820124,
			"0.006": 9.15796381357,
			"0.007": 3.97394010173,
			"0.008": 3.42890565122,
			"0.009": 3.46775408706,
			"0.01": 3.65600648271,
			"0.011": 3.93934430251,
			"0.012": 1.4109860186,
			"0.013": 0.120260411395,
			"0.014": 0.0,
			"0.015": 0.0,
			"0.016": 0.0,
			"0.017": 0.0,
			"0.018": 0.0,
			"0.019": 0.0,
			"0.02": 0.0,
			"0.021": 0.0,
			"0.022": 0.0,
			"0.023": 0.0,
			"0.024": 0.0,
			"0.025": 0.0
		}
	}
}
