{
	 "smiles": "FC1=CC=C(C=C)C=C1", 
	 "Tm": 237.95, 
	 "num_atms": 16, 
	 "gaussian": { 
		 "optdone": 1, 
		 "sigma_profile": "yes", 
		 "theory": "DFT", 
		 "functional": "B3LYP", 
		 "basiset": "6-31G**", 
		 "properties": { 
			 "R2extent": 1374.1435, 
			 "electric_dipole_moment_norm": 1.1140785475, 
			 "electric_quadrupole_moment_norm": 5.7200183907, 
			 "total_energy": -408.885253036, 
			 "HOMO_LUMO_gap": 0.18912, 
			 "cosmo_polarized_energy": -4.04, 
			 "cosmo_cavitation_energy": 20.57, 
			 "cosmo_dispersion_energy": -14.91, 
			 "cosmo_repulsion_energy": 1.18, 
			 "cosmo_total_nonelectrostatic_energy": 6.84, 
			 "SMD_solvation_energy": 4.75 
		},
		"coords": [
			{
				"x": 0.1415210521,
				"y": 2.7753826151,
				"z": -1.8784431194,
				"element": "F" 
			},
			{
				"x": -0.0443513171,
				"y": 1.7022361411,
				"z": -1.0819908254,
				"element": "C" 
			},
			{
				"x": 0.472714202,
				"y": 1.7161531382,
				"z": 0.2068858521,
				"element": "C" 
			},
			{
				"x": 0.2718196154,
				"y": 0.5995364852,
				"z": 1.0165342736,
				"element": "C" 
			},
			{
				"x": -0.4352041604,
				"y": -0.5265266223,
				"z": 0.5597728619,
				"element": "C" 
			},
			{
				"x": -0.6120334436,
				"y": -1.6729533109,
				"z": 1.4655491665,
				"element": "C" 
			},
			{
				"x": -1.2492990481,
				"y": -2.8233524822,
				"z": 1.2150318918,
				"element": "C" 
			},
			{
				"x": -0.9413544072,
				"y": -0.4962620069,
				"z": -0.7537706212,
				"element": "C" 
			},
			{
				"x": -0.750955073,
				"y": 0.6088016465,
				"z": -1.5763365844,
				"element": "C" 
			},
			{
				"x": 1.0179737104,
				"y": 2.5853462373,
				"z": 0.5583852793,
				"element": "H" 
			},
			{
				"x": 0.6720834739,
				"y": 0.5994964536,
				"z": 2.026966514,
				"element": "H" 
			},
			{
				"x": -0.1611397571,
				"y": -1.5427072123,
				"z": 2.4490297985,
				"element": "H" 
			},
			{
				"x": -1.3127396895,
				"y": -3.5996253641,
				"z": 1.970276552,
				"element": "H" 
			},
			{
				"x": -1.7272935723,
				"y": -3.038766279,
				"z": 0.2638347707,
				"element": "H" 
			},
			{
				"x": -1.4922866771,
				"y": -1.3473828688,
				"z": -1.14102883,
				"element": "H" 
			},
			{
				"x": -1.1387549084,
				"y": 0.6372234294,
				"z": -2.58899698,
				"element": "H" 
			}
		],
		 "valence_orbital": [ 
			{
				"type": "occ",
				"energy": -0.35492,
				"method": "rhf"
			},
			{
				"type": "occ",
				"energy": -0.34167,
				"method": "rhf"
			},
			{
				"type": "occ",
				"energy": -0.29569,
				"method": "rhf"
			},
			{
				"type": "occ",
				"energy": -0.26208,
				"method": "rhf"
			},
			{
				"type": "occ",
				"energy": -0.222,
				"method": "rhf"
			},
			{
				"type": "unocc",
				"energy": -0.03288,
				"method": "rhf"
			},
			{
				"type": "unocc",
				"energy": -0.01058,
				"method": "rhf"
			},
			{
				"type": "unocc",
				"energy": 0.06037,
				"method": "rhf"
			},
			{
				"type": "unocc",
				"energy": 0.08581,
				"method": "rhf"
			},
			{
				"type": "unocc",
				"energy": 0.10823,
				"method": "rhf"
			}
		],
		"cosmo_sigma_profile": { 
			"-0.025": 0.0,
			"-0.024": 0.0,
			"-0.023": 0.0,
			"-0.022": 0.0,
			"-0.021": 0.0,
			"-0.02": 0.0,
			"-0.019": 0.0,
			"-0.018": 0.0,
			"-0.017": 0.0,
			"-0.016": 0.0,
			"-0.015": 0.0,
			"-0.014": 0.0,
			"-0.013": 0.0,
			"-0.012": 0.0,
			"-0.011": 0.0,
			"-0.01": 0.0,
			"-0.009": 0.0,
			"-0.008": 0.379473559626,
			"-0.007": 5.23673182164,
			"-0.006": 11.1490157164,
			"-0.005": 11.5890148265,
			"-0.004": 11.8582884877,
			"-0.003": 9.90858474544,
			"-0.002": 9.52786523533,
			"-0.001": 10.19416128,
			"0.0": 10.87539353,
			"0.001": 14.0034090718,
			"0.002": 14.8209330255,
			"0.003": 16.1258034126,
			"0.004": 26.1412696927,
			"0.005": 9.38393316334,
			"0.006": 3.21168062224,
			"0.007": 0.811940135127,
			"0.008": 0.0,
			"0.009": 0.0,
			"0.01": 0.0,
			"0.011": 0.0,
			"0.012": 0.0,
			"0.013": 0.0,
			"0.014": 0.0,
			"0.015": 0.0,
			"0.016": 0.0,
			"0.017": 0.0,
			"0.018": 0.0,
			"0.019": 0.0,
			"0.02": 0.0,
			"0.021": 0.0,
			"0.022": 0.0,
			"0.023": 0.0,
			"0.024": 0.0,
			"0.025": 0.0
		}
	}
}
