{
	 "smiles": "O=C1CNC(=O)N1C1CC1", 
	 "Tm": 418.15, 
	 "num_atms": 18, 
	 "gaussian": { 
		 "optdone": 1, 
		 "sigma_profile": "yes", 
		 "theory": "DFT", 
		 "functional": "B3LYP", 
		 "basiset": "6-31G**", 
		 "properties": { 
			 "R2extent": 2632.88, 
			 "electric_dipole_moment_norm": 1.80866595313, 
			 "electric_quadrupole_moment_norm": 15.4299562394, 
			 "total_energy": -493.410843421, 
			 "HOMO_LUMO_gap": 0.2523, 
			 "cosmo_polarized_energy": -15.14, 
			 "cosmo_cavitation_energy": 21.82, 
			 "cosmo_dispersion_energy": -16.11, 
			 "cosmo_repulsion_energy": 1.34, 
			 "cosmo_total_nonelectrostatic_energy": 7.05, 
			 "SMD_solvation_energy": 4.0 
		},
		"coords": [
			{
				"x": 0.7159147445,
				"y": 2.4075502911,
				"z": -2.7044963823,
				"element": "O" 
			},
			{
				"x": 1.2991382526,
				"y": 2.003393959,
				"z": -1.721376185,
				"element": "C" 
			},
			{
				"x": 1.6796856055,
				"y": 2.8227670605,
				"z": -0.4819984695,
				"element": "C" 
			},
			{
				"x": 2.3138035219,
				"y": 1.8344316718,
				"z": 0.365052462,
				"element": "N" 
			},
			{
				"x": 2.4482166348,
				"y": 0.6121715093,
				"z": -0.2490364289,
				"element": "C" 
			},
			{
				"x": 3.0235303416,
				"y": -0.3714220322,
				"z": 0.1663897919,
				"element": "O" 
			},
			{
				"x": 1.7573078445,
				"y": 0.7154782846,
				"z": -1.4868539354,
				"element": "N" 
			},
			{
				"x": 1.6684410785,
				"y": -0.36656777,
				"z": -2.4284069297,
				"element": "C" 
			},
			{
				"x": 1.0501633308,
				"y": -1.6647314706,
				"z": -1.9807741256,
				"element": "C" 
			},
			{
				"x": 0.3074973303,
				"y": -0.769144133,
				"z": -2.9357082698,
				"element": "C" 
			},
			{
				"x": 2.349475979,
				"y": 3.6397739694,
				"z": -0.7782242332,
				"element": "H" 
			},
			{
				"x": 0.7796937057,
				"y": 3.2616201121,
				"z": -0.0361020787,
				"element": "H" 
			},
			{
				"x": 2.8740497685,
				"y": 2.0447432224,
				"z": 1.1755854045,
				"element": "H" 
			},
			{
				"x": 2.5035251464,
				"y": -0.4152219703,
				"z": -3.1226507703,
				"element": "H" 
			},
			{
				"x": 0.7072443873,
				"y": -1.7207450089,
				"z": -0.9537667119,
				"element": "H" 
			},
			{
				"x": 1.4996939571,
				"y": -2.579297183,
				"z": -2.3530897528,
				"element": "H" 
			},
			{
				"x": 0.2344026876,
				"y": -1.0533958943,
				"z": -3.9802642427,
				"element": "H" 
			},
			{
				"x": -0.5451843168,
				"y": -0.2129046179,
				"z": -2.5628791426,
				"element": "H" 
			}
		],
		 "valence_orbital": [ 
			{
				"type": "occ",
				"energy": -0.30602,
				"method": "rhf"
			},
			{
				"type": "occ",
				"energy": -0.28675,
				"method": "rhf"
			},
			{
				"type": "occ",
				"energy": -0.27488,
				"method": "rhf"
			},
			{
				"type": "occ",
				"energy": -0.26341,
				"method": "rhf"
			},
			{
				"type": "occ",
				"energy": -0.26004,
				"method": "rhf"
			},
			{
				"type": "unocc",
				"energy": -0.00774,
				"method": "rhf"
			},
			{
				"type": "unocc",
				"energy": 0.05468,
				"method": "rhf"
			},
			{
				"type": "unocc",
				"energy": 0.07818,
				"method": "rhf"
			},
			{
				"type": "unocc",
				"energy": 0.10379,
				"method": "rhf"
			},
			{
				"type": "unocc",
				"energy": 0.1095,
				"method": "rhf"
			}
		],
		"cosmo_sigma_profile": { 
			"-0.025": 0.0,
			"-0.024": 0.0,
			"-0.023": 0.0,
			"-0.022": 0.0,
			"-0.021": 0.0,
			"-0.02": 0.0,
			"-0.019": 0.0,
			"-0.018": 0.0,
			"-0.017": 0.0,
			"-0.016": 0.259329828579,
			"-0.015": 1.36644289696,
			"-0.014": 0.936917773875,
			"-0.013": 1.26416915812,
			"-0.012": 1.08749392347,
			"-0.011": 0.572439164271,
			"-0.01": 1.16978818728,
			"-0.009": 1.37175514087,
			"-0.008": 4.38363965173,
			"-0.007": 8.63541873996,
			"-0.006": 11.7495591339,
			"-0.005": 18.2426887377,
			"-0.004": 15.6300760835,
			"-0.003": 13.62151254,
			"-0.002": 10.0443850454,
			"-0.001": 8.72425074044,
			"0.0": 6.91702513724,
			"0.001": 6.76720871699,
			"0.002": 5.78315747388,
			"0.003": 6.54657155146,
			"0.004": 4.11080926909,
			"0.005": 4.35392177862,
			"0.006": 2.87561707017,
			"0.007": 2.65308915464,
			"0.008": 3.40659926871,
			"0.009": 2.74300917032,
			"0.01": 4.43492064359,
			"0.011": 4.61440147733,
			"0.012": 9.22003222867,
			"0.013": 8.31757763989,
			"0.014": 0.786756703285,
			"0.015": 0.0,
			"0.016": 0.0,
			"0.017": 0.0,
			"0.018": 0.0,
			"0.019": 0.0,
			"0.02": 0.0,
			"0.021": 0.0,
			"0.022": 0.0,
			"0.023": 0.0,
			"0.024": 0.0,
			"0.025": 0.0
		}
	}
}
