{
	 "smiles": "CC(C)(C)[N+]([O-])=CC1=CC=CC=C1", 
	 "Tm": 346.15, 
	 "num_atms": 28, 
	 "gaussian": { 
		 "optdone": 1, 
		 "sigma_profile": "yes", 
		 "theory": "DFT", 
		 "functional": "B3LYP", 
		 "basiset": "6-31G**", 
		 "properties": { 
			 "R2extent": 3314.9407, 
			 "electric_dipole_moment_norm": 3.10530397063, 
			 "electric_quadrupole_moment_norm": 8.59069445679, 
			 "total_energy": -558.134010128, 
			 "HOMO_LUMO_gap": 0.15439, 
			 "cosmo_polarized_energy": -10.42, 
			 "cosmo_cavitation_energy": 30.09, 
			 "cosmo_dispersion_energy": -21.52, 
			 "cosmo_repulsion_energy": 1.69, 
			 "cosmo_total_nonelectrostatic_energy": 10.26, 
			 "SMD_solvation_energy": 6.04 
		},
		"coords": [
			{
				"x": -0.2441971526,
				"y": 0.9908511343,
				"z": -3.1672345708,
				"element": "C" 
			},
			{
				"x": -1.2255505355,
				"y": 0.2617652167,
				"z": -2.235458279,
				"element": "C" 
			},
			{
				"x": -2.5393159563,
				"y": 1.0426423647,
				"z": -2.0709919349,
				"element": "C" 
			},
			{
				"x": -1.5121120575,
				"y": -1.1445426771,
				"z": -2.7684482765,
				"element": "C" 
			},
			{
				"x": -0.5654104885,
				"y": 0.106178308,
				"z": -0.8480557778,
				"element": "N" 
			},
			{
				"x": -0.3883558177,
				"y": -1.0865443503,
				"z": -0.4348208378,
				"element": "O" 
			},
			{
				"x": -0.2255212293,
				"y": 1.1900956579,
				"z": -0.1778110651,
				"element": "C" 
			},
			{
				"x": 0.4007590972,
				"y": 1.2497838675,
				"z": 1.1288646534,
				"element": "C" 
			},
			{
				"x": 0.7519761347,
				"y": 0.1243274671,
				"z": 1.9061523112,
				"element": "C" 
			},
			{
				"x": 1.3513354941,
				"y": 0.2965957108,
				"z": 3.1527664799,
				"element": "C" 
			},
			{
				"x": 1.6144084734,
				"y": 1.5728209075,
				"z": 3.653946171,
				"element": "C" 
			},
			{
				"x": 1.2711813323,
				"y": 2.6949187213,
				"z": 2.8935291177,
				"element": "C" 
			},
			{
				"x": 0.673149983,
				"y": 2.535065938,
				"z": 1.6493184011,
				"element": "C" 
			},
			{
				"x": 0.7097005044,
				"y": 0.4576644021,
				"z": -3.2162761711,
				"element": "H" 
			},
			{
				"x": -0.6628997556,
				"y": 1.0337981367,
				"z": -4.1777165366,
				"element": "H" 
			},
			{
				"x": -0.0483488556,
				"y": 2.0172700327,
				"z": -2.8455313197,
				"element": "H" 
			},
			{
				"x": -3.0608579376,
				"y": 1.086545028,
				"z": -3.0323842625,
				"element": "H" 
			},
			{
				"x": -3.1955852985,
				"y": 0.5466001922,
				"z": -1.3499793,
				"element": "H" 
			},
			{
				"x": -2.3748547522,
				"y": 2.0703331957,
				"z": -1.7361228026,
				"element": "H" 
			},
			{
				"x": -0.594694578,
				"y": -1.7265223751,
				"z": -2.8654510052,
				"element": "H" 
			},
			{
				"x": -1.9810137001,
				"y": -1.0513166045,
				"z": -3.752966903,
				"element": "H" 
			},
			{
				"x": -2.1841184228,
				"y": -1.690810641,
				"z": -2.1052145173,
				"element": "H" 
			},
			{
				"x": -0.4448620461,
				"y": 2.127759573,
				"z": -0.6710733931,
				"element": "H" 
			},
			{
				"x": 0.5461056475,
				"y": -0.8612206277,
				"z": 1.5135932993,
				"element": "H" 
			},
			{
				"x": 1.6156200072,
				"y": -0.5794750613,
				"z": 3.7387116606,
				"element": "H" 
			},
			{
				"x": 2.0819934455,
				"y": 1.6944655266,
				"z": 4.626824738,
				"element": "H" 
			},
			{
				"x": 1.4704277906,
				"y": 3.6935478163,
				"z": 3.2720136231,
				"element": "H" 
			},
			{
				"x": 0.4088406738,
				"y": 3.41240314,
				"z": 1.0634164979,
				"element": "H" 
			}
		],
		 "valence_orbital": [ 
			{
				"type": "occ",
				"energy": -0.3351,
				"method": "rhf"
			},
			{
				"type": "occ",
				"energy": -0.27237,
				"method": "rhf"
			},
			{
				"type": "occ",
				"energy": -0.24526,
				"method": "rhf"
			},
			{
				"type": "occ",
				"energy": -0.23612,
				"method": "rhf"
			},
			{
				"type": "occ",
				"energy": -0.19662,
				"method": "rhf"
			},
			{
				"type": "unocc",
				"energy": -0.04223,
				"method": "rhf"
			},
			{
				"type": "unocc",
				"energy": 0.00571,
				"method": "rhf"
			},
			{
				"type": "unocc",
				"energy": 0.04991,
				"method": "rhf"
			},
			{
				"type": "unocc",
				"energy": 0.06946,
				"method": "rhf"
			},
			{
				"type": "unocc",
				"energy": 0.09728,
				"method": "rhf"
			}
		],
		"cosmo_sigma_profile": { 
			"-0.025": 0.0,
			"-0.024": 0.0,
			"-0.023": 0.0,
			"-0.022": 0.0,
			"-0.021": 0.0,
			"-0.02": 0.0,
			"-0.019": 0.0,
			"-0.018": 0.0,
			"-0.017": 0.0,
			"-0.016": 0.0,
			"-0.015": 0.0,
			"-0.014": 0.0,
			"-0.013": 0.0,
			"-0.012": 0.0,
			"-0.011": 0.0,
			"-0.01": 0.0,
			"-0.009": 0.848702990824,
			"-0.008": 3.50487160702,
			"-0.007": 2.84754447774,
			"-0.006": 7.45880018285,
			"-0.005": 13.194551297,
			"-0.004": 23.1413195145,
			"-0.003": 26.3361434219,
			"-0.002": 21.8688922557,
			"-0.001": 24.3778986747,
			"0.0": 26.5986494691,
			"0.001": 14.3514293267,
			"0.002": 11.0073729105,
			"0.003": 10.908802959,
			"0.004": 13.8579303645,
			"0.005": 13.6246665303,
			"0.006": 6.77820356233,
			"0.007": 1.74232595023,
			"0.008": 1.46204402329,
			"0.009": 2.08286247137,
			"0.01": 1.59007580318,
			"0.011": 2.53644327708,
			"0.012": 1.63165815032,
			"0.013": 4.26824522331,
			"0.014": 0.81766218541,
			"0.015": 0.0,
			"0.016": 0.0,
			"0.017": 0.0,
			"0.018": 0.0,
			"0.019": 0.0,
			"0.02": 0.0,
			"0.021": 0.0,
			"0.022": 0.0,
			"0.023": 0.0,
			"0.024": 0.0,
			"0.025": 0.0
		}
	}
}
