{
	 "smiles": "CC(C)(CO)[N+]([O-])=O", 
	 "Tm": 362.65, 
	 "num_atms": 17, 
	 "gaussian": { 
		 "optdone": 1, 
		 "sigma_profile": "yes", 
		 "theory": "DFT", 
		 "functional": "B3LYP", 
		 "basiset": "6-31G**", 
		 "properties": { 
			 "R2extent": 1456.6925, 
			 "electric_dipole_moment_norm": 3.4168254594, 
			 "electric_quadrupole_moment_norm": 11.2929018906, 
			 "total_energy": -438.172774103, 
			 "HOMO_LUMO_gap": 0.22143, 
			 "cosmo_polarized_energy": -9.62, 
			 "cosmo_cavitation_energy": 20.11, 
			 "cosmo_dispersion_energy": -14.46, 
			 "cosmo_repulsion_energy": 1.21, 
			 "cosmo_total_nonelectrostatic_energy": 6.86, 
			 "SMD_solvation_energy": 5.86 
		},
		"coords": [
			{
				"x": 1.0953441869,
				"y": 0.2389091525,
				"z": 0.3132900472,
				"element": "C" 
			},
			{
				"x": 0.2288920685,
				"y": 1.3836590409,
				"z": -0.223642994,
				"element": "C" 
			},
			{
				"x": -0.6125687397,
				"y": 2.0295369266,
				"z": 0.8827635711,
				"element": "C" 
			},
			{
				"x": 1.0732207218,
				"y": 2.4270788169,
				"z": -0.9725656765,
				"element": "C" 
			},
			{
				"x": 1.9691102706,
				"y": 2.9778516214,
				"z": -0.014276726,
				"element": "O" 
			},
			{
				"x": -0.7557701337,
				"y": 0.7640235174,
				"z": -1.2287518503,
				"element": "N" 
			},
			{
				"x": -0.7278508035,
				"y": 1.1595400395,
				"z": -2.3922406972,
				"element": "O" 
			},
			{
				"x": -1.5161646402,
				"y": -0.0970524136,
				"z": -0.7992421085,
				"element": "O" 
			},
			{
				"x": 1.6371133657,
				"y": -0.2566987463,
				"z": -0.4985687718,
				"element": "H" 
			},
			{
				"x": 0.4784483958,
				"y": -0.5000086969,
				"z": 0.8274800799,
				"element": "H" 
			},
			{
				"x": 1.8264715556,
				"y": 0.655076086,
				"z": 1.008929317,
				"element": "H" 
			},
			{
				"x": -1.2754797345,
				"y": 2.7982296778,
				"z": 0.4729917726,
				"element": "H" 
			},
			{
				"x": -1.2177362245,
				"y": 1.277736697,
				"z": 1.3921936289,
				"element": "H" 
			},
			{
				"x": 0.0616117752,
				"y": 2.5045756822,
				"z": 1.5979472807,
				"element": "H" 
			},
			{
				"x": 1.607837121,
				"y": 1.9426425941,
				"z": -1.7998141487,
				"element": "H" 
			},
			{
				"x": 0.4149312375,
				"y": 3.1927073624,
				"z": -1.4030023254,
				"element": "H" 
			},
			{
				"x": 2.5120895775,
				"y": 3.6384926422,
				"z": -0.4602903992,
				"element": "H" 
			}
		],
		 "valence_orbital": [ 
			{
				"type": "occ",
				"energy": -0.3407,
				"method": "rhf"
			},
			{
				"type": "occ",
				"energy": -0.31127,
				"method": "rhf"
			},
			{
				"type": "occ",
				"energy": -0.29529,
				"method": "rhf"
			},
			{
				"type": "occ",
				"energy": -0.29122,
				"method": "rhf"
			},
			{
				"type": "occ",
				"energy": -0.28423,
				"method": "rhf"
			},
			{
				"type": "unocc",
				"energy": -0.0628,
				"method": "rhf"
			},
			{
				"type": "unocc",
				"energy": 0.05219,
				"method": "rhf"
			},
			{
				"type": "unocc",
				"energy": 0.09841,
				"method": "rhf"
			},
			{
				"type": "unocc",
				"energy": 0.11258,
				"method": "rhf"
			},
			{
				"type": "unocc",
				"energy": 0.13711,
				"method": "rhf"
			}
		],
		"cosmo_sigma_profile": { 
			"-0.025": 0.0,
			"-0.024": 0.0,
			"-0.023": 0.0,
			"-0.022": 0.0,
			"-0.021": 0.0,
			"-0.02": 0.0,
			"-0.019": 0.0,
			"-0.018": 0.0,
			"-0.017": 0.16558030502,
			"-0.016": 1.1125287618,
			"-0.015": 1.20727883741,
			"-0.014": 0.905571024458,
			"-0.013": 1.06660952227,
			"-0.012": 0.548737401542,
			"-0.011": 0.756024711599,
			"-0.01": 0.615125207296,
			"-0.009": 0.771165556428,
			"-0.008": 1.41104164647,
			"-0.007": 3.61692847574,
			"-0.006": 4.81065498417,
			"-0.005": 10.0206619968,
			"-0.004": 15.509592087,
			"-0.003": 13.7652168322,
			"-0.002": 13.7855498022,
			"-0.001": 16.0871087612,
			"0.0": 10.3221342079,
			"0.001": 4.45112171859,
			"0.002": 5.04495236006,
			"0.003": 5.39923732613,
			"0.004": 4.0954136757,
			"0.005": 4.97768176719,
			"0.006": 5.40126494653,
			"0.007": 9.08891536553,
			"0.008": 9.61367555106,
			"0.009": 6.01923014841,
			"0.01": 4.22797713335,
			"0.011": 1.20725949825,
			"0.012": 0.152692167678,
			"0.013": 0.0,
			"0.014": 0.0,
			"0.015": 0.0,
			"0.016": 0.0,
			"0.017": 0.0,
			"0.018": 0.0,
			"0.019": 0.0,
			"0.02": 0.0,
			"0.021": 0.0,
			"0.022": 0.0,
			"0.023": 0.0,
			"0.024": 0.0,
			"0.025": 0.0
		}
	}
}
