{
	 "smiles": "NC(=S)NC1=C2C=CC=NC2=CC=C1", 
	 "Tm": 497.15, 
	 "num_atms": 23, 
	 "gaussian": { 
		 "optdone": 1, 
		 "sigma_profile": "yes", 
		 "theory": "DFT", 
		 "functional": "B3LYP", 
		 "basiset": "6-31G**", 
		 "properties": { 
			 "R2extent": 4411.9708, 
			 "electric_dipole_moment_norm": 3.63585691963, 
			 "electric_quadrupole_moment_norm": 35.0043799842, 
			 "total_energy": -948.952295897, 
			 "HOMO_LUMO_gap": 0.13773, 
			 "cosmo_polarized_energy": -19.37, 
			 "cosmo_cavitation_energy": 28.83, 
			 "cosmo_dispersion_energy": -21.64, 
			 "cosmo_repulsion_energy": 1.65, 
			 "cosmo_total_nonelectrostatic_energy": 8.83, 
			 "SMD_solvation_energy": 2.55 
		},
		"coords": [
			{
				"x": -3.578099196,
				"y": 2.4650099678,
				"z": 0.7092786226,
				"element": "N" 
			},
			{
				"x": -3.5041302797,
				"y": 1.5060613382,
				"z": 1.6663040748,
				"element": "C" 
			},
			{
				"x": -4.7862306481,
				"y": 1.1541831379,
				"z": 2.6949378746,
				"element": "S" 
			},
			{
				"x": -2.320392988,
				"y": 0.8213569835,
				"z": 1.7680350366,
				"element": "N" 
			},
			{
				"x": -1.1120952,
				"y": 1.0066189269,
				"z": 1.048734148,
				"element": "C" 
			},
			{
				"x": -0.4560116224,
				"y": -0.1450482048,
				"z": 0.5056253672,
				"element": "C" 
			},
			{
				"x": -0.9867850008,
				"y": -1.4587829274,
				"z": 0.57240385,
				"element": "C" 
			},
			{
				"x": -0.2688385245,
				"y": -2.5025088861,
				"z": 0.0370532531,
				"element": "C" 
			},
			{
				"x": 0.9810029832,
				"y": -2.2301524095,
				"z": -0.5718790193,
				"element": "C" 
			},
			{
				"x": 1.5027093699,
				"y": -1.0250261808,
				"z": -0.6792897434,
				"element": "N" 
			},
			{
				"x": 0.8029598631,
				"y": 0.0243599564,
				"z": -0.1572798068,
				"element": "C" 
			},
			{
				"x": 1.3501752525,
				"y": 1.3270925261,
				"z": -0.2998696582,
				"element": "C" 
			},
			{
				"x": 0.6831755002,
				"y": 2.4163465457,
				"z": 0.2103083874,
				"element": "C" 
			},
			{
				"x": -0.5400674686,
				"y": 2.2587743151,
				"z": 0.9032811689,
				"element": "C" 
			},
			{
				"x": -4.4902024408,
				"y": 2.8625296968,
				"z": 0.5510557281,
				"element": "H" 
			},
			{
				"x": -2.8919310512,
				"y": 2.5178454717,
				"z": -0.0304887583,
				"element": "H" 
			},
			{
				"x": -2.3509301961,
				"y": 0.0948996743,
				"z": 2.4703357465,
				"element": "H" 
			},
			{
				"x": -1.9585438284,
				"y": -1.6313861607,
				"z": 1.0243418309,
				"element": "H" 
			},
			{
				"x": -0.6474010439,
				"y": -3.519063153,
				"z": 0.0672123624,
				"element": "H" 
			},
			{
				"x": 1.563647493,
				"y": -3.0486318961,
				"z": -0.9931795374,
				"element": "H" 
			},
			{
				"x": 2.2993148753,
				"y": 1.4207708784,
				"z": -0.8161423053,
				"element": "H" 
			},
			{
				"x": 1.1051286117,
				"y": 3.4117710596,
				"z": 0.1101061515,
				"element": "H" 
			},
			{
				"x": -1.0228544604,
				"y": 3.1209793398,
				"z": 1.350915226,
				"element": "H" 
			}
		],
		 "valence_orbital": [ 
			{
				"type": "occ",
				"energy": -0.26881,
				"method": "rhf"
			},
			{
				"type": "occ",
				"energy": -0.26709,
				"method": "rhf"
			},
			{
				"type": "occ",
				"energy": -0.24388,
				"method": "rhf"
			},
			{
				"type": "occ",
				"energy": -0.21319,
				"method": "rhf"
			},
			{
				"type": "occ",
				"energy": -0.20877,
				"method": "rhf"
			},
			{
				"type": "unocc",
				"energy": -0.07104,
				"method": "rhf"
			},
			{
				"type": "unocc",
				"energy": -0.03375,
				"method": "rhf"
			},
			{
				"type": "unocc",
				"energy": -0.01264,
				"method": "rhf"
			},
			{
				"type": "unocc",
				"energy": 0.01748,
				"method": "rhf"
			},
			{
				"type": "unocc",
				"energy": 0.06335,
				"method": "rhf"
			}
		],
		"cosmo_sigma_profile": { 
			"-0.025": 0.0,
			"-0.024": 0.0,
			"-0.023": 0.0,
			"-0.022": 0.0,
			"-0.021": 0.0,
			"-0.02": 0.0,
			"-0.019": 0.0,
			"-0.018": 0.0,
			"-0.017": 0.0,
			"-0.016": 0.0,
			"-0.015": 0.622568711201,
			"-0.014": 2.67763783805,
			"-0.013": 2.92581089585,
			"-0.012": 3.73634374392,
			"-0.011": 3.53221715944,
			"-0.01": 2.79876253474,
			"-0.009": 2.79449022302,
			"-0.008": 2.90889731102,
			"-0.007": 9.84349376237,
			"-0.006": 15.8030450392,
			"-0.005": 15.2917751283,
			"-0.004": 11.6661621247,
			"-0.003": 10.1982279633,
			"-0.002": 12.5209397695,
			"-0.001": 11.6981765927,
			"0.0": 14.0795774699,
			"0.001": 21.8057699667,
			"0.002": 18.2941727418,
			"0.003": 12.413644891,
			"0.004": 7.90358647622,
			"0.005": 5.7505242584,
			"0.006": 4.31277523385,
			"0.007": 4.85007761313,
			"0.008": 4.65781539407,
			"0.009": 5.89143369041,
			"0.01": 5.49398889867,
			"0.011": 9.59890944425,
			"0.012": 6.34982230524,
			"0.013": 1.53553642181,
			"0.014": 0.944454162078,
			"0.015": 0.940711428424,
			"0.016": 0.28386104971,
			"0.017": 0.0,
			"0.018": 0.0,
			"0.019": 0.0,
			"0.02": 0.0,
			"0.021": 0.0,
			"0.022": 0.0,
			"0.023": 0.0,
			"0.024": 0.0,
			"0.025": 0.0
		}
	}
}
