{
	 "smiles": "CC(=O)NC1CCC(N)CC1", 
	 "Tm": 403.15, 
	 "num_atms": 27, 
	 "gaussian": { 
		 "optdone": 1, 
		 "sigma_profile": "yes", 
		 "theory": "DFT", 
		 "functional": "B3LYP", 
		 "basiset": "6-31G**", 
		 "properties": { 
			 "R2extent": 2668.0094, 
			 "electric_dipole_moment_norm": 2.97371176983, 
			 "electric_quadrupole_moment_norm": 13.4333028805, 
			 "total_energy": -499.255806467, 
			 "HOMO_LUMO_gap": 0.26896, 
			 "cosmo_polarized_energy": -15.2, 
			 "cosmo_cavitation_energy": 28.18, 
			 "cosmo_dispersion_energy": -20.33, 
			 "cosmo_repulsion_energy": 1.67, 
			 "cosmo_total_nonelectrostatic_energy": 9.52, 
			 "SMD_solvation_energy": 3.58 
		},
		"coords": [
			{
				"x": -1.0522175559,
				"y": -1.6611068064,
				"z": -3.1463804981,
				"element": "C" 
			},
			{
				"x": 0.0421775832,
				"y": -1.229979009,
				"z": -2.1793560216,
				"element": "C" 
			},
			{
				"x": 1.2264121707,
				"y": -1.4417908499,
				"z": -2.4132846656,
				"element": "O" 
			},
			{
				"x": -0.3935131869,
				"y": -0.5939490923,
				"z": -1.0481293844,
				"element": "N" 
			},
			{
				"x": 0.5067455926,
				"y": -0.1253241434,
				"z": -0.000221291,
				"element": "C" 
			},
			{
				"x": 0.2722482054,
				"y": 1.3633789565,
				"z": 0.306637257,
				"element": "C" 
			},
			{
				"x": 1.1983118436,
				"y": 1.869551421,
				"z": 1.4222250611,
				"element": "C" 
			},
			{
				"x": 1.0800779487,
				"y": 1.0311535663,
				"z": 2.7031490269,
				"element": "C" 
			},
			{
				"x": 1.9639527826,
				"y": 1.5885743268,
				"z": 3.7335071443,
				"element": "N" 
			},
			{
				"x": 1.3152380876,
				"y": -0.4595273725,
				"z": 2.3851551528,
				"element": "C" 
			},
			{
				"x": 0.3825798362,
				"y": -0.9743561534,
				"z": 1.2779661488,
				"element": "C" 
			},
			{
				"x": -0.9989271403,
				"y": -2.7456507786,
				"z": -3.2757998318,
				"element": "H" 
			},
			{
				"x": -0.8551735583,
				"y": -1.2081375443,
				"z": -4.1217024313,
				"element": "H" 
			},
			{
				"x": -2.0625457471,
				"y": -1.3906809175,
				"z": -2.8259700505,
				"element": "H" 
			},
			{
				"x": -1.3863063066,
				"y": -0.4744019265,
				"z": -0.9094564758,
				"element": "H" 
			},
			{
				"x": 1.5117246553,
				"y": -0.2560094849,
				"z": -0.4146495254,
				"element": "H" 
			},
			{
				"x": 0.4143729507,
				"y": 1.9514091868,
				"z": -0.6067692812,
				"element": "H" 
			},
			{
				"x": -0.7756394792,
				"y": 1.5051421883,
				"z": 0.613076062,
				"element": "H" 
			},
			{
				"x": 2.2408762754,
				"y": 1.8304254986,
				"z": 1.0717404564,
				"element": "H" 
			},
			{
				"x": 0.9867808347,
				"y": 2.9178866934,
				"z": 1.6561820521,
				"element": "H" 
			},
			{
				"x": 0.0517494805,
				"y": 1.1380874465,
				"z": 3.0811936999,
				"element": "H" 
			},
			{
				"x": 1.8780111419,
				"y": 1.0463681189,
				"z": 4.5911298497,
				"element": "H" 
			},
			{
				"x": 2.9337183941,
				"y": 1.4871079151,
				"z": 3.436099559,
				"element": "H" 
			},
			{
				"x": 1.187348498,
				"y": -1.0591703286,
				"z": 3.2956695981,
				"element": "H" 
			},
			{
				"x": 2.3615725323,
				"y": -0.5885568358,
				"z": 2.0703132139,
				"element": "H" 
			},
			{
				"x": 0.6007747699,
				"y": -2.0215556952,
				"z": 1.0417674676,
				"element": "H" 
			},
			{
				"x": -0.659350609,
				"y": -0.93948838,
				"z": 1.6306077071,
				"element": "H" 
			}
		],
		 "valence_orbital": [ 
			{
				"type": "occ",
				"energy": -0.32074,
				"method": "rhf"
			},
			{
				"type": "occ",
				"energy": -0.31073,
				"method": "rhf"
			},
			{
				"type": "occ",
				"energy": -0.24334,
				"method": "rhf"
			},
			{
				"type": "occ",
				"energy": -0.23941,
				"method": "rhf"
			},
			{
				"type": "occ",
				"energy": -0.23191,
				"method": "rhf"
			},
			{
				"type": "unocc",
				"energy": 0.03705,
				"method": "rhf"
			},
			{
				"type": "unocc",
				"energy": 0.07107,
				"method": "rhf"
			},
			{
				"type": "unocc",
				"energy": 0.08097,
				"method": "rhf"
			},
			{
				"type": "unocc",
				"energy": 0.0969,
				"method": "rhf"
			},
			{
				"type": "unocc",
				"energy": 0.1016,
				"method": "rhf"
			}
		],
		"cosmo_sigma_profile": { 
			"-0.025": 0.0,
			"-0.024": 0.0,
			"-0.023": 0.0,
			"-0.022": 0.0,
			"-0.021": 0.0,
			"-0.02": 0.0,
			"-0.019": 0.0,
			"-0.018": 0.0,
			"-0.017": 0.0,
			"-0.016": 0.0,
			"-0.015": 0.0,
			"-0.014": 0.0224029616404,
			"-0.013": 1.08781319626,
			"-0.012": 1.15544314326,
			"-0.011": 1.28931893072,
			"-0.01": 1.78419462843,
			"-0.009": 3.61860448991,
			"-0.008": 4.12693036453,
			"-0.007": 4.48306947431,
			"-0.006": 5.75346220273,
			"-0.005": 9.17561199916,
			"-0.004": 10.1894683497,
			"-0.003": 23.5724097016,
			"-0.002": 33.6053670306,
			"-0.001": 29.7248938567,
			"0.0": 23.3612772943,
			"0.001": 15.5507052895,
			"0.002": 6.97379968726,
			"0.003": 4.49469282659,
			"0.004": 2.4124993765,
			"0.005": 2.01272329987,
			"0.006": 2.98463055101,
			"0.007": 2.47740789886,
			"0.008": 2.09780739827,
			"0.009": 2.25967893218,
			"0.01": 1.65687984715,
			"0.011": 2.60967698817,
			"0.012": 2.30028550557,
			"0.013": 2.01282650183,
			"0.014": 6.01787798955,
			"0.015": 4.78355394456,
			"0.016": 0.828342683151,
			"0.017": 0.531242645948,
			"0.018": 0.98266781732,
			"0.019": 0.433022917813,
			"0.02": 0.390572907634,
			"0.021": 0.0238766064188,
			"0.022": 0.0,
			"0.023": 0.0,
			"0.024": 0.0,
			"0.025": 0.0
		}
	}
}
