{
	 "smiles": "CN(C)C1=CC=C(C=C(C#N)C2=NC(C)=C(S2)N=NC2=CC=C(F)C=C2)C=C1", 
	 "Tm": 422.15, 
	 "num_atms": 46, 
	 "gaussian": { 
		 "optdone": 1, 
		 "sigma_profile": "yes", 
		 "theory": "DFT", 
		 "functional": "B3LYP", 
		 "basiset": "6-31G**", 
		 "properties": { 
			 "R2extent": 22934.74, 
			 "electric_dipole_moment_norm": 9.71789962132, 
			 "electric_quadrupole_moment_norm": 26.2763319023, 
			 "total_energy": -1582.78330883, 
			 "HOMO_LUMO_gap": 0.09839, 
			 "cosmo_polarized_energy": -16.78, 
			 "cosmo_cavitation_energy": 54.18, 
			 "cosmo_dispersion_energy": -37.89, 
			 "cosmo_repulsion_energy": 2.74, 
			 "cosmo_total_nonelectrostatic_energy": 19.03, 
			 "SMD_solvation_energy": 8.69 
		},
		"coords": [
			{
				"x": -4.2841308811,
				"y": 0.3965296713,
				"z": -5.367370886,
				"element": "C" 
			},
			{
				"x": -3.203485072,
				"y": -0.1706552849,
				"z": -4.5746040367,
				"element": "N" 
			},
			{
				"x": -2.4515494885,
				"y": -1.3032426434,
				"z": -5.0946545268,
				"element": "C" 
			},
			{
				"x": -2.8996477686,
				"y": 0.3551164226,
				"z": -3.3428540916,
				"element": "C" 
			},
			{
				"x": -1.8539710523,
				"y": -0.1804441267,
				"z": -2.5456340523,
				"element": "C" 
			},
			{
				"x": -1.5441557332,
				"y": 0.3452478725,
				"z": -1.3054047992,
				"element": "C" 
			},
			{
				"x": -2.2561646569,
				"y": 1.4455319131,
				"z": -0.7691236475,
				"element": "C" 
			},
			{
				"x": -2.0447389819,
				"y": 2.0924297605,
				"z": 0.4999604281,
				"element": "C" 
			},
			{
				"x": -1.1979826844,
				"y": 1.9565042309,
				"z": 1.5862675749,
				"element": "C" 
			},
			{
				"x": -1.4335984068,
				"y": 2.9151338945,
				"z": 2.6332685965,
				"element": "C" 
			},
			{
				"x": -1.6259462299,
				"y": 3.6921446063,
				"z": 3.4796695659,
				"element": "N" 
			},
			{
				"x": -0.1132933778,
				"y": 1.023327441,
				"z": 1.8669456656,
				"element": "C" 
			},
			{
				"x": 0.3148532431,
				"y": 0.0472605329,
				"z": 1.0853279625,
				"element": "N" 
			},
			{
				"x": 1.3464611151,
				"y": -0.6571367876,
				"z": 1.623092028,
				"element": "C" 
			},
			{
				"x": 1.9406199508,
				"y": -1.7968237337,
				"z": 0.8535130968,
				"element": "C" 
			},
			{
				"x": 1.7484969762,
				"y": -0.2151915388,
				"z": 2.8855291595,
				"element": "C" 
			},
			{
				"x": 0.765620951,
				"y": 1.14405661,
				"z": 3.3836413111,
				"element": "S" 
			},
			{
				"x": 2.7201250802,
				"y": -0.6185493525,
				"z": 3.7731438689,
				"element": "N" 
			},
			{
				"x": 3.4293266202,
				"y": -1.6094748417,
				"z": 3.4043334125,
				"element": "N" 
			},
			{
				"x": 4.4150107074,
				"y": -1.9954679054,
				"z": 4.3375187245,
				"element": "C" 
			},
			{
				"x": 5.2136089851,
				"y": -3.0864357762,
				"z": 3.9592065606,
				"element": "C" 
			},
			{
				"x": 6.2191804252,
				"y": -3.5576643512,
				"z": 4.7983611483,
				"element": "C" 
			},
			{
				"x": 6.4132525181,
				"y": -2.9216910165,
				"z": 6.019955671,
				"element": "C" 
			},
			{
				"x": 7.3830859596,
				"y": -3.367507435,
				"z": 6.8419098226,
				"element": "F" 
			},
			{
				"x": 5.6363188321,
				"y": -1.8352044498,
				"z": 6.4246436655,
				"element": "C" 
			},
			{
				"x": 4.6358190688,
				"y": -1.3721440496,
				"z": 5.5812414036,
				"element": "C" 
			},
			{
				"x": -3.29920525,
				"y": 1.9740577994,
				"z": -1.5730198758,
				"element": "C" 
			},
			{
				"x": -3.6187647575,
				"y": 1.4583819353,
				"z": -2.8127960936,
				"element": "C" 
			},
			{
				"x": -4.3693355962,
				"y": -0.1546189805,
				"z": -6.3039691651,
				"element": "H" 
			},
			{
				"x": -4.1000121964,
				"y": 1.4509353735,
				"z": -5.611180295,
				"element": "H" 
			},
			{
				"x": -5.2487002396,
				"y": 0.3307193322,
				"z": -4.8472864314,
				"element": "H" 
			},
			{
				"x": -2.5408596566,
				"y": -2.1839770915,
				"z": -4.4455812293,
				"element": "H" 
			},
			{
				"x": -1.3851337136,
				"y": -1.0675171413,
				"z": -5.2038885427,
				"element": "H" 
			},
			{
				"x": -2.839335332,
				"y": -1.5694611934,
				"z": -6.0780442929,
				"element": "H" 
			},
			{
				"x": -1.2757827749,
				"y": -1.0227095533,
				"z": -2.9053553339,
				"element": "H" 
			},
			{
				"x": -0.7410113767,
				"y": -0.0859267113,
				"z": -0.72166698,
				"element": "H" 
			},
			{
				"x": -2.7428323426,
				"y": 2.9147785709,
				"z": 0.6460066437,
				"element": "H" 
			},
			{
				"x": 3.0086166697,
				"y": -1.6368920522,
				"z": 0.6770502176,
				"element": "H" 
			},
			{
				"x": 1.422154614,
				"y": -1.9012122163,
				"z": -0.1018195964,
				"element": "H" 
			},
			{
				"x": 1.8655327302,
				"y": -2.7321594385,
				"z": 1.4165445155,
				"element": "H" 
			},
			{
				"x": 5.0261492704,
				"y": -3.5514661309,
				"z": 2.9969202771,
				"element": "H" 
			},
			{
				"x": 6.8467155224,
				"y": -4.3986360729,
				"z": 4.5248528156,
				"element": "H" 
			},
			{
				"x": 5.8282292134,
				"y": -1.3742866385,
				"z": 7.3877607408,
				"element": "H" 
			},
			{
				"x": 4.0131757714,
				"y": -0.5309833252,
				"z": 5.8624723669,
				"element": "H" 
			},
			{
				"x": -3.8723843045,
				"y": 2.8195648729,
				"z": -1.2005742698,
				"element": "H" 
			},
			{
				"x": -4.4269323503,
				"y": 1.9091589992,
				"z": -3.3748090973,
				"element": "H" 
			}
		],
		 "valence_orbital": [ 
			{
				"type": "occ",
				"energy": -0.26179,
				"method": "rhf"
			},
			{
				"type": "occ",
				"energy": -0.257,
				"method": "rhf"
			},
			{
				"type": "occ",
				"energy": -0.2296,
				"method": "rhf"
			},
			{
				"type": "occ",
				"energy": -0.2244,
				"method": "rhf"
			},
			{
				"type": "occ",
				"energy": -0.19375,
				"method": "rhf"
			},
			{
				"type": "unocc",
				"energy": -0.09536,
				"method": "rhf"
			},
			{
				"type": "unocc",
				"energy": -0.06149,
				"method": "rhf"
			},
			{
				"type": "unocc",
				"energy": -0.01439,
				"method": "rhf"
			},
			{
				"type": "unocc",
				"energy": -0.00786,
				"method": "rhf"
			},
			{
				"type": "unocc",
				"energy": -0.00159,
				"method": "rhf"
			}
		],
		"cosmo_sigma_profile": { 
			"-0.025": 0.0,
			"-0.024": 0.0,
			"-0.023": 0.0,
			"-0.022": 0.0,
			"-0.021": 0.0,
			"-0.02": 0.0,
			"-0.019": 0.0,
			"-0.018": 0.0,
			"-0.017": 0.0,
			"-0.016": 0.0,
			"-0.015": 0.0,
			"-0.014": 0.0,
			"-0.013": 0.0,
			"-0.012": 0.0,
			"-0.011": 0.0,
			"-0.01": 0.0,
			"-0.009": 0.610431587655,
			"-0.008": 5.00333495364,
			"-0.007": 10.4539498267,
			"-0.006": 17.3206108609,
			"-0.005": 30.6902094722,
			"-0.004": 28.9802816354,
			"-0.003": 31.6069859516,
			"-0.002": 32.316680551,
			"-0.001": 34.3445539334,
			"0.0": 41.4402530215,
			"0.001": 47.0780221489,
			"0.002": 48.7197119617,
			"0.003": 37.3139854786,
			"0.004": 32.5935380418,
			"0.005": 13.5476551917,
			"0.006": 6.11821585193,
			"0.007": 2.74362837792,
			"0.008": 2.78451636694,
			"0.009": 3.20250501077,
			"0.01": 3.06157918767,
			"0.011": 3.01394588081,
			"0.012": 2.43507101943,
			"0.013": 2.06330081739,
			"0.014": 0.28478394551,
			"0.015": 0.0,
			"0.016": 0.0,
			"0.017": 0.0,
			"0.018": 0.0,
			"0.019": 0.0,
			"0.02": 0.0,
			"0.021": 0.0,
			"0.022": 0.0,
			"0.023": 0.0,
			"0.024": 0.0,
			"0.025": 0.0
		}
	}
}
