{
	 "smiles": "ClC1=CC=C(C=C1)C(=O)CBr", 
	 "Tm": 369.35, 
	 "num_atms": 17, 
	 "gaussian": { 
		 "optdone": 1, 
		 "sigma_profile": "yes", 
		 "theory": "DFT", 
		 "functional": "B3LYP", 
		 "basiset": "6-31G**", 
		 "properties": { 
			 "R2extent": 5097.0943, 
			 "electric_dipole_moment_norm": 1.93393229716, 
			 "electric_quadrupole_moment_norm": 9.91345560993, 
			 "total_energy": -3415.28630388, 
			 "HOMO_LUMO_gap": 0.17894, 
			 "cosmo_polarized_energy": -8.29, 
			 "cosmo_cavitation_energy": 25.64, 
			 "cosmo_dispersion_energy": -19.2, 
			 "cosmo_repulsion_energy": 1.55, 
			 "cosmo_total_nonelectrostatic_energy": 7.99, 
			 "SMD_solvation_energy": 3.56 
		},
		"coords": [
			{
				"x": 1.8320609476,
				"y": 1.1995747571,
				"z": 3.0326460084,
				"element": "Cl" 
			},
			{
				"x": 1.2458128988,
				"y": 0.7964673737,
				"z": 1.4311013083,
				"element": "C" 
			},
			{
				"x": 0.7551665399,
				"y": -0.4885390498,
				"z": 1.1845900212,
				"element": "C" 
			},
			{
				"x": 0.290889242,
				"y": -0.7984682646,
				"z": -0.0878078419,
				"element": "C" 
			},
			{
				"x": 0.3103200189,
				"y": 0.1581932665,
				"z": -1.1159938647,
				"element": "C" 
			},
			{
				"x": 0.8120215487,
				"y": 1.4402920892,
				"z": -0.8440823148,
				"element": "C" 
			},
			{
				"x": 1.2801108673,
				"y": 1.7648319047,
				"z": 0.4270157958,
				"element": "C" 
			},
			{
				"x": -0.2339314995,
				"y": -0.2447266074,
				"z": -2.4458942248,
				"element": "C" 
			},
			{
				"x": -0.6674687071,
				"y": -1.3684023861,
				"z": -2.6450452819,
				"element": "O" 
			},
			{
				"x": -0.3047572,
				"y": 0.7722731329,
				"z": -3.5812540435,
				"element": "C" 
			},
			{
				"x": 1.4909335482,
				"y": 1.1233065683,
				"z": -4.3382157164,
				"element": "Br" 
			},
			{
				"x": 0.739517855,
				"y": -1.2257522999,
				"z": 1.9794471253,
				"element": "H" 
			},
			{
				"x": -0.0990191179,
				"y": -1.785816254,
				"z": -0.310493568,
				"element": "H" 
			},
			{
				"x": 0.8637061004,
				"y": 2.1911583072,
				"z": -1.6246540278,
				"element": "H" 
			},
			{
				"x": 1.6710593628,
				"y": 2.753542201,
				"z": 0.6386074357,
				"element": "H" 
			},
			{
				"x": -0.8970117483,
				"y": 0.3499902664,
				"z": -4.388859683,
				"element": "H" 
			},
			{
				"x": -0.697110657,
				"y": 1.7402749948,
				"z": -3.2703071277,
				"element": "H" 
			}
		],
		 "valence_orbital": [ 
			{
				"type": "occ",
				"energy": -0.29988,
				"method": "rhf"
			},
			{
				"type": "occ",
				"energy": -0.29053,
				"method": "rhf"
			},
			{
				"type": "occ",
				"energy": -0.27871,
				"method": "rhf"
			},
			{
				"type": "occ",
				"energy": -0.26656,
				"method": "rhf"
			},
			{
				"type": "occ",
				"energy": -0.26201,
				"method": "rhf"
			},
			{
				"type": "unocc",
				"energy": -0.08307,
				"method": "rhf"
			},
			{
				"type": "unocc",
				"energy": -0.0286,
				"method": "rhf"
			},
			{
				"type": "unocc",
				"energy": -0.02149,
				"method": "rhf"
			},
			{
				"type": "unocc",
				"energy": 0.01823,
				"method": "rhf"
			},
			{
				"type": "unocc",
				"energy": 0.037,
				"method": "rhf"
			}
		],
		"cosmo_sigma_profile": { 
			"-0.025": 0.0,
			"-0.024": 0.0,
			"-0.023": 0.0,
			"-0.022": 0.0,
			"-0.021": 0.0,
			"-0.02": 0.0,
			"-0.019": 0.0,
			"-0.018": 0.0,
			"-0.017": 0.0,
			"-0.016": 0.0,
			"-0.015": 0.0,
			"-0.014": 0.0,
			"-0.013": 0.0,
			"-0.012": 0.0,
			"-0.011": 0.0,
			"-0.01": 0.992402543203,
			"-0.009": 3.54421476164,
			"-0.008": 7.37477627835,
			"-0.007": 9.93652676631,
			"-0.006": 11.0661982466,
			"-0.005": 8.84020824454,
			"-0.004": 9.29340620481,
			"-0.003": 9.03461866312,
			"-0.002": 10.2691938431,
			"-0.001": 13.8893792045,
			"0.0": 20.0203747891,
			"0.001": 22.8019849033,
			"0.002": 24.8853017657,
			"0.003": 16.3810238049,
			"0.004": 19.3352302295,
			"0.005": 9.8404585177,
			"0.006": 1.37141123787,
			"0.007": 1.35285132119,
			"0.008": 2.07494094045,
			"0.009": 1.93998526601,
			"0.01": 2.81036582539,
			"0.011": 3.64161550109,
			"0.012": 0.741432287726,
			"0.013": 0.0,
			"0.014": 0.0,
			"0.015": 0.0,
			"0.016": 0.0,
			"0.017": 0.0,
			"0.018": 0.0,
			"0.019": 0.0,
			"0.02": 0.0,
			"0.021": 0.0,
			"0.022": 0.0,
			"0.023": 0.0,
			"0.024": 0.0,
			"0.025": 0.0
		}
	}
}
