{
	 "smiles": "OC(=O)C1CCCN1C(=O)C1=CC=C(O1)[N+]([O-])=O", 
	 "Tm": 428.15, 
	 "num_atms": 28, 
	 "gaussian": { 
		 "optdone": 1, 
		 "sigma_profile": "yes", 
		 "theory": "DFT", 
		 "functional": "B3LYP", 
		 "basiset": "6-31G**", 
		 "properties": { 
			 "R2extent": 5231.4618, 
			 "electric_dipole_moment_norm": 3.17665100066, 
			 "electric_quadrupole_moment_norm": 22.519524818, 
			 "total_energy": -947.825839476, 
			 "HOMO_LUMO_gap": 0.1488, 
			 "cosmo_polarized_energy": -19.15, 
			 "cosmo_cavitation_energy": 33.41, 
			 "cosmo_dispersion_energy": -23.0, 
			 "cosmo_repulsion_energy": 1.79, 
			 "cosmo_total_nonelectrostatic_energy": 12.19, 
			 "SMD_solvation_energy": 9.76 
		},
		"coords": [
			{
				"x": 2.1961151997,
				"y": -0.2550585118,
				"z": -0.8954267951,
				"element": "O" 
			},
			{
				"x": 2.1003984491,
				"y": -0.5490715915,
				"z": 0.4179548041,
				"element": "C" 
			},
			{
				"x": 3.0489816518,
				"y": -0.8668479128,
				"z": 1.0982483848,
				"element": "O" 
			},
			{
				"x": 0.6742264572,
				"y": -0.4204819625,
				"z": 0.9735389332,
				"element": "C" 
			},
			{
				"x": 0.3073248185,
				"y": -1.6537939018,
				"z": 1.8209886157,
				"element": "C" 
			},
			{
				"x": -0.2759693509,
				"y": -2.6232849131,
				"z": 0.7812895262,
				"element": "C" 
			},
			{
				"x": -1.0540884115,
				"y": -1.7086468346,
				"z": -0.1757430538,
				"element": "C" 
			},
			{
				"x": -0.3795762559,
				"y": -0.3997091308,
				"z": -0.0470359617,
				"element": "N" 
			},
			{
				"x": -0.795853801,
				"y": 0.6079709144,
				"z": -0.8650116735,
				"element": "C" 
			},
			{
				"x": -1.6972487186,
				"y": 0.445342876,
				"z": -1.68867662,
				"element": "O" 
			},
			{
				"x": -0.1877276344,
				"y": 1.9615027116,
				"z": -0.7855989753,
				"element": "C" 
			},
			{
				"x": -0.4920900237,
				"y": 3.0570243679,
				"z": -1.5577285095,
				"element": "C" 
			},
			{
				"x": 0.3394052299,
				"y": 4.1168835756,
				"z": -1.1108051477,
				"element": "C" 
			},
			{
				"x": 1.0852584304,
				"y": 3.5818194687,
				"z": -0.0961698327,
				"element": "C" 
			},
			{
				"x": 0.7841677698,
				"y": 2.2825617321,
				"z": 0.1187066337,
				"element": "O" 
			},
			{
				"x": 2.0870820582,
				"y": 4.1644139667,
				"z": 0.7407748832,
				"element": "N" 
			},
			{
				"x": 2.5997832233,
				"y": 3.4521686883,
				"z": 1.603464003,
				"element": "O" 
			},
			{
				"x": 2.3506413067,
				"y": 5.3490424171,
				"z": 0.5186068789,
				"element": "O" 
			},
			{
				"x": 3.1390956922,
				"y": -0.3302286947,
				"z": -1.1209969552,
				"element": "H" 
			},
			{
				"x": 0.6722282258,
				"y": 0.4919202121,
				"z": 1.5737313627,
				"element": "H" 
			},
			{
				"x": 1.1776898697,
				"y": -2.0386987658,
				"z": 2.3539122501,
				"element": "H" 
			},
			{
				"x": -0.4540297065,
				"y": -1.3700033392,
				"z": 2.5545678321,
				"element": "H" 
			},
			{
				"x": -0.9133310147,
				"y": -3.3921158,
				"z": 1.2244122805,
				"element": "H" 
			},
			{
				"x": 0.5341399164,
				"y": -3.1326251843,
				"z": 0.2474550333,
				"element": "H" 
			},
			{
				"x": -2.1065894664,
				"y": -1.6011294888,
				"z": 0.1110407105,
				"element": "H" 
			},
			{
				"x": -1.0353557155,
				"y": -2.0411630485,
				"z": -1.2167103537,
				"element": "H" 
			},
			{
				"x": -1.2304280445,
				"y": 3.0700391019,
				"z": -2.3443801798,
				"element": "H" 
			},
			{
				"x": 0.3951498449,
				"y": 5.1327690479,
				"z": -1.4694080741,
				"element": "H" 
			}
		],
		 "valence_orbital": [ 
			{
				"type": "occ",
				"energy": -0.30177,
				"method": "rhf"
			},
			{
				"type": "occ",
				"energy": -0.30123,
				"method": "rhf"
			},
			{
				"type": "occ",
				"energy": -0.27186,
				"method": "rhf"
			},
			{
				"type": "occ",
				"energy": -0.26939,
				"method": "rhf"
			},
			{
				"type": "occ",
				"energy": -0.25242,
				"method": "rhf"
			},
			{
				"type": "unocc",
				"energy": -0.10362,
				"method": "rhf"
			},
			{
				"type": "unocc",
				"energy": -0.03621,
				"method": "rhf"
			},
			{
				"type": "unocc",
				"energy": -0.00778,
				"method": "rhf"
			},
			{
				"type": "unocc",
				"energy": 0.0398,
				"method": "rhf"
			},
			{
				"type": "unocc",
				"energy": 0.06251,
				"method": "rhf"
			}
		],
		"cosmo_sigma_profile": { 
			"-0.025": 0.0,
			"-0.024": 0.0,
			"-0.023": 0.0,
			"-0.022": 0.0,
			"-0.021": 0.0,
			"-0.02": 0.0,
			"-0.019": 0.330729244904,
			"-0.018": 0.847772582523,
			"-0.017": 1.25927952834,
			"-0.016": 1.06297063262,
			"-0.015": 0.138470523503,
			"-0.014": 0.567670190736,
			"-0.013": 0.764979473321,
			"-0.012": 0.647589326582,
			"-0.011": 1.29825520036,
			"-0.01": 2.55783111605,
			"-0.009": 2.9242686601,
			"-0.008": 4.68823980534,
			"-0.007": 8.74730160825,
			"-0.006": 8.95533934973,
			"-0.005": 18.8137072324,
			"-0.004": 26.1886759854,
			"-0.003": 25.1263420126,
			"-0.002": 23.058109741,
			"-0.001": 21.6898444569,
			"0.0": 14.8453504853,
			"0.001": 8.79298706364,
			"0.002": 8.27848819557,
			"0.003": 7.67670208716,
			"0.004": 9.35877697336,
			"0.005": 7.2862098001,
			"0.006": 7.8888957741,
			"0.007": 13.6206504556,
			"0.008": 9.41229578732,
			"0.009": 7.00835042707,
			"0.01": 5.85001466488,
			"0.011": 6.2792391161,
			"0.012": 4.49245090831,
			"0.013": 4.83625365865,
			"0.014": 0.258302758072,
			"0.015": 0.0,
			"0.016": 0.0,
			"0.017": 0.0,
			"0.018": 0.0,
			"0.019": 0.0,
			"0.02": 0.0,
			"0.021": 0.0,
			"0.022": 0.0,
			"0.023": 0.0,
			"0.024": 0.0,
			"0.025": 0.0
		}
	}
}
