{
	 "smiles": "ClCC1CNC(=O)O1", 
	 "Tm": 376.15, 
	 "num_atms": 14, 
	 "gaussian": { 
		 "optdone": 1, 
		 "sigma_profile": "yes", 
		 "theory": "DFT", 
		 "functional": "B3LYP", 
		 "basiset": "6-31G**", 
		 "properties": { 
			 "R2extent": 1596.5295, 
			 "electric_dipole_moment_norm": 3.16035025591, 
			 "electric_quadrupole_moment_norm": 15.9088638416, 
			 "total_energy": -821.449852027, 
			 "HOMO_LUMO_gap": 0.27558, 
			 "cosmo_polarized_energy": -13.93, 
			 "cosmo_cavitation_energy": 19.41, 
			 "cosmo_dispersion_energy": -14.88, 
			 "cosmo_repulsion_energy": 1.27, 
			 "cosmo_total_nonelectrostatic_energy": 5.79, 
			 "SMD_solvation_energy": 3.17 
		},
		"coords": [
			{
				"x": 1.1610151347,
				"y": -2.4249116644,
				"z": 2.3201093993,
				"element": "Cl" 
			},
			{
				"x": 0.9681447796,
				"y": -0.632248322,
				"z": 2.1484342948,
				"element": "C" 
			},
			{
				"x": 1.148745809,
				"y": -0.2218914291,
				"z": 0.6958440216,
				"element": "C" 
			},
			{
				"x": 0.0730068663,
				"y": -0.7503758166,
				"z": -0.2796803686,
				"element": "C" 
			},
			{
				"x": -0.0856898451,
				"y": 0.4166024769,
				"z": -1.1284155344,
				"element": "N" 
			},
			{
				"x": 0.3084400781,
				"y": 1.5712366555,
				"z": -0.4880641703,
				"element": "C" 
			},
			{
				"x": 0.1102637014,
				"y": 2.7145617497,
				"z": -0.8094148584,
				"element": "O" 
			},
			{
				"x": 1.0246073363,
				"y": 1.2104122799,
				"z": 0.6343018148,
				"element": "O" 
			},
			{
				"x": 1.7194773358,
				"y": -0.161049099,
				"z": 2.782080857,
				"element": "H" 
			},
			{
				"x": -0.0285075022,
				"y": -0.3716956739,
				"z": 2.5080689254,
				"element": "H" 
			},
			{
				"x": 2.151973638,
				"y": -0.4980750416,
				"z": 0.3506009609,
				"element": "H" 
			},
			{
				"x": 0.4190513559,
				"y": -1.6262120578,
				"z": -0.8333549865,
				"element": "H" 
			},
			{
				"x": -0.8528169882,
				"y": -1.018268324,
				"z": 0.2503440538,
				"element": "H" 
			},
			{
				"x": -0.8201116996,
				"y": 0.4942142665,
				"z": -1.8156544095,
				"element": "H" 
			}
		],
		 "valence_orbital": [ 
			{
				"type": "occ",
				"energy": -0.32155,
				"method": "rhf"
			},
			{
				"type": "occ",
				"energy": -0.31482,
				"method": "rhf"
			},
			{
				"type": "occ",
				"energy": -0.30125,
				"method": "rhf"
			},
			{
				"type": "occ",
				"energy": -0.28378,
				"method": "rhf"
			},
			{
				"type": "occ",
				"energy": -0.27105,
				"method": "rhf"
			},
			{
				"type": "unocc",
				"energy": 0.00453,
				"method": "rhf"
			},
			{
				"type": "unocc",
				"energy": 0.0413,
				"method": "rhf"
			},
			{
				"type": "unocc",
				"energy": 0.06985,
				"method": "rhf"
			},
			{
				"type": "unocc",
				"energy": 0.08297,
				"method": "rhf"
			},
			{
				"type": "unocc",
				"energy": 0.09869,
				"method": "rhf"
			}
		],
		"cosmo_sigma_profile": { 
			"-0.025": 0.0,
			"-0.024": 0.0,
			"-0.023": 0.0,
			"-0.022": 0.0,
			"-0.021": 0.0,
			"-0.02": 0.0,
			"-0.019": 0.0,
			"-0.018": 0.0,
			"-0.017": 0.0,
			"-0.016": 0.0125335944067,
			"-0.015": 1.1204162388,
			"-0.014": 1.30092180134,
			"-0.013": 1.42182214518,
			"-0.012": 1.13540773466,
			"-0.011": 0.854159697239,
			"-0.01": 1.00096602693,
			"-0.009": 0.925092261917,
			"-0.008": 6.53080725809,
			"-0.007": 11.6617960134,
			"-0.006": 13.519841716,
			"-0.005": 12.261339832,
			"-0.004": 9.16972535429,
			"-0.003": 6.54633518846,
			"-0.002": 5.03232613171,
			"-0.001": 6.2352459757,
			"0.0": 5.75651896104,
			"0.001": 6.63001207574,
			"0.002": 5.69516243328,
			"0.003": 6.84827580425,
			"0.004": 8.77596826811,
			"0.005": 9.30319956031,
			"0.006": 7.82465924846,
			"0.007": 2.55312827645,
			"0.008": 2.49073012007,
			"0.009": 2.94184874484,
			"0.01": 3.77222684275,
			"0.011": 2.49659430135,
			"0.012": 5.67374508843,
			"0.013": 5.19124433863,
			"0.014": 0.685869066152,
			"0.015": 0.0,
			"0.016": 0.0,
			"0.017": 0.0,
			"0.018": 0.0,
			"0.019": 0.0,
			"0.02": 0.0,
			"0.021": 0.0,
			"0.022": 0.0,
			"0.023": 0.0,
			"0.024": 0.0,
			"0.025": 0.0
		}
	}
}
