{
	 "smiles": "[O-][N+](=O)C1=C(N=C2SCCN12)C1=CC=C(C=C1)[N+]([O-])=O", 
	 "Tm": 477.15, 
	 "num_atms": 28, 
	 "gaussian": { 
		 "optdone": 1, 
		 "sigma_profile": "yes", 
		 "theory": "DFT", 
		 "functional": "B3LYP", 
		 "basiset": "6-31G**", 
		 "properties": { 
			 "R2extent": 7943.2605, 
			 "electric_dipole_moment_norm": 8.79228677137, 
			 "electric_quadrupole_moment_norm": 10.8752261521, 
			 "total_energy": -1341.86999885, 
			 "HOMO_LUMO_gap": 0.13224, 
			 "cosmo_polarized_energy": -17.21, 
			 "cosmo_cavitation_energy": 35.25, 
			 "cosmo_dispersion_energy": -26.62, 
			 "cosmo_repulsion_energy": 1.96, 
			 "cosmo_total_nonelectrostatic_energy": 10.59, 
			 "SMD_solvation_energy": 7.69 
		},
		"coords": [
			{
				"x": 1.9488161005,
				"y": 1.6456172977,
				"z": -1.6976418794,
				"element": "O" 
			},
			{
				"x": 1.5009663687,
				"y": 2.4980207411,
				"z": -0.9257307901,
				"element": "N" 
			},
			{
				"x": 1.888973666,
				"y": 3.6768365819,
				"z": -0.8892777494,
				"element": "O" 
			},
			{
				"x": 0.4635012523,
				"y": 2.1306541987,
				"z": -0.0313220617,
				"element": "C" 
			},
			{
				"x": -0.2712241765,
				"y": 0.9479393525,
				"z": 0.170843675,
				"element": "C" 
			},
			{
				"x": -1.2516377074,
				"y": 1.1914070834,
				"z": 1.1044570677,
				"element": "N" 
			},
			{
				"x": -1.1069209172,
				"y": 2.4521488387,
				"z": 1.4558220573,
				"element": "C" 
			},
			{
				"x": -2.0213789671,
				"y": 3.4880904312,
				"z": 2.5396740471,
				"element": "S" 
			},
			{
				"x": -0.6900123532,
				"y": 4.7739865076,
				"z": 2.379170744,
				"element": "C" 
			},
			{
				"x": 0.0457417895,
				"y": 4.5198552755,
				"z": 1.0479086973,
				"element": "C" 
			},
			{
				"x": -0.0820526021,
				"y": 3.0768323596,
				"z": 0.8289975325,
				"element": "N" 
			},
			{
				"x": -0.1834051821,
				"y": -0.409329085,
				"z": -0.3980659566,
				"element": "C" 
			},
			{
				"x": -1.3616442549,
				"y": -1.1831572457,
				"z": -0.40074247,
				"element": "C" 
			},
			{
				"x": -1.3586569013,
				"y": -2.4854024821,
				"z": -0.8819643483,
				"element": "C" 
			},
			{
				"x": -0.1601789376,
				"y": -3.0230059666,
				"z": -1.3486385984,
				"element": "C" 
			},
			{
				"x": 1.0252380179,
				"y": -2.2923236627,
				"z": -1.3420387643,
				"element": "C" 
			},
			{
				"x": 1.0103554772,
				"y": -0.9848076159,
				"z": -0.867763552,
				"element": "C" 
			},
			{
				"x": -0.146601309,
				"y": -4.4037336936,
				"z": -1.8568137329,
				"element": "N" 
			},
			{
				"x": 0.9263793272,
				"y": -4.8545239093,
				"z": -2.2567834495,
				"element": "O" 
			},
			{
				"x": -1.2096501111,
				"y": -5.024203484,
				"z": -1.8501376065,
				"element": "O" 
			},
			{
				"x": -1.1488801443,
				"y": 5.7626146596,
				"z": 2.4041159147,
				"element": "H" 
			},
			{
				"x": -0.0131855639,
				"y": 4.6698574962,
				"z": 3.2299432644,
				"element": "H" 
			},
			{
				"x": 1.0937756885,
				"y": 4.8080854181,
				"z": 1.1013479984,
				"element": "H" 
			},
			{
				"x": -0.4185552635,
				"y": 5.055276402,
				"z": 0.2132374493,
				"element": "H" 
			},
			{
				"x": -2.2752682786,
				"y": -0.747176556,
				"z": -0.0150153669,
				"element": "H" 
			},
			{
				"x": -2.2578497317,
				"y": -3.0880115717,
				"z": -0.9002502413,
				"element": "H" 
			},
			{
				"x": 1.9368660644,
				"y": -2.7514603901,
				"z": -1.7027155683,
				"element": "H" 
			},
			{
				"x": 1.9248886492,
				"y": -0.4098869809,
				"z": -0.8674163122,
				"element": "H" 
			}
		],
		 "valence_orbital": [ 
			{
				"type": "occ",
				"energy": -0.29849,
				"method": "rhf"
			},
			{
				"type": "occ",
				"energy": -0.28817,
				"method": "rhf"
			},
			{
				"type": "occ",
				"energy": -0.2767,
				"method": "rhf"
			},
			{
				"type": "occ",
				"energy": -0.27502,
				"method": "rhf"
			},
			{
				"type": "occ",
				"energy": -0.24237,
				"method": "rhf"
			},
			{
				"type": "unocc",
				"energy": -0.11013,
				"method": "rhf"
			},
			{
				"type": "unocc",
				"energy": -0.07995,
				"method": "rhf"
			},
			{
				"type": "unocc",
				"energy": -0.02609,
				"method": "rhf"
			},
			{
				"type": "unocc",
				"energy": -0.02399,
				"method": "rhf"
			},
			{
				"type": "unocc",
				"energy": -0.01099,
				"method": "rhf"
			}
		],
		"cosmo_sigma_profile": { 
			"-0.025": 0.0,
			"-0.024": 0.0,
			"-0.023": 0.0,
			"-0.022": 0.0,
			"-0.021": 0.0,
			"-0.02": 0.0,
			"-0.019": 0.0,
			"-0.018": 0.0,
			"-0.017": 0.0,
			"-0.016": 0.0,
			"-0.015": 0.0,
			"-0.014": 0.0,
			"-0.013": 0.0,
			"-0.012": 0.0,
			"-0.011": 0.0,
			"-0.01": 0.0,
			"-0.009": 1.19878720184,
			"-0.008": 12.4790670733,
			"-0.007": 18.706142514,
			"-0.006": 21.604665083,
			"-0.005": 19.1057298988,
			"-0.004": 14.4905155354,
			"-0.003": 14.4963726354,
			"-0.002": 17.609702762,
			"-0.001": 20.6327760237,
			"0.0": 20.8012568468,
			"0.001": 23.8019766557,
			"0.002": 13.1848405632,
			"0.003": 10.9124384508,
			"0.004": 11.3945492412,
			"0.005": 10.2067429222,
			"0.006": 8.9606794701,
			"0.007": 14.2970552214,
			"0.008": 13.9447473728,
			"0.009": 9.55551945835,
			"0.01": 6.70976661072,
			"0.011": 1.0553311555,
			"0.012": 0.931355844147,
			"0.013": 0.231232024591,
			"0.014": 0.0,
			"0.015": 0.0,
			"0.016": 0.0,
			"0.017": 0.0,
			"0.018": 0.0,
			"0.019": 0.0,
			"0.02": 0.0,
			"0.021": 0.0,
			"0.022": 0.0,
			"0.023": 0.0,
			"0.024": 0.0,
			"0.025": 0.0
		}
	}
}
