{
	 "smiles": "COC1=CC2=C(C(=O)CC(O2)C2=CC=C(O)C=C2)C(O)=C1", 
	 "Tm": 425.15, 
	 "num_atms": 35, 
	 "gaussian": { 
		 "optdone": 1, 
		 "sigma_profile": "yes", 
		 "theory": "DFT", 
		 "functional": "B3LYP", 
		 "basiset": "6-31G**", 
		 "properties": { 
			 "R2extent": 7050.5159, 
			 "electric_dipole_moment_norm": 5.82870801808, 
			 "electric_quadrupole_moment_norm": 9.01670718999, 
			 "total_energy": -994.25580475, 
			 "HOMO_LUMO_gap": 0.16445, 
			 "cosmo_polarized_energy": -17.4, 
			 "cosmo_cavitation_energy": 38.27, 
			 "cosmo_dispersion_energy": -27.63, 
			 "cosmo_repulsion_energy": 2.1, 
			 "cosmo_total_nonelectrostatic_energy": 12.75, 
			 "SMD_solvation_energy": 8.03 
		},
		"coords": [
			{
				"x": 2.3191791976,
				"y": 3.0900079585,
				"z": -1.1189275221,
				"element": "C" 
			},
			{
				"x": 2.6376321877,
				"y": 2.4566227545,
				"z": 0.1134668757,
				"element": "O" 
			},
			{
				"x": 1.6969282353,
				"y": 1.6914237759,
				"z": 0.7208849819,
				"element": "C" 
			},
			{
				"x": 0.4167845477,
				"y": 1.4718653961,
				"z": 0.1835352119,
				"element": "C" 
			},
			{
				"x": -0.4721951917,
				"y": 0.6678567537,
				"z": 0.8887041539,
				"element": "C" 
			},
			{
				"x": -0.1147047156,
				"y": 0.0811468096,
				"z": 2.1266173357,
				"element": "C" 
			},
			{
				"x": -1.0804127711,
				"y": -0.6738751021,
				"z": 2.888208009,
				"element": "C" 
			},
			{
				"x": -0.8173000649,
				"y": -1.2271961687,
				"z": 3.9713170675,
				"element": "O" 
			},
			{
				"x": -2.4855250547,
				"y": -0.7156721464,
				"z": 2.315384436,
				"element": "C" 
			},
			{
				"x": -2.4747611503,
				"y": -0.6632737671,
				"z": 0.7883463666,
				"element": "C" 
			},
			{
				"x": -1.7067458323,
				"y": 0.4943356684,
				"z": 0.3439853071,
				"element": "O" 
			},
			{
				"x": -1.988020564,
				"y": -1.9180660105,
				"z": 0.0792049187,
				"element": "C" 
			},
			{
				"x": -1.5295477026,
				"y": -3.0626367448,
				"z": 0.7453783611,
				"element": "C" 
			},
			{
				"x": -1.1077823977,
				"y": -4.1880689637,
				"z": 0.0404795451,
				"element": "C" 
			},
			{
				"x": -1.1344065414,
				"y": -4.1863994007,
				"z": -1.3566269987,
				"element": "C" 
			},
			{
				"x": -0.7120227046,
				"y": -5.3136237939,
				"z": -1.9985857988,
				"element": "O" 
			},
			{
				"x": -1.58755531,
				"y": -3.0503790314,
				"z": -2.0395771851,
				"element": "C" 
			},
			{
				"x": -2.0093169244,
				"y": -1.9354035717,
				"z": -1.3225798707,
				"element": "C" 
			},
			{
				"x": 1.2024192868,
				"y": 0.3104139318,
				"z": 2.6342431673,
				"element": "C" 
			},
			{
				"x": 1.5811560054,
				"y": -0.2326317983,
				"z": 3.7980679425,
				"element": "O" 
			},
			{
				"x": 2.0958604062,
				"y": 1.1122262654,
				"z": 1.9330676017,
				"element": "C" 
			},
			{
				"x": 3.20949005,
				"y": 3.6525534367,
				"z": -1.4028832746,
				"element": "H" 
			},
			{
				"x": 2.0897314006,
				"y": 2.3562727525,
				"z": -1.9010671814,
				"element": "H" 
			},
			{
				"x": 1.4734990407,
				"y": 3.779622627,
				"z": -1.0104162497,
				"element": "H" 
			},
			{
				"x": 0.1003967221,
				"y": 1.8885288931,
				"z": -0.7625054652,
				"element": "H" 
			},
			{
				"x": -3.0162543811,
				"y": 0.168836275,
				"z": 2.6910530452,
				"element": "H" 
			},
			{
				"x": -3.0137242644,
				"y": -1.5941456868,
				"z": 2.6924934151,
				"element": "H" 
			},
			{
				"x": -3.4812092377,
				"y": -0.426766119,
				"z": 0.4302017333,
				"element": "H" 
			},
			{
				"x": -1.4908888523,
				"y": -3.0933118208,
				"z": 1.8292647474,
				"element": "H" 
			},
			{
				"x": -0.7516824097,
				"y": -5.0722947815,
				"z": 0.5582231092,
				"element": "H" 
			},
			{
				"x": -0.773910006,
				"y": -5.1790068444,
				"z": -2.953157328,
				"element": "H" 
			},
			{
				"x": -1.6128451407,
				"y": -3.0423581308,
				"z": -3.1274409662,
				"element": "H" 
			},
			{
				"x": -2.3528318394,
				"y": -1.0560703815,
				"z": -1.8605071348,
				"element": "H" 
			},
			{
				"x": 0.8021244127,
				"y": -0.7443131876,
				"z": 4.1398606374,
				"element": "H" 
			},
			{
				"x": 3.0910415635,
				"y": 1.2922801535,
				"z": 2.3197870057,
				"element": "H" 
			}
		],
		 "valence_orbital": [ 
			{
				"type": "occ",
				"energy": -0.25977,
				"method": "rhf"
			},
			{
				"type": "occ",
				"energy": -0.25581,
				"method": "rhf"
			},
			{
				"type": "occ",
				"energy": -0.23014,
				"method": "rhf"
			},
			{
				"type": "occ",
				"energy": -0.22597,
				"method": "rhf"
			},
			{
				"type": "occ",
				"energy": -0.21486,
				"method": "rhf"
			},
			{
				"type": "unocc",
				"energy": -0.05041,
				"method": "rhf"
			},
			{
				"type": "unocc",
				"energy": -0.0095,
				"method": "rhf"
			},
			{
				"type": "unocc",
				"energy": -0.00258,
				"method": "rhf"
			},
			{
				"type": "unocc",
				"energy": 0.01625,
				"method": "rhf"
			},
			{
				"type": "unocc",
				"energy": 0.04884,
				"method": "rhf"
			}
		],
		"cosmo_sigma_profile": { 
			"-0.025": 0.0,
			"-0.024": 0.0,
			"-0.023": 0.0,
			"-0.022": 0.0,
			"-0.021": 0.0,
			"-0.02": 0.0,
			"-0.019": 0.0,
			"-0.018": 0.38469605154,
			"-0.017": 1.55016385982,
			"-0.016": 0.413517178243,
			"-0.015": 1.27890388067,
			"-0.014": 1.28261813641,
			"-0.013": 1.13826976042,
			"-0.012": 0.789717886135,
			"-0.011": 0.51291826904,
			"-0.01": 1.54382084496,
			"-0.009": 1.20714797587,
			"-0.008": 1.18202127353,
			"-0.007": 9.35009249463,
			"-0.006": 24.123822366,
			"-0.005": 25.3047200899,
			"-0.004": 23.8567132227,
			"-0.003": 19.2518817505,
			"-0.002": 16.4829194434,
			"-0.001": 14.6797585209,
			"0.0": 13.6643965796,
			"0.001": 15.9763255898,
			"0.002": 22.5403452649,
			"0.003": 27.3086392873,
			"0.004": 23.5102251859,
			"0.005": 17.0882727583,
			"0.006": 6.07402228295,
			"0.007": 6.50024678825,
			"0.008": 6.27495448526,
			"0.009": 6.93027909309,
			"0.01": 6.08022599482,
			"0.011": 4.51492053779,
			"0.012": 2.96544387532,
			"0.013": 0.871651014494,
			"0.014": 0.0899391095971,
			"0.015": 0.0,
			"0.016": 0.0,
			"0.017": 0.0,
			"0.018": 0.0,
			"0.019": 0.0,
			"0.02": 0.0,
			"0.021": 0.0,
			"0.022": 0.0,
			"0.023": 0.0,
			"0.024": 0.0,
			"0.025": 0.0
		}
	}
}
