{
	 "smiles": "NC1=NC=NC2=C1N=CN2C1OC(CI)C(O)C1O", 
	 "Tm": 455.15, 
	 "num_atms": 31, 
	 "gaussian": { 
		 "optdone": 1, 
		 "sigma_profile": "no", 
		 "theory": "DFT", 
		 "functional": "B3LYP", 
		 "basiset": "6-31G**", 
		 "properties": { 
			 "R2extent": 5361.7689, 
			 "electric_dipole_moment_norm": 2.50792537967, 
			 "electric_quadrupole_moment_norm": 24.3201697889, 
			 "total_energy": -899.112337582, 
			 "HOMO_LUMO_gap": 0.19384, 
			 "cosmo_polarized_energy": -102060.77, 
			 "cosmo_cavitation_energy": 37.03, 
			 "cosmo_dispersion_energy": -28.32, 
			 "cosmo_repulsion_energy": 2.17, 
			 "cosmo_total_nonelectrostatic_energy": 10.89, 
			 "SMD_solvation_energy": 1.28 
		},
		"coords": [
			{
				"x": -1.7875405554,
				"y": -1.5539407682,
				"z": 4.4781256838,
				"element": "N" 
			},
			{
				"x": -0.9689502165,
				"y": -0.9406475978,
				"z": 3.5967716269,
				"element": "C" 
			},
			{
				"x": 0.2806121813,
				"y": -0.6175400924,
				"z": 3.986189503,
				"element": "N" 
			},
			{
				"x": 1.0741854096,
				"y": 0.0062698565,
				"z": 3.1109143589,
				"element": "C" 
			},
			{
				"x": 0.7960293348,
				"y": 0.3704823456,
				"z": 1.8526540956,
				"element": "N" 
			},
			{
				"x": -0.4477760842,
				"y": 0.0298314267,
				"z": 1.4767402166,
				"element": "C" 
			},
			{
				"x": -1.3843856016,
				"y": -0.6166241338,
				"z": 2.2878031911,
				"element": "C" 
			},
			{
				"x": -2.5832455959,
				"y": -0.8068813737,
				"z": 1.6258081265,
				"element": "N" 
			},
			{
				"x": -2.3719056928,
				"y": -0.2812103587,
				"z": 0.448026073,
				"element": "C" 
			},
			{
				"x": -1.1017939527,
				"y": 0.2575386627,
				"z": 0.2777647856,
				"element": "N" 
			},
			{
				"x": -0.672411636,
				"y": 0.8246075976,
				"z": -0.9892810837,
				"element": "C" 
			},
			{
				"x": -0.4053809071,
				"y": -0.2329547809,
				"z": -1.906003681,
				"element": "O" 
			},
			{
				"x": 0.4438326248,
				"y": 0.2656592218,
				"z": -2.9499660449,
				"element": "C" 
			},
			{
				"x": 1.6945350495,
				"y": -0.5898006556,
				"z": -3.065232974,
				"element": "C" 
			},
			{
				"x": 1.2720971985,
				"y": -2.6502723519,
				"z": -3.653946952,
				"element": "I" 
			},
			{
				"x": 0.7673801672,
				"y": 1.7441461353,
				"z": -2.5664857914,
				"element": "C" 
			},
			{
				"x": -0.1834934923,
				"y": 2.6493285342,
				"z": -3.1070864286,
				"element": "O" 
			},
			{
				"x": 0.580998072,
				"y": 1.7273745656,
				"z": -1.0434964228,
				"element": "C" 
			},
			{
				"x": 1.7519451794,
				"y": 1.165156399,
				"z": -0.5210478736,
				"element": "O" 
			},
			{
				"x": -2.6942074285,
				"y": -1.8750342811,
				"z": 4.1803368659,
				"element": "H" 
			},
			{
				"x": -1.4173677071,
				"y": -1.8306630324,
				"z": 5.3729618155,
				"element": "H" 
			},
			{
				"x": 2.0732663048,
				"y": 0.2498945748,
				"z": 3.4644209157,
				"element": "H" 
			},
			{
				"x": -3.0890646229,
				"y": -0.2484746781,
				"z": -0.3616416206,
				"element": "H" 
			},
			{
				"x": -1.5183395487,
				"y": 1.4231616995,
				"z": -1.3544804729,
				"element": "H" 
			},
			{
				"x": -0.1142114489,
				"y": 0.2541302433,
				"z": -3.8962168266,
				"element": "H" 
			},
			{
				"x": 2.3614555295,
				"y": -0.2137437771,
				"z": -3.841156174,
				"element": "H" 
			},
			{
				"x": 2.210694784,
				"y": -0.6445485987,
				"z": -2.1099829269,
				"element": "H" 
			},
			{
				"x": 1.7963717282,
				"y": 2.0291901069,
				"z": -2.8161134933,
				"element": "H" 
			},
			{
				"x": -0.1175690942,
				"y": 2.6282834056,
				"z": -4.0702896889,
				"element": "H" 
			},
			{
				"x": 0.3633398106,
				"y": 2.7324750154,
				"z": -0.655509724,
				"element": "H" 
			},
			{
				"x": 1.6085002108,
				"y": 0.9497066903,
				"z": 0.4347209211,
				"element": "H" 
			}
		],
		 "valence_orbital": [ 
			{
				"type": "occ",
				"energy": -0.27131,
				"method": "rhf"
			},
			{
				"type": "occ",
				"energy": -0.25889,
				"method": "rhf"
			},
			{
				"type": "occ",
				"energy": -0.25173,
				"method": "rhf"
			},
			{
				"type": "occ",
				"energy": -0.24946,
				"method": "rhf"
			},
			{
				"type": "occ",
				"energy": -0.23064,
				"method": "rhf"
			},
			{
				"type": "unocc",
				"energy": -0.0368,
				"method": "rhf"
			},
			{
				"type": "unocc",
				"energy": -0.03177,
				"method": "rhf"
			},
			{
				"type": "unocc",
				"energy": -0.00655,
				"method": "rhf"
			},
			{
				"type": "unocc",
				"energy": 0.02559,
				"method": "rhf"
			},
			{
				"type": "unocc",
				"energy": 0.03971,
				"method": "rhf"
			}
		],
		"cosmo_sigma_profile": { 
			"0.0": 0.0,
			"0.0": 0.0,
			"0.0": 0.0,
			"0.0": 0.0,
			"0.0": 0.0,
			"0.0": 0.0,
			"0.0": 0.0,
			"0.0": 0.0,
			"0.0": 0.0,
			"0.0": 0.0,
			"0.0": 0.0,
			"0.0": 0.0,
			"0.0": 0.0,
			"0.0": 0.0,
			"0.0": 0.0,
			"0.0": 0.0,
			"0.0": 0.0,
			"0.0": 0.0,
			"0.0": 0.0,
			"0.0": 0.0,
			"0.0": 0.0,
			"0.0": 0.0,
			"0.0": 0.0,
			"0.0": 0.0,
			"0.0": 0.0,
			"0.0": 0.0,
			"0.0": 0.0,
			"0.0": 0.0,
			"0.0": 0.0,
			"0.0": 0.0,
			"0.0": 0.0,
			"0.0": 0.0,
			"0.0": 0.0,
			"0.0": 0.0,
			"0.0": 0.0,
			"0.0": 0.0,
			"0.0": 0.0,
			"0.0": 0.0,
			"0.0": 0.0,
			"0.0": 0.0,
			"0.0": 0.0,
			"0.0": 0.0,
			"0.0": 0.0,
			"0.0": 0.0,
			"0.0": 0.0,
			"0.0": 0.0,
			"0.0": 0.0,
			"0.0": 0.0,
			"0.0": 0.0,
			"0.0": 0.0,
			"0.0": 0.0
		}
	}
}
