{
	 "smiles": "CCC1=C(SN=N1)C(=O)NC1CCCCC1", 
	 "Tm": 354.15, 
	 "num_atms": 33, 
	 "gaussian": { 
		 "optdone": 1, 
		 "sigma_profile": "yes", 
		 "theory": "DFT", 
		 "functional": "B3LYP", 
		 "basiset": "6-31G**", 
		 "properties": { 
			 "R2extent": 5622.3135, 
			 "electric_dipole_moment_norm": 4.3317680859, 
			 "electric_quadrupole_moment_norm": 14.8112002201, 
			 "total_energy": -1067.07180102, 
			 "HOMO_LUMO_gap": 0.18435, 
			 "cosmo_polarized_energy": -11.94, 
			 "cosmo_cavitation_energy": 35.85, 
			 "cosmo_dispersion_energy": -25.85, 
			 "cosmo_repulsion_energy": 1.99, 
			 "cosmo_total_nonelectrostatic_energy": 12.0, 
			 "SMD_solvation_energy": 3.35 
		},
		"coords": [
			{
				"x": 3.03007675,
				"y": 0.5049372685,
				"z": -3.4097807141,
				"element": "C" 
			},
			{
				"x": 2.1643864496,
				"y": -0.7677514805,
				"z": -3.4015401539,
				"element": "C" 
			},
			{
				"x": 2.3740677753,
				"y": -1.5948620684,
				"z": -2.1644534626,
				"element": "C" 
			},
			{
				"x": 1.698258063,
				"y": -1.5296371795,
				"z": -0.9590984505,
				"element": "C" 
			},
			{
				"x": 2.3795578726,
				"y": -2.6835429965,
				"z": 0.1205216124,
				"element": "S" 
			},
			{
				"x": 3.528364519,
				"y": -3.2085865812,
				"z": -1.0916243113,
				"element": "N" 
			},
			{
				"x": 3.3709353624,
				"y": -2.5468967504,
				"z": -2.1654972625,
				"element": "N" 
			},
			{
				"x": 0.5709636937,
				"y": -0.5997662069,
				"z": -0.6378368081,
				"element": "C" 
			},
			{
				"x": 0.4183829722,
				"y": 0.4533734809,
				"z": -1.2539619221,
				"element": "O" 
			},
			{
				"x": -0.2603586268,
				"y": -0.9930937928,
				"z": 0.3675042882,
				"element": "N" 
			},
			{
				"x": -1.4325778274,
				"y": -0.1916361775,
				"z": 0.7517328756,
				"element": "C" 
			},
			{
				"x": -1.0520729262,
				"y": 1.0135819477,
				"z": 1.6579936015,
				"element": "C" 
			},
			{
				"x": -1.209741031,
				"y": 0.718677401,
				"z": 3.1668760693,
				"element": "C" 
			},
			{
				"x": -0.9133352924,
				"y": -0.7524030301,
				"z": 3.4873087847,
				"element": "C" 
			},
			{
				"x": -1.9227680325,
				"y": -1.6890293102,
				"z": 2.779782413,
				"element": "C" 
			},
			{
				"x": -2.4575500933,
				"y": -1.092724892,
				"z": 1.4525187181,
				"element": "C" 
			},
			{
				"x": 2.7446704122,
				"y": 1.156725665,
				"z": -2.5805820946,
				"element": "H" 
			},
			{
				"x": 4.0929337302,
				"y": 0.2601284906,
				"z": -3.3197113817,
				"element": "H" 
			},
			{
				"x": 2.884773647,
				"y": 1.0545488211,
				"z": -4.3450146912,
				"element": "H" 
			},
			{
				"x": 1.1121048348,
				"y": -0.4848901137,
				"z": -3.4708340222,
				"element": "H" 
			},
			{
				"x": 2.4138429293,
				"y": -1.3957000639,
				"z": -4.2630873934,
				"element": "H" 
			},
			{
				"x": -0.1625423143,
				"y": -1.9228079627,
				"z": 0.7486471534,
				"element": "H" 
			},
			{
				"x": -1.8508559817,
				"y": 0.1970634995,
				"z": -0.1814870421,
				"element": "H" 
			},
			{
				"x": -1.6793740811,
				"y": 1.868465635,
				"z": 1.3818303838,
				"element": "H" 
			},
			{
				"x": -0.0235036994,
				"y": 1.304101384,
				"z": 1.4260612916,
				"element": "H" 
			},
			{
				"x": -2.2334519871,
				"y": 0.9521890977,
				"z": 3.4886519326,
				"element": "H" 
			},
			{
				"x": -0.5529991449,
				"y": 1.3781481886,
				"z": 3.7444044104,
				"element": "H" 
			},
			{
				"x": 0.1080830452,
				"y": -0.9847120183,
				"z": 3.1600712789,
				"element": "H" 
			},
			{
				"x": -0.9352530451,
				"y": -0.9269153829,
				"z": 4.5683799866,
				"element": "H" 
			},
			{
				"x": -1.4595126116,
				"y": -2.6681461761,
				"z": 2.6031448631,
				"element": "H" 
			},
			{
				"x": -2.7755105946,
				"y": -1.88610127,
				"z": 3.4390963418,
				"element": "H" 
			},
			{
				"x": -3.3375467681,
				"y": -0.4731160186,
				"z": 1.6573067991,
				"element": "H" 
			},
			{
				"x": -2.793247999,
				"y": -1.8882214074,
				"z": 0.777576906,
				"element": "H" 
			}
		],
		 "valence_orbital": [ 
			{
				"type": "occ",
				"energy": -0.30822,
				"method": "rhf"
			},
			{
				"type": "occ",
				"energy": -0.27394,
				"method": "rhf"
			},
			{
				"type": "occ",
				"energy": -0.26786,
				"method": "rhf"
			},
			{
				"type": "occ",
				"energy": -0.26064,
				"method": "rhf"
			},
			{
				"type": "occ",
				"energy": -0.26036,
				"method": "rhf"
			},
			{
				"type": "unocc",
				"energy": -0.07601,
				"method": "rhf"
			},
			{
				"type": "unocc",
				"energy": -0.02337,
				"method": "rhf"
			},
			{
				"type": "unocc",
				"energy": 0.00421,
				"method": "rhf"
			},
			{
				"type": "unocc",
				"energy": 0.05546,
				"method": "rhf"
			},
			{
				"type": "unocc",
				"energy": 0.06121,
				"method": "rhf"
			}
		],
		"cosmo_sigma_profile": { 
			"-0.025": 0.0,
			"-0.024": 0.0,
			"-0.023": 0.0,
			"-0.022": 0.0,
			"-0.021": 0.0,
			"-0.02": 0.0,
			"-0.019": 0.0,
			"-0.018": 0.0,
			"-0.017": 0.0,
			"-0.016": 0.0,
			"-0.015": 0.0,
			"-0.014": 0.0,
			"-0.013": 0.178908848154,
			"-0.012": 1.56329568929,
			"-0.011": 1.07632480571,
			"-0.01": 1.81393136248,
			"-0.009": 1.57706860219,
			"-0.008": 1.42878087162,
			"-0.007": 2.04497146151,
			"-0.006": 1.491163692,
			"-0.005": 3.44457677164,
			"-0.004": 12.2252224459,
			"-0.003": 35.6622272635,
			"-0.002": 43.5126229994,
			"-0.001": 51.3304124129,
			"0.0": 43.2833644871,
			"0.001": 27.9381992095,
			"0.002": 7.33975570629,
			"0.003": 4.21996514722,
			"0.004": 4.35953055559,
			"0.005": 4.22981292659,
			"0.006": 4.8322600681,
			"0.007": 3.94260086741,
			"0.008": 4.11021848398,
			"0.009": 5.80118562905,
			"0.01": 4.65483055825,
			"0.011": 3.92138743372,
			"0.012": 3.73050623552,
			"0.013": 2.94087321182,
			"0.014": 0.159217748628,
			"0.015": 0.0,
			"0.016": 0.0,
			"0.017": 0.0,
			"0.018": 0.0,
			"0.019": 0.0,
			"0.02": 0.0,
			"0.021": 0.0,
			"0.022": 0.0,
			"0.023": 0.0,
			"0.024": 0.0,
			"0.025": 0.0
		}
	}
}
