{
	 "smiles": "[O-][N+](=O)C1=CC(=CC=C1)N1CCC(Br)C1=O", 
	 "Tm": 378.15, 
	 "num_atms": 25, 
	 "gaussian": { 
		 "optdone": 1, 
		 "sigma_profile": "yes", 
		 "theory": "DFT", 
		 "functional": "B3LYP", 
		 "basiset": "6-31G**", 
		 "properties": { 
			 "R2extent": 6395.6926, 
			 "electric_dipole_moment_norm": 3.67283282222, 
			 "electric_quadrupole_moment_norm": 33.4066713771, 
			 "total_energy": -3292.98502952, 
			 "HOMO_LUMO_gap": 0.15547, 
			 "cosmo_polarized_energy": -14.48, 
			 "cosmo_cavitation_energy": 31.58, 
			 "cosmo_dispersion_energy": -23.35, 
			 "cosmo_repulsion_energy": 1.8, 
			 "cosmo_total_nonelectrostatic_energy": 10.03, 
			 "SMD_solvation_energy": 6.35 
		},
		"coords": [
			{
				"x": -5.1418615222,
				"y": 1.7874664196,
				"z": -2.3060687008,
				"element": "O" 
			},
			{
				"x": -4.4961792547,
				"y": 0.8402531846,
				"z": -1.8612685788,
				"element": "N" 
			},
			{
				"x": -4.976418165,
				"y": -0.2497768537,
				"z": -1.5486235098,
				"element": "O" 
			},
			{
				"x": -3.0437852418,
				"y": 1.0238340208,
				"z": -1.6923610035,
				"element": "C" 
			},
			{
				"x": -2.3051469805,
				"y": -0.0389366809,
				"z": -1.1811653191,
				"element": "C" 
			},
			{
				"x": -0.9212403936,
				"y": 0.1097577855,
				"z": -1.0134430045,
				"element": "C" 
			},
			{
				"x": -0.3190124751,
				"y": 1.3361366862,
				"z": -1.3635274755,
				"element": "C" 
			},
			{
				"x": -1.0953480342,
				"y": 2.3775461886,
				"z": -1.8679569116,
				"element": "C" 
			},
			{
				"x": -2.4712618444,
				"y": 2.240990591,
				"z": -2.044368056,
				"element": "C" 
			},
			{
				"x": -0.1710456979,
				"y": -0.973793026,
				"z": -0.5069865291,
				"element": "N" 
			},
			{
				"x": -0.7798497987,
				"y": -2.294045187,
				"z": -0.2832843701,
				"element": "C" 
			},
			{
				"x": 0.4299539906,
				"y": -3.2091100586,
				"z": -0.0427335098,
				"element": "C" 
			},
			{
				"x": 1.4592862266,
				"y": -2.2744653234,
				"z": 0.5704950264,
				"element": "C" 
			},
			{
				"x": 1.218228097,
				"y": -2.123850694,
				"z": 2.5438840131,
				"element": "Br" 
			},
			{
				"x": 1.1367516225,
				"y": -0.9099034497,
				"z": -0.0395847384,
				"element": "C" 
			},
			{
				"x": 1.8996228313,
				"y": 0.0357661981,
				"z": -0.1011262702,
				"element": "O" 
			},
			{
				"x": -2.8322034421,
				"y": -0.9451044941,
				"z": -0.9196148962,
				"element": "H" 
			},
			{
				"x": 0.7455660923,
				"y": 1.4585981268,
				"z": -1.2273045492,
				"element": "H" 
			},
			{
				"x": -0.6119683413,
				"y": 3.3131141713,
				"z": -2.1308482771,
				"element": "H" 
			},
			{
				"x": -3.08998657,
				"y": 3.0366794689,
				"z": -2.4379416146,
				"element": "H" 
			},
			{
				"x": -1.3601584199,
				"y": -2.6002427058,
				"z": -1.1572831214,
				"element": "H" 
			},
			{
				"x": -1.4468854576,
				"y": -2.2675724858,
				"z": 0.5870483496,
				"element": "H" 
			},
			{
				"x": 0.1926560885,
				"y": -4.0741123292,
				"z": 0.5770818788,
				"element": "H" 
			},
			{
				"x": 0.819219605,
				"y": -3.5681771608,
				"z": -1.0031463616,
				"element": "H" 
			},
			{
				"x": 2.5035670853,
				"y": -2.5427523924,
				"z": 0.4342275294,
				"element": "H" 
			}
		],
		 "valence_orbital": [ 
			{
				"type": "occ",
				"energy": -0.29413,
				"method": "rhf"
			},
			{
				"type": "occ",
				"energy": -0.29209,
				"method": "rhf"
			},
			{
				"type": "occ",
				"energy": -0.28365,
				"method": "rhf"
			},
			{
				"type": "occ",
				"energy": -0.27246,
				"method": "rhf"
			},
			{
				"type": "occ",
				"energy": -0.24722,
				"method": "rhf"
			},
			{
				"type": "unocc",
				"energy": -0.09175,
				"method": "rhf"
			},
			{
				"type": "unocc",
				"energy": -0.05949,
				"method": "rhf"
			},
			{
				"type": "unocc",
				"energy": -0.01943,
				"method": "rhf"
			},
			{
				"type": "unocc",
				"energy": -0.00074,
				"method": "rhf"
			},
			{
				"type": "unocc",
				"energy": 0.03811,
				"method": "rhf"
			}
		],
		"cosmo_sigma_profile": { 
			"-0.025": 0.0,
			"-0.024": 0.0,
			"-0.023": 0.0,
			"-0.022": 0.0,
			"-0.021": 0.0,
			"-0.02": 0.0,
			"-0.019": 0.0,
			"-0.018": 0.0,
			"-0.017": 0.0,
			"-0.016": 0.0,
			"-0.015": 0.0,
			"-0.014": 0.0,
			"-0.013": 0.0,
			"-0.012": 0.0,
			"-0.011": 0.0,
			"-0.01": 0.146066687713,
			"-0.009": 2.46822884389,
			"-0.008": 6.99677998038,
			"-0.007": 14.6629438274,
			"-0.006": 19.6851175866,
			"-0.005": 18.0244428756,
			"-0.004": 15.6070013986,
			"-0.003": 16.2114548709,
			"-0.002": 14.2928437,
			"-0.001": 17.9301237125,
			"0.0": 16.9134943962,
			"0.001": 19.1153805082,
			"0.002": 16.5078951955,
			"0.003": 9.49224460499,
			"0.004": 11.3681989577,
			"0.005": 14.1687424836,
			"0.006": 7.40397034327,
			"0.007": 9.54758726782,
			"0.008": 8.9134725628,
			"0.009": 5.5347156328,
			"0.01": 4.70888726188,
			"0.011": 2.83010433965,
			"0.012": 2.40358704748,
			"0.013": 0.768783059478,
			"0.014": 0.0,
			"0.015": 0.0,
			"0.016": 0.0,
			"0.017": 0.0,
			"0.018": 0.0,
			"0.019": 0.0,
			"0.02": 0.0,
			"0.021": 0.0,
			"0.022": 0.0,
			"0.023": 0.0,
			"0.024": 0.0,
			"0.025": 0.0
		}
	}
}
