{
	 "smiles": "ClS(=O)(=O)C1=CC=CC=C1", 
	 "Tm": 287.95, 
	 "num_atms": 15, 
	 "gaussian": { 
		 "optdone": 1, 
		 "sigma_profile": "yes", 
		 "theory": "DFT", 
		 "functional": "B3LYP", 
		 "basiset": "6-31G**", 
		 "properties": { 
			 "R2extent": 2342.8654, 
			 "electric_dipole_moment_norm": 5.47016588597, 
			 "electric_quadrupole_moment_norm": 8.78811823487, 
			 "total_energy": -1240.4093809, 
			 "HOMO_LUMO_gap": 0.19869, 
			 "cosmo_polarized_energy": -8.74, 
			 "cosmo_cavitation_energy": 22.77, 
			 "cosmo_dispersion_energy": -17.37, 
			 "cosmo_repulsion_energy": 1.36, 
			 "cosmo_total_nonelectrostatic_energy": 6.76, 
			 "SMD_solvation_energy": 2.67 
		},
		"coords": [
			{
				"x": 1.0900682822,
				"y": 2.7430503795,
				"z": -1.0434520876,
				"element": "Cl" 
			},
			{
				"x": -0.8375337119,
				"y": 1.8774596995,
				"z": -0.7248529985,
				"element": "S" 
			},
			{
				"x": -1.1535579414,
				"y": 2.1024028196,
				"z": 0.6801655209,
				"element": "O" 
			},
			{
				"x": -1.6845305582,
				"y": 2.370713124,
				"z": -1.8036625801,
				"element": "O" 
			},
			{
				"x": -0.4906375098,
				"y": 0.143573471,
				"z": -0.9863165339,
				"element": "C" 
			},
			{
				"x": -0.622347496,
				"y": -0.3791042771,
				"z": -2.2734885509,
				"element": "C" 
			},
			{
				"x": -0.3659584768,
				"y": -1.7363750839,
				"z": -2.4639243514,
				"element": "C" 
			},
			{
				"x": 0.0135934369,
				"y": -2.5373644731,
				"z": -1.3836205522,
				"element": "C" 
			},
			{
				"x": 0.1364564456,
				"y": -1.9917675235,
				"z": -0.1030301739,
				"element": "C" 
			},
			{
				"x": -0.1154968807,
				"y": -0.6367234458,
				"z": 0.1080924601,
				"element": "C" 
			},
			{
				"x": -0.9264771939,
				"y": 0.2603013769,
				"z": -3.0944593866,
				"element": "H" 
			},
			{
				"x": -0.4658852701,
				"y": -2.1676810949,
				"z": -3.4549052141,
				"element": "H" 
			},
			{
				"x": 0.2122226052,
				"y": -3.5933560335,
				"z": -1.5401319524,
				"element": "H" 
			},
			{
				"x": 0.4253607273,
				"y": -2.6207123036,
				"z": 0.7330406459,
				"element": "H" 
			},
			{
				"x": -0.0350764583,
				"y": -0.1927166352,
				"z": 1.0938457547,
				"element": "H" 
			}
		],
		 "valence_orbital": [ 
			{
				"type": "occ",
				"energy": -0.33663,
				"method": "rhf"
			},
			{
				"type": "occ",
				"energy": -0.33108,
				"method": "rhf"
			},
			{
				"type": "occ",
				"energy": -0.31248,
				"method": "rhf"
			},
			{
				"type": "occ",
				"energy": -0.29068,
				"method": "rhf"
			},
			{
				"type": "occ",
				"energy": -0.28852,
				"method": "rhf"
			},
			{
				"type": "unocc",
				"energy": -0.08983,
				"method": "rhf"
			},
			{
				"type": "unocc",
				"energy": -0.04398,
				"method": "rhf"
			},
			{
				"type": "unocc",
				"energy": -0.03817,
				"method": "rhf"
			},
			{
				"type": "unocc",
				"energy": 0.04998,
				"method": "rhf"
			},
			{
				"type": "unocc",
				"energy": 0.07186,
				"method": "rhf"
			}
		],
		"cosmo_sigma_profile": { 
			"-0.025": 0.0,
			"-0.024": 0.0,
			"-0.023": 0.0,
			"-0.022": 0.0,
			"-0.021": 0.0,
			"-0.02": 0.0,
			"-0.019": 0.0,
			"-0.018": 0.0,
			"-0.017": 0.0,
			"-0.016": 0.0,
			"-0.015": 0.0,
			"-0.014": 0.0,
			"-0.013": 0.0,
			"-0.012": 0.0,
			"-0.011": 0.0,
			"-0.01": 0.0,
			"-0.009": 0.445351406737,
			"-0.008": 4.63615692898,
			"-0.007": 12.0692806858,
			"-0.006": 12.070075993,
			"-0.005": 10.8944202354,
			"-0.004": 8.15738322706,
			"-0.003": 9.18139289625,
			"-0.002": 10.3675846035,
			"-0.001": 12.1542007913,
			"0.0": 14.9161301436,
			"0.001": 19.8329572853,
			"0.002": 18.8679764104,
			"0.003": 14.5477491058,
			"0.004": 10.686106596,
			"0.005": 3.08830047201,
			"0.006": 3.30328402329,
			"0.007": 6.17595704987,
			"0.008": 9.36653547124,
			"0.009": 5.16365683341,
			"0.01": 0.0470697990534,
			"0.011": 0.0,
			"0.012": 0.0,
			"0.013": 0.0,
			"0.014": 0.0,
			"0.015": 0.0,
			"0.016": 0.0,
			"0.017": 0.0,
			"0.018": 0.0,
			"0.019": 0.0,
			"0.02": 0.0,
			"0.021": 0.0,
			"0.022": 0.0,
			"0.023": 0.0,
			"0.024": 0.0,
			"0.025": 0.0
		}
	}
}
