{
	 "smiles": "CC(C)(C)C1=CC=C2C(=O)C3=C(C=CC=C3)C(=O)C2=C1", 
	 "Tm": 372.15, 
	 "num_atms": 36, 
	 "gaussian": { 
		 "optdone": 1, 
		 "sigma_profile": "yes", 
		 "theory": "DFT", 
		 "functional": "B3LYP", 
		 "basiset": "6-31G**", 
		 "properties": { 
			 "R2extent": 6684.5952, 
			 "electric_dipole_moment_norm": 0.868939474302, 
			 "electric_quadrupole_moment_norm": 21.0912987063, 
			 "total_energy": -846.042130198, 
			 "HOMO_LUMO_gap": 0.15479, 
			 "cosmo_polarized_energy": -9.85, 
			 "cosmo_cavitation_energy": 38.31, 
			 "cosmo_dispersion_energy": -27.35, 
			 "cosmo_repulsion_energy": 2.02, 
			 "cosmo_total_nonelectrostatic_energy": 12.98, 
			 "SMD_solvation_energy": 7.15 
		},
		"coords": [
			{
				"x": -1.9095210133,
				"y": -2.1580108398,
				"z": -3.5244738218,
				"element": "C" 
			},
			{
				"x": -0.500264624,
				"y": -2.4719684878,
				"z": -2.966815879,
				"element": "C" 
			},
			{
				"x": 0.566991565,
				"y": -2.0726106469,
				"z": -4.014223187,
				"element": "C" 
			},
			{
				"x": -0.4010383989,
				"y": -3.990714313,
				"z": -2.7297386541,
				"element": "C" 
			},
			{
				"x": -0.2734768209,
				"y": -1.6619297083,
				"z": -1.6786732243,
				"element": "C" 
			},
			{
				"x": -0.0058976657,
				"y": -2.2619628194,
				"z": -0.4357941335,
				"element": "C" 
			},
			{
				"x": 0.1945405049,
				"y": -1.4995589903,
				"z": 0.713239146,
				"element": "C" 
			},
			{
				"x": 0.1343036372,
				"y": -0.1054183517,
				"z": 0.6600485128,
				"element": "C" 
			},
			{
				"x": 0.3512029679,
				"y": 0.6879064474,
				"z": 1.9004231806,
				"element": "C" 
			},
			{
				"x": 0.5840333517,
				"y": 0.1449141935,
				"z": 2.9760637895,
				"element": "O" 
			},
			{
				"x": 0.2753487554,
				"y": 2.1745297624,
				"z": 1.7850643079,
				"element": "C" 
			},
			{
				"x": 0.0088787295,
				"y": 2.7997449092,
				"z": 0.5507695103,
				"element": "C" 
			},
			{
				"x": -0.0551481693,
				"y": 4.196485951,
				"z": 0.4797299657,
				"element": "C" 
			},
			{
				"x": 0.1435335037,
				"y": 4.9650829082,
				"z": 1.6236546445,
				"element": "C" 
			},
			{
				"x": 0.4083253145,
				"y": 4.3436742158,
				"z": 2.8500899744,
				"element": "C" 
			},
			{
				"x": 0.4738463837,
				"y": 2.955030397,
				"z": 2.9299266547,
				"element": "C" 
			},
			{
				"x": -0.2082813376,
				"y": 2.0019490157,
				"z": -0.6918178149,
				"element": "C" 
			},
			{
				"x": -0.4399558101,
				"y": 2.5488002089,
				"z": -1.7655268116,
				"element": "O" 
			},
			{
				"x": -0.1324599517,
				"y": 0.5164973264,
				"z": -0.5757815566,
				"element": "C" 
			},
			{
				"x": -0.3309536556,
				"y": -0.2608618332,
				"z": -1.7179747066,
				"element": "C" 
			},
			{
				"x": -2.6874154542,
				"y": -2.4353831812,
				"z": -2.805542782,
				"element": "H" 
			},
			{
				"x": -2.0840946132,
				"y": -2.7214416809,
				"z": -4.447691548,
				"element": "H" 
			},
			{
				"x": -2.0295513553,
				"y": -1.0955856405,
				"z": -3.7548787444,
				"element": "H" 
			},
			{
				"x": 1.5763374658,
				"y": -2.2884745361,
				"z": -3.6487816957,
				"element": "H" 
			},
			{
				"x": 0.4143539521,
				"y": -2.6351918262,
				"z": -4.9418416815,
				"element": "H" 
			},
			{
				"x": 0.5197599592,
				"y": -1.0076478017,
				"z": -4.2589076187,
				"element": "H" 
			},
			{
				"x": -0.5690173773,
				"y": -4.5204097857,
				"z": -3.672703554,
				"element": "H" 
			},
			{
				"x": 0.5872995364,
				"y": -4.283678027,
				"z": -2.3602590467,
				"element": "H" 
			},
			{
				"x": -1.1532346074,
				"y": -4.3437316912,
				"z": -2.0164829389,
				"element": "H" 
			},
			{
				"x": 0.048562887,
				"y": -3.3412663784,
				"z": -0.3543735327,
				"element": "H" 
			},
			{
				"x": 0.4004712989,
				"y": -1.9702070962,
				"z": 1.6689417869,
				"element": "H" 
			},
			{
				"x": -0.2617455143,
				"y": 4.6522573238,
				"z": -0.4827536914,
				"element": "H" 
			},
			{
				"x": 0.0929288067,
				"y": 6.0483623995,
				"z": 1.5638186976,
				"element": "H" 
			},
			{
				"x": 0.562962422,
				"y": 4.9452759057,
				"z": 3.7410567735,
				"element": "H" 
			},
			{
				"x": 0.6773065651,
				"y": 2.4479260026,
				"z": 3.8670810321,
				"element": "H" 
			},
			{
				"x": -0.532931238,
				"y": 0.2686166682,
				"z": -2.6429713532,
				"element": "H" 
			}
		],
		 "valence_orbital": [ 
			{
				"type": "occ",
				"energy": -0.26627,
				"method": "rhf"
			},
			{
				"type": "occ",
				"energy": -0.26526,
				"method": "rhf"
			},
			{
				"type": "occ",
				"energy": -0.26254,
				"method": "rhf"
			},
			{
				"type": "occ",
				"energy": -0.25574,
				"method": "rhf"
			},
			{
				"type": "occ",
				"energy": -0.25361,
				"method": "rhf"
			},
			{
				"type": "unocc",
				"energy": -0.09882,
				"method": "rhf"
			},
			{
				"type": "unocc",
				"energy": -0.05522,
				"method": "rhf"
			},
			{
				"type": "unocc",
				"energy": -0.0188,
				"method": "rhf"
			},
			{
				"type": "unocc",
				"energy": -0.00961,
				"method": "rhf"
			},
			{
				"type": "unocc",
				"energy": 0.05538,
				"method": "rhf"
			}
		],
		"cosmo_sigma_profile": { 
			"-0.025": 0.0,
			"-0.024": 0.0,
			"-0.023": 0.0,
			"-0.022": 0.0,
			"-0.021": 0.0,
			"-0.02": 0.0,
			"-0.019": 0.0,
			"-0.018": 0.0,
			"-0.017": 0.0,
			"-0.016": 0.0,
			"-0.015": 0.0,
			"-0.014": 0.0,
			"-0.013": 0.0,
			"-0.012": 0.0,
			"-0.011": 0.0,
			"-0.01": 0.0,
			"-0.009": 0.0,
			"-0.008": 0.240347268765,
			"-0.007": 4.58476014472,
			"-0.006": 12.2486706706,
			"-0.005": 16.8723364025,
			"-0.004": 17.8538021742,
			"-0.003": 33.466833516,
			"-0.002": 28.7065590138,
			"-0.001": 30.5941255969,
			"0.0": 35.1301430346,
			"0.001": 43.0002823574,
			"0.002": 31.8970600097,
			"0.003": 13.3384790738,
			"0.004": 3.9861988503,
			"0.005": 3.82292125642,
			"0.006": 4.19986684762,
			"0.007": 1.65904252649,
			"0.008": 3.46144904811,
			"0.009": 4.15101249028,
			"0.01": 4.43671793561,
			"0.011": 7.5057397945,
			"0.012": 3.44854937765,
			"0.013": 0.0,
			"0.014": 0.0,
			"0.015": 0.0,
			"0.016": 0.0,
			"0.017": 0.0,
			"0.018": 0.0,
			"0.019": 0.0,
			"0.02": 0.0,
			"0.021": 0.0,
			"0.022": 0.0,
			"0.023": 0.0,
			"0.024": 0.0,
			"0.025": 0.0
		}
	}
}
