{
	 "smiles": "CC1=NN=C2C=CC(Br)=CN12", 
	 "Tm": 423.15, 
	 "num_atms": 17, 
	 "gaussian": { 
		 "optdone": 1, 
		 "sigma_profile": "yes", 
		 "theory": "DFT", 
		 "functional": "B3LYP", 
		 "basiset": "6-31G**", 
		 "properties": { 
			 "R2extent": 2853.7343, 
			 "electric_dipole_moment_norm": 3.89265294369, 
			 "electric_quadrupole_moment_norm": 20.8859928486, 
			 "total_energy": -3005.9906863, 
			 "HOMO_LUMO_gap": 0.16866, 
			 "cosmo_polarized_energy": -14.78, 
			 "cosmo_cavitation_energy": 23.75, 
			 "cosmo_dispersion_energy": -18.09, 
			 "cosmo_repulsion_energy": 1.43, 
			 "cosmo_total_nonelectrostatic_energy": 7.09, 
			 "SMD_solvation_energy": 1.19 
		},
		"coords": [
			{
				"x": -0.2332329482,
				"y": 1.8491749242,
				"z": 2.4189220564,
				"element": "C" 
			},
			{
				"x": 0.3973649539,
				"y": 1.9286147427,
				"z": 1.0730715464,
				"element": "C" 
			},
			{
				"x": 1.0229967808,
				"y": 2.9728846848,
				"z": 0.5610853974,
				"element": "N" 
			},
			{
				"x": 1.4681671457,
				"y": 2.671033451,
				"z": -0.6943261231,
				"element": "N" 
			},
			{
				"x": 1.1047970514,
				"y": 1.4218658304,
				"z": -0.9450658476,
				"element": "C" 
			},
			{
				"x": 1.2940323737,
				"y": 0.5902151578,
				"z": -2.0786994314,
				"element": "C" 
			},
			{
				"x": 0.8021355468,
				"y": -0.6873474759,
				"z": -2.0654207242,
				"element": "C" 
			},
			{
				"x": 0.1049158145,
				"y": -1.1690640715,
				"z": -0.9128268995,
				"element": "C" 
			},
			{
				"x": -0.5722443394,
				"y": -2.9478097852,
				"z": -0.9103446451,
				"element": "Br" 
			},
			{
				"x": -0.0865605209,
				"y": -0.3847500394,
				"z": 0.1853412235,
				"element": "C" 
			},
			{
				"x": 0.4143150279,
				"y": 0.8989325152,
				"z": 0.156917991,
				"element": "N" 
			},
			{
				"x": -0.0911746111,
				"y": 2.8083368059,
				"z": 2.9187465177,
				"element": "H" 
			},
			{
				"x": 0.2199083117,
				"y": 1.0654418584,
				"z": 3.0378310184,
				"element": "H" 
			},
			{
				"x": -1.309295184,
				"y": 1.6474062242,
				"z": 2.35565562,
				"element": "H" 
			},
			{
				"x": 1.8277333749,
				"y": 0.993978992,
				"z": -2.9309362929,
				"element": "H" 
			},
			{
				"x": 0.9311106629,
				"y": -1.3456099844,
				"z": -2.9160375012,
				"element": "H" 
			},
			{
				"x": -0.6059694408,
				"y": -0.70290383,
				"z": 1.078886094,
				"element": "H" 
			}
		],
		 "valence_orbital": [ 
			{
				"type": "occ",
				"energy": -0.31633,
				"method": "rhf"
			},
			{
				"type": "occ",
				"energy": -0.3073,
				"method": "rhf"
			},
			{
				"type": "occ",
				"energy": -0.26503,
				"method": "rhf"
			},
			{
				"type": "occ",
				"energy": -0.25474,
				"method": "rhf"
			},
			{
				"type": "occ",
				"energy": -0.2285,
				"method": "rhf"
			},
			{
				"type": "unocc",
				"energy": -0.05984,
				"method": "rhf"
			},
			{
				"type": "unocc",
				"energy": -0.01695,
				"method": "rhf"
			},
			{
				"type": "unocc",
				"energy": -0.01441,
				"method": "rhf"
			},
			{
				"type": "unocc",
				"energy": 0.04516,
				"method": "rhf"
			},
			{
				"type": "unocc",
				"energy": 0.08504,
				"method": "rhf"
			}
		],
		"cosmo_sigma_profile": { 
			"-0.025": 0.0,
			"-0.024": 0.0,
			"-0.023": 0.0,
			"-0.022": 0.0,
			"-0.021": 0.0,
			"-0.02": 0.0,
			"-0.019": 0.0,
			"-0.018": 0.0,
			"-0.017": 0.0,
			"-0.016": 0.0,
			"-0.015": 0.0,
			"-0.014": 0.0,
			"-0.013": 0.0,
			"-0.012": 0.0,
			"-0.011": 0.165591712459,
			"-0.01": 1.84537616408,
			"-0.009": 3.20244796412,
			"-0.008": 7.10250820798,
			"-0.007": 8.35529961593,
			"-0.006": 11.8059966584,
			"-0.005": 10.1386700694,
			"-0.004": 14.0588029144,
			"-0.003": 15.7977212917,
			"-0.002": 15.5647647388,
			"-0.001": 15.7928044746,
			"0.0": 17.9471958915,
			"0.001": 13.1153982651,
			"0.002": 9.61004016449,
			"0.003": 11.6000468308,
			"0.004": 9.47653470891,
			"0.005": 1.67433670059,
			"0.006": 2.87629500445,
			"0.007": 1.54488734685,
			"0.008": 1.76669832583,
			"0.009": 0.962561232424,
			"0.01": 2.13565655347,
			"0.011": 2.4206794273,
			"0.012": 2.46076283955,
			"0.013": 3.67975419253,
			"0.014": 3.3078907008,
			"0.015": 1.99670595948,
			"0.016": 2.75620199751,
			"0.017": 1.25552326587,
			"0.018": 0.0849001067176,
			"0.019": 0.0,
			"0.02": 0.0,
			"0.021": 0.0,
			"0.022": 0.0,
			"0.023": 0.0,
			"0.024": 0.0,
			"0.025": 0.0
		}
	}
}
