{
	 "smiles": "OC(=O)C1=CN=C(S1)C1=C(Cl)C=CC=C1", 
	 "Tm": 474.15, 
	 "num_atms": 21, 
	 "gaussian": { 
		 "optdone": 1, 
		 "sigma_profile": "yes", 
		 "theory": "DFT", 
		 "functional": "B3LYP", 
		 "basiset": "6-31G**", 
		 "properties": { 
			 "R2extent": 6688.957, 
			 "electric_dipole_moment_norm": 5.7262274885, 
			 "electric_quadrupole_moment_norm": 14.1434910722, 
			 "total_energy": -1448.25547021, 
			 "HOMO_LUMO_gap": 0.15763, 
			 "cosmo_polarized_energy": -13.76, 
			 "cosmo_cavitation_energy": 29.34, 
			 "cosmo_dispersion_energy": -22.49, 
			 "cosmo_repulsion_energy": 1.69, 
			 "cosmo_total_nonelectrostatic_energy": 8.53, 
			 "SMD_solvation_energy": 4.74 
		},
		"coords": [
			{
				"x": 4.7126898413,
				"y": 3.2951855692,
				"z": -0.4023728344,
				"element": "O" 
			},
			{
				"x": 3.8719471226,
				"y": 2.6095867269,
				"z": -1.2195512631,
				"element": "C" 
			},
			{
				"x": 3.87935876,
				"y": 2.817062142,
				"z": -2.4105356087,
				"element": "O" 
			},
			{
				"x": 2.963345799,
				"y": 1.6162463876,
				"z": -0.6013477546,
				"element": "C" 
			},
			{
				"x": 2.0620141785,
				"y": 0.8513327468,
				"z": -1.3027329288,
				"element": "C" 
			},
			{
				"x": 1.3082905263,
				"y": -0.0089572673,
				"z": -0.574054333,
				"element": "N" 
			},
			{
				"x": 1.5835943199,
				"y": 0.0447935027,
				"z": 0.712436055,
				"element": "C" 
			},
			{
				"x": 2.8481530468,
				"y": 1.2194682064,
				"z": 1.0914538329,
				"element": "S" 
			},
			{
				"x": 0.8733991771,
				"y": -0.8123418224,
				"z": 1.6784713703,
				"element": "C" 
			},
			{
				"x": 1.0609892454,
				"y": -0.8636007553,
				"z": 3.0739697986,
				"element": "C" 
			},
			{
				"x": 2.2378120096,
				"y": 0.1482625582,
				"z": 3.9017157151,
				"element": "Cl" 
			},
			{
				"x": 0.3177576716,
				"y": -1.7263621556,
				"z": 3.8814557483,
				"element": "C" 
			},
			{
				"x": -0.6369170348,
				"y": -2.5648450082,
				"z": 3.3152137487,
				"element": "C" 
			},
			{
				"x": -0.8467863286,
				"y": -2.5378183015,
				"z": 1.9342961634,
				"element": "C" 
			},
			{
				"x": -0.1051306482,
				"y": -1.6784546133,
				"z": 1.1377978405,
				"element": "C" 
			},
			{
				"x": 4.6080806981,
				"y": 3.0368134901,
				"z": 0.5245809093,
				"element": "H" 
			},
			{
				"x": 1.9401316231,
				"y": 0.9122127719,
				"z": -2.3773388908,
				"element": "H" 
			},
			{
				"x": 0.4974728987,
				"y": -1.7304190469,
				"z": 4.9505165791,
				"element": "H" 
			},
			{
				"x": -1.2103331944,
				"y": -3.2325611669,
				"z": 3.9506385856,
				"element": "H" 
			},
			{
				"x": -1.5882439052,
				"y": -3.1863246639,
				"z": 1.4785713417,
				"element": "H" 
			},
			{
				"x": -0.2562258068,
				"y": -1.6458793006,
				"z": 0.065715925,
				"element": "H" 
			}
		],
		 "valence_orbital": [ 
			{
				"type": "occ",
				"energy": -0.29894,
				"method": "rhf"
			},
			{
				"type": "occ",
				"energy": -0.29537,
				"method": "rhf"
			},
			{
				"type": "occ",
				"energy": -0.28118,
				"method": "rhf"
			},
			{
				"type": "occ",
				"energy": -0.26827,
				"method": "rhf"
			},
			{
				"type": "occ",
				"energy": -0.24585,
				"method": "rhf"
			},
			{
				"type": "unocc",
				"energy": -0.08822,
				"method": "rhf"
			},
			{
				"type": "unocc",
				"energy": -0.03155,
				"method": "rhf"
			},
			{
				"type": "unocc",
				"energy": -0.02524,
				"method": "rhf"
			},
			{
				"type": "unocc",
				"energy": -0.01224,
				"method": "rhf"
			},
			{
				"type": "unocc",
				"energy": 0.00902,
				"method": "rhf"
			}
		],
		"cosmo_sigma_profile": { 
			"-0.025": 0.0,
			"-0.024": 0.0,
			"-0.023": 0.0,
			"-0.022": 0.0,
			"-0.021": 0.0,
			"-0.02": 0.0,
			"-0.019": 0.47614170256,
			"-0.018": 0.572971417269,
			"-0.017": 0.575961400303,
			"-0.016": 1.11576884004,
			"-0.015": 0.811361766815,
			"-0.014": 1.01467716471,
			"-0.013": 1.17651403286,
			"-0.012": 1.11640556289,
			"-0.011": 0.722516294501,
			"-0.01": 1.52284986883,
			"-0.009": 2.02108545219,
			"-0.008": 2.78071057522,
			"-0.007": 8.28964472171,
			"-0.006": 10.5765895516,
			"-0.005": 11.3703844308,
			"-0.004": 10.6080397794,
			"-0.003": 12.0204274005,
			"-0.002": 16.0981037961,
			"-0.001": 20.2500763203,
			"0.0": 26.0241358816,
			"0.001": 24.0743260243,
			"0.002": 26.0974965129,
			"0.003": 19.0755227743,
			"0.004": 6.76777491002,
			"0.005": 4.12122065763,
			"0.006": 3.47676766743,
			"0.007": 3.32639619256,
			"0.008": 4.43147746597,
			"0.009": 5.45045860841,
			"0.01": 5.31498926836,
			"0.011": 5.48630029377,
			"0.012": 3.45812322467,
			"0.013": 0.640607346542,
			"0.014": 0.0,
			"0.015": 0.0,
			"0.016": 0.0,
			"0.017": 0.0,
			"0.018": 0.0,
			"0.019": 0.0,
			"0.02": 0.0,
			"0.021": 0.0,
			"0.022": 0.0,
			"0.023": 0.0,
			"0.024": 0.0,
			"0.025": 0.0
		}
	}
}
