{
	 "smiles": "CC(N)C1=C(C)N=C(S1)C1=CC=C(C)C=C1", 
	 "Tm": 331.15, 
	 "num_atms": 32, 
	 "gaussian": { 
		 "optdone": 1, 
		 "sigma_profile": "yes", 
		 "theory": "DFT", 
		 "functional": "B3LYP", 
		 "basiset": "6-31G**", 
		 "properties": { 
			 "R2extent": 6370.9488, 
			 "electric_dipole_moment_norm": 1.97781304223, 
			 "electric_quadrupole_moment_norm": 15.8541953287, 
			 "total_energy": -1012.73256383, 
			 "HOMO_LUMO_gap": 0.16048, 
			 "cosmo_polarized_energy": -10.04, 
			 "cosmo_cavitation_energy": 36.06, 
			 "cosmo_dispersion_energy": -26.45, 
			 "cosmo_repulsion_energy": 2.03, 
			 "cosmo_total_nonelectrostatic_energy": 11.64, 
			 "SMD_solvation_energy": 3.91 
		},
		"coords": [
			{
				"x": -1.2898054755,
				"y": 1.6470779019,
				"z": -3.8269892012,
				"element": "C" 
			},
			{
				"x": -1.1653154527,
				"y": 0.1138656723,
				"z": -3.8207017206,
				"element": "C" 
			},
			{
				"x": -2.4615704085,
				"y": -0.5922252469,
				"z": -3.7982012548,
				"element": "N" 
			},
			{
				"x": -0.2972172098,
				"y": -0.4165986351,
				"z": -2.6985206267,
				"element": "C" 
			},
			{
				"x": 0.2119043092,
				"y": -1.6875306012,
				"z": -2.5603424329,
				"element": "C" 
			},
			{
				"x": 0.0215894356,
				"y": -2.8124292758,
				"z": -3.5384218558,
				"element": "C" 
			},
			{
				"x": 0.9612655267,
				"y": -1.9079111654,
				"z": -1.4287782173,
				"element": "N" 
			},
			{
				"x": 1.0485006498,
				"y": -0.8456590621,
				"z": -0.6711758485,
				"element": "C" 
			},
			{
				"x": 0.1872242728,
				"y": 0.5477186691,
				"z": -1.322416736,
				"element": "S" 
			},
			{
				"x": 1.7861063632,
				"y": -0.7991877135,
				"z": 0.5973416062,
				"element": "C" 
			},
			{
				"x": 1.8578956526,
				"y": 0.3581160845,
				"z": 1.3872964556,
				"element": "C" 
			},
			{
				"x": 2.5673431184,
				"y": 0.3581098738,
				"z": 2.5857951623,
				"element": "C" 
			},
			{
				"x": 3.2297534644,
				"y": -0.790200426,
				"z": 3.0378730351,
				"element": "C" 
			},
			{
				"x": 4.0218637972,
				"y": -0.7821319121,
				"z": 4.3230705683,
				"element": "C" 
			},
			{
				"x": 3.1516245542,
				"y": -1.9461860218,
				"z": 2.2456642091,
				"element": "C" 
			},
			{
				"x": 2.4466450058,
				"y": -1.9564864031,
				"z": 1.0481819311,
				"element": "C" 
			},
			{
				"x": -0.3128270816,
				"y": 2.1358052385,
				"z": -3.9037693038,
				"element": "H" 
			},
			{
				"x": -1.7828406229,
				"y": 2.007831577,
				"z": -2.9167899262,
				"element": "H" 
			},
			{
				"x": -1.8939497824,
				"y": 1.9683491984,
				"z": -4.68215428,
				"element": "H" 
			},
			{
				"x": -0.6808271732,
				"y": -0.1789859981,
				"z": -4.7629465309,
				"element": "H" 
			},
			{
				"x": -2.9358955229,
				"y": -0.3999256079,
				"z": -2.9177999161,
				"element": "H" 
			},
			{
				"x": -3.0588007689,
				"y": -0.2282163111,
				"z": -4.5390262809,
				"element": "H" 
			},
			{
				"x": -0.0110755657,
				"y": -3.7636502449,
				"z": -3.0008129324,
				"element": "H" 
			},
			{
				"x": 0.8580557475,
				"y": -2.8672609808,
				"z": -4.2467046754,
				"element": "H" 
			},
			{
				"x": -0.9079464345,
				"y": -2.6864393909,
				"z": -4.0968316758,
				"element": "H" 
			},
			{
				"x": 1.3548944358,
				"y": 1.2678225711,
				"z": 1.0702680848,
				"element": "H" 
			},
			{
				"x": 2.6057246259,
				"y": 1.266735829,
				"z": 3.1814318696,
				"element": "H" 
			},
			{
				"x": 3.7188444064,
				"y": 0.0416282964,
				"z": 4.9757856792,
				"element": "H" 
			},
			{
				"x": 5.0953913128,
				"y": -0.666779573,
				"z": 4.1265728221,
				"element": "H" 
			},
			{
				"x": 3.8955522244,
				"y": -1.7179892179,
				"z": 4.8770317932,
				"element": "H" 
			},
			{
				"x": 3.6516348337,
				"y": -2.8537075773,
				"z": 2.5759693166,
				"element": "H" 
			},
			{
				"x": 2.3895577621,
				"y": -2.8540595468,
				"z": 0.4424008821,
				"element": "H" 
			}
		],
		 "valence_orbital": [ 
			{
				"type": "occ",
				"energy": -0.26015,
				"method": "rhf"
			},
			{
				"type": "occ",
				"energy": -0.25791,
				"method": "rhf"
			},
			{
				"type": "occ",
				"energy": -0.2481,
				"method": "rhf"
			},
			{
				"type": "occ",
				"energy": -0.24186,
				"method": "rhf"
			},
			{
				"type": "occ",
				"energy": -0.20346,
				"method": "rhf"
			},
			{
				"type": "unocc",
				"energy": -0.04298,
				"method": "rhf"
			},
			{
				"type": "unocc",
				"energy": 0.00093,
				"method": "rhf"
			},
			{
				"type": "unocc",
				"energy": 0.02524,
				"method": "rhf"
			},
			{
				"type": "unocc",
				"energy": 0.02982,
				"method": "rhf"
			},
			{
				"type": "unocc",
				"energy": 0.06629,
				"method": "rhf"
			}
		],
		"cosmo_sigma_profile": { 
			"-0.025": 0.0,
			"-0.024": 0.0,
			"-0.023": 0.0,
			"-0.022": 0.0,
			"-0.021": 0.0,
			"-0.02": 0.0,
			"-0.019": 0.0,
			"-0.018": 0.0,
			"-0.017": 0.0,
			"-0.016": 0.0,
			"-0.015": 0.0,
			"-0.014": 0.0,
			"-0.013": 0.0,
			"-0.012": 0.0,
			"-0.011": 0.0,
			"-0.01": 1.10194579999,
			"-0.009": 2.94677384865,
			"-0.008": 2.27325581898,
			"-0.007": 3.318899788,
			"-0.006": 6.50243346921,
			"-0.005": 13.2509202863,
			"-0.004": 27.0537779756,
			"-0.003": 25.998395088,
			"-0.002": 27.8912213392,
			"-0.001": 28.105946403,
			"0.0": 30.7608803586,
			"0.001": 23.2809651206,
			"0.002": 21.1281890112,
			"0.003": 20.3362820116,
			"0.004": 17.3753144524,
			"0.005": 14.3760147639,
			"0.006": 4.29068217633,
			"0.007": 3.27652563124,
			"0.008": 2.78379164281,
			"0.009": 2.52658406897,
			"0.01": 1.88897525475,
			"0.011": 1.95649150454,
			"0.012": 1.85748483157,
			"0.013": 0.823389207695,
			"0.014": 0.587709436421,
			"0.015": 0.661152445541,
			"0.016": 0.0230261130912,
			"0.017": 0.0,
			"0.018": 0.0,
			"0.019": 0.0,
			"0.02": 0.0,
			"0.021": 0.0,
			"0.022": 0.0,
			"0.023": 0.0,
			"0.024": 0.0,
			"0.025": 0.0
		}
	}
}
