{
	 "smiles": "CC1=C(COC2=CC=CC=C2)C=CC=C1N", 
	 "Tm": 368.15, 
	 "num_atms": 31, 
	 "gaussian": { 
		 "optdone": 1, 
		 "sigma_profile": "yes", 
		 "theory": "DFT", 
		 "functional": "B3LYP", 
		 "basiset": "6-31G**", 
		 "properties": { 
			 "R2extent": 5034.2671, 
			 "electric_dipole_moment_norm": 2.83859426301, 
			 "electric_quadrupole_moment_norm": 11.8113817041, 
			 "total_energy": -672.503392468, 
			 "HOMO_LUMO_gap": 0.19986, 
			 "cosmo_polarized_energy": -11.4, 
			 "cosmo_cavitation_energy": 33.47, 
			 "cosmo_dispersion_energy": -24.17, 
			 "cosmo_repulsion_energy": 1.89, 
			 "cosmo_total_nonelectrostatic_energy": 11.19, 
			 "SMD_solvation_energy": 5.6 
		},
		"coords": [
			{
				"x": 2.0438438594,
				"y": 2.1282222004,
				"z": -1.4157419231,
				"element": "C" 
			},
			{
				"x": 1.2643796549,
				"y": 1.1638309126,
				"z": -2.282985356,
				"element": "C" 
			},
			{
				"x": -0.0148138934,
				"y": 0.6899775429,
				"z": -1.9371754643,
				"element": "C" 
			},
			{
				"x": -0.6636555272,
				"y": 1.1350172202,
				"z": -0.6332145647,
				"element": "C" 
			},
			{
				"x": -1.8594454182,
				"y": 0.4346993167,
				"z": -0.3046056977,
				"element": "O" 
			},
			{
				"x": -1.7709192648,
				"y": -0.760938627,
				"z": 0.3606301431,
				"element": "C" 
			},
			{
				"x": -2.9785292046,
				"y": -1.2521828571,
				"z": 0.8769286999,
				"element": "C" 
			},
			{
				"x": -2.9989834317,
				"y": -2.4573595546,
				"z": 1.5715742569,
				"element": "C" 
			},
			{
				"x": -1.8208687152,
				"y": -3.1865344996,
				"z": 1.7637574584,
				"element": "C" 
			},
			{
				"x": -0.6250807719,
				"y": -2.6952596613,
				"z": 1.2432648005,
				"element": "C" 
			},
			{
				"x": -0.5881757805,
				"y": -1.4885234252,
				"z": 0.537942381,
				"element": "C" 
			},
			{
				"x": -0.7174547438,
				"y": -0.1557552726,
				"z": -2.8016430441,
				"element": "C" 
			},
			{
				"x": -0.1426483676,
				"y": -0.5509572631,
				"z": -4.0082547583,
				"element": "C" 
			},
			{
				"x": 1.1305177073,
				"y": -0.1148274217,
				"z": -4.3562001868,
				"element": "C" 
			},
			{
				"x": 1.8423209591,
				"y": 0.7408872661,
				"z": -3.5019954046,
				"element": "C" 
			},
			{
				"x": 3.1001208135,
				"y": 1.2271583558,
				"z": -3.8859496314,
				"element": "N" 
			},
			{
				"x": 2.9055163128,
				"y": 1.6463823436,
				"z": -0.9299055363,
				"element": "H" 
			},
			{
				"x": 2.438524614,
				"y": 2.9535506055,
				"z": -2.0198994948,
				"element": "H" 
			},
			{
				"x": 1.440142961,
				"y": 2.5691958029,
				"z": -0.6213894868,
				"element": "H" 
			},
			{
				"x": -0.9742196981,
				"y": 2.1839606139,
				"z": -0.7085140774,
				"element": "H" 
			},
			{
				"x": 0.0414869942,
				"y": 1.0655212025,
				"z": 0.2045888264,
				"element": "H" 
			},
			{
				"x": -3.8811703105,
				"y": -0.6689596329,
				"z": 0.7256327819,
				"element": "H" 
			},
			{
				"x": -3.9398843749,
				"y": -2.8270145126,
				"z": 1.9697662655,
				"element": "H" 
			},
			{
				"x": -1.83851198,
				"y": -4.1257713848,
				"z": 2.3079156344,
				"element": "H" 
			},
			{
				"x": 0.2963151661,
				"y": -3.2559412556,
				"z": 1.375073856,
				"element": "H" 
			},
			{
				"x": 0.3459689559,
				"y": -1.1417452395,
				"z": 0.1126072639,
				"element": "H" 
			},
			{
				"x": -1.7069377575,
				"y": -0.4976171253,
				"z": -2.5227951836,
				"element": "H" 
			},
			{
				"x": -0.6870378698,
				"y": -1.2106226256,
				"z": -4.6781388719,
				"element": "H" 
			},
			{
				"x": 1.5832092535,
				"y": -0.4298557389,
				"z": -5.2936542605,
				"element": "H" 
			},
			{
				"x": 3.752041538,
				"y": 1.3848086398,
				"z": -3.1295790083,
				"element": "H" 
			},
			{
				"x": 3.53234832,
				"y": 0.7027540745,
				"z": -4.6348404172,
				"element": "H" 
			}
		],
		 "valence_orbital": [ 
			{
				"type": "occ",
				"energy": -0.29951,
				"method": "rhf"
			},
			{
				"type": "occ",
				"energy": -0.24436,
				"method": "rhf"
			},
			{
				"type": "occ",
				"energy": -0.23257,
				"method": "rhf"
			},
			{
				"type": "occ",
				"energy": -0.21405,
				"method": "rhf"
			},
			{
				"type": "occ",
				"energy": -0.19937,
				"method": "rhf"
			},
			{
				"type": "unocc",
				"energy": 0.00049,
				"method": "rhf"
			},
			{
				"type": "unocc",
				"energy": 0.00936,
				"method": "rhf"
			},
			{
				"type": "unocc",
				"energy": 0.0188,
				"method": "rhf"
			},
			{
				"type": "unocc",
				"energy": 0.02203,
				"method": "rhf"
			},
			{
				"type": "unocc",
				"energy": 0.07265,
				"method": "rhf"
			}
		],
		"cosmo_sigma_profile": { 
			"-0.025": 0.0,
			"-0.024": 0.0,
			"-0.023": 0.0,
			"-0.022": 0.0,
			"-0.021": 0.0,
			"-0.02": 0.0,
			"-0.019": 0.0,
			"-0.018": 0.0,
			"-0.017": 0.0,
			"-0.016": 0.0,
			"-0.015": 0.0,
			"-0.014": 0.0,
			"-0.013": 0.0,
			"-0.012": 1.0401277593,
			"-0.011": 2.44389437002,
			"-0.01": 2.7913536516,
			"-0.009": 3.20937525264,
			"-0.008": 3.34732383212,
			"-0.007": 2.19266182283,
			"-0.006": 9.76168001159,
			"-0.005": 22.2311566742,
			"-0.004": 22.7531638078,
			"-0.003": 23.984679055,
			"-0.002": 19.0766443682,
			"-0.001": 17.9102250071,
			"0.0": 18.0033256466,
			"0.001": 14.48112687,
			"0.002": 13.0417826336,
			"0.003": 16.8033710317,
			"0.004": 16.1901561927,
			"0.005": 18.7160796304,
			"0.006": 17.6753304141,
			"0.007": 9.90280729327,
			"0.008": 3.64293329687,
			"0.009": 1.75893478441,
			"0.01": 1.25473890946,
			"0.011": 1.04162418729,
			"0.012": 0.909020866501,
			"0.013": 0.514850442193,
			"0.014": 0.445230473409,
			"0.015": 0.34576982103,
			"0.016": 0.0410870761132,
			"0.017": 0.0,
			"0.018": 0.0,
			"0.019": 0.0,
			"0.02": 0.0,
			"0.021": 0.0,
			"0.022": 0.0,
			"0.023": 0.0,
			"0.024": 0.0,
			"0.025": 0.0
		}
	}
}
