{
	 "smiles": "ClC1=CC=CC(Cl)=C1Cl", 
	 "Tm": 326.95, 
	 "num_atms": 12, 
	 "gaussian": { 
		 "optdone": 1, 
		 "sigma_profile": "yes", 
		 "theory": "DFT", 
		 "functional": "B3LYP", 
		 "basiset": "6-31G**", 
		 "properties": { 
			 "R2extent": 2511.6278, 
			 "electric_dipole_moment_norm": 2.79108945754, 
			 "electric_quadrupole_moment_norm": 3.89810761909, 
			 "total_energy": -1611.01478123, 
			 "HOMO_LUMO_gap": 0.22564, 
			 "cosmo_polarized_energy": -4.31, 
			 "cosmo_cavitation_energy": 21.46, 
			 "cosmo_dispersion_energy": -16.52, 
			 "cosmo_repulsion_energy": 1.35, 
			 "cosmo_total_nonelectrostatic_energy": 6.28, 
			 "SMD_solvation_energy": 2.97 
		},
		"coords": [
			{
				"x": -1.5160627883,
				"y": -2.5539985326,
				"z": 1.5984080725,
				"element": "Cl" 
			},
			{
				"x": -0.3433723506,
				"y": -1.3479765349,
				"z": 1.1301374061,
				"element": "C" 
			},
			{
				"x": -0.2552970581,
				"y": -0.1796881943,
				"z": 1.8874125789,
				"element": "C" 
			},
			{
				"x": 0.6691219344,
				"y": 0.8018836776,
				"z": 1.5409525645,
				"element": "C" 
			},
			{
				"x": 1.5059727451,
				"y": 0.6235531592,
				"z": 0.4427948056,
				"element": "C" 
			},
			{
				"x": 1.4176552904,
				"y": -0.5448567456,
				"z": -0.3142751989,
				"element": "C" 
			},
			{
				"x": 2.4853322013,
				"y": -0.7291958528,
				"z": -1.6835578147,
				"element": "Cl" 
			},
			{
				"x": 0.4916424665,
				"y": -1.5492251651,
				"z": 0.0172856248,
				"element": "C" 
			},
			{
				"x": 0.3817962319,
				"y": -3.0040887967,
				"z": -0.9255267336,
				"element": "Cl" 
			},
			{
				"x": -0.9127278839,
				"y": -0.0536952746,
				"z": 2.7397703515,
				"element": "H" 
			},
			{
				"x": 0.7377455444,
				"y": 1.7106982546,
				"z": 2.1299307299,
				"element": "H" 
			},
			{
				"x": 2.229993667,
				"y": 1.3795900052,
				"z": 0.1620676134,
				"element": "H" 
			}
		],
		 "valence_orbital": [ 
			{
				"type": "occ",
				"energy": -0.33243,
				"method": "rhf"
			},
			{
				"type": "occ",
				"energy": -0.32961,
				"method": "rhf"
			},
			{
				"type": "occ",
				"energy": -0.30844,
				"method": "rhf"
			},
			{
				"type": "occ",
				"energy": -0.26079,
				"method": "rhf"
			},
			{
				"type": "occ",
				"energy": -0.26072,
				"method": "rhf"
			},
			{
				"type": "unocc",
				"energy": -0.03508,
				"method": "rhf"
			},
			{
				"type": "unocc",
				"energy": -0.03496,
				"method": "rhf"
			},
			{
				"type": "unocc",
				"energy": -0.02058,
				"method": "rhf"
			},
			{
				"type": "unocc",
				"energy": 0.04409,
				"method": "rhf"
			},
			{
				"type": "unocc",
				"energy": 0.06016,
				"method": "rhf"
			}
		],
		"cosmo_sigma_profile": { 
			"-0.025": 0.0,
			"-0.024": 0.0,
			"-0.023": 0.0,
			"-0.022": 0.0,
			"-0.021": 0.0,
			"-0.02": 0.0,
			"-0.019": 0.0,
			"-0.018": 0.0,
			"-0.017": 0.0,
			"-0.016": 0.0,
			"-0.015": 0.0,
			"-0.014": 0.0,
			"-0.013": 0.0,
			"-0.012": 0.0,
			"-0.011": 0.0,
			"-0.01": 0.0,
			"-0.009": 0.336573912216,
			"-0.008": 4.92477661309,
			"-0.007": 7.2179254529,
			"-0.006": 5.87522740894,
			"-0.005": 4.55152210196,
			"-0.004": 5.84754443647,
			"-0.003": 8.3759473196,
			"-0.002": 9.52471766664,
			"-0.001": 17.5575507033,
			"0.0": 24.9154442416,
			"0.001": 22.6660427336,
			"0.002": 20.2167008331,
			"0.003": 22.2823519425,
			"0.004": 20.5933234125,
			"0.005": 4.81369753069,
			"0.006": 0.000282085985138,
			"0.007": 0.0,
			"0.008": 0.0,
			"0.009": 0.0,
			"0.01": 0.0,
			"0.011": 0.0,
			"0.012": 0.0,
			"0.013": 0.0,
			"0.014": 0.0,
			"0.015": 0.0,
			"0.016": 0.0,
			"0.017": 0.0,
			"0.018": 0.0,
			"0.019": 0.0,
			"0.02": 0.0,
			"0.021": 0.0,
			"0.022": 0.0,
			"0.023": 0.0,
			"0.024": 0.0,
			"0.025": 0.0
		}
	}
}
