{
	 "smiles": "COC1=CC=C(COCC(O)=O)C=C1", 
	 "Tm": 315.15, 
	 "num_atms": 26, 
	 "gaussian": { 
		 "optdone": 1, 
		 "sigma_profile": "yes", 
		 "theory": "DFT", 
		 "functional": "B3LYP", 
		 "basiset": "6-31G**", 
		 "properties": { 
			 "R2extent": 4112.2127, 
			 "electric_dipole_moment_norm": 2.54059932103, 
			 "electric_quadrupole_moment_norm": 13.3851189356, 
			 "total_energy": -689.174426358, 
			 "HOMO_LUMO_gap": 0.21515, 
			 "cosmo_polarized_energy": -13.86, 
			 "cosmo_cavitation_energy": 30.47, 
			 "cosmo_dispersion_energy": -21.75, 
			 "cosmo_repulsion_energy": 1.75, 
			 "cosmo_total_nonelectrostatic_energy": 10.47, 
			 "SMD_solvation_energy": 7.38 
		},
		"coords": [
			{
				"x": -4.3977724834,
				"y": 1.4733867507,
				"z": 0.4143065526,
				"element": "C" 
			},
			{
				"x": -3.774623019,
				"y": 0.2134795454,
				"z": 0.2226230829,
				"element": "O" 
			},
			{
				"x": -2.426498281,
				"y": 0.1245073679,
				"z": 0.4120936191,
				"element": "C" 
			},
			{
				"x": -1.866487628,
				"y": -1.1477895106,
				"z": 0.2058964228,
				"element": "C" 
			},
			{
				"x": -0.5045145339,
				"y": -1.3451232578,
				"z": 0.3761876751,
				"element": "C" 
			},
			{
				"x": 0.3407276151,
				"y": -0.2862041318,
				"z": 0.7514199351,
				"element": "C" 
			},
			{
				"x": 1.8203924597,
				"y": -0.5246637306,
				"z": 0.9621197355,
				"element": "C" 
			},
			{
				"x": 2.447338134,
				"y": -1.2186228468,
				"z": -0.1222567342,
				"element": "O" 
			},
			{
				"x": 2.5413686866,
				"y": -0.4800571247,
				"z": -1.3131016204,
				"element": "C" 
			},
			{
				"x": 3.6590254906,
				"y": 0.5587179814,
				"z": -1.3726503389,
				"element": "C" 
			},
			{
				"x": 4.4674127618,
				"y": 0.5510112703,
				"z": -0.2911727033,
				"element": "O" 
			},
			{
				"x": 3.814289486,
				"y": 1.3066056065,
				"z": -2.3125804114,
				"element": "O" 
			},
			{
				"x": -0.2278471955,
				"y": 0.9732653354,
				"z": 0.9419894358,
				"element": "C" 
			},
			{
				"x": -1.6010475792,
				"y": 1.1906784606,
				"z": 0.782969104,
				"element": "C" 
			},
			{
				"x": -4.008078856,
				"y": 2.2284235826,
				"z": -0.2807107085,
				"element": "H" 
			},
			{
				"x": -4.2721891977,
				"y": 1.8355010728,
				"z": 1.4429727219,
				"element": "H" 
			},
			{
				"x": -5.4594284131,
				"y": 1.3182685895,
				"z": 0.2161716976,
				"element": "H" 
			},
			{
				"x": -2.524634788,
				"y": -1.9603479829,
				"z": -0.0845402948,
				"element": "H" 
			},
			{
				"x": -0.0776735177,
				"y": -2.3301148097,
				"z": 0.2090117436,
				"element": "H" 
			},
			{
				"x": 2.3357713251,
				"y": 0.4241651168,
				"z": 1.1637881076,
				"element": "H" 
			},
			{
				"x": 1.9887046969,
				"y": -1.1768048219,
				"z": 1.8258304208,
				"element": "H" 
			},
			{
				"x": 2.7383553243,
				"y": -1.1921235917,
				"z": -2.1221166967,
				"element": "H" 
			},
			{
				"x": 1.607327679,
				"y": 0.0409979546,
				"z": -1.5647657972,
				"element": "H" 
			},
			{
				"x": 5.1345429906,
				"y": 1.2392367678,
				"z": -0.4563924684,
				"element": "H" 
			},
			{
				"x": 0.4063947837,
				"y": 1.8104932555,
				"z": 1.2247080993,
				"element": "H" 
			},
			{
				"x": -2.005255941,
				"y": 2.1835131506,
				"z": 0.9405994204,
				"element": "H" 
			}
		],
		 "valence_orbital": [ 
			{
				"type": "occ",
				"energy": -0.31451,
				"method": "rhf"
			},
			{
				"type": "occ",
				"energy": -0.29182,
				"method": "rhf"
			},
			{
				"type": "occ",
				"energy": -0.25705,
				"method": "rhf"
			},
			{
				"type": "occ",
				"energy": -0.25219,
				"method": "rhf"
			},
			{
				"type": "occ",
				"energy": -0.2199,
				"method": "rhf"
			},
			{
				"type": "unocc",
				"energy": -0.00475,
				"method": "rhf"
			},
			{
				"type": "unocc",
				"energy": 0.00323,
				"method": "rhf"
			},
			{
				"type": "unocc",
				"energy": 0.00916,
				"method": "rhf"
			},
			{
				"type": "unocc",
				"energy": 0.07248,
				"method": "rhf"
			},
			{
				"type": "unocc",
				"energy": 0.09082,
				"method": "rhf"
			}
		],
		"cosmo_sigma_profile": { 
			"-0.025": 0.0,
			"-0.024": 0.0,
			"-0.023": 0.0,
			"-0.022": 0.0,
			"-0.021": 0.0,
			"-0.02": 0.0,
			"-0.019": 0.0711208401057,
			"-0.018": 0.924602568397,
			"-0.017": 0.89873728899,
			"-0.016": 0.969776317278,
			"-0.015": 0.928282625987,
			"-0.014": 0.403008737898,
			"-0.013": 0.630725330621,
			"-0.012": 0.372452350953,
			"-0.011": 1.01783593724,
			"-0.01": 0.943196682954,
			"-0.009": 0.627852413285,
			"-0.008": 2.20776759212,
			"-0.007": 3.49339896509,
			"-0.006": 12.6338494944,
			"-0.005": 25.6493467194,
			"-0.004": 23.0359002871,
			"-0.003": 23.3920210055,
			"-0.002": 17.2751990857,
			"-0.001": 12.9920263823,
			"0.0": 10.7748600564,
			"0.001": 10.2722765954,
			"0.002": 11.054538679,
			"0.003": 13.5076681327,
			"0.004": 13.0340609418,
			"0.005": 14.0213837102,
			"0.006": 6.90438436915,
			"0.007": 4.58754237353,
			"0.008": 3.76991294278,
			"0.009": 5.71113382505,
			"0.01": 4.8676992609,
			"0.011": 6.24739643968,
			"0.012": 6.86338699333,
			"0.013": 0.893459318891,
			"0.014": 0.0,
			"0.015": 0.0,
			"0.016": 0.0,
			"0.017": 0.0,
			"0.018": 0.0,
			"0.019": 0.0,
			"0.02": 0.0,
			"0.021": 0.0,
			"0.022": 0.0,
			"0.023": 0.0,
			"0.024": 0.0,
			"0.025": 0.0
		}
	}
}
