{
	 "smiles": "CC1=CC(=O)NS(=O)(=O)O1", 
	 "Tm": 396.15, 
	 "num_atms": 15, 
	 "gaussian": { 
		 "optdone": 1, 
		 "sigma_profile": "yes", 
		 "theory": "DFT", 
		 "functional": "B3LYP", 
		 "basiset": "6-31G**", 
		 "properties": { 
			 "R2extent": 1916.9272, 
			 "electric_dipole_moment_norm": 3.2090666961, 
			 "electric_quadrupole_moment_norm": 9.01029237095, 
			 "total_energy": -909.186884444, 
			 "HOMO_LUMO_gap": 0.21627, 
			 "cosmo_polarized_energy": -13.89, 
			 "cosmo_cavitation_energy": 21.12, 
			 "cosmo_dispersion_energy": -16.55, 
			 "cosmo_repulsion_energy": 1.31, 
			 "cosmo_total_nonelectrostatic_energy": 5.88, 
			 "SMD_solvation_energy": 3.79 
		},
		"coords": [
			{
				"x": -0.9390243134,
				"y": 0.0336448347,
				"z": 1.5780979448,
				"element": "C" 
			},
			{
				"x": -0.1439006369,
				"y": 0.0849894758,
				"z": 0.317391994,
				"element": "C" 
			},
			{
				"x": -0.6191352304,
				"y": 0.3113387515,
				"z": -0.9212807872,
				"element": "C" 
			},
			{
				"x": 0.2258797356,
				"y": 0.4521684452,
				"z": -2.1099736959,
				"element": "C" 
			},
			{
				"x": -0.1568353317,
				"y": 0.7978759236,
				"z": -3.2099952504,
				"element": "O" 
			},
			{
				"x": 1.6089721482,
				"y": 0.2324482185,
				"z": -1.878303905,
				"element": "N" 
			},
			{
				"x": 2.16891334,
				"y": -0.7323195878,
				"z": -0.6219721187,
				"element": "S" 
			},
			{
				"x": 3.5269064192,
				"y": -0.3479664854,
				"z": -0.3094813346,
				"element": "O" 
			},
			{
				"x": 1.7853092362,
				"y": -2.1207672655,
				"z": -0.7951679956,
				"element": "O" 
			},
			{
				"x": 1.2056382986,
				"y": -0.0952507394,
				"z": 0.5760193812,
				"element": "O" 
			},
			{
				"x": -0.5437867992,
				"y": 0.7564881733,
				"z": 2.2997923266,
				"element": "H" 
			},
			{
				"x": -0.85882189,
				"y": -0.959718326,
				"z": 2.0322766047,
				"element": "H" 
			},
			{
				"x": -1.988417666,
				"y": 0.2597174949,
				"z": 1.3834934452,
				"element": "H" 
			},
			{
				"x": -1.68029113,
				"y": 0.4562611995,
				"z": -1.0731382092,
				"element": "H" 
			},
			{
				"x": 2.2086938198,
				"y": 0.2668898872,
				"z": -2.6984583999,
				"element": "H" 
			}
		],
		 "valence_orbital": [ 
			{
				"type": "occ",
				"energy": -0.36389,
				"method": "rhf"
			},
			{
				"type": "occ",
				"energy": -0.34116,
				"method": "rhf"
			},
			{
				"type": "occ",
				"energy": -0.3094,
				"method": "rhf"
			},
			{
				"type": "occ",
				"energy": -0.28937,
				"method": "rhf"
			},
			{
				"type": "occ",
				"energy": -0.28507,
				"method": "rhf"
			},
			{
				"type": "unocc",
				"energy": -0.0688,
				"method": "rhf"
			},
			{
				"type": "unocc",
				"energy": 0.0035,
				"method": "rhf"
			},
			{
				"type": "unocc",
				"energy": 0.02636,
				"method": "rhf"
			},
			{
				"type": "unocc",
				"energy": 0.06188,
				"method": "rhf"
			},
			{
				"type": "unocc",
				"energy": 0.06452,
				"method": "rhf"
			}
		],
		"cosmo_sigma_profile": { 
			"-0.025": 0.0,
			"-0.024": 0.0,
			"-0.023": 0.0,
			"-0.022": 0.0,
			"-0.021": 0.0,
			"-0.02": 0.0,
			"-0.019": 0.420225676261,
			"-0.018": 1.64688188753,
			"-0.017": 1.03864249967,
			"-0.016": 1.19914281434,
			"-0.015": 0.775757071247,
			"-0.014": 0.569769166212,
			"-0.013": 0.905125641836,
			"-0.012": 1.15998748568,
			"-0.011": 0.865970068138,
			"-0.01": 0.546375723022,
			"-0.009": 2.66951068368,
			"-0.008": 3.63745085492,
			"-0.007": 8.20879354725,
			"-0.006": 8.44129194815,
			"-0.005": 7.86458358608,
			"-0.004": 10.7837740218,
			"-0.003": 13.8373247799,
			"-0.002": 12.7093997661,
			"-0.001": 9.80545921038,
			"0.0": 9.8191448827,
			"0.001": 6.08175539102,
			"0.002": 6.01584508674,
			"0.003": 5.63867288214,
			"0.004": 5.92103646196,
			"0.005": 5.42249323707,
			"0.006": 4.22875601335,
			"0.007": 7.49882577424,
			"0.008": 15.8199908681,
			"0.009": 4.72722049491,
			"0.01": 2.77178739087,
			"0.011": 5.48102694432,
			"0.012": 2.43987938839,
			"0.013": 0.0765368000173,
			"0.014": 0.0,
			"0.015": 0.0,
			"0.016": 0.0,
			"0.017": 0.0,
			"0.018": 0.0,
			"0.019": 0.0,
			"0.02": 0.0,
			"0.021": 0.0,
			"0.022": 0.0,
			"0.023": 0.0,
			"0.024": 0.0,
			"0.025": 0.0
		}
	}
}
