{
	 "smiles": "O=C1CCCC2=C1SC(=N2)C1=CC=CC=C1", 
	 "Tm": 393.15, 
	 "num_atms": 27, 
	 "gaussian": { 
		 "optdone": 1, 
		 "sigma_profile": "yes", 
		 "theory": "DFT", 
		 "functional": "B3LYP", 
		 "basiset": "6-31G**", 
		 "properties": { 
			 "R2extent": 4924.9732, 
			 "electric_dipole_moment_norm": 3.11151425194, 
			 "electric_quadrupole_moment_norm": 17.186168301, 
			 "total_energy": -1030.19270804, 
			 "HOMO_LUMO_gap": 0.15128, 
			 "cosmo_polarized_energy": -10.36, 
			 "cosmo_cavitation_energy": 31.89, 
			 "cosmo_dispersion_energy": -24.28, 
			 "cosmo_repulsion_energy": 1.83, 
			 "cosmo_total_nonelectrostatic_energy": 9.45, 
			 "SMD_solvation_energy": 3.67 
		},
		"coords": [
			{
				"x": -3.5305545467,
				"y": -1.9381180265,
				"z": -1.8868000353,
				"element": "O" 
			},
			{
				"x": -3.0085478899,
				"y": -0.8319898067,
				"z": -1.9036209763,
				"element": "C" 
			},
			{
				"x": -3.5961387131,
				"y": 0.3477646336,
				"z": -2.6810748596,
				"element": "C" 
			},
			{
				"x": -3.2497203116,
				"y": 1.7168837438,
				"z": -2.0712801846,
				"element": "C" 
			},
			{
				"x": -1.7330914337,
				"y": 1.9039147521,
				"z": -1.8900607301,
				"element": "C" 
			},
			{
				"x": -1.1337689443,
				"y": 0.7086852288,
				"z": -1.2042793424,
				"element": "C" 
			},
			{
				"x": -1.7510599252,
				"y": -0.526895957,
				"z": -1.2217255486,
				"element": "C" 
			},
			{
				"x": -0.7958524379,
				"y": -1.6805851406,
				"z": -0.3365438941,
				"element": "S" 
			},
			{
				"x": 0.3712934796,
				"y": -0.400801218,
				"z": -0.0168574829,
				"element": "C" 
			},
			{
				"x": 0.050777629,
				"y": 0.7693468132,
				"z": -0.5318128728,
				"element": "N" 
			},
			{
				"x": 1.5941545182,
				"y": -0.624797395,
				"z": 0.7634165095,
				"element": "C" 
			},
			{
				"x": 2.4736400111,
				"y": 0.4526523493,
				"z": 0.9757426946,
				"element": "C" 
			},
			{
				"x": 3.6415763947,
				"y": 0.271613025,
				"z": 1.7103119984,
				"element": "C" 
			},
			{
				"x": 3.9519292183,
				"y": -0.9821139052,
				"z": 2.2440726313,
				"element": "C" 
			},
			{
				"x": 3.084230765,
				"y": -2.0572570737,
				"z": 2.0380567958,
				"element": "C" 
			},
			{
				"x": 1.914184923,
				"y": -1.8817527733,
				"z": 1.3038494011,
				"element": "C" 
			},
			{
				"x": -3.1980001405,
				"y": 0.2830058219,
				"z": -3.7047032732,
				"element": "H" 
			},
			{
				"x": -4.6761935908,
				"y": 0.1923506495,
				"z": -2.7526926239,
				"element": "H" 
			},
			{
				"x": -3.6531667556,
				"y": 2.5170836495,
				"z": -2.7002793582,
				"element": "H" 
			},
			{
				"x": -3.7378108141,
				"y": 1.8067241727,
				"z": -1.0929275488,
				"element": "H" 
			},
			{
				"x": -1.5086380524,
				"y": 2.8051894708,
				"z": -1.3107776432,
				"element": "H" 
			},
			{
				"x": -1.2476756347,
				"y": 2.0365143842,
				"z": -2.8681740027,
				"element": "H" 
			},
			{
				"x": 2.2199320189,
				"y": 1.4194022945,
				"z": 0.5559021504,
				"element": "H" 
			},
			{
				"x": 4.3126554035,
				"y": 1.1109920488,
				"z": 1.8675226522,
				"element": "H" 
			},
			{
				"x": 4.8640290525,
				"y": -1.1208415022,
				"z": 2.8170683857,
				"element": "H" 
			},
			{
				"x": 3.3187451014,
				"y": -3.0342880207,
				"z": 2.4497588176,
				"element": "H" 
			},
			{
				"x": 1.2488706753,
				"y": -2.7270822187,
				"z": 1.15180834,
				"element": "H" 
			}
		],
		 "valence_orbital": [ 
			{
				"type": "occ",
				"energy": -0.28542,
				"method": "rhf"
			},
			{
				"type": "occ",
				"energy": -0.28076,
				"method": "rhf"
			},
			{
				"type": "occ",
				"energy": -0.26199,
				"method": "rhf"
			},
			{
				"type": "occ",
				"energy": -0.24408,
				"method": "rhf"
			},
			{
				"type": "occ",
				"energy": -0.22888,
				"method": "rhf"
			},
			{
				"type": "unocc",
				"energy": -0.0776,
				"method": "rhf"
			},
			{
				"type": "unocc",
				"energy": -0.02048,
				"method": "rhf"
			},
			{
				"type": "unocc",
				"energy": -0.0106,
				"method": "rhf"
			},
			{
				"type": "unocc",
				"energy": 0.01908,
				"method": "rhf"
			},
			{
				"type": "unocc",
				"energy": 0.03947,
				"method": "rhf"
			}
		],
		"cosmo_sigma_profile": { 
			"-0.025": 0.0,
			"-0.024": 0.0,
			"-0.023": 0.0,
			"-0.022": 0.0,
			"-0.021": 0.0,
			"-0.02": 0.0,
			"-0.019": 0.0,
			"-0.018": 0.0,
			"-0.017": 0.0,
			"-0.016": 0.0,
			"-0.015": 0.0,
			"-0.014": 0.0,
			"-0.013": 0.0,
			"-0.012": 0.0,
			"-0.011": 0.0,
			"-0.01": 0.0,
			"-0.009": 0.0,
			"-0.008": 0.132746262673,
			"-0.007": 2.56964449259,
			"-0.006": 12.4919851921,
			"-0.005": 21.053014812,
			"-0.004": 26.3415100298,
			"-0.003": 24.7049800598,
			"-0.002": 23.8760340179,
			"-0.001": 22.6357396589,
			"0.0": 19.7942660518,
			"0.001": 20.3520950893,
			"0.002": 19.2017475395,
			"0.003": 17.0991865847,
			"0.004": 15.6980317123,
			"0.005": 5.2764362249,
			"0.006": 2.55190455362,
			"0.007": 3.36175853182,
			"0.008": 3.00695169873,
			"0.009": 2.70588254624,
			"0.01": 2.72394557048,
			"0.011": 3.94312012846,
			"0.012": 4.48321159877,
			"0.013": 2.4974627729,
			"0.014": 0.402583129799,
			"0.015": 0.0,
			"0.016": 0.0,
			"0.017": 0.0,
			"0.018": 0.0,
			"0.019": 0.0,
			"0.02": 0.0,
			"0.021": 0.0,
			"0.022": 0.0,
			"0.023": 0.0,
			"0.024": 0.0,
			"0.025": 0.0
		}
	}
}
