{
	 "smiles": "NC1=NC=C(CC2=CC(=C(Cl)C=C2)C(F)(F)F)S1", 
	 "Tm": 344.15, 
	 "num_atms": 26, 
	 "gaussian": { 
		 "optdone": 1, 
		 "sigma_profile": "yes", 
		 "theory": "DFT", 
		 "functional": "B3LYP", 
		 "basiset": "6-31G**", 
		 "properties": { 
			 "R2extent": 8093.6658, 
			 "electric_dipole_moment_norm": 3.42178875005, 
			 "electric_quadrupole_moment_norm": 15.7588246925, 
			 "total_energy": -1691.39758087, 
			 "HOMO_LUMO_gap": 0.17531, 
			 "cosmo_polarized_energy": -12.86, 
			 "cosmo_cavitation_energy": 35.64, 
			 "cosmo_dispersion_energy": -25.48, 
			 "cosmo_repulsion_energy": 1.89, 
			 "cosmo_total_nonelectrostatic_energy": 12.04, 
			 "SMD_solvation_energy": 4.64 
		},
		"coords": [
			{
				"x": -4.6090123221,
				"y": -0.9143098219,
				"z": -0.9373233079,
				"element": "N" 
			},
			{
				"x": -3.4551520111,
				"y": -1.4988132573,
				"z": -0.4688492979,
				"element": "C" 
			},
			{
				"x": -3.1403393022,
				"y": -2.7470618061,
				"z": -0.6638350387,
				"element": "N" 
			},
			{
				"x": -1.96743428,
				"y": -3.0528397191,
				"z": -0.0065215449,
				"element": "C" 
			},
			{
				"x": -1.3528607954,
				"y": -2.0583604372,
				"z": 0.6935150662,
				"element": "C" 
			},
			{
				"x": -0.0772435342,
				"y": -2.1110267857,
				"z": 1.4826661493,
				"element": "C" 
			},
			{
				"x": 1.0570707414,
				"y": -1.2525454367,
				"z": 0.9389036853,
				"element": "C" 
			},
			{
				"x": 1.8010722177,
				"y": -0.4348395871,
				"z": 1.7915125934,
				"element": "C" 
			},
			{
				"x": 2.8690788631,
				"y": 0.3406959427,
				"z": 1.3266086851,
				"element": "C" 
			},
			{
				"x": 3.1934901383,
				"y": 0.288878037,
				"z": -0.0361270849,
				"element": "C" 
			},
			{
				"x": 4.5130575444,
				"y": 1.2264183443,
				"z": -0.7097939569,
				"element": "Cl" 
			},
			{
				"x": 2.4588321067,
				"y": -0.5206796482,
				"z": -0.9031758458,
				"element": "C" 
			},
			{
				"x": 1.3996877985,
				"y": -1.28162091,
				"z": -0.4174803671,
				"element": "C" 
			},
			{
				"x": 3.631086605,
				"y": 1.206908625,
				"z": 2.3037103301,
				"element": "C" 
			},
			{
				"x": 4.9356166661,
				"y": 0.8695702691,
				"z": 2.3639319424,
				"element": "F" 
			},
			{
				"x": 3.5660077955,
				"y": 2.5134842779,
				"z": 1.9755979134,
				"element": "F" 
			},
			{
				"x": 3.1349571542,
				"y": 1.0894530777,
				"z": 3.5566257757,
				"element": "F" 
			},
			{
				"x": -2.3228687015,
				"y": -0.5904931218,
				"z": 0.5463180405,
				"element": "S" 
			},
			{
				"x": -4.5744209838,
				"y": 0.0738130559,
				"z": -1.142752963,
				"element": "H" 
			},
			{
				"x": -5.0704439929,
				"y": -1.4682901737,
				"z": -1.6472331379,
				"element": "H" 
			},
			{
				"x": -1.5810589449,
				"y": -4.0649125465,
				"z": -0.0741299008,
				"element": "H" 
			},
			{
				"x": -0.2588517712,
				"y": -1.8358939927,
				"z": 2.5288615342,
				"element": "H" 
			},
			{
				"x": 0.2433285586,
				"y": -3.1612986775,
				"z": 1.4993571931,
				"element": "H" 
			},
			{
				"x": 1.5536120775,
				"y": -0.3906946764,
				"z": 2.8462266494,
				"element": "H" 
			},
			{
				"x": 2.7221974946,
				"y": -0.5466731441,
				"z": -1.9546813767,
				"element": "H" 
			},
			{
				"x": 0.8260908778,
				"y": -1.8998678876,
				"z": -1.1021317355,
				"element": "H" 
			}
		],
		 "valence_orbital": [ 
			{
				"type": "occ",
				"energy": -0.28132,
				"method": "rhf"
			},
			{
				"type": "occ",
				"energy": -0.27724,
				"method": "rhf"
			},
			{
				"type": "occ",
				"energy": -0.27612,
				"method": "rhf"
			},
			{
				"type": "occ",
				"energy": -0.25359,
				"method": "rhf"
			},
			{
				"type": "occ",
				"energy": -0.21448,
				"method": "rhf"
			},
			{
				"type": "unocc",
				"energy": -0.03917,
				"method": "rhf"
			},
			{
				"type": "unocc",
				"energy": -0.02655,
				"method": "rhf"
			},
			{
				"type": "unocc",
				"energy": -0.01076,
				"method": "rhf"
			},
			{
				"type": "unocc",
				"energy": 0.00629,
				"method": "rhf"
			},
			{
				"type": "unocc",
				"energy": 0.02316,
				"method": "rhf"
			}
		],
		"cosmo_sigma_profile": { 
			"-0.025": 0.0,
			"-0.024": 0.0,
			"-0.023": 0.0,
			"-0.022": 0.0,
			"-0.021": 0.0,
			"-0.02": 0.0,
			"-0.019": 0.0,
			"-0.018": 0.0,
			"-0.017": 0.0,
			"-0.016": 0.0,
			"-0.015": 0.42013032866,
			"-0.014": 1.57655168563,
			"-0.013": 2.89870220432,
			"-0.012": 2.47601609953,
			"-0.011": 2.21494118216,
			"-0.01": 2.11489299051,
			"-0.009": 2.72437563028,
			"-0.008": 3.8344486468,
			"-0.007": 7.83786036874,
			"-0.006": 13.2422491619,
			"-0.005": 12.2729383761,
			"-0.004": 12.1483944964,
			"-0.003": 15.6963975546,
			"-0.002": 16.7314381305,
			"-0.001": 14.2423985458,
			"0.0": 21.8388458279,
			"0.001": 27.1995245856,
			"0.002": 41.7892733517,
			"0.003": 40.8623639382,
			"0.004": 22.475741545,
			"0.005": 7.27387514721,
			"0.006": 3.52468563407,
			"0.007": 1.6003069387,
			"0.008": 2.70143729243,
			"0.009": 1.65919518721,
			"0.01": 1.84480061767,
			"0.011": 1.47622319511,
			"0.012": 1.73527717868,
			"0.013": 0.845758446825,
			"0.014": 0.81224171672,
			"0.015": 1.20156834487,
			"0.016": 0.438721840116,
			"0.017": 0.0,
			"0.018": 0.0,
			"0.019": 0.0,
			"0.02": 0.0,
			"0.021": 0.0,
			"0.022": 0.0,
			"0.023": 0.0,
			"0.024": 0.0,
			"0.025": 0.0
		}
	}
}
