{
	 "smiles": "CC(=O)C1=CC(NC(=O)OCC(F)(F)F)=CC=C1", 
	 "Tm": 409.15, 
	 "num_atms": 28, 
	 "gaussian": { 
		 "optdone": 1, 
		 "sigma_profile": "yes", 
		 "theory": "DFT", 
		 "functional": "B3LYP", 
		 "basiset": "6-31G**", 
		 "properties": { 
			 "R2extent": 7558.8972, 
			 "electric_dipole_moment_norm": 3.2204148149, 
			 "electric_quadrupole_moment_norm": 11.6265875897, 
			 "total_energy": -1005.17083077, 
			 "HOMO_LUMO_gap": 0.17614, 
			 "cosmo_polarized_energy": -14.41, 
			 "cosmo_cavitation_energy": 34.84, 
			 "cosmo_dispersion_energy": -24.09, 
			 "cosmo_repulsion_energy": 1.8, 
			 "cosmo_total_nonelectrostatic_energy": 12.54, 
			 "SMD_solvation_energy": 8.88 
		},
		"coords": [
			{
				"x": 3.410221435,
				"y": -0.3339411854,
				"z": 3.1199366459,
				"element": "C" 
			},
			{
				"x": 2.2728770137,
				"y": -1.20588551,
				"z": 2.6182138246,
				"element": "C" 
			},
			{
				"x": 2.0883288555,
				"y": -2.3195704821,
				"z": 3.0854171768,
				"element": "O" 
			},
			{
				"x": 1.3767586832,
				"y": -0.6748047356,
				"z": 1.53633345,
				"element": "C" 
			},
			{
				"x": 0.3429173636,
				"y": -1.5040479279,
				"z": 1.0881541899,
				"element": "C" 
			},
			{
				"x": -0.5371446503,
				"y": -1.0852117239,
				"z": 0.0865626918,
				"element": "C" 
			},
			{
				"x": -1.5759833911,
				"y": -1.9797844165,
				"z": -0.2637234875,
				"element": "N" 
			},
			{
				"x": -2.3657119407,
				"y": -2.0931184694,
				"z": -1.3769238099,
				"element": "C" 
			},
			{
				"x": -3.2445758659,
				"y": -2.9228615163,
				"z": -1.4923195261,
				"element": "O" 
			},
			{
				"x": -2.0239204554,
				"y": -1.1882655572,
				"z": -2.3418035083,
				"element": "O" 
			},
			{
				"x": -2.8951933521,
				"y": -1.1065170099,
				"z": -3.4630935739,
				"element": "C" 
			},
			{
				"x": -3.7128373598,
				"y": 0.1685788176,
				"z": -3.3533331343,
				"element": "C" 
			},
			{
				"x": -2.9185946165,
				"y": 1.2583199103,
				"z": -3.2743222828,
				"element": "F" 
			},
			{
				"x": -4.49628583,
				"y": 0.302844828,
				"z": -4.4414071273,
				"element": "F" 
			},
			{
				"x": -4.4979724881,
				"y": 0.1594021596,
				"z": -2.2613872421,
				"element": "F" 
			},
			{
				"x": -0.3816388594,
				"y": 0.1951217872,
				"z": -0.4719063071,
				"element": "C" 
			},
			{
				"x": 0.6572036509,
				"y": 1.0138115356,
				"z": -0.0316768947,
				"element": "C" 
			},
			{
				"x": 1.5372220345,
				"y": 0.5948547538,
				"z": 0.9651189515,
				"element": "C" 
			},
			{
				"x": 3.9501132297,
				"y": -0.8766214002,
				"z": 3.8961838561,
				"element": "H" 
			},
			{
				"x": 3.0306042938,
				"y": 0.6079372365,
				"z": 3.5310623689,
				"element": "H" 
			},
			{
				"x": 4.0989036203,
				"y": -0.0806339709,
				"z": 2.3064341826,
				"element": "H" 
			},
			{
				"x": 0.2485788516,
				"y": -2.4860311314,
				"z": 1.5428803599,
				"element": "H" 
			},
			{
				"x": -1.7586273365,
				"y": -2.72547052,
				"z": 0.3934911096,
				"element": "H" 
			},
			{
				"x": -3.5636106698,
				"y": -1.9682772929,
				"z": -3.4977052387,
				"element": "H" 
			},
			{
				"x": -2.2810556765,
				"y": -1.0575854671,
				"z": -4.3643386856,
				"element": "H" 
			},
			{
				"x": -1.0599216265,
				"y": 0.545772185,
				"z": -1.2368561234,
				"element": "H" 
			},
			{
				"x": 0.7697815543,
				"y": 2.0001035717,
				"z": -0.4718570626,
				"element": "H" 
			},
			{
				"x": 2.3337635326,
				"y": 1.2541815314,
				"z": 1.2919651968,
				"element": "H" 
			}
		],
		 "valence_orbital": [ 
			{
				"type": "occ",
				"energy": -0.31629,
				"method": "rhf"
			},
			{
				"type": "occ",
				"energy": -0.29853,
				"method": "rhf"
			},
			{
				"type": "occ",
				"energy": -0.26617,
				"method": "rhf"
			},
			{
				"type": "occ",
				"energy": -0.2546,
				"method": "rhf"
			},
			{
				"type": "occ",
				"energy": -0.23781,
				"method": "rhf"
			},
			{
				"type": "unocc",
				"energy": -0.06167,
				"method": "rhf"
			},
			{
				"type": "unocc",
				"energy": -0.02011,
				"method": "rhf"
			},
			{
				"type": "unocc",
				"energy": 0.02246,
				"method": "rhf"
			},
			{
				"type": "unocc",
				"energy": 0.05547,
				"method": "rhf"
			},
			{
				"type": "unocc",
				"energy": 0.06722,
				"method": "rhf"
			}
		],
		"cosmo_sigma_profile": { 
			"-0.025": 0.0,
			"-0.024": 0.0,
			"-0.023": 0.0,
			"-0.022": 0.0,
			"-0.021": 0.0,
			"-0.02": 0.0,
			"-0.019": 0.0,
			"-0.018": 0.0,
			"-0.017": 0.0,
			"-0.016": 0.315673086456,
			"-0.015": 1.12358983694,
			"-0.014": 1.2246067721,
			"-0.013": 0.984981076203,
			"-0.012": 1.37541198182,
			"-0.011": 1.03132120037,
			"-0.01": 1.5732187122,
			"-0.009": 4.6749222022,
			"-0.008": 4.33270132336,
			"-0.007": 8.10934705583,
			"-0.006": 15.8486898034,
			"-0.005": 15.1593298818,
			"-0.004": 15.0676055116,
			"-0.003": 16.0809161369,
			"-0.002": 17.487157909,
			"-0.001": 20.7644536869,
			"0.0": 19.3419521413,
			"0.001": 20.0563599072,
			"0.002": 37.4840047945,
			"0.003": 30.8279438871,
			"0.004": 10.2487279447,
			"0.005": 4.46584792946,
			"0.006": 3.18077764576,
			"0.007": 2.31796853456,
			"0.008": 2.37848462944,
			"0.009": 3.34608392112,
			"0.01": 3.83280613574,
			"0.011": 6.49105817891,
			"0.012": 7.52522304135,
			"0.013": 1.72200223184,
			"0.014": 0.0402471150144,
			"0.015": 0.0,
			"0.016": 0.0,
			"0.017": 0.0,
			"0.018": 0.0,
			"0.019": 0.0,
			"0.02": 0.0,
			"0.021": 0.0,
			"0.022": 0.0,
			"0.023": 0.0,
			"0.024": 0.0,
			"0.025": 0.0
		}
	}
}
