{
	 "smiles": "CN1C=CC(=C1)S(=O)(=O)NCC1(N)CCCCC1", 
	 "Tm": 368.15, 
	 "num_atms": 39, 
	 "gaussian": { 
		 "optdone": 1, 
		 "sigma_profile": "yes", 
		 "theory": "DFT", 
		 "functional": "B3LYP", 
		 "basiset": "6-31G**", 
		 "properties": { 
			 "R2extent": 7344.6444, 
			 "electric_dipole_moment_norm": 5.59646217266, 
			 "electric_quadrupole_moment_norm": 34.6493313695, 
			 "total_energy": -1182.74649585, 
			 "HOMO_LUMO_gap": 0.24122, 
			 "cosmo_polarized_energy": -21.23, 
			 "cosmo_cavitation_energy": 40.81, 
			 "cosmo_dispersion_energy": -28.27, 
			 "cosmo_repulsion_energy": 2.18, 
			 "cosmo_total_nonelectrostatic_energy": 14.72, 
			 "SMD_solvation_energy": 5.13 
		},
		"coords": [
			{
				"x": 2.5177668968,
				"y": -2.4966359737,
				"z": 4.6097035559,
				"element": "C" 
			},
			{
				"x": 1.5789534583,
				"y": -1.5178139642,
				"z": 4.0837288559,
				"element": "N" 
			},
			{
				"x": 1.8695943831,
				"y": -0.1892825276,
				"z": 3.8341684224,
				"element": "C" 
			},
			{
				"x": 0.721434346,
				"y": 0.4458930617,
				"z": 3.4262722459,
				"element": "C" 
			},
			{
				"x": -0.3033202955,
				"y": -0.5444503714,
				"z": 3.4301958645,
				"element": "C" 
			},
			{
				"x": 0.2529634728,
				"y": -1.7407983958,
				"z": 3.8445224427,
				"element": "C" 
			},
			{
				"x": -2.0066366367,
				"y": -0.3417004474,
				"z": 3.0604667667,
				"element": "S" 
			},
			{
				"x": -2.5506342632,
				"y": 0.8257664612,
				"z": 3.761972727,
				"element": "O" 
			},
			{
				"x": -2.633555109,
				"y": -1.6636001774,
				"z": 3.2126395889,
				"element": "O" 
			},
			{
				"x": -1.9717755868,
				"y": 0.1329912232,
				"z": 1.431486509,
				"element": "N" 
			},
			{
				"x": -1.8959287164,
				"y": -0.9317818125,
				"z": 0.4190445235,
				"element": "C" 
			},
			{
				"x": -1.5724784144,
				"y": -0.4047962108,
				"z": -1.0030978412,
				"element": "C" 
			},
			{
				"x": -1.6050640742,
				"y": -1.5287461294,
				"z": -1.9586894185,
				"element": "N" 
			},
			{
				"x": -2.629868118,
				"y": 0.6370907902,
				"z": -1.4792748062,
				"element": "C" 
			},
			{
				"x": -2.1586852933,
				"y": 2.0906796406,
				"z": -1.3186036243,
				"element": "C" 
			},
			{
				"x": -0.8970116279,
				"y": 2.3684071838,
				"z": -2.1663415923,
				"element": "C" 
			},
			{
				"x": 0.0255027914,
				"y": 1.1275467293,
				"z": -2.2568250047,
				"element": "C" 
			},
			{
				"x": -0.1518110601,
				"y": 0.2081327777,
				"z": -1.0432064421,
				"element": "C" 
			},
			{
				"x": 2.1409101522,
				"y": -3.5011397088,
				"z": 4.4096378605,
				"element": "H" 
			},
			{
				"x": 3.4862957719,
				"y": -2.3844447053,
				"z": 4.1161170566,
				"element": "H" 
			},
			{
				"x": 2.652992387,
				"y": -2.3778362227,
				"z": 5.6899179599,
				"element": "H" 
			},
			{
				"x": 2.872927727,
				"y": 0.1880756343,
				"z": 3.9686786919,
				"element": "H" 
			},
			{
				"x": 0.6157493493,
				"y": 1.4843146465,
				"z": 3.1509222206,
				"element": "H" 
			},
			{
				"x": -0.209612338,
				"y": -2.7052404047,
				"z": 3.9864102617,
				"element": "H" 
			},
			{
				"x": -2.7626157781,
				"y": 0.7616993158,
				"z": 1.3058067698,
				"element": "H" 
			},
			{
				"x": -1.0939187491,
				"y": -1.6122185663,
				"z": 0.7284283144,
				"element": "H" 
			},
			{
				"x": -2.8238752128,
				"y": -1.5204169547,
				"z": 0.3830699119,
				"element": "H" 
			},
			{
				"x": -1.0003054324,
				"y": -2.2813708534,
				"z": -1.6323714108,
				"element": "H" 
			},
			{
				"x": -2.545559136,
				"y": -1.9176075875,
				"z": -2.0075308808,
				"element": "H" 
			},
			{
				"x": -3.5837385458,
				"y": 0.4766983038,
				"z": -0.9577708632,
				"element": "H" 
			},
			{
				"x": -2.8252484608,
				"y": 0.4442469127,
				"z": -2.540717761,
				"element": "H" 
			},
			{
				"x": -2.964005995,
				"y": 2.778372936,
				"z": -1.6002687027,
				"element": "H" 
			},
			{
				"x": -1.9408948232,
				"y": 2.2893841365,
				"z": -0.2629697166,
				"element": "H" 
			},
			{
				"x": -1.190287711,
				"y": 2.6772000253,
				"z": -3.1768488929,
				"element": "H" 
			},
			{
				"x": -0.3535601176,
				"y": 3.2159269456,
				"z": -1.7322390063,
				"element": "H" 
			},
			{
				"x": 1.0717427438,
				"y": 1.4383763036,
				"z": -2.3526230738,
				"element": "H" 
			},
			{
				"x": -0.2127659661,
				"y": 0.5467385853,
				"z": -3.1546569401,
				"element": "H" 
			},
			{
				"x": 0.0283083641,
				"y": 0.7603224773,
				"z": -0.1140955768,
				"element": "H" 
			},
			{
				"x": 0.5804156179,
				"y": -0.6093830769,
				"z": -1.0691589954,
				"element": "H" 
			}
		],
		 "valence_orbital": [ 
			{
				"type": "occ",
				"energy": -0.28755,
				"method": "rhf"
			},
			{
				"type": "occ",
				"energy": -0.27006,
				"method": "rhf"
			},
			{
				"type": "occ",
				"energy": -0.24838,
				"method": "rhf"
			},
			{
				"type": "occ",
				"energy": -0.23664,
				"method": "rhf"
			},
			{
				"type": "occ",
				"energy": -0.23295,
				"method": "rhf"
			},
			{
				"type": "unocc",
				"energy": 0.00827,
				"method": "rhf"
			},
			{
				"type": "unocc",
				"energy": 0.03253,
				"method": "rhf"
			},
			{
				"type": "unocc",
				"energy": 0.06493,
				"method": "rhf"
			},
			{
				"type": "unocc",
				"energy": 0.07607,
				"method": "rhf"
			},
			{
				"type": "unocc",
				"energy": 0.08221,
				"method": "rhf"
			}
		],
		"cosmo_sigma_profile": { 
			"-0.025": 0.0,
			"-0.024": 0.0,
			"-0.023": 0.0,
			"-0.022": 0.0,
			"-0.021": 0.0,
			"-0.02": 0.0,
			"-0.019": 0.0,
			"-0.018": 0.0,
			"-0.017": 0.0,
			"-0.016": 0.0,
			"-0.015": 0.0,
			"-0.014": 0.0,
			"-0.013": 0.267932712345,
			"-0.012": 0.618962468515,
			"-0.011": 0.918380602955,
			"-0.01": 2.17247280739,
			"-0.009": 5.76657207427,
			"-0.008": 9.54308494463,
			"-0.007": 13.5517396098,
			"-0.006": 15.8035638175,
			"-0.005": 18.3070985822,
			"-0.004": 19.0296449133,
			"-0.003": 21.3424621583,
			"-0.002": 23.4692812095,
			"-0.001": 29.6064216479,
			"0.0": 34.0850831844,
			"0.001": 26.4882581827,
			"0.002": 17.2906882125,
			"0.003": 10.2375776353,
			"0.004": 10.6072208792,
			"0.005": 9.33997029129,
			"0.006": 7.93001872181,
			"0.007": 4.51219695888,
			"0.008": 3.01477145562,
			"0.009": 4.22146912887,
			"0.01": 5.42413920939,
			"0.011": 9.96391864168,
			"0.012": 9.65363985002,
			"0.013": 2.31345962497,
			"0.014": 0.801904569029,
			"0.015": 0.25391659214,
			"0.016": 0.691759436115,
			"0.017": 0.558705590486,
			"0.018": 0.0963474661063,
			"0.019": 0.0,
			"0.02": 0.0,
			"0.021": 0.0,
			"0.022": 0.0,
			"0.023": 0.0,
			"0.024": 0.0,
			"0.025": 0.0
		}
	}
}
