{
	 "smiles": "CCCCCCCCCCCCCCCCCCCO", 
	 "Tm": 336.45, 
	 "num_atms": 60, 
	 "gaussian": { 
		 "optdone": 1, 
		 "sigma_profile": "yes", 
		 "theory": "DFT", 
		 "functional": "B3LYP", 
		 "basiset": "6-31G**", 
		 "properties": { 
			 "R2extent": 9632.0674, 
			 "electric_dipole_moment_norm": 1.45209266233, 
			 "electric_quadrupole_moment_norm": 6.16248316833, 
			 "total_energy": -823.396273882, 
			 "HOMO_LUMO_gap": 0.3206, 
			 "cosmo_polarized_energy": -5.83, 
			 "cosmo_cavitation_energy": 55.87, 
			 "cosmo_dispersion_energy": -34.37, 
			 "cosmo_repulsion_energy": 2.7, 
			 "cosmo_total_nonelectrostatic_energy": 24.2, 
			 "SMD_solvation_energy": 7.07 
		},
		"coords": [
			{
				"x": 3.7263878775,
				"y": 1.5906244593,
				"z": 2.7554450889,
				"element": "C" 
			},
			{
				"x": 5.100185698,
				"y": 1.3770951713,
				"z": 2.1029015184,
				"element": "C" 
			},
			{
				"x": 5.1113500509,
				"y": 0.5624672645,
				"z": 0.7931782866,
				"element": "C" 
			},
			{
				"x": 5.0610257356,
				"y": -0.9738161209,
				"z": 0.9184197944,
				"element": "C" 
			},
			{
				"x": 3.7527682253,
				"y": -1.6156824978,
				"z": 1.4154795025,
				"element": "C" 
			},
			{
				"x": 2.5213618203,
				"y": -1.30876463,
				"z": 0.5534069216,
				"element": "C" 
			},
			{
				"x": 1.2465491427,
				"y": -2.0140682503,
				"z": 1.0366361341,
				"element": "C" 
			},
			{
				"x": 0.0010942297,
				"y": -1.6189302686,
				"z": 0.2329490681,
				"element": "C" 
			},
			{
				"x": -1.2865762629,
				"y": -2.3152668493,
				"z": 0.697686612,
				"element": "C" 
			},
			{
				"x": -2.5553879486,
				"y": -1.8265355808,
				"z": -0.0243036281,
				"element": "C" 
			},
			{
				"x": -3.0292646208,
				"y": -0.4378777518,
				"z": 0.4333008236,
				"element": "C" 
			},
			{
				"x": -4.2302411271,
				"y": 0.1233125459,
				"z": -0.3511736368,
				"element": "C" 
			},
			{
				"x": -4.0069566018,
				"y": 0.4888172822,
				"z": -1.8340807122,
				"element": "C" 
			},
			{
				"x": -3.286568379,
				"y": 1.8203643699,
				"z": -2.1277410901,
				"element": "C" 
			},
			{
				"x": -1.7687894477,
				"y": 1.8504370069,
				"z": -1.8931550578,
				"element": "C" 
			},
			{
				"x": -1.1040469544,
				"y": 3.1279350727,
				"z": -2.4319226858,
				"element": "C" 
			},
			{
				"x": 0.4147251013,
				"y": 3.2225558007,
				"z": -2.1634237435,
				"element": "C" 
			},
			{
				"x": 0.8210323747,
				"y": 3.9875040659,
				"z": -0.890503891,
				"element": "C" 
			},
			{
				"x": 0.3133997128,
				"y": 3.4153453724,
				"z": 0.4279776282,
				"element": "C" 
			},
			{
				"x": 0.8101832017,
				"y": 2.0822900904,
				"z": 0.5735556546,
				"element": "O" 
			},
			{
				"x": 3.3057961184,
				"y": 0.6609587198,
				"z": 3.1500535407,
				"element": "H" 
			},
			{
				"x": 3.009390506,
				"y": 1.9986236736,
				"z": 2.0340348068,
				"element": "H" 
			},
			{
				"x": 3.8013196663,
				"y": 2.293605914,
				"z": 3.5929582113,
				"element": "H" 
			},
			{
				"x": 5.7853216891,
				"y": 0.9120712917,
				"z": 2.8257504799,
				"element": "H" 
			},
			{
				"x": 5.5252714395,
				"y": 2.3657384345,
				"z": 1.8853475494,
				"element": "H" 
			},
			{
				"x": 4.3008361023,
				"y": 0.9157727422,
				"z": 0.1425024097,
				"element": "H" 
			},
			{
				"x": 6.0412798111,
				"y": 0.8034630084,
				"z": 0.2613533197,
				"element": "H" 
			},
			{
				"x": 5.2895003171,
				"y": -1.3956284012,
				"z": -0.0706095523,
				"element": "H" 
			},
			{
				"x": 5.8812089352,
				"y": -1.2954520814,
				"z": 1.5755991516,
				"element": "H" 
			},
			{
				"x": 3.5547683574,
				"y": -1.316626418,
				"z": 2.4524981429,
				"element": "H" 
			},
			{
				"x": 3.9007030417,
				"y": -2.7044248238,
				"z": 1.4477007316,
				"element": "H" 
			},
			{
				"x": 2.725391447,
				"y": -1.6028750509,
				"z": -0.4866324916,
				"element": "H" 
			},
			{
				"x": 2.3378185372,
				"y": -0.2276016729,
				"z": 0.5282424767,
				"element": "H" 
			},
			{
				"x": 1.3867319268,
				"y": -3.1038789026,
				"z": 0.9938810102,
				"element": "H" 
			},
			{
				"x": 1.0806516178,
				"y": -1.775247916,
				"z": 2.0979051665,
				"element": "H" 
			},
			{
				"x": 0.1662770253,
				"y": -1.8507583689,
				"z": -0.8291758037,
				"element": "H" 
			},
			{
				"x": -0.1153335793,
				"y": -0.5286692056,
				"z": 0.2814078177,
				"element": "H" 
			},
			{
				"x": -1.1765663466,
				"y": -3.3974406457,
				"z": 0.5462542131,
				"element": "H" 
			},
			{
				"x": -1.4108675457,
				"y": -2.1748022026,
				"z": 1.7816844572,
				"element": "H" 
			},
			{
				"x": -2.3674300916,
				"y": -1.8259617479,
				"z": -1.1062491263,
				"element": "H" 
			},
			{
				"x": -3.3702020825,
				"y": -2.5447419916,
				"z": 0.1401629478,
				"element": "H" 
			},
			{
				"x": -3.3133229661,
				"y": -0.5063473043,
				"z": 1.4929418444,
				"element": "H" 
			},
			{
				"x": -2.1946137647,
				"y": 0.2689838262,
				"z": 0.3943440059,
				"element": "H" 
			},
			{
				"x": -4.610584342,
				"y": 1.0128461969,
				"z": 0.1703599464,
				"element": "H" 
			},
			{
				"x": -5.0402890904,
				"y": -0.6178398345,
				"z": -0.3010028998,
				"element": "H" 
			},
			{
				"x": -3.4832124559,
				"y": -0.3269697969,
				"z": -2.3502289908,
				"element": "H" 
			},
			{
				"x": -4.9966105783,
				"y": 0.5438962602,
				"z": -2.3058362812,
				"element": "H" 
			},
			{
				"x": -3.7625154413,
				"y": 2.6229286409,
				"z": -1.5450159174,
				"element": "H" 
			},
			{
				"x": -3.4693496423,
				"y": 2.0729159491,
				"z": -3.1819983775,
				"element": "H" 
			},
			{
				"x": -1.3085936638,
				"y": 0.9824725808,
				"z": -2.3861813157,
				"element": "H" 
			},
			{
				"x": -1.5385723126,
				"y": 1.7406431014,
				"z": -0.8298435195,
				"element": "H" 
			},
			{
				"x": -1.2822213078,
				"y": 3.173342164,
				"z": -3.5144967558,
				"element": "H" 
			},
			{
				"x": -1.6094230999,
				"y": 4.0116911372,
				"z": -2.0146969374,
				"element": "H" 
			},
			{
				"x": 0.8983780148,
				"y": 3.7278031732,
				"z": -3.0082866405,
				"element": "H" 
			},
			{
				"x": 0.8433421128,
				"y": 2.2143731617,
				"z": -2.1260846596,
				"element": "H" 
			},
			{
				"x": 0.4632072397,
				"y": 5.0241119543,
				"z": -0.9574358686,
				"element": "H" 
			},
			{
				"x": 1.915930488,
				"y": 4.0365540773,
				"z": -0.8398756616,
				"element": "H" 
			},
			{
				"x": 0.6631199903,
				"y": 4.0506036661,
				"z": 1.2556454292,
				"element": "H" 
			},
			{
				"x": -0.7868750084,
				"y": 3.4246296221,
				"z": 0.4499378104,
				"element": "H" 
			},
			{
				"x": 0.5329071073,
				"y": 1.7441305173,
				"z": 1.4338527427,
				"element": "H" 
			}
		],
		 "valence_orbital": [ 
			{
				"type": "occ",
				"energy": -0.29546,
				"method": "rhf"
			},
			{
				"type": "occ",
				"energy": -0.29476,
				"method": "rhf"
			},
			{
				"type": "occ",
				"energy": -0.29248,
				"method": "rhf"
			},
			{
				"type": "occ",
				"energy": -0.28677,
				"method": "rhf"
			},
			{
				"type": "occ",
				"energy": -0.27211,
				"method": "rhf"
			},
			{
				"type": "unocc",
				"energy": 0.04849,
				"method": "rhf"
			},
			{
				"type": "unocc",
				"energy": 0.08426,
				"method": "rhf"
			},
			{
				"type": "unocc",
				"energy": 0.09012,
				"method": "rhf"
			},
			{
				"type": "unocc",
				"energy": 0.09346,
				"method": "rhf"
			},
			{
				"type": "unocc",
				"energy": 0.1025,
				"method": "rhf"
			}
		],
		"cosmo_sigma_profile": { 
			"-0.025": 0.0,
			"-0.024": 0.0,
			"-0.023": 0.0,
			"-0.022": 0.0,
			"-0.021": 0.0,
			"-0.02": 0.0,
			"-0.019": 0.0,
			"-0.018": 0.0,
			"-0.017": 0.0,
			"-0.016": 0.0,
			"-0.015": 0.223740031316,
			"-0.014": 0.717565189275,
			"-0.013": 0.531997138689,
			"-0.012": 0.88088367164,
			"-0.011": 0.992210596861,
			"-0.01": 0.271939315265,
			"-0.009": 0.559468612623,
			"-0.008": 1.19805250454,
			"-0.007": 1.11464357893,
			"-0.006": 1.00705814578,
			"-0.005": 1.36512025522,
			"-0.004": 2.38103968617,
			"-0.003": 11.937002002,
			"-0.002": 47.0240535019,
			"-0.001": 92.5812720032,
			"0.0": 102.488053127,
			"0.001": 90.3373427253,
			"0.002": 46.0482329065,
			"0.003": 6.07064396779,
			"0.004": 3.94340638576,
			"0.005": 2.98859012836,
			"0.006": 2.94705866838,
			"0.007": 2.52789945532,
			"0.008": 2.20186462988,
			"0.009": 2.32591014589,
			"0.01": 1.22179306234,
			"0.011": 0.122489345236,
			"0.012": 0.0,
			"0.013": 0.0,
			"0.014": 0.0,
			"0.015": 0.0,
			"0.016": 0.0,
			"0.017": 0.0,
			"0.018": 0.0,
			"0.019": 0.0,
			"0.02": 0.0,
			"0.021": 0.0,
			"0.022": 0.0,
			"0.023": 0.0,
			"0.024": 0.0,
			"0.025": 0.0
		}
	}
}
