{
	 "smiles": "[O-][N+](=O)C1=C(Cl)C=CC(=C1)N=C=O", 
	 "Tm": 339.15, 
	 "num_atms": 16, 
	 "gaussian": { 
		 "optdone": 1, 
		 "sigma_profile": "yes", 
		 "theory": "DFT", 
		 "functional": "B3LYP", 
		 "basiset": "6-31G**", 
		 "properties": { 
			 "R2extent": 3499.5511, 
			 "electric_dipole_moment_norm": 3.68888565423, 
			 "electric_quadrupole_moment_norm": 15.9087435013, 
			 "total_energy": -1063.80183873, 
			 "HOMO_LUMO_gap": 0.16166, 
			 "cosmo_polarized_energy": -10.21, 
			 "cosmo_cavitation_energy": 25.11, 
			 "cosmo_dispersion_energy": -18.13, 
			 "cosmo_repulsion_energy": 1.44, 
			 "cosmo_total_nonelectrostatic_energy": 8.42, 
			 "SMD_solvation_energy": 8.68 
		},
		"coords": [
			{
				"x": 0.479502338,
				"y": -3.863723411,
				"z": 1.1413037008,
				"element": "O" 
			},
			{
				"x": 0.4632153347,
				"y": -3.1289465043,
				"z": 0.1607700136,
				"element": "N" 
			},
			{
				"x": 0.5104877424,
				"y": -3.5019292538,
				"z": -1.0106484607,
				"element": "O" 
			},
			{
				"x": 0.4205819776,
				"y": -1.67075582,
				"z": 0.388647275,
				"element": "C" 
			},
			{
				"x": -0.2337131773,
				"y": -1.0847058875,
				"z": 1.4824399509,
				"element": "C" 
			},
			{
				"x": -1.1572339465,
				"y": -1.9758048732,
				"z": 2.6570988069,
				"element": "Cl" 
			},
			{
				"x": -0.1926991922,
				"y": 0.3083483994,
				"z": 1.6077283449,
				"element": "C" 
			},
			{
				"x": 0.4894462304,
				"y": 1.0936694201,
				"z": 0.6875383625,
				"element": "C" 
			},
			{
				"x": 1.1360741415,
				"y": 0.4969249945,
				"z": -0.4065643808,
				"element": "C" 
			},
			{
				"x": 1.0857258955,
				"y": -0.8893974962,
				"z": -0.5541125585,
				"element": "C" 
			},
			{
				"x": 1.8281296046,
				"y": 1.2356101915,
				"z": -1.3619005825,
				"element": "N" 
			},
			{
				"x": 2.1046775149,
				"y": 2.3898766438,
				"z": -1.6079814966,
				"element": "C" 
			},
			{
				"x": 2.4407347221,
				"y": 3.4603611376,
				"z": -1.9589026141,
				"element": "O" 
			},
			{
				"x": -0.7082251742,
				"y": 0.7716325215,
				"z": 2.4412307806,
				"element": "H" 
			},
			{
				"x": 0.515766097,
				"y": 2.1717164701,
				"z": 0.8112935799,
				"element": "H" 
			},
			{
				"x": 1.5616298912,
				"y": -1.3715765326,
				"z": -1.398040722,
				"element": "H" 
			}
		],
		 "valence_orbital": [ 
			{
				"type": "occ",
				"energy": -0.31898,
				"method": "rhf"
			},
			{
				"type": "occ",
				"energy": -0.31831,
				"method": "rhf"
			},
			{
				"type": "occ",
				"energy": -0.30836,
				"method": "rhf"
			},
			{
				"type": "occ",
				"energy": -0.29151,
				"method": "rhf"
			},
			{
				"type": "occ",
				"energy": -0.26115,
				"method": "rhf"
			},
			{
				"type": "unocc",
				"energy": -0.09949,
				"method": "rhf"
			},
			{
				"type": "unocc",
				"energy": -0.05478,
				"method": "rhf"
			},
			{
				"type": "unocc",
				"energy": -0.03224,
				"method": "rhf"
			},
			{
				"type": "unocc",
				"energy": -0.01498,
				"method": "rhf"
			},
			{
				"type": "unocc",
				"energy": 0.00757,
				"method": "rhf"
			}
		],
		"cosmo_sigma_profile": { 
			"-0.025": 0.0,
			"-0.024": 0.0,
			"-0.023": 0.0,
			"-0.022": 0.0,
			"-0.021": 0.0,
			"-0.02": 0.0,
			"-0.019": 0.0,
			"-0.018": 0.0,
			"-0.017": 0.0,
			"-0.016": 0.0,
			"-0.015": 0.0,
			"-0.014": 0.0,
			"-0.013": 0.0,
			"-0.012": 0.0,
			"-0.011": 0.0181034933069,
			"-0.01": 1.93273994417,
			"-0.009": 4.83527203893,
			"-0.008": 7.84895359189,
			"-0.007": 7.79446958646,
			"-0.006": 7.19902592714,
			"-0.005": 8.06786801408,
			"-0.004": 10.5915205609,
			"-0.003": 12.5893552124,
			"-0.002": 16.8777949007,
			"-0.001": 24.6172538832,
			"0.0": 17.4882604754,
			"0.001": 10.9902073986,
			"0.002": 11.4307690632,
			"0.003": 12.284388708,
			"0.004": 8.31789093789,
			"0.005": 6.03960029647,
			"0.006": 10.5119896334,
			"0.007": 16.5114254815,
			"0.008": 6.89002870254,
			"0.009": 3.12229842342,
			"0.01": 0.450796934283,
			"0.011": 0.0,
			"0.012": 0.0,
			"0.013": 0.0,
			"0.014": 0.0,
			"0.015": 0.0,
			"0.016": 0.0,
			"0.017": 0.0,
			"0.018": 0.0,
			"0.019": 0.0,
			"0.02": 0.0,
			"0.021": 0.0,
			"0.022": 0.0,
			"0.023": 0.0,
			"0.024": 0.0,
			"0.025": 0.0
		}
	}
}
