{
	 "smiles": "COC(=O)C1=C(CBr)C=CO1", 
	 "Tm": 324.15, 
	 "num_atms": 18, 
	 "gaussian": { 
		 "optdone": 1, 
		 "sigma_profile": "yes", 
		 "theory": "DFT", 
		 "functional": "B3LYP", 
		 "basiset": "6-31G**", 
		 "properties": { 
			 "R2extent": 3218.7105, 
			 "electric_dipole_moment_norm": 2.93327035406, 
			 "electric_quadrupole_moment_norm": 9.41901628197, 
			 "total_energy": -3068.02318375, 
			 "HOMO_LUMO_gap": 0.19195, 
			 "cosmo_polarized_energy": -9.46, 
			 "cosmo_cavitation_energy": 25.28, 
			 "cosmo_dispersion_energy": -18.73, 
			 "cosmo_repulsion_energy": 1.53, 
			 "cosmo_total_nonelectrostatic_energy": 8.08, 
			 "SMD_solvation_energy": 5.84 
		},
		"coords": [
			{
				"x": -3.4686909706,
				"y": 0.6229391633,
				"z": 1.2556872389,
				"element": "C" 
			},
			{
				"x": -2.33136537,
				"y": -0.1651165726,
				"z": 0.8665549016,
				"element": "O" 
			},
			{
				"x": -1.385654496,
				"y": 0.5014248085,
				"z": 0.1785300495,
				"element": "C" 
			},
			{
				"x": -1.4573281825,
				"y": 1.6836037367,
				"z": -0.1116002972,
				"element": "O" 
			},
			{
				"x": -0.2524339779,
				"y": -0.3549275941,
				"z": -0.1865540073,
				"element": "C" 
			},
			{
				"x": 0.9193397928,
				"y": -0.0635046702,
				"z": -0.8520524035,
				"element": "C" 
			},
			{
				"x": 1.3319025021,
				"y": 1.2557077259,
				"z": -1.3938991703,
				"element": "C" 
			},
			{
				"x": 2.9425737134,
				"y": 1.9675793787,
				"z": -0.4443650541,
				"element": "Br" 
			},
			{
				"x": 1.6391994148,
				"y": -1.2981320763,
				"z": -0.9302750022,
				"element": "C" 
			},
			{
				"x": 0.8616893367,
				"y": -2.2326165304,
				"z": -0.3155577657,
				"element": "C" 
			},
			{
				"x": -0.2898250927,
				"y": -1.6820893609,
				"z": 0.1403215724,
				"element": "O" 
			},
			{
				"x": -3.9748198793,
				"y": 1.0290052857,
				"z": 0.3763330203,
				"element": "H" 
			},
			{
				"x": -4.1243068585,
				"y": -0.060037875,
				"z": 1.7949789,
				"element": "H" 
			},
			{
				"x": -3.1609990514,
				"y": 1.4506186697,
				"z": 1.8994062239,
				"element": "H" 
			},
			{
				"x": 1.6470468388,
				"y": 1.1945740756,
				"z": -2.4346720331,
				"element": "H" 
			},
			{
				"x": 0.5571014402,
				"y": 2.0047297818,
				"z": -1.2610515183,
				"element": "H" 
			},
			{
				"x": 2.6131420434,
				"y": -1.4517619773,
				"z": -1.3717041848,
				"element": "H" 
			},
			{
				"x": 0.9831287967,
				"y": -3.2886959689,
				"z": -0.12878047,
				"element": "H" 
			}
		],
		 "valence_orbital": [ 
			{
				"type": "occ",
				"energy": -0.29372,
				"method": "rhf"
			},
			{
				"type": "occ",
				"energy": -0.28637,
				"method": "rhf"
			},
			{
				"type": "occ",
				"energy": -0.2701,
				"method": "rhf"
			},
			{
				"type": "occ",
				"energy": -0.26696,
				"method": "rhf"
			},
			{
				"type": "occ",
				"energy": -0.24887,
				"method": "rhf"
			},
			{
				"type": "unocc",
				"energy": -0.05692,
				"method": "rhf"
			},
			{
				"type": "unocc",
				"energy": -0.00293,
				"method": "rhf"
			},
			{
				"type": "unocc",
				"energy": 0.03935,
				"method": "rhf"
			},
			{
				"type": "unocc",
				"energy": 0.09592,
				"method": "rhf"
			},
			{
				"type": "unocc",
				"energy": 0.10698,
				"method": "rhf"
			}
		],
		"cosmo_sigma_profile": { 
			"-0.025": 0.0,
			"-0.024": 0.0,
			"-0.023": 0.0,
			"-0.022": 0.0,
			"-0.021": 0.0,
			"-0.02": 0.0,
			"-0.019": 0.0,
			"-0.018": 0.0,
			"-0.017": 0.0,
			"-0.016": 0.0,
			"-0.015": 0.0,
			"-0.014": 0.0,
			"-0.013": 0.0,
			"-0.012": 0.0,
			"-0.011": 0.237904600071,
			"-0.01": 1.72078220858,
			"-0.009": 2.26029281214,
			"-0.008": 5.72721739101,
			"-0.007": 6.02888820635,
			"-0.006": 12.0235757232,
			"-0.005": 13.8163998984,
			"-0.004": 15.621566696,
			"-0.003": 16.6026261012,
			"-0.002": 13.5502644048,
			"-0.001": 12.705364324,
			"0.0": 15.2365447286,
			"0.001": 13.1461699532,
			"0.002": 11.8560745223,
			"0.003": 11.4371712484,
			"0.004": 10.507876095,
			"0.005": 10.5718213605,
			"0.006": 13.8483811695,
			"0.007": 3.73224711838,
			"0.008": 3.77680357677,
			"0.009": 3.20448874587,
			"0.01": 3.60710560406,
			"0.011": 2.86326009391,
			"0.012": 1.57441263722,
			"0.013": 0.000152617481338,
			"0.014": 0.0,
			"0.015": 0.0,
			"0.016": 0.0,
			"0.017": 0.0,
			"0.018": 0.0,
			"0.019": 0.0,
			"0.02": 0.0,
			"0.021": 0.0,
			"0.022": 0.0,
			"0.023": 0.0,
			"0.024": 0.0,
			"0.025": 0.0
		}
	}
}
