{
	 "smiles": "COC1=CC=C(C=C1)C1CCN1S(=O)(=O)C1=CC=C(C)C=C1", 
	 "Tm": 376.15, 
	 "num_atms": 41, 
	 "gaussian": { 
		 "optdone": 1, 
		 "sigma_profile": "yes", 
		 "theory": "DFT", 
		 "functional": "B3LYP", 
		 "basiset": "6-31G**", 
		 "properties": { 
			 "R2extent": 8047.6333, 
			 "electric_dipole_moment_norm": 5.62162321754, 
			 "electric_quadrupole_moment_norm": 25.5744060778, 
			 "total_energy": -1337.77207508, 
			 "HOMO_LUMO_gap": 0.18815, 
			 "cosmo_polarized_energy": -16.44, 
			 "cosmo_cavitation_energy": 45.64, 
			 "cosmo_dispersion_energy": -30.3, 
			 "cosmo_repulsion_energy": 2.33, 
			 "cosmo_total_nonelectrostatic_energy": 17.66, 
			 "SMD_solvation_energy": 6.65 
		},
		"coords": [
			{
				"x": 0.1437192687,
				"y": -4.5958355727,
				"z": 1.2075052667,
				"element": "C" 
			},
			{
				"x": 1.3480231612,
				"y": -3.9643164953,
				"z": 0.8045461685,
				"element": "O" 
			},
			{
				"x": 1.2621465641,
				"y": -2.8123641398,
				"z": 0.077033297,
				"element": "C" 
			},
			{
				"x": 2.4843176676,
				"y": -2.2342824776,
				"z": -0.295397448,
				"element": "C" 
			},
			{
				"x": 2.4999320872,
				"y": -1.0572957544,
				"z": -1.0334488005,
				"element": "C" 
			},
			{
				"x": 1.3080922895,
				"y": -0.430572532,
				"z": -1.4282109292,
				"element": "C" 
			},
			{
				"x": 0.0973982352,
				"y": -1.0154208014,
				"z": -1.04576214,
				"element": "C" 
			},
			{
				"x": 0.0623665653,
				"y": -2.1938741708,
				"z": -0.2981755996,
				"element": "C" 
			},
			{
				"x": 1.3495560045,
				"y": 0.809800135,
				"z": -2.2787509414,
				"element": "C" 
			},
			{
				"x": 0.8645688572,
				"y": 0.7523256425,
				"z": -3.7588270438,
				"element": "C" 
			},
			{
				"x": 0.1258532411,
				"y": 2.0848438809,
				"z": -3.5074825744,
				"element": "C" 
			},
			{
				"x": 0.2696757725,
				"y": 1.8272531989,
				"z": -2.0407214313,
				"element": "N" 
			},
			{
				"x": 0.555578922,
				"y": 3.1608474547,
				"z": -1.0195578571,
				"element": "S" 
			},
			{
				"x": -0.2676882985,
				"y": 4.2464172762,
				"z": -1.5663692362,
				"element": "O" 
			},
			{
				"x": 2.0021912142,
				"y": 3.3378900051,
				"z": -0.8171230987,
				"element": "O" 
			},
			{
				"x": -0.1494707172,
				"y": 2.6369867619,
				"z": 0.539747655,
				"element": "C" 
			},
			{
				"x": -1.5175701595,
				"y": 2.8094451644,
				"z": 0.7607069504,
				"element": "C" 
			},
			{
				"x": -2.0620020915,
				"y": 2.4054611016,
				"z": 1.9765472629,
				"element": "C" 
			},
			{
				"x": -1.2601470238,
				"y": 1.8347648309,
				"z": 2.9773517907,
				"element": "C" 
			},
			{
				"x": -1.8570748306,
				"y": 1.4312331822,
				"z": 4.3042308187,
				"element": "C" 
			},
			{
				"x": 0.1096901054,
				"y": 1.6774385934,
				"z": 2.7277233862,
				"element": "C" 
			},
			{
				"x": 0.6732562809,
				"y": 2.0778469684,
				"z": 1.516910784,
				"element": "C" 
			},
			{
				"x": -0.4561543231,
				"y": -3.9480422204,
				"z": 1.8599952749,
				"element": "H" 
			},
			{
				"x": 0.4413101848,
				"y": -5.4864708858,
				"z": 1.7632285167,
				"element": "H" 
			},
			{
				"x": -0.4655296316,
				"y": -4.8963166613,
				"z": 0.3451937075,
				"element": "H" 
			},
			{
				"x": 3.4038522012,
				"y": -2.721683835,
				"z": 0.0117648578,
				"element": "H" 
			},
			{
				"x": 3.4544637107,
				"y": -0.6150658318,
				"z": -1.3087410069,
				"element": "H" 
			},
			{
				"x": -0.8341966801,
				"y": -0.5294793337,
				"z": -1.3202170618,
				"element": "H" 
			},
			{
				"x": -0.8949007812,
				"y": -2.6142495221,
				"z": -0.0131805729,
				"element": "H" 
			},
			{
				"x": 2.3398458762,
				"y": 1.2766298385,
				"z": -2.2152814171,
				"element": "H" 
			},
			{
				"x": 0.1838629549,
				"y": -0.0839173774,
				"z": -3.9304855709,
				"element": "H" 
			},
			{
				"x": 1.6447802294,
				"y": 0.7558341051,
				"z": -4.5219132726,
				"element": "H" 
			},
			{
				"x": -0.9134987809,
				"y": 2.1707132468,
				"z": -3.8312196174,
				"element": "H" 
			},
			{
				"x": 0.6858403337,
				"y": 2.9601292713,
				"z": -3.8522527138,
				"element": "H" 
			},
			{
				"x": -2.1349617685,
				"y": 3.2650136116,
				"z": -0.0058092618,
				"element": "H" 
			},
			{
				"x": -3.1258053089,
				"y": 2.5392939524,
				"z": 2.1553777632,
				"element": "H" 
			},
			{
				"x": -1.258253157,
				"y": 0.6587035649,
				"z": 4.7948213083,
				"element": "H" 
			},
			{
				"x": -1.9088905339,
				"y": 2.2882294522,
				"z": 4.9872794283,
				"element": "H" 
			},
			{
				"x": -2.8760219821,
				"y": 1.0503203741,
				"z": 4.1857298733,
				"element": "H" 
			},
			{
				"x": 0.7460768049,
				"y": 1.2390427759,
				"z": 3.4918191267,
				"element": "H" 
			},
			{
				"x": 1.7354675361,
				"y": 1.9675232226,
				"z": 1.3300143583,
				"element": "H" 
			}
		],
		 "valence_orbital": [ 
			{
				"type": "occ",
				"energy": -0.2665,
				"method": "rhf"
			},
			{
				"type": "occ",
				"energy": -0.26218,
				"method": "rhf"
			},
			{
				"type": "occ",
				"energy": -0.25296,
				"method": "rhf"
			},
			{
				"type": "occ",
				"energy": -0.24529,
				"method": "rhf"
			},
			{
				"type": "occ",
				"energy": -0.21785,
				"method": "rhf"
			},
			{
				"type": "unocc",
				"energy": -0.0297,
				"method": "rhf"
			},
			{
				"type": "unocc",
				"energy": -0.01336,
				"method": "rhf"
			},
			{
				"type": "unocc",
				"energy": -0.00571,
				"method": "rhf"
			},
			{
				"type": "unocc",
				"energy": 0.00388,
				"method": "rhf"
			},
			{
				"type": "unocc",
				"energy": 0.0615,
				"method": "rhf"
			}
		],
		"cosmo_sigma_profile": { 
			"-0.025": 0.0,
			"-0.024": 0.0,
			"-0.023": 0.0,
			"-0.022": 0.0,
			"-0.021": 0.0,
			"-0.02": 0.0,
			"-0.019": 0.0,
			"-0.018": 0.0,
			"-0.017": 0.0,
			"-0.016": 0.0,
			"-0.015": 0.0,
			"-0.014": 0.0,
			"-0.013": 0.0,
			"-0.012": 0.0,
			"-0.011": 0.0,
			"-0.01": 0.0,
			"-0.009": 0.0,
			"-0.008": 0.0,
			"-0.007": 2.68470356265,
			"-0.006": 17.9856003517,
			"-0.005": 37.4310640918,
			"-0.004": 41.1833090695,
			"-0.003": 36.6761898052,
			"-0.002": 30.7849335919,
			"-0.001": 29.1965088976,
			"0.0": 22.0662939691,
			"0.001": 17.8905817833,
			"0.002": 20.5170011273,
			"0.003": 27.3637040049,
			"0.004": 21.8966435804,
			"0.005": 14.5966307348,
			"0.006": 6.65296060609,
			"0.007": 4.98505175902,
			"0.008": 4.29315962864,
			"0.009": 5.06099202916,
			"0.01": 7.10788499808,
			"0.011": 9.25084407965,
			"0.012": 4.50251004207,
			"0.013": 0.0184956621373,
			"0.014": 0.0,
			"0.015": 0.0,
			"0.016": 0.0,
			"0.017": 0.0,
			"0.018": 0.0,
			"0.019": 0.0,
			"0.02": 0.0,
			"0.021": 0.0,
			"0.022": 0.0,
			"0.023": 0.0,
			"0.024": 0.0,
			"0.025": 0.0
		}
	}
}
