{
	 "smiles": "COC1=C(Cl)C=C(C=O)C=C1", 
	 "Tm": 330.15, 
	 "num_atms": 18, 
	 "gaussian": { 
		 "optdone": 1, 
		 "sigma_profile": "yes", 
		 "theory": "DFT", 
		 "functional": "B3LYP", 
		 "basiset": "6-31G**", 
		 "properties": { 
			 "R2extent": 2931.8995, 
			 "electric_dipole_moment_norm": 3.43651439834, 
			 "electric_quadrupole_moment_norm": 14.6796337676, 
			 "total_energy": -919.688228959, 
			 "HOMO_LUMO_gap": 0.17761, 
			 "cosmo_polarized_energy": -10.3, 
			 "cosmo_cavitation_energy": 24.47, 
			 "cosmo_dispersion_energy": -18.0, 
			 "cosmo_repulsion_energy": 1.44, 
			 "cosmo_total_nonelectrostatic_energy": 7.91, 
			 "SMD_solvation_energy": 5.88 
		},
		"coords": [
			{
				"x": 1.4519607688,
				"y": -1.6078432683,
				"z": -2.5491239666,
				"element": "C" 
			},
			{
				"x": 0.6807992917,
				"y": -0.4193602146,
				"z": -2.6881379684,
				"element": "O" 
			},
			{
				"x": -0.0156178185,
				"y": 0.0343080419,
				"z": -1.6250903565,
				"element": "C" 
			},
			{
				"x": -0.7648591208,
				"y": 1.2168336342,
				"z": -1.8139484536,
				"element": "C" 
			},
			{
				"x": -0.7474687983,
				"y": 2.0053798547,
				"z": -3.3753613755,
				"element": "Cl" 
			},
			{
				"x": -1.5098203645,
				"y": 1.7535262713,
				"z": -0.7755168677,
				"element": "C" 
			},
			{
				"x": -1.5292296957,
				"y": 1.1275290453,
				"z": 0.4794785428,
				"element": "C" 
			},
			{
				"x": -2.3250335996,
				"y": 1.7050346626,
				"z": 1.5804546665,
				"element": "C" 
			},
			{
				"x": -2.4009884923,
				"y": 1.2319748471,
				"z": 2.6995928361,
				"element": "O" 
			},
			{
				"x": -0.7885327359,
				"y": -0.0450665426,
				"z": 0.6730827629,
				"element": "C" 
			},
			{
				"x": -0.0402741891,
				"y": -0.5872691263,
				"z": -0.3638652485,
				"element": "C" 
			},
			{
				"x": 2.2329502818,
				"y": -1.4918268435,
				"z": -1.7884082616,
				"element": "H" 
			},
			{
				"x": 1.9159412862,
				"y": -1.7724769004,
				"z": -3.5217656647,
				"element": "H" 
			},
			{
				"x": 0.8203831925,
				"y": -2.467867169,
				"z": -2.2970281067,
				"element": "H" 
			},
			{
				"x": -2.0785669124,
				"y": 2.6636317787,
				"z": -0.9428948576,
				"element": "H" 
			},
			{
				"x": -2.8733602903,
				"y": 2.6368322896,
				"z": 1.3158992684,
				"element": "H" 
			},
			{
				"x": -0.8131100954,
				"y": -0.5183320217,
				"z": 1.649376326,
				"element": "H" 
			},
			{
				"x": 0.5273272917,
				"y": -1.4949083388,
				"z": -0.1979432753,
				"element": "H" 
			}
		],
		 "valence_orbital": [ 
			{
				"type": "occ",
				"energy": -0.33209,
				"method": "rhf"
			},
			{
				"type": "occ",
				"energy": -0.31567,
				"method": "rhf"
			},
			{
				"type": "occ",
				"energy": -0.26694,
				"method": "rhf"
			},
			{
				"type": "occ",
				"energy": -0.25549,
				"method": "rhf"
			},
			{
				"type": "occ",
				"energy": -0.23897,
				"method": "rhf"
			},
			{
				"type": "unocc",
				"energy": -0.06136,
				"method": "rhf"
			},
			{
				"type": "unocc",
				"energy": -0.02465,
				"method": "rhf"
			},
			{
				"type": "unocc",
				"energy": 0.02486,
				"method": "rhf"
			},
			{
				"type": "unocc",
				"energy": 0.04019,
				"method": "rhf"
			},
			{
				"type": "unocc",
				"energy": 0.08511,
				"method": "rhf"
			}
		],
		"cosmo_sigma_profile": { 
			"-0.025": 0.0,
			"-0.024": 0.0,
			"-0.023": 0.0,
			"-0.022": 0.0,
			"-0.021": 0.0,
			"-0.02": 0.0,
			"-0.019": 0.0,
			"-0.018": 0.0,
			"-0.017": 0.0,
			"-0.016": 0.0,
			"-0.015": 0.0,
			"-0.014": 0.0,
			"-0.013": 0.0,
			"-0.012": 0.0,
			"-0.011": 0.0,
			"-0.01": 0.0,
			"-0.009": 0.493905341008,
			"-0.008": 4.77514441243,
			"-0.007": 10.0969331116,
			"-0.006": 16.7782572568,
			"-0.005": 13.7630158152,
			"-0.004": 14.863503943,
			"-0.003": 10.083591071,
			"-0.002": 10.6915220269,
			"-0.001": 10.5131715236,
			"0.0": 14.0071783575,
			"0.001": 20.0984070803,
			"0.002": 17.6576835293,
			"0.003": 10.4228488662,
			"0.004": 10.5215637368,
			"0.005": 7.98737954512,
			"0.006": 3.10351124426,
			"0.007": 3.634656612,
			"0.008": 3.31326302132,
			"0.009": 3.6701541758,
			"0.01": 3.33735115727,
			"0.011": 3.93924035167,
			"0.012": 3.39935479829,
			"0.013": 1.06871302,
			"0.014": 0.00316168163124,
			"0.015": 0.0,
			"0.016": 0.0,
			"0.017": 0.0,
			"0.018": 0.0,
			"0.019": 0.0,
			"0.02": 0.0,
			"0.021": 0.0,
			"0.022": 0.0,
			"0.023": 0.0,
			"0.024": 0.0,
			"0.025": 0.0
		}
	}
}
