{
	 "smiles": "ClP1OC2=C(O1)C=CC=C2", 
	 "Tm": 303.15, 
	 "num_atms": 14, 
	 "gaussian": { 
		 "optdone": 1, 
		 "sigma_profile": "yes", 
		 "theory": "DFT", 
		 "functional": "B3LYP", 
		 "basiset": "6-31G**", 
		 "properties": { 
			 "R2extent": 1984.4276, 
			 "electric_dipole_moment_norm": 2.75042727772, 
			 "electric_quadrupole_moment_norm": 8.23852864594, 
			 "total_energy": -1183.0850609, 
			 "HOMO_LUMO_gap": 0.20868, 
			 "cosmo_polarized_energy": -5.68, 
			 "cosmo_cavitation_energy": 21.35, 
			 "cosmo_dispersion_energy": -17.74, 
			 "cosmo_repulsion_energy": 1.7, 
			 "cosmo_total_nonelectrostatic_energy": 5.31, 
			 "SMD_solvation_energy": 4.07 
		},
		"coords": [
			{
				"x": 0.5642368933,
				"y": 3.3380954663,
				"z": -0.6758134566,
				"element": "Cl" 
			},
			{
				"x": 1.4453374967,
				"y": 1.8825423131,
				"z": 0.6164092097,
				"element": "P" 
			},
			{
				"x": 0.1106506567,
				"y": 1.4100598642,
				"z": 1.5076631244,
				"element": "O" 
			},
			{
				"x": -0.5439499994,
				"y": 0.3657868435,
				"z": 0.8708120121,
				"element": "C" 
			},
			{
				"x": 0.191912831,
				"y": -0.1388686851,
				"z": -0.1993049059,
				"element": "C" 
			},
			{
				"x": 1.3974975258,
				"y": 0.5275428387,
				"z": -0.3637264643,
				"element": "O" 
			},
			{
				"x": -0.2625899405,
				"y": -1.2036952032,
				"z": -0.9587609081,
				"element": "C" 
			},
			{
				"x": -1.5008508279,
				"y": -1.7560019746,
				"z": -0.603880101,
				"element": "C" 
			},
			{
				"x": -2.2393210353,
				"y": -1.2495344505,
				"z": 0.4699843799,
				"element": "C" 
			},
			{
				"x": -1.7684335838,
				"y": -0.1709492676,
				"z": 1.2310207203,
				"element": "C" 
			},
			{
				"x": 0.3222117662,
				"y": -1.5835933889,
				"z": -1.7886175399,
				"element": "H" 
			},
			{
				"x": -1.8914216385,
				"y": -2.5903245603,
				"z": -1.1776476759,
				"element": "H" 
			},
			{
				"x": -3.1967152892,
				"y": -1.6950971935,
				"z": 0.7204264863,
				"element": "H" 
			},
			{
				"x": -2.3284648553,
				"y": 0.2343373979,
				"z": 2.065935119,
				"element": "H" 
			}
		],
		 "valence_orbital": [ 
			{
				"type": "occ",
				"energy": -0.32742,
				"method": "rhf"
			},
			{
				"type": "occ",
				"energy": -0.32244,
				"method": "rhf"
			},
			{
				"type": "occ",
				"energy": -0.29802,
				"method": "rhf"
			},
			{
				"type": "occ",
				"energy": -0.26393,
				"method": "rhf"
			},
			{
				"type": "occ",
				"energy": -0.24107,
				"method": "rhf"
			},
			{
				"type": "unocc",
				"energy": -0.03239,
				"method": "rhf"
			},
			{
				"type": "unocc",
				"energy": -0.03057,
				"method": "rhf"
			},
			{
				"type": "unocc",
				"energy": -0.01019,
				"method": "rhf"
			},
			{
				"type": "unocc",
				"energy": -0.00511,
				"method": "rhf"
			},
			{
				"type": "unocc",
				"energy": 0.05046,
				"method": "rhf"
			}
		],
		"cosmo_sigma_profile": { 
			"-0.025": 0.0,
			"-0.024": 0.0,
			"-0.023": 0.0,
			"-0.022": 0.0,
			"-0.021": 0.0,
			"-0.02": 0.0,
			"-0.019": 0.0,
			"-0.018": 0.0,
			"-0.017": 0.0,
			"-0.016": 0.0,
			"-0.015": 0.0,
			"-0.014": 0.0,
			"-0.013": 0.0,
			"-0.012": 0.0,
			"-0.011": 0.0,
			"-0.01": 0.0,
			"-0.009": 0.288054670472,
			"-0.008": 3.58551162201,
			"-0.007": 7.23595867911,
			"-0.006": 10.8519062312,
			"-0.005": 13.0515392607,
			"-0.004": 10.9911038866,
			"-0.003": 9.18865418144,
			"-0.002": 9.66102504603,
			"-0.001": 9.70423336653,
			"0.0": 10.6222287683,
			"0.001": 17.533825404,
			"0.002": 16.4114219649,
			"0.003": 16.7843809499,
			"0.004": 16.2790923037,
			"0.005": 15.4368814195,
			"0.006": 5.49571574614,
			"0.007": 3.56551926758,
			"0.008": 1.16501816694,
			"0.009": 0.0,
			"0.01": 0.0,
			"0.011": 0.0,
			"0.012": 0.0,
			"0.013": 0.0,
			"0.014": 0.0,
			"0.015": 0.0,
			"0.016": 0.0,
			"0.017": 0.0,
			"0.018": 0.0,
			"0.019": 0.0,
			"0.02": 0.0,
			"0.021": 0.0,
			"0.022": 0.0,
			"0.023": 0.0,
			"0.024": 0.0,
			"0.025": 0.0
		}
	}
}
