{
	 "smiles": "O=CC1=CC(=NN1)C12CC3CC(CC(C3)C1)C2", 
	 "Tm": 408.15, 
	 "num_atms": 35, 
	 "gaussian": { 
		 "optdone": 1, 
		 "sigma_profile": "yes", 
		 "theory": "DFT", 
		 "functional": "B3LYP", 
		 "basiset": "6-31G**", 
		 "properties": { 
			 "R2extent": 5216.36, 
			 "electric_dipole_moment_norm": 2.26292943991, 
			 "electric_quadrupole_moment_norm": 11.5915209628, 
			 "total_energy": -729.069703271, 
			 "HOMO_LUMO_gap": 0.18688, 
			 "cosmo_polarized_energy": -9.21, 
			 "cosmo_cavitation_energy": 33.87, 
			 "cosmo_dispersion_energy": -25.05, 
			 "cosmo_repulsion_energy": 1.91, 
			 "cosmo_total_nonelectrostatic_energy": 10.72, 
			 "SMD_solvation_energy": 4.53 
		},
		"coords": [
			{
				"x": -4.276056642,
				"y": -2.1207214993,
				"z": -4.0595754755,
				"element": "O" 
			},
			{
				"x": -3.6787447444,
				"y": -2.2118331241,
				"z": -2.9982266304,
				"element": "C" 
			},
			{
				"x": -2.7637829875,
				"y": -1.1874783425,
				"z": -2.5113396509,
				"element": "C" 
			},
			{
				"x": -1.987940579,
				"y": -1.0728850804,
				"z": -1.3611110851,
				"element": "C" 
			},
			{
				"x": -1.3191652081,
				"y": 0.1650367872,
				"z": -1.484184599,
				"element": "C" 
			},
			{
				"x": -1.6627214277,
				"y": 0.7718060876,
				"z": -2.6371285155,
				"element": "N" 
			},
			{
				"x": -2.5251015422,
				"y": -0.0558678366,
				"z": -3.2302861706,
				"element": "N" 
			},
			{
				"x": -0.3398431029,
				"y": 0.8311745878,
				"z": -0.543423095,
				"element": "C" 
			},
			{
				"x": -0.8917985238,
				"y": 2.2113536832,
				"z": -0.0859066897,
				"element": "C" 
			},
			{
				"x": 0.1089396425,
				"y": 2.9070890094,
				"z": 0.8580206015,
				"element": "C" 
			},
			{
				"x": 1.4470666727,
				"y": 3.1225125755,
				"z": 0.1214248741,
				"element": "C" 
			},
			{
				"x": 2.0188429745,
				"y": 1.7588872257,
				"z": -0.3180459439,
				"element": "C" 
			},
			{
				"x": 2.2512075379,
				"y": 0.874682279,
				"z": 0.9241667474,
				"element": "C" 
			},
			{
				"x": 0.9121477444,
				"y": 0.6581118277,
				"z": 1.6587353841,
				"element": "C" 
			},
			{
				"x": 0.3423923481,
				"y": 2.0221655713,
				"z": 2.0995387123,
				"element": "C" 
			},
			{
				"x": -0.088596175,
				"y": -0.0374708583,
				"z": 0.7126982563,
				"element": "C" 
			},
			{
				"x": 1.019546808,
				"y": 1.0622839073,
				"z": -1.2628142756,
				"element": "C" 
			},
			{
				"x": -3.7990796828,
				"y": -3.0911221864,
				"z": -2.333718379,
				"element": "H" 
			},
			{
				"x": -1.9234748172,
				"y": -1.7887698179,
				"z": -0.5557637247,
				"element": "H" 
			},
			{
				"x": -2.9380116583,
				"y": 0.1707944733,
				"z": -4.1240810204,
				"element": "H" 
			},
			{
				"x": -1.8550994429,
				"y": 2.0683234127,
				"z": 0.4211599801,
				"element": "H" 
			},
			{
				"x": -1.0857818837,
				"y": 2.8308307518,
				"z": -0.9686587184,
				"element": "H" 
			},
			{
				"x": -0.3021874685,
				"y": 3.8763870521,
				"z": 1.1676735385,
				"element": "H" 
			},
			{
				"x": 2.1608154442,
				"y": 3.6369823644,
				"z": 0.7781932752,
				"element": "H" 
			},
			{
				"x": 1.2957086386,
				"y": 3.7673663335,
				"z": -0.753916542,
				"element": "H" 
			},
			{
				"x": 2.9687822507,
				"y": 1.9099529653,
				"z": -0.8464827532,
				"element": "H" 
			},
			{
				"x": 2.9764631214,
				"y": 1.3499707654,
				"z": 1.5974979098,
				"element": "H" 
			},
			{
				"x": 2.6788877242,
				"y": -0.0915115185,
				"z": 0.62539308,
				"element": "H" 
			},
			{
				"x": 1.0731046804,
				"y": 0.0236547847,
				"z": 2.5395654663,
				"element": "H" 
			},
			{
				"x": -0.6002761951,
				"y": 1.8796501656,
				"z": 2.6443072524,
				"element": "H" 
			},
			{
				"x": 1.0388970029,
				"y": 2.5146601554,
				"z": 2.7906152439,
				"element": "H" 
			},
			{
				"x": 0.3021696554,
				"y": -1.0196172519,
				"z": 0.4144283934,
				"element": "H" 
			},
			{
				"x": -1.036302876,
				"y": -0.2148470612,
				"z": 1.238705816,
				"element": "H" 
			},
			{
				"x": 1.4230378956,
				"y": 0.0975136857,
				"z": -1.5973903903,
				"element": "H" 
			},
			{
				"x": 0.8518548155,
				"y": 1.6659341255,
				"z": -2.1617708721,
				"element": "H" 
			}
		],
		 "valence_orbital": [ 
			{
				"type": "occ",
				"energy": -0.28351,
				"method": "rhf"
			},
			{
				"type": "occ",
				"energy": -0.27625,
				"method": "rhf"
			},
			{
				"type": "occ",
				"energy": -0.2655,
				"method": "rhf"
			},
			{
				"type": "occ",
				"energy": -0.26534,
				"method": "rhf"
			},
			{
				"type": "occ",
				"energy": -0.25116,
				"method": "rhf"
			},
			{
				"type": "unocc",
				"energy": -0.06428,
				"method": "rhf"
			},
			{
				"type": "unocc",
				"energy": 0.03617,
				"method": "rhf"
			},
			{
				"type": "unocc",
				"energy": 0.06858,
				"method": "rhf"
			},
			{
				"type": "unocc",
				"energy": 0.0891,
				"method": "rhf"
			},
			{
				"type": "unocc",
				"energy": 0.09103,
				"method": "rhf"
			}
		],
		"cosmo_sigma_profile": { 
			"-0.025": 0.0,
			"-0.024": 0.0,
			"-0.023": 0.0,
			"-0.022": 0.0,
			"-0.021": 0.0,
			"-0.02": 0.0,
			"-0.019": 0.0,
			"-0.018": 0.0,
			"-0.017": 0.1435506754,
			"-0.016": 0.926795387196,
			"-0.015": 0.692104743788,
			"-0.014": 1.25365699476,
			"-0.013": 0.260250216301,
			"-0.012": 0.804566644617,
			"-0.011": 1.04738505047,
			"-0.01": 0.813911996776,
			"-0.009": 0.416804139763,
			"-0.008": 1.6932268387,
			"-0.007": 7.79956308341,
			"-0.006": 5.2434342504,
			"-0.005": 4.50242664094,
			"-0.004": 5.43442731713,
			"-0.003": 8.61528555763,
			"-0.002": 37.6949017689,
			"-0.001": 50.283217861,
			"0.0": 43.0280635404,
			"0.001": 32.9455070997,
			"0.002": 15.4360767535,
			"0.003": 8.1030653562,
			"0.004": 6.03770870474,
			"0.005": 3.99670952995,
			"0.006": 2.78102095413,
			"0.007": 3.30037179043,
			"0.008": 3.514098429,
			"0.009": 2.60777155321,
			"0.01": 3.63306656984,
			"0.011": 4.91727770074,
			"0.012": 2.89415338445,
			"0.013": 1.5025797255,
			"0.014": 0.309267534498,
			"0.015": 0.300989525407,
			"0.016": 0.0,
			"0.017": 0.0,
			"0.018": 0.0,
			"0.019": 0.0,
			"0.02": 0.0,
			"0.021": 0.0,
			"0.022": 0.0,
			"0.023": 0.0,
			"0.024": 0.0,
			"0.025": 0.0
		}
	}
}
