{
	 "smiles": "CCNC(=O)C1=CC(NC(=O)CCl)=CC=C1", 
	 "Tm": 447.15, 
	 "num_atms": 29, 
	 "gaussian": { 
		 "optdone": 1, 
		 "sigma_profile": "yes", 
		 "theory": "DFT", 
		 "functional": "B3LYP", 
		 "basiset": "6-31G**", 
		 "properties": { 
			 "R2extent": 5760.7834, 
			 "electric_dipole_moment_norm": 3.65774468765, 
			 "electric_quadrupole_moment_norm": 15.7362376755, 
			 "total_energy": -1147.18685396, 
			 "HOMO_LUMO_gap": 0.19624, 
			 "cosmo_polarized_energy": -17.53, 
			 "cosmo_cavitation_energy": 34.58, 
			 "cosmo_dispersion_energy": -24.62, 
			 "cosmo_repulsion_energy": 1.95, 
			 "cosmo_total_nonelectrostatic_energy": 11.91, 
			 "SMD_solvation_energy": 6.36 
		},
		"coords": [
			{
				"x": 1.8356987144,
				"y": -0.1886735838,
				"z": 3.0768782383,
				"element": "C" 
			},
			{
				"x": 2.0019443215,
				"y": 0.7028207983,
				"z": 1.8445605768,
				"element": "C" 
			},
			{
				"x": 1.1365849048,
				"y": 1.8840423057,
				"z": 1.8719339272,
				"element": "N" 
			},
			{
				"x": 0.297413354,
				"y": 2.3630693874,
				"z": 0.894256619,
				"element": "C" 
			},
			{
				"x": 0.0012510932,
				"y": 3.5540226332,
				"z": 0.8435188884,
				"element": "O" 
			},
			{
				"x": -0.298398316,
				"y": 1.3894533947,
				"z": -0.088188396,
				"element": "C" 
			},
			{
				"x": -0.7266789115,
				"y": 0.1158044577,
				"z": 0.3031481612,
				"element": "C" 
			},
			{
				"x": -1.3486611922,
				"y": -0.724453998,
				"z": -0.6300020053,
				"element": "C" 
			},
			{
				"x": -1.8175294611,
				"y": -2.0179728155,
				"z": -0.3034937493,
				"element": "N" 
			},
			{
				"x": -1.6764660364,
				"y": -2.6973814996,
				"z": 0.8660941191,
				"element": "C" 
			},
			{
				"x": -1.1119377912,
				"y": -2.2988309347,
				"z": 1.8772498198,
				"element": "O" 
			},
			{
				"x": -2.2899689749,
				"y": -4.1010371432,
				"z": 0.9376676795,
				"element": "C" 
			},
			{
				"x": -3.0847544521,
				"y": -4.7394492485,
				"z": -0.5654164014,
				"element": "Cl" 
			},
			{
				"x": -1.534127289,
				"y": -0.2842266114,
				"z": -1.9483091865,
				"element": "C" 
			},
			{
				"x": -1.1177413014,
				"y": 0.9911083829,
				"z": -2.3241752732,
				"element": "C" 
			},
			{
				"x": -0.5112934277,
				"y": 1.8362524007,
				"z": -1.3975551898,
				"element": "C" 
			},
			{
				"x": 0.838452494,
				"y": -0.6351073821,
				"z": 3.1165139659,
				"element": "H" 
			},
			{
				"x": 2.5704711421,
				"y": -1.0005131874,
				"z": 3.0550876911,
				"element": "H" 
			},
			{
				"x": 1.9947905785,
				"y": 0.3818709194,
				"z": 3.9983192654,
				"element": "H" 
			},
			{
				"x": 3.0463885976,
				"y": 1.0351506092,
				"z": 1.7658054642,
				"element": "H" 
			},
			{
				"x": 1.7854582993,
				"y": 0.139069319,
				"z": 0.9357724306,
				"element": "H" 
			},
			{
				"x": 1.4351611789,
				"y": 2.6347972543,
				"z": 2.483875839,
				"element": "H" 
			},
			{
				"x": -0.6118474299,
				"y": -0.2211300402,
				"z": 1.3222110731,
				"element": "H" 
			},
			{
				"x": -2.307040669,
				"y": -2.5097043288,
				"z": -1.0405117417,
				"element": "H" 
			},
			{
				"x": -3.045183132,
				"y": -4.1025270766,
				"z": 1.7241802002,
				"element": "H" 
			},
			{
				"x": -1.4998211495,
				"y": -4.8020803573,
				"z": 1.2065520798,
				"element": "H" 
			},
			{
				"x": -2.0114191712,
				"y": -0.9377787301,
				"z": -2.6747905586,
				"element": "H" 
			},
			{
				"x": -1.2761948652,
				"y": 1.325286732,
				"z": -3.3450739832,
				"element": "H" 
			},
			{
				"x": -0.2072511082,
				"y": 2.8419183426,
				"z": -1.6655095536,
				"element": "H" 
			}
		],
		 "valence_orbital": [ 
			{
				"type": "occ",
				"energy": -0.27389,
				"method": "rhf"
			},
			{
				"type": "occ",
				"energy": -0.26359,
				"method": "rhf"
			},
			{
				"type": "occ",
				"energy": -0.25206,
				"method": "rhf"
			},
			{
				"type": "occ",
				"energy": -0.24055,
				"method": "rhf"
			},
			{
				"type": "occ",
				"energy": -0.2311,
				"method": "rhf"
			},
			{
				"type": "unocc",
				"energy": -0.03486,
				"method": "rhf"
			},
			{
				"type": "unocc",
				"energy": -0.02526,
				"method": "rhf"
			},
			{
				"type": "unocc",
				"energy": 0.00214,
				"method": "rhf"
			},
			{
				"type": "unocc",
				"energy": 0.02397,
				"method": "rhf"
			},
			{
				"type": "unocc",
				"energy": 0.05865,
				"method": "rhf"
			}
		],
		"cosmo_sigma_profile": { 
			"-0.025": 0.0,
			"-0.024": 0.0,
			"-0.023": 0.0,
			"-0.022": 0.0,
			"-0.021": 0.0,
			"-0.02": 0.0,
			"-0.019": 0.0,
			"-0.018": 0.0,
			"-0.017": 0.0,
			"-0.016": 0.0,
			"-0.015": 0.0,
			"-0.014": 0.232014363641,
			"-0.013": 1.88952572476,
			"-0.012": 1.96594941573,
			"-0.011": 2.05084767413,
			"-0.01": 2.68909765327,
			"-0.009": 6.30578091387,
			"-0.008": 6.98900458919,
			"-0.007": 7.77931173386,
			"-0.006": 10.6424727686,
			"-0.005": 14.9288646989,
			"-0.004": 18.6488063424,
			"-0.003": 18.0407584858,
			"-0.002": 21.294716207,
			"-0.001": 20.6763244306,
			"0.0": 22.2963992263,
			"0.001": 22.2925058282,
			"0.002": 15.7606858283,
			"0.003": 17.7088896097,
			"0.004": 17.8786766976,
			"0.005": 12.6690529279,
			"0.006": 4.42874756542,
			"0.007": 3.55423081921,
			"0.008": 3.35288643836,
			"0.009": 2.79911275202,
			"0.01": 2.7878850036,
			"0.011": 3.18429104375,
			"0.012": 3.25935846712,
			"0.013": 4.8780917504,
			"0.014": 5.06593213778,
			"0.015": 0.959349653482,
			"0.016": 0.0,
			"0.017": 0.0,
			"0.018": 0.0,
			"0.019": 0.0,
			"0.02": 0.0,
			"0.021": 0.0,
			"0.022": 0.0,
			"0.023": 0.0,
			"0.024": 0.0,
			"0.025": 0.0
		}
	}
}
