{
	 "smiles": "BrC1=NC=CC(C=O)=C1", 
	 "Tm": 327.15, 
	 "num_atms": 13, 
	 "gaussian": { 
		 "optdone": 1, 
		 "sigma_profile": "yes", 
		 "theory": "DFT", 
		 "functional": "B3LYP", 
		 "basiset": "6-31G**", 
		 "properties": { 
			 "R2extent": 2815.1901, 
			 "electric_dipole_moment_norm": 3.09919771715, 
			 "electric_quadrupole_moment_norm": 10.6382191047, 
			 "total_energy": -2932.40704669, 
			 "HOMO_LUMO_gap": 0.17136, 
			 "cosmo_polarized_energy": -9.52, 
			 "cosmo_cavitation_energy": 20.6, 
			 "cosmo_dispersion_energy": -15.56, 
			 "cosmo_repulsion_energy": 1.27, 
			 "cosmo_total_nonelectrostatic_energy": 6.32, 
			 "SMD_solvation_energy": 2.19 
		},
		"coords": [
			{
				"x": -2.9878729036,
				"y": 0.153210584,
				"z": 1.7587094089,
				"element": "Br" 
			},
			{
				"x": -1.650001666,
				"y": 0.476532511,
				"z": 0.4230126763,
				"element": "C" 
			},
			{
				"x": -1.67642046,
				"y": -0.3031635343,
				"z": -0.6459922115,
				"element": "N" 
			},
			{
				"x": -0.749388243,
				"y": -0.0926190775,
				"z": -1.5907396479,
				"element": "C" 
			},
			{
				"x": 0.2253776481,
				"y": 0.8986801232,
				"z": -1.4936165636,
				"element": "C" 
			},
			{
				"x": 0.2329259662,
				"y": 1.7102983205,
				"z": -0.3541359609,
				"element": "C" 
			},
			{
				"x": 1.2509420892,
				"y": 2.7872507811,
				"z": -0.1936880369,
				"element": "C" 
			},
			{
				"x": 1.3113444328,
				"y": 3.523481302,
				"z": 0.7681449549,
				"element": "O" 
			},
			{
				"x": -0.7288113454,
				"y": 1.5002123132,
				"z": 0.637842535,
				"element": "C" 
			},
			{
				"x": -0.795558604,
				"y": -0.7480181825,
				"z": -2.4571562706,
				"element": "H" 
			},
			{
				"x": 0.9586890137,
				"y": 1.0354574477,
				"z": -2.2831498638,
				"element": "H" 
			},
			{
				"x": 1.9712361479,
				"y": 2.8747125309,
				"z": -1.035564139,
				"element": "H" 
			},
			{
				"x": -0.7425620759,
				"y": 2.1160648807,
				"z": 1.5286331192,
				"element": "H" 
			}
		],
		 "valence_orbital": [ 
			{
				"type": "occ",
				"energy": -0.31028,
				"method": "rhf"
			},
			{
				"type": "occ",
				"energy": -0.29733,
				"method": "rhf"
			},
			{
				"type": "occ",
				"energy": -0.28588,
				"method": "rhf"
			},
			{
				"type": "occ",
				"energy": -0.27902,
				"method": "rhf"
			},
			{
				"type": "occ",
				"energy": -0.26691,
				"method": "rhf"
			},
			{
				"type": "unocc",
				"energy": -0.09555,
				"method": "rhf"
			},
			{
				"type": "unocc",
				"energy": -0.04058,
				"method": "rhf"
			},
			{
				"type": "unocc",
				"energy": 0.00163,
				"method": "rhf"
			},
			{
				"type": "unocc",
				"energy": 0.00906,
				"method": "rhf"
			},
			{
				"type": "unocc",
				"energy": 0.09203,
				"method": "rhf"
			}
		],
		"cosmo_sigma_profile": { 
			"-0.025": 0.0,
			"-0.024": 0.0,
			"-0.023": 0.0,
			"-0.022": 0.0,
			"-0.021": 0.0,
			"-0.02": 0.0,
			"-0.019": 0.0,
			"-0.018": 0.0,
			"-0.017": 0.0,
			"-0.016": 0.0,
			"-0.015": 0.0,
			"-0.014": 0.0,
			"-0.013": 0.0,
			"-0.012": 0.0,
			"-0.011": 0.00342682613672,
			"-0.01": 0.931217379354,
			"-0.009": 3.35480659033,
			"-0.008": 8.11137384092,
			"-0.007": 8.78745164745,
			"-0.006": 8.05492162439,
			"-0.005": 7.55092865434,
			"-0.004": 8.31492065569,
			"-0.003": 8.59073079318,
			"-0.002": 13.5443915296,
			"-0.001": 20.2257883517,
			"0.0": 13.4621432317,
			"0.001": 7.07553644215,
			"0.002": 8.48975610288,
			"0.003": 9.91166997071,
			"0.004": 12.4226301797,
			"0.005": 5.95089703883,
			"0.006": 4.07245909779,
			"0.007": 3.62648223793,
			"0.008": 3.08398390353,
			"0.009": 3.26194588569,
			"0.01": 5.66382930867,
			"0.011": 2.97514964213,
			"0.012": 1.24972679678,
			"0.013": 0.76935526257,
			"0.014": 0.376575025868,
			"0.015": 0.0,
			"0.016": 0.0,
			"0.017": 0.0,
			"0.018": 0.0,
			"0.019": 0.0,
			"0.02": 0.0,
			"0.021": 0.0,
			"0.022": 0.0,
			"0.023": 0.0,
			"0.024": 0.0,
			"0.025": 0.0
		}
	}
}
