{
	 "smiles": "NC1=CC(C(O)=O)=C(F)C=C1", 
	 "Tm": 464.15, 
	 "num_atms": 17, 
	 "gaussian": { 
		 "optdone": 1, 
		 "sigma_profile": "yes", 
		 "theory": "DFT", 
		 "functional": "B3LYP", 
		 "basiset": "6-31G**", 
		 "properties": { 
			 "R2extent": 1985.8619, 
			 "electric_dipole_moment_norm": 2.87660870818, 
			 "electric_quadrupole_moment_norm": 9.90900382884, 
			 "total_energy": -575.409609689, 
			 "HOMO_LUMO_gap": 0.16251, 
			 "cosmo_polarized_energy": -13.78, 
			 "cosmo_cavitation_energy": 22.24, 
			 "cosmo_dispersion_energy": -16.53, 
			 "cosmo_repulsion_energy": 1.32, 
			 "cosmo_total_nonelectrostatic_energy": 7.02, 
			 "SMD_solvation_energy": 5.54 
		},
		"coords": [
			{
				"x": 1.5829547159,
				"y": -0.8260105093,
				"z": -2.2454637334,
				"element": "N" 
			},
			{
				"x": 0.4320092902,
				"y": -0.8982835417,
				"z": -1.4562931932,
				"element": "C" 
			},
			{
				"x": 0.3555467,
				"y": -0.2298609945,
				"z": -0.2303713003,
				"element": "C" 
			},
			{
				"x": -0.8117522862,
				"y": -0.2380055706,
				"z": 0.5482674773,
				"element": "C" 
			},
			{
				"x": -0.7516900358,
				"y": 0.5116432797,
				"z": 1.8340857425,
				"element": "C" 
			},
			{
				"x": -1.8991805058,
				"y": 0.4946136016,
				"z": 2.5460789365,
				"element": "O" 
			},
			{
				"x": 0.2400796331,
				"y": 1.0976227042,
				"z": 2.2272114394,
				"element": "O" 
			},
			{
				"x": -1.9243296468,
				"y": -0.9427416457,
				"z": 0.0706404921,
				"element": "C" 
			},
			{
				"x": -3.0749083319,
				"y": -0.9973192024,
				"z": 0.7669570674,
				"element": "F" 
			},
			{
				"x": -1.8703496467,
				"y": -1.6168457819,
				"z": -1.1450725609,
				"element": "C" 
			},
			{
				"x": -0.7057932224,
				"y": -1.5955482968,
				"z": -1.9040373971,
				"element": "C" 
			},
			{
				"x": 2.430787877,
				"y": -0.6034796542,
				"z": -1.742147415,
				"element": "H" 
			},
			{
				"x": 1.7177137987,
				"y": -1.6015807887,
				"z": -2.879443005,
				"element": "H" 
			},
			{
				"x": 1.2059337124,
				"y": 0.3226546699,
				"z": 0.1564023842,
				"element": "H" 
			},
			{
				"x": -1.7112127786,
				"y": 1.0166936425,
				"z": 3.3441516551,
				"element": "H" 
			},
			{
				"x": -2.7503120074,
				"y": -2.1539881602,
				"z": -1.4821207204,
				"element": "H" 
			},
			{
				"x": -0.6764972658,
				"y": -2.119763752,
				"z": -2.8557458692,
				"element": "H" 
			}
		],
		 "valence_orbital": [ 
			{
				"type": "occ",
				"energy": -0.31884,
				"method": "rhf"
			},
			{
				"type": "occ",
				"energy": -0.30643,
				"method": "rhf"
			},
			{
				"type": "occ",
				"energy": -0.27654,
				"method": "rhf"
			},
			{
				"type": "occ",
				"energy": -0.26493,
				"method": "rhf"
			},
			{
				"type": "occ",
				"energy": -0.21002,
				"method": "rhf"
			},
			{
				"type": "unocc",
				"energy": -0.04751,
				"method": "rhf"
			},
			{
				"type": "unocc",
				"energy": 0.00617,
				"method": "rhf"
			},
			{
				"type": "unocc",
				"energy": 0.05807,
				"method": "rhf"
			},
			{
				"type": "unocc",
				"energy": 0.07545,
				"method": "rhf"
			},
			{
				"type": "unocc",
				"energy": 0.08403,
				"method": "rhf"
			}
		],
		"cosmo_sigma_profile": { 
			"-0.025": 0.0,
			"-0.024": 0.0,
			"-0.023": 0.0,
			"-0.022": 0.0,
			"-0.021": 0.0,
			"-0.02": 0.0,
			"-0.019": 0.077997281643,
			"-0.018": 0.654007719807,
			"-0.017": 1.018745272,
			"-0.016": 0.980760004218,
			"-0.015": 0.568712717226,
			"-0.014": 0.72918711381,
			"-0.013": 1.31249889194,
			"-0.012": 3.97572454188,
			"-0.011": 4.12394576551,
			"-0.01": 4.05747015756,
			"-0.009": 3.16306924539,
			"-0.008": 4.30680221185,
			"-0.007": 7.48768201612,
			"-0.006": 6.5816542028,
			"-0.005": 5.69157583326,
			"-0.004": 5.91718392684,
			"-0.003": 6.17163070647,
			"-0.002": 7.77805876583,
			"-0.001": 8.2395675754,
			"0.0": 10.2453041968,
			"0.001": 12.2259460487,
			"0.002": 13.9513449695,
			"0.003": 15.967094148,
			"0.004": 13.9468222729,
			"0.005": 6.97615473733,
			"0.006": 5.43009361996,
			"0.007": 3.72135532654,
			"0.008": 4.05959646387,
			"0.009": 3.65706150055,
			"0.01": 4.39928942979,
			"0.011": 4.52861165587,
			"0.012": 4.14564654925,
			"0.013": 0.680120026069,
			"0.014": 0.569589234777,
			"0.015": 0.0758797046004,
			"0.016": 0.0,
			"0.017": 0.0,
			"0.018": 0.0,
			"0.019": 0.0,
			"0.02": 0.0,
			"0.021": 0.0,
			"0.022": 0.0,
			"0.023": 0.0,
			"0.024": 0.0,
			"0.025": 0.0
		}
	}
}
