{
	 "smiles": "CC(C)(C)C1=NC2=C(N1)C=CC=C2", 
	 "Tm": 593.15, 
	 "num_atms": 27, 
	 "gaussian": { 
		 "optdone": 1, 
		 "sigma_profile": "yes", 
		 "theory": "DFT", 
		 "functional": "B3LYP", 
		 "basiset": "6-31G**", 
		 "properties": { 
			 "R2extent": 2964.4294, 
			 "electric_dipole_moment_norm": 3.24803289084, 
			 "electric_quadrupole_moment_norm": 4.25187825437, 
			 "total_energy": -537.141969658, 
			 "HOMO_LUMO_gap": 0.20781, 
			 "cosmo_polarized_energy": -12.16, 
			 "cosmo_cavitation_energy": 29.18, 
			 "cosmo_dispersion_energy": -21.05, 
			 "cosmo_repulsion_energy": 1.66, 
			 "cosmo_total_nonelectrostatic_energy": 9.78, 
			 "SMD_solvation_energy": 3.19 
		},
		"coords": [
			{
				"x": -2.5277770998,
				"y": 0.7593929828,
				"z": -1.3463635613,
				"element": "C" 
			},
			{
				"x": -1.4439381882,
				"y": 1.6309896248,
				"z": -0.6684884507,
				"element": "C" 
			},
			{
				"x": -0.5026630504,
				"y": 2.2166948928,
				"z": -1.7477854195,
				"element": "C" 
			},
			{
				"x": -2.1169008198,
				"y": 2.7788749252,
				"z": 0.1033980165,
				"element": "C" 
			},
			{
				"x": -0.6414609177,
				"y": 0.7816913112,
				"z": 0.2967419325,
				"element": "C" 
			},
			{
				"x": -0.5298732857,
				"y": 0.982109745,
				"z": 1.5887019763,
				"element": "N" 
			},
			{
				"x": 0.2940877157,
				"y": -0.0344847582,
				"z": 2.0542223779,
				"element": "C" 
			},
			{
				"x": 0.6882278577,
				"y": -0.8757917467,
				"z": 0.9861631345,
				"element": "C" 
			},
			{
				"x": 0.0732947464,
				"y": -0.3274755755,
				"z": -0.1263062323,
				"element": "N" 
			},
			{
				"x": 1.5201604595,
				"y": -1.981735291,
				"z": 1.1673654711,
				"element": "C" 
			},
			{
				"x": 1.9567330008,
				"y": -2.2307392242,
				"z": 2.4672961455,
				"element": "C" 
			},
			{
				"x": 1.5750441119,
				"y": -1.404583421,
				"z": 3.5429729105,
				"element": "C" 
			},
			{
				"x": 0.7448201144,
				"y": -0.3036281419,
				"z": 3.3522413463,
				"element": "C" 
			},
			{
				"x": -2.0927756267,
				"y": -0.0630029151,
				"z": -1.925506938,
				"element": "H" 
			},
			{
				"x": -3.1228623727,
				"y": 1.3677379174,
				"z": -2.0356918243,
				"element": "H" 
			},
			{
				"x": -3.2040588128,
				"y": 0.3260815267,
				"z": -0.6031881011,
				"element": "H" 
			},
			{
				"x": 0.2795137103,
				"y": 2.8326532618,
				"z": -1.2936701263,
				"element": "H" 
			},
			{
				"x": -0.0138594901,
				"y": 1.4331613923,
				"z": -2.3378135531,
				"element": "H" 
			},
			{
				"x": -1.0712279892,
				"y": 2.8443331688,
				"z": -2.4421866454,
				"element": "H" 
			},
			{
				"x": -1.3735461051,
				"y": 3.4084711607,
				"z": 0.5981778011,
				"element": "H" 
			},
			{
				"x": -2.7846886892,
				"y": 2.3933630393,
				"z": 0.8774897224,
				"element": "H" 
			},
			{
				"x": -2.6988629899,
				"y": 3.3976987796,
				"z": -0.5878695336,
				"element": "H" 
			},
			{
				"x": 0.1337795547,
				"y": -0.6711865373,
				"z": -1.0713295037,
				"element": "H" 
			},
			{
				"x": 1.8166535546,
				"y": -2.6209766047,
				"z": 0.3408168922,
				"element": "H" 
			},
			{
				"x": 2.6058936887,
				"y": -3.081069775,
				"z": 2.6546536967,
				"element": "H" 
			},
			{
				"x": 1.9384733309,
				"y": -1.6352271452,
				"z": 4.5401100382,
				"element": "H" 
			},
			{
				"x": 0.4476135917,
				"y": 0.3361474074,
				"z": 4.1770484275,
				"element": "H" 
			}
		],
		 "valence_orbital": [ 
			{
				"type": "occ",
				"energy": -0.32442,
				"method": "rhf"
			},
			{
				"type": "occ",
				"energy": -0.29735,
				"method": "rhf"
			},
			{
				"type": "occ",
				"energy": -0.26197,
				"method": "rhf"
			},
			{
				"type": "occ",
				"energy": -0.22079,
				"method": "rhf"
			},
			{
				"type": "occ",
				"energy": -0.21602,
				"method": "rhf"
			},
			{
				"type": "unocc",
				"energy": -0.00821,
				"method": "rhf"
			},
			{
				"type": "unocc",
				"energy": 0.02784,
				"method": "rhf"
			},
			{
				"type": "unocc",
				"energy": 0.05565,
				"method": "rhf"
			},
			{
				"type": "unocc",
				"energy": 0.06118,
				"method": "rhf"
			},
			{
				"type": "unocc",
				"energy": 0.10115,
				"method": "rhf"
			}
		],
		"cosmo_sigma_profile": { 
			"-0.025": 0.0,
			"-0.024": 0.0,
			"-0.023": 0.0,
			"-0.022": 0.0,
			"-0.021": 0.0,
			"-0.02": 0.0,
			"-0.019": 0.0,
			"-0.018": 0.0,
			"-0.017": 0.0,
			"-0.016": 0.275611747693,
			"-0.015": 1.22969498546,
			"-0.014": 0.949005194376,
			"-0.013": 1.00341901013,
			"-0.012": 1.60281387631,
			"-0.011": 2.00261224325,
			"-0.01": 1.37595952024,
			"-0.009": 1.83398114111,
			"-0.008": 1.59457675152,
			"-0.007": 1.97062379936,
			"-0.006": 5.2692672939,
			"-0.005": 8.26239412229,
			"-0.004": 11.2265852915,
			"-0.003": 24.8440878112,
			"-0.002": 25.0740816527,
			"-0.001": 21.213680437,
			"0.0": 23.8322948426,
			"0.001": 25.0939949228,
			"0.002": 12.9067658196,
			"0.003": 9.50354926686,
			"0.004": 9.24772667836,
			"0.005": 11.6132513068,
			"0.006": 11.3103330598,
			"0.007": 4.68263227857,
			"0.008": 1.70810429676,
			"0.009": 1.86402986878,
			"0.01": 1.4834599591,
			"0.011": 0.794117170477,
			"0.012": 1.69309618656,
			"0.013": 0.885288302963,
			"0.014": 0.616881696171,
			"0.015": 1.14886911142,
			"0.016": 0.797462174922,
			"0.017": 0.615707425408,
			"0.018": 0.0,
			"0.019": 0.0,
			"0.02": 0.0,
			"0.021": 0.0,
			"0.022": 0.0,
			"0.023": 0.0,
			"0.024": 0.0,
			"0.025": 0.0
		}
	}
}
