{
	 "smiles": "CSCCC(NS(=O)(=O)C1=C(F)C=CC=C1)C(O)=O", 
	 "Tm": 378.15, 
	 "num_atms": 33, 
	 "gaussian": { 
		 "optdone": 1, 
		 "sigma_profile": "yes", 
		 "theory": "DFT", 
		 "functional": "B3LYP", 
		 "basiset": "6-31G**", 
		 "properties": { 
			 "R2extent": 6591.1937, 
			 "electric_dipole_moment_norm": 5.03467700354, 
			 "electric_quadrupole_moment_norm": 19.0118878263, 
			 "total_energy": -1679.40431916, 
			 "HOMO_LUMO_gap": 0.18066, 
			 "cosmo_polarized_energy": -20.68, 
			 "cosmo_cavitation_energy": 40.22, 
			 "cosmo_dispersion_energy": -27.25, 
			 "cosmo_repulsion_energy": 2.03, 
			 "cosmo_total_nonelectrostatic_energy": 15.01, 
			 "SMD_solvation_energy": 7.65 
		},
		"coords": [
			{
				"x": 2.9609991955,
				"y": -1.5921685121,
				"z": 3.3781922166,
				"element": "C" 
			},
			{
				"x": 1.6659607333,
				"y": -2.4488794689,
				"z": 2.4180803723,
				"element": "S" 
			},
			{
				"x": 1.7746519658,
				"y": -1.4852009165,
				"z": 0.8539237263,
				"element": "C" 
			},
			{
				"x": 0.5864203933,
				"y": -1.7407678404,
				"z": -0.0771860218,
				"element": "C" 
			},
			{
				"x": -0.7907959298,
				"y": -1.3268338738,
				"z": 0.4952881272,
				"element": "C" 
			},
			{
				"x": -0.7308009135,
				"y": -0.0532873845,
				"z": 1.2106867633,
				"element": "N" 
			},
			{
				"x": -1.729428121,
				"y": 1.2280613318,
				"z": 0.7958230006,
				"element": "S" 
			},
			{
				"x": -2.0630746954,
				"y": 1.9073362706,
				"z": 2.0468755637,
				"element": "O" 
			},
			{
				"x": -2.7649202939,
				"y": 0.7614978245,
				"z": -0.1333568876,
				"element": "O" 
			},
			{
				"x": -0.6530822793,
				"y": 2.2966939838,
				"z": -0.1665530775,
				"element": "C" 
			},
			{
				"x": 0.5696661858,
				"y": 2.7466873051,
				"z": 0.3369797236,
				"element": "C" 
			},
			{
				"x": 0.9941484193,
				"y": 2.322721735,
				"z": 1.541708125,
				"element": "F" 
			},
			{
				"x": 1.3761763619,
				"y": 3.6121807769,
				"z": -0.3896573167,
				"element": "C" 
			},
			{
				"x": 0.9431233039,
				"y": 4.0468263597,
				"z": -1.6438142444,
				"element": "C" 
			},
			{
				"x": -0.2779571698,
				"y": 3.6107383412,
				"z": -2.1619821075,
				"element": "C" 
			},
			{
				"x": -1.0757239853,
				"y": 2.736625521,
				"z": -1.4233529286,
				"element": "C" 
			},
			{
				"x": -1.4206652369,
				"y": -2.4549168335,
				"z": 1.3192305382,
				"element": "C" 
			},
			{
				"x": -2.0964172735,
				"y": -2.0086317952,
				"z": 2.3973231464,
				"element": "O" 
			},
			{
				"x": -1.3615830454,
				"y": -3.62191171,
				"z": 1.0038354081,
				"element": "O" 
			},
			{
				"x": 2.7263918861,
				"y": -0.5314677205,
				"z": 3.5022667206,
				"element": "H" 
			},
			{
				"x": 3.9400531844,
				"y": -1.7006103248,
				"z": 2.9038369701,
				"element": "H" 
			},
			{
				"x": 2.9939069232,
				"y": -2.0651994554,
				"z": 4.3619521499,
				"element": "H" 
			},
			{
				"x": 1.8099021327,
				"y": -0.4230172399,
				"z": 1.1150608939,
				"element": "H" 
			},
			{
				"x": 2.7035766538,
				"y": -1.7469487582,
				"z": 0.3373260158,
				"element": "H" 
			},
			{
				"x": 0.5283470774,
				"y": -2.7940925619,
				"z": -0.365553392,
				"element": "H" 
			},
			{
				"x": 0.7620225176,
				"y": -1.1612622004,
				"z": -0.990559626,
				"element": "H" 
			},
			{
				"x": -1.4828892719,
				"y": -1.1981961857,
				"z": -0.3457701317,
				"element": "H" 
			},
			{
				"x": -0.6725736361,
				"y": -0.1211717018,
				"z": 2.2221603067,
				"element": "H" 
			},
			{
				"x": 2.3209322538,
				"y": 3.9329440432,
				"z": 0.0355455623,
				"element": "H" 
			},
			{
				"x": 1.5664833551,
				"y": 4.7272197033,
				"z": -2.2157857716,
				"element": "H" 
			},
			{
				"x": -0.6103235648,
				"y": 3.9497611829,
				"z": -3.1376121528,
				"element": "H" 
			},
			{
				"x": -2.0266565098,
				"y": 2.3797270466,
				"z": -1.8029473705,
				"element": "H" 
			},
			{
				"x": -2.4707706163,
				"y": -2.7935569418,
				"z": 2.8312356983,
				"element": "H" 
			}
		],
		 "valence_orbital": [ 
			{
				"type": "occ",
				"energy": -0.29669,
				"method": "rhf"
			},
			{
				"type": "occ",
				"energy": -0.28342,
				"method": "rhf"
			},
			{
				"type": "occ",
				"energy": -0.27076,
				"method": "rhf"
			},
			{
				"type": "occ",
				"energy": -0.2609,
				"method": "rhf"
			},
			{
				"type": "occ",
				"energy": -0.22582,
				"method": "rhf"
			},
			{
				"type": "unocc",
				"energy": -0.04516,
				"method": "rhf"
			},
			{
				"type": "unocc",
				"energy": -0.0237,
				"method": "rhf"
			},
			{
				"type": "unocc",
				"energy": -0.00101,
				"method": "rhf"
			},
			{
				"type": "unocc",
				"energy": 0.03842,
				"method": "rhf"
			},
			{
				"type": "unocc",
				"energy": 0.04592,
				"method": "rhf"
			}
		],
		"cosmo_sigma_profile": { 
			"-0.025": 0.0,
			"-0.024": 0.0,
			"-0.023": 0.0,
			"-0.022": 0.0,
			"-0.021": 0.0,
			"-0.02": 0.0,
			"-0.019": 0.538477383788,
			"-0.018": 0.810622071102,
			"-0.017": 1.07296260355,
			"-0.016": 1.13218696313,
			"-0.015": 0.575051649017,
			"-0.014": 0.439469067362,
			"-0.013": 0.727068984697,
			"-0.012": 0.876812222247,
			"-0.011": 1.08395058339,
			"-0.01": 0.891233253495,
			"-0.009": 1.02564600074,
			"-0.008": 5.3417288583,
			"-0.007": 12.6756479906,
			"-0.006": 15.2665385414,
			"-0.005": 20.8637626564,
			"-0.004": 22.450140818,
			"-0.003": 27.1143521329,
			"-0.002": 26.5207614887,
			"-0.001": 26.86076591,
			"0.0": 21.2503362882,
			"0.001": 20.0183492619,
			"0.002": 19.8261384811,
			"0.003": 16.2363702812,
			"0.004": 11.0062832816,
			"0.005": 7.66228509666,
			"0.006": 9.16060120355,
			"0.007": 9.40730328879,
			"0.008": 6.29568706507,
			"0.009": 8.15500156701,
			"0.01": 11.851428683,
			"0.011": 11.7038245519,
			"0.012": 1.74474023906,
			"0.013": 0.0,
			"0.014": 0.0,
			"0.015": 0.0,
			"0.016": 0.0,
			"0.017": 0.0,
			"0.018": 0.0,
			"0.019": 0.0,
			"0.02": 0.0,
			"0.021": 0.0,
			"0.022": 0.0,
			"0.023": 0.0,
			"0.024": 0.0,
			"0.025": 0.0
		}
	}
}
