{
	 "smiles": "ClS(=O)(=O)C1=CC=C(CNC(=O)C2=CC=CC=C2)S1", 
	 "Tm": 397.15, 
	 "num_atms": 29, 
	 "gaussian": { 
		 "optdone": 1, 
		 "sigma_profile": "yes", 
		 "theory": "DFT", 
		 "functional": "B3LYP", 
		 "basiset": "6-31G**", 
		 "properties": { 
			 "R2extent": 11226.4259, 
			 "electric_dipole_moment_norm": 5.38897662827, 
			 "electric_quadrupole_moment_norm": 32.4639412467, 
			 "total_energy": -2000.21386468, 
			 "HOMO_LUMO_gap": 0.16256, 
			 "cosmo_polarized_energy": -17.93, 
			 "cosmo_cavitation_energy": 39.39, 
			 "cosmo_dispersion_energy": -28.51, 
			 "cosmo_repulsion_energy": 2.13, 
			 "cosmo_total_nonelectrostatic_energy": 13.01, 
			 "SMD_solvation_energy": 4.64 
		},
		"coords": [
			{
				"x": 1.9507238678,
				"y": 6.6034977139,
				"z": -0.1856113812,
				"element": "Cl" 
			},
			{
				"x": 2.8842744066,
				"y": 4.9233599789,
				"z": 0.7409196243,
				"element": "S" 
			},
			{
				"x": 2.7278866812,
				"y": 5.1249194667,
				"z": 2.1751881409,
				"element": "O" 
			},
			{
				"x": 4.1812154583,
				"y": 4.7820337319,
				"z": 0.094105992,
				"element": "O" 
			},
			{
				"x": 1.8546908834,
				"y": 3.5970122033,
				"z": 0.2339122464,
				"element": "C" 
			},
			{
				"x": 2.049846355,
				"y": 2.8272142432,
				"z": -0.8850249683,
				"element": "C" 
			},
			{
				"x": 1.0389805767,
				"y": 1.8398415458,
				"z": -1.0298532442,
				"element": "C" 
			},
			{
				"x": 0.0951157228,
				"y": 1.8810978532,
				"z": -0.0290196802,
				"element": "C" 
			},
			{
				"x": -1.0979611826,
				"y": 0.9665671694,
				"z": 0.162909751,
				"element": "C" 
			},
			{
				"x": -1.4234764446,
				"y": 0.2120843269,
				"z": -1.0386650741,
				"element": "N" 
			},
			{
				"x": -0.8321424251,
				"y": -0.9920006424,
				"z": -1.4112086408,
				"element": "C" 
			},
			{
				"x": -0.5773656073,
				"y": -1.2143409114,
				"z": -2.5889349385,
				"element": "O" 
			},
			{
				"x": -0.5815299898,
				"y": -2.0156971702,
				"z": -0.3462355125,
				"element": "C" 
			},
			{
				"x": -1.451166079,
				"y": -2.2081397474,
				"z": 0.7377092182,
				"element": "C" 
			},
			{
				"x": -1.2041642458,
				"y": -3.2225734391,
				"z": 1.6632605962,
				"element": "C" 
			},
			{
				"x": -0.0857117266,
				"y": -4.0453811214,
				"z": 1.5165997644,
				"element": "C" 
			},
			{
				"x": 0.7757206399,
				"y": -3.8668502931,
				"z": 0.4304882897,
				"element": "C" 
			},
			{
				"x": 0.5222072618,
				"y": -2.8655169086,
				"z": -0.5037518454,
				"element": "C" 
			},
			{
				"x": 0.4293376767,
				"y": 3.1430541944,
				"z": 1.1246741124,
				"element": "S" 
			},
			{
				"x": 2.8836040137,
				"y": 2.9677113843,
				"z": -1.5619434387,
				"element": "H" 
			},
			{
				"x": 1.0118360531,
				"y": 1.1200304662,
				"z": -1.8395354546,
				"element": "H" 
			},
			{
				"x": -0.8926010858,
				"y": 0.262887034,
				"z": 0.9735340884,
				"element": "H" 
			},
			{
				"x": -1.9722688673,
				"y": 1.553144397,
				"z": 0.4698838172,
				"element": "H" 
			},
			{
				"x": -1.584568587,
				"y": 0.7856677932,
				"z": -1.8606856491,
				"element": "H" 
			},
			{
				"x": -2.3381789887,
				"y": -1.5893732648,
				"z": 0.8352357807,
				"element": "H" 
			},
			{
				"x": -1.8882376815,
				"y": -3.375116797,
				"z": 2.4927768597,
				"element": "H" 
			},
			{
				"x": 0.1089168077,
				"y": -4.8307698353,
				"z": 2.2411235473,
				"element": "H" 
			},
			{
				"x": 1.6395040559,
				"y": -4.5136479511,
				"z": 0.3091093099,
				"element": "H" 
			},
			{
				"x": 1.1657124504,
				"y": -2.7297154201,
				"z": -1.3666613114,
				"element": "H" 
			}
		],
		 "valence_orbital": [ 
			{
				"type": "occ",
				"energy": -0.28963,
				"method": "rhf"
			},
			{
				"type": "occ",
				"energy": -0.27704,
				"method": "rhf"
			},
			{
				"type": "occ",
				"energy": -0.27368,
				"method": "rhf"
			},
			{
				"type": "occ",
				"energy": -0.26891,
				"method": "rhf"
			},
			{
				"type": "occ",
				"energy": -0.25944,
				"method": "rhf"
			},
			{
				"type": "unocc",
				"energy": -0.09688,
				"method": "rhf"
			},
			{
				"type": "unocc",
				"energy": -0.05381,
				"method": "rhf"
			},
			{
				"type": "unocc",
				"energy": -0.05031,
				"method": "rhf"
			},
			{
				"type": "unocc",
				"energy": -0.02171,
				"method": "rhf"
			},
			{
				"type": "unocc",
				"energy": -0.01194,
				"method": "rhf"
			}
		],
		"cosmo_sigma_profile": { 
			"-0.025": 0.0,
			"-0.024": 0.0,
			"-0.023": 0.0,
			"-0.022": 0.0,
			"-0.021": 0.0,
			"-0.02": 0.0,
			"-0.019": 0.0,
			"-0.018": 0.0,
			"-0.017": 0.0,
			"-0.016": 0.0,
			"-0.015": 0.0,
			"-0.014": 0.202740091968,
			"-0.013": 1.09182833277,
			"-0.012": 1.06867643441,
			"-0.011": 0.908320181395,
			"-0.01": 1.14541747324,
			"-0.009": 3.38397406668,
			"-0.008": 8.06884392596,
			"-0.007": 11.264861886,
			"-0.006": 18.8000647933,
			"-0.005": 20.9944258009,
			"-0.004": 20.9214897133,
			"-0.003": 18.2516096829,
			"-0.002": 18.9640532194,
			"-0.001": 23.6496457588,
			"0.0": 29.8026358957,
			"0.001": 22.7118175257,
			"0.002": 23.1548574283,
			"0.003": 25.3738746808,
			"0.004": 22.3412137755,
			"0.005": 6.96783673315,
			"0.006": 5.10551898775,
			"0.007": 8.62263617111,
			"0.008": 11.5228056298,
			"0.009": 4.47074563878,
			"0.01": 1.76722205569,
			"0.011": 1.50152641082,
			"0.012": 3.1324902073,
			"0.013": 4.58270792952,
			"0.014": 1.06629486713,
			"0.015": 0.0,
			"0.016": 0.0,
			"0.017": 0.0,
			"0.018": 0.0,
			"0.019": 0.0,
			"0.02": 0.0,
			"0.021": 0.0,
			"0.022": 0.0,
			"0.023": 0.0,
			"0.024": 0.0,
			"0.025": 0.0
		}
	}
}
