{
	 "smiles": "ClC1CC2=CC3=C(OCO3)C=C12", 
	 "Tm": 328.15, 
	 "num_atms": 19, 
	 "gaussian": { 
		 "optdone": 1, 
		 "sigma_profile": "yes", 
		 "theory": "DFT", 
		 "functional": "B3LYP", 
		 "basiset": "6-31G**", 
		 "properties": { 
			 "R2extent": 3722.7662, 
			 "electric_dipole_moment_norm": 2.71270281085, 
			 "electric_quadrupole_moment_norm": 11.9357311326, 
			 "total_energy": -957.755405964, 
			 "HOMO_LUMO_gap": 0.18698, 
			 "cosmo_polarized_energy": -7.29, 
			 "cosmo_cavitation_energy": 24.56, 
			 "cosmo_dispersion_energy": -18.88, 
			 "cosmo_repulsion_energy": 1.52, 
			 "cosmo_total_nonelectrostatic_energy": 7.2, 
			 "SMD_solvation_energy": 4.03 
		},
		"coords": [
			{
				"x": 0.9899547555,
				"y": -3.9688333427,
				"z": 1.9361039399,
				"element": "Cl" 
			},
			{
				"x": 0.317291721,
				"y": -3.2535030877,
				"z": 0.3951899549,
				"element": "C" 
			},
			{
				"x": 1.2063595811,
				"y": -2.1487074139,
				"z": -0.2879558936,
				"element": "C" 
			},
			{
				"x": -0.0061441972,
				"y": -1.2431705676,
				"z": -0.1318995433,
				"element": "C" 
			},
			{
				"x": -0.4941775456,
				"y": 0.0336477667,
				"z": -0.43231147,
				"element": "C" 
			},
			{
				"x": -1.7843102406,
				"y": 0.2419049426,
				"z": 0.0347312179,
				"element": "C" 
			},
			{
				"x": -2.5314486433,
				"y": -0.7289399739,
				"z": 0.7242171238,
				"element": "C" 
			},
			{
				"x": -3.7708757871,
				"y": -0.2164336224,
				"z": 1.027212913,
				"element": "O" 
			},
			{
				"x": -3.7290474591,
				"y": 1.1646746934,
				"z": 0.66100477,
				"element": "C" 
			},
			{
				"x": -2.5387481588,
				"y": 1.3805330993,
				"z": -0.1042091991,
				"element": "O" 
			},
			{
				"x": -2.0599044877,
				"y": -2.0016058481,
				"z": 1.0035835103,
				"element": "C" 
			},
			{
				"x": -0.7557643987,
				"y": -2.2062852379,
				"z": 0.5372563778,
				"element": "C" 
			},
			{
				"x": 0.080431615,
				"y": -4.1125952198,
				"z": -0.2345707419,
				"element": "H" 
			},
			{
				"x": 2.081183114,
				"y": -1.8729123061,
				"z": 0.3074919876,
				"element": "H" 
			},
			{
				"x": 1.526937249,
				"y": -2.38355926,
				"z": -1.3090889284,
				"element": "H" 
			},
			{
				"x": 0.0566334237,
				"y": 0.8029144051,
				"z": -0.9616028208,
				"element": "H" 
			},
			{
				"x": -3.7002522036,
				"y": 1.7868735394,
				"z": 1.5672709637,
				"element": "H" 
			},
			{
				"x": -4.6038955693,
				"y": 1.4077242395,
				"z": 0.0501859398,
				"element": "H" 
			},
			{
				"x": -2.6539227682,
				"y": -2.7382268059,
				"z": 1.5320898983,
				"element": "H" 
			}
		],
		 "valence_orbital": [ 
			{
				"type": "occ",
				"energy": -0.31493,
				"method": "rhf"
			},
			{
				"type": "occ",
				"energy": -0.28753,
				"method": "rhf"
			},
			{
				"type": "occ",
				"energy": -0.28647,
				"method": "rhf"
			},
			{
				"type": "occ",
				"energy": -0.25471,
				"method": "rhf"
			},
			{
				"type": "occ",
				"energy": -0.20979,
				"method": "rhf"
			},
			{
				"type": "unocc",
				"energy": -0.02281,
				"method": "rhf"
			},
			{
				"type": "unocc",
				"energy": 0.00296,
				"method": "rhf"
			},
			{
				"type": "unocc",
				"energy": 0.04504,
				"method": "rhf"
			},
			{
				"type": "unocc",
				"energy": 0.09688,
				"method": "rhf"
			},
			{
				"type": "unocc",
				"energy": 0.10203,
				"method": "rhf"
			}
		],
		"cosmo_sigma_profile": { 
			"-0.025": 0.0,
			"-0.024": 0.0,
			"-0.023": 0.0,
			"-0.022": 0.0,
			"-0.021": 0.0,
			"-0.02": 0.0,
			"-0.019": 0.0,
			"-0.018": 0.0,
			"-0.017": 0.0,
			"-0.016": 0.0,
			"-0.015": 0.0,
			"-0.014": 0.0,
			"-0.013": 0.0,
			"-0.012": 0.0,
			"-0.011": 0.0,
			"-0.01": 0.0,
			"-0.009": 0.0364581273122,
			"-0.008": 4.05451858012,
			"-0.007": 12.6953136706,
			"-0.006": 12.6974283367,
			"-0.005": 13.6777069705,
			"-0.004": 10.551478513,
			"-0.003": 12.6040743899,
			"-0.002": 12.7502081993,
			"-0.001": 13.7975264018,
			"0.0": 11.9255535091,
			"0.001": 11.9190030884,
			"0.002": 17.0391713882,
			"0.003": 16.0949766268,
			"0.004": 12.800910934,
			"0.005": 8.59352207961,
			"0.006": 11.8310890229,
			"0.007": 8.97473594607,
			"0.008": 2.16682949436,
			"0.009": 3.83333681946,
			"0.01": 0.986756926776,
			"0.011": 0.0,
			"0.012": 0.0,
			"0.013": 0.0,
			"0.014": 0.0,
			"0.015": 0.0,
			"0.016": 0.0,
			"0.017": 0.0,
			"0.018": 0.0,
			"0.019": 0.0,
			"0.02": 0.0,
			"0.021": 0.0,
			"0.022": 0.0,
			"0.023": 0.0,
			"0.024": 0.0,
			"0.025": 0.0
		}
	}
}
