{
	 "smiles": "CC1=CN=C(C=CC(O)=O)C=C1", 
	 "Tm": 437.15, 
	 "num_atms": 21, 
	 "gaussian": { 
		 "optdone": 1, 
		 "sigma_profile": "yes", 
		 "theory": "DFT", 
		 "functional": "B3LYP", 
		 "basiset": "6-31G**", 
		 "properties": { 
			 "R2extent": 3512.5904, 
			 "electric_dipole_moment_norm": 7.43034997493, 
			 "electric_quadrupole_moment_norm": 19.0126961463, 
			 "total_energy": -553.575494946, 
			 "HOMO_LUMO_gap": 0.17045, 
			 "cosmo_polarized_energy": -17.72, 
			 "cosmo_cavitation_energy": 26.25, 
			 "cosmo_dispersion_energy": -19.12, 
			 "cosmo_repulsion_energy": 1.53, 
			 "cosmo_total_nonelectrostatic_energy": 8.66, 
			 "SMD_solvation_energy": 4.88 
		},
		"coords": [
			{
				"x": -0.1497107568,
				"y": 1.8169253414,
				"z": 4.2288934386,
				"element": "C" 
			},
			{
				"x": -0.3117830744,
				"y": 1.2249691845,
				"z": 2.8527014629,
				"element": "C" 
			},
			{
				"x": -1.3869429375,
				"y": 0.3752754202,
				"z": 2.5430041163,
				"element": "C" 
			},
			{
				"x": -1.5956369532,
				"y": -0.1820636112,
				"z": 1.3527348145,
				"element": "N" 
			},
			{
				"x": -0.7192592599,
				"y": 0.0804697148,
				"z": 0.3644950112,
				"element": "C" 
			},
			{
				"x": -0.9528409607,
				"y": -0.539779387,
				"z": -0.9466803823,
				"element": "C" 
			},
			{
				"x": -2.0051931713,
				"y": -1.3215489868,
				"z": -1.2445195288,
				"element": "C" 
			},
			{
				"x": -2.2791974281,
				"y": -1.8930213284,
				"z": -2.588285935,
				"element": "C" 
			},
			{
				"x": -1.2093280332,
				"y": -2.0882743454,
				"z": -3.4131929002,
				"element": "O" 
			},
			{
				"x": -3.3938885642,
				"y": -2.1676677873,
				"z": -2.9666944806,
				"element": "O" 
			},
			{
				"x": 0.3907623636,
				"y": 0.9157802477,
				"z": 0.5659415019,
				"element": "C" 
			},
			{
				"x": 0.5912602491,
				"y": 1.4886256508,
				"z": 1.8176719647,
				"element": "C" 
			},
			{
				"x": -0.1742943295,
				"y": 2.9121161895,
				"z": 4.1966491818,
				"element": "H" 
			},
			{
				"x": 0.808012976,
				"y": 1.5285247079,
				"z": 4.6766561585,
				"element": "H" 
			},
			{
				"x": -0.9462230655,
				"y": 1.4848,
				"z": 4.9001290444,
				"element": "H" 
			},
			{
				"x": -2.1193858485,
				"y": 0.1376237256,
				"z": 3.3144447015,
				"element": "H" 
			},
			{
				"x": -0.2139986503,
				"y": -0.2990972535,
				"z": -1.7112245349,
				"element": "H" 
			},
			{
				"x": -2.7721818514,
				"y": -1.4987965052,
				"z": -0.498067937,
				"element": "H" 
			},
			{
				"x": -0.3895678406,
				"y": -1.9948613538,
				"z": -2.9085741001,
				"element": "H" 
			},
			{
				"x": 1.0813129346,
				"y": 1.1113353241,
				"z": -0.2494309521,
				"element": "H" 
			},
			{
				"x": 1.4455842017,
				"y": 2.1387650519,
				"z": 1.9899493548,
				"element": "H" 
			}
		],
		 "valence_orbital": [ 
			{
				"type": "occ",
				"energy": -0.30656,
				"method": "rhf"
			},
			{
				"type": "occ",
				"energy": -0.29698,
				"method": "rhf"
			},
			{
				"type": "occ",
				"energy": -0.26996,
				"method": "rhf"
			},
			{
				"type": "occ",
				"energy": -0.26578,
				"method": "rhf"
			},
			{
				"type": "occ",
				"energy": -0.24608,
				"method": "rhf"
			},
			{
				"type": "unocc",
				"energy": -0.07563,
				"method": "rhf"
			},
			{
				"type": "unocc",
				"energy": -0.03238,
				"method": "rhf"
			},
			{
				"type": "unocc",
				"energy": 0.00829,
				"method": "rhf"
			},
			{
				"type": "unocc",
				"energy": 0.06447,
				"method": "rhf"
			},
			{
				"type": "unocc",
				"energy": 0.07733,
				"method": "rhf"
			}
		],
		"cosmo_sigma_profile": { 
			"-0.025": 0.0,
			"-0.024": 0.0,
			"-0.023": 0.0,
			"-0.022": 0.0,
			"-0.021": 0.0,
			"-0.02": 0.0,
			"-0.019": 0.0507792732178,
			"-0.018": 0.798892109229,
			"-0.017": 0.879102417541,
			"-0.016": 1.26466604736,
			"-0.015": 0.851918180804,
			"-0.014": 0.812803161667,
			"-0.013": 0.767627117512,
			"-0.012": 1.17288560678,
			"-0.011": 1.53157176374,
			"-0.01": 1.51748634484,
			"-0.009": 2.11915207611,
			"-0.008": 3.73222329888,
			"-0.007": 6.0752583009,
			"-0.006": 8.74778773585,
			"-0.005": 14.4783575848,
			"-0.004": 14.4685635662,
			"-0.003": 15.1899181273,
			"-0.002": 14.0858363295,
			"-0.001": 16.5358764278,
			"0.0": 15.9644907226,
			"0.001": 15.430198931,
			"0.002": 17.477463976,
			"0.003": 8.02437853407,
			"0.004": 4.77875035434,
			"0.005": 4.07868132573,
			"0.006": 3.92593824466,
			"0.007": 3.57327644093,
			"0.008": 4.5439163647,
			"0.009": 4.31989704935,
			"0.01": 5.50247545582,
			"0.011": 6.37616389175,
			"0.012": 6.98454765187,
			"0.013": 3.32924341304,
			"0.014": 0.185850575221,
			"0.015": 0.0,
			"0.016": 0.0,
			"0.017": 0.0,
			"0.018": 0.0,
			"0.019": 0.0,
			"0.02": 0.0,
			"0.021": 0.0,
			"0.022": 0.0,
			"0.023": 0.0,
			"0.024": 0.0,
			"0.025": 0.0
		}
	}
}
