{
	 "smiles": "COC1=C(C=CC=C1)C(=O)C1=NC=CC=C1", 
	 "Tm": 323.15, 
	 "num_atms": 27, 
	 "gaussian": { 
		 "optdone": 1, 
		 "sigma_profile": "yes", 
		 "theory": "DFT", 
		 "functional": "B3LYP", 
		 "basiset": "6-31G**", 
		 "properties": { 
			 "R2extent": 4113.276, 
			 "electric_dipole_moment_norm": 5.79772722194, 
			 "electric_quadrupole_moment_norm": 16.222384088, 
			 "total_energy": -707.183555392, 
			 "HOMO_LUMO_gap": 0.17105, 
			 "cosmo_polarized_energy": -16.56, 
			 "cosmo_cavitation_energy": 31.53, 
			 "cosmo_dispersion_energy": -22.12, 
			 "cosmo_repulsion_energy": 1.73, 
			 "cosmo_total_nonelectrostatic_energy": 11.13, 
			 "SMD_solvation_energy": 5.37 
		},
		"coords": [
			{
				"x": -0.7565834135,
				"y": -1.2895058902,
				"z": 1.2127272928,
				"element": "C" 
			},
			{
				"x": -0.0362428761,
				"y": -0.2193709363,
				"z": 0.6193999452,
				"element": "O" 
			},
			{
				"x": -0.676154988,
				"y": 0.9601682924,
				"z": 0.3889045232,
				"element": "C" 
			},
			{
				"x": 0.0982575202,
				"y": 2.0013651636,
				"z": -0.1743702783,
				"element": "C" 
			},
			{
				"x": -0.4931920433,
				"y": 3.2589629195,
				"z": -0.3522640255,
				"element": "C" 
			},
			{
				"x": -1.8306105855,
				"y": 3.4863417808,
				"z": -0.0390190128,
				"element": "C" 
			},
			{
				"x": -2.5896188319,
				"y": 2.442329984,
				"z": 0.489571982,
				"element": "C" 
			},
			{
				"x": -2.0204585101,
				"y": 1.1875131531,
				"z": 0.7126062448,
				"element": "C" 
			},
			{
				"x": 1.5518717758,
				"y": 1.8740286945,
				"z": -0.533715015,
				"element": "C" 
			},
			{
				"x": 2.3029452135,
				"y": 2.8242577177,
				"z": -0.3846424578,
				"element": "O" 
			},
			{
				"x": 2.0730361751,
				"y": 0.6114123707,
				"z": -1.1861846132,
				"element": "C" 
			},
			{
				"x": 3.3435826126,
				"y": 0.2867757278,
				"z": -0.9038122759,
				"element": "N" 
			},
			{
				"x": 3.8679425122,
				"y": -0.7665675034,
				"z": -1.5342330244,
				"element": "C" 
			},
			{
				"x": 3.1805462148,
				"y": -1.5228804159,
				"z": -2.4878635309,
				"element": "C" 
			},
			{
				"x": 1.8656996474,
				"y": -1.1705451864,
				"z": -2.7864226927,
				"element": "C" 
			},
			{
				"x": 1.2948320226,
				"y": -0.0920231084,
				"z": -2.1142682572,
				"element": "C" 
			},
			{
				"x": -0.0467513492,
				"y": -2.112951739,
				"z": 1.2997797313,
				"element": "H" 
			},
			{
				"x": -1.6021648815,
				"y": -1.6048098084,
				"z": 0.5884492087,
				"element": "H" 
			},
			{
				"x": -1.1249734271,
				"y": -1.0216384042,
				"z": 2.2106613889,
				"element": "H" 
			},
			{
				"x": 0.1306929916,
				"y": 4.0536571085,
				"z": -0.7483738424,
				"element": "H" 
			},
			{
				"x": -2.2737009087,
				"y": 4.4637228189,
				"z": -0.2006154931,
				"element": "H" 
			},
			{
				"x": -3.6341315119,
				"y": 2.6003887297,
				"z": 0.7433374592,
				"element": "H" 
			},
			{
				"x": -2.6225719855,
				"y": 0.3990969526,
				"z": 1.147511405,
				"element": "H" 
			},
			{
				"x": 4.8941889531,
				"y": -1.0183108925,
				"z": -1.270912602,
				"element": "H" 
			},
			{
				"x": 3.6673151112,
				"y": -2.3593272856,
				"z": -2.9797744706,
				"element": "H" 
			},
			{
				"x": 1.2950720412,
				"y": -1.725130709,
				"z": -3.5259845728,
				"element": "H" 
			},
			{
				"x": 0.271772521,
				"y": 0.2115404655,
				"z": -2.3098930163,
				"element": "H" 
			}
		],
		 "valence_orbital": [ 
			{
				"type": "occ",
				"energy": -0.2627,
				"method": "rhf"
			},
			{
				"type": "occ",
				"energy": -0.26011,
				"method": "rhf"
			},
			{
				"type": "occ",
				"energy": -0.25315,
				"method": "rhf"
			},
			{
				"type": "occ",
				"energy": -0.23803,
				"method": "rhf"
			},
			{
				"type": "occ",
				"energy": -0.22966,
				"method": "rhf"
			},
			{
				"type": "unocc",
				"energy": -0.05861,
				"method": "rhf"
			},
			{
				"type": "unocc",
				"energy": -0.02225,
				"method": "rhf"
			},
			{
				"type": "unocc",
				"energy": -0.01343,
				"method": "rhf"
			},
			{
				"type": "unocc",
				"energy": 0.00316,
				"method": "rhf"
			},
			{
				"type": "unocc",
				"energy": 0.04961,
				"method": "rhf"
			}
		],
		"cosmo_sigma_profile": { 
			"-0.025": 0.0,
			"-0.024": 0.0,
			"-0.023": 0.0,
			"-0.022": 0.0,
			"-0.021": 0.0,
			"-0.02": 0.0,
			"-0.019": 0.0,
			"-0.018": 0.0,
			"-0.017": 0.0,
			"-0.016": 0.0,
			"-0.015": 0.0,
			"-0.014": 0.0,
			"-0.013": 0.0,
			"-0.012": 0.0,
			"-0.011": 0.0,
			"-0.01": 0.0,
			"-0.009": 0.0,
			"-0.008": 0.843722084053,
			"-0.007": 9.98164189048,
			"-0.006": 22.4977481353,
			"-0.005": 24.6872922867,
			"-0.004": 23.5193305546,
			"-0.003": 19.9114704572,
			"-0.002": 14.4203907807,
			"-0.001": 14.4290450247,
			"0.0": 14.8062969126,
			"0.001": 18.1789660685,
			"0.002": 20.2317611775,
			"0.003": 14.5269445917,
			"0.004": 13.9878284903,
			"0.005": 8.86241979151,
			"0.006": 3.99519644415,
			"0.007": 4.02696103506,
			"0.008": 2.63771964626,
			"0.009": 3.34336903903,
			"0.01": 2.19559190658,
			"0.011": 3.90521118844,
			"0.012": 4.40875062397,
			"0.013": 1.94166580378,
			"0.014": 1.9956434781,
			"0.015": 1.31982303505,
			"0.016": 1.23501320542,
			"0.017": 0.994529759778,
			"0.018": 0.0473814825676,
			"0.019": 0.0,
			"0.02": 0.0,
			"0.021": 0.0,
			"0.022": 0.0,
			"0.023": 0.0,
			"0.024": 0.0,
			"0.025": 0.0
		}
	}
}
