{
	 "smiles": "O=C1CC2=CC=CC=C2CO1", 
	 "Tm": 355.65, 
	 "num_atms": 19, 
	 "gaussian": { 
		 "optdone": 1, 
		 "sigma_profile": "yes", 
		 "theory": "DFT", 
		 "functional": "B3LYP", 
		 "basiset": "6-31G**", 
		 "properties": { 
			 "R2extent": 2130.1666, 
			 "electric_dipole_moment_norm": 4.54770083119, 
			 "electric_quadrupole_moment_norm": 14.2445591381, 
			 "total_energy": -498.233216296, 
			 "HOMO_LUMO_gap": 0.23066, 
			 "cosmo_polarized_energy": -11.55, 
			 "cosmo_cavitation_energy": 22.47, 
			 "cosmo_dispersion_energy": -17.0, 
			 "cosmo_repulsion_energy": 1.36, 
			 "cosmo_total_nonelectrostatic_energy": 6.83, 
			 "SMD_solvation_energy": 4.67 
		},
		"coords": [
			{
				"x": -1.3615487256,
				"y": 2.6437640661,
				"z": 2.6072040181,
				"element": "O" 
			},
			{
				"x": -1.2114999165,
				"y": 1.4761677284,
				"z": 2.3454672062,
				"element": "C" 
			},
			{
				"x": 0.145157915,
				"y": 0.7800631688,
				"z": 2.3101244559,
				"element": "C" 
			},
			{
				"x": 0.2321942013,
				"y": -0.2541414954,
				"z": 1.2135795199,
				"element": "C" 
			},
			{
				"x": 1.3761302048,
				"y": -0.4732067359,
				"z": 0.4443172188,
				"element": "C" 
			},
			{
				"x": 1.3756756794,
				"y": -1.4616373376,
				"z": -0.5423957704,
				"element": "C" 
			},
			{
				"x": 0.2282870466,
				"y": -2.2236780591,
				"z": -0.772185443,
				"element": "C" 
			},
			{
				"x": -0.9238748622,
				"y": -1.9937937964,
				"z": -0.0175028909,
				"element": "C" 
			},
			{
				"x": -0.919655442,
				"y": -1.0143180969,
				"z": 0.9764718599,
				"element": "C" 
			},
			{
				"x": -2.1120057089,
				"y": -0.7134058631,
				"z": 1.8446591528,
				"element": "C" 
			},
			{
				"x": -2.2933260538,
				"y": 0.7023413865,
				"z": 2.0628520295,
				"element": "O" 
			},
			{
				"x": 0.2825429145,
				"y": 0.299573154,
				"z": 3.2921851399,
				"element": "H" 
			},
			{
				"x": 0.9108569492,
				"y": 1.5530184603,
				"z": 2.2264095773,
				"element": "H" 
			},
			{
				"x": 2.2655060528,
				"y": 0.1275487127,
				"z": 0.6158146818,
				"element": "H" 
			},
			{
				"x": 2.2682202122,
				"y": -1.6304287948,
				"z": -1.1376604364,
				"element": "H" 
			},
			{
				"x": 0.2261619767,
				"y": -2.9858757722,
				"z": -1.5456271776,
				"element": "H" 
			},
			{
				"x": -1.8247686581,
				"y": -2.5726667509,
				"z": -0.2054301012,
				"element": "H" 
			},
			{
				"x": -2.0198825965,
				"y": -1.2044354258,
				"z": 2.8247229292,
				"element": "H" 
			},
			{
				"x": -3.0439711889,
				"y": -1.0542885487,
				"z": 1.3888940305,
				"element": "H" 
			}
		],
		 "valence_orbital": [ 
			{
				"type": "occ",
				"energy": -0.3383,
				"method": "rhf"
			},
			{
				"type": "occ",
				"energy": -0.29352,
				"method": "rhf"
			},
			{
				"type": "occ",
				"energy": -0.2738,
				"method": "rhf"
			},
			{
				"type": "occ",
				"energy": -0.26098,
				"method": "rhf"
			},
			{
				"type": "occ",
				"energy": -0.24879,
				"method": "rhf"
			},
			{
				"type": "unocc",
				"energy": -0.01813,
				"method": "rhf"
			},
			{
				"type": "unocc",
				"energy": -0.01672,
				"method": "rhf"
			},
			{
				"type": "unocc",
				"energy": 0.01613,
				"method": "rhf"
			},
			{
				"type": "unocc",
				"energy": 0.08574,
				"method": "rhf"
			},
			{
				"type": "unocc",
				"energy": 0.09153,
				"method": "rhf"
			}
		],
		"cosmo_sigma_profile": { 
			"-0.025": 0.0,
			"-0.024": 0.0,
			"-0.023": 0.0,
			"-0.022": 0.0,
			"-0.021": 0.0,
			"-0.02": 0.0,
			"-0.019": 0.0,
			"-0.018": 0.0,
			"-0.017": 0.0,
			"-0.016": 0.0,
			"-0.015": 0.0,
			"-0.014": 0.0,
			"-0.013": 0.0,
			"-0.012": 0.0,
			"-0.011": 0.0,
			"-0.01": 0.0,
			"-0.009": 1.12090754263,
			"-0.008": 3.45584386559,
			"-0.007": 10.0647720613,
			"-0.006": 16.5399736789,
			"-0.005": 16.5093778798,
			"-0.004": 16.4621165976,
			"-0.003": 13.7490432357,
			"-0.002": 9.88149335346,
			"-0.001": 8.26436467018,
			"0.0": 8.72184142888,
			"0.001": 8.73104676385,
			"0.002": 8.03865515327,
			"0.003": 9.419578896,
			"0.004": 9.62150925261,
			"0.005": 10.5375937729,
			"0.006": 3.23067769601,
			"0.007": 2.32152032222,
			"0.008": 2.32053248616,
			"0.009": 2.85254461394,
			"0.01": 3.63941080169,
			"0.011": 4.87866743164,
			"0.012": 5.89370700046,
			"0.013": 2.76456007439,
			"0.014": 0.176076874831,
			"0.015": 0.0,
			"0.016": 0.0,
			"0.017": 0.0,
			"0.018": 0.0,
			"0.019": 0.0,
			"0.02": 0.0,
			"0.021": 0.0,
			"0.022": 0.0,
			"0.023": 0.0,
			"0.024": 0.0,
			"0.025": 0.0
		}
	}
}
