{
	 "smiles": "CC(=O)OCC(=O)C1CCC2C3CCC4=CC(=O)CCC4(C)C3CCC12C", 
	 "Tm": 430.15, 
	 "num_atms": 59, 
	 "gaussian": { 
		 "optdone": 1, 
		 "sigma_profile": "yes", 
		 "theory": "DFT", 
		 "functional": "B3LYP", 
		 "basiset": "6-31G**", 
		 "properties": { 
			 "R2extent": 14277.8303, 
			 "electric_dipole_moment_norm": 5.83588177485, 
			 "electric_quadrupole_moment_norm": 29.941367819, 
			 "total_energy": -1196.63525248, 
			 "HOMO_LUMO_gap": 0.18611, 
			 "cosmo_polarized_energy": -19.04, 
			 "cosmo_cavitation_energy": 52.96, 
			 "cosmo_dispersion_energy": -35.91, 
			 "cosmo_repulsion_energy": 2.65, 
			 "cosmo_total_nonelectrostatic_energy": 19.7, 
			 "SMD_solvation_energy": 9.86 
		},
		"coords": [
			{
				"x": -5.2488350772,
				"y": -3.3134644038,
				"z": 3.7607213567,
				"element": "C" 
			},
			{
				"x": -5.0935555119,
				"y": -4.1801503857,
				"z": 2.5354114591,
				"element": "C" 
			},
			{
				"x": -5.8863409513,
				"y": -5.0032346982,
				"z": 2.1407501198,
				"element": "O" 
			},
			{
				"x": -3.9162542269,
				"y": -3.9165647915,
				"z": 1.9034975195,
				"element": "O" 
			},
			{
				"x": -3.649268654,
				"y": -4.7150793695,
				"z": 0.7353071855,
				"element": "C" 
			},
			{
				"x": -2.4765117187,
				"y": -4.1211281575,
				"z": -0.047554063,
				"element": "C" 
			},
			{
				"x": -1.5388331306,
				"y": -4.8504345421,
				"z": -0.3209953112,
				"element": "O" 
			},
			{
				"x": -2.5090538957,
				"y": -2.6852383934,
				"z": -0.5580240205,
				"element": "C" 
			},
			{
				"x": -3.8055095915,
				"y": -1.8656204178,
				"z": -0.4438292263,
				"element": "C" 
			},
			{
				"x": -3.3272301053,
				"y": -0.4645975595,
				"z": -0.8442406174,
				"element": "C" 
			},
			{
				"x": -1.9905779551,
				"y": -0.3039594811,
				"z": -0.0881037366,
				"element": "C" 
			},
			{
				"x": -1.026749594,
				"y": 0.8038585677,
				"z": -0.6091660539,
				"element": "C" 
			},
			{
				"x": -0.9672471919,
				"y": 1.0388437823,
				"z": -2.1335417642,
				"element": "C" 
			},
			{
				"x": -0.0088903546,
				"y": 2.2050156553,
				"z": -2.4790427962,
				"element": "C" 
			},
			{
				"x": 1.3527650339,
				"y": 1.984147808,
				"z": -1.8644202407,
				"element": "C" 
			},
			{
				"x": 2.4592785156,
				"y": 1.9061476889,
				"z": -2.6323318473,
				"element": "C" 
			},
			{
				"x": 3.7896762621,
				"y": 1.5079087738,
				"z": -2.1364124514,
				"element": "C" 
			},
			{
				"x": 4.7867933164,
				"y": 1.5739888307,
				"z": -2.8427171199,
				"element": "O" 
			},
			{
				"x": 3.8280451867,
				"y": 0.9179887059,
				"z": -0.734936814,
				"element": "C" 
			},
			{
				"x": 2.8027454498,
				"y": 1.5680808601,
				"z": 0.2040537599,
				"element": "C" 
			},
			{
				"x": 1.3613516018,
				"y": 1.7809241454,
				"z": -0.3545562718,
				"element": "C" 
			},
			{
				"x": 0.8405866932,
				"y": 3.0668107173,
				"z": 0.3473309718,
				"element": "C" 
			},
			{
				"x": 0.3957336248,
				"y": 0.5812400347,
				"z": -0.027761984,
				"element": "C" 
			},
			{
				"x": 0.9726773276,
				"y": -0.7958239509,
				"z": -0.4648033578,
				"element": "C" 
			},
			{
				"x": -0.0883213011,
				"y": -1.8662685073,
				"z": -0.8040286512,
				"element": "C" 
			},
			{
				"x": -1.3744521659,
				"y": -1.754296492,
				"z": 0.0305665565,
				"element": "C" 
			},
			{
				"x": -1.0809938804,
				"y": -2.0949712469,
				"z": 1.5066997529,
				"element": "C" 
			},
			{
				"x": -5.2678313499,
				"y": -2.2574849935,
				"z": 3.4742016945,
				"element": "H" 
			},
			{
				"x": -6.175368361,
				"y": -3.5733829677,
				"z": 4.2712756158,
				"element": "H" 
			},
			{
				"x": -4.3973668944,
				"y": -3.4549414633,
				"z": 4.4323308329,
				"element": "H" 
			},
			{
				"x": -4.5470220641,
				"y": -4.7563118878,
				"z": 0.1069246045,
				"element": "H" 
			},
			{
				"x": -3.3845278102,
				"y": -5.7331497099,
				"z": 1.0299995922,
				"element": "H" 
			},
			{
				"x": -2.2885465661,
				"y": -2.7959360389,
				"z": -1.6290633229,
				"element": "H" 
			},
			{
				"x": -4.6070511101,
				"y": -2.2456531044,
				"z": -1.0865139455,
				"element": "H" 
			},
			{
				"x": -4.1774109978,
				"y": -1.8616538278,
				"z": 0.5849423063,
				"element": "H" 
			},
			{
				"x": -4.0456285796,
				"y": 0.3260860604,
				"z": -0.6026818506,
				"element": "H" 
			},
			{
				"x": -3.1709099218,
				"y": -0.4381594285,
				"z": -1.9287925412,
				"element": "H" 
			},
			{
				"x": -2.2468944773,
				"y": -0.00039742,
				"z": 0.9358351995,
				"element": "H" 
			},
			{
				"x": -1.4185505807,
				"y": 1.7372313252,
				"z": -0.1869693479,
				"element": "H" 
			},
			{
				"x": -1.9623768373,
				"y": 1.2805769199,
				"z": -2.521471754,
				"element": "H" 
			},
			{
				"x": -0.6336968776,
				"y": 0.1410024637,
				"z": -2.6648691697,
				"element": "H" 
			},
			{
				"x": -0.4456588732,
				"y": 3.1412016602,
				"z": -2.1067292028,
				"element": "H" 
			},
			{
				"x": 0.0814391619,
				"y": 2.3086959542,
				"z": -3.5649230041,
				"element": "H" 
			},
			{
				"x": 2.4047499517,
				"y": 2.0999493749,
				"z": -3.7017631354,
				"element": "H" 
			},
			{
				"x": 4.8434149906,
				"y": 1.0291824933,
				"z": -0.3432028225,
				"element": "H" 
			},
			{
				"x": 3.6512817962,
				"y": -0.1591284966,
				"z": -0.8398872608,
				"element": "H" 
			},
			{
				"x": 3.1980640707,
				"y": 2.5550063963,
				"z": 0.4717204645,
				"element": "H" 
			},
			{
				"x": 2.7414932392,
				"y": 1.0089414225,
				"z": 1.1454931852,
				"element": "H" 
			},
			{
				"x": 1.457018924,
				"y": 3.9269515403,
				"z": 0.067652399,
				"element": "H" 
			},
			{
				"x": 0.9117165026,
				"y": 2.9433623122,
				"z": 1.4339425621,
				"element": "H" 
			},
			{
				"x": -0.195404525,
				"y": 3.3126369879,
				"z": 0.1107520606,
				"element": "H" 
			},
			{
				"x": 0.2927345796,
				"y": 0.5718569173,
				"z": 1.0664277563,
				"element": "H" 
			},
			{
				"x": 1.636569256,
				"y": -1.1653285056,
				"z": 0.3241919765,
				"element": "H" 
			},
			{
				"x": 1.5981917928,
				"y": -0.6680473378,
				"z": -1.3531710156,
				"element": "H" 
			},
			{
				"x": 0.3358980988,
				"y": -2.8696342653,
				"z": -0.6913768109,
				"element": "H" 
			},
			{
				"x": -0.3583074571,
				"y": -1.7794202604,
				"z": -1.862776277,
				"element": "H" 
			},
			{
				"x": -0.6143328893,
				"y": -3.0806125553,
				"z": 1.6003256498,
				"element": "H" 
			},
			{
				"x": -1.9971880927,
				"y": -2.0991029648,
				"z": 2.1052592407,
				"element": "H" 
			},
			{
				"x": -0.3989258045,
				"y": -1.3638597739,
				"z": 1.9507439662,
				"element": "H" 
			}
		],
		 "valence_orbital": [ 
			{
				"type": "occ",
				"energy": -0.28687,
				"method": "rhf"
			},
			{
				"type": "occ",
				"energy": -0.28558,
				"method": "rhf"
			},
			{
				"type": "occ",
				"energy": -0.25598,
				"method": "rhf"
			},
			{
				"type": "occ",
				"energy": -0.25305,
				"method": "rhf"
			},
			{
				"type": "occ",
				"energy": -0.22978,
				"method": "rhf"
			},
			{
				"type": "unocc",
				"energy": -0.04367,
				"method": "rhf"
			},
			{
				"type": "unocc",
				"energy": -0.03747,
				"method": "rhf"
			},
			{
				"type": "unocc",
				"energy": -0.00153,
				"method": "rhf"
			},
			{
				"type": "unocc",
				"energy": 0.05864,
				"method": "rhf"
			},
			{
				"type": "unocc",
				"energy": 0.06312,
				"method": "rhf"
			}
		],
		"cosmo_sigma_profile": { 
			"-0.025": 0.0,
			"-0.024": 0.0,
			"-0.023": 0.0,
			"-0.022": 0.0,
			"-0.021": 0.0,
			"-0.02": 0.0,
			"-0.019": 0.0,
			"-0.018": 0.0,
			"-0.017": 0.0,
			"-0.016": 0.0,
			"-0.015": 0.0,
			"-0.014": 0.0,
			"-0.013": 0.0,
			"-0.012": 0.0,
			"-0.011": 0.0,
			"-0.01": 0.0,
			"-0.009": 0.0357857188046,
			"-0.008": 1.1446240291,
			"-0.007": 3.95286513722,
			"-0.006": 9.89351733358,
			"-0.005": 17.0946032778,
			"-0.004": 32.1701520668,
			"-0.003": 57.6149010352,
			"-0.002": 67.4786176722,
			"-0.001": 59.5275297187,
			"0.0": 43.9332291425,
			"0.001": 28.4569336565,
			"0.002": 14.418669237,
			"0.003": 8.56522758748,
			"0.004": 7.6152660818,
			"0.005": 5.78520834407,
			"0.006": 4.34126959069,
			"0.007": 4.08778293996,
			"0.008": 4.61613585473,
			"0.009": 5.42901476643,
			"0.01": 5.89153692298,
			"0.011": 9.22142408224,
			"0.012": 9.23129717107,
			"0.013": 5.44129959428,
			"0.014": 3.24274119426,
			"0.015": 0.644753454655,
			"0.016": 0.0,
			"0.017": 0.0,
			"0.018": 0.0,
			"0.019": 0.0,
			"0.02": 0.0,
			"0.021": 0.0,
			"0.022": 0.0,
			"0.023": 0.0,
			"0.024": 0.0,
			"0.025": 0.0
		}
	}
}
