{
	 "smiles": "OC(=O)CCN1C=CC2=C1C=CC(Cl)=C2", 
	 "Tm": 333.15, 
	 "num_atms": 25, 
	 "gaussian": { 
		 "optdone": 1, 
		 "sigma_profile": "yes", 
		 "theory": "DFT", 
		 "functional": "B3LYP", 
		 "basiset": "6-31G**", 
		 "properties": { 
			 "R2extent": 5528.1088, 
			 "electric_dipole_moment_norm": 4.05283350386, 
			 "electric_quadrupole_moment_norm": 10.3358913283, 
			 "total_energy": -1090.60984677, 
			 "HOMO_LUMO_gap": 0.18945, 
			 "cosmo_polarized_energy": -13.94, 
			 "cosmo_cavitation_energy": 31.58, 
			 "cosmo_dispersion_energy": -22.67, 
			 "cosmo_repulsion_energy": 1.78, 
			 "cosmo_total_nonelectrostatic_energy": 10.68, 
			 "SMD_solvation_energy": 6.02 
		},
		"coords": [
			{
				"x": -0.8986698817,
				"y": 2.2293568997,
				"z": 3.9453637734,
				"element": "O" 
			},
			{
				"x": -1.018425369,
				"y": 0.895512372,
				"z": 3.7591839623,
				"element": "C" 
			},
			{
				"x": -1.2196946434,
				"y": 0.1184684213,
				"z": 4.6675822281,
				"element": "O" 
			},
			{
				"x": -0.8723995941,
				"y": 0.51877205,
				"z": 2.3021597392,
				"element": "C" 
			},
			{
				"x": -1.0058455482,
				"y": -0.9956655257,
				"z": 2.0899811458,
				"element": "C" 
			},
			{
				"x": -0.8677703713,
				"y": -1.3786564925,
				"z": 0.6957368556,
				"element": "N" 
			},
			{
				"x": -1.9106560886,
				"y": -1.5508729433,
				"z": -0.1997450683,
				"element": "C" 
			},
			{
				"x": -1.4252373129,
				"y": -1.8124810462,
				"z": -1.4537462404,
				"element": "C" 
			},
			{
				"x": 0.0060296508,
				"y": -1.7990743126,
				"z": -1.3554055457,
				"element": "C" 
			},
			{
				"x": 0.3236022615,
				"y": -1.5186852635,
				"z": 0.0042920859,
				"element": "C" 
			},
			{
				"x": 1.6468988586,
				"y": -1.4325843833,
				"z": 0.452510579,
				"element": "C" 
			},
			{
				"x": 2.6641062384,
				"y": -1.633383491,
				"z": -0.4729552552,
				"element": "C" 
			},
			{
				"x": 2.3523076262,
				"y": -1.9124402724,
				"z": -1.8174986366,
				"element": "C" 
			},
			{
				"x": 3.6820827591,
				"y": -2.1571243936,
				"z": -2.9518895093,
				"element": "Cl" 
			},
			{
				"x": 1.0475544095,
				"y": -2.0010074049,
				"z": -2.2773994782,
				"element": "C" 
			},
			{
				"x": -1.0047997262,
				"y": 2.3837028997,
				"z": 4.8995116516,
				"element": "H" 
			},
			{
				"x": -1.628653757,
				"y": 1.0614727772,
				"z": 1.7232332372,
				"element": "H" 
			},
			{
				"x": 0.0964664837,
				"y": 0.8823792281,
				"z": 1.9416015669,
				"element": "H" 
			},
			{
				"x": -0.255856013,
				"y": -1.5255018694,
				"z": 2.6838314288,
				"element": "H" 
			},
			{
				"x": -1.979470803,
				"y": -1.3392261184,
				"z": 2.447496206,
				"element": "H" 
			},
			{
				"x": -2.9326477999,
				"y": -1.4810298679,
				"z": 0.1471017797,
				"element": "H" 
			},
			{
				"x": -2.0158321545,
				"y": -2.0045453798,
				"z": -2.337857619,
				"element": "H" 
			},
			{
				"x": 1.8879065883,
				"y": -1.2209860059,
				"z": 1.4897637115,
				"element": "H" 
			},
			{
				"x": 3.7025518223,
				"y": -1.5771476793,
				"z": -0.1674398674,
				"element": "H" 
			},
			{
				"x": 0.8429523644,
				"y": -2.2192521982,
				"z": -3.3198127307,
				"element": "H" 
			}
		],
		 "valence_orbital": [ 
			{
				"type": "occ",
				"energy": -0.30164,
				"method": "rhf"
			},
			{
				"type": "occ",
				"energy": -0.29306,
				"method": "rhf"
			},
			{
				"type": "occ",
				"energy": -0.28031,
				"method": "rhf"
			},
			{
				"type": "occ",
				"energy": -0.2212,
				"method": "rhf"
			},
			{
				"type": "occ",
				"energy": -0.20964,
				"method": "rhf"
			},
			{
				"type": "unocc",
				"energy": -0.02019,
				"method": "rhf"
			},
			{
				"type": "unocc",
				"energy": -0.00586,
				"method": "rhf"
			},
			{
				"type": "unocc",
				"energy": 0.01559,
				"method": "rhf"
			},
			{
				"type": "unocc",
				"energy": 0.03854,
				"method": "rhf"
			},
			{
				"type": "unocc",
				"energy": 0.05854,
				"method": "rhf"
			}
		],
		"cosmo_sigma_profile": { 
			"-0.025": 0.0,
			"-0.024": 0.0,
			"-0.023": 0.0,
			"-0.022": 0.0,
			"-0.021": 0.0,
			"-0.02": 0.0,
			"-0.019": 0.0557981887571,
			"-0.018": 0.619500121116,
			"-0.017": 0.980941686705,
			"-0.016": 0.883988183874,
			"-0.015": 1.2214995138,
			"-0.014": 0.176736797747,
			"-0.013": 0.676786188563,
			"-0.012": 0.740584110355,
			"-0.011": 1.17542014053,
			"-0.01": 0.563627122842,
			"-0.009": 0.597557801373,
			"-0.008": 5.22101333401,
			"-0.007": 12.5853126243,
			"-0.006": 19.2946231949,
			"-0.005": 16.2009883079,
			"-0.004": 14.7692086132,
			"-0.003": 14.7042983761,
			"-0.002": 13.7941181364,
			"-0.001": 12.5938810842,
			"0.0": 10.8138084114,
			"0.001": 13.7547452661,
			"0.002": 14.6741941288,
			"0.003": 18.1516999029,
			"0.004": 21.7401994149,
			"0.005": 28.7049235517,
			"0.006": 10.3990590772,
			"0.007": 2.96760650167,
			"0.008": 2.74205131255,
			"0.009": 3.05657926744,
			"0.01": 2.78490111346,
			"0.011": 3.8863631316,
			"0.012": 3.36018583801,
			"0.013": 0.0469984178218,
			"0.014": 0.0,
			"0.015": 0.0,
			"0.016": 0.0,
			"0.017": 0.0,
			"0.018": 0.0,
			"0.019": 0.0,
			"0.02": 0.0,
			"0.021": 0.0,
			"0.022": 0.0,
			"0.023": 0.0,
			"0.024": 0.0,
			"0.025": 0.0
		}
	}
}
