{
	 "smiles": "CC1=NOC2=C1C(=CC(=N2)C1CC1)C(O)=O", 
	 "Tm": 489.15, 
	 "num_atms": 26, 
	 "gaussian": { 
		 "optdone": 1, 
		 "sigma_profile": "yes", 
		 "theory": "DFT", 
		 "functional": "B3LYP", 
		 "basiset": "6-31G**", 
		 "properties": { 
			 "R2extent": 3957.9146, 
			 "electric_dipole_moment_norm": 3.07745998674, 
			 "electric_quadrupole_moment_norm": 18.3198421857, 
			 "total_energy": -760.323432254, 
			 "HOMO_LUMO_gap": 0.16224, 
			 "cosmo_polarized_energy": -13.54, 
			 "cosmo_cavitation_energy": 30.47, 
			 "cosmo_dispersion_energy": -22.46, 
			 "cosmo_repulsion_energy": 1.73, 
			 "cosmo_total_nonelectrostatic_energy": 9.74, 
			 "SMD_solvation_energy": 4.97 
		},
		"coords": [
			{
				"x": -3.1683581112,
				"y": -1.1394096094,
				"z": 2.301566877,
				"element": "C" 
			},
			{
				"x": -2.460462103,
				"y": -0.2142516318,
				"z": 1.3606890209,
				"element": "C" 
			},
			{
				"x": -3.1952248221,
				"y": 0.6503634479,
				"z": 0.7023603853,
				"element": "N" 
			},
			{
				"x": -2.3504917935,
				"y": 1.4170426077,
				"z": -0.1180504215,
				"element": "O" 
			},
			{
				"x": -1.0863785896,
				"y": 0.985439531,
				"z": 0.068733213,
				"element": "C" 
			},
			{
				"x": -1.0650484373,
				"y": -0.0659005753,
				"z": 1.0071082616,
				"element": "C" 
			},
			{
				"x": 0.2134929283,
				"y": -0.6021030658,
				"z": 1.2849856827,
				"element": "C" 
			},
			{
				"x": 1.2978431652,
				"y": -0.0428008738,
				"z": 0.6124905292,
				"element": "C" 
			},
			{
				"x": 1.1297730004,
				"y": 1.015416469,
				"z": -0.3083558967,
				"element": "C" 
			},
			{
				"x": -0.0767549655,
				"y": 1.5346795071,
				"z": -0.5827328836,
				"element": "N" 
			},
			{
				"x": 2.3015677571,
				"y": 1.5919433027,
				"z": -1.0092434588,
				"element": "C" 
			},
			{
				"x": 2.1513709608,
				"y": 2.0905205416,
				"z": -2.4394006018,
				"element": "C" 
			},
			{
				"x": 2.3265621535,
				"y": 3.0788459088,
				"z": -1.333132713,
				"element": "C" 
			},
			{
				"x": 0.5367458725,
				"y": -1.7147009845,
				"z": 2.2297900106,
				"element": "C" 
			},
			{
				"x": -0.5430712347,
				"y": -2.2238762478,
				"z": 2.8610952994,
				"element": "O" 
			},
			{
				"x": 1.6577950656,
				"y": -2.1359227106,
				"z": 2.4259651619,
				"element": "O" 
			},
			{
				"x": -3.0088670061,
				"y": -2.1832916277,
				"z": 2.0213612523,
				"element": "H" 
			},
			{
				"x": -2.8010507623,
				"y": -1.0180653878,
				"z": 3.323272413,
				"element": "H" 
			},
			{
				"x": -4.2367289844,
				"y": -0.9165554671,
				"z": 2.2724404067,
				"element": "H" 
			},
			{
				"x": 2.2859023484,
				"y": -0.440321968,
				"z": 0.8118654386,
				"element": "H" 
			},
			{
				"x": 3.2506449616,
				"y": 1.1330891273,
				"z": -0.749445171,
				"element": "H" 
			},
			{
				"x": 2.9789632751,
				"y": 1.9055533108,
				"z": -3.1171779443,
				"element": "H" 
			},
			{
				"x": 1.1615408368,
				"y": 1.9968267727,
				"z": -2.8739638201,
				"element": "H" 
			},
			{
				"x": 1.4541108199,
				"y": 3.6468941053,
				"z": -1.0271943718,
				"element": "H" 
			},
			{
				"x": 3.2776645649,
				"y": 3.5919713013,
				"z": -1.2299417809,
				"element": "H" 
			},
			{
				"x": -0.2075409005,
				"y": -2.9297857837,
				"z": 3.4392151111,
				"element": "H" 
			}
		],
		 "valence_orbital": [ 
			{
				"type": "occ",
				"energy": -0.30979,
				"method": "rhf"
			},
			{
				"type": "occ",
				"energy": -0.29941,
				"method": "rhf"
			},
			{
				"type": "occ",
				"energy": -0.28324,
				"method": "rhf"
			},
			{
				"type": "occ",
				"energy": -0.26979,
				"method": "rhf"
			},
			{
				"type": "occ",
				"energy": -0.2493,
				"method": "rhf"
			},
			{
				"type": "unocc",
				"energy": -0.08706,
				"method": "rhf"
			},
			{
				"type": "unocc",
				"energy": -0.02036,
				"method": "rhf"
			},
			{
				"type": "unocc",
				"energy": 0.02141,
				"method": "rhf"
			},
			{
				"type": "unocc",
				"energy": 0.03961,
				"method": "rhf"
			},
			{
				"type": "unocc",
				"energy": 0.06008,
				"method": "rhf"
			}
		],
		"cosmo_sigma_profile": { 
			"-0.025": 0.0,
			"-0.024": 0.0,
			"-0.023": 0.0,
			"-0.022": 0.0,
			"-0.021": 0.0,
			"-0.02": 0.0,
			"-0.019": 0.528953375317,
			"-0.018": 1.04399767414,
			"-0.017": 0.584467795851,
			"-0.016": 1.07342613362,
			"-0.015": 0.869842739358,
			"-0.014": 0.796350379325,
			"-0.013": 0.630477265358,
			"-0.012": 0.400334079032,
			"-0.011": 0.476456169781,
			"-0.01": 0.776596372455,
			"-0.009": 0.517261340621,
			"-0.008": 1.90186111435,
			"-0.007": 3.26936945195,
			"-0.006": 5.21634709633,
			"-0.005": 13.3072932097,
			"-0.004": 18.5099086021,
			"-0.003": 22.8576224986,
			"-0.002": 27.2876610366,
			"-0.001": 27.4781852181,
			"0.0": 23.1752731136,
			"0.001": 17.2165732772,
			"0.002": 13.7948093606,
			"0.003": 9.9047805063,
			"0.004": 7.2124616005,
			"0.005": 4.71529906877,
			"0.006": 5.19680049474,
			"0.007": 8.18455696785,
			"0.008": 7.97468529212,
			"0.009": 3.71544439816,
			"0.01": 5.72756277591,
			"0.011": 5.95899919382,
			"0.012": 1.71564253739,
			"0.013": 0.97687841554,
			"0.014": 0.338687882815,
			"0.015": 0.0,
			"0.016": 0.0,
			"0.017": 0.0,
			"0.018": 0.0,
			"0.019": 0.0,
			"0.02": 0.0,
			"0.021": 0.0,
			"0.022": 0.0,
			"0.023": 0.0,
			"0.024": 0.0,
			"0.025": 0.0
		}
	}
}
