{
	 "smiles": "ClCCC(=O)N1CCC2=C1C=CC=C2", 
	 "Tm": 357.15, 
	 "num_atms": 26, 
	 "gaussian": { 
		 "optdone": 1, 
		 "sigma_profile": "yes", 
		 "theory": "DFT", 
		 "functional": "B3LYP", 
		 "basiset": "6-31G**", 
		 "properties": { 
			 "R2extent": 4043.6383, 
			 "electric_dipole_moment_norm": 3.96845571728, 
			 "electric_quadrupole_moment_norm": 3.91001056776, 
			 "total_energy": -1016.59456543, 
			 "HOMO_LUMO_gap": 0.19847, 
			 "cosmo_polarized_energy": -10.34, 
			 "cosmo_cavitation_energy": 30.34, 
			 "cosmo_dispersion_energy": -22.53, 
			 "cosmo_repulsion_energy": 1.78, 
			 "cosmo_total_nonelectrostatic_energy": 9.59, 
			 "SMD_solvation_energy": 4.46 
		},
		"coords": [
			{
				"x": 2.281024369,
				"y": -3.7955764796,
				"z": -1.0748408908,
				"element": "Cl" 
			},
			{
				"x": 2.4551981799,
				"y": -1.9862701902,
				"z": -1.1161725636,
				"element": "C" 
			},
			{
				"x": 1.3591597874,
				"y": -1.3299610601,
				"z": -0.2853081487,
				"element": "C" 
			},
			{
				"x": 1.5310818087,
				"y": 0.1840995758,
				"z": -0.3020356558,
				"element": "C" 
			},
			{
				"x": 2.5428072672,
				"y": 0.6970373863,
				"z": -0.7762300164,
				"element": "O" 
			},
			{
				"x": 0.5267997197,
				"y": 0.9779532282,
				"z": 0.202439923,
				"element": "N" 
			},
			{
				"x": 0.6941835533,
				"y": 2.4485670902,
				"z": 0.1001398124,
				"element": "C" 
			},
			{
				"x": -0.7201782975,
				"y": 3.0183094606,
				"z": 0.3319358374,
				"element": "C" 
			},
			{
				"x": -1.4629436613,
				"y": 1.8598664196,
				"z": 0.9567215493,
				"element": "C" 
			},
			{
				"x": -0.7057519338,
				"y": 0.679941899,
				"z": 0.8358587832,
				"element": "C" 
			},
			{
				"x": -1.1991043609,
				"y": -0.5273769902,
				"z": 1.3392927341,
				"element": "C" 
			},
			{
				"x": -2.4624573676,
				"y": -0.5325124145,
				"z": 1.9427308644,
				"element": "C" 
			},
			{
				"x": -3.2189687979,
				"y": 0.632827456,
				"z": 2.0561289298,
				"element": "C" 
			},
			{
				"x": -2.7122851282,
				"y": 1.840057287,
				"z": 1.5599491882,
				"element": "C" 
			},
			{
				"x": 2.4040382658,
				"y": -1.6880835999,
				"z": -2.1624461851,
				"element": "H" 
			},
			{
				"x": 3.4456625549,
				"y": -1.749694311,
				"z": -0.7331509508,
				"element": "H" 
			},
			{
				"x": 0.3723404665,
				"y": -1.6098931174,
				"z": -0.6676186591,
				"element": "H" 
			},
			{
				"x": 1.4152955826,
				"y": -1.6958363234,
				"z": 0.7464506391,
				"element": "H" 
			},
			{
				"x": 1.1223670511,
				"y": 2.6945500955,
				"z": -0.871497162,
				"element": "H" 
			},
			{
				"x": 1.4020278266,
				"y": 2.7834609747,
				"z": 0.8667708257,
				"element": "H" 
			},
			{
				"x": -0.701741692,
				"y": 3.9059746274,
				"z": 0.9709852129,
				"element": "H" 
			},
			{
				"x": -1.1884467461,
				"y": 3.3129096073,
				"z": -0.6158795314,
				"element": "H" 
			},
			{
				"x": -0.6356688386,
				"y": -1.4481773913,
				"z": 1.2918740557,
				"element": "H" 
			},
			{
				"x": -2.8487125939,
				"y": -1.4681204298,
				"z": 2.3362983249,
				"element": "H" 
			},
			{
				"x": -4.1937986512,
				"y": 0.6060143888,
				"z": 2.5328853661,
				"element": "H" 
			},
			{
				"x": -3.2898283635,
				"y": 2.7565328111,
				"z": 1.6476177174,
				"element": "H" 
			}
		],
		 "valence_orbital": [ 
			{
				"type": "occ",
				"energy": -0.29732,
				"method": "rhf"
			},
			{
				"type": "occ",
				"energy": -0.29227,
				"method": "rhf"
			},
			{
				"type": "occ",
				"energy": -0.26055,
				"method": "rhf"
			},
			{
				"type": "occ",
				"energy": -0.25723,
				"method": "rhf"
			},
			{
				"type": "occ",
				"energy": -0.21806,
				"method": "rhf"
			},
			{
				"type": "unocc",
				"energy": -0.01959,
				"method": "rhf"
			},
			{
				"type": "unocc",
				"energy": -0.01334,
				"method": "rhf"
			},
			{
				"type": "unocc",
				"energy": 0.02658,
				"method": "rhf"
			},
			{
				"type": "unocc",
				"energy": 0.03615,
				"method": "rhf"
			},
			{
				"type": "unocc",
				"energy": 0.08693,
				"method": "rhf"
			}
		],
		"cosmo_sigma_profile": { 
			"-0.025": 0.0,
			"-0.024": 0.0,
			"-0.023": 0.0,
			"-0.022": 0.0,
			"-0.021": 0.0,
			"-0.02": 0.0,
			"-0.019": 0.0,
			"-0.018": 0.0,
			"-0.017": 0.0,
			"-0.016": 0.0,
			"-0.015": 0.0,
			"-0.014": 0.0,
			"-0.013": 0.0,
			"-0.012": 0.0,
			"-0.011": 0.0,
			"-0.01": 0.0,
			"-0.009": 0.0,
			"-0.008": 0.941753425277,
			"-0.007": 6.77205248554,
			"-0.006": 14.6267497781,
			"-0.005": 23.4098234026,
			"-0.004": 26.7034967389,
			"-0.003": 22.861498158,
			"-0.002": 18.6172646164,
			"-0.001": 16.3680034332,
			"0.0": 13.9721047539,
			"0.001": 11.1825912586,
			"0.002": 11.9081141046,
			"0.003": 11.742535588,
			"0.004": 13.3452830866,
			"0.005": 15.7318309948,
			"0.006": 14.9636981614,
			"0.007": 5.98405230707,
			"0.008": 1.58270735544,
			"0.009": 1.37630994393,
			"0.01": 1.45733872521,
			"0.011": 1.69884936169,
			"0.012": 2.3201930671,
			"0.013": 4.41163308037,
			"0.014": 0.778852784095,
			"0.015": 0.0,
			"0.016": 0.0,
			"0.017": 0.0,
			"0.018": 0.0,
			"0.019": 0.0,
			"0.02": 0.0,
			"0.021": 0.0,
			"0.022": 0.0,
			"0.023": 0.0,
			"0.024": 0.0,
			"0.025": 0.0
		}
	}
}
