{
	 "smiles": "CC1=C(C=CC=C1[N+]([O-])=O)[N+]([O-])=O", 
	 "Tm": 337.15, 
	 "num_atms": 19, 
	 "gaussian": { 
		 "optdone": 1, 
		 "sigma_profile": "yes", 
		 "theory": "DFT", 
		 "functional": "B3LYP", 
		 "basiset": "6-31G**", 
		 "properties": { 
			 "R2extent": 3130.3177, 
			 "electric_dipole_moment_norm": 2.94640151711, 
			 "electric_quadrupole_moment_norm": 15.1952101144, 
			 "total_energy": -680.549583314, 
			 "HOMO_LUMO_gap": 0.18524, 
			 "cosmo_polarized_energy": -11.11, 
			 "cosmo_cavitation_energy": 24.34, 
			 "cosmo_dispersion_energy": -17.85, 
			 "cosmo_repulsion_energy": 1.39, 
			 "cosmo_total_nonelectrostatic_energy": 7.89, 
			 "SMD_solvation_energy": 8.59 
		},
		"coords": [
			{
				"x": 0.0251369845,
				"y": -0.7140134989,
				"z": -2.7686267739,
				"element": "C" 
			},
			{
				"x": -0.453022102,
				"y": 0.1883917154,
				"z": -1.6556540098,
				"element": "C" 
			},
			{
				"x": -1.4369395839,
				"y": 1.1813473909,
				"z": -1.8394233678,
				"element": "C" 
			},
			{
				"x": -1.8165422322,
				"y": 2.0904973387,
				"z": -0.8517667989,
				"element": "C" 
			},
			{
				"x": -1.2275028171,
				"y": 2.0290059613,
				"z": 0.4054361948,
				"element": "C" 
			},
			{
				"x": -0.2546403472,
				"y": 1.0669987549,
				"z": 0.6491442456,
				"element": "C" 
			},
			{
				"x": 0.1026476257,
				"y": 0.1724796963,
				"z": -0.3599631983,
				"element": "C" 
			},
			{
				"x": 1.1175929066,
				"y": -0.8317371465,
				"z": 0.0232463751,
				"element": "N" 
			},
			{
				"x": 1.0584006305,
				"y": -1.9419740376,
				"z": -0.5013381679,
				"element": "O" 
			},
			{
				"x": 1.9410033314,
				"y": -0.4988618486,
				"z": 0.8739475297,
				"element": "O" 
			},
			{
				"x": -2.1571078981,
				"y": 1.3141358589,
				"z": -3.1236064146,
				"element": "N" 
			},
			{
				"x": -2.5431179598,
				"y": 2.4395122254,
				"z": -3.4350988437,
				"element": "O" 
			},
			{
				"x": -2.3558412157,
				"y": 0.2953699319,
				"z": -3.7823380337,
				"element": "O" 
			},
			{
				"x": 1.0678518475,
				"y": -0.991126405,
				"z": -2.6229845571,
				"element": "H" 
			},
			{
				"x": -0.5581879986,
				"y": -1.638407349,
				"z": -2.7916236296,
				"element": "H" 
			},
			{
				"x": -0.09217458,
				"y": -0.2313296396,
				"z": -3.7373920859,
				"element": "H" 
			},
			{
				"x": -2.5690805641,
				"y": 2.8312868959,
				"z": -1.0918014101,
				"element": "H" 
			},
			{
				"x": -1.5221780486,
				"y": 2.7226177531,
				"z": 1.1850826646,
				"element": "H" 
			},
			{
				"x": 0.2412020209,
				"y": 0.9897064025,
				"z": 1.6087602814,
				"element": "H" 
			}
		],
		 "valence_orbital": [ 
			{
				"type": "occ",
				"energy": -0.32314,
				"method": "rhf"
			},
			{
				"type": "occ",
				"energy": -0.3149,
				"method": "rhf"
			},
			{
				"type": "occ",
				"energy": -0.31163,
				"method": "rhf"
			},
			{
				"type": "occ",
				"energy": -0.29195,
				"method": "rhf"
			},
			{
				"type": "occ",
				"energy": -0.29037,
				"method": "rhf"
			},
			{
				"type": "unocc",
				"energy": -0.10513,
				"method": "rhf"
			},
			{
				"type": "unocc",
				"energy": -0.09826,
				"method": "rhf"
			},
			{
				"type": "unocc",
				"energy": -0.03806,
				"method": "rhf"
			},
			{
				"type": "unocc",
				"energy": -0.02031,
				"method": "rhf"
			},
			{
				"type": "unocc",
				"energy": 0.05998,
				"method": "rhf"
			}
		],
		"cosmo_sigma_profile": { 
			"-0.025": 0.0,
			"-0.024": 0.0,
			"-0.023": 0.0,
			"-0.022": 0.0,
			"-0.021": 0.0,
			"-0.02": 0.0,
			"-0.019": 0.0,
			"-0.018": 0.0,
			"-0.017": 0.0,
			"-0.016": 0.0,
			"-0.015": 0.0,
			"-0.014": 0.0,
			"-0.013": 0.0,
			"-0.012": 0.0,
			"-0.011": 0.000939015577178,
			"-0.01": 0.674867471451,
			"-0.009": 3.80473649274,
			"-0.008": 9.03588908031,
			"-0.007": 10.44630278,
			"-0.006": 9.51695211006,
			"-0.005": 10.9056426756,
			"-0.004": 11.2263711769,
			"-0.003": 13.4215905191,
			"-0.002": 19.3348684796,
			"-0.001": 17.4218394769,
			"0.0": 12.1575099036,
			"0.001": 7.37812417043,
			"0.002": 5.48499168472,
			"0.003": 5.09006462644,
			"0.004": 5.7885367895,
			"0.005": 6.69949971395,
			"0.006": 9.44710252033,
			"0.007": 18.4106982053,
			"0.008": 10.6147169847,
			"0.009": 6.97122721118,
			"0.01": 1.54645011051,
			"0.011": 0.0,
			"0.012": 0.0,
			"0.013": 0.0,
			"0.014": 0.0,
			"0.015": 0.0,
			"0.016": 0.0,
			"0.017": 0.0,
			"0.018": 0.0,
			"0.019": 0.0,
			"0.02": 0.0,
			"0.021": 0.0,
			"0.022": 0.0,
			"0.023": 0.0,
			"0.024": 0.0,
			"0.025": 0.0
		}
	}
}
