{
	 "smiles": "CC1CC2=C(C=CC=C2)N1C(=O)C1CCCCC1C(O)=O", 
	 "Tm": 397.15, 
	 "num_atms": 42, 
	 "gaussian": { 
		 "optdone": 1, 
		 "sigma_profile": "yes", 
		 "theory": "DFT", 
		 "functional": "B3LYP", 
		 "basiset": "6-31G**", 
		 "properties": { 
			 "R2extent": 6481.4895, 
			 "electric_dipole_moment_norm": 6.57227893961, 
			 "electric_quadrupole_moment_norm": 24.2827528112, 
			 "total_energy": -940.943100077, 
			 "HOMO_LUMO_gap": 0.19672, 
			 "cosmo_polarized_energy": -16.45, 
			 "cosmo_cavitation_energy": 40.98, 
			 "cosmo_dispersion_energy": -28.61, 
			 "cosmo_repulsion_energy": 2.17, 
			 "cosmo_total_nonelectrostatic_energy": 14.55, 
			 "SMD_solvation_energy": 6.95 
		},
		"coords": [
			{
				"x": -2.786028918,
				"y": 1.5319962263,
				"z": -1.4088608186,
				"element": "C" 
			},
			{
				"x": -1.4407206762,
				"y": 2.0524287365,
				"z": -0.8883292599,
				"element": "C" 
			},
			{
				"x": -0.774066354,
				"y": 3.031146727,
				"z": -1.8855766878,
				"element": "C" 
			},
			{
				"x": 0.1729052036,
				"y": 2.1422963431,
				"z": -2.6543244554,
				"element": "C" 
			},
			{
				"x": 0.3608146367,
				"y": 0.9376559734,
				"z": -1.9616916811,
				"element": "C" 
			},
			{
				"x": 1.2277382901,
				"y": -0.0464844481,
				"z": -2.4411895696,
				"element": "C" 
			},
			{
				"x": 1.8998980313,
				"y": 0.2080876379,
				"z": -3.6414857092,
				"element": "C" 
			},
			{
				"x": 1.7152224662,
				"y": 1.40151258,
				"z": -4.3426669334,
				"element": "C" 
			},
			{
				"x": 0.8458522499,
				"y": 2.3792389853,
				"z": -3.8461273157,
				"element": "C" 
			},
			{
				"x": -0.4454541997,
				"y": 0.9389530257,
				"z": -0.7852163212,
				"element": "N" 
			},
			{
				"x": -0.358675822,
				"y": 0.0284814517,
				"z": 0.2291402614,
				"element": "C" 
			},
			{
				"x": 0.4090563611,
				"y": -0.9456315523,
				"z": 0.1518120024,
				"element": "O" 
			},
			{
				"x": -1.1847965824,
				"y": 0.2884708032,
				"z": 1.4933714776,
				"element": "C" 
			},
			{
				"x": -0.444233753,
				"y": 1.3137878585,
				"z": 2.4011609359,
				"element": "C" 
			},
			{
				"x": 0.786637941,
				"y": 0.7138431884,
				"z": 3.095045455,
				"element": "C" 
			},
			{
				"x": 0.4017986472,
				"y": -0.5123265121,
				"z": 3.9334743848,
				"element": "C" 
			},
			{
				"x": -0.2952233569,
				"y": -1.5780878066,
				"z": 3.0763779604,
				"element": "C" 
			},
			{
				"x": -1.5127963144,
				"y": -0.9906752861,
				"z": 2.323939919,
				"element": "C" 
			},
			{
				"x": -2.2804180869,
				"y": -2.0574751906,
				"z": 1.5300510782,
				"element": "C" 
			},
			{
				"x": -1.5842895024,
				"y": -2.7417954894,
				"z": 0.6017455611,
				"element": "O" 
			},
			{
				"x": -3.4499278965,
				"y": -2.2974029536,
				"z": 1.7326455345,
				"element": "O" 
			},
			{
				"x": -3.5055298552,
				"y": 2.354819014,
				"z": -1.4715941879,
				"element": "H" 
			},
			{
				"x": -3.2075156555,
				"y": 0.7608410817,
				"z": -0.7581828875,
				"element": "H" 
			},
			{
				"x": -2.6661851335,
				"y": 1.1022291267,
				"z": -2.4081322887,
				"element": "H" 
			},
			{
				"x": -1.56690344,
				"y": 2.5183979755,
				"z": 0.0896896305,
				"element": "H" 
			},
			{
				"x": -1.519947423,
				"y": 3.5224442476,
				"z": -2.517603141,
				"element": "H" 
			},
			{
				"x": -0.2234978474,
				"y": 3.8197955897,
				"z": -1.3564291493,
				"element": "H" 
			},
			{
				"x": 1.3691110424,
				"y": -0.9682939809,
				"z": -1.8973199368,
				"element": "H" 
			},
			{
				"x": 2.5755626015,
				"y": -0.546598916,
				"z": -4.0333026442,
				"element": "H" 
			},
			{
				"x": 2.2458009997,
				"y": 1.5715695775,
				"z": -5.2746039235,
				"element": "H" 
			},
			{
				"x": 0.6995752149,
				"y": 3.3122207932,
				"z": -4.3837702283,
				"element": "H" 
			},
			{
				"x": -2.1436530243,
				"y": 0.7276129461,
				"z": 1.2037656205,
				"element": "H" 
			},
			{
				"x": -0.1592372998,
				"y": 2.1969328051,
				"z": 1.8179707795,
				"element": "H" 
			},
			{
				"x": -1.1568464661,
				"y": 1.6563279883,
				"z": 3.1629575065,
				"element": "H" 
			},
			{
				"x": 1.25383215,
				"y": 1.4779893987,
				"z": 3.7271551025,
				"element": "H" 
			},
			{
				"x": 1.5317573464,
				"y": 0.4251992364,
				"z": 2.3433305404,
				"element": "H" 
			},
			{
				"x": -0.2675610452,
				"y": -0.1984124994,
				"z": 4.7471688427,
				"element": "H" 
			},
			{
				"x": 1.29070939,
				"y": -0.9423277364,
				"z": 4.4089838993,
				"element": "H" 
			},
			{
				"x": -0.6422946088,
				"y": -2.4033465787,
				"z": 3.7088951005,
				"element": "H" 
			},
			{
				"x": 0.4231690668,
				"y": -1.9935763934,
				"z": 2.3656631062,
				"element": "H" 
			},
			{
				"x": -2.2374579942,
				"y": -0.6604201971,
				"z": 3.0760158894,
				"element": "H" 
			},
			{
				"x": -0.7000803834,
				"y": -2.3331237765,
				"z": 0.479346551,
				"element": "H" 
			}
		],
		 "valence_orbital": [ 
			{
				"type": "occ",
				"energy": -0.28927,
				"method": "rhf"
			},
			{
				"type": "occ",
				"energy": -0.26717,
				"method": "rhf"
			},
			{
				"type": "occ",
				"energy": -0.25481,
				"method": "rhf"
			},
			{
				"type": "occ",
				"energy": -0.24556,
				"method": "rhf"
			},
			{
				"type": "occ",
				"energy": -0.2257,
				"method": "rhf"
			},
			{
				"type": "unocc",
				"energy": -0.02898,
				"method": "rhf"
			},
			{
				"type": "unocc",
				"energy": -0.01099,
				"method": "rhf"
			},
			{
				"type": "unocc",
				"energy": 0.0215,
				"method": "rhf"
			},
			{
				"type": "unocc",
				"energy": 0.02664,
				"method": "rhf"
			},
			{
				"type": "unocc",
				"energy": 0.06147,
				"method": "rhf"
			}
		],
		"cosmo_sigma_profile": { 
			"-0.025": 0.0,
			"-0.024": 0.0,
			"-0.023": 0.0,
			"-0.022": 0.0,
			"-0.021": 0.0,
			"-0.02": 0.0,
			"-0.019": 0.0,
			"-0.018": 0.0,
			"-0.017": 0.0,
			"-0.016": 0.0,
			"-0.015": 0.0,
			"-0.014": 0.0,
			"-0.013": 0.0,
			"-0.012": 0.0,
			"-0.011": 0.0,
			"-0.01": 0.0,
			"-0.009": 0.0,
			"-0.008": 0.420546065828,
			"-0.007": 2.19143174697,
			"-0.006": 12.4888632953,
			"-0.005": 23.6242161797,
			"-0.004": 36.197133147,
			"-0.003": 38.0356094414,
			"-0.002": 37.8568291411,
			"-0.001": 37.8028334116,
			"0.0": 29.2067374737,
			"0.001": 15.8191315602,
			"0.002": 10.3176099079,
			"0.003": 11.6841615963,
			"0.004": 12.2965549133,
			"0.005": 12.6518749544,
			"0.006": 8.29563965571,
			"0.007": 3.13219849776,
			"0.008": 2.87380301653,
			"0.009": 4.11416704436,
			"0.01": 3.89032153546,
			"0.011": 5.6678406962,
			"0.012": 6.51297076864,
			"0.013": 4.99882420488,
			"0.014": 1.38523255167,
			"0.015": 0.0,
			"0.016": 0.0,
			"0.017": 0.0,
			"0.018": 0.0,
			"0.019": 0.0,
			"0.02": 0.0,
			"0.021": 0.0,
			"0.022": 0.0,
			"0.023": 0.0,
			"0.024": 0.0,
			"0.025": 0.0
		}
	}
}
