{
	 "smiles": "NC1(CCCSC1)C(O)=O", 
	 "Tm": 482.15, 
	 "num_atms": 21, 
	 "gaussian": { 
		 "optdone": 1, 
		 "sigma_profile": "yes", 
		 "theory": "DFT", 
		 "functional": "B3LYP", 
		 "basiset": "6-31G**", 
		 "properties": { 
			 "R2extent": 2054.1214, 
			 "electric_dipole_moment_norm": 1.90351711314, 
			 "electric_quadrupole_moment_norm": 4.26413342545, 
			 "total_energy": -838.664983841, 
			 "HOMO_LUMO_gap": 0.21878, 
			 "cosmo_polarized_energy": -12.87, 
			 "cosmo_cavitation_energy": 24.05, 
			 "cosmo_dispersion_energy": -18.27, 
			 "cosmo_repulsion_energy": 1.44, 
			 "cosmo_total_nonelectrostatic_energy": 7.21, 
			 "SMD_solvation_energy": 3.74 
		},
		"coords": [
			{
				"x": 2.0700855795,
				"y": 0.1891604259,
				"z": -1.6768103096,
				"element": "N" 
			},
			{
				"x": 0.984523297,
				"y": 0.8129706523,
				"z": -0.9105905236,
				"element": "C" 
			},
			{
				"x": -0.0156905674,
				"y": -0.285017307,
				"z": -0.4718806846,
				"element": "C" 
			},
			{
				"x": 0.4612596398,
				"y": -1.0198918145,
				"z": 0.787136961,
				"element": "C" 
			},
			{
				"x": 0.2750130227,
				"y": -0.1836962674,
				"z": 2.0665610127,
				"element": "C" 
			},
			{
				"x": 0.6071966744,
				"y": 1.620431876,
				"z": 1.8087682358,
				"element": "S" 
			},
			{
				"x": 1.6635584341,
				"y": 1.4881299665,
				"z": 0.3266866086,
				"element": "C" 
			},
			{
				"x": 0.3242276703,
				"y": 1.9318093255,
				"z": -1.7407969875,
				"element": "C" 
			},
			{
				"x": -0.9636924702,
				"y": 2.1823998252,
				"z": -1.4245953111,
				"element": "O" 
			},
			{
				"x": 0.9170592613,
				"y": 2.5690090231,
				"z": -2.5882168529,
				"element": "O" 
			},
			{
				"x": 2.6737422036,
				"y": 0.9260346025,
				"z": -2.0391494249,
				"element": "H" 
			},
			{
				"x": 1.6794525692,
				"y": -0.2625342146,
				"z": -2.5023876804,
				"element": "H" 
			},
			{
				"x": -0.1337602084,
				"y": -0.9925754094,
				"z": -1.3012808006,
				"element": "H" 
			},
			{
				"x": -0.9966631521,
				"y": 0.1587321779,
				"z": -0.289377265,
				"element": "H" 
			},
			{
				"x": -0.0960571869,
				"y": -1.9560665733,
				"z": 0.9075103574,
				"element": "H" 
			},
			{
				"x": 1.5127758819,
				"y": -1.2979842144,
				"z": 0.6613922811,
				"element": "H" 
			},
			{
				"x": -0.7625880857,
				"y": -0.2364746464,
				"z": 2.4092985596,
				"element": "H" 
			},
			{
				"x": 0.9145102267,
				"y": -0.5569726935,
				"z": 2.8714760862,
				"element": "H" 
			},
			{
				"x": 2.5569260379,
				"y": 0.9018573677,
				"z": 0.55698117,
				"element": "H" 
			},
			{
				"x": 1.9924088875,
				"y": 2.503466423,
				"z": 0.0880668164,
				"element": "H" 
			},
			{
				"x": -1.2356877154,
				"y": 2.9356114748,
				"z": -1.9768922486,
				"element": "H" 
			}
		],
		 "valence_orbital": [ 
			{
				"type": "occ",
				"energy": -0.32233,
				"method": "rhf"
			},
			{
				"type": "occ",
				"energy": -0.30172,
				"method": "rhf"
			},
			{
				"type": "occ",
				"energy": -0.27852,
				"method": "rhf"
			},
			{
				"type": "occ",
				"energy": -0.25387,
				"method": "rhf"
			},
			{
				"type": "occ",
				"energy": -0.21681,
				"method": "rhf"
			},
			{
				"type": "unocc",
				"energy": 0.00197,
				"method": "rhf"
			},
			{
				"type": "unocc",
				"energy": 0.03886,
				"method": "rhf"
			},
			{
				"type": "unocc",
				"energy": 0.06911,
				"method": "rhf"
			},
			{
				"type": "unocc",
				"energy": 0.07296,
				"method": "rhf"
			},
			{
				"type": "unocc",
				"energy": 0.08902,
				"method": "rhf"
			}
		],
		"cosmo_sigma_profile": { 
			"-0.025": 0.0,
			"-0.024": 0.0,
			"-0.023": 0.0,
			"-0.022": 0.0,
			"-0.021": 0.0,
			"-0.02": 0.0,
			"-0.019": 0.0,
			"-0.018": 0.766006376748,
			"-0.017": 1.03752217542,
			"-0.016": 0.609258156833,
			"-0.015": 0.911931453269,
			"-0.014": 1.03544030839,
			"-0.013": 0.563282059485,
			"-0.012": 0.59986575203,
			"-0.011": 1.14296634486,
			"-0.01": 2.74053333781,
			"-0.009": 2.97402216498,
			"-0.008": 3.04461094941,
			"-0.007": 3.94636983508,
			"-0.006": 7.04166933944,
			"-0.005": 9.35900733186,
			"-0.004": 15.7332864599,
			"-0.003": 20.7184842101,
			"-0.002": 19.2818898838,
			"-0.001": 14.5671536299,
			"0.0": 10.1154833549,
			"0.001": 7.0692925916,
			"0.002": 5.83190961989,
			"0.003": 5.54138295149,
			"0.004": 7.3322171963,
			"0.005": 6.54693941123,
			"0.006": 5.35592032083,
			"0.007": 5.81973291022,
			"0.008": 5.93620427253,
			"0.009": 4.4412166809,
			"0.01": 5.29992722351,
			"0.011": 6.41615254233,
			"0.012": 4.69696124562,
			"0.013": 0.553759273327,
			"0.014": 0.215648759261,
			"0.015": 0.55886758848,
			"0.016": 0.743814490947,
			"0.017": 0.140827391287,
			"0.018": 0.0,
			"0.019": 0.0,
			"0.02": 0.0,
			"0.021": 0.0,
			"0.022": 0.0,
			"0.023": 0.0,
			"0.024": 0.0,
			"0.025": 0.0
		}
	}
}
