{
	 "smiles": "CC(=O)NC1=C(O)C=CC(C)=C1", 
	 "Tm": 425.15, 
	 "num_atms": 23, 
	 "gaussian": { 
		 "optdone": 1, 
		 "sigma_profile": "yes", 
		 "theory": "DFT", 
		 "functional": "B3LYP", 
		 "basiset": "6-31G**", 
		 "properties": { 
			 "R2extent": 2622.746, 
			 "electric_dipole_moment_norm": 4.48475776269, 
			 "electric_quadrupole_moment_norm": 22.2264815346, 
			 "total_energy": -554.805412861, 
			 "HOMO_LUMO_gap": 0.19712, 
			 "cosmo_polarized_energy": -14.23, 
			 "cosmo_cavitation_energy": 26.63, 
			 "cosmo_dispersion_energy": -19.39, 
			 "cosmo_repulsion_energy": 1.56, 
			 "cosmo_total_nonelectrostatic_energy": 8.8, 
			 "SMD_solvation_energy": 5.8 
		},
		"coords": [
			{
				"x": 0.3663360171,
				"y": -1.0372259181,
				"z": 2.4294721822,
				"element": "C" 
			},
			{
				"x": 0.0306988676,
				"y": 0.4033745138,
				"z": 2.7653962087,
				"element": "C" 
			},
			{
				"x": -0.1203630717,
				"y": 0.7759948398,
				"z": 3.9203811771,
				"element": "O" 
			},
			{
				"x": -0.0959509777,
				"y": 1.3225958049,
				"z": 1.7363397309,
				"element": "N" 
			},
			{
				"x": 0.0741906559,
				"y": 1.2191184573,
				"z": 0.3436984075,
				"element": "C" 
			},
			{
				"x": 0.6056676055,
				"y": 2.3473034392,
				"z": -0.3204289693,
				"element": "C" 
			},
			{
				"x": 0.919017516,
				"y": 3.4247098441,
				"z": 0.4688628956,
				"element": "O" 
			},
			{
				"x": 0.7731214667,
				"y": 2.3321985508,
				"z": -1.7002194766,
				"element": "C" 
			},
			{
				"x": 0.4208355897,
				"y": 1.2008263487,
				"z": -2.4412195339,
				"element": "C" 
			},
			{
				"x": -0.1219208368,
				"y": 0.0782384042,
				"z": -1.8134965346,
				"element": "C" 
			},
			{
				"x": -0.5107201386,
				"y": -1.1518533454,
				"z": -2.6008772778,
				"element": "C" 
			},
			{
				"x": -0.3053944636,
				"y": 0.1138654798,
				"z": -0.4228243605,
				"element": "C" 
			},
			{
				"x": -0.543375158,
				"y": -1.5946009264,
				"z": 2.1813953315,
				"element": "H" 
			},
			{
				"x": 1.0593080518,
				"y": -1.1269637501,
				"z": 1.589647216,
				"element": "H" 
			},
			{
				"x": 0.8001431572,
				"y": -1.4834627296,
				"z": 3.3247988933,
				"element": "H" 
			},
			{
				"x": -0.1558970859,
				"y": 2.2700903132,
				"z": 2.091224639,
				"element": "H" 
			},
			{
				"x": 1.2118426393,
				"y": 4.1552147339,
				"z": -0.0901738535,
				"element": "H" 
			},
			{
				"x": 1.1861629424,
				"y": 3.2063073104,
				"z": -2.1995770925,
				"element": "H" 
			},
			{
				"x": 0.5632248706,
				"y": 1.2037967944,
				"z": -3.5181126367,
				"element": "H" 
			},
			{
				"x": -1.491729286,
				"y": -1.5311493622,
				"z": -2.2950840059,
				"element": "H" 
			},
			{
				"x": -0.5537193043,
				"y": -0.9399833634,
				"z": -3.672886202,
				"element": "H" 
			},
			{
				"x": 0.2093817662,
				"y": -1.9666838296,
				"z": -2.4554201156,
				"element": "H" 
			},
			{
				"x": -0.7739608232,
				"y": -0.7320116099,
				"z": 0.0667033773,
				"element": "H" 
			}
		],
		 "valence_orbital": [ 
			{
				"type": "occ",
				"energy": -0.33433,
				"method": "rhf"
			},
			{
				"type": "occ",
				"energy": -0.29499,
				"method": "rhf"
			},
			{
				"type": "occ",
				"energy": -0.24625,
				"method": "rhf"
			},
			{
				"type": "occ",
				"energy": -0.23798,
				"method": "rhf"
			},
			{
				"type": "occ",
				"energy": -0.20931,
				"method": "rhf"
			},
			{
				"type": "unocc",
				"energy": -0.01219,
				"method": "rhf"
			},
			{
				"type": "unocc",
				"energy": 0.00329,
				"method": "rhf"
			},
			{
				"type": "unocc",
				"energy": 0.04052,
				"method": "rhf"
			},
			{
				"type": "unocc",
				"energy": 0.05962,
				"method": "rhf"
			},
			{
				"type": "unocc",
				"energy": 0.08787,
				"method": "rhf"
			}
		],
		"cosmo_sigma_profile": { 
			"-0.025": 0.0,
			"-0.024": 0.0,
			"-0.023": 0.0,
			"-0.022": 0.0,
			"-0.021": 0.0,
			"-0.02": 0.0,
			"-0.019": 0.0,
			"-0.018": 0.668236434088,
			"-0.017": 1.09245366105,
			"-0.016": 1.22151696204,
			"-0.015": 0.712443307274,
			"-0.014": 1.30098218333,
			"-0.013": 0.678640478296,
			"-0.012": 1.01926452813,
			"-0.011": 1.01781280568,
			"-0.01": 1.95011186964,
			"-0.009": 1.3387228937,
			"-0.008": 1.51304848014,
			"-0.007": 5.31321857269,
			"-0.006": 6.75889855674,
			"-0.005": 10.2650755216,
			"-0.004": 16.9276203908,
			"-0.003": 18.7129932959,
			"-0.002": 18.7059599687,
			"-0.001": 18.8730866386,
			"0.0": 17.0514561314,
			"0.001": 11.534306706,
			"0.002": 11.2701327686,
			"0.003": 10.9544817475,
			"0.004": 10.8885877768,
			"0.005": 10.6532056158,
			"0.006": 7.43261515993,
			"0.007": 3.40216476834,
			"0.008": 2.04472429632,
			"0.009": 1.94339375798,
			"0.01": 1.64733293064,
			"0.011": 1.66685199446,
			"0.012": 1.77062480768,
			"0.013": 5.04684328915,
			"0.014": 4.41887966753,
			"0.015": 0.71066393634,
			"0.016": 0.0,
			"0.017": 0.0,
			"0.018": 0.0,
			"0.019": 0.0,
			"0.02": 0.0,
			"0.021": 0.0,
			"0.022": 0.0,
			"0.023": 0.0,
			"0.024": 0.0,
			"0.025": 0.0
		}
	}
}
