{
	 "smiles": "COC1=CC(OC)=C(CNC2=CN(C)N=C2)C=C1", 
	 "Tm": 355.15, 
	 "num_atms": 35, 
	 "gaussian": { 
		 "optdone": 1, 
		 "sigma_profile": "yes", 
		 "theory": "DFT", 
		 "functional": "B3LYP", 
		 "basiset": "6-31G**", 
		 "properties": { 
			 "R2extent": 7596.055, 
			 "electric_dipole_moment_norm": 3.12403947158, 
			 "electric_quadrupole_moment_norm": 22.3534217264, 
			 "total_energy": -820.274972558, 
			 "HOMO_LUMO_gap": 0.19098, 
			 "cosmo_polarized_energy": -14.62, 
			 "cosmo_cavitation_energy": 38.63, 
			 "cosmo_dispersion_energy": -28.0, 
			 "cosmo_repulsion_energy": 2.18, 
			 "cosmo_total_nonelectrostatic_energy": 12.81, 
			 "SMD_solvation_energy": 6.85 
		},
		"coords": [
			{
				"x": 5.1201456077,
				"y": -1.5248927778,
				"z": 2.4152697244,
				"element": "C" 
			},
			{
				"x": 3.8208426093,
				"y": -2.0901655769,
				"z": 2.4732014169,
				"element": "O" 
			},
			{
				"x": 2.8096745449,
				"y": -1.4419999491,
				"z": 1.8211819441,
				"element": "C" 
			},
			{
				"x": 1.5532586956,
				"y": -2.0618446487,
				"z": 1.9134034397,
				"element": "C" 
			},
			{
				"x": 0.4481679785,
				"y": -1.4900605099,
				"z": 1.2881566604,
				"element": "C" 
			},
			{
				"x": -0.8042851925,
				"y": -2.0403499786,
				"z": 1.3194133242,
				"element": "O" 
			},
			{
				"x": -0.999822139,
				"y": -3.2359411978,
				"z": 2.0570480084,
				"element": "C" 
			},
			{
				"x": 0.5672583968,
				"y": -0.2814659007,
				"z": 0.5632480404,
				"element": "C" 
			},
			{
				"x": -0.645926603,
				"y": 0.3221113918,
				"z": -0.1128880896,
				"element": "C" 
			},
			{
				"x": -0.4948669026,
				"y": 1.7600679241,
				"z": -0.3109137847,
				"element": "N" 
			},
			{
				"x": -1.5409351344,
				"y": 2.428178942,
				"z": -0.9608170716,
				"element": "C" 
			},
			{
				"x": -2.5865860498,
				"y": 1.9004024563,
				"z": -1.7057148875,
				"element": "C" 
			},
			{
				"x": -3.2916579163,
				"y": 2.966506698,
				"z": -2.1984451085,
				"element": "N" 
			},
			{
				"x": -4.5210973724,
				"y": 2.9304059049,
				"z": -2.9621778944,
				"element": "C" 
			},
			{
				"x": -2.7861402459,
				"y": 4.1457137392,
				"z": -1.798109355,
				"element": "N" 
			},
			{
				"x": -1.7220268668,
				"y": 3.8318783251,
				"z": -1.0577972026,
				"element": "C" 
			},
			{
				"x": 1.8285980583,
				"y": 0.3008650238,
				"z": 0.4831869839,
				"element": "C" 
			},
			{
				"x": 2.954935144,
				"y": -0.2554672361,
				"z": 1.1021217274,
				"element": "C" 
			},
			{
				"x": 5.1464482583,
				"y": -0.5220315448,
				"z": 2.8609319423,
				"element": "H" 
			},
			{
				"x": 5.4914188828,
				"y": -1.4664311286,
				"z": 1.3839262399,
				"element": "H" 
			},
			{
				"x": 5.7652385869,
				"y": -2.1902742633,
				"z": 2.9914941765,
				"element": "H" 
			},
			{
				"x": 1.4850806263,
				"y": -2.9836067565,
				"z": 2.4765587638,
				"element": "H" 
			},
			{
				"x": -2.0586521186,
				"y": -3.4810267847,
				"z": 1.9588599137,
				"element": "H" 
			},
			{
				"x": -0.3990096992,
				"y": -4.0616269075,
				"z": 1.6550188004,
				"element": "H" 
			},
			{
				"x": -0.7564664434,
				"y": -3.1008646061,
				"z": 3.118612882,
				"element": "H" 
			},
			{
				"x": -1.5513439751,
				"y": 0.0679622814,
				"z": 0.4597352663,
				"element": "H" 
			},
			{
				"x": -0.7801787082,
				"y": -0.1340622529,
				"z": -1.1046653856,
				"element": "H" 
			},
			{
				"x": -0.2240328594,
				"y": 2.2260121589,
				"z": 0.5482731405,
				"element": "H" 
			},
			{
				"x": -2.871258412,
				"y": 0.8831347813,
				"z": -1.9256796409,
				"element": "H" 
			},
			{
				"x": -5.3886673765,
				"y": 2.7242918777,
				"z": -2.323916027,
				"element": "H" 
			},
			{
				"x": -4.4592902071,
				"y": 2.1608736702,
				"z": -3.7369218791,
				"element": "H" 
			},
			{
				"x": -4.6480999788,
				"y": 3.9063694578,
				"z": -3.4308762521,
				"element": "H" 
			},
			{
				"x": -1.1116962178,
				"y": 4.6143462474,
				"z": -0.62598232,
				"element": "H" 
			},
			{
				"x": 1.9326793149,
				"y": 1.2201028777,
				"z": -0.0844890381,
				"element": "H" 
			},
			{
				"x": 3.9143937145,
				"y": 0.2383882626,
				"z": 1.0118515416,
				"element": "H" 
			}
		],
		 "valence_orbital": [ 
			{
				"type": "occ",
				"energy": -0.27235,
				"method": "rhf"
			},
			{
				"type": "occ",
				"energy": -0.232,
				"method": "rhf"
			},
			{
				"type": "occ",
				"energy": -0.22826,
				"method": "rhf"
			},
			{
				"type": "occ",
				"energy": -0.20608,
				"method": "rhf"
			},
			{
				"type": "occ",
				"energy": -0.18306,
				"method": "rhf"
			},
			{
				"type": "unocc",
				"energy": 0.00792,
				"method": "rhf"
			},
			{
				"type": "unocc",
				"energy": 0.02033,
				"method": "rhf"
			},
			{
				"type": "unocc",
				"energy": 0.03347,
				"method": "rhf"
			},
			{
				"type": "unocc",
				"energy": 0.09205,
				"method": "rhf"
			},
			{
				"type": "unocc",
				"energy": 0.0954,
				"method": "rhf"
			}
		],
		"cosmo_sigma_profile": { 
			"-0.025": 0.0,
			"-0.024": 0.0,
			"-0.023": 0.0,
			"-0.022": 0.0,
			"-0.021": 0.0,
			"-0.02": 0.0,
			"-0.019": 0.0,
			"-0.018": 0.0,
			"-0.017": 0.0,
			"-0.016": 0.0,
			"-0.015": 0.0,
			"-0.014": 0.0,
			"-0.013": 0.0,
			"-0.012": 0.260351622013,
			"-0.011": 0.851195067017,
			"-0.01": 1.02090976393,
			"-0.009": 1.37238506657,
			"-0.008": 2.00402700443,
			"-0.007": 3.93170246542,
			"-0.006": 17.5557491667,
			"-0.005": 33.2266593372,
			"-0.004": 31.5904594661,
			"-0.003": 35.4722208985,
			"-0.002": 24.0214750703,
			"-0.001": 16.4223830617,
			"0.0": 13.3107781601,
			"0.001": 12.3921701392,
			"0.002": 12.1375354202,
			"0.003": 15.6969052772,
			"0.004": 17.1856995721,
			"0.005": 19.3926012081,
			"0.006": 17.1558270205,
			"0.007": 8.82800916615,
			"0.008": 5.16714753743,
			"0.009": 4.2750989112,
			"0.01": 3.84963421082,
			"0.011": 2.44324624778,
			"0.012": 1.50331857745,
			"0.013": 1.30634079776,
			"0.014": 1.41590594786,
			"0.015": 1.04925454453,
			"0.016": 0.719565161139,
			"0.017": 0.199741710571,
			"0.018": 0.0,
			"0.019": 0.0,
			"0.02": 0.0,
			"0.021": 0.0,
			"0.022": 0.0,
			"0.023": 0.0,
			"0.024": 0.0,
			"0.025": 0.0
		}
	}
}
