{
	 "smiles": "NC1=CC(OC2=C3C=CC=CC3=NC=C2)=CC=C1", 
	 "Tm": 388.15, 
	 "num_atms": 30, 
	 "gaussian": { 
		 "optdone": 1, 
		 "sigma_profile": "yes", 
		 "theory": "DFT", 
		 "functional": "B3LYP", 
		 "basiset": "6-31G**", 
		 "properties": { 
			 "R2extent": 5630.7562, 
			 "electric_dipole_moment_norm": 4.66548304144, 
			 "electric_quadrupole_moment_norm": 18.3408585099, 
			 "total_energy": -763.558270875, 
			 "HOMO_LUMO_gap": 0.17346, 
			 "cosmo_polarized_energy": -13.17, 
			 "cosmo_cavitation_energy": 34.46, 
			 "cosmo_dispersion_energy": -25.01, 
			 "cosmo_repulsion_energy": 1.92, 
			 "cosmo_total_nonelectrostatic_energy": 11.37, 
			 "SMD_solvation_energy": 4.31 
		},
		"coords": [
			{
				"x": -4.4012483393,
				"y": 1.9726604898,
				"z": -1.489896122,
				"element": "N" 
			},
			{
				"x": -3.6552590596,
				"y": 1.1044581371,
				"z": -0.6968098116,
				"element": "C" 
			},
			{
				"x": -2.2502001298,
				"y": 1.1448700093,
				"z": -0.7229437331,
				"element": "C" 
			},
			{
				"x": -1.5212226245,
				"y": 0.2357227164,
				"z": 0.0355874505,
				"element": "C" 
			},
			{
				"x": -0.1324140836,
				"y": 0.3576271398,
				"z": 0.0484663838,
				"element": "O" 
			},
			{
				"x": 0.6264443016,
				"y": -0.4632627293,
				"z": -0.737001075,
				"element": "C" 
			},
			{
				"x": 2.0397860188,
				"y": -0.3221825072,
				"z": -0.5958838224,
				"element": "C" 
			},
			{
				"x": 2.6429358334,
				"y": 0.5934667251,
				"z": 0.3028879463,
				"element": "C" 
			},
			{
				"x": 4.01593531,
				"y": 0.6770944076,
				"z": 0.3879635942,
				"element": "C" 
			},
			{
				"x": 4.8348900487,
				"y": -0.1485266801,
				"z": -0.4194329756,
				"element": "C" 
			},
			{
				"x": 4.27097698,
				"y": -1.0457550797,
				"z": -1.2992665916,
				"element": "C" 
			},
			{
				"x": 2.8604467629,
				"y": -1.1603826545,
				"z": -1.4145221834,
				"element": "C" 
			},
			{
				"x": 2.3531783064,
				"y": -2.0677708492,
				"z": -2.303090439,
				"element": "N" 
			},
			{
				"x": 1.0411770917,
				"y": -2.1509026665,
				"z": -2.3875876978,
				"element": "C" 
			},
			{
				"x": 0.1229534106,
				"y": -1.3799650321,
				"z": -1.6355935008,
				"element": "C" 
			},
			{
				"x": -2.1371541674,
				"y": -0.7287288889,
				"z": 0.8316010397,
				"element": "C" 
			},
			{
				"x": -3.5329144205,
				"y": -0.7650261022,
				"z": 0.8502007956,
				"element": "C" 
			},
			{
				"x": -4.2881764394,
				"y": 0.1333608121,
				"z": 0.1009428371,
				"element": "C" 
			},
			{
				"x": -5.3522811809,
				"y": 2.1303565762,
				"z": -1.1878825933,
				"element": "H" 
			},
			{
				"x": -3.93707604,
				"y": 2.8286820238,
				"z": -1.7589068012,
				"element": "H" 
			},
			{
				"x": -1.7225752973,
				"y": 1.8795226427,
				"z": -1.3235153694,
				"element": "H" 
			},
			{
				"x": 2.0070040075,
				"y": 1.2208982072,
				"z": 0.917517794,
				"element": "H" 
			},
			{
				"x": 4.4745003664,
				"y": 1.3793020963,
				"z": 1.078113472,
				"element": "H" 
			},
			{
				"x": 5.9157217139,
				"y": -0.0712871593,
				"z": -0.3413503569,
				"element": "H" 
			},
			{
				"x": 4.8761027922,
				"y": -1.6899965349,
				"z": -1.9287184332,
				"element": "H" 
			},
			{
				"x": 0.6480955141,
				"y": -2.8763925504,
				"z": -3.0997148545,
				"element": "H" 
			},
			{
				"x": -0.9433038259,
				"y": -1.5128671949,
				"z": -1.7701065271,
				"element": "H" 
			},
			{
				"x": -1.5372939056,
				"y": -1.4139741019,
				"z": 1.4194507329,
				"element": "H" 
			},
			{
				"x": -4.0408403381,
				"y": -1.5025768089,
				"z": 1.4648288535,
				"element": "H" 
			},
			{
				"x": -5.3736886064,
				"y": 0.0885755566,
				"z": 0.1281619883,
				"element": "H" 
			}
		],
		 "valence_orbital": [ 
			{
				"type": "occ",
				"energy": -0.25193,
				"method": "rhf"
			},
			{
				"type": "occ",
				"energy": -0.24562,
				"method": "rhf"
			},
			{
				"type": "occ",
				"energy": -0.24414,
				"method": "rhf"
			},
			{
				"type": "occ",
				"energy": -0.21844,
				"method": "rhf"
			},
			{
				"type": "occ",
				"energy": -0.21096,
				"method": "rhf"
			},
			{
				"type": "unocc",
				"energy": -0.0375,
				"method": "rhf"
			},
			{
				"type": "unocc",
				"energy": -0.01028,
				"method": "rhf"
			},
			{
				"type": "unocc",
				"energy": -0.00503,
				"method": "rhf"
			},
			{
				"type": "unocc",
				"energy": 0.00789,
				"method": "rhf"
			},
			{
				"type": "unocc",
				"energy": 0.03589,
				"method": "rhf"
			}
		],
		"cosmo_sigma_profile": { 
			"-0.025": 0.0,
			"-0.024": 0.0,
			"-0.023": 0.0,
			"-0.022": 0.0,
			"-0.021": 0.0,
			"-0.02": 0.0,
			"-0.019": 0.0,
			"-0.018": 0.0,
			"-0.017": 0.0,
			"-0.016": 0.0,
			"-0.015": 0.0,
			"-0.014": 0.0,
			"-0.013": 0.820060163326,
			"-0.012": 2.95102598122,
			"-0.011": 2.6198869441,
			"-0.01": 3.11694227489,
			"-0.009": 3.62910287665,
			"-0.008": 3.21418078891,
			"-0.007": 4.7508513264,
			"-0.006": 15.5626925308,
			"-0.005": 19.2079130534,
			"-0.004": 19.5094946352,
			"-0.003": 17.1785554932,
			"-0.002": 12.7848268402,
			"-0.001": 15.2345113083,
			"0.0": 17.3399515926,
			"0.001": 22.2865848143,
			"0.002": 24.8385527501,
			"0.003": 26.7144902962,
			"0.004": 23.1469692889,
			"0.005": 17.7559806066,
			"0.006": 7.2378149104,
			"0.007": 1.77738221806,
			"0.008": 3.27496040825,
			"0.009": 1.95130324795,
			"0.01": 0.629488995024,
			"0.011": 2.36689582226,
			"0.012": 1.83196834195,
			"0.013": 1.70949981501,
			"0.014": 1.27784076233,
			"0.015": 0.704604352744,
			"0.016": 0.595260623591,
			"0.017": 0.456033385362,
			"0.018": 0.0,
			"0.019": 0.0,
			"0.02": 0.0,
			"0.021": 0.0,
			"0.022": 0.0,
			"0.023": 0.0,
			"0.024": 0.0,
			"0.025": 0.0
		}
	}
}
