{
	 "smiles": "CC1=C(C=CC=C1)N1N=NN=C1S", 
	 "Tm": 339.15, 
	 "num_atms": 21, 
	 "gaussian": { 
		 "optdone": 1, 
		 "sigma_profile": "yes", 
		 "theory": "DFT", 
		 "functional": "B3LYP", 
		 "basiset": "6-31G**", 
		 "properties": { 
			 "R2extent": 2831.7678, 
			 "electric_dipole_moment_norm": 5.03850192021, 
			 "electric_quadrupole_moment_norm": 11.080277589, 
			 "total_energy": -926.806724957, 
			 "HOMO_LUMO_gap": 0.21831, 
			 "cosmo_polarized_energy": -12.5, 
			 "cosmo_cavitation_energy": 27.27, 
			 "cosmo_dispersion_energy": -19.78, 
			 "cosmo_repulsion_energy": 1.51, 
			 "cosmo_total_nonelectrostatic_energy": 9.01, 
			 "SMD_solvation_energy": 2.76 
		},
		"coords": [
			{
				"x": -2.1495758007,
				"y": 1.011723702,
				"z": 0.3953914711,
				"element": "C" 
			},
			{
				"x": -0.6646853738,
				"y": 1.2639077365,
				"z": 0.3152476369,
				"element": "C" 
			},
			{
				"x": 0.2729191821,
				"y": 0.2188334313,
				"z": 0.3975965092,
				"element": "C" 
			},
			{
				"x": 1.6486206848,
				"y": 0.4485578179,
				"z": 0.3274312346,
				"element": "C" 
			},
			{
				"x": 2.1243116592,
				"y": 1.7504085916,
				"z": 0.1812328966,
				"element": "C" 
			},
			{
				"x": 1.2166185716,
				"y": 2.8053187361,
				"z": 0.0923539952,
				"element": "C" 
			},
			{
				"x": -0.1555608333,
				"y": 2.5583362329,
				"z": 0.1562970703,
				"element": "C" 
			},
			{
				"x": -0.1832457587,
				"y": -1.1295939332,
				"z": 0.5577478368,
				"element": "N" 
			},
			{
				"x": -0.923517322,
				"y": -1.7720808078,
				"z": -0.3996465408,
				"element": "N" 
			},
			{
				"x": -1.1538191854,
				"y": -2.955556681,
				"z": 0.0506870972,
				"element": "N" 
			},
			{
				"x": -0.5954096596,
				"y": -3.1462743372,
				"z": 1.2776593465,
				"element": "N" 
			},
			{
				"x": 0.0007467513,
				"y": -2.005479349,
				"z": 1.5759581508,
				"element": "C" 
			},
			{
				"x": 0.8808901591,
				"y": -1.6344502474,
				"z": 3.052185474,
				"element": "S" 
			},
			{
				"x": -2.698864946,
				"y": 1.9559425683,
				"z": 0.4085492598,
				"element": "H" 
			},
			{
				"x": -2.4113607044,
				"y": 0.4533222513,
				"z": 1.3007787769,
				"element": "H" 
			},
			{
				"x": -2.4973881628,
				"y": 0.4181439111,
				"z": -0.4550135342,
				"element": "H" 
			},
			{
				"x": 2.3329815605,
				"y": -0.3922361611,
				"z": 0.377946246,
				"element": "H" 
			},
			{
				"x": 3.1926390859,
				"y": 1.9336182902,
				"z": 0.1277325975,
				"element": "H" 
			},
			{
				"x": 1.5748689816,
				"y": 3.8234532603,
				"z": -0.027204426,
				"element": "H" 
			},
			{
				"x": -0.8541220145,
				"y": 3.387569206,
				"z": 0.0881396067,
				"element": "H" 
			},
			{
				"x": 0.6074531253,
				"y": -2.8372642188,
				"z": 3.5935292949,
				"element": "H" 
			}
		],
		 "valence_orbital": [ 
			{
				"type": "occ",
				"energy": -0.29736,
				"method": "rhf"
			},
			{
				"type": "occ",
				"energy": -0.29369,
				"method": "rhf"
			},
			{
				"type": "occ",
				"energy": -0.26998,
				"method": "rhf"
			},
			{
				"type": "occ",
				"energy": -0.26211,
				"method": "rhf"
			},
			{
				"type": "occ",
				"energy": -0.25767,
				"method": "rhf"
			},
			{
				"type": "unocc",
				"energy": -0.03936,
				"method": "rhf"
			},
			{
				"type": "unocc",
				"energy": -0.0245,
				"method": "rhf"
			},
			{
				"type": "unocc",
				"energy": -0.00787,
				"method": "rhf"
			},
			{
				"type": "unocc",
				"energy": 0.00047,
				"method": "rhf"
			},
			{
				"type": "unocc",
				"energy": 0.02183,
				"method": "rhf"
			}
		],
		"cosmo_sigma_profile": { 
			"-0.025": 0.0,
			"-0.024": 0.0,
			"-0.023": 0.0,
			"-0.022": 0.0,
			"-0.021": 0.0,
			"-0.02": 0.0,
			"-0.019": 0.0,
			"-0.018": 0.0,
			"-0.017": 0.0,
			"-0.016": 0.0,
			"-0.015": 0.0,
			"-0.014": 0.028364098352,
			"-0.013": 1.39320725791,
			"-0.012": 1.37006363033,
			"-0.011": 1.59786355482,
			"-0.01": 1.27370670495,
			"-0.009": 1.07847089179,
			"-0.008": 1.86208218909,
			"-0.007": 6.77857970108,
			"-0.006": 12.5147356809,
			"-0.005": 17.8434494036,
			"-0.004": 16.34943814,
			"-0.003": 14.0770806248,
			"-0.002": 14.4778760785,
			"-0.001": 18.4829698604,
			"0.0": 19.3835155471,
			"0.001": 14.7269520846,
			"0.002": 15.2895798422,
			"0.003": 15.1438221422,
			"0.004": 11.6308627107,
			"0.005": 4.96121962579,
			"0.006": 3.43202878448,
			"0.007": 3.76700824739,
			"0.008": 4.56911940367,
			"0.009": 4.92223643437,
			"0.01": 4.91444227221,
			"0.011": 3.47758520863,
			"0.012": 2.68597550043,
			"0.013": 2.12147753436,
			"0.014": 1.0055963757,
			"0.015": 0.105483068632,
			"0.016": 0.0,
			"0.017": 0.0,
			"0.018": 0.0,
			"0.019": 0.0,
			"0.02": 0.0,
			"0.021": 0.0,
			"0.022": 0.0,
			"0.023": 0.0,
			"0.024": 0.0,
			"0.025": 0.0
		}
	}
}
