{
	 "smiles": "COC1=C(O)C=C(C=CC2=CC(O)=CC(OC3OC(CO)C(O)C(O)C3O)=C2)C=C1", 
	 "Tm": 509.15, 
	 "num_atms": 54, 
	 "gaussian": { 
		 "optdone": 1, 
		 "sigma_profile": "yes", 
		 "theory": "DFT", 
		 "functional": "B3LYP", 
		 "basiset": "6-31G**", 
		 "properties": { 
			 "R2extent": 21572.5343, 
			 "electric_dipole_moment_norm": 5.3057294098, 
			 "electric_quadrupole_moment_norm": 36.0430704278, 
			 "total_energy": -1491.63702399, 
			 "HOMO_LUMO_gap": 0.15506, 
			 "cosmo_polarized_energy": -32.23, 
			 "cosmo_cavitation_energy": 57.18, 
			 "cosmo_dispersion_energy": -39.19, 
			 "cosmo_repulsion_energy": 2.97, 
			 "cosmo_total_nonelectrostatic_energy": 20.97, 
			 "SMD_solvation_energy": 10.37 
		},
		"coords": [
			{
				"x": 6.0998519325,
				"y": -4.2898882483,
				"z": -1.5713110376,
				"element": "C" 
			},
			{
				"x": 6.4372794425,
				"y": -3.4541864779,
				"z": -0.47488447,
				"element": "O" 
			},
			{
				"x": 5.6578260536,
				"y": -2.3470654793,
				"z": -0.2393658214,
				"element": "C" 
			},
			{
				"x": 6.0737732355,
				"y": -1.5836365839,
				"z": 0.8703067805,
				"element": "C" 
			},
			{
				"x": 7.1603484804,
				"y": -1.9688213093,
				"z": 1.5968071937,
				"element": "O" 
			},
			{
				"x": 5.3758205211,
				"y": -0.4346040077,
				"z": 1.2144130348,
				"element": "C" 
			},
			{
				"x": 4.2404481176,
				"y": -0.0252749215,
				"z": 0.4862142565,
				"element": "C" 
			},
			{
				"x": 3.5748005552,
				"y": 1.2283289331,
				"z": 0.8822655366,
				"element": "C" 
			},
			{
				"x": 2.2929561319,
				"y": 1.6365130491,
				"z": 0.7722959878,
				"element": "C" 
			},
			{
				"x": 1.0742610609,
				"y": 0.9222649455,
				"z": 0.3435297481,
				"element": "C" 
			},
			{
				"x": 0.8653018813,
				"y": -0.4432224444,
				"z": 0.5959415408,
				"element": "C" 
			},
			{
				"x": -0.3332603153,
				"y": -1.044494524,
				"z": 0.2160969537,
				"element": "C" 
			},
			{
				"x": -0.482055672,
				"y": -2.3740259805,
				"z": 0.4995173046,
				"element": "O" 
			},
			{
				"x": -1.3474350432,
				"y": -0.3100702183,
				"z": -0.4143198245,
				"element": "C" 
			},
			{
				"x": -1.1327534185,
				"y": 1.0486426449,
				"z": -0.6610002304,
				"element": "C" 
			},
			{
				"x": -2.0608344149,
				"y": 1.8665792557,
				"z": -1.2695015018,
				"element": "O" 
			},
			{
				"x": -3.0803313372,
				"y": 1.2895488529,
				"z": -2.0537128751,
				"element": "C" 
			},
			{
				"x": -4.1576921168,
				"y": 0.792934327,
				"z": -1.2798715965,
				"element": "O" 
			},
			{
				"x": -4.8422089884,
				"y": 1.776210124,
				"z": -0.4689361119,
				"element": "C" 
			},
			{
				"x": -5.92291394,
				"y": 1.0097509979,
				"z": 0.2831004428,
				"element": "C" 
			},
			{
				"x": -5.3720747039,
				"y": 0.0092779443,
				"z": 1.117901626,
				"element": "O" 
			},
			{
				"x": -5.4000206765,
				"y": 2.8885790781,
				"z": -1.3627308313,
				"element": "C" 
			},
			{
				"x": -5.9946233442,
				"y": 3.8730166119,
				"z": -0.53578208,
				"element": "O" 
			},
			{
				"x": -4.2718697551,
				"y": 3.4767508431,
				"z": -2.2066490665,
				"element": "C" 
			},
			{
				"x": -4.8270152318,
				"y": 4.4659764865,
				"z": -3.0898158979,
				"element": "O" 
			},
			{
				"x": -3.6003412842,
				"y": 2.366286783,
				"z": -3.0137731752,
				"element": "C" 
			},
			{
				"x": -2.5389095584,
				"y": 2.8447099544,
				"z": -3.8136445232,
				"element": "O" 
			},
			{
				"x": 0.0578320975,
				"y": 1.6654914286,
				"z": -0.2778125,
				"element": "C" 
			},
			{
				"x": 3.8525179161,
				"y": -0.7883225363,
				"z": -0.6251350986,
				"element": "C" 
			},
			{
				"x": 4.5537188993,
				"y": -1.9418418739,
				"z": -0.9856455361,
				"element": "C" 
			},
			{
				"x": 6.8291204423,
				"y": -5.1013687396,
				"z": -1.572696262,
				"element": "H" 
			},
			{
				"x": 6.160739493,
				"y": -3.7455917353,
				"z": -2.5220313861,
				"element": "H" 
			},
			{
				"x": 5.091531926,
				"y": -4.7074080684,
				"z": -1.4591903779,
				"element": "H" 
			},
			{
				"x": 7.4964036008,
				"y": -2.7831025084,
				"z": 1.1921794358,
				"element": "H" 
			},
			{
				"x": 5.7221251578,
				"y": 0.1390217659,
				"z": 2.0688171144,
				"element": "H" 
			},
			{
				"x": 4.2550408221,
				"y": 1.9558068453,
				"z": 1.3252386097,
				"element": "H" 
			},
			{
				"x": 2.1050520931,
				"y": 2.6697560821,
				"z": 1.0622079141,
				"element": "H" 
			},
			{
				"x": 1.6143746647,
				"y": -1.0414876413,
				"z": 1.0988450633,
				"element": "H" 
			},
			{
				"x": -1.3619535825,
				"y": -2.6610328061,
				"z": 0.2242522619,
				"element": "H" 
			},
			{
				"x": -2.2930914933,
				"y": -0.778710429,
				"z": -0.6646311768,
				"element": "H" 
			},
			{
				"x": -2.6892814171,
				"y": 0.4287880134,
				"z": -2.606308582,
				"element": "H" 
			},
			{
				"x": -4.1376418632,
				"y": 2.2081889645,
				"z": 0.2522271152,
				"element": "H" 
			},
			{
				"x": -6.4718145673,
				"y": 1.7063406143,
				"z": 0.9213735188,
				"element": "H" 
			},
			{
				"x": -6.6307140099,
				"y": 0.5857068726,
				"z": -0.448779526,
				"element": "H" 
			},
			{
				"x": -4.7803309538,
				"y": -0.509579404,
				"z": 0.556330316,
				"element": "H" 
			},
			{
				"x": -6.1471921147,
				"y": 2.4505667249,
				"z": -2.0468861217,
				"element": "H" 
			},
			{
				"x": -6.2448263607,
				"y": 4.5964143746,
				"z": -1.128242024,
				"element": "H" 
			},
			{
				"x": -3.5300797854,
				"y": 3.9345382987,
				"z": -1.5424583606,
				"element": "H" 
			},
			{
				"x": -4.2835751626,
				"y": 5.2598123452,
				"z": -3.0290505475,
				"element": "H" 
			},
			{
				"x": -4.3693540916,
				"y": 1.8790219912,
				"z": -3.6340671556,
				"element": "H" 
			},
			{
				"x": -2.9331525552,
				"y": 3.487373254,
				"z": -4.4193288282,
				"element": "H" 
			},
			{
				"x": 0.1867548042,
				"y": 2.7221565321,
				"z": -0.485949123,
				"element": "H" 
			},
			{
				"x": 3.0044269233,
				"y": -0.477381581,
				"z": -1.2231218526,
				"element": "H" 
			},
			{
				"x": 4.2356415052,
				"y": -2.5108374206,
				"z": -1.8519282531,
				"element": "H" 
			}
		],
		 "valence_orbital": [ 
			{
				"type": "occ",
				"energy": -0.26084,
				"method": "rhf"
			},
			{
				"type": "occ",
				"energy": -0.2394,
				"method": "rhf"
			},
			{
				"type": "occ",
				"energy": -0.22168,
				"method": "rhf"
			},
			{
				"type": "occ",
				"energy": -0.21189,
				"method": "rhf"
			},
			{
				"type": "occ",
				"energy": -0.19145,
				"method": "rhf"
			},
			{
				"type": "unocc",
				"energy": -0.03639,
				"method": "rhf"
			},
			{
				"type": "unocc",
				"energy": 0.00884,
				"method": "rhf"
			},
			{
				"type": "unocc",
				"energy": 0.02003,
				"method": "rhf"
			},
			{
				"type": "unocc",
				"energy": 0.02293,
				"method": "rhf"
			},
			{
				"type": "unocc",
				"energy": 0.03658,
				"method": "rhf"
			}
		],
		"cosmo_sigma_profile": { 
			"-0.025": 0.0,
			"-0.024": 0.0,
			"-0.023": 0.0,
			"-0.022": 0.0,
			"-0.021": 0.0,
			"-0.02": 0.0,
			"-0.019": 0.0,
			"-0.018": 0.426148886071,
			"-0.017": 1.89935310698,
			"-0.016": 1.9870543261,
			"-0.015": 2.55942629442,
			"-0.014": 4.04529707797,
			"-0.013": 3.47239889227,
			"-0.012": 3.07365566662,
			"-0.011": 5.1232849232,
			"-0.01": 5.09832763116,
			"-0.009": 6.35472555245,
			"-0.008": 4.48485784761,
			"-0.007": 8.73965434482,
			"-0.006": 18.3369942853,
			"-0.005": 35.4347465491,
			"-0.004": 35.2328161829,
			"-0.003": 33.6985481819,
			"-0.002": 24.7518618739,
			"-0.001": 20.7233140887,
			"0.0": 22.0112550274,
			"0.001": 23.1770609013,
			"0.002": 25.7518096848,
			"0.003": 29.2772162382,
			"0.004": 37.3941751033,
			"0.005": 27.5499273513,
			"0.006": 11.1235788082,
			"0.007": 8.42564710912,
			"0.008": 7.31265656111,
			"0.009": 7.73686557499,
			"0.01": 7.22335164641,
			"0.011": 9.93401509764,
			"0.012": 7.54154202087,
			"0.013": 5.45376803598,
			"0.014": 3.62474183936,
			"0.015": 0.21840826654,
			"0.016": 0.0,
			"0.017": 0.0,
			"0.018": 0.0,
			"0.019": 0.0,
			"0.02": 0.0,
			"0.021": 0.0,
			"0.022": 0.0,
			"0.023": 0.0,
			"0.024": 0.0,
			"0.025": 0.0
		}
	}
}
