{
	 "smiles": "NC1=NC=C(CCC(O)=O)C=C1", 
	 "Tm": 473.15, 
	 "num_atms": 22, 
	 "gaussian": { 
		 "optdone": 1, 
		 "sigma_profile": "yes", 
		 "theory": "DFT", 
		 "functional": "B3LYP", 
		 "basiset": "6-31G**", 
		 "properties": { 
			 "R2extent": 3223.0109, 
			 "electric_dipole_moment_norm": 1.16440725264, 
			 "electric_quadrupole_moment_norm": 18.0388739931, 
			 "total_energy": -570.854961259, 
			 "HOMO_LUMO_gap": 0.19425, 
			 "cosmo_polarized_energy": -16.01, 
			 "cosmo_cavitation_energy": 26.44, 
			 "cosmo_dispersion_energy": -18.86, 
			 "cosmo_repulsion_energy": 1.54, 
			 "cosmo_total_nonelectrostatic_energy": 9.13, 
			 "SMD_solvation_energy": 4.02 
		},
		"coords": [
			{
				"x": -2.2860651155,
				"y": -1.4670405068,
				"z": 1.621638946,
				"element": "N" 
			},
			{
				"x": -1.5433804498,
				"y": -0.491608567,
				"z": 0.979015822,
				"element": "C" 
			},
			{
				"x": -1.8395137827,
				"y": 0.7793442912,
				"z": 1.2853623684,
				"element": "N" 
			},
			{
				"x": -1.1768892366,
				"y": 1.7491949726,
				"z": 0.6443191865,
				"element": "C" 
			},
			{
				"x": -0.1874254926,
				"y": 1.5401916621,
				"z": -0.3191880067,
				"element": "C" 
			},
			{
				"x": 0.5366542914,
				"y": 2.6927802201,
				"z": -0.9772478684,
				"element": "C" 
			},
			{
				"x": 1.9442289234,
				"y": 2.9583415376,
				"z": -0.3968290096,
				"element": "C" 
			},
			{
				"x": 1.9561291546,
				"y": 3.3398587056,
				"z": 1.0686770786,
				"element": "C" 
			},
			{
				"x": 1.0401582773,
				"y": 4.3022794673,
				"z": 1.3528654328,
				"element": "O" 
			},
			{
				"x": 2.6968862879,
				"y": 2.8847919884,
				"z": 1.9107105949,
				"element": "O" 
			},
			{
				"x": 0.1065578468,
				"y": 0.2005748689,
				"z": -0.6225063274,
				"element": "C" 
			},
			{
				"x": -0.5668502179,
				"y": -0.8266766556,
				"z": 0.0173733645,
				"element": "C" 
			},
			{
				"x": -1.8541922905,
				"y": -2.3719301809,
				"z": 1.7360016592,
				"element": "H" 
			},
			{
				"x": -2.7774923983,
				"y": -1.1290788301,
				"z": 2.4375296493,
				"element": "H" 
			},
			{
				"x": -1.4484364393,
				"y": 2.7672870234,
				"z": 0.9216307763,
				"element": "H" 
			},
			{
				"x": 0.6504360478,
				"y": 2.497153644,
				"z": -2.05032091,
				"element": "H" 
			},
			{
				"x": -0.0604841614,
				"y": 3.6048213901,
				"z": -0.8850340234,
				"element": "H" 
			},
			{
				"x": 2.4133382881,
				"y": 3.7818776222,
				"z": -0.9513747002,
				"element": "H" 
			},
			{
				"x": 2.5886447507,
				"y": 2.0821115092,
				"z": -0.4988472649,
				"element": "H" 
			},
			{
				"x": 1.1273903526,
				"y": 4.4796680505,
				"z": 2.304537949,
				"element": "H" 
			},
			{
				"x": 0.8619332988,
				"y": -0.0351324615,
				"z": -1.3693322968,
				"element": "H" 
			},
			{
				"x": -0.3599279348,
				"y": -1.8664097512,
				"z": -0.2186824201,
				"element": "H" 
			}
		],
		 "valence_orbital": [ 
			{
				"type": "occ",
				"energy": -0.3076,
				"method": "rhf"
			},
			{
				"type": "occ",
				"energy": -0.27544,
				"method": "rhf"
			},
			{
				"type": "occ",
				"energy": -0.26975,
				"method": "rhf"
			},
			{
				"type": "occ",
				"energy": -0.25073,
				"method": "rhf"
			},
			{
				"type": "occ",
				"energy": -0.20846,
				"method": "rhf"
			},
			{
				"type": "unocc",
				"energy": -0.01421,
				"method": "rhf"
			},
			{
				"type": "unocc",
				"energy": 0.0105,
				"method": "rhf"
			},
			{
				"type": "unocc",
				"energy": 0.01111,
				"method": "rhf"
			},
			{
				"type": "unocc",
				"energy": 0.0745,
				"method": "rhf"
			},
			{
				"type": "unocc",
				"energy": 0.08788,
				"method": "rhf"
			}
		],
		"cosmo_sigma_profile": { 
			"-0.025": 0.0,
			"-0.024": 0.0,
			"-0.023": 0.0,
			"-0.022": 0.0,
			"-0.021": 0.0,
			"-0.02": 0.0,
			"-0.019": 0.0,
			"-0.018": 0.531624931278,
			"-0.017": 1.06167459988,
			"-0.016": 0.455280115013,
			"-0.015": 1.14577396103,
			"-0.014": 0.705653589541,
			"-0.013": 1.27762277024,
			"-0.012": 3.12485089543,
			"-0.011": 3.41243158837,
			"-0.01": 3.03510941917,
			"-0.009": 3.21520573293,
			"-0.008": 2.69713304285,
			"-0.007": 4.57433600081,
			"-0.006": 9.62570103517,
			"-0.005": 13.3804812748,
			"-0.004": 17.6756432098,
			"-0.003": 15.1035055214,
			"-0.002": 14.1253264004,
			"-0.001": 10.136361132,
			"0.0": 8.81246959496,
			"0.001": 11.5070433558,
			"0.002": 11.2444753979,
			"0.003": 12.0008217749,
			"0.004": 12.6663955486,
			"0.005": 7.59409466381,
			"0.006": 5.25929201395,
			"0.007": 3.97267605789,
			"0.008": 4.65726028977,
			"0.009": 5.08177832914,
			"0.01": 3.82148264125,
			"0.011": 4.8988624409,
			"0.012": 6.50156271381,
			"0.013": 2.19515084127,
			"0.014": 1.43148499347,
			"0.015": 0.821302740263,
			"0.016": 0.681708767323,
			"0.017": 0.0224462200425,
			"0.018": 0.0,
			"0.019": 0.0,
			"0.02": 0.0,
			"0.021": 0.0,
			"0.022": 0.0,
			"0.023": 0.0,
			"0.024": 0.0,
			"0.025": 0.0
		}
	}
}
