{
	 "smiles": "OC(=O)C1=C(F)C(F)=C(F)C(F)=C1[N+]([O-])=O", 
	 "Tm": 409.15, 
	 "num_atms": 17, 
	 "gaussian": { 
		 "optdone": 1, 
		 "sigma_profile": "yes", 
		 "theory": "DFT", 
		 "functional": "B3LYP", 
		 "basiset": "6-31G**", 
		 "properties": { 
			 "R2extent": 3228.2015, 
			 "electric_dipole_moment_norm": 5.51653234378, 
			 "electric_quadrupole_moment_norm": 14.1211906293, 
			 "total_energy": -1022.18228213, 
			 "HOMO_LUMO_gap": 0.19392, 
			 "cosmo_polarized_energy": -15.14, 
			 "cosmo_cavitation_energy": 25.82, 
			 "cosmo_dispersion_energy": -18.04, 
			 "cosmo_repulsion_energy": 1.3, 
			 "cosmo_total_nonelectrostatic_energy": 9.08, 
			 "SMD_solvation_energy": 10.07 
		},
		"coords": [
			{
				"x": -0.072411125,
				"y": -1.0365174931,
				"z": -3.6149152647,
				"element": "O" 
			},
			{
				"x": 0.1370124797,
				"y": -1.4255184956,
				"z": -2.3467117502,
				"element": "C" 
			},
			{
				"x": 0.4254556859,
				"y": -2.5655368519,
				"z": -2.0818125976,
				"element": "O" 
			},
			{
				"x": 0.0005499277,
				"y": -0.382862743,
				"z": -1.2560579443,
				"element": "C" 
			},
			{
				"x": -0.6092819467,
				"y": 0.8624196538,
				"z": -1.4319829249,
				"element": "C" 
			},
			{
				"x": -1.0709131208,
				"y": 1.2438594551,
				"z": -2.6467213516,
				"element": "F" 
			},
			{
				"x": -0.7764333787,
				"y": 1.7753968027,
				"z": -0.3939693778,
				"element": "C" 
			},
			{
				"x": -1.3653071603,
				"y": 2.9479805327,
				"z": -0.617838583,
				"element": "F" 
			},
			{
				"x": -0.3260672782,
				"y": 1.4484818334,
				"z": 0.8806252415,
				"element": "C" 
			},
			{
				"x": -0.4730312722,
				"y": 2.3076566335,
				"z": 1.8829142623,
				"element": "F" 
			},
			{
				"x": 0.2884756263,
				"y": 0.2142388561,
				"z": 1.0943607062,
				"element": "C" 
			},
			{
				"x": 0.7336275157,
				"y": -0.0828046857,
				"z": 2.3144913745,
				"element": "F" 
			},
			{
				"x": 0.4453637766,
				"y": -0.6787138083,
				"z": 0.0438437901,
				"element": "C" 
			},
			{
				"x": 1.15150453,
				"y": -1.9397830608,
				"z": 0.382348615,
				"element": "N" 
			},
			{
				"x": 0.5042937825,
				"y": -2.7677846288,
				"z": 1.003556931,
				"element": "O" 
			},
			{
				"x": 2.3316948017,
				"y": -1.9947039002,
				"z": 0.0727021705,
				"element": "O" 
			},
			{
				"x": -0.3405328441,
				"y": -0.1070080998,
				"z": -3.668833297,
				"element": "H" 
			}
		],
		 "valence_orbital": [ 
			{
				"type": "occ",
				"energy": -0.32746,
				"method": "rhf"
			},
			{
				"type": "occ",
				"energy": -0.32551,
				"method": "rhf"
			},
			{
				"type": "occ",
				"energy": -0.31016,
				"method": "rhf"
			},
			{
				"type": "occ",
				"energy": -0.30399,
				"method": "rhf"
			},
			{
				"type": "occ",
				"energy": -0.292,
				"method": "rhf"
			},
			{
				"type": "unocc",
				"energy": -0.09808,
				"method": "rhf"
			},
			{
				"type": "unocc",
				"energy": -0.08524,
				"method": "rhf"
			},
			{
				"type": "unocc",
				"energy": -0.05987,
				"method": "rhf"
			},
			{
				"type": "unocc",
				"energy": -0.02009,
				"method": "rhf"
			},
			{
				"type": "unocc",
				"energy": 0.01598,
				"method": "rhf"
			}
		],
		"cosmo_sigma_profile": { 
			"-0.025": 0.0,
			"-0.024": 0.0,
			"-0.023": 0.0,
			"-0.022": 0.0,
			"-0.021": 0.0,
			"-0.02": 0.0,
			"-0.019": 0.0,
			"-0.018": 0.0,
			"-0.017": 0.0,
			"-0.016": 0.351207235026,
			"-0.015": 1.29124223501,
			"-0.014": 1.09345319953,
			"-0.013": 1.16177465786,
			"-0.012": 1.05700903749,
			"-0.011": 0.933778899033,
			"-0.01": 2.02901385079,
			"-0.009": 2.81855026192,
			"-0.008": 4.31295896245,
			"-0.007": 9.89466478173,
			"-0.006": 15.584523238,
			"-0.005": 11.0203486192,
			"-0.004": 8.99871639671,
			"-0.003": 9.23804307103,
			"-0.002": 7.20562346,
			"-0.001": 10.4740392743,
			"0.0": 14.2612720796,
			"0.001": 33.6357883813,
			"0.002": 12.1891806006,
			"0.003": 4.44748854667,
			"0.004": 6.19072883451,
			"0.005": 8.38993836742,
			"0.006": 16.6784508233,
			"0.007": 9.94492665587,
			"0.008": 6.39797691764,
			"0.009": 5.01723828114,
			"0.01": 3.13686591498,
			"0.011": 2.068818882,
			"0.012": 0.275774424794,
			"0.013": 0.0,
			"0.014": 0.0,
			"0.015": 0.0,
			"0.016": 0.0,
			"0.017": 0.0,
			"0.018": 0.0,
			"0.019": 0.0,
			"0.02": 0.0,
			"0.021": 0.0,
			"0.022": 0.0,
			"0.023": 0.0,
			"0.024": 0.0,
			"0.025": 0.0
		}
	}
}
