{
	 "smiles": "FC1=C(F)C(F)=C(SC2=C(F)C(F)=C(F)C(F)=C2F)C(F)=C1F", 
	 "Tm": 360.15, 
	 "num_atms": 23, 
	 "gaussian": { 
		 "optdone": 1, 
		 "sigma_profile": "yes", 
		 "theory": "DFT", 
		 "functional": "B3LYP", 
		 "basiset": "6-31G**", 
		 "properties": { 
			 "R2extent": 8031.6166, 
			 "electric_dipole_moment_norm": 0.0724718566065, 
			 "electric_quadrupole_moment_norm": 5.58617325456, 
			 "total_energy": -1853.72115909, 
			 "HOMO_LUMO_gap": 0.19779, 
			 "cosmo_polarized_energy": -4.74, 
			 "cosmo_cavitation_energy": 36.3, 
			 "cosmo_dispersion_energy": -24.17, 
			 "cosmo_repulsion_energy": 1.59, 
			 "cosmo_total_nonelectrostatic_energy": 13.72, 
			 "SMD_solvation_energy": 10.48 
		},
		"coords": [
			{
				"x": 1.4710660678,
				"y": 0.7395142991,
				"z": 4.0389815914,
				"element": "F" 
			},
			{
				"x": 0.6762574128,
				"y": 0.6320404164,
				"z": 2.9741156157,
				"element": "C" 
			},
			{
				"x": 0.3035291554,
				"y": 1.7720178186,
				"z": 2.2658464457,
				"element": "C" 
			},
			{
				"x": 0.7466281835,
				"y": 2.9714845328,
				"z": 2.6530954337,
				"element": "F" 
			},
			{
				"x": -0.5213095717,
				"y": 1.6513485288,
				"z": 1.1488934032,
				"element": "C" 
			},
			{
				"x": -0.8519707444,
				"y": 2.7630830103,
				"z": 0.4889186166,
				"element": "F" 
			},
			{
				"x": -0.9987625569,
				"y": 0.4048112805,
				"z": 0.7289772147,
				"element": "C" 
			},
			{
				"x": -2.1102179937,
				"y": 0.2833098147,
				"z": -0.6613284432,
				"element": "S" 
			},
			{
				"x": -1.1290751101,
				"y": -0.686798086,
				"z": -1.7924241255,
				"element": "C" 
			},
			{
				"x": -1.5713411558,
				"y": -1.9451722068,
				"z": -2.2154895788,
				"element": "C" 
			},
			{
				"x": -2.7095389703,
				"y": -2.4589247089,
				"z": -1.7447259399,
				"element": "F" 
			},
			{
				"x": -0.846338889,
				"y": -2.6941899357,
				"z": -3.1406294484,
				"element": "C" 
			},
			{
				"x": -1.2868784802,
				"y": -3.89235163,
				"z": -3.5347836781,
				"element": "F" 
			},
			{
				"x": 0.3506754608,
				"y": -2.1932832294,
				"z": -3.6469272016,
				"element": "C" 
			},
			{
				"x": 1.0529867411,
				"y": -2.9078377825,
				"z": -4.5263824883,
				"element": "F" 
			},
			{
				"x": 0.8168599946,
				"y": -0.9452888626,
				"z": -3.2351787359,
				"element": "C" 
			},
			{
				"x": 1.9647715116,
				"y": -0.4676757875,
				"z": -3.7250826226,
				"element": "F" 
			},
			{
				"x": 0.0725347337,
				"y": -0.2021755078,
				"z": -2.3240405651,
				"element": "C" 
			},
			{
				"x": 0.5382764306,
				"y": 0.9947359024,
				"z": -1.9522202724,
				"element": "F" 
			},
			{
				"x": -0.6166310269,
				"y": -0.7243654781,
				"z": 1.4640027367,
				"element": "C" 
			},
			{
				"x": -1.045651349,
				"y": -1.9383306039,
				"z": 1.1037942591,
				"element": "F" 
			},
			{
				"x": 0.2201371434,
				"y": -0.622528207,
				"z": 2.5712043665,
				"element": "C" 
			},
			{
				"x": 0.5786930128,
				"y": -1.7133235774,
				"z": 3.2548834164,
				"element": "F" 
			}
		],
		 "valence_orbital": [ 
			{
				"type": "occ",
				"energy": -0.30071,
				"method": "rhf"
			},
			{
				"type": "occ",
				"energy": -0.28484,
				"method": "rhf"
			},
			{
				"type": "occ",
				"energy": -0.26949,
				"method": "rhf"
			},
			{
				"type": "occ",
				"energy": -0.2676,
				"method": "rhf"
			},
			{
				"type": "occ",
				"energy": -0.2555,
				"method": "rhf"
			},
			{
				"type": "unocc",
				"energy": -0.05771,
				"method": "rhf"
			},
			{
				"type": "unocc",
				"energy": -0.0505,
				"method": "rhf"
			},
			{
				"type": "unocc",
				"energy": -0.03124,
				"method": "rhf"
			},
			{
				"type": "unocc",
				"energy": -0.0266,
				"method": "rhf"
			},
			{
				"type": "unocc",
				"energy": -0.01259,
				"method": "rhf"
			}
		],
		"cosmo_sigma_profile": { 
			"-0.025": 0.0,
			"-0.024": 0.0,
			"-0.023": 0.0,
			"-0.022": 0.0,
			"-0.021": 0.0,
			"-0.02": 0.0,
			"-0.019": 0.0,
			"-0.018": 0.0,
			"-0.017": 0.0,
			"-0.016": 0.0,
			"-0.015": 0.0,
			"-0.014": 0.0,
			"-0.013": 0.0,
			"-0.012": 0.0,
			"-0.011": 0.0,
			"-0.01": 0.0,
			"-0.009": 0.0,
			"-0.008": 0.0,
			"-0.007": 0.0196051565381,
			"-0.006": 2.7000643268,
			"-0.005": 13.2539058359,
			"-0.004": 39.6466044974,
			"-0.003": 23.2524033629,
			"-0.002": 17.1593232904,
			"-0.001": 17.4495399753,
			"0.0": 19.7726969159,
			"0.001": 28.4552276131,
			"0.002": 91.2651096923,
			"0.003": 34.2525591886,
			"0.004": 5.77757599478,
			"0.005": 4.5771783185,
			"0.006": 0.903318149619,
			"0.007": 0.0,
			"0.008": 0.0,
			"0.009": 0.0,
			"0.01": 0.0,
			"0.011": 0.0,
			"0.012": 0.0,
			"0.013": 0.0,
			"0.014": 0.0,
			"0.015": 0.0,
			"0.016": 0.0,
			"0.017": 0.0,
			"0.018": 0.0,
			"0.019": 0.0,
			"0.02": 0.0,
			"0.021": 0.0,
			"0.022": 0.0,
			"0.023": 0.0,
			"0.024": 0.0,
			"0.025": 0.0
		}
	}
}
