{
	 "smiles": "COC1=C(N)C=NC=N1", 
	 "Tm": 345.15, 
	 "num_atms": 16, 
	 "gaussian": { 
		 "optdone": 1, 
		 "sigma_profile": "yes", 
		 "theory": "DFT", 
		 "functional": "B3LYP", 
		 "basiset": "6-31G**", 
		 "properties": { 
			 "R2extent": 1521.4721, 
			 "electric_dipole_moment_norm": 3.26203864784, 
			 "electric_quadrupole_moment_norm": 10.0489383375, 
			 "total_energy": -434.22088079, 
			 "HOMO_LUMO_gap": 0.19639, 
			 "cosmo_polarized_energy": -10.8, 
			 "cosmo_cavitation_energy": 20.04, 
			 "cosmo_dispersion_energy": -15.25, 
			 "cosmo_repulsion_energy": 1.26, 
			 "cosmo_total_nonelectrostatic_energy": 6.05, 
			 "SMD_solvation_energy": 2.14 
		},
		"coords": [
			{
				"x": 0.6749005623,
				"y": 0.3791246969,
				"z": -1.9188763029,
				"element": "C" 
			},
			{
				"x": 0.0334941621,
				"y": 0.4813026727,
				"z": -0.6417968408,
				"element": "O" 
			},
			{
				"x": 0.8179738031,
				"y": 0.332498869,
				"z": 0.4503502774,
				"element": "C" 
			},
			{
				"x": 0.1635877148,
				"y": 0.4467980891,
				"z": 1.7033201371,
				"element": "C" 
			},
			{
				"x": -1.2106018322,
				"y": 0.6239725287,
				"z": 1.7735871782,
				"element": "N" 
			},
			{
				"x": 1.0025165958,
				"y": 0.3115935559,
				"z": 2.8062954404,
				"element": "C" 
			},
			{
				"x": 2.3243971984,
				"y": 0.0797657243,
				"z": 2.7056540143,
				"element": "N" 
			},
			{
				"x": 2.8108998501,
				"y": -0.0144763938,
				"z": 1.4755016454,
				"element": "C" 
			},
			{
				"x": 2.1125205768,
				"y": 0.1066482797,
				"z": 0.3309751404,
				"element": "N" 
			},
			{
				"x": 1.4458179281,
				"y": 1.1463266906,
				"z": -2.0315420069,
				"element": "H" 
			},
			{
				"x": -0.1177543414,
				"y": 0.5228540706,
				"z": -2.6540301268,
				"element": "H" 
			},
			{
				"x": 1.1388287988,
				"y": -0.6028084471,
				"z": -2.0435789289,
				"element": "H" 
			},
			{
				"x": -1.6246004591,
				"y": 1.0103362161,
				"z": 0.9367112647,
				"element": "H" 
			},
			{
				"x": -1.5534926991,
				"y": 1.0481386989,
				"z": 2.6241726033,
				"element": "H" 
			},
			{
				"x": 0.5934946133,
				"y": 0.390638631,
				"z": 3.8132999715,
				"element": "H" 
			},
			{
				"x": 3.8765175283,
				"y": -0.2042138825,
				"z": 1.3716565336,
				"element": "H" 
			}
		],
		 "valence_orbital": [ 
			{
				"type": "occ",
				"energy": -0.33864,
				"method": "rhf"
			},
			{
				"type": "occ",
				"energy": -0.29803,
				"method": "rhf"
			},
			{
				"type": "occ",
				"energy": -0.27945,
				"method": "rhf"
			},
			{
				"type": "occ",
				"energy": -0.24655,
				"method": "rhf"
			},
			{
				"type": "occ",
				"energy": -0.21127,
				"method": "rhf"
			},
			{
				"type": "unocc",
				"energy": -0.01488,
				"method": "rhf"
			},
			{
				"type": "unocc",
				"energy": 0.0007,
				"method": "rhf"
			},
			{
				"type": "unocc",
				"energy": 0.0778,
				"method": "rhf"
			},
			{
				"type": "unocc",
				"energy": 0.11161,
				"method": "rhf"
			},
			{
				"type": "unocc",
				"energy": 0.11945,
				"method": "rhf"
			}
		],
		"cosmo_sigma_profile": { 
			"-0.025": 0.0,
			"-0.024": 0.0,
			"-0.023": 0.0,
			"-0.022": 0.0,
			"-0.021": 0.0,
			"-0.02": 0.0,
			"-0.019": 0.0,
			"-0.018": 0.0,
			"-0.017": 0.0,
			"-0.016": 0.0,
			"-0.015": 0.0,
			"-0.014": 0.21088518601,
			"-0.013": 1.46410226258,
			"-0.012": 2.11020378062,
			"-0.011": 2.28011102268,
			"-0.01": 3.1344963826,
			"-0.009": 2.24679402957,
			"-0.008": 2.4295099071,
			"-0.007": 3.74908514948,
			"-0.006": 8.22872979555,
			"-0.005": 8.65708293842,
			"-0.004": 12.0343050102,
			"-0.003": 12.3766158092,
			"-0.002": 8.97578464185,
			"-0.001": 10.7467829824,
			"0.0": 11.6935085864,
			"0.001": 10.8727484208,
			"0.002": 9.9608459921,
			"0.003": 7.4026439503,
			"0.004": 7.15848535425,
			"0.005": 7.00375180116,
			"0.006": 4.08467200815,
			"0.007": 3.48386743139,
			"0.008": 3.69053941811,
			"0.009": 3.52274073301,
			"0.01": 1.96262106732,
			"0.011": 2.25175731309,
			"0.012": 2.5436648759,
			"0.013": 2.206806596,
			"0.014": 1.15224976909,
			"0.015": 0.555156242062,
			"0.016": 1.02233826035,
			"0.017": 0.263360201215,
			"0.018": 0.0,
			"0.019": 0.0,
			"0.02": 0.0,
			"0.021": 0.0,
			"0.022": 0.0,
			"0.023": 0.0,
			"0.024": 0.0,
			"0.025": 0.0
		}
	}
}
