{
	 "smiles": "COC1=C(Cl)C=CN=C1O", 
	 "Tm": 443.15, 
	 "num_atms": 16, 
	 "gaussian": { 
		 "optdone": 1, 
		 "sigma_profile": "yes", 
		 "theory": "DFT", 
		 "functional": "B3LYP", 
		 "basiset": "6-31G**", 
		 "properties": { 
			 "R2extent": 2620.3187, 
			 "electric_dipole_moment_norm": 1.64781359383, 
			 "electric_quadrupole_moment_norm": 11.1406792894, 
			 "total_energy": -897.623657469, 
			 "HOMO_LUMO_gap": 0.19637, 
			 "cosmo_polarized_energy": -7.36, 
			 "cosmo_cavitation_energy": 21.88, 
			 "cosmo_dispersion_energy": -16.73, 
			 "cosmo_repulsion_energy": 1.37, 
			 "cosmo_total_nonelectrostatic_energy": 6.52, 
			 "SMD_solvation_energy": 3.59 
		},
		"coords": [
			{
				"x": 3.0980588432,
				"y": -2.1073400835,
				"z": 2.1173171135,
				"element": "C" 
			},
			{
				"x": 1.6729756016,
				"y": -2.045132685,
				"z": 2.2235119784,
				"element": "O" 
			},
			{
				"x": 0.9117175355,
				"y": -1.2946693471,
				"z": 1.3940431761,
				"element": "C" 
			},
			{
				"x": -0.4742403625,
				"y": -1.3232801106,
				"z": 1.6069107032,
				"element": "C" 
			},
			{
				"x": -1.115590644,
				"y": -2.3039135518,
				"z": 2.9002508023,
				"element": "Cl" 
			},
			{
				"x": -1.3473794641,
				"y": -0.5840686622,
				"z": 0.8056218278,
				"element": "C" 
			},
			{
				"x": -0.7979331043,
				"y": 0.1820325672,
				"z": -0.2111161463,
				"element": "C" 
			},
			{
				"x": 0.5206411499,
				"y": 0.2334902291,
				"z": -0.4436130515,
				"element": "N" 
			},
			{
				"x": 1.3407240701,
				"y": -0.4713351967,
				"z": 0.3219853609,
				"element": "C" 
			},
			{
				"x": 2.6670924562,
				"y": -0.3758920145,
				"z": 0.0340687961,
				"element": "O" 
			},
			{
				"x": 3.4036003124,
				"y": -2.7853427839,
				"z": 2.9156900227,
				"element": "H" 
			},
			{
				"x": 3.413035877,
				"y": -2.5073338288,
				"z": 1.150646103,
				"element": "H" 
			},
			{
				"x": 3.5565627758,
				"y": -1.127146933,
				"z": 2.2678221557,
				"element": "H" 
			},
			{
				"x": -2.4154785933,
				"y": -0.6163912154,
				"z": 0.9823646531,
				"element": "H" 
			},
			{
				"x": -1.4291890029,
				"y": 0.7772705011,
				"z": -0.8655534093,
				"element": "H" 
			},
			{
				"x": 2.7120025492,
				"y": 0.2314531152,
				"z": -0.7219500855,
				"element": "H" 
			}
		],
		 "valence_orbital": [ 
			{
				"type": "occ",
				"energy": -0.33402,
				"method": "rhf"
			},
			{
				"type": "occ",
				"energy": -0.31292,
				"method": "rhf"
			},
			{
				"type": "occ",
				"energy": -0.27727,
				"method": "rhf"
			},
			{
				"type": "occ",
				"energy": -0.26064,
				"method": "rhf"
			},
			{
				"type": "occ",
				"energy": -0.22112,
				"method": "rhf"
			},
			{
				"type": "unocc",
				"energy": -0.02475,
				"method": "rhf"
			},
			{
				"type": "unocc",
				"energy": -0.00102,
				"method": "rhf"
			},
			{
				"type": "unocc",
				"energy": 0.02722,
				"method": "rhf"
			},
			{
				"type": "unocc",
				"energy": 0.08008,
				"method": "rhf"
			},
			{
				"type": "unocc",
				"energy": 0.118,
				"method": "rhf"
			}
		],
		"cosmo_sigma_profile": { 
			"-0.025": 0.0,
			"-0.024": 0.0,
			"-0.023": 0.0,
			"-0.022": 0.0,
			"-0.021": 0.0,
			"-0.02": 0.0,
			"-0.019": 0.0,
			"-0.018": 0.0,
			"-0.017": 0.503316156354,
			"-0.016": 0.775311534714,
			"-0.015": 0.713464274602,
			"-0.014": 0.491760563238,
			"-0.013": 0.936393723494,
			"-0.012": 0.190561400615,
			"-0.011": 0.723009045892,
			"-0.01": 0.84364399917,
			"-0.009": 0.702065970725,
			"-0.008": 1.08442668984,
			"-0.007": 3.86153063266,
			"-0.006": 7.87344189011,
			"-0.005": 10.6032384642,
			"-0.004": 10.9944211477,
			"-0.003": 13.9596597751,
			"-0.002": 9.66715051469,
			"-0.001": 12.7841983595,
			"0.0": 15.4778097288,
			"0.001": 16.3238056265,
			"0.002": 16.0847282557,
			"0.003": 13.0791301227,
			"0.004": 12.4532796827,
			"0.005": 7.19120552694,
			"0.006": 5.83972904414,
			"0.007": 3.99512838377,
			"0.008": 3.41933287371,
			"0.009": 2.82127555774,
			"0.01": 1.90085557878,
			"0.011": 0.492170053129,
			"0.012": 0.686789474472,
			"0.013": 0.672731644361,
			"0.014": 0.0,
			"0.015": 0.0,
			"0.016": 0.0,
			"0.017": 0.0,
			"0.018": 0.0,
			"0.019": 0.0,
			"0.02": 0.0,
			"0.021": 0.0,
			"0.022": 0.0,
			"0.023": 0.0,
			"0.024": 0.0,
			"0.025": 0.0
		}
	}
}
