{
	 "smiles": "OC(NC(=O)C=C)C(O)NC(=O)C=C", 
	 "Tm": 415.15, 
	 "num_atms": 26, 
	 "gaussian": { 
		 "optdone": 1, 
		 "sigma_profile": "yes", 
		 "theory": "DFT", 
		 "functional": "B3LYP", 
		 "basiset": "6-31G**", 
		 "properties": { 
			 "R2extent": 3477.1979, 
			 "electric_dipole_moment_norm": 4.94509196173, 
			 "electric_quadrupole_moment_norm": 10.3990133777, 
			 "total_energy": -722.435465097, 
			 "HOMO_LUMO_gap": 0.20469, 
			 "cosmo_polarized_energy": -25.19, 
			 "cosmo_cavitation_energy": 30.43, 
			 "cosmo_dispersion_energy": -20.92, 
			 "cosmo_repulsion_energy": 1.65, 
			 "cosmo_total_nonelectrostatic_energy": 11.17, 
			 "SMD_solvation_energy": 7.28 
		},
		"coords": [
			{
				"x": 0.5505559022,
				"y": 0.1307093239,
				"z": 1.0818268109,
				"element": "O" 
			},
			{
				"x": -0.5427820627,
				"y": 0.4502683365,
				"z": 0.2485294799,
				"element": "C" 
			},
			{
				"x": -0.1962810849,
				"y": 1.6585983641,
				"z": -0.4762653631,
				"element": "N" 
			},
			{
				"x": -0.5618254254,
				"y": 2.9613924686,
				"z": -0.111704724,
				"element": "C" 
			},
			{
				"x": 0.1968219098,
				"y": 3.8927211615,
				"z": -0.3308331906,
				"element": "O" 
			},
			{
				"x": -1.9166122292,
				"y": 3.2201015824,
				"z": 0.4588473086,
				"element": "C" 
			},
			{
				"x": -3.0446080639,
				"y": 2.5596024845,
				"z": 0.1777304385,
				"element": "C" 
			},
			{
				"x": -0.879494466,
				"y": -0.6819521696,
				"z": -0.7683291152,
				"element": "C" 
			},
			{
				"x": -1.8582274111,
				"y": -0.2235698859,
				"z": -1.6621430868,
				"element": "O" 
			},
			{
				"x": 0.2907673715,
				"y": -1.1658843046,
				"z": -1.4871225184,
				"element": "N" 
			},
			{
				"x": 1.2541914917,
				"y": -2.0513399361,
				"z": -1.0458257305,
				"element": "C" 
			},
			{
				"x": 2.3598325663,
				"y": -2.090766005,
				"z": -1.5699787425,
				"element": "O" 
			},
			{
				"x": 0.8693321722,
				"y": -2.9793672844,
				"z": 0.0670075787,
				"element": "C" 
			},
			{
				"x": 1.8130122096,
				"y": -3.6248180808,
				"z": 0.7575615193,
				"element": "C" 
			},
			{
				"x": 0.4961205271,
				"y": -0.7943623892,
				"z": 1.3627392055,
				"element": "H" 
			},
			{
				"x": -1.4489770951,
				"y": 0.6494292528,
				"z": 0.829771448,
				"element": "H" 
			},
			{
				"x": 0.7768609525,
				"y": 1.6577798922,
				"z": -0.773746404,
				"element": "H" 
			},
			{
				"x": -1.9417721863,
				"y": 4.1234021623,
				"z": 1.0621143237,
				"element": "H" 
			},
			{
				"x": -3.9972581953,
				"y": 2.9002310263,
				"z": 0.5728115258,
				"element": "H" 
			},
			{
				"x": -3.0711895066,
				"y": 1.6819429001,
				"z": -0.4608966178,
				"element": "H" 
			},
			{
				"x": -1.3209081935,
				"y": -1.5185727565,
				"z": -0.2199278095,
				"element": "H" 
			},
			{
				"x": -1.5760086451,
				"y": 0.6687107307,
				"z": -1.9277155908,
				"element": "H" 
			},
			{
				"x": 0.6338138543,
				"y": -0.565420687,
				"z": -2.2288753067,
				"element": "H" 
			},
			{
				"x": -0.1830096396,
				"y": -3.149114023,
				"z": 0.2821619294,
				"element": "H" 
			},
			{
				"x": 2.8607427775,
				"y": -3.4675832229,
				"z": 0.5198397406,
				"element": "H" 
			},
			{
				"x": 1.5660024697,
				"y": -4.3200389408,
				"z": 1.5535228911,
				"element": "H" 
			}
		],
		 "valence_orbital": [ 
			{
				"type": "occ",
				"energy": -0.2927,
				"method": "rhf"
			},
			{
				"type": "occ",
				"energy": -0.28915,
				"method": "rhf"
			},
			{
				"type": "occ",
				"energy": -0.27194,
				"method": "rhf"
			},
			{
				"type": "occ",
				"energy": -0.25982,
				"method": "rhf"
			},
			{
				"type": "occ",
				"energy": -0.25578,
				"method": "rhf"
			},
			{
				"type": "unocc",
				"energy": -0.05109,
				"method": "rhf"
			},
			{
				"type": "unocc",
				"energy": -0.04925,
				"method": "rhf"
			},
			{
				"type": "unocc",
				"energy": 0.04672,
				"method": "rhf"
			},
			{
				"type": "unocc",
				"energy": 0.05556,
				"method": "rhf"
			},
			{
				"type": "unocc",
				"energy": 0.06275,
				"method": "rhf"
			}
		],
		"cosmo_sigma_profile": { 
			"-0.025": 0.0,
			"-0.024": 0.0,
			"-0.023": 0.0,
			"-0.022": 0.0,
			"-0.021": 0.0,
			"-0.02": 0.0,
			"-0.019": 0.0,
			"-0.018": 0.0,
			"-0.017": 0.0198689010694,
			"-0.016": 0.386706977984,
			"-0.015": 0.639348481507,
			"-0.014": 1.84854470472,
			"-0.013": 4.37379910371,
			"-0.012": 5.27361678412,
			"-0.011": 4.08992298138,
			"-0.01": 5.25635839221,
			"-0.009": 5.71528372462,
			"-0.008": 5.0370544058,
			"-0.007": 10.2112675485,
			"-0.006": 12.3012874972,
			"-0.005": 13.2947335648,
			"-0.004": 12.7832467394,
			"-0.003": 16.9297205626,
			"-0.002": 15.6759236,
			"-0.001": 13.414339479,
			"0.0": 12.9555477779,
			"0.001": 10.7072627235,
			"0.002": 10.4583536032,
			"0.003": 8.76373549153,
			"0.004": 7.27233047555,
			"0.005": 6.8155634247,
			"0.006": 5.28403319223,
			"0.007": 5.57602886525,
			"0.008": 4.27659891492,
			"0.009": 5.19791683268,
			"0.01": 5.62747644246,
			"0.011": 6.72449371229,
			"0.012": 9.96761155574,
			"0.013": 9.92404711166,
			"0.014": 3.78946293763,
			"0.015": 0.0594902791777,
			"0.016": 0.0,
			"0.017": 0.0,
			"0.018": 0.0,
			"0.019": 0.0,
			"0.02": 0.0,
			"0.021": 0.0,
			"0.022": 0.0,
			"0.023": 0.0,
			"0.024": 0.0,
			"0.025": 0.0
		}
	}
}
