{
	 "smiles": "ClC1=CC=C(C=C1)C1=NN(C=C1C=O)C1=CC=CC=C1", 
	 "Tm": 399.15, 
	 "num_atms": 31, 
	 "gaussian": { 
		 "optdone": 1, 
		 "sigma_profile": "yes", 
		 "theory": "DFT", 
		 "functional": "B3LYP", 
		 "basiset": "6-31G**", 
		 "properties": { 
			 "R2extent": 9265.2772, 
			 "electric_dipole_moment_norm": 3.84866785914, 
			 "electric_quadrupole_moment_norm": 9.98971843597, 
			 "total_energy": -1261.23091567, 
			 "HOMO_LUMO_gap": 0.17254, 
			 "cosmo_polarized_energy": -12.26, 
			 "cosmo_cavitation_energy": 38.43, 
			 "cosmo_dispersion_energy": -27.68, 
			 "cosmo_repulsion_energy": 2.1, 
			 "cosmo_total_nonelectrostatic_energy": 12.85, 
			 "SMD_solvation_energy": 6.6 
		},
		"coords": [
			{
				"x": 5.7388999177,
				"y": 1.5690532276,
				"z": 3.8478538799,
				"element": "Cl" 
			},
			{
				"x": 4.2350903948,
				"y": 1.1554021763,
				"z": 3.0397653434,
				"element": "C" 
			},
			{
				"x": 3.6665084316,
				"y": 2.0595950419,
				"z": 2.1414320437,
				"element": "C" 
			},
			{
				"x": 2.4720908104,
				"y": 1.7288320873,
				"z": 1.5084164862,
				"element": "C" 
			},
			{
				"x": 1.8346205705,
				"y": 0.5026374722,
				"z": 1.7610535179,
				"element": "C" 
			},
			{
				"x": 2.4367636676,
				"y": -0.3942297698,
				"z": 2.6574481948,
				"element": "C" 
			},
			{
				"x": 3.6307754531,
				"y": -0.0730701081,
				"z": 3.3012356862,
				"element": "C" 
			},
			{
				"x": 0.5766915825,
				"y": 0.1754641885,
				"z": 1.0664794025,
				"element": "C" 
			},
			{
				"x": 0.3810936319,
				"y": 0.6107466568,
				"z": -0.1774879788,
				"element": "N" 
			},
			{
				"x": -0.8554700852,
				"y": 0.1615373491,
				"z": -0.5343645264,
				"element": "N" 
			},
			{
				"x": -1.4396228743,
				"y": -0.5544913428,
				"z": 0.4532145752,
				"element": "C" 
			},
			{
				"x": -0.5587040427,
				"y": -0.5708238689,
				"z": 1.5258150905,
				"element": "C" 
			},
			{
				"x": -0.8634915121,
				"y": -1.1633822538,
				"z": 2.8280544718,
				"element": "C" 
			},
			{
				"x": -1.8769158085,
				"y": -1.8049937316,
				"z": 3.0561817704,
				"element": "O" 
			},
			{
				"x": -1.3649028296,
				"y": 0.4478606993,
				"z": -1.8331441634,
				"element": "C" 
			},
			{
				"x": -0.4732111838,
				"y": 0.7662859949,
				"z": -2.8622048667,
				"element": "C" 
			},
			{
				"x": -0.9701537189,
				"y": 1.0377508407,
				"z": -4.1353532318,
				"element": "C" 
			},
			{
				"x": -2.3426137906,
				"y": 0.9874235445,
				"z": -4.3887374506,
				"element": "C" 
			},
			{
				"x": -3.2238532531,
				"y": 0.6731310365,
				"z": -3.3528936521,
				"element": "C" 
			},
			{
				"x": -2.7426911146,
				"y": 0.4102029179,
				"z": -2.0710523703,
				"element": "C" 
			},
			{
				"x": 4.1511361822,
				"y": 3.0100140699,
				"z": 1.947329211,
				"element": "H" 
			},
			{
				"x": 2.0171528942,
				"y": 2.4239192194,
				"z": 0.8111021196,
				"element": "H" 
			},
			{
				"x": 1.9902945931,
				"y": -1.3671177126,
				"z": 2.8343195541,
				"element": "H" 
			},
			{
				"x": 4.0932827062,
				"y": -0.7723692382,
				"z": 3.9887031093,
				"element": "H" 
			},
			{
				"x": -2.411971522,
				"y": -1.0112027209,
				"z": 0.358996977,
				"element": "H" 
			},
			{
				"x": -0.1177802262,
				"y": -0.9791552826,
				"z": 3.6273368256,
				"element": "H" 
			},
			{
				"x": 0.5880816682,
				"y": 0.797362873,
				"z": -2.6494212822,
				"element": "H" 
			},
			{
				"x": -0.2773597148,
				"y": 1.2839533266,
				"z": -4.9344012087,
				"element": "H" 
			},
			{
				"x": -2.7229767602,
				"y": 1.1964273461,
				"z": -5.3837841949,
				"element": "H" 
			},
			{
				"x": -4.2937500843,
				"y": 0.6439355173,
				"z": -3.5352813723,
				"element": "H" 
			},
			{
				"x": -3.436713983,
				"y": 0.2000004436,
				"z": -1.2644119609,
				"element": "H" 
			}
		],
		 "valence_orbital": [ 
			{
				"type": "occ",
				"energy": -0.27042,
				"method": "rhf"
			},
			{
				"type": "occ",
				"energy": -0.26941,
				"method": "rhf"
			},
			{
				"type": "occ",
				"energy": -0.25656,
				"method": "rhf"
			},
			{
				"type": "occ",
				"energy": -0.25084,
				"method": "rhf"
			},
			{
				"type": "occ",
				"energy": -0.23132,
				"method": "rhf"
			},
			{
				"type": "unocc",
				"energy": -0.05878,
				"method": "rhf"
			},
			{
				"type": "unocc",
				"energy": -0.04608,
				"method": "rhf"
			},
			{
				"type": "unocc",
				"energy": -0.02037,
				"method": "rhf"
			},
			{
				"type": "unocc",
				"energy": -0.01969,
				"method": "rhf"
			},
			{
				"type": "unocc",
				"energy": -0.00658,
				"method": "rhf"
			}
		],
		"cosmo_sigma_profile": { 
			"-0.025": 0.0,
			"-0.024": 0.0,
			"-0.023": 0.0,
			"-0.022": 0.0,
			"-0.021": 0.0,
			"-0.02": 0.0,
			"-0.019": 0.0,
			"-0.018": 0.0,
			"-0.017": 0.0,
			"-0.016": 0.0,
			"-0.015": 0.0,
			"-0.014": 0.0,
			"-0.013": 0.0,
			"-0.012": 0.0095497891342,
			"-0.011": 1.31929040403,
			"-0.01": 2.00563713033,
			"-0.009": 1.64676207815,
			"-0.008": 5.20352062133,
			"-0.007": 10.1583397725,
			"-0.006": 19.8113972857,
			"-0.005": 20.7725966654,
			"-0.004": 20.2399059037,
			"-0.003": 16.967790092,
			"-0.002": 17.0842452044,
			"-0.001": 21.181904428,
			"0.0": 27.0641462096,
			"0.001": 27.8718430518,
			"0.002": 27.2121086886,
			"0.003": 32.7333460361,
			"0.004": 25.5820547464,
			"0.005": 10.9950123418,
			"0.006": 3.92739015187,
			"0.007": 3.09780976703,
			"0.008": 2.48275429852,
			"0.009": 3.1227443106,
			"0.01": 2.90955297796,
			"0.011": 3.64931621234,
			"0.012": 3.99770756733,
			"0.013": 1.49895486922,
			"0.014": 0.135095672184,
			"0.015": 0.0,
			"0.016": 0.0,
			"0.017": 0.0,
			"0.018": 0.0,
			"0.019": 0.0,
			"0.02": 0.0,
			"0.021": 0.0,
			"0.022": 0.0,
			"0.023": 0.0,
			"0.024": 0.0,
			"0.0": 0.0
		}
	}
}
