{
	 "smiles": "NC(=O)C1=C(F)C(=CC=C1)C(F)(F)F", 
	 "Tm": 369.15, 
	 "num_atms": 19, 
	 "gaussian": { 
		 "optdone": 1, 
		 "sigma_profile": "yes", 
		 "theory": "DFT", 
		 "functional": "B3LYP", 
		 "basiset": "6-31G**", 
		 "properties": { 
			 "R2extent": 3178.1428, 
			 "electric_dipole_moment_norm": 0.465485058836, 
			 "electric_quadrupole_moment_norm": 17.0999953295, 
			 "total_energy": -837.220114507, 
			 "HOMO_LUMO_gap": 0.20821, 
			 "cosmo_polarized_energy": -10.34, 
			 "cosmo_cavitation_energy": 25.28, 
			 "cosmo_dispersion_energy": -18.37, 
			 "cosmo_repulsion_energy": 1.37, 
			 "cosmo_total_nonelectrostatic_energy": 8.28, 
			 "SMD_solvation_energy": 6.54 
		},
		"coords": [
			{
				"x": -0.1827603562,
				"y": 0.0479973855,
				"z": -3.0278013234,
				"element": "N" 
			},
			{
				"x": -1.1329893059,
				"y": 0.6580836499,
				"z": -2.2704670252,
				"element": "C" 
			},
			{
				"x": -2.2527479667,
				"y": 0.908363123,
				"z": -2.7022410195,
				"element": "O" 
			},
			{
				"x": -0.7675741532,
				"y": 1.0311385574,
				"z": -0.8488758207,
				"element": "C" 
			},
			{
				"x": 0.4577788895,
				"y": 0.8154402888,
				"z": -0.2173740181,
				"element": "C" 
			},
			{
				"x": 1.4772347651,
				"y": 0.2134031293,
				"z": -0.883403479,
				"element": "F" 
			},
			{
				"x": 0.7040195391,
				"y": 1.1955594715,
				"z": 1.1034606853,
				"element": "C" 
			},
			{
				"x": -0.3162506949,
				"y": 1.8170813637,
				"z": 1.8237482224,
				"element": "C" 
			},
			{
				"x": -1.5544926678,
				"y": 2.0483386993,
				"z": 1.2231021544,
				"element": "C" 
			},
			{
				"x": -1.7706708243,
				"y": 1.6589482113,
				"z": -0.0936717554,
				"element": "C" 
			},
			{
				"x": 2.0535135223,
				"y": 0.9300049299,
				"z": 1.7199678389,
				"element": "C" 
			},
			{
				"x": 2.103333733,
				"y": 1.3651352156,
				"z": 2.9973396482,
				"element": "F" 
			},
			{
				"x": 2.3461570895,
				"y": -0.3874588959,
				"z": 1.7312238149,
				"element": "F" 
			},
			{
				"x": 3.0419698785,
				"y": 1.5518964325,
				"z": 1.0434521381,
				"element": "F" 
			},
			{
				"x": 0.7382561981,
				"y": -0.16066797,
				"z": -2.6813868035,
				"element": "H" 
			},
			{
				"x": -0.4393470727,
				"y": -0.1944966199,
				"z": -3.9721944147,
				"element": "H" 
			},
			{
				"x": -0.1304531568,
				"y": 2.1141346888,
				"z": 2.8493383287,
				"element": "H" 
			},
			{
				"x": -2.3467484252,
				"y": 2.5318059157,
				"z": 1.7849098032,
				"element": "H" 
			},
			{
				"x": -2.7206289915,
				"y": 1.8236924235,
				"z": -0.5905269744,
				"element": "H" 
			}
		],
		 "valence_orbital": [ 
			{
				"type": "occ",
				"energy": -0.36721,
				"method": "rhf"
			},
			{
				"type": "occ",
				"energy": -0.28502,
				"method": "rhf"
			},
			{
				"type": "occ",
				"energy": -0.27412,
				"method": "rhf"
			},
			{
				"type": "occ",
				"energy": -0.27302,
				"method": "rhf"
			},
			{
				"type": "occ",
				"energy": -0.26506,
				"method": "rhf"
			},
			{
				"type": "unocc",
				"energy": -0.05685,
				"method": "rhf"
			},
			{
				"type": "unocc",
				"energy": -0.03501,
				"method": "rhf"
			},
			{
				"type": "unocc",
				"energy": 0.04651,
				"method": "rhf"
			},
			{
				"type": "unocc",
				"energy": 0.0719,
				"method": "rhf"
			},
			{
				"type": "unocc",
				"energy": 0.09121,
				"method": "rhf"
			}
		],
		"cosmo_sigma_profile": { 
			"-0.025": 0.0,
			"-0.024": 0.0,
			"-0.023": 0.0,
			"-0.022": 0.0,
			"-0.021": 0.0,
			"-0.02": 0.0,
			"-0.019": 0.0,
			"-0.018": 0.0,
			"-0.017": 0.0,
			"-0.016": 0.0,
			"-0.015": 0.240922455386,
			"-0.014": 0.996522181487,
			"-0.013": 1.14381510378,
			"-0.012": 2.52857766372,
			"-0.011": 1.58677418144,
			"-0.01": 1.72891337138,
			"-0.009": 1.90643725865,
			"-0.008": 3.33388097671,
			"-0.007": 5.76656239559,
			"-0.006": 7.63489278922,
			"-0.005": 7.52853856268,
			"-0.004": 9.45718656757,
			"-0.003": 10.9604938784,
			"-0.002": 13.0587612941,
			"-0.001": 16.1693408051,
			"0.0": 18.2056825305,
			"0.001": 19.6404562357,
			"0.002": 34.0478044988,
			"0.003": 25.8355839379,
			"0.004": 2.30642964029,
			"0.005": 1.89846662149,
			"0.006": 0.866923912412,
			"0.007": 1.726691903,
			"0.008": 1.47215977248,
			"0.009": 1.22443831829,
			"0.01": 0.809198628032,
			"0.011": 2.05257497123,
			"0.012": 2.28373087931,
			"0.013": 5.01522507735,
			"0.014": 2.04985099635,
			"0.015": 0.0871371216953,
			"0.016": 0.0,
			"0.017": 0.0,
			"0.018": 0.0,
			"0.019": 0.0,
			"0.02": 0.0,
			"0.021": 0.0,
			"0.022": 0.0,
			"0.023": 0.0,
			"0.024": 0.0,
			"0.025": 0.0
		}
	}
}
