{
	 "smiles": "FC(F)C1=NC2=C(C=CC=C2)C(Cl)=N1", 
	 "Tm": 359.15, 
	 "num_atms": 19, 
	 "gaussian": { 
		 "optdone": 1, 
		 "sigma_profile": "yes", 
		 "theory": "DFT", 
		 "functional": "B3LYP", 
		 "basiset": "6-31G**", 
		 "properties": { 
			 "R2extent": 3491.1517, 
			 "electric_dipole_moment_norm": 4.21004603063, 
			 "electric_quadrupole_moment_norm": 7.64600284332, 
			 "total_energy": -1115.34235559, 
			 "HOMO_LUMO_gap": 0.17374, 
			 "cosmo_polarized_energy": -8.43, 
			 "cosmo_cavitation_energy": 26.67, 
			 "cosmo_dispersion_energy": -19.66, 
			 "cosmo_repulsion_energy": 1.51, 
			 "cosmo_total_nonelectrostatic_energy": 8.51, 
			 "SMD_solvation_energy": 2.28 
		},
		"coords": [
			{
				"x": 1.0918690814,
				"y": -2.1484252147,
				"z": 2.9401854887,
				"element": "F" 
			},
			{
				"x": 0.8794136429,
				"y": -2.5832738557,
				"z": 1.6657651271,
				"element": "C" 
			},
			{
				"x": -0.3291973384,
				"y": -3.2132404124,
				"z": 1.6377502526,
				"element": "F" 
			},
			{
				"x": 0.8620649713,
				"y": -1.3991659253,
				"z": 0.7165573329,
				"element": "C" 
			},
			{
				"x": -0.0292118199,
				"y": -0.4612615971,
				"z": 0.9225022219,
				"element": "N" 
			},
			{
				"x": -0.0209376162,
				"y": 0.5888748263,
				"z": 0.0547698358,
				"element": "C" 
			},
			{
				"x": 0.9135177746,
				"y": 0.6657611773,
				"z": -1.0281228733,
				"element": "C" 
			},
			{
				"x": 0.88372091,
				"y": 1.7778312464,
				"z": -1.9050075595,
				"element": "C" 
			},
			{
				"x": -0.043813795,
				"y": 2.7769093931,
				"z": -1.709610213,
				"element": "C" 
			},
			{
				"x": -0.9703645433,
				"y": 2.7046564813,
				"z": -0.639138639,
				"element": "C" 
			},
			{
				"x": -0.9629317063,
				"y": 1.6351933337,
				"z": 0.2273759365,
				"element": "C" 
			},
			{
				"x": 1.8097646237,
				"y": -0.4375759663,
				"z": -1.1042253034,
				"element": "C" 
			},
			{
				"x": 3.0174135518,
				"y": -0.4885103091,
				"z": -2.3808344325,
				"element": "Cl" 
			},
			{
				"x": 1.7981835964,
				"y": -1.4401750555,
				"z": -0.271741675,
				"element": "N" 
			},
			{
				"x": 1.6636652915,
				"y": -3.2967039118,
				"z": 1.3933420895,
				"element": "H" 
			},
			{
				"x": 1.5941138287,
				"y": 1.8287574136,
				"z": -2.7220744508,
				"element": "H" 
			},
			{
				"x": -0.0682340025,
				"y": 3.6299267894,
				"z": -2.3805655294,
				"element": "H" 
			},
			{
				"x": -1.6921916991,
				"y": 3.504890301,
				"z": -0.505638106,
				"element": "H" 
			},
			{
				"x": -1.6600447517,
				"y": 1.5546312859,
				"z": 1.0542104969,
				"element": "H" 
			}
		],
		 "valence_orbital": [ 
			{
				"type": "occ",
				"energy": -0.32064,
				"method": "rhf"
			},
			{
				"type": "occ",
				"energy": -0.31883,
				"method": "rhf"
			},
			{
				"type": "occ",
				"energy": -0.29067,
				"method": "rhf"
			},
			{
				"type": "occ",
				"energy": -0.27638,
				"method": "rhf"
			},
			{
				"type": "occ",
				"energy": -0.26136,
				"method": "rhf"
			},
			{
				"type": "unocc",
				"energy": -0.08762,
				"method": "rhf"
			},
			{
				"type": "unocc",
				"energy": -0.05479,
				"method": "rhf"
			},
			{
				"type": "unocc",
				"energy": -0.0057,
				"method": "rhf"
			},
			{
				"type": "unocc",
				"energy": 0.0177,
				"method": "rhf"
			},
			{
				"type": "unocc",
				"energy": 0.04937,
				"method": "rhf"
			}
		],
		"cosmo_sigma_profile": { 
			"-0.025": 0.0,
			"-0.024": 0.0,
			"-0.023": 0.0,
			"-0.022": 0.0,
			"-0.021": 0.0,
			"-0.02": 0.0,
			"-0.019": 0.0,
			"-0.018": 0.0,
			"-0.017": 0.0,
			"-0.016": 0.0,
			"-0.015": 0.0,
			"-0.014": 0.0,
			"-0.013": 0.0,
			"-0.012": 0.0,
			"-0.011": 0.0,
			"-0.01": 0.0443935319911,
			"-0.009": 1.62944831846,
			"-0.008": 3.87352047427,
			"-0.007": 9.87723576481,
			"-0.006": 10.9050776248,
			"-0.005": 10.9852749765,
			"-0.004": 11.5103930498,
			"-0.003": 16.9122852529,
			"-0.002": 15.7724453003,
			"-0.001": 15.9981805378,
			"0.0": 18.4789568688,
			"0.001": 19.3311244552,
			"0.002": 19.2762686835,
			"0.003": 13.7790090668,
			"0.004": 21.5984023292,
			"0.005": 11.3889234845,
			"0.006": 4.10870798298,
			"0.007": 3.15661347934,
			"0.008": 2.64642932943,
			"0.009": 2.55746105975,
			"0.01": 1.46591443663,
			"0.011": 1.49966230566,
			"0.012": 0.995844494313,
			"0.013": 0.197666007284,
			"0.014": 0.0,
			"0.015": 0.0,
			"0.016": 0.0,
			"0.017": 0.0,
			"0.018": 0.0,
			"0.019": 0.0,
			"0.02": 0.0,
			"0.021": 0.0,
			"0.022": 0.0,
			"0.023": 0.0,
			"0.024": 0.0,
			"0.025": 0.0
		}
	}
}
