{
	 "smiles": "NNC1=NC=C(C=C1)S(=O)(=O)NC1CCCCCCC1", 
	 "Tm": 414.15, 
	 "num_atms": 42, 
	 "gaussian": { 
		 "optdone": 1, 
		 "sigma_profile": "yes", 
		 "theory": "DFT", 
		 "functional": "B3LYP", 
		 "basiset": "6-31G**", 
		 "properties": { 
			 "R2extent": 7911.8843, 
			 "electric_dipole_moment_norm": 4.41744903536, 
			 "electric_quadrupole_moment_norm": 21.9174675357, 
			 "total_energy": -1276.19037824, 
			 "HOMO_LUMO_gap": 0.19205, 
			 "cosmo_polarized_energy": -18.94, 
			 "cosmo_cavitation_energy": 43.37, 
			 "cosmo_dispersion_energy": -30.17, 
			 "cosmo_repulsion_energy": 2.31, 
			 "cosmo_total_nonelectrostatic_energy": 15.51, 
			 "SMD_solvation_energy": 4.61 
		},
		"coords": [
			{
				"x": 3.8794257326,
				"y": -4.0901120197,
				"z": 3.340882699,
				"element": "N" 
			},
			{
				"x": 2.5362653244,
				"y": -3.8324998806,
				"z": 3.6718127033,
				"element": "N" 
			},
			{
				"x": 1.6191822117,
				"y": -3.3801040272,
				"z": 2.7576247752,
				"element": "C" 
			},
			{
				"x": 2.0019339753,
				"y": -3.3753573999,
				"z": 1.4670320165,
				"element": "N" 
			},
			{
				"x": 1.1152593565,
				"y": -2.9687618814,
				"z": 0.5555762058,
				"element": "C" 
			},
			{
				"x": -0.1712767345,
				"y": -2.5383172482,
				"z": 0.8762094078,
				"element": "C" 
			},
			{
				"x": -0.5663609574,
				"y": -2.5376397862,
				"z": 2.2231228179,
				"element": "C" 
			},
			{
				"x": 0.3351015526,
				"y": -2.9576572214,
				"z": 3.1804201245,
				"element": "C" 
			},
			{
				"x": -1.3353005059,
				"y": -2.0855266881,
				"z": -0.3951835152,
				"element": "S" 
			},
			{
				"x": -2.4887863606,
				"y": -1.4918691591,
				"z": 0.299125745,
				"element": "O" 
			},
			{
				"x": -1.5222912827,
				"y": -3.2002499301,
				"z": -1.3310264618,
				"element": "O" 
			},
			{
				"x": -0.4710754179,
				"y": -0.9389369586,
				"z": -1.2782630694,
				"element": "N" 
			},
			{
				"x": -0.5051066712,
				"y": 0.485403578,
				"z": -0.8658960052,
				"element": "C" 
			},
			{
				"x": 0.8249267491,
				"y": 1.1776423246,
				"z": -1.252988476,
				"element": "C" 
			},
			{
				"x": 1.6179531554,
				"y": 1.7278062021,
				"z": -0.0524379376,
				"element": "C" 
			},
			{
				"x": 0.8232901249,
				"y": 2.5113119759,
				"z": 1.0116880523,
				"element": "C" 
			},
			{
				"x": -0.0859163056,
				"y": 3.6619771394,
				"z": 0.5296022902,
				"element": "C" 
			},
			{
				"x": -1.5462006428,
				"y": 3.3191457984,
				"z": 0.1474945247,
				"element": "C" 
			},
			{
				"x": -1.8032439231,
				"y": 2.7346985515,
				"z": -1.2586850603,
				"element": "C" 
			},
			{
				"x": -1.7513230836,
				"y": 1.203086439,
				"z": -1.4215062568,
				"element": "C" 
			},
			{
				"x": 4.1806000364,
				"y": -3.3808320082,
				"z": 2.671459014,
				"element": "H" 
			},
			{
				"x": 3.9052336255,
				"y": -4.9699453469,
				"z": 2.8270153492,
				"element": "H" 
			},
			{
				"x": 2.386180235,
				"y": -3.6238794206,
				"z": 4.6471989674,
				"element": "H" 
			},
			{
				"x": 1.4496067544,
				"y": -2.9718023986,
				"z": -0.479014908,
				"element": "H" 
			},
			{
				"x": -1.564233622,
				"y": -2.2056606322,
				"z": 2.4885614146,
				"element": "H" 
			},
			{
				"x": 0.0695911761,
				"y": -2.972358524,
				"z": 4.2331931269,
				"element": "H" 
			},
			{
				"x": -0.6789365828,
				"y": -1.0976277578,
				"z": -2.2624772987,
				"element": "H" 
			},
			{
				"x": -0.5831843702,
				"y": 0.4602693109,
				"z": 0.2245228393,
				"element": "H" 
			},
			{
				"x": 1.4561920111,
				"y": 0.4615647075,
				"z": -1.7888454321,
				"element": "H" 
			},
			{
				"x": 0.6227924817,
				"y": 1.9896501994,
				"z": -1.9587927782,
				"element": "H" 
			},
			{
				"x": 2.1176858603,
				"y": 0.8924090966,
				"z": 0.4556836916,
				"element": "H" 
			},
			{
				"x": 2.4209830069,
				"y": 2.3686746496,
				"z": -0.4392044419,
				"element": "H" 
			},
			{
				"x": 1.5615194508,
				"y": 2.9246790051,
				"z": 1.7103265913,
				"element": "H" 
			},
			{
				"x": 0.2201376497,
				"y": 1.8200938728,
				"z": 1.6156828655,
				"element": "H" 
			},
			{
				"x": 0.3922128183,
				"y": 4.1948286069,
				"z": -0.3049027291,
				"element": "H" 
			},
			{
				"x": -0.1414458445,
				"y": 4.3908413061,
				"z": 1.347617409,
				"element": "H" 
			},
			{
				"x": -1.9797239478,
				"y": 2.6617516528,
				"z": 0.914354592,
				"element": "H" 
			},
			{
				"x": -2.1127138374,
				"y": 4.256135744,
				"z": 0.2129280786,
				"element": "H" 
			},
			{
				"x": -1.1160229371,
				"y": 3.2150674092,
				"z": -1.9671242605,
				"element": "H" 
			},
			{
				"x": -2.8058250355,
				"y": 3.0422752394,
				"z": -1.5800963463,
				"element": "H" 
			},
			{
				"x": -1.8231354955,
				"y": 0.9789404212,
				"z": -2.496422466,
				"element": "H" 
			},
			{
				"x": -2.6308697306,
				"y": 0.7501850583,
				"z": -0.9521678587,
				"element": "H" 
			}
		],
		 "valence_orbital": [ 
			{
				"type": "occ",
				"energy": -0.29253,
				"method": "rhf"
			},
			{
				"type": "occ",
				"energy": -0.2841,
				"method": "rhf"
			},
			{
				"type": "occ",
				"energy": -0.26945,
				"method": "rhf"
			},
			{
				"type": "occ",
				"energy": -0.25982,
				"method": "rhf"
			},
			{
				"type": "occ",
				"energy": -0.22511,
				"method": "rhf"
			},
			{
				"type": "unocc",
				"energy": -0.03306,
				"method": "rhf"
			},
			{
				"type": "unocc",
				"energy": -0.02591,
				"method": "rhf"
			},
			{
				"type": "unocc",
				"energy": 0.06258,
				"method": "rhf"
			},
			{
				"type": "unocc",
				"energy": 0.07313,
				"method": "rhf"
			},
			{
				"type": "unocc",
				"energy": 0.08134,
				"method": "rhf"
			}
		],
		"cosmo_sigma_profile": { 
			"-0.025": 0.0,
			"-0.024": 0.0,
			"-0.023": 0.0,
			"-0.022": 0.0,
			"-0.021": 0.0,
			"-0.02": 0.0,
			"-0.019": 0.0,
			"-0.018": 0.0,
			"-0.017": 0.0,
			"-0.016": 0.0,
			"-0.015": 0.289095975665,
			"-0.014": 1.4189431972,
			"-0.013": 2.00719380707,
			"-0.012": 2.85093811902,
			"-0.011": 2.21767263793,
			"-0.01": 4.57586491773,
			"-0.009": 5.54002593076,
			"-0.008": 6.12248374688,
			"-0.007": 7.85611034855,
			"-0.006": 8.26392931133,
			"-0.005": 7.42083444598,
			"-0.004": 10.4116212175,
			"-0.003": 19.2254351515,
			"-0.002": 39.2835011857,
			"-0.001": 47.8489457788,
			"0.0": 46.9308809211,
			"0.001": 38.6829916084,
			"0.002": 16.8321075232,
			"0.003": 10.8260914762,
			"0.004": 6.29793792061,
			"0.005": 5.51354639146,
			"0.006": 5.12357024704,
			"0.007": 5.37554679182,
			"0.008": 4.90265222922,
			"0.009": 5.11892151904,
			"0.01": 6.25228119312,
			"0.011": 9.93012051783,
			"0.012": 7.77455659586,
			"0.013": 0.956483747262,
			"0.014": 0.600544903985,
			"0.015": 0.694215478094,
			"0.016": 0.594772681158,
			"0.017": 0.183037536015,
			"0.018": 0.0,
			"0.019": 0.0,
			"0.02": 0.0,
			"0.021": 0.0,
			"0.022": 0.0,
			"0.023": 0.0,
			"0.024": 0.0,
			"0.025": 0.0
		}
	}
}
