{
	 "smiles": "ClC1=CC2=C(C=C1)N=CC(C#N)=C2Cl", 
	 "Tm": 403.15, 
	 "num_atms": 18, 
	 "gaussian": { 
		 "optdone": 1, 
		 "sigma_profile": "yes", 
		 "theory": "DFT", 
		 "functional": "B3LYP", 
		 "basiset": "6-31G**", 
		 "properties": { 
			 "R2extent": 5002.4765, 
			 "electric_dipole_moment_norm": 3.63248013622, 
			 "electric_quadrupole_moment_norm": 8.02517968895, 
			 "total_energy": -1413.34503276, 
			 "HOMO_LUMO_gap": 0.16243, 
			 "cosmo_polarized_energy": -9.12, 
			 "cosmo_cavitation_energy": 27.58, 
			 "cosmo_dispersion_energy": -20.12, 
			 "cosmo_repulsion_energy": 1.56, 
			 "cosmo_total_nonelectrostatic_energy": 9.02, 
			 "SMD_solvation_energy": 3.86 
		},
		"coords": [
			{
				"x": 0.3220517798,
				"y": 5.1614736676,
				"z": -2.0034567288,
				"element": "Cl" 
			},
			{
				"x": 0.2123224204,
				"y": 3.4195407144,
				"z": -1.8589440056,
				"element": "C" 
			},
			{
				"x": 0.9829339364,
				"y": 2.7637202398,
				"z": -0.9270176695,
				"element": "C" 
			},
			{
				"x": 0.890013306,
				"y": 1.3528000239,
				"z": -0.8143015202,
				"element": "C" 
			},
			{
				"x": -0.0055301053,
				"y": 0.6325992684,
				"z": -1.6734542457,
				"element": "C" 
			},
			{
				"x": -0.7776989253,
				"y": 1.3573579295,
				"z": -2.6174886284,
				"element": "C" 
			},
			{
				"x": -0.676415192,
				"y": 2.724845265,
				"z": -2.7145581845,
				"element": "C" 
			},
			{
				"x": -0.1557865195,
				"y": -0.7223648373,
				"z": -1.6311577503,
				"element": "N" 
			},
			{
				"x": 0.5556032665,
				"y": -1.3940373129,
				"z": -0.7606981661,
				"element": "C" 
			},
			{
				"x": 1.4818917052,
				"y": -0.7967299053,
				"z": 0.150315028,
				"element": "C" 
			},
			{
				"x": 2.2016560879,
				"y": -1.6357234466,
				"z": 1.0551858575,
				"element": "C" 
			},
			{
				"x": 2.7634195066,
				"y": -2.3592389795,
				"z": 1.7718430435,
				"element": "N" 
			},
			{
				"x": 1.6415215789,
				"y": 0.5814377009,
				"z": 0.1145858287,
				"element": "C" 
			},
			{
				"x": 2.7560083952,
				"y": 1.3553201214,
				"z": 1.2023425525,
				"element": "Cl" 
			},
			{
				"x": 1.6556061812,
				"y": 3.3159936996,
				"z": -0.283388295,
				"element": "H" 
			},
			{
				"x": -1.4473123755,
				"y": 0.7913987331,
				"z": -3.2557536704,
				"element": "H" 
			},
			{
				"x": -1.265911614,
				"y": 3.2799390596,
				"z": -3.4355386664,
				"element": "H" 
			},
			{
				"x": 0.4299265678,
				"y": -2.4743319417,
				"z": -0.7333147793,
				"element": "H" 
			}
		],
		 "valence_orbital": [ 
			{
				"type": "occ",
				"energy": -0.33367,
				"method": "rhf"
			},
			{
				"type": "occ",
				"energy": -0.31556,
				"method": "rhf"
			},
			{
				"type": "occ",
				"energy": -0.29096,
				"method": "rhf"
			},
			{
				"type": "occ",
				"energy": -0.27794,
				"method": "rhf"
			},
			{
				"type": "occ",
				"energy": -0.26117,
				"method": "rhf"
			},
			{
				"type": "unocc",
				"energy": -0.09874,
				"method": "rhf"
			},
			{
				"type": "unocc",
				"energy": -0.06479,
				"method": "rhf"
			},
			{
				"type": "unocc",
				"energy": -0.01678,
				"method": "rhf"
			},
			{
				"type": "unocc",
				"energy": 0.00017,
				"method": "rhf"
			},
			{
				"type": "unocc",
				"energy": 0.00934,
				"method": "rhf"
			}
		],
		"cosmo_sigma_profile": { 
			"-0.025": 0.0,
			"-0.024": 0.0,
			"-0.023": 0.0,
			"-0.022": 0.0,
			"-0.021": 0.0,
			"-0.02": 0.0,
			"-0.019": 0.0,
			"-0.018": 0.0,
			"-0.017": 0.0,
			"-0.016": 0.0,
			"-0.015": 0.0,
			"-0.014": 0.0,
			"-0.013": 0.0,
			"-0.012": 0.0,
			"-0.011": 0.0,
			"-0.01": 0.212262978816,
			"-0.009": 2.44348699353,
			"-0.008": 6.12767351979,
			"-0.007": 6.87120755379,
			"-0.006": 7.61867440379,
			"-0.005": 8.47407585596,
			"-0.004": 16.4124366273,
			"-0.003": 23.4061157861,
			"-0.002": 17.495417619,
			"-0.001": 22.492020964,
			"0.0": 25.0074329442,
			"0.001": 20.3620527004,
			"0.002": 17.8251315906,
			"0.003": 11.6662464971,
			"0.004": 11.8253457411,
			"0.005": 4.34122670408,
			"0.006": 3.62374335235,
			"0.007": 4.24231969008,
			"0.008": 4.09702119022,
			"0.009": 4.4155639842,
			"0.01": 3.46500976759,
			"0.011": 3.4006633498,
			"0.012": 2.27546542311,
			"0.013": 0.687769411856,
			"0.014": 0.494370675338,
			"0.015": 0.0,
			"0.016": 0.0,
			"0.017": 0.0,
			"0.018": 0.0,
			"0.019": 0.0,
			"0.02": 0.0,
			"0.021": 0.0,
			"0.022": 0.0,
			"0.023": 0.0,
			"0.024": 0.0,
			"0.025": 0.0
		}
	}
}
