{
	 "smiles": "COC1=CC=C(C=C1)C(=O)C1=CC=C(OC)C=C1", 
	 "Tm": 417.15, 
	 "num_atms": 32, 
	 "gaussian": { 
		 "optdone": 1, 
		 "sigma_profile": "yes", 
		 "theory": "DFT", 
		 "functional": "B3LYP", 
		 "basiset": "6-31G**", 
		 "properties": { 
			 "R2extent": 7325.3252, 
			 "electric_dipole_moment_norm": 1.70952053512, 
			 "electric_quadrupole_moment_norm": 39.3185739588, 
			 "total_energy": -805.686638888, 
			 "HOMO_LUMO_gap": 0.1728, 
			 "cosmo_polarized_energy": -13.16, 
			 "cosmo_cavitation_energy": 36.2, 
			 "cosmo_dispersion_energy": -26.4, 
			 "cosmo_repulsion_energy": 2.02, 
			 "cosmo_total_nonelectrostatic_energy": 11.81, 
			 "SMD_solvation_energy": 8.11 
		},
		"coords": [
			{
				"x": 0.3294729284,
				"y": -6.2617835796,
				"z": 1.4312792488,
				"element": "C" 
			},
			{
				"x": 0.0145289089,
				"y": -4.9445072698,
				"z": 1.859950842,
				"element": "O" 
			},
			{
				"x": 0.3669148465,
				"y": -3.9006369478,
				"z": 1.0619723595,
				"element": "C" 
			},
			{
				"x": 1.017908671,
				"y": -4.0270126744,
				"z": -0.1746991264,
				"element": "C" 
			},
			{
				"x": 1.3333879734,
				"y": -2.8831772615,
				"z": -0.9019925671,
				"element": "C" 
			},
			{
				"x": 0.9920434978,
				"y": -1.603454866,
				"z": -0.4422595679,
				"element": "C" 
			},
			{
				"x": 0.3490344005,
				"y": -1.4947974037,
				"z": 0.8051281822,
				"element": "C" 
			},
			{
				"x": 0.0442525244,
				"y": -2.6248336785,
				"z": 1.5507588671,
				"element": "C" 
			},
			{
				"x": 1.4160050064,
				"y": -0.4291432887,
				"z": -1.2665378842,
				"element": "C" 
			},
			{
				"x": 2.3814040346,
				"y": -0.5321617111,
				"z": -2.0214761683,
				"element": "O" 
			},
			{
				"x": 0.6774706956,
				"y": 0.869135555,
				"z": -1.1818812076,
				"element": "C" 
			},
			{
				"x": -0.6882603175,
				"y": 0.9746921492,
				"z": -0.8580443003,
				"element": "C" 
			},
			{
				"x": -1.329221935,
				"y": 2.2055256368,
				"z": -0.86425408,
				"element": "C" 
			},
			{
				"x": -0.6157226135,
				"y": 3.3707765845,
				"z": -1.1864330574,
				"element": "C" 
			},
			{
				"x": -1.3295382975,
				"y": 4.5282732888,
				"z": -1.1508481924,
				"element": "O" 
			},
			{
				"x": -0.6703569459,
				"y": 5.7416184572,
				"z": -1.4846643722,
				"element": "C" 
			},
			{
				"x": 0.7438514828,
				"y": 3.2827498316,
				"z": -1.5224859135,
				"element": "C" 
			},
			{
				"x": 1.3678331156,
				"y": 2.0387835378,
				"z": -1.5295933862,
				"element": "C" 
			},
			{
				"x": -0.1692464966,
				"y": -6.5090726182,
				"z": 0.4857427194,
				"element": "H" 
			},
			{
				"x": 1.4115051131,
				"y": -6.4005170659,
				"z": 1.3142869614,
				"element": "H" 
			},
			{
				"x": -0.0356381556,
				"y": -6.9274365033,
				"z": 2.2146167988,
				"element": "H" 
			},
			{
				"x": 1.2834934637,
				"y": -5.0008583624,
				"z": -0.5685489442,
				"element": "H" 
			},
			{
				"x": 1.8574220706,
				"y": -2.9640732472,
				"z": -1.8486467766,
				"element": "H" 
			},
			{
				"x": 0.1118955605,
				"y": -0.5165643158,
				"z": 1.209425796,
				"element": "H" 
			},
			{
				"x": -0.4381669872,
				"y": -2.5492236727,
				"z": 2.5196757249,
				"element": "H" 
			},
			{
				"x": -1.2614489579,
				"y": 0.0828998354,
				"z": -0.6282813884,
				"element": "H" 
			},
			{
				"x": -2.3849504866,
				"y": 2.2939338984,
				"z": -0.6300206821,
				"element": "H" 
			},
			{
				"x": -1.4226570733,
				"y": 6.5263856179,
				"z": -1.3940922744,
				"element": "H" 
			},
			{
				"x": -0.2883645652,
				"y": 5.7239949231,
				"z": -2.5130126998,
				"element": "H" 
			},
			{
				"x": 0.1577253964,
				"y": 5.9540369702,
				"z": -0.7968679203,
				"element": "H" 
			},
			{
				"x": 1.3129454157,
				"y": 4.1675469471,
				"z": -1.7819055663,
				"element": "H" 
			},
			{
				"x": 2.4124777259,
				"y": 1.9524012337,
				"z": -1.8098914248,
				"element": "H" 
			}
		],
		 "valence_orbital": [ 
			{
				"type": "occ",
				"energy": -0.2573,
				"method": "rhf"
			},
			{
				"type": "occ",
				"energy": -0.25496,
				"method": "rhf"
			},
			{
				"type": "occ",
				"energy": -0.24088,
				"method": "rhf"
			},
			{
				"type": "occ",
				"energy": -0.2232,
				"method": "rhf"
			},
			{
				"type": "occ",
				"energy": -0.22165,
				"method": "rhf"
			},
			{
				"type": "unocc",
				"energy": -0.04885,
				"method": "rhf"
			},
			{
				"type": "unocc",
				"energy": -0.00808,
				"method": "rhf"
			},
			{
				"type": "unocc",
				"energy": -0.00104,
				"method": "rhf"
			},
			{
				"type": "unocc",
				"energy": 0.005,
				"method": "rhf"
			},
			{
				"type": "unocc",
				"energy": 0.07206,
				"method": "rhf"
			}
		],
		"cosmo_sigma_profile": { 
			"-0.025": 0.0,
			"-0.024": 0.0,
			"-0.023": 0.0,
			"-0.022": 0.0,
			"-0.021": 0.0,
			"-0.02": 0.0,
			"-0.019": 0.0,
			"-0.018": 0.0,
			"-0.017": 0.0,
			"-0.016": 0.0,
			"-0.015": 0.0,
			"-0.014": 0.0,
			"-0.013": 0.0,
			"-0.012": 0.0,
			"-0.011": 0.0,
			"-0.01": 0.0,
			"-0.009": 0.0,
			"-0.008": 0.0,
			"-0.007": 4.27434762104,
			"-0.006": 22.0853581873,
			"-0.005": 30.1995059552,
			"-0.004": 30.3037172321,
			"-0.003": 26.1340174946,
			"-0.002": 18.2426124015,
			"-0.001": 16.7257318053,
			"0.0": 15.6240740011,
			"0.001": 15.9380337681,
			"0.002": 19.151577291,
			"0.003": 24.1143314359,
			"0.004": 26.8805558418,
			"0.005": 7.89350709127,
			"0.006": 3.9469903851,
			"0.007": 5.03027606906,
			"0.008": 5.27018906873,
			"0.009": 4.2128811725,
			"0.01": 3.4201957975,
			"0.011": 2.48028352526,
			"0.012": 3.10790044767,
			"0.013": 3.83568961508,
			"0.014": 0.228342715002,
			"0.015": 0.0,
			"0.016": 0.0,
			"0.017": 0.0,
			"0.018": 0.0,
			"0.019": 0.0,
			"0.02": 0.0,
			"0.021": 0.0,
			"0.022": 0.0,
			"0.023": 0.0,
			"0.024": 0.0,
			"0.025": 0.0
		}
	}
}
