{
	 "smiles": "CCCOC(N)=O", 
	 "Tm": 333.15, 
	 "num_atms": 16, 
	 "gaussian": { 
		 "optdone": 1, 
		 "sigma_profile": "yes", 
		 "theory": "DFT", 
		 "functional": "B3LYP", 
		 "basiset": "6-31G**", 
		 "properties": { 
			 "R2extent": 1273.0252, 
			 "electric_dipole_moment_norm": 2.49792827759, 
			 "electric_quadrupole_moment_norm": 10.155540383, 
			 "total_energy": -363.079910753, 
			 "HOMO_LUMO_gap": 0.3217, 
			 "cosmo_polarized_energy": -10.23, 
			 "cosmo_cavitation_energy": 19.56, 
			 "cosmo_dispersion_energy": -14.42, 
			 "cosmo_repulsion_energy": 1.28, 
			 "cosmo_total_nonelectrostatic_energy": 6.41, 
			 "SMD_solvation_energy": 4.85 
		},
		"coords": [
			{
				"x": 1.2050539637,
				"y": 2.1990652055,
				"z": 2.1508935213,
				"element": "C" 
			},
			{
				"x": 1.7644148754,
				"y": 0.8021834985,
				"z": 2.4383645751,
				"element": "C" 
			},
			{
				"x": 0.7882428973,
				"y": -0.3225711149,
				"z": 2.1264017636,
				"element": "C" 
			},
			{
				"x": 0.5307574149,
				"y": -0.3030469281,
				"z": 0.7067994246,
				"element": "O" 
			},
			{
				"x": -0.3938425017,
				"y": -1.1996155309,
				"z": 0.2742512757,
				"element": "C" 
			},
			{
				"x": -0.588749197,
				"y": -1.0580981796,
				"z": -1.0738351295,
				"element": "N" 
			},
			{
				"x": -0.98053067,
				"y": -1.9903470207,
				"z": 0.9873812752,
				"element": "O" 
			},
			{
				"x": 1.9404785492,
				"y": 2.9743367311,
				"z": 2.387246262,
				"element": "H" 
			},
			{
				"x": 0.931630265,
				"y": 2.2999873061,
				"z": 1.0969085645,
				"element": "H" 
			},
			{
				"x": 0.3079822113,
				"y": 2.3951669664,
				"z": 2.7491390537,
				"element": "H" 
			},
			{
				"x": 2.6862566946,
				"y": 0.6395921879,
				"z": 1.8664852451,
				"element": "H" 
			},
			{
				"x": 2.0356303066,
				"y": 0.715662566,
				"z": 3.4982089094,
				"element": "H" 
			},
			{
				"x": -0.1588553901,
				"y": -0.1982537023,
				"z": 2.6623447287,
				"element": "H" 
			},
			{
				"x": 1.1977847469,
				"y": -1.3004592948,
				"z": 2.4006952313,
				"element": "H" 
			},
			{
				"x": 0.0845209665,
				"y": -0.5376278388,
				"z": -1.6132376899,
				"element": "H" 
			},
			{
				"x": -1.0975751325,
				"y": -1.7981748513,
				"z": -1.5289470109,
				"element": "H" 
			}
		],
		 "valence_orbital": [ 
			{
				"type": "occ",
				"energy": -0.34485,
				"method": "rhf"
			},
			{
				"type": "occ",
				"energy": -0.3344,
				"method": "rhf"
			},
			{
				"type": "occ",
				"energy": -0.28919,
				"method": "rhf"
			},
			{
				"type": "occ",
				"energy": -0.2723,
				"method": "rhf"
			},
			{
				"type": "occ",
				"energy": -0.26453,
				"method": "rhf"
			},
			{
				"type": "unocc",
				"energy": 0.05717,
				"method": "rhf"
			},
			{
				"type": "unocc",
				"energy": 0.08291,
				"method": "rhf"
			},
			{
				"type": "unocc",
				"energy": 0.09928,
				"method": "rhf"
			},
			{
				"type": "unocc",
				"energy": 0.12939,
				"method": "rhf"
			},
			{
				"type": "unocc",
				"energy": 0.14221,
				"method": "rhf"
			}
		],
		"cosmo_sigma_profile": { 
			"-0.025": 0.0,
			"-0.024": 0.0,
			"-0.023": 0.0,
			"-0.022": 0.0,
			"-0.021": 0.0,
			"-0.02": 0.0,
			"-0.019": 0.0,
			"-0.018": 0.0,
			"-0.017": 0.0,
			"-0.016": 0.0,
			"-0.015": 0.0228240197544,
			"-0.014": 1.80670622272,
			"-0.013": 2.35342090313,
			"-0.012": 2.49977625018,
			"-0.011": 1.49560756686,
			"-0.01": 2.32892781161,
			"-0.009": 2.12673893625,
			"-0.008": 1.76177603007,
			"-0.007": 1.00102930545,
			"-0.006": 1.3806566165,
			"-0.005": 3.0429400485,
			"-0.004": 9.54165152127,
			"-0.003": 17.3961661438,
			"-0.002": 15.6689717357,
			"-0.001": 16.8250934717,
			"0.0": 15.3706365748,
			"0.001": 12.8069326224,
			"0.002": 7.45643845501,
			"0.003": 3.58974239981,
			"0.004": 4.54568396125,
			"0.005": 4.99771829153,
			"0.006": 3.15701361629,
			"0.007": 3.10562809211,
			"0.008": 2.62204659112,
			"0.009": 1.7365898738,
			"0.01": 1.17584050054,
			"0.011": 2.10280332655,
			"0.012": 1.34507365438,
			"0.013": 5.87870268593,
			"0.014": 3.02655028775,
			"0.015": 0.0132714051979,
			"0.016": 0.0,
			"0.017": 0.0,
			"0.018": 0.0,
			"0.019": 0.0,
			"0.02": 0.0,
			"0.021": 0.0,
			"0.022": 0.0,
			"0.023": 0.0,
			"0.024": 0.0,
			"0.025": 0.0
		}
	}
}
