{
	 "smiles": "CN(C)C1=CC=C(C=C2N=C(OC2=O)C2=CC=CC=C2)C=C1", 
	 "Tm": 477.15, 
	 "num_atms": 38, 
	 "gaussian": { 
		 "optdone": 1, 
		 "sigma_profile": "yes", 
		 "theory": "DFT", 
		 "functional": "B3LYP", 
		 "basiset": "6-31G**", 
		 "properties": { 
			 "R2extent": 12950.7449, 
			 "electric_dipole_moment_norm": 4.87013228362, 
			 "electric_quadrupole_moment_norm": 38.291052946, 
			 "total_energy": -955.511799172, 
			 "HOMO_LUMO_gap": 0.11169, 
			 "cosmo_polarized_energy": -14.58, 
			 "cosmo_cavitation_energy": 42.34, 
			 "cosmo_dispersion_energy": -31.1, 
			 "cosmo_repulsion_energy": 2.31, 
			 "cosmo_total_nonelectrostatic_energy": 13.54, 
			 "SMD_solvation_energy": 6.43 
		},
		"coords": [
			{
				"x": -0.5693862709,
				"y": 0.7960109779,
				"z": -5.4567505169,
				"element": "C" 
			},
			{
				"x": 0.157745371,
				"y": 1.7514994458,
				"z": -4.6349585891,
				"element": "N" 
			},
			{
				"x": 0.7984789688,
				"y": 2.8960220698,
				"z": -5.2628859418,
				"element": "C" 
			},
			{
				"x": 0.2382730696,
				"y": 1.5742195674,
				"z": -3.2734774,
				"element": "C" 
			},
			{
				"x": 0.9409863304,
				"y": 2.4911661516,
				"z": -2.4497456463,
				"element": "C" 
			},
			{
				"x": 1.0115588016,
				"y": 2.2973784935,
				"z": -1.0833676215,
				"element": "C" 
			},
			{
				"x": 0.399415336,
				"y": 1.1951937725,
				"z": -0.4386882224,
				"element": "C" 
			},
			{
				"x": 0.5430294403,
				"y": 1.1022454754,
				"z": 0.9901943944,
				"element": "C" 
			},
			{
				"x": 0.1100933628,
				"y": 0.2132589502,
				"z": 1.9396585467,
				"element": "C" 
			},
			{
				"x": 0.4275935793,
				"y": 0.4102802769,
				"z": 3.2914099754,
				"element": "N" 
			},
			{
				"x": -0.1086074517,
				"y": -0.5724559336,
				"z": 3.9340674988,
				"element": "C" 
			},
			{
				"x": -0.7979786169,
				"y": -1.4794435364,
				"z": 3.1549832001,
				"element": "O" 
			},
			{
				"x": -0.6928911074,
				"y": -1.0217061094,
				"z": 1.8358833913,
				"element": "C" 
			},
			{
				"x": -1.2101459479,
				"y": -1.6302215882,
				"z": 0.9269545106,
				"element": "O" 
			},
			{
				"x": -0.0637267735,
				"y": -0.8211892752,
				"z": 5.37063029,
				"element": "C" 
			},
			{
				"x": -0.6992476513,
				"y": -1.941102415,
				"z": 5.9306318659,
				"element": "C" 
			},
			{
				"x": -0.6422770968,
				"y": -2.1572809062,
				"z": 7.3062803592,
				"element": "C" 
			},
			{
				"x": 0.0448291051,
				"y": -1.2639976167,
				"z": 8.1307994399,
				"element": "C" 
			},
			{
				"x": 0.6788159981,
				"y": -0.1474526055,
				"z": 7.5750230689,
				"element": "C" 
			},
			{
				"x": 0.6272229205,
				"y": 0.0762612312,
				"z": 6.2034921325,
				"element": "C" 
			},
			{
				"x": -0.3006168527,
				"y": 0.2832544908,
				"z": -1.2664063884,
				"element": "C" 
			},
			{
				"x": -0.3782429547,
				"y": 0.4664491347,
				"z": -2.6345300408,
				"element": "C" 
			},
			{
				"x": -1.6283847122,
				"y": 0.7371981482,
				"z": -5.1734122021,
				"element": "H" 
			},
			{
				"x": -0.142192177,
				"y": -0.2126393597,
				"z": -5.3838779014,
				"element": "H" 
			},
			{
				"x": -0.517488964,
				"y": 1.1082961237,
				"z": -6.5000253628,
				"element": "H" 
			},
			{
				"x": 0.6222115669,
				"y": 2.8609767953,
				"z": -6.3381775461,
				"element": "H" 
			},
			{
				"x": 1.8842133531,
				"y": 2.8970531389,
				"z": -5.098392455,
				"element": "H" 
			},
			{
				"x": 0.39738833,
				"y": 3.8461086589,
				"z": -4.8856263686,
				"element": "H" 
			},
			{
				"x": 1.4307981228,
				"y": 3.3545659044,
				"z": -2.8823260332,
				"element": "H" 
			},
			{
				"x": 1.5581514099,
				"y": 3.0193458296,
				"z": -0.4816239025,
				"element": "H" 
			},
			{
				"x": 1.1224902144,
				"y": 1.9111323064,
				"z": 1.4334476816,
				"element": "H" 
			},
			{
				"x": -1.23110942,
				"y": -2.6308593452,
				"z": 5.2847018375,
				"element": "H" 
			},
			{
				"x": -1.135313706,
				"y": -3.0248148307,
				"z": 7.7349905516,
				"element": "H" 
			},
			{
				"x": 0.0871548608,
				"y": -1.4356569487,
				"z": 9.2025458221,
				"element": "H" 
			},
			{
				"x": 1.2137055994,
				"y": 0.548408624,
				"z": 8.2148147637,
				"element": "H" 
			},
			{
				"x": 1.1128032581,
				"y": 0.9364821966,
				"z": 5.7552602033,
				"element": "H" 
			},
			{
				"x": -0.7849787918,
				"y": -0.5752933961,
				"z": -0.8174143514,
				"element": "H" 
			},
			{
				"x": -0.9264705043,
				"y": -0.2615938971,
				"z": -3.2195830433,
				"element": "H" 
			}
		],
		 "valence_orbital": [ 
			{
				"type": "occ",
				"energy": -0.25774,
				"method": "rhf"
			},
			{
				"type": "occ",
				"energy": -0.25418,
				"method": "rhf"
			},
			{
				"type": "occ",
				"energy": -0.25324,
				"method": "rhf"
			},
			{
				"type": "occ",
				"energy": -0.23322,
				"method": "rhf"
			},
			{
				"type": "occ",
				"energy": -0.18657,
				"method": "rhf"
			},
			{
				"type": "unocc",
				"energy": -0.07488,
				"method": "rhf"
			},
			{
				"type": "unocc",
				"energy": -0.02319,
				"method": "rhf"
			},
			{
				"type": "unocc",
				"energy": -0.00197,
				"method": "rhf"
			},
			{
				"type": "unocc",
				"energy": -0.00039,
				"method": "rhf"
			},
			{
				"type": "unocc",
				"energy": 0.02877,
				"method": "rhf"
			}
		],
		"cosmo_sigma_profile": { 
			"-0.025": 0.0,
			"-0.024": 0.0,
			"-0.023": 0.0,
			"-0.022": 0.0,
			"-0.021": 0.0,
			"-0.02": 0.0,
			"-0.019": 0.0,
			"-0.018": 0.0,
			"-0.017": 0.0,
			"-0.016": 0.0,
			"-0.015": 0.0,
			"-0.014": 0.0,
			"-0.013": 0.0,
			"-0.012": 0.0,
			"-0.011": 0.0,
			"-0.01": 0.0,
			"-0.009": 0.0,
			"-0.008": 1.19020483161,
			"-0.007": 6.52612056979,
			"-0.006": 17.2786570314,
			"-0.005": 31.4258913964,
			"-0.004": 31.7829308561,
			"-0.003": 27.8451952626,
			"-0.002": 30.6362309721,
			"-0.001": 19.1322099923,
			"0.0": 22.4434890681,
			"0.001": 23.0482183512,
			"0.002": 28.932750066,
			"0.003": 27.3724841081,
			"0.004": 28.2282365696,
			"0.005": 15.9248889957,
			"0.006": 4.81448712953,
			"0.007": 3.85821731204,
			"0.008": 3.95652208724,
			"0.009": 3.89737943665,
			"0.01": 3.39560127098,
			"0.011": 4.00656775283,
			"0.012": 3.07113615392,
			"0.013": 0.838944710791,
			"0.014": 0.0,
			"0.015": 0.0,
			"0.016": 0.0,
			"0.017": 0.0,
			"0.018": 0.0,
			"0.019": 0.0,
			"0.02": 0.0,
			"0.021": 0.0,
			"0.022": 0.0,
			"0.023": 0.0,
			"0.024": 0.0,
			"0.025": 0.0
		}
	}
}
