{
	 "smiles": "CC1=NC(CO)=CS1", 
	 "Tm": 323.15, 
	 "num_atms": 15, 
	 "gaussian": { 
		 "optdone": 1, 
		 "sigma_profile": "yes", 
		 "theory": "DFT", 
		 "functional": "B3LYP", 
		 "basiset": "6-31G**", 
		 "properties": { 
			 "R2extent": 1347.8377, 
			 "electric_dipole_moment_norm": 2.46326611027, 
			 "electric_quadrupole_moment_norm": 8.5256527709, 
			 "total_energy": -722.899511062, 
			 "HOMO_LUMO_gap": 0.21273, 
			 "cosmo_polarized_energy": -7.68, 
			 "cosmo_cavitation_energy": 20.3, 
			 "cosmo_dispersion_energy": -15.83, 
			 "cosmo_repulsion_energy": 1.29, 
			 "cosmo_total_nonelectrostatic_energy": 5.76, 
			 "SMD_solvation_energy": 2.44 
		},
		"coords": [
			{
				"x": -1.8803599798,
				"y": -1.829071462,
				"z": -0.8966897916,
				"element": "C" 
			},
			{
				"x": -1.3554711659,
				"y": -0.5373872119,
				"z": -0.3480816409,
				"element": "C" 
			},
			{
				"x": -0.194798948,
				"y": -0.0281704699,
				"z": -0.6451482301,
				"element": "N" 
			},
			{
				"x": 0.0315375812,
				"y": 1.1686392757,
				"z": 0.0098783424,
				"element": "C" 
			},
			{
				"x": 1.3431845524,
				"y": 1.8570533783,
				"z": -0.2710837782,
				"element": "C" 
			},
			{
				"x": 2.4295876471,
				"y": 0.9486858495,
				"z": -0.2275178026,
				"element": "O" 
			},
			{
				"x": -0.9777972223,
				"y": 1.5831904143,
				"z": 0.827205895,
				"element": "C" 
			},
			{
				"x": -2.2868735326,
				"y": 0.441923564,
				"z": 0.782359582,
				"element": "S" 
			},
			{
				"x": -1.1318127164,
				"y": -2.2501569819,
				"z": -1.5703502508,
				"element": "H" 
			},
			{
				"x": -2.0823159666,
				"y": -2.5517495345,
				"z": -0.0991016593,
				"element": "H" 
			},
			{
				"x": -2.8110552513,
				"y": -1.6804648864,
				"z": -1.4542812086,
				"element": "H" 
			},
			{
				"x": 1.5336986388,
				"y": 2.6355064359,
				"z": 0.4739062287,
				"element": "H" 
			},
			{
				"x": 1.2828448596,
				"y": 2.3528328912,
				"z": -1.2552633854,
				"element": "H" 
			},
			{
				"x": 2.129530506,
				"y": 0.1596086596,
				"z": -0.7028950282,
				"element": "H" 
			},
			{
				"x": -1.0253990021,
				"y": 2.469360078,
				"z": 1.4439627276,
				"element": "H" 
			}
		],
		 "valence_orbital": [ 
			{
				"type": "occ",
				"energy": -0.3323,
				"method": "rhf"
			},
			{
				"type": "occ",
				"energy": -0.28573,
				"method": "rhf"
			},
			{
				"type": "occ",
				"energy": -0.28166,
				"method": "rhf"
			},
			{
				"type": "occ",
				"energy": -0.26202,
				"method": "rhf"
			},
			{
				"type": "occ",
				"energy": -0.24031,
				"method": "rhf"
			},
			{
				"type": "unocc",
				"energy": -0.02758,
				"method": "rhf"
			},
			{
				"type": "unocc",
				"energy": 0.01453,
				"method": "rhf"
			},
			{
				"type": "unocc",
				"energy": 0.04438,
				"method": "rhf"
			},
			{
				"type": "unocc",
				"energy": 0.08628,
				"method": "rhf"
			},
			{
				"type": "unocc",
				"energy": 0.1098,
				"method": "rhf"
			}
		],
		"cosmo_sigma_profile": { 
			"-0.025": 0.0,
			"-0.024": 0.0,
			"-0.023": 0.0,
			"-0.022": 0.0,
			"-0.021": 0.0,
			"-0.02": 0.0,
			"-0.019": 0.0,
			"-0.018": 0.0,
			"-0.017": 0.0,
			"-0.016": 0.0,
			"-0.015": 0.0,
			"-0.014": 0.0,
			"-0.013": 0.0,
			"-0.012": 0.165227903382,
			"-0.011": 0.759035683366,
			"-0.01": 0.820755289719,
			"-0.009": 1.28023190916,
			"-0.008": 2.48480127307,
			"-0.007": 2.73386442907,
			"-0.006": 8.43213599979,
			"-0.005": 12.3247088035,
			"-0.004": 14.2345607202,
			"-0.003": 14.6477570165,
			"-0.002": 15.6183267472,
			"-0.001": 11.4263503948,
			"0.0": 9.12846539027,
			"0.001": 12.0847454995,
			"0.002": 13.0352835979,
			"0.003": 12.3528392335,
			"0.004": 8.21330191605,
			"0.005": 3.89828773655,
			"0.006": 2.41431118373,
			"0.007": 2.46558350865,
			"0.008": 1.48074366806,
			"0.009": 2.85426897634,
			"0.01": 2.06228388631,
			"0.011": 1.78634163649,
			"0.012": 1.58847081452,
			"0.013": 1.90929973346,
			"0.014": 2.51863551389,
			"0.015": 0.415276461976,
			"0.016": 0.0,
			"0.017": 0.0,
			"0.018": 0.0,
			"0.019": 0.0,
			"0.02": 0.0,
			"0.021": 0.0,
			"0.022": 0.0,
			"0.023": 0.0,
			"0.024": 0.0,
			"0.025": 0.0
		}
	}
}
