{
	 "smiles": "CC1=CC=C(C=C1C(F)(F)F)C#N", 
	 "Tm": 334.15, 
	 "num_atms": 19, 
	 "gaussian": { 
		 "optdone": 1, 
		 "sigma_profile": "yes", 
		 "theory": "DFT", 
		 "functional": "B3LYP", 
		 "basiset": "6-31G**", 
		 "properties": { 
			 "R2extent": 2556.208, 
			 "electric_dipole_moment_norm": 4.34701949501, 
			 "electric_quadrupole_moment_norm": 15.9825898402, 
			 "total_energy": -700.843176351, 
			 "HOMO_LUMO_gap": 0.20636, 
			 "cosmo_polarized_energy": -8.48, 
			 "cosmo_cavitation_energy": 25.34, 
			 "cosmo_dispersion_energy": -17.61, 
			 "cosmo_repulsion_energy": 1.32, 
			 "cosmo_total_nonelectrostatic_energy": 9.06, 
			 "SMD_solvation_energy": 6.92 
		},
		"coords": [
			{
				"x": 1.5158532979,
				"y": -1.3594717659,
				"z": -1.1071902143,
				"element": "C" 
			},
			{
				"x": 0.856522741,
				"y": -0.3510246815,
				"z": -0.1969287532,
				"element": "C" 
			},
			{
				"x": 1.6357077259,
				"y": 0.6070487569,
				"z": 0.4633415146,
				"element": "C" 
			},
			{
				"x": 1.074330003,
				"y": 1.5561260927,
				"z": 1.3117565329,
				"element": "C" 
			},
			{
				"x": -0.3116205273,
				"y": 1.5657522063,
				"z": 1.5215580961,
				"element": "C" 
			},
			{
				"x": -1.1141185673,
				"y": 0.61617321,
				"z": 0.871442801,
				"element": "C" 
			},
			{
				"x": -0.5383980344,
				"y": -0.327670942,
				"z": 0.0251428775,
				"element": "C" 
			},
			{
				"x": -1.4390260496,
				"y": -1.3321647459,
				"z": -0.6554862222,
				"element": "C" 
			},
			{
				"x": -1.1120846193,
				"y": -2.6033283174,
				"z": -0.3241928098,
				"element": "F" 
			},
			{
				"x": -1.35728681,
				"y": -1.2450280538,
				"z": -2.003912345,
				"element": "F" 
			},
			{
				"x": -2.7351784406,
				"y": -1.1588841748,
				"z": -0.3261123879,
				"element": "F" 
			},
			{
				"x": -0.9075661372,
				"y": 2.5363492242,
				"z": 2.3925104193,
				"element": "C" 
			},
			{
				"x": -1.3869837383,
				"y": 3.3254661015,
				"z": 3.0999083092,
				"element": "N" 
			},
			{
				"x": 2.5959097038,
				"y": -1.2017882059,
				"z": -1.1384354801,
				"element": "H" 
			},
			{
				"x": 1.1249782266,
				"y": -1.285247128,
				"z": -2.1258556685,
				"element": "H" 
			},
			{
				"x": 1.3243309696,
				"y": -2.3811023613,
				"z": -0.7672254731,
				"element": "H" 
			},
			{
				"x": 2.7102066448,
				"y": 0.606238795,
				"z": 0.3061144879,
				"element": "H" 
			},
			{
				"x": 1.7004367073,
				"y": 2.287608454,
				"z": 1.8113532258,
				"element": "H" 
			},
			{
				"x": -2.1852130956,
				"y": 0.6185475359,
				"z": 1.0294110898,
				"element": "H" 
			}
		],
		 "valence_orbital": [ 
			{
				"type": "occ",
				"energy": -0.36268,
				"method": "rhf"
			},
			{
				"type": "occ",
				"energy": -0.35001,
				"method": "rhf"
			},
			{
				"type": "occ",
				"energy": -0.33721,
				"method": "rhf"
			},
			{
				"type": "occ",
				"energy": -0.29152,
				"method": "rhf"
			},
			{
				"type": "occ",
				"energy": -0.27122,
				"method": "rhf"
			},
			{
				"type": "unocc",
				"energy": -0.06486,
				"method": "rhf"
			},
			{
				"type": "unocc",
				"energy": -0.04374,
				"method": "rhf"
			},
			{
				"type": "unocc",
				"energy": 0.0291,
				"method": "rhf"
			},
			{
				"type": "unocc",
				"energy": 0.05534,
				"method": "rhf"
			},
			{
				"type": "unocc",
				"energy": 0.07717,
				"method": "rhf"
			}
		],
		"cosmo_sigma_profile": { 
			"-0.025": 0.0,
			"-0.024": 0.0,
			"-0.023": 0.0,
			"-0.022": 0.0,
			"-0.021": 0.0,
			"-0.02": 0.0,
			"-0.019": 0.0,
			"-0.018": 0.0,
			"-0.017": 0.0,
			"-0.016": 0.0,
			"-0.015": 0.0,
			"-0.014": 0.0,
			"-0.013": 0.0,
			"-0.012": 0.0,
			"-0.011": 0.0,
			"-0.01": 0.0,
			"-0.009": 0.921966127164,
			"-0.008": 4.80216354621,
			"-0.007": 7.58858648245,
			"-0.006": 7.42316637405,
			"-0.005": 8.9112370619,
			"-0.004": 11.4334569688,
			"-0.003": 14.8713855772,
			"-0.002": 18.8822563843,
			"-0.001": 23.2220746808,
			"0.0": 21.1688610948,
			"0.001": 18.0656176053,
			"0.002": 23.880877079,
			"0.003": 17.6181265676,
			"0.004": 1.73830238645,
			"0.005": 2.46651355536,
			"0.006": 2.46177377026,
			"0.007": 2.94115596274,
			"0.008": 3.55516420909,
			"0.009": 3.28114044284,
			"0.01": 3.31361697032,
			"0.011": 2.49457154731,
			"0.012": 2.3649483969,
			"0.013": 1.24609207922,
			"0.014": 0.0,
			"0.015": 0.0,
			"0.016": 0.0,
			"0.017": 0.0,
			"0.018": 0.0,
			"0.019": 0.0,
			"0.02": 0.0,
			"0.021": 0.0,
			"0.022": 0.0,
			"0.023": 0.0,
			"0.024": 0.0,
			"0.025": 0.0
		}
	}
}
