{
	 "smiles": "CC1CNC2=C(C=CC(F)=C2)C(=O)N1", 
	 "Tm": 443.15, 
	 "num_atms": 25, 
	 "gaussian": { 
		 "optdone": 1, 
		 "sigma_profile": "yes", 
		 "theory": "DFT", 
		 "functional": "B3LYP", 
		 "basiset": "6-31G**", 
		 "properties": { 
			 "R2extent": 3869.5019, 
			 "electric_dipole_moment_norm": 5.15752554041, 
			 "electric_quadrupole_moment_norm": 19.2807275389, 
			 "total_energy": -672.272832277, 
			 "HOMO_LUMO_gap": 0.18737, 
			 "cosmo_polarized_energy": -15.14, 
			 "cosmo_cavitation_energy": 27.87, 
			 "cosmo_dispersion_energy": -20.58, 
			 "cosmo_repulsion_energy": 1.58, 
			 "cosmo_total_nonelectrostatic_energy": 8.86, 
			 "SMD_solvation_energy": 4.86 
		},
		"coords": [
			{
				"x": -2.8513896265,
				"y": 1.3913040647,
				"z": -1.6207434831,
				"element": "C" 
			},
			{
				"x": -2.8929709839,
				"y": 1.9701728719,
				"z": -0.1992747454,
				"element": "C" 
			},
			{
				"x": -3.5711357866,
				"y": 1.0352554744,
				"z": 0.8067029593,
				"element": "C" 
			},
			{
				"x": -3.0100865147,
				"y": -0.3015148335,
				"z": 0.7985370477,
				"element": "N" 
			},
			{
				"x": -1.7582400068,
				"y": -0.6094511035,
				"z": 1.3084930946,
				"element": "C" 
			},
			{
				"x": -0.6601442746,
				"y": 0.2918649194,
				"z": 1.3772251223,
				"element": "C" 
			},
			{
				"x": 0.5500274617,
				"y": -0.1903834772,
				"z": 1.9205597551,
				"element": "C" 
			},
			{
				"x": 0.727255012,
				"y": -1.4905080225,
				"z": 2.3615454381,
				"element": "C" 
			},
			{
				"x": -0.3622016123,
				"y": -2.3515209676,
				"z": 2.2571352759,
				"element": "C" 
			},
			{
				"x": -0.2373817648,
				"y": -3.6280533222,
				"z": 2.6718495559,
				"element": "F" 
			},
			{
				"x": -1.5783817738,
				"y": -1.9377301697,
				"z": 1.7541042943,
				"element": "C" 
			},
			{
				"x": -0.5585647722,
				"y": 1.7254807839,
				"z": 0.9178209573,
				"element": "C" 
			},
			{
				"x": 0.4854984923,
				"y": 2.3536943738,
				"z": 1.1091447889,
				"element": "O" 
			},
			{
				"x": -1.5823967421,
				"y": 2.3868831829,
				"z": 0.2817212475,
				"element": "N" 
			},
			{
				"x": -2.2698671322,
				"y": 0.4668561576,
				"z": -1.6438222759,
				"element": "H" 
			},
			{
				"x": -2.3926072259,
				"y": 2.1069750002,
				"z": -2.3092182865,
				"element": "H" 
			},
			{
				"x": -3.8627494532,
				"y": 1.171093854,
				"z": -1.9807710504,
				"element": "H" 
			},
			{
				"x": -3.49873414,
				"y": 2.8857259334,
				"z": -0.2146946242,
				"element": "H" 
			},
			{
				"x": -3.5227164136,
				"y": 1.4985002496,
				"z": 1.8040512789,
				"element": "H" 
			},
			{
				"x": -4.6258871647,
				"y": 0.9400588499,
				"z": 0.5332568614,
				"element": "H" 
			},
			{
				"x": -3.6880566468,
				"y": -1.0363695837,
				"z": 0.9356402354,
				"element": "H" 
			},
			{
				"x": 1.3651178537,
				"y": 0.5215293363,
				"z": 1.9692053317,
				"element": "H" 
			},
			{
				"x": 1.6687866178,
				"y": -1.8406443791,
				"z": 2.7677944216,
				"element": "H" 
			},
			{
				"x": -2.4001305216,
				"y": -2.6462588851,
				"z": 1.7139283482,
				"element": "H" 
			},
			{
				"x": -1.2758428815,
				"y": 3.3141396919,
				"z": 0.0173084517,
				"element": "H" 
			}
		],
		 "valence_orbital": [ 
			{
				"type": "occ",
				"energy": -0.30176,
				"method": "rhf"
			},
			{
				"type": "occ",
				"energy": -0.24637,
				"method": "rhf"
			},
			{
				"type": "occ",
				"energy": -0.24397,
				"method": "rhf"
			},
			{
				"type": "occ",
				"energy": -0.24051,
				"method": "rhf"
			},
			{
				"type": "occ",
				"energy": -0.21181,
				"method": "rhf"
			},
			{
				"type": "unocc",
				"energy": -0.02444,
				"method": "rhf"
			},
			{
				"type": "unocc",
				"energy": 0.00257,
				"method": "rhf"
			},
			{
				"type": "unocc",
				"energy": 0.05036,
				"method": "rhf"
			},
			{
				"type": "unocc",
				"energy": 0.07425,
				"method": "rhf"
			},
			{
				"type": "unocc",
				"energy": 0.08557,
				"method": "rhf"
			}
		],
		"cosmo_sigma_profile": { 
			"-0.025": 0.0,
			"-0.024": 0.0,
			"-0.023": 0.0,
			"-0.022": 0.0,
			"-0.021": 0.0,
			"-0.02": 0.0,
			"-0.019": 0.0,
			"-0.018": 0.0,
			"-0.017": 0.0,
			"-0.016": 0.0,
			"-0.015": 0.0,
			"-0.014": 0.486617152802,
			"-0.013": 2.28099500901,
			"-0.012": 2.81305414468,
			"-0.011": 2.46869493484,
			"-0.01": 2.56363695614,
			"-0.009": 3.06135794353,
			"-0.008": 3.16762701363,
			"-0.007": 4.62322083492,
			"-0.006": 8.59217302082,
			"-0.005": 11.682881632,
			"-0.004": 14.7435462402,
			"-0.003": 16.2853106022,
			"-0.002": 15.0738609352,
			"-0.001": 13.4160954936,
			"0.0": 14.1030260816,
			"0.001": 19.7476188603,
			"0.002": 14.8012043685,
			"0.003": 17.776423717,
			"0.004": 23.9274418879,
			"0.005": 7.76808366144,
			"0.006": 2.62054431035,
			"0.007": 1.70911550305,
			"0.008": 1.72256681078,
			"0.009": 1.39280321911,
			"0.01": 0.894265729921,
			"0.011": 1.45508574718,
			"0.012": 1.9555091002,
			"0.013": 1.90098724972,
			"0.014": 4.94954122929,
			"0.015": 2.37058993912,
			"0.016": 0.0,
			"0.017": 0.0,
			"0.018": 0.0,
			"0.019": 0.0,
			"0.02": 0.0,
			"0.021": 0.0,
			"0.022": 0.0,
			"0.023": 0.0,
			"0.024": 0.0,
			"0.025": 0.0
		}
	}
}
