{
	 "smiles": "COC(=O)C1=CNC(=O)C(=C1)C#N", 
	 "Tm": 538.15, 
	 "num_atms": 19, 
	 "gaussian": { 
		 "optdone": 1, 
		 "sigma_profile": "yes", 
		 "theory": "DFT", 
		 "functional": "B3LYP", 
		 "basiset": "6-31G**", 
		 "properties": { 
			 "R2extent": 2951.8609, 
			 "electric_dipole_moment_norm": 8.58445565077, 
			 "electric_quadrupole_moment_norm": 17.1095037684, 
			 "total_energy": -643.636956573, 
			 "HOMO_LUMO_gap": 0.16344, 
			 "cosmo_polarized_energy": -22.77, 
			 "cosmo_cavitation_energy": 25.97, 
			 "cosmo_dispersion_energy": -18.41, 
			 "cosmo_repulsion_energy": 1.47, 
			 "cosmo_total_nonelectrostatic_energy": 9.02, 
			 "SMD_solvation_energy": 8.51 
		},
		"coords": [
			{
				"x": -3.6601728143,
				"y": -0.8178020585,
				"z": 1.1713809293,
				"element": "C" 
			},
			{
				"x": -2.5229421788,
				"y": -0.8364716003,
				"z": 0.2897128749,
				"element": "O" 
			},
			{
				"x": -1.4747923797,
				"y": -0.078720905,
				"z": 0.6856124656,
				"element": "C" 
			},
			{
				"x": -1.4642982947,
				"y": 0.5804640822,
				"z": 1.7057326059,
				"element": "O" 
			},
			{
				"x": -0.3434713414,
				"y": -0.1458194524,
				"z": -0.2671612507,
				"element": "C" 
			},
			{
				"x": -0.3847136244,
				"y": -0.9017583509,
				"z": -1.4149458829,
				"element": "C" 
			},
			{
				"x": 0.6749394821,
				"y": -0.9295166791,
				"z": -2.2526108149,
				"element": "N" 
			},
			{
				"x": 1.8968855116,
				"y": -0.2292870915,
				"z": -2.0770092337,
				"element": "C" 
			},
			{
				"x": 2.7833034277,
				"y": -0.335271205,
				"z": -2.9061309958,
				"element": "O" 
			},
			{
				"x": 1.9176544219,
				"y": 0.5698899376,
				"z": -0.8461588797,
				"element": "C" 
			},
			{
				"x": 0.8396730094,
				"y": 0.5977671017,
				"z": 0.0054506377,
				"element": "C" 
			},
			{
				"x": 3.1027083284,
				"y": 1.3179259096,
				"z": -0.5680355064,
				"element": "C" 
			},
			{
				"x": 4.0572889231,
				"y": 1.9348482297,
				"z": -0.3216581472,
				"element": "N" 
			},
			{
				"x": -4.0502066579,
				"y": 0.1977736055,
				"z": 1.2709024897,
				"element": "H" 
			},
			{
				"x": -4.4001564194,
				"y": -1.4701067447,
				"z": 0.7086072753,
				"element": "H" 
			},
			{
				"x": -3.3833192929,
				"y": -1.1898793152,
				"z": 2.1604917113,
				"element": "H" 
			},
			{
				"x": -1.2494998694,
				"y": -1.4935907754,
				"z": -1.6894010334,
				"element": "H" 
			},
			{
				"x": 0.645053568,
				"y": -1.4867606639,
				"z": -3.0989471285,
				"element": "H" 
			},
			{
				"x": 0.8681662007,
				"y": 1.1930159754,
				"z": 0.9123678834,
				"element": "H" 
			}
		],
		 "valence_orbital": [ 
			{
				"type": "occ",
				"energy": -0.32443,
				"method": "rhf"
			},
			{
				"type": "occ",
				"energy": -0.31613,
				"method": "rhf"
			},
			{
				"type": "occ",
				"energy": -0.29934,
				"method": "rhf"
			},
			{
				"type": "occ",
				"energy": -0.28467,
				"method": "rhf"
			},
			{
				"type": "occ",
				"energy": -0.25099,
				"method": "rhf"
			},
			{
				"type": "unocc",
				"energy": -0.08755,
				"method": "rhf"
			},
			{
				"type": "unocc",
				"energy": -0.05607,
				"method": "rhf"
			},
			{
				"type": "unocc",
				"energy": 0.01556,
				"method": "rhf"
			},
			{
				"type": "unocc",
				"energy": 0.02878,
				"method": "rhf"
			},
			{
				"type": "unocc",
				"energy": 0.04871,
				"method": "rhf"
			}
		],
		"cosmo_sigma_profile": { 
			"-0.025": 0.0,
			"-0.024": 0.0,
			"-0.023": 0.0,
			"-0.022": 0.0,
			"-0.021": 0.0,
			"-0.02": 0.0,
			"-0.019": 0.0,
			"-0.018": 1.09842675056,
			"-0.017": 1.84453153442,
			"-0.016": 1.63638539565,
			"-0.015": 0.781090011746,
			"-0.014": 1.04398537286,
			"-0.013": 1.87157027752,
			"-0.012": 1.77121527014,
			"-0.011": 2.04648545209,
			"-0.01": 2.02715102249,
			"-0.009": 3.09558187955,
			"-0.008": 3.38044140929,
			"-0.007": 3.75119060208,
			"-0.006": 10.2935155542,
			"-0.005": 13.8565380978,
			"-0.004": 20.3534440232,
			"-0.003": 23.6267086703,
			"-0.002": 18.1779127081,
			"-0.001": 9.37212130911,
			"0.0": 5.79632668725,
			"0.001": 6.20681590897,
			"0.002": 6.25995952724,
			"0.003": 6.01973728184,
			"0.004": 5.32475085739,
			"0.005": 5.76706336595,
			"0.006": 6.21205363668,
			"0.007": 6.17516116573,
			"0.008": 6.20861918698,
			"0.009": 6.69955301917,
			"0.01": 7.22773698151,
			"0.011": 9.56685394567,
			"0.012": 10.1113498181,
			"0.013": 1.95775840946,
			"0.014": 0.0,
			"0.015": 0.0,
			"0.016": 0.0,
			"0.017": 0.0,
			"0.018": 0.0,
			"0.019": 0.0,
			"0.02": 0.0,
			"0.021": 0.0,
			"0.022": 0.0,
			"0.023": 0.0,
			"0.024": 0.0,
			"0.025": 0.0
		}
	}
}
