{
	 "smiles": "CCN(CC)S(=O)(=O)C1=C(C)C=CC(=C1)C(O)=O", 
	 "Tm": 416.15, 
	 "num_atms": 35, 
	 "gaussian": { 
		 "optdone": 1, 
		 "sigma_profile": "yes", 
		 "theory": "DFT", 
		 "functional": "B3LYP", 
		 "basiset": "6-31G**", 
		 "properties": { 
			 "R2extent": 5332.0029, 
			 "electric_dipole_moment_norm": 2.24179752208, 
			 "electric_quadrupole_moment_norm": 35.0647676915, 
			 "total_energy": -1221.3046095, 
			 "HOMO_LUMO_gap": 0.1919, 
			 "cosmo_polarized_energy": -20.68, 
			 "cosmo_cavitation_energy": 38.27, 
			 "cosmo_dispersion_energy": -26.63, 
			 "cosmo_repulsion_energy": 2.0, 
			 "cosmo_total_nonelectrostatic_energy": 13.63, 
			 "SMD_solvation_energy": 7.44 
		},
		"coords": [
			{
				"x": -0.3531592562,
				"y": 2.7488895433,
				"z": 3.4795997898,
				"element": "C" 
			},
			{
				"x": 0.507131844,
				"y": 2.0079634814,
				"z": 2.4534593525,
				"element": "C" 
			},
			{
				"x": 0.0230596122,
				"y": 0.6546114953,
				"z": 2.1118116298,
				"element": "N" 
			},
			{
				"x": 0.1853508731,
				"y": -0.4278696497,
				"z": 3.1040716015,
				"element": "C" 
			},
			{
				"x": 1.6285117715,
				"y": -0.9203438473,
				"z": 3.2319460188,
				"element": "C" 
			},
			{
				"x": -1.1166402511,
				"y": 0.5092973333,
				"z": 0.9048203132,
				"element": "S" 
			},
			{
				"x": -1.6883569339,
				"y": 1.8383952683,
				"z": 0.6481934696,
				"element": "O" 
			},
			{
				"x": -1.9915527685,
				"y": -0.6279110503,
				"z": 1.2193675309,
				"element": "O" 
			},
			{
				"x": -0.1859910772,
				"y": 0.0534771807,
				"z": -0.5832398759,
				"element": "C" 
			},
			{
				"x": -0.8873808125,
				"y": -0.1588128031,
				"z": -1.7923395635,
				"element": "C" 
			},
			{
				"x": -2.3832044855,
				"y": -0.0107999247,
				"z": -1.9076539539,
				"element": "C" 
			},
			{
				"x": -0.1283675943,
				"y": -0.5293139414,
				"z": -2.9089918675,
				"element": "C" 
			},
			{
				"x": 1.2569700796,
				"y": -0.6739890415,
				"z": -2.8457734206,
				"element": "C" 
			},
			{
				"x": 1.9339789644,
				"y": -0.4444757131,
				"z": -1.6443842434,
				"element": "C" 
			},
			{
				"x": 1.1925594383,
				"y": -0.0888551908,
				"z": -0.5104244621,
				"element": "C" 
			},
			{
				"x": 3.4135372875,
				"y": -0.6049380264,
				"z": -1.4722094089,
				"element": "C" 
			},
			{
				"x": 4.1718520009,
				"y": -0.5688682976,
				"z": -2.5991725414,
				"element": "O" 
			},
			{
				"x": 3.939109314,
				"y": -0.7629631485,
				"z": -0.3946314773,
				"element": "O" 
			},
			{
				"x": -1.3575058985,
				"y": 2.9130186998,
				"z": 3.0832854528,
				"element": "H" 
			},
			{
				"x": -0.4319875367,
				"y": 2.1958482571,
				"z": 4.420741475,
				"element": "H" 
			},
			{
				"x": 0.0956323557,
				"y": 3.7223277316,
				"z": 3.7047584529,
				"element": "H" 
			},
			{
				"x": 1.5326283024,
				"y": 1.891017654,
				"z": 2.8203617951,
				"element": "H" 
			},
			{
				"x": 0.5668688567,
				"y": 2.5898303249,
				"z": 1.5315581467,
				"element": "H" 
			},
			{
				"x": -0.4728763809,
				"y": -1.2448438842,
				"z": 2.8070172858,
				"element": "H" 
			},
			{
				"x": -0.1799333412,
				"y": -0.0719293147,
				"z": 4.075693985,
				"element": "H" 
			},
			{
				"x": 2.003235223,
				"y": -1.3292363501,
				"z": 2.2893717049,
				"element": "H" 
			},
			{
				"x": 1.6761321848,
				"y": -1.7113820077,
				"z": 3.9877373973,
				"element": "H" 
			},
			{
				"x": 2.3100365674,
				"y": -0.1250511016,
				"z": 3.5498370822,
				"element": "H" 
			},
			{
				"x": -2.7133567577,
				"y": -0.2109762056,
				"z": -2.9293428559,
				"element": "H" 
			},
			{
				"x": -2.6952942371,
				"y": 0.9991926194,
				"z": -1.6256961159,
				"element": "H" 
			},
			{
				"x": -2.8942131757,
				"y": -0.6997152769,
				"z": -1.2285625136,
				"element": "H" 
			},
			{
				"x": -0.6412048277,
				"y": -0.7176456966,
				"z": -3.8477267405,
				"element": "H" 
			},
			{
				"x": 1.7880119761,
				"y": -1.0041431551,
				"z": -3.7355607466,
				"element": "H" 
			},
			{
				"x": 1.7155561629,
				"y": 0.0715421011,
				"z": 0.4233869287,
				"element": "H" 
			},
			{
				"x": 3.6414625202,
				"y": -0.2758480631,
				"z": -3.3529096257,
				"element": "H" 
			}
		],
		 "valence_orbital": [ 
			{
				"type": "occ",
				"energy": -0.30148,
				"method": "rhf"
			},
			{
				"type": "occ",
				"energy": -0.28414,
				"method": "rhf"
			},
			{
				"type": "occ",
				"energy": -0.27651,
				"method": "rhf"
			},
			{
				"type": "occ",
				"energy": -0.26783,
				"method": "rhf"
			},
			{
				"type": "occ",
				"energy": -0.25527,
				"method": "rhf"
			},
			{
				"type": "unocc",
				"energy": -0.06337,
				"method": "rhf"
			},
			{
				"type": "unocc",
				"energy": -0.03879,
				"method": "rhf"
			},
			{
				"type": "unocc",
				"energy": 0.0303,
				"method": "rhf"
			},
			{
				"type": "unocc",
				"energy": 0.05046,
				"method": "rhf"
			},
			{
				"type": "unocc",
				"energy": 0.05713,
				"method": "rhf"
			}
		],
		"cosmo_sigma_profile": { 
			"-0.025": 0.0,
			"-0.024": 0.0,
			"-0.023": 0.0,
			"-0.022": 0.0,
			"-0.021": 0.0,
			"-0.02": 0.0,
			"-0.019": 0.53127643246,
			"-0.018": 0.669662643162,
			"-0.017": 1.06959543516,
			"-0.016": 1.27676158933,
			"-0.015": 1.57270656694,
			"-0.014": 0.575713252679,
			"-0.013": 0.700421292795,
			"-0.012": 1.46322937809,
			"-0.011": 1.56288761628,
			"-0.01": 0.904721330219,
			"-0.009": 1.55129491221,
			"-0.008": 2.23834345004,
			"-0.007": 6.19763893016,
			"-0.006": 7.57360784037,
			"-0.005": 15.6464115588,
			"-0.004": 26.5674249938,
			"-0.003": 32.7211561888,
			"-0.002": 30.1017430534,
			"-0.001": 28.259194424,
			"0.0": 28.1525368148,
			"0.001": 26.5003275335,
			"0.002": 13.4973646314,
			"0.003": 6.96740249254,
			"0.004": 6.56560945514,
			"0.005": 5.87885520774,
			"0.006": 5.18496569701,
			"0.007": 5.22530770835,
			"0.008": 7.40934664795,
			"0.009": 7.40098002152,
			"0.01": 10.8016484674,
			"0.011": 10.9491344932,
			"0.012": 5.2052564934,
			"0.013": 1.40503492264,
			"0.014": 0.0430887027201,
			"0.015": 0.0,
			"0.016": 0.0,
			"0.017": 0.0,
			"0.018": 0.0,
			"0.019": 0.0,
			"0.02": 0.0,
			"0.021": 0.0,
			"0.022": 0.0,
			"0.023": 0.0,
			"0.024": 0.0,
			"0.025": 0.0
		}
	}
}
