{
	 "smiles": "NCC(F)C(O)=O", 
	 "Tm": 495.15, 
	 "num_atms": 13, 
	 "gaussian": { 
		 "optdone": 1, 
		 "sigma_profile": "yes", 
		 "theory": "DFT", 
		 "functional": "B3LYP", 
		 "basiset": "6-31G**", 
		 "properties": { 
			 "R2extent": 918.6697, 
			 "electric_dipole_moment_norm": 2.72425139993, 
			 "electric_quadrupole_moment_norm": 8.12343804063, 
			 "total_energy": -422.972409427, 
			 "HOMO_LUMO_gap": 0.24638, 
			 "cosmo_polarized_energy": -13.17, 
			 "cosmo_cavitation_energy": 17.09, 
			 "cosmo_dispersion_energy": -12.57, 
			 "cosmo_repulsion_energy": 1.08, 
			 "cosmo_total_nonelectrostatic_energy": 5.6, 
			 "SMD_solvation_energy": 3.18 
		},
		"coords": [
			{
				"x": 1.8300520544,
				"y": 0.6939685714,
				"z": -0.0648019868,
				"element": "N" 
			},
			{
				"x": 0.8595275496,
				"y": 1.526456493,
				"z": -0.7563665524,
				"element": "C" 
			},
			{
				"x": -0.4880161703,
				"y": 1.6997652686,
				"z": -0.0511061425,
				"element": "C" 
			},
			{
				"x": -0.2722996325,
				"y": 2.304005021,
				"z": 1.2106548435,
				"element": "F" 
			},
			{
				"x": -1.2032757373,
				"y": 0.3643938998,
				"z": 0.1694850524,
				"element": "C" 
			},
			{
				"x": -1.5680779632,
				"y": 0.1148589602,
				"z": 1.4381363324,
				"element": "O" 
			},
			{
				"x": -1.4127574685,
				"y": -0.4009483844,
				"z": -0.7393920369,
				"element": "O" 
			},
			{
				"x": 1.5262849921,
				"y": -0.2757629107,
				"z": -0.0421598885,
				"element": "H" 
			},
			{
				"x": 1.9478317463,
				"y": 1.0086469347,
				"z": 0.8941199185,
				"element": "H" 
			},
			{
				"x": 0.6583436965,
				"y": 1.1025596013,
				"z": -1.7445708725,
				"element": "H" 
			},
			{
				"x": 1.2865498317,
				"y": 2.5245821879,
				"z": -0.9064017645,
				"element": "H" 
			},
			{
				"x": -1.1514928971,
				"y": 2.3620180508,
				"z": -0.620116452,
				"element": "H" 
			},
			{
				"x": -1.2746700016,
				"y": 0.8675563065,
				"z": 1.9804195494,
				"element": "H" 
			}
		],
		 "valence_orbital": [ 
			{
				"type": "occ",
				"energy": -0.38625,
				"method": "rhf"
			},
			{
				"type": "occ",
				"energy": -0.3739,
				"method": "rhf"
			},
			{
				"type": "occ",
				"energy": -0.32665,
				"method": "rhf"
			},
			{
				"type": "occ",
				"energy": -0.28355,
				"method": "rhf"
			},
			{
				"type": "occ",
				"energy": -0.25285,
				"method": "rhf"
			},
			{
				"type": "unocc",
				"energy": -0.00647,
				"method": "rhf"
			},
			{
				"type": "unocc",
				"energy": 0.05869,
				"method": "rhf"
			},
			{
				"type": "unocc",
				"energy": 0.09761,
				"method": "rhf"
			},
			{
				"type": "unocc",
				"energy": 0.10939,
				"method": "rhf"
			},
			{
				"type": "unocc",
				"energy": 0.11214,
				"method": "rhf"
			}
		],
		"cosmo_sigma_profile": { 
			"-0.025": 0.0,
			"-0.024": 0.0,
			"-0.023": 0.0,
			"-0.022": 0.0,
			"-0.021": 0.0,
			"-0.02": 0.0,
			"-0.019": 0.0,
			"-0.018": 0.0,
			"-0.017": 0.0,
			"-0.016": 0.454120695473,
			"-0.015": 0.627857459643,
			"-0.014": 0.638777413191,
			"-0.013": 0.567540883721,
			"-0.012": 0.896750780358,
			"-0.011": 1.09485243735,
			"-0.01": 2.69967055856,
			"-0.009": 6.94266354924,
			"-0.008": 9.14450797612,
			"-0.007": 6.74449574924,
			"-0.006": 7.52574710632,
			"-0.005": 8.94465989871,
			"-0.004": 7.18500371088,
			"-0.003": 7.72179294848,
			"-0.002": 4.94902726963,
			"-0.001": 4.90321310888,
			"0.0": 5.24351405546,
			"0.001": 3.29780188331,
			"0.002": 4.6908400232,
			"0.003": 4.89733310912,
			"0.004": 5.35424091343,
			"0.005": 5.44328193151,
			"0.006": 3.17775078822,
			"0.007": 3.30459252225,
			"0.008": 4.05133801479,
			"0.009": 4.53866733738,
			"0.01": 4.01725005572,
			"0.011": 6.73018724753,
			"0.012": 3.64436143142,
			"0.013": 1.13267011541,
			"0.014": 0.976017935829,
			"0.015": 0.423009570628,
			"0.016": 0.202389900258,
			"0.017": 1.11896363095,
			"0.018": 0.478503827455,
			"0.019": 0.239385421339,
			"0.02": 0.0,
			"0.021": 0.0,
			"0.022": 0.0,
			"0.023": 0.0,
			"0.024": 0.0,
			"0.025": 0.0
		}
	}
}
