{
	 "smiles": "FC1=CC(=CC=C1)C1=CC=C(S1)C=O", 
	 "Tm": 375.15, 
	 "num_atms": 21, 
	 "gaussian": { 
		 "optdone": 1, 
		 "sigma_profile": "yes", 
		 "theory": "DFT", 
		 "functional": "B3LYP", 
		 "basiset": "6-31G**", 
		 "properties": { 
			 "R2extent": 4364.4113, 
			 "electric_dipole_moment_norm": 4.84604301363, 
			 "electric_quadrupole_moment_norm": 6.85244744088, 
			 "total_energy": -996.619279388, 
			 "HOMO_LUMO_gap": 0.15185, 
			 "cosmo_polarized_energy": -10.27, 
			 "cosmo_cavitation_energy": 28.26, 
			 "cosmo_dispersion_energy": -20.85, 
			 "cosmo_repulsion_energy": 1.54, 
			 "cosmo_total_nonelectrostatic_energy": 8.96, 
			 "SMD_solvation_energy": 6.03 
		},
		"coords": [
			{
				"x": 4.6397189766,
				"y": 1.7821447038,
				"z": 2.106939353,
				"element": "F" 
			},
			{
				"x": 3.3023559552,
				"y": 1.7315093063,
				"z": 2.2669026824,
				"element": "C" 
			},
			{
				"x": 2.532301487,
				"y": 1.1843498684,
				"z": 1.2505076657,
				"element": "C" 
			},
			{
				"x": 1.1354468618,
				"y": 1.1288086657,
				"z": 1.3981059105,
				"element": "C" 
			},
			{
				"x": 0.55883907,
				"y": 1.6310198089,
				"z": 2.5802497695,
				"element": "C" 
			},
			{
				"x": 1.3577724433,
				"y": 2.1809519043,
				"z": 3.5802267897,
				"element": "C" 
			},
			{
				"x": 2.7449677845,
				"y": 2.2381429659,
				"z": 3.4357920049,
				"element": "C" 
			},
			{
				"x": 0.2844518546,
				"y": 0.5615623482,
				"z": 0.3442385462,
				"element": "C" 
			},
			{
				"x": -1.0384652756,
				"y": 0.8673295577,
				"z": 0.0724907032,
				"element": "C" 
			},
			{
				"x": -1.5651507527,
				"y": 0.1387762549,
				"z": -1.017730459,
				"element": "C" 
			},
			{
				"x": -0.6495325296,
				"y": -0.7263263622,
				"z": -1.5832866953,
				"element": "C" 
			},
			{
				"x": 0.884776843,
				"y": -0.6514810169,
				"z": -0.7582603703,
				"element": "S" 
			},
			{
				"x": -0.8524001883,
				"y": -1.62221578,
				"z": -2.713288178,
				"element": "C" 
			},
			{
				"x": -0.0031734684,
				"y": -2.3674671242,
				"z": -3.1724651529,
				"element": "O" 
			},
			{
				"x": 3.0234044721,
				"y": 0.8300477703,
				"z": 0.3507260864,
				"element": "H" 
			},
			{
				"x": -0.514225074,
				"y": 1.5655659829,
				"z": 2.7236149926,
				"element": "H" 
			},
			{
				"x": 0.8980206436,
				"y": 2.560569518,
				"z": 4.4875751059,
				"element": "H" 
			},
			{
				"x": 3.3877340823,
				"y": 2.6587149382,
				"z": 4.2010124526,
				"element": "H" 
			},
			{
				"x": -1.5959684132,
				"y": 1.6155590918,
				"z": 0.6233070095,
				"element": "H" 
			},
			{
				"x": -2.5788588602,
				"y": 0.2456517511,
				"z": -1.3894853631,
				"element": "H" 
			},
			{
				"x": -1.877015912,
				"y": -1.5761141531,
				"z": -3.1425728536,
				"element": "H" 
			}
		],
		 "valence_orbital": [ 
			{
				"type": "occ",
				"energy": -0.29133,
				"method": "rhf"
			},
			{
				"type": "occ",
				"energy": -0.27048,
				"method": "rhf"
			},
			{
				"type": "occ",
				"energy": -0.26101,
				"method": "rhf"
			},
			{
				"type": "occ",
				"energy": -0.25889,
				"method": "rhf"
			},
			{
				"type": "occ",
				"energy": -0.23345,
				"method": "rhf"
			},
			{
				"type": "unocc",
				"energy": -0.0816,
				"method": "rhf"
			},
			{
				"type": "unocc",
				"energy": -0.0239,
				"method": "rhf"
			},
			{
				"type": "unocc",
				"energy": -0.01561,
				"method": "rhf"
			},
			{
				"type": "unocc",
				"energy": 0.02286,
				"method": "rhf"
			},
			{
				"type": "unocc",
				"energy": 0.03542,
				"method": "rhf"
			}
		],
		"cosmo_sigma_profile": { 
			"-0.025": 0.0,
			"-0.024": 0.0,
			"-0.023": 0.0,
			"-0.022": 0.0,
			"-0.021": 0.0,
			"-0.02": 0.0,
			"-0.019": 0.0,
			"-0.018": 0.0,
			"-0.017": 0.0,
			"-0.016": 0.0,
			"-0.015": 0.0,
			"-0.014": 0.0,
			"-0.013": 0.0,
			"-0.012": 0.0,
			"-0.011": 0.0,
			"-0.01": 0.0,
			"-0.009": 0.453933080922,
			"-0.008": 7.01180462549,
			"-0.007": 13.4038882756,
			"-0.006": 13.564984426,
			"-0.005": 13.6415222951,
			"-0.004": 10.4189197505,
			"-0.003": 12.252495853,
			"-0.002": 11.4977353688,
			"-0.001": 12.2088124846,
			"0.0": 19.1647774216,
			"0.001": 27.4460998099,
			"0.002": 30.5046054008,
			"0.003": 21.4730441894,
			"0.004": 14.9337609293,
			"0.005": 4.24127694824,
			"0.006": 1.0958402568,
			"0.007": 1.78872933312,
			"0.008": 1.98066956968,
			"0.009": 1.58342925205,
			"0.01": 2.61302812514,
			"0.011": 4.09688955653,
			"0.012": 3.74796007518,
			"0.013": 1.13050761392,
			"0.014": 0.018254452349,
			"0.015": 0.0,
			"0.016": 0.0,
			"0.017": 0.0,
			"0.018": 0.0,
			"0.019": 0.0,
			"0.02": 0.0,
			"0.021": 0.0,
			"0.022": 0.0,
			"0.023": 0.0,
			"0.024": 0.0,
			"0.025": 0.0
		}
	}
}
