{
	 "smiles": "OC(=O)C1=CSC(=N1)C1=CC=NC=C1", 
	 "Tm": 579.15, 
	 "num_atms": 20, 
	 "gaussian": { 
		 "optdone": 1, 
		 "sigma_profile": "yes", 
		 "theory": "DFT", 
		 "functional": "B3LYP", 
		 "basiset": "6-31G**", 
		 "properties": { 
			 "R2extent": 4015.4347, 
			 "electric_dipole_moment_norm": 1.17368592477, 
			 "electric_quadrupole_moment_norm": 17.0770977912, 
			 "total_energy": -1004.71321229, 
			 "HOMO_LUMO_gap": 0.17277, 
			 "cosmo_polarized_energy": -14.12, 
			 "cosmo_cavitation_energy": 27.48, 
			 "cosmo_dispersion_energy": -20.78, 
			 "cosmo_repulsion_energy": 1.57, 
			 "cosmo_total_nonelectrostatic_energy": 8.27, 
			 "SMD_solvation_energy": 3.45 
		},
		"coords": [
			{
				"x": 2.6641459865,
				"y": -3.3850032235,
				"z": -1.2113490234,
				"element": "O" 
			},
			{
				"x": 1.4335432559,
				"y": -3.7363334626,
				"z": -0.7896470294,
				"element": "C" 
			},
			{
				"x": 0.9908441636,
				"y": -4.8643233831,
				"z": -0.883945518,
				"element": "O" 
			},
			{
				"x": 0.6748068892,
				"y": -2.6054694416,
				"z": -0.2003790608,
				"element": "C" 
			},
			{
				"x": -0.5996167437,
				"y": -2.7726384678,
				"z": 0.2835573467,
				"element": "C" 
			},
			{
				"x": -1.1981372018,
				"y": -1.2829545041,
				"z": 0.8946629388,
				"element": "S" 
			},
			{
				"x": 0.3404550034,
				"y": -0.5162506511,
				"z": 0.4486319411,
				"element": "C" 
			},
			{
				"x": 1.1897072299,
				"y": -1.3380646718,
				"z": -0.1022554012,
				"element": "N" 
			},
			{
				"x": 0.6106696678,
				"y": 0.9080499248,
				"z": 0.6858792787,
				"element": "C" 
			},
			{
				"x": -0.3203735352,
				"y": 1.7703054466,
				"z": 1.2802654245,
				"element": "C" 
			},
			{
				"x": 0.0241661776,
				"y": 3.1081512553,
				"z": 1.4656814771,
				"element": "C" 
			},
			{
				"x": 1.2026033173,
				"y": 3.6326993518,
				"z": 1.1087206618,
				"element": "N" 
			},
			{
				"x": 2.0873471978,
				"y": 2.8008364965,
				"z": 0.5408678281,
				"element": "C" 
			},
			{
				"x": 1.8491449555,
				"y": 1.4491058448,
				"z": 0.3082364185,
				"element": "C" 
			},
			{
				"x": 3.0593709116,
				"y": -4.1960320946,
				"z": -1.5731430756,
				"element": "H" 
			},
			{
				"x": -1.1774064309,
				"y": -3.6851925208,
				"z": 0.2981493996,
				"element": "H" 
			},
			{
				"x": -1.2980890017,
				"y": 1.4192512418,
				"z": 1.5970100681,
				"element": "H" 
			},
			{
				"x": -0.6866048654,
				"y": 3.7920755209,
				"z": 1.9257057282,
				"element": "H" 
			},
			{
				"x": 3.0413723968,
				"y": 3.2399952581,
				"z": 0.255429364,
				"element": "H" 
			},
			{
				"x": 2.5968506258,
				"y": 0.8155920802,
				"z": -0.1546787669,
				"element": "H" 
			}
		],
		 "valence_orbital": [ 
			{
				"type": "occ",
				"energy": -0.29949,
				"method": "rhf"
			},
			{
				"type": "occ",
				"energy": -0.28474,
				"method": "rhf"
			},
			{
				"type": "occ",
				"energy": -0.27246,
				"method": "rhf"
			},
			{
				"type": "occ",
				"energy": -0.2631,
				"method": "rhf"
			},
			{
				"type": "occ",
				"energy": -0.25224,
				"method": "rhf"
			},
			{
				"type": "unocc",
				"energy": -0.07947,
				"method": "rhf"
			},
			{
				"type": "unocc",
				"energy": -0.04734,
				"method": "rhf"
			},
			{
				"type": "unocc",
				"energy": -0.0197,
				"method": "rhf"
			},
			{
				"type": "unocc",
				"energy": -0.00057,
				"method": "rhf"
			},
			{
				"type": "unocc",
				"energy": 0.02154,
				"method": "rhf"
			}
		],
		"cosmo_sigma_profile": { 
			"-0.025": 0.0,
			"-0.024": 0.0,
			"-0.023": 0.0,
			"-0.022": 0.0,
			"-0.021": 0.0,
			"-0.02": 0.0,
			"-0.019": 0.301249014122,
			"-0.018": 0.867882872777,
			"-0.017": 0.965695811131,
			"-0.016": 1.0691201481,
			"-0.015": 0.810312357628,
			"-0.014": 0.239613969253,
			"-0.013": 0.721048752031,
			"-0.012": 0.959753312775,
			"-0.011": 1.45537212309,
			"-0.01": 2.08732732406,
			"-0.009": 2.07519208726,
			"-0.008": 4.45084198781,
			"-0.007": 8.05932831372,
			"-0.006": 12.1345935912,
			"-0.005": 9.82048386566,
			"-0.004": 9.86141556736,
			"-0.003": 12.823380132,
			"-0.002": 19.0546368969,
			"-0.001": 19.8606517324,
			"0.0": 23.7591860066,
			"0.001": 24.5335168049,
			"0.002": 13.2238462357,
			"0.003": 5.11517280304,
			"0.004": 5.72886461932,
			"0.005": 4.92060331809,
			"0.006": 5.76265110757,
			"0.007": 3.8522469808,
			"0.008": 3.48237497606,
			"0.009": 4.68014678053,
			"0.01": 5.54384324364,
			"0.011": 6.80057973192,
			"0.012": 4.49377768741,
			"0.013": 2.04073239083,
			"0.014": 0.745051610263,
			"0.015": 1.17928657551,
			"0.016": 0.574538742651,
			"0.017": 0.111238494864,
			"0.018": 0.0,
			"0.019": 0.0,
			"0.02": 0.0,
			"0.021": 0.0,
			"0.022": 0.0,
			"0.023": 0.0,
			"0.024": 0.0,
			"0.025": 0.0
		}
	}
}
