{
	 "smiles": "OC1=C(C=O)C=CC(F)=C1", 
	 "Tm": 344.15, 
	 "num_atms": 15, 
	 "gaussian": { 
		 "optdone": 1, 
		 "sigma_profile": "yes", 
		 "theory": "DFT", 
		 "functional": "B3LYP", 
		 "basiset": "6-31G**", 
		 "properties": { 
			 "R2extent": 1503.2589, 
			 "electric_dipole_moment_norm": 2.51570177485, 
			 "electric_quadrupole_moment_norm": 6.06621783651, 
			 "total_energy": -520.041391736, 
			 "HOMO_LUMO_gap": 0.17124, 
			 "cosmo_polarized_energy": -6.95, 
			 "cosmo_cavitation_energy": 19.94, 
			 "cosmo_dispersion_energy": -14.95, 
			 "cosmo_repulsion_energy": 1.17, 
			 "cosmo_total_nonelectrostatic_energy": 6.16, 
			 "SMD_solvation_energy": 5.27 
		},
		"coords": [
			{
				"x": -2.4605488,
				"y": 0.4240059903,
				"z": -0.8391749069,
				"element": "O" 
			},
			{
				"x": -1.2691853536,
				"y": 0.3868085798,
				"z": -0.2366801128,
				"element": "C" 
			},
			{
				"x": -0.3811566681,
				"y": -0.7146005716,
				"z": -0.408636441,
				"element": "C" 
			},
			{
				"x": -0.7697483235,
				"y": -1.8259978135,
				"z": -1.2550140807,
				"element": "C" 
			},
			{
				"x": -1.8457030028,
				"y": -1.8959302063,
				"z": -1.8589916241,
				"element": "O" 
			},
			{
				"x": 0.8652140516,
				"y": -0.708294004,
				"z": 0.2479035763,
				"element": "C" 
			},
			{
				"x": 1.2466148265,
				"y": 0.346316406,
				"z": 1.0577309458,
				"element": "C" 
			},
			{
				"x": 0.347323399,
				"y": 1.4114085348,
				"z": 1.2027234919,
				"element": "C" 
			},
			{
				"x": 0.7076885272,
				"y": 2.440645489,
				"z": 1.9868216469,
				"element": "F" 
			},
			{
				"x": -0.8896012329,
				"y": 1.4592283843,
				"z": 0.582460644,
				"element": "C" 
			},
			{
				"x": -2.5429396418,
				"y": -0.4123687237,
				"z": -1.3661283304,
				"element": "H" 
			},
			{
				"x": -0.0364203353,
				"y": -2.6504854616,
				"z": -1.3479343689,
				"element": "H" 
			},
			{
				"x": 1.5329069703,
				"y": -1.5548165567,
				"z": 0.1080162451,
				"element": "H" 
			},
			{
				"x": 2.1995331821,
				"y": 0.3728927728,
				"z": 1.5722990184,
				"element": "H" 
			},
			{
				"x": -1.5529775989,
				"y": 2.3037871807,
				"z": 0.7235042966,
				"element": "H" 
			}
		],
		 "valence_orbital": [ 
			{
				"type": "occ",
				"energy": -0.36528,
				"method": "rhf"
			},
			{
				"type": "occ",
				"energy": -0.34658,
				"method": "rhf"
			},
			{
				"type": "occ",
				"energy": -0.27659,
				"method": "rhf"
			},
			{
				"type": "occ",
				"energy": -0.26989,
				"method": "rhf"
			},
			{
				"type": "occ",
				"energy": -0.24368,
				"method": "rhf"
			},
			{
				"type": "unocc",
				"energy": -0.07244,
				"method": "rhf"
			},
			{
				"type": "unocc",
				"energy": -0.01488,
				"method": "rhf"
			},
			{
				"type": "unocc",
				"energy": 0.0321,
				"method": "rhf"
			},
			{
				"type": "unocc",
				"energy": 0.07925,
				"method": "rhf"
			},
			{
				"type": "unocc",
				"energy": 0.10979,
				"method": "rhf"
			}
		],
		"cosmo_sigma_profile": { 
			"-0.025": 0.0,
			"-0.024": 0.0,
			"-0.023": 0.0,
			"-0.022": 0.0,
			"-0.021": 0.0,
			"-0.02": 0.0,
			"-0.019": 0.0,
			"-0.018": 0.0,
			"-0.017": 0.0,
			"-0.016": 0.0,
			"-0.015": 0.0,
			"-0.014": 0.0,
			"-0.013": 0.0,
			"-0.012": 0.0,
			"-0.011": 0.0,
			"-0.01": 0.0152141699741,
			"-0.009": 1.25844621291,
			"-0.008": 6.78889302028,
			"-0.007": 9.12867635677,
			"-0.006": 7.52170303156,
			"-0.005": 7.31636690865,
			"-0.004": 8.22056566101,
			"-0.003": 9.02423894436,
			"-0.002": 9.54494893595,
			"-0.001": 12.2090100868,
			"0.0": 15.8935536373,
			"0.001": 17.3819746823,
			"0.002": 13.4526342007,
			"0.003": 12.4161732549,
			"0.004": 8.26953115309,
			"0.005": 2.84504599038,
			"0.006": 3.46905279508,
			"0.007": 2.31298597923,
			"0.008": 2.39061628445,
			"0.009": 3.83852628184,
			"0.01": 3.44110466941,
			"0.011": 2.50007951896,
			"0.012": 1.43069259283,
			"0.013": 0.119301711258,
			"0.014": 0.0,
			"0.015": 0.0,
			"0.016": 0.0,
			"0.017": 0.0,
			"0.018": 0.0,
			"0.019": 0.0,
			"0.02": 0.0,
			"0.021": 0.0,
			"0.022": 0.0,
			"0.023": 0.0,
			"0.024": 0.0,
			"0.025": 0.0
		}
	}
}
