{
	 "smiles": "CC(=N/O)C1CC2(C)CCC1C2(C)C", 
	 "Tm": 368.65, 
	 "num_atms": 35, 
	 "gaussian": { 
		 "optdone": 1, 
		 "sigma_profile": "yes", 
		 "theory": "DFT", 
		 "functional": "B3LYP", 
		 "basiset": "6-31G**", 
		 "properties": { 
			 "R2extent": 3239.8885, 
			 "electric_dipole_moment_norm": 0.551999574275, 
			 "electric_quadrupole_moment_norm": 2.24609583723, 
			 "total_energy": -599.860969611, 
			 "HOMO_LUMO_gap": 0.25317, 
			 "cosmo_polarized_energy": -6.77, 
			 "cosmo_cavitation_energy": 32.71, 
			 "cosmo_dispersion_energy": -23.26, 
			 "cosmo_repulsion_energy": 1.81, 
			 "cosmo_total_nonelectrostatic_energy": 11.26, 
			 "SMD_solvation_energy": 5.53 
		},
		"coords": [
			{
				"x": -2.2257877943,
				"y": 0.1769196753,
				"z": 3.0521355019,
				"element": "C" 
			},
			{
				"x": -2.330862276,
				"y": -0.0305281232,
				"z": 1.5607356782,
				"element": "C" 
			},
			{
				"x": -3.4019202392,
				"y": -0.4399656929,
				"z": 0.9865567318,
				"element": "N" 
			},
			{
				"x": -4.4290519797,
				"y": -0.6831560663,
				"z": 1.9294795846,
				"element": "O" 
			},
			{
				"x": -1.1518381638,
				"y": 0.3451412999,
				"z": 0.6908675705,
				"element": "C" 
			},
			{
				"x": 0.2343802769,
				"y": -0.2367170632,
				"z": 1.1465583864,
				"element": "C" 
			},
			{
				"x": 0.8886678683,
				"y": -0.7382983536,
				"z": -0.174886067,
				"element": "C" 
			},
			{
				"x": 2.4040070117,
				"y": -0.876412111,
				"z": -0.0940005039,
				"element": "C" 
			},
			{
				"x": 0.1474818248,
				"y": -2.0506069604,
				"z": -0.5419419977,
				"element": "C" 
			},
			{
				"x": -1.2720797225,
				"y": -1.5641645024,
				"z": -0.9623705939,
				"element": "C" 
			},
			{
				"x": -1.1801718986,
				"y": -0.023532453,
				"z": -0.8141072778,
				"element": "C" 
			},
			{
				"x": 0.2991411417,
				"y": 0.2667783334,
				"z": -1.2355503654,
				"element": "C" 
			},
			{
				"x": 0.7571667808,
				"y": 1.7267886259,
				"z": -1.0470667011,
				"element": "C" 
			},
			{
				"x": 0.6002682221,
				"y": -0.0950076759,
				"z": -2.7028110105,
				"element": "C" 
			},
			{
				"x": -2.2923917576,
				"y": -0.7812475035,
				"z": 3.5793219358,
				"element": "H" 
			},
			{
				"x": -3.063646466,
				"y": 0.7842445084,
				"z": 3.4078446492,
				"element": "H" 
			},
			{
				"x": -1.2858244667,
				"y": 0.6610290405,
				"z": 3.3242230888,
				"element": "H" 
			},
			{
				"x": -5.155529069,
				"y": -0.9665662219,
				"z": 1.3596339709,
				"element": "H" 
			},
			{
				"x": -1.0984457454,
				"y": 1.439612337,
				"z": 0.7702766869,
				"element": "H" 
			},
			{
				"x": 0.1276812174,
				"y": -1.0602030088,
				"z": 1.8608765647,
				"element": "H" 
			},
			{
				"x": 0.8487441404,
				"y": 0.5272956322,
				"z": 1.6345760109,
				"element": "H" 
			},
			{
				"x": 2.8259712408,
				"y": -1.225672692,
				"z": -1.0430138077,
				"element": "H" 
			},
			{
				"x": 2.8843517971,
				"y": 0.0757415567,
				"z": 0.1585708952,
				"element": "H" 
			},
			{
				"x": 2.6903284958,
				"y": -1.6019287436,
				"z": 0.6766149369,
				"element": "H" 
			},
			{
				"x": 0.6575425912,
				"y": -2.5747091996,
				"z": -1.3571759834,
				"element": "H" 
			},
			{
				"x": 0.1231409544,
				"y": -2.7410164383,
				"z": 0.3083948282,
				"element": "H" 
			},
			{
				"x": -2.0663019093,
				"y": -1.9772109904,
				"z": -0.3416240439,
				"element": "H" 
			},
			{
				"x": -1.5025260334,
				"y": -1.8401553708,
				"z": -1.9954954276,
				"element": "H" 
			},
			{
				"x": -1.9457459909,
				"y": 0.5184619519,
				"z": -1.375910317,
				"element": "H" 
			},
			{
				"x": 0.1384957953,
				"y": 2.4020574923,
				"z": -1.6496173184,
				"element": "H" 
			},
			{
				"x": 1.7912238337,
				"y": 1.8471847363,
				"z": -1.3885236413,
				"element": "H" 
			},
			{
				"x": 0.7196660978,
				"y": 2.0792656309,
				"z": -0.0143330764,
				"element": "H" 
			},
			{
				"x": 0.085164965,
				"y": 0.6017300752,
				"z": -3.3742273749,
				"element": "H" 
			},
			{
				"x": 1.6727843618,
				"y": -0.0076212228,
				"z": -2.9098604016,
				"element": "H" 
			},
			{
				"x": 0.2930148954,
				"y": -1.1037305021,
				"z": -2.9824511111,
				"element": "H" 
			}
		],
		 "valence_orbital": [ 
			{
				"type": "occ",
				"energy": -0.30407,
				"method": "rhf"
			},
			{
				"type": "occ",
				"energy": -0.28455,
				"method": "rhf"
			},
			{
				"type": "occ",
				"energy": -0.27684,
				"method": "rhf"
			},
			{
				"type": "occ",
				"energy": -0.25881,
				"method": "rhf"
			},
			{
				"type": "occ",
				"energy": -0.23548,
				"method": "rhf"
			},
			{
				"type": "unocc",
				"energy": 0.01769,
				"method": "rhf"
			},
			{
				"type": "unocc",
				"energy": 0.07117,
				"method": "rhf"
			},
			{
				"type": "unocc",
				"energy": 0.08166,
				"method": "rhf"
			},
			{
				"type": "unocc",
				"energy": 0.09693,
				"method": "rhf"
			},
			{
				"type": "unocc",
				"energy": 0.11319,
				"method": "rhf"
			}
		],
		"cosmo_sigma_profile": { 
			"-0.025": 0.0,
			"-0.024": 0.0,
			"-0.023": 0.0,
			"-0.022": 0.0,
			"-0.021": 0.0,
			"-0.02": 0.0,
			"-0.019": 0.0,
			"-0.018": 0.0,
			"-0.017": 0.164454045883,
			"-0.016": 1.00178330223,
			"-0.015": 0.959003693912,
			"-0.014": 0.764148215083,
			"-0.013": 0.666122001747,
			"-0.012": 0.872972796478,
			"-0.011": 0.401419405109,
			"-0.01": 0.584325716681,
			"-0.009": 0.83526699006,
			"-0.008": 0.231160751248,
			"-0.007": 0.830500126653,
			"-0.006": 0.639716890022,
			"-0.005": 1.81909863322,
			"-0.004": 8.68708205148,
			"-0.003": 16.9560639848,
			"-0.002": 40.0909807799,
			"-0.001": 45.99206956,
			"0.0": 39.9803742752,
			"0.001": 32.7023707968,
			"0.002": 21.4066875112,
			"0.003": 6.24208625898,
			"0.004": 3.90774941581,
			"0.005": 4.01535270408,
			"0.006": 3.93284991086,
			"0.007": 3.8868272781,
			"0.008": 2.69693795003,
			"0.009": 3.0347955664,
			"0.01": 3.92727613895,
			"0.011": 2.34314860905,
			"0.012": 0.758234401027,
			"0.013": 0.767181567452,
			"0.014": 0.067560362556,
			"0.015": 0.0,
			"0.016": 0.0,
			"0.017": 0.0,
			"0.018": 0.0,
			"0.019": 0.0,
			"0.02": 0.0,
			"0.021": 0.0,
			"0.022": 0.0,
			"0.023": 0.0,
			"0.024": 0.0,
			"0.025": 0.0
		}
	}
}
