{
	 "smiles": "NC1=C(C=O)C=NN1C1=CC=C(Cl)C=C1", 
	 "Tm": 353.15, 
	 "num_atms": 23, 
	 "gaussian": { 
		 "optdone": 1, 
		 "sigma_profile": "yes", 
		 "theory": "DFT", 
		 "functional": "B3LYP", 
		 "basiset": "6-31G**", 
		 "properties": { 
			 "R2extent": 5260.4735, 
			 "electric_dipole_moment_norm": 1.14985805646, 
			 "electric_quadrupole_moment_norm": 12.4131888635, 
			 "total_energy": -1085.53731936, 
			 "HOMO_LUMO_gap": 0.18048, 
			 "cosmo_polarized_energy": -12.64, 
			 "cosmo_cavitation_energy": 29.57, 
			 "cosmo_dispersion_energy": -22.01, 
			 "cosmo_repulsion_energy": 1.7, 
			 "cosmo_total_nonelectrostatic_energy": 9.26, 
			 "SMD_solvation_energy": 5.07 
		},
		"coords": [
			{
				"x": 1.970508533,
				"y": 0.0222397182,
				"z": 1.6915968255,
				"element": "N" 
			},
			{
				"x": 0.7528874858,
				"y": -0.5211294654,
				"z": 1.4130181816,
				"element": "C" 
			},
			{
				"x": 0.2940428796,
				"y": -1.7996524764,
				"z": 1.7809229553,
				"element": "C" 
			},
			{
				"x": 1.1024047458,
				"y": -2.7808326979,
				"z": 2.452682363,
				"element": "C" 
			},
			{
				"x": 2.2729539702,
				"y": -2.5879652602,
				"z": 2.7928639687,
				"element": "O" 
			},
			{
				"x": -1.0299473002,
				"y": -1.8560718886,
				"z": 1.2598439754,
				"element": "C" 
			},
			{
				"x": -1.3773248418,
				"y": -0.7531042531,
				"z": 0.6341563635,
				"element": "N" 
			},
			{
				"x": -0.2699250242,
				"y": 0.0838899348,
				"z": 0.7447343536,
				"element": "N" 
			},
			{
				"x": -0.3129990783,
				"y": 1.3678810425,
				"z": 0.1450835579,
				"element": "C" 
			},
			{
				"x": 0.344949752,
				"y": 2.4574517229,
				"z": 0.7290776609,
				"element": "C" 
			},
			{
				"x": 0.2941744779,
				"y": 3.7102658382,
				"z": 0.1179320833,
				"element": "C" 
			},
			{
				"x": -0.4308548688,
				"y": 3.8704690072,
				"z": -1.0611778036,
				"element": "C" 
			},
			{
				"x": -0.497536057,
				"y": 5.4473958176,
				"z": -1.8295238913,
				"element": "Cl" 
			},
			{
				"x": -1.1112501723,
				"y": 2.7950599486,
				"z": -1.6353063048,
				"element": "C" 
			},
			{
				"x": -1.0484217443,
				"y": 1.5420578009,
				"z": -1.0336653204,
				"element": "C" 
			},
			{
				"x": 2.6094735512,
				"y": -0.6745174264,
				"z": 2.0704582865,
				"element": "H" 
			},
			{
				"x": 2.3510166596,
				"y": 0.700573547,
				"z": 1.0468037535,
				"element": "H" 
			},
			{
				"x": 0.6190493807,
				"y": -3.7590104894,
				"z": 2.6517227955,
				"element": "H" 
			},
			{
				"x": -1.7344711179,
				"y": -2.6758334005,
				"z": 1.3266417904,
				"element": "H" 
			},
			{
				"x": 0.869703931,
				"y": 2.3395978857,
				"z": 1.6704575023,
				"element": "H" 
			},
			{
				"x": 0.7996036663,
				"y": 4.5582538059,
				"z": 0.5661616497,
				"element": "H" 
			},
			{
				"x": -1.6789193575,
				"y": 2.9365990935,
				"z": -2.5481358224,
				"element": "H" 
			},
			{
				"x": -1.5727194708,
				"y": 0.6942821948,
				"z": -1.4574489242,
				"element": "H" 
			}
		],
		 "valence_orbital": [ 
			{
				"type": "occ",
				"energy": -0.29191,
				"method": "rhf"
			},
			{
				"type": "occ",
				"energy": -0.2795,
				"method": "rhf"
			},
			{
				"type": "occ",
				"energy": -0.25527,
				"method": "rhf"
			},
			{
				"type": "occ",
				"energy": -0.24098,
				"method": "rhf"
			},
			{
				"type": "occ",
				"energy": -0.22624,
				"method": "rhf"
			},
			{
				"type": "unocc",
				"energy": -0.04576,
				"method": "rhf"
			},
			{
				"type": "unocc",
				"energy": -0.03092,
				"method": "rhf"
			},
			{
				"type": "unocc",
				"energy": -0.02669,
				"method": "rhf"
			},
			{
				"type": "unocc",
				"energy": 0.01967,
				"method": "rhf"
			},
			{
				"type": "unocc",
				"energy": 0.02624,
				"method": "rhf"
			}
		],
		"cosmo_sigma_profile": { 
			"-0.025": 0.0,
			"-0.024": 0.0,
			"-0.023": 0.0,
			"-0.022": 0.0,
			"-0.021": 0.0,
			"-0.02": 0.0,
			"-0.019": 0.0,
			"-0.018": 0.0,
			"-0.017": 0.0,
			"-0.016": 0.0,
			"-0.015": 0.0,
			"-0.014": 0.795996353425,
			"-0.013": 0.979461138041,
			"-0.012": 1.57711721571,
			"-0.011": 1.82242339367,
			"-0.01": 2.29411629308,
			"-0.009": 2.36982047687,
			"-0.008": 5.33268632988,
			"-0.007": 12.7789830126,
			"-0.006": 14.2102568004,
			"-0.005": 10.535194592,
			"-0.004": 11.9336353045,
			"-0.003": 10.6108192155,
			"-0.002": 13.1820670789,
			"-0.001": 16.0959931871,
			"0.0": 16.9508807094,
			"0.001": 22.9148709044,
			"0.002": 27.3394378323,
			"0.003": 18.5308485433,
			"0.004": 13.7944697439,
			"0.005": 9.1004372053,
			"0.006": 3.51200542325,
			"0.007": 3.67624447059,
			"0.008": 3.68429049554,
			"0.009": 2.24967940928,
			"0.01": 3.65857732902,
			"0.011": 3.11938650201,
			"0.012": 3.07520496746,
			"0.013": 2.84262069332,
			"0.014": 1.4812568749,
			"0.015": 0.0117284774749,
			"0.016": 0.0,
			"0.017": 0.0,
			"0.018": 0.0,
			"0.019": 0.0,
			"0.02": 0.0,
			"0.021": 0.0,
			"0.022": 0.0,
			"0.023": 0.0,
			"0.024": 0.0,
			"0.025": 0.0
		}
	}
}
