{
	 "smiles": "CC1=C(C)N=C(N)N=N1", 
	 "Tm": 484.15, 
	 "num_atms": 17, 
	 "gaussian": { 
		 "optdone": 1, 
		 "sigma_profile": "yes", 
		 "theory": "DFT", 
		 "functional": "B3LYP", 
		 "basiset": "6-31G**", 
		 "properties": { 
			 "R2extent": 1474.5132, 
			 "electric_dipole_moment_norm": 2.71951793706, 
			 "electric_quadrupole_moment_norm": 10.1387740822, 
			 "total_energy": -414.343648719, 
			 "HOMO_LUMO_gap": 0.17023, 
			 "cosmo_polarized_energy": -12.57, 
			 "cosmo_cavitation_energy": 20.89, 
			 "cosmo_dispersion_energy": -15.71, 
			 "cosmo_repulsion_energy": 1.3, 
			 "cosmo_total_nonelectrostatic_energy": 6.49, 
			 "SMD_solvation_energy": 0.66 
		},
		"coords": [
			{
				"x": 0.5219826007,
				"y": 0.932859499,
				"z": 2.6451281959,
				"element": "C" 
			},
			{
				"x": 0.1686415872,
				"y": -0.0250529053,
				"z": 1.5406255892,
				"element": "C" 
			},
			{
				"x": 1.084236658,
				"y": -0.9695188994,
				"z": 1.0129167022,
				"element": "C" 
			},
			{
				"x": 2.4891697948,
				"y": -1.0937200312,
				"z": 1.5342191258,
				"element": "C" 
			},
			{
				"x": 0.7162591278,
				"y": -1.7846491423,
				"z": 0.0317150695,
				"element": "N" 
			},
			{
				"x": -0.5541675231,
				"y": -1.6386711204,
				"z": -0.4011287717,
				"element": "C" 
			},
			{
				"x": -0.9519151957,
				"y": -2.4217376914,
				"z": -1.445208734,
				"element": "N" 
			},
			{
				"x": -1.4636877405,
				"y": -0.7740199919,
				"z": 0.0867226814,
				"element": "N" 
			},
			{
				"x": -1.0781062697,
				"y": 0.0357054777,
				"z": 1.0653743624,
				"element": "N" 
			},
			{
				"x": 0.8276621009,
				"y": 0.4079498826,
				"z": 3.5582244896,
				"element": "H" 
			},
			{
				"x": -0.350923196,
				"y": 1.5472142269,
				"z": 2.873071794,
				"element": "H" 
			},
			{
				"x": 1.3499042674,
				"y": 1.5936234443,
				"z": 2.3613245364,
				"element": "H" 
			},
			{
				"x": 3.0382072427,
				"y": -0.1530193694,
				"z": 1.4109292582,
				"element": "H" 
			},
			{
				"x": 3.0125908528,
				"y": -1.8847387951,
				"z": 0.9953521184,
				"element": "H" 
			},
			{
				"x": 2.4932150631,
				"y": -1.3254188767,
				"z": 2.6055488105,
				"element": "H" 
			},
			{
				"x": -0.3857029823,
				"y": -3.2262339655,
				"z": -1.6614287025,
				"element": "H" 
			},
			{
				"x": -1.941766388,
				"y": -2.4640717419,
				"z": -1.6301865253,
				"element": "H" 
			}
		],
		 "valence_orbital": [ 
			{
				"type": "occ",
				"energy": -0.31822,
				"method": "rhf"
			},
			{
				"type": "occ",
				"energy": -0.31045,
				"method": "rhf"
			},
			{
				"type": "occ",
				"energy": -0.30531,
				"method": "rhf"
			},
			{
				"type": "occ",
				"energy": -0.22903,
				"method": "rhf"
			},
			{
				"type": "occ",
				"energy": -0.21945,
				"method": "rhf"
			},
			{
				"type": "unocc",
				"energy": -0.04922,
				"method": "rhf"
			},
			{
				"type": "unocc",
				"energy": -0.00358,
				"method": "rhf"
			},
			{
				"type": "unocc",
				"energy": 0.08828,
				"method": "rhf"
			},
			{
				"type": "unocc",
				"energy": 0.091,
				"method": "rhf"
			},
			{
				"type": "unocc",
				"energy": 0.12853,
				"method": "rhf"
			}
		],
		"cosmo_sigma_profile": { 
			"-0.025": 0.0,
			"-0.024": 0.0,
			"-0.023": 0.0,
			"-0.022": 0.0,
			"-0.021": 0.0,
			"-0.02": 0.0,
			"-0.019": 0.0,
			"-0.018": 0.0,
			"-0.017": 0.0,
			"-0.016": 0.0,
			"-0.015": 0.0,
			"-0.014": 1.30592860042,
			"-0.013": 2.35319292064,
			"-0.012": 0.835185092807,
			"-0.011": 2.29249117714,
			"-0.01": 2.58997015476,
			"-0.009": 1.94514617853,
			"-0.008": 2.01788690931,
			"-0.007": 1.45774456094,
			"-0.006": 5.70969095231,
			"-0.005": 12.2877223114,
			"-0.004": 11.7191029031,
			"-0.003": 14.4890820603,
			"-0.002": 18.9119984281,
			"-0.001": 17.2929968455,
			"0.0": 13.1446311615,
			"0.001": 5.99747718056,
			"0.002": 5.53838955994,
			"0.003": 4.65665699222,
			"0.004": 4.82354384998,
			"0.005": 4.73564795944,
			"0.006": 4.08110303539,
			"0.007": 3.70200639051,
			"0.008": 3.05902080796,
			"0.009": 2.89451897147,
			"0.01": 3.01167486277,
			"0.011": 2.80321786195,
			"0.012": 2.79078090058,
			"0.013": 2.92531876649,
			"0.014": 2.74941946725,
			"0.015": 2.2558447578,
			"0.016": 0.798842635829,
			"0.017": 0.0,
			"0.018": 0.0,
			"0.019": 0.0,
			"0.02": 0.0,
			"0.021": 0.0,
			"0.022": 0.0,
			"0.023": 0.0,
			"0.024": 0.0,
			"0.025": 0.0
		}
	}
}
