{
	 "smiles": "CC1=C(Cl)C(C)=NN1", 
	 "Tm": 391.15, 
	 "num_atms": 15, 
	 "gaussian": { 
		 "optdone": 1, 
		 "sigma_profile": "yes", 
		 "theory": "DFT", 
		 "functional": "B3LYP", 
		 "basiset": "6-31G**", 
		 "properties": { 
			 "R2extent": 1458.4498, 
			 "electric_dipole_moment_norm": 2.55772416222, 
			 "electric_quadrupole_moment_norm": 7.28764180925, 
			 "total_energy": -764.436112767, 
			 "HOMO_LUMO_gap": 0.24931, 
			 "cosmo_polarized_energy": -8.99, 
			 "cosmo_cavitation_energy": 20.53, 
			 "cosmo_dispersion_energy": -15.3, 
			 "cosmo_repulsion_energy": 1.29, 
			 "cosmo_total_nonelectrostatic_energy": 6.52, 
			 "SMD_solvation_energy": 2.57 
		},
		"coords": [
			{
				"x": -1.782626167,
				"y": 1.0389199284,
				"z": -1.4947604351,
				"element": "C" 
			},
			{
				"x": -1.0452928966,
				"y": 0.7844762832,
				"z": -0.2217236845,
				"element": "C" 
			},
			{
				"x": -1.0640716099,
				"y": -0.2804217467,
				"z": 0.6629663452,
				"element": "C" 
			},
			{
				"x": -2.0317446112,
				"y": -1.7161987215,
				"z": 0.5070832913,
				"element": "Cl" 
			},
			{
				"x": -0.1528643544,
				"y": 0.0270248939,
				"z": 1.7039009851,
				"element": "C" 
			},
			{
				"x": 0.19903421,
				"y": -0.7889115907,
				"z": 2.9059939222,
				"element": "C" 
			},
			{
				"x": 0.4036444746,
				"y": 1.2181845808,
				"z": 1.4808135852,
				"element": "N" 
			},
			{
				"x": -0.1478725355,
				"y": 1.6492097057,
				"z": 0.3223939454,
				"element": "N" 
			},
			{
				"x": -1.5665577135,
				"y": 0.2641819578,
				"z": -2.2376544383,
				"element": "H" 
			},
			{
				"x": -1.504870849,
				"y": 2.0058969906,
				"z": -1.9245260657,
				"element": "H" 
			},
			{
				"x": -2.8651075971,
				"y": 1.0404318654,
				"z": -1.3303707496,
				"element": "H" 
			},
			{
				"x": 0.6151491903,
				"y": -1.7607500885,
				"z": 2.6190883594,
				"element": "H" 
			},
			{
				"x": -0.6826670749,
				"y": -0.9844589186,
				"z": 3.525914559,
				"element": "H" 
			},
			{
				"x": 0.9381204794,
				"y": -0.2557051636,
				"z": 3.50730584,
				"element": "H" 
			},
			{
				"x": 0.130127055,
				"y": 2.5453200238,
				"z": -0.0468254597,
				"element": "H" 
			}
		],
		 "valence_orbital": [ 
			{
				"type": "occ",
				"energy": -0.34626,
				"method": "rhf"
			},
			{
				"type": "occ",
				"energy": -0.31944,
				"method": "rhf"
			},
			{
				"type": "occ",
				"energy": -0.28196,
				"method": "rhf"
			},
			{
				"type": "occ",
				"energy": -0.24635,
				"method": "rhf"
			},
			{
				"type": "occ",
				"energy": -0.22893,
				"method": "rhf"
			},
			{
				"type": "unocc",
				"energy": 0.02038,
				"method": "rhf"
			},
			{
				"type": "unocc",
				"energy": 0.04444,
				"method": "rhf"
			},
			{
				"type": "unocc",
				"energy": 0.06264,
				"method": "rhf"
			},
			{
				"type": "unocc",
				"energy": 0.08156,
				"method": "rhf"
			},
			{
				"type": "unocc",
				"energy": 0.11702,
				"method": "rhf"
			}
		],
		"cosmo_sigma_profile": { 
			"-0.025": 0.0,
			"-0.024": 0.0,
			"-0.023": 0.0,
			"-0.022": 0.0,
			"-0.021": 0.0,
			"-0.02": 0.0,
			"-0.019": 0.0,
			"-0.018": 0.0,
			"-0.017": 0.137922718801,
			"-0.016": 1.45242120306,
			"-0.015": 0.960923483175,
			"-0.014": 1.31100400966,
			"-0.013": 1.52269649846,
			"-0.012": 0.947795621095,
			"-0.011": 0.90322468204,
			"-0.01": 1.66119866002,
			"-0.009": 1.05849712018,
			"-0.008": 1.0657680421,
			"-0.007": 1.70620204775,
			"-0.006": 2.85275755675,
			"-0.005": 7.96095514053,
			"-0.004": 9.73653341663,
			"-0.003": 12.0729821941,
			"-0.002": 16.7724149675,
			"-0.001": 16.9405021477,
			"0.0": 13.6584295158,
			"0.001": 10.1146261553,
			"0.002": 9.06754478467,
			"0.003": 13.036735268,
			"0.004": 15.1306983466,
			"0.005": 10.0907655891,
			"0.006": 2.63629712462,
			"0.007": 1.62817542666,
			"0.008": 1.54379084207,
			"0.009": 1.54799271868,
			"0.01": 0.803420199982,
			"0.011": 1.19140898126,
			"0.012": 1.44546257703,
			"0.013": 1.01492675773,
			"0.014": 0.723472266232,
			"0.015": 1.43493848094,
			"0.016": 0.526174597025,
			"0.017": 0.151839403802,
			"0.018": 0.0,
			"0.019": 0.0,
			"0.02": 0.0,
			"0.021": 0.0,
			"0.022": 0.0,
			"0.023": 0.0,
			"0.024": 0.0,
			"0.025": 0.0
		}
	}
}
