{
	 "smiles": "[O-][N+](=O)C1=C(C=C(F)C=C1)C#N", 
	 "Tm": 376.15, 
	 "num_atms": 15, 
	 "gaussian": { 
		 "optdone": 1, 
		 "sigma_profile": "yes", 
		 "theory": "DFT", 
		 "functional": "B3LYP", 
		 "basiset": "6-31G**", 
		 "properties": { 
			 "R2extent": 2555.6578, 
			 "electric_dipole_moment_norm": 5.69845824237, 
			 "electric_quadrupole_moment_norm": 10.2527942552, 
			 "total_energy": -628.204853491, 
			 "HOMO_LUMO_gap": 0.18301, 
			 "cosmo_polarized_energy": -13.38, 
			 "cosmo_cavitation_energy": 22.28, 
			 "cosmo_dispersion_energy": -15.73, 
			 "cosmo_repulsion_energy": 1.22, 
			 "cosmo_total_nonelectrostatic_energy": 7.77, 
			 "SMD_solvation_energy": 7.76 
		},
		"coords": [
			{
				"x": -0.0977728063,
				"y": 2.2789886549,
				"z": -0.1105473942,
				"element": "O" 
			},
			{
				"x": -0.4011232459,
				"y": 1.1110520329,
				"z": -0.3347916588,
				"element": "N" 
			},
			{
				"x": -0.8888650627,
				"y": 0.695362539,
				"z": -1.384750186,
				"element": "O" 
			},
			{
				"x": -0.1643421041,
				"y": 0.1274369296,
				"z": 0.7339913887,
				"element": "C" 
			},
			{
				"x": 0.3911241723,
				"y": 0.5122684751,
				"z": 1.9707143627,
				"element": "C" 
			},
			{
				"x": 0.5903077374,
				"y": -0.4769343818,
				"z": 2.9462119082,
				"element": "C" 
			},
			{
				"x": 0.239020557,
				"y": -1.7925721844,
				"z": 2.6702574832,
				"element": "C" 
			},
			{
				"x": 0.43699091,
				"y": -2.7205188196,
				"z": 3.6140473996,
				"element": "F" 
			},
			{
				"x": -0.3097444681,
				"y": -2.1737424242,
				"z": 1.4489511689,
				"element": "C" 
			},
			{
				"x": -0.5094151157,
				"y": -1.1986169787,
				"z": 0.4787844121,
				"element": "C" 
			},
			{
				"x": 0.7768111418,
				"y": 1.8483521842,
				"z": 2.3247298659,
				"element": "C" 
			},
			{
				"x": 1.1355317841,
				"y": 2.8645498888,
				"z": 2.760981035,
				"element": "N" 
			},
			{
				"x": 1.0148752846,
				"y": -0.2202072166,
				"z": 3.9091307898,
				"element": "H" 
			},
			{
				"x": -0.5701965805,
				"y": -3.211158601,
				"z": 1.2736623273,
				"element": "H" 
			},
			{
				"x": -0.9327022039,
				"y": -1.4424600982,
				"z": -0.4870729025,
				"element": "H" 
			}
		],
		 "valence_orbital": [ 
			{
				"type": "occ",
				"energy": -0.32756,
				"method": "rhf"
			},
			{
				"type": "occ",
				"energy": -0.32394,
				"method": "rhf"
			},
			{
				"type": "occ",
				"energy": -0.30615,
				"method": "rhf"
			},
			{
				"type": "occ",
				"energy": -0.30508,
				"method": "rhf"
			},
			{
				"type": "occ",
				"energy": -0.2984,
				"method": "rhf"
			},
			{
				"type": "unocc",
				"energy": -0.11539,
				"method": "rhf"
			},
			{
				"type": "unocc",
				"energy": -0.07754,
				"method": "rhf"
			},
			{
				"type": "unocc",
				"energy": -0.02392,
				"method": "rhf"
			},
			{
				"type": "unocc",
				"energy": 0.02029,
				"method": "rhf"
			},
			{
				"type": "unocc",
				"energy": 0.05213,
				"method": "rhf"
			}
		],
		"cosmo_sigma_profile": { 
			"-0.025": 0.0,
			"-0.024": 0.0,
			"-0.023": 0.0,
			"-0.022": 0.0,
			"-0.021": 0.0,
			"-0.02": 0.0,
			"-0.019": 0.0,
			"-0.018": 0.0,
			"-0.017": 0.0,
			"-0.016": 0.0,
			"-0.015": 0.0,
			"-0.014": 0.0,
			"-0.013": 0.0,
			"-0.012": 0.0,
			"-0.011": 0.616760355433,
			"-0.01": 3.4843342959,
			"-0.009": 5.54614870979,
			"-0.008": 7.64193216935,
			"-0.007": 6.8045770928,
			"-0.006": 7.50613814343,
			"-0.005": 7.52663930277,
			"-0.004": 14.9802437297,
			"-0.003": 22.1207337767,
			"-0.002": 13.7196445596,
			"-0.001": 8.54955773634,
			"0.0": 5.7044069176,
			"0.001": 4.55160438076,
			"0.002": 10.081742793,
			"0.003": 9.53004837954,
			"0.004": 4.53501432199,
			"0.005": 5.18082074902,
			"0.006": 7.74215448303,
			"0.007": 12.8568241048,
			"0.008": 9.39183575739,
			"0.009": 6.32800102411,
			"0.01": 2.60687064999,
			"0.011": 2.71655905453,
			"0.012": 1.68933586385,
			"0.013": 0.129003177702,
			"0.014": 0.0,
			"0.015": 0.0,
			"0.016": 0.0,
			"0.017": 0.0,
			"0.018": 0.0,
			"0.019": 0.0,
			"0.02": 0.0,
			"0.021": 0.0,
			"0.022": 0.0,
			"0.023": 0.0,
			"0.024": 0.0,
			"0.025": 0.0
		}
	}
}
