{
	 "smiles": "CC1=CC=C(C=C1)N1CCCC1=O", 
	 "Tm": 360.15, 
	 "num_atms": 26, 
	 "gaussian": { 
		 "optdone": 1, 
		 "sigma_profile": "yes", 
		 "theory": "DFT", 
		 "functional": "B3LYP", 
		 "basiset": "6-31G**", 
		 "properties": { 
			 "R2extent": 3678.4451, 
			 "electric_dipole_moment_norm": 3.44778294705, 
			 "electric_quadrupole_moment_norm": 13.611811439, 
			 "total_energy": -557.009428438, 
			 "HOMO_LUMO_gap": 0.20184, 
			 "cosmo_polarized_energy": -10.02, 
			 "cosmo_cavitation_energy": 28.16, 
			 "cosmo_dispersion_energy": -21.12, 
			 "cosmo_repulsion_energy": 1.66, 
			 "cosmo_total_nonelectrostatic_energy": 8.7, 
			 "SMD_solvation_energy": 4.75 
		},
		"coords": [
			{
				"x": -0.0367769154,
				"y": 2.6338467319,
				"z": 4.2131609314,
				"element": "C" 
			},
			{
				"x": 0.3316931129,
				"y": 2.109252012,
				"z": 2.8456719055,
				"element": "C" 
			},
			{
				"x": 1.1776780394,
				"y": 1.0003102697,
				"z": 2.6988847647,
				"element": "C" 
			},
			{
				"x": 1.5409206923,
				"y": 0.5046836105,
				"z": 1.4513488474,
				"element": "C" 
			},
			{
				"x": 1.0523055021,
				"y": 1.1184373761,
				"z": 0.2820930325,
				"element": "C" 
			},
			{
				"x": 0.2007425332,
				"y": 2.226261632,
				"z": 0.4146423011,
				"element": "C" 
			},
			{
				"x": -0.1472410963,
				"y": 2.7068622298,
				"z": 1.6776050579,
				"element": "C" 
			},
			{
				"x": 1.4081982076,
				"y": 0.6565941207,
				"z": -1.0093768492,
				"element": "N" 
			},
			{
				"x": 1.0556768527,
				"y": 1.4177859,
				"z": -2.2138507159,
				"element": "C" 
			},
			{
				"x": 1.8682681159,
				"y": 0.743321758,
				"z": -3.3329774076,
				"element": "C" 
			},
			{
				"x": 2.0307948552,
				"y": -0.6959465115,
				"z": -2.8362445695,
				"element": "C" 
			},
			{
				"x": 1.9655043868,
				"y": -0.5801981262,
				"z": -1.314585316,
				"element": "C" 
			},
			{
				"x": 2.3226125933,
				"y": -1.436540685,
				"z": -0.5226569929,
				"element": "O" 
			},
			{
				"x": -0.4568849192,
				"y": 1.8438673749,
				"z": 4.8460939081,
				"element": "H" 
			},
			{
				"x": -0.776613196,
				"y": 3.4367182087,
				"z": 4.14669748,
				"element": "H" 
			},
			{
				"x": 0.8389047456,
				"y": 3.0332005346,
				"z": 4.7391566089,
				"element": "H" 
			},
			{
				"x": 1.5682819854,
				"y": 0.5070945705,
				"z": 3.5862384875,
				"element": "H" 
			},
			{
				"x": 2.1857216191,
				"y": -0.3578783017,
				"z": 1.3672101344,
				"element": "H" 
			},
			{
				"x": -0.2081742952,
				"y": 2.7180157185,
				"z": -0.4602838313,
				"element": "H" 
			},
			{
				"x": -0.8102777236,
				"y": 3.5658402265,
				"z": 1.7471823845,
				"element": "H" 
			},
			{
				"x": 1.3149152808,
				"y": 2.4729830976,
				"z": -2.0868596757,
				"element": "H" 
			},
			{
				"x": -0.0254698216,
				"y": 1.3586562996,
				"z": -2.4050365503,
				"element": "H" 
			},
			{
				"x": 1.3717041646,
				"y": 0.8234210222,
				"z": -4.3028593651,
				"element": "H" 
			},
			{
				"x": 2.8476246227,
				"y": 1.2249043652,
				"z": -3.417275505,
				"element": "H" 
			},
			{
				"x": 1.2032389617,
				"y": -1.3400442145,
				"z": -3.1597562165,
				"element": "H" 
			},
			{
				"x": 2.9604516961,
				"y": -1.1834492203,
				"z": -3.1365228489,
				"element": "H" 
			}
		],
		 "valence_orbital": [ 
			{
				"type": "occ",
				"energy": -0.33326,
				"method": "rhf"
			},
			{
				"type": "occ",
				"energy": -0.28419,
				"method": "rhf"
			},
			{
				"type": "occ",
				"energy": -0.24666,
				"method": "rhf"
			},
			{
				"type": "occ",
				"energy": -0.2424,
				"method": "rhf"
			},
			{
				"type": "occ",
				"energy": -0.20824,
				"method": "rhf"
			},
			{
				"type": "unocc",
				"energy": -0.0064,
				"method": "rhf"
			},
			{
				"type": "unocc",
				"energy": 0.00488,
				"method": "rhf"
			},
			{
				"type": "unocc",
				"energy": 0.04598,
				"method": "rhf"
			},
			{
				"type": "unocc",
				"energy": 0.08155,
				"method": "rhf"
			},
			{
				"type": "unocc",
				"energy": 0.09831,
				"method": "rhf"
			}
		],
		"cosmo_sigma_profile": { 
			"-0.025": 0.0,
			"-0.024": 0.0,
			"-0.023": 0.0,
			"-0.022": 0.0,
			"-0.021": 0.0,
			"-0.02": 0.0,
			"-0.019": 0.0,
			"-0.018": 0.0,
			"-0.017": 0.0,
			"-0.016": 0.0,
			"-0.015": 0.0,
			"-0.014": 0.0,
			"-0.013": 0.0,
			"-0.012": 0.0,
			"-0.011": 0.0,
			"-0.01": 0.0,
			"-0.009": 0.0,
			"-0.008": 0.0,
			"-0.007": 0.11892609323,
			"-0.006": 5.53675408402,
			"-0.005": 19.1368689973,
			"-0.004": 31.7710761511,
			"-0.003": 27.786499855,
			"-0.002": 22.2300045953,
			"-0.001": 19.9274257188,
			"0.0": 16.7411960036,
			"0.001": 12.2337667473,
			"0.002": 10.2361872281,
			"0.003": 8.45159749502,
			"0.004": 9.57522423543,
			"0.005": 10.555212804,
			"0.006": 10.0217626865,
			"0.007": 3.13948848608,
			"0.008": 1.92720302593,
			"0.009": 1.2196321463,
			"0.01": 1.78398081464,
			"0.011": 1.58052584041,
			"0.012": 2.98886894584,
			"0.013": 3.22946767731,
			"0.014": 2.14734742945,
			"0.015": 0.1929696255,
			"0.016": 0.0,
			"0.017": 0.0,
			"0.018": 0.0,
			"0.019": 0.0,
			"0.02": 0.0,
			"0.021": 0.0,
			"0.022": 0.0,
			"0.023": 0.0,
			"0.024": 0.0,
			"0.025": 0.0
		}
	}
}
