{
	 "smiles": "FC(F)(F)C1=CC(Cl)=C(C(Cl)=C1)S(Cl)(=O)=O", 
	 "Tm": 321.15, 
	 "num_atms": 18, 
	 "gaussian": { 
		 "optdone": 1, 
		 "sigma_profile": "yes", 
		 "theory": "DFT", 
		 "functional": "B3LYP", 
		 "basiset": "6-31G**", 
		 "properties": { 
			 "R2extent": 6050.9487, 
			 "electric_dipole_moment_norm": 3.43135012641, 
			 "electric_quadrupole_moment_norm": 15.9029650855, 
			 "total_energy": -2496.58667877, 
			 "HOMO_LUMO_gap": 0.18004, 
			 "cosmo_polarized_energy": -8.77, 
			 "cosmo_cavitation_energy": 31.01, 
			 "cosmo_dispersion_energy": -22.82, 
			 "cosmo_repulsion_energy": 1.67, 
			 "cosmo_total_nonelectrostatic_energy": 9.86, 
			 "SMD_solvation_energy": 4.81 
		},
		"coords": [
			{
				"x": -2.7394605767,
				"y": 0.1228048311,
				"z": -1.7745613177,
				"element": "F" 
			},
			{
				"x": -2.5528025959,
				"y": -0.4011024757,
				"z": -0.5473744078,
				"element": "C" 
			},
			{
				"x": -3.4252615046,
				"y": 0.1857437474,
				"z": 0.2944922371,
				"element": "F" 
			},
			{
				"x": -2.8702301707,
				"y": -1.7097720616,
				"z": -0.613650532,
				"element": "F" 
			},
			{
				"x": -1.1261619269,
				"y": -0.2176585047,
				"z": -0.0822150633,
				"element": "C" 
			},
			{
				"x": -0.8523008284,
				"y": -0.0832693942,
				"z": 1.2721895001,
				"element": "C" 
			},
			{
				"x": 0.4668615007,
				"y": 0.0338381662,
				"z": 1.7179252921,
				"element": "C" 
			},
			{
				"x": 0.6420847861,
				"y": 0.2171898413,
				"z": 3.4404830184,
				"element": "Cl" 
			},
			{
				"x": 1.5358047863,
				"y": 0.0035478846,
				"z": 0.7935923833,
				"element": "C" 
			},
			{
				"x": 1.2276104892,
				"y": -0.1147650828,
				"z": -0.5825807231,
				"element": "C" 
			},
			{
				"x": 2.4302207644,
				"y": -0.0959381016,
				"z": -1.8414333165,
				"element": "Cl" 
			},
			{
				"x": -0.0925254276,
				"y": -0.2263484139,
				"z": -1.0124039215,
				"element": "C" 
			},
			{
				"x": 3.2829315093,
				"y": 0.0667601897,
				"z": 1.3168539919,
				"element": "S" 
			},
			{
				"x": 3.822431882,
				"y": 1.9964619311,
				"z": 0.6197631514,
				"element": "Cl" 
			},
			{
				"x": 3.3888308602,
				"y": 0.1282713826,
				"z": 2.7622380763,
				"element": "O" 
			},
			{
				"x": 4.0290092216,
				"y": -0.9141674989,
				"z": 0.5467873234,
				"element": "O" 
			},
			{
				"x": -1.6558703291,
				"y": -0.0564824643,
				"z": 1.9971287296,
				"element": "H" 
			},
			{
				"x": -0.30047244,
				"y": -0.307813976,
				"z": -2.0718344218,
				"element": "H" 
			}
		],
		 "valence_orbital": [ 
			{
				"type": "occ",
				"energy": -0.33422,
				"method": "rhf"
			},
			{
				"type": "occ",
				"energy": -0.32639,
				"method": "rhf"
			},
			{
				"type": "occ",
				"energy": -0.32316,
				"method": "rhf"
			},
			{
				"type": "occ",
				"energy": -0.31097,
				"method": "rhf"
			},
			{
				"type": "occ",
				"energy": -0.28805,
				"method": "rhf"
			},
			{
				"type": "unocc",
				"energy": -0.10801,
				"method": "rhf"
			},
			{
				"type": "unocc",
				"energy": -0.08091,
				"method": "rhf"
			},
			{
				"type": "unocc",
				"energy": -0.06785,
				"method": "rhf"
			},
			{
				"type": "unocc",
				"energy": -0.02764,
				"method": "rhf"
			},
			{
				"type": "unocc",
				"energy": 0.0191,
				"method": "rhf"
			}
		],
		"cosmo_sigma_profile": { 
			"-0.025": 0.0,
			"-0.024": 0.0,
			"-0.023": 0.0,
			"-0.022": 0.0,
			"-0.021": 0.0,
			"-0.02": 0.0,
			"-0.019": 0.0,
			"-0.018": 0.0,
			"-0.017": 0.0,
			"-0.016": 0.0,
			"-0.015": 0.0,
			"-0.014": 0.0,
			"-0.013": 0.0,
			"-0.012": 0.0,
			"-0.011": 0.0,
			"-0.01": 1.2222929887,
			"-0.009": 3.39958392164,
			"-0.008": 4.5646764165,
			"-0.007": 4.8458030933,
			"-0.006": 5.33085621952,
			"-0.005": 9.6109359871,
			"-0.004": 16.635708919,
			"-0.003": 26.3338307333,
			"-0.002": 19.3847037712,
			"-0.001": 17.1350831942,
			"0.0": 18.0122805273,
			"0.001": 29.2217235318,
			"0.002": 48.3337324437,
			"0.003": 21.2725622578,
			"0.004": 4.59204642829,
			"0.005": 4.14795826373,
			"0.006": 5.55264842318,
			"0.007": 10.3833483922,
			"0.008": 7.2613358806,
			"0.009": 0.149601013883,
			"0.01": 0.0,
			"0.011": 0.0,
			"0.012": 0.0,
			"0.013": 0.0,
			"0.014": 0.0,
			"0.015": 0.0,
			"0.016": 0.0,
			"0.017": 0.0,
			"0.018": 0.0,
			"0.019": 0.0,
			"0.02": 0.0,
			"0.021": 0.0,
			"0.022": 0.0,
			"0.023": 0.0,
			"0.024": 0.0,
			"0.025": 0.0
		}
	}
}
