{
	 "smiles": "FC(F)(F)C(=NS(=O)(=O)C1=CC=CC=C1)N1CCN(CC1)C=O", 
	 "Tm": 388.15, 
	 "num_atms": 37, 
	 "gaussian": { 
		 "optdone": 1, 
		 "sigma_profile": "yes", 
		 "theory": "DFT", 
		 "functional": "B3LYP", 
		 "basiset": "6-31G**", 
		 "properties": { 
			 "R2extent": 9100.6337, 
			 "electric_dipole_moment_norm": 2.51886899421, 
			 "electric_quadrupole_moment_norm": 25.1512493264, 
			 "total_energy": -1591.36650459, 
			 "HOMO_LUMO_gap": 0.19961, 
			 "cosmo_polarized_energy": -20.0, 
			 "cosmo_cavitation_energy": 42.18, 
			 "cosmo_dispersion_energy": -29.12, 
			 "cosmo_repulsion_energy": 2.11, 
			 "cosmo_total_nonelectrostatic_energy": 15.17, 
			 "SMD_solvation_energy": 7.53 
		},
		"coords": [
			{
				"x": 3.0519227339,
				"y": -1.042470439,
				"z": -1.8617772462,
				"element": "F" 
			},
			{
				"x": 2.544681461,
				"y": -0.97115809,
				"z": -0.6364511449,
				"element": "C" 
			},
			{
				"x": 3.2897714496,
				"y": -0.0883619932,
				"z": 0.0691283619,
				"element": "F" 
			},
			{
				"x": 2.6908955072,
				"y": -2.1854262144,
				"z": -0.0605846158,
				"element": "F" 
			},
			{
				"x": 1.0551294896,
				"y": -0.5312494584,
				"z": -0.6511406915,
				"element": "C" 
			},
			{
				"x": 0.7153535266,
				"y": -0.0719751761,
				"z": -1.8161721397,
				"element": "N" 
			},
			{
				"x": -0.6720347388,
				"y": 0.7367963409,
				"z": -2.264326142,
				"element": "S" 
			},
			{
				"x": -1.7551303249,
				"y": -0.225755854,
				"z": -2.5341681393,
				"element": "O" 
			},
			{
				"x": -0.928941764,
				"y": 1.8653001657,
				"z": -1.3502050928,
				"element": "O" 
			},
			{
				"x": -0.1298016128,
				"y": 1.4093128479,
				"z": -3.831012345,
				"element": "C" 
			},
			{
				"x": -0.2420294682,
				"y": 0.626502037,
				"z": -4.9811521619,
				"element": "C" 
			},
			{
				"x": 0.1720006044,
				"y": 1.1617523605,
				"z": -6.200313556,
				"element": "C" 
			},
			{
				"x": 0.6837866062,
				"y": 2.4607168782,
				"z": -6.2589216463,
				"element": "C" 
			},
			{
				"x": 0.7798642475,
				"y": 3.2340101945,
				"z": -5.1000047481,
				"element": "C" 
			},
			{
				"x": 0.3702889884,
				"y": 2.7108459762,
				"z": -3.8731007027,
				"element": "C" 
			},
			{
				"x": 0.3713759315,
				"y": -0.7163345301,
				"z": 0.5026982223,
				"element": "N" 
			},
			{
				"x": 1.0302225961,
				"y": -1.0027372562,
				"z": 1.8059735606,
				"element": "C" 
			},
			{
				"x": 0.1679971778,
				"y": -0.4508950379,
				"z": 2.9663243184,
				"element": "C" 
			},
			{
				"x": -0.5431832862,
				"y": 0.7420745093,
				"z": 2.5467959526,
				"element": "N" 
			},
			{
				"x": -1.5174258855,
				"y": 0.5591531101,
				"z": 1.4732032981,
				"element": "C" 
			},
			{
				"x": -1.0926125024,
				"y": -0.6490278113,
				"z": 0.6173460159,
				"element": "C" 
			},
			{
				"x": -0.1222003459,
				"y": 1.9764074919,
				"z": 2.9613873335,
				"element": "C" 
			},
			{
				"x": 0.75852591,
				"y": 2.1735003886,
				"z": 3.7824728207,
				"element": "O" 
			},
			{
				"x": -0.6562330149,
				"y": -0.3735084236,
				"z": -4.9173541797,
				"element": "H" 
			},
			{
				"x": 0.090215402,
				"y": 0.5665565523,
				"z": -7.1046804122,
				"element": "H" 
			},
			{
				"x": 1.0028148741,
				"y": 2.8730440462,
				"z": -7.2116900809,
				"element": "H" 
			},
			{
				"x": 1.1695610069,
				"y": 4.2461542583,
				"z": -5.1500825925,
				"element": "H" 
			},
			{
				"x": 0.4231715374,
				"y": 3.2978793434,
				"z": -2.9630544339,
				"element": "H" 
			},
			{
				"x": 2.0012194629,
				"y": -0.5139106478,
				"z": 1.8211036271,
				"element": "H" 
			},
			{
				"x": 1.1799352764,
				"y": -2.0812000071,
				"z": 1.9264475479,
				"element": "H" 
			},
			{
				"x": 0.811811022,
				"y": -0.1791591036,
				"z": 3.8040295998,
				"element": "H" 
			},
			{
				"x": -0.5488948392,
				"y": -1.2037800309,
				"z": 3.3138305237,
				"element": "H" 
			},
			{
				"x": -2.5237648439,
				"y": 0.3680964684,
				"z": 1.8725945021,
				"element": "H" 
			},
			{
				"x": -1.5498326049,
				"y": 1.4566028556,
				"z": 0.8530059705,
				"element": "H" 
			},
			{
				"x": -1.4080542641,
				"y": -1.5835414374,
				"z": 1.0969427494,
				"element": "H" 
			},
			{
				"x": -1.5654415298,
				"y": -0.6287784822,
				"z": -0.3617747303,
				"element": "H" 
			},
			{
				"x": -0.6853637861,
				"y": 2.7925641681,
				"z": 2.4707823971,
				"element": "H" 
			}
		],
		 "valence_orbital": [ 
			{
				"type": "occ",
				"energy": -0.26813,
				"method": "rhf"
			},
			{
				"type": "occ",
				"energy": -0.26494,
				"method": "rhf"
			},
			{
				"type": "occ",
				"energy": -0.26168,
				"method": "rhf"
			},
			{
				"type": "occ",
				"energy": -0.25866,
				"method": "rhf"
			},
			{
				"type": "occ",
				"energy": -0.25072,
				"method": "rhf"
			},
			{
				"type": "unocc",
				"energy": -0.05111,
				"method": "rhf"
			},
			{
				"type": "unocc",
				"energy": -0.03177,
				"method": "rhf"
			},
			{
				"type": "unocc",
				"energy": -0.017,
				"method": "rhf"
			},
			{
				"type": "unocc",
				"energy": 0.01853,
				"method": "rhf"
			},
			{
				"type": "unocc",
				"energy": 0.06079,
				"method": "rhf"
			}
		],
		"cosmo_sigma_profile": { 
			"-0.025": 0.0,
			"-0.024": 0.0,
			"-0.023": 0.0,
			"-0.022": 0.0,
			"-0.021": 0.0,
			"-0.02": 0.0,
			"-0.019": 0.0,
			"-0.018": 0.0,
			"-0.017": 0.0,
			"-0.016": 0.0,
			"-0.015": 0.0,
			"-0.014": 0.0,
			"-0.013": 0.0,
			"-0.012": 0.0,
			"-0.011": 0.0,
			"-0.01": 0.0,
			"-0.009": 0.825263924864,
			"-0.008": 4.98844048969,
			"-0.007": 20.0027975986,
			"-0.006": 28.3580476112,
			"-0.005": 27.7978800556,
			"-0.004": 24.7260144553,
			"-0.003": 21.9240754501,
			"-0.002": 18.552515631,
			"-0.001": 17.9997250227,
			"0.0": 18.6651566081,
			"0.001": 30.350272999,
			"0.002": 35.2745000912,
			"0.003": 20.4758019273,
			"0.004": 10.4691151132,
			"0.005": 6.2806689379,
			"0.006": 5.56399762004,
			"0.007": 6.9287774367,
			"0.008": 4.82181179629,
			"0.009": 6.55266363102,
			"0.01": 8.19904511919,
			"0.011": 6.63413635906,
			"0.012": 3.01866922671,
			"0.013": 5.37805903529,
			"0.014": 2.59381985497,
			"0.015": 0.475425437028,
			"0.016": 0.0,
			"0.017": 0.0,
			"0.018": 0.0,
			"0.019": 0.0,
			"0.02": 0.0,
			"0.021": 0.0,
			"0.022": 0.0,
			"0.023": 0.0,
			"0.024": 0.0,
			"0.025": 0.0
		}
	}
}
