{
	 "smiles": "CC(=O)NC1=CC=C(C=C1)S(=O)(=O)NC1=CC=C(C=C1)N(=O)=O", 
	 "Tm": 513.15, 
	 "num_atms": 36, 
	 "gaussian": { 
		 "optdone": 1, 
		 "sigma_profile": "yes", 
		 "theory": "DFT", 
		 "functional": "B3LYP", 
		 "basiset": "6-31G**", 
		 "properties": { 
			 "R2extent": 10582.2766, 
			 "electric_dipole_moment_norm": 5.73567339115, 
			 "electric_quadrupole_moment_norm": 45.5256621829, 
			 "total_energy": -1479.7404036, 
			 "HOMO_LUMO_gap": 0.15821, 
			 "cosmo_polarized_energy": -28.16, 
			 "cosmo_cavitation_energy": 43.41, 
			 "cosmo_dispersion_energy": -30.87, 
			 "cosmo_repulsion_energy": 2.31, 
			 "cosmo_total_nonelectrostatic_energy": 14.84, 
			 "SMD_solvation_energy": 9.6 
		},
		"coords": [
			{
				"x": -0.5653962987,
				"y": 4.9002160894,
				"z": -4.7427368733,
				"element": "C" 
			},
			{
				"x": -0.228874498,
				"y": 3.4706543117,
				"z": -4.3497409012,
				"element": "C" 
			},
			{
				"x": 0.602934579,
				"y": 2.8085503494,
				"z": -4.9479697627,
				"element": "O" 
			},
			{
				"x": -0.9255138589,
				"y": 3.0111974649,
				"z": -3.2416546084,
				"element": "N" 
			},
			{
				"x": -0.8220875147,
				"y": 1.7744316505,
				"z": -2.5885017116,
				"element": "C" 
			},
			{
				"x": 0.035198461,
				"y": 0.7451105913,
				"z": -3.0207409554,
				"element": "C" 
			},
			{
				"x": 0.0789142981,
				"y": -0.4522410794,
				"z": -2.3146956396,
				"element": "C" 
			},
			{
				"x": -0.7227788721,
				"y": -0.634413461,
				"z": -1.1843126854,
				"element": "C" 
			},
			{
				"x": -1.5872160172,
				"y": 0.3759834864,
				"z": -0.7538123947,
				"element": "C" 
			},
			{
				"x": -1.6320082803,
				"y": 1.5728553886,
				"z": -1.4558150149,
				"element": "C" 
			},
			{
				"x": -0.6231294269,
				"y": -2.1655957877,
				"z": -0.2732215946,
				"element": "S" 
			},
			{
				"x": -0.147057511,
				"y": -3.2160530524,
				"z": -1.1704980856,
				"element": "O" 
			},
			{
				"x": -1.8412489195,
				"y": -2.2963059502,
				"z": 0.5240951814,
				"element": "O" 
			},
			{
				"x": 0.6800582993,
				"y": -1.9830697602,
				"z": 0.8185094985,
				"element": "N" 
			},
			{
				"x": 0.7783466286,
				"y": -1.02392335,
				"z": 1.8403712339,
				"element": "C" 
			},
			{
				"x": -0.3284638616,
				"y": -0.6682605648,
				"z": 2.6337212154,
				"element": "C" 
			},
			{
				"x": -0.1780272641,
				"y": 0.2663113482,
				"z": 3.650039253,
				"element": "C" 
			},
			{
				"x": 1.0753702459,
				"y": 0.8291188107,
				"z": 3.8898832993,
				"element": "C" 
			},
			{
				"x": 2.1888642128,
				"y": 0.4734417842,
				"z": 3.1293343672,
				"element": "C" 
			},
			{
				"x": 2.0345330216,
				"y": -0.4449436301,
				"z": 2.1008969187,
				"element": "C" 
			},
			{
				"x": 1.2280417354,
				"y": 1.8116544488,
				"z": 4.9640009681,
				"element": "N" 
			},
			{
				"x": 0.223101982,
				"y": 2.1181435001,
				"z": 5.6074407348,
				"element": "O" 
			},
			{
				"x": 2.3523940205,
				"y": 2.2767329648,
				"z": 5.1592037518,
				"element": "O" 
			},
			{
				"x": -1.5766174342,
				"y": 5.2039524402,
				"z": -4.4566654302,
				"element": "H" 
			},
			{
				"x": -0.4500249309,
				"y": 4.9959986597,
				"z": -5.822993149,
				"element": "H" 
			},
			{
				"x": 0.1472849684,
				"y": 5.5826890012,
				"z": -4.2667991969,
				"element": "H" 
			},
			{
				"x": -1.5876810511,
				"y": 3.6562520577,
				"z": -2.8346089345,
				"element": "H" 
			},
			{
				"x": 0.6443169561,
				"y": 0.8968841315,
				"z": -3.8998340225,
				"element": "H" 
			},
			{
				"x": 0.7211797857,
				"y": -1.2571348746,
				"z": -2.6562778542,
				"element": "H" 
			},
			{
				"x": -2.2274908146,
				"y": 0.2158227355,
				"z": 0.1055511894,
				"element": "H" 
			},
			{
				"x": -2.3065525026,
				"y": 2.359737445,
				"z": -1.127481235,
				"element": "H" 
			},
			{
				"x": 1.548842218,
				"y": -2.2334558978,
				"z": 0.3587979426,
				"element": "H" 
			},
			{
				"x": -1.286230755,
				"y": -1.1417965485,
				"z": 2.4596181453,
				"element": "H" 
			},
			{
				"x": -1.0150565702,
				"y": 0.5546569022,
				"z": 4.2736762811,
				"element": "H" 
			},
			{
				"x": 3.1479498522,
				"y": 0.9279397533,
				"z": 3.3435767284,
				"element": "H" 
			},
			{
				"x": 2.8904251172,
				"y": -0.7176413587,
				"z": 1.489743341,
				"element": "H" 
			}
		],
		 "valence_orbital": [ 
			{
				"type": "occ",
				"energy": -0.28604,
				"method": "rhf"
			},
			{
				"type": "occ",
				"energy": -0.28286,
				"method": "rhf"
			},
			{
				"type": "occ",
				"energy": -0.27684,
				"method": "rhf"
			},
			{
				"type": "occ",
				"energy": -0.26029,
				"method": "rhf"
			},
			{
				"type": "occ",
				"energy": -0.24619,
				"method": "rhf"
			},
			{
				"type": "unocc",
				"energy": -0.08798,
				"method": "rhf"
			},
			{
				"type": "unocc",
				"energy": -0.05601,
				"method": "rhf"
			},
			{
				"type": "unocc",
				"energy": -0.03716,
				"method": "rhf"
			},
			{
				"type": "unocc",
				"energy": -0.02948,
				"method": "rhf"
			},
			{
				"type": "unocc",
				"energy": -0.00403,
				"method": "rhf"
			}
		],
		"cosmo_sigma_profile": { 
			"-0.025": 0.0,
			"-0.024": 0.0,
			"-0.023": 0.0,
			"-0.022": 0.0,
			"-0.021": 0.0,
			"-0.02": 0.0,
			"-0.019": 0.0,
			"-0.018": 0.0,
			"-0.017": 0.373910501235,
			"-0.016": 1.52403859494,
			"-0.015": 2.87680887034,
			"-0.014": 3.29269553133,
			"-0.013": 2.52368248701,
			"-0.012": 3.077397551,
			"-0.011": 2.51022598446,
			"-0.01": 3.00821695664,
			"-0.009": 3.71735924101,
			"-0.008": 7.3923520743,
			"-0.007": 12.2915463306,
			"-0.006": 18.3973165138,
			"-0.005": 17.575975671,
			"-0.004": 18.8429376035,
			"-0.003": 19.8651717096,
			"-0.002": 22.5291952133,
			"-0.001": 22.3867717112,
			"0.0": 25.9165009226,
			"0.001": 33.5882353792,
			"0.002": 25.939465071,
			"0.003": 13.8656478125,
			"0.004": 8.48549987202,
			"0.005": 6.35429427182,
			"0.006": 9.17101410271,
			"0.007": 11.2985702654,
			"0.008": 14.1144288524,
			"0.009": 10.9189661455,
			"0.01": 13.0957609815,
			"0.011": 7.58366349736,
			"0.012": 2.76215133228,
			"0.013": 2.15907797094,
			"0.014": 0.751175145518,
			"0.015": 0.0,
			"0.016": 0.0,
			"0.017": 0.0,
			"0.018": 0.0,
			"0.019": 0.0,
			"0.02": 0.0,
			"0.021": 0.0,
			"0.022": 0.0,
			"0.023": 0.0,
			"0.024": 0.0,
			"0.025": 0.0
		}
	}
}
