{
	 "smiles": "C#CCOCC1=CC(COCC#C)=C(COCC#C)C=C1COCC#C", 
	 "Tm": 339.15, 
	 "num_atms": 48, 
	 "gaussian": { 
		 "optdone": 1, 
		 "sigma_profile": "yes", 
		 "theory": "DFT", 
		 "functional": "B3LYP", 
		 "basiset": "6-31G**", 
		 "properties": { 
			 "R2extent": 11465.0317, 
			 "electric_dipole_moment_norm": 1.46820509807, 
			 "electric_quadrupole_moment_norm": 17.4690392083, 
			 "total_energy": -1152.11451733, 
			 "HOMO_LUMO_gap": 0.21534, 
			 "cosmo_polarized_energy": -22.0, 
			 "cosmo_cavitation_energy": 56.36, 
			 "cosmo_dispersion_energy": -33.05, 
			 "cosmo_repulsion_energy": 2.56, 
			 "cosmo_total_nonelectrostatic_energy": 25.87, 
			 "SMD_solvation_energy": 14.76 
		},
		"coords": [
			{
				"x": -2.7849598641,
				"y": 3.692145667,
				"z": 3.4812889815,
				"element": "C" 
			},
			{
				"x": -1.789576425,
				"y": 3.012516575,
				"z": 3.3993412737,
				"element": "C" 
			},
			{
				"x": -0.5846630481,
				"y": 2.1781655356,
				"z": 3.2886013306,
				"element": "C" 
			},
			{
				"x": 0.3574997947,
				"y": 2.6565452267,
				"z": 2.335001318,
				"element": "O" 
			},
			{
				"x": -0.1083743755,
				"y": 2.6163879402,
				"z": 0.9871496578,
				"element": "C" 
			},
			{
				"x": -0.1412890355,
				"y": 1.2119531205,
				"z": 0.4061609864,
				"element": "C" 
			},
			{
				"x": 0.7976025709,
				"y": 0.2716674843,
				"z": 0.8383559959,
				"element": "C" 
			},
			{
				"x": 0.8651066189,
				"y": -1.0179777057,
				"z": 0.3030663862,
				"element": "C" 
			},
			{
				"x": 1.9167003849,
				"y": -1.9755051674,
				"z": 0.804643105,
				"element": "C" 
			},
			{
				"x": 1.2823377796,
				"y": -3.1413859864,
				"z": 1.3224493288,
				"element": "O" 
			},
			{
				"x": 2.2226525082,
				"y": -4.1105349229,
				"z": 1.7617256314,
				"element": "C" 
			},
			{
				"x": 1.5237312699,
				"y": -5.2971320146,
				"z": 2.247856777,
				"element": "C" 
			},
			{
				"x": 0.9734951826,
				"y": -6.291105822,
				"z": 2.6537439002,
				"element": "C" 
			},
			{
				"x": -0.0453836884,
				"y": -1.3908240225,
				"z": -0.7026073289,
				"element": "C" 
			},
			{
				"x": -0.0459879903,
				"y": -2.779095477,
				"z": -1.3244498533,
				"element": "C" 
			},
			{
				"x": -0.608278813,
				"y": -2.8111301095,
				"z": -2.6300346518,
				"element": "O" 
			},
			{
				"x": 0.2607521448,
				"y": -2.2702444697,
				"z": -3.6198512966,
				"element": "C" 
			},
			{
				"x": -0.3829276195,
				"y": -2.3380706365,
				"z": -4.9294999218,
				"element": "C" 
			},
			{
				"x": -0.8895289575,
				"y": -2.3764928582,
				"z": -6.0240238258,
				"element": "C" 
			},
			{
				"x": -0.9949727313,
				"y": -0.4563679437,
				"z": -1.1220119731,
				"element": "C" 
			},
			{
				"x": -1.0575991704,
				"y": 0.8360313654,
				"z": -0.5931399995,
				"element": "C" 
			},
			{
				"x": -2.1209781706,
				"y": 1.7912297851,
				"z": -1.0958589252,
				"element": "C" 
			},
			{
				"x": -1.6243091461,
				"y": 3.0126138475,
				"z": -1.6481319312,
				"element": "O" 
			},
			{
				"x": -1.0635192211,
				"y": 2.9055570249,
				"z": -2.9496990148,
				"element": "C" 
			},
			{
				"x": 0.3451210246,
				"y": 2.4865318972,
				"z": -2.9888207648,
				"element": "C" 
			},
			{
				"x": 1.5119971984,
				"y": 2.1814176189,
				"z": -3.0582418109,
				"element": "C" 
			},
			{
				"x": -3.6579046542,
				"y": 4.2975910859,
				"z": 3.5637911115,
				"element": "H" 
			},
			{
				"x": -0.0536578357,
				"y": 2.1667316294,
				"z": 4.2463485407,
				"element": "H" 
			},
			{
				"x": -0.8806349051,
				"y": 1.1423368855,
				"z": 3.063005191,
				"element": "H" 
			},
			{
				"x": 0.5975873283,
				"y": 3.2320611881,
				"z": 0.4203697288,
				"element": "H" 
			},
			{
				"x": -1.0856222885,
				"y": 3.1055439457,
				"z": 0.9080332468,
				"element": "H" 
			},
			{
				"x": 1.4946493373,
				"y": 0.5645231604,
				"z": 1.6186765352,
				"element": "H" 
			},
			{
				"x": 2.605315205,
				"y": -2.2625674821,
				"z": -0.0110323668,
				"element": "H" 
			},
			{
				"x": 2.5267650153,
				"y": -1.491969429,
				"z": 1.583225984,
				"element": "H" 
			},
			{
				"x": 2.9018364599,
				"y": -4.391958205,
				"z": 0.9377536925,
				"element": "H" 
			},
			{
				"x": 2.8560643019,
				"y": -3.6971304319,
				"z": 2.565365578,
				"element": "H" 
			},
			{
				"x": 0.4759819297,
				"y": -7.1632904182,
				"z": 3.0102101444,
				"element": "H" 
			},
			{
				"x": 0.9708602609,
				"y": -3.199269459,
				"z": -1.3378861002,
				"element": "H" 
			},
			{
				"x": -0.6568822471,
				"y": -3.459977097,
				"z": -0.7241932065,
				"element": "H" 
			},
			{
				"x": 1.2070776769,
				"y": -2.8376828847,
				"z": -3.6421241637,
				"element": "H" 
			},
			{
				"x": 0.5173798741,
				"y": -1.224087532,
				"z": -3.3904745393,
				"element": "H" 
			},
			{
				"x": -1.3450132416,
				"y": -2.4190768747,
				"z": -6.9861598851,
				"element": "H" 
			},
			{
				"x": -1.6966651058,
				"y": -0.7536450971,
				"z": -1.8965093311,
				"element": "H" 
			},
			{
				"x": -2.7553473339,
				"y": 1.2779945718,
				"z": -1.8335611676,
				"element": "H" 
			},
			{
				"x": -2.767655746,
				"y": 2.1111499717,
				"z": -0.2711193433,
				"element": "H" 
			},
			{
				"x": -1.665350027,
				"y": 2.226239645,
				"z": -3.5739926371,
				"element": "H" 
			},
			{
				"x": -1.1452430597,
				"y": 3.9067303146,
				"z": -3.3886272897,
				"element": "H" 
			},
			{
				"x": 2.5406108343,
				"y": 1.9079565605,
				"z": -3.105813097,
				"element": "H" 
			}
		],
		 "valence_orbital": [ 
			{
				"type": "occ",
				"energy": -0.2635,
				"method": "rhf"
			},
			{
				"type": "occ",
				"energy": -0.26247,
				"method": "rhf"
			},
			{
				"type": "occ",
				"energy": -0.25598,
				"method": "rhf"
			},
			{
				"type": "occ",
				"energy": -0.24628,
				"method": "rhf"
			},
			{
				"type": "occ",
				"energy": -0.2352,
				"method": "rhf"
			},
			{
				"type": "unocc",
				"energy": -0.01986,
				"method": "rhf"
			},
			{
				"type": "unocc",
				"energy": -0.00605,
				"method": "rhf"
			},
			{
				"type": "unocc",
				"energy": 0.02827,
				"method": "rhf"
			},
			{
				"type": "unocc",
				"energy": 0.03248,
				"method": "rhf"
			},
			{
				"type": "unocc",
				"energy": 0.03269,
				"method": "rhf"
			}
		],
		"cosmo_sigma_profile": { 
			"-0.025": 0.0,
			"-0.024": 0.0,
			"-0.023": 0.0,
			"-0.022": 0.0,
			"-0.021": 0.0,
			"-0.02": 0.0,
			"-0.019": 0.0,
			"-0.018": 0.0,
			"-0.017": 0.0,
			"-0.016": 0.0,
			"-0.015": 0.0,
			"-0.014": 0.0,
			"-0.013": 0.0,
			"-0.012": 2.50707729462,
			"-0.011": 4.84313784647,
			"-0.01": 5.06841061845,
			"-0.009": 3.34123293381,
			"-0.008": 6.51370030148,
			"-0.007": 10.1344466311,
			"-0.006": 31.5326129204,
			"-0.005": 40.8940814251,
			"-0.004": 37.2726904028,
			"-0.003": 28.7813659579,
			"-0.002": 22.3325114291,
			"-0.001": 26.7088184708,
			"0.0": 23.4482706709,
			"0.001": 21.6366305008,
			"0.002": 25.9542727591,
			"0.003": 26.7783291456,
			"0.004": 25.8550029298,
			"0.005": 29.6794321189,
			"0.006": 33.7358031037,
			"0.007": 19.6961170332,
			"0.008": 6.29119282877,
			"0.009": 4.5298587384,
			"0.01": 4.14715912153,
			"0.011": 4.73958926736,
			"0.012": 4.04207310444,
			"0.013": 0.50092838246,
			"0.014": 0.0,
			"0.015": 0.0,
			"0.016": 0.0,
			"0.017": 0.0,
			"0.018": 0.0,
			"0.019": 0.0,
			"0.02": 0.0,
			"0.021": 0.0,
			"0.022": 0.0,
			"0.023": 0.0,
			"0.024": 0.0,
			"0.025": 0.0
		}
	}
}
