{
	 "smiles": "C1COCOC1", 
	 "Tm": 229.65, 
	 "num_atms": 14, 
	 "gaussian": { 
		 "optdone": 1, 
		 "sigma_profile": "yes", 
		 "theory": "DFT", 
		 "functional": "B3LYP", 
		 "basiset": "6-31G**", 
		 "properties": { 
			 "R2extent": 692.3907, 
			 "electric_dipole_moment_norm": 1.14626893005, 
			 "electric_quadrupole_moment_norm": 3.86551734701, 
			 "total_energy": -307.663401606, 
			 "HOMO_LUMO_gap": 0.33716, 
			 "cosmo_polarized_energy": -4.91, 
			 "cosmo_cavitation_energy": 15.79, 
			 "cosmo_dispersion_energy": -12.65, 
			 "cosmo_repulsion_energy": 1.1, 
			 "cosmo_total_nonelectrostatic_energy": 4.24, 
			 "SMD_solvation_energy": 2.89 
		},
		"coords": [
			{
				"x": 1.2585365216,
				"y": -0.7883541907,
				"z": 0.9729403,
				"element": "C" 
			},
			{
				"x": 0.1097279407,
				"y": -0.6838852661,
				"z": 1.9955470414,
				"element": "C" 
			},
			{
				"x": -1.0229748101,
				"y": -0.07551727,
				"z": 1.3740241139,
				"element": "O" 
			},
			{
				"x": -0.7733615575,
				"y": 1.2787911027,
				"z": 1.0643838552,
				"element": "C" 
			},
			{
				"x": 0.5702788983,
				"y": 1.5200761146,
				"z": 0.7055451479,
				"element": "O" 
			},
			{
				"x": 1.1298169996,
				"y": 0.4067551656,
				"z": 0.0078454494,
				"element": "C" 
			},
			{
				"x": 1.2024169512,
				"y": -1.7270257951,
				"z": 0.4105249723,
				"element": "H" 
			},
			{
				"x": 2.221985541,
				"y": -0.7727160984,
				"z": 1.4945609258,
				"element": "H" 
			},
			{
				"x": 0.4243130461,
				"y": -0.0981014908,
				"z": 2.8717030109,
				"element": "H" 
			},
			{
				"x": -0.2229723831,
				"y": -1.663908975,
				"z": 2.3453709122,
				"element": "H" 
			},
			{
				"x": -1.4625849072,
				"y": 1.52387053,
				"z": 0.2413634746,
				"element": "H" 
			},
			{
				"x": -0.9692814076,
				"y": 1.9342575271,
				"z": 1.9271885365,
				"element": "H" 
			},
			{
				"x": 0.5002016294,
				"y": 0.1413728206,
				"z": -0.8540746172,
				"element": "H" 
			},
			{
				"x": 2.0992975376,
				"y": 0.7388858254,
				"z": -0.3707231229,
				"element": "H" 
			}
		],
		 "valence_orbital": [ 
			{
				"type": "occ",
				"energy": -0.36206,
				"method": "rhf"
			},
			{
				"type": "occ",
				"energy": -0.36134,
				"method": "rhf"
			},
			{
				"type": "occ",
				"energy": -0.29481,
				"method": "rhf"
			},
			{
				"type": "occ",
				"energy": -0.27678,
				"method": "rhf"
			},
			{
				"type": "occ",
				"energy": -0.24604,
				"method": "rhf"
			},
			{
				"type": "unocc",
				"energy": 0.09112,
				"method": "rhf"
			},
			{
				"type": "unocc",
				"energy": 0.11255,
				"method": "rhf"
			},
			{
				"type": "unocc",
				"energy": 0.12701,
				"method": "rhf"
			},
			{
				"type": "unocc",
				"energy": 0.12824,
				"method": "rhf"
			},
			{
				"type": "unocc",
				"energy": 0.14558,
				"method": "rhf"
			}
		],
		"cosmo_sigma_profile": { 
			"-0.025": 0.0,
			"-0.024": 0.0,
			"-0.023": 0.0,
			"-0.022": 0.0,
			"-0.021": 0.0,
			"-0.02": 0.0,
			"-0.019": 0.0,
			"-0.018": 0.0,
			"-0.017": 0.0,
			"-0.016": 0.0,
			"-0.015": 0.0,
			"-0.014": 0.0,
			"-0.013": 0.0,
			"-0.012": 0.0,
			"-0.011": 0.0,
			"-0.01": 0.0,
			"-0.009": 0.0,
			"-0.008": 0.0,
			"-0.007": 0.0,
			"-0.006": 0.254485024403,
			"-0.005": 7.52584817424,
			"-0.004": 17.8995610139,
			"-0.003": 25.6079963015,
			"-0.002": 19.1580393872,
			"-0.001": 10.1763901572,
			"0.0": 6.81619048245,
			"0.001": 3.392077869,
			"0.002": 3.12027525371,
			"0.003": 3.62941632231,
			"0.004": 2.95232013836,
			"0.005": 2.55115508429,
			"0.006": 2.17333175762,
			"0.007": 2.58754926349,
			"0.008": 2.39794118282,
			"0.009": 2.26720327146,
			"0.01": 2.01679776675,
			"0.011": 2.25291391875,
			"0.012": 3.1766704716,
			"0.013": 2.75557908733,
			"0.014": 0.0267748216618,
			"0.015": 0.0,
			"0.016": 0.0,
			"0.017": 0.0,
			"0.018": 0.0,
			"0.019": 0.0,
			"0.02": 0.0,
			"0.021": 0.0,
			"0.022": 0.0,
			"0.023": 0.0,
			"0.024": 0.0,
			"0.025": 0.0
		}
	}
}
