{
	 "smiles": "ClC1=CC=C(C=C1)C1=CN2C(SC3=C2C=CC=C3)=N1", 
	 "Tm": 432.15, 
	 "num_atms": 28, 
	 "gaussian": { 
		 "optdone": 1, 
		 "sigma_profile": "yes", 
		 "theory": "DFT", 
		 "functional": "B3LYP", 
		 "basiset": "6-31G**", 
		 "properties": { 
			 "R2extent": 9757.8465, 
			 "electric_dipole_moment_norm": 5.65734430453, 
			 "electric_quadrupole_moment_norm": 11.6500020163, 
			 "total_energy": -1544.90900501, 
			 "HOMO_LUMO_gap": 0.16583, 
			 "cosmo_polarized_energy": -11.31, 
			 "cosmo_cavitation_energy": 36.27, 
			 "cosmo_dispersion_energy": -27.52, 
			 "cosmo_repulsion_energy": 2.0, 
			 "cosmo_total_nonelectrostatic_energy": 10.76, 
			 "SMD_solvation_energy": 3.76 
		},
		"coords": [
			{
				"x": -0.2585099366,
				"y": -3.2269105938,
				"z": 6.6460955704,
				"element": "Cl" 
			},
			{
				"x": -0.0059057288,
				"y": -2.4218095622,
				"z": 5.1026511311,
				"element": "C" 
			},
			{
				"x": -0.4611932153,
				"y": -1.1147588128,
				"z": 4.9279078306,
				"element": "C" 
			},
			{
				"x": -0.2584667459,
				"y": -0.4827747357,
				"z": 3.7043589867,
				"element": "C" 
			},
			{
				"x": 0.3947454082,
				"y": -1.1375691773,
				"z": 2.646765045,
				"element": "C" 
			},
			{
				"x": 0.8420443802,
				"y": -2.4530228805,
				"z": 2.8520465899,
				"element": "C" 
			},
			{
				"x": 0.6456421069,
				"y": -3.0966554141,
				"z": 4.0710596351,
				"element": "C" 
			},
			{
				"x": 0.6161020214,
				"y": -0.4852543869,
				"z": 1.3510062808,
				"element": "C" 
			},
			{
				"x": 0.2565908633,
				"y": 0.7905641862,
				"z": 0.9533006327,
				"element": "C" 
			},
			{
				"x": 0.6967157404,
				"y": 0.9031119928,
				"z": -0.3543884606,
				"element": "N" 
			},
			{
				"x": 1.2908074605,
				"y": -0.3030116926,
				"z": -0.6640071661,
				"element": "C" 
			},
			{
				"x": 1.9117378054,
				"y": -0.3281603563,
				"z": -2.3118869616,
				"element": "S" 
			},
			{
				"x": 1.3318940393,
				"y": 1.3383956171,
				"z": -2.5343245945,
				"element": "C" 
			},
			{
				"x": 0.7010702938,
				"y": 1.8487658769,
				"z": -1.3797655388,
				"element": "C" 
			},
			{
				"x": 0.1794015402,
				"y": 3.1414770519,
				"z": -1.358285393,
				"element": "C" 
			},
			{
				"x": 0.2960024408,
				"y": 3.9212957967,
				"z": -2.5087598139,
				"element": "C" 
			},
			{
				"x": 0.9209986793,
				"y": 3.4195362553,
				"z": -3.6568867769,
				"element": "C" 
			},
			{
				"x": 1.4435313432,
				"y": 2.1248045257,
				"z": -3.6785222542,
				"element": "C" 
			},
			{
				"x": 1.2661546986,
				"y": -1.1590343347,
				"z": 0.3199673888,
				"element": "N" 
			},
			{
				"x": -0.9664002237,
				"y": -0.6017623634,
				"z": 5.7387942218,
				"element": "H" 
			},
			{
				"x": -0.6167622777,
				"y": 0.5347513704,
				"z": 3.578518289,
				"element": "H" 
			},
			{
				"x": 1.3467731173,
				"y": -2.9632130613,
				"z": 2.0393328485,
				"element": "H" 
			},
			{
				"x": 0.9940677931,
				"y": -4.1125878171,
				"z": 4.2215930061,
				"element": "H" 
			},
			{
				"x": -0.2506303968,
				"y": 1.5960370471,
				"z": 1.4581941842,
				"element": "H" 
			},
			{
				"x": -0.3042797638,
				"y": 3.5268682285,
				"z": -0.4667326522,
				"element": "H" 
			},
			{
				"x": -0.1044095566,
				"y": 4.9300801245,
				"z": -2.5099991113,
				"element": "H" 
			},
			{
				"x": 1.0022801806,
				"y": 4.0413492616,
				"z": -4.5427247364,
				"element": "H" 
			},
			{
				"x": 1.9274979327,
				"y": 1.738287854,
				"z": -4.5697081813,
				"element": "H" 
			}
		],
		 "valence_orbital": [ 
			{
				"type": "occ",
				"energy": -0.27424,
				"method": "rhf"
			},
			{
				"type": "occ",
				"energy": -0.25972,
				"method": "rhf"
			},
			{
				"type": "occ",
				"energy": -0.25802,
				"method": "rhf"
			},
			{
				"type": "occ",
				"energy": -0.23053,
				"method": "rhf"
			},
			{
				"type": "occ",
				"energy": -0.2077,
				"method": "rhf"
			},
			{
				"type": "unocc",
				"energy": -0.04187,
				"method": "rhf"
			},
			{
				"type": "unocc",
				"energy": -0.02528,
				"method": "rhf"
			},
			{
				"type": "unocc",
				"energy": -0.01202,
				"method": "rhf"
			},
			{
				"type": "unocc",
				"energy": -0.00718,
				"method": "rhf"
			},
			{
				"type": "unocc",
				"energy": -0.00263,
				"method": "rhf"
			}
		],
		"cosmo_sigma_profile": { 
			"-0.025": 0.0,
			"-0.024": 0.0,
			"-0.023": 0.0,
			"-0.022": 0.0,
			"-0.021": 0.0,
			"-0.02": 0.0,
			"-0.019": 0.0,
			"-0.018": 0.0,
			"-0.017": 0.0,
			"-0.016": 0.0,
			"-0.015": 0.0,
			"-0.014": 0.0,
			"-0.013": 0.0,
			"-0.012": 0.0,
			"-0.011": 0.0,
			"-0.01": 1.12456589174,
			"-0.009": 4.49955587585,
			"-0.008": 6.75185486311,
			"-0.007": 10.1164673165,
			"-0.006": 16.8244900623,
			"-0.005": 16.1818878811,
			"-0.004": 14.1991121267,
			"-0.003": 14.4711247067,
			"-0.002": 16.9446132264,
			"-0.001": 20.3613701216,
			"0.0": 20.9258780962,
			"0.001": 28.2768107785,
			"0.002": 31.3725900766,
			"0.003": 37.3304356048,
			"0.004": 35.195126776,
			"0.005": 12.5427499156,
			"0.006": 2.38259152552,
			"0.007": 1.77663744188,
			"0.008": 0.982326209558,
			"0.009": 1.35120783852,
			"0.01": 1.04608514376,
			"0.011": 1.20096545959,
			"0.012": 1.06037699294,
			"0.013": 1.04159926913,
			"0.014": 0.25902279624,
			"0.015": 0.0,
			"0.016": 0.0,
			"0.017": 0.0,
			"0.018": 0.0,
			"0.019": 0.0,
			"0.02": 0.0,
			"0.021": 0.0,
			"0.022": 0.0,
			"0.023": 0.0,
			"0.024": 0.0,
			"0.025": 0.0
		}
	}
}
