{
	 "smiles": "CC(C)CCC1=CC=C(C=C1)S(Cl)(=O)=O", 
	 "Tm": 310.15, 
	 "num_atms": 30, 
	 "gaussian": { 
		 "optdone": 1, 
		 "sigma_profile": "yes", 
		 "theory": "DFT", 
		 "functional": "B3LYP", 
		 "basiset": "6-31G**", 
		 "properties": { 
			 "R2extent": 11016.61, 
			 "electric_dipole_moment_norm": 6.26011647575, 
			 "electric_quadrupole_moment_norm": 33.3008698516, 
			 "total_energy": -1436.99235782, 
			 "HOMO_LUMO_gap": 0.18989, 
			 "cosmo_polarized_energy": -9.24, 
			 "cosmo_cavitation_energy": 36.08, 
			 "cosmo_dispersion_energy": -25.54, 
			 "cosmo_repulsion_energy": 1.98, 
			 "cosmo_total_nonelectrostatic_energy": 12.52, 
			 "SMD_solvation_energy": 4.54 
		},
		"coords": [
			{
				"x": -0.4750875733,
				"y": -2.5516934176,
				"z": -0.6909438575,
				"element": "C" 
			},
			{
				"x": -0.5351839004,
				"y": -1.11715629,
				"z": -0.1445070108,
				"element": "C" 
			},
			{
				"x": -1.1478350932,
				"y": -1.1045270211,
				"z": 1.2645196327,
				"element": "C" 
			},
			{
				"x": 0.8670019776,
				"y": -0.477787684,
				"z": -0.1810624334,
				"element": "C" 
			},
			{
				"x": 0.9335228727,
				"y": 1.0336853517,
				"z": 0.1412368717,
				"element": "C" 
			},
			{
				"x": 0.2256926047,
				"y": 1.9080367364,
				"z": -0.8713018299,
				"element": "C" 
			},
			{
				"x": -1.0032137439,
				"y": 2.5162971957,
				"z": -0.5749598627,
				"element": "C" 
			},
			{
				"x": -1.6623046567,
				"y": 3.3112652773,
				"z": -1.5106322982,
				"element": "C" 
			},
			{
				"x": -1.0725989174,
				"y": 3.4914224201,
				"z": -2.7613116111,
				"element": "C" 
			},
			{
				"x": 0.150298268,
				"y": 2.9053100692,
				"z": -3.0945020874,
				"element": "C" 
			},
			{
				"x": 0.7874988657,
				"y": 2.1162074782,
				"z": -2.1423355781,
				"element": "C" 
			},
			{
				"x": -1.9101956084,
				"y": 4.4920555636,
				"z": -3.9753566963,
				"element": "S" 
			},
			{
				"x": -1.1005589073,
				"y": 6.4301049615,
				"z": -3.5649088404,
				"element": "Cl" 
			},
			{
				"x": -3.3280363316,
				"y": 4.573012029,
				"z": -3.6459743665,
				"element": "O" 
			},
			{
				"x": -1.4391559805,
				"y": 4.136381092,
				"z": -5.3084026149,
				"element": "O" 
			},
			{
				"x": -1.4677783786,
				"y": -3.0139721655,
				"z": -0.6989245324,
				"element": "H" 
			},
			{
				"x": -0.0869989655,
				"y": -2.574192359,
				"z": -1.7150427871,
				"element": "H" 
			},
			{
				"x": 0.1779964838,
				"y": -3.1803183315,
				"z": -0.073074198,
				"element": "H" 
			},
			{
				"x": -1.1913973917,
				"y": -0.5344221941,
				"z": -0.8064813333,
				"element": "H" 
			},
			{
				"x": -2.140319273,
				"y": -1.5671696652,
				"z": 1.2619907698,
				"element": "H" 
			},
			{
				"x": -0.5214601617,
				"y": -1.6676778747,
				"z": 1.9674565621,
				"element": "H" 
			},
			{
				"x": -1.2624416043,
				"y": -0.0909294773,
				"z": 1.6622066226,
				"element": "H" 
			},
			{
				"x": 1.3040640919,
				"y": -0.6395097296,
				"z": -1.1751659616,
				"element": "H" 
			},
			{
				"x": 1.5181478057,
				"y": -1.0073708259,
				"z": 0.5279355987,
				"element": "H" 
			},
			{
				"x": 1.9897213776,
				"y": 1.3267290481,
				"z": 0.1830789392,
				"element": "H" 
			},
			{
				"x": 0.5224721707,
				"y": 1.2234057071,
				"z": 1.1380574149,
				"element": "H" 
			},
			{
				"x": -1.4511099063,
				"y": 2.3680146974,
				"z": 0.4033848928,
				"element": "H" 
			},
			{
				"x": -2.6151610489,
				"y": 3.7757854229,
				"z": -1.2830198173,
				"element": "H" 
			},
			{
				"x": 0.5821047979,
				"y": 3.0625392307,
				"z": -4.0765281146,
				"element": "H" 
			},
			{
				"x": 1.7405161264,
				"y": 1.6556747546,
				"z": -2.3881314732,
				"element": "H" 
			}
		],
		 "valence_orbital": [ 
			{
				"type": "occ",
				"energy": -0.32638,
				"method": "rhf"
			},
			{
				"type": "occ",
				"energy": -0.32487,
				"method": "rhf"
			},
			{
				"type": "occ",
				"energy": -0.30883,
				"method": "rhf"
			},
			{
				"type": "occ",
				"energy": -0.28415,
				"method": "rhf"
			},
			{
				"type": "occ",
				"energy": -0.2762,
				"method": "rhf"
			},
			{
				"type": "unocc",
				"energy": -0.08631,
				"method": "rhf"
			},
			{
				"type": "unocc",
				"energy": -0.03993,
				"method": "rhf"
			},
			{
				"type": "unocc",
				"energy": -0.03456,
				"method": "rhf"
			},
			{
				"type": "unocc",
				"energy": 0.0539,
				"method": "rhf"
			},
			{
				"type": "unocc",
				"energy": 0.06379,
				"method": "rhf"
			}
		],
		"cosmo_sigma_profile": { 
			"-0.025": 0.0,
			"-0.024": 0.0,
			"-0.023": 0.0,
			"-0.022": 0.0,
			"-0.021": 0.0,
			"-0.02": 0.0,
			"-0.019": 0.0,
			"-0.018": 0.0,
			"-0.017": 0.0,
			"-0.016": 0.0,
			"-0.015": 0.0,
			"-0.014": 0.0,
			"-0.013": 0.0,
			"-0.012": 0.0,
			"-0.011": 0.0,
			"-0.01": 0.0,
			"-0.009": 0.0648710910686,
			"-0.008": 2.05835917009,
			"-0.007": 6.23246409661,
			"-0.006": 9.92869890925,
			"-0.005": 13.2963164447,
			"-0.004": 13.4520916857,
			"-0.003": 16.5426060731,
			"-0.002": 32.8253978007,
			"-0.001": 38.9323350671,
			"0.0": 35.2928074401,
			"0.001": 35.1651904072,
			"0.002": 27.9707909662,
			"0.003": 14.1833992307,
			"0.004": 12.9440448836,
			"0.005": 3.00582686604,
			"0.006": 3.65236119102,
			"0.007": 5.30114873091,
			"0.008": 9.90235125126,
			"0.009": 5.8379643633,
			"0.01": 0.182822689338,
			"0.011": 0.0,
			"0.012": 0.0,
			"0.013": 0.0,
			"0.014": 0.0,
			"0.015": 0.0,
			"0.016": 0.0,
			"0.017": 0.0,
			"0.018": 0.0,
			"0.019": 0.0,
			"0.02": 0.0,
			"0.021": 0.0,
			"0.022": 0.0,
			"0.023": 0.0,
			"0.024": 0.0,
			"0.025": 0.0
		}
	}
}
