{
	 "smiles": "NC(=O)CS(=O)(=O)C1=CC=CC=C1", 
	 "Tm": 429.15, 
	 "num_atms": 22, 
	 "gaussian": { 
		 "optdone": 1, 
		 "sigma_profile": "yes", 
		 "theory": "DFT", 
		 "functional": "B3LYP", 
		 "basiset": "6-31G**", 
		 "properties": { 
			 "R2extent": 3455.2108, 
			 "electric_dipole_moment_norm": 3.15745467268, 
			 "electric_quadrupole_moment_norm": 21.8583877452, 
			 "total_energy": -988.836679654, 
			 "HOMO_LUMO_gap": 0.21114, 
			 "cosmo_polarized_energy": -17.98, 
			 "cosmo_cavitation_energy": 27.56, 
			 "cosmo_dispersion_energy": -20.13, 
			 "cosmo_repulsion_energy": 1.56, 
			 "cosmo_total_nonelectrostatic_energy": 9.0, 
			 "SMD_solvation_energy": 4.83 
		},
		"coords": [
			{
				"x": 2.4249891117,
				"y": 1.3702784264,
				"z": -1.5635738652,
				"element": "N" 
			},
			{
				"x": 1.4362221606,
				"y": 1.9579021051,
				"z": -2.286792694,
				"element": "C" 
			},
			{
				"x": 1.3419669113,
				"y": 3.1600860847,
				"z": -2.4773754381,
				"element": "O" 
			},
			{
				"x": 0.445913131,
				"y": 0.9908928468,
				"z": -2.9546851922,
				"element": "C" 
			},
			{
				"x": -0.2925676808,
				"y": -0.3202206566,
				"z": -1.9194291152,
				"element": "S" 
			},
			{
				"x": -1.176401694,
				"y": -1.0999896058,
				"z": -2.7973465703,
				"element": "O" 
			},
			{
				"x": 0.813424024,
				"y": -0.9793990275,
				"z": -1.1900472296,
				"element": "O" 
			},
			{
				"x": -1.3112262083,
				"y": 0.5533528954,
				"z": -0.7252473424,
				"element": "C" 
			},
			{
				"x": -2.648917101,
				"y": 0.8027250386,
				"z": -1.0403621648,
				"element": "C" 
			},
			{
				"x": -3.439681379,
				"y": 1.4890558478,
				"z": -0.1191374194,
				"element": "C" 
			},
			{
				"x": -2.8930961336,
				"y": 1.9124365942,
				"z": 1.0949769047,
				"element": "C" 
			},
			{
				"x": -1.5561130551,
				"y": 1.6466612021,
				"z": 1.4000255342,
				"element": "C" 
			},
			{
				"x": -0.7535577743,
				"y": 0.9603699641,
				"z": 0.488576329,
				"element": "C" 
			},
			{
				"x": 3.0785168825,
				"y": 1.9772592373,
				"z": -1.0919595881,
				"element": "H" 
			},
			{
				"x": 2.3689131632,
				"y": 0.3892202562,
				"z": -1.3166616,
				"element": "H" 
			},
			{
				"x": -0.3723937824,
				"y": 1.5720464072,
				"z": -3.3800259005,
				"element": "H" 
			},
			{
				"x": 0.9408093284,
				"y": 0.4274458355,
				"z": -3.7534206543,
				"element": "H" 
			},
			{
				"x": -3.0579216699,
				"y": 0.4464234448,
				"z": -1.979675585,
				"element": "H" 
			},
			{
				"x": -4.482414303,
				"y": 1.6876026745,
				"z": -0.3467769617,
				"element": "H" 
			},
			{
				"x": -3.5133097992,
				"y": 2.4463325802,
				"z": 1.8088449912,
				"element": "H" 
			},
			{
				"x": -1.1389006472,
				"y": 1.9683557847,
				"z": 2.3492128845,
				"element": "H" 
			},
			{
				"x": 0.2812465151,
				"y": 0.7298620642,
				"z": 0.7147806775,
				"element": "H" 
			}
		],
		 "valence_orbital": [ 
			{
				"type": "occ",
				"energy": -0.30344,
				"method": "rhf"
			},
			{
				"type": "occ",
				"energy": -0.28325,
				"method": "rhf"
			},
			{
				"type": "occ",
				"energy": -0.27878,
				"method": "rhf"
			},
			{
				"type": "occ",
				"energy": -0.27661,
				"method": "rhf"
			},
			{
				"type": "occ",
				"energy": -0.25991,
				"method": "rhf"
			},
			{
				"type": "unocc",
				"energy": -0.04877,
				"method": "rhf"
			},
			{
				"type": "unocc",
				"energy": -0.02944,
				"method": "rhf"
			},
			{
				"type": "unocc",
				"energy": 0.00083,
				"method": "rhf"
			},
			{
				"type": "unocc",
				"energy": 0.05658,
				"method": "rhf"
			},
			{
				"type": "unocc",
				"energy": 0.06781,
				"method": "rhf"
			}
		],
		"cosmo_sigma_profile": { 
			"-0.025": 0.0,
			"-0.024": 0.0,
			"-0.023": 0.0,
			"-0.022": 0.0,
			"-0.021": 0.0,
			"-0.02": 0.0,
			"-0.019": 0.0,
			"-0.018": 0.0,
			"-0.017": 0.0,
			"-0.016": 0.0,
			"-0.015": 0.23596242695,
			"-0.014": 1.08325545622,
			"-0.013": 1.16463613663,
			"-0.012": 1.30415578601,
			"-0.011": 1.47123698459,
			"-0.01": 4.72073257453,
			"-0.009": 5.81441216176,
			"-0.008": 5.37865824953,
			"-0.007": 13.1234641137,
			"-0.006": 16.1708308373,
			"-0.005": 14.8858364054,
			"-0.004": 12.1659889618,
			"-0.003": 11.9886492917,
			"-0.002": 11.1560189472,
			"-0.001": 11.1584751129,
			"0.0": 11.3281888288,
			"0.001": 13.1773964028,
			"0.002": 15.1263667223,
			"0.003": 14.2243662533,
			"0.004": 4.35882672795,
			"0.005": 3.07229289887,
			"0.006": 4.50610361778,
			"0.007": 4.1395186032,
			"0.008": 3.84141186211,
			"0.009": 4.45142681624,
			"0.01": 7.21764870492,
			"0.011": 9.70330726743,
			"0.012": 5.18967264432,
			"0.013": 6.09459402614,
			"0.014": 1.65585092054,
			"0.015": 0.0,
			"0.016": 0.0,
			"0.017": 0.0,
			"0.018": 0.0,
			"0.019": 0.0,
			"0.02": 0.0,
			"0.021": 0.0,
			"0.022": 0.0,
			"0.023": 0.0,
			"0.024": 0.0,
			"0.025": 0.0
		}
	}
}
