{
	 "smiles": "O=CC1=CNN=C1C1=CC=CC=C1", 
	 "Tm": 420.15, 
	 "num_atms": 21, 
	 "gaussian": { 
		 "optdone": 1, 
		 "sigma_profile": "yes", 
		 "theory": "DFT", 
		 "functional": "B3LYP", 
		 "basiset": "6-31G**", 
		 "properties": { 
			 "R2extent": 3571.6308, 
			 "electric_dipole_moment_norm": 2.53061107442, 
			 "electric_quadrupole_moment_norm": 23.0655225558, 
			 "total_energy": -570.585076098, 
			 "HOMO_LUMO_gap": 0.1882, 
			 "cosmo_polarized_energy": -14.37, 
			 "cosmo_cavitation_energy": 25.91, 
			 "cosmo_dispersion_energy": -18.99, 
			 "cosmo_repulsion_energy": 1.5, 
			 "cosmo_total_nonelectrostatic_energy": 8.41, 
			 "SMD_solvation_energy": 4.79 
		},
		"coords": [
			{
				"x": 0.4032172663,
				"y": 2.0542266883,
				"z": 4.4450177392,
				"element": "O" 
			},
			{
				"x": 0.0972683195,
				"y": 1.5053555167,
				"z": 3.3978378177,
				"element": "C" 
			},
			{
				"x": -0.7247623796,
				"y": 0.2976520575,
				"z": 3.3274528807,
				"element": "C" 
			},
			{
				"x": -1.3669071036,
				"y": -0.2732702652,
				"z": 4.4209091337,
				"element": "C" 
			},
			{
				"x": -2.1024720656,
				"y": -1.2897551915,
				"z": 3.9370712463,
				"element": "N" 
			},
			{
				"x": -1.9937836748,
				"y": -1.4501366313,
				"z": 2.5953459234,
				"element": "N" 
			},
			{
				"x": -1.1535234919,
				"y": -0.488308732,
				"z": 2.2051090317,
				"element": "C" 
			},
			{
				"x": -0.8003318262,
				"y": -0.3583565589,
				"z": 0.7788858161,
				"element": "C" 
			},
			{
				"x": -1.7592625785,
				"y": -0.64863594,
				"z": -0.2060212533,
				"element": "C" 
			},
			{
				"x": -1.4405297323,
				"y": -0.5400256813,
				"z": -1.5575307875,
				"element": "C" 
			},
			{
				"x": -0.1604689825,
				"y": -0.1394872659,
				"z": -1.9492928817,
				"element": "C" 
			},
			{
				"x": 0.8026619575,
				"y": 0.1406883661,
				"z": -0.9790511838,
				"element": "C" 
			},
			{
				"x": 0.4879155564,
				"y": 0.0279823399,
				"z": 0.3752653852,
				"element": "C" 
			},
			{
				"x": 0.422165262,
				"y": 1.9220565332,
				"z": 2.4235117725,
				"element": "H" 
			},
			{
				"x": -1.3450999031,
				"y": 0.0017430405,
				"z": 5.4647781972,
				"element": "H" 
			},
			{
				"x": -2.6890937113,
				"y": -1.9282262377,
				"z": 4.4529787817,
				"element": "H" 
			},
			{
				"x": -2.7525584328,
				"y": -0.9551561374,
				"z": 0.1043601138,
				"element": "H" 
			},
			{
				"x": -2.1939612011,
				"y": -0.7636347518,
				"z": -2.3074099284,
				"element": "H" 
			},
			{
				"x": 0.0855331345,
				"y": -0.0516744729,
				"z": -3.003563888,
				"element": "H" 
			},
			{
				"x": 1.8048538425,
				"y": 0.4371771736,
				"z": -1.2746797841,
				"element": "H" 
			},
			{
				"x": 1.2554397447,
				"y": 0.2099861502,
				"z": 1.1208258674,
				"element": "H" 
			}
		],
		 "valence_orbital": [ 
			{
				"type": "occ",
				"energy": -0.2952,
				"method": "rhf"
			},
			{
				"type": "occ",
				"energy": -0.26165,
				"method": "rhf"
			},
			{
				"type": "occ",
				"energy": -0.25627,
				"method": "rhf"
			},
			{
				"type": "occ",
				"energy": -0.247,
				"method": "rhf"
			},
			{
				"type": "occ",
				"energy": -0.23592,
				"method": "rhf"
			},
			{
				"type": "unocc",
				"energy": -0.04772,
				"method": "rhf"
			},
			{
				"type": "unocc",
				"energy": -0.02352,
				"method": "rhf"
			},
			{
				"type": "unocc",
				"energy": -0.00573,
				"method": "rhf"
			},
			{
				"type": "unocc",
				"energy": 0.02885,
				"method": "rhf"
			},
			{
				"type": "unocc",
				"energy": 0.06607,
				"method": "rhf"
			}
		],
		"cosmo_sigma_profile": { 
			"-0.025": 0.0,
			"-0.024": 0.0,
			"-0.023": 0.0,
			"-0.022": 0.0,
			"-0.021": 0.0,
			"-0.02": 0.0,
			"-0.019": 0.0,
			"-0.018": 0.494406978069,
			"-0.017": 2.10707127453,
			"-0.016": 1.58508627563,
			"-0.015": 1.36069195686,
			"-0.014": 0.491284372193,
			"-0.013": 0.875487755114,
			"-0.012": 1.47041963535,
			"-0.011": 1.33534591862,
			"-0.01": 3.07961574457,
			"-0.009": 2.22923784721,
			"-0.008": 1.65485523417,
			"-0.007": 3.9068463138,
			"-0.006": 10.2217859304,
			"-0.005": 13.717374987,
			"-0.004": 16.1235669523,
			"-0.003": 12.3077933088,
			"-0.002": 11.6519098385,
			"-0.001": 10.2506109405,
			"0.0": 13.2403993218,
			"0.001": 17.360774722,
			"0.002": 14.7059609577,
			"0.003": 11.3909370182,
			"0.004": 13.3801712506,
			"0.005": 13.4139840401,
			"0.006": 4.8127269824,
			"0.007": 2.47696880985,
			"0.008": 3.57076189967,
			"0.009": 1.99189838485,
			"0.01": 3.55018846047,
			"0.011": 4.13753018305,
			"0.012": 5.70845228908,
			"0.013": 2.70276020826,
			"0.014": 1.04522906533,
			"0.015": 0.195699969978,
			"0.016": 0.0,
			"0.017": 0.0,
			"0.018": 0.0,
			"0.019": 0.0,
			"0.02": 0.0,
			"0.021": 0.0,
			"0.022": 0.0,
			"0.023": 0.0,
			"0.024": 0.0,
			"0.025": 0.0
		}
	}
}
