{
	 "smiles": "OC(=O)C1=NOC(=N1)C1=C(Cl)C=CC=C1", 
	 "Tm": 393.15, 
	 "num_atms": 20, 
	 "gaussian": { 
		 "optdone": 1, 
		 "sigma_profile": "yes", 
		 "theory": "DFT", 
		 "functional": "B3LYP", 
		 "basiset": "6-31G**", 
		 "properties": { 
			 "R2extent": 4175.5723, 
			 "electric_dipole_moment_norm": 6.74825923776, 
			 "electric_quadrupole_moment_norm": 9.80462535337, 
			 "total_energy": -1141.29346803, 
			 "HOMO_LUMO_gap": 0.17852, 
			 "cosmo_polarized_energy": -15.11, 
			 "cosmo_cavitation_energy": 28.0, 
			 "cosmo_dispersion_energy": -20.93, 
			 "cosmo_repulsion_energy": 1.63, 
			 "cosmo_total_nonelectrostatic_energy": 8.69, 
			 "SMD_solvation_energy": 4.61 
		},
		"coords": [
			{
				"x": -0.6397535815,
				"y": 1.1414156689,
				"z": 5.0388517791,
				"element": "O" 
			},
			{
				"x": 0.2307555737,
				"y": 1.1636103989,
				"z": 4.0083489883,
				"element": "C" 
			},
			{
				"x": 1.3858525098,
				"y": 1.4700773827,
				"z": 4.1358838341,
				"element": "O" 
			},
			{
				"x": -0.3774892227,
				"y": 0.770821268,
				"z": 2.6908170095,
				"element": "C" 
			},
			{
				"x": -1.6474586433,
				"y": 0.448248394,
				"z": 2.6203959889,
				"element": "N" 
			},
			{
				"x": -1.8342303888,
				"y": 0.1541041382,
				"z": 1.2805038102,
				"element": "O" 
			},
			{
				"x": -0.6281562504,
				"y": 0.337411955,
				"z": 0.6678555461,
				"element": "C" 
			},
			{
				"x": 0.2988320155,
				"y": 0.7179268732,
				"z": 1.5052121637,
				"element": "N" 
			},
			{
				"x": -0.5857736269,
				"y": 0.0985334398,
				"z": -0.774873981,
				"element": "C" 
			},
			{
				"x": 0.6019621047,
				"y": 0.0840494725,
				"z": -1.5387250066,
				"element": "C" 
			},
			{
				"x": 2.1796581297,
				"y": 0.3321916398,
				"z": -0.8391161359,
				"element": "Cl" 
			},
			{
				"x": 0.5496092528,
				"y": -0.1482637767,
				"z": -2.9152217945,
				"element": "C" 
			},
			{
				"x": -0.6698499103,
				"y": -0.3680783575,
				"z": -3.5496016212,
				"element": "C" 
			},
			{
				"x": -1.854317266,
				"y": -0.3599641938,
				"z": -2.8101268369,
				"element": "C" 
			},
			{
				"x": -1.8074397183,
				"y": -0.129706493,
				"z": -1.4422800128,
				"element": "C" 
			},
			{
				"x": -1.518359378,
				"y": 0.8673076385,
				"z": 4.7240541834,
				"element": "H" 
			},
			{
				"x": 1.475967425,
				"y": -0.155641904,
				"z": -3.4781516337,
				"element": "H" 
			},
			{
				"x": -0.6910121751,
				"y": -0.5457364793,
				"z": -4.6204291788,
				"element": "H" 
			},
			{
				"x": -2.8091267787,
				"y": -0.5300001737,
				"z": -3.2965277833,
				"element": "H" 
			},
			{
				"x": -2.7240700714,
				"y": -0.1190068914,
				"z": -0.8642693187,
				"element": "H" 
			}
		],
		 "valence_orbital": [ 
			{
				"type": "occ",
				"energy": -0.32417,
				"method": "rhf"
			},
			{
				"type": "occ",
				"energy": -0.30318,
				"method": "rhf"
			},
			{
				"type": "occ",
				"energy": -0.28927,
				"method": "rhf"
			},
			{
				"type": "occ",
				"energy": -0.27873,
				"method": "rhf"
			},
			{
				"type": "occ",
				"energy": -0.26653,
				"method": "rhf"
			},
			{
				"type": "unocc",
				"energy": -0.08801,
				"method": "rhf"
			},
			{
				"type": "unocc",
				"energy": -0.05517,
				"method": "rhf"
			},
			{
				"type": "unocc",
				"energy": -0.03615,
				"method": "rhf"
			},
			{
				"type": "unocc",
				"energy": 0.0177,
				"method": "rhf"
			},
			{
				"type": "unocc",
				"energy": 0.02219,
				"method": "rhf"
			}
		],
		"cosmo_sigma_profile": { 
			"-0.025": 0.0,
			"-0.024": 0.0,
			"-0.023": 0.0,
			"-0.022": 0.0,
			"-0.021": 0.0,
			"-0.02": 0.0,
			"-0.019": 0.0,
			"-0.018": 0.0273315573165,
			"-0.017": 0.329453822764,
			"-0.016": 0.617039876779,
			"-0.015": 0.922237779958,
			"-0.014": 0.420018281205,
			"-0.013": 0.774226298925,
			"-0.012": 1.00874864355,
			"-0.011": 0.560212525331,
			"-0.01": 1.11977468016,
			"-0.009": 1.62773848721,
			"-0.008": 5.32629085129,
			"-0.007": 13.0338837471,
			"-0.006": 13.2358736474,
			"-0.005": 13.8776125411,
			"-0.004": 12.1084711433,
			"-0.003": 13.5925060521,
			"-0.002": 13.5638928896,
			"-0.001": 14.528455248,
			"0.0": 17.425847916,
			"0.001": 18.75504766,
			"0.002": 18.2612009938,
			"0.003": 13.0884190893,
			"0.004": 11.1371562136,
			"0.005": 5.40630065616,
			"0.006": 4.8236457039,
			"0.007": 6.28616017527,
			"0.008": 6.23143665804,
			"0.009": 6.12237596616,
			"0.01": 6.0499398746,
			"0.011": 6.29033824268,
			"0.012": 2.22255171124,
			"0.013": 0.207805927161,
			"0.014": 0.0,
			"0.015": 0.0,
			"0.016": 0.0,
			"0.017": 0.0,
			"0.018": 0.0,
			"0.019": 0.0,
			"0.02": 0.0,
			"0.021": 0.0,
			"0.022": 0.0,
			"0.023": 0.0,
			"0.024": 0.0,
			"0.025": 0.0
		}
	}
}
