{
	 "smiles": "CC1=CC(O)=CC(C)=C1C", 
	 "Tm": 379.15, 
	 "num_atms": 22, 
	 "gaussian": { 
		 "optdone": 1, 
		 "sigma_profile": "yes", 
		 "theory": "DFT", 
		 "functional": "B3LYP", 
		 "basiset": "6-31G**", 
		 "properties": { 
			 "R2extent": 2007.3846, 
			 "electric_dipole_moment_norm": 1.42316747082, 
			 "electric_quadrupole_moment_norm": 8.54342397871, 
			 "total_energy": -425.428137683, 
			 "HOMO_LUMO_gap": 0.21564, 
			 "cosmo_polarized_energy": -7.76, 
			 "cosmo_cavitation_energy": 24.26, 
			 "cosmo_dispersion_energy": -17.91, 
			 "cosmo_repulsion_energy": 1.44, 
			 "cosmo_total_nonelectrostatic_energy": 7.79, 
			 "SMD_solvation_energy": 4.54 
		},
		"coords": [
			{
				"x": 1.2187378551,
				"y": -0.2793816891,
				"z": 1.4174404177,
				"element": "C" 
			},
			{
				"x": 0.7047013641,
				"y": 0.2512271375,
				"z": 0.0954523844,
				"element": "C" 
			},
			{
				"x": 0.8870328743,
				"y": -0.530352277,
				"z": -1.0528604426,
				"element": "C" 
			},
			{
				"x": 0.4342286882,
				"y": -0.0920360588,
				"z": -2.2962507812,
				"element": "C" 
			},
			{
				"x": 0.5920039507,
				"y": -0.8244235332,
				"z": -3.4425090663,
				"element": "O" 
			},
			{
				"x": -0.2092290626,
				"y": 1.1414262028,
				"z": -2.3997681158,
				"element": "C" 
			},
			{
				"x": -0.4006040525,
				"y": 1.9349624043,
				"z": -1.2677398928,
				"element": "C" 
			},
			{
				"x": -1.1011566836,
				"y": 3.2664340367,
				"z": -1.4118085993,
				"element": "C" 
			},
			{
				"x": 0.0555268339,
				"y": 1.4973907011,
				"z": -0.0035428778,
				"element": "C" 
			},
			{
				"x": -0.1648640435,
				"y": 2.3771762134,
				"z": 1.2077568301,
				"element": "C" 
			},
			{
				"x": 0.4137827133,
				"y": -0.3986183903,
				"z": 2.151807254,
				"element": "H" 
			},
			{
				"x": 1.6904620749,
				"y": -1.2570317754,
				"z": 1.2870005068,
				"element": "H" 
			},
			{
				"x": 1.9644677877,
				"y": 0.3879466131,
				"z": 1.8646546074,
				"element": "H" 
			},
			{
				"x": 1.3895511057,
				"y": -1.4928975074,
				"z": -0.9703993996,
				"element": "H" 
			},
			{
				"x": 1.0486522393,
				"y": -1.6474144046,
				"z": -3.225756509,
				"element": "H" 
			},
			{
				"x": -0.5565879084,
				"y": 1.4701382424,
				"z": -3.3743745468,
				"element": "H" 
			},
			{
				"x": -2.0108038871,
				"y": 3.3140912772,
				"z": -0.8007888271,
				"element": "H" 
			},
			{
				"x": -1.3870506295,
				"y": 3.4506342614,
				"z": -2.4504079029,
				"element": "H" 
			},
			{
				"x": -0.4628142939,
				"y": 4.0975322052,
				"z": -1.0879669601,
				"element": "H" 
			},
			{
				"x": 0.226916105,
				"y": 1.9309366062,
				"z": 2.1224294542,
				"element": "H" 
			},
			{
				"x": 0.318625876,
				"y": 3.3552245543,
				"z": 1.0899003128,
				"element": "H" 
			},
			{
				"x": -1.2311789072,
				"y": 2.5761351802,
				"z": 1.373632154,
				"element": "H" 
			}
		],
		 "valence_orbital": [ 
			{
				"type": "occ",
				"energy": -0.3357,
				"method": "rhf"
			},
			{
				"type": "occ",
				"energy": -0.3224,
				"method": "rhf"
			},
			{
				"type": "occ",
				"energy": -0.30415,
				"method": "rhf"
			},
			{
				"type": "occ",
				"energy": -0.23092,
				"method": "rhf"
			},
			{
				"type": "occ",
				"energy": -0.20414,
				"method": "rhf"
			},
			{
				"type": "unocc",
				"energy": 0.0115,
				"method": "rhf"
			},
			{
				"type": "unocc",
				"energy": 0.02025,
				"method": "rhf"
			},
			{
				"type": "unocc",
				"energy": 0.07754,
				"method": "rhf"
			},
			{
				"type": "unocc",
				"energy": 0.0925,
				"method": "rhf"
			},
			{
				"type": "unocc",
				"energy": 0.10989,
				"method": "rhf"
			}
		],
		"cosmo_sigma_profile": { 
			"-0.025": 0.0,
			"-0.024": 0.0,
			"-0.023": 0.0,
			"-0.022": 0.0,
			"-0.021": 0.0,
			"-0.02": 0.0,
			"-0.019": 0.0,
			"-0.018": 0.00954249193757,
			"-0.017": 0.643747722561,
			"-0.016": 1.11786372829,
			"-0.015": 1.09284393426,
			"-0.014": 0.761030171517,
			"-0.013": 1.2312305264,
			"-0.012": 0.686364236729,
			"-0.011": 0.841968411728,
			"-0.01": 0.89699623723,
			"-0.009": 1.67219580496,
			"-0.008": 1.03135505642,
			"-0.007": 0.819605151305,
			"-0.006": 0.846333697902,
			"-0.005": 4.69019958636,
			"-0.004": 12.7754332876,
			"-0.003": 23.5163176395,
			"-0.002": 18.2470904715,
			"-0.001": 18.8809407944,
			"0.0": 23.7190139364,
			"0.001": 18.2646966347,
			"0.002": 9.22067663286,
			"0.003": 6.77579001922,
			"0.004": 8.13002814626,
			"0.005": 9.52253913934,
			"0.006": 9.2713375897,
			"0.007": 6.65244691785,
			"0.008": 2.02297583567,
			"0.009": 1.31803781577,
			"0.01": 1.61092512665,
			"0.011": 1.92926984396,
			"0.012": 1.82730389408,
			"0.013": 0.160936374949,
			"0.014": 0.0,
			"0.015": 0.0,
			"0.016": 0.0,
			"0.017": 0.0,
			"0.018": 0.0,
			"0.019": 0.0,
			"0.02": 0.0,
			"0.021": 0.0,
			"0.022": 0.0,
			"0.023": 0.0,
			"0.024": 0.0,
			"0.025": 0.0
		}
	}
}
