{
	 "smiles": "COC(=O)C1=C(CS(F)(=O)=O)C=CC=C1", 
	 "Tm": 363.15, 
	 "num_atms": 24, 
	 "gaussian": { 
		 "optdone": 1, 
		 "sigma_profile": "yes", 
		 "theory": "DFT", 
		 "functional": "B3LYP", 
		 "basiset": "6-31G**", 
		 "properties": { 
			 "R2extent": 3408.1774, 
			 "electric_dipole_moment_norm": 4.35958822597, 
			 "electric_quadrupole_moment_norm": 15.4784566886, 
			 "total_energy": -1147.25240959, 
			 "HOMO_LUMO_gap": 0.20804, 
			 "cosmo_polarized_energy": -13.85, 
			 "cosmo_cavitation_energy": 30.26, 
			 "cosmo_dispersion_energy": -21.57, 
			 "cosmo_repulsion_energy": 1.61, 
			 "cosmo_total_nonelectrostatic_energy": 10.3, 
			 "SMD_solvation_energy": 6.01 
		},
		"coords": [
			{
				"x": 0.5043506828,
				"y": 1.144381843,
				"z": -3.2495093637,
				"element": "C" 
			},
			{
				"x": 0.3238243447,
				"y": 1.0923629059,
				"z": -1.8212798237,
				"element": "O" 
			},
			{
				"x": -0.8561309557,
				"y": 0.5809956815,
				"z": -1.4096284606,
				"element": "C" 
			},
			{
				"x": -1.7426480842,
				"y": 0.2785994869,
				"z": -2.1815764701,
				"element": "O" 
			},
			{
				"x": -0.9904979785,
				"y": 0.4581413906,
				"z": 0.0816850093,
				"element": "C" 
			},
			{
				"x": 0.0630258371,
				"y": 0.4511604887,
				"z": 1.0264922694,
				"element": "C" 
			},
			{
				"x": 1.5259602928,
				"y": 0.5440859519,
				"z": 0.6695827312,
				"element": "C" 
			},
			{
				"x": 2.2087097409,
				"y": -1.0899737562,
				"z": 0.2551945288,
				"element": "S" 
			},
			{
				"x": 3.7036619712,
				"y": -0.5742243227,
				"z": -0.1317349038,
				"element": "F" 
			},
			{
				"x": 1.6280443817,
				"y": -1.6153424965,
				"z": -0.9669017531,
				"element": "O" 
			},
			{
				"x": 2.3531068718,
				"y": -1.9015810222,
				"z": 1.4500505653,
				"element": "O" 
			},
			{
				"x": -0.252276434,
				"y": 0.2943883734,
				"z": 2.3831874713,
				"element": "C" 
			},
			{
				"x": -1.5701674216,
				"y": 0.1693981276,
				"z": 2.8169857925,
				"element": "C" 
			},
			{
				"x": -2.6068977098,
				"y": 0.181801717,
				"z": 1.8848209465,
				"element": "C" 
			},
			{
				"x": -2.3118106457,
				"y": 0.3178745127,
				"z": 0.5322040707,
				"element": "C" 
			},
			{
				"x": 1.4867605439,
				"y": 1.5899635848,
				"z": -3.4029254149,
				"element": "H" 
			},
			{
				"x": -0.274849864,
				"y": 1.7546234822,
				"z": -3.7106992791,
				"element": "H" 
			},
			{
				"x": 0.4700258212,
				"y": 0.1365226679,
				"z": -3.6680323666,
				"element": "H" 
			},
			{
				"x": 2.1228580169,
				"y": 0.8812555762,
				"z": 1.5191758612,
				"element": "H" 
			},
			{
				"x": 1.7171457624,
				"y": 1.1673826881,
				"z": -0.2000328373,
				"element": "H" 
			},
			{
				"x": 0.5554447541,
				"y": 0.2647526444,
				"z": 3.1086497036,
				"element": "H" 
			},
			{
				"x": -1.7814973344,
				"y": 0.056600153,
				"z": 3.8759510632,
				"element": "H" 
			},
			{
				"x": -3.638612897,
				"y": 0.0814286131,
				"z": 2.2072850368,
				"element": "H" 
			},
			{
				"x": -3.0991296966,
				"y": 0.3126017089,
				"z": -0.2129443769,
				"element": "H" 
			}
		],
		 "valence_orbital": [ 
			{
				"type": "occ",
				"energy": -0.3236,
				"method": "rhf"
			},
			{
				"type": "occ",
				"energy": -0.31221,
				"method": "rhf"
			},
			{
				"type": "occ",
				"energy": -0.28847,
				"method": "rhf"
			},
			{
				"type": "occ",
				"energy": -0.27405,
				"method": "rhf"
			},
			{
				"type": "occ",
				"energy": -0.27189,
				"method": "rhf"
			},
			{
				"type": "unocc",
				"energy": -0.06385,
				"method": "rhf"
			},
			{
				"type": "unocc",
				"energy": -0.03388,
				"method": "rhf"
			},
			{
				"type": "unocc",
				"energy": 0.02146,
				"method": "rhf"
			},
			{
				"type": "unocc",
				"energy": 0.03941,
				"method": "rhf"
			},
			{
				"type": "unocc",
				"energy": 0.04075,
				"method": "rhf"
			}
		],
		"cosmo_sigma_profile": { 
			"-0.025": 0.0,
			"-0.024": 0.0,
			"-0.023": 0.0,
			"-0.022": 0.0,
			"-0.021": 0.0,
			"-0.02": 0.0,
			"-0.019": 0.0,
			"-0.018": 0.0,
			"-0.017": 0.0,
			"-0.016": 0.0,
			"-0.015": 0.0,
			"-0.014": 0.0,
			"-0.013": 0.0,
			"-0.012": 0.0,
			"-0.011": 1.02179597285,
			"-0.01": 2.78191605558,
			"-0.009": 2.26805357054,
			"-0.008": 3.69811494825,
			"-0.007": 10.2628592378,
			"-0.006": 16.7401157361,
			"-0.005": 17.7343535458,
			"-0.004": 17.247562572,
			"-0.003": 17.4944345619,
			"-0.002": 13.6411661196,
			"-0.001": 13.1575656837,
			"0.0": 13.8892620021,
			"0.001": 15.1079560795,
			"0.002": 25.5174312351,
			"0.003": 21.0230758439,
			"0.004": 6.6477316082,
			"0.005": 6.14159752782,
			"0.006": 4.05384403553,
			"0.007": 5.27581597722,
			"0.008": 9.33845684004,
			"0.009": 10.5153055455,
			"0.01": 2.44927497989,
			"0.011": 4.04145419254,
			"0.012": 2.14529293755,
			"0.013": 0.0,
			"0.014": 0.0,
			"0.015": 0.0,
			"0.016": 0.0,
			"0.017": 0.0,
			"0.018": 0.0,
			"0.019": 0.0,
			"0.02": 0.0,
			"0.021": 0.0,
			"0.022": 0.0,
			"0.023": 0.0,
			"0.024": 0.0,
			"0.025": 0.0
		}
	}
}
