{
	 "smiles": "COC1=CC=C(F)C(C=O)=C1OC", 
	 "Tm": 319.15, 
	 "num_atms": 22, 
	 "gaussian": { 
		 "optdone": 1, 
		 "sigma_profile": "yes", 
		 "theory": "DFT", 
		 "functional": "B3LYP", 
		 "basiset": "6-31G**", 
		 "properties": { 
			 "R2extent": 2608.3551, 
			 "electric_dipole_moment_norm": 2.77427992279, 
			 "electric_quadrupole_moment_norm": 8.16960328719, 
			 "total_energy": -673.836130203, 
			 "HOMO_LUMO_gap": 0.17258, 
			 "cosmo_polarized_energy": -8.63, 
			 "cosmo_cavitation_energy": 26.61, 
			 "cosmo_dispersion_energy": -18.84, 
			 "cosmo_repulsion_energy": 1.47, 
			 "cosmo_total_nonelectrostatic_energy": 9.23, 
			 "SMD_solvation_energy": 7.62 
		},
		"coords": [
			{
				"x": -0.210724765,
				"y": -0.5999125632,
				"z": 2.7063650968,
				"element": "C" 
			},
			{
				"x": -1.0879618066,
				"y": -0.8200297909,
				"z": 1.5941316667,
				"element": "O" 
			},
			{
				"x": -0.4770864379,
				"y": -1.1881033146,
				"z": 0.4220821711,
				"element": "C" 
			},
			{
				"x": -0.667533259,
				"y": -2.4859234123,
				"z": -0.0577696936,
				"element": "C" 
			},
			{
				"x": -0.1202055192,
				"y": -2.888836597,
				"z": -1.2752103979,
				"element": "C" 
			},
			{
				"x": 0.6295094074,
				"y": -1.9714374078,
				"z": -1.9925488249,
				"element": "C" 
			},
			{
				"x": 1.168535506,
				"y": -2.3664314658,
				"z": -3.1675463362,
				"element": "F" 
			},
			{
				"x": 0.8427922402,
				"y": -0.6497630085,
				"z": -1.5650625054,
				"element": "C" 
			},
			{
				"x": 1.6723036763,
				"y": 0.2442759183,
				"z": -2.4082341987,
				"element": "C" 
			},
			{
				"x": 1.7852443362,
				"y": 1.4490201911,
				"z": -2.2713711685,
				"element": "O" 
			},
			{
				"x": 0.2741051534,
				"y": -0.2624260126,
				"z": -0.3270201736,
				"element": "C" 
			},
			{
				"x": 0.4889765643,
				"y": 0.9734518902,
				"z": 0.2064361676,
				"element": "O" 
			},
			{
				"x": -0.4123768996,
				"y": 2.0059813836,
				"z": -0.2227712362,
				"element": "C" 
			},
			{
				"x": -0.8510302362,
				"y": -0.3217549482,
				"z": 3.5456723393,
				"element": "H" 
			},
			{
				"x": 0.4979671203,
				"y": 0.2060423095,
				"z": 2.4981639069,
				"element": "H" 
			},
			{
				"x": 0.3356917245,
				"y": -1.5180007067,
				"z": 2.9578455711,
				"element": "H" 
			},
			{
				"x": -1.2642545662,
				"y": -3.169311225,
				"z": 0.5374723491,
				"element": "H" 
			},
			{
				"x": -0.2606798223,
				"y": -3.8905397562,
				"z": -1.6647002338,
				"element": "H" 
			},
			{
				"x": 2.2117303143,
				"y": -0.2810522043,
				"z": -3.2189417254,
				"element": "H" 
			},
			{
				"x": -0.2799365459,
				"y": 2.2101038413,
				"z": -1.28779451,
				"element": "H" 
			},
			{
				"x": -1.4486108999,
				"y": 1.7272528165,
				"z": -0.0018235351,
				"element": "H" 
			},
			{
				"x": -0.1420552849,
				"y": 2.8938940624,
				"z": 0.3508252707,
				"element": "H" 
			}
		],
		 "valence_orbital": [ 
			{
				"type": "occ",
				"energy": -0.29416,
				"method": "rhf"
			},
			{
				"type": "occ",
				"energy": -0.27696,
				"method": "rhf"
			},
			{
				"type": "occ",
				"energy": -0.26707,
				"method": "rhf"
			},
			{
				"type": "occ",
				"energy": -0.25095,
				"method": "rhf"
			},
			{
				"type": "occ",
				"energy": -0.23981,
				"method": "rhf"
			},
			{
				"type": "unocc",
				"energy": -0.06723,
				"method": "rhf"
			},
			{
				"type": "unocc",
				"energy": -0.00944,
				"method": "rhf"
			},
			{
				"type": "unocc",
				"energy": 0.03156,
				"method": "rhf"
			},
			{
				"type": "unocc",
				"energy": 0.07252,
				"method": "rhf"
			},
			{
				"type": "unocc",
				"energy": 0.10134,
				"method": "rhf"
			}
		],
		"cosmo_sigma_profile": { 
			"-0.025": 0.0,
			"-0.024": 0.0,
			"-0.023": 0.0,
			"-0.022": 0.0,
			"-0.021": 0.0,
			"-0.02": 0.0,
			"-0.019": 0.0,
			"-0.018": 0.0,
			"-0.017": 0.0,
			"-0.016": 0.0,
			"-0.015": 0.0,
			"-0.014": 0.0,
			"-0.013": 0.0,
			"-0.012": 0.0,
			"-0.011": 0.0,
			"-0.01": 0.0,
			"-0.009": 0.137634708102,
			"-0.008": 2.25141963861,
			"-0.007": 3.95629210571,
			"-0.006": 8.97901832674,
			"-0.005": 13.4875679628,
			"-0.004": 18.3502089683,
			"-0.003": 25.6317710628,
			"-0.002": 23.6897945019,
			"-0.001": 17.6781509478,
			"0.0": 19.2505010724,
			"0.001": 13.921079403,
			"0.002": 12.9132001225,
			"0.003": 12.7678595949,
			"0.004": 7.99340054819,
			"0.005": 3.43798130573,
			"0.006": 4.39690034077,
			"0.007": 3.16227444066,
			"0.008": 3.23939723322,
			"0.009": 3.46675974653,
			"0.01": 4.53847921128,
			"0.011": 5.48448597662,
			"0.012": 3.27175530941,
			"0.013": 0.552903825143,
			"0.014": 0.0,
			"0.015": 0.0,
			"0.016": 0.0,
			"0.017": 0.0,
			"0.018": 0.0,
			"0.019": 0.0,
			"0.02": 0.0,
			"0.021": 0.0,
			"0.022": 0.0,
			"0.023": 0.0,
			"0.024": 0.0,
			"0.025": 0.0
		}
	}
}
