{
	 "smiles": "COC(=O)C1(CC2=CC=CC(OC)=C2C(=O)O1)C(=O)OC", 
	 "Tm": 362.35, 
	 "num_atms": 35, 
	 "gaussian": { 
		 "optdone": 1, 
		 "sigma_profile": "yes", 
		 "theory": "DFT", 
		 "functional": "B3LYP", 
		 "basiset": "6-31G**", 
		 "properties": { 
			 "R2extent": 5977.1967, 
			 "electric_dipole_moment_norm": 3.54896118181, 
			 "electric_quadrupole_moment_norm": 16.7119945285, 
			 "total_energy": -1068.48796046, 
			 "HOMO_LUMO_gap": 0.18415, 
			 "cosmo_polarized_energy": -17.16, 
			 "cosmo_cavitation_energy": 39.37, 
			 "cosmo_dispersion_energy": -26.37, 
			 "cosmo_repulsion_energy": 2.04, 
			 "cosmo_total_nonelectrostatic_energy": 15.03, 
			 "SMD_solvation_energy": 10.96 
		},
		"coords": [
			{
				"x": -3.0011096269,
				"y": 3.7662894604,
				"z": 1.1398568922,
				"element": "C" 
			},
			{
				"x": -1.9522342889,
				"y": 2.8513465343,
				"z": 0.7661924034,
				"element": "O" 
			},
			{
				"x": -1.9688368776,
				"y": 2.4442538907,
				"z": -0.5090082262,
				"element": "C" 
			},
			{
				"x": -2.7688117195,
				"y": 2.7987164238,
				"z": -1.3421840573,
				"element": "O" 
			},
			{
				"x": -0.8340466091,
				"y": 1.4248696486,
				"z": -0.7688171455,
				"element": "C" 
			},
			{
				"x": -0.6927143258,
				"y": 1.1475517522,
				"z": -2.2628437176,
				"element": "C" 
			},
			{
				"x": 0.2368024745,
				"y": -0.0212454036,
				"z": -2.477105748,
				"element": "C" 
			},
			{
				"x": 0.9816767426,
				"y": -0.1371033442,
				"z": -3.6459485763,
				"element": "C" 
			},
			{
				"x": 1.8107283405,
				"y": -1.2465059423,
				"z": -3.8324339762,
				"element": "C" 
			},
			{
				"x": 1.9347949267,
				"y": -2.2056507736,
				"z": -2.837229457,
				"element": "C" 
			},
			{
				"x": 1.214660449,
				"y": -2.0952649924,
				"z": -1.6373600246,
				"element": "C" 
			},
			{
				"x": 1.4714098156,
				"y": -3.0754845505,
				"z": -0.7387911592,
				"element": "O" 
			},
			{
				"x": 1.5731952921,
				"y": -2.7973830395,
				"z": 0.6619842145,
				"element": "C" 
			},
			{
				"x": 0.3136573397,
				"y": -1.0130501855,
				"z": -1.4687654004,
				"element": "C" 
			},
			{
				"x": -0.6800686564,
				"y": -0.9710456262,
				"z": -0.3661697267,
				"element": "C" 
			},
			{
				"x": -1.0727652143,
				"y": -1.9277478302,
				"z": 0.2609778104,
				"element": "O" 
			},
			{
				"x": -1.2578015659,
				"y": 0.2447858395,
				"z": -0.079138618,
				"element": "O" 
			},
			{
				"x": 0.4746391607,
				"y": 2.0154304324,
				"z": -0.2058779464,
				"element": "C" 
			},
			{
				"x": 0.9612649815,
				"y": 3.0255330629,
				"z": -0.6658904407,
				"element": "O" 
			},
			{
				"x": 0.9841221806,
				"y": 1.3130775584,
				"z": 0.8118717128,
				"element": "O" 
			},
			{
				"x": 2.1923015733,
				"y": 1.8554214614,
				"z": 1.3812146946,
				"element": "C" 
			},
			{
				"x": -3.9780750206,
				"y": 3.2998335861,
				"z": 0.9952729557,
				"element": "H" 
			},
			{
				"x": -2.9434349654,
				"y": 4.6755015859,
				"z": 0.5372345968,
				"element": "H" 
			},
			{
				"x": -2.8325836387,
				"y": 3.9883347908,
				"z": 2.1926979636,
				"element": "H" 
			},
			{
				"x": -0.3176623743,
				"y": 2.0441315822,
				"z": -2.7610567041,
				"element": "H" 
			},
			{
				"x": -1.6938124001,
				"y": 0.9481909041,
				"z": -2.6609298214,
				"element": "H" 
			},
			{
				"x": 0.9104185668,
				"y": 0.6326603516,
				"z": -4.4083198073,
				"element": "H" 
			},
			{
				"x": 2.3877347087,
				"y": -1.3448069765,
				"z": -4.7474434561,
				"element": "H" 
			},
			{
				"x": 2.6064768121,
				"y": -3.0506218657,
				"z": -2.9429619654,
				"element": "H" 
			},
			{
				"x": 1.806758037,
				"y": -1.7415923293,
				"z": 0.8365265411,
				"element": "H" 
			},
			{
				"x": 2.3939479256,
				"y": -3.4176254952,
				"z": 1.031681635,
				"element": "H" 
			},
			{
				"x": 0.6431152639,
				"y": -3.0458046396,
				"z": 1.1727049193,
				"element": "H" 
			},
			{
				"x": 2.0131975688,
				"y": 2.8661042082,
				"z": 1.7542292005,
				"element": "H" 
			},
			{
				"x": 2.9858683824,
				"y": 1.8869280484,
				"z": 0.6311483813,
				"element": "H" 
			},
			{
				"x": 2.4565867414,
				"y": 1.1841718724,
				"z": 2.1972820531,
				"element": "H" 
			}
		],
		 "valence_orbital": [ 
			{
				"type": "occ",
				"energy": -0.29769,
				"method": "rhf"
			},
			{
				"type": "occ",
				"energy": -0.27524,
				"method": "rhf"
			},
			{
				"type": "occ",
				"energy": -0.27273,
				"method": "rhf"
			},
			{
				"type": "occ",
				"energy": -0.26051,
				"method": "rhf"
			},
			{
				"type": "occ",
				"energy": -0.23258,
				"method": "rhf"
			},
			{
				"type": "unocc",
				"energy": -0.04843,
				"method": "rhf"
			},
			{
				"type": "unocc",
				"energy": -0.02259,
				"method": "rhf"
			},
			{
				"type": "unocc",
				"energy": -0.00749,
				"method": "rhf"
			},
			{
				"type": "unocc",
				"energy": 0.00133,
				"method": "rhf"
			},
			{
				"type": "unocc",
				"energy": 0.0459,
				"method": "rhf"
			}
		],
		"cosmo_sigma_profile": { 
			"-0.025": 0.0,
			"-0.024": 0.0,
			"-0.023": 0.0,
			"-0.022": 0.0,
			"-0.021": 0.0,
			"-0.02": 0.0,
			"-0.019": 0.0,
			"-0.018": 0.0,
			"-0.017": 0.0,
			"-0.016": 0.0,
			"-0.015": 0.0,
			"-0.014": 0.0,
			"-0.013": 0.0,
			"-0.012": 0.0,
			"-0.011": 0.0,
			"-0.01": 0.0,
			"-0.009": 0.0,
			"-0.008": 0.414324208513,
			"-0.007": 14.2329065817,
			"-0.006": 26.2624862115,
			"-0.005": 27.9693880107,
			"-0.004": 34.155385907,
			"-0.003": 27.7483001124,
			"-0.002": 21.025950095,
			"-0.001": 18.7485969589,
			"0.0": 16.2523451364,
			"0.001": 14.8342857056,
			"0.002": 19.4235106292,
			"0.003": 16.1633770979,
			"0.004": 10.935504673,
			"0.005": 7.64235795555,
			"0.006": 8.36783444889,
			"0.007": 8.65202824128,
			"0.008": 8.08888308829,
			"0.009": 9.03391755702,
			"0.01": 11.6735251822,
			"0.011": 8.46775281243,
			"0.012": 2.18487722926,
			"0.013": 0.417964084442,
			"0.014": 0.0,
			"0.015": 0.0,
			"0.016": 0.0,
			"0.017": 0.0,
			"0.018": 0.0,
			"0.019": 0.0,
			"0.02": 0.0,
			"0.021": 0.0,
			"0.022": 0.0,
			"0.023": 0.0,
			"0.024": 0.0,
			"0.025": 0.0
		}
	}
}
