{
	 "smiles": "COC1=C(C=C(C=C1)C(O)=O)N1CCNC1=O", 
	 "Tm": 520.15, 
	 "num_atms": 29, 
	 "gaussian": { 
		 "optdone": 1, 
		 "sigma_profile": "yes", 
		 "theory": "DFT", 
		 "functional": "B3LYP", 
		 "basiset": "6-31G**", 
		 "properties": { 
			 "R2extent": 4486.8825, 
			 "electric_dipole_moment_norm": 4.34651702401, 
			 "electric_quadrupole_moment_norm": 20.1884683436, 
			 "total_energy": -836.81762844, 
			 "HOMO_LUMO_gap": 0.18281, 
			 "cosmo_polarized_energy": -21.97, 
			 "cosmo_cavitation_energy": 32.99, 
			 "cosmo_dispersion_energy": -23.47, 
			 "cosmo_repulsion_energy": 1.84, 
			 "cosmo_total_nonelectrostatic_energy": 11.36, 
			 "SMD_solvation_energy": 7.51 
		},
		"coords": [
			{
				"x": -3.0604660831,
				"y": -1.1497507303,
				"z": 0.210358235,
				"element": "C" 
			},
			{
				"x": -2.8301266019,
				"y": 0.2534786178,
				"z": 0.3387369888,
				"element": "O" 
			},
			{
				"x": -1.6977896219,
				"y": 0.7590611729,
				"z": -0.2296453194,
				"element": "C" 
			},
			{
				"x": -0.3859015868,
				"y": 0.3786581285,
				"z": 0.1463477534,
				"element": "C" 
			},
			{
				"x": 0.693105012,
				"y": 0.9379214452,
				"z": -0.5392601772,
				"element": "C" 
			},
			{
				"x": 0.5050960145,
				"y": 1.8851312177,
				"z": -1.551744058,
				"element": "C" 
			},
			{
				"x": -0.7919918375,
				"y": 2.3045923691,
				"z": -1.8743402146,
				"element": "C" 
			},
			{
				"x": -1.8754059541,
				"y": 1.7390343845,
				"z": -1.2142328294,
				"element": "C" 
			},
			{
				"x": 1.7119271621,
				"y": 2.4185828348,
				"z": -2.2273053213,
				"element": "C" 
			},
			{
				"x": 1.4266360778,
				"y": 3.3571134902,
				"z": -3.1659865512,
				"element": "O" 
			},
			{
				"x": 2.8548781594,
				"y": 2.0730193962,
				"z": -1.992011732,
				"element": "O" 
			},
			{
				"x": -0.1667711788,
				"y": -0.556923563,
				"z": 1.1898960778,
				"element": "N" 
			},
			{
				"x": 0.9547687805,
				"y": -1.498741681,
				"z": 1.1799924934,
				"element": "C" 
			},
			{
				"x": 0.7391925402,
				"y": -2.2534427141,
				"z": 2.5038653702,
				"element": "C" 
			},
			{
				"x": 0.1245423682,
				"y": -1.2107798924,
				"z": 3.3116544784,
				"element": "N" 
			},
			{
				"x": -0.5556111895,
				"y": -0.2934941016,
				"z": 2.5200062738,
				"element": "C" 
			},
			{
				"x": -1.3202396037,
				"y": 0.5687453261,
				"z": 2.8997596658,
				"element": "O" 
			},
			{
				"x": -4.0288970558,
				"y": -1.3367065707,
				"z": 0.6772743355,
				"element": "H" 
			},
			{
				"x": -2.2918623664,
				"y": -1.7416287637,
				"z": 0.7152807597,
				"element": "H" 
			},
			{
				"x": -3.1058737317,
				"y": -1.4416347296,
				"z": -0.8469009818,
				"element": "H" 
			},
			{
				"x": 1.7110828671,
				"y": 0.6618807569,
				"z": -0.2887617778,
				"element": "H" 
			},
			{
				"x": -0.9451495456,
				"y": 3.0489436946,
				"z": -2.6469077676,
				"element": "H" 
			},
			{
				"x": -2.8937507877,
				"y": 2.0228737737,
				"z": -1.4577515782,
				"element": "H" 
			},
			{
				"x": 2.2838906655,
				"y": 3.6287223482,
				"z": -3.532465216,
				"element": "H" 
			},
			{
				"x": 0.9186436308,
				"y": -2.1514340083,
				"z": 0.3040458554,
				"element": "H" 
			},
			{
				"x": 1.9239621762,
				"y": -0.9811886087,
				"z": 1.1924803154,
				"element": "H" 
			},
			{
				"x": 1.6809241591,
				"y": -2.605285634,
				"z": 2.9339394409,
				"element": "H" 
			},
			{
				"x": 0.0753525187,
				"y": -3.1192542694,
				"z": 2.3586616784,
				"element": "H" 
			},
			{
				"x": -0.2766649875,
				"y": -1.4066936895,
				"z": 4.2171138023,
				"element": "H" 
			}
		],
		 "valence_orbital": [ 
			{
				"type": "occ",
				"energy": -0.27393,
				"method": "rhf"
			},
			{
				"type": "occ",
				"energy": -0.26329,
				"method": "rhf"
			},
			{
				"type": "occ",
				"energy": -0.25408,
				"method": "rhf"
			},
			{
				"type": "occ",
				"energy": -0.24311,
				"method": "rhf"
			},
			{
				"type": "occ",
				"energy": -0.22553,
				"method": "rhf"
			},
			{
				"type": "unocc",
				"energy": -0.04272,
				"method": "rhf"
			},
			{
				"type": "unocc",
				"energy": -0.01146,
				"method": "rhf"
			},
			{
				"type": "unocc",
				"energy": 0.05116,
				"method": "rhf"
			},
			{
				"type": "unocc",
				"energy": 0.0613,
				"method": "rhf"
			},
			{
				"type": "unocc",
				"energy": 0.0686,
				"method": "rhf"
			}
		],
		"cosmo_sigma_profile": { 
			"-0.025": 0.0,
			"-0.024": 0.0,
			"-0.023": 0.0,
			"-0.022": 0.0,
			"-0.021": 0.0,
			"-0.02": 0.0,
			"-0.019": 0.0572631752939,
			"-0.018": 0.938696386588,
			"-0.017": 0.654398157717,
			"-0.016": 1.40243361889,
			"-0.015": 0.547354819832,
			"-0.014": 1.11394507522,
			"-0.013": 1.46302623955,
			"-0.012": 2.07385111208,
			"-0.011": 1.98349625877,
			"-0.01": 2.15020182187,
			"-0.009": 1.10293468938,
			"-0.008": 1.80456712716,
			"-0.007": 5.11574491656,
			"-0.006": 13.026555335,
			"-0.005": 24.7936712988,
			"-0.004": 27.3918440162,
			"-0.003": 25.8339547184,
			"-0.002": 18.8311545338,
			"-0.001": 12.6635209569,
			"0.0": 12.3038805078,
			"0.001": 13.5346312738,
			"0.002": 14.2686303694,
			"0.003": 15.3847307183,
			"0.004": 6.57031205724,
			"0.005": 6.68833167952,
			"0.006": 5.72267824741,
			"0.007": 5.54302543384,
			"0.008": 5.20338311457,
			"0.009": 4.45915643172,
			"0.01": 3.80698255726,
			"0.011": 5.92889641263,
			"0.012": 6.96997976945,
			"0.013": 4.39347023239,
			"0.014": 5.95142587985,
			"0.015": 1.64032396664,
			"0.016": 0.370144176093,
			"0.017": 0.0,
			"0.018": 0.0,
			"0.019": 0.0,
			"0.02": 0.0,
			"0.021": 0.0,
			"0.022": 0.0,
			"0.023": 0.0,
			"0.024": 0.0,
			"0.025": 0.0
		}
	}
}
