{
	 "smiles": "CCN1C=C(C(O)=O)C(=O)C2=CC(F)=C(N3CCNC(C)C3)C(F)=C12", 
	 "Tm": 513.15, 
	 "num_atms": 44, 
	 "gaussian": { 
		 "optdone": 1, 
		 "sigma_profile": "yes", 
		 "theory": "DFT", 
		 "functional": "B3LYP", 
		 "basiset": "6-31G**", 
		 "properties": { 
			 "R2extent": 10651.4854, 
			 "electric_dipole_moment_norm": 9.047028757, 
			 "electric_quadrupole_moment_norm": 44.8304179743, 
			 "total_energy": -1248.87063252, 
			 "HOMO_LUMO_gap": 0.15616, 
			 "cosmo_polarized_energy": -21.42, 
			 "cosmo_cavitation_energy": 44.76, 
			 "cosmo_dispersion_energy": -31.93, 
			 "cosmo_repulsion_energy": 2.33, 
			 "cosmo_total_nonelectrostatic_energy": 15.16, 
			 "SMD_solvation_energy": 6.49 
		},
		"coords": [
			{
				"x": -0.1110219943,
				"y": 2.9978378873,
				"z": 2.2883234674,
				"element": "C" 
			},
			{
				"x": 0.5037458686,
				"y": 3.0303182894,
				"z": 0.8898600252,
				"element": "C" 
			},
			{
				"x": -0.4610884206,
				"y": 2.6670134755,
				"z": -0.1797257916,
				"element": "N" 
			},
			{
				"x": -1.1041992564,
				"y": 3.6943253479,
				"z": -0.7909163517,
				"element": "C" 
			},
			{
				"x": -2.0342092492,
				"y": 3.5667383609,
				"z": -1.7855904213,
				"element": "C" 
			},
			{
				"x": -2.6263766179,
				"y": 4.8260322913,
				"z": -2.3448273189,
				"element": "C" 
			},
			{
				"x": -3.5227470103,
				"y": 4.6482102639,
				"z": -3.3179133736,
				"element": "O" 
			},
			{
				"x": -2.3082204037,
				"y": 5.9270465067,
				"z": -1.9357066955,
				"element": "O" 
			},
			{
				"x": -2.3999215106,
				"y": 2.2536991197,
				"z": -2.2593685579,
				"element": "C" 
			},
			{
				"x": -3.2362142701,
				"y": 2.0605499409,
				"z": -3.170656893,
				"element": "O" 
			},
			{
				"x": -1.7210194644,
				"y": 1.1362110408,
				"z": -1.5905394007,
				"element": "C" 
			},
			{
				"x": -2.02965102,
				"y": -0.1692038723,
				"z": -1.9975497036,
				"element": "C" 
			},
			{
				"x": -1.4120723618,
				"y": -1.2487878272,
				"z": -1.4195201001,
				"element": "C" 
			},
			{
				"x": -1.7007708199,
				"y": -2.4816679385,
				"z": -1.8919166337,
				"element": "F" 
			},
			{
				"x": -0.4718225173,
				"y": -1.1202797422,
				"z": -0.3639557519,
				"element": "C" 
			},
			{
				"x": 0.1214207779,
				"y": -2.1931976231,
				"z": 0.2890869823,
				"element": "N" 
			},
			{
				"x": -0.52863765,
				"y": -3.5110440888,
				"z": 0.3250002834,
				"element": "C" 
			},
			{
				"x": 0.1406173349,
				"y": -4.3761053707,
				"z": 1.4307387161,
				"element": "C" 
			},
			{
				"x": 0.8010191322,
				"y": -3.5945305532,
				"z": 2.4694555098,
				"element": "N" 
			},
			{
				"x": 1.9083546523,
				"y": -2.8044609829,
				"z": 1.9117334115,
				"element": "C" 
			},
			{
				"x": 2.2865916381,
				"y": -1.6992924965,
				"z": 2.8970076773,
				"element": "C" 
			},
			{
				"x": 1.5754834156,
				"y": -2.2660714156,
				"z": 0.4807262186,
				"element": "C" 
			},
			{
				"x": -0.2047646914,
				"y": 0.2027839519,
				"z": 0.0340928429,
				"element": "C" 
			},
			{
				"x": 0.6469827483,
				"y": 0.3464334356,
				"z": 1.0876852353,
				"element": "F" 
			},
			{
				"x": -0.7675094316,
				"y": 1.348524586,
				"z": -0.5600759203,
				"element": "C" 
			},
			{
				"x": -0.964906838,
				"y": 3.67849236,
				"z": 2.3560770416,
				"element": "H" 
			},
			{
				"x": 0.6358219368,
				"y": 3.3136405858,
				"z": 3.0236017133,
				"element": "H" 
			},
			{
				"x": -0.4418737328,
				"y": 1.9915147827,
				"z": 2.5525184368,
				"element": "H" 
			},
			{
				"x": 0.8446106509,
				"y": 4.0400358736,
				"z": 0.6513044673,
				"element": "H" 
			},
			{
				"x": 1.3676500272,
				"y": 2.3738531303,
				"z": 0.8196806454,
				"element": "H" 
			},
			{
				"x": -0.8444031266,
				"y": 4.6938132467,
				"z": -0.4582503946,
				"element": "H" 
			},
			{
				"x": -3.6163956488,
				"y": 3.6689134764,
				"z": -3.4800113919,
				"element": "H" 
			},
			{
				"x": -2.742209404,
				"y": -0.3053675611,
				"z": -2.8026316696,
				"element": "H" 
			},
			{
				"x": -0.4717012958,
				"y": -4.0307335155,
				"z": -0.6407489333,
				"element": "H" 
			},
			{
				"x": -1.5881927303,
				"y": -3.3575122697,
				"z": 0.5504117647,
				"element": "H" 
			},
			{
				"x": -0.6123180479,
				"y": -5.0289102153,
				"z": 1.8836204664,
				"element": "H" 
			},
			{
				"x": 0.8948417369,
				"y": -5.0348648139,
				"z": 0.9839613659,
				"element": "H" 
			},
			{
				"x": 0.1232099567,
				"y": -2.9529973338,
				"z": 2.87794475,
				"element": "H" 
			},
			{
				"x": 2.7675159097,
				"y": -3.4826811024,
				"z": 1.8079500425,
				"element": "H" 
			},
			{
				"x": 2.487208112,
				"y": -2.1276691299,
				"z": 3.8832326524,
				"element": "H" 
			},
			{
				"x": 3.1818558069,
				"y": -1.1651344599,
				"z": 2.5638378812,
				"element": "H" 
			},
			{
				"x": 1.4757392056,
				"y": -0.970078246,
				"z": 2.9920420771,
				"element": "H" 
			},
			{
				"x": 2.0008568955,
				"y": -2.9377054322,
				"z": -0.2821783942,
				"element": "H" 
			},
			{
				"x": 2.0184217077,
				"y": -1.2843919626,
				"z": 0.3202900229,
				"element": "H" 
			}
		],
		 "valence_orbital": [ 
			{
				"type": "occ",
				"energy": -0.26512,
				"method": "rhf"
			},
			{
				"type": "occ",
				"energy": -0.2532,
				"method": "rhf"
			},
			{
				"type": "occ",
				"energy": -0.2383,
				"method": "rhf"
			},
			{
				"type": "occ",
				"energy": -0.23413,
				"method": "rhf"
			},
			{
				"type": "occ",
				"energy": -0.22172,
				"method": "rhf"
			},
			{
				"type": "unocc",
				"energy": -0.06556,
				"method": "rhf"
			},
			{
				"type": "unocc",
				"energy": -0.04793,
				"method": "rhf"
			},
			{
				"type": "unocc",
				"energy": -0.00617,
				"method": "rhf"
			},
			{
				"type": "unocc",
				"energy": 0.03281,
				"method": "rhf"
			},
			{
				"type": "unocc",
				"energy": 0.03803,
				"method": "rhf"
			}
		],
		"cosmo_sigma_profile": { 
			"-0.025": 0.0,
			"-0.024": 0.0,
			"-0.023": 0.0,
			"-0.022": 0.0,
			"-0.021": 0.0,
			"-0.02": 0.0,
			"-0.019": 0.0,
			"-0.018": 0.0,
			"-0.017": 0.0,
			"-0.016": 0.0,
			"-0.015": 0.0,
			"-0.014": 0.0,
			"-0.013": 0.0,
			"-0.012": 0.0,
			"-0.011": 0.372995562504,
			"-0.01": 1.77209637872,
			"-0.009": 2.79181631987,
			"-0.008": 2.60975362492,
			"-0.007": 5.00622438612,
			"-0.006": 8.38136188422,
			"-0.005": 16.4177640836,
			"-0.004": 38.5408881067,
			"-0.003": 46.566666875,
			"-0.002": 41.8587826654,
			"-0.001": 41.43048726,
			"0.0": 35.2129893119,
			"0.001": 25.2556648277,
			"0.002": 14.5539717745,
			"0.003": 10.3624943528,
			"0.004": 10.027816561,
			"0.005": 4.48929781849,
			"0.006": 4.02190339358,
			"0.007": 4.1017923417,
			"0.008": 4.57286337551,
			"0.009": 4.89176059485,
			"0.01": 5.54647024168,
			"0.011": 6.4178079879,
			"0.012": 9.03733973855,
			"0.013": 5.20534405824,
			"0.014": 2.28474763375,
			"0.015": 0.707895757816,
			"0.016": 0.210511830785,
			"0.017": 0.825173784791,
			"0.018": 0.418443053812,
			"0.019": 0.106404200612,
			"0.02": 0.0,
			"0.021": 0.0,
			"0.022": 0.0,
			"0.023": 0.0,
			"0.024": 0.0,
			"0.025": 0.0
		}
	}
}
