{
	 "smiles": "FC(F)(F)OC1=CC=CC=C1S(Cl)(=O)=O", 
	 "Tm": 304.15, 
	 "num_atms": 19, 
	 "gaussian": { 
		 "optdone": 1, 
		 "sigma_profile": "yes", 
		 "theory": "DFT", 
		 "functional": "B3LYP", 
		 "basiset": "6-31G**", 
		 "properties": { 
			 "R2extent": 5774.9031, 
			 "electric_dipole_moment_norm": 5.80130458776, 
			 "electric_quadrupole_moment_norm": 11.0410493106, 
			 "total_energy": -1652.65011123, 
			 "HOMO_LUMO_gap": 0.19658, 
			 "cosmo_polarized_energy": -9.35, 
			 "cosmo_cavitation_energy": 28.5, 
			 "cosmo_dispersion_energy": -20.51, 
			 "cosmo_repulsion_energy": 1.5, 
			 "cosmo_total_nonelectrostatic_energy": 9.49, 
			 "SMD_solvation_energy": 5.1 
		},
		"coords": [
			{
				"x": -1.8588465455,
				"y": 0.7897549557,
				"z": 4.3057005647,
				"element": "F" 
			},
			{
				"x": -1.6732315864,
				"y": 0.861539068,
				"z": 2.9955916174,
				"element": "C" 
			},
			{
				"x": -1.4625475827,
				"y": 2.1554638317,
				"z": 2.6652296728,
				"element": "F" 
			},
			{
				"x": -2.7779180193,
				"y": 0.4615558409,
				"z": 2.3563758004,
				"element": "F" 
			},
			{
				"x": -0.5909453726,
				"y": 0.0800949172,
				"z": 2.6925353282,
				"element": "O" 
			},
			{
				"x": -0.3145027804,
				"y": -0.1976072913,
				"z": 1.3634754732,
				"element": "C" 
			},
			{
				"x": 0.0039407479,
				"y": 0.8068816126,
				"z": 0.4523177736,
				"element": "C" 
			},
			{
				"x": 0.3634692114,
				"y": 0.463107562,
				"z": -0.8517589289,
				"element": "C" 
			},
			{
				"x": 0.4254756633,
				"y": -0.8737463554,
				"z": -1.2471708992,
				"element": "C" 
			},
			{
				"x": 0.1201489996,
				"y": -1.8827827928,
				"z": -0.3354899286,
				"element": "C" 
			},
			{
				"x": -0.2560095404,
				"y": -1.5396572851,
				"z": 0.9646984268,
				"element": "C" 
			},
			{
				"x": -0.7266204167,
				"y": -2.8738865025,
				"z": 2.0684490564,
				"element": "S" 
			},
			{
				"x": 0.8891085841,
				"y": -2.8793532114,
				"z": 3.4420377177,
				"element": "Cl" 
			},
			{
				"x": -1.9226927285,
				"y": -2.515895555,
				"z": 2.8162486955,
				"element": "O" 
			},
			{
				"x": -0.6327013191,
				"y": -4.1241858161,
				"z": 1.3246080126,
				"element": "O" 
			},
			{
				"x": -0.0254211663,
				"y": 1.840842177,
				"z": 0.7722474722,
				"element": "H" 
			},
			{
				"x": 0.6077154168,
				"y": 1.250515854,
				"z": -1.5579192386,
				"element": "H" 
			},
			{
				"x": 0.7132695648,
				"y": -1.1336484783,
				"z": -2.2603365185,
				"element": "H" 
			},
			{
				"x": 0.15970887,
				"y": -2.9290925312,
				"z": -0.6147400978,
				"element": "H" 
			}
		],
		 "valence_orbital": [ 
			{
				"type": "occ",
				"energy": -0.33873,
				"method": "rhf"
			},
			{
				"type": "occ",
				"energy": -0.33574,
				"method": "rhf"
			},
			{
				"type": "occ",
				"energy": -0.31594,
				"method": "rhf"
			},
			{
				"type": "occ",
				"energy": -0.30074,
				"method": "rhf"
			},
			{
				"type": "occ",
				"energy": -0.28854,
				"method": "rhf"
			},
			{
				"type": "unocc",
				"energy": -0.09196,
				"method": "rhf"
			},
			{
				"type": "unocc",
				"energy": -0.05601,
				"method": "rhf"
			},
			{
				"type": "unocc",
				"energy": -0.04651,
				"method": "rhf"
			},
			{
				"type": "unocc",
				"energy": 0.03816,
				"method": "rhf"
			},
			{
				"type": "unocc",
				"energy": 0.06072,
				"method": "rhf"
			}
		],
		"cosmo_sigma_profile": { 
			"-0.025": 0.0,
			"-0.024": 0.0,
			"-0.023": 0.0,
			"-0.022": 0.0,
			"-0.021": 0.0,
			"-0.02": 0.0,
			"-0.019": 0.0,
			"-0.018": 0.0,
			"-0.017": 0.0,
			"-0.016": 0.0,
			"-0.015": 0.0,
			"-0.014": 0.0,
			"-0.013": 0.0,
			"-0.012": 0.0,
			"-0.011": 0.0,
			"-0.01": 0.0,
			"-0.009": 1.41423031751,
			"-0.008": 8.30801768442,
			"-0.007": 9.18728240185,
			"-0.006": 8.29469559977,
			"-0.005": 7.0497976746,
			"-0.004": 9.82154651467,
			"-0.003": 10.4733897484,
			"-0.002": 18.5156287515,
			"-0.001": 20.7576059964,
			"0.0": 24.3218932362,
			"0.001": 35.0840580474,
			"0.002": 26.1065896604,
			"0.003": 19.3461997162,
			"0.004": 8.10087275124,
			"0.005": 4.84293850744,
			"0.006": 4.66678816904,
			"0.007": 6.49407787125,
			"0.008": 7.44339650691,
			"0.009": 2.43518297365,
			"0.01": 0.0,
			"0.011": 0.0,
			"0.012": 0.0,
			"0.013": 0.0,
			"0.014": 0.0,
			"0.015": 0.0,
			"0.016": 0.0,
			"0.017": 0.0,
			"0.018": 0.0,
			"0.019": 0.0,
			"0.02": 0.0,
			"0.021": 0.0,
			"0.022": 0.0,
			"0.023": 0.0,
			"0.024": 0.0,
			"0.025": 0.0
		}
	}
}
