{
	 "smiles": "ClC1=C2C=CC=CC2=CC=C1Br", 
	 "Tm": 325.15, 
	 "num_atms": 18, 
	 "gaussian": { 
		 "optdone": 1, 
		 "sigma_profile": "yes", 
		 "theory": "DFT", 
		 "functional": "B3LYP", 
		 "basiset": "6-31G**", 
		 "properties": { 
			 "R2extent": 4305.6415, 
			 "electric_dipole_moment_norm": 2.80898080271, 
			 "electric_quadrupole_moment_norm": 6.52945096467, 
			 "total_energy": -3416.28342158, 
			 "HOMO_LUMO_gap": 0.16973, 
			 "cosmo_polarized_energy": -4.89, 
			 "cosmo_cavitation_energy": 25.63, 
			 "cosmo_dispersion_energy": -19.81, 
			 "cosmo_repulsion_energy": 1.54, 
			 "cosmo_total_nonelectrostatic_energy": 7.35, 
			 "SMD_solvation_energy": 2.78 
		},
		"coords": [
			{
				"x": 1.2633937829,
				"y": -2.4694667078,
				"z": -1.5248633988,
				"element": "Cl" 
			},
			{
				"x": 0.531217772,
				"y": -0.8866576777,
				"z": -1.3809616039,
				"element": "C" 
			},
			{
				"x": 0.667075692,
				"y": -0.17028415,
				"z": -0.1492656279,
				"element": "C" 
			},
			{
				"x": 1.3711241081,
				"y": -0.6783063539,
				"z": 0.9756733852,
				"element": "C" 
			},
			{
				"x": 1.4696255652,
				"y": 0.0560121586,
				"z": 2.1366294702,
				"element": "C" 
			},
			{
				"x": 0.8719955877,
				"y": 1.3339586151,
				"z": 2.2367669288,
				"element": "C" 
			},
			{
				"x": 0.183497926,
				"y": 1.8537629497,
				"z": 1.1652837011,
				"element": "C" 
			},
			{
				"x": 0.0602548685,
				"y": 1.1268635097,
				"z": -0.0481929911,
				"element": "C" 
			},
			{
				"x": -0.6475494271,
				"y": 1.6534016025,
				"z": -1.1595923937,
				"element": "C" 
			},
			{
				"x": -0.759668116,
				"y": 0.941406538,
				"z": -2.3266392843,
				"element": "C" 
			},
			{
				"x": -0.1664030468,
				"y": -0.3389545237,
				"z": -2.440405605,
				"element": "C" 
			},
			{
				"x": -0.3755804922,
				"y": -1.249868538,
				"z": -4.097181146,
				"element": "Br" 
			},
			{
				"x": 1.8325409732,
				"y": -1.6559682095,
				"z": 0.9096776431,
				"element": "H" 
			},
			{
				"x": 2.0125646522,
				"y": -0.3519105521,
				"z": 2.9840697802,
				"element": "H" 
			},
			{
				"x": 0.9581245386,
				"y": 1.9011955133,
				"z": 3.1586150698,
				"element": "H" 
			},
			{
				"x": -0.2802574039,
				"y": 2.8345178627,
				"z": 1.2292386861,
				"element": "H" 
			},
			{
				"x": -1.1044139822,
				"y": 2.635465373,
				"z": -1.0769251323,
				"element": "H" 
			},
			{
				"x": -1.2998429981,
				"y": 1.3421325902,
				"z": -3.1762274814,
				"element": "H" 
			}
		],
		 "valence_orbital": [ 
			{
				"type": "occ",
				"energy": -0.30604,
				"method": "rhf"
			},
			{
				"type": "occ",
				"energy": -0.28522,
				"method": "rhf"
			},
			{
				"type": "occ",
				"energy": -0.28211,
				"method": "rhf"
			},
			{
				"type": "occ",
				"energy": -0.25035,
				"method": "rhf"
			},
			{
				"type": "occ",
				"energy": -0.22548,
				"method": "rhf"
			},
			{
				"type": "unocc",
				"energy": -0.05575,
				"method": "rhf"
			},
			{
				"type": "unocc",
				"energy": -0.02653,
				"method": "rhf"
			},
			{
				"type": "unocc",
				"energy": -0.01059,
				"method": "rhf"
			},
			{
				"type": "unocc",
				"energy": 0.0177,
				"method": "rhf"
			},
			{
				"type": "unocc",
				"energy": 0.05355,
				"method": "rhf"
			}
		],
		"cosmo_sigma_profile": { 
			"-0.025": 0.0,
			"-0.024": 0.0,
			"-0.023": 0.0,
			"-0.022": 0.0,
			"-0.021": 0.0,
			"-0.02": 0.0,
			"-0.019": 0.0,
			"-0.018": 0.0,
			"-0.017": 0.0,
			"-0.016": 0.0,
			"-0.015": 0.0,
			"-0.014": 0.0,
			"-0.013": 0.0,
			"-0.012": 0.0,
			"-0.011": 0.0,
			"-0.01": 0.0,
			"-0.009": 0.0,
			"-0.008": 0.755535237925,
			"-0.007": 6.63986946777,
			"-0.006": 11.7603018421,
			"-0.005": 12.5656756442,
			"-0.004": 12.3942418149,
			"-0.003": 10.4575304017,
			"-0.002": 11.4275018602,
			"-0.001": 11.6478525109,
			"0.0": 18.4734953667,
			"0.001": 29.345083436,
			"0.002": 27.9948269189,
			"0.003": 26.8801389712,
			"0.004": 24.3041917193,
			"0.005": 6.70107202951,
			"0.006": 0.724616757646,
			"0.007": 0.0,
			"0.008": 0.0,
			"0.009": 0.0,
			"0.01": 0.0,
			"0.011": 0.0,
			"0.012": 0.0,
			"0.013": 0.0,
			"0.014": 0.0,
			"0.015": 0.0,
			"0.016": 0.0,
			"0.017": 0.0,
			"0.018": 0.0,
			"0.019": 0.0,
			"0.02": 0.0,
			"0.021": 0.0,
			"0.022": 0.0,
			"0.023": 0.0,
			"0.024": 0.0,
			"0.025": 0.0
		}
	}
}
