{
	 "smiles": "CC(C)(OC1=CC=C(Cl)C=C1)C(=O)OCCOC(=O)C1=CC=CN=C1", 
	 "Tm": 373.15, 
	 "num_atms": 43, 
	 "gaussian": { 
		 "optdone": 1, 
		 "sigma_profile": "yes", 
		 "theory": "DFT", 
		 "functional": "B3LYP", 
		 "basiset": "6-31G**", 
		 "properties": { 
			 "R2extent": 10639.7952, 
			 "electric_dipole_moment_norm": 2.79963459937, 
			 "electric_quadrupole_moment_norm": 21.180298237, 
			 "total_energy": -1587.83786101, 
			 "HOMO_LUMO_gap": 0.16475, 
			 "cosmo_polarized_energy": -16.92, 
			 "cosmo_cavitation_energy": 49.23, 
			 "cosmo_dispersion_energy": -31.84, 
			 "cosmo_repulsion_energy": 2.42, 
			 "cosmo_total_nonelectrostatic_energy": 19.81, 
			 "SMD_solvation_energy": 8.21 
		},
		"coords": [
			{
				"x": -0.5318148026,
				"y": -2.8898120791,
				"z": 2.2262025421,
				"element": "C" 
			},
			{
				"x": -0.694573674,
				"y": -2.0136768303,
				"z": 0.9719304293,
				"element": "C" 
			},
			{
				"x": -2.1571171106,
				"y": -1.9823937811,
				"z": 0.5174603129,
				"element": "C" 
			},
			{
				"x": 0.1540063239,
				"y": -2.6495318141,
				"z": 0.0025543017,
				"element": "O" 
			},
			{
				"x": 0.3377252052,
				"y": -2.1668953449,
				"z": -1.2639205876,
				"element": "C" 
			},
			{
				"x": -0.0021263081,
				"y": -0.8858090747,
				"z": -1.7168778438,
				"element": "C" 
			},
			{
				"x": 0.2738448493,
				"y": -0.5179827272,
				"z": -3.0369058566,
				"element": "C" 
			},
			{
				"x": 0.8867254377,
				"y": -1.4204345318,
				"z": -3.89987229,
				"element": "C" 
			},
			{
				"x": 1.2293280571,
				"y": -0.9477287983,
				"z": -5.5601104665,
				"element": "Cl" 
			},
			{
				"x": 1.2329412005,
				"y": -2.6987747175,
				"z": -3.4580792699,
				"element": "C" 
			},
			{
				"x": 0.955598684,
				"y": -3.0657891691,
				"z": -2.1465087674,
				"element": "C" 
			},
			{
				"x": -0.2035071542,
				"y": -0.6017941565,
				"z": 1.3566823606,
				"element": "C" 
			},
			{
				"x": -0.9403064737,
				"y": 0.2760626735,
				"z": 1.7507176417,
				"element": "O" 
			},
			{
				"x": 1.1380998477,
				"y": -0.505369068,
				"z": 1.2808440199,
				"element": "O" 
			},
			{
				"x": 1.7368347514,
				"y": 0.7401907803,
				"z": 1.7014056443,
				"element": "C" 
			},
			{
				"x": 1.9670939006,
				"y": 1.6745629935,
				"z": 0.5245752094,
				"element": "C" 
			},
			{
				"x": 0.7412619049,
				"y": 2.2056618136,
				"z": -0.0132857443,
				"element": "O" 
			},
			{
				"x": 0.1846831275,
				"y": 3.2272508006,
				"z": 0.6881979905,
				"element": "C" 
			},
			{
				"x": 0.6778743197,
				"y": 3.6852935123,
				"z": 1.6996424833,
				"element": "O" 
			},
			{
				"x": -1.0723517874,
				"y": 3.7223310457,
				"z": 0.0685471696,
				"element": "C" 
			},
			{
				"x": -1.5738211187,
				"y": 3.244683172,
				"z": -1.1471112725,
				"element": "C" 
			},
			{
				"x": -2.7583944586,
				"y": 3.7868234428,
				"z": -1.6362285899,
				"element": "C" 
			},
			{
				"x": -3.3931703366,
				"y": 4.7829804179,
				"z": -0.8909414373,
				"element": "C" 
			},
			{
				"x": -2.9275583731,
				"y": 5.2539625343,
				"z": 0.2742359715,
				"element": "N" 
			},
			{
				"x": -1.7895850115,
				"y": 4.7276389315,
				"z": 0.7339733556,
				"element": "C" 
			},
			{
				"x": -0.868140444,
				"y": -3.9052694362,
				"z": 2.0015857024,
				"element": "H" 
			},
			{
				"x": -1.129326451,
				"y": -2.4898490528,
				"z": 3.0493700554,
				"element": "H" 
			},
			{
				"x": 0.5177576488,
				"y": -2.9261234454,
				"z": 2.526636505,
				"element": "H" 
			},
			{
				"x": -2.5038176603,
				"y": -3.0067999959,
				"z": 0.3586781625,
				"element": "H" 
			},
			{
				"x": -2.2873893481,
				"y": -1.4263132012,
				"z": -0.4125280033,
				"element": "H" 
			},
			{
				"x": -2.7726052664,
				"y": -1.5073118992,
				"z": 1.2829797416,
				"element": "H" 
			},
			{
				"x": -0.4672402842,
				"y": -0.1567417259,
				"z": -1.065644319,
				"element": "H" 
			},
			{
				"x": 0.0127068498,
				"y": 0.4743671925,
				"z": -3.3883498907,
				"element": "H" 
			},
			{
				"x": 1.7108543275,
				"y": -3.3986116335,
				"z": -4.1346992782,
				"element": "H" 
			},
			{
				"x": 1.2140593857,
				"y": -4.0534220487,
				"z": -1.7796271024,
				"element": "H" 
			},
			{
				"x": 2.703812173,
				"y": 0.4618813384,
				"z": 2.1288510894,
				"element": "H" 
			},
			{
				"x": 1.1166858609,
				"y": 1.2151358693,
				"z": 2.461897009,
				"element": "H" 
			},
			{
				"x": 2.4298164562,
				"y": 1.1386235824,
				"z": -0.3060907755,
				"element": "H" 
			},
			{
				"x": 2.6107563624,
				"y": 2.4977726298,
				"z": 0.8471395263,
				"element": "H" 
			},
			{
				"x": -1.0397675441,
				"y": 2.4740866877,
				"z": -1.6912714079,
				"element": "H" 
			},
			{
				"x": -3.18458402,
				"y": 3.4492114113,
				"z": -2.5754497582,
				"element": "H" 
			},
			{
				"x": -4.3212677467,
				"y": 5.2261905941,
				"z": -1.2478899601,
				"element": "H" 
			},
			{
				"x": -1.4111012997,
				"y": 5.1091231081,
				"z": 1.678685397,
				"element": "H" 
			}
		],
		 "valence_orbital": [ 
			{
				"type": "occ",
				"energy": -0.28061,
				"method": "rhf"
			},
			{
				"type": "occ",
				"energy": -0.27273,
				"method": "rhf"
			},
			{
				"type": "occ",
				"energy": -0.26659,
				"method": "rhf"
			},
			{
				"type": "occ",
				"energy": -0.26078,
				"method": "rhf"
			},
			{
				"type": "occ",
				"energy": -0.22486,
				"method": "rhf"
			},
			{
				"type": "unocc",
				"energy": -0.06011,
				"method": "rhf"
			},
			{
				"type": "unocc",
				"energy": -0.03002,
				"method": "rhf"
			},
			{
				"type": "unocc",
				"energy": -0.01791,
				"method": "rhf"
			},
			{
				"type": "unocc",
				"energy": -0.00841,
				"method": "rhf"
			},
			{
				"type": "unocc",
				"energy": -0.00374,
				"method": "rhf"
			}
		],
		"cosmo_sigma_profile": { 
			"-0.025": 0.0,
			"-0.024": 0.0,
			"-0.023": 0.0,
			"-0.022": 0.0,
			"-0.021": 0.0,
			"-0.02": 0.0,
			"-0.019": 0.0,
			"-0.018": 0.0,
			"-0.017": 0.0,
			"-0.016": 0.0,
			"-0.015": 0.0,
			"-0.014": 0.0,
			"-0.013": 0.0,
			"-0.012": 0.0,
			"-0.011": 0.0,
			"-0.01": 0.0,
			"-0.009": 0.0,
			"-0.008": 3.95315454366,
			"-0.007": 17.9231782558,
			"-0.006": 22.0700310994,
			"-0.005": 27.7334566084,
			"-0.004": 30.6383029128,
			"-0.003": 28.0880699807,
			"-0.002": 29.3537850023,
			"-0.001": 33.1212926251,
			"0.0": 33.5264239299,
			"0.001": 30.6974341331,
			"0.002": 28.1603705718,
			"0.003": 27.3819270186,
			"0.004": 23.4398821913,
			"0.005": 15.2214587263,
			"0.006": 8.10921758001,
			"0.007": 6.04300310735,
			"0.008": 6.35340412009,
			"0.009": 5.40294273391,
			"0.01": 5.58080635099,
			"0.011": 6.43375951345,
			"0.012": 1.58509129426,
			"0.013": 1.28600479752,
			"0.014": 0.69720579301,
			"0.015": 0.961498756728,
			"0.016": 0.466999670084,
			"0.017": 0.0362252145282,
			"0.018": 0.0,
			"0.019": 0.0,
			"0.02": 0.0,
			"0.021": 0.0,
			"0.022": 0.0,
			"0.023": 0.0,
			"0.024": 0.0,
			"0.025": 0.0
		}
	}
}
