{
	 "smiles": "SC1=NC2=C(C=CS2)C(=O)N1CC=C", 
	 "Tm": 486.15, 
	 "num_atms": 22, 
	 "gaussian": { 
		 "optdone": 1, 
		 "sigma_profile": "yes", 
		 "theory": "DFT", 
		 "functional": "B3LYP", 
		 "basiset": "6-31G**", 
		 "properties": { 
			 "R2extent": 3796.0503, 
			 "electric_dipole_moment_norm": 1.37309263708, 
			 "electric_quadrupole_moment_norm": 11.9446938517, 
			 "total_energy": -1328.85911691, 
			 "HOMO_LUMO_gap": 0.17259, 
			 "cosmo_polarized_energy": -10.81, 
			 "cosmo_cavitation_energy": 29.35, 
			 "cosmo_dispersion_energy": -22.09, 
			 "cosmo_repulsion_energy": 1.63, 
			 "cosmo_total_nonelectrostatic_energy": 8.89, 
			 "SMD_solvation_energy": 4.2 
		},
		"coords": [
			{
				"x": -2.1447816163,
				"y": -2.1925564904,
				"z": -0.690634873,
				"element": "S" 
			},
			{
				"x": -1.5792936646,
				"y": -0.6055294034,
				"z": -0.0985393671,
				"element": "C" 
			},
			{
				"x": -2.4559958771,
				"y": 0.3567135583,
				"z": -0.0071406255,
				"element": "N" 
			},
			{
				"x": -1.9755819837,
				"y": 1.5384736018,
				"z": 0.4566916086,
				"element": "C" 
			},
			{
				"x": -0.6643900082,
				"y": 1.7959106986,
				"z": 0.8383394143,
				"element": "C" 
			},
			{
				"x": -0.4608989142,
				"y": 3.136924824,
				"z": 1.2908712851,
				"element": "C" 
			},
			{
				"x": -1.6070837373,
				"y": 3.8714068627,
				"z": 1.2455748127,
				"element": "C" 
			},
			{
				"x": -2.9779179088,
				"y": 2.9571943892,
				"z": 0.6517248023,
				"element": "S" 
			},
			{
				"x": 0.3083910423,
				"y": 0.7328994037,
				"z": 0.7494505008,
				"element": "C" 
			},
			{
				"x": 1.4891229545,
				"y": 0.7909688799,
				"z": 1.0618787463,
				"element": "O" 
			},
			{
				"x": -0.2486897097,
				"y": -0.4935509617,
				"z": 0.2356398812,
				"element": "N" 
			},
			{
				"x": 0.6883988626,
				"y": -1.6188375814,
				"z": 0.1093664353,
				"element": "C" 
			},
			{
				"x": 1.2801663197,
				"y": -1.7994457061,
				"z": -1.2670575909,
				"element": "C" 
			},
			{
				"x": 1.1264656021,
				"y": -0.9876842349,
				"z": -2.3100797167,
				"element": "C" 
			},
			{
				"x": -3.425053755,
				"y": -1.7806015036,
				"z": -0.7241727382,
				"element": "H" 
			},
			{
				"x": 0.4973795578,
				"y": 3.5123949301,
				"z": 1.6270888696,
				"element": "H" 
			},
			{
				"x": -1.7456036213,
				"y": 4.9067600729,
				"z": 1.5244760245,
				"element": "H" 
			},
			{
				"x": 1.4910049889,
				"y": -1.4156542167,
				"z": 0.8241506335,
				"element": "H" 
			},
			{
				"x": 0.18213091,
				"y": -2.5342810187,
				"z": 0.4350853081,
				"element": "H" 
			},
			{
				"x": 1.9050558417,
				"y": -2.6871407793,
				"z": -1.3585902203,
				"element": "H" 
			},
			{
				"x": 0.5166168983,
				"y": -0.0905273231,
				"z": -2.2604910068,
				"element": "H" 
			},
			{
				"x": 1.6119578183,
				"y": -1.1961380019,
				"z": -3.2577321839,
				"element": "H" 
			}
		],
		 "valence_orbital": [ 
			{
				"type": "occ",
				"energy": -0.28306,
				"method": "rhf"
			},
			{
				"type": "occ",
				"energy": -0.27122,
				"method": "rhf"
			},
			{
				"type": "occ",
				"energy": -0.26436,
				"method": "rhf"
			},
			{
				"type": "occ",
				"energy": -0.26167,
				"method": "rhf"
			},
			{
				"type": "occ",
				"energy": -0.2188,
				"method": "rhf"
			},
			{
				"type": "unocc",
				"energy": -0.04621,
				"method": "rhf"
			},
			{
				"type": "unocc",
				"energy": -0.01336,
				"method": "rhf"
			},
			{
				"type": "unocc",
				"energy": -0.00274,
				"method": "rhf"
			},
			{
				"type": "unocc",
				"energy": 0.0111,
				"method": "rhf"
			},
			{
				"type": "unocc",
				"energy": 0.01991,
				"method": "rhf"
			}
		],
		"cosmo_sigma_profile": { 
			"-0.025": 0.0,
			"-0.024": 0.0,
			"-0.023": 0.0,
			"-0.022": 0.0,
			"-0.021": 0.0,
			"-0.02": 0.0,
			"-0.019": 0.0,
			"-0.018": 0.0,
			"-0.017": 0.0,
			"-0.016": 0.0,
			"-0.015": 0.0,
			"-0.014": 0.0,
			"-0.013": 0.0809043698232,
			"-0.012": 1.23383628782,
			"-0.011": 1.17373628778,
			"-0.01": 1.29438411354,
			"-0.009": 3.16849917737,
			"-0.008": 3.47137480325,
			"-0.007": 6.82905578268,
			"-0.006": 15.0241721088,
			"-0.005": 16.5252295784,
			"-0.004": 15.9294349513,
			"-0.003": 15.6773024592,
			"-0.002": 12.7395162636,
			"-0.001": 15.1700425515,
			"0.0": 17.9572916178,
			"0.001": 23.8537067296,
			"0.002": 22.601535475,
			"0.003": 17.4963372774,
			"0.004": 13.2909566509,
			"0.005": 8.32261302723,
			"0.006": 8.12768501823,
			"0.007": 4.07642819584,
			"0.008": 2.25956373659,
			"0.009": 2.50184175478,
			"0.01": 2.77644365599,
			"0.011": 2.25514384194,
			"0.012": 4.13946628007,
			"0.013": 2.4326843968,
			"0.014": 0.0248556486911,
			"0.015": 0.0,
			"0.016": 0.0,
			"0.017": 0.0,
			"0.018": 0.0,
			"0.019": 0.0,
			"0.02": 0.0,
			"0.021": 0.0,
			"0.022": 0.0,
			"0.023": 0.0,
			"0.024": 0.0,
			"0.025": 0.0
		}
	}
}
