{
	 "smiles": "CC1=C(N)C=CC=C1N", 
	 "Tm": 379.15, 
	 "num_atms": 19, 
	 "gaussian": { 
		 "optdone": 1, 
		 "sigma_profile": "yes", 
		 "theory": "DFT", 
		 "functional": "B3LYP", 
		 "basiset": "6-31G**", 
		 "properties": { 
			 "R2extent": 1253.8222, 
			 "electric_dipole_moment_norm": 1.07220438816, 
			 "electric_quadrupole_moment_norm": 11.706456557, 
			 "total_energy": -382.284257562, 
			 "HOMO_LUMO_gap": 0.20673, 
			 "cosmo_polarized_energy": -11.44, 
			 "cosmo_cavitation_energy": 21.41, 
			 "cosmo_dispersion_energy": -16.33, 
			 "cosmo_repulsion_energy": 1.34, 
			 "cosmo_total_nonelectrostatic_energy": 6.42, 
			 "SMD_solvation_energy": 3.5 
		},
		"coords": [
			{
				"x": -1.9767128695,
				"y": 0.2235792583,
				"z": -1.024556093,
				"element": "C" 
			},
			{
				"x": -0.5106855982,
				"y": 0.0327150236,
				"z": -0.7121481318,
				"element": "C" 
			},
			{
				"x": 0.0521732696,
				"y": -1.2597790496,
				"z": -0.6453400542,
				"element": "C" 
			},
			{
				"x": -0.7542026543,
				"y": -2.39272011,
				"z": -0.8659597755,
				"element": "N" 
			},
			{
				"x": 1.4028241179,
				"y": -1.4302671078,
				"z": -0.3026637677,
				"element": "C" 
			},
			{
				"x": 2.1978681599,
				"y": -0.3179615821,
				"z": -0.0428182328,
				"element": "C" 
			},
			{
				"x": 1.6738799521,
				"y": 0.9661741391,
				"z": -0.1353043278,
				"element": "C" 
			},
			{
				"x": 0.3228003867,
				"y": 1.1475382149,
				"z": -0.4774892003,
				"element": "C" 
			},
			{
				"x": -0.1722750836,
				"y": 2.448149552,
				"z": -0.6340313817,
				"element": "N" 
			},
			{
				"x": -2.1561988014,
				"y": 0.5207353765,
				"z": -2.0669329391,
				"element": "H" 
			},
			{
				"x": -2.5452441575,
				"y": -0.6885955063,
				"z": -0.8279808786,
				"element": "H" 
			},
			{
				"x": -2.4288464466,
				"y": 0.9990156256,
				"z": -0.3925489745,
				"element": "H" 
			},
			{
				"x": -0.216387827,
				"y": -3.2430722867,
				"z": -0.9735938117,
				"element": "H" 
			},
			{
				"x": -1.410510472,
				"y": -2.2979297457,
				"z": -1.6298567293,
				"element": "H" 
			},
			{
				"x": 1.8206928188,
				"y": -2.4323057958,
				"z": -0.2492507661,
				"element": "H" 
			},
			{
				"x": 3.2427865722,
				"y": -0.4542167961,
				"z": 0.2225575285,
				"element": "H" 
			},
			{
				"x": 2.3016625837,
				"y": 1.8347092106,
				"z": 0.0459133578,
				"element": "H" 
			},
			{
				"x": -1.1680141145,
				"y": 2.5575250021,
				"z": -0.5038478408,
				"element": "H" 
			},
			{
				"x": 0.3474901636,
				"y": 3.1527065776,
				"z": -0.1286479813,
				"element": "H" 
			}
		],
		 "valence_orbital": [ 
			{
				"type": "occ",
				"energy": -0.3364,
				"method": "rhf"
			},
			{
				"type": "occ",
				"energy": -0.3179,
				"method": "rhf"
			},
			{
				"type": "occ",
				"energy": -0.27191,
				"method": "rhf"
			},
			{
				"type": "occ",
				"energy": -0.2001,
				"method": "rhf"
			},
			{
				"type": "occ",
				"energy": -0.1842,
				"method": "rhf"
			},
			{
				"type": "unocc",
				"energy": 0.02253,
				"method": "rhf"
			},
			{
				"type": "unocc",
				"energy": 0.03625,
				"method": "rhf"
			},
			{
				"type": "unocc",
				"energy": 0.07465,
				"method": "rhf"
			},
			{
				"type": "unocc",
				"energy": 0.10053,
				"method": "rhf"
			},
			{
				"type": "unocc",
				"energy": 0.10619,
				"method": "rhf"
			}
		],
		"cosmo_sigma_profile": { 
			"-0.025": 0.0,
			"-0.024": 0.0,
			"-0.023": 0.0,
			"-0.022": 0.0,
			"-0.021": 0.0,
			"-0.02": 0.0,
			"-0.019": 0.0,
			"-0.018": 0.0,
			"-0.017": 0.0,
			"-0.016": 0.0,
			"-0.015": 0.0,
			"-0.014": 0.0,
			"-0.013": 0.0,
			"-0.012": 1.12492780552,
			"-0.011": 4.65473123338,
			"-0.01": 4.49884807826,
			"-0.009": 5.77816083919,
			"-0.008": 6.54387297903,
			"-0.007": 5.46953066429,
			"-0.006": 5.68139578279,
			"-0.005": 6.99917057018,
			"-0.004": 8.76775586434,
			"-0.003": 12.5849525623,
			"-0.002": 12.7753420476,
			"-0.001": 10.7975337925,
			"0.0": 10.9476886186,
			"0.001": 8.13974073811,
			"0.002": 5.38600028389,
			"0.003": 6.37192093433,
			"0.004": 6.11656610161,
			"0.005": 6.99855740876,
			"0.006": 6.99953016876,
			"0.007": 9.54228264719,
			"0.008": 9.73148392228,
			"0.009": 4.17822703843,
			"0.01": 1.50576656029,
			"0.011": 0.640518019788,
			"0.012": 2.11936311658,
			"0.013": 1.36657241426,
			"0.014": 1.37158217096,
			"0.015": 0.871418612228,
			"0.016": 0.402024565488,
			"0.017": 0.0,
			"0.018": 0.0,
			"0.019": 0.0,
			"0.02": 0.0,
			"0.021": 0.0,
			"0.022": 0.0,
			"0.023": 0.0,
			"0.024": 0.0,
			"0.025": 0.0
		}
	}
}
