{
	 "smiles": "CC1=C(Cl)C=CC(C(O)=O)=C1N", 
	 "Tm": 482.15, 
	 "num_atms": 20, 
	 "gaussian": { 
		 "optdone": 1, 
		 "sigma_profile": "yes", 
		 "theory": "DFT", 
		 "functional": "B3LYP", 
		 "basiset": "6-31G**", 
		 "properties": { 
			 "R2extent": 2766.6848, 
			 "electric_dipole_moment_norm": 3.60039066075, 
			 "electric_quadrupole_moment_norm": 9.11931341933, 
			 "total_energy": -975.096398124, 
			 "HOMO_LUMO_gap": 0.16948, 
			 "cosmo_polarized_energy": -11.51, 
			 "cosmo_cavitation_energy": 25.14, 
			 "cosmo_dispersion_energy": -19.27, 
			 "cosmo_repulsion_energy": 1.52, 
			 "cosmo_total_nonelectrostatic_energy": 7.39, 
			 "SMD_solvation_energy": 5.05 
		},
		"coords": [
			{
				"x": 1.566985564,
				"y": 0.4717123683,
				"z": -1.93050812,
				"element": "C" 
			},
			{
				"x": 0.3921281297,
				"y": -0.0334705509,
				"z": -1.1321628129,
				"element": "C" 
			},
			{
				"x": -0.9330498739,
				"y": 0.1459506572,
				"z": -1.5211439584,
				"element": "C" 
			},
			{
				"x": -1.3157866099,
				"y": 0.9765037303,
				"z": -3.029899821,
				"element": "Cl" 
			},
			{
				"x": -2.0221338947,
				"y": -0.3047707347,
				"z": -0.7632291994,
				"element": "C" 
			},
			{
				"x": -1.7642933375,
				"y": -0.9622271501,
				"z": 0.4220796954,
				"element": "C" 
			},
			{
				"x": -0.4524039559,
				"y": -1.191489525,
				"z": 0.8742158737,
				"element": "C" 
			},
			{
				"x": -0.3565320365,
				"y": -1.9316005866,
				"z": 2.1499169683,
				"element": "C" 
			},
			{
				"x": 0.9191087427,
				"y": -2.2042395042,
				"z": 2.5718212465,
				"element": "O" 
			},
			{
				"x": -1.3043902934,
				"y": -2.3042456222,
				"z": 2.8151818998,
				"element": "O" 
			},
			{
				"x": 0.6432657167,
				"y": -0.7212500121,
				"z": 0.0954658548,
				"element": "C" 
			},
			{
				"x": 1.9479148312,
				"y": -0.8632893524,
				"z": 0.4954160689,
				"element": "N" 
			},
			{
				"x": 2.2018462571,
				"y": 1.126183627,
				"z": -1.3204759056,
				"element": "H" 
			},
			{
				"x": 1.2457625958,
				"y": 1.0359022433,
				"z": -2.8042975932,
				"element": "H" 
			},
			{
				"x": 2.1955851554,
				"y": -0.3552150796,
				"z": -2.2901896668,
				"element": "H" 
			},
			{
				"x": -3.0341802714,
				"y": -0.1360227856,
				"z": -1.1092970434,
				"element": "H" 
			},
			{
				"x": -2.5762020166,
				"y": -1.3297406171,
				"z": 1.0393784885,
				"element": "H" 
			},
			{
				"x": 0.812213434,
				"y": -2.690305245,
				"z": 3.406097363,
				"element": "H" 
			},
			{
				"x": 2.1385465513,
				"y": -1.4703717325,
				"z": 1.2771581853,
				"element": "H" 
			},
			{
				"x": 2.673615312,
				"y": -0.757514128,
				"z": -0.1927275235,
				"element": "H" 
			}
		],
		 "valence_orbital": [ 
			{
				"type": "occ",
				"energy": -0.31221,
				"method": "rhf"
			},
			{
				"type": "occ",
				"energy": -0.30439,
				"method": "rhf"
			},
			{
				"type": "occ",
				"energy": -0.27995,
				"method": "rhf"
			},
			{
				"type": "occ",
				"energy": -0.248,
				"method": "rhf"
			},
			{
				"type": "occ",
				"energy": -0.21473,
				"method": "rhf"
			},
			{
				"type": "unocc",
				"energy": -0.04525,
				"method": "rhf"
			},
			{
				"type": "unocc",
				"energy": 0.00166,
				"method": "rhf"
			},
			{
				"type": "unocc",
				"energy": 0.03044,
				"method": "rhf"
			},
			{
				"type": "unocc",
				"energy": 0.05331,
				"method": "rhf"
			},
			{
				"type": "unocc",
				"energy": 0.06967,
				"method": "rhf"
			}
		],
		"cosmo_sigma_profile": { 
			"-0.025": 0.0,
			"-0.024": 0.0,
			"-0.023": 0.0,
			"-0.022": 0.0,
			"-0.021": 0.0,
			"-0.02": 0.0,
			"-0.019": 0.0332140285637,
			"-0.018": 0.606844152013,
			"-0.017": 1.10098395238,
			"-0.016": 0.963868627964,
			"-0.015": 0.358882425386,
			"-0.014": 0.715634523973,
			"-0.013": 0.975376400439,
			"-0.012": 1.70377376973,
			"-0.011": 2.95166853964,
			"-0.01": 2.70802661698,
			"-0.009": 2.2025920981,
			"-0.008": 2.98998252023,
			"-0.007": 4.04136467515,
			"-0.006": 6.09305960041,
			"-0.005": 7.10283848059,
			"-0.004": 8.42681156772,
			"-0.003": 10.0117189562,
			"-0.002": 11.9841618467,
			"-0.001": 18.5299446728,
			"0.0": 17.6126896195,
			"0.001": 17.8930168053,
			"0.002": 21.8605090708,
			"0.003": 19.3417834932,
			"0.004": 16.0151350345,
			"0.005": 7.6111207644,
			"0.006": 1.9548618145,
			"0.007": 2.55479878141,
			"0.008": 2.34213178385,
			"0.009": 1.20071544718,
			"0.01": 2.37171326431,
			"0.011": 3.05382796182,
			"0.012": 4.8797887176,
			"0.013": 0.315943972691,
			"0.014": 0.0,
			"0.015": 0.0,
			"0.016": 0.0,
			"0.017": 0.0,
			"0.018": 0.0,
			"0.019": 0.0,
			"0.02": 0.0,
			"0.021": 0.0,
			"0.022": 0.0,
			"0.023": 0.0,
			"0.024": 0.0,
			"0.025": 0.0
		}
	}
}
