{
	 "smiles": "CC1=CC2=C(C=C1)C(=O)C1=CC(C)=CC=C1C2=O", 
	 "Tm": 513.15, 
	 "num_atms": 30, 
	 "gaussian": { 
		 "optdone": 1, 
		 "sigma_profile": "yes", 
		 "theory": "DFT", 
		 "functional": "B3LYP", 
		 "basiset": "6-31G**", 
		 "properties": { 
			 "R2extent": 5111.9351, 
			 "electric_dipole_moment_norm": 0.000707106781187, 
			 "electric_quadrupole_moment_norm": 25.5235021408, 
			 "total_energy": -767.419498566, 
			 "HOMO_LUMO_gap": 0.15398, 
			 "cosmo_polarized_energy": -10.15, 
			 "cosmo_cavitation_energy": 33.94, 
			 "cosmo_dispersion_energy": -24.84, 
			 "cosmo_repulsion_energy": 1.86, 
			 "cosmo_total_nonelectrostatic_energy": 10.96, 
			 "SMD_solvation_energy": 6.42 
		},
		"coords": [
			{
				"x": -2.6064522321,
				"y": 1.3558606686,
				"z": 4.7846459829,
				"element": "C" 
			},
			{
				"x": -1.6443751912,
				"y": 1.1710550512,
				"z": 3.636506069,
				"element": "C" 
			},
			{
				"x": -1.9377617446,
				"y": 0.3102996895,
				"z": 2.576520236,
				"element": "C" 
			},
			{
				"x": -1.0459906246,
				"y": 0.1408572009,
				"z": 1.5116358977,
				"element": "C" 
			},
			{
				"x": 0.1717061832,
				"y": 0.8459087889,
				"z": 1.4985179983,
				"element": "C" 
			},
			{
				"x": 0.4722797703,
				"y": 1.7108236787,
				"z": 2.5585894167,
				"element": "C" 
			},
			{
				"x": -0.4226952426,
				"y": 1.8690569311,
				"z": 3.6094630905,
				"element": "C" 
			},
			{
				"x": 1.1469473517,
				"y": 0.6927679545,
				"z": 0.3836044624,
				"element": "C" 
			},
			{
				"x": 2.2082051514,
				"y": 1.3092953556,
				"z": 0.3738298946,
				"element": "O" 
			},
			{
				"x": 0.7827227592,
				"y": -0.2409369398,
				"z": -0.7227107898,
				"element": "C" 
			},
			{
				"x": 1.6749148142,
				"y": -0.4110767765,
				"z": -1.7871384653,
				"element": "C" 
			},
			{
				"x": 1.3820374053,
				"y": -1.2726676874,
				"z": -2.8465749017,
				"element": "C" 
			},
			{
				"x": 2.343381582,
				"y": -1.456223443,
				"z": -3.9955285963,
				"element": "C" 
			},
			{
				"x": 0.1605627314,
				"y": -1.9710395226,
				"z": -2.8193043435,
				"element": "C" 
			},
			{
				"x": -0.73493164,
				"y": -1.8119289557,
				"z": -1.7690126847,
				"element": "C" 
			},
			{
				"x": -0.4349020526,
				"y": -0.9460970837,
				"z": -0.7095257357,
				"element": "C" 
			},
			{
				"x": -1.4105072503,
				"y": -0.7923438828,
				"z": 0.404988063,
				"element": "C" 
			},
			{
				"x": -2.4722133992,
				"y": -1.4081056706,
				"z": 0.4142598702,
				"element": "O" 
			},
			{
				"x": -2.1366324627,
				"y": 1.095616789,
				"z": 5.7399801142,
				"element": "H" 
			},
			{
				"x": -3.4959123408,
				"y": 0.7325778641,
				"z": 4.6651284748,
				"element": "H" 
			},
			{
				"x": -2.933239844,
				"y": 2.3992788331,
				"z": 4.8619244338,
				"element": "H" 
			},
			{
				"x": -2.8675695841,
				"y": -0.2495475287,
				"z": 2.5537388712,
				"element": "H" 
			},
			{
				"x": 1.415321548,
				"y": 2.2465837764,
				"z": 2.532985131,
				"element": "H" 
			},
			{
				"x": -0.1766601316,
				"y": 2.5434359555,
				"z": 4.4262311501,
				"element": "H" 
			},
			{
				"x": 2.6047193696,
				"y": 0.1487746002,
				"z": -1.7643365019,
				"element": "H" 
			},
			{
				"x": 2.649562145,
				"y": -2.504240697,
				"z": -4.0911133462,
				"element": "H" 
			},
			{
				"x": 3.2444002899,
				"y": -0.8524402535,
				"z": -3.8631866942,
				"element": "H" 
			},
			{
				"x": 1.8811038809,
				"y": -1.1693360687,
				"z": -4.9470397648,
				"element": "H" 
			},
			{
				"x": -0.0847973588,
				"y": -2.6465639369,
				"z": -3.6353302466,
				"element": "H" 
			},
			{
				"x": -1.677823883,
				"y": -2.3479446904,
				"z": -1.7432470859,
				"element": "H" 
			}
		],
		 "valence_orbital": [ 
			{
				"type": "occ",
				"energy": -0.26353,
				"method": "rhf"
			},
			{
				"type": "occ",
				"energy": -0.26129,
				"method": "rhf"
			},
			{
				"type": "occ",
				"energy": -0.26107,
				"method": "rhf"
			},
			{
				"type": "occ",
				"energy": -0.25261,
				"method": "rhf"
			},
			{
				"type": "occ",
				"energy": -0.2519,
				"method": "rhf"
			},
			{
				"type": "unocc",
				"energy": -0.09792,
				"method": "rhf"
			},
			{
				"type": "unocc",
				"energy": -0.05104,
				"method": "rhf"
			},
			{
				"type": "unocc",
				"energy": -0.01956,
				"method": "rhf"
			},
			{
				"type": "unocc",
				"energy": -0.00563,
				"method": "rhf"
			},
			{
				"type": "unocc",
				"energy": 0.05188,
				"method": "rhf"
			}
		],
		"cosmo_sigma_profile": { 
			"-0.025": 0.0,
			"-0.024": 0.0,
			"-0.023": 0.0,
			"-0.022": 0.0,
			"-0.021": 0.0,
			"-0.02": 0.0,
			"-0.019": 0.0,
			"-0.018": 0.0,
			"-0.017": 0.0,
			"-0.016": 0.0,
			"-0.015": 0.0,
			"-0.014": 0.0,
			"-0.013": 0.0,
			"-0.012": 0.0,
			"-0.011": 0.0,
			"-0.01": 0.0,
			"-0.009": 0.0,
			"-0.008": 0.0,
			"-0.007": 1.91245845717,
			"-0.006": 9.65342686589,
			"-0.005": 22.6059810331,
			"-0.004": 26.2311150483,
			"-0.003": 24.8222024012,
			"-0.002": 23.9794409663,
			"-0.001": 29.030617022,
			"0.0": 26.1075656674,
			"0.001": 25.4818767307,
			"0.002": 30.0971002529,
			"0.003": 14.4692014858,
			"0.004": 4.04082963294,
			"0.005": 3.97563785406,
			"0.006": 3.63422270504,
			"0.007": 2.72126192219,
			"0.008": 3.59014930688,
			"0.009": 3.50726745579,
			"0.01": 4.60326771698,
			"0.011": 7.3605823678,
			"0.012": 4.06193413552,
			"0.013": 0.0,
			"0.014": 0.0,
			"0.015": 0.0,
			"0.016": 0.0,
			"0.017": 0.0,
			"0.018": 0.0,
			"0.019": 0.0,
			"0.02": 0.0,
			"0.021": 0.0,
			"0.022": 0.0,
			"0.023": 0.0,
			"0.024": 0.0,
			"0.025": 0.0
		}
	}
}
