{
	 "smiles": "NC1=CC(=CC=C1)C(=O)NC1=CC=NC=C1", 
	 "Tm": 498.15, 
	 "num_atms": 27, 
	 "gaussian": { 
		 "optdone": 1, 
		 "sigma_profile": "yes", 
		 "theory": "DFT", 
		 "functional": "B3LYP", 
		 "basiset": "6-31G**", 
		 "properties": { 
			 "R2extent": 5326.4153, 
			 "electric_dipole_moment_norm": 6.0826308757, 
			 "electric_quadrupole_moment_norm": 12.8049746181, 
			 "total_energy": -703.404350627, 
			 "HOMO_LUMO_gap": 0.16746, 
			 "cosmo_polarized_energy": -19.06, 
			 "cosmo_cavitation_energy": 31.67, 
			 "cosmo_dispersion_energy": -23.46, 
			 "cosmo_repulsion_energy": 1.8, 
			 "cosmo_total_nonelectrostatic_energy": 10.01, 
			 "SMD_solvation_energy": 4.34 
		},
		"coords": [
			{
				"x": -1.1264790016,
				"y": -0.8475790485,
				"z": 4.5758861525,
				"element": "N" 
			},
			{
				"x": -0.8461519359,
				"y": -0.1634702047,
				"z": 3.3982233964,
				"element": "C" 
			},
			{
				"x": -0.7572788416,
				"y": -0.8475626212,
				"z": 2.1764649634,
				"element": "C" 
			},
			{
				"x": -0.5196637928,
				"y": -0.1606661613,
				"z": 0.9837035303,
				"element": "C" 
			},
			{
				"x": -0.3914212891,
				"y": 1.2369551528,
				"z": 0.9909650836,
				"element": "C" 
			},
			{
				"x": -0.4854916096,
				"y": 1.9210446479,
				"z": 2.2035188011,
				"element": "C" 
			},
			{
				"x": -0.7011005739,
				"y": 1.2369398608,
				"z": 3.3958714458,
				"element": "C" 
			},
			{
				"x": -0.4367850822,
				"y": -0.9963343022,
				"z": -0.2633909355,
				"element": "C" 
			},
			{
				"x": -0.9392868995,
				"y": -2.1111626153,
				"z": -0.3313770024,
				"element": "O" 
			},
			{
				"x": 0.2669147751,
				"y": -0.4153156627,
				"z": -1.3052683034,
				"element": "N" 
			},
			{
				"x": 0.500681695,
				"y": -0.9208377493,
				"z": -2.5906323847,
				"element": "C" 
			},
			{
				"x": 1.3090304945,
				"y": -0.1680099511,
				"z": -3.4579699859,
				"element": "C" 
			},
			{
				"x": 1.5481434621,
				"y": -0.6450514179,
				"z": -4.7417462301,
				"element": "C" 
			},
			{
				"x": 1.0519596608,
				"y": -1.793502815,
				"z": -5.2209798414,
				"element": "N" 
			},
			{
				"x": 0.2827646334,
				"y": -2.4984930038,
				"z": -4.3810365552,
				"element": "C" 
			},
			{
				"x": -0.0281091161,
				"y": -2.1272014067,
				"z": -3.0736192776,
				"element": "C" 
			},
			{
				"x": -0.842917365,
				"y": -0.3934758109,
				"z": 5.4321350502,
				"element": "H" 
			},
			{
				"x": -0.9211654294,
				"y": -1.8363713183,
				"z": 4.57123374,
				"element": "H" 
			},
			{
				"x": -0.8775606468,
				"y": -1.9256580434,
				"z": 2.1338081379,
				"element": "H" 
			},
			{
				"x": -0.2728482851,
				"y": 1.7990121987,
				"z": 0.0697061111,
				"element": "H" 
			},
			{
				"x": -0.3973644621,
				"y": 3.0035301867,
				"z": 2.2197585165,
				"element": "H" 
			},
			{
				"x": -0.7736598596,
				"y": 1.7845856825,
				"z": 4.332165853,
				"element": "H" 
			},
			{
				"x": 0.7424645397,
				"y": 0.4489373855,
				"z": -1.0904173341,
				"element": "H" 
			},
			{
				"x": 1.7438745688,
				"y": 0.7750666631,
				"z": -3.1358691525,
				"element": "H" 
			},
			{
				"x": 2.1739367838,
				"y": -0.0691105845,
				"z": -5.4217170912,
				"element": "H" 
			},
			{
				"x": -0.1185297902,
				"y": -3.4315956246,
				"z": -4.7733473846,
				"element": "H" 
			},
			{
				"x": -0.6503566328,
				"y": -2.7455734367,
				"z": -2.4439693032,
				"element": "H" 
			}
		],
		 "valence_orbital": [ 
			{
				"type": "occ",
				"energy": -0.25889,
				"method": "rhf"
			},
			{
				"type": "occ",
				"energy": -0.25665,
				"method": "rhf"
			},
			{
				"type": "occ",
				"energy": -0.24481,
				"method": "rhf"
			},
			{
				"type": "occ",
				"energy": -0.24024,
				"method": "rhf"
			},
			{
				"type": "occ",
				"energy": -0.2163,
				"method": "rhf"
			},
			{
				"type": "unocc",
				"energy": -0.04884,
				"method": "rhf"
			},
			{
				"type": "unocc",
				"energy": -0.00544,
				"method": "rhf"
			},
			{
				"type": "unocc",
				"energy": -0.00412,
				"method": "rhf"
			},
			{
				"type": "unocc",
				"energy": -0.00104,
				"method": "rhf"
			},
			{
				"type": "unocc",
				"energy": 0.06026,
				"method": "rhf"
			}
		],
		"cosmo_sigma_profile": { 
			"-0.025": 0.0,
			"-0.024": 0.0,
			"-0.023": 0.0,
			"-0.022": 0.0,
			"-0.021": 0.0,
			"-0.02": 0.0,
			"-0.019": 0.0,
			"-0.018": 0.0,
			"-0.017": 0.0,
			"-0.016": 0.0255763476872,
			"-0.015": 0.899697845617,
			"-0.014": 1.42090782981,
			"-0.013": 2.41810867302,
			"-0.012": 3.88026917009,
			"-0.011": 3.95974367668,
			"-0.01": 4.69748584425,
			"-0.009": 5.47389484603,
			"-0.008": 4.69424772076,
			"-0.007": 6.77994997115,
			"-0.006": 14.0807689959,
			"-0.005": 14.632664405,
			"-0.004": 13.9075161092,
			"-0.003": 11.582816345,
			"-0.002": 11.8503454692,
			"-0.001": 13.3373072419,
			"0.0": 15.2882350279,
			"0.001": 15.6943572284,
			"0.002": 20.7425056634,
			"0.003": 21.9409829128,
			"0.004": 13.6928894514,
			"0.005": 16.1524946107,
			"0.006": 6.5170357345,
			"0.007": 3.94740817394,
			"0.008": 3.99497450951,
			"0.009": 3.85664118717,
			"0.01": 3.32500081264,
			"0.011": 3.75603743778,
			"0.012": 4.08438671311,
			"0.013": 3.74461685721,
			"0.014": 0.932564756263,
			"0.015": 0.792970425948,
			"0.016": 1.07592384816,
			"0.017": 0.601051093725,
			"0.018": 0.00829651925184,
			"0.019": 0.0,
			"0.02": 0.0,
			"0.021": 0.0,
			"0.022": 0.0,
			"0.023": 0.0,
			"0.024": 0.0,
			"0.025": 0.0
		}
	}
}
