{
	 "smiles": "ClCC(=O)NC1CCOC2=C1C=CC=C2", 
	 "Tm": 360.15, 
	 "num_atms": 27, 
	 "gaussian": { 
		 "optdone": 1, 
		 "sigma_profile": "yes", 
		 "theory": "DFT", 
		 "functional": "B3LYP", 
		 "basiset": "6-31G**", 
		 "properties": { 
			 "R2extent": 5005.478, 
			 "electric_dipole_moment_norm": 2.48085236562, 
			 "electric_quadrupole_moment_norm": 7.63235478211, 
			 "total_energy": -1091.80639134, 
			 "HOMO_LUMO_gap": 0.21028, 
			 "cosmo_polarized_energy": -14.68, 
			 "cosmo_cavitation_energy": 31.3, 
			 "cosmo_dispersion_energy": -22.83, 
			 "cosmo_repulsion_energy": 1.81, 
			 "cosmo_total_nonelectrostatic_energy": 10.28, 
			 "SMD_solvation_energy": 5.23 
		},
		"coords": [
			{
				"x": 4.5982550796,
				"y": -1.0654966997,
				"z": -0.2998339019,
				"element": "Cl" 
			},
			{
				"x": 3.3951009042,
				"y": -2.3261848748,
				"z": 0.2224475435,
				"element": "C" 
			},
			{
				"x": 1.9482882695,
				"y": -1.8647135406,
				"z": 0.4388211841,
				"element": "C" 
			},
			{
				"x": 1.1476129359,
				"y": -2.7183326188,
				"z": 0.7968225228,
				"element": "O" 
			},
			{
				"x": 1.6620021071,
				"y": -0.5595151192,
				"z": 0.216031186,
				"element": "N" 
			},
			{
				"x": 0.3384673331,
				"y": 0.0408505226,
				"z": 0.419309224,
				"element": "C" 
			},
			{
				"x": -0.7470038101,
				"y": -0.6116757793,
				"z": -0.4518379647,
				"element": "C" 
			},
			{
				"x": -2.1005167634,
				"y": -0.0212272014,
				"z": -0.0822804232,
				"element": "C" 
			},
			{
				"x": -2.4450663368,
				"y": -0.287432373,
				"z": 1.2791976497,
				"element": "O" 
			},
			{
				"x": -1.4597771859,
				"y": -0.0965930576,
				"z": 2.2100887032,
				"element": "C" 
			},
			{
				"x": -0.1013950446,
				"y": 0.0578398779,
				"z": 1.8815809285,
				"element": "C" 
			},
			{
				"x": 0.8130685627,
				"y": 0.2522998874,
				"z": 2.9231892742,
				"element": "C" 
			},
			{
				"x": 0.4078312689,
				"y": 0.2789962298,
				"z": 4.2551018286,
				"element": "C" 
			},
			{
				"x": -0.9446537207,
				"y": 0.1063955912,
				"z": 4.5643006573,
				"element": "C" 
			},
			{
				"x": -1.8746439007,
				"y": -0.0786707666,
				"z": 3.5475880239,
				"element": "C" 
			},
			{
				"x": 3.7604085046,
				"y": -2.7478953269,
				"z": 1.1588802124,
				"element": "H" 
			},
			{
				"x": 3.397187338,
				"y": -3.1050275478,
				"z": -0.5401437697,
				"element": "H" 
			},
			{
				"x": 2.4209192119,
				"y": 0.0397007963,
				"z": -0.0740849631,
				"element": "H" 
			},
			{
				"x": 0.4573365128,
				"y": 1.0802556425,
				"z": 0.0853616919,
				"element": "H" 
			},
			{
				"x": -0.7533077547,
				"y": -1.6890885399,
				"z": -0.272011069,
				"element": "H" 
			},
			{
				"x": -0.5368224603,
				"y": -0.4375766962,
				"z": -1.5126365632,
				"element": "H" 
			},
			{
				"x": -2.110124041,
				"y": 1.0675047976,
				"z": -0.2480708508,
				"element": "H" 
			},
			{
				"x": -2.9038858805,
				"y": -0.4608040725,
				"z": -0.6781259478,
				"element": "H" 
			},
			{
				"x": 1.8652551726,
				"y": 0.3680954418,
				"z": 2.6778247652,
				"element": "H" 
			},
			{
				"x": 1.1387020674,
				"y": 0.4269249966,
				"z": 5.04401748,
				"element": "H" 
			},
			{
				"x": -1.276172017,
				"y": 0.1197871098,
				"z": 5.5985991734,
				"element": "H" 
			},
			{
				"x": -2.9306663527,
				"y": -0.2118166791,
				"z": 3.7586634045,
				"element": "H" 
			}
		],
		 "valence_orbital": [ 
			{
				"type": "occ",
				"energy": -0.30795,
				"method": "rhf"
			},
			{
				"type": "occ",
				"energy": -0.26837,
				"method": "rhf"
			},
			{
				"type": "occ",
				"energy": -0.26189,
				"method": "rhf"
			},
			{
				"type": "occ",
				"energy": -0.24119,
				"method": "rhf"
			},
			{
				"type": "occ",
				"energy": -0.21404,
				"method": "rhf"
			},
			{
				"type": "unocc",
				"energy": -0.00376,
				"method": "rhf"
			},
			{
				"type": "unocc",
				"energy": 0.00952,
				"method": "rhf"
			},
			{
				"type": "unocc",
				"energy": 0.01264,
				"method": "rhf"
			},
			{
				"type": "unocc",
				"energy": 0.01527,
				"method": "rhf"
			},
			{
				"type": "unocc",
				"energy": 0.0762,
				"method": "rhf"
			}
		],
		"cosmo_sigma_profile": { 
			"-0.025": 0.0,
			"-0.024": 0.0,
			"-0.023": 0.0,
			"-0.022": 0.0,
			"-0.021": 0.0,
			"-0.02": 0.0,
			"-0.019": 0.0,
			"-0.018": 0.0,
			"-0.017": 0.0,
			"-0.016": 0.0,
			"-0.015": 0.0,
			"-0.014": 0.254938855562,
			"-0.013": 0.715169378325,
			"-0.012": 0.87214230489,
			"-0.011": 0.91885421814,
			"-0.01": 0.866682158406,
			"-0.009": 3.94811726049,
			"-0.008": 5.44822405048,
			"-0.007": 6.74520086142,
			"-0.006": 12.2086564152,
			"-0.005": 23.8801557041,
			"-0.004": 23.8042395222,
			"-0.003": 20.6556353477,
			"-0.002": 13.8602983588,
			"-0.001": 14.3184133167,
			"0.0": 13.8215391914,
			"0.001": 12.1470329571,
			"0.002": 11.4687832627,
			"0.003": 13.1919165049,
			"0.004": 14.6039916612,
			"0.005": 17.1905354302,
			"0.006": 14.7150656241,
			"0.007": 3.91959847664,
			"0.008": 2.49953134965,
			"0.009": 3.55655264174,
			"0.01": 3.57982925597,
			"0.011": 2.78043572393,
			"0.012": 2.68873532024,
			"0.013": 4.08151571081,
			"0.014": 1.4216989711,
			"0.015": 0.0,
			"0.016": 0.0,
			"0.017": 0.0,
			"0.018": 0.0,
			"0.019": 0.0,
			"0.02": 0.0,
			"0.021": 0.0,
			"0.022": 0.0,
			"0.023": 0.0,
			"0.024": 0.0,
			"0.025": 0.0
		}
	}
}
