{
	 "smiles": "C1C2=CC=CC3=C2C2=C(C=CC=C12)C=C3", 
	 "Tm": 388.15, 
	 "num_atms": 25, 
	 "gaussian": { 
		 "optdone": 1, 
		 "sigma_profile": "yes", 
		 "theory": "DFT", 
		 "functional": "B3LYP", 
		 "basiset": "6-31G**", 
		 "properties": { 
			 "R2extent": 3378.9198, 
			 "electric_dipole_moment_norm": 0.600706417479, 
			 "electric_quadrupole_moment_norm": 8.12154846381, 
			 "total_energy": -577.644886268, 
			 "HOMO_LUMO_gap": 0.17153, 
			 "cosmo_polarized_energy": -5.38, 
			 "cosmo_cavitation_energy": 27.56, 
			 "cosmo_dispersion_energy": -20.95, 
			 "cosmo_repulsion_energy": 1.58, 
			 "cosmo_total_nonelectrostatic_energy": 8.19, 
			 "SMD_solvation_energy": 3.59 
		},
		"coords": [
			{
				"x": 0.0875245942,
				"y": -1.583668561,
				"z": -0.9952427313,
				"element": "C" 
			},
			{
				"x": -0.7435452797,
				"y": -0.5328474199,
				"z": -0.2424301421,
				"element": "C" 
			},
			{
				"x": -1.8651737563,
				"y": 0.2234798794,
				"z": -0.5333955763,
				"element": "C" 
			},
			{
				"x": -2.3517343538,
				"y": 1.1174847287,
				"z": 0.4580745505,
				"element": "C" 
			},
			{
				"x": -1.7545064051,
				"y": 1.2687623108,
				"z": 1.7071265164,
				"element": "C" 
			},
			{
				"x": -0.6052399067,
				"y": 0.5075285036,
				"z": 2.0323807572,
				"element": "C" 
			},
			{
				"x": -0.1637697583,
				"y": -0.3583782238,
				"z": 1.0247046659,
				"element": "C" 
			},
			{
				"x": 0.9639864296,
				"y": -1.1896955067,
				"z": 1.1776148422,
				"element": "C" 
			},
			{
				"x": 1.7303397929,
				"y": -1.21406447,
				"z": 2.3490276616,
				"element": "C" 
			},
			{
				"x": 2.827997226,
				"y": -2.1089446878,
				"z": 2.3283437749,
				"element": "C" 
			},
			{
				"x": 3.0697134824,
				"y": -2.8785087892,
				"z": 1.1929878882,
				"element": "C" 
			},
			{
				"x": 2.2613523257,
				"y": -2.8180795807,
				"z": 0.025985224,
				"element": "C" 
			},
			{
				"x": 1.1820244198,
				"y": -1.9521959155,
				"z": 0.0186204357,
				"element": "C" 
			},
			{
				"x": 1.2822770449,
				"y": -0.3229835002,
				"z": 3.3959080269,
				"element": "C" 
			},
			{
				"x": 0.179917552,
				"y": 0.4896018834,
				"z": 3.2464462387,
				"element": "C" 
			},
			{
				"x": 0.5100516734,
				"y": -1.1813670016,
				"z": -1.9246254938,
				"element": "H" 
			},
			{
				"x": -0.5160269149,
				"y": -2.4548116942,
				"z": -1.2797803262,
				"element": "H" 
			},
			{
				"x": -2.378814656,
				"y": 0.1536565607,
				"z": -1.4885770545,
				"element": "H" 
			},
			{
				"x": -3.2327342198,
				"y": 1.7105305615,
				"z": 0.2275330786,
				"element": "H" 
			},
			{
				"x": -2.1740473529,
				"y": 1.9698155126,
				"z": 2.4241437227,
				"element": "H" 
			},
			{
				"x": 3.4830402334,
				"y": -2.1999655912,
				"z": 3.1910351303,
				"element": "H" 
			},
			{
				"x": 3.9168662355,
				"y": -3.5591953448,
				"z": 1.1966988169,
				"element": "H" 
			},
			{
				"x": 2.5054897843,
				"y": -3.4463719477,
				"z": -0.8264924464,
				"element": "H" 
			},
			{
				"x": 1.8351467696,
				"y": -0.2945993986,
				"z": 4.3318326553,
				"element": "H" 
			},
			{
				"x": -0.1109349601,
				"y": 1.1399176922,
				"z": 4.0679797847,
				"element": "H" 
			}
		],
		 "valence_orbital": [ 
			{
				"type": "occ",
				"energy": -0.302,
				"method": "rhf"
			},
			{
				"type": "occ",
				"energy": -0.27448,
				"method": "rhf"
			},
			{
				"type": "occ",
				"energy": -0.26095,
				"method": "rhf"
			},
			{
				"type": "occ",
				"energy": -0.21499,
				"method": "rhf"
			},
			{
				"type": "occ",
				"energy": -0.20872,
				"method": "rhf"
			},
			{
				"type": "unocc",
				"energy": -0.03719,
				"method": "rhf"
			},
			{
				"type": "unocc",
				"energy": -0.0214,
				"method": "rhf"
			},
			{
				"type": "unocc",
				"energy": 0.00333,
				"method": "rhf"
			},
			{
				"type": "unocc",
				"energy": 0.04187,
				"method": "rhf"
			},
			{
				"type": "unocc",
				"energy": 0.07924,
				"method": "rhf"
			}
		],
		"cosmo_sigma_profile": { 
			"-0.025": 0.0,
			"-0.024": 0.0,
			"-0.023": 0.0,
			"-0.022": 0.0,
			"-0.021": 0.0,
			"-0.02": 0.0,
			"-0.019": 0.0,
			"-0.018": 0.0,
			"-0.017": 0.0,
			"-0.016": 0.0,
			"-0.015": 0.0,
			"-0.014": 0.0,
			"-0.013": 0.0,
			"-0.012": 0.0,
			"-0.011": 0.0,
			"-0.01": 0.0,
			"-0.009": 0.0,
			"-0.008": 0.0,
			"-0.007": 0.0,
			"-0.006": 7.15732932194,
			"-0.005": 22.8720881341,
			"-0.004": 22.3633750703,
			"-0.003": 21.3620215708,
			"-0.002": 18.7970070707,
			"-0.001": 14.8824352617,
			"0.0": 11.3732468165,
			"0.001": 12.1911827715,
			"0.002": 14.3201279719,
			"0.003": 20.2065141808,
			"0.004": 26.9613972287,
			"0.005": 21.312964266,
			"0.006": 7.91234093893,
			"0.007": 0.0,
			"0.008": 0.0,
			"0.009": 0.0,
			"0.01": 0.0,
			"0.011": 0.0,
			"0.012": 0.0,
			"0.013": 0.0,
			"0.014": 0.0,
			"0.015": 0.0,
			"0.016": 0.0,
			"0.017": 0.0,
			"0.018": 0.0,
			"0.019": 0.0,
			"0.02": 0.0,
			"0.021": 0.0,
			"0.022": 0.0,
			"0.023": 0.0,
			"0.024": 0.0,
			"0.025": 0.0
		}
	}
}
