{
	 "smiles": "CC(C)CCOC(=O)C(=O)OCCC(C)C", 
	 "Tm": 264.15, 
	 "num_atms": 38, 
	 "gaussian": { 
		 "optdone": 1, 
		 "sigma_profile": "yes", 
		 "theory": "DFT", 
		 "functional": "B3LYP", 
		 "basiset": "6-31G**", 
		 "properties": { 
			 "R2extent": 7582.2316, 
			 "electric_dipole_moment_norm": 3.96070893149, 
			 "electric_quadrupole_moment_norm": 17.8839404439, 
			 "total_energy": -771.462882411, 
			 "HOMO_LUMO_gap": 0.22393, 
			 "cosmo_polarized_energy": -11.14, 
			 "cosmo_cavitation_energy": 40.84, 
			 "cosmo_dispersion_energy": -28.13, 
			 "cosmo_repulsion_energy": 2.28, 
			 "cosmo_total_nonelectrostatic_energy": 14.99, 
			 "SMD_solvation_energy": 9.03 
		},
		"coords": [
			{
				"x": -2.0957503514,
				"y": -5.5022919827,
				"z": 0.1247285775,
				"element": "C" 
			},
			{
				"x": -2.8180195914,
				"y": -4.189935649,
				"z": -0.2213044997,
				"element": "C" 
			},
			{
				"x": -3.2682481631,
				"y": -4.1716671143,
				"z": -1.6912472448,
				"element": "C" 
			},
			{
				"x": -1.9958450009,
				"y": -2.9393264965,
				"z": 0.1663887621,
				"element": "C" 
			},
			{
				"x": -0.6602987002,
				"y": -2.7957361277,
				"z": -0.5606336313,
				"element": "C" 
			},
			{
				"x": -0.0219796176,
				"y": -1.5390809551,
				"z": -0.2045455477,
				"element": "O" 
			},
			{
				"x": 0.741783835,
				"y": -1.5517257574,
				"z": 0.8954341392,
				"element": "C" 
			},
			{
				"x": 0.9552891324,
				"y": -2.5055165837,
				"z": 1.6051770378,
				"element": "O" 
			},
			{
				"x": 1.3819232274,
				"y": -0.1779019605,
				"z": 1.176364615,
				"element": "C" 
			},
			{
				"x": 2.3350399226,
				"y": -0.0582141313,
				"z": 1.9081718214,
				"element": "O" 
			},
			{
				"x": 0.7511693134,
				"y": 0.818936076,
				"z": 0.5442394211,
				"element": "O" 
			},
			{
				"x": 1.2870781284,
				"y": 2.1468464849,
				"z": 0.7805169899,
				"element": "C" 
			},
			{
				"x": 0.4036938393,
				"y": 3.1308760163,
				"z": 0.0291529876,
				"element": "C" 
			},
			{
				"x": 0.9036667872,
				"y": 4.5883106693,
				"z": 0.0885061057,
				"element": "C" 
			},
			{
				"x": 0.0589703612,
				"y": 5.473705582,
				"z": -0.8396454162,
				"element": "C" 
			},
			{
				"x": 0.9082987725,
				"y": 5.1528914236,
				"z": 1.5183625075,
				"element": "C" 
			},
			{
				"x": -1.2094358235,
				"y": -5.656700785,
				"z": -0.5012659477,
				"element": "H" 
			},
			{
				"x": -1.7706068637,
				"y": -5.5165594036,
				"z": 1.1703802051,
				"element": "H" 
			},
			{
				"x": -2.7565290318,
				"y": -6.3612055707,
				"z": -0.0335221881,
				"element": "H" 
			},
			{
				"x": -3.7262197718,
				"y": -4.1462326849,
				"z": 0.3958151673,
				"element": "H" 
			},
			{
				"x": -3.9532586764,
				"y": -5.0010257215,
				"z": -1.8967106152,
				"element": "H" 
			},
			{
				"x": -2.421525258,
				"y": -4.2761641357,
				"z": -2.3795003006,
				"element": "H" 
			},
			{
				"x": -3.7884768117,
				"y": -3.2399698012,
				"z": -1.9398263415,
				"element": "H" 
			},
			{
				"x": -2.5906659686,
				"y": -2.0391592443,
				"z": -0.0317127654,
				"element": "H" 
			},
			{
				"x": -1.7951316677,
				"y": -2.9629631722,
				"z": 1.2434450386,
				"element": "H" 
			},
			{
				"x": -0.7867001417,
				"y": -2.7306150891,
				"z": -1.6428002923,
				"element": "H" 
			},
			{
				"x": 0.0232340433,
				"y": -3.6121248753,
				"z": -0.3187926254,
				"element": "H" 
			},
			{
				"x": 1.3037013125,
				"y": 2.3240191552,
				"z": 1.859335203,
				"element": "H" 
			},
			{
				"x": 2.3230657212,
				"y": 2.1719494787,
				"z": 0.4248609495,
				"element": "H" 
			},
			{
				"x": 0.3481937129,
				"y": 2.8083799104,
				"z": -1.0175830877,
				"element": "H" 
			},
			{
				"x": -0.6173732505,
				"y": 3.0744748058,
				"z": 0.4289263882,
				"element": "H" 
			},
			{
				"x": 1.9386996104,
				"y": 4.6030404854,
				"z": -0.2851224456,
				"element": "H" 
			},
			{
				"x": 0.0804512639,
				"y": 5.1077241029,
				"z": -1.8717567267,
				"element": "H" 
			},
			{
				"x": 0.4254204007,
				"y": 6.5056159843,
				"z": -0.8410652677,
				"element": "H" 
			},
			{
				"x": -0.9883123544,
				"y": 5.4938236405,
				"z": -0.5145833619,
				"element": "H" 
			},
			{
				"x": 1.2431936644,
				"y": 6.1954778934,
				"z": 1.5228503607,
				"element": "H" 
			},
			{
				"x": 1.5723381538,
				"y": 4.5945599714,
				"z": 2.1856928494,
				"element": "H" 
			},
			{
				"x": -0.0995341579,
				"y": 5.1268855618,
				"z": 1.9507691788,
				"element": "H" 
			}
		],
		 "valence_orbital": [ 
			{
				"type": "occ",
				"energy": -0.32906,
				"method": "rhf"
			},
			{
				"type": "occ",
				"energy": -0.30922,
				"method": "rhf"
			},
			{
				"type": "occ",
				"energy": -0.299,
				"method": "rhf"
			},
			{
				"type": "occ",
				"energy": -0.29365,
				"method": "rhf"
			},
			{
				"type": "occ",
				"energy": -0.27392,
				"method": "rhf"
			},
			{
				"type": "unocc",
				"energy": -0.04999,
				"method": "rhf"
			},
			{
				"type": "unocc",
				"energy": 0.06643,
				"method": "rhf"
			},
			{
				"type": "unocc",
				"energy": 0.07384,
				"method": "rhf"
			},
			{
				"type": "unocc",
				"energy": 0.08031,
				"method": "rhf"
			},
			{
				"type": "unocc",
				"energy": 0.10858,
				"method": "rhf"
			}
		],
		"cosmo_sigma_profile": { 
			"-0.025": 0.0,
			"-0.024": 0.0,
			"-0.023": 0.0,
			"-0.022": 0.0,
			"-0.021": 0.0,
			"-0.02": 0.0,
			"-0.019": 0.0,
			"-0.018": 0.0,
			"-0.017": 0.0,
			"-0.016": 0.0,
			"-0.015": 0.0,
			"-0.014": 0.0,
			"-0.013": 0.0,
			"-0.012": 0.0,
			"-0.011": 0.0,
			"-0.01": 0.0,
			"-0.009": 0.0,
			"-0.008": 0.24823621401,
			"-0.007": 2.02260697971,
			"-0.006": 4.63626424653,
			"-0.005": 13.8570904335,
			"-0.004": 20.1641854292,
			"-0.003": 40.6852015541,
			"-0.002": 54.0187983545,
			"-0.001": 41.3963025255,
			"0.0": 37.6768559729,
			"0.001": 35.6951162278,
			"0.002": 15.9460045778,
			"0.003": 4.65442081248,
			"0.004": 3.95544381341,
			"0.005": 4.09068489992,
			"0.006": 3.97287823759,
			"0.007": 4.30753178164,
			"0.008": 3.96032269848,
			"0.009": 5.26764892558,
			"0.01": 8.93125274973,
			"0.011": 7.67160016568,
			"0.012": 3.14238080285,
			"0.013": 0.313504803255,
			"0.014": 0.0,
			"0.015": 0.0,
			"0.016": 0.0,
			"0.017": 0.0,
			"0.018": 0.0,
			"0.019": 0.0,
			"0.02": 0.0,
			"0.021": 0.0,
			"0.022": 0.0,
			"0.023": 0.0,
			"0.024": 0.0,
			"0.025": 0.0
		}
	}
}
