{
	 "smiles": "OC1=C(C=C(C=C1)C(F)(F)F)C#N", 
	 "Tm": 426.15, 
	 "num_atms": 17, 
	 "gaussian": { 
		 "optdone": 1, 
		 "sigma_profile": "yes", 
		 "theory": "DFT", 
		 "functional": "B3LYP", 
		 "basiset": "6-31G**", 
		 "properties": { 
			 "R2extent": 2722.8347, 
			 "electric_dipole_moment_norm": 2.33300191599, 
			 "electric_quadrupole_moment_norm": 9.04476547789, 
			 "total_energy": -736.74653212, 
			 "HOMO_LUMO_gap": 0.19462, 
			 "cosmo_polarized_energy": -9.46, 
			 "cosmo_cavitation_energy": 24.4, 
			 "cosmo_dispersion_energy": -16.95, 
			 "cosmo_repulsion_energy": 1.27, 
			 "cosmo_total_nonelectrostatic_energy": 8.73, 
			 "SMD_solvation_energy": 7.02 
		},
		"coords": [
			{
				"x": -0.9989062324,
				"y": 1.3544956824,
				"z": 2.2797214321,
				"element": "O" 
			},
			{
				"x": -0.7031992711,
				"y": 0.5798933337,
				"z": 1.2167640633,
				"element": "C" 
			},
			{
				"x": -0.1049394789,
				"y": 1.0898773136,
				"z": 0.0414170337,
				"element": "C" 
			},
			{
				"x": 0.1790980463,
				"y": 0.23342604,
				"z": -1.0344058058,
				"element": "C" 
			},
			{
				"x": -0.1301240513,
				"y": -1.1167938103,
				"z": -0.9441921554,
				"element": "C" 
			},
			{
				"x": -0.7258309236,
				"y": -1.6201783122,
				"z": 0.2238127718,
				"element": "C" 
			},
			{
				"x": -1.0103366561,
				"y": -0.7852322989,
				"z": 1.2931428323,
				"element": "C" 
			},
			{
				"x": 0.2024867303,
				"y": -2.0592327863,
				"z": -2.0673867352,
				"element": "C" 
			},
			{
				"x": 1.2794464549,
				"y": -2.8234029612,
				"z": -1.7736178924,
				"element": "F" 
			},
			{
				"x": -0.8189250034,
				"y": -2.909611241,
				"z": -2.3156989777,
				"element": "F" 
			},
			{
				"x": 0.4784956001,
				"y": -1.4028508964,
				"z": -3.2137832891,
				"element": "F" 
			},
			{
				"x": 0.1899856632,
				"y": 2.4871620851,
				"z": -0.0059601722,
				"element": "C" 
			},
			{
				"x": 0.3956324392,
				"y": 3.6327593411,
				"z": 0.0418488928,
				"element": "N" 
			},
			{
				"x": -0.7427267071,
				"y": 2.2749677119,
				"z": 2.1082647079,
				"element": "H" 
			},
			{
				"x": 0.6340392482,
				"y": 0.6357543519,
				"z": -1.9315601491,
				"element": "H" 
			},
			{
				"x": -0.972814448,
				"y": -2.6749840322,
				"z": 0.2860392546,
				"element": "H" 
			},
			{
				"x": -1.4729814104,
				"y": -1.1618495212,
				"z": 2.1983941884,
				"element": "H" 
			}
		],
		 "valence_orbital": [ 
			{
				"type": "occ",
				"energy": -0.37599,
				"method": "rhf"
			},
			{
				"type": "occ",
				"energy": -0.36338,
				"method": "rhf"
			},
			{
				"type": "occ",
				"energy": -0.35578,
				"method": "rhf"
			},
			{
				"type": "occ",
				"energy": -0.28884,
				"method": "rhf"
			},
			{
				"type": "occ",
				"energy": -0.26252,
				"method": "rhf"
			},
			{
				"type": "unocc",
				"energy": -0.0679,
				"method": "rhf"
			},
			{
				"type": "unocc",
				"energy": -0.03792,
				"method": "rhf"
			},
			{
				"type": "unocc",
				"energy": 0.00492,
				"method": "rhf"
			},
			{
				"type": "unocc",
				"energy": 0.04979,
				"method": "rhf"
			},
			{
				"type": "unocc",
				"energy": 0.06643,
				"method": "rhf"
			}
		],
		"cosmo_sigma_profile": { 
			"-0.025": 0.0,
			"-0.024": 0.0,
			"-0.023": 0.0,
			"-0.022": 0.0,
			"-0.021": 0.0,
			"-0.02": 0.0,
			"-0.019": 0.0,
			"-0.018": 0.0,
			"-0.017": 0.282048580688,
			"-0.016": 0.604971714729,
			"-0.015": 0.603781123624,
			"-0.014": 0.641511821707,
			"-0.013": 0.927015747319,
			"-0.012": 1.48268524416,
			"-0.011": 1.10883843607,
			"-0.01": 1.0829347728,
			"-0.009": 3.1967496826,
			"-0.008": 6.87787482782,
			"-0.007": 6.55377660873,
			"-0.006": 6.41186841975,
			"-0.005": 6.16928042229,
			"-0.004": 7.83277495958,
			"-0.003": 9.13369950673,
			"-0.002": 12.6108453282,
			"-0.001": 15.3032098779,
			"0.0": 19.7579299545,
			"0.001": 18.2957653835,
			"0.002": 21.7499770013,
			"0.003": 26.0699926036,
			"0.004": 3.40126423321,
			"0.005": 4.32281267816,
			"0.006": 3.3331205704,
			"0.007": 3.33050050755,
			"0.008": 4.5765801208,
			"0.009": 4.52083732994,
			"0.01": 2.87920944909,
			"0.011": 2.56016912504,
			"0.012": 1.91944961914,
			"0.013": 0.179752232092,
			"0.014": 0.0,
			"0.015": 0.0,
			"0.016": 0.0,
			"0.017": 0.0,
			"0.018": 0.0,
			"0.019": 0.0,
			"0.02": 0.0,
			"0.021": 0.0,
			"0.022": 0.0,
			"0.023": 0.0,
			"0.024": 0.0,
			"0.025": 0.0
		}
	}
}
