{
	 "smiles": "COC(=O)C1=C(N)C(=CC(C)=C1)[N+]([O-])=O", 
	 "Tm": 380.15, 
	 "num_atms": 25, 
	 "gaussian": { 
		 "optdone": 1, 
		 "sigma_profile": "yes", 
		 "theory": "DFT", 
		 "functional": "B3LYP", 
		 "basiset": "6-31G**", 
		 "properties": { 
			 "R2extent": 3796.6813, 
			 "electric_dipole_moment_norm": 5.31771179926, 
			 "electric_quadrupole_moment_norm": 9.57738993411, 
			 "total_energy": -759.31609306, 
			 "HOMO_LUMO_gap": 0.13475, 
			 "cosmo_polarized_energy": -10.11, 
			 "cosmo_cavitation_energy": 29.32, 
			 "cosmo_dispersion_energy": -21.96, 
			 "cosmo_repulsion_energy": 1.71, 
			 "cosmo_total_nonelectrostatic_energy": 9.07, 
			 "SMD_solvation_energy": 8.41 
		},
		"coords": [
			{
				"x": 3.5204283511,
				"y": 1.8398459685,
				"z": -1.4901456583,
				"element": "C" 
			},
			{
				"x": 2.208421214,
				"y": 1.2943217028,
				"z": -1.277143416,
				"element": "O" 
			},
			{
				"x": 2.1165648117,
				"y": 0.3651048637,
				"z": -0.3019096868,
				"element": "C" 
			},
			{
				"x": 3.0982825454,
				"y": 0.0217200067,
				"z": 0.3485334688,
				"element": "O" 
			},
			{
				"x": 0.7431517726,
				"y": -0.1589071636,
				"z": -0.1293889502,
				"element": "C" 
			},
			{
				"x": 0.4796027064,
				"y": -1.1605297391,
				"z": 0.8736008506,
				"element": "C" 
			},
			{
				"x": 1.4614996252,
				"y": -1.6295488115,
				"z": 1.659347157,
				"element": "N" 
			},
			{
				"x": -0.878803886,
				"y": -1.6030658239,
				"z": 0.9613690086,
				"element": "C" 
			},
			{
				"x": -1.8779674001,
				"y": -1.0915663259,
				"z": 0.1256923925,
				"element": "C" 
			},
			{
				"x": -1.6108216196,
				"y": -0.1265981997,
				"z": -0.8359847877,
				"element": "C" 
			},
			{
				"x": -2.6928040243,
				"y": 0.4232849156,
				"z": -1.7349360775,
				"element": "C" 
			},
			{
				"x": -0.2867819014,
				"y": 0.3201256994,
				"z": -0.9389558735,
				"element": "C" 
			},
			{
				"x": -1.2965279462,
				"y": -2.6072208091,
				"z": 1.9217395673,
				"element": "N" 
			},
			{
				"x": -0.449919215,
				"y": -3.0986698651,
				"z": 2.6925437537,
				"element": "O" 
			},
			{
				"x": -2.4820823119,
				"y": -2.9431861923,
				"z": 1.943724411,
				"element": "O" 
			},
			{
				"x": 3.8850159749,
				"y": 2.3309361026,
				"z": -0.5847803909,
				"element": "H" 
			},
			{
				"x": 4.2236124862,
				"y": 1.0527269489,
				"z": -1.7725858553,
				"element": "H" 
			},
			{
				"x": 3.4069730338,
				"y": 2.5613284921,
				"z": -2.2989293548,
				"element": "H" 
			},
			{
				"x": 2.3921129314,
				"y": -1.2532195421,
				"z": 1.520487962,
				"element": "H" 
			},
			{
				"x": 1.2197407483,
				"y": -2.330812913,
				"z": 2.3448060366,
				"element": "H" 
			},
			{
				"x": -2.879415395,
				"y": -1.4822213447,
				"z": 0.2597438779,
				"element": "H" 
			},
			{
				"x": -2.8117500398,
				"y": 1.5051145321,
				"z": -1.6047873803,
				"element": "H" 
			},
			{
				"x": -3.6575549599,
				"y": -0.0445269025,
				"z": -1.522353295,
				"element": "H" 
			},
			{
				"x": -2.4637136877,
				"y": 0.2483153068,
				"z": -2.792376711,
				"element": "H" 
			},
			{
				"x": -0.0357638142,
				"y": 1.0731490932,
				"z": -1.6780110488,
				"element": "H" 
			}
		],
		 "valence_orbital": [ 
			{
				"type": "occ",
				"energy": -0.30173,
				"method": "rhf"
			},
			{
				"type": "occ",
				"energy": -0.29102,
				"method": "rhf"
			},
			{
				"type": "occ",
				"energy": -0.28194,
				"method": "rhf"
			},
			{
				"type": "occ",
				"energy": -0.2801,
				"method": "rhf"
			},
			{
				"type": "occ",
				"energy": -0.22128,
				"method": "rhf"
			},
			{
				"type": "unocc",
				"energy": -0.08653,
				"method": "rhf"
			},
			{
				"type": "unocc",
				"energy": -0.04504,
				"method": "rhf"
			},
			{
				"type": "unocc",
				"energy": 0.00465,
				"method": "rhf"
			},
			{
				"type": "unocc",
				"energy": 0.05068,
				"method": "rhf"
			},
			{
				"type": "unocc",
				"energy": 0.09014,
				"method": "rhf"
			}
		],
		"cosmo_sigma_profile": { 
			"-0.025": 0.0,
			"-0.024": 0.0,
			"-0.023": 0.0,
			"-0.022": 0.0,
			"-0.021": 0.0,
			"-0.02": 0.0,
			"-0.019": 0.0,
			"-0.018": 0.0,
			"-0.017": 0.0,
			"-0.016": 0.0,
			"-0.015": 0.0,
			"-0.014": 0.0,
			"-0.013": 0.0,
			"-0.012": 0.0,
			"-0.011": 0.144884999216,
			"-0.01": 0.877905319863,
			"-0.009": 1.37499283323,
			"-0.008": 1.87349224008,
			"-0.007": 3.20221613403,
			"-0.006": 9.90089447994,
			"-0.005": 15.0312217798,
			"-0.004": 21.4008791064,
			"-0.003": 21.7811954973,
			"-0.002": 22.1029839652,
			"-0.001": 23.3674715606,
			"0.0": 26.4676582378,
			"0.001": 19.3139220273,
			"0.002": 14.5952605709,
			"0.003": 6.03515817801,
			"0.004": 6.93607523872,
			"0.005": 5.38716398408,
			"0.006": 4.41987375957,
			"0.007": 5.0087436872,
			"0.008": 7.94485034179,
			"0.009": 6.54269472456,
			"0.01": 5.51956524042,
			"0.011": 4.31146725086,
			"0.012": 0.376314557108,
			"0.013": 0.0,
			"0.014": 0.0,
			"0.015": 0.0,
			"0.016": 0.0,
			"0.017": 0.0,
			"0.018": 0.0,
			"0.019": 0.0,
			"0.02": 0.0,
			"0.021": 0.0,
			"0.022": 0.0,
			"0.023": 0.0,
			"0.024": 0.0,
			"0.025": 0.0
		}
	}
}
