{
	 "smiles": "COC1=CC=C(C=C1)C(CCC(O)=O)C(C)(C)C(O)=O", 
	 "Tm": 394.15, 
	 "num_atms": 40, 
	 "gaussian": { 
		 "optdone": 1, 
		 "sigma_profile": "yes", 
		 "theory": "DFT", 
		 "functional": "B3LYP", 
		 "basiset": "6-31G**", 
		 "properties": { 
			 "R2extent": 7029.6185, 
			 "electric_dipole_moment_norm": 3.81103055223, 
			 "electric_quadrupole_moment_norm": 16.881125046, 
			 "total_energy": -959.790532188, 
			 "HOMO_LUMO_gap": 0.21076, 
			 "cosmo_polarized_energy": -24.29, 
			 "cosmo_cavitation_energy": 41.74, 
			 "cosmo_dispersion_energy": -28.17, 
			 "cosmo_repulsion_energy": 2.19, 
			 "cosmo_total_nonelectrostatic_energy": 15.76, 
			 "SMD_solvation_energy": 9.76 
		},
		"coords": [
			{
				"x": 4.0561024301,
				"y": 2.1693179053,
				"z": 2.1278440349,
				"element": "C" 
			},
			{
				"x": 3.2065208036,
				"y": 2.2949467013,
				"z": 0.9982117885,
				"element": "O" 
			},
			{
				"x": 2.1160743165,
				"y": 1.4798522078,
				"z": 0.9185570708,
				"element": "C" 
			},
			{
				"x": 1.2949670752,
				"y": 1.6645968024,
				"z": -0.2034248409,
				"element": "C" 
			},
			{
				"x": 0.1594754515,
				"y": 0.8839778336,
				"z": -0.3769160167,
				"element": "C" 
			},
			{
				"x": -0.2013312655,
				"y": -0.1072326265,
				"z": 0.5545357066,
				"element": "C" 
			},
			{
				"x": 0.6370841482,
				"y": -0.2801878493,
				"z": 1.6607914208,
				"element": "C" 
			},
			{
				"x": 1.7816739803,
				"y": 0.4971158874,
				"z": 1.8555848551,
				"element": "C" 
			},
			{
				"x": -1.4493962051,
				"y": -0.9729681854,
				"z": 0.3904180903,
				"element": "C" 
			},
			{
				"x": -1.6338756435,
				"y": -1.4892188177,
				"z": -1.0533854714,
				"element": "C" 
			},
			{
				"x": -0.4575660508,
				"y": -2.3445942341,
				"z": -1.5309525742,
				"element": "C" 
			},
			{
				"x": -0.649320821,
				"y": -2.8554737163,
				"z": -2.9414468529,
				"element": "C" 
			},
			{
				"x": 0.3607550286,
				"y": -3.6797454582,
				"z": -3.3129982306,
				"element": "O" 
			},
			{
				"x": -1.571111967,
				"y": -2.5826370524,
				"z": -3.679646439,
				"element": "O" 
			},
			{
				"x": -2.7562209623,
				"y": -0.2876040555,
				"z": 0.9665804974,
				"element": "C" 
			},
			{
				"x": -3.1383831463,
				"y": 0.9934610795,
				"z": 0.2096086715,
				"element": "C" 
			},
			{
				"x": -3.9549876814,
				"y": -1.2710563275,
				"z": 0.9344240547,
				"element": "C" 
			},
			{
				"x": -2.4966121034,
				"y": 0.0933088282,
				"z": 2.4411342918,
				"element": "C" 
			},
			{
				"x": -2.2569772928,
				"y": -0.9446877049,
				"z": 3.2974010915,
				"element": "O" 
			},
			{
				"x": -2.5099224453,
				"y": 1.2175083676,
				"z": 2.8732652208,
				"element": "O" 
			},
			{
				"x": 3.5180651533,
				"y": 2.3701820638,
				"z": 3.063036226,
				"element": "H" 
			},
			{
				"x": 4.5118690941,
				"y": 1.1721356614,
				"z": 2.1837077106,
				"element": "H" 
			},
			{
				"x": 4.8419684385,
				"y": 2.9150108745,
				"z": 1.9984117132,
				"element": "H" 
			},
			{
				"x": 1.5678791202,
				"y": 2.427528361,
				"z": -0.9252070077,
				"element": "H" 
			},
			{
				"x": -0.4520374443,
				"y": 1.0524073385,
				"z": -1.2580039407,
				"element": "H" 
			},
			{
				"x": 0.3897416534,
				"y": -1.0308626282,
				"z": 2.4065485538,
				"element": "H" 
			},
			{
				"x": 2.394846396,
				"y": 0.3264944993,
				"z": 2.732344631,
				"element": "H" 
			},
			{
				"x": -1.2827466284,
				"y": -1.8684247163,
				"z": 1.0090322573,
				"element": "H" 
			},
			{
				"x": -2.54460197,
				"y": -2.0900438514,
				"z": -1.1221066546,
				"element": "H" 
			},
			{
				"x": -1.7752264422,
				"y": -0.6606910304,
				"z": -1.7530376755,
				"element": "H" 
			},
			{
				"x": 0.4830578622,
				"y": -1.782471388,
				"z": -1.5036973114,
				"element": "H" 
			},
			{
				"x": -0.2983849356,
				"y": -3.2117591804,
				"z": -0.8772908822,
				"element": "H" 
			},
			{
				"x": 0.1657614295,
				"y": -3.9500950762,
				"z": -4.2260831043,
				"element": "H" 
			},
			{
				"x": -2.3521800189,
				"y": 1.7457948468,
				"z": 0.2796477977,
				"element": "H" 
			},
			{
				"x": -4.0429351283,
				"y": 1.4289222661,
				"z": 0.6418605441,
				"element": "H" 
			},
			{
				"x": -3.3357571209,
				"y": 0.7762021428,
				"z": -0.8440839369,
				"element": "H" 
			},
			{
				"x": -4.7858635173,
				"y": -0.8841666547,
				"z": 1.5325348907,
				"element": "H" 
			},
			{
				"x": -4.3219253657,
				"y": -1.4035524348,
				"z": -0.0860652283,
				"element": "H" 
			},
			{
				"x": -3.7020780656,
				"y": -2.2678550083,
				"z": 1.3175596398,
				"element": "H" 
			},
			{
				"x": -2.3181001597,
				"y": -1.7877356708,
				"z": 2.8274054082,
				"element": "H" 
			}
		],
		 "valence_orbital": [ 
			{
				"type": "occ",
				"energy": -0.30922,
				"method": "rhf"
			},
			{
				"type": "occ",
				"energy": -0.27939,
				"method": "rhf"
			},
			{
				"type": "occ",
				"energy": -0.26128,
				"method": "rhf"
			},
			{
				"type": "occ",
				"energy": -0.25277,
				"method": "rhf"
			},
			{
				"type": "occ",
				"energy": -0.21823,
				"method": "rhf"
			},
			{
				"type": "unocc",
				"energy": -0.00747,
				"method": "rhf"
			},
			{
				"type": "unocc",
				"energy": 0.00396,
				"method": "rhf"
			},
			{
				"type": "unocc",
				"energy": 0.00971,
				"method": "rhf"
			},
			{
				"type": "unocc",
				"energy": 0.01636,
				"method": "rhf"
			},
			{
				"type": "unocc",
				"energy": 0.04092,
				"method": "rhf"
			}
		],
		"cosmo_sigma_profile": { 
			"-0.025": 0.0,
			"-0.024": 0.0,
			"-0.023": 0.0,
			"-0.022": 0.0,
			"-0.021": 0.0,
			"-0.02": 0.0,
			"-0.019": 0.0183967125467,
			"-0.018": 0.808072869279,
			"-0.017": 1.5937986605,
			"-0.016": 1.89837220023,
			"-0.015": 2.27709283006,
			"-0.014": 1.4975184513,
			"-0.013": 0.97426778424,
			"-0.012": 1.10418151457,
			"-0.011": 3.03892332755,
			"-0.01": 1.50977223967,
			"-0.009": 1.59505858561,
			"-0.008": 2.26287852841,
			"-0.007": 2.83105327589,
			"-0.006": 13.2071928414,
			"-0.005": 29.4924044028,
			"-0.004": 34.3991072613,
			"-0.003": 33.9083639182,
			"-0.002": 23.1255482145,
			"-0.001": 21.3895561001,
			"0.0": 20.4885399675,
			"0.001": 14.7416320868,
			"0.002": 11.5096827456,
			"0.003": 11.5128004153,
			"0.004": 14.3657018205,
			"0.005": 15.1714058248,
			"0.006": 9.69147048065,
			"0.007": 6.51208096987,
			"0.008": 6.69825338643,
			"0.009": 7.63343418542,
			"0.01": 9.05093967169,
			"0.011": 9.01880975112,
			"0.012": 10.5865863313,
			"0.013": 2.83514209098,
			"0.014": 0.0833630859019,
			"0.015": 0.0,
			"0.016": 0.0,
			"0.017": 0.0,
			"0.018": 0.0,
			"0.019": 0.0,
			"0.02": 0.0,
			"0.021": 0.0,
			"0.022": 0.0,
			"0.023": 0.0,
			"0.024": 0.0,
			"0.025": 0.0
		}
	}
}
