{
	 "smiles": "COC1=CC=C(C=C1)C1=NN=C2SC(NN12)C1=CC=C(C=C1)N(C)C", 
	 "Tm": 440.15, 
	 "num_atms": 44, 
	 "gaussian": { 
		 "optdone": 1, 
		 "sigma_profile": "yes", 
		 "theory": "DFT", 
		 "functional": "B3LYP", 
		 "basiset": "6-31G**", 
		 "properties": { 
			 "R2extent": 12449.4914, 
			 "electric_dipole_moment_norm": 6.14100159013, 
			 "electric_quadrupole_moment_norm": 34.1630059305, 
			 "total_energy": -1444.44807183, 
			 "HOMO_LUMO_gap": 0.16459, 
			 "cosmo_polarized_energy": -24.57, 
			 "cosmo_cavitation_energy": 48.51, 
			 "cosmo_dispersion_energy": -34.75, 
			 "cosmo_repulsion_energy": 2.55, 
			 "cosmo_total_nonelectrostatic_energy": 16.31, 
			 "SMD_solvation_energy": 5.8 
		},
		"coords": [
			{
				"x": 5.6938014021,
				"y": -4.4267397045,
				"z": -1.2162600435,
				"element": "C" 
			},
			{
				"x": 4.2828086644,
				"y": -4.4250020749,
				"z": -1.0597831798,
				"element": "O" 
			},
			{
				"x": 3.7152251445,
				"y": -3.4320403197,
				"z": -0.3184957145,
				"element": "C" 
			},
			{
				"x": 4.4251977094,
				"y": -2.3975814343,
				"z": 0.3079771443,
				"element": "C" 
			},
			{
				"x": 3.7398893158,
				"y": -1.434911632,
				"z": 1.0435776995,
				"element": "C" 
			},
			{
				"x": 2.3432394863,
				"y": -1.4766441876,
				"z": 1.1736036593,
				"element": "C" 
			},
			{
				"x": 1.6423219615,
				"y": -2.5200510859,
				"z": 0.5400895379,
				"element": "C" 
			},
			{
				"x": 2.3191526106,
				"y": -3.482889244,
				"z": -0.1963173181,
				"element": "C" 
			},
			{
				"x": 1.6851887054,
				"y": -0.430647781,
				"z": 1.9565506274,
				"element": "C" 
			},
			{
				"x": 2.2975351956,
				"y": 0.5946854779,
				"z": 2.5270713814,
				"element": "N" 
			},
			{
				"x": 1.3623390455,
				"y": 1.3979612986,
				"z": 3.1666866506,
				"element": "N" 
			},
			{
				"x": 0.2042384153,
				"y": 0.8207145889,
				"z": 2.9849638769,
				"element": "C" 
			},
			{
				"x": -1.4719438945,
				"y": 1.1328333255,
				"z": 3.4116201525,
				"element": "S" 
			},
			{
				"x": -1.9348041676,
				"y": -0.1333258686,
				"z": 2.0200183873,
				"element": "C" 
			},
			{
				"x": -0.8175961134,
				"y": -1.0801198722,
				"z": 1.9702037254,
				"element": "N" 
			},
			{
				"x": 0.3390740285,
				"y": -0.3216109593,
				"z": 2.2374052442,
				"element": "N" 
			},
			{
				"x": -2.2180531498,
				"y": 0.5470371178,
				"z": 0.7063320592,
				"element": "C" 
			},
			{
				"x": -1.4575998314,
				"y": 0.3105800941,
				"z": -0.4430582306,
				"element": "C" 
			},
			{
				"x": -1.7513703433,
				"y": 0.94107378,
				"z": -1.648106375,
				"element": "C" 
			},
			{
				"x": -2.8397354543,
				"y": 1.834617009,
				"z": -1.7616462408,
				"element": "C" 
			},
			{
				"x": -3.6047035531,
				"y": 2.0704545354,
				"z": -0.5933537756,
				"element": "C" 
			},
			{
				"x": -3.2941448225,
				"y": 1.4382585855,
				"z": 0.601866903,
				"element": "C" 
			},
			{
				"x": -3.1534087114,
				"y": 2.4466815095,
				"z": -2.9655326026,
				"element": "N" 
			},
			{
				"x": -2.2299160258,
				"y": 2.3375887656,
				"z": -4.0828048351,
				"element": "C" 
			},
			{
				"x": -4.1494544849,
				"y": 3.504848379,
				"z": -2.9926153965,
				"element": "C" 
			},
			{
				"x": 6.0463013029,
				"y": -3.5191808157,
				"z": -1.7227235949,
				"element": "H" 
			},
			{
				"x": 6.2081188408,
				"y": -4.5214614027,
				"z": -0.2514304739,
				"element": "H" 
			},
			{
				"x": 5.9268816325,
				"y": -5.2954857407,
				"z": -1.8337434082,
				"element": "H" 
			},
			{
				"x": 5.5039424977,
				"y": -2.3335868625,
				"z": 0.2297492249,
				"element": "H" 
			},
			{
				"x": 4.2816831701,
				"y": -0.6307541799,
				"z": 1.5294360724,
				"element": "H" 
			},
			{
				"x": 0.5620634178,
				"y": -2.5740109438,
				"z": 0.619705733,
				"element": "H" 
			},
			{
				"x": 1.7855365875,
				"y": -4.2892915694,
				"z": -0.688563716,
				"element": "H" 
			},
			{
				"x": -2.8125910321,
				"y": -0.663624513,
				"z": 2.3962115529,
				"element": "H" 
			},
			{
				"x": -0.9179594348,
				"y": -1.7467046747,
				"z": 2.7380152369,
				"element": "H" 
			},
			{
				"x": -0.6228325196,
				"y": -0.380221608,
				"z": -0.4051624035,
				"element": "H" 
			},
			{
				"x": -1.123148896,
				"y": 0.730241519,
				"z": -2.504329611,
				"element": "H" 
			},
			{
				"x": -4.4426025159,
				"y": 2.7558130342,
				"z": -0.6144853538,
				"element": "H" 
			},
			{
				"x": -3.8993212169,
				"y": 1.6592087226,
				"z": 1.4782439722,
				"element": "H" 
			},
			{
				"x": -2.6462020712,
				"y": 2.8634686621,
				"z": -4.9432546344,
				"element": "H" 
			},
			{
				"x": -2.0864973897,
				"y": 1.2909484121,
				"z": -4.3750912552,
				"element": "H" 
			},
			{
				"x": -1.2404117495,
				"y": 2.7668489921,
				"z": -3.8627633544,
				"element": "H" 
			},
			{
				"x": -4.2749666036,
				"y": 3.8508972288,
				"z": -4.0195990632,
				"element": "H" 
			},
			{
				"x": -3.8723863508,
				"y": 4.3697936072,
				"z": -2.3703481998,
				"element": "H" 
			},
			{
				"x": -5.1237888025,
				"y": 3.1391318297,
				"z": -2.6484600609,
				"element": "H" 
			}
		],
		 "valence_orbital": [ 
			{
				"type": "occ",
				"energy": -0.25114,
				"method": "rhf"
			},
			{
				"type": "occ",
				"energy": -0.24349,
				"method": "rhf"
			},
			{
				"type": "occ",
				"energy": -0.23825,
				"method": "rhf"
			},
			{
				"type": "occ",
				"energy": -0.20073,
				"method": "rhf"
			},
			{
				"type": "occ",
				"energy": -0.19261,
				"method": "rhf"
			},
			{
				"type": "unocc",
				"energy": -0.02802,
				"method": "rhf"
			},
			{
				"type": "unocc",
				"energy": -0.01691,
				"method": "rhf"
			},
			{
				"type": "unocc",
				"energy": -0.00465,
				"method": "rhf"
			},
			{
				"type": "unocc",
				"energy": -0.00047,
				"method": "rhf"
			},
			{
				"type": "unocc",
				"energy": 0.02148,
				"method": "rhf"
			}
		],
		"cosmo_sigma_profile": { 
			"-0.025": 0.0,
			"-0.024": 0.0,
			"-0.023": 0.0,
			"-0.022": 0.0,
			"-0.021": 0.0,
			"-0.02": 0.0,
			"-0.019": 0.0,
			"-0.018": 0.0,
			"-0.017": 0.0,
			"-0.016": 0.145967796349,
			"-0.015": 2.1640411569,
			"-0.014": 2.00934422671,
			"-0.013": 1.57124243128,
			"-0.012": 1.35646761874,
			"-0.011": 1.80377661592,
			"-0.01": 2.75192749258,
			"-0.009": 3.36209375419,
			"-0.008": 3.24246453049,
			"-0.007": 5.47944269176,
			"-0.006": 17.6080116572,
			"-0.005": 28.5390328057,
			"-0.004": 32.3412850861,
			"-0.003": 37.3276437354,
			"-0.002": 33.2215500945,
			"-0.001": 28.9352678583,
			"0.0": 20.8482033703,
			"0.001": 19.9126999376,
			"0.002": 23.4304481457,
			"0.003": 25.8971521269,
			"0.004": 27.3701153313,
			"0.005": 19.1629371769,
			"0.006": 16.9044601654,
			"0.007": 6.81730782929,
			"0.008": 3.27208045179,
			"0.009": 3.77840667719,
			"0.01": 2.94826380793,
			"0.011": 2.62106955449,
			"0.012": 2.36169629699,
			"0.013": 3.66821184322,
			"0.014": 3.31257482615,
			"0.015": 2.69502145022,
			"0.016": 1.71586559304,
			"0.017": 0.314152224592,
			"0.018": 0.0,
			"0.019": 0.0,
			"0.02": 0.0,
			"0.021": 0.0,
			"0.022": 0.0,
			"0.023": 0.0,
			"0.024": 0.0,
			"0.025": 0.0
		}
	}
}
