{
	 "smiles": "OC(=O)CCOC1=C(C=CC=C1)[N+]([O-])=O", 
	 "Tm": 395.15, 
	 "num_atms": 24, 
	 "gaussian": { 
		 "optdone": 1, 
		 "sigma_profile": "yes", 
		 "theory": "DFT", 
		 "functional": "B3LYP", 
		 "basiset": "6-31G**", 
		 "properties": { 
			 "R2extent": 4421.6693, 
			 "electric_dipole_moment_norm": 5.42755680302, 
			 "electric_quadrupole_moment_norm": 14.0334291387, 
			 "total_energy": -779.147789396, 
			 "HOMO_LUMO_gap": 0.17889, 
			 "cosmo_polarized_energy": -15.87, 
			 "cosmo_cavitation_energy": 29.8, 
			 "cosmo_dispersion_energy": -20.98, 
			 "cosmo_repulsion_energy": 1.66, 
			 "cosmo_total_nonelectrostatic_energy": 10.49, 
			 "SMD_solvation_energy": 8.54 
		},
		"coords": [
			{
				"x": 0.5873067398,
				"y": 0.6072544914,
				"z": -3.6483941113,
				"element": "O" 
			},
			{
				"x": -0.6782216354,
				"y": 0.3821216473,
				"z": -4.0932817316,
				"element": "C" 
			},
			{
				"x": -0.9125749669,
				"y": -0.3413332149,
				"z": -5.0326181019,
				"element": "O" 
			},
			{
				"x": -1.713993695,
				"y": 1.1707544949,
				"z": -3.3159909238,
				"element": "C" 
			},
			{
				"x": -1.4481479389,
				"y": 1.2591728022,
				"z": -1.8222112725,
				"element": "C" 
			},
			{
				"x": -1.4768444747,
				"y": -0.0849167639,
				"z": -1.3070465421,
				"element": "O" 
			},
			{
				"x": -0.9339119515,
				"y": -0.2718774789,
				"z": -0.0700206338,
				"element": "C" 
			},
			{
				"x": -1.7242423733,
				"y": -0.4159860134,
				"z": 1.0846455313,
				"element": "C" 
			},
			{
				"x": -1.1522779353,
				"y": -0.741946894,
				"z": 2.316617437,
				"element": "C" 
			},
			{
				"x": 0.2266338921,
				"y": -0.8849516032,
				"z": 2.4222712201,
				"element": "C" 
			},
			{
				"x": 1.0278604384,
				"y": -0.7276627701,
				"z": 1.2869741652,
				"element": "C" 
			},
			{
				"x": 0.4509480159,
				"y": -0.4348663963,
				"z": 0.0535842455,
				"element": "C" 
			},
			{
				"x": -3.180560058,
				"y": -0.2338723159,
				"z": 1.0469022851,
				"element": "N" 
			},
			{
				"x": -3.6488646267,
				"y": 0.5474610172,
				"z": 0.2199176036,
				"element": "O" 
			},
			{
				"x": -3.8460494782,
				"y": -0.8599336664,
				"z": 1.8719403251,
				"element": "O" 
			},
			{
				"x": 1.1657197692,
				"y": 0.0795354195,
				"z": -4.2244842818,
				"element": "H" 
			},
			{
				"x": -2.685787433,
				"y": 0.7131805801,
				"z": -3.5117990661,
				"element": "H" 
			},
			{
				"x": -1.7366621517,
				"y": 2.1877744676,
				"z": -3.7283500197,
				"element": "H" 
			},
			{
				"x": -0.468215369,
				"y": 1.7088858377,
				"z": -1.6290181816,
				"element": "H" 
			},
			{
				"x": -2.2245999126,
				"y": 1.8475267487,
				"z": -1.3236158722,
				"element": "H" 
			},
			{
				"x": -1.806025432,
				"y": -0.8708531327,
				"z": 3.1707691951,
				"element": "H" 
			},
			{
				"x": 0.6728206916,
				"y": -1.1230233571,
				"z": 3.3821655785,
				"element": "H" 
			},
			{
				"x": 2.1046429112,
				"y": -0.8476015953,
				"z": 1.3603926986,
				"element": "H" 
			},
			{
				"x": 1.0499469743,
				"y": -0.3433423044,
				"z": -0.8467495466,
				"element": "H" 
			}
		],
		 "valence_orbital": [ 
			{
				"type": "occ",
				"energy": -0.29984,
				"method": "rhf"
			},
			{
				"type": "occ",
				"energy": -0.28831,
				"method": "rhf"
			},
			{
				"type": "occ",
				"energy": -0.27898,
				"method": "rhf"
			},
			{
				"type": "occ",
				"energy": -0.27575,
				"method": "rhf"
			},
			{
				"type": "occ",
				"energy": -0.26426,
				"method": "rhf"
			},
			{
				"type": "unocc",
				"energy": -0.08537,
				"method": "rhf"
			},
			{
				"type": "unocc",
				"energy": -0.02687,
				"method": "rhf"
			},
			{
				"type": "unocc",
				"energy": -0.00738,
				"method": "rhf"
			},
			{
				"type": "unocc",
				"energy": 0.00347,
				"method": "rhf"
			},
			{
				"type": "unocc",
				"energy": 0.06207,
				"method": "rhf"
			}
		],
		"cosmo_sigma_profile": { 
			"-0.025": 0.0,
			"-0.024": 0.0,
			"-0.023": 0.0,
			"-0.022": 0.0,
			"-0.021": 0.0,
			"-0.02": 0.0,
			"-0.019": 0.0,
			"-0.018": 0.894810317424,
			"-0.017": 0.749997038459,
			"-0.016": 0.937946185813,
			"-0.015": 0.72360111645,
			"-0.014": 0.416559558221,
			"-0.013": 0.342397982901,
			"-0.012": 0.992481899079,
			"-0.011": 1.27389123167,
			"-0.01": 0.820152689535,
			"-0.009": 0.237052052934,
			"-0.008": 4.53984314431,
			"-0.007": 10.5868336616,
			"-0.006": 15.8152239713,
			"-0.005": 18.2642680032,
			"-0.004": 15.38960107,
			"-0.003": 17.0502395838,
			"-0.002": 12.9116274797,
			"-0.001": 14.1036233576,
			"0.0": 13.8882016776,
			"0.001": 19.0573313047,
			"0.002": 17.0324195,
			"0.003": 10.5475074259,
			"0.004": 5.76637803632,
			"0.005": 6.81795109452,
			"0.006": 7.05875721627,
			"0.007": 9.8484564201,
			"0.008": 10.661448838,
			"0.009": 6.97734536955,
			"0.01": 4.51751735354,
			"0.011": 4.65213045103,
			"0.012": 3.90689700284,
			"0.013": 0.596626554524,
			"0.014": 0.0,
			"0.015": 0.0,
			"0.016": 0.0,
			"0.017": 0.0,
			"0.018": 0.0,
			"0.019": 0.0,
			"0.02": 0.0,
			"0.021": 0.0,
			"0.022": 0.0,
			"0.023": 0.0,
			"0.024": 0.0,
			"0.025": 0.0
		}
	}
}
