{
	 "smiles": "CC1=C2C(=CC=C1)C1=C2N=C2C=CC=CC2=N1", 
	 "Tm": 408.15, 
	 "num_atms": 27, 
	 "gaussian": { 
		 "optdone": 1, 
		 "sigma_profile": "yes", 
		 "theory": "DFT", 
		 "functional": "B3LYP", 
		 "basiset": "6-31G**", 
		 "properties": { 
			 "R2extent": 4560.4855, 
			 "electric_dipole_moment_norm": 2.07094684142, 
			 "electric_quadrupole_moment_norm": 16.895866541, 
			 "total_energy": -687.079103273, 
			 "HOMO_LUMO_gap": 0.14974, 
			 "cosmo_polarized_energy": -8.75, 
			 "cosmo_cavitation_energy": 31.6, 
			 "cosmo_dispersion_energy": -23.39, 
			 "cosmo_repulsion_energy": 1.77, 
			 "cosmo_total_nonelectrostatic_energy": 9.98, 
			 "SMD_solvation_energy": 1.12 
		},
		"coords": [
			{
				"x": -2.4761975742,
				"y": 2.3222511766,
				"z": 2.8233991511,
				"element": "C" 
			},
			{
				"x": -2.625739742,
				"y": 1.1329271137,
				"z": 1.9104585274,
				"element": "C" 
			},
			{
				"x": -1.5832094205,
				"y": 0.5975358597,
				"z": 1.1751338605,
				"element": "C" 
			},
			{
				"x": -1.7307771933,
				"y": -0.5291063497,
				"z": 0.3119249666,
				"element": "C" 
			},
			{
				"x": -2.9384423945,
				"y": -1.1731613999,
				"z": 0.1467174536,
				"element": "C" 
			},
			{
				"x": -4.0138084155,
				"y": -0.6397360013,
				"z": 0.8901057995,
				"element": "C" 
			},
			{
				"x": -3.8622082137,
				"y": 0.4634920254,
				"z": 1.733292961,
				"element": "C" 
			},
			{
				"x": -0.2771739059,
				"y": -0.4538776778,
				"z": -0.0522630026,
				"element": "C" 
			},
			{
				"x": -0.1288054503,
				"y": 0.6919282532,
				"z": 0.8261494791,
				"element": "C" 
			},
			{
				"x": 0.9602513444,
				"y": 1.3505020438,
				"z": 1.0377716056,
				"element": "N" 
			},
			{
				"x": 2.0245317151,
				"y": 0.813348096,
				"z": 0.2947164396,
				"element": "C" 
			},
			{
				"x": 3.2866998237,
				"y": 1.4203909231,
				"z": 0.4143288971,
				"element": "C" 
			},
			{
				"x": 4.3774668466,
				"y": 0.9370692661,
				"z": -0.293178133,
				"element": "C" 
			},
			{
				"x": 4.2335750295,
				"y": -0.1723870797,
				"z": -1.1436901578,
				"element": "C" 
			},
			{
				"x": 2.999700155,
				"y": -0.7908845186,
				"z": -1.2807688302,
				"element": "C" 
			},
			{
				"x": 1.877140853,
				"y": -0.3225382821,
				"z": -0.5760245191,
				"element": "C" 
			},
			{
				"x": 0.6566955609,
				"y": -0.9934883857,
				"z": -0.7592219282,
				"element": "N" 
			},
			{
				"x": -3.1353814502,
				"y": 3.1415517934,
				"z": 2.5146877858,
				"element": "H" 
			},
			{
				"x": -2.7433643911,
				"y": 2.063925412,
				"z": 3.8544004301,
				"element": "H" 
			},
			{
				"x": -1.4485713137,
				"y": 2.6922783911,
				"z": 2.8203309702,
				"element": "H" 
			},
			{
				"x": -3.0714918399,
				"y": -2.0306458807,
				"z": -0.5042088652,
				"element": "H" 
			},
			{
				"x": -4.994101504,
				"y": -1.1003638674,
				"z": 0.8060227367,
				"element": "H" 
			},
			{
				"x": -4.7313988188,
				"y": 0.8248671641,
				"z": 2.2779955145,
				"element": "H" 
			},
			{
				"x": 3.3723294947,
				"y": 2.2756030404,
				"z": 1.0773254035,
				"element": "H" 
			},
			{
				"x": 5.3456340796,
				"y": 1.4179719321,
				"z": -0.1891382839,
				"element": "H" 
			},
			{
				"x": 5.0907027672,
				"y": -0.546960702,
				"z": -1.6954276524,
				"element": "H" 
			},
			{
				"x": 2.8623439581,
				"y": -1.649092346,
				"z": -1.9310406096,
				"element": "H" 
			}
		],
		 "valence_orbital": [ 
			{
				"type": "occ",
				"energy": -0.28438,
				"method": "rhf"
			},
			{
				"type": "occ",
				"energy": -0.26489,
				"method": "rhf"
			},
			{
				"type": "occ",
				"energy": -0.2398,
				"method": "rhf"
			},
			{
				"type": "occ",
				"energy": -0.23707,
				"method": "rhf"
			},
			{
				"type": "occ",
				"energy": -0.21749,
				"method": "rhf"
			},
			{
				"type": "unocc",
				"energy": -0.06775,
				"method": "rhf"
			},
			{
				"type": "unocc",
				"energy": -0.05763,
				"method": "rhf"
			},
			{
				"type": "unocc",
				"energy": 0.00484,
				"method": "rhf"
			},
			{
				"type": "unocc",
				"energy": 0.00943,
				"method": "rhf"
			},
			{
				"type": "unocc",
				"energy": 0.02884,
				"method": "rhf"
			}
		],
		"cosmo_sigma_profile": { 
			"-0.025": 0.0,
			"-0.024": 0.0,
			"-0.023": 0.0,
			"-0.022": 0.0,
			"-0.021": 0.0,
			"-0.02": 0.0,
			"-0.019": 0.0,
			"-0.018": 0.0,
			"-0.017": 0.0,
			"-0.016": 0.0,
			"-0.015": 0.0,
			"-0.014": 0.0,
			"-0.013": 0.0,
			"-0.012": 0.0,
			"-0.011": 0.0,
			"-0.01": 0.0,
			"-0.009": 0.0,
			"-0.008": 0.297342718438,
			"-0.007": 4.45859645803,
			"-0.006": 14.0381103695,
			"-0.005": 17.8263965842,
			"-0.004": 20.4527853939,
			"-0.003": 21.6700133306,
			"-0.002": 19.9578849388,
			"-0.001": 24.5609651231,
			"0.0": 24.5050976552,
			"0.001": 19.0512246275,
			"0.002": 22.517293283,
			"0.003": 25.6928101179,
			"0.004": 15.8068859593,
			"0.005": 5.03514634008,
			"0.006": 3.71494049621,
			"0.007": 1.45283466272,
			"0.008": 2.78235685703,
			"0.009": 2.16612025902,
			"0.01": 1.61107677871,
			"0.011": 2.24621994741,
			"0.012": 1.75491731675,
			"0.013": 1.67261847523,
			"0.014": 1.13811378913,
			"0.015": 0.870223608243,
			"0.016": 0.00881075801308,
			"0.017": 0.0,
			"0.018": 0.0,
			"0.019": 0.0,
			"0.02": 0.0,
			"0.021": 0.0,
			"0.022": 0.0,
			"0.023": 0.0,
			"0.024": 0.0,
			"0.025": 0.0
		}
	}
}
