{
	 "smiles": "N#CC1=C(OC2=NC=CN=C2)C=CC=C1", 
	 "Tm": 347.15, 
	 "num_atms": 22, 
	 "gaussian": { 
		 "optdone": 1, 
		 "sigma_profile": "yes", 
		 "theory": "DFT", 
		 "functional": "B3LYP", 
		 "basiset": "6-31G**", 
		 "properties": { 
			 "R2extent": 3297.7646, 
			 "electric_dipole_moment_norm": 4.78265087791, 
			 "electric_quadrupole_moment_norm": 7.39767216292, 
			 "total_energy": -662.825888446, 
			 "HOMO_LUMO_gap": 0.19665, 
			 "cosmo_polarized_energy": -12.71, 
			 "cosmo_cavitation_energy": 28.67, 
			 "cosmo_dispersion_energy": -19.82, 
			 "cosmo_repulsion_energy": 1.56, 
			 "cosmo_total_nonelectrostatic_energy": 10.41, 
			 "SMD_solvation_energy": 4.21 
		},
		"coords": [
			{
				"x": 1.1683742726,
				"y": -1.6076369218,
				"z": -1.2032249084,
				"element": "N" 
			},
			{
				"x": 0.2759386297,
				"y": -1.454781948,
				"z": -0.4732757638,
				"element": "C" 
			},
			{
				"x": -0.8309976265,
				"y": -1.2823611771,
				"z": 0.4179114363,
				"element": "C" 
			},
			{
				"x": -0.7300341968,
				"y": -0.4202175831,
				"z": 1.5246824996,
				"element": "C" 
			},
			{
				"x": 0.4684319852,
				"y": 0.2116935048,
				"z": 1.8144091663,
				"element": "O" 
			},
			{
				"x": 0.8274525585,
				"y": 1.3303349577,
				"z": 1.1123521348,
				"element": "C" 
			},
			{
				"x": -0.0039735465,
				"y": 1.8571327194,
				"z": 0.2325686887,
				"element": "N" 
			},
			{
				"x": 0.4322301385,
				"y": 2.9600532387,
				"z": -0.3978827392,
				"element": "C" 
			},
			{
				"x": 1.6786740865,
				"y": 3.5146870597,
				"z": -0.1315442567,
				"element": "C" 
			},
			{
				"x": 2.513002484,
				"y": 2.9698794864,
				"z": 0.7711438264,
				"element": "N" 
			},
			{
				"x": 2.0935201461,
				"y": 1.875379391,
				"z": 1.3940165479,
				"element": "C" 
			},
			{
				"x": -1.7972976004,
				"y": -0.2677834548,
				"z": 2.4019959004,
				"element": "C" 
			},
			{
				"x": -2.9811929885,
				"y": -0.9723139606,
				"z": 2.1801456959,
				"element": "C" 
			},
			{
				"x": -3.0995533613,
				"y": -1.8264761618,
				"z": 1.0812984082,
				"element": "C" 
			},
			{
				"x": -2.0299419002,
				"y": -1.9829559986,
				"z": 0.2043574414,
				"element": "C" 
			},
			{
				"x": -0.2393003255,
				"y": 3.4029552188,
				"z": -1.1295698908,
				"element": "H" 
			},
			{
				"x": 2.0192287513,
				"y": 4.4084624178,
				"z": -0.6470804821,
				"element": "H" 
			},
			{
				"x": 2.7466751691,
				"y": 1.4068500874,
				"z": 2.1254479236,
				"element": "H" 
			},
			{
				"x": -1.6846496959,
				"y": 0.3973911254,
				"z": 3.251126034,
				"element": "H" 
			},
			{
				"x": -3.8124055562,
				"y": -0.8516410464,
				"z": 2.8680180297,
				"element": "H" 
			},
			{
				"x": -4.0210568244,
				"y": -2.3733220952,
				"z": 0.9103443304,
				"element": "H" 
			},
			{
				"x": -2.1048245992,
				"y": -2.6471288596,
				"z": -0.6499400225,
				"element": "H" 
			}
		],
		 "valence_orbital": [ 
			{
				"type": "occ",
				"energy": -0.31854,
				"method": "rhf"
			},
			{
				"type": "occ",
				"energy": -0.27576,
				"method": "rhf"
			},
			{
				"type": "occ",
				"energy": -0.2685,
				"method": "rhf"
			},
			{
				"type": "occ",
				"energy": -0.2614,
				"method": "rhf"
			},
			{
				"type": "occ",
				"energy": -0.25527,
				"method": "rhf"
			},
			{
				"type": "unocc",
				"energy": -0.05862,
				"method": "rhf"
			},
			{
				"type": "unocc",
				"energy": -0.05037,
				"method": "rhf"
			},
			{
				"type": "unocc",
				"energy": -0.02828,
				"method": "rhf"
			},
			{
				"type": "unocc",
				"energy": -0.01672,
				"method": "rhf"
			},
			{
				"type": "unocc",
				"energy": 0.03246,
				"method": "rhf"
			}
		],
		"cosmo_sigma_profile": { 
			"-0.025": 0.0,
			"-0.024": 0.0,
			"-0.023": 0.0,
			"-0.022": 0.0,
			"-0.021": 0.0,
			"-0.02": 0.0,
			"-0.019": 0.0,
			"-0.018": 0.0,
			"-0.017": 0.0,
			"-0.016": 0.0,
			"-0.015": 0.0,
			"-0.014": 0.0,
			"-0.013": 0.0,
			"-0.012": 0.0,
			"-0.011": 0.0,
			"-0.01": 0.0,
			"-0.009": 0.540929463467,
			"-0.008": 9.53829928595,
			"-0.007": 16.9577515987,
			"-0.006": 14.9825365835,
			"-0.005": 12.1658668812,
			"-0.004": 11.531008911,
			"-0.003": 12.2602027319,
			"-0.002": 17.1314224781,
			"-0.001": 19.3338796516,
			"0.0": 21.0025010928,
			"0.001": 17.6874946652,
			"0.002": 17.5506020546,
			"0.003": 11.1901872131,
			"0.004": 7.3025700634,
			"0.005": 6.25958215745,
			"0.006": 6.17893240942,
			"0.007": 6.05617977656,
			"0.008": 4.82243825982,
			"0.009": 5.39928655966,
			"0.01": 4.6882559197,
			"0.011": 4.06037103685,
			"0.012": 3.45075138598,
			"0.013": 1.87355045091,
			"0.014": 0.752949965686,
			"0.015": 0.360751458548,
			"0.016": 0.0,
			"0.017": 0.0,
			"0.018": 0.0,
			"0.019": 0.0,
			"0.02": 0.0,
			"0.021": 0.0,
			"0.022": 0.0,
			"0.023": 0.0,
			"0.024": 0.0,
			"0.025": 0.0
		}
	}
}
