{
	 "smiles": "CC1=CC(=CC(=C1)C(O)=O)C(O)=O", 
	 "Tm": 572.15, 
	 "num_atms": 21, 
	 "gaussian": { 
		 "optdone": 1, 
		 "sigma_profile": "yes", 
		 "theory": "DFT", 
		 "functional": "B3LYP", 
		 "basiset": "6-31G**", 
		 "properties": { 
			 "R2extent": 3457.9549, 
			 "electric_dipole_moment_norm": 5.23230292797, 
			 "electric_quadrupole_moment_norm": 22.9331822973, 
			 "total_energy": -648.697450181, 
			 "HOMO_LUMO_gap": 0.20151, 
			 "cosmo_polarized_energy": -22.49, 
			 "cosmo_cavitation_energy": 26.18, 
			 "cosmo_dispersion_energy": -19.13, 
			 "cosmo_repulsion_energy": 1.51, 
			 "cosmo_total_nonelectrostatic_energy": 8.57, 
			 "SMD_solvation_energy": 6.96 
		},
		"coords": [
			{
				"x": 2.1659586518,
				"y": -1.4836984399,
				"z": 2.1562327681,
				"element": "C" 
			},
			{
				"x": 1.6347315114,
				"y": -1.0993458143,
				"z": 0.7959214319,
				"element": "C" 
			},
			{
				"x": 1.1951686193,
				"y": -2.0742092718,
				"z": -0.1033388099,
				"element": "C" 
			},
			{
				"x": 0.6889246634,
				"y": -1.7303059175,
				"z": -1.3641374026,
				"element": "C" 
			},
			{
				"x": 0.6395835989,
				"y": -0.3875132416,
				"z": -1.7422865224,
				"element": "C" 
			},
			{
				"x": 1.0594496395,
				"y": 0.6079892928,
				"z": -0.8536014659,
				"element": "C" 
			},
			{
				"x": 1.5592126471,
				"y": 0.2435042424,
				"z": 0.4024724309,
				"element": "C" 
			},
			{
				"x": 0.9834571555,
				"y": 2.0282866252,
				"z": -1.3359029545,
				"element": "C" 
			},
			{
				"x": 1.0433165468,
				"y": 3.0053858289,
				"z": -0.395882119,
				"element": "O" 
			},
			{
				"x": 0.8676439483,
				"y": 2.317812741,
				"z": -2.5037242119,
				"element": "O" 
			},
			{
				"x": 0.2606925715,
				"y": -2.8583482276,
				"z": -2.2624359314,
				"element": "C" 
			},
			{
				"x": -0.5017919104,
				"y": -2.5393076862,
				"z": -3.3366038453,
				"element": "O" 
			},
			{
				"x": 0.5666553403,
				"y": -4.009240278,
				"z": -2.0561457893,
				"element": "O" 
			},
			{
				"x": 1.3467193608,
				"y": -1.6269544339,
				"z": 2.8711487805,
				"element": "H" 
			},
			{
				"x": 2.825947453,
				"y": -0.7120251005,
				"z": 2.5623884705,
				"element": "H" 
			},
			{
				"x": 2.7259783535,
				"y": -2.4219261722,
				"z": 2.1125140115,
				"element": "H" 
			},
			{
				"x": 1.2468679621,
				"y": -3.1279975526,
				"z": 0.1519942462,
				"element": "H" 
			},
			{
				"x": 0.3194219017,
				"y": -0.0615966368,
				"z": -2.7278869775,
				"element": "H" 
			},
			{
				"x": 1.9426443796,
				"y": 1.0000841162,
				"z": 1.0844496498,
				"element": "H" 
			},
			{
				"x": 0.9756783913,
				"y": 2.6283568405,
				"z": 0.4919865999,
				"element": "H" 
			},
			{
				"x": -0.7648607854,
				"y": -1.6090509142,
				"z": -3.3098623597,
				"element": "H" 
			}
		],
		 "valence_orbital": [ 
			{
				"type": "occ",
				"energy": -0.32432,
				"method": "rhf"
			},
			{
				"type": "occ",
				"energy": -0.29136,
				"method": "rhf"
			},
			{
				"type": "occ",
				"energy": -0.29006,
				"method": "rhf"
			},
			{
				"type": "occ",
				"energy": -0.28004,
				"method": "rhf"
			},
			{
				"type": "occ",
				"energy": -0.27586,
				"method": "rhf"
			},
			{
				"type": "unocc",
				"energy": -0.07435,
				"method": "rhf"
			},
			{
				"type": "unocc",
				"energy": -0.05762,
				"method": "rhf"
			},
			{
				"type": "unocc",
				"energy": 0.01123,
				"method": "rhf"
			},
			{
				"type": "unocc",
				"energy": 0.04261,
				"method": "rhf"
			},
			{
				"type": "unocc",
				"energy": 0.05566,
				"method": "rhf"
			}
		],
		"cosmo_sigma_profile": { 
			"-0.025": 0.0,
			"-0.024": 0.0,
			"-0.023": 0.0,
			"-0.022": 0.0,
			"-0.021": 0.0,
			"-0.02": 0.0497638301339,
			"-0.019": 1.22468863694,
			"-0.018": 2.19744687107,
			"-0.017": 1.88655600959,
			"-0.016": 1.21825141825,
			"-0.015": 2.25864918515,
			"-0.014": 1.64778130126,
			"-0.013": 2.85307771993,
			"-0.012": 2.64174111475,
			"-0.011": 1.53795621691,
			"-0.01": 2.07997644705,
			"-0.009": 2.49082236071,
			"-0.008": 2.98455634643,
			"-0.007": 3.9782880146,
			"-0.006": 6.24142621434,
			"-0.005": 11.6411342603,
			"-0.004": 12.2227109475,
			"-0.003": 14.4743130219,
			"-0.002": 15.9304125694,
			"-0.001": 17.2563480983,
			"0.0": 12.6513772244,
			"0.001": 15.6430554247,
			"0.002": 9.32868933033,
			"0.003": 4.41560771558,
			"0.004": 4.16486141651,
			"0.005": 4.56786095595,
			"0.006": 4.04151837175,
			"0.007": 5.0083537327,
			"0.008": 5.56034542521,
			"0.009": 7.53911794533,
			"0.01": 9.60409272957,
			"0.011": 10.3806009407,
			"0.012": 7.45951152047,
			"0.013": 1.99207078219,
			"0.014": 0.0,
			"0.015": 0.0,
			"0.016": 0.0,
			"0.017": 0.0,
			"0.018": 0.0,
			"0.019": 0.0,
			"0.02": 0.0,
			"0.021": 0.0,
			"0.022": 0.0,
			"0.023": 0.0,
			"0.024": 0.0,
			"0.025": 0.0
		}
	}
}
