{
	 "smiles": "OC1=CC2=C(NC(=O)OC2=O)C=C1", 
	 "Tm": 495.15, 
	 "num_atms": 18, 
	 "gaussian": { 
		 "optdone": 1, 
		 "sigma_profile": "yes", 
		 "theory": "DFT", 
		 "functional": "B3LYP", 
		 "basiset": "6-31G**", 
		 "properties": { 
			 "R2extent": 2863.1583, 
			 "electric_dipole_moment_norm": 7.92421515988, 
			 "electric_quadrupole_moment_norm": 7.88649059341, 
			 "total_energy": -663.538076925, 
			 "HOMO_LUMO_gap": 0.16137, 
			 "cosmo_polarized_energy": -22.43, 
			 "cosmo_cavitation_energy": 23.59, 
			 "cosmo_dispersion_energy": -17.86, 
			 "cosmo_repulsion_energy": 1.39, 
			 "cosmo_total_nonelectrostatic_energy": 7.12, 
			 "SMD_solvation_energy": 6.51 
		},
		"coords": [
			{
				"x": 0.3031894135,
				"y": 4.5504048194,
				"z": 0.9386762602,
				"element": "O" 
			},
			{
				"x": 0.2914435537,
				"y": 3.2075946629,
				"z": 0.7008618311,
				"element": "C" 
			},
			{
				"x": 0.4853539773,
				"y": 2.7797041523,
				"z": -0.6103114984,
				"element": "C" 
			},
			{
				"x": 0.4814135985,
				"y": 1.4127988236,
				"z": -0.902727538,
				"element": "C" 
			},
			{
				"x": 0.2838851984,
				"y": 0.4636987309,
				"z": 0.1116426757,
				"element": "C" 
			},
			{
				"x": 0.2887921073,
				"y": -0.8854924498,
				"z": -0.232677448,
				"element": "N" 
			},
			{
				"x": 0.4737529064,
				"y": -1.3770765463,
				"z": -1.5044505797,
				"element": "C" 
			},
			{
				"x": 0.4745617296,
				"y": -2.5499853261,
				"z": -1.7802929882,
				"element": "O" 
			},
			{
				"x": 0.6656871747,
				"y": -0.4260253032,
				"z": -2.4825762403,
				"element": "O" 
			},
			{
				"x": 0.6859323322,
				"y": 0.9569384697,
				"z": -2.2862530456,
				"element": "C" 
			},
			{
				"x": 0.8653691761,
				"y": 1.6601356294,
				"z": -3.2458849738,
				"element": "O" 
			},
			{
				"x": 0.0893795014,
				"y": 0.8947777268,
				"z": 1.4275982973,
				"element": "C" 
			},
			{
				"x": 0.0939212843,
				"y": 2.2560794299,
				"z": 1.7149514017,
				"element": "C" 
			},
			{
				"x": 0.1586780483,
				"y": 4.716633933,
				"z": 1.8789968247,
				"element": "H" 
			},
			{
				"x": 0.6396862211,
				"y": 3.4961051278,
				"z": -1.4087052322,
				"element": "H" 
			},
			{
				"x": 0.1495172381,
				"y": -1.5936337139,
				"z": 0.4739118021,
				"element": "H" 
			},
			{
				"x": -0.0647563703,
				"y": 0.1717932923,
				"z": 2.2232026346,
				"element": "H" 
			},
			{
				"x": -0.0581070904,
				"y": 2.5832485411,
				"z": 2.7410378169,
				"element": "H" 
			}
		],
		 "valence_orbital": [ 
			{
				"type": "occ",
				"energy": -0.31372,
				"method": "rhf"
			},
			{
				"type": "occ",
				"energy": -0.3109,
				"method": "rhf"
			},
			{
				"type": "occ",
				"energy": -0.28737,
				"method": "rhf"
			},
			{
				"type": "occ",
				"energy": -0.28374,
				"method": "rhf"
			},
			{
				"type": "occ",
				"energy": -0.23137,
				"method": "rhf"
			},
			{
				"type": "unocc",
				"energy": -0.07,
				"method": "rhf"
			},
			{
				"type": "unocc",
				"energy": -0.02169,
				"method": "rhf"
			},
			{
				"type": "unocc",
				"energy": 0.015,
				"method": "rhf"
			},
			{
				"type": "unocc",
				"energy": 0.04919,
				"method": "rhf"
			},
			{
				"type": "unocc",
				"energy": 0.06085,
				"method": "rhf"
			}
		],
		"cosmo_sigma_profile": { 
			"-0.025": 0.0,
			"-0.024": 0.0,
			"-0.023": 0.0,
			"-0.022": 0.0,
			"-0.021": 0.0,
			"-0.02": 0.0,
			"-0.019": 0.142174702621,
			"-0.018": 1.17155977015,
			"-0.017": 2.24715049165,
			"-0.016": 2.49901914736,
			"-0.015": 2.62319455715,
			"-0.014": 2.46503214687,
			"-0.013": 2.03927605638,
			"-0.012": 1.56972323272,
			"-0.011": 2.06438272281,
			"-0.01": 2.58182565872,
			"-0.009": 3.79109918244,
			"-0.008": 6.07463183423,
			"-0.007": 7.24466650559,
			"-0.006": 7.50683580708,
			"-0.005": 6.48783324984,
			"-0.004": 7.96555659391,
			"-0.003": 8.62215135319,
			"-0.002": 8.31118545657,
			"-0.001": 9.74567337116,
			"0.0": 10.9936581459,
			"0.001": 14.7465881343,
			"0.002": 14.4123749858,
			"0.003": 6.64854297444,
			"0.004": 4.41880477902,
			"0.005": 4.58335904907,
			"0.006": 4.75628406522,
			"0.007": 4.54485953042,
			"0.008": 7.04471715606,
			"0.009": 7.14816951617,
			"0.01": 9.17793291547,
			"0.011": 10.9566229124,
			"0.012": 4.88038986045,
			"0.013": 0.373483716826,
			"0.014": 0.0,
			"0.015": 0.0,
			"0.016": 0.0,
			"0.017": 0.0,
			"0.018": 0.0,
			"0.019": 0.0,
			"0.02": 0.0,
			"0.021": 0.0,
			"0.022": 0.0,
			"0.023": 0.0,
			"0.024": 0.0,
			"0.025": 0.0
		}
	}
}
