{
	 "smiles": "CCNC(=O)CSP(=S)(OC)OC", 
	 "Tm": 339.15, 
	 "num_atms": 27, 
	 "gaussian": { 
		 "optdone": 1, 
		 "sigma_profile": "yes", 
		 "theory": "DFT", 
		 "functional": "B3LYP", 
		 "basiset": "6-31G**", 
		 "properties": { 
			 "R2extent": 5246.9556, 
			 "electric_dipole_moment_norm": 2.42440026605, 
			 "electric_quadrupole_moment_norm": 28.4228341641, 
			 "total_energy": -1655.28986191, 
			 "HOMO_LUMO_gap": 0.22213, 
			 "cosmo_polarized_energy": -16.52, 
			 "cosmo_cavitation_energy": 34.96, 
			 "cosmo_dispersion_energy": -23.99, 
			 "cosmo_repulsion_energy": 1.83, 
			 "cosmo_total_nonelectrostatic_energy": 12.8, 
			 "SMD_solvation_energy": 7.25 
		},
		"coords": [
			{
				"x": -0.0458063876,
				"y": -2.9161786799,
				"z": -0.0736812871,
				"element": "C" 
			},
			{
				"x": 1.0802103833,
				"y": -2.2206709811,
				"z": -0.8454829146,
				"element": "C" 
			},
			{
				"x": 0.7245658941,
				"y": -1.895290009,
				"z": -2.2226699837,
				"element": "N" 
			},
			{
				"x": 0.236410735,
				"y": -0.7292030315,
				"z": -2.739387509,
				"element": "C" 
			},
			{
				"x": -0.1431950599,
				"y": -0.644117167,
				"z": -3.9004973866,
				"element": "O" 
			},
			{
				"x": 0.1931015747,
				"y": 0.4977835343,
				"z": -1.8234611931,
				"element": "C" 
			},
			{
				"x": 1.8398992532,
				"y": 1.3439827369,
				"z": -1.8258002578,
				"element": "S" 
			},
			{
				"x": 2.0372039991,
				"y": 2.087645959,
				"z": 0.1628013247,
				"element": "P" 
			},
			{
				"x": 0.9430171176,
				"y": 1.2104242144,
				"z": 1.5175187898,
				"element": "S" 
			},
			{
				"x": 3.6400635749,
				"y": 2.0729582912,
				"z": 0.3487226688,
				"element": "O" 
			},
			{
				"x": 4.3236712444,
				"y": 0.8570521344,
				"z": 0.6996500661,
				"element": "C" 
			},
			{
				"x": 1.9193738983,
				"y": 3.6950207664,
				"z": 0.0605884342,
				"element": "O" 
			},
			{
				"x": 0.6420144843,
				"y": 4.3114836756,
				"z": -0.1687641802,
				"element": "C" 
			},
			{
				"x": -0.9256577361,
				"y": -2.2699351752,
				"z": 0.0025122213,
				"element": "H" 
			},
			{
				"x": -0.3495396419,
				"y": -3.8441196625,
				"z": -0.5696959319,
				"element": "H" 
			},
			{
				"x": 0.2836365931,
				"y": -3.1642886374,
				"z": 0.9404856104,
				"element": "H" 
			},
			{
				"x": 1.3802980064,
				"y": -1.3058969531,
				"z": -0.3304190362,
				"element": "H" 
			},
			{
				"x": 1.9677888052,
				"y": -2.8637246018,
				"z": -0.8736526027,
				"element": "H" 
			},
			{
				"x": 0.6881497108,
				"y": -2.6561063901,
				"z": -2.8898553189,
				"element": "H" 
			},
			{
				"x": -0.5423341657,
				"y": 1.1779031339,
				"z": -2.2513316355,
				"element": "H" 
			},
			{
				"x": -0.0701179092,
				"y": 0.2663979567,
				"z": -0.7883088241,
				"element": "H" 
			},
			{
				"x": 4.2281756657,
				"y": 0.1163373973,
				"z": -0.1004814166,
				"element": "H" 
			},
			{
				"x": 5.3716647519,
				"y": 1.1316638926,
				"z": 0.8221937322,
				"element": "H" 
			},
			{
				"x": 3.9305154194,
				"y": 0.4508987506,
				"z": 1.6353667475,
				"element": "H" 
			},
			{
				"x": 0.2603284586,
				"y": 4.047793244,
				"z": -1.1609234265,
				"element": "H" 
			},
			{
				"x": 0.8161725564,
				"y": 5.3866352733,
				"z": -0.1208416582,
				"element": "H" 
			},
			{
				"x": -0.0753112261,
				"y": 4.015650328,
				"z": 0.6021149676,
				"element": "H" 
			}
		],
		 "valence_orbital": [ 
			{
				"type": "occ",
				"energy": -0.27672,
				"method": "rhf"
			},
			{
				"type": "occ",
				"energy": -0.2582,
				"method": "rhf"
			},
			{
				"type": "occ",
				"energy": -0.25626,
				"method": "rhf"
			},
			{
				"type": "occ",
				"energy": -0.25315,
				"method": "rhf"
			},
			{
				"type": "occ",
				"energy": -0.24453,
				"method": "rhf"
			},
			{
				"type": "unocc",
				"energy": -0.0224,
				"method": "rhf"
			},
			{
				"type": "unocc",
				"energy": -0.0139,
				"method": "rhf"
			},
			{
				"type": "unocc",
				"energy": 0.02055,
				"method": "rhf"
			},
			{
				"type": "unocc",
				"energy": 0.04567,
				"method": "rhf"
			},
			{
				"type": "unocc",
				"energy": 0.05834,
				"method": "rhf"
			}
		],
		"cosmo_sigma_profile": { 
			"-0.025": 0.0,
			"-0.024": 0.0,
			"-0.023": 0.0,
			"-0.022": 0.0,
			"-0.021": 0.0,
			"-0.02": 0.0,
			"-0.019": 0.0,
			"-0.018": 0.0,
			"-0.017": 0.0,
			"-0.016": 0.0,
			"-0.015": 0.0,
			"-0.014": 0.307544619259,
			"-0.013": 0.981656505969,
			"-0.012": 1.33942263432,
			"-0.011": 1.19967725037,
			"-0.01": 0.862279277264,
			"-0.009": 0.685892345486,
			"-0.008": 2.1409837257,
			"-0.007": 7.9542488923,
			"-0.006": 16.224996845,
			"-0.005": 23.4905266138,
			"-0.004": 31.4516214993,
			"-0.003": 22.4403161906,
			"-0.002": 19.0106638405,
			"-0.001": 16.8353087298,
			"0.0": 19.6596445969,
			"0.001": 18.1170633495,
			"0.002": 14.7037619774,
			"0.003": 13.0730140726,
			"0.004": 13.6419326251,
			"0.005": 10.1972414241,
			"0.006": 8.06241029838,
			"0.007": 8.60913946395,
			"0.008": 5.82523131767,
			"0.009": 4.45058122383,
			"0.01": 3.52191768253,
			"0.011": 1.88522435812,
			"0.012": 2.0077897718,
			"0.013": 4.8301421771,
			"0.014": 4.42392503615,
			"0.015": 0.505699170067,
			"0.016": 0.0,
			"0.017": 0.0,
			"0.018": 0.0,
			"0.019": 0.0,
			"0.02": 0.0,
			"0.021": 0.0,
			"0.022": 0.0,
			"0.023": 0.0,
			"0.024": 0.0,
			"0.025": 0.0
		}
	}
}
