{
	 "smiles": "CC(C)C1CCC(C)CC1=NNC(N)=O", 
	 "Tm": 489.15, 
	 "num_atms": 36, 
	 "gaussian": { 
		 "optdone": 1, 
		 "sigma_profile": "yes", 
		 "theory": "DFT", 
		 "functional": "B3LYP", 
		 "basiset": "6-31G**", 
		 "properties": { 
			 "R2extent": 4479.3048, 
			 "electric_dipole_moment_norm": 5.17681053449, 
			 "electric_quadrupole_moment_norm": 23.4588802299, 
			 "total_energy": -671.31213626, 
			 "HOMO_LUMO_gap": 0.22575, 
			 "cosmo_polarized_energy": -20.87, 
			 "cosmo_cavitation_energy": 35.83, 
			 "cosmo_dispersion_energy": -25.06, 
			 "cosmo_repulsion_energy": 2.0, 
			 "cosmo_total_nonelectrostatic_energy": 12.77, 
			 "SMD_solvation_energy": 6.07 
		},
		"coords": [
			{
				"x": -1.6273654334,
				"y": 2.6971879358,
				"z": 0.7683421564,
				"element": "C" 
			},
			{
				"x": -2.2855144783,
				"y": 1.3817617513,
				"z": 0.3259318629,
				"element": "C" 
			},
			{
				"x": -3.6419879065,
				"y": 1.2015831171,
				"z": 1.0284630367,
				"element": "C" 
			},
			{
				"x": -1.3917177571,
				"y": 0.1027680388,
				"z": 0.4857058912,
				"element": "C" 
			},
			{
				"x": -0.8512038965,
				"y": -0.1637614732,
				"z": 1.9192134024,
				"element": "C" 
			},
			{
				"x": 0.5279030233,
				"y": 0.4334969086,
				"z": 2.2384464528,
				"element": "C" 
			},
			{
				"x": 1.5774522479,
				"y": 0.0359790412,
				"z": 1.1908537949,
				"element": "C" 
			},
			{
				"x": 2.9688013445,
				"y": 0.5790564851,
				"z": 1.5317806673,
				"element": "C" 
			},
			{
				"x": 1.109467704,
				"y": 0.519322803,
				"z": -0.1939598362,
				"element": "C" 
			},
			{
				"x": -0.2778504104,
				"y": 0.0348212506,
				"z": -0.5566454406,
				"element": "C" 
			},
			{
				"x": -0.4057816137,
				"y": -0.4141589176,
				"z": -1.7559090769,
				"element": "N" 
			},
			{
				"x": -1.6214277849,
				"y": -0.8684722369,
				"z": -2.1836997595,
				"element": "N" 
			},
			{
				"x": -1.7713797806,
				"y": -1.2283194083,
				"z": -3.5259328067,
				"element": "C" 
			},
			{
				"x": -3.0832331137,
				"y": -1.6205742222,
				"z": -3.8035229979,
				"element": "N" 
			},
			{
				"x": -0.8943658573,
				"y": -1.1830010107,
				"z": -4.3635790183,
				"element": "O" 
			},
			{
				"x": -0.6832640372,
				"y": 2.8825149812,
				"z": 0.2492935178,
				"element": "H" 
			},
			{
				"x": -1.432080076,
				"y": 2.7073498427,
				"z": 1.8458682645,
				"element": "H" 
			},
			{
				"x": -2.2923900634,
				"y": 3.5399180952,
				"z": 0.5508063221,
				"element": "H" 
			},
			{
				"x": -2.4900459787,
				"y": 1.4771033034,
				"z": -0.7503463989,
				"element": "H" 
			},
			{
				"x": -3.5295381266,
				"y": 1.1271772556,
				"z": 2.1156507007,
				"element": "H" 
			},
			{
				"x": -4.1592806229,
				"y": 0.2974977809,
				"z": 0.6866357406,
				"element": "H" 
			},
			{
				"x": -4.297023515,
				"y": 2.0556798047,
				"z": 0.8270926663,
				"element": "H" 
			},
			{
				"x": -2.0685274471,
				"y": -0.7381676112,
				"z": 0.2752583764,
				"element": "H" 
			},
			{
				"x": -1.5874985043,
				"y": 0.1725876799,
				"z": 2.6577508057,
				"element": "H" 
			},
			{
				"x": -0.7775361243,
				"y": -1.2514754806,
				"z": 2.0464375878,
				"element": "H" 
			},
			{
				"x": 0.4773176806,
				"y": 1.528629999,
				"z": 2.2910565963,
				"element": "H" 
			},
			{
				"x": 0.8400255744,
				"y": 0.0917345446,
				"z": 3.2335883895,
				"element": "H" 
			},
			{
				"x": 1.632897553,
				"y": -1.0631141411,
				"z": 1.1648444336,
				"element": "H" 
			},
			{
				"x": 3.7086821167,
				"y": 0.2758653912,
				"z": 0.7832903143,
				"element": "H" 
			},
			{
				"x": 3.30886188,
				"y": 0.2145374969,
				"z": 2.5073251597,
				"element": "H" 
			},
			{
				"x": 2.9638353204,
				"y": 1.6753525597,
				"z": 1.5690448436,
				"element": "H" 
			},
			{
				"x": 1.794083599,
				"y": 0.201432306,
				"z": -0.9854500604,
				"element": "H" 
			},
			{
				"x": 1.1225602529,
				"y": 1.6206544745,
				"z": -0.1876226863,
				"element": "H" 
			},
			{
				"x": -2.4643926722,
				"y": -0.6470513604,
				"z": -1.6654094983,
				"element": "H" 
			},
			{
				"x": -3.5725020649,
				"y": -2.1388485122,
				"z": -3.0854345565,
				"element": "H" 
			},
			{
				"x": -3.1583810318,
				"y": -2.0369684727,
				"z": -4.7213688466,
				"element": "H" 
			}
		],
		 "valence_orbital": [ 
			{
				"type": "occ",
				"energy": -0.31043,
				"method": "rhf"
			},
			{
				"type": "occ",
				"energy": -0.27453,
				"method": "rhf"
			},
			{
				"type": "occ",
				"energy": -0.25987,
				"method": "rhf"
			},
			{
				"type": "occ",
				"energy": -0.24867,
				"method": "rhf"
			},
			{
				"type": "occ",
				"energy": -0.22347,
				"method": "rhf"
			},
			{
				"type": "unocc",
				"energy": 0.00228,
				"method": "rhf"
			},
			{
				"type": "unocc",
				"energy": 0.04918,
				"method": "rhf"
			},
			{
				"type": "unocc",
				"energy": 0.06139,
				"method": "rhf"
			},
			{
				"type": "unocc",
				"energy": 0.0761,
				"method": "rhf"
			},
			{
				"type": "unocc",
				"energy": 0.09774,
				"method": "rhf"
			}
		],
		"cosmo_sigma_profile": { 
			"-0.025": 0.0,
			"-0.024": 0.0,
			"-0.023": 0.0,
			"-0.022": 0.0,
			"-0.021": 0.0,
			"-0.02": 0.0,
			"-0.019": 0.0,
			"-0.018": 0.0,
			"-0.017": 0.0,
			"-0.016": 0.0,
			"-0.015": 0.306887302067,
			"-0.014": 2.39601642766,
			"-0.013": 2.27322764454,
			"-0.012": 4.14985289991,
			"-0.011": 3.30730598579,
			"-0.01": 2.93438121001,
			"-0.009": 2.99886579043,
			"-0.008": 3.53243827011,
			"-0.007": 2.91741570852,
			"-0.006": 2.85527886173,
			"-0.005": 3.50563983255,
			"-0.004": 7.47862938165,
			"-0.003": 25.4407178347,
			"-0.002": 44.2410163551,
			"-0.001": 40.2099849319,
			"0.0": 35.0267870125,
			"0.001": 31.6108520843,
			"0.002": 12.9775651128,
			"0.003": 4.56966694275,
			"0.004": 3.94244582275,
			"0.005": 3.55713335558,
			"0.006": 3.3184795701,
			"0.007": 2.55803876105,
			"0.008": 4.32511689036,
			"0.009": 1.77588468002,
			"0.01": 2.3677930994,
			"0.011": 2.29402017333,
			"0.012": 3.13535979288,
			"0.013": 4.36581802553,
			"0.014": 6.0092578353,
			"0.015": 1.80364567479,
			"0.016": 1.50741174178,
			"0.017": 1.23004928587,
			"0.018": 1.01699316364,
			"0.019": 0.765987631743,
			"0.02": 0.0357186268557,
			"0.021": 0.0,
			"0.022": 0.0,
			"0.023": 0.0,
			"0.024": 0.0,
			"0.025": 0.0
		}
	}
}
