{
	 "smiles": "OCCN(CCO)CCO", 
	 "Tm": 293.15, 
	 "num_atms": 25, 
	 "gaussian": { 
		 "optdone": 1, 
		 "sigma_profile": "yes", 
		 "theory": "DFT", 
		 "functional": "B3LYP", 
		 "basiset": "6-31G**", 
		 "properties": { 
			 "R2extent": 1988.246, 
			 "electric_dipole_moment_norm": 3.4053764344, 
			 "electric_quadrupole_moment_norm": 18.1546793916, 
			 "total_energy": -518.059350417, 
			 "HOMO_LUMO_gap": 0.25127, 
			 "cosmo_polarized_energy": -13.82, 
			 "cosmo_cavitation_energy": 25.26, 
			 "cosmo_dispersion_energy": -18.61, 
			 "cosmo_repulsion_energy": 1.52, 
			 "cosmo_total_nonelectrostatic_energy": 8.17, 
			 "SMD_solvation_energy": 4.04 
		},
		"coords": [
			{
				"x": 1.26653442,
				"y": 0.337150275,
				"z": -1.5900295295,
				"element": "O" 
			},
			{
				"x": 1.7587718631,
				"y": 0.5497023213,
				"z": -0.2803521028,
				"element": "C" 
			},
			{
				"x": 0.857553281,
				"y": 1.4593999991,
				"z": 0.5692318034,
				"element": "C" 
			},
			{
				"x": -0.4211514292,
				"y": 0.9295574495,
				"z": 1.0546871256,
				"element": "N" 
			},
			{
				"x": -1.4916486681,
				"y": 0.7422619646,
				"z": 0.0711731724,
				"element": "C" 
			},
			{
				"x": -1.872581059,
				"y": -0.6933238783,
				"z": -0.3066548489,
				"element": "C" 
			},
			{
				"x": -0.7348615436,
				"y": -1.3929305544,
				"z": -0.8145265831,
				"element": "O" 
			},
			{
				"x": -0.3643747515,
				"y": -0.0199525907,
				"z": 2.1644978277,
				"element": "C" 
			},
			{
				"x": -1.5305114331,
				"y": 0.2278266822,
				"z": 3.1335565828,
				"element": "C" 
			},
			{
				"x": -1.5921096496,
				"y": 1.5918082579,
				"z": 3.4953906613,
				"element": "O" 
			},
			{
				"x": 0.5805094254,
				"y": -0.3479540277,
				"z": -1.5221894951,
				"element": "H" 
			},
			{
				"x": 2.7319898943,
				"y": 1.0479936127,
				"z": -0.3823410905,
				"element": "H" 
			},
			{
				"x": 1.9375555787,
				"y": -0.4014051744,
				"z": 0.2462016636,
				"element": "H" 
			},
			{
				"x": 0.6477489782,
				"y": 2.3597252388,
				"z": -0.0217883062,
				"element": "H" 
			},
			{
				"x": 1.4253641827,
				"y": 1.7858312603,
				"z": 1.4507253452,
				"element": "H" 
			},
			{
				"x": -1.2071146621,
				"y": 1.2797460574,
				"z": -0.836985822,
				"element": "H" 
			},
			{
				"x": -2.4253282559,
				"y": 1.200918612,
				"z": 0.4350970063,
				"element": "H" 
			},
			{
				"x": -2.671765314,
				"y": -0.6384912691,
				"z": -1.0605138723,
				"element": "H" 
			},
			{
				"x": -2.2774591492,
				"y": -1.2246024645,
				"z": 0.5653600044,
				"element": "H" 
			},
			{
				"x": -1.0033825375,
				"y": -2.2735908064,
				"z": -1.1025011493,
				"element": "H" 
			},
			{
				"x": -0.3448078726,
				"y": -1.0741610793,
				"z": 1.8442179787,
				"element": "H" 
			},
			{
				"x": 0.569766871,
				"y": 0.1675432604,
				"z": 2.7037798185,
				"element": "H" 
			},
			{
				"x": -2.4811558821,
				"y": -0.1066148547,
				"z": 2.6810921647,
				"element": "H" 
			},
			{
				"x": -1.386503932,
				"y": -0.3646322809,
				"z": 4.0446948007,
				"element": "H" 
			},
			{
				"x": -1.3020383548,
				"y": 2.0589939894,
				"z": 2.6921768446,
				"element": "H" 
			}
		],
		 "valence_orbital": [ 
			{
				"type": "occ",
				"energy": -0.30849,
				"method": "rhf"
			},
			{
				"type": "occ",
				"energy": -0.29526,
				"method": "rhf"
			},
			{
				"type": "occ",
				"energy": -0.25931,
				"method": "rhf"
			},
			{
				"type": "occ",
				"energy": -0.25289,
				"method": "rhf"
			},
			{
				"type": "occ",
				"energy": -0.20566,
				"method": "rhf"
			},
			{
				"type": "unocc",
				"energy": 0.04561,
				"method": "rhf"
			},
			{
				"type": "unocc",
				"energy": 0.08358,
				"method": "rhf"
			},
			{
				"type": "unocc",
				"energy": 0.09617,
				"method": "rhf"
			},
			{
				"type": "unocc",
				"energy": 0.11272,
				"method": "rhf"
			},
			{
				"type": "unocc",
				"energy": 0.11682,
				"method": "rhf"
			}
		],
		"cosmo_sigma_profile": { 
			"-0.025": 0.0,
			"-0.024": 0.0,
			"-0.023": 0.0,
			"-0.022": 0.0,
			"-0.021": 0.0,
			"-0.02": 0.0,
			"-0.019": 0.0,
			"-0.018": 0.0,
			"-0.017": 0.325823780681,
			"-0.016": 1.49027541482,
			"-0.015": 0.574586801299,
			"-0.014": 1.26144501453,
			"-0.013": 1.06224984578,
			"-0.012": 1.1865831251,
			"-0.011": 0.544501671288,
			"-0.01": 0.286888115142,
			"-0.009": 0.840070729211,
			"-0.008": 2.11457133022,
			"-0.007": 1.38003487433,
			"-0.006": 1.81538397345,
			"-0.005": 4.27164798498,
			"-0.004": 22.9100998688,
			"-0.003": 33.1618093942,
			"-0.002": 26.9091432755,
			"-0.001": 20.2741540274,
			"0.0": 13.2586522491,
			"0.001": 8.87172559434,
			"0.002": 7.68591754602,
			"0.003": 5.34391925338,
			"0.004": 3.45829196611,
			"0.005": 2.95428122383,
			"0.006": 4.38364239227,
			"0.007": 2.96075511433,
			"0.008": 2.49438420775,
			"0.009": 2.1858026491,
			"0.01": 2.91865290527,
			"0.011": 1.86336276479,
			"0.012": 2.37220178128,
			"0.013": 3.20024149912,
			"0.014": 3.17456080686,
			"0.015": 4.65438102378,
			"0.016": 2.02618272001,
			"0.017": 0.0,
			"0.018": 0.0,
			"0.019": 0.0,
			"0.02": 0.0,
			"0.021": 0.0,
			"0.022": 0.0,
			"0.023": 0.0,
			"0.024": 0.0,
			"0.025": 0.0
		}
	}
}
