{
	 "smiles": "NS(=O)(=O)C1=CC(C#N)=C(F)C=C1", 
	 "Tm": 416.15, 
	 "num_atms": 18, 
	 "gaussian": { 
		 "optdone": 1, 
		 "sigma_profile": "yes", 
		 "theory": "DFT", 
		 "functional": "B3LYP", 
		 "basiset": "6-31G**", 
		 "properties": { 
			 "R2extent": 3613.7662, 
			 "electric_dipole_moment_norm": 4.9146794514, 
			 "electric_quadrupole_moment_norm": 25.3801162661, 
			 "total_energy": -1027.63766775, 
			 "HOMO_LUMO_gap": 0.20478, 
			 "cosmo_polarized_energy": -18.43, 
			 "cosmo_cavitation_energy": 26.16, 
			 "cosmo_dispersion_energy": -18.97, 
			 "cosmo_repulsion_energy": 1.44, 
			 "cosmo_total_nonelectrostatic_energy": 8.63, 
			 "SMD_solvation_energy": 6.04 
		},
		"coords": [
			{
				"x": -0.3516183798,
				"y": 1.6593674258,
				"z": 2.0984953366,
				"element": "N" 
			},
			{
				"x": -0.657473213,
				"y": 0.9768120162,
				"z": 0.5821711258,
				"element": "S" 
			},
			{
				"x": -2.0791041152,
				"y": 0.6313055992,
				"z": 0.5168925481,
				"element": "O" 
			},
			{
				"x": -0.0027778879,
				"y": 1.8394178509,
				"z": -0.4036368508,
				"element": "O" 
			},
			{
				"x": 0.2588169851,
				"y": -0.5660671614,
				"z": 0.6351817444,
				"element": "C" 
			},
			{
				"x": -0.3999090074,
				"y": -1.7322327374,
				"z": 1.0099650708,
				"element": "C" 
			},
			{
				"x": 0.3129590548,
				"y": -2.9409646915,
				"z": 1.0537051959,
				"element": "C" 
			},
			{
				"x": -0.3241144554,
				"y": -4.1639115969,
				"z": 1.435475917,
				"element": "C" 
			},
			{
				"x": -0.8522122019,
				"y": -5.1501840783,
				"z": 1.7511141278,
				"element": "N" 
			},
			{
				"x": 1.673210754,
				"y": -2.930913078,
				"z": 0.7081251733,
				"element": "C" 
			},
			{
				"x": 2.3541599336,
				"y": -4.0801533245,
				"z": 0.7476690093,
				"element": "F" 
			},
			{
				"x": 2.3258834913,
				"y": -1.7668097113,
				"z": 0.320008268,
				"element": "C" 
			},
			{
				"x": 1.6114838386,
				"y": -0.572647426,
				"z": 0.2811447191,
				"element": "C" 
			},
			{
				"x": 0.0284805002,
				"y": 2.5941365946,
				"z": 1.9740030633,
				"element": "H" 
			},
			{
				"x": -1.2033413897,
				"y": 1.6723331496,
				"z": 2.6536470169,
				"element": "H" 
			},
			{
				"x": -1.4564388843,
				"y": -1.7132655247,
				"z": 1.2508426041,
				"element": "H" 
			},
			{
				"x": 3.3745410083,
				"y": -1.8139418504,
				"z": 0.0494144191,
				"element": "H" 
			},
			{
				"x": 2.0900539687,
				"y": 0.3468185442,
				"z": -0.0370184887,
				"element": "H" 
			}
		],
		 "valence_orbital": [ 
			{
				"type": "occ",
				"energy": -0.3346,
				"method": "rhf"
			},
			{
				"type": "occ",
				"energy": -0.32417,
				"method": "rhf"
			},
			{
				"type": "occ",
				"energy": -0.31815,
				"method": "rhf"
			},
			{
				"type": "occ",
				"energy": -0.29675,
				"method": "rhf"
			},
			{
				"type": "occ",
				"energy": -0.28203,
				"method": "rhf"
			},
			{
				"type": "unocc",
				"energy": -0.07725,
				"method": "rhf"
			},
			{
				"type": "unocc",
				"energy": -0.05726,
				"method": "rhf"
			},
			{
				"type": "unocc",
				"energy": 0.01558,
				"method": "rhf"
			},
			{
				"type": "unocc",
				"energy": 0.03268,
				"method": "rhf"
			},
			{
				"type": "unocc",
				"energy": 0.03975,
				"method": "rhf"
			}
		],
		"cosmo_sigma_profile": { 
			"-0.025": 0.0,
			"-0.024": 0.0,
			"-0.023": 0.0,
			"-0.022": 0.0,
			"-0.021": 0.0,
			"-0.02": 0.0,
			"-0.019": 0.0,
			"-0.018": 0.0,
			"-0.017": 0.0,
			"-0.016": 0.140952600347,
			"-0.015": 1.89858760077,
			"-0.014": 2.57792182995,
			"-0.013": 2.52955997338,
			"-0.012": 2.61034442388,
			"-0.011": 1.83589860617,
			"-0.01": 3.01341361285,
			"-0.009": 7.17416277289,
			"-0.008": 7.16771851872,
			"-0.007": 7.09892802553,
			"-0.006": 6.83816179996,
			"-0.005": 8.94471853981,
			"-0.004": 10.5245532335,
			"-0.003": 17.2430127509,
			"-0.002": 15.4446113789,
			"-0.001": 14.272089162,
			"0.0": 9.76490154668,
			"0.001": 8.5624858631,
			"0.002": 12.8104697529,
			"0.003": 7.96175575588,
			"0.004": 5.17650313389,
			"0.005": 6.26047526858,
			"0.006": 6.17992032168,
			"0.007": 7.19274740769,
			"0.008": 6.16549941237,
			"0.009": 7.97164551518,
			"0.01": 11.968803634,
			"0.011": 9.96876920533,
			"0.012": 2.12000152286,
			"0.013": 0.159894170278,
			"0.014": 0.0,
			"0.015": 0.0,
			"0.016": 0.0,
			"0.017": 0.0,
			"0.018": 0.0,
			"0.019": 0.0,
			"0.02": 0.0,
			"0.021": 0.0,
			"0.022": 0.0,
			"0.023": 0.0,
			"0.024": 0.0,
			"0.025": 0.0
		}
	}
}
