{
	 "smiles": "O=CC1=C(OCC2=NC=CC=C2)C=CC=C1", 
	 "Tm": 347.15, 
	 "num_atms": 27, 
	 "gaussian": { 
		 "optdone": 1, 
		 "sigma_profile": "yes", 
		 "theory": "DFT", 
		 "functional": "B3LYP", 
		 "basiset": "6-31G**", 
		 "properties": { 
			 "R2extent": 4532.7116, 
			 "electric_dipole_moment_norm": 2.32664465056, 
			 "electric_quadrupole_moment_norm": 14.1986389186, 
			 "total_energy": -707.183431066, 
			 "HOMO_LUMO_gap": 0.17912, 
			 "cosmo_polarized_energy": -11.52, 
			 "cosmo_cavitation_energy": 31.55, 
			 "cosmo_dispersion_energy": -22.81, 
			 "cosmo_repulsion_energy": 1.75, 
			 "cosmo_total_nonelectrostatic_energy": 10.49, 
			 "SMD_solvation_energy": 5.0 
		},
		"coords": [
			{
				"x": 2.1782751698,
				"y": -0.3929643018,
				"z": -0.2598114063,
				"element": "O" 
			},
			{
				"x": 1.8128145206,
				"y": 0.1294842353,
				"z": -1.2978746868,
				"element": "C" 
			},
			{
				"x": 0.4382523866,
				"y": 0.5265703792,
				"z": -1.665391962,
				"element": "C" 
			},
			{
				"x": -0.712609255,
				"y": 0.2556156754,
				"z": -0.884072923,
				"element": "C" 
			},
			{
				"x": -0.6572065692,
				"y": -0.4154791972,
				"z": 0.304145362,
				"element": "O" 
			},
			{
				"x": -0.2350285056,
				"y": 0.3474214429,
				"z": 1.4536493811,
				"element": "C" 
			},
			{
				"x": -0.0537254273,
				"y": -0.5991769968,
				"z": 2.6150453578,
				"element": "C" 
			},
			{
				"x": -0.633134736,
				"y": -0.2360503693,
				"z": 3.767731756,
				"element": "N" 
			},
			{
				"x": -0.4669395764,
				"y": -1.0400590703,
				"z": 4.8266396429,
				"element": "C" 
			},
			{
				"x": 0.2592850672,
				"y": -2.2292513185,
				"z": 4.7863819551,
				"element": "C" 
			},
			{
				"x": 0.856842056,
				"y": -2.5978141223,
				"z": 3.57955783,
				"element": "C" 
			},
			{
				"x": 0.7041878445,
				"y": -1.7683241512,
				"z": 2.4725417047,
				"element": "C" 
			},
			{
				"x": -1.9734099927,
				"y": 0.614757603,
				"z": -1.3689035405,
				"element": "C" 
			},
			{
				"x": -2.1084184363,
				"y": 1.2476788864,
				"z": -2.6041517979,
				"element": "C" 
			},
			{
				"x": -0.9808117896,
				"y": 1.5322359797,
				"z": -3.3793450472,
				"element": "C" 
			},
			{
				"x": 0.2740532182,
				"y": 1.1633093533,
				"z": -2.9084612054,
				"element": "C" 
			},
			{
				"x": 2.5548625827,
				"y": 0.3521498088,
				"z": -2.0977613793,
				"element": "H" 
			},
			{
				"x": 0.7098679604,
				"y": 0.8539924833,
				"z": 1.2276765126,
				"element": "H" 
			},
			{
				"x": -0.9964245693,
				"y": 1.0911140839,
				"z": 1.7122804632,
				"element": "H" 
			},
			{
				"x": -0.9456113078,
				"y": -0.7174371422,
				"z": 5.7498688518,
				"element": "H" 
			},
			{
				"x": 0.3529265694,
				"y": -2.8456296124,
				"z": 5.6751318407,
				"element": "H" 
			},
			{
				"x": 1.436337618,
				"y": -3.5138227629,
				"z": 3.5053525291,
				"element": "H" 
			},
			{
				"x": 1.1589348973,
				"y": -1.9941490368,
				"z": 1.5151679039,
				"element": "H" 
			},
			{
				"x": -2.8390968023,
				"y": 0.3799052225,
				"z": -0.7582307862,
				"element": "H" 
			},
			{
				"x": -3.0974823223,
				"y": 1.5202538675,
				"z": -2.9612212034,
				"element": "H" 
			},
			{
				"x": -1.0837348829,
				"y": 2.0251825023,
				"z": -4.3407258129,
				"element": "H" 
			},
			{
				"x": 1.1592942822,
				"y": 1.3604865582,
				"z": -3.50911934,
				"element": "H" 
			}
		],
		 "valence_orbital": [ 
			{
				"type": "occ",
				"energy": -0.27053,
				"method": "rhf"
			},
			{
				"type": "occ",
				"energy": -0.25712,
				"method": "rhf"
			},
			{
				"type": "occ",
				"energy": -0.25102,
				"method": "rhf"
			},
			{
				"type": "occ",
				"energy": -0.24952,
				"method": "rhf"
			},
			{
				"type": "occ",
				"energy": -0.24615,
				"method": "rhf"
			},
			{
				"type": "unocc",
				"energy": -0.06703,
				"method": "rhf"
			},
			{
				"type": "unocc",
				"energy": -0.01636,
				"method": "rhf"
			},
			{
				"type": "unocc",
				"energy": -0.01488,
				"method": "rhf"
			},
			{
				"type": "unocc",
				"energy": -0.0061,
				"method": "rhf"
			},
			{
				"type": "unocc",
				"energy": 0.03506,
				"method": "rhf"
			}
		],
		"cosmo_sigma_profile": { 
			"-0.025": 0.0,
			"-0.024": 0.0,
			"-0.023": 0.0,
			"-0.022": 0.0,
			"-0.021": 0.0,
			"-0.02": 0.0,
			"-0.019": 0.0,
			"-0.018": 0.0,
			"-0.017": 0.0,
			"-0.016": 0.0,
			"-0.015": 0.0,
			"-0.014": 0.0,
			"-0.013": 0.0,
			"-0.012": 0.0,
			"-0.011": 0.0,
			"-0.01": 0.0,
			"-0.009": 0.0281532247223,
			"-0.008": 1.66718112422,
			"-0.007": 10.3146412387,
			"-0.006": 18.760639314,
			"-0.005": 21.0457435981,
			"-0.004": 21.7173907088,
			"-0.003": 19.1751582684,
			"-0.002": 17.1142882345,
			"-0.001": 13.9050668929,
			"0.0": 14.8934494432,
			"0.001": 16.8323341447,
			"0.002": 23.7277753493,
			"0.003": 26.7804351467,
			"0.004": 10.5590878226,
			"0.005": 6.64259157311,
			"0.006": 5.43703195764,
			"0.007": 4.36031796313,
			"0.008": 5.03413510796,
			"0.009": 3.49786813938,
			"0.01": 3.20008510316,
			"0.011": 3.12708012342,
			"0.012": 2.39871231153,
			"0.013": 1.41196364228,
			"0.014": 0.835374151144,
			"0.015": 0.465189233982,
			"0.016": 0.492168307569,
			"0.017": 0.0,
			"0.018": 0.0,
			"0.019": 0.0,
			"0.02": 0.0,
			"0.021": 0.0,
			"0.022": 0.0,
			"0.023": 0.0,
			"0.024": 0.0,
			"0.025": 0.0
		}
	}
}
