{
	 "smiles": "ClC1=NC=NC2=C1C=CS2", 
	 "Tm": 378.15, 
	 "num_atms": 13, 
	 "gaussian": { 
		 "optdone": 1, 
		 "sigma_profile": "yes", 
		 "theory": "DFT", 
		 "functional": "B3LYP", 
		 "basiset": "6-31G**", 
		 "properties": { 
			 "R2extent": 2567.4477, 
			 "electric_dipole_moment_norm": 2.69059323013, 
			 "electric_quadrupole_moment_norm": 11.0810686087, 
			 "total_energy": -1198.31946224, 
			 "HOMO_LUMO_gap": 0.189, 
			 "cosmo_polarized_energy": -6.63, 
			 "cosmo_cavitation_energy": 21.06, 
			 "cosmo_dispersion_energy": -16.74, 
			 "cosmo_repulsion_energy": 1.28, 
			 "cosmo_total_nonelectrostatic_energy": 5.61, 
			 "SMD_solvation_energy": 0.25 
		},
		"coords": [
			{
				"x": 2.7090381982,
				"y": -0.5989910091,
				"z": 2.536955571,
				"element": "Cl" 
			},
			{
				"x": 1.7048364445,
				"y": -0.6694964602,
				"z": 1.0986912415,
				"element": "C" 
			},
			{
				"x": 2.0787471618,
				"y": 0.0471145476,
				"z": 0.0611707428,
				"element": "N" 
			},
			{
				"x": 1.3020497087,
				"y": -0.0127688041,
				"z": -1.0391330601,
				"element": "C" 
			},
			{
				"x": 0.187476101,
				"y": -0.7233280054,
				"z": -1.1945861142,
				"element": "N" 
			},
			{
				"x": -0.1617490087,
				"y": -1.4368677882,
				"z": -0.124850029,
				"element": "C" 
			},
			{
				"x": 0.5537401321,
				"y": -1.4738529982,
				"z": 1.0985570408,
				"element": "C" 
			},
			{
				"x": -0.0573415121,
				"y": -2.3290662188,
				"z": 2.0740557973,
				"element": "C" 
			},
			{
				"x": -1.1898028452,
				"y": -2.9111840378,
				"z": 1.5972714097,
				"element": "C" 
			},
			{
				"x": -1.5831426424,
				"y": -2.4627813893,
				"z": -0.0503573861,
				"element": "S" 
			},
			{
				"x": 1.6267537346,
				"y": 0.5857820099,
				"z": -1.8858437099,
				"element": "H" 
			},
			{
				"x": 0.3373301494,
				"y": -2.4900005753,
				"z": 3.0690263233,
				"element": "H" 
			},
			{
				"x": -1.8422356218,
				"y": -3.5969592712,
				"z": 2.1209421728,
				"element": "H" 
			}
		],
		 "valence_orbital": [ 
			{
				"type": "occ",
				"energy": -0.32099,
				"method": "rhf"
			},
			{
				"type": "occ",
				"energy": -0.31317,
				"method": "rhf"
			},
			{
				"type": "occ",
				"energy": -0.28281,
				"method": "rhf"
			},
			{
				"type": "occ",
				"energy": -0.27602,
				"method": "rhf"
			},
			{
				"type": "occ",
				"energy": -0.252,
				"method": "rhf"
			},
			{
				"type": "unocc",
				"energy": -0.063,
				"method": "rhf"
			},
			{
				"type": "unocc",
				"energy": -0.04512,
				"method": "rhf"
			},
			{
				"type": "unocc",
				"energy": -0.00316,
				"method": "rhf"
			},
			{
				"type": "unocc",
				"energy": 0.01465,
				"method": "rhf"
			},
			{
				"type": "unocc",
				"energy": 0.0339,
				"method": "rhf"
			}
		],
		"cosmo_sigma_profile": { 
			"-0.025": 0.0,
			"-0.024": 0.0,
			"-0.023": 0.0,
			"-0.022": 0.0,
			"-0.021": 0.0,
			"-0.02": 0.0,
			"-0.019": 0.0,
			"-0.018": 0.0,
			"-0.017": 0.0,
			"-0.016": 0.0,
			"-0.015": 0.0,
			"-0.014": 0.0,
			"-0.013": 0.0,
			"-0.012": 0.0,
			"-0.011": 0.0,
			"-0.01": 1.56792349372,
			"-0.009": 3.3689648904,
			"-0.008": 5.16882412481,
			"-0.007": 4.41181807545,
			"-0.006": 5.62391507065,
			"-0.005": 5.42394922506,
			"-0.004": 6.82107500322,
			"-0.003": 10.8944878784,
			"-0.002": 18.1368698045,
			"-0.001": 17.9936236653,
			"0.0": 19.9555468107,
			"0.001": 17.7490214293,
			"0.002": 17.7599669565,
			"0.003": 14.1384450937,
			"0.004": 6.55429157052,
			"0.005": 4.20327990914,
			"0.006": 2.39019519239,
			"0.007": 2.20082643387,
			"0.008": 2.62085681082,
			"0.009": 1.83978144513,
			"0.01": 1.58629370872,
			"0.011": 2.10254169298,
			"0.012": 1.49970869489,
			"0.013": 1.54214951853,
			"0.014": 0.254017361281,
			"0.015": 0.0,
			"0.016": 0.0,
			"0.017": 0.0,
			"0.018": 0.0,
			"0.019": 0.0,
			"0.02": 0.0,
			"0.021": 0.0,
			"0.022": 0.0,
			"0.023": 0.0,
			"0.024": 0.0,
			"0.025": 0.0
		}
	}
}
