{
	 "smiles": "CC1=CC(O)=CC(=O)N1CCC(O)=O", 
	 "Tm": 446.15, 
	 "num_atms": 25, 
	 "gaussian": { 
		 "optdone": 1, 
		 "sigma_profile": "yes", 
		 "theory": "DFT", 
		 "functional": "B3LYP", 
		 "basiset": "6-31G**", 
		 "properties": { 
			 "R2extent": 3774.3247, 
			 "electric_dipole_moment_norm": 5.63360132775, 
			 "electric_quadrupole_moment_norm": 20.673067828, 
			 "total_energy": -705.251534882, 
			 "HOMO_LUMO_gap": 0.18313, 
			 "cosmo_polarized_energy": -26.37, 
			 "cosmo_cavitation_energy": 29.17, 
			 "cosmo_dispersion_energy": -20.88, 
			 "cosmo_repulsion_energy": 1.65, 
			 "cosmo_total_nonelectrostatic_energy": 9.93, 
			 "SMD_solvation_energy": 7.01 
		},
		"coords": [
			{
				"x": -1.4404496074,
				"y": 2.2209803891,
				"z": -1.1892847085,
				"element": "C" 
			},
			{
				"x": -1.6225605753,
				"y": 1.3137236701,
				"z": -0.0007737348,
				"element": "C" 
			},
			{
				"x": -2.8582944703,
				"y": 0.8041734068,
				"z": 0.3058366961,
				"element": "C" 
			},
			{
				"x": -3.0162348645,
				"y": -0.0416333406,
				"z": 1.4405676424,
				"element": "C" 
			},
			{
				"x": -4.233337991,
				"y": -0.5511386463,
				"z": 1.7622907108,
				"element": "O" 
			},
			{
				"x": -1.9397548802,
				"y": -0.3601876052,
				"z": 2.2255414121,
				"element": "C" 
			},
			{
				"x": -0.628768481,
				"y": 0.1386691868,
				"z": 1.9281441427,
				"element": "C" 
			},
			{
				"x": 0.4001175746,
				"y": -0.1139126266,
				"z": 2.5607480739,
				"element": "O" 
			},
			{
				"x": -0.5392253379,
				"y": 1.002305504,
				"z": 0.78466264,
				"element": "N" 
			},
			{
				"x": 0.8074950672,
				"y": 1.5267854973,
				"z": 0.5199624627,
				"element": "C" 
			},
			{
				"x": 1.7358901354,
				"y": 0.4712217119,
				"z": -0.0921676982,
				"element": "C" 
			},
			{
				"x": 3.0266253149,
				"y": 1.0999095215,
				"z": -0.5981405317,
				"element": "C" 
			},
			{
				"x": 4.0531814845,
				"y": 0.2388655939,
				"z": -0.8163390134,
				"element": "O" 
			},
			{
				"x": 3.160491054,
				"y": 2.2756850567,
				"z": -0.8360450306,
				"element": "O" 
			},
			{
				"x": -1.1363851523,
				"y": 3.2293134882,
				"z": -0.8876538134,
				"element": "H" 
			},
			{
				"x": -0.6813855764,
				"y": 1.8449961129,
				"z": -1.8830262919,
				"element": "H" 
			},
			{
				"x": -2.3827129418,
				"y": 2.305194411,
				"z": -1.7333472335,
				"element": "H" 
			},
			{
				"x": -3.707503413,
				"y": 1.0549175101,
				"z": -0.320948206,
				"element": "H" 
			},
			{
				"x": -4.8923616267,
				"y": -0.2405758796,
				"z": 1.1279781634,
				"element": "H" 
			},
			{
				"x": -2.0440685047,
				"y": -1.0063241763,
				"z": 3.0873996984,
				"element": "H" 
			},
			{
				"x": 0.7517397735,
				"y": 2.3913743814,
				"z": -0.1362019847,
				"element": "H" 
			},
			{
				"x": 1.222353573,
				"y": 1.8487216248,
				"z": 1.4765323753,
				"element": "H" 
			},
			{
				"x": 1.9340651459,
				"y": -0.302412392,
				"z": 0.6560959369,
				"element": "H" 
			},
			{
				"x": 1.249014495,
				"y": -0.0193603299,
				"z": -0.9466269046,
				"element": "H" 
			},
			{
				"x": 3.8047698047,
				"y": -0.6533920698,
				"z": -0.5352048035,
				"element": "H" 
			}
		],
		 "valence_orbital": [ 
			{
				"type": "occ",
				"energy": -0.31944,
				"method": "rhf"
			},
			{
				"type": "occ",
				"energy": -0.27828,
				"method": "rhf"
			},
			{
				"type": "occ",
				"energy": -0.26158,
				"method": "rhf"
			},
			{
				"type": "occ",
				"energy": -0.24747,
				"method": "rhf"
			},
			{
				"type": "occ",
				"energy": -0.21331,
				"method": "rhf"
			},
			{
				"type": "unocc",
				"energy": -0.03018,
				"method": "rhf"
			},
			{
				"type": "unocc",
				"energy": 0.00557,
				"method": "rhf"
			},
			{
				"type": "unocc",
				"energy": 0.01782,
				"method": "rhf"
			},
			{
				"type": "unocc",
				"energy": 0.05414,
				"method": "rhf"
			},
			{
				"type": "unocc",
				"energy": 0.05598,
				"method": "rhf"
			}
		],
		"cosmo_sigma_profile": { 
			"-0.025": 0.0,
			"-0.024": 0.0,
			"-0.023": 0.0,
			"-0.022": 0.0,
			"-0.021": 0.0,
			"-0.02": 0.0737281282762,
			"-0.019": 0.870796765983,
			"-0.018": 2.15467325915,
			"-0.017": 2.56201002536,
			"-0.016": 1.80441775444,
			"-0.015": 2.43641451238,
			"-0.014": 1.87279129528,
			"-0.013": 2.16693387235,
			"-0.012": 1.81995800802,
			"-0.011": 2.70188592543,
			"-0.01": 1.55628417776,
			"-0.009": 1.99992865596,
			"-0.008": 4.52492572462,
			"-0.007": 11.6206999921,
			"-0.006": 12.9300939793,
			"-0.005": 14.2981041429,
			"-0.004": 12.7128531862,
			"-0.003": 12.1370593767,
			"-0.002": 14.549170168,
			"-0.001": 12.7241748498,
			"0.0": 9.96577588058,
			"0.001": 9.76200543833,
			"0.002": 10.6871129146,
			"0.003": 10.7590888011,
			"0.004": 10.7824341748,
			"0.005": 6.23091728889,
			"0.006": 5.53428383102,
			"0.007": 5.49969107411,
			"0.008": 5.14964730707,
			"0.009": 5.86795118716,
			"0.01": 7.88375332086,
			"0.011": 8.15238685364,
			"0.012": 6.03748571748,
			"0.013": 2.76015571204,
			"0.014": 2.92283254207,
			"0.015": 3.58468670136,
			"0.016": 1.29056067767,
			"0.017": 0.00414802408879,
			"0.018": 0.0,
			"0.019": 0.0,
			"0.02": 0.0,
			"0.021": 0.0,
			"0.022": 0.0,
			"0.023": 0.0,
			"0.024": 0.0,
			"0.025": 0.0
		}
	}
}
