{
	 "smiles": "NC1=NC2=C(C=CC=C2)N1C1=CC=CC=C1", 
	 "Tm": 422.15, 
	 "num_atms": 27, 
	 "gaussian": { 
		 "optdone": 1, 
		 "sigma_profile": "yes", 
		 "theory": "DFT", 
		 "functional": "B3LYP", 
		 "basiset": "6-31G**", 
		 "properties": { 
			 "R2extent": 3673.8902, 
			 "electric_dipole_moment_norm": 4.26538050589, 
			 "electric_quadrupole_moment_norm": 7.22881794279, 
			 "total_energy": -666.285752867, 
			 "HOMO_LUMO_gap": 0.17479, 
			 "cosmo_polarized_energy": -13.27, 
			 "cosmo_cavitation_energy": 30.6, 
			 "cosmo_dispersion_energy": -22.47, 
			 "cosmo_repulsion_energy": 1.73, 
			 "cosmo_total_nonelectrostatic_energy": 9.86, 
			 "SMD_solvation_energy": 3.1 
		},
		"coords": [
			{
				"x": 2.3246502713,
				"y": -0.8325739526,
				"z": 0.1454364981,
				"element": "N" 
			},
			{
				"x": 1.4071093648,
				"y": 0.1979420091,
				"z": 0.122620502,
				"element": "C" 
			},
			{
				"x": 1.7170971851,
				"y": 1.462689894,
				"z": -0.0106514108,
				"element": "N" 
			},
			{
				"x": 0.5049188682,
				"y": 2.1369186598,
				"z": 0.0795648287,
				"element": "C" 
			},
			{
				"x": -0.5624706311,
				"y": 1.2260173457,
				"z": 0.2579404114,
				"element": "C" 
			},
			{
				"x": -1.885310119,
				"y": 1.6369813986,
				"z": 0.3937599665,
				"element": "C" 
			},
			{
				"x": -2.1296359581,
				"y": 3.0117074865,
				"z": 0.3309009557,
				"element": "C" 
			},
			{
				"x": -1.0839204133,
				"y": 3.9305223001,
				"z": 0.1437979817,
				"element": "C" 
			},
			{
				"x": 0.239900263,
				"y": 3.5076235458,
				"z": 0.0198897886,
				"element": "C" 
			},
			{
				"x": 0.0445546663,
				"y": -0.0399871336,
				"z": 0.2945796802,
				"element": "N" 
			},
			{
				"x": -0.6008625837,
				"y": -1.2995208913,
				"z": 0.427369894,
				"element": "C" 
			},
			{
				"x": -1.689967829,
				"y": -1.6148977888,
				"z": -0.3964447508,
				"element": "C" 
			},
			{
				"x": -2.3313878482,
				"y": -2.8452131008,
				"z": -0.2577284629,
				"element": "C" 
			},
			{
				"x": -1.8828542334,
				"y": -3.7733432428,
				"z": 0.6844832829,
				"element": "C" 
			},
			{
				"x": -0.7916573038,
				"y": -3.460485171,
				"z": 1.4973588067,
				"element": "C" 
			},
			{
				"x": -0.1550476721,
				"y": -2.2245463577,
				"z": 1.381466942,
				"element": "C" 
			},
			{
				"x": 2.0111473335,
				"y": -1.7091684929,
				"z": -0.250998955,
				"element": "H" 
			},
			{
				"x": 3.2238471666,
				"y": -0.5316066495,
				"z": -0.2068130267,
				"element": "H" 
			},
			{
				"x": -2.692156571,
				"y": 0.9284536973,
				"z": 0.5494802287,
				"element": "H" 
			},
			{
				"x": -3.1486433645,
				"y": 3.3732069699,
				"z": 0.4320440315,
				"element": "H" 
			},
			{
				"x": -1.3118577136,
				"y": 4.9915916393,
				"z": 0.0989638459,
				"element": "H" 
			},
			{
				"x": 1.0529309518,
				"y": 4.2136567138,
				"z": -0.115354417,
				"element": "H" 
			},
			{
				"x": -2.0200232315,
				"y": -0.8987741637,
				"z": -1.1415574952,
				"element": "H" 
			},
			{
				"x": -3.1768137751,
				"y": -3.0822961177,
				"z": -0.8968978177,
				"element": "H" 
			},
			{
				"x": -2.3809361932,
				"y": -4.7328620274,
				"z": 0.7850586136,
				"element": "H" 
			},
			{
				"x": -0.4409097265,
				"y": -4.1739399371,
				"z": 2.2372776491,
				"element": "H" 
			},
			{
				"x": 0.6796990966,
				"y": -1.9671966328,
				"z": 2.0244524289,
				"element": "H" 
			}
		],
		 "valence_orbital": [ 
			{
				"type": "occ",
				"energy": -0.27021,
				"method": "rhf"
			},
			{
				"type": "occ",
				"energy": -0.26718,
				"method": "rhf"
			},
			{
				"type": "occ",
				"energy": -0.25621,
				"method": "rhf"
			},
			{
				"type": "occ",
				"energy": -0.21249,
				"method": "rhf"
			},
			{
				"type": "occ",
				"energy": -0.19731,
				"method": "rhf"
			},
			{
				"type": "unocc",
				"energy": -0.02252,
				"method": "rhf"
			},
			{
				"type": "unocc",
				"energy": -0.01869,
				"method": "rhf"
			},
			{
				"type": "unocc",
				"energy": 0.00503,
				"method": "rhf"
			},
			{
				"type": "unocc",
				"energy": 0.03331,
				"method": "rhf"
			},
			{
				"type": "unocc",
				"energy": 0.07278,
				"method": "rhf"
			}
		],
		"cosmo_sigma_profile": { 
			"-0.025": 0.0,
			"-0.024": 0.0,
			"-0.023": 0.0,
			"-0.022": 0.0,
			"-0.021": 0.0,
			"-0.02": 0.0,
			"-0.019": 0.0,
			"-0.018": 0.0,
			"-0.017": 0.0,
			"-0.016": 0.0,
			"-0.015": 0.0,
			"-0.014": 0.490163080265,
			"-0.013": 1.96095252783,
			"-0.012": 2.26168486492,
			"-0.011": 1.95911887097,
			"-0.01": 2.79033734918,
			"-0.009": 2.26180453122,
			"-0.008": 1.6335558982,
			"-0.007": 3.10928721687,
			"-0.006": 11.7019366152,
			"-0.005": 19.4924709022,
			"-0.004": 20.6338438769,
			"-0.003": 18.4046128995,
			"-0.002": 17.0366620535,
			"-0.001": 14.4165535534,
			"0.0": 17.5893045518,
			"0.001": 15.1463845482,
			"0.002": 13.6839150465,
			"0.003": 15.3671231983,
			"0.004": 18.6687297667,
			"0.005": 14.7787244401,
			"0.006": 10.6025073856,
			"0.007": 7.5493600473,
			"0.008": 2.11656674198,
			"0.009": 2.95493872604,
			"0.01": 1.39399185339,
			"0.011": 0.990763081517,
			"0.012": 1.23881782776,
			"0.013": 0.842506214932,
			"0.014": 1.09198141163,
			"0.015": 1.31591057994,
			"0.016": 0.939280700848,
			"0.017": 0.757481721561,
			"0.018": 0.260182963588,
			"0.019": 0.0,
			"0.02": 0.0,
			"0.021": 0.0,
			"0.022": 0.0,
			"0.023": 0.0,
			"0.024": 0.0,
			"0.025": 0.0
		}
	}
}
