{
	 "smiles": "ClCC1=CC=C(C=C1)C#N", 
	 "Tm": 352.15, 
	 "num_atms": 16, 
	 "gaussian": { 
		 "optdone": 1, 
		 "sigma_profile": "yes", 
		 "theory": "DFT", 
		 "functional": "B3LYP", 
		 "basiset": "6-31G**", 
		 "properties": { 
			 "R2extent": 2317.7698, 
			 "electric_dipole_moment_norm": 3.77913776145, 
			 "electric_quadrupole_moment_norm": 27.9647163165, 
			 "total_energy": -823.39943344, 
			 "HOMO_LUMO_gap": 0.20097, 
			 "cosmo_polarized_energy": -11.33, 
			 "cosmo_cavitation_energy": 23.36, 
			 "cosmo_dispersion_energy": -16.49, 
			 "cosmo_repulsion_energy": 1.35, 
			 "cosmo_total_nonelectrostatic_energy": 8.22, 
			 "SMD_solvation_energy": 5.07 
		},
		"coords": [
			{
				"x": 0.2513237658,
				"y": -0.4321450859,
				"z": -2.7272828926,
				"element": "Cl" 
			},
			{
				"x": 0.4852715172,
				"y": 0.9941312933,
				"z": -1.60083097,
				"element": "C" 
			},
			{
				"x": 0.4224158907,
				"y": 0.5865594048,
				"z": -0.1579860634,
				"element": "C" 
			},
			{
				"x": 1.5851976349,
				"y": 0.1997017028,
				"z": 0.5222291932,
				"element": "C" 
			},
			{
				"x": 1.534937181,
				"y": -0.177339398,
				"z": 1.8597269761,
				"element": "C" 
			},
			{
				"x": 0.3054142043,
				"y": -0.172474492,
				"z": 2.5398156003,
				"element": "C" 
			},
			{
				"x": -0.8656283244,
				"y": 0.2118714918,
				"z": 1.865120826,
				"element": "C" 
			},
			{
				"x": -0.8000443966,
				"y": 0.586404456,
				"z": 0.5275806558,
				"element": "C" 
			},
			{
				"x": 0.2466148906,
				"y": -0.5543209699,
				"z": 3.9209998366,
				"element": "C" 
			},
			{
				"x": 0.1991886329,
				"y": -0.8626528256,
				"z": 5.0415997135,
				"element": "N" 
			},
			{
				"x": 1.4547320223,
				"y": 1.4185505123,
				"z": -1.8621017231,
				"element": "H" 
			},
			{
				"x": -0.3014063063,
				"y": 1.7034797425,
				"z": -1.8581472413,
				"element": "H" 
			},
			{
				"x": 2.5367962532,
				"y": 0.192152481,
				"z": -0.0016447781,
				"element": "H" 
			},
			{
				"x": 2.4371742449,
				"y": -0.4732385228,
				"z": 2.3840461167,
				"element": "H" 
			},
			{
				"x": -1.812828376,
				"y": 0.2158566438,
				"z": 2.393606286,
				"element": "H" 
			},
			{
				"x": -1.7075588346,
				"y": 0.8802635657,
				"z": 0.0078684644,
				"element": "H" 
			}
		],
		 "valence_orbital": [ 
			{
				"type": "occ",
				"energy": -0.3359,
				"method": "rhf"
			},
			{
				"type": "occ",
				"energy": -0.30931,
				"method": "rhf"
			},
			{
				"type": "occ",
				"energy": -0.30708,
				"method": "rhf"
			},
			{
				"type": "occ",
				"energy": -0.28474,
				"method": "rhf"
			},
			{
				"type": "occ",
				"energy": -0.27084,
				"method": "rhf"
			},
			{
				"type": "unocc",
				"energy": -0.06987,
				"method": "rhf"
			},
			{
				"type": "unocc",
				"energy": -0.03425,
				"method": "rhf"
			},
			{
				"type": "unocc",
				"energy": 0.01349,
				"method": "rhf"
			},
			{
				"type": "unocc",
				"energy": 0.03093,
				"method": "rhf"
			},
			{
				"type": "unocc",
				"energy": 0.06487,
				"method": "rhf"
			}
		],
		"cosmo_sigma_profile": { 
			"-0.025": 0.0,
			"-0.024": 0.0,
			"-0.023": 0.0,
			"-0.022": 0.0,
			"-0.021": 0.0,
			"-0.02": 0.0,
			"-0.019": 0.0,
			"-0.018": 0.0,
			"-0.017": 0.0,
			"-0.016": 0.0,
			"-0.015": 0.0,
			"-0.014": 0.0,
			"-0.013": 0.0,
			"-0.012": 0.0,
			"-0.011": 0.0,
			"-0.01": 0.0,
			"-0.009": 0.972972838831,
			"-0.008": 12.2096641126,
			"-0.007": 14.08132031,
			"-0.006": 12.714171177,
			"-0.005": 11.0815540437,
			"-0.004": 9.03539424173,
			"-0.003": 8.20617984182,
			"-0.002": 10.0041773825,
			"-0.001": 11.2665161781,
			"0.0": 11.4261545525,
			"0.001": 14.4647516918,
			"0.002": 16.4704222445,
			"0.003": 8.66917953616,
			"0.004": 6.62723757613,
			"0.005": 8.18874048246,
			"0.006": 13.2916276858,
			"0.007": 5.42449765554,
			"0.008": 3.39372006027,
			"0.009": 3.38611681426,
			"0.01": 3.20587540189,
			"0.011": 2.64796372692,
			"0.012": 2.55531401385,
			"0.013": 1.33164176758,
			"0.014": 0.0,
			"0.015": 0.0,
			"0.016": 0.0,
			"0.017": 0.0,
			"0.018": 0.0,
			"0.019": 0.0,
			"0.02": 0.0,
			"0.021": 0.0,
			"0.022": 0.0,
			"0.023": 0.0,
			"0.024": 0.0,
			"0.025": 0.0
		}
	}
}
