{
	 "smiles": "OC(=O)C1=CN=C(C=C1)N1C=NC=N1", 
	 "Tm": 615.15, 
	 "num_atms": 20, 
	 "gaussian": { 
		 "optdone": 1, 
		 "sigma_profile": "yes", 
		 "theory": "DFT", 
		 "functional": "B3LYP", 
		 "basiset": "6-31G**", 
		 "properties": { 
			 "R2extent": 4208.3567, 
			 "electric_dipole_moment_norm": 0.96458176429, 
			 "electric_quadrupole_moment_norm": 24.5616275977, 
			 "total_energy": -677.896871554, 
			 "HOMO_LUMO_gap": 0.18754, 
			 "cosmo_polarized_energy": -23.07, 
			 "cosmo_cavitation_energy": 26.05, 
			 "cosmo_dispersion_energy": -19.33, 
			 "cosmo_repulsion_energy": 1.48, 
			 "cosmo_total_nonelectrostatic_energy": 8.19, 
			 "SMD_solvation_energy": 2.5 
		},
		"coords": [
			{
				"x": 3.9301206927,
				"y": 1.4698015678,
				"z": 0.0083309201,
				"element": "O" 
			},
			{
				"x": 3.2017906275,
				"y": 1.7737150685,
				"z": -1.0951150523,
				"element": "C" 
			},
			{
				"x": 3.7354557162,
				"y": 2.2673668255,
				"z": -2.060160279,
				"element": "O" 
			},
			{
				"x": 1.7360259341,
				"y": 1.4677154053,
				"z": -1.0544531628,
				"element": "C" 
			},
			{
				"x": 1.1390348257,
				"y": 0.581415672,
				"z": -0.1509258542,
				"element": "C" 
			},
			{
				"x": -0.1625875704,
				"y": 0.290220944,
				"z": -0.1373141824,
				"element": "N" 
			},
			{
				"x": -0.9350909953,
				"y": 0.8968922334,
				"z": -1.034560647,
				"element": "C" 
			},
			{
				"x": -0.4556551398,
				"y": 1.8048051861,
				"z": -1.9928038665,
				"element": "C" 
			},
			{
				"x": 0.9036179659,
				"y": 2.0728269468,
				"z": -2.006660182,
				"element": "C" 
			},
			{
				"x": -2.3138742242,
				"y": 0.5787978165,
				"z": -0.9995121221,
				"element": "N" 
			},
			{
				"x": -3.2272042876,
				"y": 0.6179120233,
				"z": -2.0169116,
				"element": "C" 
			},
			{
				"x": -4.4079759386,
				"y": 0.2330019255,
				"z": -1.5890185189,
				"element": "N" 
			},
			{
				"x": -4.1699786388,
				"y": -0.039163855,
				"z": -0.2675019147,
				"element": "C" 
			},
			{
				"x": -2.9288018167,
				"y": 0.1446651115,
				"z": 0.1397524625,
				"element": "N" 
			},
			{
				"x": 3.356761249,
				"y": 1.2303488341,
				"z": 0.7494937785,
				"element": "H" 
			},
			{
				"x": 1.7333769165,
				"y": 0.0398934533,
				"z": 0.5853277311,
				"element": "H" 
			},
			{
				"x": -1.1275427731,
				"y": 2.2989368458,
				"z": -2.6848981596,
				"element": "H" 
			},
			{
				"x": 1.3406532613,
				"y": 2.755125805,
				"z": -2.7277252776,
				"element": "H" 
			},
			{
				"x": -2.9753675726,
				"y": 0.8996019514,
				"z": -3.0291368682,
				"element": "H" 
			},
			{
				"x": -4.9402582317,
				"y": -0.3804797609,
				"z": 0.4100927951,
				"element": "H" 
			}
		],
		 "valence_orbital": [ 
			{
				"type": "occ",
				"energy": -0.30808,
				"method": "rhf"
			},
			{
				"type": "occ",
				"energy": -0.29608,
				"method": "rhf"
			},
			{
				"type": "occ",
				"energy": -0.29082,
				"method": "rhf"
			},
			{
				"type": "occ",
				"energy": -0.28096,
				"method": "rhf"
			},
			{
				"type": "occ",
				"energy": -0.26997,
				"method": "rhf"
			},
			{
				"type": "unocc",
				"energy": -0.08243,
				"method": "rhf"
			},
			{
				"type": "unocc",
				"energy": -0.05969,
				"method": "rhf"
			},
			{
				"type": "unocc",
				"energy": -0.01256,
				"method": "rhf"
			},
			{
				"type": "unocc",
				"energy": 0.03654,
				"method": "rhf"
			},
			{
				"type": "unocc",
				"energy": 0.03927,
				"method": "rhf"
			}
		],
		"cosmo_sigma_profile": { 
			"-0.025": 0.0,
			"-0.024": 0.0,
			"-0.023": 0.0,
			"-0.022": 0.0,
			"-0.021": 0.0,
			"-0.02": 0.464376296023,
			"-0.019": 0.771862251128,
			"-0.018": 1.06734772073,
			"-0.017": 1.08971460875,
			"-0.016": 1.32372239233,
			"-0.015": 0.847821791296,
			"-0.014": 0.831230446474,
			"-0.013": 1.15533964942,
			"-0.012": 3.26169260677,
			"-0.011": 4.12223903954,
			"-0.01": 4.37008117118,
			"-0.009": 7.26537679848,
			"-0.008": 8.02256526536,
			"-0.007": 8.32947006333,
			"-0.006": 7.14172276091,
			"-0.005": 9.1860582726,
			"-0.004": 8.85393894484,
			"-0.003": 12.4504460924,
			"-0.002": 15.8671412979,
			"-0.001": 15.2661844275,
			"0.0": 11.8788252987,
			"0.001": 8.29703680765,
			"0.002": 7.82361934208,
			"0.003": 5.28619967571,
			"0.004": 5.33103611318,
			"0.005": 6.52217322032,
			"0.006": 5.25232280505,
			"0.007": 5.46346435074,
			"0.008": 5.62445671517,
			"0.009": 7.04404616779,
			"0.01": 7.45615639531,
			"0.011": 7.62326835064,
			"0.012": 5.53047801839,
			"0.013": 3.55897488905,
			"0.014": 2.17686882025,
			"0.015": 2.27274797246,
			"0.016": 1.75065103953,
			"0.017": 0.458696643008,
			"0.018": 0.0,
			"0.019": 0.0,
			"0.02": 0.0,
			"0.021": 0.0,
			"0.022": 0.0,
			"0.023": 0.0,
			"0.024": 0.0,
			"0.025": 0.0
		}
	}
}
