{
	 "smiles": "ClC1=CC=C(C=C1)S(=O)(=O)C1=C(Cl)C=C(Cl)C(Cl)=C1", 
	 "Tm": 420.15, 
	 "num_atms": 25, 
	 "gaussian": { 
		 "optdone": 1, 
		 "sigma_profile": "yes", 
		 "theory": "DFT", 
		 "functional": "B3LYP", 
		 "basiset": "6-31G**", 
		 "properties": { 
			 "R2extent": 9300.8998, 
			 "electric_dipole_moment_norm": 3.39428690302, 
			 "electric_quadrupole_moment_norm": 11.5290911003, 
			 "total_energy": -2850.21368787, 
			 "HOMO_LUMO_gap": 0.19391, 
			 "cosmo_polarized_energy": -12.16, 
			 "cosmo_cavitation_energy": 38.46, 
			 "cosmo_dispersion_energy": -28.07, 
			 "cosmo_repulsion_energy": 2.12, 
			 "cosmo_total_nonelectrostatic_energy": 12.51, 
			 "SMD_solvation_energy": 4.78 
		},
		"coords": [
			{
				"x": 0.3427858956,
				"y": -5.5539831215,
				"z": 0.5215494184,
				"element": "Cl" 
			},
			{
				"x": 0.6749846946,
				"y": -3.8351629045,
				"z": 0.5654536483,
				"element": "C" 
			},
			{
				"x": 0.4782017056,
				"y": -3.0739377964,
				"z": -0.5899572152,
				"element": "C" 
			},
			{
				"x": 0.7448193305,
				"y": -1.7079672911,
				"z": -0.5551552619,
				"element": "C" 
			},
			{
				"x": 1.1886118836,
				"y": -1.1263588861,
				"z": 0.6355084457,
				"element": "C" 
			},
			{
				"x": 1.3948215278,
				"y": -1.8896843142,
				"z": 1.7846460619,
				"element": "C" 
			},
			{
				"x": 1.1369122328,
				"y": -3.2592984376,
				"z": 1.7498844229,
				"element": "C" 
			},
			{
				"x": 1.5811168993,
				"y": 0.6264437767,
				"z": 0.6619728064,
				"element": "S" 
			},
			{
				"x": 2.2634074303,
				"y": 0.9286148057,
				"z": 1.9243268938,
				"element": "O" 
			},
			{
				"x": 2.1929238215,
				"y": 0.9550496232,
				"z": -0.6346109107,
				"element": "O" 
			},
			{
				"x": -0.0329785493,
				"y": 1.4732543415,
				"z": 0.6548150208,
				"element": "C" 
			},
			{
				"x": -0.9551113511,
				"y": 1.4601622352,
				"z": 1.7114847276,
				"element": "C" 
			},
			{
				"x": -0.6994971874,
				"y": 0.554274414,
				"z": 3.1809955272,
				"element": "Cl" 
			},
			{
				"x": -2.1401400387,
				"y": 2.1859575744,
				"z": 1.6072618854,
				"element": "C" 
			},
			{
				"x": -2.4139365583,
				"y": 2.9344228432,
				"z": 0.4615320695,
				"element": "C" 
			},
			{
				"x": -3.9077756339,
				"y": 3.8212110772,
				"z": 0.388160497,
				"element": "Cl" 
			},
			{
				"x": -1.492600544,
				"y": 2.957729162,
				"z": -0.5951249369,
				"element": "C" 
			},
			{
				"x": -1.7851400251,
				"y": 3.8774614582,
				"z": -2.0434318102,
				"element": "Cl" 
			},
			{
				"x": -0.3114112626,
				"y": 2.226265506,
				"z": -0.4863434028,
				"element": "C" 
			},
			{
				"x": 0.1322969875,
				"y": -3.5480866794,
				"z": -1.5013032532,
				"element": "H" 
			},
			{
				"x": 0.6253604102,
				"y": -1.1046911721,
				"z": -1.4486506724,
				"element": "H" 
			},
			{
				"x": 1.7637785836,
				"y": -1.4141862509,
				"z": 2.6860666428,
				"element": "H" 
			},
			{
				"x": 1.2936622758,
				"y": -3.8740879215,
				"z": 2.6288231048,
				"element": "H" 
			},
			{
				"x": -2.8537438746,
				"y": 2.1732976553,
				"z": 2.4219349032,
				"element": "H" 
			},
			{
				"x": 0.4152513463,
				"y": 2.2422003024,
				"z": -1.2903386126,
				"element": "H" 
			}
		],
		 "valence_orbital": [ 
			{
				"type": "occ",
				"energy": -0.30905,
				"method": "rhf"
			},
			{
				"type": "occ",
				"energy": -0.2915,
				"method": "rhf"
			},
			{
				"type": "occ",
				"energy": -0.28992,
				"method": "rhf"
			},
			{
				"type": "occ",
				"energy": -0.2745,
				"method": "rhf"
			},
			{
				"type": "occ",
				"energy": -0.26798,
				"method": "rhf"
			},
			{
				"type": "unocc",
				"energy": -0.07407,
				"method": "rhf"
			},
			{
				"type": "unocc",
				"energy": -0.0549,
				"method": "rhf"
			},
			{
				"type": "unocc",
				"energy": -0.04896,
				"method": "rhf"
			},
			{
				"type": "unocc",
				"energy": -0.03906,
				"method": "rhf"
			},
			{
				"type": "unocc",
				"energy": -0.02512,
				"method": "rhf"
			}
		],
		"cosmo_sigma_profile": { 
			"-0.025": 0.0,
			"-0.024": 0.0,
			"-0.023": 0.0,
			"-0.022": 0.0,
			"-0.021": 0.0,
			"-0.02": 0.0,
			"-0.019": 0.0,
			"-0.018": 0.0,
			"-0.017": 0.0,
			"-0.016": 0.0,
			"-0.015": 0.0,
			"-0.014": 0.0,
			"-0.013": 0.0,
			"-0.012": 0.0,
			"-0.011": 0.0,
			"-0.01": 0.732023069517,
			"-0.009": 2.84195343577,
			"-0.008": 8.7879692241,
			"-0.007": 10.8473632516,
			"-0.006": 10.6782560367,
			"-0.005": 8.713898561,
			"-0.004": 13.9274598761,
			"-0.003": 22.6000265885,
			"-0.002": 37.5640757798,
			"-0.001": 32.6688003574,
			"0.0": 30.5309942635,
			"0.001": 32.4737687114,
			"0.002": 28.7896928017,
			"0.003": 30.891018339,
			"0.004": 16.2787895878,
			"0.005": 2.56719348579,
			"0.006": 3.43243067324,
			"0.007": 2.85074425575,
			"0.008": 4.07991188877,
			"0.009": 5.07197070105,
			"0.01": 7.45739789834,
			"0.011": 5.73640947093,
			"0.012": 0.0935191443095,
			"0.013": 0.0,
			"0.014": 0.0,
			"0.015": 0.0,
			"0.016": 0.0,
			"0.017": 0.0,
			"0.018": 0.0,
			"0.019": 0.0,
			"0.02": 0.0,
			"0.021": 0.0,
			"0.022": 0.0,
			"0.023": 0.0,
			"0.024": 0.0,
			"0.025": 0.0
		}
	}
}
