{
	 "smiles": "OC1=CC(Cl)=CC=C1[N+]([O-])=O", 
	 "Tm": 314.15, 
	 "num_atms": 15, 
	 "gaussian": { 
		 "optdone": 1, 
		 "sigma_profile": "yes", 
		 "theory": "DFT", 
		 "functional": "B3LYP", 
		 "basiset": "6-31G**", 
		 "properties": { 
			 "R2extent": 2552.3536, 
			 "electric_dipole_moment_norm": 4.23005257769, 
			 "electric_quadrupole_moment_norm": 15.1813119664, 
			 "total_energy": -971.548819183, 
			 "HOMO_LUMO_gap": 0.17385, 
			 "cosmo_polarized_energy": -14.59, 
			 "cosmo_cavitation_energy": 22.23, 
			 "cosmo_dispersion_energy": -16.8, 
			 "cosmo_repulsion_energy": 1.35, 
			 "cosmo_total_nonelectrostatic_energy": 6.78, 
			 "SMD_solvation_energy": 6.26 
		},
		"coords": [
			{
				"x": -0.4184249948,
				"y": 0.8375245523,
				"z": -1.8278385587,
				"element": "O" 
			},
			{
				"x": -0.635915922,
				"y": -0.080990533,
				"z": -0.865629638,
				"element": "C" 
			},
			{
				"x": -0.8228779473,
				"y": -1.4336712181,
				"z": -1.1931362178,
				"element": "C" 
			},
			{
				"x": -1.0600519307,
				"y": -2.3756621497,
				"z": -0.1996195918,
				"element": "C" 
			},
			{
				"x": -1.2814523665,
				"y": -4.0499630701,
				"z": -0.6566661518,
				"element": "Cl" 
			},
			{
				"x": -1.1272889226,
				"y": -2.0148594853,
				"z": 1.1484445744,
				"element": "C" 
			},
			{
				"x": -0.9494125581,
				"y": -0.6793989939,
				"z": 1.477528304,
				"element": "C" 
			},
			{
				"x": -0.7014424986,
				"y": 0.2855003252,
				"z": 0.4972631652,
				"element": "C" 
			},
			{
				"x": -0.514932947,
				"y": 1.6676928364,
				"z": 0.953047891,
				"element": "N" 
			},
			{
				"x": -0.1001829539,
				"y": 2.497673981,
				"z": 0.1495796639,
				"element": "O" 
			},
			{
				"x": -0.7810241529,
				"y": 1.9087323277,
				"z": 2.1337948691,
				"element": "O" 
			},
			{
				"x": -0.4405028929,
				"y": 0.3999811662,
				"z": -2.6905273764,
				"element": "H" 
			},
			{
				"x": -0.7815024687,
				"y": -1.7430522761,
				"z": -2.233140879,
				"element": "H" 
			},
			{
				"x": -1.3132185798,
				"y": -2.7600704076,
				"z": 1.911858574,
				"element": "H" 
			},
			{
				"x": -0.9985688643,
				"y": -0.3455370549,
				"z": 2.5062413718,
				"element": "H" 
			}
		],
		 "valence_orbital": [ 
			{
				"type": "occ",
				"energy": -0.30465,
				"method": "rhf"
			},
			{
				"type": "occ",
				"energy": -0.30342,
				"method": "rhf"
			},
			{
				"type": "occ",
				"energy": -0.28685,
				"method": "rhf"
			},
			{
				"type": "occ",
				"energy": -0.2796,
				"method": "rhf"
			},
			{
				"type": "occ",
				"energy": -0.26201,
				"method": "rhf"
			},
			{
				"type": "unocc",
				"energy": -0.08816,
				"method": "rhf"
			},
			{
				"type": "unocc",
				"energy": -0.0306,
				"method": "rhf"
			},
			{
				"type": "unocc",
				"energy": -0.00915,
				"method": "rhf"
			},
			{
				"type": "unocc",
				"energy": 0.00654,
				"method": "rhf"
			},
			{
				"type": "unocc",
				"energy": 0.04244,
				"method": "rhf"
			}
		],
		"cosmo_sigma_profile": { 
			"-0.025": 0.0,
			"-0.024": 0.0,
			"-0.023": 0.0,
			"-0.022": 0.0,
			"-0.021": 0.0,
			"-0.02": 0.381618293163,
			"-0.019": 1.20201653145,
			"-0.018": 1.82141979749,
			"-0.017": 0.828448374349,
			"-0.016": 1.05343819987,
			"-0.015": 1.2619836936,
			"-0.014": 0.638643169778,
			"-0.013": 1.17650963676,
			"-0.012": 1.20014033165,
			"-0.011": 0.93112129153,
			"-0.01": 1.13237088375,
			"-0.009": 1.51492719839,
			"-0.008": 4.73018752533,
			"-0.007": 5.40949619269,
			"-0.006": 6.06802861944,
			"-0.005": 5.49120255283,
			"-0.004": 6.81886387877,
			"-0.003": 8.20910008545,
			"-0.002": 11.9315479254,
			"-0.001": 16.2250590969,
			"0.0": 20.5443123778,
			"0.001": 14.2385893705,
			"0.002": 9.59683780036,
			"0.003": 13.0198840269,
			"0.004": 7.72117193427,
			"0.005": 3.09557856969,
			"0.006": 3.63823822369,
			"0.007": 5.35889840674,
			"0.008": 9.52432110487,
			"0.009": 6.84217885214,
			"0.01": 5.6141875229,
			"0.011": 1.52626756097,
			"0.012": 1.8216112338,
			"0.013": 0.460696078832,
			"0.014": 0.0,
			"0.015": 0.0,
			"0.016": 0.0,
			"0.017": 0.0,
			"0.018": 0.0,
			"0.019": 0.0,
			"0.02": 0.0,
			"0.021": 0.0,
			"0.022": 0.0,
			"0.023": 0.0,
			"0.024": 0.0,
			"0.025": 0.0
		}
	}
}
