{
	 "smiles": "OC(C(=O)C1=C2C=CC=CC2=CC=C1)C1=CC=CC=C1", 
	 "Tm": 378.15, 
	 "num_atms": 34, 
	 "gaussian": { 
		 "optdone": 1, 
		 "sigma_profile": "yes", 
		 "theory": "DFT", 
		 "functional": "B3LYP", 
		 "basiset": "6-31G**", 
		 "properties": { 
			 "R2extent": 5840.1487, 
			 "electric_dipole_moment_norm": 3.81688135655, 
			 "electric_quadrupole_moment_norm": 9.3322839525, 
			 "total_energy": -844.802575913, 
			 "HOMO_LUMO_gap": 0.15518, 
			 "cosmo_polarized_energy": -12.32, 
			 "cosmo_cavitation_energy": 37.35, 
			 "cosmo_dispersion_energy": -26.18, 
			 "cosmo_repulsion_energy": 1.99, 
			 "cosmo_total_nonelectrostatic_energy": 13.16, 
			 "SMD_solvation_energy": 6.17 
		},
		"coords": [
			{
				"x": 0.2723996676,
				"y": -3.4538522658,
				"z": 0.669482369,
				"element": "O" 
			},
			{
				"x": 0.1431547538,
				"y": -2.1494775486,
				"z": 0.1680306359,
				"element": "C" 
			},
			{
				"x": 0.8881862734,
				"y": -1.1821881222,
				"z": 1.1274849095,
				"element": "C" 
			},
			{
				"x": 1.1785929989,
				"y": -1.6286672981,
				"z": 2.2330505543,
				"element": "O" 
			},
			{
				"x": 1.1821994688,
				"y": 0.2185567263,
				"z": 0.7187832781,
				"element": "C" 
			},
			{
				"x": 1.183131336,
				"y": 1.303108211,
				"z": 1.6688753682,
				"element": "C" 
			},
			{
				"x": 0.8389468609,
				"y": 1.154516409,
				"z": 3.0408491145,
				"element": "C" 
			},
			{
				"x": 0.8304021566,
				"y": 2.2403846123,
				"z": 3.8896169023,
				"element": "C" 
			},
			{
				"x": 1.1666094486,
				"y": 3.5319679769,
				"z": 3.4229818562,
				"element": "C" 
			},
			{
				"x": 1.5030499615,
				"y": 3.7130070945,
				"z": 2.1021007871,
				"element": "C" 
			},
			{
				"x": 1.5184372604,
				"y": 2.6177118477,
				"z": 1.1970931762,
				"element": "C" 
			},
			{
				"x": 1.8652814706,
				"y": 2.8104971553,
				"z": -0.1663265425,
				"element": "C" 
			},
			{
				"x": 1.871198445,
				"y": 1.7578000152,
				"z": -1.0505217705,
				"element": "C" 
			},
			{
				"x": 1.5173560323,
				"y": 0.4674988341,
				"z": -0.6049460799,
				"element": "C" 
			},
			{
				"x": -1.3195195167,
				"y": -1.7068707015,
				"z": 0.0769980345,
				"element": "C" 
			},
			{
				"x": -2.2206329447,
				"y": -2.1043969305,
				"z": 1.0715120669,
				"element": "C" 
			},
			{
				"x": -3.5535946138,
				"y": -1.6982458764,
				"z": 1.0193514791,
				"element": "C" 
			},
			{
				"x": -4.0016026886,
				"y": -0.8901599673,
				"z": -0.0281892471,
				"element": "C" 
			},
			{
				"x": -3.1089833146,
				"y": -0.4950579364,
				"z": -1.0258701391,
				"element": "C" 
			},
			{
				"x": -1.7748203825,
				"y": -0.9016955413,
				"z": -0.9721100805,
				"element": "C" 
			},
			{
				"x": 0.6575769135,
				"y": -3.3401817298,
				"z": 1.5592258984,
				"element": "H" 
			},
			{
				"x": 0.586443733,
				"y": -2.1031379253,
				"z": -0.8349360723,
				"element": "H" 
			},
			{
				"x": 0.5970748497,
				"y": 0.1710667089,
				"z": 3.4194679331,
				"element": "H" 
			},
			{
				"x": 0.5636299978,
				"y": 2.1003424931,
				"z": 4.9331545855,
				"element": "H" 
			},
			{
				"x": 1.1566981028,
				"y": 4.3752603517,
				"z": 4.1072036936,
				"element": "H" 
			},
			{
				"x": 1.7601376184,
				"y": 4.6999217545,
				"z": 1.7263551538,
				"element": "H" 
			},
			{
				"x": 2.1303289023,
				"y": 3.81080085,
				"z": -0.4990746493,
				"element": "H" 
			},
			{
				"x": 2.1465181322,
				"y": 1.9100641317,
				"z": -2.0894301744,
				"element": "H" 
			},
			{
				"x": 1.54318233,
				"y": -0.3492885169,
				"z": -1.3173703293,
				"element": "H" 
			},
			{
				"x": -1.8729289782,
				"y": -2.7523303633,
				"z": 1.8693374808,
				"element": "H" 
			},
			{
				"x": -4.2446529125,
				"y": -2.0166475296,
				"z": 1.794873191,
				"element": "H" 
			},
			{
				"x": -5.0407537046,
				"y": -0.5766020845,
				"z": -0.0703413255,
				"element": "H" 
			},
			{
				"x": -3.451287367,
				"y": 0.1241256731,
				"z": -1.8502895391,
				"element": "H" 
			},
			{
				"x": -1.0873602907,
				"y": -0.5940305076,
				"z": -1.7556225181,
				"element": "H" 
			}
		],
		 "valence_orbital": [ 
			{
				"type": "occ",
				"energy": -0.26549,
				"method": "rhf"
			},
			{
				"type": "occ",
				"energy": -0.25532,
				"method": "rhf"
			},
			{
				"type": "occ",
				"energy": -0.24828,
				"method": "rhf"
			},
			{
				"type": "occ",
				"energy": -0.23805,
				"method": "rhf"
			},
			{
				"type": "occ",
				"energy": -0.22823,
				"method": "rhf"
			},
			{
				"type": "unocc",
				"energy": -0.07305,
				"method": "rhf"
			},
			{
				"type": "unocc",
				"energy": -0.02542,
				"method": "rhf"
			},
			{
				"type": "unocc",
				"energy": -0.02098,
				"method": "rhf"
			},
			{
				"type": "unocc",
				"energy": 7e-05,
				"method": "rhf"
			},
			{
				"type": "unocc",
				"energy": 0.00488,
				"method": "rhf"
			}
		],
		"cosmo_sigma_profile": { 
			"-0.025": 0.0,
			"-0.024": 0.0,
			"-0.023": 0.0,
			"-0.022": 0.0,
			"-0.021": 0.0,
			"-0.02": 0.0,
			"-0.019": 0.0,
			"-0.018": 0.0,
			"-0.017": 0.0,
			"-0.016": 0.0,
			"-0.015": 0.0,
			"-0.014": 0.0,
			"-0.013": 0.0,
			"-0.012": 0.0,
			"-0.011": 0.00282279991446,
			"-0.01": 0.864236318477,
			"-0.009": 3.20545056773,
			"-0.008": 3.24123425822,
			"-0.007": 7.28280685373,
			"-0.006": 18.832306488,
			"-0.005": 24.6511207896,
			"-0.004": 25.4261331091,
			"-0.003": 21.9178169014,
			"-0.002": 18.6931101609,
			"-0.001": 17.2863697764,
			"0.0": 17.3605459266,
			"0.001": 18.3013945436,
			"0.002": 25.5608312763,
			"0.003": 30.5683269079,
			"0.004": 21.8404053711,
			"0.005": 16.8740543249,
			"0.006": 8.10483958072,
			"0.007": 3.40780581029,
			"0.008": 3.01431053145,
			"0.009": 3.48754485248,
			"0.01": 3.19397905319,
			"0.011": 1.6341383613,
			"0.012": 1.36769146018,
			"0.013": 1.94717745828,
			"0.014": 1.45430991709,
			"0.015": 0.00501129018709,
			"0.016": 0.0,
			"0.017": 0.0,
			"0.018": 0.0,
			"0.019": 0.0,
			"0.02": 0.0,
			"0.021": 0.0,
			"0.022": 0.0,
			"0.023": 0.0,
			"0.024": 0.0,
			"0.025": 0.0
		}
	}
}
