{
	 "smiles": "CCOC(=O)C1=C(C)N=C(S1)C1=CC=CC(N)=C1", 
	 "Tm": 357.15, 
	 "num_atms": 32, 
	 "gaussian": { 
		 "optdone": 1, 
		 "sigma_profile": "yes", 
		 "theory": "DFT", 
		 "functional": "B3LYP", 
		 "basiset": "6-31G**", 
		 "properties": { 
			 "R2extent": 7274.447, 
			 "electric_dipole_moment_norm": 1.5904919019, 
			 "electric_quadrupole_moment_norm": 24.7786962936, 
			 "total_energy": -1161.98803227, 
			 "HOMO_LUMO_gap": 0.13971, 
			 "cosmo_polarized_energy": -14.07, 
			 "cosmo_cavitation_energy": 37.85, 
			 "cosmo_dispersion_energy": -27.65, 
			 "cosmo_repulsion_energy": 2.11, 
			 "cosmo_total_nonelectrostatic_energy": 12.31, 
			 "SMD_solvation_energy": 5.98 
		},
		"coords": [
			{
				"x": -2.6463651805,
				"y": -2.4532587997,
				"z": 4.3388131149,
				"element": "C" 
			},
			{
				"x": -3.4461382923,
				"y": -2.1148859037,
				"z": 3.0896947617,
				"element": "C" 
			},
			{
				"x": -2.5820769878,
				"y": -1.9254021002,
				"z": 1.9429446583,
				"element": "O" 
			},
			{
				"x": -2.0451942145,
				"y": -0.6897237568,
				"z": 1.7976920479,
				"element": "C" 
			},
			{
				"x": -2.2561973164,
				"y": 0.2373898787,
				"z": 2.5609315168,
				"element": "O" 
			},
			{
				"x": -1.1847804725,
				"y": -0.5926943087,
				"z": 0.6149070066,
				"element": "C" 
			},
			{
				"x": -0.830746956,
				"y": -1.5192276141,
				"z": -0.352807282,
				"element": "C" 
			},
			{
				"x": -1.2721513891,
				"y": -2.9528039992,
				"z": -0.4394556993,
				"element": "C" 
			},
			{
				"x": 0.0126503492,
				"y": -1.0410803403,
				"z": -1.3177200298,
				"element": "N" 
			},
			{
				"x": 0.3237506017,
				"y": 0.2242589768,
				"z": -1.1316902023,
				"element": "C" 
			},
			{
				"x": -0.4195444204,
				"y": 0.938409896,
				"z": 0.285169029,
				"element": "S" 
			},
			{
				"x": 1.2134720669,
				"y": 0.9745088042,
				"z": -2.0282085055,
				"element": "C" 
			},
			{
				"x": 1.7630915846,
				"y": 0.31803679,
				"z": -3.1428933783,
				"element": "C" 
			},
			{
				"x": 2.6094315928,
				"y": 1.0206280434,
				"z": -3.9962859608,
				"element": "C" 
			},
			{
				"x": 2.9186492347,
				"y": 2.3586917395,
				"z": -3.7624306557,
				"element": "C" 
			},
			{
				"x": 2.3759638098,
				"y": 3.0283476407,
				"z": -2.6506503046,
				"element": "C" 
			},
			{
				"x": 2.6340762979,
				"y": 4.3828518452,
				"z": -2.4402739573,
				"element": "N" 
			},
			{
				"x": 1.5239719239,
				"y": 2.3209434614,
				"z": -1.7908201591,
				"element": "C" 
			},
			{
				"x": -2.0092590909,
				"y": -1.6131150477,
				"z": 4.6248156379,
				"element": "H" 
			},
			{
				"x": -2.020093269,
				"y": -3.335164987,
				"z": 4.1744897146,
				"element": "H" 
			},
			{
				"x": -3.3282577102,
				"y": -2.6658961933,
				"z": 5.1690374853,
				"element": "H" 
			},
			{
				"x": -4.1024773518,
				"y": -2.9384332272,
				"z": 2.7983615245,
				"element": "H" 
			},
			{
				"x": -4.0403435387,
				"y": -1.209956923,
				"z": 3.2358148193,
				"element": "H" 
			},
			{
				"x": -0.8029574373,
				"y": -3.4140199632,
				"z": -1.309771346,
				"element": "H" 
			},
			{
				"x": -2.3593706435,
				"y": -3.0278660345,
				"z": -0.5329500232,
				"element": "H" 
			},
			{
				"x": -0.9950006076,
				"y": -3.5091510925,
				"z": 0.4602028799,
				"element": "H" 
			},
			{
				"x": 1.5180582821,
				"y": -0.7225858734,
				"z": -3.3156458281,
				"element": "H" 
			},
			{
				"x": 3.03914526,
				"y": 0.5194058221,
				"z": -4.8589949991,
				"element": "H" 
			},
			{
				"x": 3.5774729639,
				"y": 2.8950876033,
				"z": -4.4407416309,
				"element": "H" 
			},
			{
				"x": 2.5107064345,
				"y": 4.7060906713,
				"z": -1.4908188144,
				"element": "H" 
			},
			{
				"x": 3.490850098,
				"y": 4.7281004403,
				"z": -2.8497241788,
				"element": "H" 
			},
			{
				"x": 1.0999643784,
				"y": 2.8372145516,
				"z": -0.9328912415,
				"element": "H" 
			}
		],
		 "valence_orbital": [ 
			{
				"type": "occ",
				"energy": -0.28025,
				"method": "rhf"
			},
			{
				"type": "occ",
				"energy": -0.27136,
				"method": "rhf"
			},
			{
				"type": "occ",
				"energy": -0.25964,
				"method": "rhf"
			},
			{
				"type": "occ",
				"energy": -0.22568,
				"method": "rhf"
			},
			{
				"type": "occ",
				"energy": -0.20667,
				"method": "rhf"
			},
			{
				"type": "unocc",
				"energy": -0.06696,
				"method": "rhf"
			},
			{
				"type": "unocc",
				"energy": -0.00588,
				"method": "rhf"
			},
			{
				"type": "unocc",
				"energy": 0.00832,
				"method": "rhf"
			},
			{
				"type": "unocc",
				"energy": 0.02356,
				"method": "rhf"
			},
			{
				"type": "unocc",
				"energy": 0.05359,
				"method": "rhf"
			}
		],
		"cosmo_sigma_profile": { 
			"-0.025": 0.0,
			"-0.024": 0.0,
			"-0.023": 0.0,
			"-0.022": 0.0,
			"-0.021": 0.0,
			"-0.02": 0.0,
			"-0.019": 0.0,
			"-0.018": 0.0,
			"-0.017": 0.0,
			"-0.016": 0.0,
			"-0.015": 0.0,
			"-0.014": 0.0,
			"-0.013": 0.71166234547,
			"-0.012": 2.94397462809,
			"-0.011": 3.31818646312,
			"-0.01": 3.07233160372,
			"-0.009": 3.76511182215,
			"-0.008": 3.07956440028,
			"-0.007": 3.05356065268,
			"-0.006": 8.54909252565,
			"-0.005": 13.7886023214,
			"-0.004": 22.6886453581,
			"-0.003": 23.2284370475,
			"-0.002": 23.9174390716,
			"-0.001": 31.2265346776,
			"0.0": 33.6809817668,
			"0.001": 22.5513021924,
			"0.002": 19.3793684186,
			"0.003": 19.4294146331,
			"0.004": 16.4307776857,
			"0.005": 16.1598584304,
			"0.006": 6.43366608541,
			"0.007": 4.03703138135,
			"0.008": 4.13239035741,
			"0.009": 3.25035059689,
			"0.01": 3.96931914901,
			"0.011": 4.2636002762,
			"0.012": 4.58654137869,
			"0.013": 0.708668692254,
			"0.014": 0.41203312569,
			"0.015": 0.0156249607561,
			"0.016": 0.0,
			"0.017": 0.0,
			"0.018": 0.0,
			"0.019": 0.0,
			"0.02": 0.0,
			"0.021": 0.0,
			"0.022": 0.0,
			"0.023": 0.0,
			"0.024": 0.0,
			"0.025": 0.0
		}
	}
}
