{
	 "smiles": "CCOC1=CC=C(Br)C=C1C=O", 
	 "Tm": 342.15, 
	 "num_atms": 21, 
	 "gaussian": { 
		 "optdone": 1, 
		 "sigma_profile": "yes", 
		 "theory": "DFT", 
		 "functional": "B3LYP", 
		 "basiset": "6-31G**", 
		 "properties": { 
			 "R2extent": 5142.0915, 
			 "electric_dipole_moment_norm": 1.78044063647, 
			 "electric_quadrupole_moment_norm": 6.33121798551, 
			 "total_energy": -3070.21300465, 
			 "HOMO_LUMO_gap": 0.17011, 
			 "cosmo_polarized_energy": -8.45, 
			 "cosmo_cavitation_energy": 27.57, 
			 "cosmo_dispersion_energy": -20.25, 
			 "cosmo_repulsion_energy": 1.62, 
			 "cosmo_total_nonelectrostatic_energy": 8.94, 
			 "SMD_solvation_energy": 4.84 
		},
		"coords": [
			{
				"x": -1.2064521678,
				"y": -2.8009792952,
				"z": -1.0336401304,
				"element": "C" 
			},
			{
				"x": -0.722762983,
				"y": -1.8489226389,
				"z": 0.0414686673,
				"element": "C" 
			},
			{
				"x": 0.2427145023,
				"y": -0.9630650816,
				"z": -0.5679704951,
				"element": "O" 
			},
			{
				"x": 0.6276424585,
				"y": 0.1307042122,
				"z": 0.1427185688,
				"element": "C" 
			},
			{
				"x": 1.923893517,
				"y": 0.1395718517,
				"z": 0.6703868887,
				"element": "C" 
			},
			{
				"x": 2.4186838822,
				"y": 1.2461627761,
				"z": 1.3564353946,
				"element": "C" 
			},
			{
				"x": 1.6074716777,
				"y": 2.3701130745,
				"z": 1.5192054499,
				"element": "C" 
			},
			{
				"x": 2.2728368394,
				"y": 3.8906122926,
				"z": 2.4639327339,
				"element": "Br" 
			},
			{
				"x": 0.3260129447,
				"y": 2.3922476212,
				"z": 0.9871498066,
				"element": "C" 
			},
			{
				"x": -0.1863935078,
				"y": 1.2810227041,
				"z": 0.2961382978,
				"element": "C" 
			},
			{
				"x": -1.5377322585,
				"y": 1.4411457011,
				"z": -0.2895875335,
				"element": "C" 
			},
			{
				"x": -2.1902563306,
				"y": 0.5926038988,
				"z": -0.8668132783,
				"element": "O" 
			},
			{
				"x": -1.9085322802,
				"y": -3.523564079,
				"z": -0.6057461692,
				"element": "H" 
			},
			{
				"x": -1.7152467203,
				"y": -2.2411611178,
				"z": -1.8220156066,
				"element": "H" 
			},
			{
				"x": -0.3686725884,
				"y": -3.3496835071,
				"z": -1.4738875582,
				"element": "H" 
			},
			{
				"x": -1.5564587561,
				"y": -1.2685307007,
				"z": 0.4441131161,
				"element": "H" 
			},
			{
				"x": -0.2292950559,
				"y": -2.3842121514,
				"z": 0.8648093743,
				"element": "H" 
			},
			{
				"x": 2.5398680847,
				"y": -0.7417532916,
				"z": 0.5251105465,
				"element": "H" 
			},
			{
				"x": 3.4237869727,
				"y": 1.2358324178,
				"z": 1.7630683389,
				"element": "H" 
			},
			{
				"x": -0.2915850092,
				"y": 3.27874043,
				"z": 1.095382309,
				"element": "H" 
			},
			{
				"x": -1.9446232213,
				"y": 2.4694148831,
				"z": -0.1615587209,
				"element": "H" 
			}
		],
		 "valence_orbital": [ 
			{
				"type": "occ",
				"energy": -0.29741,
				"method": "rhf"
			},
			{
				"type": "occ",
				"energy": -0.2833,
				"method": "rhf"
			},
			{
				"type": "occ",
				"energy": -0.2803,
				"method": "rhf"
			},
			{
				"type": "occ",
				"energy": -0.25978,
				"method": "rhf"
			},
			{
				"type": "occ",
				"energy": -0.24334,
				"method": "rhf"
			},
			{
				"type": "unocc",
				"energy": -0.07323,
				"method": "rhf"
			},
			{
				"type": "unocc",
				"energy": -0.02369,
				"method": "rhf"
			},
			{
				"type": "unocc",
				"energy": -0.00231,
				"method": "rhf"
			},
			{
				"type": "unocc",
				"energy": 0.02628,
				"method": "rhf"
			},
			{
				"type": "unocc",
				"energy": 0.10161,
				"method": "rhf"
			}
		],
		"cosmo_sigma_profile": { 
			"-0.025": 0.0,
			"-0.024": 0.0,
			"-0.023": 0.0,
			"-0.022": 0.0,
			"-0.021": 0.0,
			"-0.02": 0.0,
			"-0.019": 0.0,
			"-0.018": 0.0,
			"-0.017": 0.0,
			"-0.016": 0.0,
			"-0.015": 0.0,
			"-0.014": 0.0,
			"-0.013": 0.0,
			"-0.012": 0.0,
			"-0.011": 0.0,
			"-0.01": 0.0,
			"-0.009": 1.40353095095,
			"-0.008": 4.84099797279,
			"-0.007": 7.35504561021,
			"-0.006": 7.47336505731,
			"-0.005": 8.9312299176,
			"-0.004": 15.7162716932,
			"-0.003": 23.2712943953,
			"-0.002": 20.0424350791,
			"-0.001": 17.6382804132,
			"0.0": 20.7700406435,
			"0.001": 26.3636092881,
			"0.002": 15.7692101532,
			"0.003": 9.92183823247,
			"0.004": 14.6395439506,
			"0.005": 5.71837883842,
			"0.006": 3.70835236612,
			"0.007": 3.30410385554,
			"0.008": 2.8160774074,
			"0.009": 3.99385076273,
			"0.01": 4.31160594442,
			"0.011": 3.11517744544,
			"0.012": 1.65659499525,
			"0.013": 0.386431130073,
			"0.014": 0.0,
			"0.015": 0.0,
			"0.016": 0.0,
			"0.017": 0.0,
			"0.018": 0.0,
			"0.019": 0.0,
			"0.02": 0.0,
			"0.021": 0.0,
			"0.022": 0.0,
			"0.023": 0.0,
			"0.024": 0.0,
			"0.025": 0.0
		}
	}
}
