{
	 "smiles": "O=CC1=NC(=NC=C1)C1=CC=CC=C1", 
	 "Tm": 390.15, 
	 "num_atms": 22, 
	 "gaussian": { 
		 "optdone": 1, 
		 "sigma_profile": "yes", 
		 "theory": "DFT", 
		 "functional": "B3LYP", 
		 "basiset": "6-31G**", 
		 "properties": { 
			 "R2extent": 3432.4816, 
			 "electric_dipole_moment_norm": 1.70047822391, 
			 "electric_quadrupole_moment_norm": 8.94494794451, 
			 "total_energy": -608.709135489, 
			 "HOMO_LUMO_gap": 0.15222, 
			 "cosmo_polarized_energy": -8.27, 
			 "cosmo_cavitation_energy": 27.39, 
			 "cosmo_dispersion_energy": -20.08, 
			 "cosmo_repulsion_energy": 1.56, 
			 "cosmo_total_nonelectrostatic_energy": 8.87, 
			 "SMD_solvation_energy": 3.82 
		},
		"coords": [
			{
				"x": -2.4648129839,
				"y": 0.3567083566,
				"z": -3.90670979,
				"element": "O" 
			},
			{
				"x": -2.2649250409,
				"y": 0.2902086442,
				"z": -2.7122347953,
				"element": "C" 
			},
			{
				"x": -0.956257203,
				"y": 0.6426766971,
				"z": -2.0737946614,
				"element": "C" 
			},
			{
				"x": -0.9014014717,
				"y": 0.5143296585,
				"z": -0.7444054842,
				"element": "N" 
			},
			{
				"x": 0.2637401583,
				"y": 0.8249241008,
				"z": -0.146226069,
				"element": "C" 
			},
			{
				"x": 1.365113677,
				"y": 1.2520424694,
				"z": -0.7965564432,
				"element": "N" 
			},
			{
				"x": 1.2868025886,
				"y": 1.3725040646,
				"z": -2.1230629962,
				"element": "C" 
			},
			{
				"x": 0.1278389176,
				"y": 1.0766601595,
				"z": -2.8370807482,
				"element": "C" 
			},
			{
				"x": 0.3424389839,
				"y": 0.6882921366,
				"z": 1.3279491229,
				"element": "C" 
			},
			{
				"x": 1.532077156,
				"y": 0.9978296589,
				"z": 2.0067570237,
				"element": "C" 
			},
			{
				"x": 1.6038980653,
				"y": 0.8688114203,
				"z": 3.3917517528,
				"element": "C" 
			},
			{
				"x": 0.4921686858,
				"y": 0.4302796963,
				"z": 4.1155218571,
				"element": "C" 
			},
			{
				"x": -0.6944872154,
				"y": 0.1206634356,
				"z": 3.4461048632,
				"element": "C" 
			},
			{
				"x": -0.7712890148,
				"y": 0.248065403,
				"z": 2.0612827212,
				"element": "C" 
			},
			{
				"x": -3.0386814754,
				"y": -0.039278657,
				"z": -1.9898848861,
				"element": "H" 
			},
			{
				"x": 2.185936469,
				"y": 1.7186208724,
				"z": -2.630216888,
				"element": "H" 
			},
			{
				"x": 0.0497903074,
				"y": 1.1697418019,
				"z": -3.9136309102,
				"element": "H" 
			},
			{
				"x": 2.3877422097,
				"y": 1.3370309861,
				"z": 1.4343250197,
				"element": "H" 
			},
			{
				"x": 2.5285205371,
				"y": 1.1106459929,
				"z": 3.9078778929,
				"element": "H" 
			},
			{
				"x": 0.5501807164,
				"y": 0.3303016817,
				"z": 5.1957071795,
				"element": "H" 
			},
			{
				"x": -1.5613900057,
				"y": -0.220630345,
				"z": 4.0044856388,
				"element": "H" 
			},
			{
				"x": -1.6868040615,
				"y": 0.0106717656,
				"z": 1.5317405999,
				"element": "H" 
			}
		],
		 "valence_orbital": [ 
			{
				"type": "occ",
				"energy": -0.3082,
				"method": "rhf"
			},
			{
				"type": "occ",
				"energy": -0.27871,
				"method": "rhf"
			},
			{
				"type": "occ",
				"energy": -0.25951,
				"method": "rhf"
			},
			{
				"type": "occ",
				"energy": -0.25478,
				"method": "rhf"
			},
			{
				"type": "occ",
				"energy": -0.244,
				"method": "rhf"
			},
			{
				"type": "unocc",
				"energy": -0.09178,
				"method": "rhf"
			},
			{
				"type": "unocc",
				"energy": -0.06041,
				"method": "rhf"
			},
			{
				"type": "unocc",
				"energy": -0.00795,
				"method": "rhf"
			},
			{
				"type": "unocc",
				"energy": 0.00075,
				"method": "rhf"
			},
			{
				"type": "unocc",
				"energy": 0.03944,
				"method": "rhf"
			}
		],
		"cosmo_sigma_profile": { 
			"-0.025": 0.0,
			"-0.024": 0.0,
			"-0.023": 0.0,
			"-0.022": 0.0,
			"-0.021": 0.0,
			"-0.02": 0.0,
			"-0.019": 0.0,
			"-0.018": 0.0,
			"-0.017": 0.0,
			"-0.016": 0.0,
			"-0.015": 0.0,
			"-0.014": 0.0,
			"-0.013": 0.0,
			"-0.012": 0.0,
			"-0.011": 0.0,
			"-0.01": 0.0,
			"-0.009": 0.401394174569,
			"-0.008": 4.21731236193,
			"-0.007": 7.26484484432,
			"-0.006": 11.9910790646,
			"-0.005": 15.4754226996,
			"-0.004": 16.7678039989,
			"-0.003": 19.1739605332,
			"-0.002": 17.6801303178,
			"-0.001": 17.4434170996,
			"0.0": 14.0502864499,
			"0.001": 13.4317930508,
			"0.002": 15.6484081289,
			"0.003": 15.1909057292,
			"0.004": 15.2107693243,
			"0.005": 12.8156565222,
			"0.006": 5.19446206747,
			"0.007": 5.16131574093,
			"0.008": 3.54036773541,
			"0.009": 3.39231582186,
			"0.01": 5.1353297349,
			"0.011": 2.07173835936,
			"0.012": 0.24135407228,
			"0.013": 0.0,
			"0.014": 0.0,
			"0.015": 0.0,
			"0.016": 0.0,
			"0.017": 0.0,
			"0.018": 0.0,
			"0.019": 0.0,
			"0.02": 0.0,
			"0.021": 0.0,
			"0.022": 0.0,
			"0.023": 0.0,
			"0.024": 0.0,
			"0.025": 0.0
		}
	}
}
