{
	 "smiles": "C[Si](C)(Cl)CC[Si](C)(C)Cl", 
	 "Tm": 310.15, 
	 "num_atms": 26, 
	 "gaussian": { 
		 "optdone": 1, 
		 "sigma_profile": "yes", 
		 "theory": "DFT", 
		 "functional": "B3LYP", 
		 "basiset": "6-31G**", 
		 "properties": { 
			 "R2extent": 4038.6621, 
			 "electric_dipole_moment_norm": 3.96216463313, 
			 "electric_quadrupole_moment_norm": 12.0494139082, 
			 "total_energy": -1737.84007072, 
			 "HOMO_LUMO_gap": 0.31576, 
			 "cosmo_polarized_energy": -7.63, 
			 "cosmo_cavitation_energy": 34.4, 
			 "cosmo_dispersion_energy": -19.23, 
			 "cosmo_repulsion_energy": 1.75, 
			 "cosmo_total_nonelectrostatic_energy": 16.92, 
			 "SMD_solvation_energy": 6.67 
		},
		"coords": [
			{
				"x": -2.0280848766,
				"y": -0.0803561364,
				"z": 2.2894164198,
				"element": "C" 
			},
			{
				"x": -0.4676256358,
				"y": 0.381536111,
				"z": 1.3463041821,
				"element": "Si" 
			},
			{
				"x": 0.923662088,
				"y": -0.8079622535,
				"z": 1.7894608045,
				"element": "C" 
			},
			{
				"x": 0.1130960837,
				"y": 2.3044704366,
				"z": 1.9914194429,
				"element": "Cl" 
			},
			{
				"x": -0.8586458747,
				"y": 0.4669597632,
				"z": -0.507051759,
				"element": "C" 
			},
			{
				"x": -0.0218347526,
				"y": 1.3584790348,
				"z": -1.4601093409,
				"element": "C" 
			},
			{
				"x": 1.7405521405,
				"y": 0.8249762222,
				"z": -1.9192084968,
				"element": "Si" 
			},
			{
				"x": 3.0629151025,
				"y": 1.510550513,
				"z": -0.7711830661,
				"element": "C" 
			},
			{
				"x": 1.8919942787,
				"y": -1.0378285258,
				"z": -2.1462553408,
				"element": "C" 
			},
			{
				"x": 2.1120389824,
				"y": 1.6963808723,
				"z": -3.808775377,
				"element": "Cl" 
			},
			{
				"x": -2.8253273184,
				"y": 0.6499537901,
				"z": 2.1206106855,
				"element": "H" 
			},
			{
				"x": -2.395265515,
				"y": -1.0616855934,
				"z": 1.9657114072,
				"element": "H" 
			},
			{
				"x": -1.8387335934,
				"y": -0.1312423643,
				"z": 3.3660798663,
				"element": "H" 
			},
			{
				"x": 1.1063020964,
				"y": -0.7943977256,
				"z": 2.8687353057,
				"element": "H" 
			},
			{
				"x": 0.6457262528,
				"y": -1.8316683648,
				"z": 1.5110758481,
				"element": "H" 
			},
			{
				"x": 1.8659323045,
				"y": -0.5674853969,
				"z": 1.2903259121,
				"element": "H" 
			},
			{
				"x": -0.8754127166,
				"y": -0.5707973788,
				"z": -0.8712964905,
				"element": "H" 
			},
			{
				"x": -1.9047036756,
				"y": 0.8004950852,
				"z": -0.5565516407,
				"element": "H" 
			},
			{
				"x": 0.0304097304,
				"y": 2.3804099086,
				"z": -1.0652109368,
				"element": "H" 
			},
			{
				"x": -0.5584591201,
				"y": 1.4407886922,
				"z": -2.4140380014,
				"element": "H" 
			},
			{
				"x": 2.9303154778,
				"y": 1.1643240251,
				"z": 0.258871819,
				"element": "H" 
			},
			{
				"x": 3.0254889487,
				"y": 2.604093633,
				"z": -0.7563708593,
				"element": "H" 
			},
			{
				"x": 4.0610666889,
				"y": 1.2111396622,
				"z": -1.1062677886,
				"element": "H" 
			},
			{
				"x": 2.8826696743,
				"y": -1.3000793556,
				"z": -2.530373597,
				"element": "H" 
			},
			{
				"x": 1.7502208683,
				"y": -1.5652652215,
				"z": -1.1962637506,
				"element": "H" 
			},
			{
				"x": 1.1478023608,
				"y": -1.412489433,
				"z": -2.8562552478,
				"element": "H" 
			}
		],
		 "valence_orbital": [ 
			{
				"type": "occ",
				"energy": -0.31984,
				"method": "rhf"
			},
			{
				"type": "occ",
				"energy": -0.2994,
				"method": "rhf"
			},
			{
				"type": "occ",
				"energy": -0.29275,
				"method": "rhf"
			},
			{
				"type": "occ",
				"energy": -0.29149,
				"method": "rhf"
			},
			{
				"type": "occ",
				"energy": -0.28318,
				"method": "rhf"
			},
			{
				"type": "unocc",
				"energy": 0.03258,
				"method": "rhf"
			},
			{
				"type": "unocc",
				"energy": 0.03566,
				"method": "rhf"
			},
			{
				"type": "unocc",
				"energy": 0.05285,
				"method": "rhf"
			},
			{
				"type": "unocc",
				"energy": 0.06884,
				"method": "rhf"
			},
			{
				"type": "unocc",
				"energy": 0.07677,
				"method": "rhf"
			}
		],
		"cosmo_sigma_profile": { 
			"-0.025": 0.0,
			"-0.024": 0.0,
			"-0.023": 0.0,
			"-0.022": 0.0,
			"-0.021": 0.0,
			"-0.02": 0.0,
			"-0.019": 0.0,
			"-0.018": 0.0,
			"-0.017": 0.0,
			"-0.016": 0.0,
			"-0.015": 0.0,
			"-0.014": 0.0,
			"-0.013": 0.0,
			"-0.012": 0.0,
			"-0.011": 0.0,
			"-0.01": 0.0,
			"-0.009": 0.0,
			"-0.008": 0.0,
			"-0.007": 0.0,
			"-0.006": 0.810405872278,
			"-0.005": 12.0821637692,
			"-0.004": 30.6361189952,
			"-0.003": 34.5449174887,
			"-0.002": 29.219929835,
			"-0.001": 26.1960380538,
			"0.0": 31.170141691,
			"0.001": 19.556234422,
			"0.002": 11.7847276916,
			"0.003": 10.954707253,
			"0.004": 11.2880973901,
			"0.005": 12.5119678394,
			"0.006": 17.4104913781,
			"0.007": 12.7608273356,
			"0.008": 0.0219340820091,
			"0.009": 0.0,
			"0.01": 0.0,
			"0.011": 0.0,
			"0.012": 0.0,
			"0.013": 0.0,
			"0.014": 0.0,
			"0.015": 0.0,
			"0.016": 0.0,
			"0.017": 0.0,
			"0.018": 0.0,
			"0.019": 0.0,
			"0.02": 0.0,
			"0.021": 0.0,
			"0.022": 0.0,
			"0.023": 0.0,
			"0.024": 0.0,
			"0.025": 0.0
		}
	}
}
