{
	 "smiles": "CCN(CC)C(=O)C(C)OC1=C2C=CC=CC2=CC=C1", 
	 "Tm": 348.15, 
	 "num_atms": 41, 
	 "gaussian": { 
		 "optdone": 1, 
		 "sigma_profile": "yes", 
		 "theory": "DFT", 
		 "functional": "B3LYP", 
		 "basiset": "6-31G**", 
		 "properties": { 
			 "R2extent": 6231.4993, 
			 "electric_dipole_moment_norm": 2.63716311782, 
			 "electric_quadrupole_moment_norm": 11.6318404141, 
			 "total_energy": -865.688678503, 
			 "HOMO_LUMO_gap": 0.16955, 
			 "cosmo_polarized_energy": -11.13, 
			 "cosmo_cavitation_energy": 41.63, 
			 "cosmo_dispersion_energy": -27.84, 
			 "cosmo_repulsion_energy": 2.13, 
			 "cosmo_total_nonelectrostatic_energy": 15.92, 
			 "SMD_solvation_energy": 7.12 
		},
		"coords": [
			{
				"x": -1.799906485,
				"y": -0.0320549785,
				"z": 2.879250928,
				"element": "C" 
			},
			{
				"x": -2.3074196479,
				"y": 1.3105227286,
				"z": 2.3457374783,
				"element": "C" 
			},
			{
				"x": -1.8349396714,
				"y": 1.6346874735,
				"z": 0.9885220118,
				"element": "N" 
			},
			{
				"x": -0.7943240756,
				"y": 2.6610465621,
				"z": 0.8610118786,
				"element": "C" 
			},
			{
				"x": 0.5809905804,
				"y": 2.216420101,
				"z": 1.3680444456,
				"element": "C" 
			},
			{
				"x": -2.4636032649,
				"y": 1.0002667732,
				"z": -0.0450027866,
				"element": "C" 
			},
			{
				"x": -3.3743418197,
				"y": 0.1935193006,
				"z": 0.1502665921,
				"element": "O" 
			},
			{
				"x": -2.0372521266,
				"y": 1.3459631403,
				"z": -1.4960492309,
				"element": "C" 
			},
			{
				"x": -2.9223074256,
				"y": 0.667697503,
				"z": -2.5359273823,
				"element": "C" 
			},
			{
				"x": -0.6319637036,
				"y": 1.157496942,
				"z": -1.7416998019,
				"element": "O" 
			},
			{
				"x": -0.035376471,
				"y": -0.0784992953,
				"z": -1.693675737,
				"element": "C" 
			},
			{
				"x": 1.3027429495,
				"y": -0.0986187101,
				"z": -2.2104820283,
				"element": "C" 
			},
			{
				"x": 1.9225357773,
				"y": 1.0586794123,
				"z": -2.751192704,
				"element": "C" 
			},
			{
				"x": 3.211519835,
				"y": 1.0047898281,
				"z": -3.2357268306,
				"element": "C" 
			},
			{
				"x": 3.9381626509,
				"y": -0.2087587953,
				"z": -3.2017138498,
				"element": "C" 
			},
			{
				"x": 3.3593761182,
				"y": -1.3467625801,
				"z": -2.6861055637,
				"element": "C" 
			},
			{
				"x": 2.0324009829,
				"y": -1.3305111202,
				"z": -2.1781804948,
				"element": "C" 
			},
			{
				"x": 1.415557793,
				"y": -2.4960199977,
				"z": -1.6469099869,
				"element": "C" 
			},
			{
				"x": 0.130181143,
				"y": -2.4357541105,
				"z": -1.1665005197,
				"element": "C" 
			},
			{
				"x": -0.6088381255,
				"y": -1.2267134039,
				"z": -1.1821351007,
				"element": "C" 
			},
			{
				"x": -2.1867056752,
				"y": -0.2001630746,
				"z": 3.890210988,
				"element": "H" 
			},
			{
				"x": -2.1503280124,
				"y": -0.8448730536,
				"z": 2.2401935888,
				"element": "H" 
			},
			{
				"x": -0.7075456171,
				"y": -0.0647614558,
				"z": 2.9211148977,
				"element": "H" 
			},
			{
				"x": -3.4008739909,
				"y": 1.3001551274,
				"z": 2.324753591,
				"element": "H" 
			},
			{
				"x": -1.9893737297,
				"y": 2.1289248448,
				"z": 2.9995674367,
				"element": "H" 
			},
			{
				"x": -0.7073360325,
				"y": 2.9535499751,
				"z": -0.1836973532,
				"element": "H" 
			},
			{
				"x": -1.1269341673,
				"y": 3.5467422859,
				"z": 1.4193676515,
				"element": "H" 
			},
			{
				"x": 0.5578561393,
				"y": 1.9629549692,
				"z": 2.4321579715,
				"element": "H" 
			},
			{
				"x": 0.9362617096,
				"y": 1.3455781131,
				"z": 0.8116068593,
				"element": "H" 
			},
			{
				"x": 1.3038544715,
				"y": 3.0282555208,
				"z": 1.2353291821,
				"element": "H" 
			},
			{
				"x": -2.1489483562,
				"y": 2.4294630327,
				"z": -1.6188464804,
				"element": "H" 
			},
			{
				"x": -3.9601102407,
				"y": 0.9732441454,
				"z": -2.3850669315,
				"element": "H" 
			},
			{
				"x": -2.8854071676,
				"y": -0.41916551,
				"z": -2.4698697815,
				"element": "H" 
			},
			{
				"x": -2.6007662767,
				"y": 0.9773624166,
				"z": -3.5340674281,
				"element": "H" 
			},
			{
				"x": 1.360420256,
				"y": 1.9847180524,
				"z": -2.7795933201,
				"element": "H" 
			},
			{
				"x": 3.6731690713,
				"y": 1.8972391859,
				"z": -3.6485812111,
				"element": "H" 
			},
			{
				"x": 4.9537835525,
				"y": -0.2401601134,
				"z": -3.5860533855,
				"element": "H" 
			},
			{
				"x": 3.9125173243,
				"y": -2.2822139303,
				"z": -2.660338687,
				"element": "H" 
			},
			{
				"x": 1.9740609838,
				"y": -3.4276036447,
				"z": -1.6287536349,
				"element": "H" 
			},
			{
				"x": -0.3430424044,
				"y": -3.3252778473,
				"z": -0.7606233302,
				"element": "H" 
			},
			{
				"x": -1.615446851,
				"y": -1.2199658128,
				"z": -0.7848419403,
				"element": "H" 
			}
		],
		 "valence_orbital": [ 
			{
				"type": "occ",
				"energy": -0.26289,
				"method": "rhf"
			},
			{
				"type": "occ",
				"energy": -0.24504,
				"method": "rhf"
			},
			{
				"type": "occ",
				"energy": -0.24119,
				"method": "rhf"
			},
			{
				"type": "occ",
				"energy": -0.2386,
				"method": "rhf"
			},
			{
				"type": "occ",
				"energy": -0.19871,
				"method": "rhf"
			},
			{
				"type": "unocc",
				"energy": -0.02916,
				"method": "rhf"
			},
			{
				"type": "unocc",
				"energy": -0.00525,
				"method": "rhf"
			},
			{
				"type": "unocc",
				"energy": 0.01069,
				"method": "rhf"
			},
			{
				"type": "unocc",
				"energy": 0.0441,
				"method": "rhf"
			},
			{
				"type": "unocc",
				"energy": 0.08141,
				"method": "rhf"
			}
		],
		"cosmo_sigma_profile": { 
			"-0.025": 0.0,
			"-0.024": 0.0,
			"-0.023": 0.0,
			"-0.022": 0.0,
			"-0.021": 0.0,
			"-0.02": 0.0,
			"-0.019": 0.0,
			"-0.018": 0.0,
			"-0.017": 0.0,
			"-0.016": 0.0,
			"-0.015": 0.0,
			"-0.014": 0.0,
			"-0.013": 0.0,
			"-0.012": 0.0,
			"-0.011": 0.0,
			"-0.01": 0.0,
			"-0.009": 0.0,
			"-0.008": 0.918917457615,
			"-0.007": 3.58099301377,
			"-0.006": 8.28315194622,
			"-0.005": 21.2320567308,
			"-0.004": 28.9940173447,
			"-0.003": 37.0855993168,
			"-0.002": 33.281370572,
			"-0.001": 30.6709649115,
			"0.0": 32.1641883985,
			"0.001": 29.548175203,
			"0.002": 20.9381476858,
			"0.003": 20.1282346579,
			"0.004": 20.5225231914,
			"0.005": 19.7726301845,
			"0.006": 7.06314896861,
			"0.007": 1.39703119686,
			"0.008": 0.992983951297,
			"0.009": 2.01178915305,
			"0.01": 1.5490299244,
			"0.011": 1.01590142129,
			"0.012": 1.47998788154,
			"0.013": 2.5942121677,
			"0.014": 3.10636820773,
			"0.015": 0.09370914405,
			"0.016": 0.0,
			"0.017": 0.0,
			"0.018": 0.0,
			"0.019": 0.0,
			"0.02": 0.0,
			"0.021": 0.0,
			"0.022": 0.0,
			"0.023": 0.0,
			"0.024": 0.0,
			"0.025": 0.0
		}
	}
}
