{
	 "smiles": "BrCCC(=O)N1CCN(CC1)C(=O)CCBr", 
	 "Tm": 379.15, 
	 "num_atms": 32, 
	 "gaussian": { 
		 "optdone": 1, 
		 "sigma_profile": "yes", 
		 "theory": "DFT", 
		 "functional": "B3LYP", 
		 "basiset": "6-31G**", 
		 "properties": { 
			 "R2extent": 10643.0285, 
			 "electric_dipole_moment_norm": 6.59302849607, 
			 "electric_quadrupole_moment_norm": 15.7283118557, 
			 "total_energy": -5793.49006966, 
			 "HOMO_LUMO_gap": 0.23067, 
			 "cosmo_polarized_energy": -28.06, 
			 "cosmo_cavitation_energy": 38.14, 
			 "cosmo_dispersion_energy": -26.69, 
			 "cosmo_repulsion_energy": 2.1, 
			 "cosmo_total_nonelectrostatic_energy": 13.54, 
			 "SMD_solvation_energy": 3.83 
		},
		"coords": [
			{
				"x": -3.9991706734,
				"y": -1.6965664681,
				"z": -2.1860838801,
				"element": "Br" 
			},
			{
				"x": -3.8863610474,
				"y": -0.9621241542,
				"z": -0.3541493908,
				"element": "C" 
			},
			{
				"x": -4.1565675951,
				"y": 0.5403999152,
				"z": -0.2989610692,
				"element": "C" 
			},
			{
				"x": -3.2461537008,
				"y": 1.4118884395,
				"z": -1.1714991962,
				"element": "C" 
			},
			{
				"x": -3.6931943959,
				"y": 1.9346952573,
				"z": -2.1837832899,
				"element": "O" 
			},
			{
				"x": -1.9267373068,
				"y": 1.5653371394,
				"z": -0.7983434959,
				"element": "N" 
			},
			{
				"x": -1.323674336,
				"y": 1.1629505438,
				"z": 0.4650830273,
				"element": "C" 
			},
			{
				"x": 0.0041641988,
				"y": 0.4280069214,
				"z": 0.2134066665,
				"element": "C" 
			},
			{
				"x": 0.8830449784,
				"y": 1.2413828156,
				"z": -0.6163624965,
				"element": "N" 
			},
			{
				"x": 0.2766388306,
				"y": 1.6516501483,
				"z": -1.8869248564,
				"element": "C" 
			},
			{
				"x": -1.0427436355,
				"y": 2.3821632258,
				"z": -1.6357116095,
				"element": "C" 
			},
			{
				"x": 2.2286276611,
				"y": 1.4719337175,
				"z": -0.4150462895,
				"element": "C" 
			},
			{
				"x": 2.921017971,
				"y": 2.0198518996,
				"z": -1.2625181836,
				"element": "O" 
			},
			{
				"x": 2.8511631937,
				"y": 1.0494857251,
				"z": 0.9204525439,
				"element": "C" 
			},
			{
				"x": 2.447157719,
				"y": 1.8860468086,
				"z": 2.1331259508,
				"element": "C" 
			},
			{
				"x": 2.8664113881,
				"y": 3.8057291808,
				"z": 1.9164749141,
				"element": "Br" 
			},
			{
				"x": -4.6303493185,
				"y": -1.5114128975,
				"z": 0.2219766927,
				"element": "H" 
			},
			{
				"x": -2.8915174558,
				"y": -1.2344342055,
				"z": -0.0040585471,
				"element": "H" 
			},
			{
				"x": -5.1680214289,
				"y": 0.7426044672,
				"z": -0.654465583,
				"element": "H" 
			},
			{
				"x": -4.1107171713,
				"y": 0.8483737142,
				"z": 0.7545010619,
				"element": "H" 
			},
			{
				"x": -1.996294977,
				"y": 0.5152224548,
				"z": 1.0267902003,
				"element": "H" 
			},
			{
				"x": -1.1244960754,
				"y": 2.054330414,
				"z": 1.0801670394,
				"element": "H" 
			},
			{
				"x": -0.2087569867,
				"y": -0.5249052867,
				"z": -0.2958545667,
				"element": "H" 
			},
			{
				"x": 0.4768853709,
				"y": 0.1967352505,
				"z": 1.1676523051,
				"element": "H" 
			},
			{
				"x": 0.0935547693,
				"y": 0.7641563288,
				"z": -2.5093225853,
				"element": "H" 
			},
			{
				"x": 0.9922075486,
				"y": 2.2933335203,
				"z": -2.4002639697,
				"element": "H" 
			},
			{
				"x": -1.5674079007,
				"y": 2.5824012881,
				"z": -2.5694950293,
				"element": "H" 
			},
			{
				"x": -0.8439507638,
				"y": 3.3395948721,
				"z": -1.1334478116,
				"element": "H" 
			},
			{
				"x": 3.9288068606,
				"y": 1.1247504568,
				"z": 0.7677278889,
				"element": "H" 
			},
			{
				"x": 2.6243596631,
				"y": -0.0005477623,
				"z": 1.1499773652,
				"element": "H" 
			},
			{
				"x": 2.9940276243,
				"y": 1.5710824153,
				"z": 3.0213188597,
				"element": "H" 
			},
			{
				"x": 1.3785469917,
				"y": 1.8544838544,
				"z": 2.3417373343,
				"element": "H" 
			}
		],
		 "valence_orbital": [ 
			{
				"type": "occ",
				"energy": -0.27841,
				"method": "rhf"
			},
			{
				"type": "occ",
				"energy": -0.26566,
				"method": "rhf"
			},
			{
				"type": "occ",
				"energy": -0.25711,
				"method": "rhf"
			},
			{
				"type": "occ",
				"energy": -0.25268,
				"method": "rhf"
			},
			{
				"type": "occ",
				"energy": -0.24115,
				"method": "rhf"
			},
			{
				"type": "unocc",
				"energy": -0.01048,
				"method": "rhf"
			},
			{
				"type": "unocc",
				"energy": -0.00845,
				"method": "rhf"
			},
			{
				"type": "unocc",
				"energy": 0.00999,
				"method": "rhf"
			},
			{
				"type": "unocc",
				"energy": 0.01365,
				"method": "rhf"
			},
			{
				"type": "unocc",
				"energy": 0.05157,
				"method": "rhf"
			}
		],
		"cosmo_sigma_profile": { 
			"-0.025": 0.0,
			"-0.024": 0.0,
			"-0.023": 0.0,
			"-0.022": 0.0,
			"-0.021": 0.0,
			"-0.02": 0.0,
			"-0.019": 0.0,
			"-0.018": 0.0,
			"-0.017": 0.0,
			"-0.016": 0.0,
			"-0.015": 0.0,
			"-0.014": 0.0,
			"-0.013": 0.0,
			"-0.012": 0.0,
			"-0.011": 0.0,
			"-0.01": 1.33933836436,
			"-0.009": 6.28782141045,
			"-0.008": 10.8746878815,
			"-0.007": 18.3246421047,
			"-0.006": 19.6665382869,
			"-0.005": 29.3846459242,
			"-0.004": 31.1752824978,
			"-0.003": 24.5993274358,
			"-0.002": 15.9197394222,
			"-0.001": 12.5632664968,
			"0.0": 11.7165250692,
			"0.001": 9.82286241135,
			"0.002": 10.5143795189,
			"0.003": 10.089490965,
			"0.004": 12.1666272715,
			"0.005": 15.2087017178,
			"0.006": 22.6887120942,
			"0.007": 7.40233306926,
			"0.008": 3.59574271182,
			"0.009": 3.93591906282,
			"0.01": 4.9766096972,
			"0.011": 3.48505580431,
			"0.012": 3.94254636526,
			"0.013": 8.5162963113,
			"0.014": 6.30121185999,
			"0.015": 1.2864919126,
			"0.016": 0.0,
			"0.017": 0.0,
			"0.018": 0.0,
			"0.019": 0.0,
			"0.02": 0.0,
			"0.021": 0.0,
			"0.022": 0.0,
			"0.023": 0.0,
			"0.024": 0.0,
			"0.025": 0.0
		}
	}
}
