{
	 "smiles": "COC(=O)CC[C@H](C)[C@H]1CCC2C3C(CC(=O)[C@]12C)[C@@]1(C)CCC(=O)C[C@H]1CC3=O", 
	 "Tm": 515.15, 
	 "num_atms": 66, 
	 "gaussian": { 
		 "optdone": 1, 
		 "sigma_profile": "yes", 
		 "theory": "DFT", 
		 "functional": "B3LYP", 
		 "basiset": "6-31G**", 
		 "properties": { 
			 "R2extent": 17411.2137, 
			 "electric_dipole_moment_norm": 4.70215257409, 
			 "electric_quadrupole_moment_norm": 21.0961442356, 
			 "total_energy": -1350.48354595, 
			 "HOMO_LUMO_gap": 0.20636, 
			 "cosmo_polarized_energy": -25.56, 
			 "cosmo_cavitation_energy": 58.53, 
			 "cosmo_dispersion_energy": -39.15, 
			 "cosmo_repulsion_energy": 2.85, 
			 "cosmo_total_nonelectrostatic_energy": 22.23, 
			 "SMD_solvation_energy": 11.24 
		},
		"coords": [
			{
				"x": 1.1406133667,
				"y": 1.8710165245,
				"z": -8.2407137658,
				"element": "C" 
			},
			{
				"x": 0.6579352905,
				"y": 2.3962294784,
				"z": -6.9926093523,
				"element": "O" 
			},
			{
				"x": -0.3998329431,
				"y": 1.7405259301,
				"z": -6.4610271413,
				"element": "C" 
			},
			{
				"x": -0.9044414713,
				"y": 0.7650511518,
				"z": -6.9750590436,
				"element": "O" 
			},
			{
				"x": -0.8819277896,
				"y": 2.4080439107,
				"z": -5.1862674068,
				"element": "C" 
			},
			{
				"x": -1.4346357646,
				"y": 1.4200766875,
				"z": -4.1446511776,
				"element": "C" 
			},
			{
				"x": -0.3812626735,
				"y": 0.7940041191,
				"z": -3.1996954555,
				"element": "C" 
			},
			{
				"x": 0.6791871407,
				"y": 0.0099270281,
				"z": -3.9914859558,
				"element": "C" 
			},
			{
				"x": -1.1161637175,
				"y": -0.0459941143,
				"z": -2.100303271,
				"element": "C" 
			},
			{
				"x": -0.3706397643,
				"y": -1.2995840834,
				"z": -1.5818908036,
				"element": "C" 
			},
			{
				"x": 0.5554747759,
				"y": -0.8118177724,
				"z": -0.4423914935,
				"element": "C" 
			},
			{
				"x": 0.0273815432,
				"y": 0.6031959858,
				"z": -0.040175212,
				"element": "C" 
			},
			{
				"x": 0.0081642517,
				"y": 0.9503758674,
				"z": 1.4764030733,
				"element": "C" 
			},
			{
				"x": -1.3260528774,
				"y": 0.5604663095,
				"z": 2.2143101701,
				"element": "C" 
			},
			{
				"x": -2.0640821343,
				"y": -0.5532390047,
				"z": 1.438690267,
				"element": "C" 
			},
			{
				"x": -2.42203189,
				"y": -0.0657360909,
				"z": 0.0365537413,
				"element": "C" 
			},
			{
				"x": -3.5285844357,
				"y": -0.2629521963,
				"z": -0.4304516962,
				"element": "O" 
			},
			{
				"x": -1.3493942127,
				"y": 0.7212965393,
				"z": -0.7480866849,
				"element": "C" 
			},
			{
				"x": -1.860784449,
				"y": 2.1689711206,
				"z": -0.8736951526,
				"element": "C" 
			},
			{
				"x": -1.1991490202,
				"y": 0.4231690087,
				"z": 3.7824238144,
				"element": "C" 
			},
			{
				"x": -1.2536214712,
				"y": 1.8653277139,
				"z": 4.3519900552,
				"element": "C" 
			},
			{
				"x": -2.3870602185,
				"y": -0.3390391295,
				"z": 4.4387158794,
				"element": "C" 
			},
			{
				"x": -2.3561737961,
				"y": -1.88353599,
				"z": 4.3889819582,
				"element": "C" 
			},
			{
				"x": -0.9855679475,
				"y": -2.472633528,
				"z": 4.6777807659,
				"element": "C" 
			},
			{
				"x": -0.823652482,
				"y": -3.4345060083,
				"z": 5.4037264357,
				"element": "O" 
			},
			{
				"x": 0.1698322502,
				"y": -1.7680928004,
				"z": 3.9860491022,
				"element": "C" 
			},
			{
				"x": 0.1273538658,
				"y": -0.2450731935,
				"z": 4.24616035,
				"element": "C" 
			},
			{
				"x": 1.3606490001,
				"y": 0.4512719016,
				"z": 3.6531287283,
				"element": "C" 
			},
			{
				"x": 1.3290293846,
				"y": 0.5382018633,
				"z": 2.1397252355,
				"element": "C" 
			},
			{
				"x": 2.342211878,
				"y": 0.379470759,
				"z": 1.4823232978,
				"element": "O" 
			},
			{
				"x": 0.3586787089,
				"y": 1.9090660024,
				"z": -9.003443527,
				"element": "H" 
			},
			{
				"x": 1.4646392284,
				"y": 0.8340895521,
				"z": -8.1224289243,
				"element": "H" 
			},
			{
				"x": 1.981112602,
				"y": 2.505362247,
				"z": -8.5222443726,
				"element": "H" 
			},
			{
				"x": -1.6834082783,
				"y": 3.0905455063,
				"z": -5.4991442262,
				"element": "H" 
			},
			{
				"x": -0.0834712319,
				"y": 3.0365448638,
				"z": -4.7796450163,
				"element": "H" 
			},
			{
				"x": -1.9617712683,
				"y": 0.6206306489,
				"z": -4.6786114402,
				"element": "H" 
			},
			{
				"x": -2.1872461173,
				"y": 1.9378113759,
				"z": -3.5436204438,
				"element": "H" 
			},
			{
				"x": 0.1539577826,
				"y": 1.6206492997,
				"z": -2.7103320549,
				"element": "H" 
			},
			{
				"x": 1.460078244,
				"y": -0.3896322551,
				"z": -3.338398996,
				"element": "H" 
			},
			{
				"x": 1.1814929565,
				"y": 0.6631742529,
				"z": -4.7117822953,
				"element": "H" 
			},
			{
				"x": 0.2384869794,
				"y": -0.8214730675,
				"z": -4.5517918324,
				"element": "H" 
			},
			{
				"x": -2.0910459795,
				"y": -0.3401065577,
				"z": -2.5026131807,
				"element": "H" 
			},
			{
				"x": -1.1170448908,
				"y": -2.0001549778,
				"z": -1.1886257256,
				"element": "H" 
			},
			{
				"x": 0.1669458233,
				"y": -1.8432018506,
				"z": -2.3601385454,
				"element": "H" 
			},
			{
				"x": 0.5591395372,
				"y": -1.5146090241,
				"z": 0.3968556182,
				"element": "H" 
			},
			{
				"x": 1.5963126057,
				"y": -0.7360512757,
				"z": -0.7619606473,
				"element": "H" 
			},
			{
				"x": 0.6977162942,
				"y": 1.3319166528,
				"z": -0.5065845559,
				"element": "H" 
			},
			{
				"x": 0.0685926399,
				"y": 2.0488078353,
				"z": 1.5467715732,
				"element": "H" 
			},
			{
				"x": -1.987915371,
				"y": 1.4277474767,
				"z": 2.0931418776,
				"element": "H" 
			},
			{
				"x": -1.4635398928,
				"y": -1.4659048903,
				"z": 1.3464354333,
				"element": "H" 
			},
			{
				"x": -3.0097150868,
				"y": -0.8228208452,
				"z": 1.9099909895,
				"element": "H" 
			},
			{
				"x": -1.9522060407,
				"y": 2.647059789,
				"z": 0.1080556811,
				"element": "H" 
			},
			{
				"x": -1.1769550112,
				"y": 2.781765758,
				"z": -1.4675948855,
				"element": "H" 
			},
			{
				"x": -2.849396813,
				"y": 2.1869883909,
				"z": -1.3390048929,
				"element": "H" 
			},
			{
				"x": -1.0245404025,
				"y": 1.8771770061,
				"z": 5.4230020724,
				"element": "H" 
			},
			{
				"x": -0.5528031593,
				"y": 2.5424193248,
				"z": 3.854584403,
				"element": "H" 
			},
			{
				"x": -2.2565847839,
				"y": 2.2859487898,
				"z": 4.2223047324,
				"element": "H" 
			},
			{
				"x": -2.3994618445,
				"y": -0.0484840631,
				"z": 5.4967868863,
				"element": "H" 
			},
			{
				"x": -3.3347137603,
				"y": 0.0236766871,
				"z": 4.0225218763,
				"element": "H" 
			},
			{
				"x": -2.646163558,
				"y": -2.2474796462,
				"z": 3.3959936019,
				"element": "H" 
			},
			{
				"x": -3.0693430461,
				"y": -2.3078329991,
				"z": 5.1009458028,
				"element": "H" 
			},
			{
				"x": 1.1057435105,
				"y": -2.2007222048,
				"z": 4.3507651094,
				"element": "H" 
			},
			{
				"x": 0.1131987769,
				"y": -1.9747661406,
				"z": 2.9081451558,
				"element": "H" 
			},
			{
				"x": 0.1746782195,
				"y": -0.117490408,
				"z": 5.3371009331,
				"element": "H" 
			},
			{
				"x": 1.4261341966,
				"y": 1.47841131,
				"z": 4.0363753348,
				"element": "H" 
			},
			{
				"x": 2.2882447416,
				"y": -0.0516805514,
				"z": 3.9410292196,
				"element": "H" 
			}
		],
		 "valence_orbital": [ 
			{
				"type": "occ",
				"energy": -0.3007,
				"method": "rhf"
			},
			{
				"type": "occ",
				"energy": -0.26995,
				"method": "rhf"
			},
			{
				"type": "occ",
				"energy": -0.2494,
				"method": "rhf"
			},
			{
				"type": "occ",
				"energy": -0.24354,
				"method": "rhf"
			},
			{
				"type": "occ",
				"energy": -0.24007,
				"method": "rhf"
			},
			{
				"type": "unocc",
				"energy": -0.03371,
				"method": "rhf"
			},
			{
				"type": "unocc",
				"energy": -0.02443,
				"method": "rhf"
			},
			{
				"type": "unocc",
				"energy": -0.01476,
				"method": "rhf"
			},
			{
				"type": "unocc",
				"energy": 0.01317,
				"method": "rhf"
			},
			{
				"type": "unocc",
				"energy": 0.05161,
				"method": "rhf"
			}
		],
		"cosmo_sigma_profile": { 
			"-0.025": 0.0,
			"-0.024": 0.0,
			"-0.023": 0.0,
			"-0.022": 0.0,
			"-0.021": 0.0,
			"-0.02": 0.0,
			"-0.019": 0.0,
			"-0.018": 0.0,
			"-0.017": 0.0,
			"-0.016": 0.0,
			"-0.015": 0.0,
			"-0.014": 0.0,
			"-0.013": 0.0,
			"-0.012": 0.0837137011949,
			"-0.011": 0.319202508737,
			"-0.01": 0.627433061969,
			"-0.009": 1.17829677802,
			"-0.008": 2.91985691121,
			"-0.007": 5.89063108191,
			"-0.006": 17.8894222905,
			"-0.005": 32.1914026528,
			"-0.004": 52.3882207641,
			"-0.003": 59.8973579392,
			"-0.002": 56.2386239768,
			"-0.001": 45.4917288766,
			"0.0": 35.6659805757,
			"0.001": 27.9467735841,
			"0.002": 12.101469027,
			"0.003": 9.64590405768,
			"0.004": 8.4063964294,
			"0.005": 7.50965750455,
			"0.006": 8.31660567945,
			"0.007": 8.00708995192,
			"0.008": 7.13467706624,
			"0.009": 7.25240593748,
			"0.01": 7.68422707003,
			"0.011": 10.3699112622,
			"0.012": 16.0691006696,
			"0.013": 9.16460121538,
			"0.014": 1.0524151233,
			"0.015": 0.0,
			"0.016": 0.0,
			"0.017": 0.0,
			"0.018": 0.0,
			"0.019": 0.0,
			"0.02": 0.0,
			"0.021": 0.0,
			"0.022": 0.0,
			"0.023": 0.0,
			"0.024": 0.0,
			"0.025": 0.0
		}
	}
}
