{
	 "smiles": "O=C(CC1=CC=CC=C1)C(=O)CC1=CC=CC=C1", 
	 "Tm": 359.15, 
	 "num_atms": 32, 
	 "gaussian": { 
		 "optdone": 1, 
		 "sigma_profile": "yes", 
		 "theory": "DFT", 
		 "functional": "B3LYP", 
		 "basiset": "6-31G**", 
		 "properties": { 
			 "R2extent": 5742.6182, 
			 "electric_dipole_moment_norm": 4.32678470692, 
			 "electric_quadrupole_moment_norm": 17.8978498572, 
			 "total_energy": -768.569960497, 
			 "HOMO_LUMO_gap": 0.16121, 
			 "cosmo_polarized_energy": -13.57, 
			 "cosmo_cavitation_energy": 36.5, 
			 "cosmo_dispersion_energy": -24.39, 
			 "cosmo_repulsion_energy": 1.9, 
			 "cosmo_total_nonelectrostatic_energy": 14.01, 
			 "SMD_solvation_energy": 7.06 
		},
		"coords": [
			{
				"x": -0.0314066806,
				"y": -2.0574436061,
				"z": -2.7859237286,
				"element": "O" 
			},
			{
				"x": 0.1955288092,
				"y": -1.3725793345,
				"z": -1.8120108531,
				"element": "C" 
			},
			{
				"x": 0.3064763866,
				"y": 0.1477074456,
				"z": -1.8816891817,
				"element": "C" 
			},
			{
				"x": -0.6889848069,
				"y": 0.8521620819,
				"z": -0.9757779967,
				"element": "C" 
			},
			{
				"x": -0.2783429282,
				"y": 1.8670830438,
				"z": -0.1012794993,
				"element": "C" 
			},
			{
				"x": -1.2009543494,
				"y": 2.5215916081,
				"z": 0.7170120819,
				"element": "C" 
			},
			{
				"x": -2.5494536528,
				"y": 2.1644216659,
				"z": 0.6757490936,
				"element": "C" 
			},
			{
				"x": -2.9696868148,
				"y": 1.1528632907,
				"z": -0.1903800288,
				"element": "C" 
			},
			{
				"x": -2.0472538406,
				"y": 0.5023940335,
				"z": -1.0100593574,
				"element": "C" 
			},
			{
				"x": 0.3297716779,
				"y": -2.0724289829,
				"z": -0.425010873,
				"element": "C" 
			},
			{
				"x": -0.3894546337,
				"y": -3.0172120887,
				"z": -0.1817931225,
				"element": "O" 
			},
			{
				"x": 1.3917811849,
				"y": -1.5729315075,
				"z": 0.5502219076,
				"element": "C" 
			},
			{
				"x": 2.7894959607,
				"y": -1.587287523,
				"z": -0.044858032,
				"element": "C" 
			},
			{
				"x": 3.275986522,
				"y": -2.7397771411,
				"z": -0.6800769337,
				"element": "C" 
			},
			{
				"x": 4.5627283263,
				"y": -2.7653815785,
				"z": -1.2181119628,
				"element": "C" 
			},
			{
				"x": 5.3843842264,
				"y": -1.6398009158,
				"z": -1.1286583556,
				"element": "C" 
			},
			{
				"x": 4.9112909482,
				"y": -0.4883901965,
				"z": -0.4976721163,
				"element": "C" 
			},
			{
				"x": 3.6218878691,
				"y": -0.4630852024,
				"z": 0.0371222558,
				"element": "C" 
			},
			{
				"x": 1.3286913328,
				"y": 0.4372376288,
				"z": -1.6112555565,
				"element": "H" 
			},
			{
				"x": 0.1522537085,
				"y": 0.4200599893,
				"z": -2.9309778705,
				"element": "H" 
			},
			{
				"x": 0.7698342586,
				"y": 2.1551815364,
				"z": -0.0701262026,
				"element": "H" 
			},
			{
				"x": -0.8653388228,
				"y": 3.3092291741,
				"z": 1.3856307216,
				"element": "H" 
			},
			{
				"x": -3.2680987804,
				"y": 2.6705134283,
				"z": 1.3136068241,
				"element": "H" 
			},
			{
				"x": -4.0171597249,
				"y": 0.868235754,
				"z": -0.2283104525,
				"element": "H" 
			},
			{
				"x": -2.3833240754,
				"y": -0.2817907234,
				"z": -1.6837489311,
				"element": "H" 
			},
			{
				"x": 1.3278189415,
				"y": -2.2183463163,
				"z": 1.4324324881,
				"element": "H" 
			},
			{
				"x": 1.1290129721,
				"y": -0.5559327656,
				"z": 0.8640954786,
				"element": "H" 
			},
			{
				"x": 2.6439944368,
				"y": -3.6213986214,
				"z": -0.7512603696,
				"element": "H" 
			},
			{
				"x": 4.922799812,
				"y": -3.6653269918,
				"z": -1.7081106969,
				"element": "H" 
			},
			{
				"x": 6.3861001941,
				"y": -1.6603824321,
				"z": -1.5476840771,
				"element": "H" 
			},
			{
				"x": 5.5443712182,
				"y": 0.3910310435,
				"z": -0.4209289639,
				"element": "H" 
			},
			{
				"x": 3.2617503248,
				"y": 0.4344842039,
				"z": 0.534434311,
				"element": "H" 
			}
		],
		 "valence_orbital": [ 
			{
				"type": "occ",
				"energy": -0.26063,
				"method": "rhf"
			},
			{
				"type": "occ",
				"energy": -0.26027,
				"method": "rhf"
			},
			{
				"type": "occ",
				"energy": -0.25947,
				"method": "rhf"
			},
			{
				"type": "occ",
				"energy": -0.25695,
				"method": "rhf"
			},
			{
				"type": "occ",
				"energy": -0.23196,
				"method": "rhf"
			},
			{
				"type": "unocc",
				"energy": -0.07075,
				"method": "rhf"
			},
			{
				"type": "unocc",
				"energy": -0.01511,
				"method": "rhf"
			},
			{
				"type": "unocc",
				"energy": -0.01473,
				"method": "rhf"
			},
			{
				"type": "unocc",
				"energy": -0.01166,
				"method": "rhf"
			},
			{
				"type": "unocc",
				"energy": -0.00558,
				"method": "rhf"
			}
		],
		"cosmo_sigma_profile": { 
			"-0.025": 0.0,
			"-0.024": 0.0,
			"-0.023": 0.0,
			"-0.022": 0.0,
			"-0.021": 0.0,
			"-0.02": 0.0,
			"-0.019": 0.0,
			"-0.018": 0.0,
			"-0.017": 0.0,
			"-0.016": 0.0,
			"-0.015": 0.0,
			"-0.014": 0.0,
			"-0.013": 0.0,
			"-0.012": 0.0,
			"-0.011": 0.0,
			"-0.01": 0.0,
			"-0.009": 0.0419303264807,
			"-0.008": 0.540046268596,
			"-0.007": 2.5876195729,
			"-0.006": 21.1549455547,
			"-0.005": 29.7475706532,
			"-0.004": 35.4248965093,
			"-0.003": 28.0159950508,
			"-0.002": 19.7580367131,
			"-0.001": 17.4684236484,
			"0.0": 16.5214543413,
			"0.001": 16.083699387,
			"0.002": 16.2772418388,
			"0.003": 16.1295425912,
			"0.004": 17.9592819341,
			"0.005": 18.7956550855,
			"0.006": 6.36469838192,
			"0.007": 2.49199732781,
			"0.008": 2.45666554404,
			"0.009": 5.56822650612,
			"0.01": 8.3990629229,
			"0.011": 6.84953603649,
			"0.012": 2.66058675402,
			"0.013": 0.0096581352388,
			"0.014": 0.0,
			"0.015": 0.0,
			"0.016": 0.0,
			"0.017": 0.0,
			"0.018": 0.0,
			"0.019": 0.0,
			"0.02": 0.0,
			"0.021": 0.0,
			"0.022": 0.0,
			"0.023": 0.0,
			"0.024": 0.0,
			"0.025": 0.0
		}
	}
}
