{
	 "smiles": "OC(=O)C1=CC(OCC2CCCO2)=CC=C1", 
	 "Tm": 360.15, 
	 "num_atms": 30, 
	 "gaussian": { 
		 "optdone": 1, 
		 "sigma_profile": "yes", 
		 "theory": "DFT", 
		 "functional": "B3LYP", 
		 "basiset": "6-31G**", 
		 "properties": { 
			 "R2extent": 5672.9094, 
			 "electric_dipole_moment_norm": 6.15031581872, 
			 "electric_quadrupole_moment_norm": 24.285470296, 
			 "total_energy": -766.600255614, 
			 "HOMO_LUMO_gap": 0.18812, 
			 "cosmo_polarized_energy": -17.45, 
			 "cosmo_cavitation_energy": 33.28, 
			 "cosmo_dispersion_energy": -24.12, 
			 "cosmo_repulsion_energy": 1.89, 
			 "cosmo_total_nonelectrostatic_energy": 11.06, 
			 "SMD_solvation_energy": 6.52 
		},
		"coords": [
			{
				"x": 3.5938592146,
				"y": -2.9591477049,
				"z": -0.4452691476,
				"element": "O" 
			},
			{
				"x": 3.0958047823,
				"y": -2.7215456848,
				"z": -1.6889945337,
				"element": "C" 
			},
			{
				"x": 3.8148860015,
				"y": -2.8157586213,
				"z": -2.6554432124,
				"element": "O" 
			},
			{
				"x": 1.6433907355,
				"y": -2.3531795422,
				"z": -1.7738611367,
				"element": "C" 
			},
			{
				"x": 0.9439121541,
				"y": -1.8192657002,
				"z": -0.6892766156,
				"element": "C" 
			},
			{
				"x": -0.4108632351,
				"y": -1.4794125057,
				"z": -0.815301636,
				"element": "C" 
			},
			{
				"x": -0.993772721,
				"y": -0.9618348625,
				"z": 0.3011002386,
				"element": "O" 
			},
			{
				"x": -2.3620080017,
				"y": -0.5640325855,
				"z": 0.2431120092,
				"element": "C" 
			},
			{
				"x": -2.762067332,
				"y": 0.0395103039,
				"z": 1.5834964418,
				"element": "C" 
			},
			{
				"x": -2.3412471366,
				"y": -0.7872919234,
				"z": 2.825035915,
				"element": "C" 
			},
			{
				"x": -1.1501480839,
				"y": 0.0073287782,
				"z": 3.386189776,
				"element": "C" 
			},
			{
				"x": -1.5252166831,
				"y": 1.4366158901,
				"z": 2.9929804322,
				"element": "C" 
			},
			{
				"x": -2.14198359,
				"y": 1.323013294,
				"z": 1.710678103,
				"element": "O" 
			},
			{
				"x": -1.0627832169,
				"y": -1.6806178908,
				"z": -2.0382193194,
				"element": "C" 
			},
			{
				"x": -0.3496459245,
				"y": -2.204763758,
				"z": -3.1218229446,
				"element": "C" 
			},
			{
				"x": 0.9951899569,
				"y": -2.5342958651,
				"z": -3.0048353483,
				"element": "C" 
			},
			{
				"x": 2.8714227437,
				"y": -3.0023548483,
				"z": 0.1964269859,
				"element": "H" 
			},
			{
				"x": 1.4239001839,
				"y": -1.6063885049,
				"z": 0.2618759255,
				"element": "H" 
			},
			{
				"x": -2.9989375009,
				"y": -1.4329401323,
				"z": 0.0221082477,
				"element": "H" 
			},
			{
				"x": -2.5060728485,
				"y": 0.1868945673,
				"z": -0.5441863565,
				"element": "H" 
			},
			{
				"x": -3.8554232549,
				"y": 0.167306311,
				"z": 1.5536612674,
				"element": "H" 
			},
			{
				"x": -3.1608899663,
				"y": -0.8150160591,
				"z": 3.5502157941,
				"element": "H" 
			},
			{
				"x": -2.0815523472,
				"y": -1.8170834099,
				"z": 2.5691941025,
				"element": "H" 
			},
			{
				"x": -1.0160820815,
				"y": -0.1195178843,
				"z": 4.464207378,
				"element": "H" 
			},
			{
				"x": -0.2277059279,
				"y": -0.2887539647,
				"z": 2.8791654328,
				"element": "H" 
			},
			{
				"x": -0.669452284,
				"y": 2.1110670396,
				"z": 2.8945356206,
				"element": "H" 
			},
			{
				"x": -2.2277833199,
				"y": 1.8743299699,
				"z": 3.721076737,
				"element": "H" 
			},
			{
				"x": -2.1092821419,
				"y": -1.4282144011,
				"z": -2.1581466827,
				"element": "H" 
			},
			{
				"x": -0.8619762895,
				"y": -2.3514416515,
				"z": -4.0681122077,
				"element": "H" 
			},
			{
				"x": 1.5606281151,
				"y": -2.9306086534,
				"z": -3.8400912661,
				"element": "H" 
			}
		],
		 "valence_orbital": [ 
			{
				"type": "occ",
				"energy": -0.31152,
				"method": "rhf"
			},
			{
				"type": "occ",
				"energy": -0.27445,
				"method": "rhf"
			},
			{
				"type": "occ",
				"energy": -0.26589,
				"method": "rhf"
			},
			{
				"type": "occ",
				"energy": -0.25599,
				"method": "rhf"
			},
			{
				"type": "occ",
				"energy": -0.23544,
				"method": "rhf"
			},
			{
				"type": "unocc",
				"energy": -0.04732,
				"method": "rhf"
			},
			{
				"type": "unocc",
				"energy": -0.00979,
				"method": "rhf"
			},
			{
				"type": "unocc",
				"energy": 0.0535,
				"method": "rhf"
			},
			{
				"type": "unocc",
				"energy": 0.06528,
				"method": "rhf"
			},
			{
				"type": "unocc",
				"energy": 0.07669,
				"method": "rhf"
			}
		],
		"cosmo_sigma_profile": { 
			"-0.025": 0.0,
			"-0.024": 0.0,
			"-0.023": 0.0,
			"-0.022": 0.0,
			"-0.021": 0.0,
			"-0.02": 0.0,
			"-0.019": 0.0966357069465,
			"-0.018": 0.677388103229,
			"-0.017": 1.08634734163,
			"-0.016": 0.96369184664,
			"-0.015": 1.04078962715,
			"-0.014": 0.441704707793,
			"-0.013": 0.71511394575,
			"-0.012": 1.67418938684,
			"-0.011": 1.2370906435,
			"-0.01": 0.823509564677,
			"-0.009": 1.08455658761,
			"-0.008": 1.72673647943,
			"-0.007": 5.08813068997,
			"-0.006": 10.8537868809,
			"-0.005": 17.5542770657,
			"-0.004": 22.2268401509,
			"-0.003": 27.9255492656,
			"-0.002": 24.5971671006,
			"-0.001": 20.3626600574,
			"0.0": 19.1967551302,
			"0.001": 13.8754182646,
			"0.002": 13.6824552764,
			"0.003": 16.070500792,
			"0.004": 11.6630809667,
			"0.005": 6.25604485192,
			"0.006": 4.40335127634,
			"0.007": 4.03804812411,
			"0.008": 4.31764265308,
			"0.009": 5.71795034524,
			"0.01": 5.949524581,
			"0.011": 7.05266912548,
			"0.012": 6.15234128991,
			"0.013": 3.22227147944,
			"0.014": 0.95570293637,
			"0.015": 0.0,
			"0.016": 0.0,
			"0.017": 0.0,
			"0.018": 0.0,
			"0.019": 0.0,
			"0.02": 0.0,
			"0.021": 0.0,
			"0.022": 0.0,
			"0.023": 0.0,
			"0.024": 0.0,
			"0.025": 0.0
		}
	}
}
