{
	 "smiles": "CC1=CC(Br)=C(C)C=C1C(=O)CCl", 
	 "Tm": 353.15, 
	 "num_atms": 23, 
	 "gaussian": { 
		 "optdone": 1, 
		 "sigma_profile": "yes", 
		 "theory": "DFT", 
		 "functional": "B3LYP", 
		 "basiset": "6-31G**", 
		 "properties": { 
			 "R2extent": 4878.5365, 
			 "electric_dipole_moment_norm": 1.67802136756, 
			 "electric_quadrupole_moment_norm": 13.50594641, 
			 "total_energy": -3493.91806879, 
			 "HOMO_LUMO_gap": 0.17546, 
			 "cosmo_polarized_energy": -8.34, 
			 "cosmo_cavitation_energy": 30.14, 
			 "cosmo_dispersion_energy": -22.12, 
			 "cosmo_repulsion_energy": 1.75, 
			 "cosmo_total_nonelectrostatic_energy": 9.77, 
			 "SMD_solvation_energy": 4.4 
		},
		"coords": [
			{
				"x": 0.8161796447,
				"y": -2.8978413394,
				"z": -1.3418221217,
				"element": "C" 
			},
			{
				"x": 0.5583481435,
				"y": -1.4378620171,
				"z": -1.0391334491,
				"element": "C" 
			},
			{
				"x": 1.6326562137,
				"y": -0.5499987791,
				"z": -1.1626084463,
				"element": "C" 
			},
			{
				"x": 1.4818475106,
				"y": 0.8158497223,
				"z": -0.9400347127,
				"element": "C" 
			},
			{
				"x": 3.0297589453,
				"y": 1.9253056452,
				"z": -1.1174157247,
				"element": "Br" 
			},
			{
				"x": 0.2454443912,
				"y": 1.383316968,
				"z": -0.605238899,
				"element": "C" 
			},
			{
				"x": 0.0551760392,
				"y": 2.8586123218,
				"z": -0.3704310626,
				"element": "C" 
			},
			{
				"x": -0.8233074115,
				"y": 0.4926503212,
				"z": -0.5008676481,
				"element": "C" 
			},
			{
				"x": -0.6995164173,
				"y": -0.8942644194,
				"z": -0.6871039332,
				"element": "C" 
			},
			{
				"x": -1.9838768393,
				"y": -1.6516754327,
				"z": -0.5232196402,
				"element": "C" 
			},
			{
				"x": -3.0569707342,
				"y": -1.1108348096,
				"z": -0.739800615,
				"element": "O" 
			},
			{
				"x": -2.0298326341,
				"y": -3.1010370445,
				"z": -0.0290980127,
				"element": "C" 
			},
			{
				"x": -1.1927072277,
				"y": -3.3114337075,
				"z": 1.5666022307,
				"element": "Cl" 
			},
			{
				"x": 0.7130492922,
				"y": -3.5232441426,
				"z": -0.4498077577,
				"element": "H" 
			},
			{
				"x": 0.1367916752,
				"y": -3.2824792051,
				"z": -2.1099798556,
				"element": "H" 
			},
			{
				"x": 1.8334808937,
				"y": -3.029586749,
				"z": -1.7176585749,
				"element": "H" 
			},
			{
				"x": 2.6080390459,
				"y": -0.9316328278,
				"z": -1.4434114735,
				"element": "H" 
			},
			{
				"x": -0.9881871515,
				"y": 3.0796805305,
				"z": -0.134083584,
				"element": "H" 
			},
			{
				"x": 0.6789692404,
				"y": 3.2122698448,
				"z": 0.4574670532,
				"element": "H" 
			},
			{
				"x": 0.3404273794,
				"y": 3.4410781218,
				"z": -1.2528524277,
				"element": "H" 
			},
			{
				"x": -1.8082031651,
				"y": 0.8780376702,
				"z": -0.2581855878,
				"element": "H" 
			},
			{
				"x": -1.5674696445,
				"y": -3.7983822512,
				"z": -0.727522876,
				"element": "H" 
			},
			{
				"x": -3.0771971898,
				"y": -3.3584284209,
				"z": 0.1167071187,
				"element": "H" 
			}
		],
		 "valence_orbital": [ 
			{
				"type": "occ",
				"energy": -0.30939,
				"method": "rhf"
			},
			{
				"type": "occ",
				"energy": -0.29354,
				"method": "rhf"
			},
			{
				"type": "occ",
				"energy": -0.26742,
				"method": "rhf"
			},
			{
				"type": "occ",
				"energy": -0.25814,
				"method": "rhf"
			},
			{
				"type": "occ",
				"energy": -0.24802,
				"method": "rhf"
			},
			{
				"type": "unocc",
				"energy": -0.07256,
				"method": "rhf"
			},
			{
				"type": "unocc",
				"energy": -0.01599,
				"method": "rhf"
			},
			{
				"type": "unocc",
				"energy": -0.00649,
				"method": "rhf"
			},
			{
				"type": "unocc",
				"energy": 0.00258,
				"method": "rhf"
			},
			{
				"type": "unocc",
				"energy": 0.0389,
				"method": "rhf"
			}
		],
		"cosmo_sigma_profile": { 
			"-0.025": 0.0,
			"-0.024": 0.0,
			"-0.023": 0.0,
			"-0.022": 0.0,
			"-0.021": 0.0,
			"-0.02": 0.0,
			"-0.019": 0.0,
			"-0.018": 0.0,
			"-0.017": 0.0,
			"-0.016": 0.0,
			"-0.015": 0.0,
			"-0.014": 0.0,
			"-0.013": 0.0,
			"-0.012": 0.0,
			"-0.011": 0.00508989996902,
			"-0.01": 0.655439229529,
			"-0.009": 2.71644037278,
			"-0.008": 4.24096159421,
			"-0.007": 6.51889818485,
			"-0.006": 9.79700437526,
			"-0.005": 13.0794130992,
			"-0.004": 13.7932213646,
			"-0.003": 17.0365992126,
			"-0.002": 20.3301168646,
			"-0.001": 24.5940896913,
			"0.0": 22.5940583483,
			"0.001": 18.6360725925,
			"0.002": 23.33716408,
			"0.003": 22.6794664048,
			"0.004": 17.4846433515,
			"0.005": 11.0651816148,
			"0.006": 3.75516376291,
			"0.007": 0.882070678647,
			"0.008": 2.14775868745,
			"0.009": 2.29853369481,
			"0.01": 3.00133312422,
			"0.011": 3.73870772032,
			"0.012": 0.601403244978,
			"0.013": 0.0,
			"0.014": 0.0,
			"0.015": 0.0,
			"0.016": 0.0,
			"0.017": 0.0,
			"0.018": 0.0,
			"0.019": 0.0,
			"0.02": 0.0,
			"0.021": 0.0,
			"0.022": 0.0,
			"0.023": 0.0,
			"0.024": 0.0,
			"0.025": 0.0
		}
	}
}
