{
	 "smiles": "CCCCCCCCP(=O)(CCCCCCCC)CCCCCCCC", 
	 "Tm": 326.65, 
	 "num_atms": 77, 
	 "gaussian": { 
		 "optdone": 1, 
		 "sigma_profile": "yes", 
		 "theory": "DFT", 
		 "functional": "B3LYP", 
		 "basiset": "6-31G**", 
		 "properties": { 
			 "R2extent": 20388.2439, 
			 "electric_dipole_moment_norm": 4.11862670802, 
			 "electric_quadrupole_moment_norm": 19.9081994367, 
			 "total_energy": -1361.96852455, 
			 "HOMO_LUMO_gap": 0.29434, 
			 "cosmo_polarized_energy": -14.88, 
			 "cosmo_cavitation_energy": 74.21, 
			 "cosmo_dispersion_energy": -46.5, 
			 "cosmo_repulsion_energy": 3.72, 
			 "cosmo_total_nonelectrostatic_energy": 31.43, 
			 "SMD_solvation_energy": 10.64 
		},
		"coords": [
			{
				"x": -2.4530905928,
				"y": 6.4756432228,
				"z": 1.2152349113,
				"element": "C" 
			},
			{
				"x": -1.3116842386,
				"y": 5.452165646,
				"z": 1.1807076271,
				"element": "C" 
			},
			{
				"x": -0.965825985,
				"y": 4.924557866,
				"z": -0.2225931846,
				"element": "C" 
			},
			{
				"x": -2.0730160017,
				"y": 4.0848744699,
				"z": -0.8768778709,
				"element": "C" 
			},
			{
				"x": -1.7381559237,
				"y": 3.574570875,
				"z": -2.2903484645,
				"element": "C" 
			},
			{
				"x": -0.5352690045,
				"y": 2.6186761711,
				"z": -2.3968513341,
				"element": "C" 
			},
			{
				"x": -0.6404897465,
				"y": 1.313852077,
				"z": -1.5840288181,
				"element": "C" 
			},
			{
				"x": -1.7942755891,
				"y": 0.3993805168,
				"z": -2.0289099602,
				"element": "C" 
			},
			{
				"x": -2.0084527374,
				"y": -1.2106525493,
				"z": -1.1547198933,
				"element": "P" 
			},
			{
				"x": -3.1454837482,
				"y": -2.0243716501,
				"z": -1.7152704496,
				"element": "O" 
			},
			{
				"x": -2.2291675234,
				"y": -0.7585442523,
				"z": 0.6203775886,
				"element": "C" 
			},
			{
				"x": -2.5838342054,
				"y": -1.9647699577,
				"z": 1.5064583438,
				"element": "C" 
			},
			{
				"x": -3.0221257452,
				"y": -1.6219739531,
				"z": 2.9422568634,
				"element": "C" 
			},
			{
				"x": -1.958756182,
				"y": -0.9435755991,
				"z": 3.8358041582,
				"element": "C" 
			},
			{
				"x": -1.9977641583,
				"y": 0.5942188615,
				"z": 3.8337321438,
				"element": "C" 
			},
			{
				"x": -0.8907470968,
				"y": 1.2648143471,
				"z": 4.6645131457,
				"element": "C" 
			},
			{
				"x": -0.9713246816,
				"y": 1.0134240517,
				"z": 6.1771418353,
				"element": "C" 
			},
			{
				"x": 0.105468379,
				"y": 1.7675073041,
				"z": 6.9644984003,
				"element": "C" 
			},
			{
				"x": -0.3811658063,
				"y": -2.073800019,
				"z": -1.2335791384,
				"element": "C" 
			},
			{
				"x": -0.01054635,
				"y": -2.5253901213,
				"z": -2.6569013085,
				"element": "C" 
			},
			{
				"x": 1.2308971716,
				"y": -3.431848495,
				"z": -2.722968701,
				"element": "C" 
			},
			{
				"x": 2.5373414727,
				"y": -2.7457032245,
				"z": -2.2974840379,
				"element": "C" 
			},
			{
				"x": 3.830104384,
				"y": -3.5474444546,
				"z": -2.5376165983,
				"element": "C" 
			},
			{
				"x": 3.9871718735,
				"y": -4.8496386454,
				"z": -1.7215606282,
				"element": "C" 
			},
			{
				"x": 3.4496700906,
				"y": -6.1217716707,
				"z": -2.3958049626,
				"element": "C" 
			},
			{
				"x": 3.6606344839,
				"y": -7.379384392,
				"z": -1.5464110322,
				"element": "C" 
			},
			{
				"x": -3.4005186471,
				"y": 6.0466181707,
				"z": 0.8736073528,
				"element": "H" 
			},
			{
				"x": -2.6128842509,
				"y": 6.8518470184,
				"z": 2.2310827384,
				"element": "H" 
			},
			{
				"x": -2.2293182083,
				"y": 7.33654565,
				"z": 0.5743012837,
				"element": "H" 
			},
			{
				"x": -0.4126684088,
				"y": 5.9097132841,
				"z": 1.6131097316,
				"element": "H" 
			},
			{
				"x": -1.5615715932,
				"y": 4.6037071811,
				"z": 1.8331668515,
				"element": "H" 
			},
			{
				"x": -0.7225955926,
				"y": 5.7737167667,
				"z": -0.8781061274,
				"element": "H" 
			},
			{
				"x": -0.0482686951,
				"y": 4.3268360853,
				"z": -0.1500751609,
				"element": "H" 
			},
			{
				"x": -2.317582344,
				"y": 3.2384604041,
				"z": -0.2194683145,
				"element": "H" 
			},
			{
				"x": -2.9912216079,
				"y": 4.6808982643,
				"z": -0.9439635622,
				"element": "H" 
			},
			{
				"x": -1.5441379568,
				"y": 4.4387414599,
				"z": -2.9399374558,
				"element": "H" 
			},
			{
				"x": -2.6279757842,
				"y": 3.08666519,
				"z": -2.7078561231,
				"element": "H" 
			},
			{
				"x": 0.3775335464,
				"y": 3.1433958415,
				"z": -2.088599104,
				"element": "H" 
			},
			{
				"x": -0.3894312051,
				"y": 2.3624611089,
				"z": -3.4548307209,
				"element": "H" 
			},
			{
				"x": 0.3101855492,
				"y": 0.7755484859,
				"z": -1.6826828599,
				"element": "H" 
			},
			{
				"x": -0.7426048815,
				"y": 1.5538124942,
				"z": -0.5186688892,
				"element": "H" 
			},
			{
				"x": -1.6981112347,
				"y": 0.1524853894,
				"z": -3.093565125,
				"element": "H" 
			},
			{
				"x": -2.7620509505,
				"y": 0.9040780464,
				"z": -1.9253760502,
				"element": "H" 
			},
			{
				"x": -3.0455797861,
				"y": -0.0247544357,
				"z": 0.6460178512,
				"element": "H" 
			},
			{
				"x": -1.3273009675,
				"y": -0.2482716039,
				"z": 0.9779016507,
				"element": "H" 
			},
			{
				"x": -1.7226682243,
				"y": -2.6449372776,
				"z": 1.556270812,
				"element": "H" 
			},
			{
				"x": -3.3879461191,
				"y": -2.5238270453,
				"z": 1.0150723518,
				"element": "H" 
			},
			{
				"x": -3.9243461519,
				"y": -0.995334693,
				"z": 2.9070412996,
				"element": "H" 
			},
			{
				"x": -3.3330899996,
				"y": -2.5624806228,
				"z": 3.4135767269,
				"element": "H" 
			},
			{
				"x": -0.9567717302,
				"y": -1.2851530327,
				"z": 3.5360109552,
				"element": "H" 
			},
			{
				"x": -2.0933206242,
				"y": -1.2934370163,
				"z": 4.8659825371,
				"element": "H" 
			},
			{
				"x": -1.9320838383,
				"y": 0.9635272941,
				"z": 2.8034341368,
				"element": "H" 
			},
			{
				"x": -2.9785578088,
				"y": 0.9233305724,
				"z": 4.2062280691,
				"element": "H" 
			},
			{
				"x": -0.9277449871,
				"y": 2.348914191,
				"z": 4.4886753239,
				"element": "H" 
			},
			{
				"x": 0.0913295572,
				"y": 0.9339880797,
				"z": 4.2955764904,
				"element": "H" 
			},
			{
				"x": -0.8822720489,
				"y": -0.060225325,
				"z": 6.3841319871,
				"element": "H" 
			},
			{
				"x": -1.9655503146,
				"y": 1.31153987,
				"z": 6.5380157844,
				"element": "H" 
			},
			{
				"x": 0.0221192593,
				"y": 2.8499800639,
				"z": 6.8134220939,
				"element": "H" 
			},
			{
				"x": 1.1110210957,
				"y": 1.4678328286,
				"z": 6.6472619525,
				"element": "H" 
			},
			{
				"x": 0.0257466722,
				"y": 1.5746895994,
				"z": 8.0393859741,
				"element": "H" 
			},
			{
				"x": -0.4736054451,
				"y": -2.9518150422,
				"z": -0.5816775837,
				"element": "H" 
			},
			{
				"x": 0.3935718765,
				"y": -1.4332832538,
				"z": -0.7959113468,
				"element": "H" 
			},
			{
				"x": -0.8688890049,
				"y": -3.0561253261,
				"z": -3.0833149448,
				"element": "H" 
			},
			{
				"x": 0.1559207941,
				"y": -1.6443556091,
				"z": -3.2921340083,
				"element": "H" 
			},
			{
				"x": 1.3385552121,
				"y": -3.7954478826,
				"z": -3.7538535408,
				"element": "H" 
			},
			{
				"x": 1.0522426629,
				"y": -4.3194147408,
				"z": -2.102538489,
				"element": "H" 
			},
			{
				"x": 2.4859245932,
				"y": -2.480889511,
				"z": -1.2323806692,
				"element": "H" 
			},
			{
				"x": 2.6206804483,
				"y": -1.7933994572,
				"z": -2.8411674502,
				"element": "H" 
			},
			{
				"x": 3.9240863617,
				"y": -3.7760371809,
				"z": -3.6088420562,
				"element": "H" 
			},
			{
				"x": 4.6714492273,
				"y": -2.8839016924,
				"z": -2.301395385,
				"element": "H" 
			},
			{
				"x": 3.5096614886,
				"y": -4.7254557491,
				"z": -0.7385302024,
				"element": "H" 
			},
			{
				"x": 5.0535810298,
				"y": -5.0088794543,
				"z": -1.5123667391,
				"element": "H" 
			},
			{
				"x": 2.38301773,
				"y": -6.0115094835,
				"z": -2.6222654373,
				"element": "H" 
			},
			{
				"x": 3.9520188544,
				"y": -6.2469028395,
				"z": -3.3647964949,
				"element": "H" 
			},
			{
				"x": 3.2869162127,
				"y": -8.274196235,
				"z": -2.054879105,
				"element": "H" 
			},
			{
				"x": 3.1386844793,
				"y": -7.3014461848,
				"z": -0.5856129912,
				"element": "H" 
			},
			{
				"x": 4.723609222,
				"y": -7.5386690703,
				"z": -1.3307766527,
				"element": "H" 
			}
		],
		 "valence_orbital": [ 
			{
				"type": "occ",
				"energy": -0.30592,
				"method": "rhf"
			},
			{
				"type": "occ",
				"energy": -0.30257,
				"method": "rhf"
			},
			{
				"type": "occ",
				"energy": -0.30057,
				"method": "rhf"
			},
			{
				"type": "occ",
				"energy": -0.24333,
				"method": "rhf"
			},
			{
				"type": "occ",
				"energy": -0.24218,
				"method": "rhf"
			},
			{
				"type": "unocc",
				"energy": 0.05216,
				"method": "rhf"
			},
			{
				"type": "unocc",
				"energy": 0.07197,
				"method": "rhf"
			},
			{
				"type": "unocc",
				"energy": 0.07518,
				"method": "rhf"
			},
			{
				"type": "unocc",
				"energy": 0.08687,
				"method": "rhf"
			},
			{
				"type": "unocc",
				"energy": 0.09039,
				"method": "rhf"
			}
		],
		"cosmo_sigma_profile": { 
			"-0.025": 0.0,
			"-0.024": 0.0,
			"-0.023": 0.0,
			"-0.022": 0.0,
			"-0.021": 0.0,
			"-0.02": 0.0,
			"-0.019": 0.0,
			"-0.018": 0.0,
			"-0.017": 0.0,
			"-0.016": 0.0,
			"-0.015": 0.0,
			"-0.014": 0.0,
			"-0.013": 0.0,
			"-0.012": 0.0,
			"-0.011": 0.0,
			"-0.01": 0.0,
			"-0.009": 0.0,
			"-0.008": 0.0,
			"-0.007": 0.0797265754252,
			"-0.006": 1.55874967957,
			"-0.005": 7.37860843063,
			"-0.004": 18.0157310466,
			"-0.003": 32.3971812885,
			"-0.002": 92.0153373883,
			"-0.001": 121.428592186,
			"0.0": 123.615095116,
			"0.001": 98.3554707237,
			"0.002": 39.7968710956,
			"0.003": 3.55480031969,
			"0.004": 1.89498165456,
			"0.005": 1.21623016433,
			"0.006": 1.44837056181,
			"0.007": 1.11798900089,
			"0.008": 2.22974272376,
			"0.009": 1.84462745494,
			"0.01": 0.783060784139,
			"0.011": 0.559278241936,
			"0.012": 1.37889488422,
			"0.013": 1.55785685834,
			"0.014": 1.07709556348,
			"0.015": 1.55236992111,
			"0.016": 1.76693729842,
			"0.017": 6.22932695103,
			"0.018": 2.61319733547,
			"0.019": 0.0,
			"0.02": 0.0,
			"0.021": 0.0,
			"0.022": 0.0,
			"0.023": 0.0,
			"0.024": 0.0,
			"0.025": 0.0
		}
	}
}
