{
	 "smiles": "CC1=CC(=C(O)C=C1)S(=O)(=O)N1CCNCC1", 
	 "Tm": 461.15, 
	 "num_atms": 33, 
	 "gaussian": { 
		 "optdone": 1, 
		 "sigma_profile": "yes", 
		 "theory": "DFT", 
		 "functional": "B3LYP", 
		 "basiset": "6-31G**", 
		 "properties": { 
			 "R2extent": 4988.6741, 
			 "electric_dipole_moment_norm": 4.27341864319, 
			 "electric_quadrupole_moment_norm": 18.0105007834, 
			 "total_energy": -1162.09495554, 
			 "HOMO_LUMO_gap": 0.1908, 
			 "cosmo_polarized_energy": -19.45, 
			 "cosmo_cavitation_energy": 35.6, 
			 "cosmo_dispersion_energy": -26.01, 
			 "cosmo_repulsion_energy": 1.98, 
			 "cosmo_total_nonelectrostatic_energy": 11.56, 
			 "SMD_solvation_energy": 2.75 
		},
		"coords": [
			{
				"x": 1.459316266,
				"y": 2.6241726071,
				"z": -2.93430819,
				"element": "C" 
			},
			{
				"x": 0.5878570444,
				"y": 1.4657731761,
				"z": -2.5082930811,
				"element": "C" 
			},
			{
				"x": 0.2844607419,
				"y": 1.2549107929,
				"z": -1.1576384367,
				"element": "C" 
			},
			{
				"x": -0.4987178096,
				"y": 0.1770247517,
				"z": -0.7459430819,
				"element": "C" 
			},
			{
				"x": -1.0116860867,
				"y": -0.7276515874,
				"z": -1.6920262812,
				"element": "C" 
			},
			{
				"x": -1.768949,
				"y": -1.7716884504,
				"z": -1.2587325954,
				"element": "O" 
			},
			{
				"x": -0.7148825583,
				"y": -0.523935495,
				"z": -3.0415020203,
				"element": "C" 
			},
			{
				"x": 0.0700520968,
				"y": 0.5582436033,
				"z": -3.4384062062,
				"element": "C" 
			},
			{
				"x": -0.8851032005,
				"y": 0.0223886231,
				"z": 1.004185294,
				"element": "S" 
			},
			{
				"x": -2.3423185117,
				"y": 0.006608057,
				"z": 1.1589724601,
				"element": "O" 
			},
			{
				"x": -0.0696857179,
				"y": 1.0386699366,
				"z": 1.6853407767,
				"element": "O" 
			},
			{
				"x": -0.3033777359,
				"y": -1.4939563585,
				"z": 1.4189048146,
				"element": "N" 
			},
			{
				"x": -1.2438124934,
				"y": -2.5536822999,
				"z": 1.8190581679,
				"element": "C" 
			},
			{
				"x": -1.3165283881,
				"y": -2.6733864137,
				"z": 3.3430674194,
				"element": "C" 
			},
			{
				"x": 0.0351316546,
				"y": -2.8735219766,
				"z": 3.8746870384,
				"element": "N" 
			},
			{
				"x": 0.9052964696,
				"y": -1.7355397643,
				"z": 3.5647483188,
				"element": "C" 
			},
			{
				"x": 1.0253153703,
				"y": -1.6011933937,
				"z": 2.0442434427,
				"element": "C" 
			},
			{
				"x": 1.2238515923,
				"y": 3.5305709428,
				"z": -2.3679256422,
				"element": "H" 
			},
			{
				"x": 1.3310323319,
				"y": 2.8487179258,
				"z": -3.9971256431,
				"element": "H" 
			},
			{
				"x": 2.522186824,
				"y": 2.4073017337,
				"z": -2.7705400741,
				"element": "H" 
			},
			{
				"x": 0.6533783401,
				"y": 1.9334087269,
				"z": -0.3954191372,
				"element": "H" 
			},
			{
				"x": -2.0700865952,
				"y": -2.2839004119,
				"z": -2.0202602274,
				"element": "H" 
			},
			{
				"x": -1.1061012661,
				"y": -1.2156565969,
				"z": -3.78486473,
				"element": "H" 
			},
			{
				"x": 0.2806138771,
				"y": 0.6948822948,
				"z": -4.4959874803,
				"element": "H" 
			},
			{
				"x": -2.2215257181,
				"y": -2.3367264343,
				"z": 1.3921993108,
				"element": "H" 
			},
			{
				"x": -0.8725535634,
				"y": -3.4940854124,
				"z": 1.3933807902,
				"element": "H" 
			},
			{
				"x": -1.8101864998,
				"y": -1.7679612749,
				"z": 3.7408395705,
				"element": "H" 
			},
			{
				"x": -1.9341963844,
				"y": -3.5386229399,
				"z": 3.6103673382,
				"element": "H" 
			},
			{
				"x": -0.0075525793,
				"y": -3.0085708921,
				"z": 4.8806750945,
				"element": "H" 
			},
			{
				"x": 1.8970738155,
				"y": -1.9194141841,
				"z": 3.99380337,
				"element": "H" 
			},
			{
				"x": 0.5305374568,
				"y": -0.7772308141,
				"z": 3.9665649931,
				"element": "H" 
			},
			{
				"x": 1.6209138571,
				"y": -0.726979069,
				"z": 1.7800429655,
				"element": "H" 
			},
			{
				"x": 1.50914637,
				"y": -2.4963694027,
				"z": 1.6341916618,
				"element": "H" 
			}
		],
		 "valence_orbital": [ 
			{
				"type": "occ",
				"energy": -0.28845,
				"method": "rhf"
			},
			{
				"type": "occ",
				"energy": -0.26824,
				"method": "rhf"
			},
			{
				"type": "occ",
				"energy": -0.24127,
				"method": "rhf"
			},
			{
				"type": "occ",
				"energy": -0.22887,
				"method": "rhf"
			},
			{
				"type": "occ",
				"energy": -0.21684,
				"method": "rhf"
			},
			{
				"type": "unocc",
				"energy": -0.02604,
				"method": "rhf"
			},
			{
				"type": "unocc",
				"energy": -0.00185,
				"method": "rhf"
			},
			{
				"type": "unocc",
				"energy": 0.05494,
				"method": "rhf"
			},
			{
				"type": "unocc",
				"energy": 0.06662,
				"method": "rhf"
			},
			{
				"type": "unocc",
				"energy": 0.08814,
				"method": "rhf"
			}
		],
		"cosmo_sigma_profile": { 
			"-0.025": 0.0,
			"-0.024": 0.0,
			"-0.023": 0.0,
			"-0.022": 0.0,
			"-0.021": 0.0,
			"-0.02": 0.0,
			"-0.019": 0.213024395716,
			"-0.018": 1.26669122975,
			"-0.017": 1.26115277391,
			"-0.016": 0.806953941143,
			"-0.015": 1.54627779784,
			"-0.014": 0.531807226116,
			"-0.013": 0.881232383935,
			"-0.012": 0.899249586891,
			"-0.011": 1.47177267315,
			"-0.01": 2.61516763202,
			"-0.009": 1.91272089854,
			"-0.008": 2.89091886911,
			"-0.007": 3.95605865156,
			"-0.006": 6.19110813735,
			"-0.005": 14.04264515,
			"-0.004": 28.5147464185,
			"-0.003": 25.3197229086,
			"-0.002": 30.0970433344,
			"-0.001": 25.3017065044,
			"0.0": 20.9786697954,
			"0.001": 13.4673100298,
			"0.002": 15.2531847154,
			"0.003": 15.6083088893,
			"0.004": 13.5349157958,
			"0.005": 6.26825799055,
			"0.006": 5.10372154884,
			"0.007": 4.63056869066,
			"0.008": 4.86928741467,
			"0.009": 5.65807171872,
			"0.01": 5.94230939253,
			"0.011": 9.21036264425,
			"0.012": 7.06290269414,
			"0.013": 0.382764300959,
			"0.014": 0.193496335978,
			"0.015": 0.694666227828,
			"0.016": 0.312009072058,
			"0.017": 0.554910845919,
			"0.018": 0.105901518218,
			"0.019": 0.0,
			"0.02": 0.0,
			"0.021": 0.0,
			"0.022": 0.0,
			"0.023": 0.0,
			"0.024": 0.0,
			"0.025": 0.0
		}
	}
}
