{
	 "smiles": "C=C=O", 
	 "Tm": 122.15, 
	 "num_atms": 5, 
	 "gaussian": { 
		 "optdone": 1, 
		 "sigma_profile": "yes", 
		 "theory": "DFT", 
		 "functional": "B3LYP", 
		 "basiset": "6-31G**", 
		 "properties": { 
			 "R2extent": 259.46, 
			 "electric_dipole_moment_norm": 1.48714158707, 
			 "electric_quadrupole_moment_norm": 2.71853449123, 
			 "total_energy": -152.599100121, 
			 "HOMO_LUMO_gap": 0.20513, 
			 "cosmo_polarized_energy": -3.08, 
			 "cosmo_cavitation_energy": 9.54, 
			 "cosmo_dispersion_energy": -6.55, 
			 "cosmo_repulsion_energy": 0.64, 
			 "cosmo_total_nonelectrostatic_energy": 3.63, 
			 "SMD_solvation_energy": 4.47 
		},
		"coords": [
			{
				"x": -0.9983121637,
				"y": -2.0253999411,
				"z": 0.0965972674,
				"element": "C" 
			},
			{
				"x": -0.9005922608,
				"y": -0.7173957656,
				"z": 0.008064675,
				"element": "C" 
			},
			{
				"x": -0.8138834925,
				"y": 0.4481800642,
				"z": -0.0709958262,
				"element": "O" 
			},
			{
				"x": -0.1792141492,
				"y": -2.5975411273,
				"z": 0.5115872317,
				"element": "H" 
			},
			{
				"x": -1.8969979338,
				"y": -2.5205432302,
				"z": -0.2464533479,
				"element": "H" 
			}
		],
		 "valence_orbital": [ 
			{
				"type": "occ",
				"energy": -0.48427,
				"method": "rhf"
			},
			{
				"type": "occ",
				"energy": -0.4822,
				"method": "rhf"
			},
			{
				"type": "occ",
				"energy": -0.44444,
				"method": "rhf"
			},
			{
				"type": "occ",
				"energy": -0.40255,
				"method": "rhf"
			},
			{
				"type": "occ",
				"energy": -0.24063,
				"method": "rhf"
			},
			{
				"type": "unocc",
				"energy": -0.0355,
				"method": "rhf"
			},
			{
				"type": "unocc",
				"energy": 0.06494,
				"method": "rhf"
			},
			{
				"type": "unocc",
				"energy": 0.10904,
				"method": "rhf"
			},
			{
				"type": "unocc",
				"energy": 0.19914,
				"method": "rhf"
			},
			{
				"type": "unocc",
				"energy": 0.19947,
				"method": "rhf"
			}
		],
		"cosmo_sigma_profile": { 
			"-0.025": 0.0,
			"-0.024": 0.0,
			"-0.023": 0.0,
			"-0.022": 0.0,
			"-0.021": 0.0,
			"-0.02": 0.0,
			"-0.019": 0.0,
			"-0.018": 0.0,
			"-0.017": 0.0,
			"-0.016": 0.0,
			"-0.015": 0.0,
			"-0.014": 0.0,
			"-0.013": 0.0,
			"-0.012": 0.0,
			"-0.011": 0.0,
			"-0.01": 0.0,
			"-0.009": 1.84948638744,
			"-0.008": 3.57224994121,
			"-0.007": 4.11812292774,
			"-0.006": 3.15042039294,
			"-0.005": 4.64416491901,
			"-0.004": 3.66321690502,
			"-0.003": 4.43388650398,
			"-0.002": 4.96824958989,
			"-0.001": 4.33236964179,
			"0.0": 5.31250913158,
			"0.001": 5.39798569748,
			"0.002": 4.70888764043,
			"0.003": 5.01337431241,
			"0.004": 4.23579468935,
			"0.005": 5.00289662392,
			"0.006": 5.91464845051,
			"0.007": 6.52891647941,
			"0.008": 0.660569515881,
			"0.009": 0.0,
			"0.01": 0.0,
			"0.011": 0.0,
			"0.012": 0.0,
			"0.013": 0.0,
			"0.014": 0.0,
			"0.015": 0.0,
			"0.016": 0.0,
			"0.017": 0.0,
			"0.018": 0.0,
			"0.019": 0.0,
			"0.02": 0.0,
			"0.021": 0.0,
			"0.022": 0.0,
			"0.023": 0.0,
			"0.024": 0.0,
			"0.025": 0.0
		}
	}
}
