{
	 "smiles": "CCCCOC1=C(OCC)C=C(C=C1Cl)C(O)=O", 
	 "Tm": 363.15, 
	 "num_atms": 35, 
	 "gaussian": { 
		 "optdone": 1, 
		 "sigma_profile": "yes", 
		 "theory": "DFT", 
		 "functional": "B3LYP", 
		 "basiset": "6-31G**", 
		 "properties": { 
			 "R2extent": 7010.0991, 
			 "electric_dipole_moment_norm": 3.99781750209, 
			 "electric_quadrupole_moment_norm": 26.0626037381, 
			 "total_energy": -1266.71820147, 
			 "HOMO_LUMO_gap": 0.18659, 
			 "cosmo_polarized_energy": -15.8, 
			 "cosmo_cavitation_energy": 40.4, 
			 "cosmo_dispersion_energy": -27.53, 
			 "cosmo_repulsion_energy": 2.18, 
			 "cosmo_total_nonelectrostatic_energy": 15.05, 
			 "SMD_solvation_energy": 8.11 
		},
		"coords": [
			{
				"x": -2.069018443,
				"y": 0.858935517,
				"z": -3.4078654957,
				"element": "C" 
			},
			{
				"x": -1.5490463504,
				"y": -0.5516141367,
				"z": -3.1083734332,
				"element": "C" 
			},
			{
				"x": -1.9918758588,
				"y": -1.1148066477,
				"z": -1.7480554913,
				"element": "C" 
			},
			{
				"x": -1.4454898179,
				"y": -0.3766317493,
				"z": -0.5342971025,
				"element": "C" 
			},
			{
				"x": -0.0018272885,
				"y": -0.4780833495,
				"z": -0.5682955561,
				"element": "O" 
			},
			{
				"x": 0.6770001476,
				"y": 0.0786393359,
				"z": 0.4668340096,
				"element": "C" 
			},
			{
				"x": 0.673919719,
				"y": -0.5215789338,
				"z": 1.7543650013,
				"element": "C" 
			},
			{
				"x": -0.0928992671,
				"y": -1.6360422086,
				"z": 1.8714942084,
				"element": "O" 
			},
			{
				"x": -0.0940883085,
				"y": -2.3397447597,
				"z": 3.1205643808,
				"element": "C" 
			},
			{
				"x": -0.9872350052,
				"y": -3.5559516731,
				"z": 2.9578316071,
				"element": "C" 
			},
			{
				"x": 1.4318040722,
				"y": 0.0307381198,
				"z": 2.7840219463,
				"element": "C" 
			},
			{
				"x": 2.2008033078,
				"y": 1.1817716776,
				"z": 2.560659918,
				"element": "C" 
			},
			{
				"x": 2.2341737769,
				"y": 1.7687061691,
				"z": 1.2945780948,
				"element": "C" 
			},
			{
				"x": 1.4681805197,
				"y": 1.215077385,
				"z": 0.2669756967,
				"element": "C" 
			},
			{
				"x": 1.5152318832,
				"y": 1.9528450027,
				"z": -1.3200239177,
				"element": "Cl" 
			},
			{
				"x": 2.9921783843,
				"y": 1.7052705872,
				"z": 3.721469904,
				"element": "C" 
			},
			{
				"x": 3.4269519118,
				"y": 2.9901891945,
				"z": 3.6392370838,
				"element": "O" 
			},
			{
				"x": 3.2452833149,
				"y": 1.0437718661,
				"z": 4.7015453782,
				"element": "O" 
			},
			{
				"x": -1.7710371456,
				"y": 1.1792883134,
				"z": -4.4114410184,
				"element": "H" 
			},
			{
				"x": -1.6735170918,
				"y": 1.5974190322,
				"z": -2.7029597539,
				"element": "H" 
			},
			{
				"x": -3.1638396713,
				"y": 0.9000688402,
				"z": -3.3584571634,
				"element": "H" 
			},
			{
				"x": -0.4546951659,
				"y": -0.5587243305,
				"z": -3.1545701607,
				"element": "H" 
			},
			{
				"x": -1.8976016336,
				"y": -1.2372786666,
				"z": -3.8906615346,
				"element": "H" 
			},
			{
				"x": -3.0881310342,
				"y": -1.097098161,
				"z": -1.6751085766,
				"element": "H" 
			},
			{
				"x": -1.6880694997,
				"y": -2.1654329948,
				"z": -1.6685455832,
				"element": "H" 
			},
			{
				"x": -1.8195875205,
				"y": -0.8263740721,
				"z": 0.3903499001,
				"element": "H" 
			},
			{
				"x": -1.7232217791,
				"y": 0.6850043131,
				"z": -0.5458433931,
				"element": "H" 
			},
			{
				"x": -0.4652188983,
				"y": -1.6800524696,
				"z": 3.9163913608,
				"element": "H" 
			},
			{
				"x": 0.9323293043,
				"y": -2.6342108276,
				"z": 3.375438325,
				"element": "H" 
			},
			{
				"x": -2.0100536957,
				"y": -3.2570655198,
				"z": 2.7117121093,
				"element": "H" 
			},
			{
				"x": -1.0093468013,
				"y": -4.1281789016,
				"z": 3.8901072794,
				"element": "H" 
			},
			{
				"x": -0.6144400369,
				"y": -4.2046807549,
				"z": 2.1606581559,
				"element": "H" 
			},
			{
				"x": 1.4614574769,
				"y": -0.4094043963,
				"z": 3.7719752332,
				"element": "H" 
			},
			{
				"x": 2.8673589828,
				"y": 2.6197303238,
				"z": 1.0666884216,
				"element": "H" 
			},
			{
				"x": 3.0099675121,
				"y": 3.4378988759,
				"z": 2.8902001661,
				"element": "H" 
			}
		],
		 "valence_orbital": [ 
			{
				"type": "occ",
				"energy": -0.31344,
				"method": "rhf"
			},
			{
				"type": "occ",
				"energy": -0.28691,
				"method": "rhf"
			},
			{
				"type": "occ",
				"energy": -0.27603,
				"method": "rhf"
			},
			{
				"type": "occ",
				"energy": -0.25158,
				"method": "rhf"
			},
			{
				"type": "occ",
				"energy": -0.2392,
				"method": "rhf"
			},
			{
				"type": "unocc",
				"energy": -0.05261,
				"method": "rhf"
			},
			{
				"type": "unocc",
				"energy": -0.01828,
				"method": "rhf"
			},
			{
				"type": "unocc",
				"energy": 0.01863,
				"method": "rhf"
			},
			{
				"type": "unocc",
				"energy": 0.04782,
				"method": "rhf"
			},
			{
				"type": "unocc",
				"energy": 0.06798,
				"method": "rhf"
			}
		],
		"cosmo_sigma_profile": { 
			"-0.025": 0.0,
			"-0.024": 0.0,
			"-0.023": 0.0,
			"-0.022": 0.0,
			"-0.021": 0.0,
			"-0.02": 0.0188503693707,
			"-0.019": 0.414094267585,
			"-0.018": 1.26181685552,
			"-0.017": 0.837668927172,
			"-0.016": 0.913763319034,
			"-0.015": 0.625571864503,
			"-0.014": 1.37150505753,
			"-0.013": 0.977600748029,
			"-0.012": 1.23906491304,
			"-0.011": 1.05671337089,
			"-0.01": 0.994160217185,
			"-0.009": 1.61168161327,
			"-0.008": 1.39093402194,
			"-0.007": 3.53162568194,
			"-0.006": 5.93792492094,
			"-0.005": 11.5268532037,
			"-0.004": 20.9104140521,
			"-0.003": 30.2528414078,
			"-0.002": 33.1385009919,
			"-0.001": 33.0375077407,
			"0.0": 39.6586371817,
			"0.001": 36.8224486403,
			"0.002": 22.4207987983,
			"0.003": 12.4503422047,
			"0.004": 12.0145409552,
			"0.005": 7.65549861886,
			"0.006": 5.35004526639,
			"0.007": 4.96051441865,
			"0.008": 5.50664024652,
			"0.009": 5.48886977732,
			"0.01": 6.16349902314,
			"0.011": 5.48883470478,
			"0.012": 4.01197620316,
			"0.013": 1.35601934173,
			"0.014": 0.0239825331502,
			"0.015": 0.0,
			"0.016": 0.0,
			"0.017": 0.0,
			"0.018": 0.0,
			"0.019": 0.0,
			"0.02": 0.0,
			"0.021": 0.0,
			"0.022": 0.0,
			"0.023": 0.0,
			"0.024": 0.0,
			"0.025": 0.0
		}
	}
}
