{
	 "smiles": "BrC1=CCOC1=O", 
	 "Tm": 327.15, 
	 "num_atms": 10, 
	 "gaussian": { 
		 "optdone": 1, 
		 "sigma_profile": "yes", 
		 "theory": "DFT", 
		 "functional": "B3LYP", 
		 "basiset": "6-31G**", 
		 "properties": { 
			 "R2extent": 2132.462, 
			 "electric_dipole_moment_norm": 4.83019606641, 
			 "electric_quadrupole_moment_norm": 9.58526354567, 
			 "total_energy": -2876.06188122, 
			 "HOMO_LUMO_gap": 0.21469, 
			 "cosmo_polarized_energy": -11.86, 
			 "cosmo_cavitation_energy": 16.95, 
			 "cosmo_dispersion_energy": -13.29, 
			 "cosmo_repulsion_energy": 1.14, 
			 "cosmo_total_nonelectrostatic_energy": 4.8, 
			 "SMD_solvation_energy": 3.18 
		},
		"coords": [
			{
				"x": 2.8420794552,
				"y": -1.2280721336,
				"z": -1.2376427413,
				"element": "Br" 
			},
			{
				"x": 1.1313398871,
				"y": -0.5009391186,
				"z": -1.0140152687,
				"element": "C" 
			},
			{
				"x": 0.1811423872,
				"y": -0.8373386495,
				"z": -0.1401008192,
				"element": "C" 
			},
			{
				"x": -1.0036978844,
				"y": 0.0527782329,
				"z": -0.3762989649,
				"element": "C" 
			},
			{
				"x": -0.6272093336,
				"y": 0.9127940386,
				"z": -1.4585127728,
				"element": "O" 
			},
			{
				"x": 0.6480063453,
				"y": 0.6192137334,
				"z": -1.8769101883,
				"element": "C" 
			},
			{
				"x": 1.2016492226,
				"y": 1.1964608817,
				"z": -2.7721859609,
				"element": "O" 
			},
			{
				"x": 0.2174698222,
				"y": -1.6075328993,
				"z": 0.6193719684,
				"element": "H" 
			},
			{
				"x": -1.2499277626,
				"y": 0.6688847679,
				"z": 0.4975950151,
				"element": "H" 
			},
			{
				"x": -1.9021521391,
				"y": -0.5074488535,
				"z": -0.6641002675,
				"element": "H" 
			}
		],
		 "valence_orbital": [ 
			{
				"type": "occ",
				"energy": -0.35808,
				"method": "rhf"
			},
			{
				"type": "occ",
				"energy": -0.30956,
				"method": "rhf"
			},
			{
				"type": "occ",
				"energy": -0.30356,
				"method": "rhf"
			},
			{
				"type": "occ",
				"energy": -0.28417,
				"method": "rhf"
			},
			{
				"type": "occ",
				"energy": -0.27357,
				"method": "rhf"
			},
			{
				"type": "unocc",
				"energy": -0.05888,
				"method": "rhf"
			},
			{
				"type": "unocc",
				"energy": -0.0009,
				"method": "rhf"
			},
			{
				"type": "unocc",
				"energy": 0.06245,
				"method": "rhf"
			},
			{
				"type": "unocc",
				"energy": 0.09631,
				"method": "rhf"
			},
			{
				"type": "unocc",
				"energy": 0.11282,
				"method": "rhf"
			}
		],
		"cosmo_sigma_profile": { 
			"-0.025": 0.0,
			"-0.024": 0.0,
			"-0.023": 0.0,
			"-0.022": 0.0,
			"-0.021": 0.0,
			"-0.02": 0.0,
			"-0.019": 0.0,
			"-0.018": 0.0,
			"-0.017": 0.0,
			"-0.016": 0.0,
			"-0.015": 0.0,
			"-0.014": 0.0,
			"-0.013": 0.0,
			"-0.012": 0.0,
			"-0.011": 0.22829801666,
			"-0.01": 2.18335349872,
			"-0.009": 5.29864097209,
			"-0.008": 10.2599171191,
			"-0.007": 7.42541583135,
			"-0.006": 7.69919717442,
			"-0.005": 7.06059148637,
			"-0.004": 6.71328983898,
			"-0.003": 7.13177579298,
			"-0.002": 6.98170595768,
			"-0.001": 7.07489460417,
			"0.0": 7.88063825361,
			"0.001": 6.34896684097,
			"0.002": 8.21881465454,
			"0.003": 12.1111000354,
			"0.004": 6.36739174004,
			"0.005": 3.09043180835,
			"0.006": 2.84774537661,
			"0.007": 2.83748770729,
			"0.008": 4.11912610067,
			"0.009": 4.93999084932,
			"0.01": 3.41001429649,
			"0.011": 6.15047716149,
			"0.012": 3.14751769778,
			"0.013": 0.155866994984,
			"0.014": 0.0,
			"0.015": 0.0,
			"0.016": 0.0,
			"0.017": 0.0,
			"0.018": 0.0,
			"0.019": 0.0,
			"0.02": 0.0,
			"0.021": 0.0,
			"0.022": 0.0,
			"0.023": 0.0,
			"0.024": 0.0,
			"0.025": 0.0
		}
	}
}
