{
	 "smiles": "CCCCN1N=C(C=CC1=O)C(O)=O", 
	 "Tm": 393.15, 
	 "num_atms": 26, 
	 "gaussian": { 
		 "optdone": 1, 
		 "sigma_profile": "yes", 
		 "theory": "DFT", 
		 "functional": "B3LYP", 
		 "basiset": "6-31G**", 
		 "properties": { 
			 "R2extent": 3293.2944, 
			 "electric_dipole_moment_norm": 1.79030134335, 
			 "electric_quadrupole_moment_norm": 6.38863386805, 
			 "total_energy": -685.367991661, 
			 "HOMO_LUMO_gap": 0.16798, 
			 "cosmo_polarized_energy": -13.32, 
			 "cosmo_cavitation_energy": 29.78, 
			 "cosmo_dispersion_energy": -21.21, 
			 "cosmo_repulsion_energy": 1.7, 
			 "cosmo_total_nonelectrostatic_energy": 10.27, 
			 "SMD_solvation_energy": 6.24 
		},
		"coords": [
			{
				"x": 0.2384834321,
				"y": -0.6743471563,
				"z": 3.6807310163,
				"element": "C" 
			},
			{
				"x": -0.0552408029,
				"y": -1.5560277555,
				"z": 2.4612852541,
				"element": "C" 
			},
			{
				"x": -1.3778423711,
				"y": -1.2380252031,
				"z": 1.7459078013,
				"element": "C" 
			},
			{
				"x": -1.4758977827,
				"y": 0.1551913227,
				"z": 1.1098624706,
				"element": "C" 
			},
			{
				"x": -0.5123552037,
				"y": 0.3476679833,
				"z": 0.0075275488,
				"element": "N" 
			},
			{
				"x": -0.7916541077,
				"y": -0.3265875511,
				"z": -1.1015729151,
				"element": "N" 
			},
			{
				"x": 0.0191412233,
				"y": -0.2107485281,
				"z": -2.1284314341,
				"element": "C" 
			},
			{
				"x": 1.1874775784,
				"y": 0.6131403401,
				"z": -2.0988164835,
				"element": "C" 
			},
			{
				"x": 1.4696901484,
				"y": 1.3023253878,
				"z": -0.9647425797,
				"element": "C" 
			},
			{
				"x": 0.6104974524,
				"y": 1.2039756014,
				"z": 0.2025533892,
				"element": "C" 
			},
			{
				"x": 0.7865135118,
				"y": 1.7792138083,
				"z": 1.2712622065,
				"element": "O" 
			},
			{
				"x": -0.2986741707,
				"y": -0.9656964681,
				"z": -3.3716326322,
				"element": "C" 
			},
			{
				"x": -1.4200914713,
				"y": -1.7070992677,
				"z": -3.2925366863,
				"element": "O" 
			},
			{
				"x": 0.3974983535,
				"y": -0.9139785506,
				"z": -4.3676145236,
				"element": "O" 
			},
			{
				"x": 1.1428719357,
				"y": -1.0148391843,
				"z": 4.1954632957,
				"element": "H" 
			},
			{
				"x": 0.3987126422,
				"y": 0.3677679191,
				"z": 3.3906921864,
				"element": "H" 
			},
			{
				"x": -0.5859215289,
				"y": -0.7110916483,
				"z": 4.4030774094,
				"element": "H" 
			},
			{
				"x": 0.7752068819,
				"y": -1.4818533199,
				"z": 1.7469941706,
				"element": "H" 
			},
			{
				"x": -0.0888012793,
				"y": -2.6083092125,
				"z": 2.7702236374,
				"element": "H" 
			},
			{
				"x": -1.5641916224,
				"y": -1.9808814447,
				"z": 0.961276329,
				"element": "H" 
			},
			{
				"x": -2.2083588176,
				"y": -1.3216634033,
				"z": 2.4595057081,
				"element": "H" 
			},
			{
				"x": -2.4710907158,
				"y": 0.3006585291,
				"z": 0.6822513101,
				"element": "H" 
			},
			{
				"x": -1.2749660717,
				"y": 0.9491248247,
				"z": 1.8280185478,
				"element": "H" 
			},
			{
				"x": 1.8094748548,
				"y": 0.6620771978,
				"z": -2.9857503118,
				"element": "H" 
			},
			{
				"x": 2.3354808664,
				"y": 1.9475665244,
				"z": -0.8683662407,
				"element": "H" 
			},
			{
				"x": -1.508262935,
				"y": -2.1404607452,
				"z": -4.1577684745,
				"element": "H" 
			}
		],
		 "valence_orbital": [ 
			{
				"type": "occ",
				"energy": -0.3241,
				"method": "rhf"
			},
			{
				"type": "occ",
				"energy": -0.31269,
				"method": "rhf"
			},
			{
				"type": "occ",
				"energy": -0.29145,
				"method": "rhf"
			},
			{
				"type": "occ",
				"energy": -0.25963,
				"method": "rhf"
			},
			{
				"type": "occ",
				"energy": -0.24688,
				"method": "rhf"
			},
			{
				"type": "unocc",
				"energy": -0.0789,
				"method": "rhf"
			},
			{
				"type": "unocc",
				"energy": -0.04478,
				"method": "rhf"
			},
			{
				"type": "unocc",
				"energy": 0.04834,
				"method": "rhf"
			},
			{
				"type": "unocc",
				"energy": 0.07129,
				"method": "rhf"
			},
			{
				"type": "unocc",
				"energy": 0.09268,
				"method": "rhf"
			}
		],
		"cosmo_sigma_profile": { 
			"-0.025": 0.0,
			"-0.024": 0.0,
			"-0.023": 0.0,
			"-0.022": 0.0,
			"-0.021": 0.0,
			"-0.02": 0.0,
			"-0.019": 0.354507877164,
			"-0.018": 1.14096330021,
			"-0.017": 0.911964088386,
			"-0.016": 0.616911812544,
			"-0.015": 0.729543585877,
			"-0.014": 0.572120291964,
			"-0.013": 0.756817042198,
			"-0.012": 0.968315981448,
			"-0.011": 0.706612155012,
			"-0.01": 0.314230394999,
			"-0.009": 1.08027367305,
			"-0.008": 4.64110034785,
			"-0.007": 4.18688343769,
			"-0.006": 5.9983859246,
			"-0.005": 7.60960526897,
			"-0.004": 17.2725188698,
			"-0.003": 27.1796691446,
			"-0.002": 27.6407599455,
			"-0.001": 26.1461628673,
			"0.0": 23.2615168159,
			"0.001": 17.2477759052,
			"0.002": 9.55925629152,
			"0.003": 6.18129008561,
			"0.004": 4.96579950619,
			"0.005": 5.16091693133,
			"0.006": 4.40290259524,
			"0.007": 4.27881682167,
			"0.008": 4.8140283568,
			"0.009": 4.63144066041,
			"0.01": 5.19476969168,
			"0.011": 7.59144688632,
			"0.012": 4.38147645489,
			"0.013": 3.67394388224,
			"0.014": 1.11948176629,
			"0.015": 0.00361282957157,
			"0.016": 0.0,
			"0.017": 0.0,
			"0.018": 0.0,
			"0.019": 0.0,
			"0.02": 0.0,
			"0.021": 0.0,
			"0.022": 0.0,
			"0.023": 0.0,
			"0.024": 0.0,
			"0.025": 0.0
		}
	}
}
