{
	 "smiles": "CN1C=NN=C1C1=CC=C(N)C=C1", 
	 "Tm": 530.15, 
	 "num_atms": 23, 
	 "gaussian": { 
		 "optdone": 1, 
		 "sigma_profile": "yes", 
		 "theory": "DFT", 
		 "functional": "B3LYP", 
		 "basiset": "6-31G**", 
		 "properties": { 
			 "R2extent": 3082.8465, 
			 "electric_dipole_moment_norm": 6.21426111215, 
			 "electric_quadrupole_moment_norm": 22.9736081134, 
			 "total_energy": -567.972647836, 
			 "HOMO_LUMO_gap": 0.18591, 
			 "cosmo_polarized_energy": -22.72, 
			 "cosmo_cavitation_energy": 26.93, 
			 "cosmo_dispersion_energy": -19.89, 
			 "cosmo_repulsion_energy": 1.55, 
			 "cosmo_total_nonelectrostatic_energy": 8.6, 
			 "SMD_solvation_energy": 3.08 
		},
		"coords": [
			{
				"x": 1.5328048104,
				"y": 2.7571465178,
				"z": -1.4606989066,
				"element": "C" 
			},
			{
				"x": 2.0652570016,
				"y": 1.4163460766,
				"z": -1.6484117189,
				"element": "N" 
			},
			{
				"x": 3.0435559757,
				"y": 1.0585411212,
				"z": -2.5392630489,
				"element": "C" 
			},
			{
				"x": 3.3754250224,
				"y": -0.1999217291,
				"z": -2.3995696524,
				"element": "N" 
			},
			{
				"x": 2.5971811767,
				"y": -0.7106125904,
				"z": -1.3859561925,
				"element": "N" 
			},
			{
				"x": 1.8145220162,
				"y": 0.2573758038,
				"z": -0.9385301343,
				"element": "C" 
			},
			{
				"x": 0.8661349386,
				"y": 0.1014008746,
				"z": 0.1693788627,
				"element": "C" 
			},
			{
				"x": 1.1649560106,
				"y": -0.8308722096,
				"z": 1.1801431185,
				"element": "C" 
			},
			{
				"x": 0.294896326,
				"y": -1.0483690246,
				"z": 2.2376819211,
				"element": "C" 
			},
			{
				"x": -0.918367984,
				"y": -0.3397175516,
				"z": 2.3301259401,
				"element": "C" 
			},
			{
				"x": -1.762480974,
				"y": -0.5123217088,
				"z": 3.4229721306,
				"element": "N" 
			},
			{
				"x": -1.228358514,
				"y": 0.5825332569,
				"z": 1.3161507107,
				"element": "C" 
			},
			{
				"x": -0.3531553347,
				"y": 0.792911051,
				"z": 0.2554322174,
				"element": "C" 
			},
			{
				"x": 0.5954115323,
				"y": 2.9010476194,
				"z": -2.0078388517,
				"element": "H" 
			},
			{
				"x": 1.3553589253,
				"y": 2.939876974,
				"z": -0.3993922918,
				"element": "H" 
			},
			{
				"x": 2.2640623807,
				"y": 3.4820447947,
				"z": -1.8243672154,
				"element": "H" 
			},
			{
				"x": 3.4679976679,
				"y": 1.7523551575,
				"z": -3.2518900572,
				"element": "H" 
			},
			{
				"x": 2.0934905876,
				"y": -1.3873538727,
				"z": 1.1124508256,
				"element": "H" 
			},
			{
				"x": 0.5531930946,
				"y": -1.7688964464,
				"z": 3.0098212308,
				"element": "H" 
			},
			{
				"x": -2.728506834,
				"y": -0.2554748012,
				"z": 3.2759042933,
				"element": "H" 
			},
			{
				"x": -1.6688312958,
				"y": -1.3911622299,
				"z": 3.9126292027,
				"element": "H" 
			},
			{
				"x": -2.1671839625,
				"y": 1.1292517946,
				"z": 1.3571639415,
				"element": "H" 
			},
			{
				"x": -0.6491625677,
				"y": 1.481971122,
				"z": -0.5288363255,
				"element": "H" 
			}
		],
		 "valence_orbital": [ 
			{
				"type": "occ",
				"energy": -0.27816,
				"method": "rhf"
			},
			{
				"type": "occ",
				"energy": -0.25589,
				"method": "rhf"
			},
			{
				"type": "occ",
				"energy": -0.25361,
				"method": "rhf"
			},
			{
				"type": "occ",
				"energy": -0.23713,
				"method": "rhf"
			},
			{
				"type": "occ",
				"energy": -0.19993,
				"method": "rhf"
			},
			{
				"type": "unocc",
				"energy": -0.01402,
				"method": "rhf"
			},
			{
				"type": "unocc",
				"energy": -0.00449,
				"method": "rhf"
			},
			{
				"type": "unocc",
				"energy": 0.04043,
				"method": "rhf"
			},
			{
				"type": "unocc",
				"energy": 0.06603,
				"method": "rhf"
			},
			{
				"type": "unocc",
				"energy": 0.07753,
				"method": "rhf"
			}
		],
		"cosmo_sigma_profile": { 
			"-0.025": 0.0,
			"-0.024": 0.0,
			"-0.023": 0.0,
			"-0.022": 0.0,
			"-0.021": 0.0,
			"-0.02": 0.0,
			"-0.019": 0.0,
			"-0.018": 0.0,
			"-0.017": 0.0,
			"-0.016": 0.0,
			"-0.015": 0.0,
			"-0.014": 0.0,
			"-0.013": 1.02423089279,
			"-0.012": 2.90904213992,
			"-0.011": 2.80769259067,
			"-0.01": 4.43690757253,
			"-0.009": 6.89207826314,
			"-0.008": 7.07279670166,
			"-0.007": 10.7432385743,
			"-0.006": 13.4492401817,
			"-0.005": 15.7523785056,
			"-0.004": 18.0977752306,
			"-0.003": 12.9257234479,
			"-0.002": 9.28342694339,
			"-0.001": 7.94473921645,
			"0.0": 9.50679651827,
			"0.001": 8.95617347331,
			"0.002": 8.64529400478,
			"0.003": 8.49192812865,
			"0.004": 10.0694833375,
			"0.005": 14.9065980146,
			"0.006": 7.43529771205,
			"0.007": 3.18727011916,
			"0.008": 3.34676913937,
			"0.009": 2.59675706051,
			"0.01": 3.59272859754,
			"0.011": 2.21856669227,
			"0.012": 2.8747131521,
			"0.013": 3.67391288352,
			"0.014": 3.98629873864,
			"0.015": 3.21558075934,
			"0.016": 2.41162151215,
			"0.017": 1.94311340271,
			"0.018": 0.455329525921,
			"0.019": 0.0,
			"0.02": 0.0,
			"0.021": 0.0,
			"0.022": 0.0,
			"0.023": 0.0,
			"0.024": 0.0,
			"0.025": 0.0
		}
	}
}
