{
	 "smiles": "CC(C)(C(CC(O)=O)C1=CC=CC=C1)C(O)=O", 
	 "Tm": 444.15, 
	 "num_atms": 33, 
	 "gaussian": { 
		 "optdone": 1, 
		 "sigma_profile": "yes", 
		 "theory": "DFT", 
		 "functional": "B3LYP", 
		 "basiset": "6-31G**", 
		 "properties": { 
			 "R2extent": 4153.6465, 
			 "electric_dipole_moment_norm": 1.60762207002, 
			 "electric_quadrupole_moment_norm": 6.83199252268, 
			 "total_energy": -805.955478637, 
			 "HOMO_LUMO_gap": 0.23538, 
			 "cosmo_polarized_energy": -14.92, 
			 "cosmo_cavitation_energy": 34.2, 
			 "cosmo_dispersion_energy": -23.7, 
			 "cosmo_repulsion_energy": 1.83, 
			 "cosmo_total_nonelectrostatic_energy": 12.32, 
			 "SMD_solvation_energy": 7.66 
		},
		"coords": [
			{
				"x": 0.3138292349,
				"y": 1.5417920994,
				"z": 1.6921160042,
				"element": "C" 
			},
			{
				"x": -0.3126422647,
				"y": 0.7929704275,
				"z": 0.4821406412,
				"element": "C" 
			},
			{
				"x": -0.8352413037,
				"y": -0.5657972919,
				"z": 0.9875849521,
				"element": "C" 
			},
			{
				"x": 0.7692639133,
				"y": 0.7020967486,
				"z": -0.6657450877,
				"element": "C" 
			},
			{
				"x": 0.2379180069,
				"y": 0.4568502882,
				"z": -2.118234234,
				"element": "C" 
			},
			{
				"x": -0.8089177565,
				"y": -0.6084825079,
				"z": -2.3462453771,
				"element": "C" 
			},
			{
				"x": -0.3361239598,
				"y": -1.681185946,
				"z": -3.0298610881,
				"element": "O" 
			},
			{
				"x": -1.9722865685,
				"y": -0.534890607,
				"z": -2.0043594382,
				"element": "O" 
			},
			{
				"x": 1.9477865842,
				"y": -0.2005016405,
				"z": -0.3118951594,
				"element": "C" 
			},
			{
				"x": 1.9287304008,
				"y": -1.5904534279,
				"z": -0.5085987282,
				"element": "C" 
			},
			{
				"x": 3.0327542905,
				"y": -2.3782140203,
				"z": -0.1792161857,
				"element": "C" 
			},
			{
				"x": 4.1835977817,
				"y": -1.7949811932,
				"z": 0.3532101783,
				"element": "C" 
			},
			{
				"x": 4.2236041693,
				"y": -0.4139135994,
				"z": 0.5451664502,
				"element": "C" 
			},
			{
				"x": 3.1182028136,
				"y": 0.3703859703,
				"z": 0.2115877272,
				"element": "C" 
			},
			{
				"x": -1.4439461913,
				"y": 1.7140700798,
				"z": 0.0126285768,
				"element": "C" 
			},
			{
				"x": -2.6231008617,
				"y": 1.4634887119,
				"z": 0.6211373764,
				"element": "O" 
			},
			{
				"x": -1.3068815119,
				"y": 2.646640321,
				"z": -0.7548191841,
				"element": "O" 
			},
			{
				"x": -0.4285961088,
				"y": 1.6635222016,
				"z": 2.4863634786,
				"element": "H" 
			},
			{
				"x": 0.6737995899,
				"y": 2.5341309733,
				"z": 1.4033556661,
				"element": "H" 
			},
			{
				"x": 1.1531985061,
				"y": 0.9697912014,
				"z": 2.0957477027,
				"element": "H" 
			},
			{
				"x": -1.3643631798,
				"y": -1.1233025396,
				"z": 0.2151171736,
				"element": "H" 
			},
			{
				"x": -1.5337028679,
				"y": -0.4100435167,
				"z": 1.8125221588,
				"element": "H" 
			},
			{
				"x": -0.0029571337,
				"y": -1.1695096058,
				"z": 1.3572005167,
				"element": "H" 
			},
			{
				"x": 1.1738082083,
				"y": 1.7168944031,
				"z": -0.7318832548,
				"element": "H" 
			},
			{
				"x": -0.2350510922,
				"y": 1.3875960029,
				"z": -2.4391141563,
				"element": "H" 
			},
			{
				"x": 1.0958255187,
				"y": 0.2584508842,
				"z": -2.7635175461,
				"element": "H" 
			},
			{
				"x": -1.0956522234,
				"y": -2.2775178157,
				"z": -3.1487366322,
				"element": "H" 
			},
			{
				"x": 1.0554983009,
				"y": -2.0662672397,
				"z": -0.9409084618,
				"element": "H" 
			},
			{
				"x": 2.9931036851,
				"y": -3.4513150619,
				"z": -0.3445154106,
				"element": "H" 
			},
			{
				"x": 5.0424457347,
				"y": -2.4095098698,
				"z": 0.6072398358,
				"element": "H" 
			},
			{
				"x": 5.1165204012,
				"y": 0.0567483449,
				"z": 0.9470741401,
				"element": "H" 
			},
			{
				"x": 3.1664677468,
				"y": 1.4471823948,
				"z": 0.3526994147,
				"element": "H" 
			},
			{
				"x": -3.2447918627,
				"y": 2.1242748302,
				"z": 0.2721579506,
				"element": "H" 
			}
		],
		 "valence_orbital": [ 
			{
				"type": "occ",
				"energy": -0.30927,
				"method": "rhf"
			},
			{
				"type": "occ",
				"energy": -0.27625,
				"method": "rhf"
			},
			{
				"type": "occ",
				"energy": -0.26531,
				"method": "rhf"
			},
			{
				"type": "occ",
				"energy": -0.25057,
				"method": "rhf"
			},
			{
				"type": "occ",
				"energy": -0.24477,
				"method": "rhf"
			},
			{
				"type": "unocc",
				"energy": -0.00939,
				"method": "rhf"
			},
			{
				"type": "unocc",
				"energy": -0.00313,
				"method": "rhf"
			},
			{
				"type": "unocc",
				"energy": 0.00514,
				"method": "rhf"
			},
			{
				"type": "unocc",
				"energy": 0.01591,
				"method": "rhf"
			},
			{
				"type": "unocc",
				"energy": 0.06974,
				"method": "rhf"
			}
		],
		"cosmo_sigma_profile": { 
			"-0.025": 0.0,
			"-0.024": 0.0,
			"-0.023": 0.0,
			"-0.022": 0.0,
			"-0.021": 0.0,
			"-0.02": 0.0,
			"-0.019": 0.0,
			"-0.018": 1.0067223679,
			"-0.017": 2.4687228741,
			"-0.016": 1.47635536222,
			"-0.015": 1.178112783,
			"-0.014": 1.80900317562,
			"-0.013": 1.303362336,
			"-0.012": 1.5739719478,
			"-0.011": 1.47237922391,
			"-0.01": 1.17853374994,
			"-0.009": 1.33766138697,
			"-0.008": 1.02859482885,
			"-0.007": 1.40539303443,
			"-0.006": 5.39996540192,
			"-0.005": 15.5052392058,
			"-0.004": 20.7085116407,
			"-0.003": 28.0535098505,
			"-0.002": 24.2861575239,
			"-0.001": 23.2009686557,
			"0.0": 23.3691187592,
			"0.001": 17.1964815609,
			"0.002": 11.9090556261,
			"0.003": 11.5520361309,
			"0.004": 12.2923562019,
			"0.005": 13.9125656449,
			"0.006": 10.3181869799,
			"0.007": 5.66238748649,
			"0.008": 6.36024219632,
			"0.009": 5.2597629906,
			"0.01": 5.34935065345,
			"0.011": 5.2464142307,
			"0.012": 5.23221467989,
			"0.013": 0.253072949529,
			"0.014": 0.0,
			"0.015": 0.0,
			"0.016": 0.0,
			"0.017": 0.0,
			"0.018": 0.0,
			"0.019": 0.0,
			"0.02": 0.0,
			"0.021": 0.0,
			"0.022": 0.0,
			"0.023": 0.0,
			"0.024": 0.0,
			"0.025": 0.0
		}
	}
}
