{
	 "smiles": "CNC(=O)C1=C(N)C=C(OC)C(OC)=C1", 
	 "Tm": 403.15, 
	 "num_atms": 29, 
	 "gaussian": { 
		 "optdone": 1, 
		 "sigma_profile": "yes", 
		 "theory": "DFT", 
		 "functional": "B3LYP", 
		 "basiset": "6-31G**", 
		 "properties": { 
			 "R2extent": 4297.4722, 
			 "electric_dipole_moment_norm": 1.97699932979, 
			 "electric_quadrupole_moment_norm": 7.23374308432, 
			 "total_energy": -724.669356216, 
			 "HOMO_LUMO_gap": 0.16672, 
			 "cosmo_polarized_energy": -13.95, 
			 "cosmo_cavitation_energy": 32.04, 
			 "cosmo_dispersion_energy": -23.41, 
			 "cosmo_repulsion_energy": 1.86, 
			 "cosmo_total_nonelectrostatic_energy": 10.49, 
			 "SMD_solvation_energy": 7.04 
		},
		"coords": [
			{
				"x": -3.9574096399,
				"y": -1.0824296648,
				"z": -1.096293419,
				"element": "C" 
			},
			{
				"x": -2.5145271565,
				"y": -0.9393910645,
				"z": -1.0126159261,
				"element": "N" 
			},
			{
				"x": -1.84265522,
				"y": -1.1886489128,
				"z": 0.1556938748,
				"element": "C" 
			},
			{
				"x": -2.463555985,
				"y": -1.4850013385,
				"z": 1.1871060851,
				"element": "O" 
			},
			{
				"x": -0.3580453893,
				"y": -1.0702734299,
				"z": 0.1086739624,
				"element": "C" 
			},
			{
				"x": 0.4406828594,
				"y": -1.6860002886,
				"z": 1.1148312785,
				"element": "C" 
			},
			{
				"x": -0.1173811992,
				"y": -2.4299807923,
				"z": 2.1257754647,
				"element": "N" 
			},
			{
				"x": 1.8437494953,
				"y": -1.5753818564,
				"z": 1.0141909033,
				"element": "C" 
			},
			{
				"x": 2.4526972655,
				"y": -0.8569171494,
				"z": -0.0043801494,
				"element": "C" 
			},
			{
				"x": 3.8232748792,
				"y": -0.7599765046,
				"z": -0.0027059496,
				"element": "O" 
			},
			{
				"x": 4.4802540617,
				"y": -1.3370900604,
				"z": -1.1386471858,
				"element": "C" 
			},
			{
				"x": 1.6616096733,
				"y": -0.19633638,
				"z": -0.9698698114,
				"element": "C" 
			},
			{
				"x": 2.2275745983,
				"y": 0.554272256,
				"z": -1.9840626229,
				"element": "O" 
			},
			{
				"x": 2.7751386656,
				"y": 1.8043888922,
				"z": -1.5520902397,
				"element": "C" 
			},
			{
				"x": 0.2833507657,
				"y": -0.3198078237,
				"z": -0.894084762,
				"element": "C" 
			},
			{
				"x": -4.386876396,
				"y": -0.8095246173,
				"z": -0.1322595901,
				"element": "H" 
			},
			{
				"x": -4.3486278223,
				"y": -0.4175580874,
				"z": -1.8712367607,
				"element": "H" 
			},
			{
				"x": -4.2628937662,
				"y": -2.1120497122,
				"z": -1.3247884114,
				"element": "H" 
			},
			{
				"x": -1.9875443775,
				"y": -0.9491577705,
				"z": -1.8716079224,
				"element": "H" 
			},
			{
				"x": -1.1045699132,
				"y": -2.2571596612,
				"z": 2.2853203572,
				"element": "H" 
			},
			{
				"x": 0.4618441869,
				"y": -2.6178945091,
				"z": 2.9289090711,
				"element": "H" 
			},
			{
				"x": 2.4808073919,
				"y": -2.0607552863,
				"z": 1.7477284666,
				"element": "H" 
			},
			{
				"x": 4.1536456063,
				"y": -0.868163534,
				"z": -2.0709471129,
				"element": "H" 
			},
			{
				"x": 4.2903593275,
				"y": -2.4167347652,
				"z": -1.1851073429,
				"element": "H" 
			},
			{
				"x": 5.5482889487,
				"y": -1.1660546439,
				"z": -0.9898322028,
				"element": "H" 
			},
			{
				"x": 1.995677456,
				"y": 2.4421477646,
				"z": -1.1157710073,
				"element": "H" 
			},
			{
				"x": 3.5740108235,
				"y": 1.657062749,
				"z": -0.8173721379,
				"element": "H" 
			},
			{
				"x": 3.1810972109,
				"y": 2.289041534,
				"z": -2.4430150964,
				"element": "H" 
			},
			{
				"x": -0.2982763503,
				"y": 0.2304746571,
				"z": -1.627041813,
				"element": "H" 
			}
		],
		 "valence_orbital": [ 
			{
				"type": "occ",
				"energy": -0.26307,
				"method": "rhf"
			},
			{
				"type": "occ",
				"energy": -0.25623,
				"method": "rhf"
			},
			{
				"type": "occ",
				"energy": -0.2442,
				"method": "rhf"
			},
			{
				"type": "occ",
				"energy": -0.23608,
				"method": "rhf"
			},
			{
				"type": "occ",
				"energy": -0.1923,
				"method": "rhf"
			},
			{
				"type": "unocc",
				"energy": -0.02558,
				"method": "rhf"
			},
			{
				"type": "unocc",
				"energy": 0.01581,
				"method": "rhf"
			},
			{
				"type": "unocc",
				"energy": 0.06497,
				"method": "rhf"
			},
			{
				"type": "unocc",
				"energy": 0.08316,
				"method": "rhf"
			},
			{
				"type": "unocc",
				"energy": 0.09438,
				"method": "rhf"
			}
		],
		"cosmo_sigma_profile": { 
			"-0.025": 0.0,
			"-0.024": 0.0,
			"-0.023": 0.0,
			"-0.022": 0.0,
			"-0.021": 0.0,
			"-0.02": 0.0,
			"-0.019": 0.0,
			"-0.018": 0.0,
			"-0.017": 0.0,
			"-0.016": 0.0,
			"-0.015": 0.00941336543361,
			"-0.014": 0.743066416378,
			"-0.013": 1.37910916734,
			"-0.012": 2.98353976301,
			"-0.011": 1.96978394425,
			"-0.01": 2.69846419865,
			"-0.009": 3.28221519666,
			"-0.008": 3.6993599585,
			"-0.007": 3.3796413513,
			"-0.006": 7.04073277198,
			"-0.005": 13.6200703676,
			"-0.004": 19.8315672639,
			"-0.003": 26.3984097285,
			"-0.002": 27.5655108024,
			"-0.001": 18.6363233332,
			"0.0": 15.6696283399,
			"0.001": 13.2566361104,
			"0.002": 13.3478840677,
			"0.003": 14.2938536844,
			"0.004": 17.8431256255,
			"0.005": 10.1540617576,
			"0.006": 4.99998057225,
			"0.007": 5.39606319633,
			"0.008": 4.33322339786,
			"0.009": 3.74839224195,
			"0.01": 4.00213111071,
			"0.011": 4.52717457924,
			"0.012": 4.03887960101,
			"0.013": 2.74369894453,
			"0.014": 1.45323614902,
			"0.015": 0.0603205775294,
			"0.016": 0.0,
			"0.017": 0.0,
			"0.018": 0.0,
			"0.019": 0.0,
			"0.02": 0.0,
			"0.021": 0.0,
			"0.022": 0.0,
			"0.023": 0.0,
			"0.024": 0.0,
			"0.025": 0.0
		}
	}
}
