{
	 "smiles": "CCOC(=O)CC(SP(=S)(OC)OC)C(=O)OCC", 
	 "Tm": 275.95, 
	 "num_atms": 38, 
	 "gaussian": { 
		 "optdone": 1, 
		 "sigma_profile": "yes", 
		 "theory": "DFT", 
		 "functional": "B3LYP", 
		 "basiset": "6-31G**", 
		 "properties": { 
			 "R2extent": 7561.5192, 
			 "electric_dipole_moment_norm": 4.51968730002, 
			 "electric_quadrupole_moment_norm": 22.8652949515, 
			 "total_energy": -1981.66613233, 
			 "HOMO_LUMO_gap": 0.21647, 
			 "cosmo_polarized_energy": -17.56, 
			 "cosmo_cavitation_energy": 46.8, 
			 "cosmo_dispersion_energy": -29.83, 
			 "cosmo_repulsion_energy": 2.27, 
			 "cosmo_total_nonelectrostatic_energy": 19.24, 
			 "SMD_solvation_energy": 10.13 
		},
		"coords": [
			{
				"x": 2.6542838081,
				"y": -3.0969494923,
				"z": 1.1999225233,
				"element": "C" 
			},
			{
				"x": 2.7340109658,
				"y": -2.7135975225,
				"z": -0.2650252192,
				"element": "C" 
			},
			{
				"x": 1.7447061269,
				"y": -1.6816387917,
				"z": -0.5012149226,
				"element": "O" 
			},
			{
				"x": 1.6583126389,
				"y": -1.2282843078,
				"z": -1.7709168509,
				"element": "C" 
			},
			{
				"x": 2.3354565171,
				"y": -1.6435433191,
				"z": -2.6834708783,
				"element": "O" 
			},
			{
				"x": 0.5817042735,
				"y": -0.1645188902,
				"z": -1.933640443,
				"element": "C" 
			},
			{
				"x": 0.0353099547,
				"y": 0.4217782574,
				"z": -0.6333246026,
				"element": "C" 
			},
			{
				"x": -1.3280708612,
				"y": 1.6591623884,
				"z": -0.9800089175,
				"element": "S" 
			},
			{
				"x": -3.0551370128,
				"y": 0.5500816629,
				"z": -0.4499024426,
				"element": "P" 
			},
			{
				"x": -4.64340362,
				"y": 1.6549390729,
				"z": -0.5718982439,
				"element": "S" 
			},
			{
				"x": -3.0003870523,
				"y": -0.8136086312,
				"z": -1.3233519779,
				"element": "O" 
			},
			{
				"x": -3.4919267341,
				"y": -0.8168880893,
				"z": -2.6772809757,
				"element": "C" 
			},
			{
				"x": -2.7136479378,
				"y": -0.1729028647,
				"z": 0.9563015643,
				"element": "O" 
			},
			{
				"x": -2.6695308669,
				"y": 0.599949098,
				"z": 2.1734666366,
				"element": "C" 
			},
			{
				"x": 1.1132560499,
				"y": 1.1663620161,
				"z": 0.1466392401,
				"element": "C" 
			},
			{
				"x": 2.1181722239,
				"y": 1.621778959,
				"z": -0.355210414,
				"element": "O" 
			},
			{
				"x": 0.7964687805,
				"y": 1.2647763454,
				"z": 1.4517637742,
				"element": "O" 
			},
			{
				"x": 1.7251345992,
				"y": 2.0049615115,
				"z": 2.2876045422,
				"element": "C" 
			},
			{
				"x": 2.8484662594,
				"y": 1.1113444446,
				"z": 2.789053179,
				"element": "C" 
			},
			{
				"x": 1.6611340553,
				"y": -3.4801839826,
				"z": 1.4513589064,
				"element": "H" 
			},
			{
				"x": 2.8653530658,
				"y": -2.2368535871,
				"z": 1.8419008722,
				"element": "H" 
			},
			{
				"x": 3.3896086335,
				"y": -3.8774924375,
				"z": 1.4184266683,
				"element": "H" 
			},
			{
				"x": 2.5206876678,
				"y": -3.5590724176,
				"z": -0.925923635,
				"element": "H" 
			},
			{
				"x": 3.7183265606,
				"y": -2.3214194007,
				"z": -0.5380665741,
				"element": "H" 
			},
			{
				"x": -0.2376446855,
				"y": -0.6248267191,
				"z": -2.4946647344,
				"element": "H" 
			},
			{
				"x": 1.0051694508,
				"y": 0.6208274881,
				"z": -2.5636436063,
				"element": "H" 
			},
			{
				"x": -0.3896234924,
				"y": -0.3492533894,
				"z": 0.0099488954,
				"element": "H" 
			},
			{
				"x": -3.401763536,
				"y": -1.8472803125,
				"z": -3.0226909578,
				"element": "H" 
			},
			{
				"x": -2.8885096416,
				"y": -0.1593213503,
				"z": -3.3115802547,
				"element": "H" 
			},
			{
				"x": -4.5369357127,
				"y": -0.4993327864,
				"z": -2.7072460873,
				"element": "H" 
			},
			{
				"x": -1.7696300915,
				"y": 1.2202011337,
				"z": 2.1915999992,
				"element": "H" 
			},
			{
				"x": -3.5647379949,
				"y": 1.2202817327,
				"z": 2.2676131776,
				"element": "H" 
			},
			{
				"x": -2.6352134532,
				"y": -0.1285283861,
				"z": 2.9842373269,
				"element": "H" 
			},
			{
				"x": 2.1153036613,
				"y": 2.8484494494,
				"z": 1.7138952321,
				"element": "H" 
			},
			{
				"x": 1.1095908402,
				"y": 2.3776679067,
				"z": 3.1093271428,
				"element": "H" 
			},
			{
				"x": 2.4483800505,
				"y": 0.246415318,
				"z": 3.3265409397,
				"element": "H" 
			},
			{
				"x": 3.4907637379,
				"y": 1.6741848903,
				"z": 3.4744020924,
				"element": "H" 
			},
			{
				"x": 3.4615627713,
				"y": 0.7614350032,
				"z": 1.955059025,
				"element": "H" 
			}
		],
		 "valence_orbital": [ 
			{
				"type": "occ",
				"energy": -0.29384,
				"method": "rhf"
			},
			{
				"type": "occ",
				"energy": -0.28045,
				"method": "rhf"
			},
			{
				"type": "occ",
				"energy": -0.26907,
				"method": "rhf"
			},
			{
				"type": "occ",
				"energy": -0.24852,
				"method": "rhf"
			},
			{
				"type": "occ",
				"energy": -0.24602,
				"method": "rhf"
			},
			{
				"type": "unocc",
				"energy": -0.02955,
				"method": "rhf"
			},
			{
				"type": "unocc",
				"energy": -0.01203,
				"method": "rhf"
			},
			{
				"type": "unocc",
				"energy": 0.00723,
				"method": "rhf"
			},
			{
				"type": "unocc",
				"energy": 0.02678,
				"method": "rhf"
			},
			{
				"type": "unocc",
				"energy": 0.04056,
				"method": "rhf"
			}
		],
		"cosmo_sigma_profile": { 
			"-0.025": 0.0,
			"-0.024": 0.0,
			"-0.023": 0.0,
			"-0.022": 0.0,
			"-0.021": 0.0,
			"-0.02": 0.0,
			"-0.019": 0.0,
			"-0.018": 0.0,
			"-0.017": 0.0,
			"-0.016": 0.0,
			"-0.015": 0.0,
			"-0.014": 0.0,
			"-0.013": 0.0,
			"-0.012": 0.0,
			"-0.011": 0.0,
			"-0.01": 0.0,
			"-0.009": 0.0,
			"-0.008": 0.205935018603,
			"-0.007": 5.42398815846,
			"-0.006": 16.7989628793,
			"-0.005": 30.9988857249,
			"-0.004": 46.9606970405,
			"-0.003": 41.6202606027,
			"-0.002": 33.8191892532,
			"-0.001": 27.8694445035,
			"0.0": 28.1667018525,
			"0.001": 20.4996494284,
			"0.002": 19.5640379498,
			"0.003": 17.7408250543,
			"0.004": 13.4965940224,
			"0.005": 11.5394161445,
			"0.006": 11.1424143945,
			"0.007": 11.2578401493,
			"0.008": 10.0532492069,
			"0.009": 6.06249177008,
			"0.01": 6.11899581389,
			"0.011": 7.22010999476,
			"0.012": 4.28054097574,
			"0.013": 0.655320845916,
			"0.014": 0.0,
			"0.015": 0.0,
			"0.016": 0.0,
			"0.017": 0.0,
			"0.018": 0.0,
			"0.019": 0.0,
			"0.02": 0.0,
			"0.021": 0.0,
			"0.022": 0.0,
			"0.023": 0.0,
			"0.024": 0.0,
			"0.025": 0.0
		}
	}
}
