{
	 "smiles": "NC1=CC(=CC(=C1)[N+]([O-])=O)[N+]([O-])=O", 
	 "Tm": 435.15, 
	 "num_atms": 18, 
	 "gaussian": { 
		 "optdone": 1, 
		 "sigma_profile": "yes", 
		 "theory": "DFT", 
		 "functional": "B3LYP", 
		 "basiset": "6-31G**", 
		 "properties": { 
			 "R2extent": 2581.7282, 
			 "electric_dipole_moment_norm": 6.15380998488, 
			 "electric_quadrupole_moment_norm": 17.28893624, 
			 "total_energy": -696.600415008, 
			 "HOMO_LUMO_gap": 0.14102, 
			 "cosmo_polarized_energy": -16.13, 
			 "cosmo_cavitation_energy": 24.44, 
			 "cosmo_dispersion_energy": -17.95, 
			 "cosmo_repulsion_energy": 1.42, 
			 "cosmo_total_nonelectrostatic_energy": 7.91, 
			 "SMD_solvation_energy": 8.82 
		},
		"coords": [
			{
				"x": -0.9874150197,
				"y": 2.5731985193,
				"z": -1.1628882831,
				"element": "N" 
			},
			{
				"x": -0.509864494,
				"y": 1.4027305923,
				"z": -0.6068024634,
				"element": "C" 
			},
			{
				"x": -0.7760032616,
				"y": 1.0832610846,
				"z": 0.7373688572,
				"element": "C" 
			},
			{
				"x": -0.3280181609,
				"y": -0.1258259166,
				"z": 1.2555699776,
				"element": "C" 
			},
			{
				"x": 0.3833433404,
				"y": -1.0603232011,
				"z": 0.5115374313,
				"element": "C" 
			},
			{
				"x": 0.6320763814,
				"y": -0.7166344957,
				"z": -0.8124414482,
				"element": "C" 
			},
			{
				"x": 0.2093026206,
				"y": 0.4769552581,
				"z": -1.3849012638,
				"element": "C" 
			},
			{
				"x": 1.3883496909,
				"y": -1.6657739467,
				"z": -1.6560920206,
				"element": "N" 
			},
			{
				"x": 1.7516780865,
				"y": -2.7180298729,
				"z": -1.1379368269,
				"element": "O" 
			},
			{
				"x": 1.6053420709,
				"y": -1.3400005717,
				"z": -2.8220280877,
				"element": "O" 
			},
			{
				"x": -0.6210572342,
				"y": -0.4292596304,
				"z": 2.6721201232,
				"element": "N" 
			},
			{
				"x": -0.222298939,
				"y": -1.5028103942,
				"z": 3.115086986,
				"element": "O" 
			},
			{
				"x": -1.2445439566,
				"y": 0.4132757582,
				"z": 3.3155694601,
				"element": "O" 
			},
			{
				"x": -1.241013615,
				"y": 3.3160972518,
				"z": -0.5291268195,
				"element": "H" 
			},
			{
				"x": -0.5511186761,
				"y": 2.8916596923,
				"z": -2.0149978882,
				"element": "H" 
			},
			{
				"x": -1.3274476274,
				"y": 1.7586385316,
				"z": 1.3804429142,
				"element": "H" 
			},
			{
				"x": 0.7231235081,
				"y": -1.9933901094,
				"z": 0.9358790873,
				"element": "H" 
			},
			{
				"x": 0.4395652858,
				"y": 0.6713314504,
				"z": -2.4255597354,
				"element": "H" 
			}
		],
		 "valence_orbital": [ 
			{
				"type": "occ",
				"energy": -0.31615,
				"method": "rhf"
			},
			{
				"type": "occ",
				"energy": -0.30433,
				"method": "rhf"
			},
			{
				"type": "occ",
				"energy": -0.30378,
				"method": "rhf"
			},
			{
				"type": "occ",
				"energy": -0.30269,
				"method": "rhf"
			},
			{
				"type": "occ",
				"energy": -0.24829,
				"method": "rhf"
			},
			{
				"type": "unocc",
				"energy": -0.10727,
				"method": "rhf"
			},
			{
				"type": "unocc",
				"energy": -0.09471,
				"method": "rhf"
			},
			{
				"type": "unocc",
				"energy": -0.01408,
				"method": "rhf"
			},
			{
				"type": "unocc",
				"energy": -0.00231,
				"method": "rhf"
			},
			{
				"type": "unocc",
				"energy": 0.05008,
				"method": "rhf"
			}
		],
		"cosmo_sigma_profile": { 
			"-0.025": 0.0,
			"-0.024": 0.0,
			"-0.023": 0.0,
			"-0.022": 0.0,
			"-0.021": 0.0,
			"-0.02": 0.0,
			"-0.019": 0.0,
			"-0.018": 0.0,
			"-0.017": 0.0,
			"-0.016": 0.0,
			"-0.015": 0.0860482563867,
			"-0.014": 2.60458579715,
			"-0.013": 4.32626634453,
			"-0.012": 2.8503084764,
			"-0.011": 3.78892334088,
			"-0.01": 3.57592532904,
			"-0.009": 3.58737376122,
			"-0.008": 3.67588155443,
			"-0.007": 4.08232576895,
			"-0.006": 7.287215758,
			"-0.005": 7.91569245901,
			"-0.004": 8.28645061057,
			"-0.003": 8.32102623588,
			"-0.002": 15.9114319518,
			"-0.001": 22.2313209159,
			"0.0": 13.4143660991,
			"0.001": 7.38799313393,
			"0.002": 5.58060164552,
			"0.003": 5.44247321995,
			"0.004": 5.89831011193,
			"0.005": 7.45490157974,
			"0.006": 10.4293832932,
			"0.007": 20.0161709282,
			"0.008": 10.8856784522,
			"0.009": 8.14833842899,
			"0.01": 2.38904832887,
			"0.011": 0.470757257265,
			"0.012": 0.0,
			"0.013": 0.0,
			"0.014": 0.0,
			"0.015": 0.0,
			"0.016": 0.0,
			"0.017": 0.0,
			"0.018": 0.0,
			"0.019": 0.0,
			"0.02": 0.0,
			"0.021": 0.0,
			"0.022": 0.0,
			"0.023": 0.0,
			"0.024": 0.0,
			"0.025": 0.0
		}
	}
}
