{
	 "smiles": "CC(CC1=CC=CC=C1)NC(C#N)C1=CC=CC=C1", 
	 "Tm": 358.15, 
	 "num_atms": 37, 
	 "gaussian": { 
		 "optdone": 1, 
		 "sigma_profile": "yes", 
		 "theory": "DFT", 
		 "functional": "B3LYP", 
		 "basiset": "6-31G**", 
		 "properties": { 
			 "R2extent": 7057.2252, 
			 "electric_dipole_moment_norm": 2.8332542438, 
			 "electric_quadrupole_moment_norm": 21.1505088012, 
			 "total_energy": -768.142524328, 
			 "HOMO_LUMO_gap": 0.21656, 
			 "cosmo_polarized_energy": -12.48, 
			 "cosmo_cavitation_energy": 40.66, 
			 "cosmo_dispersion_energy": -26.79, 
			 "cosmo_repulsion_energy": 2.06, 
			 "cosmo_total_nonelectrostatic_energy": 15.93, 
			 "SMD_solvation_energy": 7.26 
		},
		"coords": [
			{
				"x": 2.330377083,
				"y": 0.987192043,
				"z": -1.1764785132,
				"element": "C" 
			},
			{
				"x": 2.035878657,
				"y": 0.0154302187,
				"z": -0.0324494343,
				"element": "C" 
			},
			{
				"x": 1.1397872219,
				"y": 0.6455137852,
				"z": 1.0666140927,
				"element": "C" 
			},
			{
				"x": -0.1040390019,
				"y": 1.3697068522,
				"z": 0.5890387229,
				"element": "C" 
			},
			{
				"x": -1.1605564467,
				"y": 0.689713994,
				"z": -0.0384125123,
				"element": "C" 
			},
			{
				"x": -2.2991421382,
				"y": 1.3755634297,
				"z": -0.46243656,
				"element": "C" 
			},
			{
				"x": -2.4090846064,
				"y": 2.7538668288,
				"z": -0.2644594843,
				"element": "C" 
			},
			{
				"x": -1.3676741156,
				"y": 3.4418214021,
				"z": 0.3584006782,
				"element": "C" 
			},
			{
				"x": -0.2277262652,
				"y": 2.7532378079,
				"z": 0.7780493764,
				"element": "C" 
			},
			{
				"x": 1.4122881104,
				"y": -1.2046550311,
				"z": -0.5847215204,
				"element": "N" 
			},
			{
				"x": 1.613034428,
				"y": -2.4388753111,
				"z": 0.1786889306,
				"element": "C" 
			},
			{
				"x": 3.0531112353,
				"y": -2.7838430087,
				"z": 0.3405223532,
				"element": "C" 
			},
			{
				"x": 4.1927039441,
				"y": -2.9892037772,
				"z": 0.4334475072,
				"element": "N" 
			},
			{
				"x": 0.8225036191,
				"y": -3.5848541914,
				"z": -0.4469711192,
				"element": "C" 
			},
			{
				"x": 1.4225207853,
				"y": -4.5284062336,
				"z": -1.2860287204,
				"element": "C" 
			},
			{
				"x": 0.6527881518,
				"y": -5.5301549311,
				"z": -1.8828972291,
				"element": "C" 
			},
			{
				"x": -0.7195871325,
				"y": -5.596069341,
				"z": -1.6446746029,
				"element": "C" 
			},
			{
				"x": -1.3237444115,
				"y": -4.6559236011,
				"z": -0.8053619224,
				"element": "C" 
			},
			{
				"x": -0.5564532832,
				"y": -3.6561035136,
				"z": -0.2111744307,
				"element": "C" 
			},
			{
				"x": 2.7405986551,
				"y": 1.9243749918,
				"z": -0.7892880631,
				"element": "H" 
			},
			{
				"x": 1.4189623144,
				"y": 1.2219734184,
				"z": -1.7337225025,
				"element": "H" 
			},
			{
				"x": 3.065398558,
				"y": 0.5602764607,
				"z": -1.8677133686,
				"element": "H" 
			},
			{
				"x": 2.996267214,
				"y": -0.2341885681,
				"z": 0.4490849157,
				"element": "H" 
			},
			{
				"x": 0.8589894851,
				"y": -0.1421297239,
				"z": 1.7785145238,
				"element": "H" 
			},
			{
				"x": 1.7626943125,
				"y": 1.3471705801,
				"z": 1.633543946,
				"element": "H" 
			},
			{
				"x": -1.072820379,
				"y": -0.377502866,
				"z": -0.2114678207,
				"element": "H" 
			},
			{
				"x": -3.1048762911,
				"y": 0.8308053002,
				"z": -0.9472970718,
				"element": "H" 
			},
			{
				"x": -3.2985795574,
				"y": 3.285078772,
				"z": -0.5911888839,
				"element": "H" 
			},
			{
				"x": -1.4404610616,
				"y": 4.5138986658,
				"z": 0.5196044559,
				"element": "H" 
			},
			{
				"x": 0.5776199622,
				"y": 3.297764772,
				"z": 1.2658146777,
				"element": "H" 
			},
			{
				"x": 1.7164774396,
				"y": -1.3586404235,
				"z": -1.5425017153,
				"element": "H" 
			},
			{
				"x": 1.2267508905,
				"y": -2.2682254057,
				"z": 1.1913911803,
				"element": "H" 
			},
			{
				"x": 2.4936016741,
				"y": -4.4913961934,
				"z": -1.4631650811,
				"element": "H" 
			},
			{
				"x": 1.1301008641,
				"y": -6.2600438895,
				"z": -2.5301495482,
				"element": "H" 
			},
			{
				"x": -1.3164546323,
				"y": -6.3774924965,
				"z": -2.1058794955,
				"element": "H" 
			},
			{
				"x": -2.3912349243,
				"y": -4.7044337143,
				"z": -0.6110974175,
				"element": "H" 
			},
			{
				"x": -1.0272203588,
				"y": -2.9243471018,
				"z": 0.4400216565,
				"element": "H" 
			}
		],
		 "valence_orbital": [ 
			{
				"type": "occ",
				"energy": -0.26233,
				"method": "rhf"
			},
			{
				"type": "occ",
				"energy": -0.25993,
				"method": "rhf"
			},
			{
				"type": "occ",
				"energy": -0.24948,
				"method": "rhf"
			},
			{
				"type": "occ",
				"energy": -0.24365,
				"method": "rhf"
			},
			{
				"type": "occ",
				"energy": -0.23666,
				"method": "rhf"
			},
			{
				"type": "unocc",
				"energy": -0.0201,
				"method": "rhf"
			},
			{
				"type": "unocc",
				"energy": -0.01215,
				"method": "rhf"
			},
			{
				"type": "unocc",
				"energy": -0.00029,
				"method": "rhf"
			},
			{
				"type": "unocc",
				"energy": 0.00317,
				"method": "rhf"
			},
			{
				"type": "unocc",
				"energy": 0.02977,
				"method": "rhf"
			}
		],
		"cosmo_sigma_profile": { 
			"-0.025": 0.0,
			"-0.024": 0.0,
			"-0.023": 0.0,
			"-0.022": 0.0,
			"-0.021": 0.0,
			"-0.02": 0.0,
			"-0.019": 0.0,
			"-0.018": 0.0,
			"-0.017": 0.0,
			"-0.016": 0.0,
			"-0.015": 0.0,
			"-0.014": 0.0,
			"-0.013": 0.0,
			"-0.012": 0.0,
			"-0.011": 0.56786519218,
			"-0.01": 1.12785100071,
			"-0.009": 2.28180575519,
			"-0.008": 5.15641273238,
			"-0.007": 4.60130675957,
			"-0.006": 12.0185014096,
			"-0.005": 22.7267518557,
			"-0.004": 29.0255473675,
			"-0.003": 34.352026052,
			"-0.002": 28.552392087,
			"-0.001": 26.2240034953,
			"0.0": 23.5351026747,
			"0.001": 19.5826178639,
			"0.002": 17.4765195534,
			"0.003": 18.8295876672,
			"0.004": 18.2825312039,
			"0.005": 21.6461374815,
			"0.006": 12.9862139288,
			"0.007": 6.99842777935,
			"0.008": 3.47550680539,
			"0.009": 3.29296579187,
			"0.01": 3.05375131586,
			"0.011": 2.8068167534,
			"0.012": 2.6182666133,
			"0.013": 1.77177735717,
			"0.014": 0.0862279330725,
			"0.015": 0.0,
			"0.016": 0.0,
			"0.017": 0.0,
			"0.018": 0.0,
			"0.019": 0.0,
			"0.02": 0.0,
			"0.021": 0.0,
			"0.022": 0.0,
			"0.023": 0.0,
			"0.024": 0.0,
			"0.025": 0.0
		}
	}
}
