{
	 "smiles": "NC1=C(C=C(F)C=C1)C1=NC(CCOC2=CC=CC=C2)=NO1", 
	 "Tm": 396.15, 
	 "num_atms": 36, 
	 "gaussian": { 
		 "optdone": 1, 
		 "sigma_profile": "yes", 
		 "theory": "DFT", 
		 "functional": "B3LYP", 
		 "basiset": "6-31G**", 
		 "properties": { 
			 "R2extent": 9411.1502, 
			 "electric_dipole_moment_norm": 3.3231413527, 
			 "electric_quadrupole_moment_norm": 15.3716811494, 
			 "total_energy": -1032.64585642, 
			 "HOMO_LUMO_gap": 0.14796, 
			 "cosmo_polarized_energy": -14.25, 
			 "cosmo_cavitation_energy": 41.76, 
			 "cosmo_dispersion_energy": -29.44, 
			 "cosmo_repulsion_energy": 2.21, 
			 "cosmo_total_nonelectrostatic_energy": 14.54, 
			 "SMD_solvation_energy": 6.14 
		},
		"coords": [
			{
				"x": 0.5575057439,
				"y": 2.2902552142,
				"z": -1.3314805341,
				"element": "N" 
			},
			{
				"x": 1.6150771503,
				"y": 1.5860317092,
				"z": -1.8383175962,
				"element": "C" 
			},
			{
				"x": 1.5869714446,
				"y": 0.1666351754,
				"z": -1.9741216589,
				"element": "C" 
			},
			{
				"x": 2.683678917,
				"y": -0.5121876974,
				"z": -2.5465344022,
				"element": "C" 
			},
			{
				"x": 3.786634348,
				"y": 0.1969631767,
				"z": -2.9671259969,
				"element": "C" 
			},
			{
				"x": 4.8368183979,
				"y": -0.4571185552,
				"z": -3.5138666655,
				"element": "F" 
			},
			{
				"x": 3.8466270474,
				"y": 1.5865995592,
				"z": -2.8362680819,
				"element": "C" 
			},
			{
				"x": 2.7749789085,
				"y": 2.2646062124,
				"z": -2.280440169,
				"element": "C" 
			},
			{
				"x": 0.4467916013,
				"y": -0.5984488844,
				"z": -1.5105100975,
				"element": "C" 
			},
			{
				"x": -0.654994918,
				"y": -0.1641437005,
				"z": -0.9378708698,
				"element": "N" 
			},
			{
				"x": -1.3586346712,
				"y": -1.320222751,
				"z": -0.7042646566,
				"element": "C" 
			},
			{
				"x": -2.700541289,
				"y": -1.3644778071,
				"z": -0.0390420296,
				"element": "C" 
			},
			{
				"x": -2.6283737524,
				"y": -1.3779968639,
				"z": 1.489474639,
				"element": "C" 
			},
			{
				"x": -2.0937003546,
				"y": -0.1341922583,
				"z": 1.9183831824,
				"element": "O" 
			},
			{
				"x": -1.9200481907,
				"y": 0.0773416766,
				"z": 3.2589006919,
				"element": "C" 
			},
			{
				"x": -1.3719932568,
				"y": 1.3202459213,
				"z": 3.6087137491,
				"element": "C" 
			},
			{
				"x": -1.1594261463,
				"y": 1.6348961832,
				"z": 4.9460667612,
				"element": "C" 
			},
			{
				"x": -1.4878791276,
				"y": 0.7197575975,
				"z": 5.9526242642,
				"element": "C" 
			},
			{
				"x": -2.0311575216,
				"y": -0.5130221958,
				"z": 5.599312927,
				"element": "C" 
			},
			{
				"x": -2.2516506578,
				"y": -0.8449410408,
				"z": 4.2582312934,
				"element": "C" 
			},
			{
				"x": -0.7576783538,
				"y": -2.4136015355,
				"z": -1.1050571915,
				"element": "N" 
			},
			{
				"x": 0.4544727671,
				"y": -1.9411036107,
				"z": -1.6428405173,
				"element": "O" 
			},
			{
				"x": -0.2000496041,
				"y": 1.7724733124,
				"z": -0.899169959,
				"element": "H" 
			},
			{
				"x": 0.7061062178,
				"y": 3.2485958554,
				"z": -1.0613422164,
				"element": "H" 
			},
			{
				"x": 2.6620040943,
				"y": -1.5904725159,
				"z": -2.6505108619,
				"element": "H" 
			},
			{
				"x": 4.7312082714,
				"y": 2.116776927,
				"z": -3.1731614579,
				"element": "H" 
			},
			{
				"x": 2.8144871303,
				"y": 3.3460261648,
				"z": -2.1836818957,
				"element": "H" 
			},
			{
				"x": -3.2863868213,
				"y": -0.4992471021,
				"z": -0.3627357908,
				"element": "H" 
			},
			{
				"x": -3.2190048204,
				"y": -2.2719169287,
				"z": -0.3623516414,
				"element": "H" 
			},
			{
				"x": -1.9957312097,
				"y": -2.2088369846,
				"z": 1.8305458956,
				"element": "H" 
			},
			{
				"x": -3.6373034028,
				"y": -1.5235356503,
				"z": 1.9010324216,
				"element": "H" 
			},
			{
				"x": -1.1218704338,
				"y": 2.0157329962,
				"z": 2.8141905569,
				"element": "H" 
			},
			{
				"x": -0.7338798102,
				"y": 2.6002727605,
				"z": 5.2054798346,
				"element": "H" 
			},
			{
				"x": -1.3205563376,
				"y": 0.967527479,
				"z": 6.9961418475,
				"element": "H" 
			},
			{
				"x": -2.2904718141,
				"y": -1.2342639054,
				"z": 6.3693670196,
				"element": "H" 
			},
			{
				"x": -2.6750295463,
				"y": -1.8110079334,
				"z": 4.0101292062,
				"element": "H" 
			}
		],
		 "valence_orbital": [ 
			{
				"type": "occ",
				"energy": -0.29916,
				"method": "rhf"
			},
			{
				"type": "occ",
				"energy": -0.25369,
				"method": "rhf"
			},
			{
				"type": "occ",
				"energy": -0.25119,
				"method": "rhf"
			},
			{
				"type": "occ",
				"energy": -0.22114,
				"method": "rhf"
			},
			{
				"type": "occ",
				"energy": -0.20411,
				"method": "rhf"
			},
			{
				"type": "unocc",
				"energy": -0.05615,
				"method": "rhf"
			},
			{
				"type": "unocc",
				"energy": -0.00184,
				"method": "rhf"
			},
			{
				"type": "unocc",
				"energy": 0.00636,
				"method": "rhf"
			},
			{
				"type": "unocc",
				"energy": 0.01188,
				"method": "rhf"
			},
			{
				"type": "unocc",
				"energy": 0.01597,
				"method": "rhf"
			}
		],
		"cosmo_sigma_profile": { 
			"-0.025": 0.0,
			"-0.024": 0.0,
			"-0.023": 0.0,
			"-0.022": 0.0,
			"-0.021": 0.0,
			"-0.02": 0.0,
			"-0.019": 0.0,
			"-0.018": 0.0,
			"-0.017": 0.0,
			"-0.016": 0.0,
			"-0.015": 0.0,
			"-0.014": 0.46205564165,
			"-0.013": 1.17366604133,
			"-0.012": 1.67882415457,
			"-0.011": 1.6991744912,
			"-0.01": 1.10307520121,
			"-0.009": 1.50330468401,
			"-0.008": 3.59185096816,
			"-0.007": 8.2409699517,
			"-0.006": 19.883911773,
			"-0.005": 28.6835522494,
			"-0.004": 21.7739872937,
			"-0.003": 23.0073837155,
			"-0.002": 19.9946047571,
			"-0.001": 21.6037387941,
			"0.0": 19.672761924,
			"0.001": 23.2362073916,
			"0.002": 26.6280203001,
			"0.003": 26.6744930617,
			"0.004": 24.3985614214,
			"0.005": 22.1067852563,
			"0.006": 16.021130574,
			"0.007": 6.57851741033,
			"0.008": 4.04652144814,
			"0.009": 3.20402447502,
			"0.01": 3.17926810213,
			"0.011": 1.60613936297,
			"0.012": 1.51846280749,
			"0.013": 1.01082888437,
			"0.014": 0.175613918889,
			"0.015": 0.0,
			"0.016": 0.0,
			"0.017": 0.0,
			"0.018": 0.0,
			"0.019": 0.0,
			"0.02": 0.0,
			"0.021": 0.0,
			"0.022": 0.0,
			"0.023": 0.0,
			"0.024": 0.0,
			"0.025": 0.0
		}
	}
}
