{
	 "smiles": "O=CC1=CC=C(OCC2=CN=CC=C2)C=C1", 
	 "Tm": 349.15, 
	 "num_atms": 27, 
	 "gaussian": { 
		 "optdone": 1, 
		 "sigma_profile": "yes", 
		 "theory": "DFT", 
		 "functional": "B3LYP", 
		 "basiset": "6-31G**", 
		 "properties": { 
			 "R2extent": 6472.4924, 
			 "electric_dipole_moment_norm": 3.31556009446, 
			 "electric_quadrupole_moment_norm": 21.4375849983, 
			 "total_energy": -707.188755248, 
			 "HOMO_LUMO_gap": 0.1826, 
			 "cosmo_polarized_energy": -14.06, 
			 "cosmo_cavitation_energy": 32.41, 
			 "cosmo_dispersion_energy": -23.37, 
			 "cosmo_repulsion_energy": 1.79, 
			 "cosmo_total_nonelectrostatic_energy": 10.84, 
			 "SMD_solvation_energy": 5.29 
		},
		"coords": [
			{
				"x": 4.0892169153,
				"y": 3.779249733,
				"z": 3.2615886241,
				"element": "O" 
			},
			{
				"x": 3.2324959754,
				"y": 2.9790529689,
				"z": 3.5926148997,
				"element": "C" 
			},
			{
				"x": 2.6022398271,
				"y": 1.997760726,
				"z": 2.6907964727,
				"element": "C" 
			},
			{
				"x": 1.6195883399,
				"y": 1.1167801915,
				"z": 3.172424338,
				"element": "C" 
			},
			{
				"x": 1.0229062373,
				"y": 0.1928299171,
				"z": 2.3292650063,
				"element": "C" 
			},
			{
				"x": 1.4032422057,
				"y": 0.1342788793,
				"z": 0.9774135128,
				"element": "C" 
			},
			{
				"x": 0.7623462775,
				"y": -0.8050457718,
				"z": 0.2315965099,
				"element": "O" 
			},
			{
				"x": 1.0677370325,
				"y": -0.9085676617,
				"z": -1.1620214517,
				"element": "C" 
			},
			{
				"x": 0.1864481507,
				"y": -1.9697214385,
				"z": -1.7668715587,
				"element": "C" 
			},
			{
				"x": 0.7144390939,
				"y": -2.919467802,
				"z": -2.6469929609,
				"element": "C" 
			},
			{
				"x": -0.0096097682,
				"y": -3.8640577559,
				"z": -3.2579767022,
				"element": "N" 
			},
			{
				"x": -1.3199459885,
				"y": -3.8981132658,
				"z": -2.9915171251,
				"element": "C" 
			},
			{
				"x": -1.9517911496,
				"y": -3.0083538934,
				"z": -2.1190452842,
				"element": "C" 
			},
			{
				"x": -1.1855066245,
				"y": -2.0255396448,
				"z": -1.499575078,
				"element": "C" 
			},
			{
				"x": 2.3873015197,
				"y": 1.0077488966,
				"z": 0.4828454793,
				"element": "C" 
			},
			{
				"x": 2.9754383227,
				"y": 1.9296022179,
				"z": 1.3417840768,
				"element": "C" 
			},
			{
				"x": 2.8621119933,
				"y": 2.9441540532,
				"z": 4.642407654,
				"element": "H" 
			},
			{
				"x": 1.3253199424,
				"y": 1.1621937454,
				"z": 4.2185445437,
				"element": "H" 
			},
			{
				"x": 0.2631184239,
				"y": -0.4959928175,
				"z": 2.6828136367,
				"element": "H" 
			},
			{
				"x": 2.1261194765,
				"y": -1.1640084122,
				"z": -1.3036570692,
				"element": "H" 
			},
			{
				"x": 0.8905613778,
				"y": 0.0634776915,
				"z": -1.6452589331,
				"element": "H" 
			},
			{
				"x": 1.7816617538,
				"y": -2.9179405983,
				"z": -2.8695384977,
				"element": "H" 
			},
			{
				"x": -1.8923415527,
				"y": -4.6751247492,
				"z": -3.4951495519,
				"element": "H" 
			},
			{
				"x": -3.0184683107,
				"y": -3.0869394514,
				"z": -1.9336605891,
				"element": "H" 
			},
			{
				"x": -1.6340085437,
				"y": -1.3179453809,
				"z": -0.8089102681,
				"element": "H" 
			},
			{
				"x": 2.6952003409,
				"y": 0.9710984522,
				"z": -0.5551084274,
				"element": "H" 
			},
			{
				"x": 3.7373787317,
				"y": 2.6145911708,
				"z": 0.9828887431,
				"element": "H" 
			}
		],
		 "valence_orbital": [ 
			{
				"type": "occ",
				"energy": -0.27117,
				"method": "rhf"
			},
			{
				"type": "occ",
				"energy": -0.26873,
				"method": "rhf"
			},
			{
				"type": "occ",
				"energy": -0.26185,
				"method": "rhf"
			},
			{
				"type": "occ",
				"energy": -0.25035,
				"method": "rhf"
			},
			{
				"type": "occ",
				"energy": -0.23862,
				"method": "rhf"
			},
			{
				"type": "unocc",
				"energy": -0.05602,
				"method": "rhf"
			},
			{
				"type": "unocc",
				"energy": -0.0357,
				"method": "rhf"
			},
			{
				"type": "unocc",
				"energy": -0.02285,
				"method": "rhf"
			},
			{
				"type": "unocc",
				"energy": -0.01682,
				"method": "rhf"
			},
			{
				"type": "unocc",
				"energy": 0.04651,
				"method": "rhf"
			}
		],
		"cosmo_sigma_profile": { 
			"-0.025": 0.0,
			"-0.024": 0.0,
			"-0.023": 0.0,
			"-0.022": 0.0,
			"-0.021": 0.0,
			"-0.02": 0.0,
			"-0.019": 0.0,
			"-0.018": 0.0,
			"-0.017": 0.0,
			"-0.016": 0.0,
			"-0.015": 0.0,
			"-0.014": 0.0,
			"-0.013": 0.0,
			"-0.012": 0.0,
			"-0.011": 0.0,
			"-0.01": 0.0,
			"-0.009": 0.0,
			"-0.008": 2.23796095756,
			"-0.007": 16.9272190496,
			"-0.006": 24.1950474111,
			"-0.005": 22.4431877081,
			"-0.004": 18.2886592618,
			"-0.003": 13.3934311569,
			"-0.002": 15.3638831096,
			"-0.001": 12.8610805741,
			"0.0": 14.3065965535,
			"0.001": 19.6060805843,
			"0.002": 27.3869374197,
			"0.003": 24.0221609502,
			"0.004": 9.59114051007,
			"0.005": 5.80287739835,
			"0.006": 3.49828112234,
			"0.007": 4.42295404917,
			"0.008": 3.8227879918,
			"0.009": 3.44443434156,
			"0.01": 3.08322610743,
			"0.011": 5.00080714607,
			"0.012": 4.80506460897,
			"0.013": 2.25575673472,
			"0.014": 1.42364505598,
			"0.015": 0.691650334751,
			"0.016": 0.957077946754,
			"0.017": 0.262017018283,
			"0.018": 0.0,
			"0.019": 0.0,
			"0.02": 0.0,
			"0.021": 0.0,
			"0.022": 0.0,
			"0.023": 0.0,
			"0.024": 0.0,
			"0.025": 0.0
		}
	}
}
