{
	 "smiles": "FC(F)(F)C1=NN=C(S)N1N=C1C(=O)NC2=CC=CC=C12", 
	 "Tm": 573.15, 
	 "num_atms": 27, 
	 "gaussian": { 
		 "optdone": 1, 
		 "sigma_profile": "yes", 
		 "theory": "DFT", 
		 "functional": "B3LYP", 
		 "basiset": "6-31G**", 
		 "properties": { 
			 "R2extent": 6968.7931, 
			 "electric_dipole_moment_norm": 8.96247578853, 
			 "electric_quadrupole_moment_norm": 19.1177810323, 
			 "total_energy": -1469.40192039, 
			 "HOMO_LUMO_gap": 0.12184, 
			 "cosmo_polarized_energy": -21.26, 
			 "cosmo_cavitation_energy": 36.32, 
			 "cosmo_dispersion_energy": -25.25, 
			 "cosmo_repulsion_energy": 1.84, 
			 "cosmo_total_nonelectrostatic_energy": 12.91, 
			 "SMD_solvation_energy": 4.63 
		},
		"coords": [
			{
				"x": 0.2434582602,
				"y": -0.5240411,
				"z": -3.2196256647,
				"element": "F" 
			},
			{
				"x": 1.4609996389,
				"y": -0.0275987742,
				"z": -3.5587540107,
				"element": "C" 
			},
			{
				"x": 2.3580003618,
				"y": -1.0003292985,
				"z": -3.2795704376,
				"element": "F" 
			},
			{
				"x": 1.4693191675,
				"y": 0.1914689481,
				"z": -4.873845157,
				"element": "F" 
			},
			{
				"x": 1.7825802584,
				"y": 1.2252054933,
				"z": -2.8072706261,
				"element": "C" 
			},
			{
				"x": 2.1905766844,
				"y": 2.3497063795,
				"z": -3.3392551264,
				"element": "N" 
			},
			{
				"x": 2.4889698333,
				"y": 3.2164701707,
				"z": -2.3178107553,
				"element": "N" 
			},
			{
				"x": 2.2762194213,
				"y": 2.5747274831,
				"z": -1.1854813039,
				"element": "C" 
			},
			{
				"x": 2.5151790381,
				"y": 3.1815074764,
				"z": 0.4491345021,
				"element": "S" 
			},
			{
				"x": 1.8013008796,
				"y": 1.3177990274,
				"z": -1.4324699993,
				"element": "N" 
			},
			{
				"x": 1.6346998944,
				"y": 0.3105093182,
				"z": -0.4674129785,
				"element": "N" 
			},
			{
				"x": 0.4203756883,
				"y": -0.0423765343,
				"z": -0.2278584479,
				"element": "C" 
			},
			{
				"x": -0.9057156603,
				"y": 0.5606594981,
				"z": -0.7472268422,
				"element": "C" 
			},
			{
				"x": -1.0694744828,
				"y": 1.5069078179,
				"z": -1.4842584702,
				"element": "O" 
			},
			{
				"x": -1.889648998,
				"y": -0.1921621592,
				"z": -0.1313522365,
				"element": "N" 
			},
			{
				"x": -1.3590978974,
				"y": -1.1740873228,
				"z": 0.7153354925,
				"element": "C" 
			},
			{
				"x": -2.0235895666,
				"y": -2.1095586726,
				"z": 1.4962117336,
				"element": "C" 
			},
			{
				"x": -1.2403481392,
				"y": -2.985294384,
				"z": 2.2601920174,
				"element": "C" 
			},
			{
				"x": 0.1590624789,
				"y": -2.9319418377,
				"z": 2.2431956708,
				"element": "C" 
			},
			{
				"x": 0.8169725184,
				"y": -1.9889521856,
				"z": 1.4512834589,
				"element": "C" 
			},
			{
				"x": 0.0497232,
				"y": -1.1082812423,
				"z": 0.6904898627,
				"element": "C" 
			},
			{
				"x": 2.9032395378,
				"y": 4.3920260686,
				"z": 0.0039399998,
				"element": "H" 
			},
			{
				"x": -2.8710158934,
				"y": -0.0028108679,
				"z": -0.2723800799,
				"element": "H" 
			},
			{
				"x": -3.1070996549,
				"y": -2.1646806796,
				"z": 1.5180098309,
				"element": "H" 
			},
			{
				"x": -1.737219903,
				"y": -3.7256845034,
				"z": 2.8800928256,
				"element": "H" 
			},
			{
				"x": 0.7319740712,
				"y": -3.6279551687,
				"z": 2.8466053715,
				"element": "H" 
			},
			{
				"x": 1.8999592632,
				"y": -1.9315329504,
				"z": 1.4183813703,
				"element": "H" 
			}
		],
		 "valence_orbital": [ 
			{
				"type": "occ",
				"energy": -0.28883,
				"method": "rhf"
			},
			{
				"type": "occ",
				"energy": -0.26573,
				"method": "rhf"
			},
			{
				"type": "occ",
				"energy": -0.26291,
				"method": "rhf"
			},
			{
				"type": "occ",
				"energy": -0.25018,
				"method": "rhf"
			},
			{
				"type": "occ",
				"energy": -0.23937,
				"method": "rhf"
			},
			{
				"type": "unocc",
				"energy": -0.11753,
				"method": "rhf"
			},
			{
				"type": "unocc",
				"energy": -0.0346,
				"method": "rhf"
			},
			{
				"type": "unocc",
				"energy": -0.00763,
				"method": "rhf"
			},
			{
				"type": "unocc",
				"energy": -0.00419,
				"method": "rhf"
			},
			{
				"type": "unocc",
				"energy": 0.00663,
				"method": "rhf"
			}
		],
		"cosmo_sigma_profile": { 
			"-0.025": 0.0,
			"-0.024": 0.0,
			"-0.023": 0.0,
			"-0.022": 0.0,
			"-0.021": 0.0,
			"-0.02": 0.0,
			"-0.019": 0.0,
			"-0.018": 0.0564261003028,
			"-0.017": 1.25039374772,
			"-0.016": 1.29603755105,
			"-0.015": 1.36430689646,
			"-0.014": 1.37827541339,
			"-0.013": 2.07709289335,
			"-0.012": 2.63830142097,
			"-0.011": 2.36239932631,
			"-0.01": 2.28550026831,
			"-0.009": 2.89902810877,
			"-0.008": 5.20910905281,
			"-0.007": 9.02260495166,
			"-0.006": 13.7260772395,
			"-0.005": 13.3799207198,
			"-0.004": 12.6863580237,
			"-0.003": 15.0511438117,
			"-0.002": 18.1608266527,
			"-0.001": 20.8869023064,
			"0.0": 22.1626309624,
			"0.001": 32.4681119652,
			"0.002": 40.3272775268,
			"0.003": 19.7049445061,
			"0.004": 8.94271910079,
			"0.005": 6.68490567386,
			"0.006": 6.10706649881,
			"0.007": 5.04454299078,
			"0.008": 4.38584385902,
			"0.009": 5.02353393792,
			"0.01": 5.40204802824,
			"0.011": 6.29210440389,
			"0.012": 2.57338748854,
			"0.013": 2.63961677526,
			"0.014": 2.03822765259,
			"0.015": 0.651919311952,
			"0.016": 0.0,
			"0.017": 0.0,
			"0.018": 0.0,
			"0.019": 0.0,
			"0.02": 0.0,
			"0.021": 0.0,
			"0.022": 0.0,
			"0.023": 0.0,
			"0.024": 0.0,
			"0.025": 0.0
		}
	}
}
