{
	 "smiles": "ClC1=C(SC(=N1)N1CCCC1)C=O", 
	 "Tm": 393.15, 
	 "num_atms": 22, 
	 "gaussian": { 
		 "optdone": 1, 
		 "sigma_profile": "yes", 
		 "theory": "DFT", 
		 "functional": "B3LYP", 
		 "basiset": "6-31G**", 
		 "properties": { 
			 "R2extent": 5912.9935, 
			 "electric_dipole_moment_norm": 6.63406095917, 
			 "electric_quadrupole_moment_norm": 21.5378238982, 
			 "total_energy": -1353.37192464, 
			 "HOMO_LUMO_gap": 0.15809, 
			 "cosmo_polarized_energy": -11.78, 
			 "cosmo_cavitation_energy": 28.83, 
			 "cosmo_dispersion_energy": -21.94, 
			 "cosmo_repulsion_energy": 1.71, 
			 "cosmo_total_nonelectrostatic_energy": 8.61, 
			 "SMD_solvation_energy": 3.04 
		},
		"coords": [
			{
				"x": -2.7133247997,
				"y": 3.7278366903,
				"z": 2.4686343404,
				"element": "Cl" 
			},
			{
				"x": -1.183507124,
				"y": 3.0840686214,
				"z": 1.941100801,
				"element": "C" 
			},
			{
				"x": 0.0030277926,
				"y": 3.7829715537,
				"z": 2.0394225288,
				"element": "C" 
			},
			{
				"x": 1.2931815566,
				"y": 2.7656240919,
				"z": 1.3923000934,
				"element": "S" 
			},
			{
				"x": 0.0752779032,
				"y": 1.5258827432,
				"z": 1.0750246454,
				"element": "C" 
			},
			{
				"x": -1.1697402321,
				"y": 1.842774992,
				"z": 1.4156322659,
				"element": "N" 
			},
			{
				"x": 0.3964220262,
				"y": 0.3464660431,
				"z": 0.5221791921,
				"element": "N" 
			},
			{
				"x": -0.6130458678,
				"y": -0.6811308912,
				"z": 0.2170739288,
				"element": "C" 
			},
			{
				"x": 0.1536225245,
				"y": -1.6544430747,
				"z": -0.6895218628,
				"element": "C" 
			},
			{
				"x": 1.6076714932,
				"y": -1.5391662511,
				"z": -0.1971248564,
				"element": "C" 
			},
			{
				"x": 1.755745581,
				"y": -0.0466136025,
				"z": 0.1393234206,
				"element": "C" 
			},
			{
				"x": 0.2965618687,
				"y": 5.1019382669,
				"z": 2.5508486928,
				"element": "C" 
			},
			{
				"x": 1.4191067382,
				"y": 5.5905317268,
				"z": 2.5722278144,
				"element": "O" 
			},
			{
				"x": -0.9532064677,
				"y": -1.1593678988,
				"z": 1.1445445264,
				"element": "H" 
			},
			{
				"x": -1.4843379413,
				"y": -0.2235341673,
				"z": -0.2575728482,
				"element": "H" 
			},
			{
				"x": 0.081163499,
				"y": -1.3290709617,
				"z": -1.7331366484,
				"element": "H" 
			},
			{
				"x": -0.2388265147,
				"y": -2.6724101713,
				"z": -0.628146779,
				"element": "H" 
			},
			{
				"x": 2.3416384122,
				"y": -1.8691817292,
				"z": -0.936081868,
				"element": "H" 
			},
			{
				"x": 1.7491926852,
				"y": -2.1392276335,
				"z": 0.7082204363,
				"element": "H" 
			},
			{
				"x": 2.0926441859,
				"y": 0.5373744597,
				"z": -0.729193961,
				"element": "H" 
			},
			{
				"x": 2.4593028993,
				"y": 0.1374678426,
				"z": 0.9598709724,
				"element": "H" 
			},
			{
				"x": -0.5854702183,
				"y": 5.6545093497,
				"z": 2.9310751649,
				"element": "H" 
			}
		],
		 "valence_orbital": [ 
			{
				"type": "occ",
				"energy": -0.29868,
				"method": "rhf"
			},
			{
				"type": "occ",
				"energy": -0.29768,
				"method": "rhf"
			},
			{
				"type": "occ",
				"energy": -0.28041,
				"method": "rhf"
			},
			{
				"type": "occ",
				"energy": -0.24519,
				"method": "rhf"
			},
			{
				"type": "occ",
				"energy": -0.21614,
				"method": "rhf"
			},
			{
				"type": "unocc",
				"energy": -0.05805,
				"method": "rhf"
			},
			{
				"type": "unocc",
				"energy": -0.00461,
				"method": "rhf"
			},
			{
				"type": "unocc",
				"energy": 0.01753,
				"method": "rhf"
			},
			{
				"type": "unocc",
				"energy": 0.04455,
				"method": "rhf"
			},
			{
				"type": "unocc",
				"energy": 0.06166,
				"method": "rhf"
			}
		],
		"cosmo_sigma_profile": { 
			"-0.025": 0.0,
			"-0.024": 0.0,
			"-0.023": 0.0,
			"-0.022": 0.0,
			"-0.021": 0.0,
			"-0.02": 0.0,
			"-0.019": 0.0,
			"-0.018": 0.0,
			"-0.017": 0.0,
			"-0.016": 0.0,
			"-0.015": 0.0,
			"-0.014": 0.0,
			"-0.013": 0.0,
			"-0.012": 0.0,
			"-0.011": 0.0,
			"-0.01": 0.0,
			"-0.009": 0.0,
			"-0.008": 0.0,
			"-0.007": 0.364550158901,
			"-0.006": 5.88799722807,
			"-0.005": 18.9637043992,
			"-0.004": 33.7958674576,
			"-0.003": 27.421869094,
			"-0.002": 21.5685354971,
			"-0.001": 23.9989098928,
			"0.0": 15.6954044507,
			"0.001": 15.6518237327,
			"0.002": 14.4310845822,
			"0.003": 14.5507690085,
			"0.004": 8.89059885696,
			"0.005": 3.91296945313,
			"0.006": 3.77815125442,
			"0.007": 3.38554240355,
			"0.008": 2.76791447232,
			"0.009": 2.96902895749,
			"0.01": 3.03189286417,
			"0.011": 4.09694322742,
			"0.012": 5.35894735821,
			"0.013": 2.43450133984,
			"0.014": 0.455621707691,
			"0.015": 0.0,
			"0.016": 0.0,
			"0.017": 0.0,
			"0.018": 0.0,
			"0.019": 0.0,
			"0.02": 0.0,
			"0.021": 0.0,
			"0.022": 0.0,
			"0.023": 0.0,
			"0.024": 0.0,
			"0.025": 0.0
		}
	}
}
