{
	 "smiles": "C(C1=NC2=C(N1)C=CC=C2)C1=CC=CC=C1", 
	 "Tm": 460.15, 
	 "num_atms": 28, 
	 "gaussian": { 
		 "optdone": 1, 
		 "sigma_profile": "yes", 
		 "theory": "DFT", 
		 "functional": "B3LYP", 
		 "basiset": "6-31G**", 
		 "properties": { 
			 "R2extent": 4672.7001, 
			 "electric_dipole_moment_norm": 3.54487377208, 
			 "electric_quadrupole_moment_norm": 4.23284668515, 
			 "total_energy": -650.246817335, 
			 "HOMO_LUMO_gap": 0.20062, 
			 "cosmo_polarized_energy": -12.78, 
			 "cosmo_cavitation_energy": 32.09, 
			 "cosmo_dispersion_energy": -23.24, 
			 "cosmo_repulsion_energy": 1.8, 
			 "cosmo_total_nonelectrostatic_energy": 10.65, 
			 "SMD_solvation_energy": 2.75 
		},
		"coords": [
			{
				"x": 0.9885938513,
				"y": -0.9424320089,
				"z": -1.3410536193,
				"element": "C" 
			},
			{
				"x": 0.9880122323,
				"y": -1.2183216197,
				"z": 0.1368407814,
				"element": "C" 
			},
			{
				"x": 0.7977388306,
				"y": -2.393563179,
				"z": 0.6876873,
				"element": "N" 
			},
			{
				"x": 0.9254196598,
				"y": -2.177536923,
				"z": 2.0547120876,
				"element": "C" 
			},
			{
				"x": 1.1979850627,
				"y": -0.8117548719,
				"z": 2.3152006068,
				"element": "C" 
			},
			{
				"x": 1.2407074018,
				"y": -0.2249775803,
				"z": 1.0621764303,
				"element": "N" 
			},
			{
				"x": 1.3630201699,
				"y": -0.311513624,
				"z": 3.6077753946,
				"element": "C" 
			},
			{
				"x": 1.2512377286,
				"y": -1.2266399496,
				"z": 4.6527243533,
				"element": "C" 
			},
			{
				"x": 0.9839605223,
				"y": -2.5892775155,
				"z": 4.412984595,
				"element": "C" 
			},
			{
				"x": 0.818385906,
				"y": -3.0791978214,
				"z": 3.1207250879,
				"element": "C" 
			},
			{
				"x": 0.2910616071,
				"y": 0.351830168,
				"z": -1.7214312628,
				"element": "C" 
			},
			{
				"x": 1.0221223663,
				"y": 1.4572588785,
				"z": -2.1730741145,
				"element": "C" 
			},
			{
				"x": 0.3795312445,
				"y": 2.6532303483,
				"z": -2.5059857491,
				"element": "C" 
			},
			{
				"x": -1.0062544605,
				"y": 2.7568177633,
				"z": -2.3902393848,
				"element": "C" 
			},
			{
				"x": -1.7461008613,
				"y": 1.6593741869,
				"z": -1.9401418672,
				"element": "C" 
			},
			{
				"x": -1.1024280334,
				"y": 0.4687878258,
				"z": -1.6071693263,
				"element": "C" 
			},
			{
				"x": 2.025339238,
				"y": -0.9167256048,
				"z": -1.701572748,
				"element": "H" 
			},
			{
				"x": 0.5126462074,
				"y": -1.8035738609,
				"z": -1.8187080955,
				"element": "H" 
			},
			{
				"x": 1.3402650553,
				"y": 0.7560284789,
				"z": 0.8503657098,
				"element": "H" 
			},
			{
				"x": 1.5699999977,
				"y": 0.7377936386,
				"z": 3.7964055651,
				"element": "H" 
			},
			{
				"x": 1.373752717,
				"y": -0.8810457293,
				"z": 5.6750472268,
				"element": "H" 
			},
			{
				"x": 0.9062916233,
				"y": -3.268143874,
				"z": 5.257173788,
				"element": "H" 
			},
			{
				"x": 0.6115563471,
				"y": -4.1274119784,
				"z": 2.9301187457,
				"element": "H" 
			},
			{
				"x": 2.1020271202,
				"y": 1.3783704658,
				"z": -2.2765681476,
				"element": "H" 
			},
			{
				"x": 0.962771815,
				"y": 3.498980939,
				"z": -2.8591727743,
				"element": "H" 
			},
			{
				"x": -1.5086967948,
				"y": 3.6837881274,
				"z": -2.6508769994,
				"element": "H" 
			},
			{
				"x": -2.8262810494,
				"y": 1.7317039157,
				"z": -1.850185113,
				"element": "H" 
			},
			{
				"x": -1.6812655051,
				"y": -0.3810485955,
				"z": -1.2541584707,
				"element": "H" 
			}
		],
		 "valence_orbital": [ 
			{
				"type": "occ",
				"energy": -0.26478,
				"method": "rhf"
			},
			{
				"type": "occ",
				"energy": -0.25929,
				"method": "rhf"
			},
			{
				"type": "occ",
				"energy": -0.2537,
				"method": "rhf"
			},
			{
				"type": "occ",
				"energy": -0.22079,
				"method": "rhf"
			},
			{
				"type": "occ",
				"energy": -0.21588,
				"method": "rhf"
			},
			{
				"type": "unocc",
				"energy": -0.01526,
				"method": "rhf"
			},
			{
				"type": "unocc",
				"energy": -0.0129,
				"method": "rhf"
			},
			{
				"type": "unocc",
				"energy": -0.00312,
				"method": "rhf"
			},
			{
				"type": "unocc",
				"energy": 0.02763,
				"method": "rhf"
			},
			{
				"type": "unocc",
				"energy": 0.05809,
				"method": "rhf"
			}
		],
		"cosmo_sigma_profile": { 
			"-0.025": 0.0,
			"-0.024": 0.0,
			"-0.023": 0.0,
			"-0.022": 0.0,
			"-0.021": 0.0,
			"-0.02": 0.0,
			"-0.019": 0.0,
			"-0.018": 0.0,
			"-0.017": 0.0,
			"-0.016": 0.109763775639,
			"-0.015": 0.707129735013,
			"-0.014": 0.513844001056,
			"-0.013": 1.08791407951,
			"-0.012": 1.03047537402,
			"-0.011": 0.983246768251,
			"-0.01": 1.03227164268,
			"-0.009": 1.46127768873,
			"-0.008": 1.6745488642,
			"-0.007": 2.99424444644,
			"-0.006": 13.5544826915,
			"-0.005": 23.8511684674,
			"-0.004": 23.0282469542,
			"-0.003": 23.4147236474,
			"-0.002": 16.6885658429,
			"-0.001": 15.8261587029,
			"0.0": 12.8243312975,
			"0.001": 15.1887540345,
			"0.002": 17.9640376572,
			"0.003": 16.6197136515,
			"0.004": 16.5176732176,
			"0.005": 19.0392465597,
			"0.006": 15.2204730592,
			"0.007": 3.9697494559,
			"0.008": 1.40779388851,
			"0.009": 1.26716185768,
			"0.01": 1.14811652621,
			"0.011": 1.48796937521,
			"0.012": 1.55395347291,
			"0.013": 0.465138313454,
			"0.014": 0.491730998513,
			"0.015": 1.60831025857,
			"0.016": 0.871105091052,
			"0.017": 0.825178323564,
			"0.018": 0.514361976603,
			"0.019": 0.000170248730855,
			"0.02": 0.0,
			"0.021": 0.0,
			"0.022": 0.0,
			"0.023": 0.0,
			"0.024": 0.0,
			"0.025": 0.0
		}
	}
}
