{
	 "smiles": "N#CC1CCCC1", 
	 "Tm": 197.15, 
	 "num_atms": 16, 
	 "gaussian": { 
		 "optdone": 1, 
		 "sigma_profile": "yes", 
		 "theory": "DFT", 
		 "functional": "B3LYP", 
		 "basiset": "6-31G**", 
		 "properties": { 
			 "R2extent": 736.5393, 
			 "electric_dipole_moment_norm": 4.0010344225, 
			 "electric_quadrupole_moment_norm": 6.96474510158, 
			 "total_energy": -288.803325427, 
			 "HOMO_LUMO_gap": 0.34187, 
			 "cosmo_polarized_energy": -7.68, 
			 "cosmo_cavitation_energy": 18.66, 
			 "cosmo_dispersion_energy": -13.57, 
			 "cosmo_repulsion_energy": 1.16, 
			 "cosmo_total_nonelectrostatic_energy": 6.26, 
			 "SMD_solvation_energy": 3.99 
		},
		"coords": [
			{
				"x": -1.9397856184,
				"y": 1.4218261428,
				"z": -0.1766792724,
				"element": "N" 
			},
			{
				"x": -1.1669421266,
				"y": 0.5847536297,
				"z": -0.4026667476,
				"element": "C" 
			},
			{
				"x": -0.1806846853,
				"y": -0.4702816479,
				"z": -0.6747154724,
				"element": "C" 
			},
			{
				"x": -0.0973830422,
				"y": -1.4864526844,
				"z": 0.4933743626,
				"element": "C" 
			},
			{
				"x": 0.8013169531,
				"y": -0.7982221267,
				"z": 1.5470421673,
				"element": "C" 
			},
			{
				"x": 1.6787099246,
				"y": 0.2244196374,
				"z": 0.7633018278,
				"element": "C" 
			},
			{
				"x": 1.2615746165,
				"y": 0.0970373327,
				"z": -0.7203656766,
				"element": "C" 
			},
			{
				"x": -0.4632916742,
				"y": -0.950716458,
				"z": -1.6178963134,
				"element": "H" 
			},
			{
				"x": 0.3830567139,
				"y": -2.3928033714,
				"z": 0.1083376685,
				"element": "H" 
			},
			{
				"x": -1.0790297595,
				"y": -1.7714469565,
				"z": 0.8799885631,
				"element": "H" 
			},
			{
				"x": 0.1852294388,
				"y": -0.2790277706,
				"z": 2.287036111,
				"element": "H" 
			},
			{
				"x": 1.4029561781,
				"y": -1.5307331162,
				"z": 2.0925164292,
				"element": "H" 
			},
			{
				"x": 2.7488551153,
				"y": 0.0381132483,
				"z": 0.8904440772,
				"element": "H" 
			},
			{
				"x": 1.4882254317,
				"y": 1.2398885847,
				"z": 1.1228142877,
				"element": "H" 
			},
			{
				"x": 1.8889398103,
				"y": -0.6382003036,
				"z": -1.2364978318,
				"element": "H" 
			},
			{
				"x": 1.331452724,
				"y": 1.0372458597,
				"z": -1.2730341804,
				"element": "H" 
			}
		],
		 "valence_orbital": [ 
			{
				"type": "occ",
				"energy": -0.34938,
				"method": "rhf"
			},
			{
				"type": "occ",
				"energy": -0.3447,
				"method": "rhf"
			},
			{
				"type": "occ",
				"energy": -0.33267,
				"method": "rhf"
			},
			{
				"type": "occ",
				"energy": -0.31495,
				"method": "rhf"
			},
			{
				"type": "occ",
				"energy": -0.30999,
				"method": "rhf"
			},
			{
				"type": "unocc",
				"energy": 0.03188,
				"method": "rhf"
			},
			{
				"type": "unocc",
				"energy": 0.04166,
				"method": "rhf"
			},
			{
				"type": "unocc",
				"energy": 0.07438,
				"method": "rhf"
			},
			{
				"type": "unocc",
				"energy": 0.09768,
				"method": "rhf"
			},
			{
				"type": "unocc",
				"energy": 0.12879,
				"method": "rhf"
			}
		],
		"cosmo_sigma_profile": { 
			"-0.025": 0.0,
			"-0.024": 0.0,
			"-0.023": 0.0,
			"-0.022": 0.0,
			"-0.021": 0.0,
			"-0.02": 0.0,
			"-0.019": 0.0,
			"-0.018": 0.0,
			"-0.017": 0.0,
			"-0.016": 0.0,
			"-0.015": 0.0,
			"-0.014": 0.0,
			"-0.013": 0.0,
			"-0.012": 0.0,
			"-0.011": 0.0,
			"-0.01": 0.0,
			"-0.009": 0.0,
			"-0.008": 0.457341244466,
			"-0.007": 2.659778734,
			"-0.006": 2.93319288283,
			"-0.005": 6.11500973187,
			"-0.004": 16.3434841979,
			"-0.003": 21.0089157542,
			"-0.002": 23.7712477267,
			"-0.001": 20.5780013404,
			"0.0": 14.293501768,
			"0.001": 7.2592387314,
			"0.002": 1.02385109274,
			"0.003": 1.90931954025,
			"0.004": 2.39512674052,
			"0.005": 1.58417859426,
			"0.006": 2.62972117068,
			"0.007": 1.93339103013,
			"0.008": 3.2869974717,
			"0.009": 3.31376565427,
			"0.01": 3.630467692,
			"0.011": 3.11896662953,
			"0.012": 2.77736066432,
			"0.013": 2.30634900602,
			"0.014": 1.02328933485,
			"0.015": 0.0,
			"0.016": 0.0,
			"0.017": 0.0,
			"0.018": 0.0,
			"0.019": 0.0,
			"0.02": 0.0,
			"0.021": 0.0,
			"0.022": 0.0,
			"0.023": 0.0,
			"0.024": 0.0,
			"0.025": 0.0
		}
	}
}
