{
	 "smiles": "OC(=O)CNC(=O)C1=CC(Cl)=C(Cl)C=C1", 
	 "Tm": 410.15, 
	 "num_atms": 22, 
	 "gaussian": { 
		 "optdone": 1, 
		 "sigma_profile": "yes", 
		 "theory": "DFT", 
		 "functional": "B3LYP", 
		 "basiset": "6-31G**", 
		 "properties": { 
			 "R2extent": 6899.8999, 
			 "electric_dipole_moment_norm": 3.8719291884, 
			 "electric_quadrupole_moment_norm": 17.799796662, 
			 "total_energy": -1547.99385212, 
			 "HOMO_LUMO_gap": 0.19661, 
			 "cosmo_polarized_energy": -22.6, 
			 "cosmo_cavitation_energy": 31.21, 
			 "cosmo_dispersion_energy": -22.55, 
			 "cosmo_repulsion_energy": 1.79, 
			 "cosmo_total_nonelectrostatic_energy": 10.45, 
			 "SMD_solvation_energy": 5.86 
		},
		"coords": [
			{
				"x": -0.3215858103,
				"y": 0.8416019211,
				"z": -3.5373267143,
				"element": "O" 
			},
			{
				"x": -1.0482053832,
				"y": 0.2603980504,
				"z": -2.5579546406,
				"element": "C" 
			},
			{
				"x": -2.0355141718,
				"y": -0.3810107806,
				"z": -2.8115687775,
				"element": "O" 
			},
			{
				"x": -0.5066295157,
				"y": 0.4517850904,
				"z": -1.1376753911,
				"element": "C" 
			},
			{
				"x": -1.3974720435,
				"y": -0.1852598523,
				"z": -0.1924004793,
				"element": "N" 
			},
			{
				"x": -1.7970240297,
				"y": 0.3000283355,
				"z": 1.0344798352,
				"element": "C" 
			},
			{
				"x": -2.8623622035,
				"y": -0.040336244,
				"z": 1.5320967214,
				"element": "O" 
			},
			{
				"x": -0.8760037092,
				"y": 1.2355293283,
				"z": 1.7701015439,
				"element": "C" 
			},
			{
				"x": 0.5171500833,
				"y": 1.1300827794,
				"z": 1.7236407018,
				"element": "C" 
			},
			{
				"x": 1.3205664002,
				"y": 1.9864157605,
				"z": 2.4791526076,
				"element": "C" 
			},
			{
				"x": 3.0555429621,
				"y": 1.8007798803,
				"z": 2.390702412,
				"element": "Cl" 
			},
			{
				"x": 0.7280812722,
				"y": 2.9653690286,
				"z": 3.288058006,
				"element": "C" 
			},
			{
				"x": 1.6896300794,
				"y": 4.0675746456,
				"z": 4.236021806,
				"element": "Cl" 
			},
			{
				"x": -0.6664600719,
				"y": 3.0611932415,
				"z": 3.347269104,
				"element": "C" 
			},
			{
				"x": -1.4610010586,
				"y": 2.1960975801,
				"z": 2.6059565017,
				"element": "C" 
			},
			{
				"x": 0.4362161782,
				"y": 1.3222987558,
				"z": -3.1728855594,
				"element": "H" 
			},
			{
				"x": 0.5087234338,
				"y": 0.0251191912,
				"z": -1.1176984942,
				"element": "H" 
			},
			{
				"x": -0.4032540873,
				"y": 1.5247382794,
				"z": -0.9344339997,
				"element": "H" 
			},
			{
				"x": -2.112714138,
				"y": -0.7530287403,
				"z": -0.6403780736,
				"element": "H" 
			},
			{
				"x": 0.9979497641,
				"y": 0.3609461172,
				"z": 1.130703601,
				"element": "H" 
			},
			{
				"x": -1.1137188914,
				"y": 3.8153184218,
				"z": 3.9851925455,
				"element": "H" 
			},
			{
				"x": -2.5423150592,
				"y": 2.2454592101,
				"z": 2.6685467437,
				"element": "H" 
			}
		],
		 "valence_orbital": [ 
			{
				"type": "occ",
				"energy": -0.30719,
				"method": "rhf"
			},
			{
				"type": "occ",
				"energy": -0.27911,
				"method": "rhf"
			},
			{
				"type": "occ",
				"energy": -0.27824,
				"method": "rhf"
			},
			{
				"type": "occ",
				"energy": -0.27025,
				"method": "rhf"
			},
			{
				"type": "occ",
				"energy": -0.25699,
				"method": "rhf"
			},
			{
				"type": "unocc",
				"energy": -0.06038,
				"method": "rhf"
			},
			{
				"type": "unocc",
				"energy": -0.03906,
				"method": "rhf"
			},
			{
				"type": "unocc",
				"energy": -0.01829,
				"method": "rhf"
			},
			{
				"type": "unocc",
				"energy": -0.00926,
				"method": "rhf"
			},
			{
				"type": "unocc",
				"energy": 0.02545,
				"method": "rhf"
			}
		],
		"cosmo_sigma_profile": { 
			"-0.025": 0.0,
			"-0.024": 0.0,
			"-0.023": 0.0,
			"-0.022": 0.0,
			"-0.021": 0.0,
			"-0.02": 1.13036799278,
			"-0.019": 1.34849244039,
			"-0.018": 1.27675216754,
			"-0.017": 1.53550439773,
			"-0.016": 0.71275192246,
			"-0.015": 1.42104198768,
			"-0.014": 1.10052297186,
			"-0.013": 1.03545233739,
			"-0.012": 1.75399344632,
			"-0.011": 1.5141486576,
			"-0.01": 3.10248016967,
			"-0.009": 6.36129253955,
			"-0.008": 7.94990123912,
			"-0.007": 8.47494921421,
			"-0.006": 9.75919500862,
			"-0.005": 8.01187128281,
			"-0.004": 9.33633803641,
			"-0.003": 10.6243223089,
			"-0.002": 13.1762007299,
			"-0.001": 19.0357735047,
			"0.0": 22.9107047654,
			"0.001": 21.4808997952,
			"0.002": 17.1885755479,
			"0.003": 19.2423676817,
			"0.004": 16.8875017263,
			"0.005": 7.0074366819,
			"0.006": 3.11845885409,
			"0.007": 4.52043235779,
			"0.008": 4.73405209969,
			"0.009": 6.18021092004,
			"0.01": 6.32793310655,
			"0.011": 4.96377167839,
			"0.012": 4.9220585115,
			"0.013": 4.99739637077,
			"0.014": 1.03610655815,
			"0.015": 0.0,
			"0.016": 0.0,
			"0.017": 0.0,
			"0.018": 0.0,
			"0.019": 0.0,
			"0.02": 0.0,
			"0.021": 0.0,
			"0.022": 0.0,
			"0.023": 0.0,
			"0.024": 0.0,
			"0.025": 0.0
		}
	}
}
