{
	 "smiles": "OC(=O)C1=C(C=CC(Cl)=C1)N1C=NN=N1", 
	 "Tm": 472.15, 
	 "num_atms": 20, 
	 "gaussian": { 
		 "optdone": 1, 
		 "sigma_profile": "yes", 
		 "theory": "DFT", 
		 "functional": "B3LYP", 
		 "basiset": "6-31G**", 
		 "properties": { 
			 "R2extent": 3964.0901, 
			 "electric_dipole_moment_norm": 6.20078904173, 
			 "electric_quadrupole_moment_norm": 20.7546805384, 
			 "total_energy": -1137.44691475, 
			 "HOMO_LUMO_gap": 0.19221, 
			 "cosmo_polarized_energy": -20.65, 
			 "cosmo_cavitation_energy": 27.73, 
			 "cosmo_dispersion_energy": -20.38, 
			 "cosmo_repulsion_energy": 1.58, 
			 "cosmo_total_nonelectrostatic_energy": 8.93, 
			 "SMD_solvation_energy": 4.24 
		},
		"coords": [
			{
				"x": 1.5678023214,
				"y": 1.4185215209,
				"z": 3.0539054868,
				"element": "O" 
			},
			{
				"x": 0.5283297741,
				"y": 1.3161559852,
				"z": 2.1936359743,
				"element": "C" 
			},
			{
				"x": -0.4619553354,
				"y": 1.9889541117,
				"z": 2.3529230173,
				"element": "O" 
			},
			{
				"x": 0.6919242137,
				"y": 0.286114698,
				"z": 1.1084332683,
				"element": "C" 
			},
			{
				"x": 0.3587323336,
				"y": 0.5117319105,
				"z": -0.2420994362,
				"element": "C" 
			},
			{
				"x": 0.5421662822,
				"y": -0.5095403037,
				"z": -1.1818105162,
				"element": "C" 
			},
			{
				"x": 1.0238012438,
				"y": -1.7571172713,
				"z": -0.8008308805,
				"element": "C" 
			},
			{
				"x": 1.3287616203,
				"y": -1.9878932564,
				"z": 0.5399757034,
				"element": "C" 
			},
			{
				"x": 1.913272511,
				"y": -3.5565899173,
				"z": 1.0446985753,
				"element": "Cl" 
			},
			{
				"x": 1.1739310352,
				"y": -0.9774030737,
				"z": 1.484313658,
				"element": "C" 
			},
			{
				"x": -0.0899187849,
				"y": 1.7660517422,
				"z": -0.7417386768,
				"element": "N" 
			},
			{
				"x": -1.0767062546,
				"y": 2.6215459093,
				"z": -0.3647008467,
				"element": "C" 
			},
			{
				"x": -1.1669736501,
				"y": 3.5847346583,
				"z": -1.2528595212,
				"element": "N" 
			},
			{
				"x": -0.2211590402,
				"y": 3.3135120011,
				"z": -2.1985071896,
				"element": "N" 
			},
			{
				"x": 0.4246600353,
				"y": 2.2370337899,
				"z": -1.9237450255,
				"element": "N" 
			},
			{
				"x": 2.3313674383,
				"y": 0.9230852789,
				"z": 2.7235190536,
				"element": "H" 
			},
			{
				"x": 0.3095384158,
				"y": -0.3064044622,
				"z": -2.220206887,
				"element": "H" 
			},
			{
				"x": 1.1537858894,
				"y": -2.5434818321,
				"z": -1.5354204652,
				"element": "H" 
			},
			{
				"x": 1.40350324,
				"y": -1.1796459154,
				"z": 2.5251254086,
				"element": "H" 
			},
			{
				"x": -1.6534632885,
				"y": 2.507434426,
				"z": 0.5371892994,
				"element": "H" 
			}
		],
		 "valence_orbital": [ 
			{
				"type": "occ",
				"energy": -0.30893,
				"method": "rhf"
			},
			{
				"type": "occ",
				"energy": -0.30384,
				"method": "rhf"
			},
			{
				"type": "occ",
				"energy": -0.30291,
				"method": "rhf"
			},
			{
				"type": "occ",
				"energy": -0.29268,
				"method": "rhf"
			},
			{
				"type": "occ",
				"energy": -0.27482,
				"method": "rhf"
			},
			{
				"type": "unocc",
				"energy": -0.08261,
				"method": "rhf"
			},
			{
				"type": "unocc",
				"energy": -0.06636,
				"method": "rhf"
			},
			{
				"type": "unocc",
				"energy": -0.02153,
				"method": "rhf"
			},
			{
				"type": "unocc",
				"energy": -0.00605,
				"method": "rhf"
			},
			{
				"type": "unocc",
				"energy": 0.00238,
				"method": "rhf"
			}
		],
		"cosmo_sigma_profile": { 
			"-0.025": 0.0,
			"-0.024": 0.0,
			"-0.023": 0.0,
			"-0.022": 0.0,
			"-0.021": 0.0,
			"-0.02": 0.326470003857,
			"-0.019": 0.646063480354,
			"-0.018": 0.859845482321,
			"-0.017": 0.788911553102,
			"-0.016": 1.56162081854,
			"-0.015": 1.15506661322,
			"-0.014": 1.11166664566,
			"-0.013": 1.05117484783,
			"-0.012": 1.21925996,
			"-0.011": 1.1552158706,
			"-0.01": 3.21038532741,
			"-0.009": 5.99034390513,
			"-0.008": 8.8822358096,
			"-0.007": 8.98914395608,
			"-0.006": 10.4158956443,
			"-0.005": 10.1379059158,
			"-0.004": 8.09529442785,
			"-0.003": 10.7613607601,
			"-0.002": 15.3820577289,
			"-0.001": 18.9087743115,
			"0.0": 16.8743503711,
			"0.001": 10.0879900041,
			"0.002": 11.5358344911,
			"0.003": 12.8141381277,
			"0.004": 10.3289398859,
			"0.005": 4.56674508275,
			"0.006": 5.65116045064,
			"0.007": 7.48880349264,
			"0.008": 8.51956842337,
			"0.009": 9.5537571268,
			"0.01": 6.99688621323,
			"0.011": 5.17582541079,
			"0.012": 3.14163939007,
			"0.013": 2.13974998703,
			"0.014": 1.15726624079,
			"0.015": 0.272337428829,
			"0.016": 0.0,
			"0.017": 0.0,
			"0.018": 0.0,
			"0.019": 0.0,
			"0.02": 0.0,
			"0.021": 0.0,
			"0.022": 0.0,
			"0.023": 0.0,
			"0.024": 0.0,
			"0.025": 0.0
		}
	}
}
