{
	 "smiles": "COC1=CC2C3CC4=CC=C(OC)C(O)=C4C2(CCN3C)CC1=O", 
	 "Tm": 435.15, 
	 "num_atms": 47, 
	 "gaussian": { 
		 "optdone": 1, 
		 "sigma_profile": "yes", 
		 "theory": "DFT", 
		 "functional": "B3LYP", 
		 "basiset": "6-31G**", 
		 "properties": { 
			 "R2extent": 8866.5361, 
			 "electric_dipole_moment_norm": 4.67664106598, 
			 "electric_quadrupole_moment_norm": 25.4931400732, 
			 "total_energy": -1093.47215924, 
			 "HOMO_LUMO_gap": 0.15515, 
			 "cosmo_polarized_energy": -14.99, 
			 "cosmo_cavitation_energy": 44.6, 
			 "cosmo_dispersion_energy": -31.81, 
			 "cosmo_repulsion_energy": 2.38, 
			 "cosmo_total_nonelectrostatic_energy": 15.17, 
			 "SMD_solvation_energy": 7.78 
		},
		"coords": [
			{
				"x": -5.5807043163,
				"y": 1.8920450971,
				"z": 2.475292556,
				"element": "C" 
			},
			{
				"x": -4.7231589461,
				"y": 2.4904727388,
				"z": 1.495522029,
				"element": "O" 
			},
			{
				"x": -3.461353201,
				"y": 1.9809104562,
				"z": 1.3635731992,
				"element": "C" 
			},
			{
				"x": -2.996905185,
				"y": 1.6722668006,
				"z": 0.1370880009,
				"element": "C" 
			},
			{
				"x": -1.5751110879,
				"y": 1.2528736481,
				"z": -0.1246159919,
				"element": "C" 
			},
			{
				"x": -1.3465160843,
				"y": 0.4252429015,
				"z": -1.40084676,
				"element": "C" 
			},
			{
				"x": 0.1383999415,
				"y": 0.5886991909,
				"z": -1.7488533903,
				"element": "C" 
			},
			{
				"x": 1.0322001459,
				"y": 0.2778779352,
				"z": -0.558110379,
				"element": "C" 
			},
			{
				"x": 2.3840124909,
				"y": 0.0259363986,
				"z": -0.7981677868,
				"element": "C" 
			},
			{
				"x": 3.2611580535,
				"y": -0.3306707079,
				"z": 0.2276522333,
				"element": "C" 
			},
			{
				"x": 2.7549386139,
				"y": -0.4704755222,
				"z": 1.5126049942,
				"element": "C" 
			},
			{
				"x": 3.466051371,
				"y": -0.8539542499,
				"z": 2.6295251736,
				"element": "O" 
			},
			{
				"x": 4.8468284828,
				"y": -1.1402140327,
				"z": 2.4758290531,
				"element": "C" 
			},
			{
				"x": 1.3919889695,
				"y": -0.2294085795,
				"z": 1.7716227905,
				"element": "C" 
			},
			{
				"x": 0.9367765945,
				"y": -0.446025829,
				"z": 3.0443671154,
				"element": "O" 
			},
			{
				"x": 0.5172832258,
				"y": 0.1937012046,
				"z": 0.7590526391,
				"element": "C" 
			},
			{
				"x": -0.9627874094,
				"y": 0.4908022801,
				"z": 1.0726317711,
				"element": "C" 
			},
			{
				"x": -1.7448120569,
				"y": -0.8571534786,
				"z": 1.261973619,
				"element": "C" 
			},
			{
				"x": -2.4488012522,
				"y": -1.317293214,
				"z": -0.0256933013,
				"element": "C" 
			},
			{
				"x": -1.6481377076,
				"y": -1.0064542735,
				"z": -1.205965031,
				"element": "N" 
			},
			{
				"x": -2.1433692891,
				"y": -1.641317143,
				"z": -2.4135489052,
				"element": "C" 
			},
			{
				"x": -1.1325919181,
				"y": 1.4049551927,
				"z": 2.3098930994,
				"element": "C" 
			},
			{
				"x": -2.5565815327,
				"y": 1.9025155913,
				"z": 2.5460051105,
				"element": "C" 
			},
			{
				"x": -2.9107657493,
				"y": 2.2707238032,
				"z": 3.6581944374,
				"element": "O" 
			},
			{
				"x": -5.6953983042,
				"y": 0.8160610281,
				"z": 2.2871803791,
				"element": "H" 
			},
			{
				"x": -5.2035763281,
				"y": 2.0531892208,
				"z": 3.4859372351,
				"element": "H" 
			},
			{
				"x": -6.5511847449,
				"y": 2.377338901,
				"z": 2.3528633676,
				"element": "H" 
			},
			{
				"x": -3.6654668057,
				"y": 1.8017903201,
				"z": -0.7117978367,
				"element": "H" 
			},
			{
				"x": -0.9936099559,
				"y": 2.1786441014,
				"z": -0.2637723716,
				"element": "H" 
			},
			{
				"x": -1.9649526218,
				"y": 0.8440220215,
				"z": -2.2139382053,
				"element": "H" 
			},
			{
				"x": 0.4066775417,
				"y": -0.076710229,
				"z": -2.5771190461,
				"element": "H" 
			},
			{
				"x": 0.3142948008,
				"y": 1.6139654217,
				"z": -2.1060429078,
				"element": "H" 
			},
			{
				"x": 2.7617295545,
				"y": 0.09498282,
				"z": -1.8148711649,
				"element": "H" 
			},
			{
				"x": 4.3071101014,
				"y": -0.5168334492,
				"z": 0.0128350032,
				"element": "H" 
			},
			{
				"x": 5.2128173748,
				"y": -1.4228716167,
				"z": 3.4640396862,
				"element": "H" 
			},
			{
				"x": 5.0072795661,
				"y": -1.9711770873,
				"z": 1.7774049209,
				"element": "H" 
			},
			{
				"x": 5.4000570015,
				"y": -0.2611086406,
				"z": 2.1221799692,
				"element": "H" 
			},
			{
				"x": 1.7036841561,
				"y": -0.7260789286,
				"z": 3.5687916507,
				"element": "H" 
			},
			{
				"x": -2.4972824424,
				"y": -0.7547520877,
				"z": 2.051416628,
				"element": "H" 
			},
			{
				"x": -1.0419813216,
				"y": -1.6213274138,
				"z": 1.6014676849,
				"element": "H" 
			},
			{
				"x": -2.5893651317,
				"y": -2.4040113409,
				"z": 0.0039310657,
				"element": "H" 
			},
			{
				"x": -3.4627539416,
				"y": -0.876565175,
				"z": -0.0810179952,
				"element": "H" 
			},
			{
				"x": -2.1895667995,
				"y": -2.7264880821,
				"z": -2.2727015558,
				"element": "H" 
			},
			{
				"x": -1.462835392,
				"y": -1.4450281226,
				"z": -3.2486726196,
				"element": "H" 
			},
			{
				"x": -3.1518702063,
				"y": -1.2940136865,
				"z": -2.7142785435,
				"element": "H" 
			},
			{
				"x": -0.8023196946,
				"y": 0.9232707249,
				"z": 3.228853258,
				"element": "H" 
			},
			{
				"x": -0.5063285599,
				"y": 2.3011450917,
				"z": 2.1844851218,
				"element": "H" 
			}
		],
		 "valence_orbital": [ 
			{
				"type": "occ",
				"energy": -0.23988,
				"method": "rhf"
			},
			{
				"type": "occ",
				"energy": -0.23138,
				"method": "rhf"
			},
			{
				"type": "occ",
				"energy": -0.22284,
				"method": "rhf"
			},
			{
				"type": "occ",
				"energy": -0.20245,
				"method": "rhf"
			},
			{
				"type": "occ",
				"energy": -0.20002,
				"method": "rhf"
			},
			{
				"type": "unocc",
				"energy": -0.04487,
				"method": "rhf"
			},
			{
				"type": "unocc",
				"energy": 0.00711,
				"method": "rhf"
			},
			{
				"type": "unocc",
				"energy": 0.01617,
				"method": "rhf"
			},
			{
				"type": "unocc",
				"energy": 0.06327,
				"method": "rhf"
			},
			{
				"type": "unocc",
				"energy": 0.07661,
				"method": "rhf"
			}
		],
		"cosmo_sigma_profile": { 
			"-0.025": 0.0,
			"-0.024": 0.0,
			"-0.023": 0.0,
			"-0.022": 0.0,
			"-0.021": 0.0,
			"-0.02": 0.0,
			"-0.019": 0.0,
			"-0.018": 0.0,
			"-0.017": 0.0,
			"-0.016": 0.0,
			"-0.015": 0.0,
			"-0.014": 0.0597542283149,
			"-0.013": 0.444860964729,
			"-0.012": 0.867402256622,
			"-0.011": 0.15414394571,
			"-0.01": 0.699834371461,
			"-0.009": 0.490022176108,
			"-0.008": 0.508987112517,
			"-0.007": 1.10833572877,
			"-0.006": 10.3242829403,
			"-0.005": 25.4388836172,
			"-0.004": 35.2524184552,
			"-0.003": 43.3480558437,
			"-0.002": 39.6639342302,
			"-0.001": 37.8446495462,
			"0.0": 31.3666268092,
			"0.001": 17.8686535702,
			"0.002": 17.0198512079,
			"0.003": 13.8110620434,
			"0.004": 13.6087516611,
			"0.005": 12.4563396243,
			"0.006": 11.1484475743,
			"0.007": 7.39092966803,
			"0.008": 5.91936645582,
			"0.009": 4.62632592213,
			"0.01": 4.29049217783,
			"0.011": 5.10459601049,
			"0.012": 4.90808329031,
			"0.013": 2.18274933255,
			"0.014": 0.830429278859,
			"0.015": 0.215337539497,
			"0.016": 0.0,
			"0.017": 0.0,
			"0.018": 0.0,
			"0.019": 0.0,
			"0.02": 0.0,
			"0.021": 0.0,
			"0.022": 0.0,
			"0.023": 0.0,
			"0.024": 0.0,
			"0.025": 0.0
		}
	}
}
