{
	 "smiles": "COCCOC1=C(OC)C=C(C=C1)C(O)=O", 
	 "Tm": 423.15, 
	 "num_atms": 30, 
	 "gaussian": { 
		 "optdone": 1, 
		 "sigma_profile": "yes", 
		 "theory": "DFT", 
		 "functional": "B3LYP", 
		 "basiset": "6-31G**", 
		 "properties": { 
			 "R2extent": 4842.9396, 
			 "electric_dipole_moment_norm": 2.28380773271, 
			 "electric_quadrupole_moment_norm": 9.99784460821, 
			 "total_energy": -803.699715218, 
			 "HOMO_LUMO_gap": 0.18121, 
			 "cosmo_polarized_energy": -14.7, 
			 "cosmo_cavitation_energy": 34.12, 
			 "cosmo_dispersion_energy": -23.99, 
			 "cosmo_repulsion_energy": 1.9, 
			 "cosmo_total_nonelectrostatic_energy": 12.02, 
			 "SMD_solvation_energy": 8.52 
		},
		"coords": [
			{
				"x": -1.5118759795,
				"y": 0.3009670057,
				"z": -5.1036489535,
				"element": "C" 
			},
			{
				"x": -1.7429038597,
				"y": 0.0568738412,
				"z": -3.7302813758,
				"element": "O" 
			},
			{
				"x": -0.9974214382,
				"y": -1.0151242049,
				"z": -3.1887149603,
				"element": "C" 
			},
			{
				"x": 0.5131849248,
				"y": -0.7843900377,
				"z": -3.1343275517,
				"element": "C" 
			},
			{
				"x": 0.8580779633,
				"y": 0.4619445882,
				"z": -2.5149636104,
				"element": "O" 
			},
			{
				"x": 0.5992863852,
				"y": 0.5928067881,
				"z": -1.1763609501,
				"element": "C" 
			},
			{
				"x": 1.3562178841,
				"y": -0.1157057993,
				"z": -0.2103203604,
				"element": "C" 
			},
			{
				"x": 2.2946320144,
				"y": -0.9776756657,
				"z": -0.6994347654,
				"element": "O" 
			},
			{
				"x": 3.1093590003,
				"y": -1.673158219,
				"z": 0.2345001722,
				"element": "C" 
			},
			{
				"x": 1.1124142171,
				"y": 0.1082362876,
				"z": 1.141609573,
				"element": "C" 
			},
			{
				"x": 0.1325869862,
				"y": 1.0314988693,
				"z": 1.5433689012,
				"element": "C" 
			},
			{
				"x": -0.6101894641,
				"y": 1.7327495356,
				"z": 0.5892572736,
				"element": "C" 
			},
			{
				"x": -0.3733238649,
				"y": 1.5020930872,
				"z": -0.7653495239,
				"element": "C" 
			},
			{
				"x": -0.0646762386,
				"y": 1.2176132579,
				"z": 3.0014570764,
				"element": "C" 
			},
			{
				"x": -1.0244748657,
				"y": 2.1303567388,
				"z": 3.3001021719,
				"element": "O" 
			},
			{
				"x": 0.5521304162,
				"y": 0.6295404704,
				"z": 3.8706554041,
				"element": "O" 
			},
			{
				"x": -1.6403702607,
				"y": -0.6122255057,
				"z": -5.7068188372,
				"element": "H" 
			},
			{
				"x": -0.5105820977,
				"y": 0.7103220097,
				"z": -5.2971814094,
				"element": "H" 
			},
			{
				"x": -2.2527621208,
				"y": 1.0378816126,
				"z": -5.4233070273,
				"element": "H" 
			},
			{
				"x": -1.386821673,
				"y": -1.1548733686,
				"z": -2.1752875349,
				"element": "H" 
			},
			{
				"x": -1.1777686348,
				"y": -1.949798067,
				"z": -3.7498427628,
				"element": "H" 
			},
			{
				"x": 0.9414660195,
				"y": -0.7167654633,
				"z": -4.137856011,
				"element": "H" 
			},
			{
				"x": 0.991376394,
				"y": -1.6255176411,
				"z": -2.6189243768,
				"element": "H" 
			},
			{
				"x": 3.6863454918,
				"y": -0.979174741,
				"z": 0.857837794,
				"element": "H" 
			},
			{
				"x": 2.5135873046,
				"y": -2.3269765416,
				"z": 0.8837860335,
				"element": "H" 
			},
			{
				"x": 3.7941691253,
				"y": -2.2802533918,
				"z": -0.3592120973,
				"element": "H" 
			},
			{
				"x": 1.6678332536,
				"y": -0.4067800796,
				"z": 1.9151792324,
				"element": "H" 
			},
			{
				"x": -1.3677350329,
				"y": 2.440570535,
				"z": 0.9034013579,
				"element": "H" 
			},
			{
				"x": -0.9402003546,
				"y": 2.0101895619,
				"z": -1.5377691757,
				"element": "H" 
			},
			{
				"x": -1.0596614954,
				"y": 2.1625745372,
				"z": 4.2699462937,
				"element": "H" 
			}
		],
		 "valence_orbital": [ 
			{
				"type": "occ",
				"energy": -0.2821,
				"method": "rhf"
			},
			{
				"type": "occ",
				"energy": -0.27175,
				"method": "rhf"
			},
			{
				"type": "occ",
				"energy": -0.25853,
				"method": "rhf"
			},
			{
				"type": "occ",
				"energy": -0.24384,
				"method": "rhf"
			},
			{
				"type": "occ",
				"energy": -0.22219,
				"method": "rhf"
			},
			{
				"type": "unocc",
				"energy": -0.04098,
				"method": "rhf"
			},
			{
				"type": "unocc",
				"energy": 0.00405,
				"method": "rhf"
			},
			{
				"type": "unocc",
				"energy": 0.06561,
				"method": "rhf"
			},
			{
				"type": "unocc",
				"energy": 0.07737,
				"method": "rhf"
			},
			{
				"type": "unocc",
				"energy": 0.08476,
				"method": "rhf"
			}
		],
		"cosmo_sigma_profile": { 
			"-0.025": 0.0,
			"-0.024": 0.0,
			"-0.023": 0.0,
			"-0.022": 0.0,
			"-0.021": 0.0,
			"-0.02": 0.0,
			"-0.019": 0.0,
			"-0.018": 0.748971083464,
			"-0.017": 0.671895656767,
			"-0.016": 0.98246309797,
			"-0.015": 0.470107049922,
			"-0.014": 1.36589839496,
			"-0.013": 0.754811719228,
			"-0.012": 0.519901866068,
			"-0.011": 0.497982009479,
			"-0.01": 0.792548439022,
			"-0.009": 0.225684179868,
			"-0.008": 0.622078016529,
			"-0.007": 2.20282578673,
			"-0.006": 11.4126733816,
			"-0.005": 26.7366302577,
			"-0.004": 29.5970692346,
			"-0.003": 26.0296400277,
			"-0.002": 22.3172054372,
			"-0.001": 15.6687235018,
			"0.0": 13.6835825801,
			"0.001": 16.9847606545,
			"0.002": 18.5959769867,
			"0.003": 16.9796404698,
			"0.004": 10.1997726312,
			"0.005": 6.80270370017,
			"0.006": 7.59968189078,
			"0.007": 7.05849077267,
			"0.008": 6.14216654708,
			"0.009": 4.8839792569,
			"0.01": 6.1097568312,
			"0.011": 5.90290583444,
			"0.012": 5.51933085732,
			"0.013": 1.27591533887,
			"0.014": 0.0599231258239,
			"0.015": 0.0,
			"0.016": 0.0,
			"0.017": 0.0,
			"0.018": 0.0,
			"0.019": 0.0,
			"0.02": 0.0,
			"0.021": 0.0,
			"0.022": 0.0,
			"0.023": 0.0,
			"0.024": 0.0,
			"0.025": 0.0
		}
	}
}
