{
	 "smiles": "NC(=O)CSC1=C(NC(=O)CCl)C=CC=C1", 
	 "Tm": 403.15, 
	 "num_atms": 27, 
	 "gaussian": { 
		 "optdone": 1, 
		 "sigma_profile": "yes", 
		 "theory": "DFT", 
		 "functional": "B3LYP", 
		 "basiset": "6-31G**", 
		 "properties": { 
			 "R2extent": 5352.1134, 
			 "electric_dipole_moment_norm": 6.74704123005, 
			 "electric_quadrupole_moment_norm": 21.9683967312, 
			 "total_energy": -1506.04523528, 
			 "HOMO_LUMO_gap": 0.19391, 
			 "cosmo_polarized_energy": -23.56, 
			 "cosmo_cavitation_energy": 34.99, 
			 "cosmo_dispersion_energy": -24.31, 
			 "cosmo_repulsion_energy": 1.92, 
			 "cosmo_total_nonelectrostatic_energy": 12.59, 
			 "SMD_solvation_energy": 6.89 
		},
		"coords": [
			{
				"x": 2.1060863839,
				"y": -2.6252147576,
				"z": 1.1267172831,
				"element": "N" 
			},
			{
				"x": 0.8220560184,
				"y": -2.3227318869,
				"z": 1.4640831871,
				"element": "C" 
			},
			{
				"x": 0.4662581994,
				"y": -2.0569079983,
				"z": 2.6011870472,
				"element": "O" 
			},
			{
				"x": -0.2109052255,
				"y": -2.4098201286,
				"z": 0.333375039,
				"element": "C" 
			},
			{
				"x": 0.3390855555,
				"y": -1.8860523405,
				"z": -1.3476783959,
				"element": "S" 
			},
			{
				"x": 0.4934372017,
				"y": -0.1087514696,
				"z": -1.1398902239,
				"element": "C" 
			},
			{
				"x": -0.6533629285,
				"y": 0.725517572,
				"z": -1.1362287482,
				"element": "C" 
			},
			{
				"x": -1.9216820264,
				"y": 0.1354322202,
				"z": -1.2768367757,
				"element": "N" 
			},
			{
				"x": -3.1668258641,
				"y": 0.4200186864,
				"z": -0.7340369764,
				"element": "C" 
			},
			{
				"x": -4.1217754804,
				"y": -0.2788825463,
				"z": -1.0121691445,
				"element": "O" 
			},
			{
				"x": -3.2572730471,
				"y": 1.6197409278,
				"z": 0.2145442937,
				"element": "C" 
			},
			{
				"x": -4.6606058261,
				"y": 1.4860227203,
				"z": 1.3206892365,
				"element": "Cl" 
			},
			{
				"x": -0.4737710654,
				"y": 2.114592265,
				"z": -1.0577420239,
				"element": "C" 
			},
			{
				"x": 0.8018623305,
				"y": 2.6646093202,
				"z": -0.9444285765,
				"element": "C" 
			},
			{
				"x": 1.9285137301,
				"y": 1.8442125752,
				"z": -0.9428368859,
				"element": "C" 
			},
			{
				"x": 1.7661548049,
				"y": 0.4635921804,
				"z": -1.0522451576,
				"element": "C" 
			},
			{
				"x": 2.8091207532,
				"y": -2.5721760837,
				"z": 1.8475061995,
				"element": "H" 
			},
			{
				"x": 2.3822030926,
				"y": -2.7435020708,
				"z": 0.1644626008,
				"element": "H" 
			},
			{
				"x": -0.5156889534,
				"y": -3.4554049203,
				"z": 0.2133191865,
				"element": "H" 
			},
			{
				"x": -1.0870198316,
				"y": -1.8388744214,
				"z": 0.6414725279,
				"element": "H" 
			},
			{
				"x": -1.9301704568,
				"y": -0.7523102871,
				"z": -1.771891704,
				"element": "H" 
			},
			{
				"x": -2.3583869564,
				"y": 1.7217543265,
				"z": 0.8232457429,
				"element": "H" 
			},
			{
				"x": -3.3956644281,
				"y": 2.5367877802,
				"z": -0.3628739413,
				"element": "H" 
			},
			{
				"x": -1.331676252,
				"y": 2.772583631,
				"z": -1.1246314175,
				"element": "H" 
			},
			{
				"x": 0.9100860491,
				"y": 3.7431842289,
				"z": -0.8815665143,
				"element": "H" 
			},
			{
				"x": 2.9229840785,
				"y": 2.2714561226,
				"z": -0.8648729013,
				"element": "H" 
			},
			{
				"x": 2.6329601441,
				"y": -0.1885756457,
				"z": -1.0608729576,
				"element": "H" 
			}
		],
		 "valence_orbital": [ 
			{
				"type": "occ",
				"energy": -0.27668,
				"method": "rhf"
			},
			{
				"type": "occ",
				"energy": -0.27344,
				"method": "rhf"
			},
			{
				"type": "occ",
				"energy": -0.27203,
				"method": "rhf"
			},
			{
				"type": "occ",
				"energy": -0.24977,
				"method": "rhf"
			},
			{
				"type": "occ",
				"energy": -0.23938,
				"method": "rhf"
			},
			{
				"type": "unocc",
				"energy": -0.04547,
				"method": "rhf"
			},
			{
				"type": "unocc",
				"energy": -0.03171,
				"method": "rhf"
			},
			{
				"type": "unocc",
				"energy": 0.00103,
				"method": "rhf"
			},
			{
				"type": "unocc",
				"energy": 0.01007,
				"method": "rhf"
			},
			{
				"type": "unocc",
				"energy": 0.02439,
				"method": "rhf"
			}
		],
		"cosmo_sigma_profile": { 
			"-0.025": 0.0,
			"-0.024": 0.0,
			"-0.023": 0.0,
			"-0.022": 0.0,
			"-0.021": 0.0,
			"-0.02": 0.0,
			"-0.019": 0.0,
			"-0.018": 0.0,
			"-0.017": 0.0,
			"-0.016": 0.0,
			"-0.015": 0.0,
			"-0.014": 0.914090525802,
			"-0.013": 1.44124471036,
			"-0.012": 2.01440212483,
			"-0.011": 3.84948010639,
			"-0.01": 4.98988182537,
			"-0.009": 6.35232740042,
			"-0.008": 9.57227267902,
			"-0.007": 13.4721626065,
			"-0.006": 20.0259417096,
			"-0.005": 18.3710010337,
			"-0.004": 16.1729255858,
			"-0.003": 14.2776385889,
			"-0.002": 11.4994039565,
			"-0.001": 14.0484165364,
			"0.0": 16.2440506512,
			"0.001": 16.2872620085,
			"0.002": 18.23020067,
			"0.003": 17.4732771906,
			"0.004": 17.0485812991,
			"0.005": 11.6249396761,
			"0.006": 10.1192586745,
			"0.007": 3.52790883189,
			"0.008": 2.04127297749,
			"0.009": 2.64798067837,
			"0.01": 4.47356117236,
			"0.011": 3.51452083264,
			"0.012": 8.0930927505,
			"0.013": 8.040819509,
			"0.014": 5.42414219525,
			"0.015": 0.646460457967,
			"0.016": 0.0,
			"0.017": 0.0,
			"0.018": 0.0,
			"0.019": 0.0,
			"0.02": 0.0,
			"0.021": 0.0,
			"0.022": 0.0,
			"0.023": 0.0,
			"0.024": 0.0,
			"0.025": 0.0
		}
	}
}
