{
	 "smiles": "OC1=CC=C(C=C1)S(=O)(=O)C1=CC=C(O)C=C1", 
	 "Tm": 520.65, 
	 "num_atms": 27, 
	 "gaussian": { 
		 "optdone": 1, 
		 "sigma_profile": "yes", 
		 "theory": "DFT", 
		 "functional": "B3LYP", 
		 "basiset": "6-31G**", 
		 "properties": { 
			 "R2extent": 5823.2744, 
			 "electric_dipole_moment_norm": 5.67312470337, 
			 "electric_quadrupole_moment_norm": 36.271081499, 
			 "total_energy": -1162.31155813, 
			 "HOMO_LUMO_gap": 0.19639, 
			 "cosmo_polarized_energy": -23.73, 
			 "cosmo_cavitation_energy": 33.45, 
			 "cosmo_dispersion_energy": -24.37, 
			 "cosmo_repulsion_energy": 1.84, 
			 "cosmo_total_nonelectrostatic_energy": 10.92, 
			 "SMD_solvation_energy": 5.79 
		},
		"coords": [
			{
				"x": 0.2919040407,
				"y": 5.4691825441,
				"z": 0.9609947749,
				"element": "O" 
			},
			{
				"x": -0.362167119,
				"y": 4.3393380344,
				"z": 0.5788222823,
				"element": "C" 
			},
			{
				"x": -1.0845800133,
				"y": 3.6534927857,
				"z": 1.5657857335,
				"element": "C" 
			},
			{
				"x": -1.7720492765,
				"y": 2.4926304309,
				"z": 1.2354368263,
				"element": "C" 
			},
			{
				"x": -1.7363233646,
				"y": 2.0134530973,
				"z": -0.0786016307,
				"element": "C" 
			},
			{
				"x": -1.0284591072,
				"y": 2.6982978188,
				"z": -1.0674145479,
				"element": "C" 
			},
			{
				"x": -0.3395447646,
				"y": 3.8626276756,
				"z": -0.7386439836,
				"element": "C" 
			},
			{
				"x": -2.6270243639,
				"y": 0.5151924265,
				"z": -0.5054784544,
				"element": "S" 
			},
			{
				"x": -3.7342719805,
				"y": 0.3774671509,
				"z": 0.456288081,
				"element": "O" 
			},
			{
				"x": -2.8600803555,
				"y": 0.5500735494,
				"z": -1.9595836016,
				"element": "O" 
			},
			{
				"x": -1.4797873859,
				"y": -0.8267300222,
				"z": -0.1838081899,
				"element": "C" 
			},
			{
				"x": -0.5963888328,
				"y": -1.2411136861,
				"z": -1.1865420621,
				"element": "C" 
			},
			{
				"x": 0.2900749659,
				"y": -2.2813864978,
				"z": -0.9388115907,
				"element": "C" 
			},
			{
				"x": 0.2910432399,
				"y": -2.911622639,
				"z": 0.3138520267,
				"element": "C" 
			},
			{
				"x": 1.1815524973,
				"y": -3.9231291187,
				"z": 0.4989510136,
				"element": "O" 
			},
			{
				"x": -0.6040550222,
				"y": -2.5015630164,
				"z": 1.3109129577,
				"element": "C" 
			},
			{
				"x": -1.4910610807,
				"y": -1.4579775548,
				"z": 1.0608678111,
				"element": "C" 
			},
			{
				"x": 0.7385333985,
				"y": 5.8577891283,
				"z": 0.1972690011,
				"element": "H" 
			},
			{
				"x": -1.1007671196,
				"y": 4.051641093,
				"z": 2.5745818647,
				"element": "H" 
			},
			{
				"x": -2.3559736446,
				"y": 1.9669723277,
				"z": 1.9831736486,
				"element": "H" 
			},
			{
				"x": -1.0394541943,
				"y": 2.3317697933,
				"z": -2.0880672289,
				"element": "H" 
			},
			{
				"x": 0.2082429578,
				"y": 4.4062724336,
				"z": -1.5051657847,
				"element": "H" 
			},
			{
				"x": -0.6254956663,
				"y": -0.7625924437,
				"z": -2.1594584306,
				"element": "H" 
			},
			{
				"x": 0.9807913632,
				"y": -2.6279955576,
				"z": -1.6998843732,
				"element": "H" 
			},
			{
				"x": 1.0786934329,
				"y": -4.2851387543,
				"z": 1.3889730281,
				"element": "H" 
			},
			{
				"x": -0.6118220293,
				"y": -3.0036723363,
				"z": 2.2757971238,
				"element": "H" 
			},
			{
				"x": -2.2056305755,
				"y": -1.1468786624,
				"z": 1.8150537049,
				"element": "H" 
			}
		],
		 "valence_orbital": [ 
			{
				"type": "occ",
				"energy": -0.28121,
				"method": "rhf"
			},
			{
				"type": "occ",
				"energy": -0.27256,
				"method": "rhf"
			},
			{
				"type": "occ",
				"energy": -0.26924,
				"method": "rhf"
			},
			{
				"type": "occ",
				"energy": -0.25321,
				"method": "rhf"
			},
			{
				"type": "occ",
				"energy": -0.23334,
				"method": "rhf"
			},
			{
				"type": "unocc",
				"energy": -0.03695,
				"method": "rhf"
			},
			{
				"type": "unocc",
				"energy": -0.02505,
				"method": "rhf"
			},
			{
				"type": "unocc",
				"energy": -0.01524,
				"method": "rhf"
			},
			{
				"type": "unocc",
				"energy": -0.00456,
				"method": "rhf"
			},
			{
				"type": "unocc",
				"energy": 0.05289,
				"method": "rhf"
			}
		],
		"cosmo_sigma_profile": { 
			"-0.025": 0.0,
			"-0.024": 0.0,
			"-0.023": 0.0,
			"-0.022": 0.0,
			"-0.021": 0.0,
			"-0.02": 0.0,
			"-0.019": 0.317472177832,
			"-0.018": 2.20189200845,
			"-0.017": 2.95905032737,
			"-0.016": 2.41813362084,
			"-0.015": 1.58852624317,
			"-0.014": 2.08577977556,
			"-0.013": 1.55996223048,
			"-0.012": 2.12526130596,
			"-0.011": 2.29916159347,
			"-0.01": 2.05276288776,
			"-0.009": 2.62879535625,
			"-0.008": 3.60953128027,
			"-0.007": 10.5388845423,
			"-0.006": 14.5381713855,
			"-0.005": 15.4895237035,
			"-0.004": 13.6918486078,
			"-0.003": 10.1357988383,
			"-0.002": 11.0376620607,
			"-0.001": 10.5617538436,
			"0.0": 13.5108397102,
			"0.001": 20.1564029105,
			"0.002": 31.0041786484,
			"0.003": 29.4245336539,
			"0.004": 8.21389427033,
			"0.005": 5.3060800625,
			"0.006": 5.90889753773,
			"0.007": 3.82358307432,
			"0.008": 7.03349764388,
			"0.009": 7.03908279225,
			"0.01": 7.56940508536,
			"0.011": 8.54132864278,
			"0.012": 7.61484904549,
			"0.013": 1.0332168413,
			"0.014": 0.0,
			"0.015": 0.0,
			"0.016": 0.0,
			"0.017": 0.0,
			"0.018": 0.0,
			"0.019": 0.0,
			"0.02": 0.0,
			"0.021": 0.0,
			"0.022": 0.0,
			"0.023": 0.0,
			"0.024": 0.0,
			"0.025": 0.0
		}
	}
}
