{
	 "smiles": "ClC1=CC(Cl)=C(Cl)C2=NSN=C12", 
	 "Tm": 395.15, 
	 "num_atms": 13, 
	 "gaussian": { 
		 "optdone": 1, 
		 "sigma_profile": "yes", 
		 "theory": "DFT", 
		 "functional": "B3LYP", 
		 "basiset": "6-31G**", 
		 "properties": { 
			 "R2extent": 4164.4631, 
			 "electric_dipole_moment_norm": 0.526840791891, 
			 "electric_quadrupole_moment_norm": 6.19320778838, 
			 "total_energy": -2117.47100449, 
			 "HOMO_LUMO_gap": 0.13955, 
			 "cosmo_polarized_energy": -5.83, 
			 "cosmo_cavitation_energy": 25.1, 
			 "cosmo_dispersion_energy": -19.88, 
			 "cosmo_repulsion_energy": 1.52, 
			 "cosmo_total_nonelectrostatic_energy": 6.75, 
			 "SMD_solvation_energy": 0.34 
		},
		"coords": [
			{
				"x": -3.9475332642,
				"y": -0.799592623,
				"z": -1.9475694129,
				"element": "Cl" 
			},
			{
				"x": -2.3270952926,
				"y": -0.8538877578,
				"z": -1.3239208938,
				"element": "C" 
			},
			{
				"x": -2.0468403045,
				"y": -1.4621447146,
				"z": -0.1304904383,
				"element": "C" 
			},
			{
				"x": -0.714159939,
				"y": -1.5112388504,
				"z": 0.3906856217,
				"element": "C" 
			},
			{
				"x": -0.505269762,
				"y": -2.3175627421,
				"z": 1.9200562584,
				"element": "Cl" 
			},
			{
				"x": 0.354362959,
				"y": -0.9525595486,
				"z": -0.2754902381,
				"element": "C" 
			},
			{
				"x": 1.9751656292,
				"y": -0.9945612153,
				"z": 0.3263748818,
				"element": "Cl" 
			},
			{
				"x": 0.0903950716,
				"y": -0.3098235563,
				"z": -1.5262240366,
				"element": "C" 
			},
			{
				"x": 0.9940067784,
				"y": 0.2838309778,
				"z": -2.3093624612,
				"element": "N" 
			},
			{
				"x": 0.1743548873,
				"y": 0.8550548341,
				"z": -3.610676976,
				"element": "S" 
			},
			{
				"x": -1.3475717022,
				"y": 0.3742572148,
				"z": -3.2324029245,
				"element": "N" 
			},
			{
				"x": -1.2593089447,
				"y": -0.256414155,
				"z": -2.0607195306,
				"element": "C" 
			},
			{
				"x": -2.8401061163,
				"y": -1.9220578636,
				"z": 0.44594015,
				"element": "H" 
			}
		],
		 "valence_orbital": [ 
			{
				"type": "occ",
				"energy": -0.32914,
				"method": "rhf"
			},
			{
				"type": "occ",
				"energy": -0.32562,
				"method": "rhf"
			},
			{
				"type": "occ",
				"energy": -0.31375,
				"method": "rhf"
			},
			{
				"type": "occ",
				"energy": -0.28391,
				"method": "rhf"
			},
			{
				"type": "occ",
				"energy": -0.25053,
				"method": "rhf"
			},
			{
				"type": "unocc",
				"energy": -0.11098,
				"method": "rhf"
			},
			{
				"type": "unocc",
				"energy": -0.024,
				"method": "rhf"
			},
			{
				"type": "unocc",
				"energy": -0.01969,
				"method": "rhf"
			},
			{
				"type": "unocc",
				"energy": -0.01952,
				"method": "rhf"
			},
			{
				"type": "unocc",
				"energy": -0.0083,
				"method": "rhf"
			}
		],
		"cosmo_sigma_profile": { 
			"-0.025": 0.0,
			"-0.024": 0.0,
			"-0.023": 0.0,
			"-0.022": 0.0,
			"-0.021": 0.0,
			"-0.02": 0.0,
			"-0.019": 0.0,
			"-0.018": 0.0,
			"-0.017": 0.0,
			"-0.016": 0.0,
			"-0.015": 0.0,
			"-0.014": 0.0,
			"-0.013": 0.0,
			"-0.012": 0.0,
			"-0.011": 0.0,
			"-0.01": 0.627783519498,
			"-0.009": 1.57278789717,
			"-0.008": 1.38053819112,
			"-0.007": 2.17637478532,
			"-0.006": 5.47198824831,
			"-0.005": 8.7566735535,
			"-0.004": 14.693078,
			"-0.003": 22.8950698526,
			"-0.002": 27.0860416637,
			"-0.001": 22.1153893508,
			"0.0": 15.0806029196,
			"0.001": 15.0070396415,
			"0.002": 20.2162547077,
			"0.003": 26.1059603782,
			"0.004": 10.0749461757,
			"0.005": 4.09361140064,
			"0.006": 3.17902794597,
			"0.007": 3.13663657557,
			"0.008": 2.67761322305,
			"0.009": 2.369942848,
			"0.01": 2.425616984,
			"0.011": 1.74509695231,
			"0.012": 0.452122235713,
			"0.013": 0.0,
			"0.014": 0.0,
			"0.015": 0.0,
			"0.016": 0.0,
			"0.017": 0.0,
			"0.018": 0.0,
			"0.019": 0.0,
			"0.02": 0.0,
			"0.021": 0.0,
			"0.022": 0.0,
			"0.023": 0.0,
			"0.024": 0.0,
			"0.025": 0.0
		}
	}
}
