{
	 "smiles": "OS(=O)(=O)C1=C2C=CC=CC2=CC=C1", 
	 "Tm": 413.15, 
	 "num_atms": 22, 
	 "gaussian": { 
		 "optdone": 1, 
		 "sigma_profile": "yes", 
		 "theory": "DFT", 
		 "functional": "B3LYP", 
		 "basiset": "6-31G**", 
		 "properties": { 
			 "R2extent": 3074.7743, 
			 "electric_dipole_moment_norm": 4.67856567764, 
			 "electric_quadrupole_moment_norm": 13.221794143, 
			 "total_energy": -1009.68332123, 
			 "HOMO_LUMO_gap": 0.17034, 
			 "cosmo_polarized_energy": -14.08, 
			 "cosmo_cavitation_energy": 27.09, 
			 "cosmo_dispersion_energy": -20.86, 
			 "cosmo_repulsion_energy": 1.56, 
			 "cosmo_total_nonelectrostatic_energy": 7.79, 
			 "SMD_solvation_energy": 3.54 
		},
		"coords": [
			{
				"x": -0.9235331068,
				"y": 3.2200272385,
				"z": 0.3554999666,
				"element": "O" 
			},
			{
				"x": -2.0184645591,
				"y": 1.992107441,
				"z": 0.2697476927,
				"element": "S" 
			},
			{
				"x": -3.0422267657,
				"y": 2.2781871454,
				"z": 1.2757679765,
				"element": "O" 
			},
			{
				"x": -2.3538498683,
				"y": 1.8519145936,
				"z": -1.1396465943,
				"element": "O" 
			},
			{
				"x": -1.0504255467,
				"y": 0.5851005173,
				"z": 0.8107944226,
				"element": "C" 
			},
			{
				"x": 0.0897102061,
				"y": 0.1287366048,
				"z": 0.0753840369,
				"element": "C" 
			},
			{
				"x": 0.5737320592,
				"y": 0.7267989015,
				"z": -1.1199267711,
				"element": "C" 
			},
			{
				"x": 1.6905781343,
				"y": 0.2252576976,
				"z": -1.7513544646,
				"element": "C" 
			},
			{
				"x": 2.3798388557,
				"y": -0.8947943409,
				"z": -1.2310987742,
				"element": "C" 
			},
			{
				"x": 1.93365854,
				"y": -1.4993651258,
				"z": -0.079294663,
				"element": "C" 
			},
			{
				"x": 0.7867654566,
				"y": -1.0115002731,
				"z": 0.602499025,
				"element": "C" 
			},
			{
				"x": 0.3219403536,
				"y": -1.6340660611,
				"z": 1.7923806144,
				"element": "C" 
			},
			{
				"x": -0.7848614019,
				"y": -1.1641994022,
				"z": 2.4588068214,
				"element": "C" 
			},
			{
				"x": -1.4784574923,
				"y": -0.0368649834,
				"z": 1.9645867919,
				"element": "C" 
			},
			{
				"x": -1.1531568221,
				"y": 3.7392193023,
				"z": 1.1443517118,
				"element": "H" 
			},
			{
				"x": 0.0529551357,
				"y": 1.5746696761,
				"z": -1.5461366028,
				"element": "H" 
			},
			{
				"x": 2.0436610005,
				"y": 0.6953875578,
				"z": -2.6642842309,
				"element": "H" 
			},
			{
				"x": 3.2576618797,
				"y": -1.2754097326,
				"z": -1.744531285,
				"element": "H" 
			},
			{
				"x": 2.4519373269,
				"y": -2.3625429505,
				"z": 0.3296206182,
				"element": "H" 
			},
			{
				"x": 0.8631182741,
				"y": -2.4980496433,
				"z": 2.1690530177,
				"element": "H" 
			},
			{
				"x": -1.1324189445,
				"y": -1.649555136,
				"z": 3.3651016228,
				"element": "H" 
			},
			{
				"x": -2.3497627151,
				"y": 0.3464409729,
				"z": 2.4829790674,
				"element": "H" 
			}
		],
		 "valence_orbital": [ 
			{
				"type": "occ",
				"energy": -0.32119,
				"method": "rhf"
			},
			{
				"type": "occ",
				"energy": -0.31016,
				"method": "rhf"
			},
			{
				"type": "occ",
				"energy": -0.29686,
				"method": "rhf"
			},
			{
				"type": "occ",
				"energy": -0.26233,
				"method": "rhf"
			},
			{
				"type": "occ",
				"energy": -0.23668,
				"method": "rhf"
			},
			{
				"type": "unocc",
				"energy": -0.06634,
				"method": "rhf"
			},
			{
				"type": "unocc",
				"energy": -0.02773,
				"method": "rhf"
			},
			{
				"type": "unocc",
				"energy": 0.00158,
				"method": "rhf"
			},
			{
				"type": "unocc",
				"energy": 0.04124,
				"method": "rhf"
			},
			{
				"type": "unocc",
				"energy": 0.06956,
				"method": "rhf"
			}
		],
		"cosmo_sigma_profile": { 
			"-0.025": 0.0,
			"-0.024": 0.0,
			"-0.023": 0.0,
			"-0.022": 0.0,
			"-0.021": 0.0,
			"-0.02": 0.416073295353,
			"-0.019": 1.12944641433,
			"-0.018": 0.591544356843,
			"-0.017": 0.783144547344,
			"-0.016": 1.18720677795,
			"-0.015": 0.98302242531,
			"-0.014": 0.418116452317,
			"-0.013": 0.516879919536,
			"-0.012": 1.13219113996,
			"-0.011": 0.624555893466,
			"-0.01": 0.466246202784,
			"-0.009": 1.01742385427,
			"-0.008": 2.14921903912,
			"-0.007": 9.69194448878,
			"-0.006": 14.2016731882,
			"-0.005": 14.217195947,
			"-0.004": 13.3274148421,
			"-0.003": 9.95014268007,
			"-0.002": 10.9967331017,
			"-0.001": 9.62519946307,
			"0.0": 13.3644035255,
			"0.001": 17.4984949102,
			"0.002": 22.2713133273,
			"0.003": 19.444819093,
			"0.004": 12.3909630643,
			"0.005": 4.66819093056,
			"0.006": 4.77907687732,
			"0.007": 5.42539371043,
			"0.008": 5.44312465097,
			"0.009": 7.72321400432,
			"0.01": 8.8828815076,
			"0.011": 2.56762097991,
			"0.012": 0.0,
			"0.013": 0.0,
			"0.014": 0.0,
			"0.015": 0.0,
			"0.016": 0.0,
			"0.017": 0.0,
			"0.018": 0.0,
			"0.019": 0.0,
			"0.02": 0.0,
			"0.021": 0.0,
			"0.022": 0.0,
			"0.023": 0.0,
			"0.024": 0.0,
			"0.025": 0.0
		}
	}
}
