{
	 "smiles": "CC1(C)CN(NC1=O)C1=CC=CC=C1", 
	 "Tm": 442.65, 
	 "num_atms": 28, 
	 "gaussian": { 
		 "optdone": 1, 
		 "sigma_profile": "yes", 
		 "theory": "DFT", 
		 "functional": "B3LYP", 
		 "basiset": "6-31G**", 
		 "properties": { 
			 "R2extent": 3144.0561, 
			 "electric_dipole_moment_norm": 2.58865985406, 
			 "electric_quadrupole_moment_norm": 11.0006218229, 
			 "total_energy": -612.318118257, 
			 "HOMO_LUMO_gap": 0.19902, 
			 "cosmo_polarized_energy": -11.49, 
			 "cosmo_cavitation_energy": 30.03, 
			 "cosmo_dispersion_energy": -21.39, 
			 "cosmo_repulsion_energy": 1.68, 
			 "cosmo_total_nonelectrostatic_energy": 10.31, 
			 "SMD_solvation_energy": 5.11 
		},
		"coords": [
			{
				"x": -0.7568296656,
				"y": -1.729399407,
				"z": -0.952459242,
				"element": "C" 
			},
			{
				"x": -1.1908976455,
				"y": -1.8234178507,
				"z": 0.5255644035,
				"element": "C" 
			},
			{
				"x": -2.0560752517,
				"y": -3.063052944,
				"z": 0.763987672,
				"element": "C" 
			},
			{
				"x": -1.8341321139,
				"y": -0.5126670719,
				"z": 1.0316764386,
				"element": "C" 
			},
			{
				"x": -0.7030972724,
				"y": 0.3343448064,
				"z": 1.4985714273,
				"element": "N" 
			},
			{
				"x": 0.3384235108,
				"y": -0.5786409619,
				"z": 1.8042173514,
				"element": "N" 
			},
			{
				"x": 0.067414816,
				"y": -1.874261767,
				"z": 1.4151248907,
				"element": "C" 
			},
			{
				"x": 0.7111088699,
				"y": -2.8537827651,
				"z": 1.7422474367,
				"element": "O" 
			},
			{
				"x": -0.3114363706,
				"y": 1.4444894998,
				"z": 0.6972541919,
				"element": "C" 
			},
			{
				"x": 1.0194645473,
				"y": 1.6632065517,
				"z": 0.3121902098,
				"element": "C" 
			},
			{
				"x": 1.3582638363,
				"y": 2.8033841931,
				"z": -0.4185862545,
				"element": "C" 
			},
			{
				"x": 0.3886344981,
				"y": 3.7389307021,
				"z": -0.7780256386,
				"element": "C" 
			},
			{
				"x": -0.9353777803,
				"y": 3.5265239542,
				"z": -0.3850418579,
				"element": "C" 
			},
			{
				"x": -1.2850413785,
				"y": 2.3993832852,
				"z": 0.3535886737,
				"element": "C" 
			},
			{
				"x": -0.1552654665,
				"y": -0.8357784844,
				"z": -1.1419723519,
				"element": "H" 
			},
			{
				"x": -0.1632627113,
				"y": -2.6058869755,
				"z": -1.2296643644,
				"element": "H" 
			},
			{
				"x": -1.6372819298,
				"y": -1.6922647352,
				"z": -1.6031832038,
				"element": "H" 
			},
			{
				"x": -2.397413529,
				"y": -3.1197871004,
				"z": 1.8026003779,
				"element": "H" 
			},
			{
				"x": -1.477211571,
				"y": -3.9666048461,
				"z": 0.5551841926,
				"element": "H" 
			},
			{
				"x": -2.9366897233,
				"y": -3.0538418064,
				"z": 0.1130009438,
				"element": "H" 
			},
			{
				"x": -2.3996117944,
				"y": 0.015836319,
				"z": 0.2629617845,
				"element": "H" 
			},
			{
				"x": -2.4990973812,
				"y": -0.7157591887,
				"z": 1.8799628148,
				"element": "H" 
			},
			{
				"x": 0.8469044211,
				"y": -0.4132768789,
				"z": 2.664423564,
				"element": "H" 
			},
			{
				"x": 1.7788675013,
				"y": 0.9369484821,
				"z": 0.5768457672,
				"element": "H" 
			},
			{
				"x": 2.3936268163,
				"y": 2.952653268,
				"z": -0.7126396526,
				"element": "H" 
			},
			{
				"x": 0.6591074835,
				"y": 4.623058735,
				"z": -1.3468163396,
				"element": "H" 
			},
			{
				"x": -1.7033662149,
				"y": 4.250342911,
				"z": -0.6434080291,
				"element": "H" 
			},
			{
				"x": -2.3104285007,
				"y": 2.2662200756,
				"z": 0.684794794,
				"element": "H" 
			}
		],
		 "valence_orbital": [ 
			{
				"type": "occ",
				"energy": -0.31418,
				"method": "rhf"
			},
			{
				"type": "occ",
				"energy": -0.26385,
				"method": "rhf"
			},
			{
				"type": "occ",
				"energy": -0.25354,
				"method": "rhf"
			},
			{
				"type": "occ",
				"energy": -0.24969,
				"method": "rhf"
			},
			{
				"type": "occ",
				"energy": -0.20288,
				"method": "rhf"
			},
			{
				"type": "unocc",
				"energy": -0.00386,
				"method": "rhf"
			},
			{
				"type": "unocc",
				"energy": 0.00514,
				"method": "rhf"
			},
			{
				"type": "unocc",
				"energy": 0.01486,
				"method": "rhf"
			},
			{
				"type": "unocc",
				"energy": 0.07752,
				"method": "rhf"
			},
			{
				"type": "unocc",
				"energy": 0.09434,
				"method": "rhf"
			}
		],
		"cosmo_sigma_profile": { 
			"-0.025": 0.0,
			"-0.024": 0.0,
			"-0.023": 0.0,
			"-0.022": 0.0,
			"-0.021": 0.0,
			"-0.02": 0.0,
			"-0.019": 0.0,
			"-0.018": 0.0,
			"-0.017": 0.0,
			"-0.016": 0.0290817250375,
			"-0.015": 0.916642690817,
			"-0.014": 1.31452473634,
			"-0.013": 0.802164164691,
			"-0.012": 0.624971569327,
			"-0.011": 1.15077360426,
			"-0.01": 0.984988395607,
			"-0.009": 0.731972595403,
			"-0.008": 0.950020557343,
			"-0.007": 1.05975382633,
			"-0.006": 6.26231160914,
			"-0.005": 16.2703202429,
			"-0.004": 24.6833557254,
			"-0.003": 26.9073116557,
			"-0.002": 22.1691536975,
			"-0.001": 21.9011013775,
			"0.0": 23.1114684253,
			"0.001": 15.4186916299,
			"0.002": 8.63804171278,
			"0.003": 8.65837892217,
			"0.004": 9.39613302717,
			"0.005": 10.2408451512,
			"0.006": 10.8639778776,
			"0.007": 4.47538697125,
			"0.008": 2.09045796268,
			"0.009": 2.47971537123,
			"0.01": 1.80524178432,
			"0.011": 1.89143125364,
			"0.012": 3.1237596784,
			"0.013": 5.93049152711,
			"0.014": 1.58277049992,
			"0.015": 0.0,
			"0.016": 0.0,
			"0.017": 0.0,
			"0.018": 0.0,
			"0.019": 0.0,
			"0.02": 0.0,
			"0.021": 0.0,
			"0.022": 0.0,
			"0.023": 0.0,
			"0.024": 0.0,
			"0.025": 0.0
		}
	}
}
