{
	 "smiles": "NC1=C(Br)C=C(C=C1)C#N", 
	 "Tm": 381.15, 
	 "num_atms": 15, 
	 "gaussian": { 
		 "optdone": 1, 
		 "sigma_profile": "yes", 
		 "theory": "DFT", 
		 "functional": "B3LYP", 
		 "basiset": "6-31G**", 
		 "properties": { 
			 "R2extent": 3850.568, 
			 "electric_dipole_moment_norm": 6.17305088105, 
			 "electric_quadrupole_moment_norm": 8.23891101299, 
			 "total_energy": -2950.65481249, 
			 "HOMO_LUMO_gap": 0.18695, 
			 "cosmo_polarized_energy": -13.21, 
			 "cosmo_cavitation_energy": 22.66, 
			 "cosmo_dispersion_energy": -16.79, 
			 "cosmo_repulsion_energy": 1.36, 
			 "cosmo_total_nonelectrostatic_energy": 7.23, 
			 "SMD_solvation_energy": 4.2 
		},
		"coords": [
			{
				"x": 3.0870867116,
				"y": 0.6969071952,
				"z": -1.2460930614,
				"element": "N" 
			},
			{
				"x": 1.7736362412,
				"y": 0.3200779046,
				"z": -1.1297186925,
				"element": "C" 
			},
			{
				"x": 1.1354247488,
				"y": -0.4885921748,
				"z": -2.0968880555,
				"element": "C" 
			},
			{
				"x": 2.1084428907,
				"y": -1.0224425074,
				"z": -3.6573271352,
				"element": "Br" 
			},
			{
				"x": -0.1781411276,
				"y": -0.9048642286,
				"z": -1.9535169888,
				"element": "C" 
			},
			{
				"x": -0.9179904585,
				"y": -0.5209228211,
				"z": -0.8227006809,
				"element": "C" 
			},
			{
				"x": -0.3039143963,
				"y": 0.2875393718,
				"z": 0.1512575666,
				"element": "C" 
			},
			{
				"x": 1.0092562908,
				"y": 0.696219679,
				"z": -0.0032144779,
				"element": "C" 
			},
			{
				"x": -2.2746313874,
				"y": -0.9461651218,
				"z": -0.6711457002,
				"element": "C" 
			},
			{
				"x": -3.379701157,
				"y": -1.2899400227,
				"z": -0.5448353936,
				"element": "N" 
			},
			{
				"x": 3.5239691795,
				"y": 0.5997997006,
				"z": -2.1507036584,
				"element": "H" 
			},
			{
				"x": 3.4070944162,
				"y": 1.4684334682,
				"z": -0.6821467425,
				"element": "H" 
			},
			{
				"x": -0.63434733,
				"y": -1.5235052318,
				"z": -2.7170094839,
				"element": "H" 
			},
			{
				"x": -0.8666977253,
				"y": 0.5914327572,
				"z": 1.0272742395,
				"element": "H" 
			},
			{
				"x": 1.4746131034,
				"y": 1.3163220318,
				"z": 0.7578682647,
				"element": "H" 
			}
		],
		 "valence_orbital": [ 
			{
				"type": "occ",
				"energy": -0.32542,
				"method": "rhf"
			},
			{
				"type": "occ",
				"energy": -0.31273,
				"method": "rhf"
			},
			{
				"type": "occ",
				"energy": -0.3081,
				"method": "rhf"
			},
			{
				"type": "occ",
				"energy": -0.26664,
				"method": "rhf"
			},
			{
				"type": "occ",
				"energy": -0.22713,
				"method": "rhf"
			},
			{
				"type": "unocc",
				"energy": -0.04018,
				"method": "rhf"
			},
			{
				"type": "unocc",
				"energy": -0.02956,
				"method": "rhf"
			},
			{
				"type": "unocc",
				"energy": -0.01015,
				"method": "rhf"
			},
			{
				"type": "unocc",
				"energy": 0.04194,
				"method": "rhf"
			},
			{
				"type": "unocc",
				"energy": 0.06448,
				"method": "rhf"
			}
		],
		"cosmo_sigma_profile": { 
			"-0.025": 0.0,
			"-0.024": 0.0,
			"-0.023": 0.0,
			"-0.022": 0.0,
			"-0.021": 0.0,
			"-0.02": 0.0,
			"-0.019": 0.0,
			"-0.018": 0.0,
			"-0.017": 0.0,
			"-0.016": 0.0,
			"-0.015": 0.119877375533,
			"-0.014": 1.63532302283,
			"-0.013": 1.55516878181,
			"-0.012": 2.56550411018,
			"-0.011": 2.57605717391,
			"-0.01": 2.87068130155,
			"-0.009": 2.32091112009,
			"-0.008": 6.02988132904,
			"-0.007": 7.42436727964,
			"-0.006": 8.16251744717,
			"-0.005": 6.69690420424,
			"-0.004": 7.09221946355,
			"-0.003": 8.25757728185,
			"-0.002": 9.49289870406,
			"-0.001": 10.4113125428,
			"0.0": 14.3765270492,
			"0.001": 18.5948342094,
			"0.002": 21.5224324258,
			"0.003": 13.2665913574,
			"0.004": 10.9959702207,
			"0.005": 3.4674577614,
			"0.006": 3.16340526539,
			"0.007": 3.2957505532,
			"0.008": 3.88902189649,
			"0.009": 3.8800773594,
			"0.01": 3.77687874869,
			"0.011": 3.11495439873,
			"0.012": 2.70429331155,
			"0.013": 2.35783994462,
			"0.014": 0.56233460277,
			"0.015": 0.0,
			"0.016": 0.0,
			"0.017": 0.0,
			"0.018": 0.0,
			"0.019": 0.0,
			"0.02": 0.0,
			"0.021": 0.0,
			"0.022": 0.0,
			"0.023": 0.0,
			"0.024": 0.0,
			"0.025": 0.0
		}
	}
}
