{
	 "smiles": "C[Si](CN1C=NC=N1)(C1=CC=C(F)C=C1)C1=CC=C(F)C=C1", 
	 "Tm": 327.15, 
	 "num_atms": 37, 
	 "gaussian": { 
		 "optdone": 1, 
		 "sigma_profile": "yes", 
		 "theory": "DFT", 
		 "functional": "B3LYP", 
		 "basiset": "6-31G**", 
		 "properties": { 
			 "R2extent": 7850.8331, 
			 "electric_dipole_moment_norm": 3.68685056654, 
			 "electric_quadrupole_moment_norm": 17.3029101682, 
			 "total_energy": -1272.1764398, 
			 "HOMO_LUMO_gap": 0.22083, 
			 "cosmo_polarized_energy": -13.66, 
			 "cosmo_cavitation_energy": 43.58, 
			 "cosmo_dispersion_energy": -27.13, 
			 "cosmo_repulsion_energy": 2.1, 
			 "cosmo_total_nonelectrostatic_energy": 18.55, 
			 "SMD_solvation_energy": 7.88 
		},
		"coords": [
			{
				"x": -0.1024156222,
				"y": 3.0190602825,
				"z": -0.0062516565,
				"element": "C" 
			},
			{
				"x": -0.25797923,
				"y": 1.2029340321,
				"z": 0.5015836959,
				"element": "Si" 
			},
			{
				"x": 0.0441907184,
				"y": 1.2101306338,
				"z": 2.4127263449,
				"element": "C" 
			},
			{
				"x": 0.5556508275,
				"y": -0.0237274524,
				"z": 2.9973386459,
				"element": "N" 
			},
			{
				"x": 1.7225532224,
				"y": -0.2484571964,
				"z": 3.6398115659,
				"element": "C" 
			},
			{
				"x": 1.8147689586,
				"y": -1.5146772367,
				"z": 4.0192249542,
				"element": "N" 
			},
			{
				"x": 0.6449712067,
				"y": -2.0375246216,
				"z": 3.5700497257,
				"element": "C" 
			},
			{
				"x": -0.1528035815,
				"y": -1.1803044326,
				"z": 2.9424696404,
				"element": "N" 
			},
			{
				"x": 1.0774000713,
				"y": 0.1710437441,
				"z": -0.339237161,
				"element": "C" 
			},
			{
				"x": 0.9841288376,
				"y": -1.2342722751,
				"z": -0.3904980128,
				"element": "C" 
			},
			{
				"x": 1.9678755228,
				"y": -2.0109146346,
				"z": -1.0000928563,
				"element": "C" 
			},
			{
				"x": 3.0613557644,
				"y": -1.3705363725,
				"z": -1.5729238816,
				"element": "C" 
			},
			{
				"x": 4.0159332049,
				"y": -2.1132279616,
				"z": -2.1685287043,
				"element": "F" 
			},
			{
				"x": 3.1982590961,
				"y": 0.0121546742,
				"z": -1.5538165405,
				"element": "C" 
			},
			{
				"x": 2.2028730635,
				"y": 0.7702611213,
				"z": -0.9360833978,
				"element": "C" 
			},
			{
				"x": -1.9915931889,
				"y": 0.5830322762,
				"z": 0.0932818869,
				"element": "C" 
			},
			{
				"x": -2.6592111683,
				"y": -0.3891887955,
				"z": 0.8649268144,
				"element": "C" 
			},
			{
				"x": -3.9389986645,
				"y": -0.8325636706,
				"z": 0.5280561515,
				"element": "C" 
			},
			{
				"x": -4.5589729495,
				"y": -0.2974356678,
				"z": -0.5943830708,
				"element": "C" 
			},
			{
				"x": -5.7967514499,
				"y": -0.7197921586,
				"z": -0.9245684622,
				"element": "F" 
			},
			{
				"x": -3.9420357963,
				"y": 0.6629343146,
				"z": -1.3879009924,
				"element": "C" 
			},
			{
				"x": -2.6639889526,
				"y": 1.0944625335,
				"z": -1.0348557353,
				"element": "C" 
			},
			{
				"x": -0.8686853354,
				"y": 3.6249442569,
				"z": 0.4891719292,
				"element": "H" 
			},
			{
				"x": -0.2219726578,
				"y": 3.1552950399,
				"z": -1.0857690737,
				"element": "H" 
			},
			{
				"x": 0.8739410626,
				"y": 3.4323279157,
				"z": 0.2693199444,
				"element": "H" 
			},
			{
				"x": -0.8741853745,
				"y": 1.4946399427,
				"z": 2.9395202567,
				"element": "H" 
			},
			{
				"x": 0.7862882659,
				"y": 1.9866410713,
				"z": 2.6256326133,
				"element": "H" 
			},
			{
				"x": 2.458483672,
				"y": 0.5260659226,
				"z": 3.8064957661,
				"element": "H" 
			},
			{
				"x": 0.3662229868,
				"y": -3.0736361864,
				"z": 3.7055846446,
				"element": "H" 
			},
			{
				"x": 0.129996189,
				"y": -1.7351101689,
				"z": 0.0555029169,
				"element": "H" 
			},
			{
				"x": 1.899347842,
				"y": -3.0927995568,
				"z": -1.0393434037,
				"element": "H" 
			},
			{
				"x": 4.0649437041,
				"y": 0.4722458739,
				"z": -2.0164394206,
				"element": "H" 
			},
			{
				"x": 2.3130873842,
				"y": 1.8513295364,
				"z": -0.9296858283,
				"element": "H" 
			},
			{
				"x": -2.168777912,
				"y": -0.8145864077,
				"z": 1.7360149731,
				"element": "H" 
			},
			{
				"x": -4.4561263873,
				"y": -1.5804683928,
				"z": 1.1200536384,
				"element": "H" 
			},
			{
				"x": -4.4604682041,
				"y": 1.0568445251,
				"z": -2.2556141536,
				"element": "H" 
			},
			{
				"x": -2.189605126,
				"y": 1.8476754919,
				"z": -1.6584737571,
				"element": "H" 
			}
		],
		 "valence_orbital": [ 
			{
				"type": "occ",
				"energy": -0.26354,
				"method": "rhf"
			},
			{
				"type": "occ",
				"energy": -0.2618,
				"method": "rhf"
			},
			{
				"type": "occ",
				"energy": -0.25995,
				"method": "rhf"
			},
			{
				"type": "occ",
				"energy": -0.24976,
				"method": "rhf"
			},
			{
				"type": "occ",
				"energy": -0.24271,
				"method": "rhf"
			},
			{
				"type": "unocc",
				"energy": -0.02188,
				"method": "rhf"
			},
			{
				"type": "unocc",
				"energy": -0.01513,
				"method": "rhf"
			},
			{
				"type": "unocc",
				"energy": -0.01266,
				"method": "rhf"
			},
			{
				"type": "unocc",
				"energy": -0.00772,
				"method": "rhf"
			},
			{
				"type": "unocc",
				"energy": 0.00569,
				"method": "rhf"
			}
		],
		"cosmo_sigma_profile": { 
			"-0.025": 0.0,
			"-0.024": 0.0,
			"-0.023": 0.0,
			"-0.022": 0.0,
			"-0.021": 0.0,
			"-0.02": 0.0,
			"-0.019": 0.0,
			"-0.018": 0.0,
			"-0.017": 0.0,
			"-0.016": 0.0,
			"-0.015": 0.0,
			"-0.014": 0.0,
			"-0.013": 0.0,
			"-0.012": 0.0,
			"-0.011": 0.112464447155,
			"-0.01": 2.8902653409,
			"-0.009": 3.39510023772,
			"-0.008": 4.08073788439,
			"-0.007": 11.0061591004,
			"-0.006": 17.8032393003,
			"-0.005": 23.3660308048,
			"-0.004": 25.4680504349,
			"-0.003": 20.803011812,
			"-0.002": 19.6782198093,
			"-0.001": 20.9201357573,
			"0.0": 25.4020557597,
			"0.001": 32.8601501327,
			"0.002": 32.0743996242,
			"0.003": 31.0128459278,
			"0.004": 41.5534881762,
			"0.005": 15.3513774209,
			"0.006": 3.00411043362,
			"0.007": 2.8154133399,
			"0.008": 2.62852018715,
			"0.009": 1.13202011418,
			"0.01": 1.64345233367,
			"0.011": 1.1194623223,
			"0.012": 1.35611526666,
			"0.013": 0.84678288332,
			"0.014": 1.10081901791,
			"0.015": 1.11716285828,
			"0.016": 1.14835814482,
			"0.017": 0.540888633308,
			"0.018": 0.00595244913329,
			"0.019": 0.0,
			"0.02": 0.0,
			"0.021": 0.0,
			"0.022": 0.0,
			"0.023": 0.0,
			"0.024": 0.0,
			"0.025": 0.0
		}
	}
}
