{
	 "smiles": "[O-][N+](=O)C1=CN=C(CC#N)C=C1", 
	 "Tm": 336.15, 
	 "num_atms": 17, 
	 "gaussian": { 
		 "optdone": 1, 
		 "sigma_profile": "yes", 
		 "theory": "DFT", 
		 "functional": "B3LYP", 
		 "basiset": "6-31G**", 
		 "properties": { 
			 "R2extent": 2865.8589, 
			 "electric_dipole_moment_norm": 1.85595168849, 
			 "electric_quadrupole_moment_norm": 24.8083175109, 
			 "total_energy": -584.332850728, 
			 "HOMO_LUMO_gap": 0.18671, 
			 "cosmo_polarized_energy": -13.75, 
			 "cosmo_cavitation_energy": 23.74, 
			 "cosmo_dispersion_energy": -16.91, 
			 "cosmo_repulsion_energy": 1.34, 
			 "cosmo_total_nonelectrostatic_energy": 8.17, 
			 "SMD_solvation_energy": 6.42 
		},
		"coords": [
			{
				"x": 0.7610967142,
				"y": -0.2471689235,
				"z": 3.0034478375,
				"element": "O" 
			},
			{
				"x": 0.0106094074,
				"y": 0.112047655,
				"z": 2.0982417036,
				"element": "N" 
			},
			{
				"x": -1.1635328229,
				"y": 0.4479624807,
				"z": 2.2404609688,
				"element": "O" 
			},
			{
				"x": 0.5611047704,
				"y": 0.1422548315,
				"z": 0.7373737433,
				"element": "C" 
			},
			{
				"x": 1.8885363726,
				"y": -0.229841344,
				"z": 0.518734655,
				"element": "C" 
			},
			{
				"x": 2.4314624609,
				"y": -0.2184166789,
				"z": -0.6983517154,
				"element": "N" 
			},
			{
				"x": 1.6662068468,
				"y": 0.1645300769,
				"z": -1.7327347842,
				"element": "C" 
			},
			{
				"x": 2.3914113163,
				"y": 0.1384387187,
				"z": -3.07182911,
				"element": "C" 
			},
			{
				"x": 1.5808560728,
				"y": 0.5515986632,
				"z": -4.2173543368,
				"element": "C" 
			},
			{
				"x": 0.9266132325,
				"y": 0.8818816892,
				"z": -5.1168302113,
				"element": "N" 
			},
			{
				"x": 0.3286135947,
				"y": 0.551700808,
				"z": -1.5955668061,
				"element": "C" 
			},
			{
				"x": -0.2410029841,
				"y": 0.5406608044,
				"z": -0.3258430101,
				"element": "C" 
			},
			{
				"x": 2.5120183615,
				"y": -0.5402690973,
				"z": 1.3508233396,
				"element": "H" 
			},
			{
				"x": 3.2752988208,
				"y": 0.7839309899,
				"z": -3.0056420706,
				"element": "H" 
			},
			{
				"x": 2.770381387,
				"y": -0.8754954153,
				"z": -3.2465921046,
				"element": "H" 
			},
			{
				"x": -0.2504091418,
				"y": 0.8535355733,
				"z": -2.4611372428,
				"element": "H" 
			},
			{
				"x": -1.2704644093,
				"y": 0.828249168,
				"z": -0.1493008558,
				"element": "H" 
			}
		],
		 "valence_orbital": [ 
			{
				"type": "occ",
				"energy": -0.32799,
				"method": "rhf"
			},
			{
				"type": "occ",
				"energy": -0.32333,
				"method": "rhf"
			},
			{
				"type": "occ",
				"energy": -0.30921,
				"method": "rhf"
			},
			{
				"type": "occ",
				"energy": -0.30239,
				"method": "rhf"
			},
			{
				"type": "occ",
				"energy": -0.29549,
				"method": "rhf"
			},
			{
				"type": "unocc",
				"energy": -0.10878,
				"method": "rhf"
			},
			{
				"type": "unocc",
				"energy": -0.06436,
				"method": "rhf"
			},
			{
				"type": "unocc",
				"energy": -0.02466,
				"method": "rhf"
			},
			{
				"type": "unocc",
				"energy": 0.0124,
				"method": "rhf"
			},
			{
				"type": "unocc",
				"energy": 0.02186,
				"method": "rhf"
			}
		],
		"cosmo_sigma_profile": { 
			"-0.025": 0.0,
			"-0.024": 0.0,
			"-0.023": 0.0,
			"-0.022": 0.0,
			"-0.021": 0.0,
			"-0.02": 0.0,
			"-0.019": 0.0,
			"-0.018": 0.0,
			"-0.017": 0.0,
			"-0.016": 0.0,
			"-0.015": 0.0,
			"-0.014": 0.0,
			"-0.013": 0.0,
			"-0.012": 0.0,
			"-0.011": 0.0683808941548,
			"-0.01": 4.08159826586,
			"-0.009": 7.16153440507,
			"-0.008": 9.01835271479,
			"-0.007": 11.0085410265,
			"-0.006": 9.95971489304,
			"-0.005": 10.6562480729,
			"-0.004": 13.0844199843,
			"-0.003": 15.2840023828,
			"-0.002": 15.3511709233,
			"-0.001": 10.6530422021,
			"0.0": 7.43785869988,
			"0.001": 5.68532895258,
			"0.002": 4.91252571196,
			"0.003": 6.11893642283,
			"0.004": 5.1894045875,
			"0.005": 6.68103308212,
			"0.006": 8.30479918083,
			"0.007": 12.3918067496,
			"0.008": 9.80208521294,
			"0.009": 7.14740106462,
			"0.01": 4.51672929521,
			"0.011": 3.02103526344,
			"0.012": 3.22410498653,
			"0.013": 1.47872903284,
			"0.014": 0.0969932613133,
			"0.015": 0.0,
			"0.016": 0.0,
			"0.017": 0.0,
			"0.018": 0.0,
			"0.019": 0.0,
			"0.02": 0.0,
			"0.021": 0.0,
			"0.022": 0.0,
			"0.023": 0.0,
			"0.024": 0.0,
			"0.025": 0.0
		}
	}
}
