{
	 "smiles": "OC(=O)C1=C(Cl)C(=NN1)C1CC1", 
	 "Tm": 505.15, 
	 "num_atms": 19, 
	 "gaussian": { 
		 "optdone": 1, 
		 "sigma_profile": "yes", 
		 "theory": "DFT", 
		 "functional": "B3LYP", 
		 "basiset": "6-31G**", 
		 "properties": { 
			 "R2extent": 3431.0989, 
			 "electric_dipole_moment_norm": 3.21803108282, 
			 "electric_quadrupole_moment_norm": 10.9671082415, 
			 "total_energy": -991.066222998, 
			 "HOMO_LUMO_gap": 0.19616, 
			 "cosmo_polarized_energy": -11.73, 
			 "cosmo_cavitation_energy": 25.29, 
			 "cosmo_dispersion_energy": -18.92, 
			 "cosmo_repulsion_energy": 1.52, 
			 "cosmo_total_nonelectrostatic_energy": 7.88, 
			 "SMD_solvation_energy": 4.11 
		},
		"coords": [
			{
				"x": -2.6732844276,
				"y": -1.3528973017,
				"z": -2.0938589493,
				"element": "O" 
			},
			{
				"x": -2.9018012264,
				"y": -0.059876347,
				"z": -1.7989142026,
				"element": "C" 
			},
			{
				"x": -3.6559113283,
				"y": 0.6199580651,
				"z": -2.4615246233,
				"element": "O" 
			},
			{
				"x": -2.1964327044,
				"y": 0.5081690165,
				"z": -0.6300993729,
				"element": "C" 
			},
			{
				"x": -1.2935305711,
				"y": 0.0569036525,
				"z": 0.3293437085,
				"element": "C" 
			},
			{
				"x": -0.6334517991,
				"y": -1.5471553397,
				"z": 0.4497000998,
				"element": "Cl" 
			},
			{
				"x": -1.0228323468,
				"y": 1.1542521019,
				"z": 1.1784021421,
				"element": "C" 
			},
			{
				"x": -1.7224761263,
				"y": 2.2207650058,
				"z": 0.7622506497,
				"element": "N" 
			},
			{
				"x": -2.4079352169,
				"y": 1.8094060608,
				"z": -0.3096004058,
				"element": "N" 
			},
			{
				"x": -0.1306165039,
				"y": 1.2075289392,
				"z": 2.3537937257,
				"element": "C" 
			},
			{
				"x": -0.4994914831,
				"y": 2.0716088527,
				"z": 3.5465302909,
				"element": "C" 
			},
			{
				"x": 0.6412415134,
				"y": 2.4781142793,
				"z": 2.6622789444,
				"element": "C" 
			},
			{
				"x": -2.0464651491,
				"y": -1.751962449,
				"z": -1.4673468851,
				"element": "H" 
			},
			{
				"x": -3.0219794449,
				"y": 2.43147468,
				"z": -0.817598762,
				"element": "H" 
			},
			{
				"x": 0.3690222745,
				"y": 0.2677277048,
				"z": 2.566348383,
				"element": "H" 
			},
			{
				"x": -1.4236319973,
				"y": 2.6350205789,
				"z": 3.4677079566,
				"element": "H" 
			},
			{
				"x": -0.2820974568,
				"y": 1.6801894372,
				"z": 4.5355832378,
				"element": "H" 
			},
			{
				"x": 1.6558366286,
				"y": 2.3707796249,
				"z": 3.0334170141,
				"element": "H" 
			},
			{
				"x": 0.4837373656,
				"y": 3.3146934379,
				"z": 1.9891870482,
				"element": "H" 
			}
		],
		 "valence_orbital": [ 
			{
				"type": "occ",
				"energy": -0.31954,
				"method": "rhf"
			},
			{
				"type": "occ",
				"energy": -0.30593,
				"method": "rhf"
			},
			{
				"type": "occ",
				"energy": -0.29256,
				"method": "rhf"
			},
			{
				"type": "occ",
				"energy": -0.26953,
				"method": "rhf"
			},
			{
				"type": "occ",
				"energy": -0.25297,
				"method": "rhf"
			},
			{
				"type": "unocc",
				"energy": -0.05681,
				"method": "rhf"
			},
			{
				"type": "unocc",
				"energy": 0.01134,
				"method": "rhf"
			},
			{
				"type": "unocc",
				"energy": 0.01898,
				"method": "rhf"
			},
			{
				"type": "unocc",
				"energy": 0.07658,
				"method": "rhf"
			},
			{
				"type": "unocc",
				"energy": 0.08913,
				"method": "rhf"
			}
		],
		"cosmo_sigma_profile": { 
			"-0.025": 0.0,
			"-0.024": 0.0,
			"-0.023": 0.0,
			"-0.022": 0.0,
			"-0.021": 0.0,
			"-0.02": 0.0,
			"-0.019": 0.0,
			"-0.018": 0.00344292930002,
			"-0.017": 0.641411953979,
			"-0.016": 0.970037054039,
			"-0.015": 0.971235130285,
			"-0.014": 0.461453922765,
			"-0.013": 1.23579236419,
			"-0.012": 2.17677799672,
			"-0.011": 2.61383452564,
			"-0.01": 2.3064477891,
			"-0.009": 2.36506511772,
			"-0.008": 2.63427967622,
			"-0.007": 2.15706972363,
			"-0.006": 3.79817511816,
			"-0.005": 10.1683475932,
			"-0.004": 13.8667246845,
			"-0.003": 16.8267833131,
			"-0.002": 14.8784665812,
			"-0.001": 16.3734803768,
			"0.0": 20.7946363779,
			"0.001": 16.6470093808,
			"0.002": 16.2370299383,
			"0.003": 13.9364140345,
			"0.004": 7.15332899232,
			"0.005": 3.56520497714,
			"0.006": 4.53739313938,
			"0.007": 4.00738799175,
			"0.008": 3.61093485528,
			"0.009": 5.13546656468,
			"0.01": 5.3575650893,
			"0.011": 5.28023106795,
			"0.012": 2.73699603428,
			"0.013": 0.816765605882,
			"0.014": 0.0,
			"0.015": 0.0,
			"0.016": 0.0,
			"0.017": 0.0,
			"0.018": 0.0,
			"0.019": 0.0,
			"0.02": 0.0,
			"0.021": 0.0,
			"0.022": 0.0,
			"0.023": 0.0,
			"0.024": 0.0,
			"0.025": 0.0
		}
	}
}
