{
	 "smiles": "OC(=O)C=CC1=CC=C(O)C(O)=C1", 
	 "Tm": 498.15, 
	 "num_atms": 21, 
	 "gaussian": { 
		 "optdone": 1, 
		 "sigma_profile": "yes", 
		 "theory": "DFT", 
		 "functional": "B3LYP", 
		 "basiset": "6-31G**", 
		 "properties": { 
			 "R2extent": 4178.0958, 
			 "electric_dipole_moment_norm": 4.20302793828, 
			 "electric_quadrupole_moment_norm": 32.6721540136, 
			 "total_energy": -648.662073716, 
			 "HOMO_LUMO_gap": 0.15224, 
			 "cosmo_polarized_energy": -22.2, 
			 "cosmo_cavitation_energy": 26.59, 
			 "cosmo_dispersion_energy": -19.66, 
			 "cosmo_repulsion_energy": 1.56, 
			 "cosmo_total_nonelectrostatic_energy": 8.48, 
			 "SMD_solvation_energy": 6.53 
		},
		"coords": [
			{
				"x": 3.979579506,
				"y": 2.3163799818,
				"z": 1.8472711435,
				"element": "O" 
			},
			{
				"x": 2.6598528906,
				"y": 2.6201361633,
				"z": 1.678505478,
				"element": "C" 
			},
			{
				"x": 2.2943134724,
				"y": 3.7702213652,
				"z": 1.7868323704,
				"element": "O" 
			},
			{
				"x": 1.7710087933,
				"y": 1.4753586663,
				"z": 1.3684666235,
				"element": "C" 
			},
			{
				"x": 0.452626127,
				"y": 1.6883215488,
				"z": 1.1870037842,
				"element": "C" 
			},
			{
				"x": -0.5900192469,
				"y": 0.7187974195,
				"z": 0.8775976749,
				"element": "C" 
			},
			{
				"x": -0.3512555048,
				"y": -0.6586069577,
				"z": 0.7155594652,
				"element": "C" 
			},
			{
				"x": -1.3875389819,
				"y": -1.5373225244,
				"z": 0.4203572691,
				"element": "C" 
			},
			{
				"x": -2.6931699489,
				"y": -1.0638513194,
				"z": 0.2785179029,
				"element": "C" 
			},
			{
				"x": -3.702428211,
				"y": -1.9225528904,
				"z": -0.0095893443,
				"element": "O" 
			},
			{
				"x": -2.9481620012,
				"y": 0.3111815376,
				"z": 0.4376971608,
				"element": "C" 
			},
			{
				"x": -4.2645728794,
				"y": 0.6734511456,
				"z": 0.2784412586,
				"element": "O" 
			},
			{
				"x": -1.913970887,
				"y": 1.1853451174,
				"z": 0.7319910619,
				"element": "C" 
			},
			{
				"x": 4.1213905146,
				"y": 1.366747994,
				"z": 1.7322518325,
				"element": "H" 
			},
			{
				"x": 2.2041676315,
				"y": 0.4800471516,
				"z": 1.2932859246,
				"element": "H" 
			},
			{
				"x": 0.1321485036,
				"y": 2.7248038842,
				"z": 1.2863515556,
				"element": "H" 
			},
			{
				"x": 0.6547058651,
				"y": -1.0509677489,
				"z": 0.8207043697,
				"element": "H" 
			},
			{
				"x": -1.2079900143,
				"y": -2.5997740428,
				"z": 0.2944619707,
				"element": "H" 
			},
			{
				"x": -4.5215188369,
				"y": -1.4068536494,
				"z": -0.0676456957,
				"element": "H" 
			},
			{
				"x": -4.3641735749,
				"y": 1.6262678792,
				"z": 0.3951563284,
				"element": "H" 
			},
			{
				"x": -2.1232932171,
				"y": 2.2462692784,
				"z": 0.8529818656,
				"element": "H" 
			}
		],
		 "valence_orbital": [ 
			{
				"type": "occ",
				"energy": -0.30846,
				"method": "rhf"
			},
			{
				"type": "occ",
				"energy": -0.28587,
				"method": "rhf"
			},
			{
				"type": "occ",
				"energy": -0.26387,
				"method": "rhf"
			},
			{
				"type": "occ",
				"energy": -0.25417,
				"method": "rhf"
			},
			{
				"type": "occ",
				"energy": -0.21651,
				"method": "rhf"
			},
			{
				"type": "unocc",
				"energy": -0.06427,
				"method": "rhf"
			},
			{
				"type": "unocc",
				"energy": -0.0093,
				"method": "rhf"
			},
			{
				"type": "unocc",
				"energy": 0.02941,
				"method": "rhf"
			},
			{
				"type": "unocc",
				"energy": 0.04113,
				"method": "rhf"
			},
			{
				"type": "unocc",
				"energy": 0.06204,
				"method": "rhf"
			}
		],
		"cosmo_sigma_profile": { 
			"-0.025": 0.0,
			"-0.024": 0.0,
			"-0.023": 0.0,
			"-0.022": 0.0,
			"-0.021": 0.0,
			"-0.02": 0.0,
			"-0.019": 0.475141237396,
			"-0.018": 2.31131741657,
			"-0.017": 2.2043660145,
			"-0.016": 2.02582704386,
			"-0.015": 3.28468062936,
			"-0.014": 3.29284027121,
			"-0.013": 1.55284693803,
			"-0.012": 1.52673888445,
			"-0.011": 2.81589050475,
			"-0.01": 3.60338047569,
			"-0.009": 3.55398886713,
			"-0.008": 5.63847268643,
			"-0.007": 7.2992739342,
			"-0.006": 8.2283403004,
			"-0.005": 8.31034497014,
			"-0.004": 6.51273128967,
			"-0.003": 7.04216778547,
			"-0.002": 8.41033724888,
			"-0.001": 9.69306738171,
			"0.0": 9.60930478989,
			"0.001": 12.1047850404,
			"0.002": 17.9209758034,
			"0.003": 21.4334297237,
			"0.004": 15.3474898483,
			"0.005": 5.9481980623,
			"0.006": 6.12236220046,
			"0.007": 5.0764982181,
			"0.008": 3.50718802129,
			"0.009": 4.25693228149,
			"0.01": 5.36304326849,
			"0.011": 6.40463755772,
			"0.012": 5.72588369395,
			"0.013": 4.33519777401,
			"0.014": 1.17800545264,
			"0.015": 0.0,
			"0.016": 0.0,
			"0.017": 0.0,
			"0.018": 0.0,
			"0.019": 0.0,
			"0.02": 0.0,
			"0.021": 0.0,
			"0.022": 0.0,
			"0.023": 0.0,
			"0.024": 0.0,
			"0.025": 0.0
		}
	}
}
