{
	 "smiles": "CCOC1=C(NCC2=CC=CC=C2)C(=O)C1=O", 
	 "Tm": 343.15, 
	 "num_atms": 30, 
	 "gaussian": { 
		 "optdone": 1, 
		 "sigma_profile": "yes", 
		 "theory": "DFT", 
		 "functional": "B3LYP", 
		 "basiset": "6-31G**", 
		 "properties": { 
			 "R2extent": 4987.9551, 
			 "electric_dipole_moment_norm": 6.41490826591, 
			 "electric_quadrupole_moment_norm": 29.1791953054, 
			 "total_energy": -783.59380191, 
			 "HOMO_LUMO_gap": 0.18693, 
			 "cosmo_polarized_energy": -18.03, 
			 "cosmo_cavitation_energy": 35.14, 
			 "cosmo_dispersion_energy": -23.97, 
			 "cosmo_repulsion_energy": 1.89, 
			 "cosmo_total_nonelectrostatic_energy": 13.07, 
			 "SMD_solvation_energy": 7.09 
		},
		"coords": [
			{
				"x": -0.3382661093,
				"y": 0.5013861575,
				"z": -3.8461962624,
				"element": "C" 
			},
			{
				"x": -1.5365667402,
				"y": 0.8417872294,
				"z": -2.9771016445,
				"element": "C" 
			},
			{
				"x": -1.3381992392,
				"y": 0.439530676,
				"z": -1.5896120672,
				"element": "O" 
			},
			{
				"x": -1.5372249631,
				"y": -0.8494159012,
				"z": -1.3112204911,
				"element": "C" 
			},
			{
				"x": -1.4661753582,
				"y": -1.5297501107,
				"z": -0.0981990403,
				"element": "C" 
			},
			{
				"x": -1.2317717536,
				"y": -1.2416623298,
				"z": 1.1862921719,
				"element": "N" 
			},
			{
				"x": -0.7503177395,
				"y": 0.0552230009,
				"z": 1.6799100048,
				"element": "C" 
			},
			{
				"x": 0.7594426158,
				"y": 0.129634411,
				"z": 1.8107513356,
				"element": "C" 
			},
			{
				"x": 1.5529086113,
				"y": 0.4234480102,
				"z": 0.6934615366,
				"element": "C" 
			},
			{
				"x": 2.9427260339,
				"y": 0.4573069079,
				"z": 0.8033376885,
				"element": "C" 
			},
			{
				"x": 3.5558238449,
				"y": 0.1998349626,
				"z": 2.032133703,
				"element": "C" 
			},
			{
				"x": 2.7730459715,
				"y": -0.0879045178,
				"z": 3.1510772145,
				"element": "C" 
			},
			{
				"x": 1.3817894675,
				"y": -0.1211901096,
				"z": 3.0390910817,
				"element": "C" 
			},
			{
				"x": -1.8090824604,
				"y": -2.8293966819,
				"z": -0.7499348243,
				"element": "C" 
			},
			{
				"x": -1.9391445793,
				"y": -3.9594340386,
				"z": -0.3360454293,
				"element": "O" 
			},
			{
				"x": -1.8847262339,
				"y": -2.061574154,
				"z": -2.0919557166,
				"element": "C" 
			},
			{
				"x": -2.1070067449,
				"y": -2.3123967663,
				"z": -3.2596964555,
				"element": "O" 
			},
			{
				"x": 0.5807940561,
				"y": 0.9283980205,
				"z": -3.4336750461,
				"element": "H" 
			},
			{
				"x": -0.2290761906,
				"y": -0.5810190886,
				"z": -3.9456825948,
				"element": "H" 
			},
			{
				"x": -0.4892134799,
				"y": 0.9162899857,
				"z": -4.8484520541,
				"element": "H" 
			},
			{
				"x": -1.6963146516,
				"y": 1.9204197233,
				"z": -2.9146076773,
				"element": "H" 
			},
			{
				"x": -2.445066108,
				"y": 0.3653297051,
				"z": -3.3541177667,
				"element": "H" 
			},
			{
				"x": -1.1462203331,
				"y": -2.0413916068,
				"z": 1.801750748,
				"element": "H" 
			},
			{
				"x": -1.1146184858,
				"y": 0.8156961403,
				"z": 0.9851971504,
				"element": "H" 
			},
			{
				"x": -1.2234779127,
				"y": 0.239630433,
				"z": 2.6499800888,
				"element": "H" 
			},
			{
				"x": 1.0745597246,
				"y": 0.6305313957,
				"z": -0.2605082884,
				"element": "H" 
			},
			{
				"x": 3.5482196322,
				"y": 0.6890739866,
				"z": -0.0682457524,
				"element": "H" 
			},
			{
				"x": 4.6382090312,
				"y": 0.2283103206,
				"z": 2.1173392284,
				"element": "H" 
			},
			{
				"x": 3.243504836,
				"y": -0.2822621752,
				"z": 4.1106104748,
				"element": "H" 
			},
			{
				"x": 0.7747452583,
				"y": -0.3383335855,
				"z": 3.915418684,
				"element": "H" 
			}
		],
		 "valence_orbital": [ 
			{
				"type": "occ",
				"energy": -0.29211,
				"method": "rhf"
			},
			{
				"type": "occ",
				"energy": -0.26274,
				"method": "rhf"
			},
			{
				"type": "occ",
				"energy": -0.26076,
				"method": "rhf"
			},
			{
				"type": "occ",
				"energy": -0.22055,
				"method": "rhf"
			},
			{
				"type": "occ",
				"energy": -0.21766,
				"method": "rhf"
			},
			{
				"type": "unocc",
				"energy": -0.03073,
				"method": "rhf"
			},
			{
				"type": "unocc",
				"energy": -0.02772,
				"method": "rhf"
			},
			{
				"type": "unocc",
				"energy": -0.01393,
				"method": "rhf"
			},
			{
				"type": "unocc",
				"energy": -0.01255,
				"method": "rhf"
			},
			{
				"type": "unocc",
				"energy": 0.06342,
				"method": "rhf"
			}
		],
		"cosmo_sigma_profile": { 
			"-0.025": 0.0,
			"-0.024": 0.0,
			"-0.023": 0.0,
			"-0.022": 0.0,
			"-0.021": 0.0,
			"-0.02": 0.0,
			"-0.019": 0.0,
			"-0.018": 0.0,
			"-0.017": 0.0,
			"-0.016": 0.0,
			"-0.015": 0.660384682168,
			"-0.014": 0.94664614534,
			"-0.013": 1.45438519119,
			"-0.012": 0.927465916442,
			"-0.011": 1.00075187955,
			"-0.01": 1.14075454746,
			"-0.009": 1.43870353693,
			"-0.008": 1.45695996325,
			"-0.007": 4.39278507894,
			"-0.006": 13.5585044914,
			"-0.005": 20.2134734857,
			"-0.004": 29.7918349883,
			"-0.003": 28.8500413011,
			"-0.002": 26.7893334883,
			"-0.001": 23.3733374758,
			"0.0": 19.1515522713,
			"0.001": 14.1166811747,
			"0.002": 11.5110473372,
			"0.003": 12.82358837,
			"0.004": 11.6023897228,
			"0.005": 12.1863407065,
			"0.006": 7.92059922772,
			"0.007": 3.80483462389,
			"0.008": 3.15663300688,
			"0.009": 3.38676490925,
			"0.01": 3.95716386494,
			"0.011": 6.87927608502,
			"0.012": 9.2235740448,
			"0.013": 4.03015596881,
			"0.014": 0.42204871522,
			"0.015": 0.0,
			"0.016": 0.0,
			"0.017": 0.0,
			"0.018": 0.0,
			"0.019": 0.0,
			"0.02": 0.0,
			"0.021": 0.0,
			"0.022": 0.0,
			"0.023": 0.0,
			"0.024": 0.0,
			"0.025": 0.0
		}
	}
}
