{
	 "smiles": "ClC(Cl)Br", 
	 "Tm": 217.15, 
	 "num_atms": 5, 
	 "gaussian": { 
		 "optdone": 1, 
		 "sigma_profile": "yes", 
		 "theory": "DFT", 
		 "functional": "B3LYP", 
		 "basiset": "6-31G**", 
		 "properties": { 
			 "R2extent": 3767.4329, 
			 "electric_dipole_moment_norm": 1.17386596765, 
			 "electric_quadrupole_moment_norm": 3.69726332576, 
			 "total_energy": -3530.47968362, 
			 "HOMO_LUMO_gap": 0.23632, 
			 "cosmo_polarized_energy": -3.65, 
			 "cosmo_cavitation_energy": 14.74, 
			 "cosmo_dispersion_energy": -11.89, 
			 "cosmo_repulsion_energy": 1.08, 
			 "cosmo_total_nonelectrostatic_energy": 3.93, 
			 "SMD_solvation_energy": 0.85 
		},
		"coords": [
			{
				"x": -1.7918538438,
				"y": 2.7195234625,
				"z": 0.3915462521,
				"element": "Cl" 
			},
			{
				"x": -1.3705871957,
				"y": 1.6168317246,
				"z": 1.7253586184,
				"element": "C" 
			},
			{
				"x": 0.2839327239,
				"y": 0.9786816322,
				"z": 1.5586451408,
				"element": "Cl" 
			},
			{
				"x": -1.6329656019,
				"y": 2.4748432093,
				"z": 3.4725797094,
				"element": "Br" 
			},
			{
				"x": -2.0580260825,
				"y": 0.7783199714,
				"z": 1.6976702793,
				"element": "H" 
			}
		],
		 "valence_orbital": [ 
			{
				"type": "occ",
				"energy": -0.34989,
				"method": "rhf"
			},
			{
				"type": "occ",
				"energy": -0.32992,
				"method": "rhf"
			},
			{
				"type": "occ",
				"energy": -0.32531,
				"method": "rhf"
			},
			{
				"type": "occ",
				"energy": -0.30529,
				"method": "rhf"
			},
			{
				"type": "occ",
				"energy": -0.29799,
				"method": "rhf"
			},
			{
				"type": "unocc",
				"energy": -0.06167,
				"method": "rhf"
			},
			{
				"type": "unocc",
				"energy": -0.00693,
				"method": "rhf"
			},
			{
				"type": "unocc",
				"energy": 0.00842,
				"method": "rhf"
			},
			{
				"type": "unocc",
				"energy": 0.08605,
				"method": "rhf"
			},
			{
				"type": "unocc",
				"energy": 0.31067,
				"method": "rhf"
			}
		],
		"cosmo_sigma_profile": { 
			"-0.025": 0.0,
			"-0.024": 0.0,
			"-0.023": 0.0,
			"-0.022": 0.0,
			"-0.021": 0.0,
			"-0.02": 0.0,
			"-0.019": 0.0,
			"-0.018": 0.0,
			"-0.017": 0.0,
			"-0.016": 0.0,
			"-0.015": 0.0,
			"-0.014": 0.0,
			"-0.013": 1.08395949766,
			"-0.012": 2.62306229582,
			"-0.011": 1.70074666924,
			"-0.01": 1.43046780521,
			"-0.009": 1.11035265918,
			"-0.008": 1.22484568357,
			"-0.007": 0.98470815239,
			"-0.006": 2.35300740363,
			"-0.005": 2.86656284228,
			"-0.004": 5.01371405113,
			"-0.003": 5.55163729575,
			"-0.002": 7.87264704287,
			"-0.001": 8.68520724356,
			"0.0": 8.88731428903,
			"0.001": 11.7475023198,
			"0.002": 18.4452327327,
			"0.003": 34.0039805069,
			"0.004": 10.3467417473,
			"0.005": 0.0,
			"0.006": 0.0,
			"0.007": 0.0,
			"0.008": 0.0,
			"0.009": 0.0,
			"0.01": 0.0,
			"0.011": 0.0,
			"0.012": 0.0,
			"0.013": 0.0,
			"0.014": 0.0,
			"0.015": 0.0,
			"0.016": 0.0,
			"0.017": 0.0,
			"0.018": 0.0,
			"0.019": 0.0,
			"0.02": 0.0,
			"0.021": 0.0,
			"0.022": 0.0,
			"0.023": 0.0,
			"0.024": 0.0,
			"0.025": 0.0
		}
	}
}
