{
	 "smiles": "OCC1=CC(OCC2=CC=CC=C2)=CC(OCC2=CC=CC=C2)=C1", 
	 "Tm": 353.15, 
	 "num_atms": 44, 
	 "gaussian": { 
		 "optdone": 1, 
		 "sigma_profile": "yes", 
		 "theory": "DFT", 
		 "functional": "B3LYP", 
		 "basiset": "6-31G**", 
		 "properties": { 
			 "R2extent": 10871.8151, 
			 "electric_dipole_moment_norm": 1.11129936561, 
			 "electric_quadrupole_moment_norm": 15.4172537986, 
			 "total_energy": -1037.93385286, 
			 "HOMO_LUMO_gap": 0.20444, 
			 "cosmo_polarized_energy": -14.81, 
			 "cosmo_cavitation_energy": 47.91, 
			 "cosmo_dispersion_energy": -32.53, 
			 "cosmo_repulsion_energy": 2.54, 
			 "cosmo_total_nonelectrostatic_energy": 17.92, 
			 "SMD_solvation_energy": 8.17 
		},
		"coords": [
			{
				"x": 1.2404653242,
				"y": 3.4446110451,
				"z": 1.0036418559,
				"element": "O" 
			},
			{
				"x": 0.1362386454,
				"y": 2.5539417222,
				"z": 0.9189449126,
				"element": "C" 
			},
			{
				"x": 0.5343942599,
				"y": 1.0938935023,
				"z": 0.79657475,
				"element": "C" 
			},
			{
				"x": -0.3011535075,
				"y": 0.1024704096,
				"z": 1.3200485164,
				"element": "C" 
			},
			{
				"x": 0.0500970814,
				"y": -1.2441023362,
				"z": 1.1563940296,
				"element": "C" 
			},
			{
				"x": -0.6808398507,
				"y": -2.3028194959,
				"z": 1.6313482482,
				"element": "O" 
			},
			{
				"x": -1.8076057986,
				"y": -2.0541176787,
				"z": 2.4663528844,
				"element": "C" 
			},
			{
				"x": -3.0602259101,
				"y": -1.6352902668,
				"z": 1.7192116047,
				"element": "C" 
			},
			{
				"x": -3.292936089,
				"y": -2.0684654106,
				"z": 0.4089857376,
				"element": "C" 
			},
			{
				"x": -4.4737561412,
				"y": -1.7224777485,
				"z": -0.2485287971,
				"element": "C" 
			},
			{
				"x": -5.438801312,
				"y": -0.9470017727,
				"z": 0.3979651454,
				"element": "C" 
			},
			{
				"x": -5.2140284421,
				"y": -0.5138904809,
				"z": 1.7057727856,
				"element": "C" 
			},
			{
				"x": -4.0286005062,
				"y": -0.8535397943,
				"z": 2.3599773906,
				"element": "C" 
			},
			{
				"x": 1.2254868711,
				"y": -1.5912928204,
				"z": 0.487942127,
				"element": "C" 
			},
			{
				"x": 2.0549455197,
				"y": -0.5909947586,
				"z": -0.0238865002,
				"element": "C" 
			},
			{
				"x": 3.1893510279,
				"y": -1.0432171577,
				"z": -0.6461084353,
				"element": "O" 
			},
			{
				"x": 4.1502644076,
				"y": -0.1010646,
				"z": -1.1160476027,
				"element": "C" 
			},
			{
				"x": 3.7809583143,
				"y": 0.56150958,
				"z": -2.4297255186,
				"element": "C" 
			},
			{
				"x": 3.0353143794,
				"y": -0.1277966148,
				"z": -3.393129309,
				"element": "C" 
			},
			{
				"x": 2.7479426301,
				"y": 0.4679779491,
				"z": -4.6211989291,
				"element": "C" 
			},
			{
				"x": 3.2088950899,
				"y": 1.7558728564,
				"z": -4.9038611373,
				"element": "C" 
			},
			{
				"x": 3.9544351542,
				"y": 2.4478889971,
				"z": -3.9482681528,
				"element": "C" 
			},
			{
				"x": 4.2346415689,
				"y": 1.853895508,
				"z": -2.7164627132,
				"element": "C" 
			},
			{
				"x": 1.7145275466,
				"y": 0.7594653489,
				"z": 0.1252458698,
				"element": "C" 
			},
			{
				"x": 1.785151563,
				"y": 3.1540384447,
				"z": 1.7475080202,
				"element": "H" 
			},
			{
				"x": -0.5478335042,
				"y": 2.677595358,
				"z": 1.7734282936,
				"element": "H" 
			},
			{
				"x": -0.4150350177,
				"y": 2.8672232127,
				"z": 0.0242434222,
				"element": "H" 
			},
			{
				"x": -1.2204015417,
				"y": 0.3856797839,
				"z": 1.8187710679,
				"element": "H" 
			},
			{
				"x": -1.5573659665,
				"y": -1.3184191501,
				"z": 3.2422847169,
				"element": "H" 
			},
			{
				"x": -1.9795274178,
				"y": -3.0120969294,
				"z": 2.9701321717,
				"element": "H" 
			},
			{
				"x": -2.5393759943,
				"y": -2.6678148126,
				"z": -0.0921023284,
				"element": "H" 
			},
			{
				"x": -4.6407977797,
				"y": -2.0592883881,
				"z": -1.2678285462,
				"element": "H" 
			},
			{
				"x": -6.3576607103,
				"y": -0.6786882544,
				"z": -0.1153835356,
				"element": "H" 
			},
			{
				"x": -5.9564343249,
				"y": 0.0948013902,
				"z": 2.2142879727,
				"element": "H" 
			},
			{
				"x": -3.855108286,
				"y": -0.5068857727,
				"z": 3.3766850102,
				"element": "H" 
			},
			{
				"x": 1.5018917344,
				"y": -2.633826592,
				"z": 0.3818666308,
				"element": "H" 
			},
			{
				"x": 4.3585114217,
				"y": 0.654661313,
				"z": -0.3475256285,
				"element": "H" 
			},
			{
				"x": 5.0614493272,
				"y": -0.6965428234,
				"z": -1.2425664328,
				"element": "H" 
			},
			{
				"x": 2.674627281,
				"y": -1.126769344,
				"z": -3.1686504871,
				"element": "H" 
			},
			{
				"x": 2.163202772,
				"y": -0.0741820508,
				"z": -5.3591350445,
				"element": "H" 
			},
			{
				"x": 2.984042119,
				"y": 2.2186864171,
				"z": -5.8604907226,
				"element": "H" 
			},
			{
				"x": 4.3095610258,
				"y": 3.453270678,
				"z": -4.1560804554,
				"element": "H" 
			},
			{
				"x": 4.8069543524,
				"y": 2.4020982965,
				"z": -1.9711933573,
				"element": "H" 
			},
			{
				"x": 2.3228386835,
				"y": 1.5542032411,
				"z": -0.2858395302,
				"element": "H" 
			}
		],
		 "valence_orbital": [ 
			{
				"type": "occ",
				"energy": -0.24848,
				"method": "rhf"
			},
			{
				"type": "occ",
				"energy": -0.24621,
				"method": "rhf"
			},
			{
				"type": "occ",
				"energy": -0.24331,
				"method": "rhf"
			},
			{
				"type": "occ",
				"energy": -0.21905,
				"method": "rhf"
			},
			{
				"type": "occ",
				"energy": -0.21247,
				"method": "rhf"
			},
			{
				"type": "unocc",
				"energy": -0.00803,
				"method": "rhf"
			},
			{
				"type": "unocc",
				"energy": -0.00424,
				"method": "rhf"
			},
			{
				"type": "unocc",
				"energy": -0.00298,
				"method": "rhf"
			},
			{
				"type": "unocc",
				"energy": -0.00115,
				"method": "rhf"
			},
			{
				"type": "unocc",
				"energy": 0.0074,
				"method": "rhf"
			}
		],
		"cosmo_sigma_profile": { 
			"-0.025": 0.0,
			"-0.024": 0.0,
			"-0.023": 0.0,
			"-0.022": 0.0,
			"-0.021": 0.0,
			"-0.02": 0.0,
			"-0.019": 0.0,
			"-0.018": 0.0,
			"-0.017": 0.0,
			"-0.016": 0.0561031033589,
			"-0.015": 0.677960766584,
			"-0.014": 1.14912439276,
			"-0.013": 0.750435545663,
			"-0.012": 0.318892312002,
			"-0.011": 1.02513814413,
			"-0.01": 0.548977840203,
			"-0.009": 1.52963571182,
			"-0.008": 0.979346271078,
			"-0.007": 2.02228444626,
			"-0.006": 21.6905135674,
			"-0.005": 36.270319725,
			"-0.004": 38.8167184744,
			"-0.003": 34.5349356488,
			"-0.002": 25.3303515176,
			"-0.001": 23.0302231391,
			"0.0": 20.2899113323,
			"0.001": 23.1506565434,
			"0.002": 22.1329546026,
			"0.003": 25.7504851315,
			"0.004": 30.0366826613,
			"0.005": 33.5667430255,
			"0.006": 18.1543536905,
			"0.007": 2.70654717983,
			"0.008": 2.49176613949,
			"0.009": 3.96572184146,
			"0.01": 3.85885926488,
			"0.011": 1.26234916276,
			"0.012": 1.19538483525,
			"0.013": 1.51400405755,
			"0.014": 2.10087046694,
			"0.015": 0.0703054875189,
			"0.016": 0.0,
			"0.017": 0.0,
			"0.018": 0.0,
			"0.019": 0.0,
			"0.02": 0.0,
			"0.021": 0.0,
			"0.022": 0.0,
			"0.023": 0.0,
			"0.024": 0.0,
			"0.025": 0.0
		}
	}
}
