{
	 "smiles": "CC(C)NC1=C(C=C(C=C1)C#N)[N+]([O-])=O", 
	 "Tm": 387.15, 
	 "num_atms": 26, 
	 "gaussian": { 
		 "optdone": 1, 
		 "sigma_profile": "yes", 
		 "theory": "DFT", 
		 "functional": "B3LYP", 
		 "basiset": "6-31G**", 
		 "properties": { 
			 "R2extent": 4727.8701, 
			 "electric_dipole_moment_norm": 7.40990119907, 
			 "electric_quadrupole_moment_norm": 26.8834584113, 
			 "total_energy": -702.296930289, 
			 "HOMO_LUMO_gap": 0.13579, 
			 "cosmo_polarized_energy": -14.7, 
			 "cosmo_cavitation_energy": 31.02, 
			 "cosmo_dispersion_energy": -21.63, 
			 "cosmo_repulsion_energy": 1.69, 
			 "cosmo_total_nonelectrostatic_energy": 11.08, 
			 "SMD_solvation_energy": 8.34 
		},
		"coords": [
			{
				"x": 1.6278263802,
				"y": 0.3684934214,
				"z": -2.1118672683,
				"element": "C" 
			},
			{
				"x": 0.7173644675,
				"y": -0.6521991134,
				"z": -1.4102320839,
				"element": "C" 
			},
			{
				"x": -0.4118855161,
				"y": -1.1316658002,
				"z": -2.3276203772,
				"element": "C" 
			},
			{
				"x": 0.1169437908,
				"y": -0.0970531934,
				"z": -0.1949023706,
				"element": "N" 
			},
			{
				"x": 0.7110463929,
				"y": 0.0333675159,
				"z": 1.010554346,
				"element": "C" 
			},
			{
				"x": 0.0556876671,
				"y": 0.6249766214,
				"z": 2.1425935025,
				"element": "C" 
			},
			{
				"x": 0.6868568819,
				"y": 0.7284928975,
				"z": 3.3844678789,
				"element": "C" 
			},
			{
				"x": 1.9838658404,
				"y": 0.2599234503,
				"z": 3.5679788091,
				"element": "C" 
			},
			{
				"x": 2.653172997,
				"y": -0.3234772823,
				"z": 2.4659460931,
				"element": "C" 
			},
			{
				"x": 2.0415469784,
				"y": -0.4284869492,
				"z": 1.2380445323,
				"element": "C" 
			},
			{
				"x": 2.6297177906,
				"y": 0.366970242,
				"z": 4.8391366487,
				"element": "C" 
			},
			{
				"x": 3.1674663225,
				"y": 0.4474425273,
				"z": 5.8682253299,
				"element": "N" 
			},
			{
				"x": -1.2970112889,
				"y": 1.1502640286,
				"z": 2.0699101995,
				"element": "N" 
			},
			{
				"x": -1.793917921,
				"y": 1.6409678389,
				"z": 3.0818090809,
				"element": "O" 
			},
			{
				"x": -1.9093653145,
				"y": 1.0875659054,
				"z": 0.9853426164,
				"element": "O" 
			},
			{
				"x": 1.0457816042,
				"y": 1.235198369,
				"z": -2.4415697046,
				"element": "H" 
			},
			{
				"x": 2.4172797029,
				"y": 0.7268867151,
				"z": -1.445119841,
				"element": "H" 
			},
			{
				"x": 2.1011395888,
				"y": -0.08133866,
				"z": -2.9905911337,
				"element": "H" 
			},
			{
				"x": 1.3137088872,
				"y": -1.5273430981,
				"z": -1.124020446,
				"element": "H" 
			},
			{
				"x": -1.0519988564,
				"y": -0.2939867915,
				"z": -2.6276199155,
				"element": "H" 
			},
			{
				"x": -1.0345018338,
				"y": -1.8799941225,
				"z": -1.8291740424,
				"element": "H" 
			},
			{
				"x": 0.0017782193,
				"y": -1.5765744885,
				"z": -3.2366190901,
				"element": "H" 
			},
			{
				"x": -0.820367163,
				"y": 0.2905041833,
				"z": -0.2432178811,
				"element": "H" 
			},
			{
				"x": 0.1367296453,
				"y": 1.1837339418,
				"z": 4.1974987047,
				"element": "H" 
			},
			{
				"x": 3.6663831227,
				"y": -0.6904187072,
				"z": 2.5936838393,
				"element": "H" 
			},
			{
				"x": 2.5883516142,
				"y": -0.8745494519,
				"z": 0.4176625729,
				"element": "H" 
			}
		],
		 "valence_orbital": [ 
			{
				"type": "occ",
				"energy": -0.31682,
				"method": "rhf"
			},
			{
				"type": "occ",
				"energy": -0.31148,
				"method": "rhf"
			},
			{
				"type": "occ",
				"energy": -0.29887,
				"method": "rhf"
			},
			{
				"type": "occ",
				"energy": -0.2958,
				"method": "rhf"
			},
			{
				"type": "occ",
				"energy": -0.23331,
				"method": "rhf"
			},
			{
				"type": "unocc",
				"energy": -0.09752,
				"method": "rhf"
			},
			{
				"type": "unocc",
				"energy": -0.04626,
				"method": "rhf"
			},
			{
				"type": "unocc",
				"energy": -0.01562,
				"method": "rhf"
			},
			{
				"type": "unocc",
				"energy": 0.03379,
				"method": "rhf"
			},
			{
				"type": "unocc",
				"energy": 0.06204,
				"method": "rhf"
			}
		],
		"cosmo_sigma_profile": { 
			"-0.025": 0.0,
			"-0.024": 0.0,
			"-0.023": 0.0,
			"-0.022": 0.0,
			"-0.021": 0.0,
			"-0.02": 0.0,
			"-0.019": 0.0,
			"-0.018": 0.0,
			"-0.017": 0.0,
			"-0.016": 0.0,
			"-0.015": 0.0,
			"-0.014": 0.0,
			"-0.013": 0.0,
			"-0.012": 0.0,
			"-0.011": 0.0,
			"-0.01": 0.00180661282239,
			"-0.009": 1.88284631099,
			"-0.008": 6.65168043688,
			"-0.007": 8.2741698745,
			"-0.006": 8.84861684509,
			"-0.005": 12.169675782,
			"-0.004": 22.5857620398,
			"-0.003": 23.5033395355,
			"-0.002": 25.630535876,
			"-0.001": 30.6378152515,
			"0.0": 28.7623570417,
			"0.001": 13.0547801607,
			"0.002": 7.08900530147,
			"0.003": 4.22559267063,
			"0.004": 4.47240392895,
			"0.005": 4.33609674109,
			"0.006": 5.87231869685,
			"0.007": 7.55686102709,
			"0.008": 9.04633743313,
			"0.009": 7.61789641989,
			"0.01": 7.24549431312,
			"0.011": 3.68908046068,
			"0.012": 2.59552110312,
			"0.013": 1.90556162275,
			"0.014": 0.182089270549,
			"0.015": 0.0,
			"0.016": 0.0,
			"0.017": 0.0,
			"0.018": 0.0,
			"0.019": 0.0,
			"0.02": 0.0,
			"0.021": 0.0,
			"0.022": 0.0,
			"0.023": 0.0,
			"0.024": 0.0,
			"0.025": 0.0
		}
	}
}
