{
	 "smiles": "CC1=CC(Br)=CC(C)=C1NCC1=NC=CN1", 
	 "Tm": 416.15, 
	 "num_atms": 30, 
	 "gaussian": { 
		 "optdone": 1, 
		 "sigma_profile": "yes", 
		 "theory": "DFT", 
		 "functional": "B3LYP", 
		 "basiset": "6-31G**", 
		 "properties": { 
			 "R2extent": 6371.476, 
			 "electric_dipole_moment_norm": 2.53783222456, 
			 "electric_quadrupole_moment_norm": 17.9904121709, 
			 "total_energy": -3201.37131805, 
			 "HOMO_LUMO_gap": 0.20892, 
			 "cosmo_polarized_energy": -16.1, 
			 "cosmo_cavitation_energy": 34.55, 
			 "cosmo_dispersion_energy": -24.59, 
			 "cosmo_repulsion_energy": 1.91, 
			 "cosmo_total_nonelectrostatic_energy": 11.87, 
			 "SMD_solvation_energy": 2.46 
		},
		"coords": [
			{
				"x": -0.6856125837,
				"y": -2.6537734964,
				"z": 1.6752993615,
				"element": "C" 
			},
			{
				"x": 0.4730742719,
				"y": -1.8547095282,
				"z": 1.1201389791,
				"element": "C" 
			},
			{
				"x": 1.6197149921,
				"y": -2.5239881937,
				"z": 0.682462199,
				"element": "C" 
			},
			{
				"x": 2.7022693011,
				"y": -1.7953847644,
				"z": 0.1989050531,
				"element": "C" 
			},
			{
				"x": 4.2585650271,
				"y": -2.7258710631,
				"z": -0.4165691539,
				"element": "Br" 
			},
			{
				"x": 2.6778998344,
				"y": -0.4073067565,
				"z": 0.1696600784,
				"element": "C" 
			},
			{
				"x": 1.5459614582,
				"y": 0.2903528324,
				"z": 0.6153887854,
				"element": "C" 
			},
			{
				"x": 1.5695899462,
				"y": 1.7999734925,
				"z": 0.6359903204,
				"element": "C" 
			},
			{
				"x": 0.4265100297,
				"y": -0.4415291962,
				"z": 1.0688115795,
				"element": "C" 
			},
			{
				"x": -0.7326470357,
				"y": 0.2730367514,
				"z": 1.5147467787,
				"element": "N" 
			},
			{
				"x": -1.8053828869,
				"y": 0.482872785,
				"z": 0.5124066427,
				"element": "C" 
			},
			{
				"x": -1.4519020869,
				"y": 1.4323637385,
				"z": -0.5892971757,
				"element": "C" 
			},
			{
				"x": -1.7350965285,
				"y": 2.7209646009,
				"z": -0.6215682032,
				"element": "N" 
			},
			{
				"x": -1.2226790005,
				"y": 3.1853327929,
				"z": -1.8102929701,
				"element": "C" 
			},
			{
				"x": -0.6233763513,
				"y": 2.1674160564,
				"z": -2.5126791654,
				"element": "C" 
			},
			{
				"x": -0.7879606969,
				"y": 1.0474105055,
				"z": -1.7259948544,
				"element": "N" 
			},
			{
				"x": -0.5149552741,
				"y": -3.7252176816,
				"z": 1.545384523,
				"element": "H" 
			},
			{
				"x": -0.820471088,
				"y": -2.4780656956,
				"z": 2.7505853877,
				"element": "H" 
			},
			{
				"x": -1.6343675731,
				"y": -2.4067201645,
				"z": 1.1876622952,
				"element": "H" 
			},
			{
				"x": 1.6651820005,
				"y": -3.6070867307,
				"z": 0.7174391593,
				"element": "H" 
			},
			{
				"x": 3.5453899884,
				"y": 0.1427566307,
				"z": -0.179291568,
				"element": "H" 
			},
			{
				"x": 1.3024711704,
				"y": 2.2246980024,
				"z": -0.3384130485,
				"element": "H" 
			},
			{
				"x": 2.5718456285,
				"y": 2.1615793592,
				"z": 0.8858017772,
				"element": "H" 
			},
			{
				"x": 0.8525031964,
				"y": 2.1837528836,
				"z": 1.3629196318,
				"element": "H" 
			},
			{
				"x": -1.1465802064,
				"y": -0.1998597199,
				"z": 2.3121250194,
				"element": "H" 
			},
			{
				"x": -2.6568321452,
				"y": 0.9174693019,
				"z": 1.041301175,
				"element": "H" 
			},
			{
				"x": -2.1401357912,
				"y": -0.4676265203,
				"z": 0.0612822982,
				"element": "H" 
			},
			{
				"x": -1.3206513037,
				"y": 4.2224217206,
				"z": -2.100110274,
				"element": "H" 
			},
			{
				"x": -0.1274255246,
				"y": 2.1312960015,
				"z": -3.4703587461,
				"element": "H" 
			},
			{
				"x": -0.4191007682,
				"y": 0.1269420555,
				"z": -1.913035885,
				"element": "H" 
			}
		],
		 "valence_orbital": [ 
			{
				"type": "occ",
				"energy": -0.26585,
				"method": "rhf"
			},
			{
				"type": "occ",
				"energy": -0.2541,
				"method": "rhf"
			},
			{
				"type": "occ",
				"energy": -0.24875,
				"method": "rhf"
			},
			{
				"type": "occ",
				"energy": -0.22613,
				"method": "rhf"
			},
			{
				"type": "occ",
				"energy": -0.22299,
				"method": "rhf"
			},
			{
				"type": "unocc",
				"energy": -0.01407,
				"method": "rhf"
			},
			{
				"type": "unocc",
				"energy": -0.00881,
				"method": "rhf"
			},
			{
				"type": "unocc",
				"energy": 0.00943,
				"method": "rhf"
			},
			{
				"type": "unocc",
				"energy": 0.01915,
				"method": "rhf"
			},
			{
				"type": "unocc",
				"energy": 0.06233,
				"method": "rhf"
			}
		],
		"cosmo_sigma_profile": { 
			"-0.025": 0.0,
			"-0.024": 0.0,
			"-0.023": 0.0,
			"-0.022": 0.0,
			"-0.021": 0.0,
			"-0.02": 0.0,
			"-0.019": 0.0,
			"-0.018": 0.0,
			"-0.017": 0.0,
			"-0.016": 0.351076117697,
			"-0.015": 0.861495361381,
			"-0.014": 1.10569851628,
			"-0.013": 1.17564398125,
			"-0.012": 0.654196387924,
			"-0.011": 1.83010843878,
			"-0.01": 2.84496302146,
			"-0.009": 3.60492281779,
			"-0.008": 5.21017862314,
			"-0.007": 5.78896117216,
			"-0.006": 11.1351202878,
			"-0.005": 18.0902385602,
			"-0.004": 18.9761675106,
			"-0.003": 17.4530129392,
			"-0.002": 17.5320970794,
			"-0.001": 22.8473334032,
			"0.0": 22.3293051517,
			"0.001": 19.5288977648,
			"0.002": 17.9445228175,
			"0.003": 20.6422569396,
			"0.004": 23.6524517175,
			"0.005": 17.6487293888,
			"0.006": 5.49915843429,
			"0.007": 2.9662055678,
			"0.008": 2.49245936088,
			"0.009": 2.62063248277,
			"0.01": 2.75987236958,
			"0.011": 1.88534405237,
			"0.012": 1.45332929405,
			"0.013": 1.122236608,
			"0.014": 0.859401086266,
			"0.015": 1.39259711594,
			"0.016": 0.971731147397,
			"0.017": 0.857608456056,
			"0.018": 0.803837164128,
			"0.019": 0.234396725342,
			"0.02": 0.0,
			"0.021": 0.0,
			"0.022": 0.0,
			"0.023": 0.0,
			"0.024": 0.0,
			"0.025": 0.0
		}
	}
}
