{
	 "smiles": "O=C1CCNC2=C(N1)C=CC=C2", 
	 "Tm": 406.15, 
	 "num_atms": 22, 
	 "gaussian": { 
		 "optdone": 1, 
		 "sigma_profile": "yes", 
		 "theory": "DFT", 
		 "functional": "B3LYP", 
		 "basiset": "6-31G**", 
		 "properties": { 
			 "R2extent": 2458.5956, 
			 "electric_dipole_moment_norm": 3.60364770892, 
			 "electric_quadrupole_moment_norm": 13.1331828458, 
			 "total_energy": -533.723537056, 
			 "HOMO_LUMO_gap": 0.18682, 
			 "cosmo_polarized_energy": -13.47, 
			 "cosmo_cavitation_energy": 24.63, 
			 "cosmo_dispersion_energy": -18.83, 
			 "cosmo_repulsion_energy": 1.48, 
			 "cosmo_total_nonelectrostatic_energy": 7.28, 
			 "SMD_solvation_energy": 3.48 
		},
		"coords": [
			{
				"x": 2.3110525569,
				"y": 0.8364587158,
				"z": -2.024003584,
				"element": "O" 
			},
			{
				"x": 1.2308759964,
				"y": 0.3029089293,
				"z": -1.7977326097,
				"element": "C" 
			},
			{
				"x": 0.8649840214,
				"y": -1.0165408669,
				"z": -2.448106024,
				"element": "C" 
			},
			{
				"x": -0.622802576,
				"y": -1.2845932203,
				"z": -2.6599265326,
				"element": "C" 
			},
			{
				"x": -1.3143146917,
				"y": -1.5364733409,
				"z": -1.4003437984,
				"element": "N" 
			},
			{
				"x": -1.7113593252,
				"y": -0.4747477599,
				"z": -0.5793968108,
				"element": "C" 
			},
			{
				"x": -0.918155487,
				"y": 0.6780213176,
				"z": -0.3673387781,
				"element": "C" 
			},
			{
				"x": 0.3514661483,
				"y": 0.9316493289,
				"z": -0.937334114,
				"element": "N" 
			},
			{
				"x": -1.395521618,
				"y": 1.6725839867,
				"z": 0.5037096561,
				"element": "C" 
			},
			{
				"x": -2.6041517266,
				"y": 1.5523349418,
				"z": 1.1789426565,
				"element": "C" 
			},
			{
				"x": -3.3784691021,
				"y": 0.4080384103,
				"z": 0.9860775744,
				"element": "C" 
			},
			{
				"x": -2.9322925312,
				"y": -0.5754139475,
				"z": 0.111726412,
				"element": "C" 
			},
			{
				"x": 1.3984448005,
				"y": -1.0238826018,
				"z": -3.4028117246,
				"element": "H" 
			},
			{
				"x": 1.2858125755,
				"y": -1.8223119563,
				"z": -1.8354394104,
				"element": "H" 
			},
			{
				"x": -0.7253396028,
				"y": -2.1874551326,
				"z": -3.2687859527,
				"element": "H" 
			},
			{
				"x": -1.0826113295,
				"y": -0.4606477375,
				"z": -3.2283916064,
				"element": "H" 
			},
			{
				"x": -2.0484036694,
				"y": -2.2256660961,
				"z": -1.4918121432,
				"element": "H" 
			},
			{
				"x": 0.7753834508,
				"y": 1.7934642258,
				"z": -0.6135390532,
				"element": "H" 
			},
			{
				"x": -0.7832977282,
				"y": 2.5587246839,
				"z": 0.6555569426,
				"element": "H" 
			},
			{
				"x": -2.9314482539,
				"y": 2.3423658095,
				"z": 1.8469674608,
				"element": "H" 
			},
			{
				"x": -4.3269711835,
				"y": 0.2850837988,
				"z": 1.4994669243,
				"element": "H" 
			},
			{
				"x": -3.5386807247,
				"y": -1.4633014888,
				"z": -0.0550854847,
				"element": "H" 
			}
		],
		 "valence_orbital": [ 
			{
				"type": "occ",
				"energy": -0.30345,
				"method": "rhf"
			},
			{
				"type": "occ",
				"energy": -0.29775,
				"method": "rhf"
			},
			{
				"type": "occ",
				"energy": -0.24915,
				"method": "rhf"
			},
			{
				"type": "occ",
				"energy": -0.22943,
				"method": "rhf"
			},
			{
				"type": "occ",
				"energy": -0.19625,
				"method": "rhf"
			},
			{
				"type": "unocc",
				"energy": -0.00943,
				"method": "rhf"
			},
			{
				"type": "unocc",
				"energy": 0.00281,
				"method": "rhf"
			},
			{
				"type": "unocc",
				"energy": 0.04503,
				"method": "rhf"
			},
			{
				"type": "unocc",
				"energy": 0.06682,
				"method": "rhf"
			},
			{
				"type": "unocc",
				"energy": 0.08666,
				"method": "rhf"
			}
		],
		"cosmo_sigma_profile": { 
			"-0.025": 0.0,
			"-0.024": 0.0,
			"-0.023": 0.0,
			"-0.022": 0.0,
			"-0.021": 0.0,
			"-0.02": 0.0,
			"-0.019": 0.0,
			"-0.018": 0.0,
			"-0.017": 0.0,
			"-0.016": 0.0,
			"-0.015": 0.0,
			"-0.014": 0.26840528158,
			"-0.013": 1.39905278299,
			"-0.012": 2.60340729625,
			"-0.011": 2.80189333971,
			"-0.01": 3.32294026132,
			"-0.009": 2.18884873462,
			"-0.008": 2.5130299836,
			"-0.007": 3.37079441318,
			"-0.006": 8.17014733295,
			"-0.005": 15.4012008215,
			"-0.004": 19.2224296809,
			"-0.003": 18.1890596234,
			"-0.002": 14.6696645205,
			"-0.001": 10.4473261292,
			"0.0": 8.11920720405,
			"0.001": 8.99007462323,
			"0.002": 9.87444435064,
			"0.003": 9.16100045795,
			"0.004": 9.17493710775,
			"0.005": 10.8298446825,
			"0.006": 9.16232278911,
			"0.007": 5.31143641165,
			"0.008": 2.08698026712,
			"0.009": 1.97969386013,
			"0.01": 1.59973544782,
			"0.011": 2.14453978004,
			"0.012": 1.72519162448,
			"0.013": 4.188768349,
			"0.014": 5.08835867983,
			"0.015": 1.01217179508,
			"0.016": 0.0,
			"0.017": 0.0,
			"0.018": 0.0,
			"0.019": 0.0,
			"0.02": 0.0,
			"0.021": 0.0,
			"0.022": 0.0,
			"0.023": 0.0,
			"0.024": 0.0,
			"0.025": 0.0
		}
	}
}
