{
	 "smiles": "CNS(=O)(=O)C1=CC(=C(Cl)C=C1)C(F)(F)F", 
	 "Tm": 374.15, 
	 "num_atms": 23, 
	 "gaussian": { 
		 "optdone": 1, 
		 "sigma_profile": "yes", 
		 "theory": "DFT", 
		 "functional": "B3LYP", 
		 "basiset": "6-31G**", 
		 "properties": { 
			 "R2extent": 5041.9252, 
			 "electric_dipole_moment_norm": 3.70710468425, 
			 "electric_quadrupole_moment_norm": 17.7338098605, 
			 "total_energy": -1672.09776577, 
			 "HOMO_LUMO_gap": 0.20702, 
			 "cosmo_polarized_energy": -13.34, 
			 "cosmo_cavitation_energy": 31.95, 
			 "cosmo_dispersion_energy": -22.92, 
			 "cosmo_repulsion_energy": 1.7, 
			 "cosmo_total_nonelectrostatic_energy": 10.72, 
			 "SMD_solvation_energy": 5.37 
		},
		"coords": [
			{
				"x": -0.9015274603,
				"y": 3.274426107,
				"z": -1.5775504119,
				"element": "C" 
			},
			{
				"x": -0.7100938646,
				"y": 1.8772259635,
				"z": -1.9883374599,
				"element": "N" 
			},
			{
				"x": -1.8130250983,
				"y": 0.7371211556,
				"z": -1.4101951848,
				"element": "S" 
			},
			{
				"x": -1.7105545543,
				"y": -0.3896016319,
				"z": -2.3406333309,
				"element": "O" 
			},
			{
				"x": -3.1036356508,
				"y": 1.3612231223,
				"z": -1.0961446118,
				"element": "O" 
			},
			{
				"x": -1.0734654567,
				"y": 0.2660010691,
				"z": 0.1570932215,
				"element": "C" 
			},
			{
				"x": 0.1261892929,
				"y": -0.4446067639,
				"z": 0.158464654,
				"element": "C" 
			},
			{
				"x": 0.7033514923,
				"y": -0.8400784908,
				"z": 1.3644588391,
				"element": "C" 
			},
			{
				"x": 0.0490979803,
				"y": -0.5138144044,
				"z": 2.5671503261,
				"element": "C" 
			},
			{
				"x": 0.7092621552,
				"y": -0.9730906742,
				"z": 4.1185027682,
				"element": "Cl" 
			},
			{
				"x": -1.1555660235,
				"y": 0.1886404001,
				"z": 2.5571349547,
				"element": "C" 
			},
			{
				"x": -1.7242890617,
				"y": 0.5819729538,
				"z": 1.3465597994,
				"element": "C" 
			},
			{
				"x": 2.0092770904,
				"y": -1.6061255967,
				"z": 1.3376653079,
				"element": "C" 
			},
			{
				"x": 2.4354531348,
				"y": -1.7961499385,
				"z": 0.070836011,
				"element": "F" 
			},
			{
				"x": 2.9855093927,
				"y": -0.9460034653,
				"z": 1.9919765927,
				"element": "F" 
			},
			{
				"x": 1.8869385401,
				"y": -2.8213210071,
				"z": 1.9050957588,
				"element": "F" 
			},
			{
				"x": -0.7792406307,
				"y": 3.3509670587,
				"z": -0.4940457628,
				"element": "H" 
			},
			{
				"x": -1.8814690944,
				"y": 3.6791825821,
				"z": -1.8518458069,
				"element": "H" 
			},
			{
				"x": -0.1133936767,
				"y": 3.8685631057,
				"z": -2.0455377086,
				"element": "H" 
			},
			{
				"x": -0.6467439523,
				"y": 1.7403780149,
				"z": -2.9947061023,
				"element": "H" 
			},
			{
				"x": 0.6124599925,
				"y": -0.6962378275,
				"z": -0.7756484809,
				"element": "H" 
			},
			{
				"x": -1.6427909635,
				"y": 0.4215785448,
				"z": 3.4969457989,
				"element": "H" 
			},
			{
				"x": -2.6655435834,
				"y": 1.1195497223,
				"z": 1.3189608286,
				"element": "H" 
			}
		],
		 "valence_orbital": [ 
			{
				"type": "occ",
				"energy": -0.32284,
				"method": "rhf"
			},
			{
				"type": "occ",
				"energy": -0.31263,
				"method": "rhf"
			},
			{
				"type": "occ",
				"energy": -0.29901,
				"method": "rhf"
			},
			{
				"type": "occ",
				"energy": -0.29301,
				"method": "rhf"
			},
			{
				"type": "occ",
				"energy": -0.2715,
				"method": "rhf"
			},
			{
				"type": "unocc",
				"energy": -0.06448,
				"method": "rhf"
			},
			{
				"type": "unocc",
				"energy": -0.05144,
				"method": "rhf"
			},
			{
				"type": "unocc",
				"energy": 0.00808,
				"method": "rhf"
			},
			{
				"type": "unocc",
				"energy": 0.05125,
				"method": "rhf"
			},
			{
				"type": "unocc",
				"energy": 0.06442,
				"method": "rhf"
			}
		],
		"cosmo_sigma_profile": { 
			"-0.025": 0.0,
			"-0.024": 0.0,
			"-0.023": 0.0,
			"-0.022": 0.0,
			"-0.021": 0.0,
			"-0.02": 0.0,
			"-0.019": 0.0,
			"-0.018": 0.0,
			"-0.017": 0.0,
			"-0.016": 0.0377660774201,
			"-0.015": 0.964860233411,
			"-0.014": 0.675910333884,
			"-0.013": 1.24885310321,
			"-0.012": 0.899975681225,
			"-0.011": 1.10613661236,
			"-0.01": 1.24823772891,
			"-0.009": 3.17135726915,
			"-0.008": 4.99881124794,
			"-0.007": 6.15438327452,
			"-0.006": 8.81897464858,
			"-0.005": 13.2548698051,
			"-0.004": 16.6214052316,
			"-0.003": 17.1673573095,
			"-0.002": 22.2075285989,
			"-0.001": 23.8068819648,
			"0.0": 19.8562719101,
			"0.001": 15.8588065609,
			"0.002": 32.5859596161,
			"0.003": 25.6631840345,
			"0.004": 7.05920278596,
			"0.005": 2.33325729538,
			"0.006": 2.80095380956,
			"0.007": 4.20296246969,
			"0.008": 3.88681856808,
			"0.009": 4.27711391994,
			"0.01": 8.28065163163,
			"0.011": 7.66718960347,
			"0.012": 1.10534882922,
			"0.013": 0.0,
			"0.014": 0.0,
			"0.015": 0.0,
			"0.016": 0.0,
			"0.017": 0.0,
			"0.018": 0.0,
			"0.019": 0.0,
			"0.02": 0.0,
			"0.021": 0.0,
			"0.022": 0.0,
			"0.023": 0.0,
			"0.024": 0.0,
			"0.025": 0.0
		}
	}
}
