{
	 "smiles": "OCCCCO", 
	 "Tm": 291.35, 
	 "num_atms": 16, 
	 "gaussian": { 
		 "optdone": 1, 
		 "sigma_profile": "yes", 
		 "theory": "DFT", 
		 "functional": "B3LYP", 
		 "basiset": "6-31G**", 
		 "properties": { 
			 "R2extent": 687.9305, 
			 "electric_dipole_moment_norm": 3.52927481078, 
			 "electric_quadrupole_moment_norm": 5.54454139582, 
			 "total_energy": -308.886647624, 
			 "HOMO_LUMO_gap": 0.29965, 
			 "cosmo_polarized_energy": -8.86, 
			 "cosmo_cavitation_energy": 17.6, 
			 "cosmo_dispersion_energy": -13.53, 
			 "cosmo_repulsion_energy": 1.19, 
			 "cosmo_total_nonelectrostatic_energy": 5.25, 
			 "SMD_solvation_energy": 2.95 
		},
		"coords": [
			{
				"x": 0.7043603964,
				"y": 1.2357221873,
				"z": -1.5989478444,
				"element": "O" 
			},
			{
				"x": -0.692206442,
				"y": 0.9771526959,
				"z": -1.8010270652,
				"element": "C" 
			},
			{
				"x": -1.3490150556,
				"y": 0.7722506973,
				"z": -0.4388914262,
				"element": "C" 
			},
			{
				"x": -1.0935713814,
				"y": -0.5890994315,
				"z": 0.2340044918,
				"element": "C" 
			},
			{
				"x": 0.3874897116,
				"y": -0.9825782904,
				"z": 0.3646580158,
				"element": "C" 
			},
			{
				"x": 1.1895343538,
				"y": 0.0411717165,
				"z": 0.923542305,
				"element": "O" 
			},
			{
				"x": 1.1593107942,
				"y": 1.1998830081,
				"z": -2.4487619498,
				"element": "H" 
			},
			{
				"x": -1.1572460166,
				"y": 1.8313475142,
				"z": -2.3150243381,
				"element": "H" 
			},
			{
				"x": -0.8347623693,
				"y": 0.0881244023,
				"z": -2.4346951039,
				"element": "H" 
			},
			{
				"x": -2.4304434371,
				"y": 0.9117869704,
				"z": -0.5568436559,
				"element": "H" 
			},
			{
				"x": -1.0022082783,
				"y": 1.5776908041,
				"z": 0.218886125,
				"element": "H" 
			},
			{
				"x": -1.6148085561,
				"y": -1.3817747002,
				"z": -0.3218655758,
				"element": "H" 
			},
			{
				"x": -1.5442694403,
				"y": -0.5583567199,
				"z": 1.23341212,
				"element": "H" 
			},
			{
				"x": 0.4706075185,
				"y": -1.8519029864,
				"z": 1.0273559282,
				"element": "H" 
			},
			{
				"x": 0.775618677,
				"y": -1.292491387,
				"z": -0.6184171127,
				"element": "H" 
			},
			{
				"x": 1.3050095252,
				"y": 0.6872735193,
				"z": 0.2083150861,
				"element": "H" 
			}
		],
		 "valence_orbital": [ 
			{
				"type": "occ",
				"energy": -0.34,
				"method": "rhf"
			},
			{
				"type": "occ",
				"energy": -0.32719,
				"method": "rhf"
			},
			{
				"type": "occ",
				"energy": -0.29902,
				"method": "rhf"
			},
			{
				"type": "occ",
				"energy": -0.28246,
				"method": "rhf"
			},
			{
				"type": "occ",
				"energy": -0.24151,
				"method": "rhf"
			},
			{
				"type": "unocc",
				"energy": 0.05814,
				"method": "rhf"
			},
			{
				"type": "unocc",
				"energy": 0.10189,
				"method": "rhf"
			},
			{
				"type": "unocc",
				"energy": 0.12903,
				"method": "rhf"
			},
			{
				"type": "unocc",
				"energy": 0.14234,
				"method": "rhf"
			},
			{
				"type": "unocc",
				"energy": 0.14594,
				"method": "rhf"
			}
		],
		"cosmo_sigma_profile": { 
			"-0.025": 0.0,
			"-0.024": 0.0,
			"-0.023": 0.0,
			"-0.022": 0.0,
			"-0.021": 0.0,
			"-0.02": 0.0,
			"-0.019": 0.0,
			"-0.018": 0.0,
			"-0.017": 0.124264198378,
			"-0.016": 0.784127517063,
			"-0.015": 1.12760497093,
			"-0.014": 1.27033378986,
			"-0.013": 0.55895026909,
			"-0.012": 0.664171833027,
			"-0.011": 0.917519387725,
			"-0.01": 0.465527665381,
			"-0.009": 1.22316045927,
			"-0.008": 0.807150311804,
			"-0.007": 1.05103330862,
			"-0.006": 1.12126904391,
			"-0.005": 1.12397467355,
			"-0.004": 5.802192244,
			"-0.003": 17.9746414732,
			"-0.002": 24.6334153313,
			"-0.001": 18.8112234545,
			"0.0": 14.9034790487,
			"0.001": 9.56416128658,
			"0.002": 4.85298939136,
			"0.003": 3.59443168545,
			"0.004": 1.89120282232,
			"0.005": 2.02218829887,
			"0.006": 2.224689658,
			"0.007": 2.2128424392,
			"0.008": 1.79710382857,
			"0.009": 1.4734235617,
			"0.01": 1.92542823747,
			"0.011": 1.74391984712,
			"0.012": 1.58526969568,
			"0.013": 1.32627777679,
			"0.014": 2.00467672792,
			"0.015": 2.35216277259,
			"0.016": 1.23606565799,
			"0.017": 0.0,
			"0.018": 0.0,
			"0.019": 0.0,
			"0.02": 0.0,
			"0.021": 0.0,
			"0.022": 0.0,
			"0.023": 0.0,
			"0.024": 0.0,
			"0.025": 0.0
		}
	}
}
