{
	 "smiles": "CC1=CC(C)=NC(NS(=O)(=O)C2=CC=C(N)C=C2)=N1", 
	 "Tm": 472.65, 
	 "num_atms": 33, 
	 "gaussian": { 
		 "optdone": 1, 
		 "sigma_profile": "yes", 
		 "theory": "DFT", 
		 "functional": "B3LYP", 
		 "basiset": "6-31G**", 
		 "properties": { 
			 "R2extent": 6476.885, 
			 "electric_dipole_moment_norm": 6.24650313856, 
			 "electric_quadrupole_moment_norm": 30.721988102, 
			 "total_energy": -1233.31647677, 
			 "HOMO_LUMO_gap": 0.18388, 
			 "cosmo_polarized_energy": -22.27, 
			 "cosmo_cavitation_energy": 38.82, 
			 "cosmo_dispersion_energy": -27.69, 
			 "cosmo_repulsion_energy": 2.11, 
			 "cosmo_total_nonelectrostatic_energy": 13.24, 
			 "SMD_solvation_energy": 4.14 
		},
		"coords": [
			{
				"x": -1.510624672,
				"y": 4.9942348428,
				"z": -1.7457319981,
				"element": "C" 
			},
			{
				"x": -1.3215126189,
				"y": 3.5236645927,
				"z": -1.4863761795,
				"element": "C" 
			},
			{
				"x": -2.3852266488,
				"y": 2.6840287807,
				"z": -1.1403408417,
				"element": "C" 
			},
			{
				"x": -2.1033728772,
				"y": 1.3343606513,
				"z": -0.9153227626,
				"element": "C" 
			},
			{
				"x": -3.1720306509,
				"y": 0.342335053,
				"z": -0.5428714742,
				"element": "C" 
			},
			{
				"x": -0.854612551,
				"y": 0.8559657973,
				"z": -1.0206047888,
				"element": "N" 
			},
			{
				"x": 0.0838005387,
				"y": 1.7399067581,
				"z": -1.3698950933,
				"element": "C" 
			},
			{
				"x": 1.3960297149,
				"y": 1.2898119367,
				"z": -1.4652341316,
				"element": "N" 
			},
			{
				"x": 1.9020373447,
				"y": -0.3135946917,
				"z": -1.7827801515,
				"element": "S" 
			},
			{
				"x": 0.9838431258,
				"y": -0.9503396095,
				"z": -2.7237224268,
				"element": "O" 
			},
			{
				"x": 3.3178350101,
				"y": -0.114740567,
				"z": -2.109052819,
				"element": "O" 
			},
			{
				"x": 1.788176789,
				"y": -1.1490082661,
				"z": -0.2205628283,
				"element": "C" 
			},
			{
				"x": 0.6388515436,
				"y": -1.8756837939,
				"z": 0.1032852667,
				"element": "C" 
			},
			{
				"x": 0.5753580887,
				"y": -2.5525554497,
				"z": 1.3133113324,
				"element": "C" 
			},
			{
				"x": 1.6561588837,
				"y": -2.5145812846,
				"z": 2.2170431959,
				"element": "C" 
			},
			{
				"x": 1.571378824,
				"y": -3.1513123333,
				"z": 3.4440624856,
				"element": "N" 
			},
			{
				"x": 2.8074668227,
				"y": -1.7795716313,
				"z": 1.8692709916,
				"element": "C" 
			},
			{
				"x": 2.8740312816,
				"y": -1.1031257753,
				"z": 0.659399674,
				"element": "C" 
			},
			{
				"x": -0.0741675416,
				"y": 3.0492159796,
				"z": -1.6094955286,
				"element": "N" 
			},
			{
				"x": -2.554699099,
				"y": 5.2952890773,
				"z": -1.6328457546,
				"element": "H" 
			},
			{
				"x": -1.1770139718,
				"y": 5.2428250544,
				"z": -2.7582609193,
				"element": "H" 
			},
			{
				"x": -0.8959405775,
				"y": 5.5799280807,
				"z": -1.0545262919,
				"element": "H" 
			},
			{
				"x": -3.3950424681,
				"y": 3.0680211546,
				"z": -1.049669164,
				"element": "H" 
			},
			{
				"x": -2.9048619827,
				"y": -0.164755523,
				"z": 0.3896281506,
				"element": "H" 
			},
			{
				"x": -3.2520073027,
				"y": -0.4283301376,
				"z": -1.3168444303,
				"element": "H" 
			},
			{
				"x": -4.1465192283,
				"y": 0.8209297806,
				"z": -0.4212574209,
				"element": "H" 
			},
			{
				"x": 2.063012048,
				"y": 1.9699579222,
				"z": -1.8132340989,
				"element": "H" 
			},
			{
				"x": -0.1895600591,
				"y": -1.9004022725,
				"z": -0.5937287994,
				"element": "H" 
			},
			{
				"x": -0.315467158,
				"y": -3.1202315766,
				"z": 1.569319426,
				"element": "H" 
			},
			{
				"x": 2.4437290828,
				"y": -3.3551509691,
				"z": 3.9093946061,
				"element": "H" 
			},
			{
				"x": 0.8937151243,
				"y": -3.8955000355,
				"z": 3.5216774129,
				"element": "H" 
			},
			{
				"x": 3.6507041249,
				"y": -1.7482787472,
				"z": 2.5541254255,
				"element": "H" 
			},
			{
				"x": 3.7686310603,
				"y": -0.5562127979,
				"z": 0.382439936,
				"element": "H" 
			}
		],
		 "valence_orbital": [ 
			{
				"type": "occ",
				"energy": -0.28902,
				"method": "rhf"
			},
			{
				"type": "occ",
				"energy": -0.26226,
				"method": "rhf"
			},
			{
				"type": "occ",
				"energy": -0.24943,
				"method": "rhf"
			},
			{
				"type": "occ",
				"energy": -0.24151,
				"method": "rhf"
			},
			{
				"type": "occ",
				"energy": -0.2175,
				"method": "rhf"
			},
			{
				"type": "unocc",
				"energy": -0.03362,
				"method": "rhf"
			},
			{
				"type": "unocc",
				"energy": -0.01798,
				"method": "rhf"
			},
			{
				"type": "unocc",
				"energy": -0.00944,
				"method": "rhf"
			},
			{
				"type": "unocc",
				"energy": -0.00536,
				"method": "rhf"
			},
			{
				"type": "unocc",
				"energy": 0.06358,
				"method": "rhf"
			}
		],
		"cosmo_sigma_profile": { 
			"-0.025": 0.0,
			"-0.024": 0.0,
			"-0.023": 0.0,
			"-0.022": 0.0,
			"-0.021": 0.0,
			"-0.02": 0.0,
			"-0.019": 0.0,
			"-0.018": 0.0,
			"-0.017": 0.0,
			"-0.016": 0.0,
			"-0.015": 0.277145682294,
			"-0.014": 0.764893376865,
			"-0.013": 3.88920125321,
			"-0.012": 3.62150543297,
			"-0.011": 2.92516314127,
			"-0.01": 5.2070078977,
			"-0.009": 3.21325655307,
			"-0.008": 3.67703330508,
			"-0.007": 7.54939896309,
			"-0.006": 13.0887183049,
			"-0.005": 20.4451249335,
			"-0.004": 18.7913925719,
			"-0.003": 20.151449956,
			"-0.002": 21.0557479124,
			"-0.001": 30.2196254676,
			"0.0": 22.6075574771,
			"0.001": 18.7743964533,
			"0.002": 17.6934439603,
			"0.003": 15.5243345943,
			"0.004": 19.7770562339,
			"0.005": 9.06966897696,
			"0.006": 7.0743713558,
			"0.007": 4.92693305304,
			"0.008": 5.6609547609,
			"0.009": 6.76770891727,
			"0.01": 9.9144895162,
			"0.011": 11.0521938048,
			"0.012": 4.23134404061,
			"0.013": 0.699940724696,
			"0.014": 0.143957648857,
			"0.015": 0.0,
			"0.016": 0.0,
			"0.017": 0.0,
			"0.018": 0.0,
			"0.019": 0.0,
			"0.02": 0.0,
			"0.021": 0.0,
			"0.022": 0.0,
			"0.023": 0.0,
			"0.024": 0.0,
			"0.025": 0.0
		}
	}
}
