{
	 "smiles": "OCC#CC1=CC=C(Cl)C=C1", 
	 "Tm": 350.15, 
	 "num_atms": 18, 
	 "gaussian": { 
		 "optdone": 1, 
		 "sigma_profile": "yes", 
		 "theory": "DFT", 
		 "functional": "B3LYP", 
		 "basiset": "6-31G**", 
		 "properties": { 
			 "R2extent": 3713.6151, 
			 "electric_dipole_moment_norm": 1.25019340504, 
			 "electric_quadrupole_moment_norm": 11.0361389208, 
			 "total_energy": -882.518066149, 
			 "HOMO_LUMO_gap": 0.18909, 
			 "cosmo_polarized_energy": -8.66, 
			 "cosmo_cavitation_energy": 25.63, 
			 "cosmo_dispersion_energy": -18.76, 
			 "cosmo_repulsion_energy": 1.56, 
			 "cosmo_total_nonelectrostatic_energy": 8.44, 
			 "SMD_solvation_energy": 4.48 
		},
		"coords": [
			{
				"x": 1.5355313424,
				"y": 3.162343295,
				"z": -3.2272568113,
				"element": "O" 
			},
			{
				"x": 2.2007137656,
				"y": 2.3056783026,
				"z": -2.3060936379,
				"element": "C" 
			},
			{
				"x": 1.2905842594,
				"y": 1.6084037252,
				"z": -1.3908378976,
				"element": "C" 
			},
			{
				"x": 0.5046504731,
				"y": 1.0818562283,
				"z": -0.6309920365,
				"element": "C" 
			},
			{
				"x": -0.4121744592,
				"y": 0.440391082,
				"z": 0.2564450312,
				"element": "C" 
			},
			{
				"x": -1.4087306817,
				"y": -0.4209612727,
				"z": -0.2418729769,
				"element": "C" 
			},
			{
				"x": -2.3057136739,
				"y": -1.0470224205,
				"z": 0.6183854318,
				"element": "C" 
			},
			{
				"x": -2.209310568,
				"y": -0.8155824273,
				"z": 1.9911582686,
				"element": "C" 
			},
			{
				"x": -3.3380431086,
				"y": -1.6043608191,
				"z": 3.0808331453,
				"element": "Cl" 
			},
			{
				"x": -1.2312661086,
				"y": 0.0320081466,
				"z": 2.5129156356,
				"element": "C" 
			},
			{
				"x": -0.3394956744,
				"y": 0.6565009278,
				"z": 1.6460446991,
				"element": "C" 
			},
			{
				"x": 0.9750139818,
				"y": 3.7593208216,
				"z": -2.7140986571,
				"element": "H" 
			},
			{
				"x": 2.7466193933,
				"y": 1.5787664845,
				"z": -2.9179506547,
				"element": "H" 
			},
			{
				"x": 2.9538683908,
				"y": 2.8528204669,
				"z": -1.7159864425,
				"element": "H" 
			},
			{
				"x": -1.4735378286,
				"y": -0.5949110738,
				"z": -1.3107975588,
				"element": "H" 
			},
			{
				"x": -3.0722074154,
				"y": -1.709245803,
				"z": 0.2315537211,
				"element": "H" 
			},
			{
				"x": -1.1718512744,
				"y": 0.1994421681,
				"z": 3.5825560013,
				"element": "H" 
			},
			{
				"x": 0.4240491866,
				"y": 1.318152168,
				"z": 2.0415947394,
				"element": "H" 
			}
		],
		 "valence_orbital": [ 
			{
				"type": "occ",
				"energy": -0.30046,
				"method": "rhf"
			},
			{
				"type": "occ",
				"energy": -0.28527,
				"method": "rhf"
			},
			{
				"type": "occ",
				"energy": -0.27196,
				"method": "rhf"
			},
			{
				"type": "occ",
				"energy": -0.2683,
				"method": "rhf"
			},
			{
				"type": "occ",
				"energy": -0.23327,
				"method": "rhf"
			},
			{
				"type": "unocc",
				"energy": -0.04418,
				"method": "rhf"
			},
			{
				"type": "unocc",
				"energy": -0.02038,
				"method": "rhf"
			},
			{
				"type": "unocc",
				"energy": 0.02471,
				"method": "rhf"
			},
			{
				"type": "unocc",
				"energy": 0.04253,
				"method": "rhf"
			},
			{
				"type": "unocc",
				"energy": 0.05919,
				"method": "rhf"
			}
		],
		"cosmo_sigma_profile": { 
			"-0.025": 0.0,
			"-0.024": 0.0,
			"-0.023": 0.0,
			"-0.022": 0.0,
			"-0.021": 0.0,
			"-0.02": 0.0,
			"-0.019": 0.0,
			"-0.018": 0.0,
			"-0.017": 0.0,
			"-0.016": 0.582044129509,
			"-0.015": 0.836400829292,
			"-0.014": 1.27714952818,
			"-0.013": 0.907059421171,
			"-0.012": 0.469007153378,
			"-0.011": 0.581793511854,
			"-0.01": 0.766051739141,
			"-0.009": 0.929150349483,
			"-0.008": 2.46406896824,
			"-0.007": 9.01564999863,
			"-0.006": 13.5386911763,
			"-0.005": 13.1026532693,
			"-0.004": 10.8253063475,
			"-0.003": 10.1978078696,
			"-0.002": 9.36910025129,
			"-0.001": 11.4412727985,
			"0.0": 12.9065256183,
			"0.001": 16.6541475989,
			"0.002": 24.7180312292,
			"0.003": 24.2857860532,
			"0.004": 16.1340190761,
			"0.005": 11.7700528115,
			"0.006": 3.56054521405,
			"0.007": 1.63668073287,
			"0.008": 1.47881629273,
			"0.009": 0.635063602136,
			"0.01": 1.12094453381,
			"0.011": 1.8172627518,
			"0.012": 1.95004484179,
			"0.013": 1.92699614308,
			"0.014": 1.29234408145,
			"0.015": 0.0,
			"0.016": 0.0,
			"0.017": 0.0,
			"0.018": 0.0,
			"0.019": 0.0,
			"0.02": 0.0,
			"0.021": 0.0,
			"0.022": 0.0,
			"0.023": 0.0,
			"0.024": 0.0,
			"0.025": 0.0
		}
	}
}
