{
	 "smiles": "CC(C)CNCCS(=O)(=O)C1=CC=C(C=C1)S(N)(=O)=O", 
	 "Tm": 496.15, 
	 "num_atms": 40, 
	 "gaussian": { 
		 "optdone": 1, 
		 "sigma_profile": "yes", 
		 "theory": "DFT", 
		 "functional": "B3LYP", 
		 "basiset": "6-31G**", 
		 "properties": { 
			 "R2extent": 8377.0225, 
			 "electric_dipole_moment_norm": 8.63111348668, 
			 "electric_quadrupole_moment_norm": 21.121644096, 
			 "total_energy": -1675.97197342, 
			 "HOMO_LUMO_gap": 0.17945, 
			 "cosmo_polarized_energy": -29.49, 
			 "cosmo_cavitation_energy": 45.08, 
			 "cosmo_dispersion_energy": -30.14, 
			 "cosmo_repulsion_energy": 2.21, 
			 "cosmo_total_nonelectrostatic_energy": 17.15, 
			 "SMD_solvation_energy": 5.72 
		},
		"coords": [
			{
				"x": -0.9894789247,
				"y": 1.3354292153,
				"z": -1.2441332459,
				"element": "C" 
			},
			{
				"x": 0.0553139814,
				"y": 2.4580775671,
				"z": -1.1855262882,
				"element": "C" 
			},
			{
				"x": 0.1669670738,
				"y": 3.1886024042,
				"z": -2.5309304233,
				"element": "C" 
			},
			{
				"x": 1.4326555322,
				"y": 1.9390193749,
				"z": -0.744385929,
				"element": "C" 
			},
			{
				"x": 1.4103297755,
				"y": 1.3657688886,
				"z": 0.603544817,
				"element": "N" 
			},
			{
				"x": 2.7261740136,
				"y": 0.967129904,
				"z": 1.0990640499,
				"element": "C" 
			},
			{
				"x": 3.1365987723,
				"y": -0.43449799,
				"z": 0.6467169102,
				"element": "C" 
			},
			{
				"x": 2.3968976175,
				"y": -1.8058373342,
				"z": 1.6055434354,
				"element": "S" 
			},
			{
				"x": 3.1545481757,
				"y": -3.0109586338,
				"z": 1.2283816027,
				"element": "O" 
			},
			{
				"x": 2.2976298421,
				"y": -1.3693563588,
				"z": 3.0094361065,
				"element": "O" 
			},
			{
				"x": 0.7138888328,
				"y": -2.0332189302,
				"z": 0.9914518123,
				"element": "C" 
			},
			{
				"x": -0.35024353,
				"y": -1.4877570197,
				"z": 1.7093666553,
				"element": "C" 
			},
			{
				"x": -1.6515418796,
				"y": -1.6931993409,
				"z": 1.2535593485,
				"element": "C" 
			},
			{
				"x": -1.8552436065,
				"y": -2.4307773696,
				"z": 0.0843666719,
				"element": "C" 
			},
			{
				"x": -0.7908064598,
				"y": -3.0033823676,
				"z": -0.6158346389,
				"element": "C" 
			},
			{
				"x": 0.5096053318,
				"y": -2.8067732645,
				"z": -0.1523626409,
				"element": "C" 
			},
			{
				"x": -3.5334312032,
				"y": -2.6304494845,
				"z": -0.546662201,
				"element": "S" 
			},
			{
				"x": -3.8003185398,
				"y": -1.3386157621,
				"z": -1.5861312157,
				"element": "N" 
			},
			{
				"x": -4.4445084504,
				"y": -2.4322737711,
				"z": 0.5776837576,
				"element": "O" 
			},
			{
				"x": -3.5435782493,
				"y": -3.8240256973,
				"z": -1.3888816428,
				"element": "O" 
			},
			{
				"x": -1.0564935483,
				"y": 0.810193936,
				"z": -0.2886332469,
				"element": "H" 
			},
			{
				"x": -0.7186819619,
				"y": 0.5995502829,
				"z": -2.0119692111,
				"element": "H" 
			},
			{
				"x": -1.9764857108,
				"y": 1.7388570223,
				"z": -1.4990698383,
				"element": "H" 
			},
			{
				"x": -0.2743470395,
				"y": 3.1911073214,
				"z": -0.4320754529,
				"element": "H" 
			},
			{
				"x": 0.505449022,
				"y": 2.5065646438,
				"z": -3.32039569,
				"element": "H" 
			},
			{
				"x": -0.8018973449,
				"y": 3.5947475425,
				"z": -2.8388403616,
				"element": "H" 
			},
			{
				"x": 0.8777489513,
				"y": 4.0202962162,
				"z": -2.4810355993,
				"element": "H" 
			},
			{
				"x": 2.1704488497,
				"y": 2.7601048678,
				"z": -0.8270363933,
				"element": "H" 
			},
			{
				"x": 1.7607881752,
				"y": 1.1621785468,
				"z": -1.4495516007,
				"element": "H" 
			},
			{
				"x": 1.0152622091,
				"y": 2.0512494698,
				"z": 1.2417228901,
				"element": "H" 
			},
			{
				"x": 2.7141571068,
				"y": 0.9782970505,
				"z": 2.1930424702,
				"element": "H" 
			},
			{
				"x": 3.5243813448,
				"y": 1.661937523,
				"z": 0.7786921797,
				"element": "H" 
			},
			{
				"x": 2.9223066379,
				"y": -0.6301876874,
				"z": -0.4071474013,
				"element": "H" 
			},
			{
				"x": 4.2059193496,
				"y": -0.6029230164,
				"z": 0.8108573613,
				"element": "H" 
			},
			{
				"x": -0.153682036,
				"y": -0.9313138237,
				"z": 2.6184289484,
				"element": "H" 
			},
			{
				"x": -2.5036869373,
				"y": -1.3081814962,
				"z": 1.8033133373,
				"element": "H" 
			},
			{
				"x": -0.9861407896,
				"y": -3.616963391,
				"z": -1.4887772977,
				"element": "H" 
			},
			{
				"x": 1.3537847008,
				"y": -3.2706720789,
				"z": -0.651412783,
				"element": "H" 
			},
			{
				"x": -3.2215992355,
				"y": -1.3715243891,
				"z": -2.4191673682,
				"element": "H" 
			},
			{
				"x": -3.7805898491,
				"y": -0.4371225699,
				"z": -1.1200118842,
				"element": "H" 
			}
		],
		 "valence_orbital": [ 
			{
				"type": "occ",
				"energy": -0.30388,
				"method": "rhf"
			},
			{
				"type": "occ",
				"energy": -0.29477,
				"method": "rhf"
			},
			{
				"type": "occ",
				"energy": -0.28841,
				"method": "rhf"
			},
			{
				"type": "occ",
				"energy": -0.2834,
				"method": "rhf"
			},
			{
				"type": "occ",
				"energy": -0.24699,
				"method": "rhf"
			},
			{
				"type": "unocc",
				"energy": -0.06754,
				"method": "rhf"
			},
			{
				"type": "unocc",
				"energy": -0.03958,
				"method": "rhf"
			},
			{
				"type": "unocc",
				"energy": 0.03426,
				"method": "rhf"
			},
			{
				"type": "unocc",
				"energy": 0.05035,
				"method": "rhf"
			},
			{
				"type": "unocc",
				"energy": 0.05282,
				"method": "rhf"
			}
		],
		"cosmo_sigma_profile": { 
			"-0.025": 0.0,
			"-0.024": 0.0,
			"-0.023": 0.0,
			"-0.022": 0.0,
			"-0.021": 0.0,
			"-0.02": 0.0,
			"-0.019": 0.0,
			"-0.018": 0.0,
			"-0.017": 0.0,
			"-0.016": 0.0859645133175,
			"-0.015": 0.744673309606,
			"-0.014": 1.37116598965,
			"-0.013": 2.51322926995,
			"-0.012": 2.0057977817,
			"-0.011": 2.18307114022,
			"-0.01": 2.88564766782,
			"-0.009": 4.99505300378,
			"-0.008": 12.5921200254,
			"-0.007": 16.5744099323,
			"-0.006": 15.3176020712,
			"-0.005": 15.3899959688,
			"-0.004": 18.185532682,
			"-0.003": 24.6319985384,
			"-0.002": 36.4562377937,
			"-0.001": 31.2295785434,
			"0.0": 31.6548337983,
			"0.001": 27.4301244289,
			"0.002": 14.1606397733,
			"0.003": 7.93894604881,
			"0.004": 6.20376973519,
			"0.005": 6.60542410806,
			"0.006": 6.06412515304,
			"0.007": 8.23808948281,
			"0.008": 8.12694095536,
			"0.009": 9.19296535779,
			"0.01": 13.5882141785,
			"0.011": 17.4640100622,
			"0.012": 9.36960869704,
			"0.013": 0.605629411499,
			"0.014": 0.0,
			"0.015": 0.0,
			"0.016": 0.0,
			"0.017": 0.0,
			"0.018": 0.0,
			"0.019": 0.0,
			"0.02": 0.0,
			"0.021": 0.0,
			"0.022": 0.0,
			"0.023": 0.0,
			"0.024": 0.0,
			"0.025": 0.0
		}
	}
}
