{
	 "smiles": "CC1CC2=C(C=CC(=C2)C(O)=O)N1S(C)(=O)=O", 
	 "Tm": 468.15, 
	 "num_atms": 30, 
	 "gaussian": { 
		 "optdone": 1, 
		 "sigma_profile": "yes", 
		 "theory": "DFT", 
		 "functional": "B3LYP", 
		 "basiset": "6-31G**", 
		 "properties": { 
			 "R2extent": 5880.9365, 
			 "electric_dipole_moment_norm": 5.99851093689, 
			 "electric_quadrupole_moment_norm": 34.2346838215, 
			 "total_energy": -1180.79054524, 
			 "HOMO_LUMO_gap": 0.18573, 
			 "cosmo_polarized_energy": -23.82, 
			 "cosmo_cavitation_energy": 34.8, 
			 "cosmo_dispersion_energy": -24.97, 
			 "cosmo_repulsion_energy": 1.86, 
			 "cosmo_total_nonelectrostatic_energy": 11.69, 
			 "SMD_solvation_energy": 6.08 
		},
		"coords": [
			{
				"x": 1.0482821027,
				"y": -2.8772263857,
				"z": 1.0038743121,
				"element": "C" 
			},
			{
				"x": 0.6733679069,
				"y": -2.3082779199,
				"z": -0.3612576137,
				"element": "C" 
			},
			{
				"x": 1.7597681694,
				"y": -1.3681341141,
				"z": -0.9524156722,
				"element": "C" 
			},
			{
				"x": 0.9965933521,
				"y": -0.1690866061,
				"z": -1.456983514,
				"element": "C" 
			},
			{
				"x": -0.3423739565,
				"y": -0.2441347787,
				"z": -1.0451625345,
				"element": "C" 
			},
			{
				"x": -1.2390636605,
				"y": 0.7927821262,
				"z": -1.3227498984,
				"element": "C" 
			},
			{
				"x": -0.7696828926,
				"y": 1.894765432,
				"z": -2.0331956589,
				"element": "C" 
			},
			{
				"x": 0.5580182984,
				"y": 1.9759041916,
				"z": -2.476629211,
				"element": "C" 
			},
			{
				"x": 1.4481133501,
				"y": 0.9309085604,
				"z": -2.1686241471,
				"element": "C" 
			},
			{
				"x": 0.9670207343,
				"y": 3.2021324501,
				"z": -3.2263130908,
				"element": "C" 
			},
			{
				"x": 2.0960031922,
				"y": 3.1080026855,
				"z": -3.9851403579,
				"element": "O" 
			},
			{
				"x": 0.3569519724,
				"y": 4.2455660776,
				"z": -3.1870647149,
				"element": "O" 
			},
			{
				"x": -0.5504390457,
				"y": -1.4304547769,
				"z": -0.3030100771,
				"element": "N" 
			},
			{
				"x": -2.0823763777,
				"y": -2.1639881009,
				"z": -0.1367296398,
				"element": "S" 
			},
			{
				"x": -2.5837831376,
				"y": -1.6115534088,
				"z": 1.5013582162,
				"element": "C" 
			},
			{
				"x": -3.0123954948,
				"y": -1.5823758291,
				"z": -1.1047438673,
				"element": "O" 
			},
			{
				"x": -1.8493233113,
				"y": -3.6082946932,
				"z": -0.0841725015,
				"element": "O" 
			},
			{
				"x": 1.2105767735,
				"y": -2.071198568,
				"z": 1.7273135448,
				"element": "H" 
			},
			{
				"x": 1.9773099956,
				"y": -3.450805505,
				"z": 0.9182550335,
				"element": "H" 
			},
			{
				"x": 0.2746847349,
				"y": -3.5508784031,
				"z": 1.3784027709,
				"element": "H" 
			},
			{
				"x": 0.4668372688,
				"y": -3.13127359,
				"z": -1.0520301444,
				"element": "H" 
			},
			{
				"x": 2.3362015881,
				"y": -1.870245705,
				"z": -1.7358935024,
				"element": "H" 
			},
			{
				"x": 2.4702111398,
				"y": -1.0735346454,
				"z": -0.1692001116,
				"element": "H" 
			},
			{
				"x": -2.2780542718,
				"y": 0.7346442297,
				"z": -1.0267301248,
				"element": "H" 
			},
			{
				"x": -1.4351775656,
				"y": 2.7194512897,
				"z": -2.2640300669,
				"element": "H" 
			},
			{
				"x": 2.4990423593,
				"y": 0.9884300129,
				"z": -2.4445992026,
				"element": "H" 
			},
			{
				"x": 2.3620649253,
				"y": 2.1821860342,
				"z": -4.0684190225,
				"element": "H" 
			},
			{
				"x": -3.5756027731,
				"y": -2.0279495985,
				"z": 1.6883047635,
				"element": "H" 
			},
			{
				"x": -2.6207186267,
				"y": -0.5213422929,
				"z": 1.5084648773,
				"element": "H" 
			},
			{
				"x": -1.86585675,
				"y": -1.9824181686,
				"z": 2.232921156,
				"element": "H" 
			}
		],
		 "valence_orbital": [ 
			{
				"type": "occ",
				"energy": -0.31603,
				"method": "rhf"
			},
			{
				"type": "occ",
				"energy": -0.3071,
				"method": "rhf"
			},
			{
				"type": "occ",
				"energy": -0.26979,
				"method": "rhf"
			},
			{
				"type": "occ",
				"energy": -0.26788,
				"method": "rhf"
			},
			{
				"type": "occ",
				"energy": -0.23068,
				"method": "rhf"
			},
			{
				"type": "unocc",
				"energy": -0.04495,
				"method": "rhf"
			},
			{
				"type": "unocc",
				"energy": -0.02525,
				"method": "rhf"
			},
			{
				"type": "unocc",
				"energy": 0.04176,
				"method": "rhf"
			},
			{
				"type": "unocc",
				"energy": 0.04936,
				"method": "rhf"
			},
			{
				"type": "unocc",
				"energy": 0.05715,
				"method": "rhf"
			}
		],
		"cosmo_sigma_profile": { 
			"-0.025": 0.0,
			"-0.024": 0.0,
			"-0.023": 0.0,
			"-0.022": 0.0,
			"-0.021": 0.0,
			"-0.02": 0.0,
			"-0.019": 0.0,
			"-0.018": 0.663025133808,
			"-0.017": 1.1566605138,
			"-0.016": 0.951379508835,
			"-0.015": 0.77752129274,
			"-0.014": 1.16404764498,
			"-0.013": 1.0614578564,
			"-0.012": 0.771252202624,
			"-0.011": 1.30169698024,
			"-0.01": 1.32653629461,
			"-0.009": 3.98979108392,
			"-0.008": 6.24698371185,
			"-0.007": 7.73697224049,
			"-0.006": 12.2593560905,
			"-0.005": 24.208183762,
			"-0.004": 30.4223425919,
			"-0.003": 23.6831461428,
			"-0.002": 17.6506653727,
			"-0.001": 14.8772979835,
			"0.0": 15.1240132372,
			"0.001": 11.8957265935,
			"0.002": 11.5772571679,
			"0.003": 15.3546849662,
			"0.004": 8.36759164626,
			"0.005": 5.36117716003,
			"0.006": 4.72193655538,
			"0.007": 5.38206702219,
			"0.008": 6.86523718511,
			"0.009": 7.30100547751,
			"0.01": 11.2624131509,
			"0.011": 12.8483671225,
			"0.012": 6.62087498384,
			"0.013": 2.3206171381,
			"0.014": 0.367802227674,
			"0.015": 0.0,
			"0.016": 0.0,
			"0.017": 0.0,
			"0.018": 0.0,
			"0.019": 0.0,
			"0.02": 0.0,
			"0.021": 0.0,
			"0.022": 0.0,
			"0.023": 0.0,
			"0.024": 0.0,
			"0.025": 0.0
		}
	}
}
