{
	 "smiles": "CCCC1=NNC(=C1)C(O)=O", 
	 "Tm": 443.15, 
	 "num_atms": 21, 
	 "gaussian": { 
		 "optdone": 1, 
		 "sigma_profile": "yes", 
		 "theory": "DFT", 
		 "functional": "B3LYP", 
		 "basiset": "6-31G**", 
		 "properties": { 
			 "R2extent": 2458.9577, 
			 "electric_dipole_moment_norm": 3.51342795856, 
			 "electric_quadrupole_moment_norm": 9.57484511363, 
			 "total_energy": -532.722712377, 
			 "HOMO_LUMO_gap": 0.21111, 
			 "cosmo_polarized_energy": -15.29, 
			 "cosmo_cavitation_energy": 25.25, 
			 "cosmo_dispersion_energy": -18.25, 
			 "cosmo_repulsion_energy": 1.51, 
			 "cosmo_total_nonelectrostatic_energy": 8.5, 
			 "SMD_solvation_energy": 4.45 
		},
		"coords": [
			{
				"x": 0.9468183733,
				"y": 3.4731118349,
				"z": -0.4075794194,
				"element": "C" 
			},
			{
				"x": 2.2070530802,
				"y": 2.6057873554,
				"z": -0.341597413,
				"element": "C" 
			},
			{
				"x": 1.9726499784,
				"y": 1.1283008875,
				"z": -0.724430292,
				"element": "C" 
			},
			{
				"x": 1.0833442451,
				"y": 0.3854884998,
				"z": 0.2333550337,
				"element": "C" 
			},
			{
				"x": 1.5603052385,
				"y": -0.0369563007,
				"z": 1.4159729112,
				"element": "N" 
			},
			{
				"x": 0.5246305138,
				"y": -0.6275459877,
				"z": 2.0187537906,
				"element": "N" 
			},
			{
				"x": -0.6139016327,
				"y": -0.6122635243,
				"z": 1.2766198955,
				"element": "C" 
			},
			{
				"x": -0.2822540129,
				"y": 0.0466474146,
				"z": 0.0973220239,
				"element": "C" 
			},
			{
				"x": -1.8257955429,
				"y": -1.2425530071,
				"z": 1.8318243162,
				"element": "C" 
			},
			{
				"x": -2.939852676,
				"y": -1.2087221352,
				"z": 1.0632145874,
				"element": "O" 
			},
			{
				"x": -1.837292619,
				"y": -1.7689225485,
				"z": 2.9231953918,
				"element": "O" 
			},
			{
				"x": 1.1670024634,
				"y": 4.5089643538,
				"z": -0.1305422248,
				"element": "H" 
			},
			{
				"x": 0.5248604318,
				"y": 3.4834291677,
				"z": -1.4197574175,
				"element": "H" 
			},
			{
				"x": 0.1715672954,
				"y": 3.1052886769,
				"z": 0.2726310921,
				"element": "H" 
			},
			{
				"x": 2.6299924374,
				"y": 2.6392193519,
				"z": 0.6693250449,
				"element": "H" 
			},
			{
				"x": 2.9701870228,
				"y": 3.0172354008,
				"z": -1.0137893613,
				"element": "H" 
			},
			{
				"x": 2.9393379861,
				"y": 0.6148290495,
				"z": -0.7672304986,
				"element": "H" 
			},
			{
				"x": 1.5379204192,
				"y": 1.07388246,
				"z": -1.729909651,
				"element": "H" 
			},
			{
				"x": 0.6138377645,
				"y": -1.0481349503,
				"z": 2.9334846974,
				"element": "H" 
			},
			{
				"x": -0.9179656972,
				"y": 0.2588949221,
				"z": -0.7514444969,
				"element": "H" 
			},
			{
				"x": -2.7617450693,
				"y": -0.7543809211,
				"z": 0.2275819901,
				"element": "H" 
			}
		],
		 "valence_orbital": [ 
			{
				"type": "occ",
				"energy": -0.327,
				"method": "rhf"
			},
			{
				"type": "occ",
				"energy": -0.30182,
				"method": "rhf"
			},
			{
				"type": "occ",
				"energy": -0.28817,
				"method": "rhf"
			},
			{
				"type": "occ",
				"energy": -0.27216,
				"method": "rhf"
			},
			{
				"type": "occ",
				"energy": -0.26045,
				"method": "rhf"
			},
			{
				"type": "unocc",
				"energy": -0.04934,
				"method": "rhf"
			},
			{
				"type": "unocc",
				"energy": 0.0314,
				"method": "rhf"
			},
			{
				"type": "unocc",
				"energy": 0.04717,
				"method": "rhf"
			},
			{
				"type": "unocc",
				"energy": 0.08998,
				"method": "rhf"
			},
			{
				"type": "unocc",
				"energy": 0.09548,
				"method": "rhf"
			}
		],
		"cosmo_sigma_profile": { 
			"-0.025": 0.0,
			"-0.024": 0.0,
			"-0.023": 0.0,
			"-0.022": 0.0,
			"-0.021": 0.0,
			"-0.02": 0.0,
			"-0.019": 0.526894398769,
			"-0.018": 0.993332898535,
			"-0.017": 1.56728228384,
			"-0.016": 2.1508074376,
			"-0.015": 0.94568976417,
			"-0.014": 2.18570975822,
			"-0.013": 1.84236642255,
			"-0.012": 1.54129375854,
			"-0.011": 2.60190808172,
			"-0.01": 1.53064738889,
			"-0.009": 2.32862195917,
			"-0.008": 2.07980017125,
			"-0.007": 2.67276279427,
			"-0.006": 2.65966512877,
			"-0.005": 3.37771657039,
			"-0.004": 8.70420978771,
			"-0.003": 13.8214846358,
			"-0.002": 20.3769583785,
			"-0.001": 20.148501372,
			"0.0": 23.9530975273,
			"0.001": 20.0349436609,
			"0.002": 11.9001434716,
			"0.003": 6.60744401625,
			"0.004": 5.33953165002,
			"0.005": 4.10396957262,
			"0.006": 3.42768187048,
			"0.007": 4.31406587941,
			"0.008": 3.6495758365,
			"0.009": 4.14943704257,
			"0.01": 6.04221141579,
			"0.011": 5.73371187001,
			"0.012": 4.33508822472,
			"0.013": 1.57345503517,
			"0.014": 0.844031445841,
			"0.015": 0.758345486762,
			"0.016": 0.0986418573022,
			"0.017": 0.0,
			"0.018": 0.0,
			"0.019": 0.0,
			"0.02": 0.0,
			"0.021": 0.0,
			"0.022": 0.0,
			"0.023": 0.0,
			"0.024": 0.0,
			"0.025": 0.0
		}
	}
}
