{
	 "smiles": "CC(C)N1CCCC(Br)C1=O", 
	 "Tm": 326.15, 
	 "num_atms": 25, 
	 "gaussian": { 
		 "optdone": 1, 
		 "sigma_profile": "yes", 
		 "theory": "DFT", 
		 "functional": "B3LYP", 
		 "basiset": "6-31G**", 
		 "properties": { 
			 "R2extent": 3539.7743, 
			 "electric_dipole_moment_norm": 5.07646044602, 
			 "electric_quadrupole_moment_norm": 8.30568171434, 
			 "total_energy": -3014.69389875, 
			 "HOMO_LUMO_gap": 0.22626, 
			 "cosmo_polarized_energy": -12.56, 
			 "cosmo_cavitation_energy": 27.91, 
			 "cosmo_dispersion_energy": -20.46, 
			 "cosmo_repulsion_energy": 1.66, 
			 "cosmo_total_nonelectrostatic_energy": 9.1, 
			 "SMD_solvation_energy": 3.47 
		},
		"coords": [
			{
				"x": -1.5329699403,
				"y": -0.858034828,
				"z": -2.2941686783,
				"element": "C" 
			},
			{
				"x": -0.1443518977,
				"y": -1.0938063439,
				"z": -1.6842502245,
				"element": "C" 
			},
			{
				"x": 0.2425543855,
				"y": -2.5783833325,
				"z": -1.6407032358,
				"element": "C" 
			},
			{
				"x": 0.0001397103,
				"y": -0.4313024978,
				"z": -0.3585119714,
				"element": "N" 
			},
			{
				"x": 1.0101071132,
				"y": 0.6341180164,
				"z": -0.2897631656,
				"element": "C" 
			},
			{
				"x": 0.8620498207,
				"y": 1.5182160137,
				"z": 0.9430893959,
				"element": "C" 
			},
			{
				"x": 0.7458352715,
				"y": 0.6444462112,
				"z": 2.191719735,
				"element": "C" 
			},
			{
				"x": -0.516267383,
				"y": -0.1981004586,
				"z": 2.0664414315,
				"element": "C" 
			},
			{
				"x": -0.5704022818,
				"y": -1.5541999815,
				"z": 3.5091685278,
				"element": "Br" 
			},
			{
				"x": -0.7350828668,
				"y": -0.8908259431,
				"z": 0.7034748812,
				"element": "C" 
			},
			{
				"x": -1.5799100284,
				"y": -1.7713716395,
				"z": 0.5913072467,
				"element": "O" 
			},
			{
				"x": -1.5625389284,
				"y": -1.2573934653,
				"z": -3.3134241666,
				"element": "H" 
			},
			{
				"x": -1.7603206438,
				"y": 0.2120622258,
				"z": -2.3432562641,
				"element": "H" 
			},
			{
				"x": -2.3010778465,
				"y": -1.3527979694,
				"z": -1.6986929457,
				"element": "H" 
			},
			{
				"x": 0.5883294302,
				"y": -0.5842970863,
				"z": -2.320341706,
				"element": "H" 
			},
			{
				"x": 1.2463376005,
				"y": -2.7067661193,
				"z": -1.2225874715,
				"element": "H" 
			},
			{
				"x": -0.4639330725,
				"y": -3.1457228081,
				"z": -1.0341248,
				"element": "H" 
			},
			{
				"x": 0.2448783895,
				"y": -2.9864124732,
				"z": -2.6569378485,
				"element": "H" 
			},
			{
				"x": 0.918424766,
				"y": 1.2430568947,
				"z": -1.1965261005,
				"element": "H" 
			},
			{
				"x": 2.0169338395,
				"y": 0.1884493853,
				"z": -0.3067405742,
				"element": "H" 
			},
			{
				"x": 1.7283765575,
				"y": 2.1846026887,
				"z": 1.011137259,
				"element": "H" 
			},
			{
				"x": -0.0269384525,
				"y": 2.153954546,
				"z": 0.8425159021,
				"element": "H" 
			},
			{
				"x": 0.7070118124,
				"y": 1.2426420743,
				"z": 3.1064410746,
				"element": "H" 
			},
			{
				"x": 1.6213026419,
				"y": -0.0102485121,
				"z": 2.2709657601,
				"element": "H" 
			},
			{
				"x": -1.4070879971,
				"y": 0.4066154024,
				"z": 2.2527679389,
				"element": "H" 
			}
		],
		 "valence_orbital": [ 
			{
				"type": "occ",
				"energy": -0.33345,
				"method": "rhf"
			},
			{
				"type": "occ",
				"energy": -0.27014,
				"method": "rhf"
			},
			{
				"type": "occ",
				"energy": -0.26514,
				"method": "rhf"
			},
			{
				"type": "occ",
				"energy": -0.24398,
				"method": "rhf"
			},
			{
				"type": "occ",
				"energy": -0.24175,
				"method": "rhf"
			},
			{
				"type": "unocc",
				"energy": -0.01549,
				"method": "rhf"
			},
			{
				"type": "unocc",
				"energy": 0.03376,
				"method": "rhf"
			},
			{
				"type": "unocc",
				"energy": 0.07423,
				"method": "rhf"
			},
			{
				"type": "unocc",
				"energy": 0.0986,
				"method": "rhf"
			},
			{
				"type": "unocc",
				"energy": 0.10705,
				"method": "rhf"
			}
		],
		"cosmo_sigma_profile": { 
			"-0.025": 0.0,
			"-0.024": 0.0,
			"-0.023": 0.0,
			"-0.022": 0.0,
			"-0.021": 0.0,
			"-0.02": 0.0,
			"-0.019": 0.0,
			"-0.018": 0.0,
			"-0.017": 0.0,
			"-0.016": 0.0,
			"-0.015": 0.0,
			"-0.014": 0.0,
			"-0.013": 0.0,
			"-0.012": 0.0,
			"-0.011": 0.0,
			"-0.01": 0.0,
			"-0.009": 0.105758832525,
			"-0.008": 2.30500695024,
			"-0.007": 3.25401766764,
			"-0.006": 3.84321055023,
			"-0.005": 14.665793929,
			"-0.004": 26.3523534971,
			"-0.003": 30.7535956779,
			"-0.002": 23.0271373739,
			"-0.001": 19.3146931717,
			"0.0": 17.2583799361,
			"0.001": 18.2023633036,
			"0.002": 10.6258259958,
			"0.003": 6.18365432802,
			"0.004": 5.40078994188,
			"0.005": 7.9878802496,
			"0.006": 10.6083773421,
			"0.007": 3.39786781005,
			"0.008": 2.33123754143,
			"0.009": 1.93301659119,
			"0.01": 1.9118313842,
			"0.011": 1.82619538584,
			"0.012": 1.89900599005,
			"0.013": 2.34819056314,
			"0.014": 3.01579857362,
			"0.015": 1.61258375614,
			"0.016": 0.0399848350588,
			"0.017": 0.0,
			"0.018": 0.0,
			"0.019": 0.0,
			"0.02": 0.0,
			"0.021": 0.0,
			"0.022": 0.0,
			"0.023": 0.0,
			"0.024": 0.0,
			"0.025": 0.0
		}
	}
}
