{
	 "smiles": "NC1=NC(C2CC2)=C(CC2=C(Cl)C=CC=C2)S1", 
	 "Tm": 401.15, 
	 "num_atms": 30, 
	 "gaussian": { 
		 "optdone": 1, 
		 "sigma_profile": "yes", 
		 "theory": "DFT", 
		 "functional": "B3LYP", 
		 "basiset": "6-31G**", 
		 "properties": { 
			 "R2extent": 6765.5285, 
			 "electric_dipole_moment_norm": 2.88969745994, 
			 "electric_quadrupole_moment_norm": 10.1475662461, 
			 "total_energy": -1471.07800252, 
			 "HOMO_LUMO_gap": 0.18989, 
			 "cosmo_polarized_energy": -11.54, 
			 "cosmo_cavitation_energy": 36.88, 
			 "cosmo_dispersion_energy": -26.38, 
			 "cosmo_repulsion_energy": 2.05, 
			 "cosmo_total_nonelectrostatic_energy": 12.56, 
			 "SMD_solvation_energy": 3.84 
		},
		"coords": [
			{
				"x": 1.9057281937,
				"y": -1.2367103592,
				"z": 2.9740760795,
				"element": "N" 
			},
			{
				"x": 1.2063681122,
				"y": -1.1931179117,
				"z": 1.7884069202,
				"element": "C" 
			},
			{
				"x": -0.0685402436,
				"y": -0.9526462182,
				"z": 1.7088097634,
				"element": "N" 
			},
			{
				"x": -0.5185786011,
				"y": -1.0470327444,
				"z": 0.3993906823,
				"element": "C" 
			},
			{
				"x": -1.9568226088,
				"y": -0.8008096019,
				"z": 0.1355840029,
				"element": "C" 
			},
			{
				"x": -2.71643252,
				"y": 0.2085329831,
				"z": 0.9777512362,
				"element": "C" 
			},
			{
				"x": -2.9966460637,
				"y": -1.2567195213,
				"z": 1.1433679807,
				"element": "C" 
			},
			{
				"x": 0.4243103072,
				"y": -1.3598916619,
				"z": -0.5436812939,
				"element": "C" 
			},
			{
				"x": 0.2872657609,
				"y": -1.545808963,
				"z": -2.0263980402,
				"element": "C" 
			},
			{
				"x": 0.6488598011,
				"y": -0.3476755182,
				"z": -2.8994033278,
				"element": "C" 
			},
			{
				"x": 0.7547869438,
				"y": -0.4713882243,
				"z": -4.293412086,
				"element": "C" 
			},
			{
				"x": 0.472270939,
				"y": -2.0363924558,
				"z": -5.0642764303,
				"element": "Cl" 
			},
			{
				"x": 1.0713885731,
				"y": 0.6083477928,
				"z": -5.1161770799,
				"element": "C" 
			},
			{
				"x": 1.2891781896,
				"y": 1.8621855597,
				"z": -4.5459114198,
				"element": "C" 
			},
			{
				"x": 1.1845071158,
				"y": 2.0198376807,
				"z": -3.1645371649,
				"element": "C" 
			},
			{
				"x": 0.8680582554,
				"y": 0.9258795708,
				"z": -2.3592774398,
				"element": "C" 
			},
			{
				"x": 1.9907178284,
				"y": -1.5629623384,
				"z": 0.2527882614,
				"element": "S" 
			},
			{
				"x": 2.8830943229,
				"y": -0.9850796621,
				"z": 2.9381043621,
				"element": "H" 
			},
			{
				"x": 1.4009062434,
				"y": -0.817146034,
				"z": 3.7440164774,
				"element": "H" 
			},
			{
				"x": -2.243701636,
				"y": -0.8583303422,
				"z": -0.9095903178,
				"element": "H" 
			},
			{
				"x": -2.156046893,
				"y": 0.701103945,
				"z": 1.7652791667,
				"element": "H" 
			},
			{
				"x": -3.4522536592,
				"y": 0.8294125393,
				"z": 0.475412101,
				"element": "H" 
			},
			{
				"x": -2.6226680629,
				"y": -1.7385799285,
				"z": 2.0405249856,
				"element": "H" 
			},
			{
				"x": -3.9284674312,
				"y": -1.6589875892,
				"z": 0.7571593863,
				"element": "H" 
			},
			{
				"x": 0.8878188902,
				"y": -2.4040847445,
				"z": -2.3489429831,
				"element": "H" 
			},
			{
				"x": -0.7473826098,
				"y": -1.837584949,
				"z": -2.2462204012,
				"element": "H" 
			},
			{
				"x": 1.143819144,
				"y": 0.4614923015,
				"z": -6.1882386252,
				"element": "H" 
			},
			{
				"x": 1.5370067779,
				"y": 2.7063884747,
				"z": -5.182319811,
				"element": "H" 
			},
			{
				"x": 1.3486728284,
				"y": 2.9927633989,
				"z": -2.7109600209,
				"element": "H" 
			},
			{
				"x": 0.7839821023,
				"y": 1.0481045212,
				"z": -1.2843249637,
				"element": "H" 
			}
		],
		 "valence_orbital": [ 
			{
				"type": "occ",
				"energy": -0.2707,
				"method": "rhf"
			},
			{
				"type": "occ",
				"energy": -0.26086,
				"method": "rhf"
			},
			{
				"type": "occ",
				"energy": -0.25137,
				"method": "rhf"
			},
			{
				"type": "occ",
				"energy": -0.24112,
				"method": "rhf"
			},
			{
				"type": "occ",
				"energy": -0.19948,
				"method": "rhf"
			},
			{
				"type": "unocc",
				"energy": -0.00959,
				"method": "rhf"
			},
			{
				"type": "unocc",
				"energy": -0.00674,
				"method": "rhf"
			},
			{
				"type": "unocc",
				"energy": -0.0029,
				"method": "rhf"
			},
			{
				"type": "unocc",
				"energy": 0.01148,
				"method": "rhf"
			},
			{
				"type": "unocc",
				"energy": 0.03392,
				"method": "rhf"
			}
		],
		"cosmo_sigma_profile": { 
			"-0.025": 0.0,
			"-0.024": 0.0,
			"-0.023": 0.0,
			"-0.022": 0.0,
			"-0.021": 0.0,
			"-0.02": 0.0,
			"-0.019": 0.0,
			"-0.018": 0.0,
			"-0.017": 0.0,
			"-0.016": 0.0,
			"-0.015": 0.308151109511,
			"-0.014": 1.64699145009,
			"-0.013": 2.7960602348,
			"-0.012": 2.22887261237,
			"-0.011": 2.59677999885,
			"-0.01": 2.07752965046,
			"-0.009": 2.58738847455,
			"-0.008": 1.20700930485,
			"-0.007": 4.93810990846,
			"-0.006": 9.57210481858,
			"-0.005": 14.0822203533,
			"-0.004": 21.2314152261,
			"-0.003": 19.431401217,
			"-0.002": 20.0609505483,
			"-0.001": 20.3778091374,
			"0.0": 22.4007065657,
			"0.001": 23.7681592442,
			"0.002": 27.3094576134,
			"0.003": 30.0991988198,
			"0.004": 30.0246839991,
			"0.005": 22.6508329582,
			"0.006": 4.54549890401,
			"0.007": 2.93249026832,
			"0.008": 2.91608268287,
			"0.009": 2.23257261947,
			"0.01": 1.24716142724,
			"0.011": 1.48338899492,
			"0.012": 0.833925262913,
			"0.013": 0.314232734215,
			"0.014": 0.0,
			"0.015": 0.0,
			"0.016": 0.0,
			"0.017": 0.0,
			"0.018": 0.0,
			"0.019": 0.0,
			"0.02": 0.0,
			"0.021": 0.0,
			"0.022": 0.0,
			"0.023": 0.0,
			"0.024": 0.0,
			"0.025": 0.0
		}
	}
}
