{
	 "smiles": "CC1=CC(=CN=C1)C(N)=O", 
	 "Tm": 440.15, 
	 "num_atms": 18, 
	 "gaussian": { 
		 "optdone": 1, 
		 "sigma_profile": "yes", 
		 "theory": "DFT", 
		 "functional": "B3LYP", 
		 "basiset": "6-31G**", 
		 "properties": { 
			 "R2extent": 1757.7565, 
			 "electric_dipole_moment_norm": 5.24893901755, 
			 "electric_quadrupole_moment_norm": 8.87124718177, 
			 "total_energy": -456.310102264, 
			 "HOMO_LUMO_gap": 0.20027, 
			 "cosmo_polarized_energy": -15.77, 
			 "cosmo_cavitation_energy": 22.3, 
			 "cosmo_dispersion_energy": -16.48, 
			 "cosmo_repulsion_energy": 1.34, 
			 "cosmo_total_nonelectrostatic_energy": 7.16, 
			 "SMD_solvation_energy": 3.35 
		},
		"coords": [
			{
				"x": 1.9720167066,
				"y": 1.776940738,
				"z": 2.0770591793,
				"element": "C" 
			},
			{
				"x": 0.6363589475,
				"y": 1.2461856269,
				"z": 1.6191330946,
				"element": "C" 
			},
			{
				"x": 0.5274711075,
				"y": 0.0734703852,
				"z": 0.8644112408,
				"element": "C" 
			},
			{
				"x": -0.7318645648,
				"y": -0.3889936772,
				"z": 0.4738475437,
				"element": "C" 
			},
			{
				"x": -1.8552430601,
				"y": 0.348720357,
				"z": 0.8759529371,
				"element": "C" 
			},
			{
				"x": -1.7792098036,
				"y": 1.4745190932,
				"z": 1.5878690155,
				"element": "N" 
			},
			{
				"x": -0.5594318654,
				"y": 1.899999296,
				"z": 1.9411403261,
				"element": "C" 
			},
			{
				"x": -0.9600161567,
				"y": -1.6388830255,
				"z": -0.3255177454,
				"element": "C" 
			},
			{
				"x": 0.1210421027,
				"y": -2.1102076187,
				"z": -1.0343802505,
				"element": "N" 
			},
			{
				"x": -2.0385181753,
				"y": -2.2175019094,
				"z": -0.3274549754,
				"element": "O" 
			},
			{
				"x": 2.4825282842,
				"y": 1.0605908667,
				"z": 2.7306788903,
				"element": "H" 
			},
			{
				"x": 2.6375612491,
				"y": 1.9732936177,
				"z": 1.2289273955,
				"element": "H" 
			},
			{
				"x": 1.8564374646,
				"y": 2.7111086669,
				"z": 2.6332343003,
				"element": "H" 
			},
			{
				"x": 1.4244998575,
				"y": -0.488393383,
				"z": 0.6135615642,
				"element": "H" 
			},
			{
				"x": -2.844697105,
				"y": -0.0041272863,
				"z": 0.5980203555,
				"element": "H" 
			},
			{
				"x": -0.5268070706,
				"y": 2.8192788258,
				"z": 2.5257280247,
				"element": "H" 
			},
			{
				"x": -0.0776457156,
				"y": -2.8787527057,
				"z": -1.6592447859,
				"element": "H" 
			},
			{
				"x": 0.8631177974,
				"y": -1.4846478675,
				"z": -1.3072661105,
				"element": "H" 
			}
		],
		 "valence_orbital": [ 
			{
				"type": "occ",
				"energy": -0.28982,
				"method": "rhf"
			},
			{
				"type": "occ",
				"energy": -0.27887,
				"method": "rhf"
			},
			{
				"type": "occ",
				"energy": -0.26713,
				"method": "rhf"
			},
			{
				"type": "occ",
				"energy": -0.25813,
				"method": "rhf"
			},
			{
				"type": "occ",
				"energy": -0.24788,
				"method": "rhf"
			},
			{
				"type": "unocc",
				"energy": -0.04761,
				"method": "rhf"
			},
			{
				"type": "unocc",
				"energy": -0.02528,
				"method": "rhf"
			},
			{
				"type": "unocc",
				"energy": 0.0484,
				"method": "rhf"
			},
			{
				"type": "unocc",
				"energy": 0.07274,
				"method": "rhf"
			},
			{
				"type": "unocc",
				"energy": 0.09943,
				"method": "rhf"
			}
		],
		"cosmo_sigma_profile": { 
			"-0.025": 0.0,
			"-0.024": 0.0,
			"-0.023": 0.0,
			"-0.022": 0.0,
			"-0.021": 0.0,
			"-0.02": 0.0,
			"-0.019": 0.0,
			"-0.018": 0.0,
			"-0.017": 0.0,
			"-0.016": 0.0,
			"-0.015": 0.211237402727,
			"-0.014": 1.85062320723,
			"-0.013": 2.38574038767,
			"-0.012": 2.83679248315,
			"-0.011": 2.35605725307,
			"-0.01": 3.28003498974,
			"-0.009": 2.4922489335,
			"-0.008": 2.12324212248,
			"-0.007": 2.85165227455,
			"-0.006": 6.84234691201,
			"-0.005": 10.4206086855,
			"-0.004": 13.0537326721,
			"-0.003": 11.7546284037,
			"-0.002": 12.5906471928,
			"-0.001": 16.7909328172,
			"0.0": 13.7867131255,
			"0.001": 14.8577007602,
			"0.002": 10.226064706,
			"0.003": 5.17600830309,
			"0.004": 5.29294940549,
			"0.005": 4.47924744943,
			"0.006": 2.71746976398,
			"0.007": 3.48359735164,
			"0.008": 3.49494742717,
			"0.009": 2.46825493355,
			"0.01": 1.86573099758,
			"0.011": 2.61614802339,
			"0.012": 3.80335862831,
			"0.013": 5.86215552366,
			"0.014": 3.47727026243,
			"0.015": 0.943798804251,
			"0.016": 0.74572703947,
			"0.017": 0.173368978496,
			"0.018": 0.0,
			"0.019": 0.0,
			"0.02": 0.0,
			"0.021": 0.0,
			"0.022": 0.0,
			"0.023": 0.0,
			"0.024": 0.0,
			"0.025": 0.0
		}
	}
}
