{
	 "smiles": "ClC1=C(Cl)C2=C(C=CC(=O)N2)C=C1", 
	 "Tm": 515.15, 
	 "num_atms": 18, 
	 "gaussian": { 
		 "optdone": 1, 
		 "sigma_profile": "yes", 
		 "theory": "DFT", 
		 "functional": "B3LYP", 
		 "basiset": "6-31G**", 
		 "properties": { 
			 "R2extent": 3203.2757, 
			 "electric_dipole_moment_norm": 3.88789036239, 
			 "electric_quadrupole_moment_norm": 15.4816570789, 
			 "total_energy": -1396.34989088, 
			 "HOMO_LUMO_gap": 0.16291, 
			 "cosmo_polarized_energy": -11.23, 
			 "cosmo_cavitation_energy": 25.91, 
			 "cosmo_dispersion_energy": -19.75, 
			 "cosmo_repulsion_energy": 1.53, 
			 "cosmo_total_nonelectrostatic_energy": 7.7, 
			 "SMD_solvation_energy": 4.37 
		},
		"coords": [
			{
				"x": -2.5013379455,
				"y": -1.1783021637,
				"z": -1.5712087378,
				"element": "Cl" 
			},
			{
				"x": -0.9499817464,
				"y": -0.6248284893,
				"z": -0.9991725201,
				"element": "C" 
			},
			{
				"x": -0.6978924663,
				"y": -0.4860017868,
				"z": 0.3658954991,
				"element": "C" 
			},
			{
				"x": -1.9149598371,
				"y": -0.856988697,
				"z": 1.5635616382,
				"element": "Cl" 
			},
			{
				"x": 0.5679724594,
				"y": -0.035496752,
				"z": 0.8016479725,
				"element": "C" 
			},
			{
				"x": 1.5696821239,
				"y": 0.2709924152,
				"z": -0.1540755913,
				"element": "C" 
			},
			{
				"x": 2.846398414,
				"y": 0.7273339084,
				"z": 0.3368150403,
				"element": "C" 
			},
			{
				"x": 3.0966771693,
				"y": 0.8640345379,
				"z": 1.6602966928,
				"element": "C" 
			},
			{
				"x": 2.0824572285,
				"y": 0.5554652468,
				"z": 2.6690321229,
				"element": "C" 
			},
			{
				"x": 2.229356194,
				"y": 0.6522128692,
				"z": 3.8800659451,
				"element": "O" 
			},
			{
				"x": 0.8611759691,
				"y": 0.1162809808,
				"z": 2.1353005666,
				"element": "N" 
			},
			{
				"x": 1.2812206566,
				"y": 0.1196189104,
				"z": -1.5202702511,
				"element": "C" 
			},
			{
				"x": 0.0407007704,
				"y": -0.3217835506,
				"z": -1.9459205597,
				"element": "C" 
			},
			{
				"x": 3.6158268119,
				"y": 0.9627880824,
				"z": -0.394483584,
				"element": "H" 
			},
			{
				"x": 4.0528704987,
				"y": 1.2061646098,
				"z": 2.0382502279,
				"element": "H" 
			},
			{
				"x": 0.1497563677,
				"y": -0.1010806904,
				"z": 2.8233753254,
				"element": "H" 
			},
			{
				"x": 2.0505311345,
				"y": 0.3551447797,
				"z": -2.2496327729,
				"element": "H" 
			},
			{
				"x": -0.1833538027,
				"y": -0.439054211,
				"z": -2.9992770139,
				"element": "H" 
			}
		],
		 "valence_orbital": [ 
			{
				"type": "occ",
				"energy": -0.32459,
				"method": "rhf"
			},
			{
				"type": "occ",
				"energy": -0.30719,
				"method": "rhf"
			},
			{
				"type": "occ",
				"energy": -0.2627,
				"method": "rhf"
			},
			{
				"type": "occ",
				"energy": -0.25561,
				"method": "rhf"
			},
			{
				"type": "occ",
				"energy": -0.23464,
				"method": "rhf"
			},
			{
				"type": "unocc",
				"energy": -0.07173,
				"method": "rhf"
			},
			{
				"type": "unocc",
				"energy": -0.02928,
				"method": "rhf"
			},
			{
				"type": "unocc",
				"energy": -0.01163,
				"method": "rhf"
			},
			{
				"type": "unocc",
				"energy": -0.00547,
				"method": "rhf"
			},
			{
				"type": "unocc",
				"energy": 0.04769,
				"method": "rhf"
			}
		],
		"cosmo_sigma_profile": { 
			"-0.025": 0.0,
			"-0.024": 0.0,
			"-0.023": 0.0,
			"-0.022": 0.0,
			"-0.021": 0.0,
			"-0.02": 0.0,
			"-0.019": 0.0,
			"-0.018": 0.0,
			"-0.017": 0.0,
			"-0.016": 0.0,
			"-0.015": 0.0,
			"-0.014": 0.00207354973217,
			"-0.013": 0.381623531787,
			"-0.012": 0.743387064798,
			"-0.011": 0.692165594813,
			"-0.01": 1.15673318872,
			"-0.009": 2.21349239978,
			"-0.008": 8.09149262892,
			"-0.007": 7.74205117984,
			"-0.006": 9.6228218635,
			"-0.005": 7.29825495917,
			"-0.004": 8.17482651047,
			"-0.003": 11.296499364,
			"-0.002": 16.7017935023,
			"-0.001": 23.5915755489,
			"0.0": 26.5257365707,
			"0.001": 21.7583618702,
			"0.002": 17.888651116,
			"0.003": 16.1149612538,
			"0.004": 11.620591374,
			"0.005": 2.48946335759,
			"0.006": 0.602131941017,
			"0.007": 1.57126672234,
			"0.008": 1.54033896445,
			"0.009": 0.811330858412,
			"0.01": 1.41660023842,
			"0.011": 1.42735459775,
			"0.012": 2.03946739546,
			"0.013": 5.80190950559,
			"0.014": 3.90656460371,
			"0.015": 0.291874760757,
			"0.016": 0.0,
			"0.017": 0.0,
			"0.018": 0.0,
			"0.019": 0.0,
			"0.02": 0.0,
			"0.021": 0.0,
			"0.022": 0.0,
			"0.023": 0.0,
			"0.024": 0.0,
			"0.025": 0.0
		}
	}
}
