{
	 "smiles": "CS(=O)(=O)C1=CC=C(N)C=C1", 
	 "Tm": 406.15, 
	 "num_atms": 20, 
	 "gaussian": { 
		 "optdone": 1, 
		 "sigma_profile": "yes", 
		 "theory": "DFT", 
		 "functional": "B3LYP", 
		 "basiset": "6-31G**", 
		 "properties": { 
			 "R2extent": 2952.0011, 
			 "electric_dipole_moment_norm": 7.34227265498, 
			 "electric_quadrupole_moment_norm": 12.1378439716, 
			 "total_energy": -875.497552907, 
			 "HOMO_LUMO_gap": 0.20376, 
			 "cosmo_polarized_energy": -19.97, 
			 "cosmo_cavitation_energy": 25.22, 
			 "cosmo_dispersion_energy": -19.0, 
			 "cosmo_repulsion_energy": 1.48, 
			 "cosmo_total_nonelectrostatic_energy": 7.7, 
			 "SMD_solvation_energy": 4.1 
		},
		"coords": [
			{
				"x": 2.6415925923,
				"y": -2.5306113658,
				"z": -0.473325233,
				"element": "C" 
			},
			{
				"x": 0.8804897208,
				"y": -2.459325201,
				"z": -0.8891465809,
				"element": "S" 
			},
			{
				"x": 0.1365514915,
				"y": -2.8427121386,
				"z": 0.3223667217,
				"element": "O" 
			},
			{
				"x": 0.7067670948,
				"y": -3.1936546318,
				"z": -2.1535715374,
				"element": "O" 
			},
			{
				"x": 0.5751974497,
				"y": -0.7278159281,
				"z": -1.2049321769,
				"element": "C" 
			},
			{
				"x": 0.1829102422,
				"y": 0.111475494,
				"z": -0.1574456869,
				"element": "C" 
			},
			{
				"x": -0.046121447,
				"y": 1.4590070927,
				"z": -0.4008663017,
				"element": "C" 
			},
			{
				"x": 0.107815792,
				"y": 1.9899676588,
				"z": -1.6978522987,
				"element": "C" 
			},
			{
				"x": -0.1688089703,
				"y": 3.3214811244,
				"z": -1.9502794145,
				"element": "N" 
			},
			{
				"x": 0.4917036439,
				"y": 1.126497596,
				"z": -2.7441893049,
				"element": "C" 
			},
			{
				"x": 0.7206124992,
				"y": -0.2209412644,
				"z": -2.5000967641,
				"element": "C" 
			},
			{
				"x": 2.8256447126,
				"y": -1.9256033286,
				"z": 0.4154937036,
				"element": "H" 
			},
			{
				"x": 3.2259476626,
				"y": -2.1718277584,
				"z": -1.3216804077,
				"element": "H" 
			},
			{
				"x": 2.8675566731,
				"y": -3.5799242201,
				"z": -0.2725202702,
				"element": "H" 
			},
			{
				"x": 0.0414377947,
				"y": -0.3011505476,
				"z": 0.8361050253,
				"element": "H" 
			},
			{
				"x": -0.3615201281,
				"y": 2.1104811436,
				"z": 0.4099032359,
				"element": "H" 
			},
			{
				"x": -0.1583581416,
				"y": 3.9508366987,
				"z": -1.161657869,
				"element": "H" 
			},
			{
				"x": 0.2162727596,
				"y": 3.7192284298,
				"z": -2.7938620201,
				"element": "H" 
			},
			{
				"x": 0.5937451299,
				"y": 1.5198812305,
				"z": -3.7521968359,
				"element": "H" 
			},
			{
				"x": 0.9931634281,
				"y": -0.8894900842,
				"z": -3.3101459845,
				"element": "H" 
			}
		],
		 "valence_orbital": [ 
			{
				"type": "occ",
				"energy": -0.30022,
				"method": "rhf"
			},
			{
				"type": "occ",
				"energy": -0.28424,
				"method": "rhf"
			},
			{
				"type": "occ",
				"energy": -0.27636,
				"method": "rhf"
			},
			{
				"type": "occ",
				"energy": -0.26734,
				"method": "rhf"
			},
			{
				"type": "occ",
				"energy": -0.22408,
				"method": "rhf"
			},
			{
				"type": "unocc",
				"energy": -0.02032,
				"method": "rhf"
			},
			{
				"type": "unocc",
				"energy": -0.01655,
				"method": "rhf"
			},
			{
				"type": "unocc",
				"energy": 0.06066,
				"method": "rhf"
			},
			{
				"type": "unocc",
				"energy": 0.07809,
				"method": "rhf"
			},
			{
				"type": "unocc",
				"energy": 0.09458,
				"method": "rhf"
			}
		],
		"cosmo_sigma_profile": { 
			"-0.025": 0.0,
			"-0.024": 0.0,
			"-0.023": 0.0,
			"-0.022": 0.0,
			"-0.021": 0.0,
			"-0.02": 0.0,
			"-0.019": 0.0,
			"-0.018": 0.0,
			"-0.017": 0.0,
			"-0.016": 0.0,
			"-0.015": 0.0,
			"-0.014": 0.265938341635,
			"-0.013": 2.68757048503,
			"-0.012": 2.84129602177,
			"-0.011": 3.4280654901,
			"-0.01": 2.96377151612,
			"-0.009": 3.39645498805,
			"-0.008": 7.36057401928,
			"-0.007": 10.5023205944,
			"-0.006": 14.0968249117,
			"-0.005": 13.5186242483,
			"-0.004": 14.4467370177,
			"-0.003": 12.1241891767,
			"-0.002": 8.19211254634,
			"-0.001": 6.12572772693,
			"0.0": 7.66226931305,
			"0.001": 8.04447466817,
			"0.002": 8.77936247048,
			"0.003": 12.0038034437,
			"0.004": 15.6329981663,
			"0.005": 5.07169291448,
			"0.006": 3.27034672768,
			"0.007": 3.99175747523,
			"0.008": 2.79758827122,
			"0.009": 3.52491884415,
			"0.01": 4.58794730073,
			"0.011": 7.99615239439,
			"0.012": 10.5246971305,
			"0.013": 4.46633881981,
			"0.014": 0.0,
			"0.015": 0.0,
			"0.016": 0.0,
			"0.017": 0.0,
			"0.018": 0.0,
			"0.019": 0.0,
			"0.02": 0.0,
			"0.021": 0.0,
			"0.022": 0.0,
			"0.023": 0.0,
			"0.024": 0.0,
			"0.025": 0.0
		}
	}
}
