{
	 "smiles": "CN1N=CC2=C1N=C(CCl)NC2=O", 
	 "Tm": 506.15, 
	 "num_atms": 20, 
	 "gaussian": { 
		 "optdone": 1, 
		 "sigma_profile": "yes", 
		 "theory": "DFT", 
		 "functional": "B3LYP", 
		 "basiset": "6-31G**", 
		 "properties": { 
			 "R2extent": 4151.3685, 
			 "electric_dipole_moment_norm": 4.16142973748, 
			 "electric_quadrupole_moment_norm": 14.7063319451, 
			 "total_energy": -1025.39559615, 
			 "HOMO_LUMO_gap": 0.18579, 
			 "cosmo_polarized_energy": -14.66, 
			 "cosmo_cavitation_energy": 26.52, 
			 "cosmo_dispersion_energy": -19.86, 
			 "cosmo_repulsion_energy": 1.59, 
			 "cosmo_total_nonelectrostatic_energy": 8.25, 
			 "SMD_solvation_energy": 2.97 
		},
		"coords": [
			{
				"x": 0.5126852059,
				"y": -0.9907263612,
				"z": 2.1867343347,
				"element": "C" 
			},
			{
				"x": 1.5503109426,
				"y": -0.9054810221,
				"z": 1.1770052176,
				"element": "N" 
			},
			{
				"x": 2.7900208335,
				"y": -1.4209613356,
				"z": 1.4130674637,
				"element": "N" 
			},
			{
				"x": 3.4975626287,
				"y": -1.1912056436,
				"z": 0.3129620956,
				"element": "C" 
			},
			{
				"x": 2.7229759727,
				"y": -0.5172833988,
				"z": -0.6595595174,
				"element": "C" 
			},
			{
				"x": 1.4672639718,
				"y": -0.3527888285,
				"z": -0.0580751417,
				"element": "C" 
			},
			{
				"x": 0.3581125948,
				"y": 0.2382952528,
				"z": -0.5943532991,
				"element": "N" 
			},
			{
				"x": 0.5513720999,
				"y": 0.6931284978,
				"z": -1.801745649,
				"element": "C" 
			},
			{
				"x": -0.5798239422,
				"y": 1.4495927597,
				"z": -2.4486213327,
				"element": "C" 
			},
			{
				"x": -0.833180566,
				"y": 1.0053888826,
				"z": -4.1896005265,
				"element": "Cl" 
			},
			{
				"x": 1.7323027185,
				"y": 0.590464314,
				"z": -2.4823110074,
				"element": "N" 
			},
			{
				"x": 2.9300544648,
				"y": -0.0281997073,
				"z": -1.9999535655,
				"element": "C" 
			},
			{
				"x": 3.9212576059,
				"y": -0.0757020273,
				"z": -2.7077192808,
				"element": "O" 
			},
			{
				"x": 0.8305145936,
				"y": -0.4712456938,
				"z": 3.0942035863,
				"element": "H" 
			},
			{
				"x": 0.3095926051,
				"y": -2.0375051491,
				"z": 2.4260593931,
				"element": "H" 
			},
			{
				"x": -0.3860899268,
				"y": -0.5213648226,
				"z": 1.7860765171,
				"element": "H" 
			},
			{
				"x": 4.5281198518,
				"y": -1.5115445277,
				"z": 0.2518037737,
				"element": "H" 
			},
			{
				"x": -0.3858615488,
				"y": 2.5248159898,
				"z": -2.4359885652,
				"element": "H" 
			},
			{
				"x": -1.4973314791,
				"y": 1.2342059575,
				"z": -1.9054763268,
				"element": "H" 
			},
			{
				"x": 1.7805413734,
				"y": 0.9171168637,
				"z": -3.4413081697,
				"element": "H" 
			}
		],
		 "valence_orbital": [ 
			{
				"type": "occ",
				"energy": -0.3082,
				"method": "rhf"
			},
			{
				"type": "occ",
				"energy": -0.29858,
				"method": "rhf"
			},
			{
				"type": "occ",
				"energy": -0.26901,
				"method": "rhf"
			},
			{
				"type": "occ",
				"energy": -0.26485,
				"method": "rhf"
			},
			{
				"type": "occ",
				"energy": -0.23936,
				"method": "rhf"
			},
			{
				"type": "unocc",
				"energy": -0.05357,
				"method": "rhf"
			},
			{
				"type": "unocc",
				"energy": -0.01535,
				"method": "rhf"
			},
			{
				"type": "unocc",
				"energy": 0.01044,
				"method": "rhf"
			},
			{
				"type": "unocc",
				"energy": 0.03409,
				"method": "rhf"
			},
			{
				"type": "unocc",
				"energy": 0.08141,
				"method": "rhf"
			}
		],
		"cosmo_sigma_profile": { 
			"-0.025": 0.0,
			"-0.024": 0.0,
			"-0.023": 0.0,
			"-0.022": 0.0,
			"-0.021": 0.0,
			"-0.02": 0.0,
			"-0.019": 0.0,
			"-0.018": 0.0,
			"-0.017": 0.0,
			"-0.016": 0.0,
			"-0.015": 0.178625692328,
			"-0.014": 0.744296586413,
			"-0.013": 0.929859597889,
			"-0.012": 1.21213385715,
			"-0.011": 1.33231355204,
			"-0.01": 3.22402460587,
			"-0.009": 4.83709772187,
			"-0.008": 5.97839997265,
			"-0.007": 7.62426459815,
			"-0.006": 11.0995168658,
			"-0.005": 11.6410699263,
			"-0.004": 14.3073165881,
			"-0.003": 17.7574375545,
			"-0.002": 14.9399072753,
			"-0.001": 14.3384624002,
			"0.0": 13.1918826339,
			"0.001": 14.1298064144,
			"0.002": 11.8741640407,
			"0.003": 9.78355420443,
			"0.004": 10.2307636396,
			"0.005": 10.8035411872,
			"0.006": 5.08594916642,
			"0.007": 3.167251621,
			"0.008": 3.02823369639,
			"0.009": 4.29159494488,
			"0.01": 2.59163702514,
			"0.011": 3.46031630789,
			"0.012": 5.75412334279,
			"0.013": 5.31998288135,
			"0.014": 1.69843092976,
			"0.015": 0.344687602626,
			"0.016": 0.0,
			"0.017": 0.0,
			"0.018": 0.0,
			"0.019": 0.0,
			"0.02": 0.0,
			"0.021": 0.0,
			"0.022": 0.0,
			"0.023": 0.0,
			"0.024": 0.0,
			"0.025": 0.0
		}
	}
}
