{
	 "smiles": "NC1=C(C=CC(Br)=C1)N1C=NC=N1", 
	 "Tm": 388.15, 
	 "num_atms": 20, 
	 "gaussian": { 
		 "optdone": 1, 
		 "sigma_profile": "yes", 
		 "theory": "DFT", 
		 "functional": "B3LYP", 
		 "basiset": "6-31G**", 
		 "properties": { 
			 "R2extent": 4909.6829, 
			 "electric_dipole_moment_norm": 2.18460673807, 
			 "electric_quadrupole_moment_norm": 15.8393751474, 
			 "total_energy": -3099.46197357, 
			 "HOMO_LUMO_gap": 0.18994, 
			 "cosmo_polarized_energy": -13.35, 
			 "cosmo_cavitation_energy": 26.9, 
			 "cosmo_dispersion_energy": -20.33, 
			 "cosmo_repulsion_energy": 1.59, 
			 "cosmo_total_nonelectrostatic_energy": 8.16, 
			 "SMD_solvation_energy": 1.54 
		},
		"coords": [
			{
				"x": -0.419451119,
				"y": 1.010904796,
				"z": 1.8317620884,
				"element": "N" 
			},
			{
				"x": -0.8335250536,
				"y": 0.1418476482,
				"z": 0.8227302164,
				"element": "C" 
			},
			{
				"x": -0.7052216054,
				"y": 0.4731502923,
				"z": -0.5437743624,
				"element": "C" 
			},
			{
				"x": -1.1327690325,
				"y": -0.4109479446,
				"z": -1.5348646201,
				"element": "C" 
			},
			{
				"x": -1.7190631227,
				"y": -1.6291790797,
				"z": -1.2055081943,
				"element": "C" 
			},
			{
				"x": -1.8743689751,
				"y": -1.9408479118,
				"z": 0.1443946044,
				"element": "C" 
			},
			{
				"x": -2.6889604241,
				"y": -3.5969967418,
				"z": 0.6365805096,
				"element": "Br" 
			},
			{
				"x": -1.4408961526,
				"y": -1.0828762059,
				"z": 1.1474573642,
				"element": "C" 
			},
			{
				"x": -0.1176148551,
				"y": 1.7114121276,
				"z": -0.9358495475,
				"element": "N" 
			},
			{
				"x": -0.3536075166,
				"y": 2.9726248082,
				"z": -0.4756574326,
				"element": "C" 
			},
			{
				"x": 0.3246299636,
				"y": 3.8580415328,
				"z": -1.1816836488,
				"element": "N" 
			},
			{
				"x": 0.9667310307,
				"y": 3.0772397761,
				"z": -2.096915467,
				"element": "C" 
			},
			{
				"x": 0.7359577424,
				"y": 1.7775618417,
				"z": -1.9999213314,
				"element": "N" 
			},
			{
				"x": -0.3115706579,
				"y": 0.5724117311,
				"z": 2.7366149679,
				"element": "H" 
			},
			{
				"x": 0.3794843,
				"y": 1.587968406,
				"z": 1.5995587137,
				"element": "H" 
			},
			{
				"x": -0.9910131763,
				"y": -0.1272609367,
				"z": -2.5714049826,
				"element": "H" 
			},
			{
				"x": -2.053013674,
				"y": -2.3126178204,
				"z": -1.9760005506,
				"element": "H" 
			},
			{
				"x": -1.5582769264,
				"y": -1.3611522348,
				"z": 2.1892537216,
				"element": "H" 
			},
			{
				"x": -1.017885895,
				"y": 3.1760115808,
				"z": 0.3518502869,
				"element": "H" 
			},
			{
				"x": 1.6279351496,
				"y": 3.4766043349,
				"z": -2.8537223359,
				"element": "H" 
			}
		],
		 "valence_orbital": [ 
			{
				"type": "occ",
				"energy": -0.29268,
				"method": "rhf"
			},
			{
				"type": "occ",
				"energy": -0.28137,
				"method": "rhf"
			},
			{
				"type": "occ",
				"energy": -0.2772,
				"method": "rhf"
			},
			{
				"type": "occ",
				"energy": -0.25073,
				"method": "rhf"
			},
			{
				"type": "occ",
				"energy": -0.22563,
				"method": "rhf"
			},
			{
				"type": "unocc",
				"energy": -0.03569,
				"method": "rhf"
			},
			{
				"type": "unocc",
				"energy": -0.01292,
				"method": "rhf"
			},
			{
				"type": "unocc",
				"energy": 0.0004,
				"method": "rhf"
			},
			{
				"type": "unocc",
				"energy": 0.01179,
				"method": "rhf"
			},
			{
				"type": "unocc",
				"energy": 0.04341,
				"method": "rhf"
			}
		],
		"cosmo_sigma_profile": { 
			"-0.025": 0.0,
			"-0.024": 0.0,
			"-0.023": 0.0,
			"-0.022": 0.0,
			"-0.021": 0.0,
			"-0.02": 0.0,
			"-0.019": 0.0,
			"-0.018": 0.0,
			"-0.017": 0.0,
			"-0.016": 0.0,
			"-0.015": 0.0,
			"-0.014": 0.380277513853,
			"-0.013": 2.41976755607,
			"-0.012": 3.25427278203,
			"-0.011": 3.25320885485,
			"-0.01": 3.67920029302,
			"-0.009": 5.07683836924,
			"-0.008": 6.84200325044,
			"-0.007": 6.95887736008,
			"-0.006": 9.19688130302,
			"-0.005": 8.92551223809,
			"-0.004": 10.2342445205,
			"-0.003": 9.81575789578,
			"-0.002": 11.8434970716,
			"-0.001": 12.1595831537,
			"0.0": 11.5800765237,
			"0.001": 15.9747915571,
			"0.002": 22.1472934795,
			"0.003": 23.2236582105,
			"0.004": 18.7688518718,
			"0.005": 7.77273985062,
			"0.006": 3.9053446781,
			"0.007": 3.82505036418,
			"0.008": 2.72046882315,
			"0.009": 2.86216634821,
			"0.01": 3.16676912491,
			"0.011": 2.02431165938,
			"0.012": 2.59123684224,
			"0.013": 1.5364606917,
			"0.014": 1.7675298912,
			"0.015": 1.06582062432,
			"0.016": 0.773839393014,
			"0.017": 0.0234395811794,
			"0.018": 0.0,
			"0.019": 0.0,
			"0.02": 0.0,
			"0.021": 0.0,
			"0.022": 0.0,
			"0.023": 0.0,
			"0.024": 0.0,
			"0.025": 0.0
		}
	}
}
