{
	 "smiles": "OC(=O)C1=C2CCCNC2=CC=C1", 
	 "Tm": 416.15, 
	 "num_atms": 24, 
	 "gaussian": { 
		 "optdone": 1, 
		 "sigma_profile": "yes", 
		 "theory": "DFT", 
		 "functional": "B3LYP", 
		 "basiset": "6-31G**", 
		 "properties": { 
			 "R2extent": 2753.9665, 
			 "electric_dipole_moment_norm": 5.78162422681, 
			 "electric_quadrupole_moment_norm": 19.7270039119, 
			 "total_energy": -592.906944127, 
			 "HOMO_LUMO_gap": 0.1736, 
			 "cosmo_polarized_energy": -15.42, 
			 "cosmo_cavitation_energy": 26.47, 
			 "cosmo_dispersion_energy": -19.79, 
			 "cosmo_repulsion_energy": 1.57, 
			 "cosmo_total_nonelectrostatic_energy": 8.25, 
			 "SMD_solvation_energy": 4.09 
		},
		"coords": [
			{
				"x": 1.1898545662,
				"y": -1.3889135179,
				"z": 2.3196809434,
				"element": "O" 
			},
			{
				"x": 1.1030811191,
				"y": -0.0694545858,
				"z": 2.6658420462,
				"element": "C" 
			},
			{
				"x": 1.1342185318,
				"y": 0.2482444194,
				"z": 3.828840749,
				"element": "O" 
			},
			{
				"x": 1.0329972862,
				"y": 0.9040518739,
				"z": 1.5196258456,
				"element": "C" 
			},
			{
				"x": 0.0520947231,
				"y": 0.823523888,
				"z": 0.5106552516,
				"element": "C" 
			},
			{
				"x": -1.1114013332,
				"y": -0.158312068,
				"z": 0.5636676906,
				"element": "C" 
			},
			{
				"x": -1.7390693138,
				"y": -0.3884115311,
				"z": -0.8170776314,
				"element": "C" 
			},
			{
				"x": -2.0445373483,
				"y": 0.9521962887,
				"z": -1.4827846048,
				"element": "C" 
			},
			{
				"x": -0.8130287111,
				"y": 1.7205175004,
				"z": -1.5933372865,
				"element": "N" 
			},
			{
				"x": 0.0969676007,
				"y": 1.7712997074,
				"z": -0.5415253191,
				"element": "C" 
			},
			{
				"x": 1.1024246172,
				"y": 2.7557474338,
				"z": -0.5517784548,
				"element": "C" 
			},
			{
				"x": 2.037004133,
				"y": 2.8320360849,
				"z": 0.4729783861,
				"element": "C" 
			},
			{
				"x": 2.0026271454,
				"y": 1.9148155068,
				"z": 1.5208418108,
				"element": "C" 
			},
			{
				"x": 1.2927084089,
				"y": -1.4532258867,
				"z": 1.3590287311,
				"element": "H" 
			},
			{
				"x": -1.8780812212,
				"y": 0.2444888691,
				"z": 1.2410824508,
				"element": "H" 
			},
			{
				"x": -0.8114119299,
				"y": -1.1115809231,
				"z": 1.0056183866,
				"element": "H" 
			},
			{
				"x": -2.6584953985,
				"y": -0.9749091432,
				"z": -0.7222788894,
				"element": "H" 
			},
			{
				"x": -1.0512461673,
				"y": -0.954253241,
				"z": -1.4565448997,
				"element": "H" 
			},
			{
				"x": -2.4482317859,
				"y": 0.8020221896,
				"z": -2.489818696,
				"element": "H" 
			},
			{
				"x": -2.8140432351,
				"y": 1.4842388515,
				"z": -0.8971707786,
				"element": "H" 
			},
			{
				"x": -0.8795826902,
				"y": 2.5717698209,
				"z": -2.1328878952,
				"element": "H" 
			},
			{
				"x": 1.1320269616,
				"y": 3.4691435208,
				"z": -1.3722909384,
				"element": "H" 
			},
			{
				"x": 2.7934506336,
				"y": 3.6110842933,
				"z": 0.4545468986,
				"element": "H" 
			},
			{
				"x": 2.7178734078,
				"y": 1.9630806484,
				"z": 2.3342862036,
				"element": "H" 
			}
		],
		 "valence_orbital": [ 
			{
				"type": "occ",
				"energy": -0.30879,
				"method": "rhf"
			},
			{
				"type": "occ",
				"energy": -0.30255,
				"method": "rhf"
			},
			{
				"type": "occ",
				"energy": -0.26802,
				"method": "rhf"
			},
			{
				"type": "occ",
				"energy": -0.2478,
				"method": "rhf"
			},
			{
				"type": "occ",
				"energy": -0.20184,
				"method": "rhf"
			},
			{
				"type": "unocc",
				"energy": -0.02824,
				"method": "rhf"
			},
			{
				"type": "unocc",
				"energy": 0.00354,
				"method": "rhf"
			},
			{
				"type": "unocc",
				"energy": 0.03583,
				"method": "rhf"
			},
			{
				"type": "unocc",
				"energy": 0.06793,
				"method": "rhf"
			},
			{
				"type": "unocc",
				"energy": 0.07978,
				"method": "rhf"
			}
		],
		"cosmo_sigma_profile": { 
			"-0.025": 0.0,
			"-0.024": 0.0,
			"-0.023": 0.0,
			"-0.022": 0.0,
			"-0.021": 0.0,
			"-0.02": 0.0,
			"-0.019": 0.0,
			"-0.018": 0.433995066937,
			"-0.017": 1.04141830597,
			"-0.016": 0.536290085529,
			"-0.015": 0.709350002446,
			"-0.014": 0.725637093338,
			"-0.013": 1.069236832,
			"-0.012": 2.41221262346,
			"-0.011": 3.19702625063,
			"-0.01": 1.95967275781,
			"-0.009": 1.69577524982,
			"-0.008": 2.85541241071,
			"-0.007": 2.74068133783,
			"-0.006": 4.58023382683,
			"-0.005": 8.89041333172,
			"-0.004": 16.619705485,
			"-0.003": 26.435405027,
			"-0.002": 23.994989274,
			"-0.001": 16.4660997491,
			"0.0": 11.3002443758,
			"0.001": 7.77996557568,
			"0.002": 6.95645215299,
			"0.003": 7.87968508562,
			"0.004": 9.15559278159,
			"0.005": 11.5345103309,
			"0.006": 8.00345355347,
			"0.007": 2.82309846879,
			"0.008": 3.58014963881,
			"0.009": 4.92681507408,
			"0.01": 4.82926948242,
			"0.011": 6.50679016459,
			"0.012": 5.52448575167,
			"0.013": 1.73414741448,
			"0.014": 0.0,
			"0.015": 0.0,
			"0.016": 0.0,
			"0.017": 0.0,
			"0.018": 0.0,
			"0.019": 0.0,
			"0.02": 0.0,
			"0.021": 0.0,
			"0.022": 0.0,
			"0.023": 0.0,
			"0.024": 0.0,
			"0.025": 0.0
		}
	}
}
