{
	 "smiles": "CCCCNC1=C(N)C=C(C=C1)S(N)(=O)=O", 
	 "Tm": 404.15, 
	 "num_atms": 33, 
	 "gaussian": { 
		 "optdone": 1, 
		 "sigma_profile": "yes", 
		 "theory": "DFT", 
		 "functional": "B3LYP", 
		 "basiset": "6-31G**", 
		 "properties": { 
			 "R2extent": 7013.9485, 
			 "electric_dipole_moment_norm": 8.37520703625, 
			 "electric_quadrupole_moment_norm": 31.558873616, 
			 "total_energy": -1104.14733027, 
			 "HOMO_LUMO_gap": 0.18731, 
			 "cosmo_polarized_energy": -23.73, 
			 "cosmo_cavitation_energy": 36.82, 
			 "cosmo_dispersion_energy": -26.83, 
			 "cosmo_repulsion_energy": 2.09, 
			 "cosmo_total_nonelectrostatic_energy": 12.07, 
			 "SMD_solvation_energy": 4.75 
		},
		"coords": [
			{
				"x": 3.1521568609,
				"y": 3.1639369464,
				"z": -1.5423641982,
				"element": "C" 
			},
			{
				"x": 1.8106310998,
				"y": 3.8031266081,
				"z": -1.9191000738,
				"element": "C" 
			},
			{
				"x": 0.974601253,
				"y": 4.2876740697,
				"z": -0.7201536888,
				"element": "C" 
			},
			{
				"x": 0.5346749116,
				"y": 3.2032019948,
				"z": 0.2703519364,
				"element": "C" 
			},
			{
				"x": -0.3894788551,
				"y": 2.2609483036,
				"z": -0.3475723916,
				"element": "N" 
			},
			{
				"x": -0.8946176824,
				"y": 1.1765024439,
				"z": 0.3600601375,
				"element": "C" 
			},
			{
				"x": -1.666957754,
				"y": 0.2281804554,
				"z": -0.3705082251,
				"element": "C" 
			},
			{
				"x": -1.830634269,
				"y": 0.4516382272,
				"z": -1.7533013943,
				"element": "N" 
			},
			{
				"x": -2.1884910468,
				"y": -0.8837328208,
				"z": 0.279552522,
				"element": "C" 
			},
			{
				"x": -1.9696386297,
				"y": -1.0603427033,
				"z": 1.6526934963,
				"element": "C" 
			},
			{
				"x": -1.2578001142,
				"y": -0.1177208966,
				"z": 2.3898870627,
				"element": "C" 
			},
			{
				"x": -0.7193419573,
				"y": 0.9936825363,
				"z": 1.7391988381,
				"element": "C" 
			},
			{
				"x": -2.6135335937,
				"y": -2.5208501407,
				"z": 2.4571870832,
				"element": "S" 
			},
			{
				"x": -1.4111156412,
				"y": -3.7060684611,
				"z": 2.3732932603,
				"element": "N" 
			},
			{
				"x": -2.7588076595,
				"y": -2.2221636948,
				"z": 3.8818379489,
				"element": "O" 
			},
			{
				"x": -3.7128371403,
				"y": -3.0334100566,
				"z": 1.6375843388,
				"element": "O" 
			},
			{
				"x": 3.0210789409,
				"y": 2.2458558381,
				"z": -0.9601906173,
				"element": "H" 
			},
			{
				"x": 3.7620348943,
				"y": 3.8509518437,
				"z": -0.9446189668,
				"element": "H" 
			},
			{
				"x": 3.7261654633,
				"y": 2.9031635457,
				"z": -2.4370764684,
				"element": "H" 
			},
			{
				"x": 1.9935834793,
				"y": 4.6657073376,
				"z": -2.5714509034,
				"element": "H" 
			},
			{
				"x": 1.2295157693,
				"y": 3.0993713161,
				"z": -2.5316789583,
				"element": "H" 
			},
			{
				"x": 1.5580275698,
				"y": 5.0299340718,
				"z": -0.1609130333,
				"element": "H" 
			},
			{
				"x": 0.0791881658,
				"y": 4.8045258545,
				"z": -1.0865989673,
				"element": "H" 
			},
			{
				"x": 1.415254072,
				"y": 2.691432753,
				"z": 0.6934159505,
				"element": "H" 
			},
			{
				"x": 0.0208200846,
				"y": 3.6843359166,
				"z": 1.1108754034,
				"element": "H" 
			},
			{
				"x": -0.1543451216,
				"y": 2.0112719817,
				"z": -1.3022580897,
				"element": "H" 
			},
			{
				"x": -2.1548164541,
				"y": 1.3946863551,
				"z": -1.9520997442,
				"element": "H" 
			},
			{
				"x": -2.4504334814,
				"y": -0.2208980697,
				"z": -2.1893113213,
				"element": "H" 
			},
			{
				"x": -2.8008108765,
				"y": -1.5989345283,
				"z": -0.2616408463,
				"element": "H" 
			},
			{
				"x": -1.1349676731,
				"y": -0.2448819913,
				"z": 3.4597425433,
				"element": "H" 
			},
			{
				"x": -0.1536455032,
				"y": 1.7195334979,
				"z": 2.3117846526,
				"element": "H" 
			},
			{
				"x": -0.5773859749,
				"y": -3.4344044646,
				"z": 2.8861241397,
				"element": "H" 
			},
			{
				"x": -1.2019731363,
				"y": -3.9652540695,
				"z": 1.413648574,
				"element": "H" 
			}
		],
		 "valence_orbital": [ 
			{
				"type": "occ",
				"energy": -0.29077,
				"method": "rhf"
			},
			{
				"type": "occ",
				"energy": -0.29024,
				"method": "rhf"
			},
			{
				"type": "occ",
				"energy": -0.28696,
				"method": "rhf"
			},
			{
				"type": "occ",
				"energy": -0.23998,
				"method": "rhf"
			},
			{
				"type": "occ",
				"energy": -0.20334,
				"method": "rhf"
			},
			{
				"type": "unocc",
				"energy": -0.01603,
				"method": "rhf"
			},
			{
				"type": "unocc",
				"energy": -0.0025,
				"method": "rhf"
			},
			{
				"type": "unocc",
				"energy": 0.05828,
				"method": "rhf"
			},
			{
				"type": "unocc",
				"energy": 0.06329,
				"method": "rhf"
			},
			{
				"type": "unocc",
				"energy": 0.07473,
				"method": "rhf"
			}
		],
		"cosmo_sigma_profile": { 
			"-0.025": 0.0,
			"-0.024": 0.0,
			"-0.023": 0.0,
			"-0.022": 0.0,
			"-0.021": 0.0,
			"-0.02": 0.0,
			"-0.019": 0.0,
			"-0.018": 0.0,
			"-0.017": 0.0,
			"-0.016": 0.0,
			"-0.015": 1.00568585427,
			"-0.014": 2.52376374631,
			"-0.013": 2.36370234408,
			"-0.012": 4.80871451846,
			"-0.011": 5.49240320619,
			"-0.01": 5.25187201403,
			"-0.009": 5.77835224863,
			"-0.008": 5.61392157667,
			"-0.007": 6.02090330387,
			"-0.006": 8.00618547849,
			"-0.005": 9.29463635058,
			"-0.004": 12.4280648304,
			"-0.003": 23.655453904,
			"-0.002": 28.2068181683,
			"-0.001": 27.3542468113,
			"0.0": 23.9041231408,
			"0.001": 18.4276773391,
			"0.002": 10.994756092,
			"0.003": 11.3754552254,
			"0.004": 13.4482685687,
			"0.005": 11.4430471611,
			"0.006": 4.54561053801,
			"0.007": 4.67496051103,
			"0.008": 5.59130327114,
			"0.009": 6.48451550109,
			"0.01": 6.82044844338,
			"0.011": 10.4436202094,
			"0.012": 10.1956774543,
			"0.013": 1.90643615655,
			"0.014": 0.406602697297,
			"0.015": 0.0,
			"0.016": 0.0,
			"0.017": 0.0,
			"0.018": 0.0,
			"0.019": 0.0,
			"0.02": 0.0,
			"0.021": 0.0,
			"0.022": 0.0,
			"0.023": 0.0,
			"0.024": 0.0,
			"0.025": 0.0
		}
	}
}
