{
	 "smiles": "[O-][N+](=O)C(Br)=CC1=CC(C=C(/Br)[N+]([O-])=O)=CC=C1", 
	 "Tm": 426.15, 
	 "num_atms": 24, 
	 "gaussian": { 
		 "optdone": 1, 
		 "sigma_profile": "yes", 
		 "theory": "DFT", 
		 "functional": "B3LYP", 
		 "basiset": "6-31G**", 
		 "properties": { 
			 "R2extent": 8357.1675, 
			 "electric_dipole_moment_norm": 4.59450148112, 
			 "electric_quadrupole_moment_norm": 35.2061604575, 
			 "total_energy": -5937.62654868, 
			 "HOMO_LUMO_gap": 0.14639, 
			 "cosmo_polarized_energy": -14.92, 
			 "cosmo_cavitation_energy": 35.31, 
			 "cosmo_dispersion_energy": -25.65, 
			 "cosmo_repulsion_energy": 1.94, 
			 "cosmo_total_nonelectrostatic_energy": 11.6, 
			 "SMD_solvation_energy": 9.05 
		},
		"coords": [
			{
				"x": 1.0124308699,
				"y": -4.6699026616,
				"z": -0.2665724718,
				"element": "O" 
			},
			{
				"x": 0.8283509458,
				"y": -3.8373258324,
				"z": -1.1435259332,
				"element": "N" 
			},
			{
				"x": 0.9483917832,
				"y": -4.0405609771,
				"z": -2.3517304726,
				"element": "O" 
			},
			{
				"x": 0.4251435474,
				"y": -2.4616085,
				"z": -0.7217876619,
				"element": "C" 
			},
			{
				"x": 0.2753730473,
				"y": -2.261589168,
				"z": 1.1380587316,
				"element": "Br" 
			},
			{
				"x": 0.1972777078,
				"y": -1.5540599236,
				"z": -1.6863766496,
				"element": "C" 
			},
			{
				"x": -0.2108519748,
				"y": -0.1510334295,
				"z": -1.6756115758,
				"element": "C" 
			},
			{
				"x": -0.285301323,
				"y": 0.6670008561,
				"z": -0.534567405,
				"element": "C" 
			},
			{
				"x": -0.6923095381,
				"y": 2.0089614193,
				"z": -0.635543449,
				"element": "C" 
			},
			{
				"x": -0.8042078653,
				"y": 2.9460849869,
				"z": 0.4800268694,
				"element": "C" 
			},
			{
				"x": -0.4288204816,
				"y": 2.9025979264,
				"z": 1.7696837302,
				"element": "C" 
			},
			{
				"x": 0.4628533195,
				"y": 1.5301142987,
				"z": 2.6876593212,
				"element": "Br" 
			},
			{
				"x": -0.7169279728,
				"y": 4.0986873258,
				"z": 2.6178347778,
				"element": "N" 
			},
			{
				"x": -0.3537732204,
				"y": 4.0686471206,
				"z": 3.7854536662,
				"element": "O" 
			},
			{
				"x": -1.3033395598,
				"y": 5.038472316,
				"z": 2.0808082772,
				"element": "O" 
			},
			{
				"x": -1.0410429182,
				"y": 2.5191797753,
				"z": -1.9047927136,
				"element": "C" 
			},
			{
				"x": -0.9571381343,
				"y": 1.7250533308,
				"z": -3.0429193676,
				"element": "C" 
			},
			{
				"x": -0.5385121536,
				"y": 0.4039223332,
				"z": -2.9316303986,
				"element": "C" 
			},
			{
				"x": 0.3389080444,
				"y": -1.9772970523,
				"z": -2.6776712746,
				"element": "H" 
			},
			{
				"x": -0.026918571,
				"y": 0.2601653135,
				"z": 0.42994913,
				"element": "H" 
			},
			{
				"x": -1.2771261466,
				"y": 3.8927577994,
				"z": 0.231005785,
				"element": "H" 
			},
			{
				"x": -1.3698694533,
				"y": 3.550993719,
				"z": -1.9889935294,
				"element": "H" 
			},
			{
				"x": -1.2171894506,
				"y": 2.1345063744,
				"z": -4.0136533689,
				"element": "H" 
			},
			{
				"x": -0.4701005017,
				"y": -0.217767351,
				"z": -3.8197040169,
				"element": "H" 
			}
		],
		 "valence_orbital": [ 
			{
				"type": "occ",
				"energy": -0.30769,
				"method": "rhf"
			},
			{
				"type": "occ",
				"energy": -0.29369,
				"method": "rhf"
			},
			{
				"type": "occ",
				"energy": -0.29075,
				"method": "rhf"
			},
			{
				"type": "occ",
				"energy": -0.27334,
				"method": "rhf"
			},
			{
				"type": "occ",
				"energy": -0.26101,
				"method": "rhf"
			},
			{
				"type": "unocc",
				"energy": -0.11462,
				"method": "rhf"
			},
			{
				"type": "unocc",
				"energy": -0.11275,
				"method": "rhf"
			},
			{
				"type": "unocc",
				"energy": -0.04603,
				"method": "rhf"
			},
			{
				"type": "unocc",
				"energy": -0.0459,
				"method": "rhf"
			},
			{
				"type": "unocc",
				"energy": -0.02069,
				"method": "rhf"
			}
		],
		"cosmo_sigma_profile": { 
			"-0.025": 0.0,
			"-0.024": 0.0,
			"-0.023": 0.0,
			"-0.022": 0.0,
			"-0.021": 0.0,
			"-0.02": 0.0,
			"-0.019": 0.0,
			"-0.018": 0.0,
			"-0.017": 0.0,
			"-0.016": 0.0,
			"-0.015": 0.0,
			"-0.014": 0.0,
			"-0.013": 0.0,
			"-0.012": 0.0,
			"-0.011": 0.390587699518,
			"-0.01": 3.23294072332,
			"-0.009": 3.87881704265,
			"-0.008": 6.24064037121,
			"-0.007": 12.0559502727,
			"-0.006": 13.7262591329,
			"-0.005": 13.1272109314,
			"-0.004": 15.8532406637,
			"-0.003": 19.6293911466,
			"-0.002": 28.3743178259,
			"-0.001": 28.6687823839,
			"0.0": 23.3350382575,
			"0.001": 26.2995005566,
			"0.002": 17.8799712647,
			"0.003": 9.65411267063,
			"0.004": 7.92232718712,
			"0.005": 7.40819066387,
			"0.006": 10.0676524121,
			"0.007": 20.0710717401,
			"0.008": 15.1011323182,
			"0.009": 7.33957571931,
			"0.01": 1.3146939192,
			"0.011": 0.0,
			"0.012": 0.0,
			"0.013": 0.0,
			"0.014": 0.0,
			"0.015": 0.0,
			"0.016": 0.0,
			"0.017": 0.0,
			"0.018": 0.0,
			"0.019": 0.0,
			"0.02": 0.0,
			"0.021": 0.0,
			"0.022": 0.0,
			"0.023": 0.0,
			"0.024": 0.0,
			"0.025": 0.0
		}
	}
}
