{
	 "smiles": "CC1=NC(C)=C(CCl)S1", 
	 "Tm": 336.15, 
	 "num_atms": 17, 
	 "gaussian": { 
		 "optdone": 1, 
		 "sigma_profile": "yes", 
		 "theory": "DFT", 
		 "functional": "B3LYP", 
		 "basiset": "6-31G**", 
		 "properties": { 
			 "R2extent": 2378.9693, 
			 "electric_dipole_moment_norm": 2.16586489653, 
			 "electric_quadrupole_moment_norm": 10.9684474353, 
			 "total_energy": -1146.60011341, 
			 "HOMO_LUMO_gap": 0.19678, 
			 "cosmo_polarized_energy": -7.84, 
			 "cosmo_cavitation_energy": 23.96, 
			 "cosmo_dispersion_energy": -17.97, 
			 "cosmo_repulsion_energy": 1.46, 
			 "cosmo_total_nonelectrostatic_energy": 7.44, 
			 "SMD_solvation_energy": 2.09 
		},
		"coords": [
			{
				"x": 2.0113735798,
				"y": 1.6613069023,
				"z": -1.2660157046,
				"element": "C" 
			},
			{
				"x": 0.6183270288,
				"y": 1.3648700864,
				"z": -0.8016189089,
				"element": "C" 
			},
			{
				"x": -0.3989877361,
				"y": 2.1542024384,
				"z": -0.9945341904,
				"element": "N" 
			},
			{
				"x": -1.5648510094,
				"y": 1.641329498,
				"z": -0.4613911929,
				"element": "C" 
			},
			{
				"x": -2.815986561,
				"y": 2.4592410224,
				"z": -0.5924986767,
				"element": "C" 
			},
			{
				"x": -1.4420435457,
				"y": 0.4149860948,
				"z": 0.1486602773,
				"element": "C" 
			},
			{
				"x": -2.4856369892,
				"y": -0.4027969259,
				"z": 0.8086482159,
				"element": "C" 
			},
			{
				"x": -2.561540562,
				"y": -0.1595242752,
				"z": 2.6388031127,
				"element": "Cl" 
			},
			{
				"x": 0.225453105,
				"y": -0.1114382116,
				"z": 0.0664675594,
				"element": "S" 
			},
			{
				"x": 2.0067791485,
				"y": 2.6252429223,
				"z": -1.7778791793,
				"element": "H" 
			},
			{
				"x": 2.3760053137,
				"y": 0.894782709,
				"z": -1.9580409736,
				"element": "H" 
			},
			{
				"x": 2.7120166294,
				"y": 1.7104077268,
				"z": -0.4257972677,
				"element": "H" 
			},
			{
				"x": -2.6940595736,
				"y": 3.4172785069,
				"z": -0.0761075224,
				"element": "H" 
			},
			{
				"x": -3.6886792963,
				"y": 1.9577585113,
				"z": -0.1697309651,
				"element": "H" 
			},
			{
				"x": -3.0157842069,
				"y": 2.6831122642,
				"z": -1.6455085037,
				"element": "H" 
			},
			{
				"x": -3.4786767253,
				"y": -0.1433174162,
				"z": 0.4445995567,
				"element": "H" 
			},
			{
				"x": -2.3266085996,
				"y": -1.472641854,
				"z": 0.6769443631,
				"element": "H" 
			}
		],
		 "valence_orbital": [ 
			{
				"type": "occ",
				"energy": -0.3003,
				"method": "rhf"
			},
			{
				"type": "occ",
				"energy": -0.29522,
				"method": "rhf"
			},
			{
				"type": "occ",
				"energy": -0.27943,
				"method": "rhf"
			},
			{
				"type": "occ",
				"energy": -0.27332,
				"method": "rhf"
			},
			{
				"type": "occ",
				"energy": -0.238,
				"method": "rhf"
			},
			{
				"type": "unocc",
				"energy": -0.04122,
				"method": "rhf"
			},
			{
				"type": "unocc",
				"energy": 0.00829,
				"method": "rhf"
			},
			{
				"type": "unocc",
				"energy": 0.01883,
				"method": "rhf"
			},
			{
				"type": "unocc",
				"energy": 0.06,
				"method": "rhf"
			},
			{
				"type": "unocc",
				"energy": 0.08706,
				"method": "rhf"
			}
		],
		"cosmo_sigma_profile": { 
			"-0.025": 0.0,
			"-0.024": 0.0,
			"-0.023": 0.0,
			"-0.022": 0.0,
			"-0.021": 0.0,
			"-0.02": 0.0,
			"-0.019": 0.0,
			"-0.018": 0.0,
			"-0.017": 0.0,
			"-0.016": 0.0,
			"-0.015": 0.0,
			"-0.014": 0.0,
			"-0.013": 0.0,
			"-0.012": 0.0,
			"-0.011": 0.0,
			"-0.01": 0.0,
			"-0.009": 1.23987226502,
			"-0.008": 5.28288722885,
			"-0.007": 4.30296883977,
			"-0.006": 8.2788413552,
			"-0.005": 14.7748603561,
			"-0.004": 15.5767778183,
			"-0.003": 14.2864099072,
			"-0.002": 16.457008736,
			"-0.001": 17.6910236514,
			"0.0": 13.7925873002,
			"0.001": 13.0085506577,
			"0.002": 14.6281886103,
			"0.003": 11.6838192357,
			"0.004": 10.4546243616,
			"0.005": 6.60441492214,
			"0.006": 10.3502528569,
			"0.007": 8.73545189425,
			"0.008": 1.22165720299,
			"0.009": 1.49723037718,
			"0.01": 0.78212093862,
			"0.011": 0.523526276779,
			"0.012": 0.967889071792,
			"0.013": 0.949000838074,
			"0.014": 0.844287622362,
			"0.015": 0.648454738784,
			"0.016": 0.0632968279041,
			"0.017": 0.0,
			"0.018": 0.0,
			"0.019": 0.0,
			"0.02": 0.0,
			"0.021": 0.0,
			"0.022": 0.0,
			"0.023": 0.0,
			"0.024": 0.0,
			"0.025": 0.0
		}
	}
}
