{
	 "smiles": "ClCC(=O)C(C#N)C1=NC2=C(C=CC=C2)C(=O)N1", 
	 "Tm": 490.15, 
	 "num_atms": 26, 
	 "gaussian": { 
		 "optdone": 1, 
		 "sigma_profile": "yes", 
		 "theory": "DFT", 
		 "functional": "B3LYP", 
		 "basiset": "6-31G**", 
		 "properties": { 
			 "R2extent": 5903.507, 
			 "electric_dipole_moment_norm": 4.5444612464, 
			 "electric_quadrupole_moment_norm": 15.8000886184, 
			 "total_energy": -1236.98485319, 
			 "HOMO_LUMO_gap": 0.17956, 
			 "cosmo_polarized_energy": -19.99, 
			 "cosmo_cavitation_energy": 34.41, 
			 "cosmo_dispersion_energy": -23.57, 
			 "cosmo_repulsion_energy": 1.83, 
			 "cosmo_total_nonelectrostatic_energy": 12.67, 
			 "SMD_solvation_energy": 6.91 
		},
		"coords": [
			{
				"x": -4.5051324113,
				"y": -0.8634532759,
				"z": -2.8466667238,
				"element": "Cl" 
			},
			{
				"x": -3.2160137996,
				"y": -0.065144627,
				"z": -1.857774667,
				"element": "C" 
			},
			{
				"x": -3.2463845505,
				"y": -0.6250242388,
				"z": -0.4388726662,
				"element": "C" 
			},
			{
				"x": -4.0882763775,
				"y": -0.3136757465,
				"z": 0.364196343,
				"element": "O" 
			},
			{
				"x": -2.1414134788,
				"y": -1.6513246395,
				"z": -0.0365805136,
				"element": "C" 
			},
			{
				"x": -2.090217949,
				"y": -2.8232380427,
				"z": -0.9163797858,
				"element": "C" 
			},
			{
				"x": -2.0120833072,
				"y": -3.7603946946,
				"z": -1.5971576063,
				"element": "N" 
			},
			{
				"x": -0.7939801558,
				"y": -0.9357537457,
				"z": 0.0380721743,
				"element": "C" 
			},
			{
				"x": -0.7943008879,
				"y": 0.3544308688,
				"z": -0.0058603551,
				"element": "N" 
			},
			{
				"x": 0.4330263526,
				"y": 1.0033437422,
				"z": 0.1220808359,
				"element": "C" 
			},
			{
				"x": 1.6463641557,
				"y": 0.2938323876,
				"z": 0.2889847381,
				"element": "C" 
			},
			{
				"x": 2.8604795963,
				"y": 0.985116571,
				"z": 0.4132044614,
				"element": "C" 
			},
			{
				"x": 2.8728411625,
				"y": 2.3718803247,
				"z": 0.3742319005,
				"element": "C" 
			},
			{
				"x": 1.6700733578,
				"y": 3.080521058,
				"z": 0.2099368107,
				"element": "C" 
			},
			{
				"x": 0.4622718079,
				"y": 2.408564821,
				"z": 0.0846800604,
				"element": "C" 
			},
			{
				"x": 1.6292896839,
				"y": -1.1741933825,
				"z": 0.3241709844,
				"element": "C" 
			},
			{
				"x": 2.5892838626,
				"y": -1.9150935861,
				"z": 0.4500267017,
				"element": "O" 
			},
			{
				"x": 0.3288383807,
				"y": -1.7049977208,
				"z": 0.1911354073,
				"element": "N" 
			},
			{
				"x": -3.4421452389,
				"y": 0.9995508871,
				"z": -1.8184697163,
				"element": "H" 
			},
			{
				"x": -2.2647504946,
				"y": -0.234522435,
				"z": -2.3588831437,
				"element": "H" 
			},
			{
				"x": -2.4178817783,
				"y": -1.9917905863,
				"z": 0.9695869799,
				"element": "H" 
			},
			{
				"x": 3.7707271098,
				"y": 0.4082099104,
				"z": 0.5382751007,
				"element": "H" 
			},
			{
				"x": 3.8099993988,
				"y": 2.9109329326,
				"z": 0.4709785513,
				"element": "H" 
			},
			{
				"x": 1.6850650597,
				"y": 4.1660753946,
				"z": 0.1814284035,
				"element": "H" 
			},
			{
				"x": -0.47466782,
				"y": 2.9410074552,
				"z": -0.0398201179,
				"element": "H" 
			},
			{
				"x": 0.272888321,
				"y": -2.7178596317,
				"z": 0.1683758425,
				"element": "H" 
			}
		],
		 "valence_orbital": [ 
			{
				"type": "occ",
				"energy": -0.31033,
				"method": "rhf"
			},
			{
				"type": "occ",
				"energy": -0.28964,
				"method": "rhf"
			},
			{
				"type": "occ",
				"energy": -0.28149,
				"method": "rhf"
			},
			{
				"type": "occ",
				"energy": -0.28029,
				"method": "rhf"
			},
			{
				"type": "occ",
				"energy": -0.25488,
				"method": "rhf"
			},
			{
				"type": "unocc",
				"energy": -0.07532,
				"method": "rhf"
			},
			{
				"type": "unocc",
				"energy": -0.06421,
				"method": "rhf"
			},
			{
				"type": "unocc",
				"energy": -0.06133,
				"method": "rhf"
			},
			{
				"type": "unocc",
				"energy": -0.00302,
				"method": "rhf"
			},
			{
				"type": "unocc",
				"energy": -0.00037,
				"method": "rhf"
			}
		],
		"cosmo_sigma_profile": { 
			"-0.025": 0.0,
			"-0.024": 0.0,
			"-0.023": 0.0,
			"-0.022": 0.0,
			"-0.021": 0.0,
			"-0.02": 0.0,
			"-0.019": 0.0,
			"-0.018": 0.0,
			"-0.017": 0.271783463517,
			"-0.016": 1.34293175274,
			"-0.015": 0.895803246822,
			"-0.014": 1.33071648185,
			"-0.013": 1.93515196722,
			"-0.012": 3.92260898973,
			"-0.011": 2.85691673249,
			"-0.01": 4.92551441958,
			"-0.009": 5.79473393713,
			"-0.008": 4.91499806739,
			"-0.007": 10.1535166649,
			"-0.006": 15.6770418806,
			"-0.005": 18.5769986788,
			"-0.004": 12.5867334594,
			"-0.003": 13.0564479393,
			"-0.002": 13.3971887013,
			"-0.001": 12.1186141988,
			"0.0": 16.9674308751,
			"0.001": 18.7236740038,
			"0.002": 20.63961275,
			"0.003": 21.4048028631,
			"0.004": 15.8151645196,
			"0.005": 14.2542571253,
			"0.006": 7.08891694524,
			"0.007": 6.85060524695,
			"0.008": 7.04831840089,
			"0.009": 9.2106601115,
			"0.01": 5.27809949231,
			"0.011": 4.56284365236,
			"0.012": 6.58644694673,
			"0.013": 1.34607423758,
			"0.014": 0.0,
			"0.015": 0.0,
			"0.016": 0.0,
			"0.017": 0.0,
			"0.018": 0.0,
			"0.019": 0.0,
			"0.02": 0.0,
			"0.021": 0.0,
			"0.022": 0.0,
			"0.023": 0.0,
			"0.024": 0.0,
			"0.025": 0.0
		}
	}
}
