{
	 "smiles": "CC1=NN(CCC(O)=O)C(C)=C1[N+]([O-])=O", 
	 "Tm": 390.15, 
	 "num_atms": 26, 
	 "gaussian": { 
		 "optdone": 1, 
		 "sigma_profile": "yes", 
		 "theory": "DFT", 
		 "functional": "B3LYP", 
		 "basiset": "6-31G**", 
		 "properties": { 
			 "R2extent": 4273.5825, 
			 "electric_dipole_moment_norm": 4.6663868903, 
			 "electric_quadrupole_moment_norm": 20.0495253901, 
			 "total_energy": -776.541672723, 
			 "HOMO_LUMO_gap": 0.19557, 
			 "cosmo_polarized_energy": -18.39, 
			 "cosmo_cavitation_energy": 31.21, 
			 "cosmo_dispersion_energy": -21.98, 
			 "cosmo_repulsion_energy": 1.75, 
			 "cosmo_total_nonelectrostatic_energy": 10.99, 
			 "SMD_solvation_energy": 7.64 
		},
		"coords": [
			{
				"x": 1.1742348728,
				"y": 3.3592463239,
				"z": -0.1655005706,
				"element": "C" 
			},
			{
				"x": 0.6717386407,
				"y": 1.9706776857,
				"z": -0.3920880457,
				"element": "C" 
			},
			{
				"x": 1.3385676208,
				"y": 0.9217847755,
				"z": 0.0687008197,
				"element": "N" 
			},
			{
				"x": 0.6234400728,
				"y": -0.1805449032,
				"z": -0.3148146556,
				"element": "N" 
			},
			{
				"x": 1.1255761629,
				"y": -1.4797171662,
				"z": 0.1147521318,
				"element": "C" 
			},
			{
				"x": 0.7859560085,
				"y": -1.7560417034,
				"z": 1.5884547847,
				"element": "C" 
			},
			{
				"x": 1.3035365659,
				"y": -3.0873858945,
				"z": 2.09384471,
				"element": "C" 
			},
			{
				"x": 1.1389180073,
				"y": -4.0738041276,
				"z": 1.1748128175,
				"element": "O" 
			},
			{
				"x": 1.7855618199,
				"y": -3.2846275984,
				"z": 3.1841604718,
				"element": "O" 
			},
			{
				"x": -0.5004010333,
				"y": 0.1242509035,
				"z": -1.0055391824,
				"element": "C" 
			},
			{
				"x": -1.4791726965,
				"y": -0.8689655191,
				"z": -1.5408735627,
				"element": "C" 
			},
			{
				"x": -0.4917171591,
				"y": 1.5211336781,
				"z": -1.0766413538,
				"element": "C" 
			},
			{
				"x": -1.4731799621,
				"y": 2.3234479902,
				"z": -1.7242570026,
				"element": "N" 
			},
			{
				"x": -1.3257981833,
				"y": 3.5499687061,
				"z": -1.6941509786,
				"element": "O" 
			},
			{
				"x": -2.4193795697,
				"y": 1.7485220985,
				"z": -2.280266124,
				"element": "O" 
			},
			{
				"x": 1.3484685023,
				"y": 3.8724099123,
				"z": -1.1152754995,
				"element": "H" 
			},
			{
				"x": 0.4394565348,
				"y": 3.9571648375,
				"z": 0.3806831722,
				"element": "H" 
			},
			{
				"x": 2.1055997549,
				"y": 3.3164487785,
				"z": 0.4026235116,
				"element": "H" 
			},
			{
				"x": 0.7141684982,
				"y": -2.2547980885,
				"z": -0.5309114834,
				"element": "H" 
			},
			{
				"x": 2.2080702585,
				"y": -1.4590675281,
				"z": -0.0300247235,
				"element": "H" 
			},
			{
				"x": 1.1949071532,
				"y": -0.9718677718,
				"z": 2.2274516917,
				"element": "H" 
			},
			{
				"x": -0.3040104558,
				"y": -1.7562510137,
				"z": 1.7175179903,
				"element": "H" 
			},
			{
				"x": 1.4784916102,
				"y": -4.8875519573,
				"z": 1.5847678989,
				"element": "H" 
			},
			{
				"x": -1.5403287674,
				"y": -0.7931370064,
				"z": -2.6298835034,
				"element": "H" 
			},
			{
				"x": -1.2120849075,
				"y": -1.8920735127,
				"z": -1.2707227419,
				"element": "H" 
			},
			{
				"x": -2.4811193489,
				"y": -0.6515218989,
				"z": -1.1628205726,
				"element": "H" 
			}
		],
		 "valence_orbital": [ 
			{
				"type": "occ",
				"energy": -0.29542,
				"method": "rhf"
			},
			{
				"type": "occ",
				"energy": -0.29406,
				"method": "rhf"
			},
			{
				"type": "occ",
				"energy": -0.2789,
				"method": "rhf"
			},
			{
				"type": "occ",
				"energy": -0.26831,
				"method": "rhf"
			},
			{
				"type": "occ",
				"energy": -0.26599,
				"method": "rhf"
			},
			{
				"type": "unocc",
				"energy": -0.07042,
				"method": "rhf"
			},
			{
				"type": "unocc",
				"energy": -0.01246,
				"method": "rhf"
			},
			{
				"type": "unocc",
				"energy": 0.00048,
				"method": "rhf"
			},
			{
				"type": "unocc",
				"energy": 0.05686,
				"method": "rhf"
			},
			{
				"type": "unocc",
				"energy": 0.06135,
				"method": "rhf"
			}
		],
		"cosmo_sigma_profile": { 
			"-0.025": 0.0,
			"-0.024": 0.0,
			"-0.023": 0.0,
			"-0.022": 0.0,
			"-0.021": 0.0,
			"-0.02": 0.0,
			"-0.019": 0.0760615535073,
			"-0.018": 1.02468132144,
			"-0.017": 0.516779369127,
			"-0.016": 1.16546091994,
			"-0.015": 0.724137033463,
			"-0.014": 0.648601301948,
			"-0.013": 0.491667283299,
			"-0.012": 0.831014618429,
			"-0.011": 0.930469325495,
			"-0.01": 0.871051545847,
			"-0.009": 1.32821798179,
			"-0.008": 7.28325001749,
			"-0.007": 9.07364727877,
			"-0.006": 11.1307501827,
			"-0.005": 15.128343155,
			"-0.004": 23.2434750797,
			"-0.003": 24.4556832015,
			"-0.002": 20.752027834,
			"-0.001": 17.9752323444,
			"0.0": 14.9177974551,
			"0.001": 9.83196536039,
			"0.002": 8.61037389467,
			"0.003": 7.04259892856,
			"0.004": 6.4234708161,
			"0.005": 8.06964819912,
			"0.006": 6.56515479254,
			"0.007": 6.98141858206,
			"0.008": 9.70647526714,
			"0.009": 8.73580871136,
			"0.01": 7.31607338178,
			"0.011": 8.36757138136,
			"0.012": 4.97268503998,
			"0.013": 1.1936763497,
			"0.014": 0.350401952302,
			"0.015": 0.0,
			"0.016": 0.0,
			"0.017": 0.0,
			"0.018": 0.0,
			"0.019": 0.0,
			"0.02": 0.0,
			"0.021": 0.0,
			"0.022": 0.0,
			"0.023": 0.0,
			"0.024": 0.0,
			"0.025": 0.0
		}
	}
}
