{
	 "smiles": "NC(=S)NC1=CC=C(F)C=C1", 
	 "Tm": 437.15, 
	 "num_atms": 18, 
	 "gaussian": { 
		 "optdone": 1, 
		 "sigma_profile": "yes", 
		 "theory": "DFT", 
		 "functional": "B3LYP", 
		 "basiset": "6-31G**", 
		 "properties": { 
			 "R2extent": 3014.3097, 
			 "electric_dipole_moment_norm": 4.21283119292, 
			 "electric_quadrupole_moment_norm": 32.370311174, 
			 "total_energy": -878.504023431, 
			 "HOMO_LUMO_gap": 0.17378, 
			 "cosmo_polarized_energy": -16.98, 
			 "cosmo_cavitation_energy": 24.58, 
			 "cosmo_dispersion_energy": -18.5, 
			 "cosmo_repulsion_energy": 1.43, 
			 "cosmo_total_nonelectrostatic_energy": 7.52, 
			 "SMD_solvation_energy": 3.9 
		},
		"coords": [
			{
				"x": 2.4804492861,
				"y": -1.6067265994,
				"z": -0.883229212,
				"element": "N" 
			},
			{
				"x": 3.0434890334,
				"y": -0.7318717468,
				"z": -0.0064123948,
				"element": "C" 
			},
			{
				"x": 4.7075809749,
				"y": -0.5729202296,
				"z": 0.1630053254,
				"element": "S" 
			},
			{
				"x": 2.1878395238,
				"y": 0.0373040722,
				"z": 0.73679088,
				"element": "N" 
			},
			{
				"x": 0.7718141831,
				"y": 0.0998215892,
				"z": 0.7075759622,
				"element": "C" 
			},
			{
				"x": 0.0756192783,
				"y": 0.1639123744,
				"z": 1.9243772923,
				"element": "C" 
			},
			{
				"x": -1.311947518,
				"y": 0.2796792978,
				"z": 1.9430782944,
				"element": "C" 
			},
			{
				"x": -2.000305517,
				"y": 0.3103058716,
				"z": 0.734734139,
				"element": "C" 
			},
			{
				"x": -3.3444927243,
				"y": 0.4070576647,
				"z": 0.7476000619,
				"element": "F" 
			},
			{
				"x": -1.3370121493,
				"y": 0.2491265288,
				"z": -0.4851180567,
				"element": "C" 
			},
			{
				"x": 0.0546623501,
				"y": 0.1597288599,
				"z": -0.4981830367,
				"element": "C" 
			},
			{
				"x": 1.5176967406,
				"y": -1.8948802707,
				"z": -0.7732634966,
				"element": "H" 
			},
			{
				"x": 3.1193408478,
				"y": -2.2585018296,
				"z": -1.3112624249,
				"element": "H" 
			},
			{
				"x": 2.6671035973,
				"y": 0.5944162334,
				"z": 1.430598718,
				"element": "H" 
			},
			{
				"x": 0.6276712661,
				"y": 0.1172526077,
				"z": 2.8584483117,
				"element": "H" 
			},
			{
				"x": -1.8621050366,
				"y": 0.3326381633,
				"z": 2.8760961877,
				"element": "H" 
			},
			{
				"x": -1.9058847047,
				"y": 0.295910112,
				"z": -1.407290986,
				"element": "H" 
			},
			{
				"x": 0.5863805686,
				"y": 0.1586473011,
				"z": -1.4431455648,
				"element": "H" 
			}
		],
		 "valence_orbital": [ 
			{
				"type": "occ",
				"energy": -0.30522,
				"method": "rhf"
			},
			{
				"type": "occ",
				"energy": -0.28206,
				"method": "rhf"
			},
			{
				"type": "occ",
				"energy": -0.2502,
				"method": "rhf"
			},
			{
				"type": "occ",
				"energy": -0.21266,
				"method": "rhf"
			},
			{
				"type": "occ",
				"energy": -0.20772,
				"method": "rhf"
			},
			{
				"type": "unocc",
				"energy": -0.03394,
				"method": "rhf"
			},
			{
				"type": "unocc",
				"energy": -0.03178,
				"method": "rhf"
			},
			{
				"type": "unocc",
				"energy": 0.01288,
				"method": "rhf"
			},
			{
				"type": "unocc",
				"energy": 0.06473,
				"method": "rhf"
			},
			{
				"type": "unocc",
				"energy": 0.07662,
				"method": "rhf"
			}
		],
		"cosmo_sigma_profile": { 
			"-0.025": 0.0,
			"-0.024": 0.0,
			"-0.023": 0.0,
			"-0.022": 0.0,
			"-0.021": 0.0,
			"-0.02": 0.0,
			"-0.019": 0.0,
			"-0.018": 0.0,
			"-0.017": 0.0,
			"-0.016": 0.0,
			"-0.015": 0.487062872884,
			"-0.014": 2.7916697147,
			"-0.013": 2.91121833806,
			"-0.012": 3.467898285,
			"-0.011": 3.09174871772,
			"-0.01": 3.37422724155,
			"-0.009": 2.66051400414,
			"-0.008": 4.53935803205,
			"-0.007": 10.5973170862,
			"-0.006": 9.99329021633,
			"-0.005": 8.81660457943,
			"-0.004": 7.26069535374,
			"-0.003": 9.13679349344,
			"-0.002": 7.74367873179,
			"-0.001": 9.41119966073,
			"0.0": 14.2091154806,
			"0.001": 15.224647254,
			"0.002": 14.8864231181,
			"0.003": 13.4672871139,
			"0.004": 14.5412478354,
			"0.005": 5.81669856417,
			"0.006": 4.5115312793,
			"0.007": 2.44612835993,
			"0.008": 3.5956863439,
			"0.009": 4.72605846913,
			"0.01": 4.38859845829,
			"0.011": 8.21001045154,
			"0.012": 6.04498107865,
			"0.013": 1.11724488216,
			"0.014": 0.0,
			"0.015": 0.0,
			"0.016": 0.0,
			"0.017": 0.0,
			"0.018": 0.0,
			"0.019": 0.0,
			"0.02": 0.0,
			"0.021": 0.0,
			"0.022": 0.0,
			"0.023": 0.0,
			"0.024": 0.0,
			"0.025": 0.0
		}
	}
}
