{
	 "smiles": "CC1=CC=C(CO)C=C1C", 
	 "Tm": 337.15, 
	 "num_atms": 22, 
	 "gaussian": { 
		 "optdone": 1, 
		 "sigma_profile": "yes", 
		 "theory": "DFT", 
		 "functional": "B3LYP", 
		 "basiset": "6-31G**", 
		 "properties": { 
			 "R2extent": 1876.3551, 
			 "electric_dipole_moment_norm": 1.18753644155, 
			 "electric_quadrupole_moment_norm": 8.25573715788, 
			 "total_energy": -425.415872693, 
			 "HOMO_LUMO_gap": 0.22853, 
			 "cosmo_polarized_energy": -8.09, 
			 "cosmo_cavitation_energy": 24.57, 
			 "cosmo_dispersion_energy": -18.12, 
			 "cosmo_repulsion_energy": 1.48, 
			 "cosmo_total_nonelectrostatic_energy": 7.93, 
			 "SMD_solvation_energy": 4.34 
		},
		"coords": [
			{
				"x": 0.0815827612,
				"y": -1.9249855203,
				"z": 3.1047148701,
				"element": "C" 
			},
			{
				"x": -0.3643367933,
				"y": -1.113154786,
				"z": 1.9119425917,
				"element": "C" 
			},
			{
				"x": -1.6662817627,
				"y": -1.2405754245,
				"z": 1.4165209225,
				"element": "C" 
			},
			{
				"x": -2.1002785941,
				"y": -0.5088712661,
				"z": 0.3115691692,
				"element": "C" 
			},
			{
				"x": -1.2346469748,
				"y": 0.3846537446,
				"z": -0.3222615345,
				"element": "C" 
			},
			{
				"x": -1.7165755384,
				"y": 1.2236719863,
				"z": -1.4841548449,
				"element": "C" 
			},
			{
				"x": -0.6179089318,
				"y": 1.5751288204,
				"z": -2.3156540507,
				"element": "O" 
			},
			{
				"x": 0.0680946178,
				"y": 0.5162460154,
				"z": 0.1684538641,
				"element": "C" 
			},
			{
				"x": 0.5188933078,
				"y": -0.2185543684,
				"z": 1.269681858,
				"element": "C" 
			},
			{
				"x": 1.938334862,
				"y": -0.0505059238,
				"z": 1.7587522247,
				"element": "C" 
			},
			{
				"x": 0.9307021895,
				"y": -2.5751796175,
				"z": 2.8599978054,
				"element": "H" 
			},
			{
				"x": 0.4067149014,
				"y": -1.2847224581,
				"z": 3.9341577324,
				"element": "H" 
			},
			{
				"x": -0.7277773558,
				"y": -2.5608279686,
				"z": 3.4737207737,
				"element": "H" 
			},
			{
				"x": -2.3503746347,
				"y": -1.9339146845,
				"z": 1.9002583989,
				"element": "H" 
			},
			{
				"x": -3.1153541033,
				"y": -0.639395068,
				"z": -0.0572700416,
				"element": "H" 
			},
			{
				"x": -2.4808988244,
				"y": 0.6615891672,
				"z": -2.0451172607,
				"element": "H" 
			},
			{
				"x": -2.2126955116,
				"y": 2.1296220302,
				"z": -1.0948624723,
				"element": "H" 
			},
			{
				"x": -0.9222510597,
				"y": 2.2420074162,
				"z": -2.9426649889,
				"element": "H" 
			},
			{
				"x": 0.7450990716,
				"y": 1.1992771551,
				"z": -0.3348641383,
				"element": "H" 
			},
			{
				"x": 1.9715988587,
				"y": 0.2926303152,
				"z": 2.8003214734,
				"element": "H" 
			},
			{
				"x": 2.4802684411,
				"y": 0.6779404472,
				"z": 1.1501366853,
				"element": "H" 
			},
			{
				"x": 2.4944910735,
				"y": -0.995480012,
				"z": 1.7224209624,
				"element": "H" 
			}
		],
		 "valence_orbital": [ 
			{
				"type": "occ",
				"energy": -0.32428,
				"method": "rhf"
			},
			{
				"type": "occ",
				"energy": -0.31819,
				"method": "rhf"
			},
			{
				"type": "occ",
				"energy": -0.2705,
				"method": "rhf"
			},
			{
				"type": "occ",
				"energy": -0.2329,
				"method": "rhf"
			},
			{
				"type": "occ",
				"energy": -0.22086,
				"method": "rhf"
			},
			{
				"type": "unocc",
				"energy": 0.00767,
				"method": "rhf"
			},
			{
				"type": "unocc",
				"energy": 0.0135,
				"method": "rhf"
			},
			{
				"type": "unocc",
				"energy": 0.07854,
				"method": "rhf"
			},
			{
				"type": "unocc",
				"energy": 0.09947,
				"method": "rhf"
			},
			{
				"type": "unocc",
				"energy": 0.1143,
				"method": "rhf"
			}
		],
		"cosmo_sigma_profile": { 
			"-0.025": 0.0,
			"-0.024": 0.0,
			"-0.023": 0.0,
			"-0.022": 0.0,
			"-0.021": 0.0,
			"-0.02": 0.0,
			"-0.019": 0.0,
			"-0.018": 0.0,
			"-0.017": 0.0,
			"-0.016": 0.515614408505,
			"-0.015": 1.19371154475,
			"-0.014": 1.27365050222,
			"-0.013": 0.38667808222,
			"-0.012": 0.811829003725,
			"-0.011": 0.980907839064,
			"-0.01": 0.897183923959,
			"-0.009": 1.32597263144,
			"-0.008": 0.826631341552,
			"-0.007": 0.676518300824,
			"-0.006": 0.956328911593,
			"-0.005": 5.57687535272,
			"-0.004": 21.4165329338,
			"-0.003": 24.3470910209,
			"-0.002": 19.2401243407,
			"-0.001": 16.5432728424,
			"0.0": 20.0889837371,
			"0.001": 14.7074878917,
			"0.002": 9.61915288378,
			"0.003": 8.10840948432,
			"0.004": 7.95402318349,
			"0.005": 8.3771145927,
			"0.006": 8.55115886288,
			"0.007": 7.86930130002,
			"0.008": 2.02841231015,
			"0.009": 1.6853777413,
			"0.01": 1.89410207166,
			"0.011": 1.03334858412,
			"0.012": 1.46383820771,
			"0.013": 1.22517601485,
			"0.014": 0.789804254989,
			"0.015": 0.184075386863,
			"0.016": 0.0,
			"0.017": 0.0,
			"0.018": 0.0,
			"0.019": 0.0,
			"0.02": 0.0,
			"0.021": 0.0,
			"0.022": 0.0,
			"0.023": 0.0,
			"0.024": 0.0,
			"0.025": 0.0
		}
	}
}
