{
	 "smiles": "FC1=CC(F)=C(C=C1)C(=O)C1=CN=CC=C1", 
	 "Tm": 328.15, 
	 "num_atms": 23, 
	 "gaussian": { 
		 "optdone": 1, 
		 "sigma_profile": "yes", 
		 "theory": "DFT", 
		 "functional": "B3LYP", 
		 "basiset": "6-31G**", 
		 "properties": { 
			 "R2extent": 4069.9475, 
			 "electric_dipole_moment_norm": 3.58487531024, 
			 "electric_quadrupole_moment_norm": 11.4954774977, 
			 "total_energy": -791.127519521, 
			 "HOMO_LUMO_gap": 0.17596, 
			 "cosmo_polarized_energy": -10.43, 
			 "cosmo_cavitation_energy": 29.11, 
			 "cosmo_dispersion_energy": -20.82, 
			 "cosmo_repulsion_energy": 1.55, 
			 "cosmo_total_nonelectrostatic_energy": 9.85, 
			 "SMD_solvation_energy": 4.96 
		},
		"coords": [
			{
				"x": -2.2895503738,
				"y": 3.4031527604,
				"z": 2.9538140948,
				"element": "F" 
			},
			{
				"x": -1.3897942709,
				"y": 2.6038978353,
				"z": 2.357979791,
				"element": "C" 
			},
			{
				"x": -1.5050087235,
				"y": 2.3761474206,
				"z": 0.9922936161,
				"element": "C" 
			},
			{
				"x": -0.5691739733,
				"y": 1.539695786,
				"z": 0.3950418356,
				"element": "C" 
			},
			{
				"x": -0.6701426928,
				"y": 1.3540804102,
				"z": -0.9361644406,
				"element": "F" 
			},
			{
				"x": 0.4662508903,
				"y": 0.9272904527,
				"z": 1.1121986488,
				"element": "C" 
			},
			{
				"x": 0.5522667909,
				"y": 1.2201583328,
				"z": 2.4854104539,
				"element": "C" 
			},
			{
				"x": -0.3707472466,
				"y": 2.039460062,
				"z": 3.1226100967,
				"element": "C" 
			},
			{
				"x": 1.5445273533,
				"y": 0.0647255925,
				"z": 0.518982844,
				"element": "C" 
			},
			{
				"x": 2.6697520414,
				"y": 0.1088453682,
				"z": 1.0019073785,
				"element": "O" 
			},
			{
				"x": 1.2529039966,
				"y": -0.876764387,
				"z": -0.6045725303,
				"element": "C" 
			},
			{
				"x": 2.3241009875,
				"y": -1.3035222633,
				"z": -1.407988474,
				"element": "C" 
			},
			{
				"x": 2.2052231126,
				"y": -2.1807372176,
				"z": -2.4067737623,
				"element": "N" 
			},
			{
				"x": 0.9865483974,
				"y": -2.693751133,
				"z": -2.6290331397,
				"element": "C" 
			},
			{
				"x": -0.1440374491,
				"y": -2.356119017,
				"z": -1.8833535327,
				"element": "C" 
			},
			{
				"x": -0.009685291,
				"y": -1.4261347703,
				"z": -0.856522412,
				"element": "C" 
			},
			{
				"x": -2.2860911372,
				"y": 2.8441542068,
				"z": 0.4059005441,
				"element": "H" 
			},
			{
				"x": 1.374586881,
				"y": 0.7816198869,
				"z": 3.0401509296,
				"element": "H" 
			},
			{
				"x": -0.3128163163,
				"y": 2.2520325543,
				"z": 4.1838150669,
				"element": "H" 
			},
			{
				"x": 3.3154490805,
				"y": -0.8990190141,
				"z": -1.2203015373,
				"element": "H" 
			},
			{
				"x": 0.9126315501,
				"y": -3.4146200403,
				"z": -3.4414710902,
				"element": "H" 
			},
			{
				"x": -1.1030851506,
				"y": -2.8140380671,
				"z": -2.1031105619,
				"element": "H" 
			},
			{
				"x": -0.865608456,
				"y": -1.149354759,
				"z": -0.2498138188,
				"element": "H" 
			}
		],
		 "valence_orbital": [ 
			{
				"type": "occ",
				"energy": -0.28215,
				"method": "rhf"
			},
			{
				"type": "occ",
				"energy": -0.27519,
				"method": "rhf"
			},
			{
				"type": "occ",
				"energy": -0.26903,
				"method": "rhf"
			},
			{
				"type": "occ",
				"energy": -0.26285,
				"method": "rhf"
			},
			{
				"type": "occ",
				"energy": -0.25377,
				"method": "rhf"
			},
			{
				"type": "unocc",
				"energy": -0.07781,
				"method": "rhf"
			},
			{
				"type": "unocc",
				"energy": -0.03234,
				"method": "rhf"
			},
			{
				"type": "unocc",
				"energy": -0.02861,
				"method": "rhf"
			},
			{
				"type": "unocc",
				"energy": -0.02048,
				"method": "rhf"
			},
			{
				"type": "unocc",
				"energy": 0.03874,
				"method": "rhf"
			}
		],
		"cosmo_sigma_profile": { 
			"-0.025": 0.0,
			"-0.024": 0.0,
			"-0.023": 0.0,
			"-0.022": 0.0,
			"-0.021": 0.0,
			"-0.02": 0.0,
			"-0.019": 0.0,
			"-0.018": 0.0,
			"-0.017": 0.0,
			"-0.016": 0.0,
			"-0.015": 0.0,
			"-0.014": 0.0,
			"-0.013": 0.0,
			"-0.012": 0.0,
			"-0.011": 0.0,
			"-0.01": 0.0763982987904,
			"-0.009": 1.62381495031,
			"-0.008": 4.81142516437,
			"-0.007": 11.8901633735,
			"-0.006": 13.8737879833,
			"-0.005": 13.1417276859,
			"-0.004": 12.1452247182,
			"-0.003": 13.8397365468,
			"-0.002": 14.4687584207,
			"-0.001": 21.3125138835,
			"0.0": 26.7518561399,
			"0.001": 24.8264773947,
			"0.002": 17.4979929451,
			"0.003": 20.5922885258,
			"0.004": 10.5960803287,
			"0.005": 2.79704195012,
			"0.006": 2.834477621,
			"0.007": 2.96257582522,
			"0.008": 2.88637255992,
			"0.009": 3.43166634209,
			"0.01": 3.16029813125,
			"0.011": 4.62526532375,
			"0.012": 1.8701868172,
			"0.013": 1.27270305234,
			"0.014": 0.958734327435,
			"0.015": 0.736327225986,
			"0.016": 0.585385185053,
			"0.017": 0.0742091490179,
			"0.018": 0.0,
			"0.019": 0.0,
			"0.02": 0.0,
			"0.021": 0.0,
			"0.022": 0.0,
			"0.023": 0.0,
			"0.024": 0.0,
			"0.025": 0.0
		}
	}
}
