{
	 "smiles": "CC(C)NC1=NC(NC(C)C)=NC(Cl)=N1", 
	 "Tm": 486.15, 
	 "num_atms": 31, 
	 "gaussian": { 
		 "optdone": 1, 
		 "sigma_profile": "yes", 
		 "theory": "DFT", 
		 "functional": "B3LYP", 
		 "basiset": "6-31G**", 
		 "properties": { 
			 "R2extent": 5569.5955, 
			 "electric_dipole_moment_norm": 4.49176227554, 
			 "electric_quadrupole_moment_norm": 15.9829821079, 
			 "total_energy": -1086.61311592, 
			 "HOMO_LUMO_gap": 0.22026, 
			 "cosmo_polarized_energy": -11.69, 
			 "cosmo_cavitation_energy": 35.97, 
			 "cosmo_dispersion_energy": -25.53, 
			 "cosmo_repulsion_energy": 2.09, 
			 "cosmo_total_nonelectrostatic_energy": 12.54, 
			 "SMD_solvation_energy": 2.0 
		},
		"coords": [
			{
				"x": -1.5585860604,
				"y": 4.073916975,
				"z": 1.4660134602,
				"element": "C" 
			},
			{
				"x": -0.5148209781,
				"y": 2.9631087076,
				"z": 1.3210642099,
				"element": "C" 
			},
			{
				"x": 0.8859347838,
				"y": 3.4200307403,
				"z": 1.7547415505,
				"element": "C" 
			},
			{
				"x": -0.9571303602,
				"y": 1.7931118184,
				"z": 2.0796569262,
				"element": "N" 
			},
			{
				"x": -0.6259818249,
				"y": 0.5126826799,
				"z": 1.8022607698,
				"element": "C" 
			},
			{
				"x": 0.0985256266,
				"y": 0.2486925545,
				"z": 0.7077692458,
				"element": "N" 
			},
			{
				"x": 0.3489889046,
				"y": -1.060093689,
				"z": 0.50934226,
				"element": "C" 
			},
			{
				"x": 1.0518420078,
				"y": -1.3835473387,
				"z": -0.5984173183,
				"element": "N" 
			},
			{
				"x": 1.510150568,
				"y": -2.7302935511,
				"z": -0.9481731317,
				"element": "C" 
			},
			{
				"x": 2.8311920792,
				"y": -3.0753588594,
				"z": -0.2458391774,
				"element": "C" 
			},
			{
				"x": 1.6158909125,
				"y": -2.8377944894,
				"z": -2.4718575014,
				"element": "C" 
			},
			{
				"x": -0.0505984652,
				"y": -2.0693042239,
				"z": 1.3214758062,
				"element": "N" 
			},
			{
				"x": -0.7493865385,
				"y": -1.6446683191,
				"z": 2.3612832376,
				"element": "C" 
			},
			{
				"x": -1.3008333711,
				"y": -2.9047654388,
				"z": 3.4630585667,
				"element": "Cl" 
			},
			{
				"x": -1.0860480452,
				"y": -0.4157250598,
				"z": 2.6893829213,
				"element": "N" 
			},
			{
				"x": -2.5411419767,
				"y": 3.7403513045,
				"z": 1.1196960027,
				"element": "H" 
			},
			{
				"x": -1.2656227255,
				"y": 4.9507080636,
				"z": 0.8814273388,
				"element": "H" 
			},
			{
				"x": -1.6521958412,
				"y": 4.3919335373,
				"z": 2.5119012572,
				"element": "H" 
			},
			{
				"x": -0.4663681388,
				"y": 2.6463954422,
				"z": 0.2749495706,
				"element": "H" 
			},
			{
				"x": 1.2197580504,
				"y": 4.2687407698,
				"z": 1.148060884,
				"element": "H" 
			},
			{
				"x": 1.6056578652,
				"y": 2.6064632549,
				"z": 1.6325187564,
				"element": "H" 
			},
			{
				"x": 0.8880160114,
				"y": 3.7307595228,
				"z": 2.8056140818,
				"element": "H" 
			},
			{
				"x": -1.4454528413,
				"y": 1.9233413698,
				"z": 2.9546583962,
				"element": "H" 
			},
			{
				"x": 1.387138768,
				"y": -0.5949066266,
				"z": -1.1337335892,
				"element": "H" 
			},
			{
				"x": 0.7383677436,
				"y": -3.4161348221,
				"z": -0.5885221869,
				"element": "H" 
			},
			{
				"x": 2.7147662885,
				"y": -3.0029988612,
				"z": 0.8385378264,
				"element": "H" 
			},
			{
				"x": 3.1406845525,
				"y": -4.097289926,
				"z": -0.4894010474,
				"element": "H" 
			},
			{
				"x": 3.6310429724,
				"y": -2.3938384901,
				"z": -0.5577986185,
				"element": "H" 
			},
			{
				"x": 2.3631934041,
				"y": -2.1374973434,
				"z": -2.8660948592,
				"element": "H" 
			},
			{
				"x": 0.6564379609,
				"y": -2.6216570365,
				"z": -2.9508623278,
				"element": "H" 
			},
			{
				"x": 1.9264786676,
				"y": -3.8457626652,
				"z": -2.7612133104,
				"element": "H" 
			}
		],
		 "valence_orbital": [ 
			{
				"type": "occ",
				"energy": -0.28676,
				"method": "rhf"
			},
			{
				"type": "occ",
				"energy": -0.26471,
				"method": "rhf"
			},
			{
				"type": "occ",
				"energy": -0.26331,
				"method": "rhf"
			},
			{
				"type": "occ",
				"energy": -0.24068,
				"method": "rhf"
			},
			{
				"type": "occ",
				"energy": -0.23489,
				"method": "rhf"
			},
			{
				"type": "unocc",
				"energy": -0.01463,
				"method": "rhf"
			},
			{
				"type": "unocc",
				"energy": 0.00458,
				"method": "rhf"
			},
			{
				"type": "unocc",
				"energy": 0.04832,
				"method": "rhf"
			},
			{
				"type": "unocc",
				"energy": 0.081,
				"method": "rhf"
			},
			{
				"type": "unocc",
				"energy": 0.0839,
				"method": "rhf"
			}
		],
		"cosmo_sigma_profile": { 
			"-0.025": 0.0,
			"-0.024": 0.0,
			"-0.023": 0.0,
			"-0.022": 0.0,
			"-0.021": 0.0,
			"-0.02": 0.0,
			"-0.019": 0.0,
			"-0.018": 0.0,
			"-0.017": 0.0,
			"-0.016": 0.0,
			"-0.015": 0.0,
			"-0.014": 0.257622242,
			"-0.013": 1.36036139598,
			"-0.012": 2.04539148825,
			"-0.011": 1.74221915785,
			"-0.01": 2.06607677477,
			"-0.009": 1.9205906419,
			"-0.008": 1.76766041802,
			"-0.007": 2.27741934632,
			"-0.006": 2.75234347565,
			"-0.005": 3.37401119713,
			"-0.004": 16.2328029593,
			"-0.003": 32.7277106299,
			"-0.002": 33.0542308385,
			"-0.001": 33.0915727195,
			"0.0": 38.6736978847,
			"0.001": 33.9546862171,
			"0.002": 13.4992943178,
			"0.003": 12.842586177,
			"0.004": 13.0177944053,
			"0.005": 10.0854832351,
			"0.006": 6.6005750845,
			"0.007": 4.85073348099,
			"0.008": 4.89526391846,
			"0.009": 4.35657161261,
			"0.01": 2.35377887929,
			"0.011": 2.03407539477,
			"0.012": 1.51240225899,
			"0.013": 0.87880448074,
			"0.014": 0.199169859671,
			"0.015": 0.0,
			"0.016": 0.0,
			"0.017": 0.0,
			"0.018": 0.0,
			"0.019": 0.0,
			"0.02": 0.0,
			"0.021": 0.0,
			"0.022": 0.0,
			"0.023": 0.0,
			"0.024": 0.0,
			"0.025": 0.0
		}
	}
}
