{
	 "smiles": "CC(=O)CN1C=C(Br)C=N1", 
	 "Tm": 336.15, 
	 "num_atms": 17, 
	 "gaussian": { 
		 "optdone": 1, 
		 "sigma_profile": "yes", 
		 "theory": "DFT", 
		 "functional": "B3LYP", 
		 "basiset": "6-31G**", 
		 "properties": { 
			 "R2extent": 3507.0896, 
			 "electric_dipole_moment_norm": 0.534626046878, 
			 "electric_quadrupole_moment_norm": 8.69855843344, 
			 "total_energy": -2988.95312609, 
			 "HOMO_LUMO_gap": 0.20979, 
			 "cosmo_polarized_energy": -10.57, 
			 "cosmo_cavitation_energy": 24.08, 
			 "cosmo_dispersion_energy": -17.54, 
			 "cosmo_repulsion_energy": 1.45, 
			 "cosmo_total_nonelectrostatic_energy": 7.99, 
			 "SMD_solvation_energy": 3.59 
		},
		"coords": [
			{
				"x": 0.6644249643,
				"y": 0.2022103248,
				"z": -1.9600085731,
				"element": "C" 
			},
			{
				"x": 1.409884586,
				"y": 1.0197959175,
				"z": -0.9320109172,
				"element": "C" 
			},
			{
				"x": 2.0717735875,
				"y": 2.0000344066,
				"z": -1.2041064859,
				"element": "O" 
			},
			{
				"x": 1.3659434139,
				"y": 0.5581574379,
				"z": 0.5396125386,
				"element": "C" 
			},
			{
				"x": 0.2608673741,
				"y": -0.3099801762,
				"z": 0.8965771998,
				"element": "N" 
			},
			{
				"x": -0.9826601547,
				"y": 0.053826701,
				"z": 1.3138728559,
				"element": "C" 
			},
			{
				"x": -1.6993244648,
				"y": -1.1207716698,
				"z": 1.4382886494,
				"element": "C" 
			},
			{
				"x": -3.4866535052,
				"y": -1.2978883222,
				"z": 2.0034166547,
				"element": "Br" 
			},
			{
				"x": -0.8073084511,
				"y": -2.1483365097,
				"z": 1.0684909378,
				"element": "C" 
			},
			{
				"x": 0.3819271589,
				"y": -1.6485957993,
				"z": 0.7371073325,
				"element": "N" 
			},
			{
				"x": -0.4157917351,
				"y": 0.2733497648,
				"z": -1.7866490208,
				"element": "H" 
			},
			{
				"x": 0.9001221977,
				"y": 0.5740897128,
				"z": -2.9574657114,
				"element": "H" 
			},
			{
				"x": 0.9232348802,
				"y": -0.8574919046,
				"z": -1.8676796951,
				"element": "H" 
			},
			{
				"x": 2.2887957324,
				"y": 0.0044266106,
				"z": 0.7392977058,
				"element": "H" 
			},
			{
				"x": 1.3616568118,
				"y": 1.4461632327,
				"z": 1.1758381381,
				"element": "H" 
			},
			{
				"x": -1.2592318677,
				"y": 1.0807243675,
				"z": 1.4985432864,
				"element": "H" 
			},
			{
				"x": -0.9855605283,
				"y": -3.2138140944,
				"z": 1.0414751046,
				"element": "H" 
			}
		],
		 "valence_orbital": [ 
			{
				"type": "occ",
				"energy": -0.31711,
				"method": "rhf"
			},
			{
				"type": "occ",
				"energy": -0.28941,
				"method": "rhf"
			},
			{
				"type": "occ",
				"energy": -0.28173,
				"method": "rhf"
			},
			{
				"type": "occ",
				"energy": -0.26029,
				"method": "rhf"
			},
			{
				"type": "occ",
				"energy": -0.24052,
				"method": "rhf"
			},
			{
				"type": "unocc",
				"energy": -0.03073,
				"method": "rhf"
			},
			{
				"type": "unocc",
				"energy": -0.00579,
				"method": "rhf"
			},
			{
				"type": "unocc",
				"energy": 0.00993,
				"method": "rhf"
			},
			{
				"type": "unocc",
				"energy": 0.04686,
				"method": "rhf"
			},
			{
				"type": "unocc",
				"energy": 0.08891,
				"method": "rhf"
			}
		],
		"cosmo_sigma_profile": { 
			"-0.025": 0.0,
			"-0.024": 0.0,
			"-0.023": 0.0,
			"-0.022": 0.0,
			"-0.021": 0.0,
			"-0.02": 0.0,
			"-0.019": 0.0,
			"-0.018": 0.0,
			"-0.017": 0.0,
			"-0.016": 0.0,
			"-0.015": 0.0,
			"-0.014": 0.0,
			"-0.013": 0.0,
			"-0.012": 0.0,
			"-0.011": 0.790248971976,
			"-0.01": 3.32312746999,
			"-0.009": 4.58602950112,
			"-0.008": 7.67233548398,
			"-0.007": 7.34900787819,
			"-0.006": 8.9448060677,
			"-0.005": 12.7741172159,
			"-0.004": 11.4117832958,
			"-0.003": 12.3939297224,
			"-0.002": 13.5195557732,
			"-0.001": 12.8666098037,
			"0.0": 9.75675230764,
			"0.001": 11.672965913,
			"0.002": 14.5190467256,
			"0.003": 15.9806367371,
			"0.004": 15.5767707803,
			"0.005": 6.60700609041,
			"0.006": 2.82166644394,
			"0.007": 2.61143051705,
			"0.008": 2.77854381636,
			"0.009": 3.08087782927,
			"0.01": 3.47394716575,
			"0.011": 5.34557066662,
			"0.012": 3.71662904497,
			"0.013": 1.2705338311,
			"0.014": 0.6606149611,
			"0.015": 0.143202054855,
			"0.016": 0.0,
			"0.017": 0.0,
			"0.018": 0.0,
			"0.019": 0.0,
			"0.02": 0.0,
			"0.021": 0.0,
			"0.022": 0.0,
			"0.023": 0.0,
			"0.024": 0.0,
			"0.025": 0.0
		}
	}
}
