{
	 "smiles": "OC(=O)CC1=CN(N=C1C1=CC=C(F)C=C1)C1=CC=CC=C1", 
	 "Tm": 419.15, 
	 "num_atms": 35, 
	 "gaussian": { 
		 "optdone": 1, 
		 "sigma_profile": "yes", 
		 "theory": "DFT", 
		 "functional": "B3LYP", 
		 "basiset": "6-31G**", 
		 "properties": { 
			 "R2extent": 8621.9194, 
			 "electric_dipole_moment_norm": 4.52906567186, 
			 "electric_quadrupole_moment_norm": 13.2734141742, 
			 "total_energy": -1015.43505162, 
			 "HOMO_LUMO_gap": 0.17838, 
			 "cosmo_polarized_energy": -14.79, 
			 "cosmo_cavitation_energy": 40.65, 
			 "cosmo_dispersion_energy": -28.6, 
			 "cosmo_repulsion_energy": 2.13, 
			 "cosmo_total_nonelectrostatic_energy": 14.18, 
			 "SMD_solvation_energy": 7.82 
		},
		"coords": [
			{
				"x": -0.8850264037,
				"y": 4.2866978032,
				"z": 1.1550357947,
				"element": "O" 
			},
			{
				"x": 0.3315597368,
				"y": 3.8201875263,
				"z": 0.7879098274,
				"element": "C" 
			},
			{
				"x": 1.3273560578,
				"y": 4.0038270838,
				"z": 1.4544021326,
				"element": "O" 
			},
			{
				"x": 0.2612760267,
				"y": 3.0327401325,
				"z": -0.5099300946,
				"element": "C" 
			},
			{
				"x": -0.1326807235,
				"y": 1.5984009027,
				"z": -0.2646278895,
				"element": "C" 
			},
			{
				"x": -1.420488528,
				"y": 1.1218747036,
				"z": -0.1338788218,
				"element": "C" 
			},
			{
				"x": -1.3405371679,
				"y": -0.2314151824,
				"z": 0.0190974506,
				"element": "N" 
			},
			{
				"x": -0.0567653769,
				"y": -0.6624929993,
				"z": -0.0091623769,
				"element": "N" 
			},
			{
				"x": 0.6915645479,
				"y": 0.4325642941,
				"z": -0.1726835832,
				"element": "C" 
			},
			{
				"x": 2.1572782628,
				"y": 0.3049161914,
				"z": -0.2783623445,
				"element": "C" 
			},
			{
				"x": 3.0279797816,
				"y": 1.2927462857,
				"z": 0.2141069595,
				"element": "C" 
			},
			{
				"x": 4.4107167206,
				"y": 1.1434944827,
				"z": 0.1017299249,
				"element": "C" 
			},
			{
				"x": 4.9178295959,
				"y": -0.0034338781,
				"z": -0.4952548825,
				"element": "C" 
			},
			{
				"x": 6.2553651864,
				"y": -0.1511964102,
				"z": -0.6056990131,
				"element": "F" 
			},
			{
				"x": 4.0860877845,
				"y": -1.0077658159,
				"z": -0.9806191561,
				"element": "C" 
			},
			{
				"x": 2.7084960399,
				"y": -0.8459102459,
				"z": -0.8703483791,
				"element": "C" 
			},
			{
				"x": -2.4027340466,
				"y": -1.1586278404,
				"z": 0.1856217062,
				"element": "C" 
			},
			{
				"x": -2.1784363806,
				"y": -2.5143559356,
				"z": -0.0803039371,
				"element": "C" 
			},
			{
				"x": -3.2213560557,
				"y": -3.4249179866,
				"z": 0.0726181956,
				"element": "C" 
			},
			{
				"x": -4.4869979556,
				"y": -2.9975255282,
				"z": 0.4807916923,
				"element": "C" 
			},
			{
				"x": -4.7003725512,
				"y": -1.6447618651,
				"z": 0.7488643288,
				"element": "C" 
			},
			{
				"x": -3.6628878654,
				"y": -0.7232338119,
				"z": 0.6118143616,
				"element": "C" 
			},
			{
				"x": -0.7597880502,
				"y": 4.7309188428,
				"z": 2.0109546418,
				"element": "H" 
			},
			{
				"x": -0.4676811832,
				"y": 3.5134712094,
				"z": -1.1690923322,
				"element": "H" 
			},
			{
				"x": 1.2437530273,
				"y": 3.0823093235,
				"z": -0.9826249327,
				"element": "H" 
			},
			{
				"x": -2.3643007368,
				"y": 1.6430239797,
				"z": -0.1746688594,
				"element": "H" 
			},
			{
				"x": 2.6358934667,
				"y": 2.1723230247,
				"z": 0.7146666197,
				"element": "H" 
			},
			{
				"x": 5.0919205395,
				"y": 1.896690503,
				"z": 0.4826844981,
				"element": "H" 
			},
			{
				"x": 4.5209390774,
				"y": -1.8895213499,
				"z": -1.4389617544,
				"element": "H" 
			},
			{
				"x": 2.0402577667,
				"y": -1.6134105928,
				"z": -1.2453162935,
				"element": "H" 
			},
			{
				"x": -1.192503599,
				"y": -2.8304118748,
				"z": -0.3969692521,
				"element": "H" 
			},
			{
				"x": -3.0424065405,
				"y": -4.4758760757,
				"z": -0.1346457552,
				"element": "H" 
			},
			{
				"x": -5.2965767569,
				"y": -3.7118292913,
				"z": 0.5944103917,
				"element": "H" 
			},
			{
				"x": -5.6757183857,
				"y": -1.3006348979,
				"z": 1.0799411863,
				"element": "H" 
			},
			{
				"x": -3.8321153113,
				"y": 0.319735293,
				"z": 0.8565999459,
				"element": "H" 
			}
		],
		 "valence_orbital": [ 
			{
				"type": "occ",
				"energy": -0.26183,
				"method": "rhf"
			},
			{
				"type": "occ",
				"energy": -0.25766,
				"method": "rhf"
			},
			{
				"type": "occ",
				"energy": -0.25405,
				"method": "rhf"
			},
			{
				"type": "occ",
				"energy": -0.24109,
				"method": "rhf"
			},
			{
				"type": "occ",
				"energy": -0.21335,
				"method": "rhf"
			},
			{
				"type": "unocc",
				"energy": -0.03497,
				"method": "rhf"
			},
			{
				"type": "unocc",
				"energy": -0.01372,
				"method": "rhf"
			},
			{
				"type": "unocc",
				"energy": -0.00849,
				"method": "rhf"
			},
			{
				"type": "unocc",
				"energy": -0.00448,
				"method": "rhf"
			},
			{
				"type": "unocc",
				"energy": 0.0068,
				"method": "rhf"
			}
		],
		"cosmo_sigma_profile": { 
			"-0.025": 0.0,
			"-0.024": 0.0,
			"-0.023": 0.0,
			"-0.022": 0.0,
			"-0.021": 0.0,
			"-0.02": 0.0,
			"-0.019": 0.0781701019295,
			"-0.018": 0.73454809301,
			"-0.017": 1.29094723587,
			"-0.016": 0.516190836206,
			"-0.015": 0.674096419674,
			"-0.014": 0.906200712819,
			"-0.013": 0.568680506097,
			"-0.012": 0.491784474908,
			"-0.011": 1.55232715813,
			"-0.01": 2.23700662682,
			"-0.009": 2.42170310296,
			"-0.008": 3.16431835624,
			"-0.007": 8.06404280291,
			"-0.006": 17.1393231286,
			"-0.005": 21.75021669,
			"-0.004": 22.693013328,
			"-0.003": 18.6625376245,
			"-0.002": 16.3129198194,
			"-0.001": 18.507359492,
			"0.0": 22.4010606898,
			"0.001": 29.1320135207,
			"0.002": 28.5638200579,
			"0.003": 29.5400066497,
			"0.004": 35.3601334133,
			"0.005": 17.7081292565,
			"0.006": 4.98638990396,
			"0.007": 4.34496324183,
			"0.008": 4.04319120137,
			"0.009": 2.97312249897,
			"0.01": 3.04810164305,
			"0.011": 4.93186627874,
			"0.012": 1.74710689518,
			"0.013": 0.281290147765,
			"0.014": 0.0,
			"0.015": 0.0,
			"0.016": 0.0,
			"0.017": 0.0,
			"0.018": 0.0,
			"0.019": 0.0,
			"0.02": 0.0,
			"0.021": 0.0,
			"0.022": 0.0,
			"0.023": 0.0,
			"0.024": 0.0,
			"0.025": 0.0
		}
	}
}
