{
	 "smiles": "OC(=O)CNC(=O)NCC1=CC(=CC=C1)[N+]([O-])=O", 
	 "Tm": 427.15, 
	 "num_atms": 29, 
	 "gaussian": { 
		 "optdone": 1, 
		 "sigma_profile": "yes", 
		 "theory": "DFT", 
		 "functional": "B3LYP", 
		 "basiset": "6-31G**", 
		 "properties": { 
			 "R2extent": 6748.8238, 
			 "electric_dipole_moment_norm": 5.27317720165, 
			 "electric_quadrupole_moment_norm": 17.7404729909, 
			 "total_energy": -927.998653094, 
			 "HOMO_LUMO_gap": 0.17514, 
			 "cosmo_polarized_energy": -26.78, 
			 "cosmo_cavitation_energy": 35.4, 
			 "cosmo_dispersion_energy": -24.72, 
			 "cosmo_repulsion_energy": 1.95, 
			 "cosmo_total_nonelectrostatic_energy": 12.63, 
			 "SMD_solvation_energy": 10.04 
		},
		"coords": [
			{
				"x": -0.7412960977,
				"y": -3.2668520858,
				"z": -2.7030697617,
				"element": "O" 
			},
			{
				"x": 0.0576510883,
				"y": -2.3708177789,
				"z": -3.3127597301,
				"element": "C" 
			},
			{
				"x": -0.2596182447,
				"y": -1.7769104239,
				"z": -4.3120599789,
				"element": "O" 
			},
			{
				"x": 1.4167641776,
				"y": -2.1552750629,
				"z": -2.6232102272,
				"element": "C" 
			},
			{
				"x": 1.5300660624,
				"y": -2.8397039119,
				"z": -1.3343549246,
				"element": "N" 
			},
			{
				"x": 1.3089139666,
				"y": -2.193555212,
				"z": -0.1006693496,
				"element": "C" 
			},
			{
				"x": 1.9144635072,
				"y": -2.536609935,
				"z": 0.9034136414,
				"element": "O" 
			},
			{
				"x": 0.3692678366,
				"y": -1.1897052753,
				"z": -0.1318159289,
				"element": "N" 
			},
			{
				"x": -0.0574891756,
				"y": -0.5419889006,
				"z": 1.1041748853,
				"element": "C" 
			},
			{
				"x": -0.1881608017,
				"y": 0.9620414905,
				"z": 0.9602596284,
				"element": "C" 
			},
			{
				"x": -1.3360651078,
				"y": 1.613089784,
				"z": 1.4137557818,
				"element": "C" 
			},
			{
				"x": -1.4210322317,
				"y": 3.0003452329,
				"z": 1.3057061994,
				"element": "C" 
			},
			{
				"x": -0.4008860711,
				"y": 3.7686824896,
				"z": 0.7533186828,
				"element": "C" 
			},
			{
				"x": 0.7423910981,
				"y": 3.1126321186,
				"z": 0.2974831543,
				"element": "C" 
			},
			{
				"x": 0.8475941072,
				"y": 1.725671646,
				"z": 0.4006284825,
				"element": "C" 
			},
			{
				"x": -2.639643752,
				"y": 3.6742724194,
				"z": 1.7881165022,
				"element": "N" 
			},
			{
				"x": -3.5293054474,
				"y": 2.9707582868,
				"z": 2.2651005947,
				"element": "O" 
			},
			{
				"x": -2.6921861394,
				"y": 4.8987824345,
				"z": 1.6850294862,
				"element": "O" 
			},
			{
				"x": -0.233447905,
				"y": -3.6276277396,
				"z": -1.9479839728,
				"element": "H" 
			},
			{
				"x": 1.5781014235,
				"y": -1.0757004896,
				"z": -2.5381862381,
				"element": "H" 
			},
			{
				"x": 2.1842611714,
				"y": -2.5387982504,
				"z": -3.3013111302,
				"element": "H" 
			},
			{
				"x": 2.3268192419,
				"y": -3.4568714335,
				"z": -1.2365192286,
				"element": "H" 
			},
			{
				"x": -0.2706358479,
				"y": -1.1452127358,
				"z": -0.912627064,
				"element": "H" 
			},
			{
				"x": -1.0085271382,
				"y": -0.9624775216,
				"z": 1.4544046259,
				"element": "H" 
			},
			{
				"x": 0.6990577601,
				"y": -0.7986079389,
				"z": 1.8513233603,
				"element": "H" 
			},
			{
				"x": -2.1652986083,
				"y": 1.0670832569,
				"z": 1.8482819006,
				"element": "H" 
			},
			{
				"x": -0.5152258393,
				"y": 4.8431968514,
				"z": 0.6878493579,
				"element": "H" 
			},
			{
				"x": 1.5540102638,
				"y": 3.6874019273,
				"z": -0.1373141089,
				"element": "H" 
			},
			{
				"x": 1.7404567033,
				"y": 1.2227567575,
				"z": 0.04103536,
				"element": "H" 
			}
		],
		 "valence_orbital": [ 
			{
				"type": "occ",
				"energy": -0.29566,
				"method": "rhf"
			},
			{
				"type": "occ",
				"energy": -0.29289,
				"method": "rhf"
			},
			{
				"type": "occ",
				"energy": -0.28622,
				"method": "rhf"
			},
			{
				"type": "occ",
				"energy": -0.27506,
				"method": "rhf"
			},
			{
				"type": "occ",
				"energy": -0.26949,
				"method": "rhf"
			},
			{
				"type": "unocc",
				"energy": -0.09435,
				"method": "rhf"
			},
			{
				"type": "unocc",
				"energy": -0.03552,
				"method": "rhf"
			},
			{
				"type": "unocc",
				"energy": -0.01176,
				"method": "rhf"
			},
			{
				"type": "unocc",
				"energy": -0.00775,
				"method": "rhf"
			},
			{
				"type": "unocc",
				"energy": 0.01839,
				"method": "rhf"
			}
		],
		"cosmo_sigma_profile": { 
			"-0.025": 0.0,
			"-0.024": 0.0,
			"-0.023": 0.0,
			"-0.022": 0.0,
			"-0.021": 0.0,
			"-0.02": 0.0,
			"-0.019": 0.0,
			"-0.018": 0.0,
			"-0.017": 0.0,
			"-0.016": 0.0,
			"-0.015": 0.118081914141,
			"-0.014": 2.71027241092,
			"-0.013": 2.99262954262,
			"-0.012": 2.88620743462,
			"-0.011": 4.10134688329,
			"-0.01": 5.31682648032,
			"-0.009": 7.81382561928,
			"-0.008": 7.90120921289,
			"-0.007": 13.5683761982,
			"-0.006": 17.3059420037,
			"-0.005": 18.2408268741,
			"-0.004": 16.7809019638,
			"-0.003": 16.6978838976,
			"-0.002": 13.6493135896,
			"-0.001": 15.9405794495,
			"0.0": 16.6535180879,
			"0.001": 14.6264224143,
			"0.002": 13.0799681401,
			"0.003": 8.43698446974,
			"0.004": 5.46370624205,
			"0.005": 5.76985326879,
			"0.006": 7.12302765857,
			"0.007": 11.5212640336,
			"0.008": 12.0387592318,
			"0.009": 8.58867476899,
			"0.01": 9.17379445706,
			"0.011": 6.04544655082,
			"0.012": 7.91909474363,
			"0.013": 7.0255825139,
			"0.014": 2.38536801933,
			"0.015": 0.0,
			"0.016": 0.0,
			"0.017": 0.0,
			"0.018": 0.0,
			"0.019": 0.0,
			"0.02": 0.0,
			"0.021": 0.0,
			"0.022": 0.0,
			"0.023": 0.0,
			"0.024": 0.0,
			"0.025": 0.0
		}
	}
}
