{
	 "smiles": "CCCCCCCCCCCCCCCCCCBr", 
	 "Tm": 301.25, 
	 "num_atms": 56, 
	 "gaussian": { 
		 "optdone": 1, 
		 "sigma_profile": "yes", 
		 "theory": "DFT", 
		 "functional": "B3LYP", 
		 "basiset": "6-31G**", 
		 "properties": { 
			 "R2extent": 13872.8491, 
			 "electric_dipole_moment_norm": 2.14010102098, 
			 "electric_quadrupole_moment_norm": 15.712133498, 
			 "total_energy": -3279.6825658, 
			 "HOMO_LUMO_gap": 0.27212, 
			 "cosmo_polarized_energy": -4.44, 
			 "cosmo_cavitation_energy": 56.55, 
			 "cosmo_dispersion_energy": -35.58, 
			 "cosmo_repulsion_energy": 2.87, 
			 "cosmo_total_nonelectrostatic_energy": 23.85, 
			 "SMD_solvation_energy": 6.04 
		},
		"coords": [
			{
				"x": 2.6980389444,
				"y": -0.8219903356,
				"z": 2.8770413886,
				"element": "C" 
			},
			{
				"x": 2.03269647,
				"y": 0.3026738024,
				"z": 3.6765788078,
				"element": "C" 
			},
			{
				"x": 0.5631071737,
				"y": 0.5296794603,
				"z": 3.29831156,
				"element": "C" 
			},
			{
				"x": -0.1048068625,
				"y": 1.6526442693,
				"z": 4.1043871386,
				"element": "C" 
			},
			{
				"x": -1.5994821181,
				"y": 1.8613528291,
				"z": 3.8091905184,
				"element": "C" 
			},
			{
				"x": -1.9134289926,
				"y": 2.3758190112,
				"z": 2.3967122556,
				"element": "C" 
			},
			{
				"x": -3.4101290874,
				"y": 2.6359129088,
				"z": 2.1742515654,
				"element": "C" 
			},
			{
				"x": -3.7611250878,
				"y": 3.2433839696,
				"z": 0.8042235897,
				"element": "C" 
			},
			{
				"x": -3.447992398,
				"y": 2.3693155619,
				"z": -0.4237891711,
				"element": "C" 
			},
			{
				"x": -4.2455442298,
				"y": 1.0579433627,
				"z": -0.4870456523,
				"element": "C" 
			},
			{
				"x": -4.0740954294,
				"y": 0.2745088812,
				"z": -1.8011870119,
				"element": "C" 
			},
			{
				"x": -2.6558134002,
				"y": -0.2464236307,
				"z": -2.0962671145,
				"element": "C" 
			},
			{
				"x": -2.1412361123,
				"y": -1.2848987915,
				"z": -1.087512363,
				"element": "C" 
			},
			{
				"x": -0.7969580407,
				"y": -1.9295331277,
				"z": -1.4663847816,
				"element": "C" 
			},
			{
				"x": 0.3969236845,
				"y": -0.9618526878,
				"z": -1.4491866809,
				"element": "C" 
			},
			{
				"x": 1.7632393241,
				"y": -1.6323226697,
				"z": -1.6686674138,
				"element": "C" 
			},
			{
				"x": 1.9518784556,
				"y": -2.2312780116,
				"z": -3.068237536,
				"element": "C" 
			},
			{
				"x": 3.3394660903,
				"y": -2.7967559991,
				"z": -3.3324799248,
				"element": "C" 
			},
			{
				"x": 3.7422291123,
				"y": -4.3947327036,
				"z": -2.217584751,
				"element": "Br" 
			},
			{
				"x": 2.6798510538,
				"y": -0.6095417437,
				"z": 1.8017006901,
				"element": "H" 
			},
			{
				"x": 3.7443226856,
				"y": -0.9584164703,
				"z": 3.1696536151,
				"element": "H" 
			},
			{
				"x": 2.1830265483,
				"y": -1.777006192,
				"z": 3.0318007962,
				"element": "H" 
			},
			{
				"x": 2.5917297094,
				"y": 1.2370856276,
				"z": 3.5299884142,
				"element": "H" 
			},
			{
				"x": 2.0982365063,
				"y": 0.0770800664,
				"z": 4.7498239475,
				"element": "H" 
			},
			{
				"x": 0.5032912919,
				"y": 0.7510471423,
				"z": 2.2239774149,
				"element": "H" 
			},
			{
				"x": 0.0026355841,
				"y": -0.4049243346,
				"z": 3.4474231333,
				"element": "H" 
			},
			{
				"x": 0.0143879026,
				"y": 1.4333512758,
				"z": 5.1742894471,
				"element": "H" 
			},
			{
				"x": 0.4339875962,
				"y": 2.5949941401,
				"z": 3.9284375687,
				"element": "H" 
			},
			{
				"x": -2.136854793,
				"y": 0.9169838121,
				"z": 3.9786750405,
				"element": "H" 
			},
			{
				"x": -2.0061349931,
				"y": 2.5738074296,
				"z": 4.5399371541,
				"element": "H" 
			},
			{
				"x": -1.3542326652,
				"y": 3.3065049159,
				"z": 2.2192008546,
				"element": "H" 
			},
			{
				"x": -1.5490522522,
				"y": 1.6565471323,
				"z": 1.65304993,
				"element": "H" 
			},
			{
				"x": -3.7678691152,
				"y": 3.3204593974,
				"z": 2.9555635074,
				"element": "H" 
			},
			{
				"x": -3.9664531505,
				"y": 1.7006634287,
				"z": 2.3228584513,
				"element": "H" 
			},
			{
				"x": -3.2303522057,
				"y": 4.199675343,
				"z": 0.6990795991,
				"element": "H" 
			},
			{
				"x": -4.8318561943,
				"y": 3.4897561843,
				"z": 0.7943195798,
				"element": "H" 
			},
			{
				"x": -3.6651930575,
				"y": 2.955610811,
				"z": -1.3276299828,
				"element": "H" 
			},
			{
				"x": -2.372306224,
				"y": 2.156454766,
				"z": -0.4594840838,
				"element": "H" 
			},
			{
				"x": -3.9801723017,
				"y": 0.4158540479,
				"z": 0.3619719437,
				"element": "H" 
			},
			{
				"x": -5.3123583653,
				"y": 1.2901584428,
				"z": -0.3619849808,
				"element": "H" 
			},
			{
				"x": -4.7658926105,
				"y": -0.579115959,
				"z": -1.7943802545,
				"element": "H" 
			},
			{
				"x": -4.3927059353,
				"y": 0.9154461651,
				"z": -2.6348261459,
				"element": "H" 
			},
			{
				"x": -1.958186371,
				"y": 0.5980264243,
				"z": -2.1547944848,
				"element": "H" 
			},
			{
				"x": -2.6578586663,
				"y": -0.702133441,
				"z": -3.0964154456,
				"element": "H" 
			},
			{
				"x": -2.8950295801,
				"y": -2.077982702,
				"z": -0.9863814981,
				"element": "H" 
			},
			{
				"x": -2.0478050281,
				"y": -0.8284218778,
				"z": -0.0927457889,
				"element": "H" 
			},
			{
				"x": -0.5893408732,
				"y": -2.7514046471,
				"z": -0.7676750849,
				"element": "H" 
			},
			{
				"x": -0.8928118671,
				"y": -2.3916357035,
				"z": -2.4582952378,
				"element": "H" 
			},
			{
				"x": 0.4160491561,
				"y": -0.4493971725,
				"z": -0.477399979,
				"element": "H" 
			},
			{
				"x": 0.2556212552,
				"y": -0.1759312517,
				"z": -2.2032572794,
				"element": "H" 
			},
			{
				"x": 2.5552067414,
				"y": -0.8902740717,
				"z": -1.4968978513,
				"element": "H" 
			},
			{
				"x": 1.9121349417,
				"y": -2.4191982377,
				"z": -0.9194059402,
				"element": "H" 
			},
			{
				"x": 1.7882784812,
				"y": -1.446396658,
				"z": -3.823159028,
				"element": "H" 
			},
			{
				"x": 1.2059866285,
				"y": -3.009040765,
				"z": -3.2630571636,
				"element": "H" 
			},
			{
				"x": 4.1316626325,
				"y": -2.0849212667,
				"z": -3.0968941408,
				"element": "H" 
			},
			{
				"x": 3.4549900383,
				"y": -3.1441101576,
				"z": -4.3586211402,
				"element": "H" 
			}
		],
		 "valence_orbital": [ 
			{
				"type": "occ",
				"energy": -0.30128,
				"method": "rhf"
			},
			{
				"type": "occ",
				"energy": -0.30014,
				"method": "rhf"
			},
			{
				"type": "occ",
				"energy": -0.29709,
				"method": "rhf"
			},
			{
				"type": "occ",
				"energy": -0.2683,
				"method": "rhf"
			},
			{
				"type": "occ",
				"energy": -0.26604,
				"method": "rhf"
			},
			{
				"type": "unocc",
				"energy": 0.00608,
				"method": "rhf"
			},
			{
				"type": "unocc",
				"energy": 0.05681,
				"method": "rhf"
			},
			{
				"type": "unocc",
				"energy": 0.07969,
				"method": "rhf"
			},
			{
				"type": "unocc",
				"energy": 0.09249,
				"method": "rhf"
			},
			{
				"type": "unocc",
				"energy": 0.0971,
				"method": "rhf"
			}
		],
		"cosmo_sigma_profile": { 
			"-0.025": 0.0,
			"-0.024": 0.0,
			"-0.023": 0.0,
			"-0.022": 0.0,
			"-0.021": 0.0,
			"-0.02": 0.0,
			"-0.019": 0.0,
			"-0.018": 0.0,
			"-0.017": 0.0,
			"-0.016": 0.0,
			"-0.015": 0.0,
			"-0.014": 0.0,
			"-0.013": 0.0,
			"-0.012": 0.0,
			"-0.011": 0.0,
			"-0.01": 0.0,
			"-0.009": 0.0,
			"-0.008": 0.0,
			"-0.007": 1.28177679088,
			"-0.006": 4.49507459121,
			"-0.005": 5.03206361392,
			"-0.004": 9.42788422526,
			"-0.003": 13.7571440698,
			"-0.002": 44.7523298508,
			"-0.001": 99.8266160822,
			"0.0": 103.343982007,
			"0.001": 85.1264914563,
			"0.002": 35.9396322323,
			"0.003": 5.73955756891,
			"0.004": 5.04502072203,
			"0.005": 6.02016266095,
			"0.006": 9.37436696704,
			"0.007": 6.61097201257,
			"0.008": 0.0473494809383,
			"0.009": 0.0,
			"0.01": 0.0,
			"0.011": 0.0,
			"0.012": 0.0,
			"0.013": 0.0,
			"0.014": 0.0,
			"0.015": 0.0,
			"0.016": 0.0,
			"0.017": 0.0,
			"0.018": 0.0,
			"0.019": 0.0,
			"0.02": 0.0,
			"0.021": 0.0,
			"0.022": 0.0,
			"0.023": 0.0,
			"0.024": 0.0,
			"0.025": 0.0
		}
	}
}
