{
	 "smiles": "CC(C)(C)OC(=O)NC1=NC=C(N)C=C1", 
	 "Tm": 431.15, 
	 "num_atms": 30, 
	 "gaussian": { 
		 "optdone": 1, 
		 "sigma_profile": "yes", 
		 "theory": "DFT", 
		 "functional": "B3LYP", 
		 "basiset": "6-31G**", 
		 "properties": { 
			 "R2extent": 4454.4727, 
			 "electric_dipole_moment_norm": 4.01369285945, 
			 "electric_quadrupole_moment_norm": 15.5832679307, 
			 "total_energy": -704.84059997, 
			 "HOMO_LUMO_gap": 0.17635, 
			 "cosmo_polarized_energy": -18.19, 
			 "cosmo_cavitation_energy": 33.35, 
			 "cosmo_dispersion_energy": -23.55, 
			 "cosmo_repulsion_energy": 1.86, 
			 "cosmo_total_nonelectrostatic_energy": 11.66, 
			 "SMD_solvation_energy": 5.89 
		},
		"coords": [
			{
				"x": 0.362840108,
				"y": -3.0048352565,
				"z": 2.342370111,
				"element": "C" 
			},
			{
				"x": 0.4741558715,
				"y": -2.6802400447,
				"z": 0.8490863483,
				"element": "C" 
			},
			{
				"x": 1.9064895396,
				"y": -2.2838867483,
				"z": 0.4822683433,
				"element": "C" 
			},
			{
				"x": -0.017705766,
				"y": -3.8308745464,
				"z": -0.0351192026,
				"element": "C" 
			},
			{
				"x": -0.2768203096,
				"y": -1.4508227693,
				"z": 0.5421851557,
				"element": "O" 
			},
			{
				"x": -1.5963866221,
				"y": -1.3904600606,
				"z": 0.734301733,
				"element": "C" 
			},
			{
				"x": -2.3204157322,
				"y": -2.280686444,
				"z": 1.1566426273,
				"element": "O" 
			},
			{
				"x": -2.1417978316,
				"y": -0.1599704537,
				"z": 0.3986507961,
				"element": "N" 
			},
			{
				"x": -1.6128156461,
				"y": 1.0476395614,
				"z": -0.0952531032,
				"element": "C" 
			},
			{
				"x": -0.3102030277,
				"y": 1.1679811829,
				"z": -0.3390126775,
				"element": "N" 
			},
			{
				"x": 0.1434185477,
				"y": 2.3325478064,
				"z": -0.8092418938,
				"element": "C" 
			},
			{
				"x": -0.6575906018,
				"y": 3.4535434847,
				"z": -1.0664368972,
				"element": "C" 
			},
			{
				"x": -0.1086533734,
				"y": 4.6658771707,
				"z": -1.4984311519,
				"element": "N" 
			},
			{
				"x": -2.0302174319,
				"y": 3.3108381591,
				"z": -0.8041051703,
				"element": "C" 
			},
			{
				"x": -2.5139097751,
				"y": 2.1064192739,
				"z": -0.3190960433,
				"element": "C" 
			},
			{
				"x": 1.019051863,
				"y": -3.8475659974,
				"z": 2.5836477215,
				"element": "H" 
			},
			{
				"x": 0.6798279442,
				"y": -2.1453083316,
				"z": 2.9413777415,
				"element": "H" 
			},
			{
				"x": -0.6609448091,
				"y": -3.266303491,
				"z": 2.6108817853,
				"element": "H" 
			},
			{
				"x": 1.968809005,
				"y": -2.0047511877,
				"z": -0.5730980646,
				"element": "H" 
			},
			{
				"x": 2.2329286129,
				"y": -1.429054851,
				"z": 1.0807684645,
				"element": "H" 
			},
			{
				"x": 2.586647362,
				"y": -3.1214028343,
				"z": 0.6650386926,
				"element": "H" 
			},
			{
				"x": -1.0453401084,
				"y": -4.100612978,
				"z": 0.2093734522,
				"element": "H" 
			},
			{
				"x": 0.623597999,
				"y": -4.706044321,
				"z": 0.1126782384,
				"element": "H" 
			},
			{
				"x": 0.0343588723,
				"y": -3.546248962,
				"z": -1.0907829804,
				"element": "H" 
			},
			{
				"x": -3.1379608492,
				"y": -0.167248489,
				"z": 0.5623042822,
				"element": "H" 
			},
			{
				"x": 1.2171402398,
				"y": 2.3846227779,
				"z": -0.9937451835,
				"element": "H" 
			},
			{
				"x": -0.7348667475,
				"y": 5.2424846332,
				"z": -2.0447052638,
				"element": "H" 
			},
			{
				"x": 0.7921690089,
				"y": 4.5784078066,
				"z": -1.9504163961,
				"element": "H" 
			},
			{
				"x": -2.7097759466,
				"y": 4.1417750711,
				"z": -0.9763840809,
				"element": "H" 
			},
			{
				"x": -3.5744303954,
				"y": 1.9851808385,
				"z": -0.1159473835,
				"element": "H" 
			}
		],
		 "valence_orbital": [ 
			{
				"type": "occ",
				"energy": -0.27819,
				"method": "rhf"
			},
			{
				"type": "occ",
				"energy": -0.27057,
				"method": "rhf"
			},
			{
				"type": "occ",
				"energy": -0.25888,
				"method": "rhf"
			},
			{
				"type": "occ",
				"energy": -0.24918,
				"method": "rhf"
			},
			{
				"type": "occ",
				"energy": -0.19548,
				"method": "rhf"
			},
			{
				"type": "unocc",
				"energy": -0.01913,
				"method": "rhf"
			},
			{
				"type": "unocc",
				"energy": 0.006,
				"method": "rhf"
			},
			{
				"type": "unocc",
				"energy": 0.0693,
				"method": "rhf"
			},
			{
				"type": "unocc",
				"energy": 0.07907,
				"method": "rhf"
			},
			{
				"type": "unocc",
				"energy": 0.08234,
				"method": "rhf"
			}
		],
		"cosmo_sigma_profile": { 
			"-0.025": 0.0,
			"-0.024": 0.0,
			"-0.023": 0.0,
			"-0.022": 0.0,
			"-0.021": 0.0,
			"-0.02": 0.0,
			"-0.019": 0.0,
			"-0.018": 0.0,
			"-0.017": 0.0,
			"-0.016": 0.0,
			"-0.015": 0.364765501648,
			"-0.014": 1.02055192987,
			"-0.013": 1.66893244386,
			"-0.012": 3.52966844792,
			"-0.011": 5.07571285926,
			"-0.01": 4.31548319534,
			"-0.009": 4.6107885282,
			"-0.008": 4.80722459482,
			"-0.007": 5.50661098574,
			"-0.006": 7.1419202883,
			"-0.005": 7.6429713307,
			"-0.004": 17.207104218,
			"-0.003": 19.7435262001,
			"-0.002": 18.1931700805,
			"-0.001": 21.7668962589,
			"0.0": 29.8465122642,
			"0.001": 23.7222740083,
			"0.002": 13.8955021764,
			"0.003": 15.8666470255,
			"0.004": 11.697986564,
			"0.005": 6.29827436032,
			"0.006": 3.73329120055,
			"0.007": 4.23305234351,
			"0.008": 5.2661231206,
			"0.009": 3.14653333615,
			"0.01": 2.84763816357,
			"0.011": 4.49249933941,
			"0.012": 3.79766863688,
			"0.013": 6.13970766221,
			"0.014": 2.36185662807,
			"0.015": 1.75330046325,
			"0.016": 0.378702158364,
			"0.017": 0.0102694995844,
			"0.018": 0.0,
			"0.019": 0.0,
			"0.02": 0.0,
			"0.021": 0.0,
			"0.022": 0.0,
			"0.023": 0.0,
			"0.024": 0.0,
			"0.025": 0.0
		}
	}
}
