{
	 "smiles": "FC(F)(F)CN1C(S)=NC=C1C1=CC=CC=C1", 
	 "Tm": 453.15, 
	 "num_atms": 26, 
	 "gaussian": { 
		 "optdone": 1, 
		 "sigma_profile": "yes", 
		 "theory": "DFT", 
		 "functional": "B3LYP", 
		 "basiset": "6-31G**", 
		 "properties": { 
			 "R2extent": 5028.0692, 
			 "electric_dipole_moment_norm": 3.15994369254, 
			 "electric_quadrupole_moment_norm": 6.53334918782, 
			 "total_energy": -1231.80529233, 
			 "HOMO_LUMO_gap": 0.18117, 
			 "cosmo_polarized_energy": -10.52, 
			 "cosmo_cavitation_energy": 32.32, 
			 "cosmo_dispersion_energy": -23.35, 
			 "cosmo_repulsion_energy": 1.7, 
			 "cosmo_total_nonelectrostatic_energy": 10.67, 
			 "SMD_solvation_energy": 4.32 
		},
		"coords": [
			{
				"x": 0.6400710534,
				"y": -3.1157306958,
				"z": 0.844039156,
				"element": "F" 
			},
			{
				"x": -0.6312585019,
				"y": -2.9442452982,
				"z": 1.2619448105,
				"element": "C" 
			},
			{
				"x": -1.3871715617,
				"y": -3.905794925,
				"z": 0.6952435759,
				"element": "F" 
			},
			{
				"x": -0.6381773239,
				"y": -3.1428028525,
				"z": 2.5941671134,
				"element": "F" 
			},
			{
				"x": -1.1982778275,
				"y": -1.5780699511,
				"z": 0.8828831245,
				"element": "C" 
			},
			{
				"x": -0.4256351654,
				"y": -0.4543139502,
				"z": 1.3681590748,
				"element": "N" 
			},
			{
				"x": -0.4957721335,
				"y": 0.1009514497,
				"z": 2.6313830827,
				"element": "C" 
			},
			{
				"x": -1.468882754,
				"y": -0.6075385492,
				"z": 3.9367391351,
				"element": "S" 
			},
			{
				"x": 0.1873200684,
				"y": 1.2171900455,
				"z": 2.7272919528,
				"element": "N" 
			},
			{
				"x": 0.7067793905,
				"y": 1.428599745,
				"z": 1.4736581708,
				"element": "C" 
			},
			{
				"x": 0.3584366552,
				"y": 0.4254822702,
				"z": 0.5994140429,
				"element": "C" 
			},
			{
				"x": 0.6481495179,
				"y": 0.3044926508,
				"z": -0.8366273986,
				"element": "C" 
			},
			{
				"x": 0.5407230804,
				"y": 1.4588737317,
				"z": -1.6365459101,
				"element": "C" 
			},
			{
				"x": 0.850151671,
				"y": 1.4199077382,
				"z": -2.994083704,
				"element": "C" 
			},
			{
				"x": 1.2565547948,
				"y": 0.2233294102,
				"z": -3.5888577702,
				"element": "C" 
			},
			{
				"x": 1.3631395441,
				"y": -0.9291138017,
				"z": -2.8092615768,
				"element": "C" 
			},
			{
				"x": 1.0719345992,
				"y": -0.8911314082,
				"z": -1.4453991604,
				"element": "C" 
			},
			{
				"x": -2.2145536073,
				"y": -1.5318482264,
				"z": 1.2857385832,
				"element": "H" 
			},
			{
				"x": -1.249736739,
				"y": -1.5291221251,
				"z": -0.2056915892,
				"element": "H" 
			},
			{
				"x": -1.6984174262,
				"y": 0.5880599975,
				"z": 4.5102039143,
				"element": "H" 
			},
			{
				"x": 1.335553186,
				"y": 2.2827706992,
				"z": 1.2634965978,
				"element": "H" 
			},
			{
				"x": 0.1977079374,
				"y": 2.3834984751,
				"z": -1.1828087918,
				"element": "H" 
			},
			{
				"x": 0.7607538747,
				"y": 2.3229747128,
				"z": -3.5911113972,
				"element": "H" 
			},
			{
				"x": 1.4888856661,
				"y": 0.1903041616,
				"z": -4.6491977697,
				"element": "H" 
			},
			{
				"x": 1.6903641588,
				"y": -1.862276343,
				"z": -3.2589307209,
				"element": "H" 
			},
			{
				"x": 1.2019578424,
				"y": -1.7846469613,
				"z": -0.8478465458,
				"element": "H" 
			}
		],
		 "valence_orbital": [ 
			{
				"type": "occ",
				"energy": -0.28294,
				"method": "rhf"
			},
			{
				"type": "occ",
				"energy": -0.2788,
				"method": "rhf"
			},
			{
				"type": "occ",
				"energy": -0.26429,
				"method": "rhf"
			},
			{
				"type": "occ",
				"energy": -0.25997,
				"method": "rhf"
			},
			{
				"type": "occ",
				"energy": -0.20909,
				"method": "rhf"
			},
			{
				"type": "unocc",
				"energy": -0.02792,
				"method": "rhf"
			},
			{
				"type": "unocc",
				"energy": -0.01209,
				"method": "rhf"
			},
			{
				"type": "unocc",
				"energy": 0.01116,
				"method": "rhf"
			},
			{
				"type": "unocc",
				"energy": 0.0244,
				"method": "rhf"
			},
			{
				"type": "unocc",
				"energy": 0.06286,
				"method": "rhf"
			}
		],
		"cosmo_sigma_profile": { 
			"-0.025": 0.0,
			"-0.024": 0.0,
			"-0.023": 0.0,
			"-0.022": 0.0,
			"-0.021": 0.0,
			"-0.02": 0.0,
			"-0.019": 0.0,
			"-0.018": 0.0,
			"-0.017": 0.0,
			"-0.016": 0.0,
			"-0.015": 0.0,
			"-0.014": 0.0,
			"-0.013": 0.0,
			"-0.012": 0.246023708469,
			"-0.011": 1.712339649,
			"-0.01": 1.78929467869,
			"-0.009": 3.86391886931,
			"-0.008": 5.89300262559,
			"-0.007": 6.24556902734,
			"-0.006": 12.2631115295,
			"-0.005": 14.0607763877,
			"-0.004": 19.6614777586,
			"-0.003": 15.016353925,
			"-0.002": 15.0641287435,
			"-0.001": 17.0462014235,
			"0.0": 17.7663432891,
			"0.001": 21.5973937371,
			"0.002": 36.4361571255,
			"0.003": 24.4375551596,
			"0.004": 15.5302744439,
			"0.005": 14.3236467801,
			"0.006": 5.32324972128,
			"0.007": 2.85729305656,
			"0.008": 2.57738438167,
			"0.009": 1.38574793247,
			"0.01": 0.637661421656,
			"0.011": 0.784298067928,
			"0.012": 1.29490047946,
			"0.013": 1.0455016075,
			"0.014": 0.827604961713,
			"0.015": 1.10100701014,
			"0.016": 0.746767324294,
			"0.017": 0.38853308581,
			"0.018": 0.0,
			"0.019": 0.0,
			"0.02": 0.0,
			"0.021": 0.0,
			"0.022": 0.0,
			"0.023": 0.0,
			"0.024": 0.0,
			"0.025": 0.0
		}
	}
}
