{
	 "smiles": "OC(=O)C1CCN(CC(F)(F)F)CC1", 
	 "Tm": 336.15, 
	 "num_atms": 26, 
	 "gaussian": { 
		 "optdone": 1, 
		 "sigma_profile": "yes", 
		 "theory": "DFT", 
		 "functional": "B3LYP", 
		 "basiset": "6-31G**", 
		 "properties": { 
			 "R2extent": 3893.0032, 
			 "electric_dipole_moment_norm": 3.86648207807, 
			 "electric_quadrupole_moment_norm": 25.5666176089, 
			 "total_energy": -816.806344204, 
			 "HOMO_LUMO_gap": 0.22481, 
			 "cosmo_polarized_energy": -16.24, 
			 "cosmo_cavitation_energy": 29.27, 
			 "cosmo_dispersion_energy": -20.66, 
			 "cosmo_repulsion_energy": 1.57, 
			 "cosmo_total_nonelectrostatic_energy": 10.18, 
			 "SMD_solvation_energy": 5.33 
		},
		"coords": [
			{
				"x": 2.1915287139,
				"y": -2.804953506,
				"z": 3.3097535709,
				"element": "O" 
			},
			{
				"x": 2.1791535674,
				"y": -2.6439147373,
				"z": 1.9581235975,
				"element": "C" 
			},
			{
				"x": 2.2064292643,
				"y": -3.6138734398,
				"z": 1.2422158454,
				"element": "O" 
			},
			{
				"x": 2.1183305125,
				"y": -1.1923295157,
				"z": 1.474606415,
				"element": "C" 
			},
			{
				"x": 0.8642381761,
				"y": -0.4754136699,
				"z": 2.0591498964,
				"element": "C" 
			},
			{
				"x": 0.4512620138,
				"y": 0.7067890827,
				"z": 1.1819713861,
				"element": "C" 
			},
			{
				"x": 0.022832792,
				"y": 0.2429409429,
				"z": -0.1404418417,
				"element": "N" 
			},
			{
				"x": -0.1851423798,
				"y": 1.3114507731,
				"z": -1.0900226022,
				"element": "C" 
			},
			{
				"x": -1.6164303917,
				"y": 1.8335799438,
				"z": -1.0746630122,
				"element": "C" 
			},
			{
				"x": -1.7495927942,
				"y": 2.8459725969,
				"z": -1.9636792529,
				"element": "F" 
			},
			{
				"x": -2.5065155435,
				"y": 0.8808256664,
				"z": -1.4037548096,
				"element": "F" 
			},
			{
				"x": -1.9692386868,
				"y": 2.3174477353,
				"z": 0.1399212989,
				"element": "F" 
			},
			{
				"x": 0.7128658844,
				"y": -0.9669608126,
				"z": -0.6233917542,
				"element": "C" 
			},
			{
				"x": 2.1356169109,
				"y": -1.1053735145,
				"z": -0.0682603009,
				"element": "C" 
			},
			{
				"x": 2.1726362711,
				"y": -1.9443575833,
				"z": 3.7514691327,
				"element": "H" 
			},
			{
				"x": 3.0142917306,
				"y": -0.6920414913,
				"z": 1.8690879853,
				"element": "H" 
			},
			{
				"x": 1.0529629392,
				"y": -0.1121675904,
				"z": 3.0761184617,
				"element": "H" 
			},
			{
				"x": 0.0213298065,
				"y": -1.1729590016,
				"z": 2.1224373955,
				"element": "H" 
			},
			{
				"x": -0.3717541647,
				"y": 1.2512969922,
				"z": 1.6543791389,
				"element": "H" 
			},
			{
				"x": 1.2988412209,
				"y": 1.4182213476,
				"z": 1.1097866088,
				"element": "H" 
			},
			{
				"x": 0.4711576648,
				"y": 2.1829207978,
				"z": -0.9213695318,
				"element": "H" 
			},
			{
				"x": -0.0040260597,
				"y": 0.9612387047,
				"z": -2.1101255322,
				"element": "H" 
			},
			{
				"x": 0.1367655992,
				"y": -1.8599782152,
				"z": -0.3456750683,
				"element": "H" 
			},
			{
				"x": 0.7344879372,
				"y": -0.9472092481,
				"z": -1.716868726,
				"element": "H" 
			},
			{
				"x": 2.7350136873,
				"y": -0.2427501712,
				"z": -0.3799308675,
				"element": "H" 
			},
			{
				"x": 2.6062553283,
				"y": -2.0040020866,
				"z": -0.4746374336,
				"element": "H" 
			}
		],
		 "valence_orbital": [ 
			{
				"type": "occ",
				"energy": -0.34381,
				"method": "rhf"
			},
			{
				"type": "occ",
				"energy": -0.33849,
				"method": "rhf"
			},
			{
				"type": "occ",
				"energy": -0.32024,
				"method": "rhf"
			},
			{
				"type": "occ",
				"energy": -0.27484,
				"method": "rhf"
			},
			{
				"type": "occ",
				"energy": -0.22073,
				"method": "rhf"
			},
			{
				"type": "unocc",
				"energy": 0.00408,
				"method": "rhf"
			},
			{
				"type": "unocc",
				"energy": 0.03989,
				"method": "rhf"
			},
			{
				"type": "unocc",
				"energy": 0.07163,
				"method": "rhf"
			},
			{
				"type": "unocc",
				"energy": 0.09064,
				"method": "rhf"
			},
			{
				"type": "unocc",
				"energy": 0.09678,
				"method": "rhf"
			}
		],
		"cosmo_sigma_profile": { 
			"-0.025": 0.0,
			"-0.024": 0.0,
			"-0.023": 0.0,
			"-0.022": 0.0,
			"-0.021": 0.0,
			"-0.02": 0.0,
			"-0.019": 0.00341950124924,
			"-0.018": 0.549667583095,
			"-0.017": 1.55405375814,
			"-0.016": 0.764124061921,
			"-0.015": 1.12542141415,
			"-0.014": 1.33405301397,
			"-0.013": 0.81710881838,
			"-0.012": 0.803243072164,
			"-0.011": 1.10511226162,
			"-0.01": 1.50918428814,
			"-0.009": 1.32060844878,
			"-0.008": 2.42357500961,
			"-0.007": 5.36378521078,
			"-0.006": 7.66089934243,
			"-0.005": 12.058467125,
			"-0.004": 16.7830465393,
			"-0.003": 26.7504429587,
			"-0.002": 19.8489979768,
			"-0.001": 15.9781316936,
			"0.0": 10.2766446036,
			"0.001": 9.0721341389,
			"0.002": 10.7593411257,
			"0.003": 29.3525360502,
			"0.004": 15.031881391,
			"0.005": 4.39586834938,
			"0.006": 3.74108101296,
			"0.007": 2.91003322193,
			"0.008": 3.81322850891,
			"0.009": 3.9840324109,
			"0.01": 4.86042862474,
			"0.011": 5.77161666607,
			"0.012": 5.35349402348,
			"0.013": 1.58426183051,
			"0.014": 0.0599317910012,
			"0.015": 0.0,
			"0.016": 0.0,
			"0.017": 0.0,
			"0.018": 0.0,
			"0.019": 0.0,
			"0.02": 0.0,
			"0.021": 0.0,
			"0.022": 0.0,
			"0.023": 0.0,
			"0.024": 0.0,
			"0.025": 0.0
		}
	}
}
