{
	 "smiles": "NC1=CC2=C(NN=C2)C=C1", 
	 "Tm": 449.15, 
	 "num_atms": 17, 
	 "gaussian": { 
		 "optdone": 1, 
		 "sigma_profile": "yes", 
		 "theory": "DFT", 
		 "functional": "B3LYP", 
		 "basiset": "6-31G**", 
		 "properties": { 
			 "R2extent": 1675.0569, 
			 "electric_dipole_moment_norm": 2.81639517646, 
			 "electric_quadrupole_moment_norm": 12.2372931263, 
			 "total_energy": -435.200846367, 
			 "HOMO_LUMO_gap": 0.16862, 
			 "cosmo_polarized_energy": -13.4, 
			 "cosmo_cavitation_energy": 20.89, 
			 "cosmo_dispersion_energy": -16.03, 
			 "cosmo_repulsion_energy": 1.29, 
			 "cosmo_total_nonelectrostatic_energy": 6.15, 
			 "SMD_solvation_energy": 2.58 
		},
		"coords": [
			{
				"x": -3.8224172508,
				"y": -0.7586657803,
				"z": 0.5995839174,
				"element": "N" 
			},
			{
				"x": -2.4796590142,
				"y": -0.5947806915,
				"z": 0.2187385678,
				"element": "C" 
			},
			{
				"x": -2.0574500812,
				"y": -0.8637919724,
				"z": -1.0804106349,
				"element": "C" 
			},
			{
				"x": -0.7156821219,
				"y": -0.6168697227,
				"z": -1.4259210274,
				"element": "C" 
			},
			{
				"x": 0.1844366363,
				"y": -0.1103652042,
				"z": -0.457256645,
				"element": "C" 
			},
			{
				"x": 1.3921588322,
				"y": 0.0097290067,
				"z": -1.0968484275,
				"element": "N" 
			},
			{
				"x": 1.3343155724,
				"y": -0.378277738,
				"z": -2.3952500361,
				"element": "N" 
			},
			{
				"x": 0.0825309551,
				"y": -0.7550032121,
				"z": -2.60362679,
				"element": "C" 
			},
			{
				"x": -0.2282319475,
				"y": 0.1617132656,
				"z": 0.8558838239,
				"element": "C" 
			},
			{
				"x": -1.5533223201,
				"y": -0.0819463134,
				"z": 1.1713256624,
				"element": "C" 
			},
			{
				"x": -3.9516995577,
				"y": -0.9838598875,
				"z": 1.5773719034,
				"element": "H" 
			},
			{
				"x": -4.3412701909,
				"y": -1.3999611849,
				"z": 0.0139500267,
				"element": "H" 
			},
			{
				"x": -2.756876331,
				"y": -1.2542800753,
				"z": -1.8152280203,
				"element": "H" 
			},
			{
				"x": 2.2673188127,
				"y": 0.3419031904,
				"z": -0.7265368474,
				"element": "H" 
			},
			{
				"x": -0.2137612899,
				"y": -1.1111972929,
				"z": -3.5813006783,
				"element": "H" 
			},
			{
				"x": 0.4573713311,
				"y": 0.5497908681,
				"z": 1.6031442567,
				"element": "H" 
			},
			{
				"x": -1.9085620344,
				"y": 0.1298627444,
				"z": 2.1767809485,
				"element": "H" 
			}
		],
		 "valence_orbital": [ 
			{
				"type": "occ",
				"energy": -0.29708,
				"method": "rhf"
			},
			{
				"type": "occ",
				"energy": -0.28323,
				"method": "rhf"
			},
			{
				"type": "occ",
				"energy": -0.27668,
				"method": "rhf"
			},
			{
				"type": "occ",
				"energy": -0.2242,
				"method": "rhf"
			},
			{
				"type": "occ",
				"energy": -0.19009,
				"method": "rhf"
			},
			{
				"type": "unocc",
				"energy": -0.02147,
				"method": "rhf"
			},
			{
				"type": "unocc",
				"energy": 0.03623,
				"method": "rhf"
			},
			{
				"type": "unocc",
				"energy": 0.06581,
				"method": "rhf"
			},
			{
				"type": "unocc",
				"energy": 0.08282,
				"method": "rhf"
			},
			{
				"type": "unocc",
				"energy": 0.09255,
				"method": "rhf"
			}
		],
		"cosmo_sigma_profile": { 
			"-0.025": 0.0,
			"-0.024": 0.0,
			"-0.023": 0.0,
			"-0.022": 0.0,
			"-0.021": 0.0,
			"-0.02": 0.0,
			"-0.019": 0.0,
			"-0.018": 0.0,
			"-0.017": 0.0,
			"-0.016": 0.918052333492,
			"-0.015": 1.32561048399,
			"-0.014": 1.42344045828,
			"-0.013": 1.13324236664,
			"-0.012": 2.58758796101,
			"-0.011": 3.75024971385,
			"-0.01": 3.68069397645,
			"-0.009": 4.35245975505,
			"-0.008": 4.76702683681,
			"-0.007": 6.16790810553,
			"-0.006": 8.946014252,
			"-0.005": 8.41817470581,
			"-0.004": 9.49480359761,
			"-0.003": 7.74203731719,
			"-0.002": 5.98621146557,
			"-0.001": 5.7490399928,
			"0.0": 6.21917529692,
			"0.001": 6.23433321372,
			"0.002": 7.81797919829,
			"0.003": 8.53698360792,
			"0.004": 14.8597174598,
			"0.005": 13.7833710998,
			"0.006": 11.4936175863,
			"0.007": 4.15003900254,
			"0.008": 2.63312806453,
			"0.009": 2.68306349863,
			"0.01": 1.90627826254,
			"0.011": 1.72519045557,
			"0.012": 1.94667395029,
			"0.013": 1.93170140566,
			"0.014": 1.89291967074,
			"0.015": 1.50639503786,
			"0.016": 0.956671062901,
			"0.017": 0.00173791799711,
			"0.018": 0.0,
			"0.019": 0.0,
			"0.02": 0.0,
			"0.021": 0.0,
			"0.022": 0.0,
			"0.023": 0.0,
			"0.024": 0.0,
			"0.025": 0.0
		}
	}
}
