{
	 "smiles": "CN1C2=C(C=CC=C2)N=C1C(=NNC1=CC=C(C=C1)[N+]([O-])=O)C#N", 
	 "Tm": 511.15, 
	 "num_atms": 36, 
	 "gaussian": { 
		 "optdone": 1, 
		 "sigma_profile": "yes", 
		 "theory": "DFT", 
		 "functional": "B3LYP", 
		 "basiset": "6-31G**", 
		 "properties": { 
			 "R2extent": 13440.9908, 
			 "electric_dipole_moment_norm": 6.47778652396, 
			 "electric_quadrupole_moment_norm": 28.7528694697, 
			 "total_energy": -1095.74778933, 
			 "HOMO_LUMO_gap": 0.11914, 
			 "cosmo_polarized_energy": -23.0, 
			 "cosmo_cavitation_energy": 43.52, 
			 "cosmo_dispersion_energy": -30.72, 
			 "cosmo_repulsion_energy": 2.29, 
			 "cosmo_total_nonelectrostatic_energy": 15.09, 
			 "SMD_solvation_energy": 7.9 
		},
		"coords": [
			{
				"x": -2.5880839577,
				"y": 0.397925722,
				"z": -2.4573280568,
				"element": "C" 
			},
			{
				"x": -1.8511072917,
				"y": 1.1959932915,
				"z": -1.4874348322,
				"element": "N" 
			},
			{
				"x": -2.1714738356,
				"y": 2.492886021,
				"z": -1.1205754712,
				"element": "C" 
			},
			{
				"x": -1.2554158243,
				"y": 2.8303322241,
				"z": -0.0941176584,
				"element": "C" 
			},
			{
				"x": -1.3139940294,
				"y": 4.0959753495,
				"z": 0.5090481258,
				"element": "C" 
			},
			{
				"x": -2.2882660875,
				"y": 4.9822939688,
				"z": 0.0688095347,
				"element": "C" 
			},
			{
				"x": -3.1940217126,
				"y": 4.6296546865,
				"z": -0.9552402102,
				"element": "C" 
			},
			{
				"x": -3.1524429425,
				"y": 3.382045778,
				"z": -1.5703525281,
				"element": "C" 
			},
			{
				"x": -0.3960460233,
				"y": 1.779931353,
				"z": 0.1464209469,
				"element": "N" 
			},
			{
				"x": -0.7727924241,
				"y": 0.8331253858,
				"z": -0.6883705381,
				"element": "C" 
			},
			{
				"x": -0.1025724165,
				"y": -0.4694821051,
				"z": -0.7737070929,
				"element": "C" 
			},
			{
				"x": 0.5128689494,
				"y": -0.9237339598,
				"z": 0.2867959643,
				"element": "N" 
			},
			{
				"x": 1.2038755367,
				"y": -2.048540572,
				"z": 0.2245232899,
				"element": "N" 
			},
			{
				"x": 1.871685505,
				"y": -2.5482943624,
				"z": 1.3434188412,
				"element": "C" 
			},
			{
				"x": 1.8606079383,
				"y": -1.8596962233,
				"z": 2.5686934881,
				"element": "C" 
			},
			{
				"x": 2.5378654643,
				"y": -2.3930767115,
				"z": 3.6553646556,
				"element": "C" 
			},
			{
				"x": 3.2200741118,
				"y": -3.6037546325,
				"z": 3.5161991616,
				"element": "C" 
			},
			{
				"x": 3.2401443974,
				"y": -4.2949883719,
				"z": 2.3047044698,
				"element": "C" 
			},
			{
				"x": 2.5633434947,
				"y": -3.7649420927,
				"z": 1.21573942,
				"element": "C" 
			},
			{
				"x": 3.9317124135,
				"y": -4.1617453094,
				"z": 4.6668156914,
				"element": "N" 
			},
			{
				"x": 3.8951486172,
				"y": -3.5302485259,
				"z": 5.7238932374,
				"element": "O" 
			},
			{
				"x": 4.5248171927,
				"y": -5.2305220632,
				"z": 4.50945454,
				"element": "O" 
			},
			{
				"x": -0.0409553313,
				"y": -1.2011234784,
				"z": -2.0088552649,
				"element": "C" 
			},
			{
				"x": 0.086432525,
				"y": -1.8814021092,
				"z": -2.9469252429,
				"element": "N" 
			},
			{
				"x": -3.6181970696,
				"y": 0.7579257688,
				"z": -2.4934097722,
				"element": "H" 
			},
			{
				"x": -2.1510754956,
				"y": 0.4659988588,
				"z": -3.458520751,
				"element": "H" 
			},
			{
				"x": -2.6078714778,
				"y": -0.6489596659,
				"z": -2.1519631453,
				"element": "H" 
			},
			{
				"x": -0.612797384,
				"y": 4.3581363511,
				"z": 1.2944120369,
				"element": "H" 
			},
			{
				"x": -2.3582818355,
				"y": 5.9688515691,
				"z": 0.5168452601,
				"element": "H" 
			},
			{
				"x": -3.9393083099,
				"y": 5.3519400655,
				"z": -1.2746087077,
				"element": "H" 
			},
			{
				"x": -3.846966117,
				"y": 3.1258172887,
				"z": -2.3642397365,
				"element": "H" 
			},
			{
				"x": 1.2653746073,
				"y": -2.5690071129,
				"z": -0.6511151192,
				"element": "H" 
			},
			{
				"x": 1.3271255982,
				"y": -0.920603122,
				"z": 2.6458527156,
				"element": "H" 
			},
			{
				"x": 2.5495401244,
				"y": -1.88680457,
				"z": 4.6124468947,
				"element": "H" 
			},
			{
				"x": 3.7806786216,
				"y": -5.2303413221,
				"z": 2.2346511541,
				"element": "H" 
			},
			{
				"x": 2.5684744683,
				"y": -4.291767372,
				"z": 0.2654746995,
				"element": "H" 
			}
		],
		 "valence_orbital": [ 
			{
				"type": "occ",
				"energy": -0.28597,
				"method": "rhf"
			},
			{
				"type": "occ",
				"energy": -0.2819,
				"method": "rhf"
			},
			{
				"type": "occ",
				"energy": -0.25818,
				"method": "rhf"
			},
			{
				"type": "occ",
				"energy": -0.2347,
				"method": "rhf"
			},
			{
				"type": "occ",
				"energy": -0.22197,
				"method": "rhf"
			},
			{
				"type": "unocc",
				"energy": -0.10283,
				"method": "rhf"
			},
			{
				"type": "unocc",
				"energy": -0.07383,
				"method": "rhf"
			},
			{
				"type": "unocc",
				"energy": -0.03363,
				"method": "rhf"
			},
			{
				"type": "unocc",
				"energy": -0.02373,
				"method": "rhf"
			},
			{
				"type": "unocc",
				"energy": -0.00715,
				"method": "rhf"
			}
		],
		"cosmo_sigma_profile": { 
			"-0.025": 0.0,
			"-0.024": 0.0,
			"-0.023": 0.0,
			"-0.022": 0.0,
			"-0.021": 0.0,
			"-0.02": 0.0,
			"-0.019": 0.0,
			"-0.018": 0.0,
			"-0.017": 0.0,
			"-0.016": 0.971263928375,
			"-0.015": 1.03265114536,
			"-0.014": 1.29355070098,
			"-0.013": 1.07110516539,
			"-0.012": 1.09023684683,
			"-0.011": 1.55008598282,
			"-0.01": 2.41336212928,
			"-0.009": 2.52700191624,
			"-0.008": 7.99490280556,
			"-0.007": 13.9565976416,
			"-0.006": 20.5930811726,
			"-0.005": 24.9793231869,
			"-0.004": 26.4350837838,
			"-0.003": 23.0656110728,
			"-0.002": 21.653655991,
			"-0.001": 25.5370698072,
			"0.0": 24.9398083066,
			"0.001": 24.7833565112,
			"0.002": 18.0794328826,
			"0.003": 14.1401189673,
			"0.004": 16.3373596642,
			"0.005": 15.7849459537,
			"0.006": 10.4031070057,
			"0.007": 8.97176284806,
			"0.008": 14.4082934958,
			"0.009": 8.77420014294,
			"0.01": 7.40093207116,
			"0.011": 4.09218167608,
			"0.012": 2.1256719576,
			"0.013": 1.09095204068,
			"0.014": 1.30632331246,
			"0.015": 1.08269274772,
			"0.016": 0.975328148488,
			"0.017": 0.76766655652,
			"0.018": 0.0413443404055,
			"0.019": 0.0,
			"0.02": 0.0,
			"0.021": 0.0,
			"0.022": 0.0,
			"0.023": 0.0,
			"0.024": 0.0,
			"0.025": 0.0
		}
	}
}
