{
	 "smiles": "CCOC1=CC=C(C=C1)S(=O)(=O)NCCC(O)=O", 
	 "Tm": 452.15, 
	 "num_atms": 33, 
	 "gaussian": { 
		 "optdone": 1, 
		 "sigma_profile": "yes", 
		 "theory": "DFT", 
		 "functional": "B3LYP", 
		 "basiset": "6-31G**", 
		 "properties": { 
			 "R2extent": 7983.901, 
			 "electric_dipole_moment_norm": 8.99203890227, 
			 "electric_quadrupole_moment_norm": 19.2128809102, 
			 "total_energy": -1257.20512878, 
			 "HOMO_LUMO_gap": 0.20964, 
			 "cosmo_polarized_energy": -27.1, 
			 "cosmo_cavitation_energy": 38.55, 
			 "cosmo_dispersion_energy": -27.64, 
			 "cosmo_repulsion_energy": 2.15, 
			 "cosmo_total_nonelectrostatic_energy": 13.06, 
			 "SMD_solvation_energy": 6.54 
		},
		"coords": [
			{
				"x": -2.972466468,
				"y": 1.9289569346,
				"z": -4.0842820536,
				"element": "C" 
			},
			{
				"x": -2.3505692972,
				"y": 3.2628999089,
				"z": -3.6864092953,
				"element": "C" 
			},
			{
				"x": -2.5260266501,
				"y": 3.5554259734,
				"z": -2.2942481669,
				"element": "O" 
			},
			{
				"x": -1.6931265233,
				"y": 3.0141705106,
				"z": -1.3677372597,
				"element": "C" 
			},
			{
				"x": -1.9600576564,
				"y": 3.3789821605,
				"z": -0.0374005459,
				"element": "C" 
			},
			{
				"x": -1.1638497633,
				"y": 2.9013758337,
				"z": 0.9949563297,
				"element": "C" 
			},
			{
				"x": -0.0957758752,
				"y": 2.0464101114,
				"z": 0.7036896183,
				"element": "C" 
			},
			{
				"x": 0.1822340072,
				"y": 1.682633769,
				"z": -0.6143857229,
				"element": "C" 
			},
			{
				"x": -0.6138519946,
				"y": 2.1601413311,
				"z": -1.6525664379,
				"element": "C" 
			},
			{
				"x": 0.9478535773,
				"y": 1.4445295288,
				"z": 2.0219890702,
				"element": "S" 
			},
			{
				"x": 0.5521730182,
				"y": 2.1558326854,
				"z": 3.2459102514,
				"element": "O" 
			},
			{
				"x": 2.341522526,
				"y": 1.4276303784,
				"z": 1.5688402163,
				"element": "O" 
			},
			{
				"x": 0.5102604045,
				"y": -0.1906740293,
				"z": 2.1124821764,
				"element": "N" 
			},
			{
				"x": -0.6453983154,
				"y": -0.5170645009,
				"z": 2.9580291265,
				"element": "C" 
			},
			{
				"x": -1.0822531952,
				"y": -1.9622706633,
				"z": 2.7115942473,
				"element": "C" 
			},
			{
				"x": -0.0169242383,
				"y": -2.9812255945,
				"z": 3.0971095536,
				"element": "C" 
			},
			{
				"x": -0.4023673528,
				"y": -4.2802827055,
				"z": 3.0581679675,
				"element": "O" 
			},
			{
				"x": 1.1158779207,
				"y": -2.6984848553,
				"z": 3.408532114,
				"element": "O" 
			},
			{
				"x": -2.4872740865,
				"y": 1.0875557524,
				"z": -3.582121965,
				"element": "H" 
			},
			{
				"x": -4.0349486568,
				"y": 1.9146919687,
				"z": -3.8255898744,
				"element": "H" 
			},
			{
				"x": -2.8788460039,
				"y": 1.7813753955,
				"z": -5.1652576289,
				"element": "H" 
			},
			{
				"x": -1.2879614628,
				"y": 3.3134200162,
				"z": -3.9530162867,
				"element": "H" 
			},
			{
				"x": -2.8558883628,
				"y": 4.0855818156,
				"z": -4.1992412873,
				"element": "H" 
			},
			{
				"x": -2.7908995407,
				"y": 4.0488763744,
				"z": 0.1565902637,
				"element": "H" 
			},
			{
				"x": -1.3476015115,
				"y": 3.194954928,
				"z": 2.0226095079,
				"element": "H" 
			},
			{
				"x": 1.0248037145,
				"y": 1.033947297,
				"z": -0.8292161616,
				"element": "H" 
			},
			{
				"x": -0.3843175853,
				"y": 1.8671544613,
				"z": -2.669557473,
				"element": "H" 
			},
			{
				"x": 1.3358072006,
				"y": -0.7207000791,
				"z": 2.3953394867,
				"element": "H" 
			},
			{
				"x": -1.469500022,
				"y": 0.1477024346,
				"z": 2.683380683,
				"element": "H" 
			},
			{
				"x": -0.4358441012,
				"y": -0.3598442885,
				"z": 4.0226815313,
				"element": "H" 
			},
			{
				"x": -1.9983003236,
				"y": -2.1700025677,
				"z": 3.2803588915,
				"element": "H" 
			},
			{
				"x": -1.3218694264,
				"y": -2.1039916382,
				"z": 1.6495943959,
				"element": "H" 
			},
			{
				"x": -1.3331139559,
				"y": -4.3505086472,
				"z": 2.8021747279,
				"element": "H" 
			}
		],
		 "valence_orbital": [ 
			{
				"type": "occ",
				"energy": -0.2916,
				"method": "rhf"
			},
			{
				"type": "occ",
				"energy": -0.2877,
				"method": "rhf"
			},
			{
				"type": "occ",
				"energy": -0.27006,
				"method": "rhf"
			},
			{
				"type": "occ",
				"energy": -0.26832,
				"method": "rhf"
			},
			{
				"type": "occ",
				"energy": -0.23511,
				"method": "rhf"
			},
			{
				"type": "unocc",
				"energy": -0.02547,
				"method": "rhf"
			},
			{
				"type": "unocc",
				"energy": -0.0183,
				"method": "rhf"
			},
			{
				"type": "unocc",
				"energy": -0.00687,
				"method": "rhf"
			},
			{
				"type": "unocc",
				"energy": 0.04005,
				"method": "rhf"
			},
			{
				"type": "unocc",
				"energy": 0.067,
				"method": "rhf"
			}
		],
		"cosmo_sigma_profile": { 
			"-0.025": 0.0,
			"-0.024": 0.0,
			"-0.023": 0.0,
			"-0.022": 0.0,
			"-0.021": 0.0,
			"-0.02": 0.120980925622,
			"-0.019": 1.13971283779,
			"-0.018": 0.965146835283,
			"-0.017": 1.42067702632,
			"-0.016": 0.639033560755,
			"-0.015": 1.11848623904,
			"-0.014": 1.96195422538,
			"-0.013": 0.913775915039,
			"-0.012": 0.578476757301,
			"-0.011": 1.36190819918,
			"-0.01": 2.03329674139,
			"-0.009": 1.63913022271,
			"-0.008": 6.6564276096,
			"-0.007": 11.3866693309,
			"-0.006": 19.2379379644,
			"-0.005": 23.3154259533,
			"-0.004": 23.4368483781,
			"-0.003": 22.0073829406,
			"-0.002": 18.1522055525,
			"-0.001": 18.9966042332,
			"0.0": 17.5471068491,
			"0.001": 14.5156068514,
			"0.002": 18.1479535877,
			"0.003": 18.5567107238,
			"0.004": 9.09468235138,
			"0.005": 7.04593484215,
			"0.006": 6.73673145747,
			"0.007": 6.84775583181,
			"0.008": 7.40394490106,
			"0.009": 8.95542310149,
			"0.01": 11.643774682,
			"0.011": 13.0347080731,
			"0.012": 7.61747392965,
			"0.013": 0.668432476492,
			"0.014": 0.0,
			"0.015": 0.0,
			"0.016": 0.0,
			"0.017": 0.0,
			"0.018": 0.0,
			"0.019": 0.0,
			"0.02": 0.0,
			"0.021": 0.0,
			"0.022": 0.0,
			"0.023": 0.0,
			"0.024": 0.0,
			"0.025": 0.0
		}
	}
}
