{
	 "smiles": "CCCOC1=CC=C(CNC(=O)CCl)C=C1", 
	 "Tm": 383.15, 
	 "num_atms": 32, 
	 "gaussian": { 
		 "optdone": 1, 
		 "sigma_profile": "yes", 
		 "theory": "DFT", 
		 "functional": "B3LYP", 
		 "basiset": "6-31G**", 
		 "properties": { 
			 "R2extent": 7139.8588, 
			 "electric_dipole_moment_norm": 4.58796820063, 
			 "electric_quadrupole_moment_norm": 19.9506851211, 
			 "total_energy": -1132.32400538, 
			 "HOMO_LUMO_gap": 0.20289, 
			 "cosmo_polarized_energy": -14.09, 
			 "cosmo_cavitation_energy": 37.17, 
			 "cosmo_dispersion_energy": -26.1, 
			 "cosmo_repulsion_energy": 2.1, 
			 "cosmo_total_nonelectrostatic_energy": 13.17, 
			 "SMD_solvation_energy": 6.62 
		},
		"coords": [
			{
				"x": -4.523170622,
				"y": 0.1299348232,
				"z": -4.0333140667,
				"element": "C" 
			},
			{
				"x": -4.1487760586,
				"y": 1.4238909499,
				"z": -3.3045377929,
				"element": "C" 
			},
			{
				"x": -3.2306376239,
				"y": 1.2037378181,
				"z": -2.1090485131,
				"element": "C" 
			},
			{
				"x": -1.9996960529,
				"y": 0.6642729924,
				"z": -2.5922538474,
				"element": "O" 
			},
			{
				"x": -1.0166633877,
				"y": 0.3606103689,
				"z": -1.6988899836,
				"element": "C" 
			},
			{
				"x": -1.1098819696,
				"y": 0.5460965337,
				"z": -0.313976229,
				"element": "C" 
			},
			{
				"x": -0.0329456638,
				"y": 0.1969723022,
				"z": 0.5057351392,
				"element": "C" 
			},
			{
				"x": 1.1425440851,
				"y": -0.3395309442,
				"z": -0.0229561321,
				"element": "C" 
			},
			{
				"x": 2.344667303,
				"y": -0.6767932195,
				"z": 0.8496026,
				"element": "C" 
			},
			{
				"x": 2.0343675957,
				"y": -1.0781698017,
				"z": 2.2180178529,
				"element": "N" 
			},
			{
				"x": 1.530396324,
				"y": -2.2724716709,
				"z": 2.6518190353,
				"element": "C" 
			},
			{
				"x": 1.2244037388,
				"y": -2.4661690174,
				"z": 3.8198692055,
				"element": "O" 
			},
			{
				"x": 1.3464372563,
				"y": -3.3737565917,
				"z": 1.6067776559,
				"element": "C" 
			},
			{
				"x": 2.9328648986,
				"y": -4.1252750181,
				"z": 1.1279680075,
				"element": "Cl" 
			},
			{
				"x": 1.2169000447,
				"y": -0.5258627354,
				"z": -1.4123068811,
				"element": "C" 
			},
			{
				"x": 0.1586511714,
				"y": -0.1802677196,
				"z": -2.2427336722,
				"element": "C" 
			},
			{
				"x": -5.1750586733,
				"y": 0.3355378656,
				"z": -4.8878433786,
				"element": "H" 
			},
			{
				"x": -3.6294838633,
				"y": -0.3806793415,
				"z": -4.4015964343,
				"element": "H" 
			},
			{
				"x": -5.0535999528,
				"y": -0.5597292048,
				"z": -3.3666643626,
				"element": "H" 
			},
			{
				"x": -5.0519160864,
				"y": 1.9289166269,
				"z": -2.9394253306,
				"element": "H" 
			},
			{
				"x": -3.6574244189,
				"y": 2.1186449554,
				"z": -3.9960319504,
				"element": "H" 
			},
			{
				"x": -3.6881171179,
				"y": 0.5049795194,
				"z": -1.392833277,
				"element": "H" 
			},
			{
				"x": -3.0414533194,
				"y": 2.151254329,
				"z": -1.5849197495,
				"element": "H" 
			},
			{
				"x": -2.0066583593,
				"y": 0.9559267059,
				"z": 0.1349142466,
				"element": "H" 
			},
			{
				"x": -0.1227440623,
				"y": 0.3388721968,
				"z": 1.5790364579,
				"element": "H" 
			},
			{
				"x": 2.9414543596,
				"y": -1.4571952056,
				"z": 0.3670966846,
				"element": "H" 
			},
			{
				"x": 3.0031878229,
				"y": 0.1961651862,
				"z": 0.9295551367,
				"element": "H" 
			},
			{
				"x": 2.129361566,
				"y": -0.3957534875,
				"z": 2.9577063711,
				"element": "H" 
			},
			{
				"x": 0.7488387933,
				"y": -4.1603309073,
				"z": 2.0612877585,
				"element": "H" 
			},
			{
				"x": 0.8782859022,
				"y": -3.0108351953,
				"z": 0.6907407302,
				"element": "H" 
			},
			{
				"x": 2.1175874578,
				"y": -0.9500519223,
				"z": -1.8505140912,
				"element": "H" 
			},
			{
				"x": 0.2125789124,
				"y": -0.3281411907,
				"z": -3.3163811895,
				"element": "H" 
			}
		],
		 "valence_orbital": [ 
			{
				"type": "occ",
				"energy": -0.30161,
				"method": "rhf"
			},
			{
				"type": "occ",
				"energy": -0.26098,
				"method": "rhf"
			},
			{
				"type": "occ",
				"energy": -0.25877,
				"method": "rhf"
			},
			{
				"type": "occ",
				"energy": -0.25357,
				"method": "rhf"
			},
			{
				"type": "occ",
				"energy": -0.22278,
				"method": "rhf"
			},
			{
				"type": "unocc",
				"energy": -0.01989,
				"method": "rhf"
			},
			{
				"type": "unocc",
				"energy": -0.00989,
				"method": "rhf"
			},
			{
				"type": "unocc",
				"energy": 0.00117,
				"method": "rhf"
			},
			{
				"type": "unocc",
				"energy": 0.0568,
				"method": "rhf"
			},
			{
				"type": "unocc",
				"energy": 0.07793,
				"method": "rhf"
			}
		],
		"cosmo_sigma_profile": { 
			"-0.025": 0.0,
			"-0.024": 0.0,
			"-0.023": 0.0,
			"-0.022": 0.0,
			"-0.021": 0.0,
			"-0.02": 0.0,
			"-0.019": 0.0,
			"-0.018": 0.0,
			"-0.017": 0.0,
			"-0.016": 0.0,
			"-0.015": 0.0264542124579,
			"-0.014": 0.999683832514,
			"-0.013": 1.31031100519,
			"-0.012": 1.14931668847,
			"-0.011": 1.10376917833,
			"-0.01": 1.31766904364,
			"-0.009": 1.0548800076,
			"-0.008": 2.68123000066,
			"-0.007": 5.21724482103,
			"-0.006": 12.6324542574,
			"-0.005": 20.4745442744,
			"-0.004": 24.0086099137,
			"-0.003": 29.4646948527,
			"-0.002": 23.3433123928,
			"-0.001": 23.344318403,
			"0.0": 23.4225951212,
			"0.001": 20.4292097884,
			"0.002": 17.7384305864,
			"0.003": 17.3788991379,
			"0.004": 15.8799578294,
			"0.005": 20.2653886524,
			"0.006": 10.2863702261,
			"0.007": 2.76091861557,
			"0.008": 1.77819070672,
			"0.009": 2.5657690224,
			"0.01": 1.78763103411,
			"0.011": 1.38713622515,
			"0.012": 3.11694372166,
			"0.013": 5.68839181676,
			"0.014": 2.33400387231,
			"0.015": 0.0152307416758,
			"0.016": 0.0,
			"0.017": 0.0,
			"0.018": 0.0,
			"0.019": 0.0,
			"0.02": 0.0,
			"0.021": 0.0,
			"0.022": 0.0,
			"0.023": 0.0,
			"0.024": 0.0,
			"0.025": 0.0
		}
	}
}
