{
	 "smiles": "CC1=NC2=CC(=NN2C(=C1)C(F)(F)F)C1=CC=C(Cl)C=C1", 
	 "Tm": 449.15, 
	 "num_atms": 30, 
	 "gaussian": { 
		 "optdone": 1, 
		 "sigma_profile": "yes", 
		 "theory": "DFT", 
		 "functional": "B3LYP", 
		 "basiset": "6-31G**", 
		 "properties": { 
			 "R2extent": 9286.3805, 
			 "electric_dipole_moment_norm": 3.92148415399, 
			 "electric_quadrupole_moment_norm": 4.80894603422, 
			 "total_energy": -1462.87187424, 
			 "HOMO_LUMO_gap": 0.15127, 
			 "cosmo_polarized_energy": -9.9, 
			 "cosmo_cavitation_energy": 38.37, 
			 "cosmo_dispersion_energy": -27.44, 
			 "cosmo_repulsion_energy": 2.01, 
			 "cosmo_total_nonelectrostatic_energy": 12.94, 
			 "SMD_solvation_energy": 5.15 
		},
		"coords": [
			{
				"x": 4.9445422692,
				"y": 1.1324525356,
				"z": 1.5386474619,
				"element": "C" 
			},
			{
				"x": 3.517262353,
				"y": 0.6781029137,
				"z": 1.3713198777,
				"element": "C" 
			},
			{
				"x": 2.8801639507,
				"y": 1.0664153596,
				"z": 0.2802249935,
				"element": "N" 
			},
			{
				"x": 1.6042608964,
				"y": 0.6700948488,
				"z": 0.1141135132,
				"element": "C" 
			},
			{
				"x": 0.6628698075,
				"y": 0.8869732336,
				"z": -0.8842155842,
				"element": "C" 
			},
			{
				"x": -0.4944082301,
				"y": 0.1979692132,
				"z": -0.4677579117,
				"element": "C" 
			},
			{
				"x": -0.3207190421,
				"y": -0.4255004444,
				"z": 0.7195973014,
				"element": "N" 
			},
			{
				"x": 0.9442585156,
				"y": -0.1390019916,
				"z": 1.0670559382,
				"element": "N" 
			},
			{
				"x": 1.5952367132,
				"y": -0.5426697062,
				"z": 2.193512716,
				"element": "C" 
			},
			{
				"x": 2.8936542179,
				"y": -0.1398661589,
				"z": 2.3635364012,
				"element": "C" 
			},
			{
				"x": 0.8511324669,
				"y": -1.4076780669,
				"z": 3.1863932136,
				"element": "C" 
			},
			{
				"x": -0.233209071,
				"y": -0.7799190285,
				"z": 3.6689483765,
				"element": "F" 
			},
			{
				"x": 1.6544295213,
				"y": -1.7041515163,
				"z": 4.2294432445,
				"element": "F" 
			},
			{
				"x": 0.4560463708,
				"y": -2.5644207285,
				"z": 2.6309062521,
				"element": "F" 
			},
			{
				"x": -1.7923818003,
				"y": 0.0941177821,
				"z": -1.1507618926,
				"element": "C" 
			},
			{
				"x": -2.8394231941,
				"y": -0.6436466383,
				"z": -0.5729740773,
				"element": "C" 
			},
			{
				"x": -4.0734374837,
				"y": -0.7514016606,
				"z": -1.2064959644,
				"element": "C" 
			},
			{
				"x": -4.2682925415,
				"y": -0.115449377,
				"z": -2.4332694438,
				"element": "C" 
			},
			{
				"x": -5.8240543138,
				"y": -0.2468917615,
				"z": -3.2395125421,
				"element": "Cl" 
			},
			{
				"x": -3.2469944286,
				"y": 0.6231297688,
				"z": -3.0296843796,
				"element": "C" 
			},
			{
				"x": -2.0164580294,
				"y": 0.7230566928,
				"z": -2.3850237059,
				"element": "C" 
			},
			{
				"x": 4.9947772973,
				"y": 2.2258132904,
				"z": 1.5399899214,
				"element": "H" 
			},
			{
				"x": 5.5525438146,
				"y": 0.783721335,
				"z": 0.698028367,
				"element": "H" 
			},
			{
				"x": 5.3842364081,
				"y": 0.7606529999,
				"z": 2.4668826711,
				"element": "H" 
			},
			{
				"x": 0.8220200104,
				"y": 1.4682381873,
				"z": -1.7777253586,
				"element": "H" 
			},
			{
				"x": 3.4309525607,
				"y": -0.4478276591,
				"z": 3.2499994511,
				"element": "H" 
			},
			{
				"x": -2.6736432959,
				"y": -1.1324004202,
				"z": 0.3806244953,
				"element": "H" 
			},
			{
				"x": -4.8782952938,
				"y": -1.3219084799,
				"z": -0.756449055,
				"element": "H" 
			},
			{
				"x": -3.4137093865,
				"y": 1.1114916659,
				"z": -3.9832441639,
				"element": "H" 
			},
			{
				"x": -1.2255610628,
				"y": 1.2992038111,
				"z": -2.8544101166,
				"element": "H" 
			}
		],
		 "valence_orbital": [ 
			{
				"type": "occ",
				"energy": -0.2842,
				"method": "rhf"
			},
			{
				"type": "occ",
				"energy": -0.27722,
				"method": "rhf"
			},
			{
				"type": "occ",
				"energy": -0.26554,
				"method": "rhf"
			},
			{
				"type": "occ",
				"energy": -0.23828,
				"method": "rhf"
			},
			{
				"type": "occ",
				"energy": -0.22837,
				"method": "rhf"
			},
			{
				"type": "unocc",
				"energy": -0.0771,
				"method": "rhf"
			},
			{
				"type": "unocc",
				"energy": -0.03927,
				"method": "rhf"
			},
			{
				"type": "unocc",
				"energy": -0.01558,
				"method": "rhf"
			},
			{
				"type": "unocc",
				"energy": -0.00575,
				"method": "rhf"
			},
			{
				"type": "unocc",
				"energy": 0.03017,
				"method": "rhf"
			}
		],
		"cosmo_sigma_profile": { 
			"-0.025": 0.0,
			"-0.024": 0.0,
			"-0.023": 0.0,
			"-0.022": 0.0,
			"-0.021": 0.0,
			"-0.02": 0.0,
			"-0.019": 0.0,
			"-0.018": 0.0,
			"-0.017": 0.0,
			"-0.016": 0.0,
			"-0.015": 0.0,
			"-0.014": 0.0,
			"-0.013": 0.0,
			"-0.012": 0.0,
			"-0.011": 0.0,
			"-0.01": 0.0,
			"-0.009": 2.19334292874,
			"-0.008": 5.69733148387,
			"-0.007": 8.37452964116,
			"-0.006": 11.7961631497,
			"-0.005": 17.3110022885,
			"-0.004": 19.1877260628,
			"-0.003": 20.6260077492,
			"-0.002": 26.6874456686,
			"-0.001": 22.6868240455,
			"0.0": 19.7388073657,
			"0.001": 29.678264345,
			"0.002": 49.3555969881,
			"0.003": 33.5736801571,
			"0.004": 17.9235436697,
			"0.005": 9.91372574833,
			"0.006": 3.10275899599,
			"0.007": 3.55821782871,
			"0.008": 3.58716908374,
			"0.009": 2.70393198426,
			"0.01": 0.997614669963,
			"0.011": 0.892727494672,
			"0.012": 0.4853743017,
			"0.013": 0.913319603647,
			"0.014": 0.713751410335,
			"0.015": 0.100199552011,
			"0.016": 0.0,
			"0.017": 0.0,
			"0.018": 0.0,
			"0.019": 0.0,
			"0.02": 0.0,
			"0.021": 0.0,
			"0.022": 0.0,
			"0.023": 0.0,
			"0.024": 0.0,
			"0.025": 0.0
		}
	}
}
