{
	 "smiles": "CCCC(=O)NC1=CC=CC=C1", 
	 "Tm": 370.15, 
	 "num_atms": 25, 
	 "gaussian": { 
		 "optdone": 1, 
		 "sigma_profile": "yes", 
		 "theory": "DFT", 
		 "functional": "B3LYP", 
		 "basiset": "6-31G**", 
		 "properties": { 
			 "R2extent": 2745.8918, 
			 "electric_dipole_moment_norm": 3.08961697464, 
			 "electric_quadrupole_moment_norm": 10.348939208, 
			 "total_energy": -518.898995828, 
			 "HOMO_LUMO_gap": 0.21073, 
			 "cosmo_polarized_energy": -10.3, 
			 "cosmo_cavitation_energy": 27.99, 
			 "cosmo_dispersion_energy": -20.22, 
			 "cosmo_repulsion_energy": 1.64, 
			 "cosmo_total_nonelectrostatic_energy": 9.41, 
			 "SMD_solvation_energy": 5.24 
		},
		"coords": [
			{
				"x": 2.0240542005,
				"y": 2.9324782327,
				"z": 1.0133127209,
				"element": "C" 
			},
			{
				"x": 1.4197020763,
				"y": 2.9100980028,
				"z": -0.3941325063,
				"element": "C" 
			},
			{
				"x": 0.7415660758,
				"y": 1.5794779779,
				"z": -0.7481698679,
				"element": "C" 
			},
			{
				"x": 1.7484323966,
				"y": 0.4464118331,
				"z": -0.9116687381,
				"element": "C" 
			},
			{
				"x": 2.9249327838,
				"y": 0.652037324,
				"z": -1.1818141991,
				"element": "O" 
			},
			{
				"x": 1.3215037391,
				"y": -0.8609432716,
				"z": -0.739420438,
				"element": "N" 
			},
			{
				"x": 0.0707530235,
				"y": -1.4146073765,
				"z": -0.3815942823,
				"element": "C" 
			},
			{
				"x": -1.1412372758,
				"y": -0.9626771159,
				"z": -0.9235837795,
				"element": "C" 
			},
			{
				"x": -2.3428772245,
				"y": -1.5639414556,
				"z": -0.5475937301,
				"element": "C" 
			},
			{
				"x": -2.3549204861,
				"y": -2.6384540576,
				"z": 0.3421769896,
				"element": "C" 
			},
			{
				"x": -1.1465064091,
				"y": -3.109798227,
				"z": 0.8600841502,
				"element": "C" 
			},
			{
				"x": 0.0554789361,
				"y": -2.5003140715,
				"z": 0.5087744173,
				"element": "C" 
			},
			{
				"x": 1.262952738,
				"y": 2.7371481028,
				"z": 1.7782240685,
				"element": "H" 
			},
			{
				"x": 2.8092874352,
				"y": 2.1773204072,
				"z": 1.1108436179,
				"element": "H" 
			},
			{
				"x": 2.4710896006,
				"y": 3.907632149,
				"z": 1.2317921067,
				"element": "H" 
			},
			{
				"x": 0.6746947923,
				"y": 3.7091706795,
				"z": -0.4895720913,
				"element": "H" 
			},
			{
				"x": 2.2027346398,
				"y": 3.1070821792,
				"z": -1.1324879376,
				"element": "H" 
			},
			{
				"x": 0.2059160043,
				"y": 1.6852286229,
				"z": -1.7011262843,
				"element": "H" 
			},
			{
				"x": -0.0133658907,
				"y": 1.3119320947,
				"z": -0.0005760764,
				"element": "H" 
			},
			{
				"x": 2.1051321654,
				"y": -1.5026960443,
				"z": -0.764570841,
				"element": "H" 
			},
			{
				"x": -1.1443870527,
				"y": -0.1620248289,
				"z": -1.6534458639,
				"element": "H" 
			},
			{
				"x": -3.273378426,
				"y": -1.1989661132,
				"z": -0.9728800005,
				"element": "H" 
			},
			{
				"x": -3.2925909674,
				"y": -3.1080780684,
				"z": 0.6226772227,
				"element": "H" 
			},
			{
				"x": -1.1380665417,
				"y": -3.9491046589,
				"z": 1.5494806208,
				"element": "H" 
			},
			{
				"x": 0.9925996667,
				"y": -2.8551123162,
				"z": 0.9295707215,
				"element": "H" 
			}
		],
		 "valence_orbital": [ 
			{
				"type": "occ",
				"energy": -0.32981,
				"method": "rhf"
			},
			{
				"type": "occ",
				"energy": -0.29722,
				"method": "rhf"
			},
			{
				"type": "occ",
				"energy": -0.26041,
				"method": "rhf"
			},
			{
				"type": "occ",
				"energy": -0.25218,
				"method": "rhf"
			},
			{
				"type": "occ",
				"energy": -0.22652,
				"method": "rhf"
			},
			{
				"type": "unocc",
				"energy": -0.01579,
				"method": "rhf"
			},
			{
				"type": "unocc",
				"energy": -0.01128,
				"method": "rhf"
			},
			{
				"type": "unocc",
				"energy": 0.03359,
				"method": "rhf"
			},
			{
				"type": "unocc",
				"energy": 0.0809,
				"method": "rhf"
			},
			{
				"type": "unocc",
				"energy": 0.09773,
				"method": "rhf"
			}
		],
		"cosmo_sigma_profile": { 
			"-0.025": 0.0,
			"-0.024": 0.0,
			"-0.023": 0.0,
			"-0.022": 0.0,
			"-0.021": 0.0,
			"-0.02": 0.0,
			"-0.019": 0.0,
			"-0.018": 0.0,
			"-0.017": 0.0,
			"-0.016": 0.0,
			"-0.015": 0.0,
			"-0.014": 0.323996015245,
			"-0.013": 0.907106796514,
			"-0.012": 1.36025671411,
			"-0.011": 1.1264394322,
			"-0.01": 0.769739833717,
			"-0.009": 1.1430660322,
			"-0.008": 1.74299790961,
			"-0.007": 4.34281789009,
			"-0.006": 9.66394747468,
			"-0.005": 12.1831045859,
			"-0.004": 14.5936968524,
			"-0.003": 18.2981436121,
			"-0.002": 21.5158538362,
			"-0.001": 23.3393243142,
			"0.0": 20.7012047964,
			"0.001": 19.7017408981,
			"0.002": 14.6560860758,
			"0.003": 10.4536644988,
			"0.004": 10.312714043,
			"0.005": 10.9246130211,
			"0.006": 5.16463391871,
			"0.007": 1.55203858775,
			"0.008": 2.03121075779,
			"0.009": 1.3076247593,
			"0.01": 1.09074697784,
			"0.011": 1.90936128854,
			"0.012": 1.90059323169,
			"0.013": 4.0623178455,
			"0.014": 3.64322651361,
			"0.015": 0.0281770107519,
			"0.016": 0.0,
			"0.017": 0.0,
			"0.018": 0.0,
			"0.019": 0.0,
			"0.02": 0.0,
			"0.021": 0.0,
			"0.022": 0.0,
			"0.023": 0.0,
			"0.024": 0.0,
			"0.025": 0.0
		}
	}
}
