{
	 "smiles": "ClCC1=CC2=C(OCO2)C=C1Cl", 
	 "Tm": 337.15, 
	 "num_atms": 18, 
	 "gaussian": { 
		 "optdone": 1, 
		 "sigma_profile": "yes", 
		 "theory": "DFT", 
		 "functional": "B3LYP", 
		 "basiset": "6-31G**", 
		 "properties": { 
			 "R2extent": 3730.2784, 
			 "electric_dipole_moment_norm": 3.64191254837, 
			 "electric_quadrupole_moment_norm": 6.04853548059, 
			 "total_energy": -1379.27413415, 
			 "HOMO_LUMO_gap": 0.18813, 
			 "cosmo_polarized_energy": -8.58, 
			 "cosmo_cavitation_energy": 25.64, 
			 "cosmo_dispersion_energy": -19.45, 
			 "cosmo_repulsion_energy": 1.55, 
			 "cosmo_total_nonelectrostatic_energy": 7.75, 
			 "SMD_solvation_energy": 4.43 
		},
		"coords": [
			{
				"x": 1.4034176053,
				"y": 3.4850943447,
				"z": 1.6271043402,
				"element": "Cl" 
			},
			{
				"x": 0.174858972,
				"y": 3.5900450122,
				"z": 0.2622473644,
				"element": "C" 
			},
			{
				"x": -0.3444857807,
				"y": 2.2472244551,
				"z": -0.145377568,
				"element": "C" 
			},
			{
				"x": 0.3540525469,
				"y": 1.5242089431,
				"z": -1.1420989122,
				"element": "C" 
			},
			{
				"x": -0.1243023645,
				"y": 0.2875041281,
				"z": -1.5092032516,
				"element": "C" 
			},
			{
				"x": -1.2697081388,
				"y": -0.2556592673,
				"z": -0.9288943374,
				"element": "C" 
			},
			{
				"x": -1.5390167076,
				"y": -1.4756041282,
				"z": -1.4863399234,
				"element": "O" 
			},
			{
				"x": -0.4374340448,
				"y": -1.757595615,
				"z": -2.363196329,
				"element": "C" 
			},
			{
				"x": 0.36576545,
				"y": -0.5749765472,
				"z": -2.4570310915,
				"element": "O" 
			},
			{
				"x": -1.9826891778,
				"y": 0.4141046293,
				"z": 0.0431054423,
				"element": "C" 
			},
			{
				"x": -1.491046013,
				"y": 1.6756340117,
				"z": 0.4240721697,
				"element": "C" 
			},
			{
				"x": -2.3881293304,
				"y": 2.5295271085,
				"z": 1.673635567,
				"element": "Cl" 
			},
			{
				"x": 0.7025359709,
				"y": 4.0744825243,
				"z": -0.5587098027,
				"element": "H" 
			},
			{
				"x": -0.6112465724,
				"y": 4.2449224941,
				"z": 0.631421444,
				"element": "H" 
			},
			{
				"x": 1.2470620809,
				"y": 1.938446468,
				"z": -1.5968863255,
				"element": "H" 
			},
			{
				"x": 0.1610071452,
				"y": -2.5774410491,
				"z": -1.9438569176,
				"element": "H" 
			},
			{
				"x": -0.8207761351,
				"y": -2.0189607186,
				"z": -3.3541798994,
				"element": "H" 
			},
			{
				"x": -2.8740655061,
				"y": -0.0034567937,
				"z": 0.4932880308,
				"element": "H" 
			}
		],
		 "valence_orbital": [ 
			{
				"type": "occ",
				"energy": -0.30794,
				"method": "rhf"
			},
			{
				"type": "occ",
				"energy": -0.29337,
				"method": "rhf"
			},
			{
				"type": "occ",
				"energy": -0.29026,
				"method": "rhf"
			},
			{
				"type": "occ",
				"energy": -0.26088,
				"method": "rhf"
			},
			{
				"type": "occ",
				"energy": -0.22087,
				"method": "rhf"
			},
			{
				"type": "unocc",
				"energy": -0.03274,
				"method": "rhf"
			},
			{
				"type": "unocc",
				"energy": -0.01741,
				"method": "rhf"
			},
			{
				"type": "unocc",
				"energy": 0.02138,
				"method": "rhf"
			},
			{
				"type": "unocc",
				"energy": 0.0443,
				"method": "rhf"
			},
			{
				"type": "unocc",
				"energy": 0.08547,
				"method": "rhf"
			}
		],
		"cosmo_sigma_profile": { 
			"-0.025": 0.0,
			"-0.024": 0.0,
			"-0.023": 0.0,
			"-0.022": 0.0,
			"-0.021": 0.0,
			"-0.02": 0.0,
			"-0.019": 0.0,
			"-0.018": 0.0,
			"-0.017": 0.0,
			"-0.016": 0.0,
			"-0.015": 0.0,
			"-0.014": 0.0,
			"-0.013": 0.0,
			"-0.012": 0.0,
			"-0.011": 0.0,
			"-0.01": 0.0,
			"-0.009": 1.76280050033,
			"-0.008": 11.2554068676,
			"-0.007": 13.431782158,
			"-0.006": 11.7363241054,
			"-0.005": 9.61065749762,
			"-0.004": 9.87140751399,
			"-0.003": 7.93877985656,
			"-0.002": 9.15930454944,
			"-0.001": 11.1463643512,
			"0.0": 13.3561573921,
			"0.001": 20.6852631618,
			"0.002": 21.9334324393,
			"0.003": 14.9943561646,
			"0.004": 15.1219343692,
			"0.005": 12.1863779196,
			"0.006": 11.6843499316,
			"0.007": 8.2569593726,
			"0.008": 3.17118613705,
			"0.009": 2.68927923225,
			"0.01": 0.0525682377604,
			"0.011": 0.0,
			"0.012": 0.0,
			"0.013": 0.0,
			"0.014": 0.0,
			"0.015": 0.0,
			"0.016": 0.0,
			"0.017": 0.0,
			"0.018": 0.0,
			"0.019": 0.0,
			"0.02": 0.0,
			"0.021": 0.0,
			"0.022": 0.0,
			"0.023": 0.0,
			"0.024": 0.0,
			"0.025": 0.0
		}
	}
}
