{
	 "smiles": "ClS(=O)(=O)C1=CC2=C(COC2)C=C1", 
	 "Tm": 372.15, 
	 "num_atms": 20, 
	 "gaussian": { 
		 "optdone": 1, 
		 "sigma_profile": "yes", 
		 "theory": "DFT", 
		 "functional": "B3LYP", 
		 "basiset": "6-31G**", 
		 "properties": { 
			 "R2extent": 4267.6252, 
			 "electric_dipole_moment_norm": 4.52007201381, 
			 "electric_quadrupole_moment_norm": 20.7506748779, 
			 "total_energy": -1393.03481208, 
			 "HOMO_LUMO_gap": 0.17103, 
			 "cosmo_polarized_energy": -11.23, 
			 "cosmo_cavitation_energy": 27.34, 
			 "cosmo_dispersion_energy": -20.92, 
			 "cosmo_repulsion_energy": 1.63, 
			 "cosmo_total_nonelectrostatic_energy": 8.05, 
			 "SMD_solvation_energy": 3.18 
		},
		"coords": [
			{
				"x": 0.8563150279,
				"y": -3.1878557212,
				"z": 2.7850833043,
				"element": "Cl" 
			},
			{
				"x": 1.1121314408,
				"y": -3.199607927,
				"z": 0.663777749,
				"element": "S" 
			},
			{
				"x": 2.522315263,
				"y": -3.4857071324,
				"z": 0.4302088632,
				"element": "O" 
			},
			{
				"x": 0.0475065729,
				"y": -4.0424843963,
				"z": 0.1340618538,
				"element": "O" 
			},
			{
				"x": 0.7790866629,
				"y": -1.4928092998,
				"z": 0.2580526118,
				"element": "C" 
			},
			{
				"x": 1.8495956329,
				"y": -0.5932653878,
				"z": 0.2393936005,
				"element": "C" 
			},
			{
				"x": 1.5588192667,
				"y": 0.7256705562,
				"z": -0.0865669225,
				"element": "C" 
			},
			{
				"x": 0.2519799358,
				"y": 1.1206560926,
				"z": -0.3841748709,
				"element": "C" 
			},
			{
				"x": 0.2639348117,
				"y": 2.5908624742,
				"z": -0.7126460947,
				"element": "C" 
			},
			{
				"x": 1.5861417671,
				"y": 3.0358822557,
				"z": -0.4052220594,
				"element": "O" 
			},
			{
				"x": 2.4649157489,
				"y": 1.9241828143,
				"z": -0.2151087897,
				"element": "C" 
			},
			{
				"x": -0.8014449266,
				"y": 0.2087411241,
				"z": -0.3676305762,
				"element": "C" 
			},
			{
				"x": -0.5355359181,
				"y": -1.1210729656,
				"z": -0.037092573,
				"element": "C" 
			},
			{
				"x": 2.8553998224,
				"y": -0.9312759976,
				"z": 0.4646675373,
				"element": "H" 
			},
			{
				"x": -0.4524857793,
				"y": 3.1700036896,
				"z": -0.1160402019,
				"element": "H" 
			},
			{
				"x": 0.0297492373,
				"y": 2.7645860129,
				"z": -1.7758374698,
				"element": "H" 
			},
			{
				"x": 3.0721735152,
				"y": 2.1037689397,
				"z": 0.6808291563,
				"element": "H" 
			},
			{
				"x": 3.1518042957,
				"y": 1.8196500898,
				"z": -1.0703977537,
				"element": "H" 
			},
			{
				"x": -1.8156370593,
				"y": 0.5150571474,
				"z": -0.605992538,
				"element": "H" 
			},
			{
				"x": -1.3255653179,
				"y": -1.8629823686,
				"z": -0.0151648265,
				"element": "H" 
			}
		],
		 "valence_orbital": [ 
			{
				"type": "occ",
				"energy": -0.33106,
				"method": "rhf"
			},
			{
				"type": "occ",
				"energy": -0.31384,
				"method": "rhf"
			},
			{
				"type": "occ",
				"energy": -0.29384,
				"method": "rhf"
			},
			{
				"type": "occ",
				"energy": -0.29029,
				"method": "rhf"
			},
			{
				"type": "occ",
				"energy": -0.26224,
				"method": "rhf"
			},
			{
				"type": "unocc",
				"energy": -0.09121,
				"method": "rhf"
			},
			{
				"type": "unocc",
				"energy": -0.04723,
				"method": "rhf"
			},
			{
				"type": "unocc",
				"energy": -0.04057,
				"method": "rhf"
			},
			{
				"type": "unocc",
				"energy": 0.05022,
				"method": "rhf"
			},
			{
				"type": "unocc",
				"energy": 0.07019,
				"method": "rhf"
			}
		],
		"cosmo_sigma_profile": { 
			"-0.025": 0.0,
			"-0.024": 0.0,
			"-0.023": 0.0,
			"-0.022": 0.0,
			"-0.021": 0.0,
			"-0.02": 0.0,
			"-0.019": 0.0,
			"-0.018": 0.0,
			"-0.017": 0.0,
			"-0.016": 0.0,
			"-0.015": 0.0,
			"-0.014": 0.0,
			"-0.013": 0.0,
			"-0.012": 0.0,
			"-0.011": 0.0,
			"-0.01": 0.0,
			"-0.009": 0.840376382484,
			"-0.008": 4.98787810582,
			"-0.007": 8.30577270161,
			"-0.006": 17.0166103481,
			"-0.005": 18.6426753629,
			"-0.004": 15.6140829791,
			"-0.003": 14.0656870075,
			"-0.002": 11.51803935,
			"-0.001": 15.9764363382,
			"0.0": 17.5023343115,
			"0.001": 19.3080857986,
			"0.002": 12.5821631004,
			"0.003": 14.8657892141,
			"0.004": 11.8480311891,
			"0.005": 4.317143352,
			"0.006": 3.97787971134,
			"0.007": 8.09139324879,
			"0.008": 10.4257145393,
			"0.009": 5.72889441184,
			"0.01": 1.22554266512,
			"0.011": 1.5080086254,
			"0.012": 1.67007092262,
			"0.013": 1.49593661783,
			"0.014": 0.0303275724792,
			"0.015": 0.0,
			"0.016": 0.0,
			"0.017": 0.0,
			"0.018": 0.0,
			"0.019": 0.0,
			"0.02": 0.0,
			"0.021": 0.0,
			"0.022": 0.0,
			"0.023": 0.0,
			"0.024": 0.0,
			"0.025": 0.0
		}
	}
}
