{
	 "smiles": "OC1=CC=C(C=C1)C1CC(=O)C2=CC=CC=C2O1", 
	 "Tm": 455.15, 
	 "num_atms": 30, 
	 "gaussian": { 
		 "optdone": 1, 
		 "sigma_profile": "yes", 
		 "theory": "DFT", 
		 "functional": "B3LYP", 
		 "basiset": "6-31G**", 
		 "properties": { 
			 "R2extent": 6227.3489, 
			 "electric_dipole_moment_norm": 2.85768219892, 
			 "electric_quadrupole_moment_norm": 19.6063151671, 
			 "total_energy": -804.498352701, 
			 "HOMO_LUMO_gap": 0.16926, 
			 "cosmo_polarized_energy": -15.15, 
			 "cosmo_cavitation_energy": 34.19, 
			 "cosmo_dispersion_energy": -24.82, 
			 "cosmo_repulsion_energy": 1.9, 
			 "cosmo_total_nonelectrostatic_energy": 11.26, 
			 "SMD_solvation_energy": 6.42 
		},
		"coords": [
			{
				"x": -2.048475659,
				"y": 1.6467476994,
				"z": 5.0299371128,
				"element": "O" 
			},
			{
				"x": -1.7768131114,
				"y": 1.2362948419,
				"z": 3.7566785406,
				"element": "C" 
			},
			{
				"x": -1.2579337517,
				"y": 2.1882178243,
				"z": 2.8697836784,
				"element": "C" 
			},
			{
				"x": -0.9597060628,
				"y": 1.8250572591,
				"z": 1.5615816745,
				"element": "C" 
			},
			{
				"x": -1.1784234399,
				"y": 0.5163323893,
				"z": 1.1066728579,
				"element": "C" 
			},
			{
				"x": -1.7065031466,
				"y": -0.4201209888,
				"z": 1.9988483715,
				"element": "C" 
			},
			{
				"x": -2.0006750712,
				"y": -0.0720049362,
				"z": 3.3173956533,
				"element": "C" 
			},
			{
				"x": -0.8065813911,
				"y": 0.1068529985,
				"z": -0.2977345291,
				"element": "C" 
			},
			{
				"x": 0.6925353372,
				"y": -0.1595266098,
				"z": -0.480567554,
				"element": "C" 
			},
			{
				"x": 1.021622354,
				"y": -0.5035927919,
				"z": -1.9277052949,
				"element": "C" 
			},
			{
				"x": 1.9414683856,
				"y": -1.2497262442,
				"z": -2.227338952,
				"element": "O" 
			},
			{
				"x": 0.1692952801,
				"y": 0.1772987026,
				"z": -2.9282250105,
				"element": "C" 
			},
			{
				"x": 0.4484649297,
				"y": 0.0646485147,
				"z": -4.3010866547,
				"element": "C" 
			},
			{
				"x": -0.2955267677,
				"y": 0.7679304967,
				"z": -5.2367476402,
				"element": "C" 
			},
			{
				"x": -1.3361804636,
				"y": 1.603546985,
				"z": -4.8011567292,
				"element": "C" 
			},
			{
				"x": -1.6393331153,
				"y": 1.723123036,
				"z": -3.4495844309,
				"element": "C" 
			},
			{
				"x": -0.8919979824,
				"y": 1.0039463404,
				"z": -2.5077414887,
				"element": "C" 
			},
			{
				"x": -1.2360242046,
				"y": 1.1543565242,
				"z": -1.1980878528,
				"element": "O" 
			},
			{
				"x": -2.400421476,
				"y": 0.9029331062,
				"z": 5.5359311703,
				"element": "H" 
			},
			{
				"x": -1.0990392022,
				"y": 3.2013818393,
				"z": 3.2238929098,
				"element": "H" 
			},
			{
				"x": -0.570240452,
				"y": 2.5696417044,
				"z": 0.874481648,
				"element": "H" 
			},
			{
				"x": -1.894690078,
				"y": -1.4378267656,
				"z": 1.6655046529,
				"element": "H" 
			},
			{
				"x": -2.4124579807,
				"y": -0.8138605489,
				"z": 3.9984074822,
				"element": "H" 
			},
			{
				"x": -1.3596099947,
				"y": -0.8052517296,
				"z": -0.5690545151,
				"element": "H" 
			},
			{
				"x": 1.2554013759,
				"y": 0.7426411709,
				"z": -0.2037982181,
				"element": "H" 
			},
			{
				"x": 1.0298364111,
				"y": -0.969294927,
				"z": 0.1712962971,
				"element": "H" 
			},
			{
				"x": 1.2724704679,
				"y": -0.5790170581,
				"z": -4.5927553409,
				"element": "H" 
			},
			{
				"x": -0.0734539051,
				"y": 0.6797071429,
				"z": -6.2954569515,
				"element": "H" 
			},
			{
				"x": -1.9218737681,
				"y": 2.1605262876,
				"z": -5.5272233879,
				"element": "H" 
			},
			{
				"x": -2.4507335174,
				"y": 2.3529377366,
				"z": -3.1005474986,
				"element": "H" 
			}
		],
		 "valence_orbital": [ 
			{
				"type": "occ",
				"energy": -0.25945,
				"method": "rhf"
			},
			{
				"type": "occ",
				"energy": -0.25901,
				"method": "rhf"
			},
			{
				"type": "occ",
				"energy": -0.24742,
				"method": "rhf"
			},
			{
				"type": "occ",
				"energy": -0.23179,
				"method": "rhf"
			},
			{
				"type": "occ",
				"energy": -0.2243,
				"method": "rhf"
			},
			{
				"type": "unocc",
				"energy": -0.05504,
				"method": "rhf"
			},
			{
				"type": "unocc",
				"energy": -0.01038,
				"method": "rhf"
			},
			{
				"type": "unocc",
				"energy": -0.00351,
				"method": "rhf"
			},
			{
				"type": "unocc",
				"energy": 0.00469,
				"method": "rhf"
			},
			{
				"type": "unocc",
				"energy": 0.04211,
				"method": "rhf"
			}
		],
		"cosmo_sigma_profile": { 
			"-0.025": 0.0,
			"-0.024": 0.0,
			"-0.023": 0.0,
			"-0.022": 0.0,
			"-0.021": 0.0,
			"-0.02": 0.0,
			"-0.019": 0.0,
			"-0.018": 0.331341680217,
			"-0.017": 1.04715017107,
			"-0.016": 1.33341122626,
			"-0.015": 1.00108360716,
			"-0.014": 1.01010122582,
			"-0.013": 1.01780205499,
			"-0.012": 0.894414902578,
			"-0.011": 1.03754301998,
			"-0.01": 1.21096905162,
			"-0.009": 0.795466322966,
			"-0.008": 1.11549202302,
			"-0.007": 8.18097127828,
			"-0.006": 20.9671582378,
			"-0.005": 22.6213148298,
			"-0.004": 20.0511296676,
			"-0.003": 16.7215213136,
			"-0.002": 15.3847150941,
			"-0.001": 14.0535021476,
			"0.0": 12.9428925619,
			"0.001": 16.8330256474,
			"0.002": 19.3236833387,
			"0.003": 22.3411143711,
			"0.004": 22.0564779337,
			"0.005": 14.9785990245,
			"0.006": 8.16647797378,
			"0.007": 4.03091778216,
			"0.008": 3.7889927822,
			"0.009": 3.90227295478,
			"0.01": 3.6063419944,
			"0.011": 5.39020726457,
			"0.012": 4.68618393245,
			"0.013": 2.02071696805,
			"0.014": 0.120621242701,
			"0.015": 0.0,
			"0.016": 0.0,
			"0.017": 0.0,
			"0.018": 0.0,
			"0.019": 0.0,
			"0.02": 0.0,
			"0.021": 0.0,
			"0.022": 0.0,
			"0.023": 0.0,
			"0.024": 0.0,
			"0.025": 0.0
		}
	}
}
