{
	 "smiles": "CSC1=NC2=C(C=CC=C2)C(=O)N1CC=C", 
	 "Tm": 349.15, 
	 "num_atms": 28, 
	 "gaussian": { 
		 "optdone": 1, 
		 "sigma_profile": "yes", 
		 "theory": "DFT", 
		 "functional": "B3LYP", 
		 "basiset": "6-31G**", 
		 "properties": { 
			 "R2extent": 4457.7574, 
			 "electric_dipole_moment_norm": 2.39451838164, 
			 "electric_quadrupole_moment_norm": 6.67890196215, 
			 "total_energy": -1047.42825704, 
			 "HOMO_LUMO_gap": 0.17976, 
			 "cosmo_polarized_energy": -9.71, 
			 "cosmo_cavitation_energy": 33.24, 
			 "cosmo_dispersion_energy": -24.12, 
			 "cosmo_repulsion_energy": 1.81, 
			 "cosmo_total_nonelectrostatic_energy": 10.92, 
			 "SMD_solvation_energy": 5.87 
		},
		"coords": [
			{
				"x": 1.3786438102,
				"y": -3.5562576526,
				"z": 2.5842250384,
				"element": "C" 
			},
			{
				"x": 2.1442080986,
				"y": -2.6658176843,
				"z": 1.1915045054,
				"element": "S" 
			},
			{
				"x": 0.8174786148,
				"y": -1.5400901308,
				"z": 0.7785978107,
				"element": "C" 
			},
			{
				"x": -0.2802016562,
				"y": -1.5913707768,
				"z": 1.4606160429,
				"element": "N" 
			},
			{
				"x": -1.2992583704,
				"y": -0.7161736925,
				"z": 1.1265771075,
				"element": "C" 
			},
			{
				"x": -1.165766881,
				"y": 0.2186969353,
				"z": 0.0776836844,
				"element": "C" 
			},
			{
				"x": -2.2182854881,
				"y": 1.0941206684,
				"z": -0.2361727146,
				"element": "C" 
			},
			{
				"x": -3.3988886912,
				"y": 1.0425759887,
				"z": 0.4881335419,
				"element": "C" 
			},
			{
				"x": -3.5378177123,
				"y": 0.1119327332,
				"z": 1.5348431499,
				"element": "C" 
			},
			{
				"x": -2.5060938718,
				"y": -0.7571791788,
				"z": 1.8535098489,
				"element": "C" 
			},
			{
				"x": 0.082101093,
				"y": 0.2687227063,
				"z": -0.6856156355,
				"element": "C" 
			},
			{
				"x": 0.3125735269,
				"y": 1.0386635427,
				"z": -1.6098373685,
				"element": "O" 
			},
			{
				"x": 1.063483767,
				"y": -0.6678530885,
				"z": -0.2677248287,
				"element": "N" 
			},
			{
				"x": 2.3279776738,
				"y": -0.6700642994,
				"z": -1.03947336,
				"element": "C" 
			},
			{
				"x": 2.2951067604,
				"y": -1.6275122144,
				"z": -2.2038854812,
				"element": "C" 
			},
			{
				"x": 2.3039999435,
				"y": -1.2306487985,
				"z": -3.4755633409,
				"element": "C" 
			},
			{
				"x": 1.1473303368,
				"y": -2.8670523831,
				"z": 3.3956968581,
				"element": "H" 
			},
			{
				"x": 2.1249730118,
				"y": -4.2867368161,
				"z": 2.9041987577,
				"element": "H" 
			},
			{
				"x": 0.4678609008,
				"y": -4.0580571098,
				"z": 2.2591616407,
				"element": "H" 
			},
			{
				"x": -2.0757483155,
				"y": 1.7976453098,
				"z": -1.0496262096,
				"element": "H" 
			},
			{
				"x": -4.2155715382,
				"y": 1.7171333078,
				"z": 0.2502797254,
				"element": "H" 
			},
			{
				"x": -4.464871384,
				"y": 0.0741175071,
				"z": 2.1001479495,
				"element": "H" 
			},
			{
				"x": -2.5973644642,
				"y": -1.4801875413,
				"z": 2.6573646176,
				"element": "H" 
			},
			{
				"x": 3.1415426352,
				"y": -0.9083890492,
				"z": -0.3478427518,
				"element": "H" 
			},
			{
				"x": 2.4628672011,
				"y": 0.3514168591,
				"z": -1.3946934027,
				"element": "H" 
			},
			{
				"x": 2.2611213491,
				"y": -2.6875654265,
				"z": -1.958315101,
				"element": "H" 
			},
			{
				"x": 2.3185695436,
				"y": -0.177030342,
				"z": -3.7408848571,
				"element": "H" 
			},
			{
				"x": 2.2888301064,
				"y": -1.9448393739,
				"z": -4.2937052274,
				"element": "H" 
			}
		],
		 "valence_orbital": [ 
			{
				"type": "occ",
				"energy": -0.27262,
				"method": "rhf"
			},
			{
				"type": "occ",
				"energy": -0.26029,
				"method": "rhf"
			},
			{
				"type": "occ",
				"energy": -0.25897,
				"method": "rhf"
			},
			{
				"type": "occ",
				"energy": -0.25617,
				"method": "rhf"
			},
			{
				"type": "occ",
				"energy": -0.21972,
				"method": "rhf"
			},
			{
				"type": "unocc",
				"energy": -0.03996,
				"method": "rhf"
			},
			{
				"type": "unocc",
				"energy": -0.03089,
				"method": "rhf"
			},
			{
				"type": "unocc",
				"energy": 0.00561,
				"method": "rhf"
			},
			{
				"type": "unocc",
				"energy": 0.02583,
				"method": "rhf"
			},
			{
				"type": "unocc",
				"energy": 0.03076,
				"method": "rhf"
			}
		],
		"cosmo_sigma_profile": { 
			"-0.025": 0.0,
			"-0.024": 0.0,
			"-0.023": 0.0,
			"-0.022": 0.0,
			"-0.021": 0.0,
			"-0.02": 0.0,
			"-0.019": 0.0,
			"-0.018": 0.0,
			"-0.017": 0.0,
			"-0.016": 0.0,
			"-0.015": 0.0,
			"-0.014": 0.0,
			"-0.013": 0.0,
			"-0.012": 0.0,
			"-0.011": 0.0,
			"-0.01": 0.0,
			"-0.009": 0.0,
			"-0.008": 0.4335800254,
			"-0.007": 3.92877075454,
			"-0.006": 13.4279539692,
			"-0.005": 20.5270784159,
			"-0.004": 25.2954853416,
			"-0.003": 25.6970373754,
			"-0.002": 24.9086903179,
			"-0.001": 21.374679263,
			"0.0": 17.4414443877,
			"0.001": 19.0219738784,
			"0.002": 20.7219166983,
			"0.003": 22.8989335864,
			"0.004": 17.2081257015,
			"0.005": 8.43025258019,
			"0.006": 6.65363186403,
			"0.007": 5.02225736573,
			"0.008": 3.14530233055,
			"0.009": 2.88792256073,
			"0.01": 1.57373806263,
			"0.011": 1.85360866887,
			"0.012": 3.37897532964,
			"0.013": 1.7963635075,
			"0.014": 0.0,
			"0.015": 0.0,
			"0.016": 0.0,
			"0.017": 0.0,
			"0.018": 0.0,
			"0.019": 0.0,
			"0.02": 0.0,
			"0.021": 0.0,
			"0.022": 0.0,
			"0.023": 0.0,
			"0.024": 0.0,
			"0.025": 0.0
		}
	}
}
