{
	 "smiles": "CC1=C(C)C2=C(NN=C2N)N=N1", 
	 "Tm": 538.15, 
	 "num_atms": 21, 
	 "gaussian": { 
		 "optdone": 1, 
		 "sigma_profile": "yes", 
		 "theory": "DFT", 
		 "functional": "B3LYP", 
		 "basiset": "6-31G**", 
		 "properties": { 
			 "R2extent": 1957.1757, 
			 "electric_dipole_moment_norm": 4.01166878244, 
			 "electric_quadrupole_moment_norm": 8.33624296791, 
			 "total_energy": -545.884879541, 
			 "HOMO_LUMO_gap": 0.15674, 
			 "cosmo_polarized_energy": -17.04, 
			 "cosmo_cavitation_energy": 24.57, 
			 "cosmo_dispersion_energy": -18.56, 
			 "cosmo_repulsion_energy": 1.47, 
			 "cosmo_total_nonelectrostatic_energy": 7.49, 
			 "SMD_solvation_energy": 1.33 
		},
		"coords": [
			{
				"x": -1.8398414734,
				"y": -2.7805543097,
				"z": -1.1991858339,
				"element": "C" 
			},
			{
				"x": -0.9630972588,
				"y": -1.584810405,
				"z": -0.9223267806,
				"element": "C" 
			},
			{
				"x": -0.9732559499,
				"y": -0.9337170228,
				"z": 0.3283556056,
				"element": "C" 
			},
			{
				"x": -1.8683648508,
				"y": -1.376421452,
				"z": 1.455386494,
				"element": "C" 
			},
			{
				"x": -0.0950600959,
				"y": 0.1468661942,
				"z": 0.4317317398,
				"element": "C" 
			},
			{
				"x": 0.6577998482,
				"y": 0.4735072808,
				"z": -0.7236307579,
				"element": "C" 
			},
			{
				"x": 1.3989020147,
				"y": 1.5705318835,
				"z": -0.4082549133,
				"element": "N" 
			},
			{
				"x": 1.2010021415,
				"y": 1.9627453803,
				"z": 0.8882762757,
				"element": "N" 
			},
			{
				"x": 0.3097327632,
				"y": 1.1331490933,
				"z": 1.4008600667,
				"element": "C" 
			},
			{
				"x": -0.1807568557,
				"y": 1.3005300818,
				"z": 2.6989425618,
				"element": "N" 
			},
			{
				"x": 0.6305371983,
				"y": -0.1673792146,
				"z": -1.8935293133,
				"element": "N" 
			},
			{
				"x": -0.1867067899,
				"y": -1.2066638285,
				"z": -1.967963,
				"element": "N" 
			},
			{
				"x": -1.6596375335,
				"y": -3.5927212876,
				"z": -0.4851030183,
				"element": "H" 
			},
			{
				"x": -1.6310449029,
				"y": -3.1463648989,
				"z": -2.2054352332,
				"element": "H" 
			},
			{
				"x": -2.9054469507,
				"y": -2.5275202019,
				"z": -1.1374545854,
				"element": "H" 
			},
			{
				"x": -1.485769372,
				"y": -2.2898259617,
				"z": 1.9288470321,
				"element": "H" 
			},
			{
				"x": -1.9538696697,
				"y": -0.6009993121,
				"z": 2.219428736,
				"element": "H" 
			},
			{
				"x": -2.8743863372,
				"y": -1.6073517561,
				"z": 1.0926080699,
				"element": "H" 
			},
			{
				"x": 2.0410777705,
				"y": 2.0748954939,
				"z": -0.9970977288,
				"element": "H" 
			},
			{
				"x": 0.2954895005,
				"y": 2.0657683023,
				"z": 3.1652267796,
				"element": "H" 
			},
			{
				"x": -0.1169031966,
				"y": 0.4588359409,
				"z": 3.2607178033,
				"element": "H" 
			}
		],
		 "valence_orbital": [ 
			{
				"type": "occ",
				"energy": -0.30003,
				"method": "rhf"
			},
			{
				"type": "occ",
				"energy": -0.28733,
				"method": "rhf"
			},
			{
				"type": "occ",
				"energy": -0.26134,
				"method": "rhf"
			},
			{
				"type": "occ",
				"energy": -0.22697,
				"method": "rhf"
			},
			{
				"type": "occ",
				"energy": -0.21275,
				"method": "rhf"
			},
			{
				"type": "unocc",
				"energy": -0.05601,
				"method": "rhf"
			},
			{
				"type": "unocc",
				"energy": 0.00351,
				"method": "rhf"
			},
			{
				"type": "unocc",
				"energy": 0.05319,
				"method": "rhf"
			},
			{
				"type": "unocc",
				"energy": 0.06721,
				"method": "rhf"
			},
			{
				"type": "unocc",
				"energy": 0.09097,
				"method": "rhf"
			}
		],
		"cosmo_sigma_profile": { 
			"-0.025": 0.0,
			"-0.024": 0.0,
			"-0.023": 0.0,
			"-0.022": 0.0,
			"-0.021": 0.0,
			"-0.02": 0.0,
			"-0.019": 0.0,
			"-0.018": 0.0,
			"-0.017": 0.155160437229,
			"-0.016": 1.37806510725,
			"-0.015": 1.39795612568,
			"-0.014": 1.07350682909,
			"-0.013": 1.52989167842,
			"-0.012": 3.22541303222,
			"-0.011": 3.32873999459,
			"-0.01": 4.21528592274,
			"-0.009": 3.58529759964,
			"-0.008": 2.83607325314,
			"-0.007": 2.1429115684,
			"-0.006": 5.21542616599,
			"-0.005": 11.4288526438,
			"-0.004": 12.8259093223,
			"-0.003": 13.0870990712,
			"-0.002": 14.7019190853,
			"-0.001": 18.8104020747,
			"0.0": 21.0488913479,
			"0.001": 11.7226716076,
			"0.002": 7.35004267077,
			"0.003": 5.94725743527,
			"0.004": 4.87251117577,
			"0.005": 4.58782640787,
			"0.006": 5.56670075559,
			"0.007": 3.30575936213,
			"0.008": 2.94669087609,
			"0.009": 3.75209458864,
			"0.01": 4.08575739765,
			"0.011": 2.95052050753,
			"0.012": 3.39402478614,
			"0.013": 4.15710300738,
			"0.014": 4.22262475845,
			"0.015": 2.61698787329,
			"0.016": 1.47215458088,
			"0.017": 0.0747205933851,
			"0.018": 0.0,
			"0.019": 0.0,
			"0.02": 0.0,
			"0.021": 0.0,
			"0.022": 0.0,
			"0.023": 0.0,
			"0.024": 0.0,
			"0.025": 0.0
		}
	}
}
