{
	 "smiles": "OC(=O)CCSCC(=O)NC1=CC=C(Br)C=C1", 
	 "Tm": 422.15, 
	 "num_atms": 29, 
	 "gaussian": { 
		 "optdone": 1, 
		 "sigma_profile": "yes", 
		 "theory": "DFT", 
		 "functional": "B3LYP", 
		 "basiset": "6-31G**", 
		 "properties": { 
			 "R2extent": 13068.6771, 
			 "electric_dipole_moment_norm": 2.70693559214, 
			 "electric_quadrupole_moment_norm": 36.1167647038, 
			 "total_energy": -3676.44248924, 
			 "HOMO_LUMO_gap": 0.19152, 
			 "cosmo_polarized_energy": -24.86, 
			 "cosmo_cavitation_energy": 37.24, 
			 "cosmo_dispersion_energy": -27.37, 
			 "cosmo_repulsion_energy": 2.09, 
			 "cosmo_total_nonelectrostatic_energy": 11.95, 
			 "SMD_solvation_energy": 5.86 
		},
		"coords": [
			{
				"x": -2.4647132174,
				"y": -2.6313637524,
				"z": -4.2488495188,
				"element": "O" 
			},
			{
				"x": -2.6431504586,
				"y": -1.4533119229,
				"z": -3.594166123,
				"element": "C" 
			},
			{
				"x": -2.8082392287,
				"y": -0.4356938658,
				"z": -4.2216121453,
				"element": "O" 
			},
			{
				"x": -2.6041580708,
				"y": -1.5161896985,
				"z": -2.0732395222,
				"element": "C" 
			},
			{
				"x": -1.1972241917,
				"y": -1.7322380672,
				"z": -1.4857300483,
				"element": "C" 
			},
			{
				"x": 0.1296220139,
				"y": -0.6493148785,
				"z": -2.1590877476,
				"element": "S" 
			},
			{
				"x": -0.6319199586,
				"y": 1.0233110795,
				"z": -2.0368587214,
				"element": "C" 
			},
			{
				"x": -0.9613055604,
				"y": 1.3978614849,
				"z": -0.5992657385,
				"element": "C" 
			},
			{
				"x": -2.0002690826,
				"y": 1.0176941932,
				"z": -0.0672544182,
				"element": "O" 
			},
			{
				"x": -0.0007256525,
				"y": 2.1494498438,
				"z": 0.0330022519,
				"element": "N" 
			},
			{
				"x": 0.0314425217,
				"y": 2.6059805576,
				"z": 1.3675197228,
				"element": "C" 
			},
			{
				"x": -1.0123199924,
				"y": 2.3931432301,
				"z": 2.2812807906,
				"element": "C" 
			},
			{
				"x": -0.9027836632,
				"y": 2.883346919,
				"z": 3.5820954113,
				"element": "C" 
			},
			{
				"x": 0.2358507445,
				"y": 3.5821394065,
				"z": 3.9759111836,
				"element": "C" 
			},
			{
				"x": 0.3726036706,
				"y": 4.248007093,
				"z": 5.7617837526,
				"element": "Br" 
			},
			{
				"x": 1.2787343509,
				"y": 3.8012479875,
				"z": 3.077686315,
				"element": "C" 
			},
			{
				"x": 1.1718645948,
				"y": 3.3132675427,
				"z": 1.7792478192,
				"element": "C" 
			},
			{
				"x": -2.3618488653,
				"y": -3.3561486938,
				"z": -3.6165302973,
				"element": "H" 
			},
			{
				"x": -3.2538071631,
				"y": -2.3262050007,
				"z": -1.7139878278,
				"element": "H" 
			},
			{
				"x": -3.0083650319,
				"y": -0.5792441375,
				"z": -1.6887178195,
				"element": "H" 
			},
			{
				"x": -0.8206910577,
				"y": -2.7404119029,
				"z": -1.6909375903,
				"element": "H" 
			},
			{
				"x": -1.2518763214,
				"y": -1.6109173768,
				"z": -0.4017894259,
				"element": "H" 
			},
			{
				"x": 0.102535065,
				"y": 1.6924276108,
				"z": -2.4947816466,
				"element": "H" 
			},
			{
				"x": -1.5425230954,
				"y": 1.050060176,
				"z": -2.6387561871,
				"element": "H" 
			},
			{
				"x": 0.8241389474,
				"y": 2.3624003681,
				"z": -0.5095003772,
				"element": "H" 
			},
			{
				"x": -1.8923579818,
				"y": 1.849949033,
				"z": 1.9684827126,
				"element": "H" 
			},
			{
				"x": -1.7095643269,
				"y": 2.7185620205,
				"z": 4.2872954465,
				"element": "H" 
			},
			{
				"x": 2.1638644453,
				"y": 4.3453969511,
				"z": 3.3862058743,
				"element": "H" 
			},
			{
				"x": 1.9863865664,
				"y": 3.4843938,
				"z": 1.0791538747,
				"element": "H" 
			}
		],
		 "valence_orbital": [ 
			{
				"type": "occ",
				"energy": -0.27654,
				"method": "rhf"
			},
			{
				"type": "occ",
				"energy": -0.27336,
				"method": "rhf"
			},
			{
				"type": "occ",
				"energy": -0.26947,
				"method": "rhf"
			},
			{
				"type": "occ",
				"energy": -0.24006,
				"method": "rhf"
			},
			{
				"type": "occ",
				"energy": -0.22692,
				"method": "rhf"
			},
			{
				"type": "unocc",
				"energy": -0.0354,
				"method": "rhf"
			},
			{
				"type": "unocc",
				"energy": -0.0196,
				"method": "rhf"
			},
			{
				"type": "unocc",
				"energy": -0.00026,
				"method": "rhf"
			},
			{
				"type": "unocc",
				"energy": 0.00567,
				"method": "rhf"
			},
			{
				"type": "unocc",
				"energy": 0.01099,
				"method": "rhf"
			}
		],
		"cosmo_sigma_profile": { 
			"-0.025": 0.0,
			"-0.024": 0.0,
			"-0.023": 0.0,
			"-0.022": 0.0,
			"-0.021": 0.0,
			"-0.02": 0.0,
			"-0.019": 0.605390620627,
			"-0.018": 1.0993896033,
			"-0.017": 1.4496675208,
			"-0.016": 2.68420080029,
			"-0.015": 2.38691534029,
			"-0.014": 2.39289518911,
			"-0.013": 2.93415246285,
			"-0.012": 3.12973214552,
			"-0.011": 3.0119087753,
			"-0.01": 2.78356541273,
			"-0.009": 3.77918882854,
			"-0.008": 6.39797119697,
			"-0.007": 9.91900787219,
			"-0.006": 12.0319087227,
			"-0.005": 14.3149695222,
			"-0.004": 15.6786504057,
			"-0.003": 16.9602710407,
			"-0.002": 13.5699447221,
			"-0.001": 14.5653450097,
			"0.0": 14.3478829053,
			"0.001": 19.1603717343,
			"0.002": 23.2418545716,
			"0.003": 28.3492098146,
			"0.004": 22.6167438266,
			"0.005": 16.1464497038,
			"0.006": 7.89444014863,
			"0.007": 6.2607456746,
			"0.008": 6.89876497577,
			"0.009": 6.66546541325,
			"0.01": 6.18495687745,
			"0.011": 7.30488748868,
			"0.012": 5.16001768792,
			"0.013": 1.50841571035,
			"0.014": 0.0176399675578,
			"0.015": 0.0,
			"0.016": 0.0,
			"0.017": 0.0,
			"0.018": 0.0,
			"0.019": 0.0,
			"0.02": 0.0,
			"0.021": 0.0,
			"0.022": 0.0,
			"0.023": 0.0,
			"0.024": 0.0,
			"0.025": 0.0
		}
	}
}
