{
	 "smiles": "NC1=CC2=C(C=C1)N(CCN1CCOCC1)C=C2", 
	 "Tm": 376.15, 
	 "num_atms": 37, 
	 "gaussian": { 
		 "optdone": 1, 
		 "sigma_profile": "yes", 
		 "theory": "DFT", 
		 "functional": "B3LYP", 
		 "basiset": "6-31G**", 
		 "properties": { 
			 "R2extent": 6280.4005, 
			 "electric_dipole_moment_norm": 3.31138693903, 
			 "electric_quadrupole_moment_norm": 15.340622828, 
			 "total_energy": -784.386670514, 
			 "HOMO_LUMO_gap": 0.17707, 
			 "cosmo_polarized_energy": -15.8, 
			 "cosmo_cavitation_energy": 38.25, 
			 "cosmo_dispersion_energy": -26.9, 
			 "cosmo_repulsion_energy": 2.07, 
			 "cosmo_total_nonelectrostatic_energy": 13.42, 
			 "SMD_solvation_energy": 5.32 
		},
		"coords": [
			{
				"x": -0.8278434699,
				"y": 3.9847986967,
				"z": 4.580465644,
				"element": "N" 
			},
			{
				"x": -0.9337797036,
				"y": 2.9506438798,
				"z": 3.6281760169,
				"element": "C" 
			},
			{
				"x": -0.3962295758,
				"y": 1.6876044805,
				"z": 3.8783259349,
				"element": "C" 
			},
			{
				"x": -0.5728628873,
				"y": 0.6579863383,
				"z": 2.938294665,
				"element": "C" 
			},
			{
				"x": -1.3003454579,
				"y": 0.9191151395,
				"z": 1.7440467417,
				"element": "C" 
			},
			{
				"x": -1.8379682493,
				"y": 2.1833022567,
				"z": 1.4834908811,
				"element": "C" 
			},
			{
				"x": -1.6506790143,
				"y": 3.1845700487,
				"z": 2.4283598149,
				"element": "C" 
			},
			{
				"x": -1.341186261,
				"y": -0.2576034915,
				"z": 1.003176961,
				"element": "N" 
			},
			{
				"x": -1.8891253015,
				"y": -0.4006381244,
				"z": -0.3312430944,
				"element": "C" 
			},
			{
				"x": -0.8525089395,
				"y": -0.170683358,
				"z": -1.4467697141,
				"element": "C" 
			},
			{
				"x": 0.1268850684,
				"y": -1.2428439172,
				"z": -1.516620521,
				"element": "N" 
			},
			{
				"x": 1.457706372,
				"y": -0.8638256578,
				"z": -1.9706794942,
				"element": "C" 
			},
			{
				"x": 2.445400133,
				"y": -1.9800818313,
				"z": -1.5874455589,
				"element": "C" 
			},
			{
				"x": 1.8732036909,
				"y": -3.2831482917,
				"z": -1.7080923754,
				"element": "O" 
			},
			{
				"x": 0.8227741906,
				"y": -3.3211838481,
				"z": -2.6535218419,
				"element": "C" 
			},
			{
				"x": -0.3609886838,
				"y": -2.4480273752,
				"z": -2.1970963153,
				"element": "C" 
			},
			{
				"x": -0.6380039846,
				"y": -1.2256828095,
				"z": 1.6957034624,
				"element": "C" 
			},
			{
				"x": -0.162938182,
				"y": -0.7160479062,
				"z": 2.8773432551,
				"element": "C" 
			},
			{
				"x": -0.0444320141,
				"y": 3.8729786538,
				"z": 5.211531449,
				"element": "H" 
			},
			{
				"x": -0.8187046468,
				"y": 4.9114853469,
				"z": 4.1733841367,
				"element": "H" 
			},
			{
				"x": 0.1535561283,
				"y": 1.5025643692,
				"z": 4.7984576048,
				"element": "H" 
			},
			{
				"x": -2.3886146778,
				"y": 2.394954102,
				"z": 0.5713321219,
				"element": "H" 
			},
			{
				"x": -2.0691435364,
				"y": 4.1721696077,
				"z": 2.250893497,
				"element": "H" 
			},
			{
				"x": -2.3291174089,
				"y": -1.3991776958,
				"z": -0.4228210102,
				"element": "H" 
			},
			{
				"x": -2.7100291772,
				"y": 0.3145826325,
				"z": -0.4443357383,
				"element": "H" 
			},
			{
				"x": -0.331889652,
				"y": 0.768627842,
				"z": -1.2338721308,
				"element": "H" 
			},
			{
				"x": -1.3909232777,
				"y": -0.0344841609,
				"z": -2.4058234123,
				"element": "H" 
			},
			{
				"x": 1.5001575444,
				"y": -0.6609826869,
				"z": -3.058373207,
				"element": "H" 
			},
			{
				"x": 1.7585988337,
				"y": 0.06057841,
				"z": -1.468137557,
				"element": "H" 
			},
			{
				"x": 2.7360836194,
				"y": -1.8760585145,
				"z": -0.5375263524,
				"element": "H" 
			},
			{
				"x": 3.3518685459,
				"y": -1.9032007104,
				"z": -2.2091139477,
				"element": "H" 
			},
			{
				"x": 0.5120611318,
				"y": -4.3659221087,
				"z": -2.7414236824,
				"element": "H" 
			},
			{
				"x": 1.1757724188,
				"y": -3.0002560597,
				"z": -3.6467993166,
				"element": "H" 
			},
			{
				"x": -0.999144536,
				"y": -3.0187646542,
				"z": -1.5108899128,
				"element": "H" 
			},
			{
				"x": -0.9790844416,
				"y": -2.1996612271,
				"z": -3.0826225446,
				"element": "H" 
			},
			{
				"x": -0.5247353861,
				"y": -2.2123641596,
				"z": 1.270887856,
				"element": "H" 
			},
			{
				"x": 0.4044107879,
				"y": -1.2599232154,
				"z": 3.6193376849,
				"element": "H" 
			}
		],
		 "valence_orbital": [ 
			{
				"type": "occ",
				"energy": -0.25438,
				"method": "rhf"
			},
			{
				"type": "occ",
				"energy": -0.24914,
				"method": "rhf"
			},
			{
				"type": "occ",
				"energy": -0.21616,
				"method": "rhf"
			},
			{
				"type": "occ",
				"energy": -0.18821,
				"method": "rhf"
			},
			{
				"type": "occ",
				"energy": -0.1728,
				"method": "rhf"
			},
			{
				"type": "unocc",
				"energy": 0.00427,
				"method": "rhf"
			},
			{
				"type": "unocc",
				"energy": 0.04952,
				"method": "rhf"
			},
			{
				"type": "unocc",
				"energy": 0.07183,
				"method": "rhf"
			},
			{
				"type": "unocc",
				"energy": 0.07946,
				"method": "rhf"
			},
			{
				"type": "unocc",
				"energy": 0.09299,
				"method": "rhf"
			}
		],
		"cosmo_sigma_profile": { 
			"-0.025": 0.0,
			"-0.024": 0.0,
			"-0.023": 0.0,
			"-0.022": 0.0,
			"-0.021": 0.0,
			"-0.02": 0.0,
			"-0.019": 0.0,
			"-0.018": 0.0,
			"-0.017": 0.0,
			"-0.016": 0.0,
			"-0.015": 0.0,
			"-0.014": 0.0,
			"-0.013": 0.0,
			"-0.012": 0.30082656997,
			"-0.011": 2.35214062628,
			"-0.01": 2.57769036199,
			"-0.009": 3.05631908472,
			"-0.008": 3.39101063054,
			"-0.007": 3.51300542951,
			"-0.006": 8.53876627479,
			"-0.005": 21.3448997884,
			"-0.004": 29.3418033597,
			"-0.003": 44.321242141,
			"-0.002": 37.7507795424,
			"-0.001": 23.6016949151,
			"0.0": 13.4958463104,
			"0.001": 9.49992546803,
			"0.002": 8.71896269517,
			"0.003": 8.43577061201,
			"0.004": 9.03052021068,
			"0.005": 10.1568967805,
			"0.006": 13.2213495661,
			"0.007": 16.5820599404,
			"0.008": 14.3036370178,
			"0.009": 3.61110266725,
			"0.01": 2.12331353066,
			"0.011": 2.3937102608,
			"0.012": 2.06500492454,
			"0.013": 2.92882016243,
			"0.014": 1.70876767738,
			"0.015": 0.127658244134,
			"0.016": 1.06953614614,
			"0.017": 0.115527553196,
			"0.018": 0.0,
			"0.019": 0.0,
			"0.02": 0.0,
			"0.021": 0.0,
			"0.022": 0.0,
			"0.023": 0.0,
			"0.024": 0.0,
			"0.025": 0.0
		}
	}
}
