{
	 "smiles": "CC1=CC(C)=C(NC(=O)C2CSCN2)C=C1", 
	 "Tm": 363.15, 
	 "num_atms": 32, 
	 "gaussian": { 
		 "optdone": 1, 
		 "sigma_profile": "yes", 
		 "theory": "DFT", 
		 "functional": "B3LYP", 
		 "basiset": "6-31G**", 
		 "properties": { 
			 "R2extent": 5911.645, 
			 "electric_dipole_moment_norm": 4.15537917764, 
			 "electric_quadrupole_moment_norm": 11.8314125103, 
			 "total_energy": -1049.85641121, 
			 "HOMO_LUMO_gap": 0.19413, 
			 "cosmo_polarized_energy": -13.21, 
			 "cosmo_cavitation_energy": 35.67, 
			 "cosmo_dispersion_energy": -25.71, 
			 "cosmo_repulsion_energy": 1.98, 
			 "cosmo_total_nonelectrostatic_energy": 11.93, 
			 "SMD_solvation_energy": 4.47 
		},
		"coords": [
			{
				"x": 2.0456237778,
				"y": 3.5584701185,
				"z": 0.3857102382,
				"element": "C" 
			},
			{
				"x": 1.3629187651,
				"y": 2.2325311028,
				"z": 0.6250643452,
				"element": "C" 
			},
			{
				"x": 2.0187240486,
				"y": 1.0255693463,
				"z": 0.3529314417,
				"element": "C" 
			},
			{
				"x": 1.4060292711,
				"y": -0.2196139989,
				"z": 0.5223287238,
				"element": "C" 
			},
			{
				"x": 2.1461387068,
				"y": -1.4968574201,
				"z": 0.2070388386,
				"element": "C" 
			},
			{
				"x": 0.0809592246,
				"y": -0.2485652629,
				"z": 1.0009597909,
				"element": "C" 
			},
			{
				"x": -0.5411951082,
				"y": -1.5099903251,
				"z": 1.2158252608,
				"element": "N" 
			},
			{
				"x": -1.8388336953,
				"y": -1.9068735487,
				"z": 1.0106966242,
				"element": "C" 
			},
			{
				"x": -2.2590817709,
				"y": -2.9560431644,
				"z": 1.4867773527,
				"element": "O" 
			},
			{
				"x": -2.7520790071,
				"y": -1.0339850178,
				"z": 0.1442272235,
				"element": "C" 
			},
			{
				"x": -3.4546468602,
				"y": -1.8761672882,
				"z": -0.9529597737,
				"element": "C" 
			},
			{
				"x": -5.0185098368,
				"y": -0.9831323546,
				"z": -1.3389935299,
				"element": "S" 
			},
			{
				"x": -4.793143092,
				"y": 0.135945324,
				"z": 0.1686329132,
				"element": "C" 
			},
			{
				"x": -3.7783694245,
				"y": -0.4457387446,
				"z": 1.0127508598,
				"element": "N" 
			},
			{
				"x": -0.5820850843,
				"y": 0.9455089235,
				"z": 1.3092861601,
				"element": "C" 
			},
			{
				"x": 0.0501414559,
				"y": 2.1701337069,
				"z": 1.1058283829,
				"element": "C" 
			},
			{
				"x": 1.86450385,
				"y": 3.9199102193,
				"z": -0.6344740535,
				"element": "H" 
			},
			{
				"x": 1.6770478701,
				"y": 4.3270987785,
				"z": 1.0716887599,
				"element": "H" 
			},
			{
				"x": 3.1293969509,
				"y": 3.4811352132,
				"z": 0.514584643,
				"element": "H" 
			},
			{
				"x": 3.0425638703,
				"y": 1.0523619428,
				"z": -0.01413255,
				"element": "H" 
			},
			{
				"x": 1.5569906735,
				"y": -2.1510733986,
				"z": -0.4445634001,
				"element": "H" 
			},
			{
				"x": 2.3768091527,
				"y": -2.0732344654,
				"z": 1.1132932461,
				"element": "H" 
			},
			{
				"x": 3.0960304215,
				"y": -1.2843804067,
				"z": -0.2894563796,
				"element": "H" 
			},
			{
				"x": -0.0123015168,
				"y": -2.2070849606,
				"z": 1.728509747,
				"element": "H" 
			},
			{
				"x": -2.1974088184,
				"y": -0.2197323917,
				"z": -0.3287995462,
				"element": "H" 
			},
			{
				"x": -3.6751689874,
				"y": -2.874748387,
				"z": -0.572005871,
				"element": "H" 
			},
			{
				"x": -2.8430919675,
				"y": -1.9552299302,
				"z": -1.8549663164,
				"element": "H" 
			},
			{
				"x": -4.4754586599,
				"y": 1.1175085136,
				"z": -0.1911022807,
				"element": "H" 
			},
			{
				"x": -5.7408710741,
				"y": 0.2332001297,
				"z": 0.7002578437,
				"element": "H" 
			},
			{
				"x": -4.1770426029,
				"y": -1.2052754856,
				"z": 1.5642339721,
				"element": "H" 
			},
			{
				"x": -1.5892583495,
				"y": 0.9066280714,
				"z": 1.7141028577,
				"element": "H" 
			},
			{
				"x": -0.480732183,
				"y": 3.0880251604,
				"z": 1.344924476,
				"element": "H" 
			}
		],
		 "valence_orbital": [ 
			{
				"type": "occ",
				"energy": -0.26274,
				"method": "rhf"
			},
			{
				"type": "occ",
				"energy": -0.25275,
				"method": "rhf"
			},
			{
				"type": "occ",
				"energy": -0.24878,
				"method": "rhf"
			},
			{
				"type": "occ",
				"energy": -0.22784,
				"method": "rhf"
			},
			{
				"type": "occ",
				"energy": -0.21406,
				"method": "rhf"
			},
			{
				"type": "unocc",
				"energy": -0.01993,
				"method": "rhf"
			},
			{
				"type": "unocc",
				"energy": -0.00895,
				"method": "rhf"
			},
			{
				"type": "unocc",
				"energy": 0.01333,
				"method": "rhf"
			},
			{
				"type": "unocc",
				"energy": 0.03785,
				"method": "rhf"
			},
			{
				"type": "unocc",
				"energy": 0.06684,
				"method": "rhf"
			}
		],
		"cosmo_sigma_profile": { 
			"-0.025": 0.0,
			"-0.024": 0.0,
			"-0.023": 0.0,
			"-0.022": 0.0,
			"-0.021": 0.0,
			"-0.02": 0.0,
			"-0.019": 0.0,
			"-0.018": 0.0,
			"-0.017": 0.0,
			"-0.016": 0.0,
			"-0.015": 0.0,
			"-0.014": 0.0921414999353,
			"-0.013": 1.07914520149,
			"-0.012": 1.13667142805,
			"-0.011": 1.64565931626,
			"-0.01": 2.32282130402,
			"-0.009": 1.84886720218,
			"-0.008": 2.65796076826,
			"-0.007": 4.27577234421,
			"-0.006": 7.44996912844,
			"-0.005": 18.9307918021,
			"-0.004": 26.9102754564,
			"-0.003": 26.2116682682,
			"-0.002": 26.5602265599,
			"-0.001": 27.5195628863,
			"0.0": 29.1595954677,
			"0.001": 17.6992084026,
			"0.002": 12.4982732722,
			"0.003": 12.0749802206,
			"0.004": 10.93393898,
			"0.005": 13.622754557,
			"0.006": 9.01186817325,
			"0.007": 3.9979241266,
			"0.008": 4.28556838381,
			"0.009": 4.02561341806,
			"0.01": 3.92454182051,
			"0.011": 4.09823521349,
			"0.012": 3.52720265665,
			"0.013": 4.59508964387,
			"0.014": 0.885598243025,
			"0.015": 0.0,
			"0.016": 0.0,
			"0.017": 0.0,
			"0.018": 0.0,
			"0.019": 0.0,
			"0.02": 0.0,
			"0.021": 0.0,
			"0.022": 0.0,
			"0.023": 0.0,
			"0.024": 0.0,
			"0.025": 0.0
		}
	}
}
