{
	 "smiles": "SC1=NC2=C(N1)C(Cl)=CC(Cl)=C2", 
	 "Tm": 650.15, 
	 "num_atms": 16, 
	 "gaussian": { 
		 "optdone": 1, 
		 "sigma_profile": "yes", 
		 "theory": "DFT", 
		 "functional": "B3LYP", 
		 "basiset": "6-31G**", 
		 "properties": { 
			 "R2extent": 3763.7356, 
			 "electric_dipole_moment_norm": 2.85755056123, 
			 "electric_quadrupole_moment_norm": 5.34900304917, 
			 "total_energy": -1697.23592306, 
			 "HOMO_LUMO_gap": 0.1951, 
			 "cosmo_polarized_energy": -10.77, 
			 "cosmo_cavitation_energy": 26.33, 
			 "cosmo_dispersion_energy": -20.47, 
			 "cosmo_repulsion_energy": 1.59, 
			 "cosmo_total_nonelectrostatic_energy": 7.45, 
			 "SMD_solvation_energy": 1.2 
		},
		"coords": [
			{
				"x": 2.2445276443,
				"y": -0.7918468799,
				"z": 3.950012677,
				"element": "S" 
			},
			{
				"x": 1.5655331165,
				"y": -0.6012060811,
				"z": 2.3317356844,
				"element": "C" 
			},
			{
				"x": 1.1910451363,
				"y": -1.5724804436,
				"z": 1.5367617776,
				"element": "N" 
			},
			{
				"x": 0.7303936924,
				"y": -0.9350092164,
				"z": 0.3928803791,
				"element": "C" 
			},
			{
				"x": 0.846292561,
				"y": 0.467966037,
				"z": 0.5391160052,
				"element": "C" 
			},
			{
				"x": 1.3868221496,
				"y": 0.6565032761,
				"z": 1.7965572994,
				"element": "N" 
			},
			{
				"x": 0.451655453,
				"y": 1.3396395441,
				"z": -0.4702779527,
				"element": "C" 
			},
			{
				"x": 0.6113916666,
				"y": 3.0725057227,
				"z": -0.2505804796,
				"element": "Cl" 
			},
			{
				"x": -0.0671332497,
				"y": 0.8050006306,
				"z": -1.6450219431,
				"element": "C" 
			},
			{
				"x": -0.1776222559,
				"y": -0.5910376424,
				"z": -1.7791706776,
				"element": "C" 
			},
			{
				"x": -0.8392514462,
				"y": -1.2223572964,
				"z": -3.2820905694,
				"element": "Cl" 
			},
			{
				"x": 0.2098217663,
				"y": -1.4825429535,
				"z": -0.7849762202,
				"element": "C" 
			},
			{
				"x": 2.1733129029,
				"y": -2.1347691512,
				"z": 3.9040637773,
				"element": "H" 
			},
			{
				"x": 1.6030094559,
				"y": 1.5433249269,
				"z": 2.2260676535,
				"element": "H" 
			},
			{
				"x": -0.3829851385,
				"y": 1.4578966536,
				"z": -2.4488116075,
				"element": "H" 
			},
			{
				"x": 0.1149865455,
				"y": -2.5537871266,
				"z": -0.9116658034,
				"element": "H" 
			}
		],
		 "valence_orbital": [ 
			{
				"type": "occ",
				"energy": -0.31522,
				"method": "rhf"
			},
			{
				"type": "occ",
				"energy": -0.29601,
				"method": "rhf"
			},
			{
				"type": "occ",
				"energy": -0.28997,
				"method": "rhf"
			},
			{
				"type": "occ",
				"energy": -0.23996,
				"method": "rhf"
			},
			{
				"type": "occ",
				"energy": -0.23268,
				"method": "rhf"
			},
			{
				"type": "unocc",
				"energy": -0.03758,
				"method": "rhf"
			},
			{
				"type": "unocc",
				"energy": -0.0107,
				"method": "rhf"
			},
			{
				"type": "unocc",
				"energy": -0.00494,
				"method": "rhf"
			},
			{
				"type": "unocc",
				"energy": 0.00198,
				"method": "rhf"
			},
			{
				"type": "unocc",
				"energy": 0.03252,
				"method": "rhf"
			}
		],
		"cosmo_sigma_profile": { 
			"-0.025": 0.0,
			"-0.024": 0.0,
			"-0.023": 0.0,
			"-0.022": 0.0,
			"-0.021": 0.0,
			"-0.02": 0.0,
			"-0.019": 0.0,
			"-0.018": 0.212917316517,
			"-0.017": 1.02634131627,
			"-0.016": 1.22119003257,
			"-0.015": 0.982857694233,
			"-0.014": 1.18832616251,
			"-0.013": 1.456653423,
			"-0.012": 2.23539838575,
			"-0.011": 2.46655713301,
			"-0.01": 2.36060711533,
			"-0.009": 2.46737294958,
			"-0.008": 4.73372835833,
			"-0.007": 4.63157026569,
			"-0.006": 5.58778292044,
			"-0.005": 6.14657570609,
			"-0.004": 6.12022353467,
			"-0.003": 7.79964688842,
			"-0.002": 10.8112130266,
			"-0.001": 16.866982857,
			"0.0": 20.3740655272,
			"0.001": 25.9817265878,
			"0.002": 29.3170874716,
			"0.003": 21.4521734387,
			"0.004": 20.0715245953,
			"0.005": 10.9095675591,
			"0.006": 3.75835550967,
			"0.007": 1.60799512675,
			"0.008": 1.10462169572,
			"0.009": 0.844049833693,
			"0.01": 1.21734225111,
			"0.011": 1.36709011537,
			"0.012": 0.567362178752,
			"0.013": 0.828882039696,
			"0.014": 1.09656509575,
			"0.015": 0.614813550841,
			"0.016": 0.159363116864,
			"0.017": 0.0,
			"0.018": 0.0,
			"0.019": 0.0,
			"0.02": 0.0,
			"0.021": 0.0,
			"0.022": 0.0,
			"0.023": 0.0,
			"0.024": 0.0,
			"0.025": 0.0
		}
	}
}
