{
	 "smiles": "N#CC1=CC2=CC=CC=C2C1", 
	 "Tm": 313.15, 
	 "num_atms": 18, 
	 "gaussian": { 
		 "optdone": 1, 
		 "sigma_profile": "yes", 
		 "theory": "DFT", 
		 "functional": "B3LYP", 
		 "basiset": "6-31G**", 
		 "properties": { 
			 "R2extent": 2272.914, 
			 "electric_dipole_moment_norm": 4.61408632451, 
			 "electric_quadrupole_moment_norm": 22.0690672028, 
			 "total_energy": -440.011296128, 
			 "HOMO_LUMO_gap": 0.16863, 
			 "cosmo_polarized_energy": -9.4, 
			 "cosmo_cavitation_energy": 23.07, 
			 "cosmo_dispersion_energy": -16.6, 
			 "cosmo_repulsion_energy": 1.33, 
			 "cosmo_total_nonelectrostatic_energy": 7.81, 
			 "SMD_solvation_energy": 5.03 
		},
		"coords": [
			{
				"x": 4.3541850709,
				"y": 2.6104222564,
				"z": 1.0592918362,
				"element": "N" 
			},
			{
				"x": 3.3205220371,
				"y": 2.0720731448,
				"z": 1.0559474463,
				"element": "C" 
			},
			{
				"x": 2.0667545319,
				"y": 1.4082113916,
				"z": 1.0191166452,
				"element": "C" 
			},
			{
				"x": 1.1875599313,
				"y": 1.2955023039,
				"z": 2.048669765,
				"element": "C" 
			},
			{
				"x": 0.0180391284,
				"y": 0.5427485124,
				"z": 1.6150260679,
				"element": "C" 
			},
			{
				"x": -1.1394050006,
				"y": 0.1723884366,
				"z": 2.3063267017,
				"element": "C" 
			},
			{
				"x": -2.1135814443,
				"y": -0.5609073001,
				"z": 1.6270694106,
				"element": "C" 
			},
			{
				"x": -1.9349862236,
				"y": -0.9168786882,
				"z": 0.2846351917,
				"element": "C" 
			},
			{
				"x": -0.7762379848,
				"y": -0.5467859823,
				"z": -0.4094624411,
				"element": "C" 
			},
			{
				"x": 0.1975170698,
				"y": 0.1830638208,
				"z": 0.2601525881,
				"element": "C" 
			},
			{
				"x": 1.5271038908,
				"y": 0.7133515343,
				"z": -0.2204324699,
				"element": "C" 
			},
			{
				"x": 1.3325250734,
				"y": 1.7031449825,
				"z": 3.0425956739,
				"element": "H" 
			},
			{
				"x": -1.2786505402,
				"y": 0.4481601291,
				"z": 3.3477084713,
				"element": "H" 
			},
			{
				"x": -3.020629939,
				"y": -0.8593277103,
				"z": 2.1443785124,
				"element": "H" 
			},
			{
				"x": -2.7055076972,
				"y": -1.4877192069,
				"z": -0.2251863873,
				"element": "H" 
			},
			{
				"x": -0.6478636072,
				"y": -0.8283089327,
				"z": -1.4511568168,
				"element": "H" 
			},
			{
				"x": 2.2017885746,
				"y": -0.0835236275,
				"z": -0.5596001813,
				"element": "H" 
			},
			{
				"x": 1.4239671288,
				"y": 1.4131849358,
				"z": -1.059980014,
				"element": "H" 
			}
		],
		 "valence_orbital": [ 
			{
				"type": "occ",
				"energy": -0.34906,
				"method": "rhf"
			},
			{
				"type": "occ",
				"energy": -0.32303,
				"method": "rhf"
			},
			{
				"type": "occ",
				"energy": -0.30572,
				"method": "rhf"
			},
			{
				"type": "occ",
				"energy": -0.26117,
				"method": "rhf"
			},
			{
				"type": "occ",
				"energy": -0.2341,
				"method": "rhf"
			},
			{
				"type": "unocc",
				"energy": -0.06547,
				"method": "rhf"
			},
			{
				"type": "unocc",
				"energy": -0.01674,
				"method": "rhf"
			},
			{
				"type": "unocc",
				"energy": 0.02026,
				"method": "rhf"
			},
			{
				"type": "unocc",
				"energy": 0.03249,
				"method": "rhf"
			},
			{
				"type": "unocc",
				"energy": 0.08817,
				"method": "rhf"
			}
		],
		"cosmo_sigma_profile": { 
			"-0.025": 0.0,
			"-0.024": 0.0,
			"-0.023": 0.0,
			"-0.022": 0.0,
			"-0.021": 0.0,
			"-0.02": 0.0,
			"-0.019": 0.0,
			"-0.018": 0.0,
			"-0.017": 0.0,
			"-0.016": 0.0,
			"-0.015": 0.0,
			"-0.014": 0.0,
			"-0.013": 0.0,
			"-0.012": 0.0,
			"-0.011": 0.0,
			"-0.01": 0.0,
			"-0.009": 0.522520158127,
			"-0.008": 2.24145950762,
			"-0.007": 6.3347468085,
			"-0.006": 15.1189184557,
			"-0.005": 15.9533250549,
			"-0.004": 18.8788128903,
			"-0.003": 13.1975625994,
			"-0.002": 10.7909029993,
			"-0.001": 11.2559718068,
			"0.0": 13.470839354,
			"0.001": 12.4725681264,
			"0.002": 10.8804474197,
			"0.003": 9.69492661337,
			"0.004": 12.5650811462,
			"0.005": 9.26981154984,
			"0.006": 3.01733173687,
			"0.007": 2.91899927738,
			"0.008": 3.24585943234,
			"0.009": 3.39414895019,
			"0.01": 3.56181504107,
			"0.011": 2.5991446333,
			"0.012": 2.84982203766,
			"0.013": 2.03094469826,
			"0.014": 0.322621651895,
			"0.015": 0.0,
			"0.016": 0.0,
			"0.017": 0.0,
			"0.018": 0.0,
			"0.019": 0.0,
			"0.02": 0.0,
			"0.021": 0.0,
			"0.022": 0.0,
			"0.023": 0.0,
			"0.024": 0.0,
			"0.025": 0.0
		}
	}
}
