{
	 "smiles": "ClCC1=CC(=O)N2C=CSC2=N1", 
	 "Tm": 454.15, 
	 "num_atms": 17, 
	 "gaussian": { 
		 "optdone": 1, 
		 "sigma_profile": "yes", 
		 "theory": "DFT", 
		 "functional": "B3LYP", 
		 "basiset": "6-31G**", 
		 "properties": { 
			 "R2extent": 3883.4617, 
			 "electric_dipole_moment_norm": 3.33112762439, 
			 "electric_quadrupole_moment_norm": 16.1723590388, 
			 "total_energy": -1312.86168064, 
			 "HOMO_LUMO_gap": 0.16361, 
			 "cosmo_polarized_energy": -12.74, 
			 "cosmo_cavitation_energy": 25.27, 
			 "cosmo_dispersion_energy": -19.4, 
			 "cosmo_repulsion_energy": 1.49, 
			 "cosmo_total_nonelectrostatic_energy": 7.37, 
			 "SMD_solvation_energy": 3.56 
		},
		"coords": [
			{
				"x": -0.6282828619,
				"y": 0.0732219232,
				"z": 4.4659775648,
				"element": "Cl" 
			},
			{
				"x": -0.7038497496,
				"y": -1.5079361126,
				"z": 3.5614602961,
				"element": "C" 
			},
			{
				"x": -1.1850033668,
				"y": -1.3089956247,
				"z": 2.1513971534,
				"element": "C" 
			},
			{
				"x": -2.4912039229,
				"y": -1.5692446799,
				"z": 1.8083272634,
				"element": "C" 
			},
			{
				"x": -2.9729873462,
				"y": -1.3824192814,
				"z": 0.4651719608,
				"element": "C" 
			},
			{
				"x": -4.0908748189,
				"y": -1.5708171648,
				"z": 0.0103025193,
				"element": "O" 
			},
			{
				"x": -1.9251816273,
				"y": -0.903684164,
				"z": -0.4042537916,
				"element": "N" 
			},
			{
				"x": -2.1172230115,
				"y": -0.6365047647,
				"z": -1.7578424279,
				"element": "C" 
			},
			{
				"x": -0.9984702582,
				"y": -0.2074065483,
				"z": -2.3713496695,
				"element": "C" 
			},
			{
				"x": 0.3680697017,
				"y": -0.114317614,
				"z": -1.2713014229,
				"element": "S" 
			},
			{
				"x": -0.6456404249,
				"y": -0.6821488478,
				"z": 0.0517362662,
				"element": "C" 
			},
			{
				"x": -0.2338119853,
				"y": -0.8660861106,
				"z": 1.2730766034,
				"element": "N" 
			},
			{
				"x": -1.369605194,
				"y": -2.1566775333,
				"z": 4.1291772995,
				"element": "H" 
			},
			{
				"x": 0.3108622079,
				"y": -1.9049859787,
				"z": 3.5634323347,
				"element": "H" 
			},
			{
				"x": -3.2106461948,
				"y": -1.9179147072,
				"z": 2.5389416164,
				"element": "H" 
			},
			{
				"x": -3.1050377208,
				"y": -0.7937285111,
				"z": -2.1651301596,
				"element": "H" 
			},
			{
				"x": -0.8863134266,
				"y": 0.06504572,
				"z": -3.4102234067,
				"element": "H" 
			}
		],
		 "valence_orbital": [ 
			{
				"type": "occ",
				"energy": -0.2989,
				"method": "rhf"
			},
			{
				"type": "occ",
				"energy": -0.29603,
				"method": "rhf"
			},
			{
				"type": "occ",
				"energy": -0.28166,
				"method": "rhf"
			},
			{
				"type": "occ",
				"energy": -0.27444,
				"method": "rhf"
			},
			{
				"type": "occ",
				"energy": -0.23205,
				"method": "rhf"
			},
			{
				"type": "unocc",
				"energy": -0.06844,
				"method": "rhf"
			},
			{
				"type": "unocc",
				"energy": -0.01852,
				"method": "rhf"
			},
			{
				"type": "unocc",
				"energy": -0.01229,
				"method": "rhf"
			},
			{
				"type": "unocc",
				"energy": -0.00887,
				"method": "rhf"
			},
			{
				"type": "unocc",
				"energy": 0.03702,
				"method": "rhf"
			}
		],
		"cosmo_sigma_profile": { 
			"-0.025": 0.0,
			"-0.024": 0.0,
			"-0.023": 0.0,
			"-0.022": 0.0,
			"-0.021": 0.0,
			"-0.02": 0.0,
			"-0.019": 0.0,
			"-0.018": 0.0,
			"-0.017": 0.0,
			"-0.016": 0.0,
			"-0.015": 0.0,
			"-0.014": 0.0,
			"-0.013": 0.0,
			"-0.012": 0.0,
			"-0.011": 1.66914010802,
			"-0.01": 2.96663927444,
			"-0.009": 4.94593015709,
			"-0.008": 9.38702914494,
			"-0.007": 8.48859328096,
			"-0.006": 8.04493871975,
			"-0.005": 11.9670357284,
			"-0.004": 12.5725866338,
			"-0.003": 10.8980327654,
			"-0.002": 12.5126140789,
			"-0.001": 16.8898829988,
			"0.0": 19.2841946382,
			"0.001": 16.3328893974,
			"0.002": 12.5940554873,
			"0.003": 7.24676282365,
			"0.004": 7.12365666031,
			"0.005": 9.40164682059,
			"0.006": 11.3180727618,
			"0.007": 5.58687116572,
			"0.008": 2.2582516845,
			"0.009": 2.22130128759,
			"0.01": 2.34138957308,
			"0.011": 2.86964015567,
			"0.012": 5.41314732411,
			"0.013": 3.40391608018,
			"0.014": 0.690996109225,
			"0.015": 0.0,
			"0.016": 0.0,
			"0.017": 0.0,
			"0.018": 0.0,
			"0.019": 0.0,
			"0.02": 0.0,
			"0.021": 0.0,
			"0.022": 0.0,
			"0.023": 0.0,
			"0.024": 0.0,
			"0.025": 0.0
		}
	}
}
