{
	 "smiles": "FC(Cl)(Cl)Cl", 
	 "Tm": 162.15, 
	 "num_atms": 5, 
	 "gaussian": { 
		 "optdone": 1, 
		 "sigma_profile": "yes", 
		 "theory": "DFT", 
		 "functional": "B3LYP", 
		 "basiset": "6-31G**", 
		 "properties": { 
			 "R2extent": 1819.9886, 
			 "electric_dipole_moment_norm": 0.172797714105, 
			 "electric_quadrupole_moment_norm": 1.27109625521, 
			 "total_energy": -1518.49304041, 
			 "HOMO_LUMO_gap": 0.26056, 
			 "cosmo_polarized_energy": -1.03, 
			 "cosmo_cavitation_energy": 14.97, 
			 "cosmo_dispersion_energy": -11.56, 
			 "cosmo_repulsion_energy": 1.01, 
			 "cosmo_total_nonelectrostatic_energy": 4.42, 
			 "SMD_solvation_energy": 2.12 
		},
		"coords": [
			{
				"x": 2.6361194091,
				"y": -0.5174437368,
				"z": -1.5650579681,
				"element": "F" 
			},
			{
				"x": 1.3121568389,
				"y": -0.540142526,
				"z": -1.7519098148,
				"element": "C" 
			},
			{
				"x": 0.5211520648,
				"y": -0.0591199181,
				"z": -0.2219243854,
				"element": "Cl" 
			},
			{
				"x": 0.9100358535,
				"y": 0.6126013393,
				"z": -3.0586138385,
				"element": "Cl" 
			},
			{
				"x": 0.8384358338,
				"y": -2.2024951584,
				"z": -2.2104939932,
				"element": "Cl" 
			}
		],
		 "valence_orbital": [ 
			{
				"type": "occ",
				"energy": -0.36556,
				"method": "rhf"
			},
			{
				"type": "occ",
				"energy": -0.36556,
				"method": "rhf"
			},
			{
				"type": "occ",
				"energy": -0.33762,
				"method": "rhf"
			},
			{
				"type": "occ",
				"energy": -0.33762,
				"method": "rhf"
			},
			{
				"type": "occ",
				"energy": -0.32436,
				"method": "rhf"
			},
			{
				"type": "unocc",
				"energy": -0.0638,
				"method": "rhf"
			},
			{
				"type": "unocc",
				"energy": -0.00299,
				"method": "rhf"
			},
			{
				"type": "unocc",
				"energy": -0.00298,
				"method": "rhf"
			},
			{
				"type": "unocc",
				"energy": 0.097,
				"method": "rhf"
			},
			{
				"type": "unocc",
				"energy": 0.26988,
				"method": "rhf"
			}
		],
		"cosmo_sigma_profile": { 
			"-0.025": 0.0,
			"-0.024": 0.0,
			"-0.023": 0.0,
			"-0.022": 0.0,
			"-0.021": 0.0,
			"-0.02": 0.0,
			"-0.019": 0.0,
			"-0.018": 0.0,
			"-0.017": 0.0,
			"-0.016": 0.0,
			"-0.015": 0.0,
			"-0.014": 0.0,
			"-0.013": 0.0,
			"-0.012": 0.0,
			"-0.011": 0.0,
			"-0.01": 0.0,
			"-0.009": 0.0,
			"-0.008": 0.0,
			"-0.007": 0.0,
			"-0.006": 0.349267712128,
			"-0.005": 4.04890969188,
			"-0.004": 6.30796632763,
			"-0.003": 9.30873176741,
			"-0.002": 8.99658884207,
			"-0.001": 11.2399023273,
			"0.0": 18.7744922177,
			"0.001": 35.6336723611,
			"0.002": 31.573088341,
			"0.003": 0.987492776857,
			"0.004": 0.0,
			"0.005": 0.0,
			"0.006": 0.0,
			"0.007": 0.0,
			"0.008": 0.0,
			"0.009": 0.0,
			"0.01": 0.0,
			"0.011": 0.0,
			"0.012": 0.0,
			"0.013": 0.0,
			"0.014": 0.0,
			"0.015": 0.0,
			"0.016": 0.0,
			"0.017": 0.0,
			"0.018": 0.0,
			"0.019": 0.0,
			"0.02": 0.0,
			"0.021": 0.0,
			"0.022": 0.0,
			"0.023": 0.0,
			"0.024": 0.0,
			"0.025": 0.0
		}
	}
}
