{
	 "smiles": "NS(=O)(=O)C1=CC(=CS1)C(=O)C1=CC=C(O)C=C1", 
	 "Tm": 465.15, 
	 "num_atms": 27, 
	 "gaussian": { 
		 "optdone": 1, 
		 "sigma_profile": "yes", 
		 "theory": "DFT", 
		 "functional": "B3LYP", 
		 "basiset": "6-31G**", 
		 "properties": { 
			 "R2extent": 8845.5978, 
			 "electric_dipole_moment_norm": 5.22551456892, 
			 "electric_quadrupole_moment_norm": 23.8804244397, 
			 "total_energy": -1576.52368617, 
			 "HOMO_LUMO_gap": 0.16701, 
			 "cosmo_polarized_energy": -24.28, 
			 "cosmo_cavitation_energy": 35.66, 
			 "cosmo_dispersion_energy": -26.61, 
			 "cosmo_repulsion_energy": 1.98, 
			 "cosmo_total_nonelectrostatic_energy": 11.03, 
			 "SMD_solvation_energy": 6.35 
		},
		"coords": [
			{
				"x": -3.6460721511,
				"y": -4.9199707033,
				"z": -0.1576258322,
				"element": "N" 
			},
			{
				"x": -2.7796830896,
				"y": -4.3841702839,
				"z": 1.1922128521,
				"element": "S" 
			},
			{
				"x": -3.6225243406,
				"y": -4.7063664133,
				"z": 2.3433172837,
				"element": "O" 
			},
			{
				"x": -1.3859036408,
				"y": -4.8264047792,
				"z": 1.0995757284,
				"element": "O" 
			},
			{
				"x": -2.7533832108,
				"y": -2.6297216061,
				"z": 0.9563900287,
				"element": "C" 
			},
			{
				"x": -1.6150299053,
				"y": -1.8832220137,
				"z": 0.8066082418,
				"element": "C" 
			},
			{
				"x": -1.8910646593,
				"y": -0.4815959554,
				"z": 0.7100045724,
				"element": "C" 
			},
			{
				"x": -3.2415483333,
				"y": -0.2222592658,
				"z": 0.8103858452,
				"element": "C" 
			},
			{
				"x": -4.1889897821,
				"y": -1.642586474,
				"z": 0.9974276201,
				"element": "S" 
			},
			{
				"x": -0.9184330462,
				"y": 0.6526739988,
				"z": 0.6031891096,
				"element": "C" 
			},
			{
				"x": -1.2629330268,
				"y": 1.7666260833,
				"z": 0.9878110596,
				"element": "O" 
			},
			{
				"x": 0.445161257,
				"y": 0.4298306715,
				"z": 0.0467675099,
				"element": "C" 
			},
			{
				"x": 1.4517656175,
				"y": 1.3520940084,
				"z": 0.3923379316,
				"element": "C" 
			},
			{
				"x": 2.7371954453,
				"y": 1.233632142,
				"z": -0.1095115128,
				"element": "C" 
			},
			{
				"x": 3.041464261,
				"y": 0.1916981401,
				"z": -0.9992219032,
				"element": "C" 
			},
			{
				"x": 4.3168145543,
				"y": 0.1220753162,
				"z": -1.4641498727,
				"element": "O" 
			},
			{
				"x": 2.0466110588,
				"y": -0.7179529868,
				"z": -1.3780016949,
				"element": "C" 
			},
			{
				"x": 0.7624750588,
				"y": -0.5990366191,
				"z": -0.853337361,
				"element": "C" 
			},
			{
				"x": -4.2750148789,
				"y": -5.6630380776,
				"z": 0.1372689176,
				"element": "H" 
			},
			{
				"x": -3.0139112232,
				"y": -5.2368314181,
				"z": -0.8884803389,
				"element": "H" 
			},
			{
				"x": -0.6297687919,
				"y": -2.3297655553,
				"z": 0.8043370119,
				"element": "H" 
			},
			{
				"x": -3.70275021,
				"y": 0.7557453813,
				"z": 0.7883445049,
				"element": "H" 
			},
			{
				"x": 1.1948627082,
				"y": 2.1615294058,
				"z": 1.0672353963,
				"element": "H" 
			},
			{
				"x": 3.5207297418,
				"y": 1.9316138235,
				"z": 0.1656529283,
				"element": "H" 
			},
			{
				"x": 4.4031390953,
				"y": -0.6337544506,
				"z": -2.0601990164,
				"element": "H" 
			},
			{
				"x": 2.2757462483,
				"y": -1.5122090548,
				"z": -2.0850214247,
				"element": "H" 
			},
			{
				"x": -0.0015547562,
				"y": -1.2963333137,
				"z": -1.1793175852,
				"element": "H" 
			}
		],
		 "valence_orbital": [ 
			{
				"type": "occ",
				"energy": -0.27947,
				"method": "rhf"
			},
			{
				"type": "occ",
				"energy": -0.26965,
				"method": "rhf"
			},
			{
				"type": "occ",
				"energy": -0.26468,
				"method": "rhf"
			},
			{
				"type": "occ",
				"energy": -0.25282,
				"method": "rhf"
			},
			{
				"type": "occ",
				"energy": -0.23853,
				"method": "rhf"
			},
			{
				"type": "unocc",
				"energy": -0.07152,
				"method": "rhf"
			},
			{
				"type": "unocc",
				"energy": -0.04492,
				"method": "rhf"
			},
			{
				"type": "unocc",
				"energy": -0.01859,
				"method": "rhf"
			},
			{
				"type": "unocc",
				"energy": 0.00753,
				"method": "rhf"
			},
			{
				"type": "unocc",
				"energy": 0.00894,
				"method": "rhf"
			}
		],
		"cosmo_sigma_profile": { 
			"-0.025": 0.0,
			"-0.024": 0.0,
			"-0.023": 0.0,
			"-0.022": 0.0,
			"-0.021": 0.0,
			"-0.02": 0.0,
			"-0.019": 0.234424487925,
			"-0.018": 1.14702803953,
			"-0.017": 1.06356695917,
			"-0.016": 1.23012485304,
			"-0.015": 2.91800064355,
			"-0.014": 3.62149182788,
			"-0.013": 3.34576910055,
			"-0.012": 4.27845151204,
			"-0.011": 3.14068780767,
			"-0.01": 5.27588225558,
			"-0.009": 4.19909619523,
			"-0.008": 4.00415543811,
			"-0.007": 8.15934880706,
			"-0.006": 12.6693669894,
			"-0.005": 12.009165719,
			"-0.004": 12.2729612916,
			"-0.003": 13.8922684818,
			"-0.002": 16.5229379446,
			"-0.001": 19.1867795722,
			"0.0": 23.194492564,
			"0.001": 19.2557122211,
			"0.002": 18.6212569936,
			"0.003": 20.8398798372,
			"0.004": 11.7241324476,
			"0.005": 6.59103308188,
			"0.006": 6.48001431975,
			"0.007": 6.19585728792,
			"0.008": 7.87074870288,
			"0.009": 7.41029271189,
			"0.01": 14.0226805854,
			"0.011": 11.4138335222,
			"0.012": 4.68615028162,
			"0.013": 0.650174387111,
			"0.014": 0.0,
			"0.015": 0.0,
			"0.016": 0.0,
			"0.017": 0.0,
			"0.018": 0.0,
			"0.019": 0.0,
			"0.02": 0.0,
			"0.021": 0.0,
			"0.022": 0.0,
			"0.023": 0.0,
			"0.024": 0.0,
			"0.025": 0.0
		}
	}
}
