{
	 "smiles": "FC1=CC=C(C=C1)C(=O)C1=CC=C(Cl)C=C1", 
	 "Tm": 389.15, 
	 "num_atms": 24, 
	 "gaussian": { 
		 "optdone": 1, 
		 "sigma_profile": "yes", 
		 "theory": "DFT", 
		 "functional": "B3LYP", 
		 "basiset": "6-31G**", 
		 "properties": { 
			 "R2extent": 6026.9435, 
			 "electric_dipole_moment_norm": 1.73360423684, 
			 "electric_quadrupole_moment_norm": 6.14472124592, 
			 "total_energy": -1135.45837884, 
			 "HOMO_LUMO_gap": 0.17818, 
			 "cosmo_polarized_energy": -8.61, 
			 "cosmo_cavitation_energy": 31.36, 
			 "cosmo_dispersion_energy": -22.73, 
			 "cosmo_repulsion_energy": 1.73, 
			 "cosmo_total_nonelectrostatic_energy": 10.35, 
			 "SMD_solvation_energy": 5.95 
		},
		"coords": [
			{
				"x": -2.3813397929,
				"y": -1.5623648163,
				"z": -3.855579771,
				"element": "F" 
			},
			{
				"x": -1.6121858769,
				"y": -1.5531074645,
				"z": -2.7515122926,
				"element": "C" 
			},
			{
				"x": -1.328736336,
				"y": -2.7613416575,
				"z": -2.1182351259,
				"element": "C" 
			},
			{
				"x": -0.5288324599,
				"y": -2.743412019,
				"z": -0.9821397065,
				"element": "C" 
			},
			{
				"x": -0.0366868917,
				"y": -1.5330022817,
				"z": -0.4635679595,
				"element": "C" 
			},
			{
				"x": -0.3348209336,
				"y": -0.3350061982,
				"z": -1.1332517652,
				"element": "C" 
			},
			{
				"x": -1.1208289374,
				"y": -0.3389754847,
				"z": -2.2844416565,
				"element": "C" 
			},
			{
				"x": 0.8613750524,
				"y": -1.6056213253,
				"z": 0.7328507155,
				"element": "C" 
			},
			{
				"x": 1.4986379132,
				"y": -2.6295790358,
				"z": 0.9567936231,
				"element": "O" 
			},
			{
				"x": 0.990996741,
				"y": -0.4369632958,
				"z": 1.6656818073,
				"element": "C" 
			},
			{
				"x": -0.0446809626,
				"y": 0.4791922755,
				"z": 1.9031994342,
				"element": "C" 
			},
			{
				"x": 0.1092976785,
				"y": 1.5041671161,
				"z": 2.8361655977,
				"element": "C" 
			},
			{
				"x": 1.3152246318,
				"y": 1.6167902606,
				"z": 3.5270248917,
				"element": "C" 
			},
			{
				"x": 1.5229837386,
				"y": 2.9140339144,
				"z": 4.6898485841,
				"element": "Cl" 
			},
			{
				"x": 2.3585288182,
				"y": 0.7115887312,
				"z": 3.3164504603,
				"element": "C" 
			},
			{
				"x": 2.1833574545,
				"y": -0.316651966,
				"z": 2.397321592,
				"element": "C" 
			},
			{
				"x": -1.7283367713,
				"y": -3.6846361454,
				"z": -2.5233502007,
				"element": "H" 
			},
			{
				"x": -0.2669786376,
				"y": -3.665598417,
				"z": -0.4747672077,
				"element": "H" 
			},
			{
				"x": 0.0699901307,
				"y": 0.6046028216,
				"z": -0.773562828,
				"element": "H" 
			},
			{
				"x": -1.3500344307,
				"y": 0.5744720869,
				"z": -2.8221015826,
				"element": "H" 
			},
			{
				"x": -0.9898573516,
				"y": 0.3805864165,
				"z": 1.3803350674,
				"element": "H" 
			},
			{
				"x": -0.6957263494,
				"y": 2.2042375842,
				"z": 3.0295766604,
				"element": "H" 
			},
			{
				"x": 3.2851851361,
				"y": 0.8127403504,
				"z": 3.8703585066,
				"element": "H" 
			},
			{
				"x": 2.9676684366,
				"y": -1.0475514501,
				"z": 2.2318031557,
				"element": "H" 
			}
		],
		 "valence_orbital": [ 
			{
				"type": "occ",
				"energy": -0.27683,
				"method": "rhf"
			},
			{
				"type": "occ",
				"energy": -0.27465,
				"method": "rhf"
			},
			{
				"type": "occ",
				"energy": -0.26606,
				"method": "rhf"
			},
			{
				"type": "occ",
				"energy": -0.25859,
				"method": "rhf"
			},
			{
				"type": "occ",
				"energy": -0.25096,
				"method": "rhf"
			},
			{
				"type": "unocc",
				"energy": -0.07278,
				"method": "rhf"
			},
			{
				"type": "unocc",
				"energy": -0.02951,
				"method": "rhf"
			},
			{
				"type": "unocc",
				"energy": -0.02142,
				"method": "rhf"
			},
			{
				"type": "unocc",
				"energy": -0.02101,
				"method": "rhf"
			},
			{
				"type": "unocc",
				"energy": 0.02225,
				"method": "rhf"
			}
		],
		"cosmo_sigma_profile": { 
			"-0.025": 0.0,
			"-0.024": 0.0,
			"-0.023": 0.0,
			"-0.022": 0.0,
			"-0.021": 0.0,
			"-0.02": 0.0,
			"-0.019": 0.0,
			"-0.018": 0.0,
			"-0.017": 0.0,
			"-0.016": 0.0,
			"-0.015": 0.0,
			"-0.014": 0.0,
			"-0.013": 0.0,
			"-0.012": 0.0,
			"-0.011": 0.0,
			"-0.01": 0.0,
			"-0.009": 0.0,
			"-0.008": 3.71540429051,
			"-0.007": 10.6806496791,
			"-0.006": 15.1920083906,
			"-0.005": 14.8318034831,
			"-0.004": 14.0734277486,
			"-0.003": 14.8006614128,
			"-0.002": 16.0119225369,
			"-0.001": 17.2465615456,
			"0.0": 25.0684862137,
			"0.001": 27.1441420025,
			"0.002": 33.5878539226,
			"0.003": 22.0351119361,
			"0.004": 20.8454353308,
			"0.005": 3.88596009306,
			"0.006": 1.97635605805,
			"0.007": 2.08636697789,
			"0.008": 1.81326849733,
			"0.009": 1.26557165502,
			"0.01": 2.21796438512,
			"0.011": 3.0751174208,
			"0.012": 3.69244855573,
			"0.013": 0.214338058047,
			"0.014": 0.0,
			"0.015": 0.0,
			"0.016": 0.0,
			"0.017": 0.0,
			"0.018": 0.0,
			"0.019": 0.0,
			"0.02": 0.0,
			"0.021": 0.0,
			"0.022": 0.0,
			"0.023": 0.0,
			"0.024": 0.0,
			"0.025": 0.0
		}
	}
}
