{
	 "smiles": "COC1=CC=C(CN2NC=C(Br)C2=N)C=C1", 
	 "Tm": 366.15, 
	 "num_atms": 28, 
	 "gaussian": { 
		 "optdone": 1, 
		 "sigma_profile": "yes", 
		 "theory": "DFT", 
		 "functional": "B3LYP", 
		 "basiset": "6-31G**", 
		 "properties": { 
			 "R2extent": 10218.0146, 
			 "electric_dipole_moment_norm": 4.2601590076, 
			 "electric_quadrupole_moment_norm": 17.2455189649, 
			 "total_energy": -3237.21665738, 
			 "HOMO_LUMO_gap": 0.17965, 
			 "cosmo_polarized_energy": -15.27, 
			 "cosmo_cavitation_energy": 34.66, 
			 "cosmo_dispersion_energy": -25.18, 
			 "cosmo_repulsion_energy": 1.97, 
			 "cosmo_total_nonelectrostatic_energy": 11.44, 
			 "SMD_solvation_energy": 4.49 
		},
		"coords": [
			{
				"x": -2.6279165973,
				"y": -3.8876277007,
				"z": 1.786184229,
				"element": "C" 
			},
			{
				"x": -1.4499295563,
				"y": -3.1593532091,
				"z": 2.0940024702,
				"element": "O" 
			},
			{
				"x": -1.0694294319,
				"y": -2.1574320202,
				"z": 1.2491972111,
				"element": "C" 
			},
			{
				"x": -1.7702285249,
				"y": -1.7772416629,
				"z": 0.0964092895,
				"element": "C" 
			},
			{
				"x": -1.282683267,
				"y": -0.7356766808,
				"z": -0.6950902408,
				"element": "C" 
			},
			{
				"x": -0.1065506276,
				"y": -0.0543881546,
				"z": -0.3634737931,
				"element": "C" 
			},
			{
				"x": 0.4182661473,
				"y": 1.062015217,
				"z": -1.24143614,
				"element": "C" 
			},
			{
				"x": -0.5687895694,
				"y": 2.1241639857,
				"z": -1.4241096523,
				"element": "N" 
			},
			{
				"x": -0.8892258795,
				"y": 2.8833193147,
				"z": -0.266074799,
				"element": "N" 
			},
			{
				"x": -1.3266932385,
				"y": 4.118164128,
				"z": -0.7226675049,
				"element": "C" 
			},
			{
				"x": -1.0924589352,
				"y": 4.2372853623,
				"z": -2.0465359175,
				"element": "C" 
			},
			{
				"x": -1.3313914563,
				"y": 5.7586258807,
				"z": -3.1232804898,
				"element": "Br" 
			},
			{
				"x": -0.5092143829,
				"y": 2.9834143399,
				"z": -2.5397857053,
				"element": "C" 
			},
			{
				"x": -0.0100480481,
				"y": 2.6145460301,
				"z": -3.6610448116,
				"element": "N" 
			},
			{
				"x": 0.5761264116,
				"y": -0.4430795625,
				"z": 0.7976268379,
				"element": "C" 
			},
			{
				"x": 0.1090461973,
				"y": -1.481844673,
				"z": 1.5952772881,
				"element": "C" 
			},
			{
				"x": -3.5145849648,
				"y": -3.2403934563,
				"z": 1.7754791299,
				"element": "H" 
			},
			{
				"x": -2.5472392087,
				"y": -4.3995173707,
				"z": 0.8186024466,
				"element": "H" 
			},
			{
				"x": -2.7377149393,
				"y": -4.6314353421,
				"z": 2.5768404929,
				"element": "H" 
			},
			{
				"x": -2.6830393366,
				"y": -2.2837108566,
				"z": -0.1943437385,
				"element": "H" 
			},
			{
				"x": -1.8301076183,
				"y": -0.4460997343,
				"z": -1.5882377391,
				"element": "H" 
			},
			{
				"x": 1.3474678953,
				"y": 1.4717343288,
				"z": -0.8221894762,
				"element": "H" 
			},
			{
				"x": 0.6366994283,
				"y": 0.71543994,
				"z": -2.2557186292,
				"element": "H" 
			},
			{
				"x": -1.5280523851,
				"y": 2.3732150711,
				"z": 0.3415685429,
				"element": "H" 
			},
			{
				"x": -1.7616472267,
				"y": 4.8255324618,
				"z": -0.0302811019,
				"element": "H" 
			},
			{
				"x": -0.0726802741,
				"y": 3.3786885661,
				"z": -4.333579292,
				"element": "H" 
			},
			{
				"x": 1.4895797323,
				"y": 0.0746798655,
				"z": 1.0798297899,
				"element": "H" 
			},
			{
				"x": 0.6367396565,
				"y": -1.7862240678,
				"z": 2.4932313032,
				"element": "H" 
			}
		],
		 "valence_orbital": [ 
			{
				"type": "occ",
				"energy": -0.25997,
				"method": "rhf"
			},
			{
				"type": "occ",
				"energy": -0.2556,
				"method": "rhf"
			},
			{
				"type": "occ",
				"energy": -0.25202,
				"method": "rhf"
			},
			{
				"type": "occ",
				"energy": -0.2204,
				"method": "rhf"
			},
			{
				"type": "occ",
				"energy": -0.19667,
				"method": "rhf"
			},
			{
				"type": "unocc",
				"energy": -0.01702,
				"method": "rhf"
			},
			{
				"type": "unocc",
				"energy": -0.00853,
				"method": "rhf"
			},
			{
				"type": "unocc",
				"energy": 0.00199,
				"method": "rhf"
			},
			{
				"type": "unocc",
				"energy": 0.0166,
				"method": "rhf"
			},
			{
				"type": "unocc",
				"energy": 0.07568,
				"method": "rhf"
			}
		],
		"cosmo_sigma_profile": { 
			"-0.025": 0.0,
			"-0.024": 0.0,
			"-0.023": 0.0,
			"-0.022": 0.0,
			"-0.021": 0.0,
			"-0.02": 0.0,
			"-0.019": 0.0,
			"-0.018": 0.0,
			"-0.017": 0.0,
			"-0.016": 0.011761875,
			"-0.015": 1.09441013128,
			"-0.014": 0.789546049032,
			"-0.013": 1.27144257513,
			"-0.012": 1.05170424569,
			"-0.011": 1.78085403601,
			"-0.01": 3.52936840559,
			"-0.009": 2.16542961853,
			"-0.008": 2.87056225058,
			"-0.007": 3.34040836365,
			"-0.006": 12.6987417507,
			"-0.005": 23.0205117177,
			"-0.004": 22.8969471191,
			"-0.003": 22.5007378598,
			"-0.002": 19.5317254209,
			"-0.001": 15.7943050109,
			"0.0": 14.7297191271,
			"0.001": 20.9151034724,
			"0.002": 22.393152314,
			"0.003": 20.6206479058,
			"0.004": 21.5434147502,
			"0.005": 15.3744100204,
			"0.006": 6.00828194254,
			"0.007": 3.68836544807,
			"0.008": 3.4216115387,
			"0.009": 3.49016697121,
			"0.01": 2.81923719699,
			"0.011": 1.58945070954,
			"0.012": 0.938833945108,
			"0.013": 1.82491662107,
			"0.014": 1.39931746067,
			"0.015": 1.34697080633,
			"0.016": 1.21621624097,
			"0.017": 1.10047983332,
			"0.018": 0.505776357992,
			"0.019": 0.0,
			"0.02": 0.0,
			"0.021": 0.0,
			"0.022": 0.0,
			"0.023": 0.0,
			"0.024": 0.0,
			"0.025": 0.0
		}
	}
}
