{
	 "smiles": "CC(=O)NC1=C(C)C=C(N)C=C1C", 
	 "Tm": 478.15, 
	 "num_atms": 27, 
	 "gaussian": { 
		 "optdone": 1, 
		 "sigma_profile": "yes", 
		 "theory": "DFT", 
		 "functional": "B3LYP", 
		 "basiset": "6-31G**", 
		 "properties": { 
			 "R2extent": 2790.6988, 
			 "electric_dipole_moment_norm": 5.37681952552, 
			 "electric_quadrupole_moment_norm": 12.7384765533, 
			 "total_energy": -574.262333817, 
			 "HOMO_LUMO_gap": 0.20682, 
			 "cosmo_polarized_energy": -15.24, 
			 "cosmo_cavitation_energy": 30.12, 
			 "cosmo_dispersion_energy": -20.79, 
			 "cosmo_repulsion_energy": 1.66, 
			 "cosmo_total_nonelectrostatic_energy": 10.99, 
			 "SMD_solvation_energy": 6.49 
		},
		"coords": [
			{
				"x": -0.1156245267,
				"y": 2.6108136484,
				"z": -0.4831215286,
				"element": "C" 
			},
			{
				"x": 0.2202889093,
				"y": 2.1097489439,
				"z": -1.8788757234,
				"element": "C" 
			},
			{
				"x": 0.3472379843,
				"y": 2.8599404213,
				"z": -2.837244809,
				"element": "O" 
			},
			{
				"x": 0.3782132905,
				"y": 0.7473749763,
				"z": -2.0194501409,
				"element": "N" 
			},
			{
				"x": 0.2626265186,
				"y": -0.2565226406,
				"z": -1.0050369047,
				"element": "C" 
			},
			{
				"x": 1.4016984178,
				"y": -0.6488996973,
				"z": -0.2747998848,
				"element": "C" 
			},
			{
				"x": 2.7478818146,
				"y": -0.0206634041,
				"z": -0.5483911666,
				"element": "C" 
			},
			{
				"x": 1.2769015547,
				"y": -1.6378229957,
				"z": 0.7015495467,
				"element": "C" 
			},
			{
				"x": 0.0425607333,
				"y": -2.2521462759,
				"z": 0.9645347737,
				"element": "C" 
			},
			{
				"x": -0.0798122198,
				"y": -3.1951018208,
				"z": 1.9836623914,
				"element": "N" 
			},
			{
				"x": -1.0764496174,
				"y": -1.8602487422,
				"z": 0.2132129949,
				"element": "C" 
			},
			{
				"x": -0.9814458447,
				"y": -0.8741418038,
				"z": -0.7692748347,
				"element": "C" 
			},
			{
				"x": -2.1994020562,
				"y": -0.4884559726,
				"z": -1.5752382882,
				"element": "C" 
			},
			{
				"x": -0.2061802877,
				"y": 3.6957984735,
				"z": -0.528050693,
				"element": "H" 
			},
			{
				"x": 0.6616559399,
				"y": 2.3369350307,
				"z": 0.2368236593,
				"element": "H" 
			},
			{
				"x": -1.0533750564,
				"y": 2.1793084791,
				"z": -0.1198061644,
				"element": "H" 
			},
			{
				"x": 0.5997214038,
				"y": 0.4719386566,
				"z": -2.969727714,
				"element": "H" 
			},
			{
				"x": 3.041574805,
				"y": -0.1429643891,
				"z": -1.5964760034,
				"element": "H" 
			},
			{
				"x": 2.7410420655,
				"y": 1.0570909762,
				"z": -0.3528454564,
				"element": "H" 
			},
			{
				"x": 3.5235177003,
				"y": -0.4706855549,
				"z": 0.0765643953,
				"element": "H" 
			},
			{
				"x": 2.1535079803,
				"y": -1.9384337126,
				"z": 1.2710211907,
				"element": "H" 
			},
			{
				"x": 0.7730141792,
				"y": -3.6744727008,
				"z": 2.2364271207,
				"element": "H" 
			},
			{
				"x": -0.8621192406,
				"y": -3.8287631631,
				"z": 1.8972692787,
				"element": "H" 
			},
			{
				"x": -2.0370456517,
				"y": -2.3344855818,
				"z": 0.4015245507,
				"element": "H" 
			},
			{
				"x": -2.0303816349,
				"y": -0.6281269655,
				"z": -2.6484232899,
				"element": "H" 
			},
			{
				"x": -2.4606543994,
				"y": 0.5663653469,
				"z": -1.4380041002,
				"element": "H" 
			},
			{
				"x": -3.0654527614,
				"y": -1.0896795324,
				"z": -1.2868231998,
				"element": "H" 
			}
		],
		 "valence_orbital": [ 
			{
				"type": "occ",
				"energy": -0.3017,
				"method": "rhf"
			},
			{
				"type": "occ",
				"energy": -0.24456,
				"method": "rhf"
			},
			{
				"type": "occ",
				"energy": -0.24094,
				"method": "rhf"
			},
			{
				"type": "occ",
				"energy": -0.23745,
				"method": "rhf"
			},
			{
				"type": "occ",
				"energy": -0.20523,
				"method": "rhf"
			},
			{
				"type": "unocc",
				"energy": 0.00159,
				"method": "rhf"
			},
			{
				"type": "unocc",
				"energy": 0.00479,
				"method": "rhf"
			},
			{
				"type": "unocc",
				"energy": 0.03925,
				"method": "rhf"
			},
			{
				"type": "unocc",
				"energy": 0.07508,
				"method": "rhf"
			},
			{
				"type": "unocc",
				"energy": 0.08356,
				"method": "rhf"
			}
		],
		"cosmo_sigma_profile": { 
			"-0.025": 0.0,
			"-0.024": 0.0,
			"-0.023": 0.0,
			"-0.022": 0.0,
			"-0.021": 0.0,
			"-0.02": 0.0,
			"-0.019": 0.0,
			"-0.018": 0.0,
			"-0.017": 0.0,
			"-0.016": 0.0,
			"-0.015": 0.0,
			"-0.014": 0.0,
			"-0.013": 0.475963535675,
			"-0.012": 3.49257290587,
			"-0.011": 3.74971171546,
			"-0.01": 3.19796842548,
			"-0.009": 4.09949235929,
			"-0.008": 4.22083581566,
			"-0.007": 3.67666387367,
			"-0.006": 4.36525843335,
			"-0.005": 12.2761129849,
			"-0.004": 22.9189515639,
			"-0.003": 20.6042421641,
			"-0.002": 19.8228405784,
			"-0.001": 22.1527745384,
			"0.0": 25.1938378646,
			"0.001": 14.5007765494,
			"0.002": 9.41444633959,
			"0.003": 8.19862385362,
			"0.004": 6.30165199643,
			"0.005": 8.42810537054,
			"0.006": 10.9327215949,
			"0.007": 3.91336046263,
			"0.008": 2.27281600252,
			"0.009": 1.8882318707,
			"0.01": 1.48379820686,
			"0.011": 2.63268293408,
			"0.012": 2.61076112311,
			"0.013": 3.08157211707,
			"0.014": 6.56227954619,
			"0.015": 3.18303822246,
			"0.016": 0.236907458912,
			"0.017": 0.0,
			"0.018": 0.0,
			"0.019": 0.0,
			"0.02": 0.0,
			"0.021": 0.0,
			"0.022": 0.0,
			"0.023": 0.0,
			"0.024": 0.0,
			"0.025": 0.0
		}
	}
}
