{
	 "smiles": "CSC1=CC(C(O)=O)=C(C=C1)[N+]([O-])=O", 
	 "Tm": 450.15, 
	 "num_atms": 21, 
	 "gaussian": { 
		 "optdone": 1, 
		 "sigma_profile": "yes", 
		 "theory": "DFT", 
		 "functional": "B3LYP", 
		 "basiset": "6-31G**", 
		 "properties": { 
			 "R2extent": 3661.9041, 
			 "electric_dipole_moment_norm": 5.38178115125, 
			 "electric_quadrupole_moment_norm": 17.7418113596, 
			 "total_energy": -1062.80874529, 
			 "HOMO_LUMO_gap": 0.14841, 
			 "cosmo_polarized_energy": -16.18, 
			 "cosmo_cavitation_energy": 28.29, 
			 "cosmo_dispersion_energy": -20.86, 
			 "cosmo_repulsion_energy": 1.6, 
			 "cosmo_total_nonelectrostatic_energy": 9.02, 
			 "SMD_solvation_energy": 8.15 
		},
		"coords": [
			{
				"x": -1.2858031503,
				"y": 3.2230669247,
				"z": -1.8086249916,
				"element": "C" 
			},
			{
				"x": 0.2372484402,
				"y": 2.6576113613,
				"z": -0.9850063552,
				"element": "S" 
			},
			{
				"x": -0.1118567976,
				"y": 0.9720593754,
				"z": -0.5692963577,
				"element": "C" 
			},
			{
				"x": 0.9126104409,
				"y": 0.2670149898,
				"z": 0.0890195228,
				"element": "C" 
			},
			{
				"x": 0.7509665873,
				"y": -1.0613992298,
				"z": 0.469204138,
				"element": "C" 
			},
			{
				"x": 1.881802508,
				"y": -1.681296343,
				"z": 1.2422182477,
				"element": "C" 
			},
			{
				"x": 1.4714168627,
				"y": -2.1908286735,
				"z": 2.4199661824,
				"element": "O" 
			},
			{
				"x": 3.0395325459,
				"y": -1.6292960223,
				"z": 0.895092733,
				"element": "O" 
			},
			{
				"x": -0.4563364836,
				"y": -1.7046409305,
				"z": 0.150630053,
				"element": "C" 
			},
			{
				"x": -1.4845957137,
				"y": -1.0202080885,
				"z": -0.4895272973,
				"element": "C" 
			},
			{
				"x": -1.3196817188,
				"y": 0.3147902327,
				"z": -0.8461631314,
				"element": "C" 
			},
			{
				"x": -0.6396444126,
				"y": -3.1386074195,
				"z": 0.3892312832,
				"element": "N" 
			},
			{
				"x": -1.7939607503,
				"y": -3.5622261793,
				"z": 0.4536777715,
				"element": "O" 
			},
			{
				"x": 0.3719443803,
				"y": -3.8347412783,
				"z": 0.4724407889,
				"element": "O" 
			},
			{
				"x": -2.1447703055,
				"y": 3.1840540248,
				"z": -1.1350784248,
				"element": "H" 
			},
			{
				"x": -1.0974226592,
				"y": 4.2636366359,
				"z": -2.079995552,
				"element": "H" 
			},
			{
				"x": -1.4855956502,
				"y": 2.6519720769,
				"z": -2.7179847,
				"element": "H" 
			},
			{
				"x": 1.8516490499,
				"y": 0.759090117,
				"z": 0.3216700985,
				"element": "H" 
			},
			{
				"x": 2.2558335179,
				"y": -2.5828089002,
				"z": 2.8398177756,
				"element": "H" 
			},
			{
				"x": -2.4004983041,
				"y": -1.5517146144,
				"z": -0.7176666074,
				"element": "H" 
			},
			{
				"x": -2.1306383869,
				"y": 0.8250719406,
				"z": -1.3510251774,
				"element": "H" 
			}
		],
		 "valence_orbital": [ 
			{
				"type": "occ",
				"energy": -0.30853,
				"method": "rhf"
			},
			{
				"type": "occ",
				"energy": -0.2993,
				"method": "rhf"
			},
			{
				"type": "occ",
				"energy": -0.29194,
				"method": "rhf"
			},
			{
				"type": "occ",
				"energy": -0.27733,
				"method": "rhf"
			},
			{
				"type": "occ",
				"energy": -0.24013,
				"method": "rhf"
			},
			{
				"type": "unocc",
				"energy": -0.09172,
				"method": "rhf"
			},
			{
				"type": "unocc",
				"energy": -0.04865,
				"method": "rhf"
			},
			{
				"type": "unocc",
				"energy": -0.01589,
				"method": "rhf"
			},
			{
				"type": "unocc",
				"energy": 0.01278,
				"method": "rhf"
			},
			{
				"type": "unocc",
				"energy": 0.01824,
				"method": "rhf"
			}
		],
		"cosmo_sigma_profile": { 
			"-0.025": 0.0,
			"-0.024": 0.0,
			"-0.023": 0.0,
			"-0.022": 0.0,
			"-0.021": 0.0,
			"-0.02": 0.0,
			"-0.019": 0.427895527669,
			"-0.018": 0.963266658837,
			"-0.017": 1.34434026405,
			"-0.016": 0.334807093456,
			"-0.015": 0.829342004375,
			"-0.014": 0.591808908984,
			"-0.013": 0.843343309467,
			"-0.012": 0.502782482071,
			"-0.011": 0.799196419104,
			"-0.01": 1.06337472014,
			"-0.009": 1.01502182047,
			"-0.008": 7.25117913383,
			"-0.007": 14.1536229752,
			"-0.006": 13.0933594889,
			"-0.005": 11.9537626399,
			"-0.004": 12.5598342814,
			"-0.003": 13.473176336,
			"-0.002": 12.937272642,
			"-0.001": 13.2266699873,
			"0.0": 18.7922562412,
			"0.001": 16.0232087895,
			"0.002": 9.39959613636,
			"0.003": 9.10606666005,
			"0.004": 9.04670854607,
			"0.005": 9.90901490308,
			"0.006": 9.69774946001,
			"0.007": 12.246327625,
			"0.008": 9.12291584872,
			"0.009": 6.49394436809,
			"0.01": 5.12491725029,
			"0.011": 4.82820636328,
			"0.012": 1.06011752395,
			"0.013": 0.0,
			"0.014": 0.0,
			"0.015": 0.0,
			"0.016": 0.0,
			"0.017": 0.0,
			"0.018": 0.0,
			"0.019": 0.0,
			"0.02": 0.0,
			"0.021": 0.0,
			"0.022": 0.0,
			"0.023": 0.0,
			"0.024": 0.0,
			"0.025": 0.0
		}
	}
}
