{
	 "smiles": "CC(NS(=O)(=O)C1=C(C=CC=C1)C(F)(F)F)C(O)=O", 
	 "Tm": 379.15, 
	 "num_atms": 29, 
	 "gaussian": { 
		 "optdone": 1, 
		 "sigma_profile": "yes", 
		 "theory": "DFT", 
		 "functional": "B3LYP", 
		 "basiset": "6-31G**", 
		 "properties": { 
			 "R2extent": 5531.189, 
			 "electric_dipole_moment_norm": 6.09976009528, 
			 "electric_quadrupole_moment_norm": 21.1582680785, 
			 "total_energy": -1440.37666883, 
			 "HOMO_LUMO_gap": 0.20486, 
			 "cosmo_polarized_energy": -22.51, 
			 "cosmo_cavitation_energy": 35.03, 
			 "cosmo_dispersion_energy": -24.33, 
			 "cosmo_repulsion_energy": 1.76, 
			 "cosmo_total_nonelectrostatic_energy": 12.45, 
			 "SMD_solvation_energy": 7.6 
		},
		"coords": [
			{
				"x": -1.3577504382,
				"y": 1.2313192983,
				"z": 1.2063215677,
				"element": "C" 
			},
			{
				"x": -2.4102392978,
				"y": 0.1420447026,
				"z": 1.4611509559,
				"element": "C" 
			},
			{
				"x": -2.2702748485,
				"y": -1.0128937518,
				"z": 0.535032177,
				"element": "N" 
			},
			{
				"x": -0.8040707621,
				"y": -1.9172771203,
				"z": 0.5489335897,
				"element": "S" 
			},
			{
				"x": -0.1076859442,
				"y": -1.6982023913,
				"z": 1.8125490757,
				"element": "O" 
			},
			{
				"x": -1.2189310587,
				"y": -3.2554961595,
				"z": 0.123856816,
				"element": "O" 
			},
			{
				"x": 0.1049971194,
				"y": -1.1680716898,
				"z": -0.8364045807,
				"element": "C" 
			},
			{
				"x": 1.4563590791,
				"y": -0.7689880306,
				"z": -0.8123776705,
				"element": "C" 
			},
			{
				"x": 2.0163687775,
				"y": -0.2636332633,
				"z": -1.9924831111,
				"element": "C" 
			},
			{
				"x": 1.2749275046,
				"y": -0.1666179642,
				"z": -3.1675737402,
				"element": "C" 
			},
			{
				"x": -0.051730896,
				"y": -0.589527788,
				"z": -3.1880070464,
				"element": "C" 
			},
			{
				"x": -0.6279657227,
				"y": -1.0934939415,
				"z": -2.0253721945,
				"element": "C" 
			},
			{
				"x": 2.3688291596,
				"y": -0.8542901093,
				"z": 0.4027510228,
				"element": "C" 
			},
			{
				"x": 2.4194868287,
				"y": -2.0975848937,
				"z": 0.9053628866,
				"element": "F" 
			},
			{
				"x": 3.6370905713,
				"y": -0.5149562655,
				"z": 0.0729930101,
				"element": "F" 
			},
			{
				"x": 1.9918939561,
				"y": -0.0054903675,
				"z": 1.380371028,
				"element": "F" 
			},
			{
				"x": -3.8023972657,
				"y": 0.7607863471,
				"z": 1.2398799592,
				"element": "C" 
			},
			{
				"x": -4.3067249553,
				"y": 0.6133335246,
				"z": -0.0047821364,
				"element": "O" 
			},
			{
				"x": -4.3784248855,
				"y": 1.3791356407,
				"z": 2.0976816021,
				"element": "O" 
			},
			{
				"x": -1.3943507701,
				"y": 1.574979368,
				"z": 0.1679521188,
				"element": "H" 
			},
			{
				"x": -1.5740909198,
				"y": 2.0795587627,
				"z": 1.8599574803,
				"element": "H" 
			},
			{
				"x": -0.3533294659,
				"y": 0.8721655711,
				"z": 1.4326067792,
				"element": "H" 
			},
			{
				"x": -2.3602649079,
				"y": -0.1732962888,
				"z": 2.5075342782,
				"element": "H" 
			},
			{
				"x": -2.9762984979,
				"y": -1.7265229097,
				"z": 0.7256331582,
				"element": "H" 
			},
			{
				"x": 3.0526033603,
				"y": 0.0484859596,
				"z": -1.9819605683,
				"element": "H" 
			},
			{
				"x": 1.7398910199,
				"y": 0.2308373891,
				"z": -4.0641167448,
				"element": "H" 
			},
			{
				"x": -0.6371831088,
				"y": -0.5339499393,
				"z": -4.1001567674,
				"element": "H" 
			},
			{
				"x": -1.6569773143,
				"y": -1.4326863104,
				"z": -2.0340031179,
				"element": "H" 
			},
			{
				"x": -3.6734563173,
				"y": 0.0800326207,
				"z": -0.5191298274,
				"element": "H" 
			}
		],
		 "valence_orbital": [ 
			{
				"type": "occ",
				"energy": -0.32304,
				"method": "rhf"
			},
			{
				"type": "occ",
				"energy": -0.31523,
				"method": "rhf"
			},
			{
				"type": "occ",
				"energy": -0.30156,
				"method": "rhf"
			},
			{
				"type": "occ",
				"energy": -0.2906,
				"method": "rhf"
			},
			{
				"type": "occ",
				"energy": -0.27756,
				"method": "rhf"
			},
			{
				"type": "unocc",
				"energy": -0.0727,
				"method": "rhf"
			},
			{
				"type": "unocc",
				"energy": -0.0522,
				"method": "rhf"
			},
			{
				"type": "unocc",
				"energy": -0.00679,
				"method": "rhf"
			},
			{
				"type": "unocc",
				"energy": 0.02462,
				"method": "rhf"
			},
			{
				"type": "unocc",
				"energy": 0.04954,
				"method": "rhf"
			}
		],
		"cosmo_sigma_profile": { 
			"-0.025": 0.0,
			"-0.024": 0.0,
			"-0.023": 0.0,
			"-0.022": 0.0,
			"-0.021": 0.0,
			"-0.02": 0.0,
			"-0.019": 0.0,
			"-0.018": 0.0,
			"-0.017": 0.0663853634067,
			"-0.016": 1.38323216,
			"-0.015": 1.28345821176,
			"-0.014": 1.89044880535,
			"-0.013": 1.82885988002,
			"-0.012": 2.34847007467,
			"-0.011": 2.29746693279,
			"-0.01": 2.71011974111,
			"-0.009": 2.60202860362,
			"-0.008": 8.72009987863,
			"-0.007": 14.7444581308,
			"-0.006": 13.3170957472,
			"-0.005": 11.7095619743,
			"-0.004": 14.1705190001,
			"-0.003": 15.0628089113,
			"-0.002": 20.3522566764,
			"-0.001": 20.8356358883,
			"0.0": 17.7296935282,
			"0.001": 21.2280165998,
			"0.002": 24.6919696104,
			"0.003": 13.530614719,
			"0.004": 6.26161156554,
			"0.005": 5.32270458398,
			"0.006": 4.41460063414,
			"0.007": 7.00016785402,
			"0.008": 7.21550972458,
			"0.009": 10.3746715905,
			"0.01": 14.3658206789,
			"0.011": 7.28255556513,
			"0.012": 4.23983841308,
			"0.013": 0.497800346965,
			"0.014": 0.0,
			"0.015": 0.0,
			"0.016": 0.0,
			"0.017": 0.0,
			"0.018": 0.0,
			"0.019": 0.0,
			"0.02": 0.0,
			"0.021": 0.0,
			"0.022": 0.0,
			"0.023": 0.0,
			"0.024": 0.0,
			"0.025": 0.0
		}
	}
}
