{
	 "smiles": "CC1=CC=C(C=C1N=C=O)[N+]([O-])=O", 
	 "Tm": 324.15, 
	 "num_atms": 19, 
	 "gaussian": { 
		 "optdone": 1, 
		 "sigma_profile": "yes", 
		 "theory": "DFT", 
		 "functional": "B3LYP", 
		 "basiset": "6-31G**", 
		 "properties": { 
			 "R2extent": 2835.8557, 
			 "electric_dipole_moment_norm": 4.61893550615, 
			 "electric_quadrupole_moment_norm": 12.690726989, 
			 "total_energy": -643.54781528, 
			 "HOMO_LUMO_gap": 0.16439, 
			 "cosmo_polarized_energy": -9.13, 
			 "cosmo_cavitation_energy": 25.7, 
			 "cosmo_dispersion_energy": -18.24, 
			 "cosmo_repulsion_energy": 1.45, 
			 "cosmo_total_nonelectrostatic_energy": 8.91, 
			 "SMD_solvation_energy": 9.28 
		},
		"coords": [
			{
				"x": -2.3441557699,
				"y": 0.1189832234,
				"z": 2.9000803065,
				"element": "C" 
			},
			{
				"x": -1.7953792017,
				"y": 0.3570252353,
				"z": 1.5192013082,
				"element": "C" 
			},
			{
				"x": -2.608956244,
				"y": 0.8145107832,
				"z": 0.4761584708,
				"element": "C" 
			},
			{
				"x": -2.1096889854,
				"y": 1.0374607854,
				"z": -0.8045948009,
				"element": "C" 
			},
			{
				"x": -0.7592763734,
				"y": 0.7927230296,
				"z": -1.0354025847,
				"element": "C" 
			},
			{
				"x": 0.0924635969,
				"y": 0.3376297079,
				"z": -0.0345184488,
				"element": "C" 
			},
			{
				"x": -0.4303308145,
				"y": 0.1207037188,
				"z": 1.2431056394,
				"element": "C" 
			},
			{
				"x": 0.3740674644,
				"y": -0.3356023642,
				"z": 2.2896687289,
				"element": "N" 
			},
			{
				"x": 1.5242134779,
				"y": -0.6511653681,
				"z": 2.5028843004,
				"element": "C" 
			},
			{
				"x": 2.5998438674,
				"y": -0.9834627349,
				"z": 2.8432681582,
				"element": "O" 
			},
			{
				"x": -0.2069290763,
				"y": 1.0204421463,
				"z": -2.3800038822,
				"element": "N" 
			},
			{
				"x": 0.9908972273,
				"y": 0.7952088557,
				"z": -2.550342108,
				"element": "O" 
			},
			{
				"x": -0.9772826937,
				"y": 1.422064797,
				"z": -3.2508725721,
				"element": "O" 
			},
			{
				"x": -3.411157397,
				"y": 0.3484808237,
				"z": 2.9432859509,
				"element": "H" 
			},
			{
				"x": -1.8261012972,
				"y": 0.7370076697,
				"z": 3.6412781555,
				"element": "H" 
			},
			{
				"x": -2.2006586332,
				"y": -0.9228234141,
				"z": 3.2062587154,
				"element": "H" 
			},
			{
				"x": -3.6600658711,
				"y": 0.9999311134,
				"z": 0.6756138048,
				"element": "H" 
			},
			{
				"x": -2.7367371654,
				"y": 1.3911178527,
				"z": -1.612780287,
				"element": "H" 
			},
			{
				"x": 1.1370338887,
				"y": 0.1602641393,
				"z": -0.2585888553,
				"element": "H" 
			}
		],
		 "valence_orbital": [ 
			{
				"type": "occ",
				"energy": -0.31395,
				"method": "rhf"
			},
			{
				"type": "occ",
				"energy": -0.31017,
				"method": "rhf"
			},
			{
				"type": "occ",
				"energy": -0.29539,
				"method": "rhf"
			},
			{
				"type": "occ",
				"energy": -0.28357,
				"method": "rhf"
			},
			{
				"type": "occ",
				"energy": -0.25803,
				"method": "rhf"
			},
			{
				"type": "unocc",
				"energy": -0.09364,
				"method": "rhf"
			},
			{
				"type": "unocc",
				"energy": -0.04648,
				"method": "rhf"
			},
			{
				"type": "unocc",
				"energy": -0.00745,
				"method": "rhf"
			},
			{
				"type": "unocc",
				"energy": -0.00496,
				"method": "rhf"
			},
			{
				"type": "unocc",
				"energy": 0.06383,
				"method": "rhf"
			}
		],
		"cosmo_sigma_profile": { 
			"-0.025": 0.0,
			"-0.024": 0.0,
			"-0.023": 0.0,
			"-0.022": 0.0,
			"-0.021": 0.0,
			"-0.02": 0.0,
			"-0.019": 0.0,
			"-0.018": 0.0,
			"-0.017": 0.0,
			"-0.016": 0.0,
			"-0.015": 0.0,
			"-0.014": 0.0,
			"-0.013": 0.0,
			"-0.012": 0.0,
			"-0.011": 0.0,
			"-0.01": 0.473763915714,
			"-0.009": 2.0060730597,
			"-0.008": 2.39668468988,
			"-0.007": 7.36233617052,
			"-0.006": 8.60217714307,
			"-0.005": 11.9473934945,
			"-0.004": 14.2675181285,
			"-0.003": 17.2664635873,
			"-0.002": 18.6464094908,
			"-0.001": 24.6776955998,
			"0.0": 21.8322567303,
			"0.001": 15.0438863863,
			"0.002": 9.75557265429,
			"0.003": 5.47691329725,
			"0.004": 5.58415383021,
			"0.005": 4.70815415303,
			"0.006": 7.3639061715,
			"0.007": 15.4082829115,
			"0.008": 7.52470865119,
			"0.009": 4.54560679641,
			"0.01": 2.36955948217,
			"0.011": 0.0885044730011,
			"0.012": 0.0,
			"0.013": 0.0,
			"0.014": 0.0,
			"0.015": 0.0,
			"0.016": 0.0,
			"0.017": 0.0,
			"0.018": 0.0,
			"0.019": 0.0,
			"0.02": 0.0,
			"0.021": 0.0,
			"0.022": 0.0,
			"0.023": 0.0,
			"0.024": 0.0,
			"0.025": 0.0
		}
	}
}
