{
	 "smiles": "NC1=CC(C=CC(=O)C2=CC=CC=C2)=CC=C1", 
	 "Tm": 432.15, 
	 "num_atms": 30, 
	 "gaussian": { 
		 "optdone": 1, 
		 "sigma_profile": "yes", 
		 "theory": "DFT", 
		 "functional": "B3LYP", 
		 "basiset": "6-31G**", 
		 "properties": { 
			 "R2extent": 4238.8958, 
			 "electric_dipole_moment_norm": 3.8251443097, 
			 "electric_quadrupole_moment_norm": 15.4823398907, 
			 "total_energy": -709.389343816, 
			 "HOMO_LUMO_gap": 0.14253, 
			 "cosmo_polarized_energy": -13.84, 
			 "cosmo_cavitation_energy": 34.22, 
			 "cosmo_dispersion_energy": -23.25, 
			 "cosmo_repulsion_energy": 1.83, 
			 "cosmo_total_nonelectrostatic_energy": 12.79, 
			 "SMD_solvation_energy": 6.19 
		},
		"coords": [
			{
				"x": -0.0111388921,
				"y": 2.2877273304,
				"z": -3.0432081819,
				"element": "N" 
			},
			{
				"x": 0.5837619663,
				"y": 1.0901445616,
				"z": -2.646078861,
				"element": "C" 
			},
			{
				"x": 0.0173095237,
				"y": 0.3234619734,
				"z": -1.6162892246,
				"element": "C" 
			},
			{
				"x": 0.5714428145,
				"y": -0.9079677268,
				"z": -1.239257764,
				"element": "C" 
			},
			{
				"x": 0.0004974493,
				"y": -1.7218168576,
				"z": -0.153308222,
				"element": "C" 
			},
			{
				"x": -0.6624975682,
				"y": -1.3252513113,
				"z": 0.9491275263,
				"element": "C" 
			},
			{
				"x": -1.0076612701,
				"y": 0.0600028956,
				"z": 1.4070593003,
				"element": "C" 
			},
			{
				"x": -2.1860726657,
				"y": 0.3319525694,
				"z": 1.6134873236,
				"element": "O" 
			},
			{
				"x": 0.0678675752,
				"y": 1.0635006463,
				"z": 1.6987037778,
				"element": "C" 
			},
			{
				"x": 1.4310114771,
				"y": 0.734582907,
				"z": 1.7090935906,
				"element": "C" 
			},
			{
				"x": 2.3838211877,
				"y": 1.7012587497,
				"z": 2.0297717433,
				"element": "C" 
			},
			{
				"x": 1.9841869484,
				"y": 3.0024493861,
				"z": 2.3407596137,
				"element": "C" 
			},
			{
				"x": 0.6258100942,
				"y": 3.3366358735,
				"z": 2.3375338566,
				"element": "C" 
			},
			{
				"x": -0.3262503558,
				"y": 2.3715950045,
				"z": 2.0239842786,
				"element": "C" 
			},
			{
				"x": 1.6902510262,
				"y": -1.3987531418,
				"z": -1.9366955822,
				"element": "C" 
			},
			{
				"x": 2.2567723055,
				"y": -0.6398727888,
				"z": -2.9583787983,
				"element": "C" 
			},
			{
				"x": 1.7185822133,
				"y": 0.5949580957,
				"z": -3.3130913039,
				"element": "C" 
			},
			{
				"x": 0.600149455,
				"y": 2.9347673551,
				"z": -3.5215369293,
				"element": "H" 
			},
			{
				"x": -0.5677341318,
				"y": 2.7465034308,
				"z": -2.3352065202,
				"element": "H" 
			},
			{
				"x": -0.8859309019,
				"y": 0.6793246455,
				"z": -1.1302780519,
				"element": "H" 
			},
			{
				"x": 0.1248603223,
				"y": -2.796839264,
				"z": -0.2837494173,
				"element": "H" 
			},
			{
				"x": -1.1067027889,
				"y": -2.093506568,
				"z": 1.5794636754,
				"element": "H" 
			},
			{
				"x": 1.7411935652,
				"y": -0.2766234061,
				"z": 1.4707454911,
				"element": "H" 
			},
			{
				"x": 3.4376740623,
				"y": 1.4387154268,
				"z": 2.038288234,
				"element": "H" 
			},
			{
				"x": 2.7281645011,
				"y": 3.7541843726,
				"z": 2.5895621168,
				"element": "H" 
			},
			{
				"x": 0.3139054296,
				"y": 4.3473987132,
				"z": 2.585048794,
				"element": "H" 
			},
			{
				"x": -1.3867819774,
				"y": 2.6011284312,
				"z": 2.0280582045,
				"element": "H" 
			},
			{
				"x": 2.1162089242,
				"y": -2.3602089531,
				"z": -1.6650461336,
				"element": "H" 
			},
			{
				"x": 3.128009806,
				"y": -1.0129532773,
				"z": -3.4896049684,
				"element": "H" 
			},
			{
				"x": 2.1613899049,
				"y": 1.1734009265,
				"z": -4.120157568,
				"element": "H" 
			}
		],
		 "valence_orbital": [ 
			{
				"type": "occ",
				"energy": -0.25937,
				"method": "rhf"
			},
			{
				"type": "occ",
				"energy": -0.25584,
				"method": "rhf"
			},
			{
				"type": "occ",
				"energy": -0.2475,
				"method": "rhf"
			},
			{
				"type": "occ",
				"energy": -0.22915,
				"method": "rhf"
			},
			{
				"type": "occ",
				"energy": -0.20428,
				"method": "rhf"
			},
			{
				"type": "unocc",
				"energy": -0.06175,
				"method": "rhf"
			},
			{
				"type": "unocc",
				"energy": -0.02932,
				"method": "rhf"
			},
			{
				"type": "unocc",
				"energy": -0.00532,
				"method": "rhf"
			},
			{
				"type": "unocc",
				"energy": 0.01239,
				"method": "rhf"
			},
			{
				"type": "unocc",
				"energy": 0.03496,
				"method": "rhf"
			}
		],
		"cosmo_sigma_profile": { 
			"-0.025": 0.0,
			"-0.024": 0.0,
			"-0.023": 0.0,
			"-0.022": 0.0,
			"-0.021": 0.0,
			"-0.02": 0.0,
			"-0.019": 0.0,
			"-0.018": 0.0,
			"-0.017": 0.0,
			"-0.016": 0.0,
			"-0.015": 0.0,
			"-0.014": 0.0,
			"-0.013": 0.169571232978,
			"-0.012": 2.31055152575,
			"-0.011": 2.84881276004,
			"-0.01": 3.04149816506,
			"-0.009": 3.45707195417,
			"-0.008": 2.80128860524,
			"-0.007": 4.55430713044,
			"-0.006": 16.7010997094,
			"-0.005": 21.3594897858,
			"-0.004": 22.5943202433,
			"-0.003": 18.9884890716,
			"-0.002": 17.1517623389,
			"-0.001": 16.6439261575,
			"0.0": 15.9598175287,
			"0.001": 16.4611764574,
			"0.002": 17.9102286581,
			"0.003": 18.3623120845,
			"0.004": 19.7357658248,
			"0.005": 17.9441834518,
			"0.006": 11.5817486467,
			"0.007": 3.67648245037,
			"0.008": 1.86876283675,
			"0.009": 2.44236850311,
			"0.01": 2.66837841941,
			"0.011": 3.79412316963,
			"0.012": 4.72473293571,
			"0.013": 2.54732234076,
			"0.014": 0.765816326526,
			"0.015": 0.203026955449,
			"0.016": 0.0,
			"0.017": 0.0,
			"0.018": 0.0,
			"0.019": 0.0,
			"0.02": 0.0,
			"0.021": 0.0,
			"0.022": 0.0,
			"0.023": 0.0,
			"0.024": 0.0,
			"0.025": 0.0
		}
	}
}
