{
	 "smiles": "CC(C)C(=O)NC1=C(C(O)=O)C(F)=CC=C1", 
	 "Tm": 402.15, 
	 "num_atms": 28, 
	 "gaussian": { 
		 "optdone": 1, 
		 "sigma_profile": "yes", 
		 "theory": "DFT", 
		 "functional": "B3LYP", 
		 "basiset": "6-31G**", 
		 "properties": { 
			 "R2extent": 4515.8488, 
			 "electric_dipole_moment_norm": 3.67409826352, 
			 "electric_quadrupole_moment_norm": 13.3062693596, 
			 "total_energy": -806.694571014, 
			 "HOMO_LUMO_gap": 0.19711, 
			 "cosmo_polarized_energy": -19.12, 
			 "cosmo_cavitation_energy": 32.63, 
			 "cosmo_dispersion_energy": -22.53, 
			 "cosmo_repulsion_energy": 1.75, 
			 "cosmo_total_nonelectrostatic_energy": 11.85, 
			 "SMD_solvation_energy": 7.41 
		},
		"coords": [
			{
				"x": -0.2173520181,
				"y": 2.344462466,
				"z": 3.4048035287,
				"element": "C" 
			},
			{
				"x": -0.3274444314,
				"y": 1.0197310619,
				"z": 2.638005666,
				"element": "C" 
			},
			{
				"x": -1.4877910084,
				"y": 0.1520849121,
				"z": 3.1638113491,
				"element": "C" 
			},
			{
				"x": -0.5737024895,
				"y": 1.2928709563,
				"z": 1.1532805284,
				"element": "C" 
			},
			{
				"x": -1.43910223,
				"y": 2.0614945371,
				"z": 0.7631095697,
				"element": "O" 
			},
			{
				"x": 0.2296042786,
				"y": 0.5701153162,
				"z": 0.2902157837,
				"element": "N" 
			},
			{
				"x": 0.1933031355,
				"y": 0.6151820304,
				"z": -1.1197043702,
				"element": "C" 
			},
			{
				"x": -1.020162017,
				"y": 0.5958507373,
				"z": -1.8401652844,
				"element": "C" 
			},
			{
				"x": -2.3367279922,
				"y": 0.3620927182,
				"z": -1.1639909421,
				"element": "C" 
			},
			{
				"x": -3.3068742668,
				"y": 1.1770861106,
				"z": -1.6140663343,
				"element": "O" 
			},
			{
				"x": -2.5269356084,
				"y": -0.5010526681,
				"z": -0.3326206459,
				"element": "O" 
			},
			{
				"x": -0.9399479961,
				"y": 0.6602527068,
				"z": -3.2359294979,
				"element": "C" 
			},
			{
				"x": -2.0751519467,
				"y": 0.6163043142,
				"z": -3.9564574811,
				"element": "F" 
			},
			{
				"x": 0.2635627618,
				"y": 0.7136591536,
				"z": -3.9277493164,
				"element": "C" 
			},
			{
				"x": 1.448243567,
				"y": 0.710506114,
				"z": -3.1954609157,
				"element": "C" 
			},
			{
				"x": 1.4140132206,
				"y": 0.6737876909,
				"z": -1.8039523979,
				"element": "C" 
			},
			{
				"x": 0.6500227228,
				"y": 2.928032003,
				"z": 3.0791607879,
				"element": "H" 
			},
			{
				"x": -0.1189270068,
				"y": 2.1585790116,
				"z": 4.4788649462,
				"element": "H" 
			},
			{
				"x": -1.1124637463,
				"y": 2.9478983949,
				"z": 3.2331530054,
				"element": "H" 
			},
			{
				"x": 0.6093125689,
				"y": 0.4570007871,
				"z": 2.7557331424,
				"element": "H" 
			},
			{
				"x": -2.4324243746,
				"y": 0.6942986975,
				"z": 3.0649249856,
				"element": "H" 
			},
			{
				"x": -1.3330294343,
				"y": -0.090524204,
				"z": 4.2199831834,
				"element": "H" 
			},
			{
				"x": -1.5778654769,
				"y": -0.7804922381,
				"z": 2.5992621252,
				"element": "H" 
			},
			{
				"x": 1.0069034266,
				"y": 0.0709410073,
				"z": 0.6967695356,
				"element": "H" 
			},
			{
				"x": -4.1061674406,
				"y": 0.9386836218,
				"z": -1.114794937,
				"element": "H" 
			},
			{
				"x": 0.2505780579,
				"y": 0.7486316837,
				"z": -5.0109683972,
				"element": "H" 
			},
			{
				"x": 2.4025978873,
				"y": 0.7514943361,
				"z": -3.7110068192,
				"element": "H" 
			},
			{
				"x": 2.3370278574,
				"y": 0.7094287418,
				"z": -1.2329107981,
				"element": "H" 
			}
		],
		 "valence_orbital": [ 
			{
				"type": "occ",
				"energy": -0.30071,
				"method": "rhf"
			},
			{
				"type": "occ",
				"energy": -0.2758,
				"method": "rhf"
			},
			{
				"type": "occ",
				"energy": -0.25809,
				"method": "rhf"
			},
			{
				"type": "occ",
				"energy": -0.2522,
				"method": "rhf"
			},
			{
				"type": "occ",
				"energy": -0.23766,
				"method": "rhf"
			},
			{
				"type": "unocc",
				"energy": -0.04055,
				"method": "rhf"
			},
			{
				"type": "unocc",
				"energy": -0.01518,
				"method": "rhf"
			},
			{
				"type": "unocc",
				"energy": 0.03155,
				"method": "rhf"
			},
			{
				"type": "unocc",
				"energy": 0.03689,
				"method": "rhf"
			},
			{
				"type": "unocc",
				"energy": 0.06421,
				"method": "rhf"
			}
		],
		"cosmo_sigma_profile": { 
			"-0.025": 0.0,
			"-0.024": 0.0,
			"-0.023": 0.0,
			"-0.022": 0.0,
			"-0.021": 0.0,
			"-0.02": 0.0,
			"-0.019": 0.17361543474,
			"-0.018": 0.704357535727,
			"-0.017": 0.935589469319,
			"-0.016": 0.936059407465,
			"-0.015": 2.48972660415,
			"-0.014": 2.17183019606,
			"-0.013": 1.24956596206,
			"-0.012": 2.09943122895,
			"-0.011": 2.91415521636,
			"-0.01": 1.83045972689,
			"-0.009": 1.94013594696,
			"-0.008": 4.46384894676,
			"-0.007": 7.54836430898,
			"-0.006": 8.48150678497,
			"-0.005": 8.07305044237,
			"-0.004": 12.0087023965,
			"-0.003": 20.3318997862,
			"-0.002": 19.3654668602,
			"-0.001": 20.6452777541,
			"0.0": 23.5524215585,
			"0.001": 22.9785765373,
			"0.002": 16.438338861,
			"0.003": 15.4390573839,
			"0.004": 11.0211908505,
			"0.005": 7.03855437893,
			"0.006": 6.27704905439,
			"0.007": 6.6157230508,
			"0.008": 6.38559493767,
			"0.009": 5.6668884695,
			"0.01": 4.62200785844,
			"0.011": 5.07688118621,
			"0.012": 5.24848162774,
			"0.013": 2.730390343,
			"0.014": 0.402774842339,
			"0.015": 0.0,
			"0.016": 0.0,
			"0.017": 0.0,
			"0.018": 0.0,
			"0.019": 0.0,
			"0.02": 0.0,
			"0.021": 0.0,
			"0.022": 0.0,
			"0.023": 0.0,
			"0.024": 0.0,
			"0.025": 0.0
		}
	}
}
