{
	 "smiles": "CCCCN(CC)C1=CC=C(C=C1)C(O)=O", 
	 "Tm": 411.15, 
	 "num_atms": 35, 
	 "gaussian": { 
		 "optdone": 1, 
		 "sigma_profile": "yes", 
		 "theory": "DFT", 
		 "functional": "B3LYP", 
		 "basiset": "6-31G**", 
		 "properties": { 
			 "R2extent": 5368.1466, 
			 "electric_dipole_moment_norm": 5.74525375419, 
			 "electric_quadrupole_moment_norm": 26.7012108712, 
			 "total_energy": -712.046214955, 
			 "HOMO_LUMO_gap": 0.17435, 
			 "cosmo_polarized_energy": -14.48, 
			 "cosmo_cavitation_energy": 36.73, 
			 "cosmo_dispersion_energy": -25.32, 
			 "cosmo_repulsion_energy": 2.01, 
			 "cosmo_total_nonelectrostatic_energy": 13.42, 
			 "SMD_solvation_energy": 6.83 
		},
		"coords": [
			{
				"x": -2.7932278445,
				"y": -1.6118114713,
				"z": 2.4724036969,
				"element": "C" 
			},
			{
				"x": -1.9610884654,
				"y": -2.5910539962,
				"z": 1.6362594482,
				"element": "C" 
			},
			{
				"x": -2.185368452,
				"y": -2.4801776687,
				"z": 0.1199885262,
				"element": "C" 
			},
			{
				"x": -1.744096552,
				"y": -1.1445502069,
				"z": -0.5022361456,
				"element": "C" 
			},
			{
				"x": -0.3130152174,
				"y": -0.8636187249,
				"z": -0.3005915061,
				"element": "N" 
			},
			{
				"x": 0.5437420627,
				"y": -1.6331167727,
				"z": -1.2297208592,
				"element": "C" 
			},
			{
				"x": 1.999789644,
				"y": -1.7981053687,
				"z": -0.7989087499,
				"element": "C" 
			},
			{
				"x": 0.0289211838,
				"y": 0.5136812022,
				"z": -0.1779560666,
				"element": "C" 
			},
			{
				"x": -0.6612720533,
				"y": 1.5280491474,
				"z": -0.8653646595,
				"element": "C" 
			},
			{
				"x": -0.3128304805,
				"y": 2.8665217446,
				"z": -0.6994673884,
				"element": "C" 
			},
			{
				"x": 0.7443052746,
				"y": 3.2330983224,
				"z": 0.1443873325,
				"element": "C" 
			},
			{
				"x": 1.4509877427,
				"y": 2.2223979329,
				"z": 0.8130041682,
				"element": "C" 
			},
			{
				"x": 1.0888593426,
				"y": 0.8899146885,
				"z": 0.66888193,
				"element": "C" 
			},
			{
				"x": 1.1814579036,
				"y": 4.6479366082,
				"z": 0.3524938786,
				"element": "C" 
			},
			{
				"x": 0.2828505479,
				"y": 5.6215533324,
				"z": 0.0343807354,
				"element": "O" 
			},
			{
				"x": 2.2704889647,
				"y": 4.9535419542,
				"z": 0.7804741774,
				"element": "O" 
			},
			{
				"x": -2.5228869114,
				"y": -0.5699272162,
				"z": 2.271379271,
				"element": "H" 
			},
			{
				"x": -2.6406996393,
				"y": -1.7838342193,
				"z": 3.5428287715,
				"element": "H" 
			},
			{
				"x": -3.8648724452,
				"y": -1.7238945413,
				"z": 2.2684380586,
				"element": "H" 
			},
			{
				"x": -2.1978374674,
				"y": -3.6168610004,
				"z": 1.9454482509,
				"element": "H" 
			},
			{
				"x": -0.8965409122,
				"y": -2.4386488479,
				"z": 1.8466975283,
				"element": "H" 
			},
			{
				"x": -3.2527079216,
				"y": -2.6085344685,
				"z": -0.107881271,
				"element": "H" 
			},
			{
				"x": -1.6736943231,
				"y": -3.3116764341,
				"z": -0.38033075,
				"element": "H" 
			},
			{
				"x": -2.0165464564,
				"y": -1.1392505255,
				"z": -1.5729713894,
				"element": "H" 
			},
			{
				"x": -2.3092771064,
				"y": -0.3352144117,
				"z": -0.0327617583,
				"element": "H" 
			},
			{
				"x": 0.5057012886,
				"y": -1.1870379602,
				"z": -2.2399832447,
				"element": "H" 
			},
			{
				"x": 0.0967558039,
				"y": -2.6274467314,
				"z": -1.3127760333,
				"element": "H" 
			},
			{
				"x": 2.0642455842,
				"y": -2.2479181981,
				"z": 0.1967635685,
				"element": "H" 
			},
			{
				"x": 2.538067076,
				"y": -0.8473636981,
				"z": -0.7847876063,
				"element": "H" 
			},
			{
				"x": 2.5128624776,
				"y": -2.4576136621,
				"z": -1.5066740056,
				"element": "H" 
			},
			{
				"x": -1.4643351738,
				"y": 1.2697292295,
				"z": -1.5474896084,
				"element": "H" 
			},
			{
				"x": -0.8466548287,
				"y": 3.6153668807,
				"z": -1.2809690641,
				"element": "H" 
			},
			{
				"x": 2.2700991106,
				"y": 2.5104074222,
				"z": 1.4632955147,
				"element": "H" 
			},
			{
				"x": 1.6022936304,
				"y": 0.1205971589,
				"z": 1.2343630966,
				"element": "H" 
			},
			{
				"x": -0.5859753876,
				"y": 5.2294604999,
				"z": -0.128017847,
				"element": "H" 
			}
		],
		 "valence_orbital": [ 
			{
				"type": "occ",
				"energy": -0.31034,
				"method": "rhf"
			},
			{
				"type": "occ",
				"energy": -0.27499,
				"method": "rhf"
			},
			{
				"type": "occ",
				"energy": -0.26844,
				"method": "rhf"
			},
			{
				"type": "occ",
				"energy": -0.2629,
				"method": "rhf"
			},
			{
				"type": "occ",
				"energy": -0.21904,
				"method": "rhf"
			},
			{
				"type": "unocc",
				"energy": -0.04469,
				"method": "rhf"
			},
			{
				"type": "unocc",
				"energy": -0.01814,
				"method": "rhf"
			},
			{
				"type": "unocc",
				"energy": 0.05219,
				"method": "rhf"
			},
			{
				"type": "unocc",
				"energy": 0.0646,
				"method": "rhf"
			},
			{
				"type": "unocc",
				"energy": 0.07745,
				"method": "rhf"
			}
		],
		"cosmo_sigma_profile": { 
			"-0.025": 0.0,
			"-0.024": 0.0,
			"-0.023": 0.0,
			"-0.022": 0.0,
			"-0.021": 0.0,
			"-0.02": 0.0,
			"-0.019": 0.116864190979,
			"-0.018": 0.693315119025,
			"-0.017": 0.694145173937,
			"-0.016": 1.16748266651,
			"-0.015": 1.02109570765,
			"-0.014": 0.653034654917,
			"-0.013": 0.734934863264,
			"-0.012": 1.44760616888,
			"-0.011": 1.18262551518,
			"-0.01": 1.44493388049,
			"-0.009": 0.931260778135,
			"-0.008": 1.36396852099,
			"-0.007": 2.6134383974,
			"-0.006": 4.93235992913,
			"-0.005": 7.98960383182,
			"-0.004": 12.096857885,
			"-0.003": 26.2305813578,
			"-0.002": 38.7896192652,
			"-0.001": 40.2842398442,
			"0.0": 35.1541310135,
			"0.001": 29.9264972826,
			"0.002": 17.958621926,
			"0.003": 13.9642416467,
			"0.004": 11.3295994832,
			"0.005": 3.67482092824,
			"0.006": 3.20583654085,
			"0.007": 3.98298563876,
			"0.008": 3.34167572892,
			"0.009": 2.7034383345,
			"0.01": 4.57212524461,
			"0.011": 4.99892339751,
			"0.012": 5.74384188314,
			"0.013": 2.36082894796,
			"0.014": 0.338621541944,
			"0.015": 0.0,
			"0.016": 0.0,
			"0.017": 0.0,
			"0.018": 0.0,
			"0.019": 0.0,
			"0.02": 0.0,
			"0.021": 0.0,
			"0.022": 0.0,
			"0.023": 0.0,
			"0.024": 0.0,
			"0.025": 0.0
		}
	}
}
