{
	 "smiles": "CN1C=CN=C1C(O)CCC1=CC=CC=C1", 
	 "Tm": 375.15, 
	 "num_atms": 32, 
	 "gaussian": { 
		 "optdone": 1, 
		 "sigma_profile": "yes", 
		 "theory": "DFT", 
		 "functional": "B3LYP", 
		 "basiset": "6-31G**", 
		 "properties": { 
			 "R2extent": 4870.0458, 
			 "electric_dipole_moment_norm": 2.38329749926, 
			 "electric_quadrupole_moment_norm": 14.7985365993, 
			 "total_energy": -689.750441875, 
			 "HOMO_LUMO_gap": 0.2218, 
			 "cosmo_polarized_energy": -12.53, 
			 "cosmo_cavitation_energy": 34.73, 
			 "cosmo_dispersion_energy": -23.63, 
			 "cosmo_repulsion_energy": 1.85, 
			 "cosmo_total_nonelectrostatic_energy": 12.95, 
			 "SMD_solvation_energy": 4.9 
		},
		"coords": [
			{
				"x": -1.8985475715,
				"y": 1.5065352054,
				"z": -3.6433577213,
				"element": "C" 
			},
			{
				"x": -1.4398252886,
				"y": 0.1247058598,
				"z": -3.5859967682,
				"element": "N" 
			},
			{
				"x": -1.2515962139,
				"y": -0.721564143,
				"z": -4.6583500091,
				"element": "C" 
			},
			{
				"x": -0.8092592583,
				"y": -1.9075889018,
				"z": -4.1265731124,
				"element": "C" 
			},
			{
				"x": -0.7213869264,
				"y": -1.8147416471,
				"z": -2.7588185117,
				"element": "N" 
			},
			{
				"x": -1.0996018554,
				"y": -0.5822190729,
				"z": -2.4578082221,
				"element": "C" 
			},
			{
				"x": -1.2151390043,
				"y": -0.0010774775,
				"z": -1.0724264272,
				"element": "C" 
			},
			{
				"x": -2.5891221204,
				"y": 0.3114088999,
				"z": -0.772667693,
				"element": "O" 
			},
			{
				"x": -0.6087972152,
				"y": -0.9009255822,
				"z": 0.0095627001,
				"element": "C" 
			},
			{
				"x": 0.9251800825,
				"y": -1.0679755051,
				"z": -0.0557125249,
				"element": "C" 
			},
			{
				"x": 1.6971418881,
				"y": 0.2313990652,
				"z": 0.057444963,
				"element": "C" 
			},
			{
				"x": 2.3208212419,
				"y": 0.8004988165,
				"z": -1.0616837908,
				"element": "C" 
			},
			{
				"x": 3.0208908177,
				"y": 2.0051874565,
				"z": -0.9611558993,
				"element": "C" 
			},
			{
				"x": 3.1098424551,
				"y": 2.6637710419,
				"z": 0.2656743836,
				"element": "C" 
			},
			{
				"x": 2.4953740169,
				"y": 2.1077134553,
				"z": 1.3904112905,
				"element": "C" 
			},
			{
				"x": 1.7976719659,
				"y": 0.9046560113,
				"z": 1.284618522,
				"element": "C" 
			},
			{
				"x": -1.0557049754,
				"y": 2.2059953046,
				"z": -3.6235258654,
				"element": "H" 
			},
			{
				"x": -2.5514945164,
				"y": 1.6999966753,
				"z": -2.7911780212,
				"element": "H" 
			},
			{
				"x": -2.4593199406,
				"y": 1.6592200168,
				"z": -4.567535559,
				"element": "H" 
			},
			{
				"x": -1.4524504414,
				"y": -0.4065172031,
				"z": -5.6714330595,
				"element": "H" 
			},
			{
				"x": -0.5554991453,
				"y": -2.8189552016,
				"z": -4.6502494644,
				"element": "H" 
			},
			{
				"x": -0.7139824732,
				"y": 0.9731620801,
				"z": -1.0422033986,
				"element": "H" 
			},
			{
				"x": -3.0833231104,
				"y": -0.5190704722,
				"z": -0.8256866715,
				"element": "H" 
			},
			{
				"x": -0.8988348001,
				"y": -0.4646227522,
				"z": 0.9720710896,
				"element": "H" 
			},
			{
				"x": -1.0693555785,
				"y": -1.8933788385,
				"z": -0.0588861323,
				"element": "H" 
			},
			{
				"x": 1.2209769168,
				"y": -1.7373856434,
				"z": 0.7616582285,
				"element": "H" 
			},
			{
				"x": 1.1796667873,
				"y": -1.5766963496,
				"z": -0.9890476966,
				"element": "H" 
			},
			{
				"x": 2.2610161192,
				"y": 0.2882616504,
				"z": -2.0189442663,
				"element": "H" 
			},
			{
				"x": 3.5005525415,
				"y": 2.4254378341,
				"z": -1.8411350921,
				"element": "H" 
			},
			{
				"x": 3.6565671312,
				"y": 3.5989399565,
				"z": 0.3472756734,
				"element": "H" 
			},
			{
				"x": 2.5641979623,
				"y": 2.6094348095,
				"z": 2.3518649376,
				"element": "H" 
			},
			{
				"x": 1.3290405091,
				"y": 0.4761946509,
				"z": 2.1678941187,
				"element": "H" 
			}
		],
		 "valence_orbital": [ 
			{
				"type": "occ",
				"energy": -0.26575,
				"method": "rhf"
			},
			{
				"type": "occ",
				"energy": -0.25985,
				"method": "rhf"
			},
			{
				"type": "occ",
				"energy": -0.24401,
				"method": "rhf"
			},
			{
				"type": "occ",
				"energy": -0.23509,
				"method": "rhf"
			},
			{
				"type": "occ",
				"energy": -0.21903,
				"method": "rhf"
			},
			{
				"type": "unocc",
				"energy": 0.00277,
				"method": "rhf"
			},
			{
				"type": "unocc",
				"energy": 0.00473,
				"method": "rhf"
			},
			{
				"type": "unocc",
				"energy": 0.01979,
				"method": "rhf"
			},
			{
				"type": "unocc",
				"energy": 0.06771,
				"method": "rhf"
			},
			{
				"type": "unocc",
				"energy": 0.08875,
				"method": "rhf"
			}
		],
		"cosmo_sigma_profile": { 
			"-0.025": 0.0,
			"-0.024": 0.0,
			"-0.023": 0.0,
			"-0.022": 0.0,
			"-0.021": 0.0,
			"-0.02": 0.0,
			"-0.019": 0.0,
			"-0.018": 0.0,
			"-0.017": 0.0,
			"-0.016": 0.061979963851,
			"-0.015": 0.793664325422,
			"-0.014": 0.794730280727,
			"-0.013": 0.795002866098,
			"-0.012": 0.846953545615,
			"-0.011": 1.06528586034,
			"-0.01": 0.788555777575,
			"-0.009": 0.396099972835,
			"-0.008": 3.3371563478,
			"-0.007": 5.25722269637,
			"-0.006": 7.59271257439,
			"-0.005": 18.8706994944,
			"-0.004": 23.4433620664,
			"-0.003": 33.0071993593,
			"-0.002": 24.8622824345,
			"-0.001": 21.7322568029,
			"0.0": 21.2978752581,
			"0.001": 16.5987279461,
			"0.002": 13.3224873209,
			"0.003": 13.8107188764,
			"0.004": 14.2564131288,
			"0.005": 13.7085579565,
			"0.006": 13.782785631,
			"0.007": 6.51530252495,
			"0.008": 2.13417915013,
			"0.009": 2.54323090056,
			"0.01": 3.36606198113,
			"0.011": 1.45929207645,
			"0.012": 2.4515495857,
			"0.013": 1.69213653769,
			"0.014": 1.94518499716,
			"0.015": 0.850242994665,
			"0.016": 0.554492306098,
			"0.017": 0.405453300395,
			"0.018": 0.00978129788055,
			"0.019": 0.0,
			"0.02": 0.0,
			"0.021": 0.0,
			"0.022": 0.0,
			"0.023": 0.0,
			"0.024": 0.0,
			"0.025": 0.0
		}
	}
}
