{
	 "smiles": "CCCCC1=C(C)N=C(N=C1O)N(C)C", 
	 "Tm": 375.15, 
	 "num_atms": 34, 
	 "gaussian": { 
		 "optdone": 1, 
		 "sigma_profile": "yes", 
		 "theory": "DFT", 
		 "functional": "B3LYP", 
		 "basiset": "6-31G**", 
		 "properties": { 
			 "R2extent": 4686.1526, 
			 "electric_dipole_moment_norm": 0.950115324579, 
			 "electric_quadrupole_moment_norm": 8.67909944637, 
			 "total_energy": -670.14283126, 
			 "HOMO_LUMO_gap": 0.19048, 
			 "cosmo_polarized_energy": -7.69, 
			 "cosmo_cavitation_energy": 35.87, 
			 "cosmo_dispersion_energy": -25.48, 
			 "cosmo_repulsion_energy": 2.05, 
			 "cosmo_total_nonelectrostatic_energy": 12.43, 
			 "SMD_solvation_energy": 4.64 
		},
		"coords": [
			{
				"x": 3.8793101322,
				"y": 3.3913366798,
				"z": 2.1604959918,
				"element": "C" 
			},
			{
				"x": 3.6177262178,
				"y": 1.888226747,
				"z": 2.0208836495,
				"element": "C" 
			},
			{
				"x": 2.2671088921,
				"y": 1.5689716054,
				"z": 1.3687545594,
				"element": "C" 
			},
			{
				"x": 2.0023555031,
				"y": 0.0550794424,
				"z": 1.2341750044,
				"element": "C" 
			},
			{
				"x": 0.671390294,
				"y": -0.2766157422,
				"z": 0.6024208047,
				"element": "C" 
			},
			{
				"x": 0.4780761721,
				"y": -0.567613945,
				"z": -0.7557261475,
				"element": "C" 
			},
			{
				"x": 1.6331398569,
				"y": -0.5998758431,
				"z": -1.7282268115,
				"element": "C" 
			},
			{
				"x": -0.7261977471,
				"y": -0.8411681703,
				"z": -1.2811030908,
				"element": "N" 
			},
			{
				"x": -1.7823942013,
				"y": -0.8318881483,
				"z": -0.4474894491,
				"element": "C" 
			},
			{
				"x": -1.7189549592,
				"y": -0.5555805566,
				"z": 0.8729385164,
				"element": "N" 
			},
			{
				"x": -0.5130878709,
				"y": -0.2889358832,
				"z": 1.3566962457,
				"element": "C" 
			},
			{
				"x": -0.4414376718,
				"y": -0.0097043392,
				"z": 2.6790371897,
				"element": "O" 
			},
			{
				"x": -3.0135954956,
				"y": -1.1344465203,
				"z": -0.972426213,
				"element": "N" 
			},
			{
				"x": -3.1979479549,
				"y": -1.3638856052,
				"z": -2.3941234562,
				"element": "C" 
			},
			{
				"x": -4.2237836482,
				"y": -1.0749404413,
				"z": -0.1746751273,
				"element": "C" 
			},
			{
				"x": 3.8769990408,
				"y": 3.8867638223,
				"z": 1.1827345741,
				"element": "H" 
			},
			{
				"x": 3.108676867,
				"y": 3.8714667823,
				"z": 2.7742942201,
				"element": "H" 
			},
			{
				"x": 4.8487759844,
				"y": 3.5881266508,
				"z": 2.6301650091,
				"element": "H" 
			},
			{
				"x": 3.6603701184,
				"y": 1.4152256242,
				"z": 3.0114542103,
				"element": "H" 
			},
			{
				"x": 4.4236841068,
				"y": 1.4293515029,
				"z": 1.4313327138,
				"element": "H" 
			},
			{
				"x": 2.2187805977,
				"y": 2.0373199404,
				"z": 0.3758802296,
				"element": "H" 
			},
			{
				"x": 1.4585597957,
				"y": 2.0175230921,
				"z": 1.9595895342,
				"element": "H" 
			},
			{
				"x": 2.812581156,
				"y": -0.4009953218,
				"z": 0.6539437693,
				"element": "H" 
			},
			{
				"x": 2.0458329598,
				"y": -0.3962905319,
				"z": 2.2323301014,
				"element": "H" 
			},
			{
				"x": 2.2015210041,
				"y": 0.3359255171,
				"z": -1.7105702143,
				"element": "H" 
			},
			{
				"x": 2.3335394953,
				"y": -1.4069754509,
				"z": -1.483382958,
				"element": "H" 
			},
			{
				"x": 1.2513304097,
				"y": -0.7652045385,
				"z": -2.7362935258,
				"element": "H" 
			},
			{
				"x": -1.3508161704,
				"y": -0.077511819,
				"z": 3.0112650006,
				"element": "H" 
			},
			{
				"x": -3.7624175635,
				"y": -2.2913936832,
				"z": -2.5536426444,
				"element": "H" 
			},
			{
				"x": -3.7620728816,
				"y": -0.5407179905,
				"z": -2.8565354656,
				"element": "H" 
			},
			{
				"x": -2.2254365006,
				"y": -1.4417786831,
				"z": -2.8744445772,
				"element": "H" 
			},
			{
				"x": -4.8491157411,
				"y": -0.2174881675,
				"z": -0.4644645386,
				"element": "H" 
			},
			{
				"x": -3.9641166779,
				"y": -0.981593016,
				"z": 0.8771761041,
				"element": "H" 
			},
			{
				"x": -4.8145835199,
				"y": -1.9876130099,
				"z": -0.3233632088,
				"element": "H" 
			}
		],
		 "valence_orbital": [ 
			{
				"type": "occ",
				"energy": -0.29661,
				"method": "rhf"
			},
			{
				"type": "occ",
				"energy": -0.28037,
				"method": "rhf"
			},
			{
				"type": "occ",
				"energy": -0.25904,
				"method": "rhf"
			},
			{
				"type": "occ",
				"energy": -0.23757,
				"method": "rhf"
			},
			{
				"type": "occ",
				"energy": -0.19537,
				"method": "rhf"
			},
			{
				"type": "unocc",
				"energy": -0.00489,
				"method": "rhf"
			},
			{
				"type": "unocc",
				"energy": 0.0197,
				"method": "rhf"
			},
			{
				"type": "unocc",
				"energy": 0.08238,
				"method": "rhf"
			},
			{
				"type": "unocc",
				"energy": 0.09677,
				"method": "rhf"
			},
			{
				"type": "unocc",
				"energy": 0.10253,
				"method": "rhf"
			}
		],
		"cosmo_sigma_profile": { 
			"-0.025": 0.0,
			"-0.024": 0.0,
			"-0.023": 0.0,
			"-0.022": 0.0,
			"-0.021": 0.0,
			"-0.02": 0.0,
			"-0.019": 0.0,
			"-0.018": 0.0,
			"-0.017": 0.191898799017,
			"-0.016": 0.995893991648,
			"-0.015": 0.758735662304,
			"-0.014": 0.48307654674,
			"-0.013": 0.632220920574,
			"-0.012": 0.838888412367,
			"-0.011": 0.312452023637,
			"-0.01": 0.667985979147,
			"-0.009": 0.920549400778,
			"-0.008": 0.856957897846,
			"-0.007": 0.35448138807,
			"-0.006": 0.198426645911,
			"-0.005": 2.76943248705,
			"-0.004": 16.646186492,
			"-0.003": 25.3392214863,
			"-0.002": 40.2898781977,
			"-0.001": 42.0354732678,
			"0.0": 35.5106482473,
			"0.001": 35.1874289488,
			"0.002": 23.8812999213,
			"0.003": 11.7717663211,
			"0.004": 9.50418839456,
			"0.005": 6.49090421701,
			"0.006": 6.79751458704,
			"0.007": 4.62598862428,
			"0.008": 4.14037449607,
			"0.009": 4.21626221828,
			"0.01": 2.06733077535,
			"0.011": 1.209353743,
			"0.012": 0.0565959321516,
			"0.013": 0.0,
			"0.014": 0.0,
			"0.015": 0.0,
			"0.016": 0.0,
			"0.017": 0.0,
			"0.018": 0.0,
			"0.019": 0.0,
			"0.02": 0.0,
			"0.021": 0.0,
			"0.022": 0.0,
			"0.023": 0.0,
			"0.024": 0.0,
			"0.025": 0.0
		}
	}
}
