{
	 "smiles": "ClCC(=O)C1=CC2=C(OCC(=O)N2)C=C1", 
	 "Tm": 502.15, 
	 "num_atms": 23, 
	 "gaussian": { 
		 "optdone": 1, 
		 "sigma_profile": "yes", 
		 "theory": "DFT", 
		 "functional": "B3LYP", 
		 "basiset": "6-31G**", 
		 "properties": { 
			 "R2extent": 5757.0451, 
			 "electric_dipole_moment_norm": 2.77216908034, 
			 "electric_quadrupole_moment_norm": 28.8614362801, 
			 "total_energy": -1126.50214695, 
			 "HOMO_LUMO_gap": 0.16716, 
			 "cosmo_polarized_energy": -20.66, 
			 "cosmo_cavitation_energy": 29.62, 
			 "cosmo_dispersion_energy": -22.19, 
			 "cosmo_repulsion_energy": 1.73, 
			 "cosmo_total_nonelectrostatic_energy": 9.16, 
			 "SMD_solvation_energy": 6.07 
		},
		"coords": [
			{
				"x": 0.643266674,
				"y": -0.3736581233,
				"z": 6.302903879,
				"element": "Cl" 
			},
			{
				"x": 0.3023317696,
				"y": -0.4892849431,
				"z": 4.5509028199,
				"element": "C" 
			},
			{
				"x": 0.8352729543,
				"y": 0.7070585447,
				"z": 3.7500517767,
				"element": "C" 
			},
			{
				"x": 1.4264678959,
				"y": 1.6234981015,
				"z": 4.2870986225,
				"element": "O" 
			},
			{
				"x": 0.5919420258,
				"y": 0.6896073086,
				"z": 2.2747604388,
				"element": "C" 
			},
			{
				"x": -0.0863339958,
				"y": -0.3509767234,
				"z": 1.617838565,
				"element": "C" 
			},
			{
				"x": -0.283490202,
				"y": -0.3050875177,
				"z": 0.2400932341,
				"element": "C" 
			},
			{
				"x": 0.2154035097,
				"y": 0.7831507997,
				"z": -0.4995296994,
				"element": "C" 
			},
			{
				"x": -0.0012861178,
				"y": 0.8656490395,
				"z": -1.8420528228,
				"element": "O" 
			},
			{
				"x": -0.1550269195,
				"y": -0.3766908956,
				"z": -2.5374816418,
				"element": "C" 
			},
			{
				"x": -1.0241393332,
				"y": -1.4042322311,
				"z": -1.8182263132,
				"element": "C" 
			},
			{
				"x": -1.6351354799,
				"y": -2.2734681625,
				"z": -2.4134863286,
				"element": "O" 
			},
			{
				"x": -1.0037348618,
				"y": -1.2938094247,
				"z": -0.4503845294,
				"element": "N" 
			},
			{
				"x": 0.8897484678,
				"y": 1.8190589597,
				"z": 0.146663876,
				"element": "C" 
			},
			{
				"x": 1.0720452893,
				"y": 1.7742276662,
				"z": 1.5234678243,
				"element": "C" 
			},
			{
				"x": -0.7811683857,
				"y": -0.5677811161,
				"z": 4.428555746,
				"element": "H" 
			},
			{
				"x": 0.7546200208,
				"y": -1.4149773327,
				"z": 4.1854604747,
				"element": "H" 
			},
			{
				"x": -0.4778892348,
				"y": -1.2024779662,
				"z": 2.16620156,
				"element": "H" 
			},
			{
				"x": 0.8312022382,
				"y": -0.8278435146,
				"z": -2.7230755031,
				"element": "H" 
			},
			{
				"x": -0.6174674769,
				"y": -0.1462173963,
				"z": -3.4969409105,
				"element": "H" 
			},
			{
				"x": -1.5214356848,
				"y": -1.9963777616,
				"z": 0.0622835279,
				"element": "H" 
			},
			{
				"x": 1.2552426336,
				"y": 2.6488119058,
				"z": -0.4487998202,
				"element": "H" 
			},
			{
				"x": 1.5944642132,
				"y": 2.568520783,
				"z": 2.0441952242,
				"element": "H" 
			}
		],
		 "valence_orbital": [ 
			{
				"type": "occ",
				"energy": -0.30179,
				"method": "rhf"
			},
			{
				"type": "occ",
				"energy": -0.28071,
				"method": "rhf"
			},
			{
				"type": "occ",
				"energy": -0.26807,
				"method": "rhf"
			},
			{
				"type": "occ",
				"energy": -0.26518,
				"method": "rhf"
			},
			{
				"type": "occ",
				"energy": -0.23657,
				"method": "rhf"
			},
			{
				"type": "unocc",
				"energy": -0.06941,
				"method": "rhf"
			},
			{
				"type": "unocc",
				"energy": -0.03578,
				"method": "rhf"
			},
			{
				"type": "unocc",
				"energy": 2e-05,
				"method": "rhf"
			},
			{
				"type": "unocc",
				"energy": 0.01986,
				"method": "rhf"
			},
			{
				"type": "unocc",
				"energy": 0.03538,
				"method": "rhf"
			}
		],
		"cosmo_sigma_profile": { 
			"-0.025": 0.0,
			"-0.024": 0.0,
			"-0.023": 0.0,
			"-0.022": 0.0,
			"-0.021": 0.0,
			"-0.02": 0.0,
			"-0.019": 0.0,
			"-0.018": 0.0,
			"-0.017": 0.0,
			"-0.016": 0.762689784528,
			"-0.015": 1.51381748865,
			"-0.014": 1.86173168317,
			"-0.013": 1.20849162515,
			"-0.012": 0.775172083769,
			"-0.011": 1.15926268959,
			"-0.01": 4.59382788883,
			"-0.009": 9.7257512328,
			"-0.008": 11.0400315902,
			"-0.007": 11.058371783,
			"-0.006": 11.5862371359,
			"-0.005": 11.9343475983,
			"-0.004": 10.1907432513,
			"-0.003": 9.92544600657,
			"-0.002": 10.6401692206,
			"-0.001": 12.1389713229,
			"0.0": 15.6329632768,
			"0.001": 15.6126391529,
			"0.002": 17.0792867068,
			"0.003": 14.2151887911,
			"0.004": 7.78513089607,
			"0.005": 9.19042249897,
			"0.006": 10.3088725387,
			"0.007": 5.78392890428,
			"0.008": 5.36614106011,
			"0.009": 4.33359972883,
			"0.01": 4.24820657903,
			"0.011": 7.12441258702,
			"0.012": 7.23850598813,
			"0.013": 4.92660655685,
			"0.014": 0.192897553194,
			"0.015": 0.0,
			"0.016": 0.0,
			"0.017": 0.0,
			"0.018": 0.0,
			"0.019": 0.0,
			"0.02": 0.0,
			"0.021": 0.0,
			"0.022": 0.0,
			"0.023": 0.0,
			"0.024": 0.0,
			"0.025": 0.0
		}
	}
}
