{
	 "smiles": "NC1=C(C=CC(=C1)C(F)(F)F)N1C=CC=N1", 
	 "Tm": 317.15, 
	 "num_atms": 24, 
	 "gaussian": { 
		 "optdone": 1, 
		 "sigma_profile": "yes", 
		 "theory": "DFT", 
		 "functional": "B3LYP", 
		 "basiset": "6-31G**", 
		 "properties": { 
			 "R2extent": 4829.8932, 
			 "electric_dipole_moment_norm": 2.90848721675, 
			 "electric_quadrupole_moment_norm": 13.3386656218, 
			 "total_energy": -849.650169654, 
			 "HOMO_LUMO_gap": 0.17448, 
			 "cosmo_polarized_energy": -9.16, 
			 "cosmo_cavitation_energy": 29.63, 
			 "cosmo_dispersion_energy": -21.44, 
			 "cosmo_repulsion_energy": 1.58, 
			 "cosmo_total_nonelectrostatic_energy": 9.77, 
			 "SMD_solvation_energy": 6.11 
		},
		"coords": [
			{
				"x": 1.7165266827,
				"y": 0.3378253725,
				"z": 1.3655381012,
				"element": "N" 
			},
			{
				"x": 0.9306455841,
				"y": 0.6106279602,
				"z": 0.2659277586,
				"element": "C" 
			},
			{
				"x": 0.7079419323,
				"y": -0.3514305252,
				"z": -0.7536231447,
				"element": "C" 
			},
			{
				"x": -0.0713915751,
				"y": -0.0353221686,
				"z": -1.8688451433,
				"element": "C" 
			},
			{
				"x": -0.6144586512,
				"y": 1.2342714708,
				"z": -2.0349445863,
				"element": "C" 
			},
			{
				"x": -0.3875098505,
				"y": 2.1939544876,
				"z": -1.045626229,
				"element": "C" 
			},
			{
				"x": 0.3627530432,
				"y": 1.884751235,
				"z": 0.0844181997,
				"element": "C" 
			},
			{
				"x": -0.9157925681,
				"y": 3.5911180432,
				"z": -1.2247769964,
				"element": "C" 
			},
			{
				"x": -2.0746045982,
				"y": 3.6055565045,
				"z": -1.9205264441,
				"element": "F" 
			},
			{
				"x": -0.0424759617,
				"y": 4.3710718795,
				"z": -1.9050536807,
				"element": "F" 
			},
			{
				"x": -1.1455743228,
				"y": 4.2042587823,
				"z": -0.0413533197,
				"element": "F" 
			},
			{
				"x": 1.2913343938,
				"y": -1.6480321613,
				"z": -0.6704829676,
				"element": "N" 
			},
			{
				"x": 1.7575036054,
				"y": -2.4084609047,
				"z": -1.7052851314,
				"element": "C" 
			},
			{
				"x": 2.1722076333,
				"y": -3.6109093622,
				"z": -1.1719601225,
				"element": "C" 
			},
			{
				"x": 1.9237669966,
				"y": -3.4884677759,
				"z": 0.2117938428,
				"element": "C" 
			},
			{
				"x": 1.3899901196,
				"y": -2.3080089044,
				"z": 0.5163502219,
				"element": "N" 
			},
			{
				"x": 1.6275632329,
				"y": 0.9810347688,
				"z": 2.1380942637,
				"element": "H" 
			},
			{
				"x": 1.7683177501,
				"y": -0.6428403353,
				"z": 1.6193948445,
				"element": "H" 
			},
			{
				"x": -0.2682835549,
				"y": -0.8070954777,
				"z": -2.6055085872,
				"element": "H" 
			},
			{
				"x": -1.2230993393,
				"y": 1.4660130304,
				"z": -2.9004689873,
				"element": "H" 
			},
			{
				"x": 0.5184001153,
				"y": 2.6397088937,
				"z": 0.8484553336,
				"element": "H" 
			},
			{
				"x": 1.7779827076,
				"y": -2.0290396272,
				"z": -2.7151953428,
				"element": "H" 
			},
			{
				"x": 2.6050025711,
				"y": -4.4458352835,
				"z": -1.7016648712,
				"element": "H" 
			},
			{
				"x": 2.114254054,
				"y": -4.2055499026,
				"z": 0.9990429882,
				"element": "H" 
			}
		],
		 "valence_orbital": [ 
			{
				"type": "occ",
				"energy": -0.30427,
				"method": "rhf"
			},
			{
				"type": "occ",
				"energy": -0.29504,
				"method": "rhf"
			},
			{
				"type": "occ",
				"energy": -0.26004,
				"method": "rhf"
			},
			{
				"type": "occ",
				"energy": -0.2475,
				"method": "rhf"
			},
			{
				"type": "occ",
				"energy": -0.21019,
				"method": "rhf"
			},
			{
				"type": "unocc",
				"energy": -0.03571,
				"method": "rhf"
			},
			{
				"type": "unocc",
				"energy": -0.00334,
				"method": "rhf"
			},
			{
				"type": "unocc",
				"energy": 0.01757,
				"method": "rhf"
			},
			{
				"type": "unocc",
				"energy": 0.05875,
				"method": "rhf"
			},
			{
				"type": "unocc",
				"energy": 0.09162,
				"method": "rhf"
			}
		],
		"cosmo_sigma_profile": { 
			"-0.025": 0.0,
			"-0.024": 0.0,
			"-0.023": 0.0,
			"-0.022": 0.0,
			"-0.021": 0.0,
			"-0.02": 0.0,
			"-0.019": 0.0,
			"-0.018": 0.0,
			"-0.017": 0.0,
			"-0.016": 0.0,
			"-0.015": 0.0,
			"-0.014": 0.0,
			"-0.013": 1.12835035596,
			"-0.012": 1.4809983733,
			"-0.011": 2.00335906695,
			"-0.01": 1.55803623215,
			"-0.009": 3.27084025625,
			"-0.008": 6.81352257332,
			"-0.007": 9.61598372764,
			"-0.006": 9.12480900338,
			"-0.005": 11.7756413445,
			"-0.004": 10.7497154374,
			"-0.003": 9.81976420396,
			"-0.002": 10.2868018671,
			"-0.001": 11.259547226,
			"0.0": 14.5767575844,
			"0.001": 16.7966475143,
			"0.002": 32.2662301205,
			"0.003": 49.1711816789,
			"0.004": 18.4129492769,
			"0.005": 6.57118049904,
			"0.006": 2.38618633364,
			"0.007": 2.00914623761,
			"0.008": 1.65976367608,
			"0.009": 1.10483716295,
			"0.01": 1.51417459402,
			"0.011": 1.87055422309,
			"0.012": 0.768222715131,
			"0.013": 0.280832104467,
			"0.014": 0.0,
			"0.015": 0.0,
			"0.016": 0.0,
			"0.017": 0.0,
			"0.018": 0.0,
			"0.019": 0.0,
			"0.02": 0.0,
			"0.021": 0.0,
			"0.022": 0.0,
			"0.023": 0.0,
			"0.024": 0.0,
			"0.025": 0.0
		}
	}
}
