{
	 "smiles": "FC(F)(F)C1=CC=C(C=C1)N1CCCC1=O", 
	 "Tm": 408.15, 
	 "num_atms": 26, 
	 "gaussian": { 
		 "optdone": 1, 
		 "sigma_profile": "yes", 
		 "theory": "DFT", 
		 "functional": "B3LYP", 
		 "basiset": "6-31G**", 
		 "properties": { 
			 "R2extent": 5903.1619, 
			 "electric_dipole_moment_norm": 5.50031844624, 
			 "electric_quadrupole_moment_norm": 8.42642411228, 
			 "total_energy": -854.723905677, 
			 "HOMO_LUMO_gap": 0.20025, 
			 "cosmo_polarized_energy": -10.37, 
			 "cosmo_cavitation_energy": 30.5, 
			 "cosmo_dispersion_energy": -22.25, 
			 "cosmo_repulsion_energy": 1.66, 
			 "cosmo_total_nonelectrostatic_energy": 9.9, 
			 "SMD_solvation_energy": 6.24 
		},
		"coords": [
			{
				"x": -4.9273591496,
				"y": -0.8345326109,
				"z": -2.802720089,
				"element": "F" 
			},
			{
				"x": -3.8504642727,
				"y": -0.1920372343,
				"z": -3.3111298551,
				"element": "C" 
			},
			{
				"x": -3.4863598351,
				"y": -0.8680976277,
				"z": -4.427826432,
				"element": "F" 
			},
			{
				"x": -4.2610153384,
				"y": 1.0311285285,
				"z": -3.7165522731,
				"element": "F" 
			},
			{
				"x": -2.7285810011,
				"y": -0.1049742896,
				"z": -2.3175543056,
				"element": "C" 
			},
			{
				"x": -2.5848369013,
				"y": -1.0759604961,
				"z": -1.3268071932,
				"element": "C" 
			},
			{
				"x": -1.5142829155,
				"y": -1.0227646349,
				"z": -0.4392513192,
				"element": "C" 
			},
			{
				"x": -0.5609640023,
				"y": 0.0087096233,
				"z": -0.5257230138,
				"element": "C" 
			},
			{
				"x": -0.7101143223,
				"y": 0.9870494891,
				"z": -1.5290810989,
				"element": "C" 
			},
			{
				"x": -1.7829594297,
				"y": 0.9204314088,
				"z": -2.4098837559,
				"element": "C" 
			},
			{
				"x": 0.5050080623,
				"y": 0.0483299558,
				"z": 0.397986975,
				"element": "N" 
			},
			{
				"x": 0.5620944062,
				"y": -0.8709181316,
				"z": 1.5433660366,
				"element": "C" 
			},
			{
				"x": 1.6884822791,
				"y": -0.3013593203,
				"z": 2.4235245765,
				"element": "C" 
			},
			{
				"x": 2.5987593409,
				"y": 0.4140197399,
				"z": 1.4214577008,
				"element": "C" 
			},
			{
				"x": 1.6672956618,
				"y": 0.8116864651,
				"z": 0.2802859619,
				"element": "C" 
			},
			{
				"x": 1.912595587,
				"y": 1.6326508939,
				"z": -0.5855944901,
				"element": "O" 
			},
			{
				"x": -3.3134117281,
				"y": -1.8749520607,
				"z": -1.2420861837,
				"element": "H" 
			},
			{
				"x": -1.4262479388,
				"y": -1.7953870498,
				"z": 0.3144969361,
				"element": "H" 
			},
			{
				"x": 0.0186557232,
				"y": 1.7797194339,
				"z": -1.6093801754,
				"element": "H" 
			},
			{
				"x": -1.8916975486,
				"y": 1.6846388532,
				"z": -3.1723332056,
				"element": "H" 
			},
			{
				"x": 0.7867811229,
				"y": -1.8921304669,
				"z": 1.2050472101,
				"element": "H" 
			},
			{
				"x": -0.4001946644,
				"y": -0.8929016471,
				"z": 2.0626561646,
				"element": "H" 
			},
			{
				"x": 2.1914046274,
				"y": -1.0833220783,
				"z": 2.9968124386,
				"element": "H" 
			},
			{
				"x": 1.2711955255,
				"y": 0.4191346398,
				"z": 3.1338613558,
				"element": "H" 
			},
			{
				"x": 3.3653429998,
				"y": -0.2546083793,
				"z": 1.00971548,
				"element": "H" 
			},
			{
				"x": 3.110273712,
				"y": 1.2954469964,
				"z": 1.8128125544,
				"element": "H" 
			}
		],
		 "valence_orbital": [ 
			{
				"type": "occ",
				"energy": -0.35022,
				"method": "rhf"
			},
			{
				"type": "occ",
				"energy": -0.30733,
				"method": "rhf"
			},
			{
				"type": "occ",
				"energy": -0.26438,
				"method": "rhf"
			},
			{
				"type": "occ",
				"energy": -0.25814,
				"method": "rhf"
			},
			{
				"type": "occ",
				"energy": -0.23087,
				"method": "rhf"
			},
			{
				"type": "unocc",
				"energy": -0.03062,
				"method": "rhf"
			},
			{
				"type": "unocc",
				"energy": -0.0133,
				"method": "rhf"
			},
			{
				"type": "unocc",
				"energy": 0.02659,
				"method": "rhf"
			},
			{
				"type": "unocc",
				"energy": 0.07221,
				"method": "rhf"
			},
			{
				"type": "unocc",
				"energy": 0.0921,
				"method": "rhf"
			}
		],
		"cosmo_sigma_profile": { 
			"-0.025": 0.0,
			"-0.024": 0.0,
			"-0.023": 0.0,
			"-0.022": 0.0,
			"-0.021": 0.0,
			"-0.02": 0.0,
			"-0.019": 0.0,
			"-0.018": 0.0,
			"-0.017": 0.0,
			"-0.016": 0.0,
			"-0.015": 0.0,
			"-0.014": 0.0,
			"-0.013": 0.0,
			"-0.012": 0.0,
			"-0.011": 0.0,
			"-0.01": 0.0,
			"-0.009": 0.0,
			"-0.008": 0.0978800505411,
			"-0.007": 4.99042987139,
			"-0.006": 13.0032562164,
			"-0.005": 22.2000115523,
			"-0.004": 26.4892399195,
			"-0.003": 17.9484410722,
			"-0.002": 15.1025936089,
			"-0.001": 15.2118784278,
			"0.0": 12.2363054816,
			"0.001": 18.0531707398,
			"0.002": 21.7954812,
			"0.003": 43.7271922122,
			"0.004": 13.8545105238,
			"0.005": 1.44584811324,
			"0.006": 1.78911115577,
			"0.007": 1.58849697313,
			"0.008": 1.79486232695,
			"0.009": 1.49280565821,
			"0.01": 1.50539420609,
			"0.011": 2.11441172797,
			"0.012": 3.31124085758,
			"0.013": 2.50575916475,
			"0.014": 0.940762738948,
			"0.015": 0.0,
			"0.016": 0.0,
			"0.017": 0.0,
			"0.018": 0.0,
			"0.019": 0.0,
			"0.02": 0.0,
			"0.021": 0.0,
			"0.022": 0.0,
			"0.023": 0.0,
			"0.024": 0.0,
			"0.025": 0.0
		}
	}
}
