{
	 "smiles": "NC1=CC=C(C=C1)N1C=NN=N1", 
	 "Tm": 414.15, 
	 "num_atms": 19, 
	 "gaussian": { 
		 "optdone": 1, 
		 "sigma_profile": "yes", 
		 "theory": "DFT", 
		 "functional": "B3LYP", 
		 "basiset": "6-31G**", 
		 "properties": { 
			 "R2extent": 3203.3091, 
			 "electric_dipole_moment_norm": 7.86506168634, 
			 "electric_quadrupole_moment_norm": 25.455174296, 
			 "total_energy": -544.662850489, 
			 "HOMO_LUMO_gap": 0.18586, 
			 "cosmo_polarized_energy": -18.93, 
			 "cosmo_cavitation_energy": 24.06, 
			 "cosmo_dispersion_energy": -17.86, 
			 "cosmo_repulsion_energy": 1.4, 
			 "cosmo_total_nonelectrostatic_energy": 7.59, 
			 "SMD_solvation_energy": 2.81 
		},
		"coords": [
			{
				"x": 3.005306495,
				"y": -2.7590304914,
				"z": -2.8270869285,
				"element": "N" 
			},
			{
				"x": 2.5124030065,
				"y": -1.6729745834,
				"z": -2.1155925081,
				"element": "C" 
			},
			{
				"x": 2.1723559971,
				"y": -0.4751702469,
				"z": -2.7735013019,
				"element": "C" 
			},
			{
				"x": 1.6203557265,
				"y": 0.5911481516,
				"z": -2.0765738243,
				"element": "C" 
			},
			{
				"x": 1.4072808066,
				"y": 0.4865082247,
				"z": -0.6990711473,
				"element": "C" 
			},
			{
				"x": 1.7533205873,
				"y": -0.6875853706,
				"z": -0.025785777,
				"element": "C" 
			},
			{
				"x": 2.2914837377,
				"y": -1.7593530746,
				"z": -0.7286890139,
				"element": "C" 
			},
			{
				"x": 0.8404332807,
				"y": 1.5815792073,
				"z": 0.0120465212,
				"element": "N" 
			},
			{
				"x": 0.0161892056,
				"y": 1.6021091419,
				"z": 1.0840017657,
				"element": "C" 
			},
			{
				"x": -0.258008806,
				"y": 2.8518248791,
				"z": 1.3956565275,
				"element": "N" 
			},
			{
				"x": 0.4113431602,
				"y": 3.6105836346,
				"z": 0.4856887105,
				"element": "N" 
			},
			{
				"x": 1.0729364937,
				"y": 2.872575675,
				"z": -0.345374557,
				"element": "N" 
			},
			{
				"x": 3.5192200098,
				"y": -3.4451066965,
				"z": -2.2930834257,
				"element": "H" 
			},
			{
				"x": 3.441662205,
				"y": -2.5483978611,
				"z": -3.7132231772,
				"element": "H" 
			},
			{
				"x": 2.333504316,
				"y": -0.3882099143,
				"z": -3.8445554642,
				"element": "H" 
			},
			{
				"x": 1.3573765049,
				"y": 1.5100450797,
				"z": -2.5876988076,
				"element": "H" 
			},
			{
				"x": 1.623987018,
				"y": -0.7607934996,
				"z": 1.0494855434,
				"element": "H" 
			},
			{
				"x": 2.5555720512,
				"y": -2.6699611923,
				"z": -0.1980443278,
				"element": "H" 
			},
			{
				"x": -0.362721796,
				"y": 0.7207089368,
				"z": 1.5769011922,
				"element": "H" 
			}
		],
		 "valence_orbital": [ 
			{
				"type": "occ",
				"energy": -0.29703,
				"method": "rhf"
			},
			{
				"type": "occ",
				"energy": -0.29163,
				"method": "rhf"
			},
			{
				"type": "occ",
				"energy": -0.27791,
				"method": "rhf"
			},
			{
				"type": "occ",
				"energy": -0.27245,
				"method": "rhf"
			},
			{
				"type": "occ",
				"energy": -0.21928,
				"method": "rhf"
			},
			{
				"type": "unocc",
				"energy": -0.03342,
				"method": "rhf"
			},
			{
				"type": "unocc",
				"energy": -0.0228,
				"method": "rhf"
			},
			{
				"type": "unocc",
				"energy": 0.01677,
				"method": "rhf"
			},
			{
				"type": "unocc",
				"energy": 0.0295,
				"method": "rhf"
			},
			{
				"type": "unocc",
				"energy": 0.06333,
				"method": "rhf"
			}
		],
		"cosmo_sigma_profile": { 
			"-0.025": 0.0,
			"-0.024": 0.0,
			"-0.023": 0.0,
			"-0.022": 0.0,
			"-0.021": 0.0,
			"-0.02": 0.0,
			"-0.019": 0.0,
			"-0.018": 0.0,
			"-0.017": 0.0,
			"-0.016": 0.0,
			"-0.015": 0.0,
			"-0.014": 0.00982464886845,
			"-0.013": 1.65699217078,
			"-0.012": 5.15830010889,
			"-0.011": 4.29283733012,
			"-0.01": 6.68586510444,
			"-0.009": 5.18760061482,
			"-0.008": 5.68573867958,
			"-0.007": 8.31687570122,
			"-0.006": 8.81063644634,
			"-0.005": 9.95795283681,
			"-0.004": 10.2855346829,
			"-0.003": 11.6411562473,
			"-0.002": 7.60025963206,
			"-0.001": 8.37480089034,
			"0.0": 8.51074700682,
			"0.001": 8.22674806055,
			"0.002": 8.63177454539,
			"0.003": 11.0178984158,
			"0.004": 16.0591101061,
			"0.005": 7.35358307823,
			"0.006": 4.09783142961,
			"0.007": 3.73738159289,
			"0.008": 6.21717398993,
			"0.009": 5.47929685872,
			"0.01": 5.89073829146,
			"0.011": 5.29904970483,
			"0.012": 3.259762138,
			"0.013": 3.10044745687,
			"0.014": 1.96789306733,
			"0.015": 0.786156577701,
			"0.016": 0.0235092502631,
			"0.017": 0.0,
			"0.018": 0.0,
			"0.019": 0.0,
			"0.02": 0.0,
			"0.021": 0.0,
			"0.022": 0.0,
			"0.023": 0.0,
			"0.024": 0.0,
			"0.025": 0.0
		}
	}
}
