{
	 "smiles": "O=C(C=CC1=CSC=C1)C1=CC=CC=C1", 
	 "Tm": 361.15, 
	 "num_atms": 25, 
	 "gaussian": { 
		 "optdone": 1, 
		 "sigma_profile": "yes", 
		 "theory": "DFT", 
		 "functional": "B3LYP", 
		 "basiset": "6-31G**", 
		 "properties": { 
			 "R2extent": 6303.4116, 
			 "electric_dipole_moment_norm": 3.01815926352, 
			 "electric_quadrupole_moment_norm": 11.9930085554, 
			 "total_energy": -974.7950965, 
			 "HOMO_LUMO_gap": 0.15479, 
			 "cosmo_polarized_energy": -11.07, 
			 "cosmo_cavitation_energy": 31.75, 
			 "cosmo_dispersion_energy": -23.69, 
			 "cosmo_repulsion_energy": 1.77, 
			 "cosmo_total_nonelectrostatic_energy": 9.83, 
			 "SMD_solvation_energy": 6.1 
		},
		"coords": [
			{
				"x": -0.5304839425,
				"y": -1.370322283,
				"z": -0.4296328486,
				"element": "O" 
			},
			{
				"x": -0.1964454167,
				"y": -0.3992842843,
				"z": 0.2484257426,
				"element": "C" 
			},
			{
				"x": 0.5401942147,
				"y": 0.7368073916,
				"z": -0.3560294615,
				"element": "C" 
			},
			{
				"x": 0.9224706242,
				"y": 0.681267722,
				"z": -1.6488566548,
				"element": "C" 
			},
			{
				"x": 1.632130725,
				"y": 1.7053332672,
				"z": -2.3947759286,
				"element": "C" 
			},
			{
				"x": 1.9834385412,
				"y": 1.5377120494,
				"z": -3.7196320228,
				"element": "C" 
			},
			{
				"x": 2.8157509049,
				"y": 2.9054506004,
				"z": -4.3604019033,
				"element": "S" 
			},
			{
				"x": 2.7041786322,
				"y": 3.7385380312,
				"z": -2.8369185568,
				"element": "C" 
			},
			{
				"x": 2.0591388335,
				"y": 2.9901368363,
				"z": -1.8998008587,
				"element": "C" 
			},
			{
				"x": -0.5519231619,
				"y": -0.3507350994,
				"z": 1.7075919817,
				"element": "C" 
			},
			{
				"x": -1.451860043,
				"y": -1.3170823885,
				"z": 2.1867970656,
				"element": "C" 
			},
			{
				"x": -1.8239731942,
				"y": -1.3381287539,
				"z": 3.5270520782,
				"element": "C" 
			},
			{
				"x": -1.2928780268,
				"y": -0.39776886,
				"z": 4.415366905,
				"element": "C" 
			},
			{
				"x": -0.3883883129,
				"y": 0.5599087993,
				"z": 3.9543698177,
				"element": "C" 
			},
			{
				"x": -0.0220349203,
				"y": 0.5862983112,
				"z": 2.6083099815,
				"element": "C" 
			},
			{
				"x": 0.7455746752,
				"y": 1.6146662919,
				"z": 0.2462139798,
				"element": "H" 
			},
			{
				"x": 0.669566554,
				"y": -0.2300437476,
				"z": -2.1880103082,
				"element": "H" 
			},
			{
				"x": 1.790257438,
				"y": 0.6750251843,
				"z": -4.3426584493,
				"element": "H" 
			},
			{
				"x": 3.1226154281,
				"y": 4.7298119543,
				"z": -2.7318658203,
				"element": "H" 
			},
			{
				"x": 1.8876293019,
				"y": 3.3335721746,
				"z": -0.8866035079,
				"element": "H" 
			},
			{
				"x": -1.8430729812,
				"y": -2.0412893625,
				"z": 1.4804159324,
				"element": "H" 
			},
			{
				"x": -2.5259491338,
				"y": -2.0867257291,
				"z": 3.8830881494,
				"element": "H" 
			},
			{
				"x": -1.5809210331,
				"y": -0.4137504964,
				"z": 5.4627484675,
				"element": "H" 
			},
			{
				"x": 0.034037835,
				"y": 1.2862466518,
				"z": 4.6426612354,
				"element": "H" 
			},
			{
				"x": 0.6946464585,
				"y": 1.329355739,
				"z": 2.2755449839,
				"element": "H" 
			}
		],
		 "valence_orbital": [ 
			{
				"type": "occ",
				"energy": -0.25755,
				"method": "rhf"
			},
			{
				"type": "occ",
				"energy": -0.2553,
				"method": "rhf"
			},
			{
				"type": "occ",
				"energy": -0.25376,
				"method": "rhf"
			},
			{
				"type": "occ",
				"energy": -0.24394,
				"method": "rhf"
			},
			{
				"type": "occ",
				"energy": -0.2291,
				"method": "rhf"
			},
			{
				"type": "unocc",
				"energy": -0.07431,
				"method": "rhf"
			},
			{
				"type": "unocc",
				"energy": -0.02317,
				"method": "rhf"
			},
			{
				"type": "unocc",
				"energy": -0.00714,
				"method": "rhf"
			},
			{
				"type": "unocc",
				"energy": -0.00048,
				"method": "rhf"
			},
			{
				"type": "unocc",
				"energy": 0.022,
				"method": "rhf"
			}
		],
		"cosmo_sigma_profile": { 
			"-0.025": 0.0,
			"-0.024": 0.0,
			"-0.023": 0.0,
			"-0.022": 0.0,
			"-0.021": 0.0,
			"-0.02": 0.0,
			"-0.019": 0.0,
			"-0.018": 0.0,
			"-0.017": 0.0,
			"-0.016": 0.0,
			"-0.015": 0.0,
			"-0.014": 0.0,
			"-0.013": 0.0,
			"-0.012": 0.0,
			"-0.011": 0.0,
			"-0.01": 0.00716314714794,
			"-0.009": 3.72359747041,
			"-0.008": 8.66727005045,
			"-0.007": 8.70595045077,
			"-0.006": 14.2304080719,
			"-0.005": 15.7827451188,
			"-0.004": 17.8413942368,
			"-0.003": 13.665151261,
			"-0.002": 15.0025549978,
			"-0.001": 14.9103510077,
			"0.0": 17.6259551669,
			"0.001": 19.0004458577,
			"0.002": 26.3683975718,
			"0.003": 33.4829009462,
			"0.004": 23.333623747,
			"0.005": 8.301811933,
			"0.006": 2.04736702384,
			"0.007": 2.0501395854,
			"0.008": 1.18274121415,
			"0.009": 1.67491885178,
			"0.01": 1.86659227789,
			"0.011": 2.5098170819,
			"0.012": 3.17446631599,
			"0.013": 3.12801318806,
			"0.014": 0.00126731166687,
			"0.015": 0.0,
			"0.016": 0.0,
			"0.017": 0.0,
			"0.018": 0.0,
			"0.019": 0.0,
			"0.02": 0.0,
			"0.021": 0.0,
			"0.022": 0.0,
			"0.023": 0.0,
			"0.024": 0.0,
			"0.025": 0.0
		}
	}
}
