{
	 "smiles": "FC1=CC(CC#N)=CC(F)=C1F", 
	 "Tm": 304.15, 
	 "num_atms": 16, 
	 "gaussian": { 
		 "optdone": 1, 
		 "sigma_profile": "yes", 
		 "theory": "DFT", 
		 "functional": "B3LYP", 
		 "basiset": "6-31G**", 
		 "properties": { 
			 "R2extent": 2219.5456, 
			 "electric_dipole_moment_norm": 3.43306197293, 
			 "electric_quadrupole_moment_norm": 17.7862400091, 
			 "total_energy": -661.480389221, 
			 "HOMO_LUMO_gap": 0.23224, 
			 "cosmo_polarized_energy": -11.19, 
			 "cosmo_cavitation_energy": 23.71, 
			 "cosmo_dispersion_energy": -16.05, 
			 "cosmo_repulsion_energy": 1.23, 
			 "cosmo_total_nonelectrostatic_energy": 8.89, 
			 "SMD_solvation_energy": 7.07 
		},
		"coords": [
			{
				"x": 1.1806782235,
				"y": -0.0362287621,
				"z": 2.6802633501,
				"element": "F" 
			},
			{
				"x": 0.705340377,
				"y": 0.1342564,
				"z": 1.4389485078,
				"element": "C" 
			},
			{
				"x": 1.1898053949,
				"y": -0.6363349915,
				"z": 0.3892602902,
				"element": "C" 
			},
			{
				"x": 0.68553188,
				"y": -0.4402475153,
				"z": -0.9003639301,
				"element": "C" 
			},
			{
				"x": 1.1980544171,
				"y": -1.2879930857,
				"z": -2.0565958675,
				"element": "C" 
			},
			{
				"x": 0.4229634428,
				"y": -2.5226773874,
				"z": -2.241722165,
				"element": "C" 
			},
			{
				"x": -0.1933653303,
				"y": -3.4957595819,
				"z": -2.3824607951,
				"element": "N" 
			},
			{
				"x": -0.3001053891,
				"y": 0.5264506107,
				"z": -1.1237313784,
				"element": "C" 
			},
			{
				"x": -0.7694791555,
				"y": 1.2852490561,
				"z": -0.0587133312,
				"element": "C" 
			},
			{
				"x": -1.7098156502,
				"y": 2.2196523565,
				"z": -0.2549791772,
				"element": "F" 
			},
			{
				"x": -0.2757177952,
				"y": 1.1016444367,
				"z": 1.2312238097,
				"element": "C" 
			},
			{
				"x": -0.7299626611,
				"y": 1.8419635267,
				"z": 2.2474261697,
				"element": "F" 
			},
			{
				"x": 1.9516587818,
				"y": -1.3796832383,
				"z": 0.5978975329,
				"element": "H" 
			},
			{
				"x": 2.2456776189,
				"y": -1.5637137387,
				"z": -1.8932158385,
				"element": "H" 
			},
			{
				"x": 1.1631193325,
				"y": -0.7192062047,
				"z": -2.9922845263,
				"element": "H" 
			},
			{
				"x": -0.7152834872,
				"y": 0.701728119,
				"z": -2.1103526511,
				"element": "H" 
			}
		],
		 "valence_orbital": [ 
			{
				"type": "occ",
				"energy": -0.36235,
				"method": "rhf"
			},
			{
				"type": "occ",
				"energy": -0.33515,
				"method": "rhf"
			},
			{
				"type": "occ",
				"energy": -0.33419,
				"method": "rhf"
			},
			{
				"type": "occ",
				"energy": -0.27311,
				"method": "rhf"
			},
			{
				"type": "occ",
				"energy": -0.26754,
				"method": "rhf"
			},
			{
				"type": "unocc",
				"energy": -0.0353,
				"method": "rhf"
			},
			{
				"type": "unocc",
				"energy": -0.02929,
				"method": "rhf"
			},
			{
				"type": "unocc",
				"energy": 0.02027,
				"method": "rhf"
			},
			{
				"type": "unocc",
				"energy": 0.03095,
				"method": "rhf"
			},
			{
				"type": "unocc",
				"energy": 0.04956,
				"method": "rhf"
			}
		],
		"cosmo_sigma_profile": { 
			"-0.025": 0.0,
			"-0.024": 0.0,
			"-0.023": 0.0,
			"-0.022": 0.0,
			"-0.021": 0.0,
			"-0.02": 0.0,
			"-0.019": 0.0,
			"-0.018": 0.0,
			"-0.017": 0.0,
			"-0.016": 0.0,
			"-0.015": 0.0,
			"-0.014": 0.0,
			"-0.013": 0.0,
			"-0.012": 0.0,
			"-0.011": 0.0,
			"-0.01": 3.01161732276,
			"-0.009": 10.0211991371,
			"-0.008": 9.12277423212,
			"-0.007": 5.47711828541,
			"-0.006": 8.39610027553,
			"-0.005": 4.86756726994,
			"-0.004": 4.81785452309,
			"-0.003": 7.22551912249,
			"-0.002": 14.3496601968,
			"-0.001": 17.5937260066,
			"0.0": 15.1193419847,
			"0.001": 14.2208617776,
			"0.002": 12.020415417,
			"0.003": 32.5706903025,
			"0.004": 8.95118452965,
			"0.005": 1.98151609551,
			"0.006": 2.89183847749,
			"0.007": 2.6502863205,
			"0.008": 3.38178175745,
			"0.009": 3.59133376052,
			"0.01": 3.10074301507,
			"0.011": 2.85311521389,
			"0.012": 2.49423532252,
			"0.013": 1.52821701114,
			"0.014": 0.113910241755,
			"0.015": 0.0,
			"0.016": 0.0,
			"0.017": 0.0,
			"0.018": 0.0,
			"0.019": 0.0,
			"0.02": 0.0,
			"0.021": 0.0,
			"0.022": 0.0,
			"0.023": 0.0,
			"0.024": 0.0,
			"0.025": 0.0
		}
	}
}
