{
	 "smiles": "FC(F)(F)CN1C=CN=C1CC#N", 
	 "Tm": 380.15, 
	 "num_atms": 19, 
	 "gaussian": { 
		 "optdone": 1, 
		 "sigma_profile": "yes", 
		 "theory": "DFT", 
		 "functional": "B3LYP", 
		 "basiset": "6-31G**", 
		 "properties": { 
			 "R2extent": 2678.4222, 
			 "electric_dipole_moment_norm": 2.62100972528, 
			 "electric_quadrupole_moment_norm": 14.7821767944, 
			 "total_energy": -734.11522906, 
			 "HOMO_LUMO_gap": 0.2377, 
			 "cosmo_polarized_energy": -14.08, 
			 "cosmo_cavitation_energy": 25.47, 
			 "cosmo_dispersion_energy": -17.17, 
			 "cosmo_repulsion_energy": 1.3, 
			 "cosmo_total_nonelectrostatic_energy": 9.6, 
			 "SMD_solvation_energy": 5.35 
		},
		"coords": [
			{
				"x": -0.2809204847,
				"y": -3.1839320351,
				"z": 2.471477674,
				"element": "F" 
			},
			{
				"x": -0.1730148606,
				"y": -1.9082214434,
				"z": 2.0562980376,
				"element": "C" 
			},
			{
				"x": -0.0117100135,
				"y": -1.1253077771,
				"z": 3.1384467385,
				"element": "F" 
			},
			{
				"x": -1.3395383002,
				"y": -1.5602549296,
				"z": 1.4689749218,
				"element": "F" 
			},
			{
				"x": 0.9973133357,
				"y": -1.7773931093,
				"z": 1.089105952,
				"element": "C" 
			},
			{
				"x": 1.1637880637,
				"y": -0.4236819997,
				"z": 0.6028574639,
				"element": "N" 
			},
			{
				"x": 1.8924282258,
				"y": 0.5730450783,
				"z": 1.2326278374,
				"element": "C" 
			},
			{
				"x": 1.726511044,
				"y": 1.6949603291,
				"z": 0.466421569,
				"element": "C" 
			},
			{
				"x": 0.915063052,
				"y": 1.4270106569,
				"z": -0.6136683121,
				"element": "N" 
			},
			{
				"x": 0.5873995077,
				"y": 0.1591590366,
				"z": -0.5055617971,
				"element": "C" 
			},
			{
				"x": -0.3278446363,
				"y": -0.5505661571,
				"z": -1.4671505724,
				"element": "C" 
			},
			{
				"x": 0.2917324504,
				"y": -1.7081218369,
				"z": -2.1275511908,
				"element": "C" 
			},
			{
				"x": 0.7875543728,
				"y": -2.6412364394,
				"z": -2.6081607482,
				"element": "N" 
			},
			{
				"x": 0.8369160713,
				"y": -2.4649156401,
				"z": 0.2562950454,
				"element": "H" 
			},
			{
				"x": 1.9029975715,
				"y": -2.09217238,
				"z": 1.6123925809,
				"element": "H" 
			},
			{
				"x": 2.4418942319,
				"y": 0.3812069506,
				"z": 2.1412745842,
				"element": "H" 
			},
			{
				"x": 2.1462776802,
				"y": 2.6780052281,
				"z": 0.6255541242,
				"element": "H" 
			},
			{
				"x": -1.2418783033,
				"y": -0.8923867211,
				"z": -0.9664773305,
				"element": "H" 
			},
			{
				"x": -0.6170690084,
				"y": 0.1854031893,
				"z": -2.2221565779,
				"element": "H" 
			}
		],
		 "valence_orbital": [ 
			{
				"type": "occ",
				"energy": -0.34166,
				"method": "rhf"
			},
			{
				"type": "occ",
				"energy": -0.33876,
				"method": "rhf"
			},
			{
				"type": "occ",
				"energy": -0.29337,
				"method": "rhf"
			},
			{
				"type": "occ",
				"energy": -0.28482,
				"method": "rhf"
			},
			{
				"type": "occ",
				"energy": -0.24396,
				"method": "rhf"
			},
			{
				"type": "unocc",
				"energy": -0.00626,
				"method": "rhf"
			},
			{
				"type": "unocc",
				"energy": 0.02117,
				"method": "rhf"
			},
			{
				"type": "unocc",
				"energy": 0.02961,
				"method": "rhf"
			},
			{
				"type": "unocc",
				"energy": 0.05393,
				"method": "rhf"
			},
			{
				"type": "unocc",
				"energy": 0.07437,
				"method": "rhf"
			}
		],
		"cosmo_sigma_profile": { 
			"-0.025": 0.0,
			"-0.024": 0.0,
			"-0.023": 0.0,
			"-0.022": 0.0,
			"-0.021": 0.0,
			"-0.02": 0.0,
			"-0.019": 0.0,
			"-0.018": 0.0,
			"-0.017": 0.0,
			"-0.016": 0.0,
			"-0.015": 0.0,
			"-0.014": 0.0,
			"-0.013": 0.0,
			"-0.012": 0.0303824465501,
			"-0.011": 1.75331866901,
			"-0.01": 6.14790090952,
			"-0.009": 8.34442999791,
			"-0.008": 8.95781058625,
			"-0.007": 11.1294766826,
			"-0.006": 9.32958622804,
			"-0.005": 9.04777441454,
			"-0.004": 8.62556705307,
			"-0.003": 7.86509919889,
			"-0.002": 10.2309876418,
			"-0.001": 9.47398458805,
			"0.0": 9.62029149916,
			"0.001": 14.217132013,
			"0.002": 30.066823095,
			"0.003": 15.0431913714,
			"0.004": 6.97947762512,
			"0.005": 5.76666992301,
			"0.006": 4.12489605369,
			"0.007": 4.23804993005,
			"0.008": 4.65710349029,
			"0.009": 3.79752279161,
			"0.01": 4.07470289978,
			"0.011": 3.62785049094,
			"0.012": 2.85724969186,
			"0.013": 2.25453787013,
			"0.014": 0.631868408797,
			"0.015": 1.19376432332,
			"0.016": 0.756385249791,
			"0.017": 0.397051439942,
			"0.018": 0.0,
			"0.019": 0.0,
			"0.02": 0.0,
			"0.021": 0.0,
			"0.022": 0.0,
			"0.023": 0.0,
			"0.024": 0.0,
			"0.025": 0.0
		}
	}
}
