{
	 "smiles": "O=C(NC1=CC=CC=C1SC(=O)C1=CC=CC=C1)C1=CC=CC=C1", 
	 "Tm": 425.15, 
	 "num_atms": 39, 
	 "gaussian": { 
		 "optdone": 1, 
		 "sigma_profile": "yes", 
		 "theory": "DFT", 
		 "functional": "B3LYP", 
		 "basiset": "6-31G**", 
		 "properties": { 
			 "R2extent": 9370.9742, 
			 "electric_dipole_moment_norm": 3.09344832994, 
			 "electric_quadrupole_moment_norm": 27.1127638674, 
			 "total_energy": -1374.57581335, 
			 "HOMO_LUMO_gap": 0.15741, 
			 "cosmo_polarized_energy": -14.66, 
			 "cosmo_cavitation_energy": 45.08, 
			 "cosmo_dispersion_energy": -31.27, 
			 "cosmo_repulsion_energy": 2.34, 
			 "cosmo_total_nonelectrostatic_energy": 16.15, 
			 "SMD_solvation_energy": 8.57 
		},
		"coords": [
			{
				"x": -1.6201452026,
				"y": -0.0961940327,
				"z": -3.2676423764,
				"element": "O" 
			},
			{
				"x": -1.6049109763,
				"y": 0.4375563344,
				"z": -2.1649077676,
				"element": "C" 
			},
			{
				"x": -0.4592842063,
				"y": 1.1047672488,
				"z": -1.7486126683,
				"element": "N" 
			},
			{
				"x": -0.2713097266,
				"y": 2.1235870943,
				"z": -0.7999120435,
				"element": "C" 
			},
			{
				"x": -1.2830097528,
				"y": 3.0491470661,
				"z": -0.4984462364,
				"element": "C" 
			},
			{
				"x": -1.0606154681,
				"y": 4.0712465452,
				"z": 0.4196634956,
				"element": "C" 
			},
			{
				"x": 0.1827354781,
				"y": 4.2147607558,
				"z": 1.0379977352,
				"element": "C" 
			},
			{
				"x": 1.2017349963,
				"y": 3.3153969979,
				"z": 0.7335517043,
				"element": "C" 
			},
			{
				"x": 0.985584479,
				"y": 2.2694344654,
				"z": -0.1702865669,
				"element": "C" 
			},
			{
				"x": 2.3489028107,
				"y": 1.1825777104,
				"z": -0.5604436488,
				"element": "S" 
			},
			{
				"x": 1.8346652245,
				"y": -0.3319543436,
				"z": 0.344044543,
				"element": "C" 
			},
			{
				"x": 0.7896876561,
				"y": -0.376164993,
				"z": 0.9549558303,
				"element": "O" 
			},
			{
				"x": 2.7846193892,
				"y": -1.4785891531,
				"z": 0.2609110222,
				"element": "C" 
			},
			{
				"x": 2.3999698836,
				"y": -2.6738706238,
				"z": 0.8901088965,
				"element": "C" 
			},
			{
				"x": 3.2364149019,
				"y": -3.7853555513,
				"z": 0.8531209428,
				"element": "C" 
			},
			{
				"x": 4.4644479798,
				"y": -3.7140040188,
				"z": 0.1896416585,
				"element": "C" 
			},
			{
				"x": 4.8537418358,
				"y": -2.5276166314,
				"z": -0.4364931881,
				"element": "C" 
			},
			{
				"x": 4.0188997877,
				"y": -1.4123694606,
				"z": -0.4023954948,
				"element": "C" 
			},
			{
				"x": -2.7644030363,
				"y": 0.3172576533,
				"z": -1.2237070063,
				"element": "C" 
			},
			{
				"x": -2.5958406556,
				"y": 0.1413399502,
				"z": 0.157972425,
				"element": "C" 
			},
			{
				"x": -3.7114110672,
				"y": -0.0612088259,
				"z": 0.9707401289,
				"element": "C" 
			},
			{
				"x": -4.9936797053,
				"y": -0.0780503306,
				"z": 0.4171722125,
				"element": "C" 
			},
			{
				"x": -5.1621205606,
				"y": 0.0860905363,
				"z": -0.9603488896,
				"element": "C" 
			},
			{
				"x": -4.0502005249,
				"y": 0.2676439909,
				"z": -1.7799046015,
				"element": "C" 
			},
			{
				"x": 0.3344810593,
				"y": 0.9027837803,
				"z": -2.3466053615,
				"element": "H" 
			},
			{
				"x": -2.2415880143,
				"y": 2.9660988059,
				"z": -0.9965288256,
				"element": "H" 
			},
			{
				"x": -1.8615039969,
				"y": 4.772265202,
				"z": 0.6356945295,
				"element": "H" 
			},
			{
				"x": 0.3584980417,
				"y": 5.0176214634,
				"z": 1.7468035656,
				"element": "H" 
			},
			{
				"x": 2.1758431782,
				"y": 3.4083262151,
				"z": 1.2025200707,
				"element": "H" 
			},
			{
				"x": 1.4425125873,
				"y": -2.7066152916,
				"z": 1.3982088474,
				"element": "H" 
			},
			{
				"x": 2.9324918272,
				"y": -4.7074573504,
				"z": 1.3394259622,
				"element": "H" 
			},
			{
				"x": 5.117319271,
				"y": -4.5815921121,
				"z": 0.160205623,
				"element": "H" 
			},
			{
				"x": 5.8079237164,
				"y": -2.4707000505,
				"z": -0.9512852341,
				"element": "H" 
			},
			{
				"x": 4.3342152161,
				"y": -0.4958118868,
				"z": -0.8904548366,
				"element": "H" 
			},
			{
				"x": -1.5996818017,
				"y": 0.1368626158,
				"z": 0.5885927262,
				"element": "H" 
			},
			{
				"x": -3.5775311358,
				"y": -0.2099151279,
				"z": 2.0383155772,
				"element": "H" 
			},
			{
				"x": -5.8594282743,
				"y": -0.2282865592,
				"z": 1.0562155314,
				"element": "H" 
			},
			{
				"x": -6.1572903087,
				"y": 0.0620430971,
				"z": -1.3949355908,
				"element": "H" 
			},
			{
				"x": -4.1574349056,
				"y": 0.3657488147,
				"z": -2.8552526909,
				"element": "H" 
			}
		],
		 "valence_orbital": [ 
			{
				"type": "occ",
				"energy": -0.26047,
				"method": "rhf"
			},
			{
				"type": "occ",
				"energy": -0.25495,
				"method": "rhf"
			},
			{
				"type": "occ",
				"energy": -0.24805,
				"method": "rhf"
			},
			{
				"type": "occ",
				"energy": -0.242,
				"method": "rhf"
			},
			{
				"type": "occ",
				"energy": -0.22365,
				"method": "rhf"
			},
			{
				"type": "unocc",
				"energy": -0.06624,
				"method": "rhf"
			},
			{
				"type": "unocc",
				"energy": -0.03811,
				"method": "rhf"
			},
			{
				"type": "unocc",
				"energy": -0.02468,
				"method": "rhf"
			},
			{
				"type": "unocc",
				"energy": -0.01701,
				"method": "rhf"
			},
			{
				"type": "unocc",
				"energy": -0.00562,
				"method": "rhf"
			}
		],
		"cosmo_sigma_profile": { 
			"-0.025": 0.0,
			"-0.024": 0.0,
			"-0.023": 0.0,
			"-0.022": 0.0,
			"-0.021": 0.0,
			"-0.02": 0.0,
			"-0.019": 0.0,
			"-0.018": 0.0,
			"-0.017": 0.0,
			"-0.016": 0.0,
			"-0.015": 0.0,
			"-0.014": 0.0,
			"-0.013": 0.0,
			"-0.012": 0.245956148699,
			"-0.011": 1.05467573905,
			"-0.01": 0.619546906406,
			"-0.009": 0.618271305738,
			"-0.008": 1.09962807516,
			"-0.007": 8.47383577274,
			"-0.006": 26.965788666,
			"-0.005": 30.3250365959,
			"-0.004": 27.5067420106,
			"-0.003": 21.4992432548,
			"-0.002": 24.1571978766,
			"-0.001": 27.6317543317,
			"0.0": 27.0819715705,
			"0.001": 28.5441666044,
			"0.002": 31.3612635064,
			"0.003": 37.5811871439,
			"0.004": 30.1223546686,
			"0.005": 10.6923224161,
			"0.006": 4.64248108663,
			"0.007": 3.21247056398,
			"0.008": 3.37604820987,
			"0.009": 3.6001669615,
			"0.01": 2.91230272082,
			"0.011": 1.63822050058,
			"0.012": 3.71611158357,
			"0.013": 4.97379917258,
			"0.014": 0.928326220024,
			"0.015": 0.0,
			"0.016": 0.0,
			"0.017": 0.0,
			"0.018": 0.0,
			"0.019": 0.0,
			"0.02": 0.0,
			"0.021": 0.0,
			"0.022": 0.0,
			"0.023": 0.0,
			"0.024": 0.0,
			"0.025": 0.0
		}
	}
}
