{
	 "smiles": "ClC1=CC(=O)NC=N1", 
	 "Tm": 467.15, 
	 "num_atms": 11, 
	 "gaussian": { 
		 "optdone": 1, 
		 "sigma_profile": "yes", 
		 "theory": "DFT", 
		 "functional": "B3LYP", 
		 "basiset": "6-31G**", 
		 "properties": { 
			 "R2extent": 1473.1585, 
			 "electric_dipole_moment_norm": 2.99891737799, 
			 "electric_quadrupole_moment_norm": 15.8316148936, 
			 "total_energy": -799.153827954, 
			 "HOMO_LUMO_gap": 0.19077, 
			 "cosmo_polarized_energy": -14.13, 
			 "cosmo_cavitation_energy": 17.71, 
			 "cosmo_dispersion_energy": -13.64, 
			 "cosmo_repulsion_energy": 1.14, 
			 "cosmo_total_nonelectrostatic_energy": 5.21, 
			 "SMD_solvation_energy": 2.67 
		},
		"coords": [
			{
				"x": -0.4858181015,
				"y": -0.669446576,
				"z": -2.0558264693,
				"element": "Cl" 
			},
			{
				"x": 0.6106650731,
				"y": 0.0279693577,
				"z": -0.8838416544,
				"element": "C" 
			},
			{
				"x": 1.4754000415,
				"y": -0.7793171291,
				"z": -0.2045423004,
				"element": "C" 
			},
			{
				"x": 2.3823683634,
				"y": -0.1973512405,
				"z": 0.7658989698,
				"element": "C" 
			},
			{
				"x": 3.2127755078,
				"y": -0.7655310525,
				"z": 1.4552849248,
				"element": "O" 
			},
			{
				"x": 2.2133078108,
				"y": 1.2137873195,
				"z": 0.859172328,
				"element": "N" 
			},
			{
				"x": 1.3139841232,
				"y": 1.9134321191,
				"z": 0.1274659943,
				"element": "C" 
			},
			{
				"x": 0.5043656156,
				"y": 1.3807977727,
				"z": -0.741036756,
				"element": "N" 
			},
			{
				"x": 1.5154553361,
				"y": -1.8491445837,
				"z": -0.3594574538,
				"element": "H" 
			},
			{
				"x": 2.8194198823,
				"y": 1.6836235711,
				"z": 1.522129042,
				"element": "H" 
			},
			{
				"x": 1.2837763476,
				"y": 2.9880804416,
				"z": 0.2925533748,
				"element": "H" 
			}
		],
		 "valence_orbital": [ 
			{
				"type": "occ",
				"energy": -0.32789,
				"method": "rhf"
			},
			{
				"type": "occ",
				"energy": -0.30891,
				"method": "rhf"
			},
			{
				"type": "occ",
				"energy": -0.30808,
				"method": "rhf"
			},
			{
				"type": "occ",
				"energy": -0.27489,
				"method": "rhf"
			},
			{
				"type": "occ",
				"energy": -0.25606,
				"method": "rhf"
			},
			{
				"type": "unocc",
				"energy": -0.06529,
				"method": "rhf"
			},
			{
				"type": "unocc",
				"energy": -0.01792,
				"method": "rhf"
			},
			{
				"type": "unocc",
				"energy": 0.0228,
				"method": "rhf"
			},
			{
				"type": "unocc",
				"energy": 0.05956,
				"method": "rhf"
			},
			{
				"type": "unocc",
				"energy": 0.10991,
				"method": "rhf"
			}
		],
		"cosmo_sigma_profile": { 
			"-0.025": 0.0,
			"-0.024": 0.0,
			"-0.023": 0.0,
			"-0.022": 0.0,
			"-0.021": 0.0,
			"-0.02": 0.0,
			"-0.019": 0.0,
			"-0.018": 0.493856147787,
			"-0.017": 1.82747451689,
			"-0.016": 1.54862940705,
			"-0.015": 1.54193992794,
			"-0.014": 0.830571577613,
			"-0.013": 1.28107580263,
			"-0.012": 1.64724817804,
			"-0.011": 3.61139536813,
			"-0.01": 2.074716561,
			"-0.009": 2.9702987495,
			"-0.008": 3.8194005116,
			"-0.007": 2.52825802441,
			"-0.006": 2.99357322608,
			"-0.005": 6.01022480746,
			"-0.004": 7.74942781083,
			"-0.003": 8.76981524059,
			"-0.002": 7.35304417693,
			"-0.001": 10.9750466257,
			"0.0": 10.9568586645,
			"0.001": 8.03906326758,
			"0.002": 6.97206350646,
			"0.003": 10.4380145955,
			"0.004": 8.2748952594,
			"0.005": 3.55963331688,
			"0.006": 3.57819896919,
			"0.007": 2.6226485635,
			"0.008": 2.51675219651,
			"0.009": 2.53146078531,
			"0.01": 1.71534168125,
			"0.011": 3.01785124486,
			"0.012": 5.25552354904,
			"0.013": 6.18172675397,
			"0.014": 1.38721794894,
			"0.015": 0.00222868696561,
			"0.016": 0.0,
			"0.017": 0.0,
			"0.018": 0.0,
			"0.019": 0.0,
			"0.02": 0.0,
			"0.021": 0.0,
			"0.022": 0.0,
			"0.023": 0.0,
			"0.024": 0.0,
			"0.025": 0.0
		}
	}
}
