{
	 "smiles": "CCCCC1=CC=C(C=C1)N=CC1=CC=C(C=NC2=CC=C(CCCC)C=C2)C=C1", 
	 "Tm": 505.15, 
	 "num_atms": 62, 
	 "gaussian": { 
		 "optdone": 1, 
		 "sigma_profile": "yes", 
		 "theory": "DFT", 
		 "functional": "B3LYP", 
		 "basiset": "6-31G**", 
		 "properties": { 
			 "R2extent": 26311.2987, 
			 "electric_dipole_moment_norm": 2.84062147778, 
			 "electric_quadrupole_moment_norm": 12.6297432325, 
			 "total_energy": -1195.78037547, 
			 "HOMO_LUMO_gap": 0.12745, 
			 "cosmo_polarized_energy": -11.56, 
			 "cosmo_cavitation_energy": 64.72, 
			 "cosmo_dispersion_energy": -43.17, 
			 "cosmo_repulsion_energy": 3.31, 
			 "cosmo_total_nonelectrostatic_energy": 24.86, 
			 "SMD_solvation_energy": 7.45 
		},
		"coords": [
			{
				"x": -3.8664610936,
				"y": -2.6456329114,
				"z": -3.0460697394,
				"element": "C" 
			},
			{
				"x": -3.6073957715,
				"y": -3.9596760906,
				"z": -2.3021082602,
				"element": "C" 
			},
			{
				"x": -2.513490314,
				"y": -4.8121491175,
				"z": -2.9559379736,
				"element": "C" 
			},
			{
				"x": -2.2251491842,
				"y": -6.1441434799,
				"z": -2.2284448134,
				"element": "C" 
			},
			{
				"x": -1.6291977908,
				"y": -5.9825529132,
				"z": -0.8450080696,
				"element": "C" 
			},
			{
				"x": -2.3965227487,
				"y": -6.1635411166,
				"z": 0.3136861823,
				"element": "C" 
			},
			{
				"x": -1.8459436895,
				"y": -6.0132602537,
				"z": 1.5858475905,
				"element": "C" 
			},
			{
				"x": -0.502546376,
				"y": -5.6371508294,
				"z": 1.7355499451,
				"element": "C" 
			},
			{
				"x": 0.282287729,
				"y": -5.4661370798,
				"z": 0.5816350338,
				"element": "C" 
			},
			{
				"x": -0.2782518268,
				"y": -5.6414647449,
				"z": -0.680601154,
				"element": "C" 
			},
			{
				"x": 0.0639701956,
				"y": -5.577618654,
				"z": 3.0217507589,
				"element": "N" 
			},
			{
				"x": 0.5205093698,
				"y": -4.5221246056,
				"z": 3.5789715049,
				"element": "C" 
			},
			{
				"x": 0.5106886191,
				"y": -3.0962669663,
				"z": 3.1763124388,
				"element": "C" 
			},
			{
				"x": 1.3764277424,
				"y": -2.2312302557,
				"z": 3.8762737116,
				"element": "C" 
			},
			{
				"x": 1.4277607854,
				"y": -0.8749112041,
				"z": 3.5922864973,
				"element": "C" 
			},
			{
				"x": 0.5911064012,
				"y": -0.3313219315,
				"z": 2.6019689646,
				"element": "C" 
			},
			{
				"x": 0.614304011,
				"y": 1.0993852946,
				"z": 2.2773061513,
				"element": "C" 
			},
			{
				"x": 1.4087341303,
				"y": 1.9205110896,
				"z": 2.8583709763,
				"element": "N" 
			},
			{
				"x": 1.3599234008,
				"y": 3.2918800642,
				"z": 2.5576368085,
				"element": "C" 
			},
			{
				"x": 0.175320549,
				"y": 3.9896372315,
				"z": 2.2661641825,
				"element": "C" 
			},
			{
				"x": 0.2119146507,
				"y": 5.3570685873,
				"z": 1.9979167369,
				"element": "C" 
			},
			{
				"x": 1.4167855384,
				"y": 6.0725506231,
				"z": 2.0000960466,
				"element": "C" 
			},
			{
				"x": 1.4511285517,
				"y": 7.5620553749,
				"z": 1.722192387,
				"element": "C" 
			},
			{
				"x": 2.2556238076,
				"y": 8.0151562603,
				"z": 0.4813216104,
				"element": "C" 
			},
			{
				"x": 1.6219585825,
				"y": 7.7207570093,
				"z": -0.890504623,
				"element": "C" 
			},
			{
				"x": 1.6818944903,
				"y": 6.260131318,
				"z": -1.3552469888,
				"element": "C" 
			},
			{
				"x": 2.591918279,
				"y": 5.3711910065,
				"z": 2.3166945621,
				"element": "C" 
			},
			{
				"x": 2.566122681,
				"y": 4.01203312,
				"z": 2.6057068929,
				"element": "C" 
			},
			{
				"x": -0.2904428428,
				"y": -1.1845747891,
				"z": 1.9176609046,
				"element": "C" 
			},
			{
				"x": -0.3326267378,
				"y": -2.5467811686,
				"z": 2.1934691707,
				"element": "C" 
			},
			{
				"x": -4.6543384159,
				"y": -2.059378987,
				"z": -2.5615668068,
				"element": "H" 
			},
			{
				"x": -2.9635012742,
				"y": -2.0250131725,
				"z": -3.0799764508,
				"element": "H" 
			},
			{
				"x": -4.1778432976,
				"y": -2.8287310454,
				"z": -4.0809957351,
				"element": "H" 
			},
			{
				"x": -3.3297126269,
				"y": -3.7458535116,
				"z": -1.2626057897,
				"element": "H" 
			},
			{
				"x": -4.537584697,
				"y": -4.5429735557,
				"z": -2.2542320046,
				"element": "H" 
			},
			{
				"x": -2.8022438781,
				"y": -5.0358550744,
				"z": -3.9920618981,
				"element": "H" 
			},
			{
				"x": -1.5847828578,
				"y": -4.2281083681,
				"z": -3.0162577787,
				"element": "H" 
			},
			{
				"x": -1.5405665186,
				"y": -6.7363138027,
				"z": -2.8488091768,
				"element": "H" 
			},
			{
				"x": -3.1554515672,
				"y": -6.7219918832,
				"z": -2.1596228242,
				"element": "H" 
			},
			{
				"x": -3.4428743729,
				"y": -6.4447960049,
				"z": 0.2208889068,
				"element": "H" 
			},
			{
				"x": -2.4484231828,
				"y": -6.1811250624,
				"z": 2.4732441308,
				"element": "H" 
			},
			{
				"x": 1.3323182899,
				"y": -5.2108819567,
				"z": 0.6872753437,
				"element": "H" 
			},
			{
				"x": 0.3509378638,
				"y": -5.5140324251,
				"z": -1.5589464084,
				"element": "H" 
			},
			{
				"x": 1.0044528376,
				"y": -4.6872533731,
				"z": 4.5483543177,
				"element": "H" 
			},
			{
				"x": 2.018064654,
				"y": -2.6424679193,
				"z": 4.6517737854,
				"element": "H" 
			},
			{
				"x": 2.1012742024,
				"y": -0.2121100263,
				"z": 4.1248331085,
				"element": "H" 
			},
			{
				"x": -0.0850840242,
				"y": 1.420768434,
				"z": 1.4912354762,
				"element": "H" 
			},
			{
				"x": -0.7777413138,
				"y": 3.4693932921,
				"z": 2.2889119586,
				"element": "H" 
			},
			{
				"x": -0.7174384584,
				"y": 5.8820538484,
				"z": 1.7898970827,
				"element": "H" 
			},
			{
				"x": 0.4236794496,
				"y": 7.9365830274,
				"z": 1.6336945684,
				"element": "H" 
			},
			{
				"x": 1.8814308276,
				"y": 8.0661148296,
				"z": 2.5983575142,
				"element": "H" 
			},
			{
				"x": 2.3927209606,
				"y": 9.1007437917,
				"z": 0.5669235975,
				"element": "H" 
			},
			{
				"x": 3.2639528982,
				"y": 7.5810559596,
				"z": 0.5190747173,
				"element": "H" 
			},
			{
				"x": 0.5774568474,
				"y": 8.0628894538,
				"z": -0.8821817493,
				"element": "H" 
			},
			{
				"x": 2.1325166865,
				"y": 8.343721814,
				"z": -1.6365409116,
				"element": "H" 
			},
			{
				"x": 1.110249603,
				"y": 5.5958029003,
				"z": -0.702926271,
				"element": "H" 
			},
			{
				"x": 2.7155770196,
				"y": 5.895883161,
				"z": -1.3709255949,
				"element": "H" 
			},
			{
				"x": 1.2806606153,
				"y": 6.1609656057,
				"z": -2.3698165366,
				"element": "H" 
			},
			{
				"x": 3.539648136,
				"y": 5.9030597945,
				"z": 2.3525293077,
				"element": "H" 
			},
			{
				"x": 3.4749848573,
				"y": 3.4771537108,
				"z": 2.8629967665,
				"element": "H" 
			},
			{
				"x": -0.9511313185,
				"y": -0.770909635,
				"z": 1.1596708471,
				"element": "H" 
			},
			{
				"x": -1.0248590839,
				"y": -3.1810126871,
				"z": 1.6550070719,
				"element": "H" 
			}
		],
		 "valence_orbital": [ 
			{
				"type": "occ",
				"energy": -0.25342,
				"method": "rhf"
			},
			{
				"type": "occ",
				"energy": -0.25112,
				"method": "rhf"
			},
			{
				"type": "occ",
				"energy": -0.24505,
				"method": "rhf"
			},
			{
				"type": "occ",
				"energy": -0.21706,
				"method": "rhf"
			},
			{
				"type": "occ",
				"energy": -0.20556,
				"method": "rhf"
			},
			{
				"type": "unocc",
				"energy": -0.07811,
				"method": "rhf"
			},
			{
				"type": "unocc",
				"energy": -0.02265,
				"method": "rhf"
			},
			{
				"type": "unocc",
				"energy": -0.01401,
				"method": "rhf"
			},
			{
				"type": "unocc",
				"energy": -0.00312,
				"method": "rhf"
			},
			{
				"type": "unocc",
				"energy": 0.00419,
				"method": "rhf"
			}
		],
		"cosmo_sigma_profile": { 
			"-0.025": 0.0,
			"-0.024": 0.0,
			"-0.023": 0.0,
			"-0.022": 0.0,
			"-0.021": 0.0,
			"-0.02": 0.0,
			"-0.019": 0.0,
			"-0.018": 0.0,
			"-0.017": 0.0,
			"-0.016": 0.0,
			"-0.015": 0.0,
			"-0.014": 0.0,
			"-0.013": 0.0,
			"-0.012": 0.0,
			"-0.011": 0.0,
			"-0.01": 0.0,
			"-0.009": 0.0,
			"-0.008": 0.813386558118,
			"-0.007": 7.73161980603,
			"-0.006": 13.3644271656,
			"-0.005": 22.9625246098,
			"-0.004": 27.3452498259,
			"-0.003": 38.9522315895,
			"-0.002": 57.5415379949,
			"-0.001": 63.7535943619,
			"0.0": 67.8141805602,
			"0.001": 60.7628465801,
			"0.002": 44.6518343945,
			"0.003": 36.2387793033,
			"0.004": 24.1477893462,
			"0.005": 18.0867106605,
			"0.006": 10.2086333532,
			"0.007": 3.77834095037,
			"0.008": 2.80450961864,
			"0.009": 2.36962580898,
			"0.01": 2.44934275921,
			"0.011": 1.3706959071,
			"0.012": 0.678096403647,
			"0.013": 1.02828155615,
			"0.014": 0.827281103516,
			"0.015": 0.614974965267,
			"0.016": 0.0584767763043,
			"0.017": 0.0,
			"0.018": 0.0,
			"0.019": 0.0,
			"0.02": 0.0,
			"0.021": 0.0,
			"0.022": 0.0,
			"0.023": 0.0,
			"0.024": 0.0,
			"0.025": 0.0
		}
	}
}
