{
	 "smiles": "COC1=CC=C(CNS(=O)(=O)C2=CNN=C2N)C=C1", 
	 "Tm": 411.15, 
	 "num_atms": 33, 
	 "gaussian": { 
		 "optdone": 1, 
		 "sigma_profile": "yes", 
		 "theory": "DFT", 
		 "functional": "B3LYP", 
		 "basiset": "6-31G**", 
		 "properties": { 
			 "R2extent": 9031.5039, 
			 "electric_dipole_moment_norm": 3.82681909946, 
			 "electric_quadrupole_moment_norm": 29.6974570231, 
			 "total_energy": -1270.37228615, 
			 "HOMO_LUMO_gap": 0.21382, 
			 "cosmo_polarized_energy": -23.87, 
			 "cosmo_cavitation_energy": 39.06, 
			 "cosmo_dispersion_energy": -28.09, 
			 "cosmo_repulsion_energy": 2.15, 
			 "cosmo_total_nonelectrostatic_energy": 13.12, 
			 "SMD_solvation_energy": 5.27 
		},
		"coords": [
			{
				"x": 1.5341432449,
				"y": 4.8659255624,
				"z": 3.2236816539,
				"element": "C" 
			},
			{
				"x": 1.3021363221,
				"y": 4.1649935186,
				"z": 2.0123196356,
				"element": "O" 
			},
			{
				"x": 1.0042201788,
				"y": 2.8355943288,
				"z": 2.0824422182,
				"element": "C" 
			},
			{
				"x": 0.9086986859,
				"y": 2.1011925384,
				"z": 3.2686600429,
				"element": "C" 
			},
			{
				"x": 0.5983472013,
				"y": 0.7381479604,
				"z": 3.2103627255,
				"element": "C" 
			},
			{
				"x": 0.3737332342,
				"y": 0.0919500669,
				"z": 1.9948416494,
				"element": "C" 
			},
			{
				"x": 0.0181055413,
				"y": -1.3766807825,
				"z": 1.9514101397,
				"element": "C" 
			},
			{
				"x": 0.9589780155,
				"y": -2.1005251294,
				"z": 1.0752873452,
				"element": "N" 
			},
			{
				"x": 0.6960003116,
				"y": -3.751905601,
				"z": 0.8365380786,
				"element": "S" 
			},
			{
				"x": 1.9621165247,
				"y": -4.2351345531,
				"z": 0.2620541429,
				"element": "O" 
			},
			{
				"x": 0.1203918719,
				"y": -4.3747943417,
				"z": 2.0356715552,
				"element": "O" 
			},
			{
				"x": -0.5231103474,
				"y": -3.7868367773,
				"z": -0.4094536588,
				"element": "C" 
			},
			{
				"x": -1.865152367,
				"y": -4.0991410381,
				"z": -0.2532340074,
				"element": "C" 
			},
			{
				"x": -2.3958330668,
				"y": -4.0476875182,
				"z": -1.4861861546,
				"element": "N" 
			},
			{
				"x": -1.4920250881,
				"y": -3.7353417479,
				"z": -2.4641535256,
				"element": "N" 
			},
			{
				"x": -0.3428594271,
				"y": -3.5714797488,
				"z": -1.8118158326,
				"element": "C" 
			},
			{
				"x": 0.8244169368,
				"y": -3.2048307516,
				"z": -2.4432384407,
				"element": "N" 
			},
			{
				"x": 0.4769552145,
				"y": 0.8441908462,
				"z": 0.811675487,
				"element": "C" 
			},
			{
				"x": 0.7878105207,
				"y": 2.1951701037,
				"z": 0.8506895335,
				"element": "C" 
			},
			{
				"x": 2.3925087707,
				"y": 4.4557890754,
				"z": 3.7713957505,
				"element": "H" 
			},
			{
				"x": 1.7501861536,
				"y": 5.8968267693,
				"z": 2.9391519872,
				"element": "H" 
			},
			{
				"x": 0.6521089784,
				"y": 4.8495521973,
				"z": 3.8769688706,
				"element": "H" 
			},
			{
				"x": 1.0757819093,
				"y": 2.568064512,
				"z": 4.2319634213,
				"element": "H" 
			},
			{
				"x": 0.5302141704,
				"y": 0.174732148,
				"z": 4.1378554816,
				"element": "H" 
			},
			{
				"x": -0.0044793478,
				"y": -1.7963867169,
				"z": 2.9646863984,
				"element": "H" 
			},
			{
				"x": -0.9813909426,
				"y": -1.5163508612,
				"z": 1.5209464368,
				"element": "H" 
			},
			{
				"x": 1.9361039095,
				"y": -1.9765950453,
				"z": 1.3347380498,
				"element": "H" 
			},
			{
				"x": -2.4271220486,
				"y": -4.357897747,
				"z": 0.6314053898,
				"element": "H" 
			},
			{
				"x": -3.3507019446,
				"y": -4.2259566562,
				"z": -1.7537071589,
				"element": "H" 
			},
			{
				"x": 0.8207014941,
				"y": -3.3783325621,
				"z": -3.4391313304,
				"element": "H" 
			},
			{
				"x": 1.6599868164,
				"y": -3.5286804655,
				"z": -1.9703308866,
				"element": "H" 
			},
			{
				"x": 0.3208918547,
				"y": 0.3543510875,
				"z": -0.1452114045,
				"element": "H" 
			},
			{
				"x": 0.8696367189,
				"y": 2.7823773289,
				"z": -0.0581835934,
				"element": "H" 
			}
		],
		 "valence_orbital": [ 
			{
				"type": "occ",
				"energy": -0.27881,
				"method": "rhf"
			},
			{
				"type": "occ",
				"energy": -0.25776,
				"method": "rhf"
			},
			{
				"type": "occ",
				"energy": -0.25195,
				"method": "rhf"
			},
			{
				"type": "occ",
				"energy": -0.22059,
				"method": "rhf"
			},
			{
				"type": "occ",
				"energy": -0.21918,
				"method": "rhf"
			},
			{
				"type": "unocc",
				"energy": -0.00536,
				"method": "rhf"
			},
			{
				"type": "unocc",
				"energy": -0.00403,
				"method": "rhf"
			},
			{
				"type": "unocc",
				"energy": 0.00339,
				"method": "rhf"
			},
			{
				"type": "unocc",
				"energy": 0.04177,
				"method": "rhf"
			},
			{
				"type": "unocc",
				"energy": 0.06281,
				"method": "rhf"
			}
		],
		"cosmo_sigma_profile": { 
			"-0.025": 0.0,
			"-0.024": 0.0,
			"-0.023": 0.0,
			"-0.022": 0.0,
			"-0.021": 0.0,
			"-0.02": 0.0,
			"-0.019": 0.0,
			"-0.018": 0.314609966307,
			"-0.017": 1.49007263155,
			"-0.016": 1.68976302251,
			"-0.015": 1.15552250823,
			"-0.014": 2.60100370805,
			"-0.013": 2.61880902391,
			"-0.012": 2.78058475073,
			"-0.011": 3.9777979492,
			"-0.01": 5.78767093894,
			"-0.009": 4.664885768,
			"-0.008": 4.23699492321,
			"-0.007": 4.89723237366,
			"-0.006": 13.304566121,
			"-0.005": 24.3038325713,
			"-0.004": 25.7235339325,
			"-0.003": 21.7828888627,
			"-0.002": 16.9959872775,
			"-0.001": 14.8735568291,
			"0.0": 14.1322290412,
			"0.001": 16.3927561658,
			"0.002": 16.7176958059,
			"0.003": 16.5464461494,
			"0.004": 15.5297305402,
			"0.005": 16.3788757032,
			"0.006": 11.1877264697,
			"0.007": 6.66403949531,
			"0.008": 7.27625808553,
			"0.009": 6.92747403399,
			"0.01": 9.17203325099,
			"0.011": 9.66464651141,
			"0.012": 6.78104049377,
			"0.013": 1.408620073,
			"0.014": 1.01741422956,
			"0.015": 1.12761599112,
			"0.016": 0.079429598414,
			"0.017": 0.0,
			"0.018": 0.0,
			"0.019": 0.0,
			"0.02": 0.0,
			"0.021": 0.0,
			"0.022": 0.0,
			"0.023": 0.0,
			"0.024": 0.0,
			"0.025": 0.0
		}
	}
}
