{
	 "smiles": "COC1=NC=CN=C1NS(=O)(=O)C1=CC=C(N)C=C1", 
	 "Tm": 449.15, 
	 "num_atms": 31, 
	 "gaussian": { 
		 "optdone": 1, 
		 "sigma_profile": "yes", 
		 "theory": "DFT", 
		 "functional": "B3LYP", 
		 "basiset": "6-31G**", 
		 "properties": { 
			 "R2extent": 6540.175, 
			 "electric_dipole_moment_norm": 6.23308815436, 
			 "electric_quadrupole_moment_norm": 26.1557178208, 
			 "total_energy": -1269.19128585, 
			 "HOMO_LUMO_gap": 0.17867, 
			 "cosmo_polarized_energy": -21.36, 
			 "cosmo_cavitation_energy": 37.17, 
			 "cosmo_dispersion_energy": -27.19, 
			 "cosmo_repulsion_energy": 2.07, 
			 "cosmo_total_nonelectrostatic_energy": 12.05, 
			 "SMD_solvation_energy": 5.07 
		},
		"coords": [
			{
				"x": -1.2433051052,
				"y": 2.6848476865,
				"z": 3.9109478083,
				"element": "C" 
			},
			{
				"x": -0.8770784444,
				"y": 1.9902365183,
				"z": 2.7117872153,
				"element": "O" 
			},
			{
				"x": -1.8813772557,
				"y": 1.6545385165,
				"z": 1.8697732013,
				"element": "C" 
			},
			{
				"x": -3.1341269324,
				"y": 1.9287414923,
				"z": 2.1464839128,
				"element": "N" 
			},
			{
				"x": -4.0588181023,
				"y": 1.5475467065,
				"z": 1.2352645122,
				"element": "C" 
			},
			{
				"x": -3.6951313791,
				"y": 0.8960107373,
				"z": 0.0726204823,
				"element": "C" 
			},
			{
				"x": -2.4077992038,
				"y": 0.6067429862,
				"z": -0.2120045163,
				"element": "N" 
			},
			{
				"x": -1.4976215779,
				"y": 0.9843485799,
				"z": 0.6670767153,
				"element": "C" 
			},
			{
				"x": -0.151785716,
				"y": 0.7011102604,
				"z": 0.4649645374,
				"element": "N" 
			},
			{
				"x": 0.6012897623,
				"y": 0.5078978207,
				"z": -1.0666302999,
				"element": "S" 
			},
			{
				"x": -0.0211739614,
				"y": 1.4059741859,
				"z": -2.0358655313,
				"element": "O" 
			},
			{
				"x": 2.0195809704,
				"y": 0.6212061013,
				"z": -0.7120882809,
				"element": "O" 
			},
			{
				"x": 0.2586395399,
				"y": -1.1690142593,
				"z": -1.5337817324,
				"element": "C" 
			},
			{
				"x": -0.8745740997,
				"y": -1.4659324508,
				"z": -2.2972881272,
				"element": "C" 
			},
			{
				"x": -1.119487822,
				"y": -2.7784097809,
				"z": -2.6748542003,
				"element": "C" 
			},
			{
				"x": -0.2378194343,
				"y": -3.8124417052,
				"z": -2.2997397058,
				"element": "C" 
			},
			{
				"x": -0.4583378852,
				"y": -5.1121059177,
				"z": -2.7200078055,
				"element": "N" 
			},
			{
				"x": 0.9020615992,
				"y": -3.4902323803,
				"z": -1.5353994155,
				"element": "C" 
			},
			{
				"x": 1.1495479073,
				"y": -2.1786520579,
				"z": -1.1559673337,
				"element": "C" 
			},
			{
				"x": -0.3065178959,
				"y": 2.8696839226,
				"z": 4.436951294,
				"element": "H" 
			},
			{
				"x": -1.7436235909,
				"y": 3.6280665439,
				"z": 3.6752814084,
				"element": "H" 
			},
			{
				"x": -1.9133731629,
				"y": 2.0751150942,
				"z": 4.5231294279,
				"element": "H" 
			},
			{
				"x": -5.0957502893,
				"y": 1.7797065295,
				"z": 1.4605296274,
				"element": "H" 
			},
			{
				"x": -4.4371548843,
				"y": 0.5894814248,
				"z": -0.6593909054,
				"element": "H" 
			},
			{
				"x": 0.4937320287,
				"y": 1.1024724566,
				"z": 1.136893648,
				"element": "H" 
			},
			{
				"x": -1.5543661329,
				"y": -0.6704191144,
				"z": -2.5769302345,
				"element": "H" 
			},
			{
				"x": -1.9960842211,
				"y": -3.0138963052,
				"z": -3.2725509174,
				"element": "H" 
			},
			{
				"x": -1.3987630395,
				"y": -5.3483328862,
				"z": -2.9997057223,
				"element": "H" 
			},
			{
				"x": 0.0066080503,
				"y": -5.8445276552,
				"z": -2.2044321522,
				"element": "H" 
			},
			{
				"x": 1.5971937649,
				"y": -4.2760945502,
				"z": -1.252185089,
				"element": "H" 
			},
			{
				"x": 2.0350165133,
				"y": -1.9279685002,
				"z": -0.582281821,
				"element": "H" 
			}
		],
		 "valence_orbital": [ 
			{
				"type": "occ",
				"energy": -0.28848,
				"method": "rhf"
			},
			{
				"type": "occ",
				"energy": -0.26396,
				"method": "rhf"
			},
			{
				"type": "occ",
				"energy": -0.25659,
				"method": "rhf"
			},
			{
				"type": "occ",
				"energy": -0.22756,
				"method": "rhf"
			},
			{
				"type": "occ",
				"energy": -0.21573,
				"method": "rhf"
			},
			{
				"type": "unocc",
				"energy": -0.03706,
				"method": "rhf"
			},
			{
				"type": "unocc",
				"energy": -0.01871,
				"method": "rhf"
			},
			{
				"type": "unocc",
				"energy": -0.01057,
				"method": "rhf"
			},
			{
				"type": "unocc",
				"energy": -0.00507,
				"method": "rhf"
			},
			{
				"type": "unocc",
				"energy": 0.05873,
				"method": "rhf"
			}
		],
		"cosmo_sigma_profile": { 
			"-0.025": 0.0,
			"-0.024": 0.0,
			"-0.023": 0.0,
			"-0.022": 0.0,
			"-0.021": 0.0,
			"-0.02": 0.0,
			"-0.019": 0.0,
			"-0.018": 0.0,
			"-0.017": 0.0,
			"-0.016": 0.0,
			"-0.015": 0.0,
			"-0.014": 0.443446899534,
			"-0.013": 2.87883131634,
			"-0.012": 3.47642299546,
			"-0.011": 3.50043117062,
			"-0.01": 4.75762647681,
			"-0.009": 3.84674526246,
			"-0.008": 4.41356812895,
			"-0.007": 10.8578269969,
			"-0.006": 15.6370596259,
			"-0.005": 19.1994018467,
			"-0.004": 18.6881879837,
			"-0.003": 20.1626815174,
			"-0.002": 18.6706811643,
			"-0.001": 14.8792970166,
			"0.0": 17.3744068777,
			"0.001": 18.8195776863,
			"0.002": 18.9195504324,
			"0.003": 19.67004917,
			"0.004": 21.9774082707,
			"0.005": 9.29634466343,
			"0.006": 7.52153114954,
			"0.007": 6.29327062881,
			"0.008": 6.23993417267,
			"0.009": 6.06324058878,
			"0.01": 10.6097803722,
			"0.011": 10.5603394938,
			"0.012": 2.29544951647,
			"0.013": 0.0957720624512,
			"0.014": 0.0,
			"0.015": 0.0,
			"0.016": 0.0,
			"0.017": 0.0,
			"0.018": 0.0,
			"0.019": 0.0,
			"0.02": 0.0,
			"0.021": 0.0,
			"0.022": 0.0,
			"0.023": 0.0,
			"0.024": 0.0,
			"0.025": 0.0
		}
	}
}
