{
	 "smiles": "NC1=C(F)C=C(F)C(=C1)[N+]([O-])=O", 
	 "Tm": 372.15, 
	 "num_atms": 16, 
	 "gaussian": { 
		 "optdone": 1, 
		 "sigma_profile": "yes", 
		 "theory": "DFT", 
		 "functional": "B3LYP", 
		 "basiset": "6-31G**", 
		 "properties": { 
			 "R2extent": 2828.1596, 
			 "electric_dipole_moment_norm": 5.34682159231, 
			 "electric_quadrupole_moment_norm": 17.4412908757, 
			 "total_energy": -690.55676579, 
			 "HOMO_LUMO_gap": 0.14356, 
			 "cosmo_polarized_energy": -12.26, 
			 "cosmo_cavitation_energy": 22.31, 
			 "cosmo_dispersion_energy": -16.44, 
			 "cosmo_repulsion_energy": 1.27, 
			 "cosmo_total_nonelectrostatic_energy": 7.14, 
			 "SMD_solvation_energy": 6.99 
		},
		"coords": [
			{
				"x": 2.357924087,
				"y": -0.9402528247,
				"z": -0.5268606345,
				"element": "N" 
			},
			{
				"x": 0.9718365366,
				"y": -0.8846669866,
				"z": -0.5370555526,
				"element": "C" 
			},
			{
				"x": 0.3192686186,
				"y": 0.3604861233,
				"z": -0.6046006336,
				"element": "C" 
			},
			{
				"x": 1.0928432553,
				"y": 1.4663457881,
				"z": -0.5801908627,
				"element": "F" 
			},
			{
				"x": -1.0541544638,
				"y": 0.4929558294,
				"z": -0.6794097827,
				"element": "C" 
			},
			{
				"x": -1.8485969384,
				"y": -0.6516692042,
				"z": -0.6913727148,
				"element": "C" 
			},
			{
				"x": -3.1714024968,
				"y": -0.4862624021,
				"z": -0.7600786655,
				"element": "F" 
			},
			{
				"x": -1.2372226272,
				"y": -1.910328489,
				"z": -0.6206818071,
				"element": "C" 
			},
			{
				"x": 0.156370818,
				"y": -2.0163101038,
				"z": -0.5448471065,
				"element": "C" 
			},
			{
				"x": -2.010286018,
				"y": -3.1570298107,
				"z": -0.621593632,
				"element": "N" 
			},
			{
				"x": -1.3800332792,
				"y": -4.2101694956,
				"z": -0.5012708948,
				"element": "O" 
			},
			{
				"x": -3.2299905424,
				"y": -3.0832401195,
				"z": -0.7419154354,
				"element": "O" 
			},
			{
				"x": 2.7626609,
				"y": -1.7745223028,
				"z": -0.1275000662,
				"element": "H" 
			},
			{
				"x": 2.8165126155,
				"y": -0.0903154293,
				"z": -0.2313150674,
				"element": "H" 
			},
			{
				"x": -1.5126332757,
				"y": 1.473285817,
				"z": -0.7245462233,
				"element": "H" 
			},
			{
				"x": 0.5818028104,
				"y": -3.0111063896,
				"z": -0.495660921,
				"element": "H" 
			}
		],
		 "valence_orbital": [ 
			{
				"type": "occ",
				"energy": -0.30757,
				"method": "rhf"
			},
			{
				"type": "occ",
				"energy": -0.30595,
				"method": "rhf"
			},
			{
				"type": "occ",
				"energy": -0.28824,
				"method": "rhf"
			},
			{
				"type": "occ",
				"energy": -0.28464,
				"method": "rhf"
			},
			{
				"type": "occ",
				"energy": -0.23134,
				"method": "rhf"
			},
			{
				"type": "unocc",
				"energy": -0.08778,
				"method": "rhf"
			},
			{
				"type": "unocc",
				"energy": -0.02402,
				"method": "rhf"
			},
			{
				"type": "unocc",
				"energy": 0.00666,
				"method": "rhf"
			},
			{
				"type": "unocc",
				"energy": 0.05572,
				"method": "rhf"
			},
			{
				"type": "unocc",
				"energy": 0.06443,
				"method": "rhf"
			}
		],
		"cosmo_sigma_profile": { 
			"-0.025": 0.0,
			"-0.024": 0.0,
			"-0.023": 0.0,
			"-0.022": 0.0,
			"-0.021": 0.0,
			"-0.02": 0.0,
			"-0.019": 0.0,
			"-0.018": 0.0,
			"-0.017": 0.0,
			"-0.016": 0.0,
			"-0.015": 0.0,
			"-0.014": 0.966635700695,
			"-0.013": 2.49545477575,
			"-0.012": 2.41294981483,
			"-0.011": 2.86130389215,
			"-0.01": 3.61250255558,
			"-0.009": 3.884479558,
			"-0.008": 4.10421418595,
			"-0.007": 4.78031023833,
			"-0.006": 5.88140829766,
			"-0.005": 5.16328408038,
			"-0.004": 6.14200756147,
			"-0.003": 7.90031741942,
			"-0.002": 13.6111731294,
			"-0.001": 20.2706476828,
			"0.0": 16.0007556375,
			"0.001": 9.04508264188,
			"0.002": 9.42846040679,
			"0.003": 15.9480087346,
			"0.004": 5.82041682365,
			"0.005": 4.66032909171,
			"0.006": 5.37492896692,
			"0.007": 7.2406701804,
			"0.008": 10.9650263456,
			"0.009": 6.10210942012,
			"0.01": 3.22934579915,
			"0.011": 0.825760165776,
			"0.012": 0.638156130438,
			"0.013": 0.107074671094,
			"0.014": 0.0,
			"0.015": 0.0,
			"0.016": 0.0,
			"0.017": 0.0,
			"0.018": 0.0,
			"0.019": 0.0,
			"0.02": 0.0,
			"0.021": 0.0,
			"0.022": 0.0,
			"0.023": 0.0,
			"0.024": 0.0,
			"0.025": 0.0
		}
	}
}
