{
	 "smiles": "NC(CC1=CC=CS1)=NO", 
	 "Tm": 353.65, 
	 "num_atms": 18, 
	 "gaussian": { 
		 "optdone": 1, 
		 "sigma_profile": "yes", 
		 "theory": "DFT", 
		 "functional": "B3LYP", 
		 "basiset": "6-31G**", 
		 "properties": { 
			 "R2extent": 2050.3653, 
			 "electric_dipole_moment_norm": 1.74965203683, 
			 "electric_quadrupole_moment_norm": 2.49391859931, 
			 "total_energy": -816.308566242, 
			 "HOMO_LUMO_gap": 0.19393, 
			 "cosmo_polarized_energy": -11.12, 
			 "cosmo_cavitation_energy": 23.74, 
			 "cosmo_dispersion_energy": -17.89, 
			 "cosmo_repulsion_energy": 1.43, 
			 "cosmo_total_nonelectrostatic_energy": 7.28, 
			 "SMD_solvation_energy": 3.83 
		},
		"coords": [
			{
				"x": 1.0534459913,
				"y": -0.7653680725,
				"z": -1.5124273671,
				"element": "N" 
			},
			{
				"x": 1.2207056794,
				"y": 0.4858602929,
				"z": -0.9664342081,
				"element": "C" 
			},
			{
				"x": 0.7904827276,
				"y": 0.6990063388,
				"z": 0.4684901896,
				"element": "C" 
			},
			{
				"x": -0.6838577087,
				"y": 0.4620213593,
				"z": 0.6908622941,
				"element": "C" 
			},
			{
				"x": -1.736755356,
				"y": 1.2606255106,
				"z": 0.3271279819,
				"element": "C" 
			},
			{
				"x": -3.0115867308,
				"y": 0.7123063266,
				"z": 0.6649518907,
				"element": "C" 
			},
			{
				"x": -2.9208987804,
				"y": -0.5054803182,
				"z": 1.2799396202,
				"element": "C" 
			},
			{
				"x": -1.2665717541,
				"y": -0.9964243891,
				"z": 1.4609222927,
				"element": "S" 
			},
			{
				"x": 1.7757028716,
				"y": 1.4877025997,
				"z": -1.5593697919,
				"element": "N" 
			},
			{
				"x": 2.1252013201,
				"y": 1.1106135431,
				"z": -2.8939594078,
				"element": "O" 
			},
			{
				"x": 0.2818789813,
				"y": -1.3082368423,
				"z": -1.1507801849,
				"element": "H" 
			},
			{
				"x": 1.1662186905,
				"y": -0.7965235937,
				"z": -2.5167027214,
				"element": "H" 
			},
			{
				"x": 1.3801941286,
				"y": 0.0394123965,
				"z": 1.1165428973,
				"element": "H" 
			},
			{
				"x": 1.0479135597,
				"y": 1.7282848751,
				"z": 0.730965236,
				"element": "H" 
			},
			{
				"x": -1.5995821575,
				"y": 2.2142046442,
				"z": -0.1714387716,
				"element": "H" 
			},
			{
				"x": -3.9546196674,
				"y": 1.2070356887,
				"z": 0.4610673195,
				"element": "H" 
			},
			{
				"x": -3.7179872087,
				"y": -1.1368691279,
				"z": 1.6468223003,
				"element": "H" 
			},
			{
				"x": 2.4854154135,
				"y": 1.9345287682,
				"z": -3.2425795693,
				"element": "H" 
			}
		],
		 "valence_orbital": [ 
			{
				"type": "occ",
				"energy": -0.30768,
				"method": "rhf"
			},
			{
				"type": "occ",
				"energy": -0.26868,
				"method": "rhf"
			},
			{
				"type": "occ",
				"energy": -0.25534,
				"method": "rhf"
			},
			{
				"type": "occ",
				"energy": -0.23256,
				"method": "rhf"
			},
			{
				"type": "occ",
				"energy": -0.21041,
				"method": "rhf"
			},
			{
				"type": "unocc",
				"energy": -0.01648,
				"method": "rhf"
			},
			{
				"type": "unocc",
				"energy": 0.0203,
				"method": "rhf"
			},
			{
				"type": "unocc",
				"energy": 0.04553,
				"method": "rhf"
			},
			{
				"type": "unocc",
				"energy": 0.05758,
				"method": "rhf"
			},
			{
				"type": "unocc",
				"energy": 0.07984,
				"method": "rhf"
			}
		],
		"cosmo_sigma_profile": { 
			"-0.025": 0.0,
			"-0.024": 0.0,
			"-0.023": 0.0,
			"-0.022": 0.0,
			"-0.021": 0.0,
			"-0.02": 0.0,
			"-0.019": 0.0,
			"-0.018": 0.0,
			"-0.017": 0.152538803037,
			"-0.016": 1.02390233359,
			"-0.015": 0.669623446085,
			"-0.014": 1.08596378331,
			"-0.013": 0.854106251915,
			"-0.012": 0.49494117686,
			"-0.011": 1.90320392225,
			"-0.01": 2.42321596286,
			"-0.009": 2.89335949313,
			"-0.008": 4.88385880166,
			"-0.007": 5.90801632156,
			"-0.006": 12.0986540087,
			"-0.005": 11.8593407058,
			"-0.004": 12.4471302926,
			"-0.003": 11.5362713146,
			"-0.002": 9.97039413888,
			"-0.001": 10.5054916503,
			"0.0": 8.98668609104,
			"0.001": 9.65789480096,
			"0.002": 13.6431646082,
			"0.003": 12.9910559912,
			"0.004": 11.8589633147,
			"0.005": 11.9039000499,
			"0.006": 6.08837701029,
			"0.007": 3.95932893362,
			"0.008": 5.46952373523,
			"0.009": 4.42549349633,
			"0.01": 3.64935032615,
			"0.011": 2.47050359462,
			"0.012": 1.52907060839,
			"0.013": 1.19502147228,
			"0.014": 1.19906666365,
			"0.015": 0.672166017879,
			"0.016": 0.00951128034014,
			"0.017": 0.0,
			"0.018": 0.0,
			"0.019": 0.0,
			"0.02": 0.0,
			"0.021": 0.0,
			"0.022": 0.0,
			"0.023": 0.0,
			"0.024": 0.0,
			"0.025": 0.0
		}
	}
}
