{
	 "smiles": "NCC1=CC(=CC=C1)C1=CSC=C1", 
	 "Tm": 353.15, 
	 "num_atms": 24, 
	 "gaussian": { 
		 "optdone": 1, 
		 "sigma_profile": "yes", 
		 "theory": "DFT", 
		 "functional": "B3LYP", 
		 "basiset": "6-31G**", 
		 "properties": { 
			 "R2extent": 4106.164, 
			 "electric_dipole_moment_norm": 1.82250055144, 
			 "electric_quadrupole_moment_norm": 11.7796266698, 
			 "total_energy": -878.726018824, 
			 "HOMO_LUMO_gap": 0.18975, 
			 "cosmo_polarized_energy": -8.78, 
			 "cosmo_cavitation_energy": 29.1, 
			 "cosmo_dispersion_energy": -21.87, 
			 "cosmo_repulsion_energy": 1.69, 
			 "cosmo_total_nonelectrostatic_energy": 8.92, 
			 "SMD_solvation_energy": 4.02 
		},
		"coords": [
			{
				"x": 0.2188338861,
				"y": -1.2001263969,
				"z": -2.5873375755,
				"element": "N" 
			},
			{
				"x": 0.5223476604,
				"y": -2.0624285328,
				"z": -1.4407892624,
				"element": "C" 
			},
			{
				"x": -0.2349634609,
				"y": -1.6353823289,
				"z": -0.1961660046,
				"element": "C" 
			},
			{
				"x": -0.4632496294,
				"y": -0.2815828738,
				"z": 0.0668077131,
				"element": "C" 
			},
			{
				"x": -1.1310116902,
				"y": 0.1379465429,
				"z": 1.2285622108,
				"element": "C" 
			},
			{
				"x": -1.562302493,
				"y": -0.8390549144,
				"z": 2.1425399134,
				"element": "C" 
			},
			{
				"x": -1.3350413549,
				"y": -2.1904689932,
				"z": 1.8912986545,
				"element": "C" 
			},
			{
				"x": -0.6802591246,
				"y": -2.5900897414,
				"z": 0.7258199488,
				"element": "C" 
			},
			{
				"x": -1.3800266007,
				"y": 1.5730913159,
				"z": 1.4846267629,
				"element": "C" 
			},
			{
				"x": -1.5618496205,
				"y": 2.5201484455,
				"z": 0.5029093908,
				"element": "C" 
			},
			{
				"x": -1.8362364249,
				"y": 4.1007622614,
				"z": 1.1523585705,
				"element": "S" 
			},
			{
				"x": -1.7054829619,
				"y": 3.5032833287,
				"z": 2.7758747064,
				"element": "C" 
			},
			{
				"x": -1.4675698683,
				"y": 2.1598153106,
				"z": 2.7959596504,
				"element": "C" 
			},
			{
				"x": -0.7477037975,
				"y": -1.336336572,
				"z": -2.8742918836,
				"element": "H" 
			},
			{
				"x": 0.8006373508,
				"y": -1.4583719245,
				"z": -3.3798138859,
				"element": "H" 
			},
			{
				"x": 1.6011755501,
				"y": -1.9763180482,
				"z": -1.249835446,
				"element": "H" 
			},
			{
				"x": 0.3297450762,
				"y": -3.1352231905,
				"z": -1.6159725843,
				"element": "H" 
			},
			{
				"x": -0.1009828807,
				"y": 0.4491516358,
				"z": -0.6487451574,
				"element": "H" 
			},
			{
				"x": -2.1005833824,
				"y": -0.5408175258,
				"z": 3.0372141572,
				"element": "H" 
			},
			{
				"x": -1.6835931976,
				"y": -2.9366493922,
				"z": 2.6000328412,
				"element": "H" 
			},
			{
				"x": -0.5139595914,
				"y": -3.646936241,
				"z": 0.530571211,
				"element": "H" 
			},
			{
				"x": -1.5805596253,
				"y": 2.3677600695,
				"z": -0.5669324339,
				"element": "H" 
			},
			{
				"x": -1.7961210107,
				"y": 4.180390903,
				"z": 3.6137055229,
				"element": "H" 
			},
			{
				"x": -1.326042809,
				"y": 1.598036862,
				"z": 3.7120029797,
				"element": "H" 
			}
		],
		 "valence_orbital": [ 
			{
				"type": "occ",
				"energy": -0.27025,
				"method": "rhf"
			},
			{
				"type": "occ",
				"energy": -0.24681,
				"method": "rhf"
			},
			{
				"type": "occ",
				"energy": -0.23831,
				"method": "rhf"
			},
			{
				"type": "occ",
				"energy": -0.23218,
				"method": "rhf"
			},
			{
				"type": "occ",
				"energy": -0.21195,
				"method": "rhf"
			},
			{
				"type": "unocc",
				"energy": -0.0222,
				"method": "rhf"
			},
			{
				"type": "unocc",
				"energy": 0.00069,
				"method": "rhf"
			},
			{
				"type": "unocc",
				"energy": 0.01093,
				"method": "rhf"
			},
			{
				"type": "unocc",
				"energy": 0.03733,
				"method": "rhf"
			},
			{
				"type": "unocc",
				"energy": 0.08085,
				"method": "rhf"
			}
		],
		"cosmo_sigma_profile": { 
			"-0.025": 0.0,
			"-0.024": 0.0,
			"-0.023": 0.0,
			"-0.022": 0.0,
			"-0.021": 0.0,
			"-0.02": 0.0,
			"-0.019": 0.0,
			"-0.018": 0.0,
			"-0.017": 0.0,
			"-0.016": 0.0,
			"-0.015": 0.0,
			"-0.014": 0.0,
			"-0.013": 0.0,
			"-0.012": 0.0,
			"-0.011": 0.012263489029,
			"-0.01": 1.31795292118,
			"-0.009": 3.10825538709,
			"-0.008": 5.12572458977,
			"-0.007": 6.9791697106,
			"-0.006": 10.9349757932,
			"-0.005": 14.9454066106,
			"-0.004": 16.6577672682,
			"-0.003": 19.2930864235,
			"-0.002": 18.1995798131,
			"-0.001": 17.1218100899,
			"0.0": 10.6984133062,
			"0.001": 12.3763978315,
			"0.002": 16.5653024139,
			"0.003": 17.1333565622,
			"0.004": 24.9694461368,
			"0.005": 19.4031819998,
			"0.006": 10.7559334546,
			"0.007": 1.79736005696,
			"0.008": 1.0206152916,
			"0.009": 0.565598505861,
			"0.01": 0.756766433304,
			"0.011": 0.824745145508,
			"0.012": 0.319043401694,
			"0.013": 0.524741052009,
			"0.014": 1.1246854579,
			"0.015": 0.343959121058,
			"0.016": 0.511493589628,
			"0.017": 0.351483296392,
			"0.018": 0.0,
			"0.019": 0.0,
			"0.02": 0.0,
			"0.021": 0.0,
			"0.022": 0.0,
			"0.023": 0.0,
			"0.024": 0.0,
			"0.025": 0.0
		}
	}
}
