{
	 "smiles": "OC1=NC(S)=NN=C1", 
	 "Tm": 518.15, 
	 "num_atms": 11, 
	 "gaussian": { 
		 "optdone": 1, 
		 "sigma_profile": "yes", 
		 "theory": "DFT", 
		 "functional": "B3LYP", 
		 "basiset": "6-31G**", 
		 "properties": { 
			 "R2extent": 1466.5012, 
			 "electric_dipole_moment_norm": 3.02455239829, 
			 "electric_quadrupole_moment_norm": 12.7761631067, 
			 "total_energy": -753.739158701, 
			 "HOMO_LUMO_gap": 0.17965, 
			 "cosmo_polarized_energy": -16.16, 
			 "cosmo_cavitation_energy": 17.86, 
			 "cosmo_dispersion_energy": -14.22, 
			 "cosmo_repulsion_energy": 1.14, 
			 "cosmo_total_nonelectrostatic_energy": 4.78, 
			 "SMD_solvation_energy": 0.06 
		},
		"coords": [
			{
				"x": -0.4512759897,
				"y": 0.4725776411,
				"z": 1.6892802756,
				"element": "O" 
			},
			{
				"x": -0.6089931285,
				"y": 0.7254716096,
				"z": 0.3805884934,
				"element": "C" 
			},
			{
				"x": -0.0068201443,
				"y": -0.1059346953,
				"z": -0.4493494683,
				"element": "N" 
			},
			{
				"x": -0.1811803554,
				"y": 0.1703685088,
				"z": -1.7481364919,
				"element": "C" 
			},
			{
				"x": 0.6195981281,
				"y": -0.934708344,
				"z": -2.8754822837,
				"element": "S" 
			},
			{
				"x": -0.8899496819,
				"y": 1.183798889,
				"z": -2.2741280066,
				"element": "N" 
			},
			{
				"x": -1.4901794178,
				"y": 2.0117183744,
				"z": -1.4185943454,
				"element": "N" 
			},
			{
				"x": -1.3681091027,
				"y": 1.8090309794,
				"z": -0.1142285711,
				"element": "C" 
			},
			{
				"x": -0.9274588215,
				"y": 1.1332564924,
				"z": 2.2115879027,
				"element": "H" 
			},
			{
				"x": 0.1805869948,
				"y": -0.2879580764,
				"z": -3.972777641,
				"element": "H" 
			},
			{
				"x": -1.8777184811,
				"y": 2.5135786208,
				"z": 0.5390401363,
				"element": "H" 
			}
		],
		 "valence_orbital": [ 
			{
				"type": "occ",
				"energy": -0.33429,
				"method": "rhf"
			},
			{
				"type": "occ",
				"energy": -0.32768,
				"method": "rhf"
			},
			{
				"type": "occ",
				"energy": -0.30139,
				"method": "rhf"
			},
			{
				"type": "occ",
				"energy": -0.2547,
				"method": "rhf"
			},
			{
				"type": "occ",
				"energy": -0.24966,
				"method": "rhf"
			},
			{
				"type": "unocc",
				"energy": -0.07001,
				"method": "rhf"
			},
			{
				"type": "unocc",
				"energy": -0.0381,
				"method": "rhf"
			},
			{
				"type": "unocc",
				"energy": 0.01276,
				"method": "rhf"
			},
			{
				"type": "unocc",
				"energy": 0.03831,
				"method": "rhf"
			},
			{
				"type": "unocc",
				"energy": 0.07711,
				"method": "rhf"
			}
		],
		"cosmo_sigma_profile": { 
			"-0.025": 0.0,
			"-0.024": 0.0,
			"-0.023": 0.0,
			"-0.022": 0.0,
			"-0.021": 0.465136215184,
			"-0.02": 1.43356215049,
			"-0.019": 1.4779182783,
			"-0.018": 1.20081943817,
			"-0.017": 0.902961757177,
			"-0.016": 1.23737486793,
			"-0.015": 0.609417943792,
			"-0.014": 1.23040105018,
			"-0.013": 1.56265573469,
			"-0.012": 1.65117596253,
			"-0.011": 1.94156311486,
			"-0.01": 3.06451312334,
			"-0.009": 3.80066436287,
			"-0.008": 3.33006572591,
			"-0.007": 2.98904859953,
			"-0.006": 4.88279874856,
			"-0.005": 5.91549595042,
			"-0.004": 5.48319114984,
			"-0.003": 7.36722715646,
			"-0.002": 4.85741459093,
			"-0.001": 6.74007161937,
			"0.0": 8.19539434213,
			"0.001": 8.08710975867,
			"0.002": 9.71211708665,
			"0.003": 8.08540312309,
			"0.004": 7.52711396852,
			"0.005": 7.06496221364,
			"0.006": 7.59209752424,
			"0.007": 4.21218684213,
			"0.008": 4.34915366674,
			"0.009": 5.58731998611,
			"0.01": 3.88997974303,
			"0.011": 3.22282514891,
			"0.012": 3.30537786975,
			"0.013": 2.49892660504,
			"0.014": 1.03696827907,
			"0.015": 0.0445247157413,
			"0.016": 0.0,
			"0.017": 0.0,
			"0.018": 0.0,
			"0.019": 0.0,
			"0.02": 0.0,
			"0.021": 0.0,
			"0.022": 0.0,
			"0.023": 0.0,
			"0.024": 0.0,
			"0.025": 0.0
		}
	}
}
