{
	 "smiles": "CC(C)(C)C1=CC=C(CC2=CC=C(C=C2)C(C)(C)C)C=C1", 
	 "Tm": 345.15, 
	 "num_atms": 49, 
	 "gaussian": { 
		 "optdone": 1, 
		 "sigma_profile": "yes", 
		 "theory": "DFT", 
		 "functional": "B3LYP", 
		 "basiset": "6-31G**", 
		 "properties": { 
			 "R2extent": 11169.1167, 
			 "electric_dipole_moment_norm": 0.219998499995, 
			 "electric_quadrupole_moment_norm": 4.9203321961, 
			 "total_energy": -817.149458499, 
			 "HOMO_LUMO_gap": 0.22188, 
			 "cosmo_polarized_energy": -5.89, 
			 "cosmo_cavitation_energy": 48.33, 
			 "cosmo_dispersion_energy": -32.99, 
			 "cosmo_repulsion_energy": 2.52, 
			 "cosmo_total_nonelectrostatic_energy": 17.87, 
			 "SMD_solvation_energy": 8.06 
		},
		"coords": [
			{
				"x": -2.3255937298,
				"y": 4.5083278665,
				"z": 1.9509515646,
				"element": "C" 
			},
			{
				"x": -2.0216524149,
				"y": 3.7959242492,
				"z": 0.6114129347,
				"element": "C" 
			},
			{
				"x": -1.2241233231,
				"y": 4.7525694603,
				"z": -0.306781382,
				"element": "C" 
			},
			{
				"x": -3.3624278209,
				"y": 3.4776098083,
				"z": -0.0771853558,
				"element": "C" 
			},
			{
				"x": -1.1875196999,
				"y": 2.5300174161,
				"z": 0.8813750203,
				"element": "C" 
			},
			{
				"x": 0.0649849258,
				"y": 2.6327440683,
				"z": 1.5069651296,
				"element": "C" 
			},
			{
				"x": 0.8471890522,
				"y": 1.5083118292,
				"z": 1.7670167676,
				"element": "C" 
			},
			{
				"x": 0.4124416358,
				"y": 0.2261284214,
				"z": 1.4130772149,
				"element": "C" 
			},
			{
				"x": 1.2526934505,
				"y": -1.0034345656,
				"z": 1.7173021558,
				"element": "C" 
			},
			{
				"x": 1.5637720989,
				"y": -1.8732661276,
				"z": 0.5111241203,
				"element": "C" 
			},
			{
				"x": 2.2244154759,
				"y": -1.3469372584,
				"z": -0.6088572254,
				"element": "C" 
			},
			{
				"x": 2.5280164788,
				"y": -2.1483240489,
				"z": -1.7039663403,
				"element": "C" 
			},
			{
				"x": 2.1861440523,
				"y": -3.5130784381,
				"z": -1.7412633628,
				"element": "C" 
			},
			{
				"x": 1.5240430535,
				"y": -4.0300538697,
				"z": -0.6220370447,
				"element": "C" 
			},
			{
				"x": 1.219520465,
				"y": -3.2255816092,
				"z": 0.4811221812,
				"element": "C" 
			},
			{
				"x": 2.5406716434,
				"y": -4.3621460795,
				"z": -2.9755156695,
				"element": "C" 
			},
			{
				"x": 2.0861410614,
				"y": -5.8266014236,
				"z": -2.8283316928,
				"element": "C" 
			},
			{
				"x": 4.0738818103,
				"y": -4.3525632725,
				"z": -3.1844533311,
				"element": "C" 
			},
			{
				"x": 1.850612679,
				"y": -3.7670637263,
				"z": -4.2261644036,
				"element": "C" 
			},
			{
				"x": -0.8330646203,
				"y": 0.1156697368,
				"z": 0.7854813201,
				"element": "C" 
			},
			{
				"x": -1.6154765879,
				"y": 1.2416623484,
				"z": 0.5275770755,
				"element": "C" 
			},
			{
				"x": -2.913465099,
				"y": 5.4168102701,
				"z": 1.7764016653,
				"element": "H" 
			},
			{
				"x": -1.40973542,
				"y": 4.8000786712,
				"z": 2.4734709215,
				"element": "H" 
			},
			{
				"x": -2.8976065094,
				"y": 3.8566187425,
				"z": 2.6196034203,
				"element": "H" 
			},
			{
				"x": -1.8012679956,
				"y": 5.6632776961,
				"z": -0.5041127031,
				"element": "H" 
			},
			{
				"x": -1.0008126592,
				"y": 4.276875542,
				"z": -1.2674377462,
				"element": "H" 
			},
			{
				"x": -0.2740064836,
				"y": 5.0522662367,
				"z": 0.1453735235,
				"element": "H" 
			},
			{
				"x": -3.2169786299,
				"y": 2.9971880171,
				"z": -1.0503318217,
				"element": "H" 
			},
			{
				"x": -3.9192075417,
				"y": 4.4049559059,
				"z": -0.2473609391,
				"element": "H" 
			},
			{
				"x": -3.9907374809,
				"y": 2.8237009384,
				"z": 0.5365506737,
				"element": "H" 
			},
			{
				"x": 0.4454940544,
				"y": 3.6074832795,
				"z": 1.7993760616,
				"element": "H" 
			},
			{
				"x": 1.811096485,
				"y": 1.630586799,
				"z": 2.2561609425,
				"element": "H" 
			},
			{
				"x": 2.1915330986,
				"y": -0.6784594504,
				"z": 2.183660146,
				"element": "H" 
			},
			{
				"x": 0.7404425241,
				"y": -1.6176680833,
				"z": 2.468843988,
				"element": "H" 
			},
			{
				"x": 2.4969283392,
				"y": -0.2945236939,
				"z": -0.6229462363,
				"element": "H" 
			},
			{
				"x": 3.0421513855,
				"y": -1.698134369,
				"z": -2.5485919805,
				"element": "H" 
			},
			{
				"x": 1.2329201275,
				"y": -5.0740405602,
				"z": -0.5925170236,
				"element": "H" 
			},
			{
				"x": 0.7065517394,
				"y": -3.6662169795,
				"z": 1.3332091107,
				"element": "H" 
			},
			{
				"x": 2.3593464457,
				"y": -6.3900645566,
				"z": -3.7265385771,
				"element": "H" 
			},
			{
				"x": 2.5630115455,
				"y": -6.3173926572,
				"z": -1.9734710566,
				"element": "H" 
			},
			{
				"x": 1.0008153182,
				"y": -5.9061313516,
				"z": -2.7067170033,
				"element": "H" 
			},
			{
				"x": 4.5895105205,
				"y": -4.7767863223,
				"z": -2.3165887426,
				"element": "H" 
			},
			{
				"x": 4.4574888545,
				"y": -3.3394763152,
				"z": -3.3374564311,
				"element": "H" 
			},
			{
				"x": 4.3436118978,
				"y": -4.9473556195,
				"z": -4.0647040847,
				"element": "H" 
			},
			{
				"x": 0.761797836,
				"y": -3.7687760903,
				"z": -4.1100367127,
				"element": "H" 
			},
			{
				"x": 2.1639765766,
				"y": -2.735449363,
				"z": -4.4117588417,
				"element": "H" 
			},
			{
				"x": 2.0987821646,
				"y": -4.3561139358,
				"z": -5.1165743297,
				"element": "H" 
			},
			{
				"x": -1.1956930675,
				"y": -0.8646994382,
				"z": 0.4865215774,
				"element": "H" 
			},
			{
				"x": -2.5736177123,
				"y": 1.1003319023,
				"z": 0.0402225233,
				"element": "H" 
			}
		],
		 "valence_orbital": [ 
			{
				"type": "occ",
				"energy": -0.30807,
				"method": "rhf"
			},
			{
				"type": "occ",
				"energy": -0.24293,
				"method": "rhf"
			},
			{
				"type": "occ",
				"energy": -0.24113,
				"method": "rhf"
			},
			{
				"type": "occ",
				"energy": -0.23416,
				"method": "rhf"
			},
			{
				"type": "occ",
				"energy": -0.22124,
				"method": "rhf"
			},
			{
				"type": "unocc",
				"energy": 0.00064,
				"method": "rhf"
			},
			{
				"type": "unocc",
				"energy": 0.00202,
				"method": "rhf"
			},
			{
				"type": "unocc",
				"energy": 0.00513,
				"method": "rhf"
			},
			{
				"type": "unocc",
				"energy": 0.01597,
				"method": "rhf"
			},
			{
				"type": "unocc",
				"energy": 0.08446,
				"method": "rhf"
			}
		],
		"cosmo_sigma_profile": { 
			"-0.025": 0.0,
			"-0.024": 0.0,
			"-0.023": 0.0,
			"-0.022": 0.0,
			"-0.021": 0.0,
			"-0.02": 0.0,
			"-0.019": 0.0,
			"-0.018": 0.0,
			"-0.017": 0.0,
			"-0.016": 0.0,
			"-0.015": 0.0,
			"-0.014": 0.0,
			"-0.013": 0.0,
			"-0.012": 0.0,
			"-0.011": 0.0,
			"-0.01": 0.0,
			"-0.009": 0.0,
			"-0.008": 0.0,
			"-0.007": 0.0,
			"-0.006": 0.0343177950158,
			"-0.005": 11.424871386,
			"-0.004": 22.9994992567,
			"-0.003": 41.0648969044,
			"-0.002": 59.0709128418,
			"-0.001": 48.6774303341,
			"0.0": 44.4199955832,
			"0.001": 51.6348644977,
			"0.002": 31.8491444873,
			"0.003": 13.7784231548,
			"0.004": 13.273281646,
			"0.005": 14.1720412111,
			"0.006": 14.9092593532,
			"0.007": 9.27894600329,
			"0.008": 0.150989109417,
			"0.009": 0.0,
			"0.01": 0.0,
			"0.011": 0.0,
			"0.012": 0.0,
			"0.013": 0.0,
			"0.014": 0.0,
			"0.015": 0.0,
			"0.016": 0.0,
			"0.017": 0.0,
			"0.018": 0.0,
			"0.019": 0.0,
			"0.02": 0.0,
			"0.021": 0.0,
			"0.022": 0.0,
			"0.023": 0.0,
			"0.024": 0.0,
			"0.025": 0.0
		}
	}
}
