{
	 "smiles": "CN(C)[C@H]1[C@@H]2C[C@@H]3[C@H](O)C4=C(C(O)=CC=C4Cl)C(O)=C3C(=O)[C@]2(O)C(=O)C(=C(N)O)C1=O", 
	 "Tm": 494.65, 
	 "num_atms": 53, 
	 "gaussian": { 
		 "optdone": 1, 
		 "sigma_profile": "yes", 
		 "theory": "DFT", 
		 "functional": "B3LYP", 
		 "basiset": "6-31G**", 
		 "properties": { 
			 "R2extent": 16885.9657, 
			 "electric_dipole_moment_norm": 5.42190524724, 
			 "electric_quadrupole_moment_norm": 29.4485409817, 
			 "total_energy": -1984.4022184, 
			 "HOMO_LUMO_gap": 0.14554, 
			 "cosmo_polarized_energy": -26.62, 
			 "cosmo_cavitation_energy": 52.97, 
			 "cosmo_dispersion_energy": -37.73, 
			 "cosmo_repulsion_energy": 2.75, 
			 "cosmo_total_nonelectrostatic_energy": 17.99, 
			 "SMD_solvation_energy": 10.36 
		},
		"coords": [
			{
				"x": 0.7316103871,
				"y": -3.0745624508,
				"z": -2.0306417465,
				"element": "C" 
			},
			{
				"x": 0.7064127101,
				"y": -1.6817634036,
				"z": -2.4968245106,
				"element": "N" 
			},
			{
				"x": 0.4569507988,
				"y": -1.6538169629,
				"z": -3.946427104,
				"element": "C" 
			},
			{
				"x": -0.2484240868,
				"y": -0.8671200177,
				"z": -1.6795591991,
				"element": "C" 
			},
			{
				"x": 0.3888934751,
				"y": -0.4940021037,
				"z": -0.3229835984,
				"element": "C" 
			},
			{
				"x": -0.6276077816,
				"y": 0.1073711952,
				"z": 0.6578781641,
				"element": "C" 
			},
			{
				"x": 0.0022979851,
				"y": 0.2980401061,
				"z": 2.0426482226,
				"element": "C" 
			},
			{
				"x": -0.9149988535,
				"y": 1.0838404911,
				"z": 2.9838630077,
				"element": "C" 
			},
			{
				"x": -1.2249411781,
				"y": 2.3335350846,
				"z": 2.3665867354,
				"element": "O" 
			},
			{
				"x": -0.2559251316,
				"y": 1.307230633,
				"z": 4.3370122439,
				"element": "C" 
			},
			{
				"x": 1.1465849037,
				"y": 1.5105075686,
				"z": 4.4008065484,
				"element": "C" 
			},
			{
				"x": 1.7662708881,
				"y": 1.8216578245,
				"z": 5.6410501859,
				"element": "C" 
			},
			{
				"x": 3.0764000567,
				"y": 2.0634075919,
				"z": 5.7532259717,
				"element": "O" 
			},
			{
				"x": 0.9855504015,
				"y": 1.8779022207,
				"z": 6.8088185228,
				"element": "C" 
			},
			{
				"x": -0.381259822,
				"y": 1.6769624226,
				"z": 6.7434097298,
				"element": "C" 
			},
			{
				"x": -0.9947070088,
				"y": 1.4102317493,
				"z": 5.5115037723,
				"element": "C" 
			},
			{
				"x": -2.7573832357,
				"y": 1.2405551918,
				"z": 5.4974280027,
				"element": "Cl" 
			},
			{
				"x": 1.9677774524,
				"y": 1.4238549708,
				"z": 3.1807211935,
				"element": "C" 
			},
			{
				"x": 3.1861981304,
				"y": 1.8026771066,
				"z": 3.2261530913,
				"element": "O" 
			},
			{
				"x": 1.3869826921,
				"y": 0.9125715444,
				"z": 1.9691923124,
				"element": "C" 
			},
			{
				"x": 2.1429645002,
				"y": 0.9159606218,
				"z": 0.8117849835,
				"element": "C" 
			},
			{
				"x": 3.3894031229,
				"y": 1.3286816359,
				"z": 0.7668546433,
				"element": "O" 
			},
			{
				"x": 1.5908017652,
				"y": 0.4550755094,
				"z": -0.5324557102,
				"element": "C" 
			},
			{
				"x": 2.637161662,
				"y": -0.1830644683,
				"z": -1.2423900397,
				"element": "O" 
			},
			{
				"x": 1.1732866871,
				"y": 1.6993150183,
				"z": -1.361914352,
				"element": "C" 
			},
			{
				"x": 1.8230493182,
				"y": 2.7631741163,
				"z": -1.2276907343,
				"element": "O" 
			},
			{
				"x": 0.08774661,
				"y": 1.587503687,
				"z": -2.2985836212,
				"element": "C" 
			},
			{
				"x": -0.2454814168,
				"y": 2.7737560207,
				"z": -3.0457159047,
				"element": "C" 
			},
			{
				"x": -1.2691424786,
				"y": 2.8010569129,
				"z": -3.8924151559,
				"element": "N" 
			},
			{
				"x": 0.4574404893,
				"y": 3.8644336384,
				"z": -2.9142775852,
				"element": "O" 
			},
			{
				"x": -0.6982049959,
				"y": 0.388447301,
				"z": -2.4444804338,
				"element": "C" 
			},
			{
				"x": -1.7079596439,
				"y": 0.3005618013,
				"z": -3.166349017,
				"element": "O" 
			},
			{
				"x": -0.2334980618,
				"y": -3.5839510789,
				"z": -2.190844644,
				"element": "H" 
			},
			{
				"x": 0.9749828181,
				"y": -3.1244372947,
				"z": -0.9676786497,
				"element": "H" 
			},
			{
				"x": 1.5064575225,
				"y": -3.6214765879,
				"z": -2.5746793571,
				"element": "H" 
			},
			{
				"x": -0.5523707549,
				"y": -1.9994727189,
				"z": -4.2144414896,
				"element": "H" 
			},
			{
				"x": 1.1929733954,
				"y": -2.3015177576,
				"z": -4.4302135668,
				"element": "H" 
			},
			{
				"x": 0.5896838014,
				"y": -0.6440871973,
				"z": -4.3377074758,
				"element": "H" 
			},
			{
				"x": -1.1744035773,
				"y": -1.4396660931,
				"z": -1.5113680895,
				"element": "H" 
			},
			{
				"x": 0.7995466404,
				"y": -1.4041186314,
				"z": 0.1301785527,
				"element": "H" 
			},
			{
				"x": -1.4992911249,
				"y": -0.5535374896,
				"z": 0.7406345061,
				"element": "H" 
			},
			{
				"x": -0.9942210936,
				"y": 1.073050586,
				"z": 0.2979169044,
				"element": "H" 
			},
			{
				"x": 0.102897014,
				"y": -0.6972186222,
				"z": 2.5070462337,
				"element": "H" 
			},
			{
				"x": -1.8304607016,
				"y": 0.4968841428,
				"z": 3.1300391558,
				"element": "H" 
			},
			{
				"x": -1.8578623326,
				"y": 2.793447531,
				"z": 2.9340339595,
				"element": "H" 
			},
			{
				"x": 3.4425828674,
				"y": 2.0480316126,
				"z": 4.829230354,
				"element": "H" 
			},
			{
				"x": 1.478482469,
				"y": 2.1000291373,
				"z": 7.7488443282,
				"element": "H" 
			},
			{
				"x": -0.9883439063,
				"y": 1.7359679252,
				"z": 7.6402872433,
				"element": "H" 
			},
			{
				"x": 3.6240519977,
				"y": 1.6090662336,
				"z": 1.701165264,
				"element": "H" 
			},
			{
				"x": 2.1833592544,
				"y": -0.7803775843,
				"z": -1.8852139854,
				"element": "H" 
			},
			{
				"x": -1.4758060765,
				"y": 3.6555512556,
				"z": -4.3870228525,
				"element": "H" 
			},
			{
				"x": -1.8252591517,
				"y": 1.9455560592,
				"z": -3.9575650962,
				"element": "H" 
			},
			{
				"x": 1.1798505984,
				"y": 3.6275940151,
				"z": -2.1917699136,
				"element": "H" 
			}
		],
		 "valence_orbital": [ 
			{
				"type": "occ",
				"energy": -0.25226,
				"method": "rhf"
			},
			{
				"type": "occ",
				"energy": -0.24583,
				"method": "rhf"
			},
			{
				"type": "occ",
				"energy": -0.24411,
				"method": "rhf"
			},
			{
				"type": "occ",
				"energy": -0.23517,
				"method": "rhf"
			},
			{
				"type": "occ",
				"energy": -0.22272,
				"method": "rhf"
			},
			{
				"type": "unocc",
				"energy": -0.07718,
				"method": "rhf"
			},
			{
				"type": "unocc",
				"energy": -0.04346,
				"method": "rhf"
			},
			{
				"type": "unocc",
				"energy": -0.03532,
				"method": "rhf"
			},
			{
				"type": "unocc",
				"energy": -0.01742,
				"method": "rhf"
			},
			{
				"type": "unocc",
				"energy": 0.0012,
				"method": "rhf"
			}
		],
		"cosmo_sigma_profile": { 
			"-0.025": 0.0,
			"-0.024": 0.0,
			"-0.023": 0.0,
			"-0.022": 0.0,
			"-0.021": 0.0,
			"-0.02": 0.0,
			"-0.019": 0.0,
			"-0.018": 0.0,
			"-0.017": 0.0,
			"-0.016": 0.568376190365,
			"-0.015": 1.72045361148,
			"-0.014": 1.47943433862,
			"-0.013": 2.07949120403,
			"-0.012": 1.42968995035,
			"-0.011": 2.29475266138,
			"-0.01": 3.00678296571,
			"-0.009": 3.05620271812,
			"-0.008": 3.72984771641,
			"-0.007": 8.83896943151,
			"-0.006": 11.7415382132,
			"-0.005": 30.6125299192,
			"-0.004": 34.5107059938,
			"-0.003": 38.1379553663,
			"-0.002": 42.2582630995,
			"-0.001": 43.0193422341,
			"0.0": 27.7889206191,
			"0.001": 29.5403154246,
			"0.002": 24.7748308755,
			"0.003": 16.9009516763,
			"0.004": 15.0134782715,
			"0.005": 13.612721788,
			"0.006": 9.89765980762,
			"0.007": 7.48067647057,
			"0.008": 9.03663120495,
			"0.009": 8.19941787693,
			"0.01": 7.40126213043,
			"0.011": 7.27459667358,
			"0.012": 5.83616067258,
			"0.013": 4.9999765392,
			"0.014": 2.57775205574,
			"0.015": 1.84035320197,
			"0.016": 0.311375579475,
			"0.017": 0.0,
			"0.018": 0.0,
			"0.019": 0.0,
			"0.02": 0.0,
			"0.021": 0.0,
			"0.022": 0.0,
			"0.023": 0.0,
			"0.024": 0.0,
			"0.025": 0.0
		}
	}
}
