{
	 "smiles": "CC1=NC(I)=C(I)N1", 
	 "Tm": 467.15, 
	 "num_atms": 12, 
	 "gaussian": { 
		 "optdone": 1, 
		 "sigma_profile": "no", 
		 "theory": "DFT", 
		 "functional": "B3LYP", 
		 "basiset": "6-31G**", 
		 "properties": { 
			 "R2extent": 1289.5288, 
			 "electric_dipole_moment_norm": 4.30731667515, 
			 "electric_quadrupole_moment_norm": 6.11315797931, 
			 "total_energy": -287.104207082, 
			 "HOMO_LUMO_gap": 0.17157, 
			 "cosmo_polarized_energy": -313184.61, 
			 "cosmo_cavitation_energy": 22.76, 
			 "cosmo_dispersion_energy": -19.65, 
			 "cosmo_repulsion_energy": 1.58, 
			 "cosmo_total_nonelectrostatic_energy": 4.69, 
			 "SMD_solvation_energy": 0.41 
		},
		"coords": [
			{
				"x": 1.934977926,
				"y": -1.1351599617,
				"z": 0.8875341481,
				"element": "C" 
			},
			{
				"x": 1.0537825203,
				"y": -0.0659911718,
				"z": 0.3300515449,
				"element": "C" 
			},
			{
				"x": 0.0474417118,
				"y": 0.5094169635,
				"z": 0.9630364843,
				"element": "N" 
			},
			{
				"x": -0.4793437962,
				"y": 1.4226534927,
				"z": 0.0906175283,
				"element": "C" 
			},
			{
				"x": -2.109655651,
				"y": 2.6169224552,
				"z": 0.5998023894,
				"element": "I" 
			},
			{
				"x": 0.2120173939,
				"y": 1.4116954774,
				"z": -1.099824222,
				"element": "C" 
			},
			{
				"x": 0.0141784597,
				"y": 2.4838768294,
				"z": -2.8614275022,
				"element": "I" 
			},
			{
				"x": 1.1933415972,
				"y": 0.4503175821,
				"z": -0.9300254073,
				"element": "N" 
			},
			{
				"x": 1.8810061483,
				"y": -2.0561229191,
				"z": 0.2959550852,
				"element": "H" 
			},
			{
				"x": 2.9837605112,
				"y": -0.8193781024,
				"z": 0.9247670786,
				"element": "H" 
			},
			{
				"x": 1.6043454007,
				"y": -1.3566490162,
				"z": 1.9029792711,
				"element": "H" 
			},
			{
				"x": 1.8803477781,
				"y": 0.1899183709,
				"z": -1.6223663985,
				"element": "H" 
			}
		],
		 "valence_orbital": [ 
			{
				"type": "occ",
				"energy": -0.29921,
				"method": "rhf"
			},
			{
				"type": "occ",
				"energy": -0.28052,
				"method": "rhf"
			},
			{
				"type": "occ",
				"energy": -0.26412,
				"method": "rhf"
			},
			{
				"type": "occ",
				"energy": -0.26061,
				"method": "rhf"
			},
			{
				"type": "occ",
				"energy": -0.22121,
				"method": "rhf"
			},
			{
				"type": "unocc",
				"energy": -0.04964,
				"method": "rhf"
			},
			{
				"type": "unocc",
				"energy": -0.02505,
				"method": "rhf"
			},
			{
				"type": "unocc",
				"energy": 0.00154,
				"method": "rhf"
			},
			{
				"type": "unocc",
				"energy": 0.02344,
				"method": "rhf"
			},
			{
				"type": "unocc",
				"energy": 0.04075,
				"method": "rhf"
			}
		],
		"cosmo_sigma_profile": { 
			"0.0": 0.0,
			"0.0": 0.0,
			"0.0": 0.0,
			"0.0": 0.0,
			"0.0": 0.0,
			"0.0": 0.0,
			"0.0": 0.0,
			"0.0": 0.0,
			"0.0": 0.0,
			"0.0": 0.0,
			"0.0": 0.0,
			"0.0": 0.0,
			"0.0": 0.0,
			"0.0": 0.0,
			"0.0": 0.0,
			"0.0": 0.0,
			"0.0": 0.0,
			"0.0": 0.0,
			"0.0": 0.0,
			"0.0": 0.0,
			"0.0": 0.0,
			"0.0": 0.0,
			"0.0": 0.0,
			"0.0": 0.0,
			"0.0": 0.0,
			"0.0": 0.0,
			"0.0": 0.0,
			"0.0": 0.0,
			"0.0": 0.0,
			"0.0": 0.0,
			"0.0": 0.0,
			"0.0": 0.0,
			"0.0": 0.0,
			"0.0": 0.0,
			"0.0": 0.0,
			"0.0": 0.0,
			"0.0": 0.0,
			"0.0": 0.0,
			"0.0": 0.0,
			"0.0": 0.0,
			"0.0": 0.0,
			"0.0": 0.0,
			"0.0": 0.0,
			"0.0": 0.0,
			"0.0": 0.0,
			"0.0": 0.0,
			"0.0": 0.0,
			"0.0": 0.0,
			"0.0": 0.0,
			"0.0": 0.0,
			"0.0": 0.0
		}
	}
}
