{
	 "smiles": "CC(C)(C)OC(=O)N1CCN(CC1)S(Cl)(=O)=O", 
	 "Tm": 422.15, 
	 "num_atms": 34, 
	 "gaussian": { 
		 "optdone": 1, 
		 "sigma_profile": "yes", 
		 "theory": "DFT", 
		 "functional": "B3LYP", 
		 "basiset": "6-31G**", 
		 "properties": { 
			 "R2extent": 7894.6001, 
			 "electric_dipole_moment_norm": 5.00164814936, 
			 "electric_quadrupole_moment_norm": 13.792455057, 
			 "total_energy": -1621.94860661, 
			 "HOMO_LUMO_gap": 0.17593, 
			 "cosmo_polarized_energy": -13.16, 
			 "cosmo_cavitation_energy": 38.31, 
			 "cosmo_dispersion_energy": -27.53, 
			 "cosmo_repulsion_energy": 2.11, 
			 "cosmo_total_nonelectrostatic_energy": 12.88, 
			 "SMD_solvation_energy": 4.53 
		},
		"coords": [
			{
				"x": 2.7531190907,
				"y": 3.4514049792,
				"z": 2.1219173434,
				"element": "C" 
			},
			{
				"x": 2.779366904,
				"y": 2.0420304881,
				"z": 1.5223957403,
				"element": "C" 
			},
			{
				"x": 3.169195378,
				"y": 1.0074573737,
				"z": 2.5809799644,
				"element": "C" 
			},
			{
				"x": 3.6975847541,
				"y": 1.9438399086,
				"z": 0.3002744045,
				"element": "C" 
			},
			{
				"x": 1.4107410183,
				"y": 1.6240788316,
				"z": 1.1595995103,
				"element": "O" 
			},
			{
				"x": 0.7026869967,
				"y": 2.3001766314,
				"z": 0.2285260735,
				"element": "C" 
			},
			{
				"x": 1.0815727459,
				"y": 3.2872854555,
				"z": -0.3837780948,
				"element": "O" 
			},
			{
				"x": -0.5340282146,
				"y": 1.7237828137,
				"z": 0.0351871096,
				"element": "N" 
			},
			{
				"x": -1.4796131396,
				"y": 2.3536536791,
				"z": -0.8748336004,
				"element": "C" 
			},
			{
				"x": -2.0529213076,
				"y": 1.3206500576,
				"z": -1.8477086777,
				"element": "C" 
			},
			{
				"x": -2.6136945452,
				"y": 0.1991125654,
				"z": -1.0623974683,
				"element": "N" 
			},
			{
				"x": -1.6357866627,
				"y": -0.4572254509,
				"z": -0.169539654,
				"element": "C" 
			},
			{
				"x": -1.0632183395,
				"y": 0.5944251083,
				"z": 0.7867744201,
				"element": "C" 
			},
			{
				"x": -3.6922479698,
				"y": -0.7927069888,
				"z": -1.8412900051,
				"element": "S" 
			},
			{
				"x": -2.4779882891,
				"y": -1.8571550838,
				"z": -3.2640694287,
				"element": "Cl" 
			},
			{
				"x": -4.1584868505,
				"y": -1.7977029328,
				"z": -0.9014798669,
				"element": "O" 
			},
			{
				"x": -4.588486412,
				"y": 0.030411719,
				"z": -2.634405403,
				"element": "O" 
			},
			{
				"x": 2.0556206982,
				"y": 3.4934784709,
				"z": 2.9645134512,
				"element": "H" 
			},
			{
				"x": 3.7499859945,
				"y": 3.7082910272,
				"z": 2.4943414191,
				"element": "H" 
			},
			{
				"x": 2.4545371099,
				"y": 4.1887172141,
				"z": 1.3766964591,
				"element": "H" 
			},
			{
				"x": 3.1452960077,
				"y": -0.0032726736,
				"z": 2.1629748234,
				"element": "H" 
			},
			{
				"x": 4.1817829678,
				"y": 1.2066564823,
				"z": 2.9435875758,
				"element": "H" 
			},
			{
				"x": 2.4836048978,
				"y": 1.0470190536,
				"z": 3.4325268856,
				"element": "H" 
			},
			{
				"x": 4.7309091211,
				"y": 2.1412835986,
				"z": 0.603083816,
				"element": "H" 
			},
			{
				"x": 3.4106628998,
				"y": 2.6657039273,
				"z": -0.4644568005,
				"element": "H" 
			},
			{
				"x": 3.6567920155,
				"y": 0.936679899,
				"z": -0.1266802184,
				"element": "H" 
			},
			{
				"x": -2.3021826595,
				"y": 2.8110178993,
				"z": -0.3070456312,
				"element": "H" 
			},
			{
				"x": -0.9546003123,
				"y": 3.1357957502,
				"z": -1.4231705136,
				"element": "H" 
			},
			{
				"x": -1.2650755912,
				"y": 0.954810492,
				"z": -2.5206339196,
				"element": "H" 
			},
			{
				"x": -2.8554506303,
				"y": 1.761319086,
				"z": -2.4400018243,
				"element": "H" 
			},
			{
				"x": -2.1506853704,
				"y": -1.2379197102,
				"z": 0.3913913137,
				"element": "H" 
			},
			{
				"x": -0.82705189,
				"y": -0.9093878382,
				"z": -0.7605870602,
				"element": "H" 
			},
			{
				"x": -0.2669739481,
				"y": 0.1500631607,
				"z": 1.3805742156,
				"element": "H" 
			},
			{
				"x": -1.8587664678,
				"y": 0.9338250058,
				"z": 1.4655336413,
				"element": "H" 
			}
		],
		 "valence_orbital": [ 
			{
				"type": "occ",
				"energy": -0.31475,
				"method": "rhf"
			},
			{
				"type": "occ",
				"energy": -0.30106,
				"method": "rhf"
			},
			{
				"type": "occ",
				"energy": -0.29721,
				"method": "rhf"
			},
			{
				"type": "occ",
				"energy": -0.27549,
				"method": "rhf"
			},
			{
				"type": "occ",
				"energy": -0.25679,
				"method": "rhf"
			},
			{
				"type": "unocc",
				"energy": -0.08086,
				"method": "rhf"
			},
			{
				"type": "unocc",
				"energy": 0.03576,
				"method": "rhf"
			},
			{
				"type": "unocc",
				"energy": 0.05004,
				"method": "rhf"
			},
			{
				"type": "unocc",
				"energy": 0.06798,
				"method": "rhf"
			},
			{
				"type": "unocc",
				"energy": 0.07641,
				"method": "rhf"
			}
		],
		"cosmo_sigma_profile": { 
			"-0.025": 0.0,
			"-0.024": 0.0,
			"-0.023": 0.0,
			"-0.022": 0.0,
			"-0.021": 0.0,
			"-0.02": 0.0,
			"-0.019": 0.0,
			"-0.018": 0.0,
			"-0.017": 0.0,
			"-0.016": 0.0,
			"-0.015": 0.0,
			"-0.014": 0.0,
			"-0.013": 0.0,
			"-0.012": 0.0,
			"-0.011": 0.0,
			"-0.01": 0.0,
			"-0.009": 0.0,
			"-0.008": 0.535684301471,
			"-0.007": 5.90173474306,
			"-0.006": 18.0728674276,
			"-0.005": 21.9795171061,
			"-0.004": 25.5782721953,
			"-0.003": 27.0249084435,
			"-0.002": 22.4262684482,
			"-0.001": 29.1719902175,
			"0.0": 34.4971213569,
			"0.001": 24.4435797357,
			"0.002": 15.7807206195,
			"0.003": 16.6697413629,
			"0.004": 15.1741533921,
			"0.005": 7.079006094,
			"0.006": 5.80408979277,
			"0.007": 7.98457219588,
			"0.008": 11.8150464865,
			"0.009": 4.64151946345,
			"0.01": 1.14406037758,
			"0.011": 1.8228764345,
			"0.012": 2.03961516629,
			"0.013": 2.67479863084,
			"0.014": 0.270748744277,
			"0.015": 0.0,
			"0.016": 0.0,
			"0.017": 0.0,
			"0.018": 0.0,
			"0.019": 0.0,
			"0.02": 0.0,
			"0.021": 0.0,
			"0.022": 0.0,
			"0.023": 0.0,
			"0.024": 0.0,
			"0.025": 0.0
		}
	}
}
