{
	 "smiles": "CCCCCNC1=CC(=O)OC2=CC=CC=C12", 
	 "Tm": 436.15, 
	 "num_atms": 34, 
	 "gaussian": { 
		 "optdone": 1, 
		 "sigma_profile": "yes", 
		 "theory": "DFT", 
		 "functional": "B3LYP", 
		 "basiset": "6-31G**", 
		 "properties": { 
			 "R2extent": 6467.2389, 
			 "electric_dipole_moment_norm": 5.13408585242, 
			 "electric_quadrupole_moment_norm": 31.593995766, 
			 "total_energy": -748.946010836, 
			 "HOMO_LUMO_gap": 0.16978, 
			 "cosmo_polarized_energy": -13.03, 
			 "cosmo_cavitation_energy": 36.48, 
			 "cosmo_dispersion_energy": -25.93, 
			 "cosmo_repulsion_energy": 2.05, 
			 "cosmo_total_nonelectrostatic_energy": 12.6, 
			 "SMD_solvation_energy": 5.92 
		},
		"coords": [
			{
				"x": 3.6180102489,
				"y": -1.3859234218,
				"z": 1.2854906583,
				"element": "C" 
			},
			{
				"x": 2.4200218882,
				"y": -0.7706809285,
				"z": 0.5547622851,
				"element": "C" 
			},
			{
				"x": 1.8310636127,
				"y": 0.4400981041,
				"z": 1.2947602287,
				"element": "C" 
			},
			{
				"x": 0.5675893487,
				"y": 1.0448499839,
				"z": 0.6570046393,
				"element": "C" 
			},
			{
				"x": 0.8421741568,
				"y": 1.7327690125,
				"z": -0.68210525,
				"element": "C" 
			},
			{
				"x": -0.3207895036,
				"y": 2.4433538807,
				"z": -1.284665277,
				"element": "N" 
			},
			{
				"x": -1.2512236633,
				"y": 1.6542560925,
				"z": -2.00959923,
				"element": "C" 
			},
			{
				"x": -1.1461544117,
				"y": 1.4874205623,
				"z": -3.3572890929,
				"element": "C" 
			},
			{
				"x": -2.0733794691,
				"y": 0.6846393109,
				"z": -4.1352476109,
				"element": "C" 
			},
			{
				"x": -2.0253078599,
				"y": 0.489422862,
				"z": -5.3277746941,
				"element": "O" 
			},
			{
				"x": -3.0855786527,
				"y": 0.0485603445,
				"z": -3.4122170438,
				"element": "O" 
			},
			{
				"x": -3.2603521021,
				"y": 0.2512995873,
				"z": -2.0752465701,
				"element": "C" 
			},
			{
				"x": -4.3698483404,
				"y": -0.3627789914,
				"z": -1.487594445,
				"element": "C" 
			},
			{
				"x": -4.6341295539,
				"y": -0.146480844,
				"z": -0.140355292,
				"element": "C" 
			},
			{
				"x": -3.807087942,
				"y": 0.6929973723,
				"z": 0.6201611996,
				"element": "C" 
			},
			{
				"x": -2.7005837345,
				"y": 1.2914396851,
				"z": 0.0334703758,
				"element": "C" 
			},
			{
				"x": -2.3856296976,
				"y": 1.0568482947,
				"z": -1.3182409184,
				"element": "C" 
			},
			{
				"x": 3.3378935662,
				"y": -1.7248859087,
				"z": 2.2894293869,
				"element": "H" 
			},
			{
				"x": 4.0177622095,
				"y": -2.248316623,
				"z": 0.7425031364,
				"element": "H" 
			},
			{
				"x": 4.4301760046,
				"y": -0.6585635408,
				"z": 1.3981796939,
				"element": "H" 
			},
			{
				"x": 2.7272337657,
				"y": -0.482644642,
				"z": -0.4584476185,
				"element": "H" 
			},
			{
				"x": 1.6364195863,
				"y": -1.5304335807,
				"z": 0.4300346148,
				"element": "H" 
			},
			{
				"x": 1.5846750296,
				"y": 0.1353247109,
				"z": 2.3203321068,
				"element": "H" 
			},
			{
				"x": 2.6019304421,
				"y": 1.218672702,
				"z": 1.390974482,
				"element": "H" 
			},
			{
				"x": -0.1853684146,
				"y": 0.2584220113,
				"z": 0.5316299667,
				"element": "H" 
			},
			{
				"x": 0.1391155239,
				"y": 1.7860506817,
				"z": 1.3420587641,
				"element": "H" 
			},
			{
				"x": 1.6065301749,
				"y": 2.5021419132,
				"z": -0.5229460983,
				"element": "H" 
			},
			{
				"x": 1.2591907823,
				"y": 1.010747644,
				"z": -1.4001748249,
				"element": "H" 
			},
			{
				"x": 0.0575951727,
				"y": 3.1336847656,
				"z": -1.9269735924,
				"element": "H" 
			},
			{
				"x": -0.3279605986,
				"y": 1.9222880245,
				"z": -3.921325426,
				"element": "H" 
			},
			{
				"x": -5.0093223369,
				"y": -0.9831119426,
				"z": -2.1060044496,
				"element": "H" 
			},
			{
				"x": -5.4990905163,
				"y": -0.617404658,
				"z": 0.3171999674,
				"element": "H" 
			},
			{
				"x": -4.0373808195,
				"y": 0.8838742497,
				"z": 1.6635540162,
				"element": "H" 
			},
			{
				"x": -2.0701938964,
				"y": 1.9682632858,
				"z": 0.5967619118,
				"element": "H" 
			}
		],
		 "valence_orbital": [ 
			{
				"type": "occ",
				"energy": -0.31198,
				"method": "rhf"
			},
			{
				"type": "occ",
				"energy": -0.27165,
				"method": "rhf"
			},
			{
				"type": "occ",
				"energy": -0.25658,
				"method": "rhf"
			},
			{
				"type": "occ",
				"energy": -0.24572,
				"method": "rhf"
			},
			{
				"type": "occ",
				"energy": -0.23102,
				"method": "rhf"
			},
			{
				"type": "unocc",
				"energy": -0.06124,
				"method": "rhf"
			},
			{
				"type": "unocc",
				"energy": -0.00876,
				"method": "rhf"
			},
			{
				"type": "unocc",
				"energy": 0.00595,
				"method": "rhf"
			},
			{
				"type": "unocc",
				"energy": 0.07027,
				"method": "rhf"
			},
			{
				"type": "unocc",
				"energy": 0.0823,
				"method": "rhf"
			}
		],
		"cosmo_sigma_profile": { 
			"-0.025": 0.0,
			"-0.024": 0.0,
			"-0.023": 0.0,
			"-0.022": 0.0,
			"-0.021": 0.0,
			"-0.02": 0.0,
			"-0.019": 0.0,
			"-0.018": 0.0,
			"-0.017": 0.0,
			"-0.016": 0.0,
			"-0.015": 0.0,
			"-0.014": 0.0,
			"-0.013": 0.190118402916,
			"-0.012": 1.44923098322,
			"-0.011": 1.73652041829,
			"-0.01": 1.37684508589,
			"-0.009": 1.72872242438,
			"-0.008": 2.33122561615,
			"-0.007": 5.62729253935,
			"-0.006": 8.67111542119,
			"-0.005": 11.7378419652,
			"-0.004": 14.0949649613,
			"-0.003": 20.5592947896,
			"-0.002": 35.1833263969,
			"-0.001": 38.8448783066,
			"0.0": 36.7428919567,
			"0.001": 32.3660213764,
			"0.002": 20.1384448724,
			"0.003": 12.3620836036,
			"0.004": 9.42478985254,
			"0.005": 3.18036951873,
			"0.006": 2.63812932154,
			"0.007": 2.81650600986,
			"0.008": 3.11211238636,
			"0.009": 2.96049072818,
			"0.01": 3.20922016198,
			"0.011": 3.35477763414,
			"0.012": 6.14348928041,
			"0.013": 4.62915793445,
			"0.014": 0.701609084953,
			"0.015": 0.0,
			"0.016": 0.0,
			"0.017": 0.0,
			"0.018": 0.0,
			"0.019": 0.0,
			"0.02": 0.0,
			"0.021": 0.0,
			"0.022": 0.0,
			"0.023": 0.0,
			"0.024": 0.0,
			"0.025": 0.0
		}
	}
}
