{
	 "smiles": "O=C(C=C1CC2=CC=CC=C12)C1=CC=CC=C1", 
	 "Tm": 325.65, 
	 "num_atms": 29, 
	 "gaussian": { 
		 "optdone": 1, 
		 "sigma_profile": "yes", 
		 "theory": "DFT", 
		 "functional": "B3LYP", 
		 "basiset": "6-31G**", 
		 "properties": { 
			 "R2extent": 4275.3551, 
			 "electric_dipole_moment_norm": 3.8801115886, 
			 "electric_quadrupole_moment_norm": 14.4018759913, 
			 "total_energy": -692.103387799, 
			 "HOMO_LUMO_gap": 0.16301, 
			 "cosmo_polarized_energy": -9.87, 
			 "cosmo_cavitation_energy": 33.17, 
			 "cosmo_dispersion_energy": -23.27, 
			 "cosmo_repulsion_energy": 1.81, 
			 "cosmo_total_nonelectrostatic_energy": 11.72, 
			 "SMD_solvation_energy": 5.62 
		},
		"coords": [
			{
				"x": 1.9149460284,
				"y": -0.0162117071,
				"z": -2.692707483,
				"element": "O" 
			},
			{
				"x": 1.4117008215,
				"y": -0.1198808314,
				"z": -1.5777629917,
				"element": "C" 
			},
			{
				"x": 1.7362842613,
				"y": -1.3144418371,
				"z": -0.7541218287,
				"element": "C" 
			},
			{
				"x": 0.9096148125,
				"y": -2.0327153647,
				"z": 0.0256944809,
				"element": "C" 
			},
			{
				"x": 1.1501884735,
				"y": -3.3664902292,
				"z": 0.7805514732,
				"element": "C" 
			},
			{
				"x": -0.3233911884,
				"y": -3.2588209689,
				"z": 1.1626570492,
				"element": "C" 
			},
			{
				"x": -1.353834437,
				"y": -3.8876729844,
				"z": 1.8415362574,
				"element": "C" 
			},
			{
				"x": -2.6007136049,
				"y": -3.2436785892,
				"z": 1.7932200408,
				"element": "C" 
			},
			{
				"x": -2.7870204143,
				"y": -2.0400570328,
				"z": 1.0931042026,
				"element": "C" 
			},
			{
				"x": -1.7397399605,
				"y": -1.4098942881,
				"z": 0.4096278449,
				"element": "C" 
			},
			{
				"x": -0.5022673558,
				"y": -2.0510308135,
				"z": 0.470068638,
				"element": "C" 
			},
			{
				"x": 0.511836124,
				"y": 0.9597302981,
				"z": -1.0556070187,
				"element": "C" 
			},
			{
				"x": -0.1486847125,
				"y": 1.7796779648,
				"z": -1.9844775435,
				"element": "C" 
			},
			{
				"x": -0.9550216474,
				"y": 2.82767315,
				"z": -1.5497354166,
				"element": "C" 
			},
			{
				"x": -1.0870045153,
				"y": 3.0870549736,
				"z": -0.1812678985,
				"element": "C" 
			},
			{
				"x": -0.4130203623,
				"y": 2.292679925,
				"z": 0.7481936809,
				"element": "C" 
			},
			{
				"x": 0.3783382121,
				"y": 1.2282469654,
				"z": 0.3143702928,
				"element": "C" 
			},
			{
				"x": 2.729632398,
				"y": -1.7137390578,
				"z": -0.9493086037,
				"element": "H" 
			},
			{
				"x": 1.4201439714,
				"y": -4.2138593033,
				"z": 0.1401491461,
				"element": "H" 
			},
			{
				"x": 1.8704330538,
				"y": -3.3054434252,
				"z": 1.6047809465,
				"element": "H" 
			},
			{
				"x": -1.2273988851,
				"y": -4.8226248516,
				"z": 2.3797383829,
				"element": "H" 
			},
			{
				"x": -3.4493448512,
				"y": -3.6877071202,
				"z": 2.3064485462,
				"element": "H" 
			},
			{
				"x": -3.7748058251,
				"y": -1.5879808701,
				"z": 1.0831366745,
				"element": "H" 
			},
			{
				"x": -1.8991108067,
				"y": -0.4817821665,
				"z": -0.1271452246,
				"element": "H" 
			},
			{
				"x": -0.0108302187,
				"y": 1.5758627939,
				"z": -3.0412689183,
				"element": "H" 
			},
			{
				"x": -1.4746373431,
				"y": 3.4490942985,
				"z": -2.2734366602,
				"element": "H" 
			},
			{
				"x": -1.7092112229,
				"y": 3.9105506145,
				"z": 0.1579510793,
				"element": "H" 
			},
			{
				"x": -0.5027863018,
				"y": 2.5014929448,
				"z": 1.810275867,
				"element": "H" 
			},
			{
				"x": 0.9059054964,
				"y": 0.6131675125,
				"z": 1.0355349842,
				"element": "H" 
			}
		],
		 "valence_orbital": [ 
			{
				"type": "occ",
				"energy": -0.25957,
				"method": "rhf"
			},
			{
				"type": "occ",
				"energy": -0.2576,
				"method": "rhf"
			},
			{
				"type": "occ",
				"energy": -0.2539,
				"method": "rhf"
			},
			{
				"type": "occ",
				"energy": -0.24362,
				"method": "rhf"
			},
			{
				"type": "occ",
				"energy": -0.23089,
				"method": "rhf"
			},
			{
				"type": "unocc",
				"energy": -0.06788,
				"method": "rhf"
			},
			{
				"type": "unocc",
				"energy": -0.02817,
				"method": "rhf"
			},
			{
				"type": "unocc",
				"energy": -0.01184,
				"method": "rhf"
			},
			{
				"type": "unocc",
				"energy": -0.00285,
				"method": "rhf"
			},
			{
				"type": "unocc",
				"energy": 0.03006,
				"method": "rhf"
			}
		],
		"cosmo_sigma_profile": { 
			"-0.025": 0.0,
			"-0.024": 0.0,
			"-0.023": 0.0,
			"-0.022": 0.0,
			"-0.021": 0.0,
			"-0.02": 0.0,
			"-0.019": 0.0,
			"-0.018": 0.0,
			"-0.017": 0.0,
			"-0.016": 0.0,
			"-0.015": 0.0,
			"-0.014": 0.0,
			"-0.013": 0.0,
			"-0.012": 0.0,
			"-0.011": 0.0,
			"-0.01": 0.0,
			"-0.009": 0.0,
			"-0.008": 0.0,
			"-0.007": 1.27080380769,
			"-0.006": 14.4141940154,
			"-0.005": 23.0531920583,
			"-0.004": 25.6694136556,
			"-0.003": 21.1366860142,
			"-0.002": 26.1539849669,
			"-0.001": 24.490567313,
			"0.0": 19.6895930048,
			"0.001": 18.8922145525,
			"0.002": 20.0375764599,
			"0.003": 21.8808643175,
			"0.004": 19.8717049751,
			"0.005": 10.4160209756,
			"0.006": 2.45942671663,
			"0.007": 1.75322505118,
			"0.008": 1.25204430752,
			"0.009": 1.37788251249,
			"0.01": 2.38659838338,
			"0.011": 2.42775017854,
			"0.012": 4.07392564796,
			"0.013": 3.12916993477,
			"0.014": 0.595046013912,
			"0.015": 0.0,
			"0.016": 0.0,
			"0.017": 0.0,
			"0.018": 0.0,
			"0.019": 0.0,
			"0.02": 0.0,
			"0.021": 0.0,
			"0.022": 0.0,
			"0.023": 0.0,
			"0.024": 0.0,
			"0.025": 0.0
		}
	}
}
