{
	 "smiles": "OC(=O)C1=C(F)C(Br)=CC=C1", 
	 "Tm": 442.15, 
	 "num_atms": 15, 
	 "gaussian": { 
		 "optdone": 1, 
		 "sigma_profile": "yes", 
		 "theory": "DFT", 
		 "functional": "B3LYP", 
		 "basiset": "6-31G**", 
		 "properties": { 
			 "R2extent": 3237.6286, 
			 "electric_dipole_moment_norm": 3.88010511327, 
			 "electric_quadrupole_moment_norm": 10.9786078298, 
			 "total_energy": -3090.84754113, 
			 "HOMO_LUMO_gap": 0.19825, 
			 "cosmo_polarized_energy": -10.41, 
			 "cosmo_cavitation_energy": 22.43, 
			 "cosmo_dispersion_energy": -17.26, 
			 "cosmo_repulsion_energy": 1.36, 
			 "cosmo_total_nonelectrostatic_energy": 6.53, 
			 "SMD_solvation_energy": 4.35 
		},
		"coords": [
			{
				"x": -1.9437381095,
				"y": -0.430882833,
				"z": -1.9233262097,
				"element": "O" 
			},
			{
				"x": -1.7168603756,
				"y": 0.2291557637,
				"z": -0.7720125625,
				"element": "C" 
			},
			{
				"x": -2.534540324,
				"y": 1.0059562958,
				"z": -0.335919463,
				"element": "O" 
			},
			{
				"x": -0.4168126469,
				"y": -0.0290780103,
				"z": -0.0454310161,
				"element": "C" 
			},
			{
				"x": 0.5886625717,
				"y": -0.9047886611,
				"z": -0.4652537718,
				"element": "C" 
			},
			{
				"x": 0.4340569124,
				"y": -1.6091212844,
				"z": -1.6190000911,
				"element": "F" 
			},
			{
				"x": 1.7622685463,
				"y": -1.0887279745,
				"z": 0.2617506353,
				"element": "C" 
			},
			{
				"x": 3.0866702374,
				"y": -2.2942146255,
				"z": -0.3670583851,
				"element": "Br" 
			},
			{
				"x": 1.9480209322,
				"y": -0.3804358406,
				"z": 1.4475993262,
				"element": "C" 
			},
			{
				"x": 0.9589907119,
				"y": 0.5006055928,
				"z": 1.889174255,
				"element": "C" 
			},
			{
				"x": -0.2070034154,
				"y": 0.6724871196,
				"z": 1.1510650679,
				"element": "C" 
			},
			{
				"x": -1.1999105909,
				"y": -1.0140275914,
				"z": -2.1404365264,
				"element": "H" 
			},
			{
				"x": 2.8617599713,
				"y": -0.5239454121,
				"z": 2.0132085439,
				"element": "H" 
			},
			{
				"x": 1.1056001088,
				"y": 1.0510590388,
				"z": 2.8126616899,
				"element": "H" 
			},
			{
				"x": -0.9907645298,
				"y": 1.3498584221,
				"z": 1.4707785074,
				"element": "H" 
			}
		],
		 "valence_orbital": [ 
			{
				"type": "occ",
				"energy": -0.31918,
				"method": "rhf"
			},
			{
				"type": "occ",
				"energy": -0.30989,
				"method": "rhf"
			},
			{
				"type": "occ",
				"energy": -0.2858,
				"method": "rhf"
			},
			{
				"type": "occ",
				"energy": -0.28373,
				"method": "rhf"
			},
			{
				"type": "occ",
				"energy": -0.26685,
				"method": "rhf"
			},
			{
				"type": "unocc",
				"energy": -0.0686,
				"method": "rhf"
			},
			{
				"type": "unocc",
				"energy": -0.0355,
				"method": "rhf"
			},
			{
				"type": "unocc",
				"energy": -0.02066,
				"method": "rhf"
			},
			{
				"type": "unocc",
				"energy": 0.03716,
				"method": "rhf"
			},
			{
				"type": "unocc",
				"energy": 0.08702,
				"method": "rhf"
			}
		],
		"cosmo_sigma_profile": { 
			"-0.025": 0.0,
			"-0.024": 0.0,
			"-0.023": 0.0,
			"-0.022": 0.0,
			"-0.021": 0.0,
			"-0.02": 0.0,
			"-0.019": 0.0,
			"-0.018": 0.0,
			"-0.017": 0.0,
			"-0.016": 0.0,
			"-0.015": 0.0,
			"-0.014": 0.194386239923,
			"-0.013": 0.731320993157,
			"-0.012": 0.932868804681,
			"-0.011": 1.51483082468,
			"-0.01": 1.96753735523,
			"-0.009": 1.98043613843,
			"-0.008": 4.77182747184,
			"-0.007": 8.11743367472,
			"-0.006": 8.6281315326,
			"-0.005": 8.03889636575,
			"-0.004": 8.84897598587,
			"-0.003": 11.1950281672,
			"-0.002": 13.3103843487,
			"-0.001": 15.7943601324,
			"0.0": 18.0648130185,
			"0.001": 16.1157855413,
			"0.002": 14.4217436301,
			"0.003": 13.6788008619,
			"0.004": 8.64969270763,
			"0.005": 2.71516610332,
			"0.006": 2.08935229398,
			"0.007": 1.97846783885,
			"0.008": 2.9612847162,
			"0.009": 3.74315645748,
			"0.01": 4.816107926,
			"0.011": 5.45530744803,
			"0.012": 3.1011016946,
			"0.013": 0.833192663864,
			"0.014": 0.0,
			"0.015": 0.0,
			"0.016": 0.0,
			"0.017": 0.0,
			"0.018": 0.0,
			"0.019": 0.0,
			"0.02": 0.0,
			"0.021": 0.0,
			"0.022": 0.0,
			"0.023": 0.0,
			"0.024": 0.0,
			"0.025": 0.0
		}
	}
}
