{
	 "smiles": "N#CC1=C(OCC2=CC=CC=C2)C=CC=C1OCC1=CC=CC=C1", 
	 "Tm": 396.15, 
	 "num_atms": 41, 
	 "gaussian": { 
		 "optdone": 1, 
		 "sigma_profile": "yes", 
		 "theory": "DFT", 
		 "functional": "B3LYP", 
		 "basiset": "6-31G**", 
		 "properties": { 
			 "R2extent": 10572.497, 
			 "electric_dipole_moment_norm": 4.22347601035, 
			 "electric_quadrupole_moment_norm": 14.6658684543, 
			 "total_energy": -1015.6384298, 
			 "HOMO_LUMO_gap": 0.19886, 
			 "cosmo_polarized_energy": -13.59, 
			 "cosmo_cavitation_energy": 46.81, 
			 "cosmo_dispersion_energy": -30.46, 
			 "cosmo_repulsion_energy": 2.34, 
			 "cosmo_total_nonelectrostatic_energy": 18.69, 
			 "SMD_solvation_energy": 8.83 
		},
		"coords": [
			{
				"x": -0.4977829891,
				"y": -0.0300443647,
				"z": 2.9186673063,
				"element": "N" 
			},
			{
				"x": -0.450549235,
				"y": 0.0499413844,
				"z": 1.7582678311,
				"element": "C" 
			},
			{
				"x": -0.3926050398,
				"y": 0.1481695754,
				"z": 0.3332488212,
				"element": "C" 
			},
			{
				"x": -0.2217316011,
				"y": 1.407771102,
				"z": -0.2866802613,
				"element": "C" 
			},
			{
				"x": -0.0478791476,
				"y": 2.5355108235,
				"z": 0.470446692,
				"element": "O" 
			},
			{
				"x": -1.2294561225,
				"y": 3.1032258863,
				"z": 1.0902780354,
				"element": "C" 
			},
			{
				"x": -2.128250464,
				"y": 3.8039053398,
				"z": 0.0990209401,
				"element": "C" 
			},
			{
				"x": -3.4405391231,
				"y": 3.3687716371,
				"z": -0.112142076,
				"element": "C" 
			},
			{
				"x": -4.2698511927,
				"y": 4.0254497634,
				"z": -1.0249851708,
				"element": "C" 
			},
			{
				"x": -3.7882296569,
				"y": 5.1203190343,
				"z": -1.7422029818,
				"element": "C" 
			},
			{
				"x": -2.4755014898,
				"y": 5.5589976036,
				"z": -1.5426247588,
				"element": "C" 
			},
			{
				"x": -1.6529878107,
				"y": 4.9061035329,
				"z": -0.6267021428,
				"element": "C" 
			},
			{
				"x": -0.1626290972,
				"y": 1.4949714593,
				"z": -1.6769594044,
				"element": "C" 
			},
			{
				"x": -0.2795845849,
				"y": 0.3400969676,
				"z": -2.4505371461,
				"element": "C" 
			},
			{
				"x": -0.4520804111,
				"y": -0.9092052075,
				"z": -1.8544714662,
				"element": "C" 
			},
			{
				"x": -0.505808583,
				"y": -1.0136509786,
				"z": -0.4651590021,
				"element": "C" 
			},
			{
				"x": -0.7335960895,
				"y": -2.2335819389,
				"z": 0.1137329511,
				"element": "O" 
			},
			{
				"x": 0.3974318459,
				"y": -2.8872116147,
				"z": 0.7431858909,
				"element": "C" 
			},
			{
				"x": 1.3773998822,
				"y": -3.4500357688,
				"z": -0.2589405164,
				"element": "C" 
			},
			{
				"x": 0.9696935172,
				"y": -4.4419909921,
				"z": -1.1629126596,
				"element": "C" 
			},
			{
				"x": 1.8673191809,
				"y": -4.9672973461,
				"z": -2.0903051269,
				"element": "C" 
			},
			{
				"x": 3.1884081612,
				"y": -4.5099497154,
				"z": -2.1232148793,
				"element": "C" 
			},
			{
				"x": 3.6031875215,
				"y": -3.5240911927,
				"z": -1.2281423989,
				"element": "C" 
			},
			{
				"x": 2.6990083672,
				"y": -2.994616925,
				"z": -0.303828714,
				"element": "C" 
			},
			{
				"x": -1.7771928442,
				"y": 2.3292146817,
				"z": 1.6376749165,
				"element": "H" 
			},
			{
				"x": -0.8227853248,
				"y": 3.8076963455,
				"z": 1.8206076505,
				"element": "H" 
			},
			{
				"x": -3.816891931,
				"y": 2.5128368506,
				"z": 0.4426093635,
				"element": "H" 
			},
			{
				"x": -5.287938503,
				"y": 3.6786067804,
				"z": -1.1769471451,
				"element": "H" 
			},
			{
				"x": -4.4308423069,
				"y": 5.6318714719,
				"z": -2.4530839898,
				"element": "H" 
			},
			{
				"x": -2.0974445207,
				"y": 6.4131884465,
				"z": -2.0973320005,
				"element": "H" 
			},
			{
				"x": -0.6324479869,
				"y": 5.2462187736,
				"z": -0.4707065526,
				"element": "H" 
			},
			{
				"x": -0.0310003132,
				"y": 2.4709231709,
				"z": -2.1291217391,
				"element": "H" 
			},
			{
				"x": -0.2356458946,
				"y": 0.4147377816,
				"z": -3.532985664,
				"element": "H" 
			},
			{
				"x": -0.5413652676,
				"y": -1.8132989797,
				"z": -2.4451600518,
				"element": "H" 
			},
			{
				"x": 0.8946979684,
				"y": -2.1985102962,
				"z": 1.4339487586,
				"element": "H" 
			},
			{
				"x": -0.0627220143,
				"y": -3.6830371777,
				"z": 1.3347481415,
				"element": "H" 
			},
			{
				"x": -0.0573833645,
				"y": -4.796864138,
				"z": -1.1363373131,
				"element": "H" 
			},
			{
				"x": 1.5410176616,
				"y": -5.7370858608,
				"z": -2.7840052283,
				"element": "H" 
			},
			{
				"x": 3.8893616045,
				"y": -4.9224490338,
				"z": -2.8432820971,
				"element": "H" 
			},
			{
				"x": 4.6274936514,
				"y": -3.1632349546,
				"z": -1.2499615723,
				"element": "H" 
			},
			{
				"x": 3.0236035476,
				"y": -2.2231719271,
				"z": 0.3900947605,
				"element": "H" 
			}
		],
		 "valence_orbital": [ 
			{
				"type": "occ",
				"energy": -0.25605,
				"method": "rhf"
			},
			{
				"type": "occ",
				"energy": -0.25592,
				"method": "rhf"
			},
			{
				"type": "occ",
				"energy": -0.25356,
				"method": "rhf"
			},
			{
				"type": "occ",
				"energy": -0.24725,
				"method": "rhf"
			},
			{
				"type": "occ",
				"energy": -0.24501,
				"method": "rhf"
			},
			{
				"type": "unocc",
				"energy": -0.04615,
				"method": "rhf"
			},
			{
				"type": "unocc",
				"energy": -0.01835,
				"method": "rhf"
			},
			{
				"type": "unocc",
				"energy": -0.0147,
				"method": "rhf"
			},
			{
				"type": "unocc",
				"energy": -0.01019,
				"method": "rhf"
			},
			{
				"type": "unocc",
				"energy": -0.00599,
				"method": "rhf"
			}
		],
		"cosmo_sigma_profile": { 
			"-0.025": 0.0,
			"-0.024": 0.0,
			"-0.023": 0.0,
			"-0.022": 0.0,
			"-0.021": 0.0,
			"-0.02": 0.0,
			"-0.019": 0.0,
			"-0.018": 0.0,
			"-0.017": 0.0,
			"-0.016": 0.0,
			"-0.015": 0.0,
			"-0.014": 0.0,
			"-0.013": 0.0,
			"-0.012": 0.0,
			"-0.011": 0.0,
			"-0.01": 0.0,
			"-0.009": 0.0,
			"-0.008": 0.573945755513,
			"-0.007": 5.60332078395,
			"-0.006": 27.4694250165,
			"-0.005": 36.4363397234,
			"-0.004": 34.1109261823,
			"-0.003": 31.8104589067,
			"-0.002": 23.0534955029,
			"-0.001": 24.3994284252,
			"0.0": 24.3740843051,
			"0.001": 27.5680529652,
			"0.002": 27.7146461562,
			"0.003": 27.4150078352,
			"0.004": 24.7000643928,
			"0.005": 24.2125060265,
			"0.006": 9.64515744915,
			"0.007": 4.52527446999,
			"0.008": 4.50735464022,
			"0.009": 4.84809588301,
			"0.01": 5.27472219025,
			"0.011": 3.57404112496,
			"0.012": 2.39311789797,
			"0.013": 1.29028872389,
			"0.014": 0.0,
			"0.015": 0.0,
			"0.016": 0.0,
			"0.017": 0.0,
			"0.018": 0.0,
			"0.019": 0.0,
			"0.02": 0.0,
			"0.021": 0.0,
			"0.022": 0.0,
			"0.023": 0.0,
			"0.024": 0.0,
			"0.025": 0.0
		}
	}
}
