{
	 "smiles": "CCCCCCCCCCCCCCCCC#C", 
	 "Tm": 297.95, 
	 "num_atms": 52, 
	 "gaussian": { 
		 "optdone": 1, 
		 "sigma_profile": "yes", 
		 "theory": "DFT", 
		 "functional": "B3LYP", 
		 "basiset": "6-31G**", 
		 "properties": { 
			 "R2extent": 10209.3109, 
			 "electric_dipole_moment_norm": 0.565077507958, 
			 "electric_quadrupole_moment_norm": 4.3501421586, 
			 "total_energy": -706.378079506, 
			 "HOMO_LUMO_gap": 0.31271, 
			 "cosmo_polarized_energy": -4.12, 
			 "cosmo_cavitation_energy": 51.26, 
			 "cosmo_dispersion_energy": -33.22, 
			 "cosmo_repulsion_energy": 2.71, 
			 "cosmo_total_nonelectrostatic_energy": 20.75, 
			 "SMD_solvation_energy": 7.98 
		},
		"coords": [
			{
				"x": -0.0001774383,
				"y": 3.7462499615,
				"z": 5.1117861768,
				"element": "C" 
			},
			{
				"x": 0.875760118,
				"y": 2.7802620629,
				"z": 4.3048661586,
				"element": "C" 
			},
			{
				"x": 0.7364484863,
				"y": 2.9221183022,
				"z": 2.7791057753,
				"element": "C" 
			},
			{
				"x": -0.6632081067,
				"y": 2.6392266998,
				"z": 2.202875785,
				"element": "C" 
			},
			{
				"x": -1.2576117605,
				"y": 1.2340570481,
				"z": 2.4246207356,
				"element": "C" 
			},
			{
				"x": -0.5530859174,
				"y": 0.0642427838,
				"z": 1.7016665515,
				"element": "C" 
			},
			{
				"x": 0.6058912675,
				"y": -0.5892949831,
				"z": 2.4724755223,
				"element": "C" 
			},
			{
				"x": 1.1833588894,
				"y": -1.8732789611,
				"z": 1.8481488858,
				"element": "C" 
			},
			{
				"x": 1.8881301939,
				"y": -1.7094041734,
				"z": 0.4825534461,
				"element": "C" 
			},
			{
				"x": 0.9938735095,
				"y": -1.9241670591,
				"z": -0.7489206168,
				"element": "C" 
			},
			{
				"x": 1.7524391291,
				"y": -1.7581879083,
				"z": -2.0735103207,
				"element": "C" 
			},
			{
				"x": 0.9256280555,
				"y": -2.0607850046,
				"z": -3.3342799428,
				"element": "C" 
			},
			{
				"x": -0.230532251,
				"y": -1.084608466,
				"z": -3.5965725614,
				"element": "C" 
			},
			{
				"x": -0.9786812395,
				"y": -1.3861057508,
				"z": -4.9028439834,
				"element": "C" 
			},
			{
				"x": -2.0904464929,
				"y": -0.3859594149,
				"z": -5.25252467,
				"element": "C" 
			},
			{
				"x": -3.2789629429,
				"y": -0.3582243145,
				"z": -4.2623084571,
				"element": "C" 
			},
			{
				"x": -3.9739768701,
				"y": -1.6412270704,
				"z": -4.144221332,
				"element": "C" 
			},
			{
				"x": -4.538902199,
				"y": -2.7059485377,
				"z": -4.0579019835,
				"element": "C" 
			},
			{
				"x": -1.0676175271,
				"y": 3.562998973,
				"z": 4.9505495658,
				"element": "H" 
			},
			{
				"x": 0.1897469265,
				"y": 3.6467737129,
				"z": 6.1856626015,
				"element": "H" 
			},
			{
				"x": 0.2010205811,
				"y": 4.7878001452,
				"z": 4.8343243711,
				"element": "H" 
			},
			{
				"x": 0.6528520046,
				"y": 1.7488414624,
				"z": 4.6056084106,
				"element": "H" 
			},
			{
				"x": 1.927624516,
				"y": 2.9470429253,
				"z": 4.5708429949,
				"element": "H" 
			},
			{
				"x": 1.472760345,
				"y": 2.2712860039,
				"z": 2.2919852015,
				"element": "H" 
			},
			{
				"x": 1.0167728151,
				"y": 3.9471592118,
				"z": 2.498050842,
				"element": "H" 
			},
			{
				"x": -1.3687927673,
				"y": 3.3740423968,
				"z": 2.6119278977,
				"element": "H" 
			},
			{
				"x": -0.6334522808,
				"y": 2.8325789817,
				"z": 1.1215304399,
				"element": "H" 
			},
			{
				"x": -2.2968665584,
				"y": 1.2728345988,
				"z": 2.0740084918,
				"element": "H" 
			},
			{
				"x": -1.3208003899,
				"y": 1.0132818084,
				"z": 3.4989374949,
				"element": "H" 
			},
			{
				"x": -0.2058805976,
				"y": 0.4120823601,
				"z": 0.7197631512,
				"element": "H" 
			},
			{
				"x": -1.2991540842,
				"y": -0.7156671854,
				"z": 1.4965402255,
				"element": "H" 
			},
			{
				"x": 1.4234251957,
				"y": 0.1295172386,
				"z": 2.6085479197,
				"element": "H" 
			},
			{
				"x": 0.2498893181,
				"y": -0.8334640226,
				"z": 3.483250626,
				"element": "H" 
			},
			{
				"x": 1.9031459124,
				"y": -2.2873714618,
				"z": 2.5653735003,
				"element": "H" 
			},
			{
				"x": 0.3872141967,
				"y": -2.6262692364,
				"z": 1.758427951,
				"element": "H" 
			},
			{
				"x": 2.3539574238,
				"y": -0.7145950147,
				"z": 0.429592549,
				"element": "H" 
			},
			{
				"x": 2.7179579496,
				"y": -2.4263103924,
				"z": 0.4226819449,
				"element": "H" 
			},
			{
				"x": 0.142756471,
				"y": -1.2352474316,
				"z": -0.7178066822,
				"element": "H" 
			},
			{
				"x": 0.5652511389,
				"y": -2.9359693999,
				"z": -0.7040653295,
				"element": "H" 
			},
			{
				"x": 2.6293230877,
				"y": -2.4201603086,
				"z": -2.0614988695,
				"element": "H" 
			},
			{
				"x": 2.149605961,
				"y": -0.73463724,
				"z": -2.1383414563,
				"element": "H" 
			},
			{
				"x": 1.5956438317,
				"y": -2.0530867286,
				"z": -4.2049477295,
				"element": "H" 
			},
			{
				"x": 0.5268628783,
				"y": -3.0832654587,
				"z": -3.2694124397,
				"element": "H" 
			},
			{
				"x": -0.932777367,
				"y": -1.1149249821,
				"z": -2.75463076,
				"element": "H" 
			},
			{
				"x": 0.1648341465,
				"y": -0.0583267324,
				"z": -3.631274549,
				"element": "H" 
			},
			{
				"x": -0.2566778387,
				"y": -1.4005787501,
				"z": -5.7303408642,
				"element": "H" 
			},
			{
				"x": -1.4087693961,
				"y": -2.394739373,
				"z": -4.8529181904,
				"element": "H" 
			},
			{
				"x": -1.6731529667,
				"y": 0.6282580458,
				"z": -5.3033277786,
				"element": "H" 
			},
			{
				"x": -2.479673865,
				"y": -0.6157577623,
				"z": -6.2511854336,
				"element": "H" 
			},
			{
				"x": -3.9948286098,
				"y": 0.4082024642,
				"z": -4.5865151629,
				"element": "H" 
			},
			{
				"x": -2.9320912294,
				"y": -0.044506699,
				"z": -3.2695102534,
				"element": "H" 
			},
			{
				"x": -5.0429536524,
				"y": -3.6408873637,
				"z": -3.9787458498,
				"element": "H" 
			}
		],
		 "valence_orbital": [ 
			{
				"type": "occ",
				"energy": -0.30002,
				"method": "rhf"
			},
			{
				"type": "occ",
				"energy": -0.29408,
				"method": "rhf"
			},
			{
				"type": "occ",
				"energy": -0.29209,
				"method": "rhf"
			},
			{
				"type": "occ",
				"energy": -0.25816,
				"method": "rhf"
			},
			{
				"type": "occ",
				"energy": -0.25735,
				"method": "rhf"
			},
			{
				"type": "unocc",
				"energy": 0.05536,
				"method": "rhf"
			},
			{
				"type": "unocc",
				"energy": 0.06154,
				"method": "rhf"
			},
			{
				"type": "unocc",
				"energy": 0.07788,
				"method": "rhf"
			},
			{
				"type": "unocc",
				"energy": 0.0891,
				"method": "rhf"
			},
			{
				"type": "unocc",
				"energy": 0.09718,
				"method": "rhf"
			}
		],
		"cosmo_sigma_profile": { 
			"-0.025": 0.0,
			"-0.024": 0.0,
			"-0.023": 0.0,
			"-0.022": 0.0,
			"-0.021": 0.0,
			"-0.02": 0.0,
			"-0.019": 0.0,
			"-0.018": 0.0,
			"-0.017": 0.0,
			"-0.016": 0.0,
			"-0.015": 0.0,
			"-0.014": 0.0,
			"-0.013": 0.0,
			"-0.012": 0.00700841856944,
			"-0.011": 0.701166770583,
			"-0.01": 1.38527278967,
			"-0.009": 1.20103358426,
			"-0.008": 0.570471770782,
			"-0.007": 1.57773498303,
			"-0.006": 0.954270626518,
			"-0.005": 3.89627016329,
			"-0.004": 5.730541321,
			"-0.003": 11.9101202371,
			"-0.002": 45.0170671102,
			"-0.001": 89.2128473262,
			"0.0": 93.5201984556,
			"0.001": 74.4703473333,
			"0.002": 33.3316419873,
			"0.003": 4.13679510219,
			"0.004": 5.46315773705,
			"0.005": 5.04108896156,
			"0.006": 5.08171684084,
			"0.007": 6.56619732409,
			"0.008": 4.36022198684,
			"0.009": 0.0165313290907,
			"0.01": 0.0,
			"0.011": 0.0,
			"0.012": 0.0,
			"0.013": 0.0,
			"0.014": 0.0,
			"0.015": 0.0,
			"0.016": 0.0,
			"0.017": 0.0,
			"0.018": 0.0,
			"0.019": 0.0,
			"0.02": 0.0,
			"0.021": 0.0,
			"0.022": 0.0,
			"0.023": 0.0,
			"0.024": 0.0,
			"0.025": 0.0
		}
	}
}
