{
	 "smiles": "CS(=O)(=O)C1=CC=C(C=C1)C1=NC(CCl)=CS1", 
	 "Tm": 425.15, 
	 "num_atms": 27, 
	 "gaussian": { 
		 "optdone": 1, 
		 "sigma_profile": "yes", 
		 "theory": "DFT", 
		 "functional": "B3LYP", 
		 "basiset": "6-31G**", 
		 "properties": { 
			 "R2extent": 9097.843, 
			 "electric_dipole_moment_norm": 4.32553803705, 
			 "electric_quadrupole_moment_norm": 40.1163762132, 
			 "total_energy": -1886.90197117, 
			 "HOMO_LUMO_gap": 0.16422, 
			 "cosmo_polarized_energy": -19.66, 
			 "cosmo_cavitation_energy": 36.66, 
			 "cosmo_dispersion_energy": -27.44, 
			 "cosmo_repulsion_energy": 2.05, 
			 "cosmo_total_nonelectrostatic_energy": 11.27, 
			 "SMD_solvation_energy": 4.21 
		},
		"coords": [
			{
				"x": -4.4401222871,
				"y": 1.6695553343,
				"z": -1.5859216138,
				"element": "C" 
			},
			{
				"x": -3.2654155796,
				"y": 3.0282099682,
				"z": -1.3689258489,
				"element": "S" 
			},
			{
				"x": -3.0499904961,
				"y": 3.6405537022,
				"z": -2.6886549467,
				"element": "O" 
			},
			{
				"x": -3.7198463927,
				"y": 3.8263777858,
				"z": -0.2197508854,
				"element": "O" 
			},
			{
				"x": -1.7410537887,
				"y": 2.196178367,
				"z": -0.8912486891,
				"element": "C" 
			},
			{
				"x": -0.8549856176,
				"y": 1.7616452434,
				"z": -1.8803770482,
				"element": "C" 
			},
			{
				"x": 0.3175898134,
				"y": 1.114385201,
				"z": -1.5075751092,
				"element": "C" 
			},
			{
				"x": 0.6144769268,
				"y": 0.9044319263,
				"z": -0.1481613387,
				"element": "C" 
			},
			{
				"x": -0.2835977887,
				"y": 1.3635490381,
				"z": 0.8295726497,
				"element": "C" 
			},
			{
				"x": -1.4603624765,
				"y": 2.0100991726,
				"z": 0.463135736,
				"element": "C" 
			},
			{
				"x": 1.8634774288,
				"y": 0.2143880076,
				"z": 0.2028403836,
				"element": "C" 
			},
			{
				"x": 2.7323907387,
				"y": -0.2074071723,
				"z": -0.675897691,
				"element": "N" 
			},
			{
				"x": 3.8114326398,
				"y": -0.8161790934,
				"z": -0.0836050688,
				"element": "C" 
			},
			{
				"x": 4.9070659371,
				"y": -1.3623052442,
				"z": -0.9356984835,
				"element": "C" 
			},
			{
				"x": 4.4940074879,
				"y": -3.0061666182,
				"z": -1.6291835608,
				"element": "Cl" 
			},
			{
				"x": 3.776132512,
				"y": -0.8632101962,
				"z": 1.2861180648,
				"element": "C" 
			},
			{
				"x": 2.3344624414,
				"y": -0.1200320215,
				"z": 1.8754579738,
				"element": "S" 
			},
			{
				"x": -4.5541555348,
				"y": 1.1379719857,
				"z": -0.6402510893,
				"element": "H" 
			},
			{
				"x": -4.0804556825,
				"y": 1.0047854075,
				"z": -2.3724344621,
				"element": "H" 
			},
			{
				"x": -5.3858030454,
				"y": 2.1296790964,
				"z": -1.8801093824,
				"element": "H" 
			},
			{
				"x": -1.0784872867,
				"y": 1.9495955477,
				"z": -2.9252718836,
				"element": "H" 
			},
			{
				"x": 1.0225484671,
				"y": 0.7670912635,
				"z": -2.25409386,
				"element": "H" 
			},
			{
				"x": -0.0644562179,
				"y": 1.2250673145,
				"z": 1.884380056,
				"element": "H" 
			},
			{
				"x": -2.147556857,
				"y": 2.3873677976,
				"z": 1.2127743219,
				"element": "H" 
			},
			{
				"x": 5.086081584,
				"y": -0.7170760208,
				"z": -1.7951533362,
				"element": "H" 
			},
			{
				"x": 5.8286598159,
				"y": -1.496925985,
				"z": -0.370784363,
				"element": "H" 
			},
			{
				"x": 4.5021632585,
				"y": -1.2932298079,
				"z": 1.9616194751,
				"element": "H" 
			}
		],
		 "valence_orbital": [ 
			{
				"type": "occ",
				"energy": -0.29584,
				"method": "rhf"
			},
			{
				"type": "occ",
				"energy": -0.29514,
				"method": "rhf"
			},
			{
				"type": "occ",
				"energy": -0.28874,
				"method": "rhf"
			},
			{
				"type": "occ",
				"energy": -0.28079,
				"method": "rhf"
			},
			{
				"type": "occ",
				"energy": -0.24639,
				"method": "rhf"
			},
			{
				"type": "unocc",
				"energy": -0.08217,
				"method": "rhf"
			},
			{
				"type": "unocc",
				"energy": -0.03399,
				"method": "rhf"
			},
			{
				"type": "unocc",
				"energy": -0.02604,
				"method": "rhf"
			},
			{
				"type": "unocc",
				"energy": -0.0013,
				"method": "rhf"
			},
			{
				"type": "unocc",
				"energy": 0.00864,
				"method": "rhf"
			}
		],
		"cosmo_sigma_profile": { 
			"-0.025": 0.0,
			"-0.024": 0.0,
			"-0.023": 0.0,
			"-0.022": 0.0,
			"-0.021": 0.0,
			"-0.02": 0.0,
			"-0.019": 0.0,
			"-0.018": 0.0,
			"-0.017": 0.0,
			"-0.016": 0.0,
			"-0.015": 0.0,
			"-0.014": 0.0,
			"-0.013": 0.0,
			"-0.012": 0.0,
			"-0.011": 0.00892679686148,
			"-0.01": 1.93612666007,
			"-0.009": 6.52546453901,
			"-0.008": 15.5870295083,
			"-0.007": 16.387127116,
			"-0.006": 18.6156336769,
			"-0.005": 18.087762318,
			"-0.004": 16.5537127184,
			"-0.003": 14.7657214287,
			"-0.002": 14.6266903969,
			"-0.001": 16.6437200249,
			"0.0": 22.6506821985,
			"0.001": 29.6982787,
			"0.002": 22.7765181977,
			"0.003": 9.36593553244,
			"0.004": 8.62141324927,
			"0.005": 10.8283467903,
			"0.006": 14.1049687936,
			"0.007": 8.76371301916,
			"0.008": 3.78292127186,
			"0.009": 4.52210110094,
			"0.01": 5.83787858782,
			"0.011": 8.80507314504,
			"0.012": 8.44074300958,
			"0.013": 0.656514874744,
			"0.014": 0.0,
			"0.015": 0.0,
			"0.016": 0.0,
			"0.017": 0.0,
			"0.018": 0.0,
			"0.019": 0.0,
			"0.02": 0.0,
			"0.021": 0.0,
			"0.022": 0.0,
			"0.023": 0.0,
			"0.024": 0.0,
			"0.025": 0.0
		}
	}
}
