{
	 "smiles": "OC(=O)C1=C(Br)C=C(F)C(=C1)[N+]([O-])=O", 
	 "Tm": 445.15, 
	 "num_atms": 17, 
	 "gaussian": { 
		 "optdone": 1, 
		 "sigma_profile": "yes", 
		 "theory": "DFT", 
		 "functional": "B3LYP", 
		 "basiset": "6-31G**", 
		 "properties": { 
			 "R2extent": 5940.7304, 
			 "electric_dipole_moment_norm": 4.70277023679, 
			 "electric_quadrupole_moment_norm": 10.8707259574, 
			 "total_energy": -3295.33025671, 
			 "HOMO_LUMO_gap": 0.179, 
			 "cosmo_polarized_energy": -12.97, 
			 "cosmo_cavitation_energy": 26.04, 
			 "cosmo_dispersion_energy": -19.48, 
			 "cosmo_repulsion_energy": 1.5, 
			 "cosmo_total_nonelectrostatic_energy": 8.07, 
			 "SMD_solvation_energy": 7.48 
		},
		"coords": [
			{
				"x": -2.4757907632,
				"y": 0.5387437096,
				"z": -3.2492366983,
				"element": "O" 
			},
			{
				"x": -1.9769327064,
				"y": 1.1679602199,
				"z": -2.1714024819,
				"element": "C" 
			},
			{
				"x": -1.5336069313,
				"y": 2.297452143,
				"z": -2.2265945603,
				"element": "O" 
			},
			{
				"x": -2.0048152739,
				"y": 0.3730610947,
				"z": -0.8990655474,
				"element": "C" 
			},
			{
				"x": -2.5064320188,
				"y": -0.9295205443,
				"z": -0.6828622755,
				"element": "C" 
			},
			{
				"x": -3.3022192539,
				"y": -2.0233690079,
				"z": -2.0166616309,
				"element": "Br" 
			},
			{
				"x": -2.4415786788,
				"y": -1.5063055443,
				"z": 0.5857906318,
				"element": "C" 
			},
			{
				"x": -1.8867611825,
				"y": -0.8159196114,
				"z": 1.6560735802,
				"element": "C" 
			},
			{
				"x": -1.8582155285,
				"y": -1.4301193413,
				"z": 2.8329638527,
				"element": "F" 
			},
			{
				"x": -1.3835996731,
				"y": 0.4794943984,
				"z": 1.463712659,
				"element": "C" 
			},
			{
				"x": -1.4519734304,
				"y": 1.0450498242,
				"z": 0.1980039122,
				"element": "C" 
			},
			{
				"x": -0.7841777758,
				"y": 1.2697941934,
				"z": 2.5495141661,
				"element": "N" 
			},
			{
				"x": -0.3575715269,
				"y": 2.3856083201,
				"z": 2.2577657952,
				"element": "O" 
			},
			{
				"x": -0.7492088228,
				"y": 0.7688236939,
				"z": 3.6693097645,
				"element": "O" 
			},
			{
				"x": -2.3904576471,
				"y": 1.1687116345,
				"z": -3.9853502869,
				"element": "H" 
			},
			{
				"x": -2.8232833259,
				"y": -2.5042368773,
				"z": 0.7604280075,
				"element": "H" 
			},
			{
				"x": -1.0634754606,
				"y": 2.0449716947,
				"z": 0.0500111122,
				"element": "H" 
			}
		],
		 "valence_orbital": [ 
			{
				"type": "occ",
				"energy": -0.31056,
				"method": "rhf"
			},
			{
				"type": "occ",
				"energy": -0.30331,
				"method": "rhf"
			},
			{
				"type": "occ",
				"energy": -0.29853,
				"method": "rhf"
			},
			{
				"type": "occ",
				"energy": -0.29523,
				"method": "rhf"
			},
			{
				"type": "occ",
				"energy": -0.28456,
				"method": "rhf"
			},
			{
				"type": "unocc",
				"energy": -0.10556,
				"method": "rhf"
			},
			{
				"type": "unocc",
				"energy": -0.07751,
				"method": "rhf"
			},
			{
				"type": "unocc",
				"energy": -0.03292,
				"method": "rhf"
			},
			{
				"type": "unocc",
				"energy": -0.02439,
				"method": "rhf"
			},
			{
				"type": "unocc",
				"energy": 0.03343,
				"method": "rhf"
			}
		],
		"cosmo_sigma_profile": { 
			"-0.025": 0.0,
			"-0.024": 0.0,
			"-0.023": 0.0,
			"-0.022": 0.0,
			"-0.021": 0.0,
			"-0.02": 0.0195347411063,
			"-0.019": 0.609868077797,
			"-0.018": 0.763243210898,
			"-0.017": 1.27121520513,
			"-0.016": 0.725676540436,
			"-0.015": 0.438847963196,
			"-0.014": 0.35070909885,
			"-0.013": 0.937766677012,
			"-0.012": 1.11292948923,
			"-0.011": 0.893055123691,
			"-0.01": 1.58390599728,
			"-0.009": 2.01960235661,
			"-0.008": 4.08600839314,
			"-0.007": 4.52562440458,
			"-0.006": 5.91067787774,
			"-0.005": 10.5426020622,
			"-0.004": 17.8500795062,
			"-0.003": 22.6943361567,
			"-0.002": 19.4877121887,
			"-0.001": 10.8067960718,
			"0.0": 9.78684725596,
			"0.001": 11.062070492,
			"0.002": 16.0267035035,
			"0.003": 12.4284303926,
			"0.004": 8.12431266518,
			"0.005": 5.77682912463,
			"0.006": 9.3835244402,
			"0.007": 14.5816009257,
			"0.008": 6.94789323287,
			"0.009": 5.05307031418,
			"0.01": 3.9044054058,
			"0.011": 3.53769249419,
			"0.012": 0.269897792998,
			"0.013": 0.0,
			"0.014": 0.0,
			"0.015": 0.0,
			"0.016": 0.0,
			"0.017": 0.0,
			"0.018": 0.0,
			"0.019": 0.0,
			"0.02": 0.0,
			"0.021": 0.0,
			"0.022": 0.0,
			"0.023": 0.0,
			"0.024": 0.0,
			"0.025": 0.0
		}
	}
}
