{
	 "smiles": "CCC1=C(C)SC(N)=C1C#N", 
	 "Tm": 377.15, 
	 "num_atms": 21, 
	 "gaussian": { 
		 "optdone": 1, 
		 "sigma_profile": "yes", 
		 "theory": "DFT", 
		 "functional": "B3LYP", 
		 "basiset": "6-31G**", 
		 "properties": { 
			 "R2extent": 2386.2294, 
			 "electric_dipole_moment_norm": 3.88013229671, 
			 "electric_quadrupole_moment_norm": 19.9155789579, 
			 "total_energy": -818.556769069, 
			 "HOMO_LUMO_gap": 0.1835, 
			 "cosmo_polarized_energy": -12.33, 
			 "cosmo_cavitation_energy": 26.55, 
			 "cosmo_dispersion_energy": -19.01, 
			 "cosmo_repulsion_energy": 1.51, 
			 "cosmo_total_nonelectrostatic_energy": 9.05, 
			 "SMD_solvation_energy": 5.37 
		},
		"coords": [
			{
				"x": -0.5392389887,
				"y": -2.0070068387,
				"z": -0.6838213543,
				"element": "C" 
			},
			{
				"x": -0.6632843634,
				"y": -1.2124539295,
				"z": 0.6294107155,
				"element": "C" 
			},
			{
				"x": -0.2613938249,
				"y": 0.2360479836,
				"z": 0.4923302202,
				"element": "C" 
			},
			{
				"x": 0.9338266966,
				"y": 0.774410673,
				"z": 0.8709188091,
				"element": "C" 
			},
			{
				"x": 2.1306724589,
				"y": 0.1317705989,
				"z": 1.505466854,
				"element": "C" 
			},
			{
				"x": 1.002490756,
				"y": 2.5074908095,
				"z": 0.5044569918,
				"element": "S" 
			},
			{
				"x": -0.5969550964,
				"y": 2.4886491247,
				"z": -0.1875915871,
				"element": "C" 
			},
			{
				"x": -1.2023796728,
				"y": 3.6393113081,
				"z": -0.6333169895,
				"element": "N" 
			},
			{
				"x": -1.1413252178,
				"y": 1.2167185534,
				"z": -0.1201741172,
				"element": "C" 
			},
			{
				"x": -2.4387748798,
				"y": 0.9489013449,
				"z": -0.6275633772,
				"element": "C" 
			},
			{
				"x": -3.5060336909,
				"y": 0.772023222,
				"z": -1.0653078734,
				"element": "N" 
			},
			{
				"x": -1.172976172,
				"y": -1.5787594487,
				"z": -1.4658947967,
				"element": "H" 
			},
			{
				"x": 0.4933339069,
				"y": -2.0056879918,
				"z": -1.0471566513,
				"element": "H" 
			},
			{
				"x": -0.8478130153,
				"y": -3.04672641,
				"z": -0.5345355583,
				"element": "H" 
			},
			{
				"x": -1.7020444392,
				"y": -1.2584619889,
				"z": 0.9784471373,
				"element": "H" 
			},
			{
				"x": -0.0585194471,
				"y": -1.6920332908,
				"z": 1.4053359785,
				"element": "H" 
			},
			{
				"x": 1.9216531438,
				"y": -0.9155110495,
				"z": 1.7354957383,
				"element": "H" 
			},
			{
				"x": 2.4127249086,
				"y": 0.626466976,
				"z": 2.4422300172,
				"element": "H" 
			},
			{
				"x": 3.0061761309,
				"y": 0.1553908702,
				"z": 0.845349654,
				"element": "H" 
			},
			{
				"x": -2.0573753621,
				"y": 3.4945235578,
				"z": -1.1559399527,
				"element": "H" 
			},
			{
				"x": -0.6048638314,
				"y": 4.3535359257,
				"z": -1.0243398582,
				"element": "H" 
			}
		],
		 "valence_orbital": [ 
			{
				"type": "occ",
				"energy": -0.33587,
				"method": "rhf"
			},
			{
				"type": "occ",
				"energy": -0.32067,
				"method": "rhf"
			},
			{
				"type": "occ",
				"energy": -0.31151,
				"method": "rhf"
			},
			{
				"type": "occ",
				"energy": -0.25004,
				"method": "rhf"
			},
			{
				"type": "occ",
				"energy": -0.20444,
				"method": "rhf"
			},
			{
				"type": "unocc",
				"energy": -0.02094,
				"method": "rhf"
			},
			{
				"type": "unocc",
				"energy": -0.0029,
				"method": "rhf"
			},
			{
				"type": "unocc",
				"energy": 0.01977,
				"method": "rhf"
			},
			{
				"type": "unocc",
				"energy": 0.04803,
				"method": "rhf"
			},
			{
				"type": "unocc",
				"energy": 0.0635,
				"method": "rhf"
			}
		],
		"cosmo_sigma_profile": { 
			"-0.025": 0.0,
			"-0.024": 0.0,
			"-0.023": 0.0,
			"-0.022": 0.0,
			"-0.021": 0.0,
			"-0.02": 0.0,
			"-0.019": 0.0,
			"-0.018": 0.0,
			"-0.017": 0.0,
			"-0.016": 0.0,
			"-0.015": 0.655382391221,
			"-0.014": 2.25470361761,
			"-0.013": 2.24936520733,
			"-0.012": 2.77965329247,
			"-0.011": 2.38633333735,
			"-0.01": 2.25251789681,
			"-0.009": 1.79054205313,
			"-0.008": 1.86165376963,
			"-0.007": 2.47851861252,
			"-0.006": 3.02245671083,
			"-0.005": 6.3316452919,
			"-0.004": 12.1490627442,
			"-0.003": 18.2926728431,
			"-0.002": 19.1262479796,
			"-0.001": 24.402292744,
			"0.0": 21.4265526777,
			"0.001": 20.64012006,
			"0.002": 13.5810110576,
			"0.003": 13.7366336012,
			"0.004": 11.1075416342,
			"0.005": 4.55056668482,
			"0.006": 2.26120506308,
			"0.007": 3.02387360393,
			"0.008": 2.58054592673,
			"0.009": 3.71216981625,
			"0.01": 3.64422292802,
			"0.011": 3.57460178786,
			"0.012": 3.01407448,
			"0.013": 2.62542278228,
			"0.014": 1.34885187153,
			"0.015": 0.0113568390764,
			"0.016": 0.0,
			"0.017": 0.0,
			"0.018": 0.0,
			"0.019": 0.0,
			"0.02": 0.0,
			"0.021": 0.0,
			"0.022": 0.0,
			"0.023": 0.0,
			"0.024": 0.0,
			"0.025": 0.0
		}
	}
}
