{
	 "smiles": "NC(=O)C1(Br)CCC1", 
	 "Tm": 424.15, 
	 "num_atms": 16, 
	 "gaussian": { 
		 "optdone": 1, 
		 "sigma_profile": "yes", 
		 "theory": "DFT", 
		 "functional": "B3LYP", 
		 "basiset": "6-31G**", 
		 "properties": { 
			 "R2extent": 2341.082, 
			 "electric_dipole_moment_norm": 1.50817047445, 
			 "electric_quadrupole_moment_norm": 12.3269670816, 
			 "total_energy": -2896.72878003, 
			 "HOMO_LUMO_gap": 0.23377, 
			 "cosmo_polarized_energy": -9.08, 
			 "cosmo_cavitation_energy": 20.8, 
			 "cosmo_dispersion_energy": -15.86, 
			 "cosmo_repulsion_energy": 1.32, 
			 "cosmo_total_nonelectrostatic_energy": 6.26, 
			 "SMD_solvation_energy": 2.92 
		},
		"coords": [
			{
				"x": -2.5317396808,
				"y": -0.8253992266,
				"z": 0.7956082868,
				"element": "N" 
			},
			{
				"x": -1.2372012123,
				"y": -0.6665591706,
				"z": 1.1705804932,
				"element": "C" 
			},
			{
				"x": -0.8838468877,
				"y": 0.1260094225,
				"z": 2.0357714392,
				"element": "O" 
			},
			{
				"x": -0.1630418865,
				"y": -1.431297961,
				"z": 0.3799722903,
				"element": "C" 
			},
			{
				"x": -0.8643425909,
				"y": -3.1529581817,
				"z": -0.3714641698,
				"element": "Br" 
			},
			{
				"x": 0.5430892267,
				"y": -0.5123277172,
				"z": -0.6592901758,
				"element": "C" 
			},
			{
				"x": 1.689766916,
				"y": -0.316755081,
				"z": 0.3704290165,
				"element": "C" 
			},
			{
				"x": 1.1731910076,
				"y": -1.5579820977,
				"z": 1.148636267,
				"element": "C" 
			},
			{
				"x": -3.2276857633,
				"y": -0.3268325351,
				"z": 1.329328875,
				"element": "H" 
			},
			{
				"x": -2.8126025471,
				"y": -1.5879725871,
				"z": 0.1989826009,
				"element": "H" 
			},
			{
				"x": 0.8613217236,
				"y": -1.0834912092,
				"z": -1.533318872,
				"element": "H" 
			},
			{
				"x": -0.0191846807,
				"y": 0.3655825706,
				"z": -0.9874863679,
				"element": "H" 
			},
			{
				"x": 1.5661548502,
				"y": 0.5977696506,
				"z": 0.9514394831,
				"element": "H" 
			},
			{
				"x": 2.7075983981,
				"y": -0.3714997303,
				"z": -0.0234146983,
				"element": "H" 
			},
			{
				"x": 1.0942469236,
				"y": -1.4755578252,
				"z": 2.233210189,
				"element": "H" 
			},
			{
				"x": 1.7025762036,
				"y": -2.4720283211,
				"z": 0.8750153429,
				"element": "H" 
			}
		],
		 "valence_orbital": [ 
			{
				"type": "occ",
				"energy": -0.3258,
				"method": "rhf"
			},
			{
				"type": "occ",
				"energy": -0.29112,
				"method": "rhf"
			},
			{
				"type": "occ",
				"energy": -0.28075,
				"method": "rhf"
			},
			{
				"type": "occ",
				"energy": -0.27267,
				"method": "rhf"
			},
			{
				"type": "occ",
				"energy": -0.25386,
				"method": "rhf"
			},
			{
				"type": "unocc",
				"energy": -0.02009,
				"method": "rhf"
			},
			{
				"type": "unocc",
				"energy": 0.02472,
				"method": "rhf"
			},
			{
				"type": "unocc",
				"energy": 0.08225,
				"method": "rhf"
			},
			{
				"type": "unocc",
				"energy": 0.10739,
				"method": "rhf"
			},
			{
				"type": "unocc",
				"energy": 0.11745,
				"method": "rhf"
			}
		],
		"cosmo_sigma_profile": { 
			"-0.025": 0.0,
			"-0.024": 0.0,
			"-0.023": 0.0,
			"-0.022": 0.0,
			"-0.021": 0.0,
			"-0.02": 0.0,
			"-0.019": 0.0,
			"-0.018": 0.0,
			"-0.017": 0.0,
			"-0.016": 0.0,
			"-0.015": 0.0800419834355,
			"-0.014": 1.25573866157,
			"-0.013": 1.23302560827,
			"-0.012": 2.0705122951,
			"-0.011": 2.06596461191,
			"-0.01": 1.7536134316,
			"-0.009": 1.79734506287,
			"-0.008": 1.51856253262,
			"-0.007": 1.95490557488,
			"-0.006": 1.27128931603,
			"-0.005": 5.85966012332,
			"-0.004": 11.1129018121,
			"-0.003": 16.2506130069,
			"-0.002": 18.3648816131,
			"-0.001": 17.9254525739,
			"0.0": 18.8345235093,
			"0.001": 11.051696386,
			"0.002": 7.77584013221,
			"0.003": 7.81385632487,
			"0.004": 7.19528390597,
			"0.005": 9.17858178052,
			"0.006": 4.38542269477,
			"0.007": 1.50022161366,
			"0.008": 1.10057968383,
			"0.009": 1.16928800638,
			"0.01": 1.89925525249,
			"0.011": 1.57458716324,
			"0.012": 2.3044111318,
			"0.013": 4.48761661397,
			"0.014": 1.57438513078,
			"0.015": 0.0128268995717,
			"0.016": 0.0,
			"0.017": 0.0,
			"0.018": 0.0,
			"0.019": 0.0,
			"0.02": 0.0,
			"0.021": 0.0,
			"0.022": 0.0,
			"0.023": 0.0,
			"0.024": 0.0,
			"0.025": 0.0
		}
	}
}
