{
	 "smiles": "OC(=O)C1=CSC=C1S(=O)(=O)C1=CC=C(Cl)C=C1", 
	 "Tm": 488.15, 
	 "num_atms": 25, 
	 "gaussian": { 
		 "optdone": 1, 
		 "sigma_profile": "yes", 
		 "theory": "DFT", 
		 "functional": "B3LYP", 
		 "basiset": "6-31G**", 
		 "properties": { 
			 "R2extent": 6773.242, 
			 "electric_dipole_moment_norm": 3.31179867293, 
			 "electric_quadrupole_moment_norm": 17.7473678798, 
			 "total_energy": -1980.77312151, 
			 "HOMO_LUMO_gap": 0.20194, 
			 "cosmo_polarized_energy": -18.5, 
			 "cosmo_cavitation_energy": 35.05, 
			 "cosmo_dispersion_energy": -25.8, 
			 "cosmo_repulsion_energy": 1.9, 
			 "cosmo_total_nonelectrostatic_energy": 11.15, 
			 "SMD_solvation_energy": 6.35 
		},
		"coords": [
			{
				"x": 0.1675605235,
				"y": -0.5748760401,
				"z": -1.6852138889,
				"element": "O" 
			},
			{
				"x": 1.43765337,
				"y": -1.0256637145,
				"z": -1.698239432,
				"element": "C" 
			},
			{
				"x": 1.9582604264,
				"y": -1.4930380882,
				"z": -2.6908716383,
				"element": "O" 
			},
			{
				"x": 2.1176199139,
				"y": -0.9236084244,
				"z": -0.3830347006,
				"element": "C" 
			},
			{
				"x": 3.3254714397,
				"y": -1.561248744,
				"z": -0.2373548632,
				"element": "C" 
			},
			{
				"x": 3.9879669289,
				"y": -1.375016001,
				"z": 1.3394941982,
				"element": "S" 
			},
			{
				"x": 2.6401712954,
				"y": -0.4198668456,
				"z": 1.8444588826,
				"element": "C" 
			},
			{
				"x": 1.7238287344,
				"y": -0.2604301436,
				"z": 0.8398776712,
				"element": "C" 
			},
			{
				"x": 0.3346376217,
				"y": 0.8426713167,
				"z": 1.1878962276,
				"element": "S" 
			},
			{
				"x": 0.2056428193,
				"y": 1.8156060164,
				"z": 0.0977311602,
				"element": "O" 
			},
			{
				"x": 0.5491264936,
				"y": 1.288643942,
				"z": 2.5745181655,
				"element": "O" 
			},
			{
				"x": -1.1323732825,
				"y": -0.1976311946,
				"z": 1.1997748023,
				"element": "C" 
			},
			{
				"x": -2.1361383122,
				"y": 0.0349195508,
				"z": 0.2610575106,
				"element": "C" 
			},
			{
				"x": -3.3104152017,
				"y": -0.7146002362,
				"z": 0.3142923143,
				"element": "C" 
			},
			{
				"x": -3.4521996659,
				"y": -1.6876793709,
				"z": 1.3045317817,
				"element": "C" 
			},
			{
				"x": -4.9228429223,
				"y": -2.6392181788,
				"z": 1.3672567944,
				"element": "Cl" 
			},
			{
				"x": -2.4510538372,
				"y": -1.9179828084,
				"z": 2.2512526053,
				"element": "C" 
			},
			{
				"x": -1.2851859278,
				"y": -1.1577541126,
				"z": 2.2023180664,
				"element": "C" 
			},
			{
				"x": -0.1662504957,
				"y": -0.676977653,
				"z": -2.592226237,
				"element": "H" 
			},
			{
				"x": 3.8331586646,
				"y": -2.1280771262,
				"z": -1.0050153163,
				"element": "H" 
			},
			{
				"x": 2.5863440032,
				"y": 0.008294981,
				"z": 2.8349016553,
				"element": "H" 
			},
			{
				"x": -1.9918948091,
				"y": 0.7990752916,
				"z": -0.4936356123,
				"element": "H" 
			},
			{
				"x": -4.1073290889,
				"y": -0.5477363836,
				"z": -0.4015885171,
				"element": "H" 
			},
			{
				"x": -2.589850029,
				"y": -2.6721065518,
				"z": 3.0174923332,
				"element": "H" 
			},
			{
				"x": -0.5078086622,
				"y": -1.3060994811,
				"z": 2.9443260369,
				"element": "H" 
			}
		],
		 "valence_orbital": [ 
			{
				"type": "occ",
				"energy": -0.29517,
				"method": "rhf"
			},
			{
				"type": "occ",
				"energy": -0.29006,
				"method": "rhf"
			},
			{
				"type": "occ",
				"energy": -0.28367,
				"method": "rhf"
			},
			{
				"type": "occ",
				"energy": -0.2755,
				"method": "rhf"
			},
			{
				"type": "occ",
				"energy": -0.26421,
				"method": "rhf"
			},
			{
				"type": "unocc",
				"energy": -0.06227,
				"method": "rhf"
			},
			{
				"type": "unocc",
				"energy": -0.05541,
				"method": "rhf"
			},
			{
				"type": "unocc",
				"energy": -0.0361,
				"method": "rhf"
			},
			{
				"type": "unocc",
				"energy": -0.02843,
				"method": "rhf"
			},
			{
				"type": "unocc",
				"energy": -1e-05,
				"method": "rhf"
			}
		],
		"cosmo_sigma_profile": { 
			"-0.025": 0.0,
			"-0.024": 0.0,
			"-0.023": 0.0,
			"-0.022": 0.0,
			"-0.021": 0.0,
			"-0.02": 0.0,
			"-0.019": 0.435816144031,
			"-0.018": 0.812595594162,
			"-0.017": 1.18252547838,
			"-0.016": 0.72607112142,
			"-0.015": 0.495286271157,
			"-0.014": 0.428754319846,
			"-0.013": 1.06582845861,
			"-0.012": 0.578341868002,
			"-0.011": 1.02074432171,
			"-0.01": 3.65820398432,
			"-0.009": 4.54938247831,
			"-0.008": 9.54142942664,
			"-0.007": 11.5072767151,
			"-0.006": 11.0040722607,
			"-0.005": 9.83423353816,
			"-0.004": 11.5854678221,
			"-0.003": 13.9708942147,
			"-0.002": 20.3338202306,
			"-0.001": 30.2435265581,
			"0.0": 32.3364966889,
			"0.001": 29.2329242334,
			"0.002": 15.1303235256,
			"0.003": 12.72978575,
			"0.004": 13.9008981651,
			"0.005": 5.41898188079,
			"0.006": 3.87130520671,
			"0.007": 3.85169706398,
			"0.008": 5.01234431718,
			"0.009": 5.90460113332,
			"0.01": 9.29879097221,
			"0.011": 13.2310712232,
			"0.012": 4.11101032563,
			"0.013": 0.0,
			"0.014": 0.0,
			"0.015": 0.0,
			"0.016": 0.0,
			"0.017": 0.0,
			"0.018": 0.0,
			"0.019": 0.0,
			"0.02": 0.0,
			"0.021": 0.0,
			"0.022": 0.0,
			"0.023": 0.0,
			"0.024": 0.0,
			"0.025": 0.0
		}
	}
}
