{
	 "smiles": "CCOC(=O)CC1=CC(=O)OC2=C1C=C(O)C=C2", 
	 "Tm": 447.15, 
	 "num_atms": 30, 
	 "gaussian": { 
		 "optdone": 1, 
		 "sigma_profile": "yes", 
		 "theory": "DFT", 
		 "functional": "B3LYP", 
		 "basiset": "6-31G**", 
		 "properties": { 
			 "R2extent": 5440.2173, 
			 "electric_dipole_moment_norm": 7.02984551893, 
			 "electric_quadrupole_moment_norm": 16.0901070736, 
			 "total_energy": -878.749845757, 
			 "HOMO_LUMO_gap": 0.15294, 
			 "cosmo_polarized_energy": -20.48, 
			 "cosmo_cavitation_energy": 35.04, 
			 "cosmo_dispersion_energy": -24.61, 
			 "cosmo_repulsion_energy": 1.92, 
			 "cosmo_total_nonelectrostatic_energy": 12.35, 
			 "SMD_solvation_energy": 8.39 
		},
		"coords": [
			{
				"x": -3.8214717488,
				"y": 2.4168125014,
				"z": -0.0700532858,
				"element": "C" 
			},
			{
				"x": -2.4567422019,
				"y": 2.2690773691,
				"z": 0.5837965083,
				"element": "C" 
			},
			{
				"x": -1.9882369624,
				"y": 0.8948304568,
				"z": 0.5213650933,
				"element": "O" 
			},
			{
				"x": -1.3586224393,
				"y": 0.5285447827,
				"z": -0.6187853608,
				"element": "C" 
			},
			{
				"x": -1.1454442325,
				"y": 1.2672342268,
				"z": -1.552059268,
				"element": "O" 
			},
			{
				"x": -0.9725823459,
				"y": -0.9491215595,
				"z": -0.5796071862,
				"element": "C" 
			},
			{
				"x": 0.4760663988,
				"y": -1.1819097919,
				"z": -0.9411875553,
				"element": "C" 
			},
			{
				"x": 0.8133215522,
				"y": -1.7395344901,
				"z": -2.1292630045,
				"element": "C" 
			},
			{
				"x": 2.1925668153,
				"y": -2.0001137438,
				"z": -2.5258357347,
				"element": "C" 
			},
			{
				"x": 2.5474935297,
				"y": -2.4967349158,
				"z": -3.5695905121,
				"element": "O" 
			},
			{
				"x": 3.167454674,
				"y": -1.6433652317,
				"z": -1.6016798791,
				"element": "O" 
			},
			{
				"x": 2.8589008944,
				"y": -1.0758778949,
				"z": -0.3971654077,
				"element": "C" 
			},
			{
				"x": 1.5320748933,
				"y": -0.8171875893,
				"z": -0.0088136411,
				"element": "C" 
			},
			{
				"x": 1.3048877751,
				"y": -0.2276085572,
				"z": 1.2519772688,
				"element": "C" 
			},
			{
				"x": 2.3705145014,
				"y": 0.0866016663,
				"z": 2.0883549781,
				"element": "C" 
			},
			{
				"x": 2.2079880017,
				"y": 0.6592699688,
				"z": 3.3180447945,
				"element": "O" 
			},
			{
				"x": 3.6885841661,
				"y": -0.1833396153,
				"z": 1.6816689196,
				"element": "C" 
			},
			{
				"x": 3.9293357232,
				"y": -0.7606778177,
				"z": 0.4447581961,
				"element": "C" 
			},
			{
				"x": -4.183679737,
				"y": 3.4419071881,
				"z": 0.0596463681,
				"element": "H" 
			},
			{
				"x": -3.7600382346,
				"y": 2.2101066933,
				"z": -1.1411853612,
				"element": "H" 
			},
			{
				"x": -4.5479535666,
				"y": 1.7363056222,
				"z": 0.3835500432,
				"element": "H" 
			},
			{
				"x": -2.4974985039,
				"y": 2.490412029,
				"z": 1.6528104063,
				"element": "H" 
			},
			{
				"x": -1.7150791292,
				"y": 2.9124182899,
				"z": 0.1049683252,
				"element": "H" 
			},
			{
				"x": -1.2045185002,
				"y": -1.3613969582,
				"z": 0.4058372325,
				"element": "H" 
			},
			{
				"x": -1.6100950586,
				"y": -1.4574947091,
				"z": -1.3098641373,
				"element": "H" 
			},
			{
				"x": 0.0652252461,
				"y": -2.0263135841,
				"z": -2.8592826448,
				"element": "H" 
			},
			{
				"x": 0.2899872716,
				"y": -0.0027615691,
				"z": 1.5675599756,
				"element": "H" 
			},
			{
				"x": 1.2663466595,
				"y": 0.7909072664,
				"z": 3.4879140712,
				"element": "H" 
			},
			{
				"x": 4.5041861496,
				"y": 0.0692153108,
				"z": 2.350513966,
				"element": "H" 
			},
			{
				"x": 4.9377284088,
				"y": -0.976505344,
				"z": 0.1093068319,
				"element": "H" 
			}
		],
		 "valence_orbital": [ 
			{
				"type": "occ",
				"energy": -0.30138,
				"method": "rhf"
			},
			{
				"type": "occ",
				"energy": -0.2862,
				"method": "rhf"
			},
			{
				"type": "occ",
				"energy": -0.26899,
				"method": "rhf"
			},
			{
				"type": "occ",
				"energy": -0.25573,
				"method": "rhf"
			},
			{
				"type": "occ",
				"energy": -0.2213,
				"method": "rhf"
			},
			{
				"type": "unocc",
				"energy": -0.06836,
				"method": "rhf"
			},
			{
				"type": "unocc",
				"energy": -0.01203,
				"method": "rhf"
			},
			{
				"type": "unocc",
				"energy": 0.00049,
				"method": "rhf"
			},
			{
				"type": "unocc",
				"energy": 0.00355,
				"method": "rhf"
			},
			{
				"type": "unocc",
				"energy": 0.05656,
				"method": "rhf"
			}
		],
		"cosmo_sigma_profile": { 
			"-0.025": 0.0,
			"-0.024": 0.0,
			"-0.023": 0.0,
			"-0.022": 0.0,
			"-0.021": 0.0,
			"-0.02": 0.0,
			"-0.019": 0.0,
			"-0.018": 0.929196355673,
			"-0.017": 0.933882320801,
			"-0.016": 1.18269417037,
			"-0.015": 1.03303868032,
			"-0.014": 1.37009279158,
			"-0.013": 0.832346543325,
			"-0.012": 0.668759718764,
			"-0.011": 0.847878581025,
			"-0.01": 0.986616206716,
			"-0.009": 2.39887730195,
			"-0.008": 6.35995134952,
			"-0.007": 9.8181970453,
			"-0.006": 12.5745446765,
			"-0.005": 15.0636130106,
			"-0.004": 22.4459337516,
			"-0.003": 22.9057075211,
			"-0.002": 20.6188700895,
			"-0.001": 21.7449237421,
			"0.0": 22.0152236653,
			"0.001": 17.9113588131,
			"0.002": 20.1070970632,
			"0.003": 13.0506895594,
			"0.004": 6.9766954249,
			"0.005": 5.74705192904,
			"0.006": 6.10390503726,
			"0.007": 6.48058436157,
			"0.008": 4.59757197658,
			"0.009": 5.61617044309,
			"0.01": 6.54392451293,
			"0.011": 9.34009365089,
			"0.012": 8.23363747031,
			"0.013": 3.32743540547,
			"0.014": 0.203957383229,
			"0.015": 0.0,
			"0.016": 0.0,
			"0.017": 0.0,
			"0.018": 0.0,
			"0.019": 0.0,
			"0.02": 0.0,
			"0.021": 0.0,
			"0.022": 0.0,
			"0.023": 0.0,
			"0.024": 0.0,
			"0.025": 0.0
		}
	}
}
