{
	 "smiles": "CC1=NC=CN1C1=CC=C(CN)C=C1", 
	 "Tm": 364.15, 
	 "num_atms": 27, 
	 "gaussian": { 
		 "optdone": 1, 
		 "sigma_profile": "yes", 
		 "theory": "DFT", 
		 "functional": "B3LYP", 
		 "basiset": "6-31G**", 
		 "properties": { 
			 "R2extent": 3593.9032, 
			 "electric_dipole_moment_norm": 2.54866495444, 
			 "electric_quadrupole_moment_norm": 18.0959492901, 
			 "total_energy": -591.255639703, 
			 "HOMO_LUMO_gap": 0.1911, 
			 "cosmo_polarized_energy": -13.9, 
			 "cosmo_cavitation_energy": 30.63, 
			 "cosmo_dispersion_energy": -21.72, 
			 "cosmo_repulsion_energy": 1.72, 
			 "cosmo_total_nonelectrostatic_energy": 10.63, 
			 "SMD_solvation_energy": 2.55 
		},
		"coords": [
			{
				"x": -0.2984685541,
				"y": -1.509807205,
				"z": 2.7727893795,
				"element": "C" 
			},
			{
				"x": -1.2648043045,
				"y": -1.5242265646,
				"z": 1.6311821243,
				"element": "C" 
			},
			{
				"x": -2.3443887305,
				"y": -2.2774960798,
				"z": 1.5754933864,
				"element": "N" 
			},
			{
				"x": -2.9260713483,
				"y": -2.0197720142,
				"z": 0.3539850736,
				"element": "C" 
			},
			{
				"x": -2.1882854111,
				"y": -1.1077633112,
				"z": -0.3490323562,
				"element": "C" 
			},
			{
				"x": -1.117823138,
				"y": -0.7763564977,
				"z": 0.4740258961,
				"element": "N" 
			},
			{
				"x": -0.0613299989,
				"y": 0.1115053355,
				"z": 0.1244458439,
				"element": "C" 
			},
			{
				"x": 0.6010872219,
				"y": -0.0462257249,
				"z": -1.098693251,
				"element": "C" 
			},
			{
				"x": 1.619508381,
				"y": 0.8347065285,
				"z": -1.4564172272,
				"element": "C" 
			},
			{
				"x": 2.0139590695,
				"y": 1.8756922566,
				"z": -0.6046531194,
				"element": "C" 
			},
			{
				"x": 3.1741438868,
				"y": 2.7870268136,
				"z": -0.9678739721,
				"element": "C" 
			},
			{
				"x": 4.4997499732,
				"y": 2.3377429418,
				"z": -0.5130316376,
				"element": "N" 
			},
			{
				"x": 1.3387995184,
				"y": 2.0196651012,
				"z": 0.6150441035,
				"element": "C" 
			},
			{
				"x": 0.3061717671,
				"y": 1.1571503217,
				"z": 0.9783262126,
				"element": "C" 
			},
			{
				"x": -0.4140301488,
				"y": -0.6257990998,
				"z": 3.4107787062,
				"element": "H" 
			},
			{
				"x": -0.4929409662,
				"y": -2.391355712,
				"z": 3.3855363493,
				"element": "H" 
			},
			{
				"x": 0.7411042961,
				"y": -1.5358077143,
				"z": 2.4310322891,
				"element": "H" 
			},
			{
				"x": -3.8442836341,
				"y": -2.5049724863,
				"z": 0.0526766538,
				"element": "H" 
			},
			{
				"x": -2.3205472928,
				"y": -0.6402466967,
				"z": -1.3122644929,
				"element": "H" 
			},
			{
				"x": 0.317650548,
				"y": -0.8612874559,
				"z": -1.757127028,
				"element": "H" 
			},
			{
				"x": 2.1205960251,
				"y": 0.7067436891,
				"z": -2.4132865109,
				"element": "H" 
			},
			{
				"x": 3.001820305,
				"y": 3.7853328754,
				"z": -0.5498302419,
				"element": "H" 
			},
			{
				"x": 3.2204449636,
				"y": 2.9066576002,
				"z": -2.0562080257,
				"element": "H" 
			},
			{
				"x": 4.4888120806,
				"y": 2.224615119,
				"z": 0.4988748983,
				"element": "H" 
			},
			{
				"x": 4.6897935336,
				"y": 1.4112505901,
				"z": -0.8903817282,
				"element": "H" 
			},
			{
				"x": 1.6101975677,
				"y": 2.8331299975,
				"z": 1.2841721433,
				"element": "H" 
			},
			{
				"x": -0.2325656102,
				"y": 1.3059973922,
				"z": 1.9079365313,
				"element": "H" 
			}
		],
		 "valence_orbital": [ 
			{
				"type": "occ",
				"energy": -0.26796,
				"method": "rhf"
			},
			{
				"type": "occ",
				"energy": -0.26012,
				"method": "rhf"
			},
			{
				"type": "occ",
				"energy": -0.25203,
				"method": "rhf"
			},
			{
				"type": "occ",
				"energy": -0.23389,
				"method": "rhf"
			},
			{
				"type": "occ",
				"energy": -0.21528,
				"method": "rhf"
			},
			{
				"type": "unocc",
				"energy": -0.02418,
				"method": "rhf"
			},
			{
				"type": "unocc",
				"energy": -0.02015,
				"method": "rhf"
			},
			{
				"type": "unocc",
				"energy": 0.03635,
				"method": "rhf"
			},
			{
				"type": "unocc",
				"energy": 0.07465,
				"method": "rhf"
			},
			{
				"type": "unocc",
				"energy": 0.07783,
				"method": "rhf"
			}
		],
		"cosmo_sigma_profile": { 
			"-0.025": 0.0,
			"-0.024": 0.0,
			"-0.023": 0.0,
			"-0.022": 0.0,
			"-0.021": 0.0,
			"-0.02": 0.0,
			"-0.019": 0.0,
			"-0.018": 0.0,
			"-0.017": 0.0,
			"-0.016": 0.0,
			"-0.015": 0.0,
			"-0.014": 0.0,
			"-0.013": 0.0,
			"-0.012": 0.0,
			"-0.011": 0.0,
			"-0.01": 0.374983137905,
			"-0.009": 2.34441943978,
			"-0.008": 4.07641988586,
			"-0.007": 6.68864247706,
			"-0.006": 15.7007769927,
			"-0.005": 23.2340070759,
			"-0.004": 22.1227638082,
			"-0.003": 19.4712571305,
			"-0.002": 18.6024796086,
			"-0.001": 20.9643626671,
			"0.0": 17.2301374242,
			"0.001": 12.8529073479,
			"0.002": 12.3137050759,
			"0.003": 12.4654286561,
			"0.004": 13.8352318739,
			"0.005": 9.0640817733,
			"0.006": 5.87985715708,
			"0.007": 3.02307908949,
			"0.008": 2.76585496916,
			"0.009": 2.32348025865,
			"0.01": 2.30223421933,
			"0.011": 2.28582013832,
			"0.012": 1.40071975588,
			"0.013": 1.85110387704,
			"0.014": 1.53910736007,
			"0.015": 2.26128919436,
			"0.016": 1.58523820832,
			"0.017": 1.29054245482,
			"0.018": 1.74022352389,
			"0.019": 0.733471149724,
			"0.02": 0.274240844882,
			"0.021": 0.0,
			"0.022": 0.0,
			"0.023": 0.0,
			"0.024": 0.0,
			"0.025": 0.0
		}
	}
}
