{
	 "smiles": "OC(=O)CN1CCCS1(=O)=O", 
	 "Tm": 357.15, 
	 "num_atms": 20, 
	 "gaussian": { 
		 "optdone": 1, 
		 "sigma_profile": "yes", 
		 "theory": "DFT", 
		 "functional": "B3LYP", 
		 "basiset": "6-31G**", 
		 "properties": { 
			 "R2extent": 3343.3317, 
			 "electric_dipole_moment_norm": 7.74735337712, 
			 "electric_quadrupole_moment_norm": 19.2306412051, 
			 "total_energy": -949.724833743, 
			 "HOMO_LUMO_gap": 0.26582, 
			 "cosmo_polarized_energy": -20.8, 
			 "cosmo_cavitation_energy": 24.0, 
			 "cosmo_dispersion_energy": -18.47, 
			 "cosmo_repulsion_energy": 1.43, 
			 "cosmo_total_nonelectrostatic_energy": 6.96, 
			 "SMD_solvation_energy": 3.71 
		},
		"coords": [
			{
				"x": -1.1458094978,
				"y": 2.7210244485,
				"z": -3.3572392919,
				"element": "O" 
			},
			{
				"x": -0.4738430404,
				"y": 3.1313595845,
				"z": -2.2741524333,
				"element": "C" 
			},
			{
				"x": 0.054749387,
				"y": 4.2166464082,
				"z": -2.2215152121,
				"element": "O" 
			},
			{
				"x": -0.427857381,
				"y": 2.1856825161,
				"z": -1.0612106242,
				"element": "C" 
			},
			{
				"x": -0.3804136165,
				"y": 0.7612677499,
				"z": -1.416280485,
				"element": "N" 
			},
			{
				"x": 0.6583798246,
				"y": -0.1038507426,
				"z": -0.84287846,
				"element": "C" 
			},
			{
				"x": 0.3823930877,
				"y": -1.4901593862,
				"z": -1.4472306123,
				"element": "C" 
			},
			{
				"x": -1.1344834941,
				"y": -1.7170941886,
				"z": -1.3604492948,
				"element": "C" 
			},
			{
				"x": -1.8774167155,
				"y": -0.0492570653,
				"z": -1.4186652148,
				"element": "S" 
			},
			{
				"x": -2.5094113014,
				"y": 0.2549661338,
				"z": -2.7191816665,
				"element": "O" 
			},
			{
				"x": -2.6498494154,
				"y": 0.2040063014,
				"z": -0.1952121879,
				"element": "O" 
			},
			{
				"x": -1.5629251121,
				"y": 1.8427426136,
				"z": -3.2417604715,
				"element": "H" 
			},
			{
				"x": 0.4675507102,
				"y": 2.4445147812,
				"z": -0.4944075147,
				"element": "H" 
			},
			{
				"x": -1.2891364916,
				"y": 2.4010186856,
				"z": -0.4124410814,
				"element": "H" 
			},
			{
				"x": 1.6374905729,
				"y": 0.2768270868,
				"z": -1.1448026176,
				"element": "H" 
			},
			{
				"x": 0.620654659,
				"y": -0.1302219853,
				"z": 0.2576292422,
				"element": "H" 
			},
			{
				"x": 0.9247113257,
				"y": -2.2756892992,
				"z": -0.9152280163,
				"element": "H" 
			},
			{
				"x": 0.7011254559,
				"y": -1.4962943591,
				"z": -2.4925260185,
				"element": "H" 
			},
			{
				"x": -1.4517575949,
				"y": -2.1365872442,
				"z": -0.4036183024,
				"element": "H" 
			},
			{
				"x": -1.5557513623,
				"y": -2.2984020392,
				"z": -2.181629737,
				"element": "H" 
			}
		],
		 "valence_orbital": [ 
			{
				"type": "occ",
				"energy": -0.32964,
				"method": "rhf"
			},
			{
				"type": "occ",
				"energy": -0.32293,
				"method": "rhf"
			},
			{
				"type": "occ",
				"energy": -0.30445,
				"method": "rhf"
			},
			{
				"type": "occ",
				"energy": -0.28593,
				"method": "rhf"
			},
			{
				"type": "occ",
				"energy": -0.2556,
				"method": "rhf"
			},
			{
				"type": "unocc",
				"energy": 0.01022,
				"method": "rhf"
			},
			{
				"type": "unocc",
				"energy": 0.02265,
				"method": "rhf"
			},
			{
				"type": "unocc",
				"energy": 0.03996,
				"method": "rhf"
			},
			{
				"type": "unocc",
				"energy": 0.0496,
				"method": "rhf"
			},
			{
				"type": "unocc",
				"energy": 0.05429,
				"method": "rhf"
			}
		],
		"cosmo_sigma_profile": { 
			"-0.025": 0.0,
			"-0.024": 0.0,
			"-0.023": 0.0,
			"-0.022": 0.0,
			"-0.021": 0.0,
			"-0.02": 0.0,
			"-0.019": 0.0,
			"-0.018": 0.0,
			"-0.017": 0.0,
			"-0.016": 0.0,
			"-0.015": 0.0,
			"-0.014": 0.0,
			"-0.013": 0.0,
			"-0.012": 0.128081852959,
			"-0.011": 0.39852597413,
			"-0.01": 0.64538992218,
			"-0.009": 5.03172252873,
			"-0.008": 11.8264030826,
			"-0.007": 14.549335445,
			"-0.006": 22.2871815899,
			"-0.005": 19.661595274,
			"-0.004": 14.3988222192,
			"-0.003": 8.50506555416,
			"-0.002": 7.00790019898,
			"-0.001": 4.61176923709,
			"0.0": 4.38426875906,
			"0.001": 5.0275127313,
			"0.002": 5.58587034809,
			"0.003": 3.74640587419,
			"0.004": 3.16812359584,
			"0.005": 3.75675814889,
			"0.006": 4.75919177192,
			"0.007": 4.62734684574,
			"0.008": 5.6689007438,
			"0.009": 7.42523504588,
			"0.01": 12.016629309,
			"0.011": 11.833802162,
			"0.012": 5.98666507026,
			"0.013": 2.25542359081,
			"0.014": 0.134676156335,
			"0.015": 0.0,
			"0.016": 0.0,
			"0.017": 0.0,
			"0.018": 0.0,
			"0.019": 0.0,
			"0.02": 0.0,
			"0.021": 0.0,
			"0.022": 0.0,
			"0.023": 0.0,
			"0.024": 0.0,
			"0.025": 0.0
		}
	}
}
