{
	 "smiles": "OC(=O)C1=C(OCC(=O)NC2=C(F)C=CC=C2)C=CC=C1", 
	 "Tm": 471.15, 
	 "num_atms": 33, 
	 "gaussian": { 
		 "optdone": 1, 
		 "sigma_profile": "yes", 
		 "theory": "DFT", 
		 "functional": "B3LYP", 
		 "basiset": "6-31G**", 
		 "properties": { 
			 "R2extent": 5604.4517, 
			 "electric_dipole_moment_norm": 4.44905034586, 
			 "electric_quadrupole_moment_norm": 23.0326059739, 
			 "total_energy": -1034.31912564, 
			 "HOMO_LUMO_gap": 0.19828, 
			 "cosmo_polarized_energy": -20.14, 
			 "cosmo_cavitation_energy": 38.11, 
			 "cosmo_dispersion_energy": -25.52, 
			 "cosmo_repulsion_energy": 1.93, 
			 "cosmo_total_nonelectrostatic_energy": 14.52, 
			 "SMD_solvation_energy": 8.79 
		},
		"coords": [
			{
				"x": 2.1655074254,
				"y": 0.493867849,
				"z": -0.8929934929,
				"element": "O" 
			},
			{
				"x": 2.2768927988,
				"y": 0.554866218,
				"z": 0.4490483739,
				"element": "C" 
			},
			{
				"x": 3.2958994064,
				"y": 0.1905670987,
				"z": 0.9948906701,
				"element": "O" 
			},
			{
				"x": 1.1109332331,
				"y": 1.1054411992,
				"z": 1.2338707189,
				"element": "C" 
			},
			{
				"x": -0.1540830765,
				"y": 1.4478170957,
				"z": 0.7047748771,
				"element": "C" 
			},
			{
				"x": -0.339676706,
				"y": 1.2438705045,
				"z": -0.6436460606,
				"element": "O" 
			},
			{
				"x": -1.6054140252,
				"y": 1.5216393689,
				"z": -1.2465504364,
				"element": "C" 
			},
			{
				"x": -1.5732884772,
				"y": 1.0624670798,
				"z": -2.7051239414,
				"element": "C" 
			},
			{
				"x": -1.9572163089,
				"y": 1.8039247722,
				"z": -3.5941787201,
				"element": "O" 
			},
			{
				"x": -1.0712673999,
				"y": -0.1913659673,
				"z": -2.9721495784,
				"element": "N" 
			},
			{
				"x": -0.8961337841,
				"y": -1.292514114,
				"z": -2.0876225999,
				"element": "C" 
			},
			{
				"x": -1.9480906578,
				"y": -1.7635667785,
				"z": -1.293909266,
				"element": "C" 
			},
			{
				"x": -3.1385246533,
				"y": -1.118944039,
				"z": -1.3382390372,
				"element": "F" 
			},
			{
				"x": -1.8101010062,
				"y": -2.8605359007,
				"z": -0.4549489302,
				"element": "C" 
			},
			{
				"x": -0.5889177635,
				"y": -3.5347769537,
				"z": -0.4229009617,
				"element": "C" 
			},
			{
				"x": 0.4738210537,
				"y": -3.0976407017,
				"z": -1.2165953615,
				"element": "C" 
			},
			{
				"x": 0.3212725682,
				"y": -1.9814871543,
				"z": -2.0380600474,
				"element": "C" 
			},
			{
				"x": -1.1541740189,
				"y": 1.967807647,
				"z": 1.5305971862,
				"element": "C" 
			},
			{
				"x": -0.9068991296,
				"y": 2.1398836969,
				"z": 2.893400501,
				"element": "C" 
			},
			{
				"x": 0.3302130669,
				"y": 1.7980319007,
				"z": 3.4380245397,
				"element": "C" 
			},
			{
				"x": 1.3221065419,
				"y": 1.2866674167,
				"z": 2.6064076839,
				"element": "C" 
			},
			{
				"x": 1.2804731625,
				"y": 0.8007882837,
				"z": -1.1635337775,
				"element": "H" 
			},
			{
				"x": -1.8049128451,
				"y": 2.5965317076,
				"z": -1.2583056301,
				"element": "H" 
			},
			{
				"x": -2.4068725233,
				"y": 1.0027801973,
				"z": -0.7102115227,
				"element": "H" 
			},
			{
				"x": -1.0340935961,
				"y": -0.3846052112,
				"z": -3.9668367821,
				"element": "H" 
			},
			{
				"x": -2.6579007395,
				"y": -3.1761579516,
				"z": 0.1433186829,
				"element": "H" 
			},
			{
				"x": -0.4693468415,
				"y": -4.3964894376,
				"z": 0.2260320806,
				"element": "H" 
			},
			{
				"x": 1.4275020073,
				"y": -3.6138489881,
				"z": -1.1859860903,
				"element": "H" 
			},
			{
				"x": 1.1513955095,
				"y": -1.6167294909,
				"z": -2.633805468,
				"element": "H" 
			},
			{
				"x": -2.1189650421,
				"y": 2.2436899201,
				"z": 1.1229506703,
				"element": "H" 
			},
			{
				"x": -1.6914799324,
				"y": 2.5461412785,
				"z": 3.5250611193,
				"element": "H" 
			},
			{
				"x": 0.5208966456,
				"y": 1.9316935877,
				"z": 4.4978490023,
				"element": "H" 
			},
			{
				"x": 2.2971451079,
				"y": 1.0099858662,
				"z": 2.9922715982,
				"element": "H" 
			}
		],
		 "valence_orbital": [ 
			{
				"type": "occ",
				"energy": -0.26881,
				"method": "rhf"
			},
			{
				"type": "occ",
				"energy": -0.26844,
				"method": "rhf"
			},
			{
				"type": "occ",
				"energy": -0.26354,
				"method": "rhf"
			},
			{
				"type": "occ",
				"energy": -0.25561,
				"method": "rhf"
			},
			{
				"type": "occ",
				"energy": -0.24656,
				"method": "rhf"
			},
			{
				"type": "unocc",
				"energy": -0.04828,
				"method": "rhf"
			},
			{
				"type": "unocc",
				"energy": -0.03468,
				"method": "rhf"
			},
			{
				"type": "unocc",
				"energy": -0.01857,
				"method": "rhf"
			},
			{
				"type": "unocc",
				"energy": -0.00958,
				"method": "rhf"
			},
			{
				"type": "unocc",
				"energy": -0.0018,
				"method": "rhf"
			}
		],
		"cosmo_sigma_profile": { 
			"-0.025": 0.0,
			"-0.024": 0.0,
			"-0.023": 0.0,
			"-0.022": 0.0,
			"-0.021": 0.0,
			"-0.02": 0.0,
			"-0.019": 0.0,
			"-0.018": 0.0,
			"-0.017": 0.0,
			"-0.016": 0.0486671276735,
			"-0.015": 0.785124093838,
			"-0.014": 1.02699123497,
			"-0.013": 1.18283876469,
			"-0.012": 0.833994336198,
			"-0.011": 0.727450369099,
			"-0.01": 1.27134219032,
			"-0.009": 2.60797904852,
			"-0.008": 7.21785721775,
			"-0.007": 16.034700707,
			"-0.006": 21.8330253748,
			"-0.005": 21.8214727454,
			"-0.004": 19.1454101533,
			"-0.003": 16.7099766881,
			"-0.002": 17.235555017,
			"-0.001": 19.2648904658,
			"0.0": 22.3688946848,
			"0.001": 22.9375823103,
			"0.002": 23.2638145098,
			"0.003": 26.0039553058,
			"0.004": 15.9386389178,
			"0.005": 4.15553696709,
			"0.006": 3.07153624131,
			"0.007": 2.51138393323,
			"0.008": 3.7252024877,
			"0.009": 4.83836519301,
			"0.01": 4.04066022258,
			"0.011": 7.32932705682,
			"0.012": 10.436393521,
			"0.013": 6.55576920819,
			"0.014": 0.871300223123,
			"0.015": 0.0,
			"0.016": 0.0,
			"0.017": 0.0,
			"0.018": 0.0,
			"0.019": 0.0,
			"0.02": 0.0,
			"0.021": 0.0,
			"0.022": 0.0,
			"0.023": 0.0,
			"0.024": 0.0,
			"0.0": 0.0
		}
	}
}
