{
	 "smiles": "OC(=O)C1=CC2=C(NC(=O)O2)C=C1", 
	 "Tm": 581.15, 
	 "num_atms": 18, 
	 "gaussian": { 
		 "optdone": 1, 
		 "sigma_profile": "yes", 
		 "theory": "DFT", 
		 "functional": "B3LYP", 
		 "basiset": "6-31G**", 
		 "properties": { 
			 "R2extent": 3065.1022, 
			 "electric_dipole_moment_norm": 6.40613908763, 
			 "electric_quadrupole_moment_norm": 22.5581452416, 
			 "total_energy": -663.536194951, 
			 "HOMO_LUMO_gap": 0.19059, 
			 "cosmo_polarized_energy": -23.15, 
			 "cosmo_cavitation_energy": 23.67, 
			 "cosmo_dispersion_energy": -17.99, 
			 "cosmo_repulsion_energy": 1.41, 
			 "cosmo_total_nonelectrostatic_energy": 7.09, 
			 "SMD_solvation_energy": 6.49 
		},
		"coords": [
			{
				"x": -2.0625330051,
				"y": -2.347153724,
				"z": -0.0492397727,
				"element": "O" 
			},
			{
				"x": -1.847458582,
				"y": -1.0790754151,
				"z": -0.4931984255,
				"element": "C" 
			},
			{
				"x": -2.4209545686,
				"y": -0.6788539551,
				"z": -1.4787079216,
				"element": "O" 
			},
			{
				"x": -0.8859491839,
				"y": -0.2402458638,
				"z": 0.292280939,
				"element": "C" 
			},
			{
				"x": -0.3467140567,
				"y": 0.8850219435,
				"z": -0.3634455859,
				"element": "C" 
			},
			{
				"x": 0.5297195438,
				"y": 1.6644524705,
				"z": 0.35537428,
				"element": "C" 
			},
			{
				"x": 0.8716306246,
				"y": 1.3870542185,
				"z": 1.688150375,
				"element": "C" 
			},
			{
				"x": 1.7589648447,
				"y": 2.3873569781,
				"z": 2.0508270851,
				"element": "N" 
			},
			{
				"x": 1.9701436533,
				"y": 3.2628578289,
				"z": 0.9923336518,
				"element": "C" 
			},
			{
				"x": 2.6688386326,
				"y": 4.2375433717,
				"z": 0.9426388547,
				"element": "O" 
			},
			{
				"x": 1.1924651626,
				"y": 2.7944389953,
				"z": -0.0638017942,
				"element": "O" 
			},
			{
				"x": 0.3287268051,
				"y": 0.2957786872,
				"z": 2.3529702128,
				"element": "C" 
			},
			{
				"x": -0.5554887692,
				"y": -0.5134421233,
				"z": 1.6295808848,
				"element": "C" 
			},
			{
				"x": -1.4041463846,
				"y": -2.5847545631,
				"z": 0.6178875688,
				"element": "H" 
			},
			{
				"x": -0.624896356,
				"y": 1.1061094294,
				"z": -1.3866026155,
				"element": "H" 
			},
			{
				"x": 2.2137270257,
				"y": 2.5186386933,
				"z": 2.9404632223,
				"element": "H" 
			},
			{
				"x": 0.5661629778,
				"y": 0.0806798919,
				"z": 3.3890695882,
				"element": "H" 
			},
			{
				"x": -1.022738364,
				"y": -1.3459068637,
				"z": 2.1482194529,
				"element": "H" 
			}
		],
		 "valence_orbital": [ 
			{
				"type": "occ",
				"energy": -0.32036,
				"method": "rhf"
			},
			{
				"type": "occ",
				"energy": -0.30788,
				"method": "rhf"
			},
			{
				"type": "occ",
				"energy": -0.28318,
				"method": "rhf"
			},
			{
				"type": "occ",
				"energy": -0.27477,
				"method": "rhf"
			},
			{
				"type": "occ",
				"energy": -0.24809,
				"method": "rhf"
			},
			{
				"type": "unocc",
				"energy": -0.0575,
				"method": "rhf"
			},
			{
				"type": "unocc",
				"energy": -0.03518,
				"method": "rhf"
			},
			{
				"type": "unocc",
				"energy": 0.02838,
				"method": "rhf"
			},
			{
				"type": "unocc",
				"energy": 0.04465,
				"method": "rhf"
			},
			{
				"type": "unocc",
				"energy": 0.0532,
				"method": "rhf"
			}
		],
		"cosmo_sigma_profile": { 
			"-0.025": 0.0,
			"-0.024": 0.0,
			"-0.023": 0.0,
			"-0.022": 0.0,
			"-0.021": 0.0,
			"-0.02": 0.0,
			"-0.019": 0.0839410749246,
			"-0.018": 1.64932596896,
			"-0.017": 3.05576213595,
			"-0.016": 2.2640109073,
			"-0.015": 1.7011817476,
			"-0.014": 2.87689779828,
			"-0.013": 1.88767592974,
			"-0.012": 1.74916941715,
			"-0.011": 2.58416078201,
			"-0.01": 2.54690044837,
			"-0.009": 2.99382948425,
			"-0.008": 5.39947251567,
			"-0.007": 7.16794577047,
			"-0.006": 6.758208071,
			"-0.005": 6.99553046193,
			"-0.004": 7.91055313704,
			"-0.003": 9.894973642,
			"-0.002": 12.1747893675,
			"-0.001": 11.1394947178,
			"0.0": 11.5685015406,
			"0.001": 12.3019052827,
			"0.002": 12.0487343839,
			"0.003": 5.24246240815,
			"0.004": 3.85766689254,
			"0.005": 5.0968812384,
			"0.006": 4.98882389971,
			"0.007": 5.83153888646,
			"0.008": 4.8674239398,
			"0.009": 5.56814360111,
			"0.01": 7.25589601813,
			"0.011": 11.9498251163,
			"0.012": 7.84645188644,
			"0.013": 1.64299238802,
			"0.014": 0.00929295576427,
			"0.015": 0.0,
			"0.016": 0.0,
			"0.017": 0.0,
			"0.018": 0.0,
			"0.019": 0.0,
			"0.02": 0.0,
			"0.021": 0.0,
			"0.022": 0.0,
			"0.023": 0.0,
			"0.024": 0.0,
			"0.025": 0.0
		}
	}
}
