{
	 "smiles": "OC(=O)CC(C(O)=O)C1=C(F)C=CC=C1", 
	 "Tm": 443.15, 
	 "num_atms": 24, 
	 "gaussian": { 
		 "optdone": 1, 
		 "sigma_profile": "yes", 
		 "theory": "DFT", 
		 "functional": "B3LYP", 
		 "basiset": "6-31G**", 
		 "properties": { 
			 "R2extent": 3093.9919, 
			 "electric_dipole_moment_norm": 1.41923003069, 
			 "electric_quadrupole_moment_norm": 4.25620708613, 
			 "total_energy": -787.249853018, 
			 "HOMO_LUMO_gap": 0.23155, 
			 "cosmo_polarized_energy": -15.22, 
			 "cosmo_cavitation_energy": 28.97, 
			 "cosmo_dispersion_energy": -20.42, 
			 "cosmo_repulsion_energy": 1.61, 
			 "cosmo_total_nonelectrostatic_energy": 10.16, 
			 "SMD_solvation_energy": 7.48 
		},
		"coords": [
			{
				"x": -2.1347636631,
				"y": 1.5021569815,
				"z": -2.407254079,
				"element": "O" 
			},
			{
				"x": -1.1952208224,
				"y": 0.7669566983,
				"z": -1.7706922205,
				"element": "C" 
			},
			{
				"x": -0.9126068467,
				"y": -0.3623103915,
				"z": -2.1096753185,
				"element": "O" 
			},
			{
				"x": -0.5636567846,
				"y": 1.5503573228,
				"z": -0.6406497722,
				"element": "C" 
			},
			{
				"x": 0.3615949022,
				"y": 0.7131349298,
				"z": 0.26333508,
				"element": "C" 
			},
			{
				"x": 1.552499476,
				"y": 0.2070130372,
				"z": -0.5464284946,
				"element": "C" 
			},
			{
				"x": 2.1374604049,
				"y": -0.888570127,
				"z": -0.0188519121,
				"element": "O" 
			},
			{
				"x": 1.9947639253,
				"y": 0.7783741753,
				"z": -1.5193749142,
				"element": "O" 
			},
			{
				"x": -0.3744006572,
				"y": -0.3056377586,
				"z": 1.1190358256,
				"element": "C" 
			},
			{
				"x": -0.8063895489,
				"y": 0.0780449601,
				"z": 2.3914943971,
				"element": "C" 
			},
			{
				"x": -0.528666025,
				"y": 1.338596719,
				"z": 2.8166593325,
				"element": "F" 
			},
			{
				"x": -1.5102013606,
				"y": -0.7595767964,
				"z": 3.2467676646,
				"element": "C" 
			},
			{
				"x": -1.8077562706,
				"y": -2.051789911,
				"z": 2.8155947257,
				"element": "C" 
			},
			{
				"x": -1.3991621954,
				"y": -2.4728763007,
				"z": 1.5484635732,
				"element": "C" 
			},
			{
				"x": -0.6929913887,
				"y": -1.6087999489,
				"z": 0.7113104477,
				"element": "C" 
			},
			{
				"x": -2.4677692159,
				"y": 0.9484474761,
				"z": -3.1335382656,
				"element": "H" 
			},
			{
				"x": 0.0124003508,
				"y": 2.3598645436,
				"z": -1.1011050211,
				"element": "H" 
			},
			{
				"x": -1.3535790978,
				"y": 2.0177246476,
				"z": -0.0457251159,
				"element": "H" 
			},
			{
				"x": 0.8133894178,
				"y": 1.4305419807,
				"z": 0.9605100507,
				"element": "H" 
			},
			{
				"x": 2.9056027917,
				"y": -1.0759058504,
				"z": -0.5849445599,
				"element": "H" 
			},
			{
				"x": -1.8093002336,
				"y": -0.3917649618,
				"z": 4.22224808,
				"element": "H" 
			},
			{
				"x": -2.3567473491,
				"y": -2.7238929993,
				"z": 3.4682627664,
				"element": "H" 
			},
			{
				"x": -1.6302929245,
				"y": -3.4775957367,
				"z": 1.2083660155,
				"element": "H" 
			},
			{
				"x": -0.3848068845,
				"y": -1.9367926897,
				"z": -0.2733082851,
				"element": "H" 
			}
		],
		 "valence_orbital": [ 
			{
				"type": "occ",
				"energy": -0.31704,
				"method": "rhf"
			},
			{
				"type": "occ",
				"energy": -0.28331,
				"method": "rhf"
			},
			{
				"type": "occ",
				"energy": -0.27885,
				"method": "rhf"
			},
			{
				"type": "occ",
				"energy": -0.25243,
				"method": "rhf"
			},
			{
				"type": "occ",
				"energy": -0.24373,
				"method": "rhf"
			},
			{
				"type": "unocc",
				"energy": -0.01218,
				"method": "rhf"
			},
			{
				"type": "unocc",
				"energy": 0.0011,
				"method": "rhf"
			},
			{
				"type": "unocc",
				"energy": 0.00514,
				"method": "rhf"
			},
			{
				"type": "unocc",
				"energy": 0.01067,
				"method": "rhf"
			},
			{
				"type": "unocc",
				"energy": 0.07607,
				"method": "rhf"
			}
		],
		"cosmo_sigma_profile": { 
			"-0.025": 0.0,
			"-0.024": 0.0,
			"-0.023": 0.0,
			"-0.022": 0.0,
			"-0.021": 0.0,
			"-0.02": 0.0,
			"-0.019": 0.0267291032366,
			"-0.018": 1.9758060322,
			"-0.017": 1.85750486782,
			"-0.016": 1.29459918723,
			"-0.015": 1.38788271544,
			"-0.014": 1.6906717637,
			"-0.013": 1.46040781202,
			"-0.012": 1.55019666822,
			"-0.011": 1.39303646678,
			"-0.01": 1.62365117017,
			"-0.009": 0.745336527142,
			"-0.008": 2.95281122849,
			"-0.007": 7.23776282847,
			"-0.006": 12.7081874454,
			"-0.005": 15.1227532522,
			"-0.004": 15.0639569504,
			"-0.003": 14.0117735934,
			"-0.002": 12.3256341301,
			"-0.001": 11.3236404604,
			"0.0": 10.7116981313,
			"0.001": 13.8560294649,
			"0.002": 13.8438627968,
			"0.003": 15.8180030661,
			"0.004": 19.7795657068,
			"0.005": 10.6475565657,
			"0.006": 5.45145430134,
			"0.007": 6.08899190042,
			"0.008": 7.27295759523,
			"0.009": 5.99132461774,
			"0.01": 4.87296471796,
			"0.011": 6.36523567452,
			"0.012": 3.63245132414,
			"0.013": 0.026707727285,
			"0.014": 0.0,
			"0.015": 0.0,
			"0.016": 0.0,
			"0.017": 0.0,
			"0.018": 0.0,
			"0.019": 0.0,
			"0.02": 0.0,
			"0.021": 0.0,
			"0.022": 0.0,
			"0.023": 0.0,
			"0.024": 0.0,
			"0.025": 0.0
		}
	}
}
