{
	 "smiles": "O=C1C2=CC=CC=C2C(=O)C11CC2=CC=CC=C2C(=O)O1", 
	 "Tm": 478.15, 
	 "num_atms": 31, 
	 "gaussian": { 
		 "optdone": 1, 
		 "sigma_profile": "yes", 
		 "theory": "DFT", 
		 "functional": "B3LYP", 
		 "basiset": "6-31G**", 
		 "properties": { 
			 "R2extent": 5989.2876, 
			 "electric_dipole_moment_norm": 6.20082507817, 
			 "electric_quadrupole_moment_norm": 24.9471000629, 
			 "total_energy": -954.734798299, 
			 "HOMO_LUMO_gap": 0.15564, 
			 "cosmo_polarized_energy": -19.03, 
			 "cosmo_cavitation_energy": 36.09, 
			 "cosmo_dispersion_energy": -25.52, 
			 "cosmo_repulsion_energy": 1.9, 
			 "cosmo_total_nonelectrostatic_energy": 12.47, 
			 "SMD_solvation_energy": 7.63 
		},
		"coords": [
			{
				"x": 2.9957093353,
				"y": -0.406072625,
				"z": -0.893445179,
				"element": "O" 
			},
			{
				"x": 2.0787305225,
				"y": 0.3782561876,
				"z": -1.016183491,
				"element": "C" 
			},
			{
				"x": 2.0369931592,
				"y": 1.5848812432,
				"z": -1.8764397546,
				"element": "C" 
			},
			{
				"x": 3.0340036902,
				"y": 2.0910857707,
				"z": -2.7124244965,
				"element": "C" 
			},
			{
				"x": 2.7505494886,
				"y": 3.2471429765,
				"z": -3.4380969384,
				"element": "C" 
			},
			{
				"x": 1.4980388283,
				"y": 3.880297095,
				"z": -3.333561166,
				"element": "C" 
			},
			{
				"x": 0.5027101025,
				"y": 3.3712871125,
				"z": -2.500568006,
				"element": "C" 
			},
			{
				"x": 0.7891862817,
				"y": 2.2154110696,
				"z": -1.7722731034,
				"element": "C" 
			},
			{
				"x": -0.0854898568,
				"y": 1.4875856156,
				"z": -0.8184207234,
				"element": "C" 
			},
			{
				"x": -1.2013601659,
				"y": 1.8103426484,
				"z": -0.4658828191,
				"element": "O" 
			},
			{
				"x": 0.6985930972,
				"y": 0.2429228607,
				"z": -0.3163554328,
				"element": "C" 
			},
			{
				"x": 0.0472328306,
				"y": -1.0975487668,
				"z": -0.6630771386,
				"element": "C" 
			},
			{
				"x": -1.1451109605,
				"y": -1.3682638228,
				"z": 0.2182539023,
				"element": "C" 
			},
			{
				"x": -2.2186035769,
				"y": -2.1591535145,
				"z": -0.1957419674,
				"element": "C" 
			},
			{
				"x": -3.2807097441,
				"y": -2.4158924864,
				"z": 0.6726459724,
				"element": "C" 
			},
			{
				"x": -3.2807060632,
				"y": -1.884683134,
				"z": 1.9657142339,
				"element": "C" 
			},
			{
				"x": -2.2155548248,
				"y": -1.0939996605,
				"z": 2.3866655839,
				"element": "C" 
			},
			{
				"x": -1.1513240549,
				"y": -0.8339324837,
				"z": 1.515472679,
				"element": "C" 
			},
			{
				"x": -0.024218947,
				"y": 0.002639103,
				"z": 2.0044866997,
				"element": "C" 
			},
			{
				"x": 0.1223687765,
				"y": 0.3445589619,
				"z": 3.1538089049,
				"element": "O" 
			},
			{
				"x": 0.9362286326,
				"y": 0.3748103329,
				"z": 1.092727794,
				"element": "O" 
			},
			{
				"x": 3.9954302177,
				"y": 1.5925575158,
				"z": -2.7823186492,
				"element": "H" 
			},
			{
				"x": 3.5052361004,
				"y": 3.6704134417,
				"z": -4.0943617412,
				"element": "H" 
			},
			{
				"x": 1.3095270113,
				"y": 4.780465336,
				"z": -3.9111506379,
				"element": "H" 
			},
			{
				"x": -0.4668419053,
				"y": 3.8500619273,
				"z": -2.4080792104,
				"element": "H" 
			},
			{
				"x": 0.8158420623,
				"y": -1.8697436335,
				"z": -0.5209753337,
				"element": "H" 
			},
			{
				"x": -0.2322519785,
				"y": -1.1164163196,
				"z": -1.7223567222,
				"element": "H" 
			},
			{
				"x": -2.2248539282,
				"y": -2.5737073329,
				"z": -1.2004397677,
				"element": "H" 
			},
			{
				"x": -4.1121060344,
				"y": -3.0295681316,
				"z": 0.337719786,
				"element": "H" 
			},
			{
				"x": -4.1085326256,
				"y": -2.0862916762,
				"z": 2.638541413,
				"element": "H" 
			},
			{
				"x": -2.1839154707,
				"y": -0.6666456111,
				"z": 3.3830153092,
				"element": "H" 
			}
		],
		 "valence_orbital": [ 
			{
				"type": "occ",
				"energy": -0.28683,
				"method": "rhf"
			},
			{
				"type": "occ",
				"energy": -0.27293,
				"method": "rhf"
			},
			{
				"type": "occ",
				"energy": -0.26066,
				"method": "rhf"
			},
			{
				"type": "occ",
				"energy": -0.25522,
				"method": "rhf"
			},
			{
				"type": "occ",
				"energy": -0.24726,
				"method": "rhf"
			},
			{
				"type": "unocc",
				"energy": -0.09162,
				"method": "rhf"
			},
			{
				"type": "unocc",
				"energy": -0.08013,
				"method": "rhf"
			},
			{
				"type": "unocc",
				"energy": -0.04748,
				"method": "rhf"
			},
			{
				"type": "unocc",
				"energy": -0.01291,
				"method": "rhf"
			},
			{
				"type": "unocc",
				"energy": 0.00884,
				"method": "rhf"
			}
		],
		"cosmo_sigma_profile": { 
			"-0.025": 0.0,
			"-0.024": 0.0,
			"-0.023": 0.0,
			"-0.022": 0.0,
			"-0.021": 0.0,
			"-0.02": 0.0,
			"-0.019": 0.0,
			"-0.018": 0.0,
			"-0.017": 0.0,
			"-0.016": 0.0,
			"-0.015": 0.0,
			"-0.014": 0.0,
			"-0.013": 0.0,
			"-0.012": 0.0588043194428,
			"-0.011": 0.567896469483,
			"-0.01": 0.815937318815,
			"-0.009": 1.43373816249,
			"-0.008": 7.58221795843,
			"-0.007": 17.5617803362,
			"-0.006": 22.3203921547,
			"-0.005": 21.7227036651,
			"-0.004": 19.4662468235,
			"-0.003": 15.9416086613,
			"-0.002": 17.5411855224,
			"-0.001": 20.4372342748,
			"0.0": 24.01853638,
			"0.001": 24.0785391699,
			"0.002": 13.98888859,
			"0.003": 15.9513620308,
			"0.004": 9.73908943961,
			"0.005": 5.74809525037,
			"0.006": 5.6238458578,
			"0.007": 7.36550754571,
			"0.008": 7.12885281454,
			"0.009": 6.9213372617,
			"0.01": 12.1559197961,
			"0.011": 8.71979046476,
			"0.012": 3.28832839274,
			"0.013": 0.558186686454,
			"0.014": 0.0,
			"0.015": 0.0,
			"0.016": 0.0,
			"0.017": 0.0,
			"0.018": 0.0,
			"0.019": 0.0,
			"0.02": 0.0,
			"0.021": 0.0,
			"0.022": 0.0,
			"0.023": 0.0,
			"0.024": 0.0,
			"0.025": 0.0
		}
	}
}
