{
	 "smiles": "NC1=CC(F)=C(C=C1)[N+]([O-])=O", 
	 "Tm": 433.15, 
	 "num_atms": 16, 
	 "gaussian": { 
		 "optdone": 1, 
		 "sigma_profile": "yes", 
		 "theory": "DFT", 
		 "functional": "B3LYP", 
		 "basiset": "6-31G**", 
		 "properties": { 
			 "R2extent": 1819.9848, 
			 "electric_dipole_moment_norm": 7.78720167005, 
			 "electric_quadrupole_moment_norm": 7.3673012379, 
			 "total_energy": -591.333293042, 
			 "HOMO_LUMO_gap": 0.16358, 
			 "cosmo_polarized_energy": -16.56, 
			 "cosmo_cavitation_energy": 21.58, 
			 "cosmo_dispersion_energy": -16.07, 
			 "cosmo_repulsion_energy": 1.27, 
			 "cosmo_total_nonelectrostatic_energy": 6.79, 
			 "SMD_solvation_energy": 6.47 
		},
		"coords": [
			{
				"x": 1.3768820289,
				"y": -2.6219424976,
				"z": -1.4735515747,
				"element": "N" 
			},
			{
				"x": 0.7652817251,
				"y": -1.7053890982,
				"z": -0.6516855119,
				"element": "C" 
			},
			{
				"x": 0.8172856109,
				"y": -0.3314017362,
				"z": -0.947089274,
				"element": "C" 
			},
			{
				"x": 0.1636849155,
				"y": 0.5875248038,
				"z": -0.1418081505,
				"element": "C" 
			},
			{
				"x": 0.2610718767,
				"y": 1.8729046548,
				"z": -0.4859393832,
				"element": "F" 
			},
			{
				"x": -0.5633065336,
				"y": 0.1697934295,
				"z": 0.9867629907,
				"element": "C" 
			},
			{
				"x": -0.6120300638,
				"y": -1.2007265296,
				"z": 1.2771597244,
				"element": "C" 
			},
			{
				"x": 0.034504027,
				"y": -2.1269373805,
				"z": 0.4823459918,
				"element": "C" 
			},
			{
				"x": -1.2639296796,
				"y": 1.0916405188,
				"z": 1.8670676709,
				"element": "N" 
			},
			{
				"x": -1.2210706285,
				"y": 2.2945029831,
				"z": 1.6107117128,
				"element": "O" 
			},
			{
				"x": -1.8665932797,
				"y": 0.6055877923,
				"z": 2.8301929269,
				"element": "O" 
			},
			{
				"x": 2.079261138,
				"y": -2.2928791572,
				"z": -2.1176962511,
				"element": "H" 
			},
			{
				"x": 1.5327763822,
				"y": -3.5507297344,
				"z": -1.1135615671,
				"element": "H" 
			},
			{
				"x": 1.3623665208,
				"y": 0.040350671,
				"z": -1.8083155363,
				"element": "H" 
			},
			{
				"x": -1.1746795809,
				"y": -1.5064192778,
				"z": 2.1503809993,
				"element": "H" 
			},
			{
				"x": -0.0208044589,
				"y": -3.1836794417,
				"z": 0.7255252319,
				"element": "H" 
			}
		],
		 "valence_orbital": [ 
			{
				"type": "occ",
				"energy": -0.29367,
				"method": "rhf"
			},
			{
				"type": "occ",
				"energy": -0.29303,
				"method": "rhf"
			},
			{
				"type": "occ",
				"energy": -0.27408,
				"method": "rhf"
			},
			{
				"type": "occ",
				"energy": -0.27002,
				"method": "rhf"
			},
			{
				"type": "occ",
				"energy": -0.23688,
				"method": "rhf"
			},
			{
				"type": "unocc",
				"energy": -0.0733,
				"method": "rhf"
			},
			{
				"type": "unocc",
				"energy": -0.02085,
				"method": "rhf"
			},
			{
				"type": "unocc",
				"energy": 0.01459,
				"method": "rhf"
			},
			{
				"type": "unocc",
				"energy": 0.05355,
				"method": "rhf"
			},
			{
				"type": "unocc",
				"energy": 0.07673,
				"method": "rhf"
			}
		],
		"cosmo_sigma_profile": { 
			"-0.025": 0.0,
			"-0.024": 0.0,
			"-0.023": 0.0,
			"-0.022": 0.0,
			"-0.021": 0.0,
			"-0.02": 0.0,
			"-0.019": 0.0,
			"-0.018": 0.0,
			"-0.017": 0.0,
			"-0.016": 0.0,
			"-0.015": 0.256290439715,
			"-0.014": 2.97159107385,
			"-0.013": 2.78621342551,
			"-0.012": 3.86321520719,
			"-0.011": 3.73393514739,
			"-0.01": 2.62445362602,
			"-0.009": 3.74398127694,
			"-0.008": 3.90089622867,
			"-0.007": 5.27236634579,
			"-0.006": 4.79075308005,
			"-0.005": 6.18644169408,
			"-0.004": 6.81891527189,
			"-0.003": 7.11294612785,
			"-0.002": 8.60134858713,
			"-0.001": 9.66616222113,
			"0.0": 14.37969654,
			"0.001": 14.6786986472,
			"0.002": 12.3577787452,
			"0.003": 12.7135159102,
			"0.004": 6.21592143168,
			"0.005": 3.45517377055,
			"0.006": 4.91181783152,
			"0.007": 4.37656111595,
			"0.008": 8.50678918412,
			"0.009": 10.724704061,
			"0.01": 5.06663819616,
			"0.011": 3.02581915112,
			"0.012": 0.163375665162,
			"0.013": 0.0,
			"0.014": 0.0,
			"0.015": 0.0,
			"0.016": 0.0,
			"0.017": 0.0,
			"0.018": 0.0,
			"0.019": 0.0,
			"0.02": 0.0,
			"0.021": 0.0,
			"0.022": 0.0,
			"0.023": 0.0,
			"0.024": 0.0,
			"0.025": 0.0
		}
	}
}
