{
	 "smiles": "CSC", 
	 "Tm": 190.15, 
	 "num_atms": 9, 
	 "gaussian": { 
		 "optdone": 1, 
		 "sigma_profile": "yes", 
		 "theory": "DFT", 
		 "functional": "B3LYP", 
		 "basiset": "6-31G**", 
		 "properties": { 
			 "R2extent": 367.9461, 
			 "electric_dipole_moment_norm": 1.71411903321, 
			 "electric_quadrupole_moment_norm": 4.27743195153, 
			 "total_energy": -478.017981294, 
			 "HOMO_LUMO_gap": 0.26107, 
			 "cosmo_polarized_energy": -3.95, 
			 "cosmo_cavitation_energy": 13.27, 
			 "cosmo_dispersion_energy": -10.55, 
			 "cosmo_repulsion_energy": 0.93, 
			 "cosmo_total_nonelectrostatic_energy": 3.65, 
			 "SMD_solvation_energy": 2.98 
		},
		"coords": [
			{
				"x": -0.4304748731,
				"y": 0.5817158086,
				"z": 0.6976752635,
				"element": "C" 
			},
			{
				"x": -0.6873488697,
				"y": -0.7975521754,
				"z": -0.4694163422,
				"element": "S" 
			},
			{
				"x": -0.7574835617,
				"y": 0.1370894036,
				"z": -2.0352902653,
				"element": "C" 
			},
			{
				"x": -0.3698659388,
				"y": 0.1467083648,
				"z": 1.6977017988,
				"element": "H" 
			},
			{
				"x": 0.5031716628,
				"y": 1.1109122174,
				"z": 0.486820096,
				"element": "H" 
			},
			{
				"x": -1.2671865527,
				"y": 1.2855258587,
				"z": 0.6700519336,
				"element": "H" 
			},
			{
				"x": -1.5911448139,
				"y": 0.8450498666,
				"z": -2.0374880541,
				"element": "H" 
			},
			{
				"x": -0.912232804,
				"y": -0.5907008679,
				"z": -2.8348743247,
				"element": "H" 
			},
			{
				"x": 0.1791657511,
				"y": 0.6703515236,
				"z": -2.2210801055,
				"element": "H" 
			}
		],
		 "valence_orbital": [ 
			{
				"type": "occ",
				"energy": -0.42309,
				"method": "rhf"
			},
			{
				"type": "occ",
				"energy": -0.40729,
				"method": "rhf"
			},
			{
				"type": "occ",
				"energy": -0.36183,
				"method": "rhf"
			},
			{
				"type": "occ",
				"energy": -0.31029,
				"method": "rhf"
			},
			{
				"type": "occ",
				"energy": -0.2171,
				"method": "rhf"
			},
			{
				"type": "unocc",
				"energy": 0.04397,
				"method": "rhf"
			},
			{
				"type": "unocc",
				"energy": 0.08569,
				"method": "rhf"
			},
			{
				"type": "unocc",
				"energy": 0.09862,
				"method": "rhf"
			},
			{
				"type": "unocc",
				"energy": 0.13005,
				"method": "rhf"
			},
			{
				"type": "unocc",
				"energy": 0.14652,
				"method": "rhf"
			}
		],
		"cosmo_sigma_profile": { 
			"-0.025": 0.0,
			"-0.024": 0.0,
			"-0.023": 0.0,
			"-0.022": 0.0,
			"-0.021": 0.0,
			"-0.02": 0.0,
			"-0.019": 0.0,
			"-0.018": 0.0,
			"-0.017": 0.0,
			"-0.016": 0.0,
			"-0.015": 0.0,
			"-0.014": 0.0,
			"-0.013": 0.0,
			"-0.012": 0.0,
			"-0.011": 0.0,
			"-0.01": 0.0,
			"-0.009": 0.0,
			"-0.008": 0.0,
			"-0.007": 0.0,
			"-0.006": 2.3391793598,
			"-0.005": 9.25093952689,
			"-0.004": 13.4828990825,
			"-0.003": 12.3323855077,
			"-0.002": 12.3902807023,
			"-0.001": 16.4530309381,
			"0.0": 7.46267298823,
			"0.001": 3.38449595359,
			"0.002": 2.40620333023,
			"0.003": 3.35927600027,
			"0.004": 2.9272721183,
			"0.005": 2.52211237896,
			"0.006": 3.80641725045,
			"0.007": 3.27636843066,
			"0.008": 2.81776184641,
			"0.009": 2.05314479028,
			"0.01": 2.59984810196,
			"0.011": 2.03861046916,
			"0.012": 1.0828339981,
			"0.013": 0.0,
			"0.014": 0.0,
			"0.015": 0.0,
			"0.016": 0.0,
			"0.017": 0.0,
			"0.018": 0.0,
			"0.019": 0.0,
			"0.02": 0.0,
			"0.021": 0.0,
			"0.022": 0.0,
			"0.023": 0.0,
			"0.024": 0.0,
			"0.025": 0.0
		}
	}
}
