{
	 "smiles": "NC1=CC=C(NC(=O)CCN2C(=O)CNC2=O)C=C1", 
	 "Tm": 508.15, 
	 "num_atms": 33, 
	 "gaussian": { 
		 "optdone": 1, 
		 "sigma_profile": "yes", 
		 "theory": "DFT", 
		 "functional": "B3LYP", 
		 "basiset": "6-31G**", 
		 "properties": { 
			 "R2extent": 7717.5876, 
			 "electric_dipole_moment_norm": 6.13160136098, 
			 "electric_quadrupole_moment_norm": 30.2222761805, 
			 "total_energy": -910.456147195, 
			 "HOMO_LUMO_gap": 0.15109, 
			 "cosmo_polarized_energy": -25.73, 
			 "cosmo_cavitation_energy": 37.2, 
			 "cosmo_dispersion_energy": -26.91, 
			 "cosmo_repulsion_energy": 2.07, 
			 "cosmo_total_nonelectrostatic_energy": 12.36, 
			 "SMD_solvation_energy": 6.91 
		},
		"coords": [
			{
				"x": -1.0424002491,
				"y": -5.4088878926,
				"z": -1.367792361,
				"element": "N" 
			},
			{
				"x": -0.8665300032,
				"y": -4.0211097119,
				"z": -1.2600669321,
				"element": "C" 
			},
			{
				"x": -0.1898437279,
				"y": -3.2975722804,
				"z": -2.2537808458,
				"element": "C" 
			},
			{
				"x": -0.0605081601,
				"y": -1.912256637,
				"z": -2.1898922634,
				"element": "C" 
			},
			{
				"x": -0.6129126846,
				"y": -1.2058607934,
				"z": -1.1111139994,
				"element": "C" 
			},
			{
				"x": -0.5293305583,
				"y": 0.1982305254,
				"z": -0.9622231115,
				"element": "N" 
			},
			{
				"x": 0.0968464875,
				"y": 1.1047067744,
				"z": -1.773393135,
				"element": "C" 
			},
			{
				"x": 0.6981621721,
				"y": 0.8341479841,
				"z": -2.8078242947,
				"element": "O" 
			},
			{
				"x": -0.0176283814,
				"y": 2.5538777561,
				"z": -1.2762167849,
				"element": "C" 
			},
			{
				"x": 0.644634588,
				"y": 2.8044126945,
				"z": 0.1059749019,
				"element": "C" 
			},
			{
				"x": -0.2467052358,
				"y": 3.4288894941,
				"z": 1.0808055378,
				"element": "N" 
			},
			{
				"x": -0.105840643,
				"y": 4.7196894689,
				"z": 1.5674554433,
				"element": "C" 
			},
			{
				"x": 0.750605661,
				"y": 5.5209227904,
				"z": 1.2632144986,
				"element": "O" 
			},
			{
				"x": -1.2501497594,
				"y": 4.9198732268,
				"z": 2.5689742629,
				"element": "C" 
			},
			{
				"x": -1.898488872,
				"y": 3.6231538863,
				"z": 2.5604307497,
				"element": "N" 
			},
			{
				"x": -1.3405974463,
				"y": 2.7627459706,
				"z": 1.6585445899,
				"element": "C" 
			},
			{
				"x": -1.7025174507,
				"y": 1.6255719828,
				"z": 1.3892844325,
				"element": "O" 
			},
			{
				"x": -1.290566263,
				"y": -1.9223107825,
				"z": -0.1130738747,
				"element": "C" 
			},
			{
				"x": -1.4169564454,
				"y": -3.3050009283,
				"z": -0.1850711633,
				"element": "C" 
			},
			{
				"x": -0.3389153945,
				"y": -5.8736394702,
				"z": -1.9266970058,
				"element": "H" 
			},
			{
				"x": -1.1713297144,
				"y": -5.8821824572,
				"z": -0.4831177679,
				"element": "H" 
			},
			{
				"x": 0.2415498887,
				"y": -3.8287564121,
				"z": -3.0992514899,
				"element": "H" 
			},
			{
				"x": 0.4656285075,
				"y": -1.3700106702,
				"z": -2.9629710209,
				"element": "H" 
			},
			{
				"x": -1.0026220885,
				"y": 0.579363215,
				"z": -0.1449597603,
				"element": "H" 
			},
			{
				"x": -1.0770354894,
				"y": 2.8276835509,
				"z": -1.2251678243,
				"element": "H" 
			},
			{
				"x": 0.4466410893,
				"y": 3.1767874973,
				"z": -2.041816311,
				"element": "H" 
			},
			{
				"x": 1.4926890978,
				"y": 3.4849198491,
				"z": 0.0137168286,
				"element": "H" 
			},
			{
				"x": 1.0070569294,
				"y": 1.8669858317,
				"z": 0.5369164722,
				"element": "H" 
			},
			{
				"x": -0.8431259978,
				"y": 5.1920287372,
				"z": 3.5490360538,
				"element": "H" 
			},
			{
				"x": -1.9025440231,
				"y": 5.7319651708,
				"z": 2.2263673506,
				"element": "H" 
			},
			{
				"x": -2.7718429769,
				"y": 3.3993625518,
				"z": 3.0097798453,
				"element": "H" 
			},
			{
				"x": -1.721233543,
				"y": -1.3879578394,
				"z": 0.7303457145,
				"element": "H" 
			},
			{
				"x": -1.9519893135,
				"y": -3.8361730831,
				"z": 0.5985832642,
				"element": "H" 
			}
		],
		 "valence_orbital": [ 
			{
				"type": "occ",
				"energy": -0.28249,
				"method": "rhf"
			},
			{
				"type": "occ",
				"energy": -0.25783,
				"method": "rhf"
			},
			{
				"type": "occ",
				"energy": -0.23662,
				"method": "rhf"
			},
			{
				"type": "occ",
				"energy": -0.23604,
				"method": "rhf"
			},
			{
				"type": "occ",
				"energy": -0.177,
				"method": "rhf"
			},
			{
				"type": "unocc",
				"energy": -0.02591,
				"method": "rhf"
			},
			{
				"type": "unocc",
				"energy": 0.00939,
				"method": "rhf"
			},
			{
				"type": "unocc",
				"energy": 0.01295,
				"method": "rhf"
			},
			{
				"type": "unocc",
				"energy": 0.03855,
				"method": "rhf"
			},
			{
				"type": "unocc",
				"energy": 0.05926,
				"method": "rhf"
			}
		],
		"cosmo_sigma_profile": { 
			"-0.025": 0.0,
			"-0.024": 0.0,
			"-0.023": 0.0,
			"-0.022": 0.0,
			"-0.021": 0.0,
			"-0.02": 0.0,
			"-0.019": 0.0,
			"-0.018": 0.0,
			"-0.017": 0.0,
			"-0.016": 0.703824299929,
			"-0.015": 1.63833845271,
			"-0.014": 1.25397046252,
			"-0.013": 0.847236101412,
			"-0.012": 2.79502004201,
			"-0.011": 4.01743686634,
			"-0.01": 4.14753797009,
			"-0.009": 4.84221340659,
			"-0.008": 9.42108304627,
			"-0.007": 12.7709056903,
			"-0.006": 20.0242332138,
			"-0.005": 21.8562274391,
			"-0.004": 21.8278602708,
			"-0.003": 19.9366202041,
			"-0.002": 16.6118495171,
			"-0.001": 13.2959144456,
			"0.0": 10.9643414564,
			"0.001": 10.9839200818,
			"0.002": 11.3985868814,
			"0.003": 12.0171813248,
			"0.004": 14.2768355054,
			"0.005": 14.3575154202,
			"0.006": 14.265356529,
			"0.007": 9.84243025828,
			"0.008": 4.02117655244,
			"0.009": 5.70412191648,
			"0.01": 6.70564693315,
			"0.011": 6.5546685798,
			"0.012": 9.26212336191,
			"0.013": 4.72458117018,
			"0.014": 3.28332327633,
			"0.015": 0.921679684823,
			"0.016": 0.141392256165,
			"0.017": 0.0,
			"0.018": 0.0,
			"0.019": 0.0,
			"0.02": 0.0,
			"0.021": 0.0,
			"0.022": 0.0,
			"0.023": 0.0,
			"0.024": 0.0,
			"0.025": 0.0
		}
	}
}
