{
	 "smiles": "NC1=NN=C(CC2=C3C=CC=CC3=CC=C2)O1", 
	 "Tm": 498.15, 
	 "num_atms": 28, 
	 "gaussian": { 
		 "optdone": 1, 
		 "sigma_profile": "yes", 
		 "theory": "DFT", 
		 "functional": "B3LYP", 
		 "basiset": "6-31G**", 
		 "properties": { 
			 "R2extent": 4586.6428, 
			 "electric_dipole_moment_norm": 3.81722625083, 
			 "electric_quadrupole_moment_norm": 14.2334358659, 
			 "total_energy": -741.477909812, 
			 "HOMO_LUMO_gap": 0.17429, 
			 "cosmo_polarized_energy": -17.45, 
			 "cosmo_cavitation_energy": 32.46, 
			 "cosmo_dispersion_energy": -23.42, 
			 "cosmo_repulsion_energy": 1.81, 
			 "cosmo_total_nonelectrostatic_energy": 10.85, 
			 "SMD_solvation_energy": 3.56 
		},
		"coords": [
			{
				"x": -1.3278445781,
				"y": 2.2999133288,
				"z": 3.9269032785,
				"element": "N" 
			},
			{
				"x": -1.6460394835,
				"y": 1.8220207538,
				"z": 2.6837248875,
				"element": "C" 
			},
			{
				"x": -1.9767685264,
				"y": 2.4875366302,
				"z": 1.6183217621,
				"element": "N" 
			},
			{
				"x": -2.2880278822,
				"y": 1.5114351244,
				"z": 0.6569412688,
				"element": "N" 
			},
			{
				"x": -2.1092068147,
				"y": 0.3600423983,
				"z": 1.2100518197,
				"element": "C" 
			},
			{
				"x": -2.2857204921,
				"y": -1.0021269311,
				"z": 0.6251768507,
				"element": "C" 
			},
			{
				"x": -1.0186262215,
				"y": -1.8442158792,
				"z": 0.5819211467,
				"element": "C" 
			},
			{
				"x": 0.0459781356,
				"y": -1.5401734351,
				"z": -0.3296690311,
				"element": "C" 
			},
			{
				"x": 0.0050594805,
				"y": -0.4386604673,
				"z": -1.2306469081,
				"element": "C" 
			},
			{
				"x": 1.047524045,
				"y": -0.1940186843,
				"z": -2.0983075546,
				"element": "C" 
			},
			{
				"x": 2.1862967001,
				"y": -1.0327896296,
				"z": -2.1127278669,
				"element": "C" 
			},
			{
				"x": 2.2610315972,
				"y": -2.1033033324,
				"z": -1.251262937,
				"element": "C" 
			},
			{
				"x": 1.2060850746,
				"y": -2.3865863449,
				"z": -0.3428525988,
				"element": "C" 
			},
			{
				"x": 1.2775323478,
				"y": -3.491144658,
				"z": 0.5484729042,
				"element": "C" 
			},
			{
				"x": 0.2462139741,
				"y": -3.7571242477,
				"z": 1.4163827118,
				"element": "C" 
			},
			{
				"x": -0.9015948814,
				"y": -2.9298687427,
				"z": 1.4262667418,
				"element": "C" 
			},
			{
				"x": -1.6981184761,
				"y": 0.4733725837,
				"z": 2.5226149283,
				"element": "O" 
			},
			{
				"x": -1.1158275108,
				"y": 3.2882651913,
				"z": 3.9244364066,
				"element": "H" 
			},
			{
				"x": -0.6662652573,
				"y": 1.7398613172,
				"z": 4.4472213564,
				"element": "H" 
			},
			{
				"x": -2.698581075,
				"y": -0.8527950011,
				"z": -0.3769661752,
				"element": "H" 
			},
			{
				"x": -3.0442999331,
				"y": -1.5389842,
				"z": 1.2061012179,
				"element": "H" 
			},
			{
				"x": -0.8461747701,
				"y": 0.2329956247,
				"z": -1.2236799366,
				"element": "H" 
			},
			{
				"x": 0.9955978491,
				"y": 0.6539523056,
				"z": -2.7750020593,
				"element": "H" 
			},
			{
				"x": 2.999817226,
				"y": -0.827824684,
				"z": -2.8026428864,
				"element": "H" 
			},
			{
				"x": 3.1327556638,
				"y": -2.7529037399,
				"z": -1.2530734816,
				"element": "H" 
			},
			{
				"x": 2.1619064603,
				"y": -4.122828626,
				"z": 0.5282879651,
				"element": "H" 
			},
			{
				"x": 0.3020419662,
				"y": -4.6031964707,
				"z": 2.0950449911,
				"element": "H" 
			},
			{
				"x": -1.7122446182,
				"y": -3.1586501837,
				"z": 2.1134611987,
				"element": "H" 
			}
		],
		 "valence_orbital": [ 
			{
				"type": "occ",
				"energy": -0.28085,
				"method": "rhf"
			},
			{
				"type": "occ",
				"energy": -0.26849,
				"method": "rhf"
			},
			{
				"type": "occ",
				"energy": -0.24428,
				"method": "rhf"
			},
			{
				"type": "occ",
				"energy": -0.23057,
				"method": "rhf"
			},
			{
				"type": "occ",
				"energy": -0.21553,
				"method": "rhf"
			},
			{
				"type": "unocc",
				"energy": -0.04124,
				"method": "rhf"
			},
			{
				"type": "unocc",
				"energy": -0.01119,
				"method": "rhf"
			},
			{
				"type": "unocc",
				"energy": 0.00953,
				"method": "rhf"
			},
			{
				"type": "unocc",
				"energy": 0.03318,
				"method": "rhf"
			},
			{
				"type": "unocc",
				"energy": 0.05308,
				"method": "rhf"
			}
		],
		"cosmo_sigma_profile": { 
			"-0.025": 0.0,
			"-0.024": 0.0,
			"-0.023": 0.0,
			"-0.022": 0.0,
			"-0.021": 0.0,
			"-0.02": 0.0,
			"-0.019": 0.0,
			"-0.018": 0.0,
			"-0.017": 0.0,
			"-0.016": 0.0130351209353,
			"-0.015": 1.72184511293,
			"-0.014": 3.02588662074,
			"-0.013": 2.8780688184,
			"-0.012": 1.96412009716,
			"-0.011": 2.51264321435,
			"-0.01": 1.97407418806,
			"-0.009": 1.68407463153,
			"-0.008": 2.05337452533,
			"-0.007": 5.63506116863,
			"-0.006": 15.8642024183,
			"-0.005": 18.5234315171,
			"-0.004": 20.5401529996,
			"-0.003": 19.7258029739,
			"-0.002": 14.4044524101,
			"-0.001": 12.4460188528,
			"0.0": 12.167697486,
			"0.001": 13.760351801,
			"0.002": 15.6991963569,
			"0.003": 18.6019575614,
			"0.004": 26.2789997602,
			"0.005": 18.9305331054,
			"0.006": 3.97005519342,
			"0.007": 2.65720472243,
			"0.008": 2.73108623968,
			"0.009": 2.33275550867,
			"0.01": 2.53188674116,
			"0.011": 2.82889140319,
			"0.012": 2.70276346598,
			"0.013": 3.71481990872,
			"0.014": 2.35999793827,
			"0.015": 2.46145722737,
			"0.016": 1.23356887479,
			"0.017": 0.058803946718,
			"0.018": 0.0,
			"0.019": 0.0,
			"0.02": 0.0,
			"0.021": 0.0,
			"0.022": 0.0,
			"0.023": 0.0,
			"0.024": 0.0,
			"0.025": 0.0
		}
	}
}
