{
	 "smiles": "CC(=O)NC1=CC=C(CCO)C=C1", 
	 "Tm": 380.15, 
	 "num_atms": 26, 
	 "gaussian": { 
		 "optdone": 1, 
		 "sigma_profile": "yes", 
		 "theory": "DFT", 
		 "functional": "B3LYP", 
		 "basiset": "6-31G**", 
		 "properties": { 
			 "R2extent": 3899.8432, 
			 "electric_dipole_moment_norm": 2.69182446865, 
			 "electric_quadrupole_moment_norm": 21.6050409407, 
			 "total_energy": -594.110990136, 
			 "HOMO_LUMO_gap": 0.20547, 
			 "cosmo_polarized_energy": -14.75, 
			 "cosmo_cavitation_energy": 29.35, 
			 "cosmo_dispersion_energy": -21.13, 
			 "cosmo_repulsion_energy": 1.7, 
			 "cosmo_total_nonelectrostatic_energy": 9.92, 
			 "SMD_solvation_energy": 5.63 
		},
		"coords": [
			{
				"x": 2.6245960909,
				"y": -2.907059049,
				"z": -2.1137785847,
				"element": "C" 
			},
			{
				"x": 2.7368418501,
				"y": -1.4066629149,
				"z": -2.306182944,
				"element": "C" 
			},
			{
				"x": 3.6001002717,
				"y": -0.9081457771,
				"z": -3.0137372078,
				"element": "O" 
			},
			{
				"x": 1.8212791354,
				"y": -0.5809366479,
				"z": -1.671607718,
				"element": "N" 
			},
			{
				"x": 0.717395432,
				"y": -0.8602364275,
				"z": -0.8358828167,
				"element": "C" 
			},
			{
				"x": -0.4558432893,
				"y": -0.1082152194,
				"z": -0.9987621367,
				"element": "C" 
			},
			{
				"x": -1.5572773818,
				"y": -0.3234374246,
				"z": -0.1737589949,
				"element": "C" 
			},
			{
				"x": -1.5353241383,
				"y": -1.3046029635,
				"z": 0.8303866642,
				"element": "C" 
			},
			{
				"x": -2.7190615024,
				"y": -1.5022170372,
				"z": 1.749828665,
				"element": "C" 
			},
			{
				"x": -2.7118399737,
				"y": -0.5258245977,
				"z": 2.9432781634,
				"element": "C" 
			},
			{
				"x": -2.7884590952,
				"y": 0.8328497606,
				"z": 2.5460856115,
				"element": "O" 
			},
			{
				"x": -0.3553538182,
				"y": -2.0433685642,
				"z": 0.9885374882,
				"element": "C" 
			},
			{
				"x": 0.7612607415,
				"y": -1.8216874925,
				"z": 0.1842741904,
				"element": "C" 
			},
			{
				"x": 3.1931330203,
				"y": -3.2193848624,
				"z": -1.2312915962,
				"element": "H" 
			},
			{
				"x": 3.0782801911,
				"y": -3.3784272073,
				"z": -2.9862803119,
				"element": "H" 
			},
			{
				"x": 1.59417233,
				"y": -3.2483428376,
				"z": -1.9935980924,
				"element": "H" 
			},
			{
				"x": 1.9257055163,
				"y": 0.3795271789,
				"z": -1.9762825073,
				"element": "H" 
			},
			{
				"x": -0.505295498,
				"y": 0.6371974673,
				"z": -1.7881602611,
				"element": "H" 
			},
			{
				"x": -2.459430095,
				"y": 0.2630069204,
				"z": -0.3262687659,
				"element": "H" 
			},
			{
				"x": -2.7279942464,
				"y": -2.5275043874,
				"z": 2.1392665728,
				"element": "H" 
			},
			{
				"x": -3.653166109,
				"y": -1.3561150437,
				"z": 1.1957257613,
				"element": "H" 
			},
			{
				"x": -3.5926305955,
				"y": -0.7075237129,
				"z": 3.5676356599,
				"element": "H" 
			},
			{
				"x": -1.8214656037,
				"y": -0.7128450591,
				"z": 3.5648126997,
				"element": "H" 
			},
			{
				"x": -1.9845251704,
				"y": 1.0340749868,
				"z": 2.047986299,
				"element": "H" 
			},
			{
				"x": -0.2994423374,
				"y": -2.7996724962,
				"z": 1.7677695655,
				"element": "H" 
			},
			{
				"x": 1.6711442746,
				"y": -2.3819465919,
				"z": 0.3644045965,
				"element": "H" 
			}
		],
		 "valence_orbital": [ 
			{
				"type": "occ",
				"energy": -0.29861,
				"method": "rhf"
			},
			{
				"type": "occ",
				"energy": -0.27067,
				"method": "rhf"
			},
			{
				"type": "occ",
				"energy": -0.26508,
				"method": "rhf"
			},
			{
				"type": "occ",
				"energy": -0.25383,
				"method": "rhf"
			},
			{
				"type": "occ",
				"energy": -0.22647,
				"method": "rhf"
			},
			{
				"type": "unocc",
				"energy": -0.021,
				"method": "rhf"
			},
			{
				"type": "unocc",
				"energy": -0.01871,
				"method": "rhf"
			},
			{
				"type": "unocc",
				"energy": 0.0308,
				"method": "rhf"
			},
			{
				"type": "unocc",
				"energy": 0.0786,
				"method": "rhf"
			},
			{
				"type": "unocc",
				"energy": 0.09333,
				"method": "rhf"
			}
		],
		"cosmo_sigma_profile": { 
			"-0.025": 0.0,
			"-0.024": 0.0,
			"-0.023": 0.0,
			"-0.022": 0.0,
			"-0.021": 0.0,
			"-0.02": 0.0,
			"-0.019": 0.0,
			"-0.018": 0.0,
			"-0.017": 0.0,
			"-0.016": 0.0,
			"-0.015": 0.0,
			"-0.014": 0.408678977667,
			"-0.013": 1.34491799075,
			"-0.012": 1.91450051558,
			"-0.011": 0.917097533063,
			"-0.01": 2.20040265486,
			"-0.009": 2.03464410914,
			"-0.008": 2.955196716,
			"-0.007": 5.63963637299,
			"-0.006": 9.28586009999,
			"-0.005": 14.9992596361,
			"-0.004": 21.572569053,
			"-0.003": 25.8696712239,
			"-0.002": 23.9418960022,
			"-0.001": 19.3926211545,
			"0.0": 14.1503792096,
			"0.001": 11.7280133925,
			"0.002": 10.1940312943,
			"0.003": 10.8874364171,
			"0.004": 9.87965196871,
			"0.005": 8.32116054395,
			"0.006": 2.51805643366,
			"0.007": 2.74236679369,
			"0.008": 2.84057880844,
			"0.009": 2.15506636823,
			"0.01": 2.2193720915,
			"0.011": 2.61314415618,
			"0.012": 3.21929088061,
			"0.013": 6.81992052778,
			"0.014": 6.56925139647,
			"0.015": 1.71550413345,
			"0.016": 0.0,
			"0.017": 0.0,
			"0.018": 0.0,
			"0.019": 0.0,
			"0.02": 0.0,
			"0.021": 0.0,
			"0.022": 0.0,
			"0.023": 0.0,
			"0.024": 0.0,
			"0.025": 0.0
		}
	}
}
