{
	 "smiles": "OC(=O)C1CC2=CC=CC=C2CN1C(=O)OCC1=CC=CC=C1", 
	 "Tm": 412.15, 
	 "num_atms": 40, 
	 "gaussian": { 
		 "optdone": 1, 
		 "sigma_profile": "yes", 
		 "theory": "DFT", 
		 "functional": "B3LYP", 
		 "basiset": "6-31G**", 
		 "properties": { 
			 "R2extent": 7481.6538, 
			 "electric_dipole_moment_norm": 6.98513635085, 
			 "electric_quadrupole_moment_norm": 23.2260250209, 
			 "total_energy": -1051.84283279, 
			 "HOMO_LUMO_gap": 0.22535, 
			 "cosmo_polarized_energy": -16.44, 
			 "cosmo_cavitation_energy": 43.09, 
			 "cosmo_dispersion_energy": -29.27, 
			 "cosmo_repulsion_energy": 2.25, 
			 "cosmo_total_nonelectrostatic_energy": 16.06, 
			 "SMD_solvation_energy": 7.35 
		},
		"coords": [
			{
				"x": 3.1711195446,
				"y": -0.3581678056,
				"z": 2.0071735558,
				"element": "O" 
			},
			{
				"x": 3.3906541878,
				"y": 0.4191435758,
				"z": 0.9571072034,
				"element": "C" 
			},
			{
				"x": 4.3653882842,
				"y": 1.13521866,
				"z": 0.8659065749,
				"element": "O" 
			},
			{
				"x": 2.3567575937,
				"y": 0.5011489407,
				"z": -0.1955050961,
				"element": "C" 
			},
			{
				"x": 1.3976276124,
				"y": 1.6923080983,
				"z": -0.0284843351,
				"element": "C" 
			},
			{
				"x": 0.5354669113,
				"y": 1.8627322873,
				"z": -1.2695762397,
				"element": "C" 
			},
			{
				"x": -0.1488688113,
				"y": 3.0656558258,
				"z": -1.4883192676,
				"element": "C" 
			},
			{
				"x": -0.9356950471,
				"y": 3.2513678185,
				"z": -2.6225806143,
				"element": "C" 
			},
			{
				"x": -1.0491019192,
				"y": 2.2254785175,
				"z": -3.5637244469,
				"element": "C" 
			},
			{
				"x": -0.3768488065,
				"y": 1.0235956619,
				"z": -3.355551295,
				"element": "C" 
			},
			{
				"x": 0.4133159562,
				"y": 0.8297909875,
				"z": -2.2163286983,
				"element": "C" 
			},
			{
				"x": 1.1409940654,
				"y": -0.4951443696,
				"z": -2.0278913462,
				"element": "C" 
			},
			{
				"x": 1.5625256919,
				"y": -0.6790838139,
				"z": -0.6291207836,
				"element": "N" 
			},
			{
				"x": 0.7773311152,
				"y": -1.3874611953,
				"z": 0.231735509,
				"element": "C" 
			},
			{
				"x": 0.8740638736,
				"y": -1.3487877165,
				"z": 1.4660071519,
				"element": "O" 
			},
			{
				"x": -0.1027029188,
				"y": -2.1879984709,
				"z": -0.3924587516,
				"element": "O" 
			},
			{
				"x": -0.956579356,
				"y": -3.0207191161,
				"z": 0.4513123984,
				"element": "C" 
			},
			{
				"x": -2.2603445285,
				"y": -2.3377483542,
				"z": 0.7751240011,
				"element": "C" 
			},
			{
				"x": -2.3844327646,
				"y": -1.5405861764,
				"z": 1.9215689691,
				"element": "C" 
			},
			{
				"x": -3.5925949822,
				"y": -0.9057323907,
				"z": 2.2101869214,
				"element": "C" 
			},
			{
				"x": -4.6878185473,
				"y": -1.0604832555,
				"z": 1.3574332648,
				"element": "C" 
			},
			{
				"x": -4.5725665896,
				"y": -1.8531606496,
				"z": 0.2137887822,
				"element": "C" 
			},
			{
				"x": -3.3642437602,
				"y": -2.4881490903,
				"z": -0.0737683185,
				"element": "C" 
			},
			{
				"x": 2.2772467375,
				"y": -0.7919558219,
				"z": 1.9270730039,
				"element": "H" 
			},
			{
				"x": 3.0020320356,
				"y": 0.7145527938,
				"z": -1.050396311,
				"element": "H" 
			},
			{
				"x": 1.9847373271,
				"y": 2.5975805787,
				"z": 0.156094627,
				"element": "H" 
			},
			{
				"x": 0.7703739421,
				"y": 1.5297587713,
				"z": 0.8582278154,
				"element": "H" 
			},
			{
				"x": -0.0545772832,
				"y": 3.8664992253,
				"z": -0.7587903531,
				"element": "H" 
			},
			{
				"x": -1.4557294255,
				"y": 4.1927840322,
				"z": -2.7737269993,
				"element": "H" 
			},
			{
				"x": -1.661818768,
				"y": 2.3593990027,
				"z": -4.4503431784,
				"element": "H" 
			},
			{
				"x": -0.4688919606,
				"y": 0.2198164425,
				"z": -4.0827914842,
				"element": "H" 
			},
			{
				"x": 2.0421018106,
				"y": -0.5331761618,
				"z": -2.6532428222,
				"element": "H" 
			},
			{
				"x": 0.506384061,
				"y": -1.3286989584,
				"z": -2.3220613136,
				"element": "H" 
			},
			{
				"x": -0.4009046625,
				"y": -3.2803802095,
				"z": 1.35270027,
				"element": "H" 
			},
			{
				"x": -1.1189155728,
				"y": -3.9150009175,
				"z": -0.1532786994,
				"element": "H" 
			},
			{
				"x": -1.5276830829,
				"y": -1.4163750337,
				"z": 2.576489479,
				"element": "H" 
			},
			{
				"x": -3.6801928617,
				"y": -0.292519178,
				"z": 3.1024423019,
				"element": "H" 
			},
			{
				"x": -5.6288035643,
				"y": -0.5678495031,
				"z": 1.5850664663,
				"element": "H" 
			},
			{
				"x": -5.4226756363,
				"y": -1.9795372496,
				"z": -0.4503497845,
				"element": "H" 
			},
			{
				"x": -3.2767299009,
				"y": -3.1088157819,
				"z": -0.9623481567,
				"element": "H" 
			}
		],
		 "valence_orbital": [ 
			{
				"type": "occ",
				"energy": -0.26028,
				"method": "rhf"
			},
			{
				"type": "occ",
				"energy": -0.25909,
				"method": "rhf"
			},
			{
				"type": "occ",
				"energy": -0.25518,
				"method": "rhf"
			},
			{
				"type": "occ",
				"energy": -0.25103,
				"method": "rhf"
			},
			{
				"type": "occ",
				"energy": -0.24725,
				"method": "rhf"
			},
			{
				"type": "unocc",
				"energy": -0.0219,
				"method": "rhf"
			},
			{
				"type": "unocc",
				"energy": -0.01399,
				"method": "rhf"
			},
			{
				"type": "unocc",
				"energy": -0.01122,
				"method": "rhf"
			},
			{
				"type": "unocc",
				"energy": -0.01,
				"method": "rhf"
			},
			{
				"type": "unocc",
				"energy": 0.01637,
				"method": "rhf"
			}
		],
		"cosmo_sigma_profile": { 
			"-0.025": 0.0,
			"-0.024": 0.0,
			"-0.023": 0.0,
			"-0.022": 0.0,
			"-0.021": 0.0,
			"-0.02": 0.0,
			"-0.019": 0.0,
			"-0.018": 0.0,
			"-0.017": 0.0,
			"-0.016": 0.0,
			"-0.015": 0.0,
			"-0.014": 0.0,
			"-0.013": 0.0,
			"-0.012": 0.0,
			"-0.011": 0.0,
			"-0.01": 0.0,
			"-0.009": 0.283225001248,
			"-0.008": 2.27794222715,
			"-0.007": 6.15656876248,
			"-0.006": 20.8100158078,
			"-0.005": 34.7881806165,
			"-0.004": 35.7507706417,
			"-0.003": 36.0433707049,
			"-0.002": 24.783961621,
			"-0.001": 19.6763183728,
			"0.0": 18.6890621972,
			"0.001": 19.8351166614,
			"0.002": 19.7019055989,
			"0.003": 20.9130914064,
			"0.004": 22.6830959146,
			"0.005": 21.0840247495,
			"0.006": 11.561640679,
			"0.007": 3.37828777488,
			"0.008": 3.63614700518,
			"0.009": 2.3280454416,
			"0.01": 3.18362076942,
			"0.011": 5.07374680074,
			"0.012": 6.24254546585,
			"0.013": 3.69887787068,
			"0.014": 0.69298882712,
			"0.015": 0.0,
			"0.016": 0.0,
			"0.017": 0.0,
			"0.018": 0.0,
			"0.019": 0.0,
			"0.02": 0.0,
			"0.021": 0.0,
			"0.022": 0.0,
			"0.023": 0.0,
			"0.024": 0.0,
			"0.025": 0.0
		}
	}
}
