{
	 "smiles": "C1=CC=C(C=C1)C1=CC=CC(=N1)C1=CC=CC=C1", 
	 "Tm": 351.15, 
	 "num_atms": 31, 
	 "gaussian": { 
		 "optdone": 1, 
		 "sigma_profile": "yes", 
		 "theory": "DFT", 
		 "functional": "B3LYP", 
		 "basiset": "6-31G**", 
		 "properties": { 
			 "R2extent": 6118.4236, 
			 "electric_dipole_moment_norm": 1.34467868653, 
			 "electric_quadrupole_moment_norm": 16.7886281369, 
			 "total_energy": -710.410169521, 
			 "HOMO_LUMO_gap": 0.17847, 
			 "cosmo_polarized_energy": -8.76, 
			 "cosmo_cavitation_energy": 34.95, 
			 "cosmo_dispersion_energy": -25.53, 
			 "cosmo_repulsion_energy": 1.92, 
			 "cosmo_total_nonelectrostatic_energy": 11.34, 
			 "SMD_solvation_energy": 4.88 
		},
		"coords": [
			{
				"x": -0.7986113874,
				"y": 4.8151527485,
				"z": -2.2843193113,
				"element": "C" 
			},
			{
				"x": -0.9980906879,
				"y": 4.0880895565,
				"z": -3.4589516047,
				"element": "C" 
			},
			{
				"x": -0.7761213424,
				"y": 2.7116951487,
				"z": -3.4784945831,
				"element": "C" 
			},
			{
				"x": -0.3496558787,
				"y": 2.0349821204,
				"z": -2.3238412461,
				"element": "C" 
			},
			{
				"x": -0.1656481494,
				"y": 2.776490124,
				"z": -1.1452424451,
				"element": "C" 
			},
			{
				"x": -0.383548422,
				"y": 4.15196948,
				"z": -1.1270314744,
				"element": "C" 
			},
			{
				"x": -0.0985346126,
				"y": 0.5671979447,
				"z": -2.3245639026,
				"element": "C" 
			},
			{
				"x": 0.1771986724,
				"y": -0.1352904878,
				"z": -3.5099684756,
				"element": "C" 
			},
			{
				"x": 0.4058660673,
				"y": -1.5053963382,
				"z": -3.4369496632,
				"element": "C" 
			},
			{
				"x": 0.3548892554,
				"y": -2.1433756403,
				"z": -2.2019710774,
				"element": "C" 
			},
			{
				"x": 0.0735488435,
				"y": -1.3777153065,
				"z": -1.0577159624,
				"element": "C" 
			},
			{
				"x": -0.1356662798,
				"y": -0.0527946347,
				"z": -1.1332896862,
				"element": "N" 
			},
			{
				"x": 0.006481616,
				"y": -1.9901343384,
				"z": 0.2979866998,
				"element": "C" 
			},
			{
				"x": 0.1841289127,
				"y": -1.189087237,
				"z": 1.4379674513,
				"element": "C" 
			},
			{
				"x": 0.137220206,
				"y": -1.7448471425,
				"z": 2.7141674128,
				"element": "C" 
			},
			{
				"x": -0.0969634741,
				"y": -3.1120682838,
				"z": 2.8792862816,
				"element": "C" 
			},
			{
				"x": -0.2884806493,
				"y": -3.9171568931,
				"z": 1.7553092628,
				"element": "C" 
			},
			{
				"x": -0.2375965343,
				"y": -3.361732448,
				"z": 0.4774125608,
				"element": "C" 
			},
			{
				"x": -0.9704535399,
				"y": 5.8876422342,
				"z": -2.2693984291,
				"element": "H" 
			},
			{
				"x": -1.335186663,
				"y": 4.5909722353,
				"z": -4.360959564,
				"element": "H" 
			},
			{
				"x": -0.9637861956,
				"y": 2.1604805957,
				"z": -4.3946789202,
				"element": "H" 
			},
			{
				"x": 0.1505905,
				"y": 2.2539641183,
				"z": -0.2499110476,
				"element": "H" 
			},
			{
				"x": -0.2286098011,
				"y": 4.7089692367,
				"z": -0.2071676201,
				"element": "H" 
			},
			{
				"x": 0.2425802649,
				"y": 0.3817730318,
				"z": -4.4601710126,
				"element": "H" 
			},
			{
				"x": 0.639404718,
				"y": -2.0699183296,
				"z": -4.3353519101,
				"element": "H" 
			},
			{
				"x": 0.5599242516,
				"y": -3.2046985743,
				"z": -2.1241046828,
				"element": "H" 
			},
			{
				"x": 0.3593243681,
				"y": -0.1282028051,
				"z": 1.3020008224,
				"element": "H" 
			},
			{
				"x": 0.284344108,
				"y": -1.1096169483,
				"z": 3.5832126413,
				"element": "H" 
			},
			{
				"x": -0.1355088774,
				"y": -3.5450080896,
				"z": 3.8748081303,
				"element": "H" 
			},
			{
				"x": -0.4861975191,
				"y": -4.9789273876,
				"z": 1.8723409908,
				"element": "H" 
			},
			{
				"x": -0.4167417699,
				"y": -4.0000076899,
				"z": -0.3822096352,
				"element": "H" 
			}
		],
		 "valence_orbital": [ 
			{
				"type": "occ",
				"energy": -0.25421,
				"method": "rhf"
			},
			{
				"type": "occ",
				"energy": -0.24801,
				"method": "rhf"
			},
			{
				"type": "occ",
				"energy": -0.24792,
				"method": "rhf"
			},
			{
				"type": "occ",
				"energy": -0.24003,
				"method": "rhf"
			},
			{
				"type": "occ",
				"energy": -0.21937,
				"method": "rhf"
			},
			{
				"type": "unocc",
				"energy": -0.0409,
				"method": "rhf"
			},
			{
				"type": "unocc",
				"energy": -0.03939,
				"method": "rhf"
			},
			{
				"type": "unocc",
				"energy": 0.00129,
				"method": "rhf"
			},
			{
				"type": "unocc",
				"energy": 0.00234,
				"method": "rhf"
			},
			{
				"type": "unocc",
				"energy": 0.01747,
				"method": "rhf"
			}
		],
		"cosmo_sigma_profile": { 
			"-0.025": 0.0,
			"-0.024": 0.0,
			"-0.023": 0.0,
			"-0.022": 0.0,
			"-0.021": 0.0,
			"-0.02": 0.0,
			"-0.019": 0.0,
			"-0.018": 0.0,
			"-0.017": 0.0,
			"-0.016": 0.0,
			"-0.015": 0.0,
			"-0.014": 0.0,
			"-0.013": 0.0,
			"-0.012": 0.0,
			"-0.011": 0.0,
			"-0.01": 0.0,
			"-0.009": 0.0,
			"-0.008": 1.2906417919,
			"-0.007": 6.69326890913,
			"-0.006": 15.2069571549,
			"-0.005": 22.9089844468,
			"-0.004": 24.4597099478,
			"-0.003": 23.1910943659,
			"-0.002": 16.2955185559,
			"-0.001": 16.6735414174,
			"0.0": 16.2629262159,
			"0.001": 19.7911774125,
			"0.002": 30.9132504001,
			"0.003": 27.3113974608,
			"0.004": 20.650598019,
			"0.005": 24.1747926244,
			"0.006": 10.3991450377,
			"0.007": 1.60695769816,
			"0.008": 1.16301988583,
			"0.009": 0.952729227156,
			"0.01": 0.432705207413,
			"0.011": 1.0396301111,
			"0.012": 0.288106323195,
			"0.013": 0.0,
			"0.014": 0.0,
			"0.015": 0.0,
			"0.016": 0.0,
			"0.017": 0.0,
			"0.018": 0.0,
			"0.019": 0.0,
			"0.02": 0.0,
			"0.021": 0.0,
			"0.022": 0.0,
			"0.023": 0.0,
			"0.024": 0.0,
			"0.025": 0.0
		}
	}
}
