{
	 "smiles": "CN(C)CC=C", 
	 "Tm": 273.15, 
	 "num_atms": 17, 
	 "gaussian": { 
		 "optdone": 1, 
		 "sigma_profile": "yes", 
		 "theory": "DFT", 
		 "functional": "B3LYP", 
		 "basiset": "6-31G**", 
		 "properties": { 
			 "R2extent": 890.7083, 
			 "electric_dipole_moment_norm": 0.556543125014, 
			 "electric_quadrupole_moment_norm": 2.78781491674, 
			 "total_energy": -251.874224592, 
			 "HOMO_LUMO_gap": 0.21997, 
			 "cosmo_polarized_energy": -3.14, 
			 "cosmo_cavitation_energy": 19.35, 
			 "cosmo_dispersion_energy": -13.75, 
			 "cosmo_repulsion_energy": 1.18, 
			 "cosmo_total_nonelectrostatic_energy": 6.78, 
			 "SMD_solvation_energy": 1.77 
		},
		"coords": [
			{
				"x": -0.2964210269,
				"y": 1.3470210641,
				"z": -0.8317721457,
				"element": "C" 
			},
			{
				"x": 1.0174285913,
				"y": 1.1003675206,
				"z": -0.2550833566,
				"element": "N" 
			},
			{
				"x": 0.9704543767,
				"y": 0.9594555137,
				"z": 1.1924831885,
				"element": "C" 
			},
			{
				"x": 1.7598512573,
				"y": 0.0325236538,
				"z": -0.9349958838,
				"element": "C" 
			},
			{
				"x": 1.1462261365,
				"y": -1.350860138,
				"z": -0.8885707475,
				"element": "C" 
			},
			{
				"x": 0.7634394239,
				"y": -2.0419858226,
				"z": -1.962683845,
				"element": "C" 
			},
			{
				"x": -0.1983284457,
				"y": 1.5231933144,
				"z": -1.9083572762,
				"element": "H" 
			},
			{
				"x": -0.7256514077,
				"y": 2.2483467639,
				"z": -0.3806693832,
				"element": "H" 
			},
			{
				"x": -1.0150570628,
				"y": 0.5196368204,
				"z": -0.6906660829,
				"element": "H" 
			},
			{
				"x": 0.3492089486,
				"y": 0.1179177699,
				"z": 1.5523577284,
				"element": "H" 
			},
			{
				"x": 1.9845479837,
				"y": 0.8218446257,
				"z": 1.5831065772,
				"element": "H" 
			},
			{
				"x": 0.5632139815,
				"y": 1.8764160331,
				"z": 1.63292035,
				"element": "H" 
			},
			{
				"x": 1.8916300851,
				"y": 0.3290684932,
				"z": -1.9833638582,
				"element": "H" 
			},
			{
				"x": 2.7616564224,
				"y": 0.0004940424,
				"z": -0.4840532442,
				"element": "H" 
			},
			{
				"x": 1.0151951038,
				"y": -1.7930851175,
				"z": 0.0992420741,
				"element": "H" 
			},
			{
				"x": 0.8782485119,
				"y": -1.6392306433,
				"z": -2.9672887237,
				"element": "H" 
			},
			{
				"x": 0.3309571205,
				"y": -3.0357238939,
				"z": -1.885705371,
				"element": "H" 
			}
		],
		 "valence_orbital": [ 
			{
				"type": "occ",
				"energy": -0.36097,
				"method": "rhf"
			},
			{
				"type": "occ",
				"energy": -0.35468,
				"method": "rhf"
			},
			{
				"type": "occ",
				"energy": -0.34687,
				"method": "rhf"
			},
			{
				"type": "occ",
				"energy": -0.25898,
				"method": "rhf"
			},
			{
				"type": "occ",
				"energy": -0.20319,
				"method": "rhf"
			},
			{
				"type": "unocc",
				"energy": 0.01678,
				"method": "rhf"
			},
			{
				"type": "unocc",
				"energy": 0.09292,
				"method": "rhf"
			},
			{
				"type": "unocc",
				"energy": 0.11744,
				"method": "rhf"
			},
			{
				"type": "unocc",
				"energy": 0.1344,
				"method": "rhf"
			},
			{
				"type": "unocc",
				"energy": 0.13941,
				"method": "rhf"
			}
		],
		"cosmo_sigma_profile": { 
			"-0.025": 0.0,
			"-0.024": 0.0,
			"-0.023": 0.0,
			"-0.022": 0.0,
			"-0.021": 0.0,
			"-0.02": 0.0,
			"-0.019": 0.0,
			"-0.018": 0.0,
			"-0.017": 0.0,
			"-0.016": 0.0,
			"-0.015": 0.0,
			"-0.014": 0.0,
			"-0.013": 0.0,
			"-0.012": 0.0,
			"-0.011": 0.0,
			"-0.01": 0.0,
			"-0.009": 0.0,
			"-0.008": 0.0,
			"-0.007": 0.0,
			"-0.006": 0.0130540970641,
			"-0.005": 1.81493200395,
			"-0.004": 12.1195276746,
			"-0.003": 21.8131586885,
			"-0.002": 21.3236559007,
			"-0.001": 21.9992799784,
			"0.0": 25.5845221051,
			"0.001": 12.8052882919,
			"0.002": 5.75509548806,
			"0.003": 6.39955431193,
			"0.004": 4.81370115185,
			"0.005": 4.39679708981,
			"0.006": 4.09975017904,
			"0.007": 1.7536313126,
			"0.008": 0.983115503191,
			"0.009": 0.635689536624,
			"0.01": 0.632862090187,
			"0.011": 0.449812555888,
			"0.012": 0.92176930046,
			"0.013": 0.81075769524,
			"0.014": 0.283242576895,
			"0.015": 0.353307039231,
			"0.016": 0.299891824395,
			"0.017": 0.310982114467,
			"0.018": 0.0,
			"0.019": 0.0,
			"0.02": 0.0,
			"0.021": 0.0,
			"0.022": 0.0,
			"0.023": 0.0,
			"0.024": 0.0,
			"0.025": 0.0
		}
	}
}
