{
	 "smiles": "NC(=O)C1=CC(CC#N)=CC=C1", 
	 "Tm": 431.15, 
	 "num_atms": 20, 
	 "gaussian": { 
		 "optdone": 1, 
		 "sigma_profile": "yes", 
		 "theory": "DFT", 
		 "functional": "B3LYP", 
		 "basiset": "6-31G**", 
		 "properties": { 
			 "R2extent": 2582.8352, 
			 "electric_dipole_moment_norm": 3.86072678391, 
			 "electric_quadrupole_moment_norm": 24.667218734, 
			 "total_energy": -532.50834394, 
			 "HOMO_LUMO_gap": 0.20953, 
			 "cosmo_polarized_energy": -18.2, 
			 "cosmo_cavitation_energy": 25.55, 
			 "cosmo_dispersion_energy": -18.19, 
			 "cosmo_repulsion_energy": 1.46, 
			 "cosmo_total_nonelectrostatic_energy": 8.82, 
			 "SMD_solvation_energy": 6.43 
		},
		"coords": [
			{
				"x": 3.4045405406,
				"y": 0.7894537294,
				"z": -1.8130538077,
				"element": "N" 
			},
			{
				"x": 2.7316583446,
				"y": -0.0713577104,
				"z": -0.9809003547,
				"element": "C" 
			},
			{
				"x": 3.275641073,
				"y": -1.0523050284,
				"z": -0.4885025089,
				"element": "O" 
			},
			{
				"x": 1.2961409332,
				"y": 0.269668005,
				"z": -0.6864662665,
				"element": "C" 
			},
			{
				"x": 0.5026060973,
				"y": -0.7453368785,
				"z": -0.1430005562,
				"element": "C" 
			},
			{
				"x": -0.8422975839,
				"y": -0.5226503793,
				"z": 0.1590326998,
				"element": "C" 
			},
			{
				"x": -1.6473436256,
				"y": -1.6637096017,
				"z": 0.7742541868,
				"element": "C" 
			},
			{
				"x": -3.0983026384,
				"y": -1.4638303398,
				"z": 0.7576808615,
				"element": "C" 
			},
			{
				"x": -4.2465031747,
				"y": -1.2958995342,
				"z": 0.7477151456,
				"element": "N" 
			},
			{
				"x": -1.3954662489,
				"y": 0.7395753154,
				"z": -0.0806890591,
				"element": "C" 
			},
			{
				"x": -0.6056333909,
				"y": 1.7632865953,
				"z": -0.6075026181,
				"element": "C" 
			},
			{
				"x": 0.7353334741,
				"y": 1.5349655183,
				"z": -0.9097495855,
				"element": "C" 
			},
			{
				"x": 2.902151553,
				"y": 1.381256701,
				"z": -2.455726275,
				"element": "H" 
			},
			{
				"x": 4.3269903163,
				"y": 0.4883181908,
				"z": -2.0928503254,
				"element": "H" 
			},
			{
				"x": 0.9691469208,
				"y": -1.7093643338,
				"z": 0.0374689023,
				"element": "H" 
			},
			{
				"x": -1.3422258381,
				"y": -1.8163915739,
				"z": 1.8181552444,
				"element": "H" 
			},
			{
				"x": -1.4260534415,
				"y": -2.6019635422,
				"z": 0.2521939178,
				"element": "H" 
			},
			{
				"x": -2.4418107044,
				"y": 0.9235488398,
				"z": 0.1437616588,
				"element": "H" 
			},
			{
				"x": -1.039916177,
				"y": 2.7440886798,
				"z": -0.7761067891,
				"element": "H" 
			},
			{
				"x": 1.3446435705,
				"y": 2.3509473475,
				"z": -1.2865144708,
				"element": "H" 
			}
		],
		 "valence_orbital": [ 
			{
				"type": "occ",
				"energy": -0.33064,
				"method": "rhf"
			},
			{
				"type": "occ",
				"energy": -0.28049,
				"method": "rhf"
			},
			{
				"type": "occ",
				"energy": -0.26979,
				"method": "rhf"
			},
			{
				"type": "occ",
				"energy": -0.26593,
				"method": "rhf"
			},
			{
				"type": "occ",
				"energy": -0.25709,
				"method": "rhf"
			},
			{
				"type": "unocc",
				"energy": -0.04756,
				"method": "rhf"
			},
			{
				"type": "unocc",
				"energy": -0.02493,
				"method": "rhf"
			},
			{
				"type": "unocc",
				"energy": 0.02707,
				"method": "rhf"
			},
			{
				"type": "unocc",
				"energy": 0.03705,
				"method": "rhf"
			},
			{
				"type": "unocc",
				"energy": 0.04832,
				"method": "rhf"
			}
		],
		"cosmo_sigma_profile": { 
			"-0.025": 0.0,
			"-0.024": 0.0,
			"-0.023": 0.0,
			"-0.022": 0.0,
			"-0.021": 0.0,
			"-0.02": 0.0,
			"-0.019": 0.0,
			"-0.018": 0.0,
			"-0.017": 0.0,
			"-0.016": 0.0,
			"-0.015": 0.104767430271,
			"-0.014": 1.68202315528,
			"-0.013": 2.67791732908,
			"-0.012": 2.35368996458,
			"-0.011": 2.35110281062,
			"-0.01": 2.8402954716,
			"-0.009": 7.33314052031,
			"-0.008": 8.3352376821,
			"-0.007": 9.23543731646,
			"-0.006": 12.7799808295,
			"-0.005": 11.2665826457,
			"-0.004": 10.0609863415,
			"-0.003": 9.05294231131,
			"-0.002": 9.77230117197,
			"-0.001": 9.76306064004,
			"0.0": 10.6479759858,
			"0.001": 10.7021084285,
			"0.002": 12.796340237,
			"0.003": 13.9663470623,
			"0.004": 10.6865638192,
			"0.005": 4.25188578567,
			"0.006": 3.80145352513,
			"0.007": 5.44084206003,
			"0.008": 5.47956319344,
			"0.009": 3.7107728326,
			"0.01": 4.86351191097,
			"0.011": 4.50713330467,
			"0.012": 4.42263472643,
			"0.013": 6.2656640427,
			"0.014": 3.58703154851,
			"0.015": 0.18070771268,
			"0.016": 0.0,
			"0.017": 0.0,
			"0.018": 0.0,
			"0.019": 0.0,
			"0.02": 0.0,
			"0.021": 0.0,
			"0.022": 0.0,
			"0.023": 0.0,
			"0.024": 0.0,
			"0.025": 0.0
		}
	}
}
