{
	 "smiles": "NC(=O)COC1=CC=C(N)C=C1", 
	 "Tm": 398.15, 
	 "num_atms": 22, 
	 "gaussian": { 
		 "optdone": 1, 
		 "sigma_profile": "yes", 
		 "theory": "DFT", 
		 "functional": "B3LYP", 
		 "basiset": "6-31G**", 
		 "properties": { 
			 "R2extent": 2717.4271, 
			 "electric_dipole_moment_norm": 4.04547991838, 
			 "electric_quadrupole_moment_norm": 10.7499520083, 
			 "total_energy": -570.83352489, 
			 "HOMO_LUMO_gap": 0.18781, 
			 "cosmo_polarized_energy": -16.86, 
			 "cosmo_cavitation_energy": 26.11, 
			 "cosmo_dispersion_energy": -19.17, 
			 "cosmo_repulsion_energy": 1.57, 
			 "cosmo_total_nonelectrostatic_energy": 8.5, 
			 "SMD_solvation_energy": 5.37 
		},
		"coords": [
			{
				"x": 2.9298741781,
				"y": -0.3100140721,
				"z": -2.2211206837,
				"element": "N" 
			},
			{
				"x": 3.1425138331,
				"y": -0.7870046861,
				"z": -0.966163315,
				"element": "C" 
			},
			{
				"x": 3.6159102289,
				"y": -1.8847178355,
				"z": -0.710941346,
				"element": "O" 
			},
			{
				"x": 2.8049543868,
				"y": 0.2077223991,
				"z": 0.1533167214,
				"element": "C" 
			},
			{
				"x": 1.887926182,
				"y": 1.225497746,
				"z": -0.2210768351,
				"element": "O" 
			},
			{
				"x": 0.5366353183,
				"y": 0.9261644922,
				"z": -0.1866317846,
				"element": "C" 
			},
			{
				"x": 0.00744328,
				"y": -0.3596288339,
				"z": -0.0518899514,
				"element": "C" 
			},
			{
				"x": -1.3773578914,
				"y": -0.5436886883,
				"z": -0.0413495222,
				"element": "C" 
			},
			{
				"x": -2.2583938029,
				"y": 0.5385201322,
				"z": -0.1681169704,
				"element": "C" 
			},
			{
				"x": -3.6468477665,
				"y": 0.3561408766,
				"z": -0.0944889221,
				"element": "N" 
			},
			{
				"x": -1.7078183007,
				"y": 1.8250595409,
				"z": -0.3089130291,
				"element": "C" 
			},
			{
				"x": -0.3313506658,
				"y": 2.0155251941,
				"z": -0.3160943142,
				"element": "C" 
			},
			{
				"x": 3.0919096175,
				"y": -0.9228733799,
				"z": -3.0050089039,
				"element": "H" 
			},
			{
				"x": 2.4534162354,
				"y": 0.5681932494,
				"z": -2.35532787,
				"element": "H" 
			},
			{
				"x": 2.4615791763,
				"y": -0.3597657905,
				"z": 1.0239502752,
				"element": "H" 
			},
			{
				"x": 3.729360007,
				"y": 0.7258260911,
				"z": 0.4292153814,
				"element": "H" 
			},
			{
				"x": 0.6509620696,
				"y": -1.2280984573,
				"z": 0.0335635659,
				"element": "H" 
			},
			{
				"x": -1.7752554235,
				"y": -1.5494963823,
				"z": 0.0684254997,
				"element": "H" 
			},
			{
				"x": -4.1880376183,
				"y": 1.0667923468,
				"z": -0.5687410142,
				"element": "H" 
			},
			{
				"x": -3.9609841035,
				"y": -0.5702894658,
				"z": -0.3512131626,
				"element": "H" 
			},
			{
				"x": -2.3678471782,
				"y": 2.6840777272,
				"z": -0.4015933664,
				"element": "H" 
			},
			{
				"x": 0.0910082379,
				"y": 3.0102577963,
				"z": -0.4175004528,
				"element": "H" 
			}
		],
		 "valence_orbital": [ 
			{
				"type": "occ",
				"energy": -0.28813,
				"method": "rhf"
			},
			{
				"type": "occ",
				"energy": -0.26764,
				"method": "rhf"
			},
			{
				"type": "occ",
				"energy": -0.25086,
				"method": "rhf"
			},
			{
				"type": "occ",
				"energy": -0.24489,
				"method": "rhf"
			},
			{
				"type": "occ",
				"energy": -0.19138,
				"method": "rhf"
			},
			{
				"type": "unocc",
				"energy": -0.00357,
				"method": "rhf"
			},
			{
				"type": "unocc",
				"energy": 0.02434,
				"method": "rhf"
			},
			{
				"type": "unocc",
				"energy": 0.02808,
				"method": "rhf"
			},
			{
				"type": "unocc",
				"energy": 0.0784,
				"method": "rhf"
			},
			{
				"type": "unocc",
				"energy": 0.08726,
				"method": "rhf"
			}
		],
		"cosmo_sigma_profile": { 
			"-0.025": 0.0,
			"-0.024": 0.0,
			"-0.023": 0.0,
			"-0.022": 0.0,
			"-0.021": 0.0,
			"-0.02": 0.0,
			"-0.019": 0.0,
			"-0.018": 0.0,
			"-0.017": 0.0,
			"-0.016": 0.0,
			"-0.015": 0.124785582445,
			"-0.014": 0.94046410017,
			"-0.013": 2.06329894403,
			"-0.012": 3.33508128863,
			"-0.011": 4.54364594182,
			"-0.01": 4.78176777921,
			"-0.009": 5.33547551562,
			"-0.008": 6.03496111231,
			"-0.007": 7.94173965779,
			"-0.006": 10.8518492528,
			"-0.005": 13.9534593239,
			"-0.004": 13.1023188556,
			"-0.003": 11.2279630775,
			"-0.002": 10.0251499581,
			"-0.001": 8.36623156281,
			"0.0": 9.12325596124,
			"0.001": 8.97835188432,
			"0.002": 9.65487495178,
			"0.003": 10.5181892756,
			"0.004": 10.6649322166,
			"0.005": 10.6038679803,
			"0.006": 12.9164075861,
			"0.007": 5.69344336314,
			"0.008": 3.1337589307,
			"0.009": 2.75510909883,
			"0.01": 1.92254587802,
			"0.011": 2.42782485843,
			"0.012": 3.12762149619,
			"0.013": 4.25266120687,
			"0.014": 6.12491809251,
			"0.015": 1.76820793049,
			"0.016": 0.0960817031016,
			"0.017": 0.0,
			"0.018": 0.0,
			"0.019": 0.0,
			"0.02": 0.0,
			"0.021": 0.0,
			"0.022": 0.0,
			"0.023": 0.0,
			"0.024": 0.0,
			"0.025": 0.0
		}
	}
}
