{
	 "smiles": "ClC1=CC=CC(OC2=CC=C(C=C2)S(Cl)(=O)=O)=C1C#N", 
	 "Tm": 411.15, 
	 "num_atms": 27, 
	 "gaussian": { 
		 "optdone": 1, 
		 "sigma_profile": "yes", 
		 "theory": "DFT", 
		 "functional": "B3LYP", 
		 "basiset": "6-31G**", 
		 "properties": { 
			 "R2extent": 12622.1088, 
			 "electric_dipole_moment_norm": 6.30260890346, 
			 "electric_quadrupole_moment_norm": 24.6738687862, 
			 "total_energy": -2098.49533096, 
			 "HOMO_LUMO_gap": 0.17282, 
			 "cosmo_polarized_energy": -17.88, 
			 "cosmo_cavitation_energy": 39.32, 
			 "cosmo_dispersion_energy": -27.84, 
			 "cosmo_repulsion_energy": 2.11, 
			 "cosmo_total_nonelectrostatic_energy": 13.58, 
			 "SMD_solvation_energy": 6.55 
		},
		"coords": [
			{
				"x": -4.7151859526,
				"y": 2.3360670598,
				"z": -2.1303830577,
				"element": "Cl" 
			},
			{
				"x": -3.3309002097,
				"y": 1.3719112476,
				"z": -1.6945530414,
				"element": "C" 
			},
			{
				"x": -3.5173086721,
				"y": 0.0472519923,
				"z": -1.3087855153,
				"element": "C" 
			},
			{
				"x": -2.4092771278,
				"y": -0.7269928718,
				"z": -0.962451245,
				"element": "C" 
			},
			{
				"x": -1.1208152665,
				"y": -0.1968562577,
				"z": -0.9979466037,
				"element": "C" 
			},
			{
				"x": -0.9428203448,
				"y": 1.1325710097,
				"z": -1.3771194971,
				"element": "C" 
			},
			{
				"x": 0.3000879166,
				"y": 1.7004641291,
				"z": -1.5182932637,
				"element": "O" 
			},
			{
				"x": 1.2806284087,
				"y": 1.5420947467,
				"z": -0.5674654888,
				"element": "C" 
			},
			{
				"x": 1.0036369401,
				"y": 1.3817840979,
				"z": 0.7954223083,
				"element": "C" 
			},
			{
				"x": 2.0593679685,
				"y": 1.2851728257,
				"z": 1.6969115627,
				"element": "C" 
			},
			{
				"x": 3.3691526149,
				"y": 1.3540925726,
				"z": 1.2195736798,
				"element": "C" 
			},
			{
				"x": 3.6525602297,
				"y": 1.5272623533,
				"z": -0.1377079846,
				"element": "C" 
			},
			{
				"x": 2.5970007607,
				"y": 1.6190521299,
				"z": -1.0363774575,
				"element": "C" 
			},
			{
				"x": 4.7172346594,
				"y": 1.2009446331,
				"z": 2.3735449289,
				"element": "S" 
			},
			{
				"x": 5.0479188645,
				"y": 3.2354401293,
				"z": 2.9230919673,
				"element": "Cl" 
			},
			{
				"x": 5.915052868,
				"y": 0.7755376477,
				"z": 1.6603380151,
				"element": "O" 
			},
			{
				"x": 4.2445858924,
				"y": 0.5296385544,
				"z": 3.5781461138,
				"element": "O" 
			},
			{
				"x": -2.0422056059,
				"y": 1.942273223,
				"z": -1.7309957719,
				"element": "C" 
			},
			{
				"x": -1.823937196,
				"y": 3.3027013038,
				"z": -2.112437267,
				"element": "C" 
			},
			{
				"x": -1.6380392571,
				"y": 4.4094516731,
				"z": -2.4158062462,
				"element": "N" 
			},
			{
				"x": -4.5176657266,
				"y": -0.3682457657,
				"z": -1.2865932883,
				"element": "H" 
			},
			{
				"x": -2.5527292715,
				"y": -1.762692496,
				"z": -0.671299201,
				"element": "H" 
			},
			{
				"x": -0.2596673692,
				"y": -0.8051511461,
				"z": -0.746454443,
				"element": "H" 
			},
			{
				"x": -0.0203079164,
				"y": 1.3390319023,
				"z": 1.1476471129,
				"element": "H" 
			},
			{
				"x": 1.8712906077,
				"y": 1.1555637017,
				"z": 2.7567367233,
				"element": "H" 
			},
			{
				"x": 4.6801413685,
				"y": 1.5726548918,
				"z": -0.480086821,
				"element": "H" 
			},
			{
				"x": 2.7702008165,
				"y": 1.7493767125,
				"z": -2.098656219,
				"element": "H" 
			}
		],
		 "valence_orbital": [ 
			{
				"type": "occ",
				"energy": -0.31597,
				"method": "rhf"
			},
			{
				"type": "occ",
				"energy": -0.30141,
				"method": "rhf"
			},
			{
				"type": "occ",
				"energy": -0.29489,
				"method": "rhf"
			},
			{
				"type": "occ",
				"energy": -0.28257,
				"method": "rhf"
			},
			{
				"type": "occ",
				"energy": -0.26634,
				"method": "rhf"
			},
			{
				"type": "unocc",
				"energy": -0.09352,
				"method": "rhf"
			},
			{
				"type": "unocc",
				"energy": -0.07704,
				"method": "rhf"
			},
			{
				"type": "unocc",
				"energy": -0.05586,
				"method": "rhf"
			},
			{
				"type": "unocc",
				"energy": -0.04796,
				"method": "rhf"
			},
			{
				"type": "unocc",
				"energy": -0.0394,
				"method": "rhf"
			}
		],
		"cosmo_sigma_profile": { 
			"-0.025": 0.0,
			"-0.024": 0.0,
			"-0.023": 0.0,
			"-0.022": 0.0,
			"-0.021": 0.0,
			"-0.02": 0.0,
			"-0.019": 0.0,
			"-0.018": 0.0,
			"-0.017": 0.0,
			"-0.016": 0.0,
			"-0.015": 0.0,
			"-0.014": 0.0,
			"-0.013": 0.0,
			"-0.012": 0.0,
			"-0.011": 0.0,
			"-0.01": 0.0,
			"-0.009": 5.5118437435,
			"-0.008": 14.8498919417,
			"-0.007": 15.8538056619,
			"-0.006": 13.1675409455,
			"-0.005": 13.0745869076,
			"-0.004": 13.4700023348,
			"-0.003": 19.3168198352,
			"-0.002": 24.9132860499,
			"-0.001": 30.5422485082,
			"0.0": 33.4340140815,
			"0.001": 27.3021112236,
			"0.002": 17.6675680122,
			"0.003": 26.4954067299,
			"0.004": 14.484603509,
			"0.005": 8.17117405616,
			"0.006": 6.67583546608,
			"0.007": 9.72678899935,
			"0.008": 12.9743047635,
			"0.009": 8.05073595186,
			"0.01": 2.94934179595,
			"0.011": 2.43598089778,
			"0.012": 2.22513788294,
			"0.013": 0.345548166745,
			"0.014": 0.0,
			"0.015": 0.0,
			"0.016": 0.0,
			"0.017": 0.0,
			"0.018": 0.0,
			"0.019": 0.0,
			"0.02": 0.0,
			"0.021": 0.0,
			"0.022": 0.0,
			"0.023": 0.0,
			"0.024": 0.0,
			"0.025": 0.0
		}
	}
}
