{
	 "smiles": "NC1=NC(N)=NC(=C1)C1=CC=CC=C1", 
	 "Tm": 427.15, 
	 "num_atms": 24, 
	 "gaussian": { 
		 "optdone": 1, 
		 "sigma_profile": "yes", 
		 "theory": "DFT", 
		 "functional": "B3LYP", 
		 "basiset": "6-31G**", 
		 "properties": { 
			 "R2extent": 3649.6104, 
			 "electric_dipole_moment_norm": 2.16701594826, 
			 "electric_quadrupole_moment_norm": 15.5205530011, 
			 "total_energy": -606.133821078, 
			 "HOMO_LUMO_gap": 0.17364, 
			 "cosmo_polarized_energy": -14.92, 
			 "cosmo_cavitation_energy": 28.26, 
			 "cosmo_dispersion_energy": -21.27, 
			 "cosmo_repulsion_energy": 1.69, 
			 "cosmo_total_nonelectrostatic_energy": 8.67, 
			 "SMD_solvation_energy": 2.23 
		},
		"coords": [
			{
				"x": -0.1770387491,
				"y": -1.0828413805,
				"z": 3.3887613433,
				"element": "N" 
			},
			{
				"x": -0.5607204196,
				"y": -0.2962189971,
				"z": 2.3319123556,
				"element": "C" 
			},
			{
				"x": -0.8813611307,
				"y": 0.9707136671,
				"z": 2.6221818675,
				"element": "N" 
			},
			{
				"x": -1.3137729552,
				"y": 1.7126446354,
				"z": 1.5874375223,
				"element": "C" 
			},
			{
				"x": -1.7094796979,
				"y": 2.990607635,
				"z": 1.8822001487,
				"element": "N" 
			},
			{
				"x": -1.4154061594,
				"y": 1.33636255,
				"z": 0.3042156324,
				"element": "N" 
			},
			{
				"x": -1.071105396,
				"y": 0.0630290595,
				"z": 0.0269556435,
				"element": "C" 
			},
			{
				"x": -0.6461367094,
				"y": -0.8130829768,
				"z": 1.0239370486,
				"element": "C" 
			},
			{
				"x": -1.1857405786,
				"y": -0.355833738,
				"z": -1.396798601,
				"element": "C" 
			},
			{
				"x": -0.5093430706,
				"y": -1.4798652829,
				"z": -1.8972682629,
				"element": "C" 
			},
			{
				"x": -0.6410443706,
				"y": -1.8545944579,
				"z": -3.2335054079,
				"element": "C" 
			},
			{
				"x": -1.4514074169,
				"y": -1.1116797841,
				"z": -4.0942870341,
				"element": "C" 
			},
			{
				"x": -2.1219764639,
				"y": 0.0136987394,
				"z": -3.6096018836,
				"element": "C" 
			},
			{
				"x": -1.9871050576,
				"y": 0.3909548017,
				"z": -2.275394392,
				"element": "C" 
			},
			{
				"x": 0.3592348292,
				"y": -1.9147861442,
				"z": 3.2003346476,
				"element": "H" 
			},
			{
				"x": 0.0432984276,
				"y": -0.5874209864,
				"z": 4.2400057746,
				"element": "H" 
			},
			{
				"x": -1.7893369406,
				"y": 3.6252333185,
				"z": 1.1037126101,
				"element": "H" 
			},
			{
				"x": -1.4129391823,
				"y": 3.3629833259,
				"z": 2.7701358622,
				"element": "H" 
			},
			{
				"x": -0.4172130102,
				"y": -1.8519928165,
				"z": 0.8225178332,
				"element": "H" 
			},
			{
				"x": 0.1447681888,
				"y": -2.0536349262,
				"z": -1.2483522958,
				"element": "H" 
			},
			{
				"x": -0.1044450463,
				"y": -2.72338882,
				"z": -3.6043261702,
				"element": "H" 
			},
			{
				"x": -1.5548609768,
				"y": -1.4046470241,
				"z": -5.1352929119,
				"element": "H" 
			},
			{
				"x": -2.7522550603,
				"y": 0.5988486946,
				"z": -4.2735503383,
				"element": "H" 
			},
			{
				"x": -2.4961130535,
				"y": 1.2657109075,
				"z": -1.887230992,
				"element": "H" 
			}
		],
		 "valence_orbital": [ 
			{
				"type": "occ",
				"energy": -0.24791,
				"method": "rhf"
			},
			{
				"type": "occ",
				"energy": -0.24647,
				"method": "rhf"
			},
			{
				"type": "occ",
				"energy": -0.23861,
				"method": "rhf"
			},
			{
				"type": "occ",
				"energy": -0.23346,
				"method": "rhf"
			},
			{
				"type": "occ",
				"energy": -0.20811,
				"method": "rhf"
			},
			{
				"type": "unocc",
				"energy": -0.03447,
				"method": "rhf"
			},
			{
				"type": "unocc",
				"energy": 0.00279,
				"method": "rhf"
			},
			{
				"type": "unocc",
				"energy": 0.02314,
				"method": "rhf"
			},
			{
				"type": "unocc",
				"energy": 0.0429,
				"method": "rhf"
			},
			{
				"type": "unocc",
				"energy": 0.0843,
				"method": "rhf"
			}
		],
		"cosmo_sigma_profile": { 
			"-0.025": 0.0,
			"-0.024": 0.0,
			"-0.023": 0.0,
			"-0.022": 0.0,
			"-0.021": 0.0,
			"-0.02": 0.0,
			"-0.019": 0.0,
			"-0.018": 0.0,
			"-0.017": 0.0,
			"-0.016": 0.0,
			"-0.015": 0.0,
			"-0.014": 0.510243938788,
			"-0.013": 3.65192991787,
			"-0.012": 4.04079015543,
			"-0.011": 4.72322834348,
			"-0.01": 4.25138643318,
			"-0.009": 4.36470441445,
			"-0.008": 3.72619328149,
			"-0.007": 6.82638251588,
			"-0.006": 8.67263598816,
			"-0.005": 12.5797283147,
			"-0.004": 13.1094859844,
			"-0.003": 11.5543623125,
			"-0.002": 10.8405075389,
			"-0.001": 8.69657819515,
			"0.0": 10.7994293745,
			"0.001": 12.0092258368,
			"0.002": 18.0866492642,
			"0.003": 18.924049246,
			"0.004": 16.7361435053,
			"0.005": 17.6892611927,
			"0.006": 8.04572548828,
			"0.007": 6.34472743416,
			"0.008": 4.81777214318,
			"0.009": 4.06433784318,
			"0.01": 4.27383425043,
			"0.011": 2.32715446101,
			"0.012": 2.09036598476,
			"0.013": 1.0958535693,
			"0.014": 0.631314460527,
			"0.015": 0.0110109153036,
			"0.016": 0.0,
			"0.017": 0.0,
			"0.018": 0.0,
			"0.019": 0.0,
			"0.02": 0.0,
			"0.021": 0.0,
			"0.022": 0.0,
			"0.023": 0.0,
			"0.024": 0.0,
			"0.025": 0.0
		}
	}
}
