{
	 "smiles": "OC(=O)CCOC1=CC=C(OC2=CC=CC=C2)C=C1", 
	 "Tm": 392.15, 
	 "num_atms": 33, 
	 "gaussian": { 
		 "optdone": 1, 
		 "sigma_profile": "yes", 
		 "theory": "DFT", 
		 "functional": "B3LYP", 
		 "basiset": "6-31G**", 
		 "properties": { 
			 "R2extent": 8649.6193, 
			 "electric_dipole_moment_norm": 3.277017281, 
			 "electric_quadrupole_moment_norm": 26.9587420346, 
			 "total_energy": -880.915009484, 
			 "HOMO_LUMO_gap": 0.19358, 
			 "cosmo_polarized_energy": -19.13, 
			 "cosmo_cavitation_energy": 38.14, 
			 "cosmo_dispersion_energy": -27.16, 
			 "cosmo_repulsion_energy": 2.12, 
			 "cosmo_total_nonelectrostatic_energy": 13.1, 
			 "SMD_solvation_energy": 7.95 
		},
		"coords": [
			{
				"x": -3.3359292137,
				"y": -2.7971977599,
				"z": -3.8268948774,
				"element": "O" 
			},
			{
				"x": -3.5236142798,
				"y": -1.4621640253,
				"z": -3.6562410071,
				"element": "C" 
			},
			{
				"x": -3.6341903477,
				"y": -0.7375599228,
				"z": -4.6139068033,
				"element": "O" 
			},
			{
				"x": -3.5736607831,
				"y": -0.9823166341,
				"z": -2.2136539426,
				"element": "C" 
			},
			{
				"x": -3.8686114319,
				"y": 0.5180776643,
				"z": -2.1270959158,
				"element": "C" 
			},
			{
				"x": -3.9555538088,
				"y": 0.9569244176,
				"z": -0.775771513,
				"element": "O" 
			},
			{
				"x": -2.8101223206,
				"y": 1.2009114335,
				"z": -0.0633655331,
				"element": "C" 
			},
			{
				"x": -1.5084130778,
				"y": 1.1324819176,
				"z": -0.5763636151,
				"element": "C" 
			},
			{
				"x": -0.4173100409,
				"y": 1.426190113,
				"z": 0.2462706255,
				"element": "C" 
			},
			{
				"x": -0.6188957164,
				"y": 1.7730896641,
				"z": 1.5810459433,
				"element": "C" 
			},
			{
				"x": 0.4262547502,
				"y": 2.1515471817,
				"z": 2.4075475829,
				"element": "O" 
			},
			{
				"x": 1.5113655607,
				"y": 1.3188382954,
				"z": 2.5892624497,
				"element": "C" 
			},
			{
				"x": 1.4485431293,
				"y": -0.071130365,
				"z": 2.4503891716,
				"element": "C" 
			},
			{
				"x": 2.589210162,
				"y": -0.8340474354,
				"z": 2.7083645689,
				"element": "C" 
			},
			{
				"x": 3.780895591,
				"y": -0.2266521179,
				"z": 3.1064795162,
				"element": "C" 
			},
			{
				"x": 3.8274998871,
				"y": 1.162795241,
				"z": 3.2485105753,
				"element": "C" 
			},
			{
				"x": 2.6994278153,
				"y": 1.9384273326,
				"z": 2.9892612403,
				"element": "C" 
			},
			{
				"x": -1.9157610706,
				"y": 1.8398679864,
				"z": 2.096738457,
				"element": "C" 
			},
			{
				"x": -3.0037444827,
				"y": 1.5590485236,
				"z": 1.2785089901,
				"element": "C" 
			},
			{
				"x": -3.2694247846,
				"y": -3.2414159234,
				"z": -2.969522537,
				"element": "H" 
			},
			{
				"x": -4.345733426,
				"y": -1.5382087222,
				"z": -1.6664047426,
				"element": "H" 
			},
			{
				"x": -2.6185078992,
				"y": -1.2161422566,
				"z": -1.7261894161,
				"element": "H" 
			},
			{
				"x": -4.8461421977,
				"y": 0.7286228194,
				"z": -2.5649772231,
				"element": "H" 
			},
			{
				"x": -3.1308185992,
				"y": 1.0947842875,
				"z": -2.693547498,
				"element": "H" 
			},
			{
				"x": -1.3240483724,
				"y": 0.8721039631,
				"z": -1.6120301814,
				"element": "H" 
			},
			{
				"x": 0.5902957348,
				"y": 1.3865211981,
				"z": -0.1542951223,
				"element": "H" 
			},
			{
				"x": 0.5215529823,
				"y": -0.5464194748,
				"z": 2.1500084218,
				"element": "H" 
			},
			{
				"x": 2.5386476215,
				"y": -1.9141296662,
				"z": 2.6016754245,
				"element": "H" 
			},
			{
				"x": 4.6626318673,
				"y": -0.8279543286,
				"z": 3.3051639455,
				"element": "H" 
			},
			{
				"x": 4.7483470531,
				"y": 1.648505401,
				"z": 3.5586321296,
				"element": "H" 
			},
			{
				"x": 2.7158476161,
				"y": 3.0184849354,
				"z": 3.0919010781,
				"element": "H" 
			},
			{
				"x": -2.0561961489,
				"y": 2.1209623362,
				"z": 3.1352217416,
				"element": "H" 
			},
			{
				"x": -4.018441769,
				"y": 1.6118539206,
				"z": 1.6588780661,
				"element": "H" 
			}
		],
		 "valence_orbital": [ 
			{
				"type": "occ",
				"energy": -0.28305,
				"method": "rhf"
			},
			{
				"type": "occ",
				"energy": -0.26248,
				"method": "rhf"
			},
			{
				"type": "occ",
				"energy": -0.25253,
				"method": "rhf"
			},
			{
				"type": "occ",
				"energy": -0.23629,
				"method": "rhf"
			},
			{
				"type": "occ",
				"energy": -0.21052,
				"method": "rhf"
			},
			{
				"type": "unocc",
				"energy": -0.01694,
				"method": "rhf"
			},
			{
				"type": "unocc",
				"energy": -0.00166,
				"method": "rhf"
			},
			{
				"type": "unocc",
				"energy": -0.00041,
				"method": "rhf"
			},
			{
				"type": "unocc",
				"energy": 0.00214,
				"method": "rhf"
			},
			{
				"type": "unocc",
				"energy": 0.01506,
				"method": "rhf"
			}
		],
		"cosmo_sigma_profile": { 
			"-0.025": 0.0,
			"-0.024": 0.0,
			"-0.023": 0.0,
			"-0.022": 0.0,
			"-0.021": 0.0,
			"-0.02": 0.0520379496865,
			"-0.019": 0.805969420997,
			"-0.018": 1.30789242486,
			"-0.017": 1.04259134341,
			"-0.016": 1.13895892126,
			"-0.015": 0.97740008715,
			"-0.014": 1.46083195936,
			"-0.013": 0.852229023214,
			"-0.012": 0.839525539263,
			"-0.011": 1.33125076357,
			"-0.01": 1.65106247953,
			"-0.009": 2.38110717924,
			"-0.008": 4.58165460575,
			"-0.007": 8.64368224559,
			"-0.006": 18.4591929339,
			"-0.005": 22.6688832239,
			"-0.004": 20.4717520228,
			"-0.003": 21.5021709638,
			"-0.002": 17.5227781997,
			"-0.001": 15.2315746048,
			"0.0": 15.7698945915,
			"0.001": 17.7821523434,
			"0.002": 17.0638297477,
			"0.003": 23.1270427306,
			"0.004": 24.7304503078,
			"0.005": 18.6140044204,
			"0.006": 9.87244675606,
			"0.007": 5.40761103035,
			"0.008": 5.34194926862,
			"0.009": 5.82438701452,
			"0.01": 6.18040798869,
			"0.011": 5.89834114886,
			"0.012": 4.34421543982,
			"0.013": 1.18274201793,
			"0.014": 0.0,
			"0.015": 0.0,
			"0.016": 0.0,
			"0.017": 0.0,
			"0.018": 0.0,
			"0.019": 0.0,
			"0.02": 0.0,
			"0.021": 0.0,
			"0.022": 0.0,
			"0.023": 0.0,
			"0.024": 0.0,
			"0.025": 0.0
		}
	}
}
