{
	 "smiles": "CCOC(=O)C1=C(N)SC=C1C1=CC=C(OC)C=C1", 
	 "Tm": 348.15, 
	 "num_atms": 34, 
	 "gaussian": { 
		 "optdone": 1, 
		 "sigma_profile": "yes", 
		 "theory": "DFT", 
		 "functional": "B3LYP", 
		 "basiset": "6-31G**", 
		 "properties": { 
			 "R2extent": 7059.1118, 
			 "electric_dipole_moment_norm": 2.81815528493, 
			 "electric_quadrupole_moment_norm": 18.770830939, 
			 "total_energy": -1221.13737616, 
			 "HOMO_LUMO_gap": 0.17189, 
			 "cosmo_polarized_energy": -15.41, 
			 "cosmo_cavitation_energy": 39.15, 
			 "cosmo_dispersion_energy": -28.45, 
			 "cosmo_repulsion_energy": 2.18, 
			 "cosmo_total_nonelectrostatic_energy": 12.88, 
			 "SMD_solvation_energy": 7.88 
		},
		"coords": [
			{
				"x": -2.111106079,
				"y": 0.0193728852,
				"z": -3.9716064119,
				"element": "C" 
			},
			{
				"x": -2.5807526887,
				"y": -0.7836531628,
				"z": -2.7676841819,
				"element": "C" 
			},
			{
				"x": -1.469548578,
				"y": -1.4002354612,
				"z": -2.0760484463,
				"element": "O" 
			},
			{
				"x": -0.8221914197,
				"y": -0.6154262973,
				"z": -1.1448030377,
				"element": "C" 
			},
			{
				"x": -1.1809073641,
				"y": 0.5263045938,
				"z": -0.9271453392,
				"element": "O" 
			},
			{
				"x": 0.2822100117,
				"y": -1.3202973768,
				"z": -0.4851316746,
				"element": "C" 
			},
			{
				"x": 0.5915479673,
				"y": -2.666438827,
				"z": -0.6955325348,
				"element": "C" 
			},
			{
				"x": 0.0813568756,
				"y": -3.5450840335,
				"z": -1.6107504806,
				"element": "N" 
			},
			{
				"x": 1.8638233082,
				"y": -3.2107336413,
				"z": 0.3724342619,
				"element": "S" 
			},
			{
				"x": 1.9769446131,
				"y": -1.6295132455,
				"z": 1.1075768278,
				"element": "C" 
			},
			{
				"x": 1.1091727864,
				"y": -0.7282422822,
				"z": 0.5657694525,
				"element": "C" 
			},
			{
				"x": 1.0985537419,
				"y": 0.6739764552,
				"z": 1.0541915169,
				"element": "C" 
			},
			{
				"x": 1.0595100443,
				"y": 0.9320160397,
				"z": 2.4361006388,
				"element": "C" 
			},
			{
				"x": 1.1378493436,
				"y": 2.2268439044,
				"z": 2.9336262336,
				"element": "C" 
			},
			{
				"x": 1.2605625068,
				"y": 3.3098631269,
				"z": 2.0536634485,
				"element": "C" 
			},
			{
				"x": 1.3291052136,
				"y": 4.5451166554,
				"z": 2.6341765949,
				"element": "O" 
			},
			{
				"x": 1.433931326,
				"y": 5.6775698879,
				"z": 1.7880563479,
				"element": "C" 
			},
			{
				"x": 1.3019923595,
				"y": 3.0744293504,
				"z": 0.6734515521,
				"element": "C" 
			},
			{
				"x": 1.2193008855,
				"y": 1.7692451709,
				"z": 0.1900081585,
				"element": "C" 
			},
			{
				"x": -1.4977986466,
				"y": 0.8638690646,
				"z": -3.6493508512,
				"element": "H" 
			},
			{
				"x": -2.9759075911,
				"y": 0.4105089646,
				"z": -4.5182642615,
				"element": "H" 
			},
			{
				"x": -1.526264839,
				"y": -0.6042552927,
				"z": -4.6545013907,
				"element": "H" 
			},
			{
				"x": -3.2143505401,
				"y": -1.6222126418,
				"z": -3.0690467611,
				"element": "H" 
			},
			{
				"x": -3.1261781207,
				"y": -0.1527327539,
				"z": -2.0629543621,
				"element": "H" 
			},
			{
				"x": -0.7604329755,
				"y": -3.2295216517,
				"z": -2.0736454561,
				"element": "H" 
			},
			{
				"x": 0.1454589847,
				"y": -4.5299139885,
				"z": -1.4023316222,
				"element": "H" 
			},
			{
				"x": 2.7215610642,
				"y": -1.449477759,
				"z": 1.8688069662,
				"element": "H" 
			},
			{
				"x": 0.9491644296,
				"y": 0.1009867278,
				"z": 3.1265670382,
				"element": "H" 
			},
			{
				"x": 1.0974516571,
				"y": 2.4248236421,
				"z": 3.9998261733,
				"element": "H" 
			},
			{
				"x": 0.5693594279,
				"y": 5.7650848764,
				"z": 1.1171790588,
				"element": "H" 
			},
			{
				"x": 1.4645866692,
				"y": 6.5462804317,
				"z": 2.4479777989,
				"element": "H" 
			},
			{
				"x": 2.3513013063,
				"y": 5.6518816427,
				"z": 1.1852172741,
				"element": "H" 
			},
			{
				"x": 1.3964774143,
				"y": 3.8931403458,
				"z": -0.0300513933,
				"element": "H" 
			},
			{
				"x": 1.2494169058,
				"y": 1.6043246499,
				"z": -0.8809811378,
				"element": "H" 
			}
		],
		 "valence_orbital": [ 
			{
				"type": "occ",
				"energy": -0.26525,
				"method": "rhf"
			},
			{
				"type": "occ",
				"energy": -0.25192,
				"method": "rhf"
			},
			{
				"type": "occ",
				"energy": -0.23781,
				"method": "rhf"
			},
			{
				"type": "occ",
				"energy": -0.21156,
				"method": "rhf"
			},
			{
				"type": "occ",
				"energy": -0.19038,
				"method": "rhf"
			},
			{
				"type": "unocc",
				"energy": -0.01849,
				"method": "rhf"
			},
			{
				"type": "unocc",
				"energy": -0.00352,
				"method": "rhf"
			},
			{
				"type": "unocc",
				"energy": 0.0116,
				"method": "rhf"
			},
			{
				"type": "unocc",
				"energy": 0.01553,
				"method": "rhf"
			},
			{
				"type": "unocc",
				"energy": 0.04523,
				"method": "rhf"
			}
		],
		"cosmo_sigma_profile": { 
			"-0.025": 0.0,
			"-0.024": 0.0,
			"-0.023": 0.0,
			"-0.022": 0.0,
			"-0.021": 0.0,
			"-0.02": 0.0,
			"-0.019": 0.0,
			"-0.018": 0.0,
			"-0.017": 0.0,
			"-0.016": 0.0,
			"-0.015": 0.539955059571,
			"-0.014": 1.23223547081,
			"-0.013": 1.22537159715,
			"-0.012": 1.17492112177,
			"-0.011": 1.72687342983,
			"-0.01": 2.07480209854,
			"-0.009": 2.71654574967,
			"-0.008": 3.24900731399,
			"-0.007": 2.52371600943,
			"-0.006": 10.0298650544,
			"-0.005": 21.5649094112,
			"-0.004": 27.978612361,
			"-0.003": 30.9575857367,
			"-0.002": 23.1163765157,
			"-0.001": 21.9536823473,
			"0.0": 24.6977612617,
			"0.001": 20.6230293429,
			"0.002": 18.7084230651,
			"0.003": 23.2313366068,
			"0.004": 23.769894779,
			"0.005": 15.9283396609,
			"0.006": 8.70363116631,
			"0.007": 4.83168633723,
			"0.008": 3.82598027581,
			"0.009": 4.01146433633,
			"0.01": 4.5400926234,
			"0.011": 2.09752996516,
			"0.012": 2.80419774209,
			"0.013": 3.22150743973,
			"0.014": 0.237949215675,
			"0.015": 0.0,
			"0.016": 0.0,
			"0.017": 0.0,
			"0.018": 0.0,
			"0.019": 0.0,
			"0.02": 0.0,
			"0.021": 0.0,
			"0.022": 0.0,
			"0.023": 0.0,
			"0.024": 0.0,
			"0.025": 0.0
		}
	}
}
