{
	 "smiles": "O=C(CC(=O)NCC1=CC=CC=C1)NCC1=CC=CC=C1", 
	 "Tm": 393.15, 
	 "num_atms": 39, 
	 "gaussian": { 
		 "optdone": 1, 
		 "sigma_profile": "yes", 
		 "theory": "DFT", 
		 "functional": "B3LYP", 
		 "basiset": "6-31G**", 
		 "properties": { 
			 "R2extent": 7045.5195, 
			 "electric_dipole_moment_norm": 2.65707302497, 
			 "electric_quadrupole_moment_norm": 14.8219102349, 
			 "total_energy": -918.654109492, 
			 "HOMO_LUMO_gap": 0.22514, 
			 "cosmo_polarized_energy": -17.75, 
			 "cosmo_cavitation_energy": 43.46, 
			 "cosmo_dispersion_energy": -28.17, 
			 "cosmo_repulsion_energy": 2.15, 
			 "cosmo_total_nonelectrostatic_energy": 17.44, 
			 "SMD_solvation_energy": 6.66 
		},
		"coords": [
			{
				"x": -1.9878316656,
				"y": -0.6293474702,
				"z": 1.9552193789,
				"element": "O" 
			},
			{
				"x": -1.5152337461,
				"y": -1.4416662034,
				"z": 1.1662924775,
				"element": "C" 
			},
			{
				"x": -0.3699636443,
				"y": -2.3811271556,
				"z": 1.5973783004,
				"element": "C" 
			},
			{
				"x": 0.7309043661,
				"y": -2.5132663072,
				"z": 0.5522457577,
				"element": "C" 
			},
			{
				"x": 0.4944647426,
				"y": -2.9551953057,
				"z": -0.5758318058,
				"element": "O" 
			},
			{
				"x": 1.9693550129,
				"y": -2.1104991165,
				"z": 0.9409487416,
				"element": "N" 
			},
			{
				"x": 3.1014414062,
				"y": -2.0530487086,
				"z": 0.0164307547,
				"element": "C" 
			},
			{
				"x": 3.4287162871,
				"y": -0.6418176575,
				"z": -0.436274919,
				"element": "C" 
			},
			{
				"x": 2.46570955,
				"y": 0.1251224211,
				"z": -1.1087889243,
				"element": "C" 
			},
			{
				"x": 2.7599682491,
				"y": 1.4218104853,
				"z": -1.525683554,
				"element": "C" 
			},
			{
				"x": 4.0231699288,
				"y": 1.9688779406,
				"z": -1.2806607633,
				"element": "C" 
			},
			{
				"x": 4.9878006263,
				"y": 1.2122594432,
				"z": -0.6156774381,
				"element": "C" 
			},
			{
				"x": 4.6887265246,
				"y": -0.0858815855,
				"z": -0.1934687233,
				"element": "C" 
			},
			{
				"x": -1.9572027404,
				"y": -1.632128179,
				"z": -0.1032029805,
				"element": "N" 
			},
			{
				"x": -2.979810992,
				"y": -0.7760094203,
				"z": -0.6992823635,
				"element": "C" 
			},
			{
				"x": -2.4094966648,
				"y": 0.3887016743,
				"z": -1.4903687328,
				"element": "C" 
			},
			{
				"x": -2.4691660519,
				"y": 0.4077373872,
				"z": -2.8880293522,
				"element": "C" 
			},
			{
				"x": -1.9301061724,
				"y": 1.4743792238,
				"z": -3.6116299689,
				"element": "C" 
			},
			{
				"x": -1.3233955395,
				"y": 2.5364212186,
				"z": -2.9404634388,
				"element": "C" 
			},
			{
				"x": -1.2593378915,
				"y": 2.5267282626,
				"z": -1.5433706949,
				"element": "C" 
			},
			{
				"x": -1.7986608047,
				"y": 1.4614180099,
				"z": -0.8227935484,
				"element": "C" 
			},
			{
				"x": -0.7906947359,
				"y": -3.3816006784,
				"z": 1.7503426685,
				"element": "H" 
			},
			{
				"x": -0.0075909729,
				"y": -2.0124561523,
				"z": 2.5583658339,
				"element": "H" 
			},
			{
				"x": 2.0648346227,
				"y": -1.6497734409,
				"z": 1.8343720552,
				"element": "H" 
			},
			{
				"x": 2.8184274124,
				"y": -2.6785093639,
				"z": -0.8340401932,
				"element": "H" 
			},
			{
				"x": 3.9748404598,
				"y": -2.5085514839,
				"z": 0.495250439,
				"element": "H" 
			},
			{
				"x": 1.4846949118,
				"y": -0.2973568306,
				"z": -1.307131554,
				"element": "H" 
			},
			{
				"x": 2.0006021158,
				"y": 2.0020280552,
				"z": -2.0417906258,
				"element": "H" 
			},
			{
				"x": 4.2524932486,
				"y": 2.9793694314,
				"z": -1.6068071187,
				"element": "H" 
			},
			{
				"x": 5.9711468775,
				"y": 1.6307449993,
				"z": -0.4204147546,
				"element": "H" 
			},
			{
				"x": 5.4428431231,
				"y": -0.6716882436,
				"z": 0.3275036528,
				"element": "H" 
			},
			{
				"x": -1.3831869095,
				"y": -2.2241877953,
				"z": -0.6982681167,
				"element": "H" 
			},
			{
				"x": -3.5943487777,
				"y": -0.4092938951,
				"z": 0.1266897544,
				"element": "H" 
			},
			{
				"x": -3.6117529508,
				"y": -1.3938246258,
				"z": -1.3456288101,
				"element": "H" 
			},
			{
				"x": -2.9428642924,
				"y": -0.4172234601,
				"z": -3.4154851999,
				"element": "H" 
			},
			{
				"x": -1.9859124547,
				"y": 1.4750089751,
				"z": -4.6966280497,
				"element": "H" 
			},
			{
				"x": -0.9094146808,
				"y": 3.370463437,
				"z": -3.5003250152,
				"element": "H" 
			},
			{
				"x": -0.7968470186,
				"y": 3.3556680744,
				"z": -1.0145135654,
				"element": "H" 
			},
			{
				"x": -1.7554207589,
				"y": 1.4517140406,
				"z": 0.2627203967,
				"element": "H" 
			}
		],
		 "valence_orbital": [ 
			{
				"type": "occ",
				"energy": -0.25253,
				"method": "rhf"
			},
			{
				"type": "occ",
				"energy": -0.24865,
				"method": "rhf"
			},
			{
				"type": "occ",
				"energy": -0.24685,
				"method": "rhf"
			},
			{
				"type": "occ",
				"energy": -0.24193,
				"method": "rhf"
			},
			{
				"type": "occ",
				"energy": -0.23746,
				"method": "rhf"
			},
			{
				"type": "unocc",
				"energy": -0.01232,
				"method": "rhf"
			},
			{
				"type": "unocc",
				"energy": -0.0042,
				"method": "rhf"
			},
			{
				"type": "unocc",
				"energy": -0.00327,
				"method": "rhf"
			},
			{
				"type": "unocc",
				"energy": 0.00174,
				"method": "rhf"
			},
			{
				"type": "unocc",
				"energy": 0.01112,
				"method": "rhf"
			}
		],
		"cosmo_sigma_profile": { 
			"-0.025": 0.0,
			"-0.024": 0.0,
			"-0.023": 0.0,
			"-0.022": 0.0,
			"-0.021": 0.0,
			"-0.02": 0.0,
			"-0.019": 0.0,
			"-0.018": 0.0,
			"-0.017": 0.0,
			"-0.016": 0.0,
			"-0.015": 0.636504057369,
			"-0.014": 1.51857473315,
			"-0.013": 1.28880361425,
			"-0.012": 1.27080876548,
			"-0.011": 1.65921767607,
			"-0.01": 1.48083199512,
			"-0.009": 1.91944874876,
			"-0.008": 3.85924087611,
			"-0.007": 4.68414935081,
			"-0.006": 16.3036741479,
			"-0.005": 26.4849112101,
			"-0.004": 28.9563790694,
			"-0.003": 31.1366313971,
			"-0.002": 26.4956368017,
			"-0.001": 26.2496637452,
			"0.0": 24.1044816959,
			"0.001": 23.7862252934,
			"0.002": 22.5539339575,
			"0.003": 21.2286428537,
			"0.004": 19.1722552004,
			"0.005": 19.3397527849,
			"0.006": 13.7561823395,
			"0.007": 3.42162642405,
			"0.008": 2.87148082367,
			"0.009": 2.33055207483,
			"0.01": 1.93412990975,
			"0.011": 2.6552791208,
			"0.012": 4.90984956409,
			"0.013": 5.10520910723,
			"0.014": 3.83293372909,
			"0.015": 0.585630564682,
			"0.016": 0.0,
			"0.017": 0.0,
			"0.018": 0.0,
			"0.019": 0.0,
			"0.02": 0.0,
			"0.021": 0.0,
			"0.022": 0.0,
			"0.023": 0.0,
			"0.024": 0.0,
			"0.0": 0.0
		}
	}
}
