{
	 "smiles": "CC1=CC(=CC=C1[N+]([O-])=NC1=CC=CC=C1)[N+]([O-])=NC1=CC=CC=C1", 
	 "Tm": 373.15, 
	 "num_atms": 41, 
	 "gaussian": { 
		 "optdone": 1, 
		 "sigma_profile": "yes", 
		 "theory": "DFT", 
		 "functional": "B3LYP", 
		 "basiset": "6-31G**", 
		 "properties": { 
			 "R2extent": 8544.9369, 
			 "electric_dipole_moment_norm": 4.6187703396, 
			 "electric_quadrupole_moment_norm": 36.2843570402, 
			 "total_energy": -1102.91218112, 
			 "HOMO_LUMO_gap": 0.14476, 
			 "cosmo_polarized_energy": -20.84, 
			 "cosmo_cavitation_energy": 46.42, 
			 "cosmo_dispersion_energy": -29.54, 
			 "cosmo_repulsion_energy": 2.22, 
			 "cosmo_total_nonelectrostatic_energy": 19.09, 
			 "SMD_solvation_energy": 8.02 
		},
		"coords": [
			{
				"x": -1.3033573559,
				"y": -0.1851972835,
				"z": 2.9765231893,
				"element": "C" 
			},
			{
				"x": -0.2945655887,
				"y": 0.5254669177,
				"z": 2.1093247265,
				"element": "C" 
			},
			{
				"x": -0.5750094274,
				"y": 1.7897759043,
				"z": 1.5801050058,
				"element": "C" 
			},
			{
				"x": 0.3758521342,
				"y": 2.4654907394,
				"z": 0.8198193797,
				"element": "C" 
			},
			{
				"x": 1.635543946,
				"y": 1.9295862111,
				"z": 0.5720796436,
				"element": "C" 
			},
			{
				"x": 1.9179064827,
				"y": 0.6551708922,
				"z": 1.0518261865,
				"element": "C" 
			},
			{
				"x": 0.9583672559,
				"y": -0.0243909852,
				"z": 1.7993571399,
				"element": "C" 
			},
			{
				"x": 1.3307614549,
				"y": -1.3344207503,
				"z": 2.3743899199,
				"element": "N" 
			},
			{
				"x": 1.3299703362,
				"y": -1.3525426417,
				"z": 3.6242264306,
				"element": "O" 
			},
			{
				"x": 1.7013266403,
				"y": -2.3497764735,
				"z": 1.691781379,
				"element": "N" 
			},
			{
				"x": 1.5394244976,
				"y": -2.3578128848,
				"z": 0.2874923315,
				"element": "C" 
			},
			{
				"x": 0.3312002427,
				"y": -2.0603365933,
				"z": -0.36545053,
				"element": "C" 
			},
			{
				"x": 0.2342112913,
				"y": -2.2007731633,
				"z": -1.7488149251,
				"element": "C" 
			},
			{
				"x": 1.3291235633,
				"y": -2.6382537413,
				"z": -2.4968700236,
				"element": "C" 
			},
			{
				"x": 2.5241628382,
				"y": -2.9574226788,
				"z": -1.8468506681,
				"element": "C" 
			},
			{
				"x": 2.6262741978,
				"y": -2.8342825557,
				"z": -0.4634421928,
				"element": "C" 
			},
			{
				"x": 0.1153932518,
				"y": 3.8414438113,
				"z": 0.3466010318,
				"element": "N" 
			},
			{
				"x": 1.0333400235,
				"y": 4.6442428224,
				"z": 0.617437325,
				"element": "O" 
			},
			{
				"x": -0.9618544415,
				"y": 4.2295826317,
				"z": -0.2249527673,
				"element": "N" 
			},
			{
				"x": -1.8738699356,
				"y": 3.2856408326,
				"z": -0.7449821764,
				"element": "C" 
			},
			{
				"x": -3.2374525282,
				"y": 3.5394375158,
				"z": -0.5232561414,
				"element": "C" 
			},
			{
				"x": -4.2064317804,
				"y": 2.7091771743,
				"z": -1.0814624688,
				"element": "C" 
			},
			{
				"x": -3.8325908937,
				"y": 1.6346463467,
				"z": -1.8928117658,
				"element": "C" 
			},
			{
				"x": -2.4788967909,
				"y": 1.4023148155,
				"z": -2.146226029,
				"element": "C" 
			},
			{
				"x": -1.500814804,
				"y": 2.2182942155,
				"z": -1.5808059835,
				"element": "C" 
			},
			{
				"x": -1.4382578269,
				"y": -1.2285174523,
				"z": 2.6735431871,
				"element": "H" 
			},
			{
				"x": -2.2731354466,
				"y": 0.3145036229,
				"z": 2.9235647805,
				"element": "H" 
			},
			{
				"x": -0.9668203646,
				"y": -0.2030707882,
				"z": 4.0165227669,
				"element": "H" 
			},
			{
				"x": -1.5392674719,
				"y": 2.2455965661,
				"z": 1.7726971831,
				"element": "H" 
			},
			{
				"x": 2.3702829295,
				"y": 2.5059649623,
				"z": 0.0233408897,
				"element": "H" 
			},
			{
				"x": 2.8792323427,
				"y": 0.1938166171,
				"z": 0.8572839583,
				"element": "H" 
			},
			{
				"x": -0.533435745,
				"y": -1.7457970826,
				"z": 0.2087456147,
				"element": "H" 
			},
			{
				"x": -0.7077255408,
				"y": -1.9762971061,
				"z": -2.2412375574,
				"element": "H" 
			},
			{
				"x": 1.2468629903,
				"y": -2.7460115334,
				"z": -3.5740907566,
				"element": "H" 
			},
			{
				"x": 3.3767091688,
				"y": -3.3138636931,
				"z": -2.4174644941,
				"element": "H" 
			},
			{
				"x": 3.5406528296,
				"y": -3.0998102642,
				"z": 0.0573639434,
				"element": "H" 
			},
			{
				"x": -3.5140727172,
				"y": 4.3916012392,
				"z": 0.0893025891,
				"element": "H" 
			},
			{
				"x": -5.2569951536,
				"y": 2.9090014599,
				"z": -0.8916695468,
				"element": "H" 
			},
			{
				"x": -4.5894532202,
				"y": 0.9957875083,
				"z": -2.3375984299,
				"element": "H" 
			},
			{
				"x": -2.1790226736,
				"y": 0.5869964587,
				"z": -2.7986409485,
				"element": "H" 
			},
			{
				"x": -0.4531687109,
				"y": 2.0449384062,
				"z": -1.8027011967,
				"element": "H" 
			}
		],
		 "valence_orbital": [ 
			{
				"type": "occ",
				"energy": -0.26799,
				"method": "rhf"
			},
			{
				"type": "occ",
				"energy": -0.26609,
				"method": "rhf"
			},
			{
				"type": "occ",
				"energy": -0.26038,
				"method": "rhf"
			},
			{
				"type": "occ",
				"energy": -0.23669,
				"method": "rhf"
			},
			{
				"type": "occ",
				"energy": -0.23276,
				"method": "rhf"
			},
			{
				"type": "unocc",
				"energy": -0.088,
				"method": "rhf"
			},
			{
				"type": "unocc",
				"energy": -0.06844,
				"method": "rhf"
			},
			{
				"type": "unocc",
				"energy": -0.03932,
				"method": "rhf"
			},
			{
				"type": "unocc",
				"energy": -0.03038,
				"method": "rhf"
			},
			{
				"type": "unocc",
				"energy": -0.01649,
				"method": "rhf"
			}
		],
		"cosmo_sigma_profile": { 
			"-0.025": 0.0,
			"-0.024": 0.0,
			"-0.023": 0.0,
			"-0.022": 0.0,
			"-0.021": 0.0,
			"-0.02": 0.0,
			"-0.019": 0.0,
			"-0.018": 0.0,
			"-0.017": 0.0,
			"-0.016": 0.0,
			"-0.015": 0.0,
			"-0.014": 0.0,
			"-0.013": 0.0,
			"-0.012": 0.0100328168497,
			"-0.011": 0.269763515614,
			"-0.01": 0.372546338815,
			"-0.009": 2.07333961249,
			"-0.008": 8.2973746985,
			"-0.007": 13.8634393075,
			"-0.006": 26.5264115664,
			"-0.005": 30.6487932261,
			"-0.004": 31.7154915534,
			"-0.003": 26.5388869038,
			"-0.002": 26.3427704777,
			"-0.001": 25.425092697,
			"0.0": 24.7728769171,
			"0.001": 22.1281157147,
			"0.002": 21.2459186395,
			"0.003": 22.9621069448,
			"0.004": 25.4849107915,
			"0.005": 12.6866333012,
			"0.006": 5.01110095077,
			"0.007": 4.27707578051,
			"0.008": 4.32239982966,
			"0.009": 8.66353693191,
			"0.01": 11.2145893054,
			"0.011": 7.32757154027,
			"0.012": 5.90835162453,
			"0.013": 3.69885495674,
			"0.014": 0.113776188278,
			"0.015": 0.0,
			"0.016": 0.0,
			"0.017": 0.0,
			"0.018": 0.0,
			"0.019": 0.0,
			"0.02": 0.0,
			"0.021": 0.0,
			"0.022": 0.0,
			"0.023": 0.0,
			"0.024": 0.0,
			"0.025": 0.0
		}
	}
}
