{
	 "smiles": "CC1=CC=NC=C1", 
	 "Tm": 276.48, 
	 "num_atms": 14, 
	 "gaussian": { 
		 "optdone": 1, 
		 "sigma_profile": "yes", 
		 "theory": "DFT", 
		 "functional": "B3LYP", 
		 "basiset": "6-31G**", 
		 "properties": { 
			 "R2extent": 981.4896, 
			 "electric_dipole_moment_norm": 2.65430000377, 
			 "electric_quadrupole_moment_norm": 7.09514862212, 
			 "total_energy": -287.608375701, 
			 "HOMO_LUMO_gap": 0.2309, 
			 "cosmo_polarized_energy": -5.98, 
			 "cosmo_cavitation_energy": 17.44, 
			 "cosmo_dispersion_energy": -13.11, 
			 "cosmo_repulsion_energy": 1.1, 
			 "cosmo_total_nonelectrostatic_energy": 5.43, 
			 "SMD_solvation_energy": 1.84 
		},
		"coords": [
			{
				"x": 1.1026393627,
				"y": -1.516792749,
				"z": 0.5989623047,
				"element": "C" 
			},
			{
				"x": 0.7040321843,
				"y": -0.5824576953,
				"z": -0.516029335,
				"element": "C" 
			},
			{
				"x": 0.5744987978,
				"y": -1.02834741,
				"z": -1.8364466587,
				"element": "C" 
			},
			{
				"x": 0.1762978796,
				"y": -0.1313042164,
				"z": -2.8273414915,
				"element": "C" 
			},
			{
				"x": -0.0955908658,
				"y": 1.1601844849,
				"z": -2.601097213,
				"element": "N" 
			},
			{
				"x": 0.0314022009,
				"y": 1.5847805607,
				"z": -1.3375151879,
				"element": "C" 
			},
			{
				"x": 0.4228826082,
				"y": 0.7677285086,
				"z": -0.2771885408,
				"element": "C" 
			},
			{
				"x": 0.2179539423,
				"y": -1.9829120181,
				"z": 1.050074815,
				"element": "H" 
			},
			{
				"x": 1.6330302841,
				"y": -0.9861233715,
				"z": 1.3949411937,
				"element": "H" 
			},
			{
				"x": 1.7456373591,
				"y": -2.3230883177,
				"z": 0.2343385462,
				"element": "H" 
			},
			{
				"x": 0.7838061494,
				"y": -2.063360777,
				"z": -2.0936205801,
				"element": "H" 
			},
			{
				"x": 0.0748419063,
				"y": -0.4685895369,
				"z": -3.857878345,
				"element": "H" 
			},
			{
				"x": -0.1873230741,
				"y": 2.6370708689,
				"z": -1.1617109035,
				"element": "H" 
			},
			{
				"x": 0.5098912653,
				"y": 1.1820116689,
				"z": 0.7238113957,
				"element": "H" 
			}
		],
		 "valence_orbital": [ 
			{
				"type": "occ",
				"energy": -0.38182,
				"method": "rhf"
			},
			{
				"type": "occ",
				"energy": -0.35209,
				"method": "rhf"
			},
			{
				"type": "occ",
				"energy": -0.2712,
				"method": "rhf"
			},
			{
				"type": "occ",
				"energy": -0.25787,
				"method": "rhf"
			},
			{
				"type": "occ",
				"energy": -0.24903,
				"method": "rhf"
			},
			{
				"type": "unocc",
				"energy": -0.01813,
				"method": "rhf"
			},
			{
				"type": "unocc",
				"energy": -0.00719,
				"method": "rhf"
			},
			{
				"type": "unocc",
				"energy": 0.09931,
				"method": "rhf"
			},
			{
				"type": "unocc",
				"energy": 0.11932,
				"method": "rhf"
			},
			{
				"type": "unocc",
				"energy": 0.13117,
				"method": "rhf"
			}
		],
		"cosmo_sigma_profile": { 
			"-0.025": 0.0,
			"-0.024": 0.0,
			"-0.023": 0.0,
			"-0.022": 0.0,
			"-0.021": 0.0,
			"-0.02": 0.0,
			"-0.019": 0.0,
			"-0.018": 0.0,
			"-0.017": 0.0,
			"-0.016": 0.0,
			"-0.015": 0.0,
			"-0.014": 0.0,
			"-0.013": 0.0,
			"-0.012": 0.0,
			"-0.011": 0.0,
			"-0.01": 0.0,
			"-0.009": 0.0,
			"-0.008": 0.0,
			"-0.007": 0.414137059809,
			"-0.006": 6.99427614377,
			"-0.005": 13.9358466897,
			"-0.004": 15.3084595877,
			"-0.003": 11.9212971926,
			"-0.002": 12.5394892923,
			"-0.001": 13.4523268773,
			"0.0": 11.7206322846,
			"0.001": 7.84577011975,
			"0.002": 8.45893653388,
			"0.003": 13.9956625294,
			"0.004": 5.99520932218,
			"0.005": 3.25031150236,
			"0.006": 1.65252953869,
			"0.007": 0.991754398656,
			"0.008": 1.80102239198,
			"0.009": 1.46979391696,
			"0.01": 0.908924703249,
			"0.011": 0.709083007553,
			"0.012": 1.11549736194,
			"0.013": 0.980256613479,
			"0.014": 0.856211598058,
			"0.015": 0.976647928103,
			"0.016": 0.890351585687,
			"0.017": 0.711139714293,
			"0.018": 0.104501296066,
			"0.019": 0.0,
			"0.02": 0.0,
			"0.021": 0.0,
			"0.022": 0.0,
			"0.023": 0.0,
			"0.024": 0.0,
			"0.025": 0.0
		}
	}
}
