{
	 "smiles": "CCOC1=C(OCCOC2=CC=C(F)C=C2)C=CC(C=O)=C1", 
	 "Tm": 359.15, 
	 "num_atms": 39, 
	 "gaussian": { 
		 "optdone": 1, 
		 "sigma_profile": "yes", 
		 "theory": "DFT", 
		 "functional": "B3LYP", 
		 "basiset": "6-31G**", 
		 "properties": { 
			 "R2extent": 11196.0835, 
			 "electric_dipole_moment_norm": 5.91292474923, 
			 "electric_quadrupole_moment_norm": 8.45114321202, 
			 "total_energy": -1058.74420953, 
			 "HOMO_LUMO_gap": 0.17384, 
			 "cosmo_polarized_energy": -15.79, 
			 "cosmo_cavitation_energy": 44.47, 
			 "cosmo_dispersion_energy": -30.45, 
			 "cosmo_repulsion_energy": 2.33, 
			 "cosmo_total_nonelectrostatic_energy": 16.35, 
			 "SMD_solvation_energy": 9.77 
		},
		"coords": [
			{
				"x": 4.2751691709,
				"y": 1.7769424042,
				"z": 1.5859332546,
				"element": "C" 
			},
			{
				"x": 2.762592667,
				"y": 1.7944951203,
				"z": 1.4619749003,
				"element": "C" 
			},
			{
				"x": 2.4424643665,
				"y": 1.8201114923,
				"z": 0.0600843779,
				"element": "O" 
			},
			{
				"x": 1.1060258363,
				"y": 1.8480122902,
				"z": -0.2510130883,
				"element": "C" 
			},
			{
				"x": 0.3027066095,
				"y": 0.6877809609,
				"z": -0.129291446,
				"element": "C" 
			},
			{
				"x": 0.9415813288,
				"y": -0.4092199296,
				"z": 0.3682879105,
				"element": "O" 
			},
			{
				"x": 0.2196321428,
				"y": -1.5667951049,
				"z": 0.7872337109,
				"element": "C" 
			},
			{
				"x": 0.2021308632,
				"y": -2.6625823002,
				"z": -0.2650522081,
				"element": "C" 
			},
			{
				"x": -0.7031678637,
				"y": -2.3026877183,
				"z": -1.2957123474,
				"element": "O" 
			},
			{
				"x": -0.81206387,
				"y": -3.1221074387,
				"z": -2.391045666,
				"element": "C" 
			},
			{
				"x": -0.1580496378,
				"y": -4.3510507957,
				"z": -2.5279465939,
				"element": "C" 
			},
			{
				"x": -0.3476050156,
				"y": -5.1134426096,
				"z": -3.6855495853,
				"element": "C" 
			},
			{
				"x": -1.1845732139,
				"y": -4.6390686314,
				"z": -4.6836689988,
				"element": "C" 
			},
			{
				"x": -1.3672290956,
				"y": -5.3769319855,
				"z": -5.8009904221,
				"element": "F" 
			},
			{
				"x": -1.8423957102,
				"y": -3.4172586317,
				"z": -4.5629463287,
				"element": "C" 
			},
			{
				"x": -1.6527790068,
				"y": -2.6590741141,
				"z": -3.4133636153,
				"element": "C" 
			},
			{
				"x": -1.0444355238,
				"y": 0.7316556575,
				"z": -0.5184002986,
				"element": "C" 
			},
			{
				"x": -1.5889893703,
				"y": 1.9110681348,
				"z": -1.0139147352,
				"element": "C" 
			},
			{
				"x": -0.8014933925,
				"y": 3.0622616696,
				"z": -1.1406030965,
				"element": "C" 
			},
			{
				"x": -1.3751627411,
				"y": 4.3106634698,
				"z": -1.6752738332,
				"element": "C" 
			},
			{
				"x": -2.5332785743,
				"y": 4.45060739,
				"z": -2.0267631662,
				"element": "O" 
			},
			{
				"x": 0.5467151617,
				"y": 3.0145727615,
				"z": -0.7556916775,
				"element": "C" 
			},
			{
				"x": 4.6888506021,
				"y": 0.8874121052,
				"z": 1.1024162122,
				"element": "H" 
			},
			{
				"x": 4.7120982527,
				"y": 2.6602535563,
				"z": 1.1114249744,
				"element": "H" 
			},
			{
				"x": 4.5678630532,
				"y": 1.7680694906,
				"z": 2.6406630874,
				"element": "H" 
			},
			{
				"x": 2.3372171995,
				"y": 2.6850967763,
				"z": 1.9464747246,
				"element": "H" 
			},
			{
				"x": 2.3197425627,
				"y": 0.9071455251,
				"z": 1.9287223455,
				"element": "H" 
			},
			{
				"x": 0.7628240886,
				"y": -1.9455585782,
				"z": 1.6594084017,
				"element": "H" 
			},
			{
				"x": -0.7973183515,
				"y": -1.3127021588,
				"z": 1.1032082819,
				"element": "H" 
			},
			{
				"x": 1.2157187852,
				"y": -2.7972355741,
				"z": -0.6662288506,
				"element": "H" 
			},
			{
				"x": -0.1094417223,
				"y": -3.6040637307,
				"z": 0.2131425388,
				"element": "H" 
			},
			{
				"x": 0.4960713837,
				"y": -4.7291217955,
				"z": -1.7516751213,
				"element": "H" 
			},
			{
				"x": 0.1501555256,
				"y": -6.0686997369,
				"z": -3.8122040342,
				"element": "H" 
			},
			{
				"x": -2.487743233,
				"y": -3.0735014024,
				"z": -5.3639579044,
				"element": "H" 
			},
			{
				"x": -2.1442819939,
				"y": -1.7000255998,
				"z": -3.2899868318,
				"element": "H" 
			},
			{
				"x": -1.6478185163,
				"y": -0.1658535874,
				"z": -0.4807943508,
				"element": "H" 
			},
			{
				"x": -2.6279100251,
				"y": 1.9561308094,
				"z": -1.324242383,
				"element": "H" 
			},
			{
				"x": -0.65458204,
				"y": 5.1572653564,
				"z": -1.7417158196,
				"element": "H" 
			},
			{
				"x": 1.1841592979,
				"y": 3.8899364532,
				"z": -0.8496423178,
				"element": "H" 
			}
		],
		 "valence_orbital": [ 
			{
				"type": "occ",
				"energy": -0.26584,
				"method": "rhf"
			},
			{
				"type": "occ",
				"energy": -0.25364,
				"method": "rhf"
			},
			{
				"type": "occ",
				"energy": -0.24495,
				"method": "rhf"
			},
			{
				"type": "occ",
				"energy": -0.22701,
				"method": "rhf"
			},
			{
				"type": "occ",
				"energy": -0.2246,
				"method": "rhf"
			},
			{
				"type": "unocc",
				"energy": -0.05076,
				"method": "rhf"
			},
			{
				"type": "unocc",
				"energy": -0.01676,
				"method": "rhf"
			},
			{
				"type": "unocc",
				"energy": -0.00721,
				"method": "rhf"
			},
			{
				"type": "unocc",
				"energy": 0.00908,
				"method": "rhf"
			},
			{
				"type": "unocc",
				"energy": 0.05136,
				"method": "rhf"
			}
		],
		"cosmo_sigma_profile": { 
			"-0.025": 0.0,
			"-0.024": 0.0,
			"-0.023": 0.0,
			"-0.022": 0.0,
			"-0.021": 0.0,
			"-0.02": 0.0,
			"-0.019": 0.0,
			"-0.018": 0.0,
			"-0.017": 0.0,
			"-0.016": 0.0,
			"-0.015": 0.0,
			"-0.014": 0.0,
			"-0.013": 0.0,
			"-0.012": 0.0,
			"-0.011": 0.0,
			"-0.01": 0.0,
			"-0.009": 0.0,
			"-0.008": 0.991331222247,
			"-0.007": 17.0670672542,
			"-0.006": 26.3563703833,
			"-0.005": 24.0074926324,
			"-0.004": 24.0241839803,
			"-0.003": 27.3569343036,
			"-0.002": 26.566192061,
			"-0.001": 25.6499073439,
			"0.0": 23.5792912919,
			"0.001": 24.9667101636,
			"0.002": 27.2699947786,
			"0.003": 31.2601404907,
			"0.004": 27.0159828697,
			"0.005": 15.5865355055,
			"0.006": 5.0023191174,
			"0.007": 3.46286508946,
			"0.008": 3.0740916275,
			"0.009": 4.61982341406,
			"0.01": 3.81668534047,
			"0.011": 5.6208685899,
			"0.012": 4.97405639096,
			"0.013": 1.6397176382,
			"0.014": 0.163697530143,
			"0.015": 0.0,
			"0.016": 0.0,
			"0.017": 0.0,
			"0.018": 0.0,
			"0.019": 0.0,
			"0.02": 0.0,
			"0.021": 0.0,
			"0.022": 0.0,
			"0.023": 0.0,
			"0.024": 0.0,
			"0.025": 0.0
		}
	}
}
