{
	 "smiles": "NC1=CC=C(OC2=CC=CC=C2Cl)C=C1", 
	 "Tm": 355.15, 
	 "num_atms": 25, 
	 "gaussian": { 
		 "optdone": 1, 
		 "sigma_profile": "yes", 
		 "theory": "DFT", 
		 "functional": "B3LYP", 
		 "basiset": "6-31G**", 
		 "properties": { 
			 "R2extent": 5952.3102, 
			 "electric_dipole_moment_norm": 3.84321507465, 
			 "electric_quadrupole_moment_norm": 16.8418197517, 
			 "total_energy": -1053.46195279, 
			 "HOMO_LUMO_gap": 0.19331, 
			 "cosmo_polarized_energy": -11.54, 
			 "cosmo_cavitation_energy": 31.35, 
			 "cosmo_dispersion_energy": -22.73, 
			 "cosmo_repulsion_energy": 1.8, 
			 "cosmo_total_nonelectrostatic_energy": 10.42, 
			 "SMD_solvation_energy": 5.2 
		},
		"coords": [
			{
				"x": 3.9835803654,
				"y": -0.287121364,
				"z": -1.8689183982,
				"element": "N" 
			},
			{
				"x": 2.6974401946,
				"y": 0.1764645895,
				"z": -1.5819856679,
				"element": "C" 
			},
			{
				"x": 1.9056382489,
				"y": -0.457079153,
				"z": -0.6077265057,
				"element": "C" 
			},
			{
				"x": 0.602842785,
				"y": -0.0315089173,
				"z": -0.361174074,
				"element": "C" 
			},
			{
				"x": 0.0712431284,
				"y": 1.0339293074,
				"z": -1.0862012253,
				"element": "C" 
			},
			{
				"x": -1.199267338,
				"y": 1.5154786448,
				"z": -0.7793011419,
				"element": "O" 
			},
			{
				"x": -2.2894203416,
				"y": 1.0131166284,
				"z": -1.4353100985,
				"element": "C" 
			},
			{
				"x": -2.2255733288,
				"y": 0.0232528472,
				"z": -2.4219615178,
				"element": "C" 
			},
			{
				"x": -3.3917614883,
				"y": -0.4301156278,
				"z": -3.0393062017,
				"element": "C" 
			},
			{
				"x": -4.6332195699,
				"y": 0.0947774988,
				"z": -2.6832986707,
				"element": "C" 
			},
			{
				"x": -4.7057971263,
				"y": 1.0827645956,
				"z": -1.6998154708,
				"element": "C" 
			},
			{
				"x": -3.5445964872,
				"y": 1.5380246491,
				"z": -1.0812327508,
				"element": "C" 
			},
			{
				"x": -3.647911446,
				"y": 2.7790935164,
				"z": 0.1524592525,
				"element": "Cl" 
			},
			{
				"x": 0.8413625086,
				"y": 1.6776382173,
				"z": -2.0535909339,
				"element": "C" 
			},
			{
				"x": 2.1441536929,
				"y": 1.251712456,
				"z": -2.2997105821,
				"element": "C" 
			},
			{
				"x": 4.6012768728,
				"y": 0.3951257421,
				"z": -2.2868827899,
				"element": "H" 
			},
			{
				"x": 4.4357758591,
				"y": -0.7883168053,
				"z": -1.116571079,
				"element": "H" 
			},
			{
				"x": 2.3165987719,
				"y": -1.2882461911,
				"z": -0.0403450083,
				"element": "H" 
			},
			{
				"x": -0.0028139239,
				"y": -0.5131495811,
				"z": 0.3997984179,
				"element": "H" 
			},
			{
				"x": -1.2603820823,
				"y": -0.3846215618,
				"z": -2.6985417252,
				"element": "H" 
			},
			{
				"x": -3.3219298954,
				"y": -1.1990671307,
				"z": -3.8029413956,
				"element": "H" 
			},
			{
				"x": -5.5411426125,
				"y": -0.2569359649,
				"z": -3.1626505611,
				"element": "H" 
			},
			{
				"x": -5.6591365988,
				"y": 1.5076017738,
				"z": -1.4045852831,
				"element": "H" 
			},
			{
				"x": 0.4198596793,
				"y": 2.5156309763,
				"z": -2.5994563162,
				"element": "H" 
			},
			{
				"x": 2.7414801321,
				"y": 1.7561508542,
				"z": -3.0549502725,
				"element": "H" 
			}
		],
		 "valence_orbital": [ 
			{
				"type": "occ",
				"energy": -0.29827,
				"method": "rhf"
			},
			{
				"type": "occ",
				"energy": -0.25763,
				"method": "rhf"
			},
			{
				"type": "occ",
				"energy": -0.24453,
				"method": "rhf"
			},
			{
				"type": "occ",
				"energy": -0.22122,
				"method": "rhf"
			},
			{
				"type": "occ",
				"energy": -0.20611,
				"method": "rhf"
			},
			{
				"type": "unocc",
				"energy": -0.0128,
				"method": "rhf"
			},
			{
				"type": "unocc",
				"energy": -0.00094,
				"method": "rhf"
			},
			{
				"type": "unocc",
				"energy": 0.00827,
				"method": "rhf"
			},
			{
				"type": "unocc",
				"energy": 0.01088,
				"method": "rhf"
			},
			{
				"type": "unocc",
				"energy": 0.04018,
				"method": "rhf"
			}
		],
		"cosmo_sigma_profile": { 
			"-0.025": 0.0,
			"-0.024": 0.0,
			"-0.023": 0.0,
			"-0.022": 0.0,
			"-0.021": 0.0,
			"-0.02": 0.0,
			"-0.019": 0.0,
			"-0.018": 0.0,
			"-0.017": 0.0,
			"-0.016": 0.0,
			"-0.015": 0.0,
			"-0.014": 0.0,
			"-0.013": 0.290011921043,
			"-0.012": 2.65063744549,
			"-0.011": 3.16009218953,
			"-0.01": 3.37710886228,
			"-0.009": 2.43061786388,
			"-0.008": 3.02899620459,
			"-0.007": 6.47335032461,
			"-0.006": 15.7398532143,
			"-0.005": 15.5244890633,
			"-0.004": 15.4242040996,
			"-0.003": 13.6166009777,
			"-0.002": 12.3933403944,
			"-0.001": 14.909504606,
			"0.0": 14.6548177905,
			"0.001": 17.777844323,
			"0.002": 19.8856065224,
			"0.003": 23.1143866084,
			"0.004": 25.2133363474,
			"0.005": 23.8789426441,
			"0.006": 6.44533955001,
			"0.007": 2.78141972573,
			"0.008": 2.52822612656,
			"0.009": 3.10017696361,
			"0.01": 1.90792284793,
			"0.011": 0.503724368876,
			"0.012": 0.854254479079,
			"0.013": 0.632522486457,
			"0.014": 0.668434168399,
			"0.015": 0.161573105645,
			"0.016": 0.0,
			"0.017": 0.0,
			"0.018": 0.0,
			"0.019": 0.0,
			"0.02": 0.0,
			"0.021": 0.0,
			"0.022": 0.0,
			"0.023": 0.0,
			"0.024": 0.0,
			"0.025": 0.0
		}
	}
}
