{
	 "smiles": "CN1N=C(C)C2=C1N=CC(CCl)=C2", 
	 "Tm": 445.15, 
	 "num_atms": 23, 
	 "gaussian": { 
		 "optdone": 1, 
		 "sigma_profile": "yes", 
		 "theory": "DFT", 
		 "functional": "B3LYP", 
		 "basiset": "6-31G**", 
		 "properties": { 
			 "R2extent": 4171.0925, 
			 "electric_dipole_moment_norm": 2.11930100977, 
			 "electric_quadrupole_moment_norm": 16.0717129227, 
			 "total_energy": -973.433291382, 
			 "HOMO_LUMO_gap": 0.17743, 
			 "cosmo_polarized_energy": -10.25, 
			 "cosmo_cavitation_energy": 28.84, 
			 "cosmo_dispersion_energy": -21.04, 
			 "cosmo_repulsion_energy": 1.69, 
			 "cosmo_total_nonelectrostatic_energy": 9.48, 
			 "SMD_solvation_energy": 2.35 
		},
		"coords": [
			{
				"x": -2.411357105,
				"y": 1.5133624259,
				"z": 0.0645695111,
				"element": "C" 
			},
			{
				"x": -0.9929710948,
				"y": 1.4143262084,
				"z": 0.33798175,
				"element": "N" 
			},
			{
				"x": -0.1760306001,
				"y": 2.4988201165,
				"z": 0.2050364262,
				"element": "N" 
			},
			{
				"x": 1.0517516505,
				"y": 2.1141947981,
				"z": 0.5219455112,
				"element": "C" 
			},
			{
				"x": 2.1966835691,
				"y": 3.07604925,
				"z": 0.480093284,
				"element": "C" 
			},
			{
				"x": 1.0575816405,
				"y": 0.7269983478,
				"z": 0.8808627548,
				"element": "C" 
			},
			{
				"x": -0.2949239017,
				"y": 0.3176857215,
				"z": 0.7454065041,
				"element": "C" 
			},
			{
				"x": -0.7875151464,
				"y": -0.9074681447,
				"z": 0.9692870714,
				"element": "N" 
			},
			{
				"x": 0.1216382594,
				"y": -1.7947517298,
				"z": 1.3600595201,
				"element": "C" 
			},
			{
				"x": 1.504885273,
				"y": -1.5276626875,
				"z": 1.5361469915,
				"element": "C" 
			},
			{
				"x": 2.4198794665,
				"y": -2.6235462399,
				"z": 1.9792176018,
				"element": "C" 
			},
			{
				"x": 2.5598726493,
				"y": -2.7377629509,
				"z": 3.813577926,
				"element": "Cl" 
			},
			{
				"x": 1.9803099552,
				"y": -0.2399251801,
				"z": 1.2920791286,
				"element": "C" 
			},
			{
				"x": -2.8770177309,
				"y": 2.2454121081,
				"z": 0.7302854539,
				"element": "H" 
			},
			{
				"x": -2.57831208,
				"y": 1.8171979232,
				"z": -0.9725851694,
				"element": "H" 
			},
			{
				"x": -2.8497843003,
				"y": 0.5294695494,
				"z": 0.2354796268,
				"element": "H" 
			},
			{
				"x": 2.9711508198,
				"y": 2.7467103437,
				"z": -0.2222730704,
				"element": "H" 
			},
			{
				"x": 1.8402341938,
				"y": 4.0588418759,
				"z": 0.1648725231,
				"element": "H" 
			},
			{
				"x": 2.6695588764,
				"y": 3.1777652712,
				"z": 1.4636534132,
				"element": "H" 
			},
			{
				"x": -0.2467481926,
				"y": -2.8017076993,
				"z": 1.5529393385,
				"element": "H" 
			},
			{
				"x": 3.4399204729,
				"y": -2.4737017798,
				"z": 1.6255464778,
				"element": "H" 
			},
			{
				"x": 2.0692631752,
				"y": -3.6056760703,
				"z": 1.6614568107,
				"element": "H" 
			},
			{
				"x": 3.0338301501,
				"y": -0.0049314574,
				"z": 1.422560615,
				"element": "H" 
			}
		],
		 "valence_orbital": [ 
			{
				"type": "occ",
				"energy": -0.29542,
				"method": "rhf"
			},
			{
				"type": "occ",
				"energy": -0.29317,
				"method": "rhf"
			},
			{
				"type": "occ",
				"energy": -0.27159,
				"method": "rhf"
			},
			{
				"type": "occ",
				"energy": -0.2522,
				"method": "rhf"
			},
			{
				"type": "occ",
				"energy": -0.22923,
				"method": "rhf"
			},
			{
				"type": "unocc",
				"energy": -0.0518,
				"method": "rhf"
			},
			{
				"type": "unocc",
				"energy": -0.01997,
				"method": "rhf"
			},
			{
				"type": "unocc",
				"energy": 0.03718,
				"method": "rhf"
			},
			{
				"type": "unocc",
				"energy": 0.04936,
				"method": "rhf"
			},
			{
				"type": "unocc",
				"energy": 0.0909,
				"method": "rhf"
			}
		],
		"cosmo_sigma_profile": { 
			"-0.025": 0.0,
			"-0.024": 0.0,
			"-0.023": 0.0,
			"-0.022": 0.0,
			"-0.021": 0.0,
			"-0.02": 0.0,
			"-0.019": 0.0,
			"-0.018": 0.0,
			"-0.017": 0.0,
			"-0.016": 0.0,
			"-0.015": 0.0,
			"-0.014": 0.0,
			"-0.013": 0.0,
			"-0.012": 0.0,
			"-0.011": 0.0,
			"-0.01": 0.0,
			"-0.009": 0.168060512866,
			"-0.008": 7.18270926595,
			"-0.007": 8.25737732068,
			"-0.006": 11.340477169,
			"-0.005": 14.8583834434,
			"-0.004": 21.0516605507,
			"-0.003": 20.2936381224,
			"-0.002": 15.5910108765,
			"-0.001": 15.4054789212,
			"0.0": 19.8217361303,
			"0.001": 18.940778708,
			"0.002": 15.9917764749,
			"0.003": 10.0470539088,
			"0.004": 9.34591644675,
			"0.005": 8.15501340108,
			"0.006": 10.8000842017,
			"0.007": 11.3171277711,
			"0.008": 2.37761041697,
			"0.009": 2.16852212059,
			"0.01": 1.8531839809,
			"0.011": 2.57498467554,
			"0.012": 1.32393779885,
			"0.013": 1.42381856792,
			"0.014": 1.30576024882,
			"0.015": 0.496066496941,
			"0.016": 0.0,
			"0.017": 0.0,
			"0.018": 0.0,
			"0.019": 0.0,
			"0.02": 0.0,
			"0.021": 0.0,
			"0.022": 0.0,
			"0.023": 0.0,
			"0.024": 0.0,
			"0.025": 0.0
		}
	}
}
