{
	 "smiles": "CCOC(=O)C1=CSC(NCC=C)=N1", 
	 "Tm": 358.15, 
	 "num_atms": 26, 
	 "gaussian": { 
		 "optdone": 1, 
		 "sigma_profile": "yes", 
		 "theory": "DFT", 
		 "functional": "B3LYP", 
		 "basiset": "6-31G**", 
		 "properties": { 
			 "R2extent": 4677.0178, 
			 "electric_dipole_moment_norm": 3.70172178452, 
			 "electric_quadrupole_moment_norm": 10.6604492138, 
			 "total_energy": -1008.30727221, 
			 "HOMO_LUMO_gap": 0.17866, 
			 "cosmo_polarized_energy": -14.27, 
			 "cosmo_cavitation_energy": 32.63, 
			 "cosmo_dispersion_energy": -23.66, 
			 "cosmo_repulsion_energy": 1.88, 
			 "cosmo_total_nonelectrostatic_energy": 10.85, 
			 "SMD_solvation_energy": 5.09 
		},
		"coords": [
			{
				"x": -1.9177263001,
				"y": 4.2955476055,
				"z": 1.1554012429,
				"element": "C" 
			},
			{
				"x": -2.5071392353,
				"y": 3.1813330727,
				"z": 0.3113389377,
				"element": "C" 
			},
			{
				"x": -1.6830431736,
				"y": 2.0115250701,
				"z": 0.5045778675,
				"element": "O" 
			},
			{
				"x": -2.0673195348,
				"y": 0.9150456614,
				"z": -0.1747578643,
				"element": "C" 
			},
			{
				"x": -3.0366344928,
				"y": 0.875770493,
				"z": -0.9108680058,
				"element": "O" 
			},
			{
				"x": -1.177995649,
				"y": -0.2490165038,
				"z": 0.0710778952,
				"element": "C" 
			},
			{
				"x": -1.4128458716,
				"y": -1.450490137,
				"z": -0.5354912358,
				"element": "C" 
			},
			{
				"x": -0.2008430456,
				"y": -2.6003911665,
				"z": -0.061418509,
				"element": "S" 
			},
			{
				"x": 0.5311423519,
				"y": -1.3295244207,
				"z": 0.9490958917,
				"element": "C" 
			},
			{
				"x": 1.6045896061,
				"y": -1.5805703258,
				"z": 1.7600625882,
				"element": "N" 
			},
			{
				"x": 2.5288217896,
				"y": -2.6965731526,
				"z": 1.5758048848,
				"element": "C" 
			},
			{
				"x": 3.4269965726,
				"y": -2.5772790424,
				"z": 0.3672104049,
				"element": "C" 
			},
			{
				"x": 3.5181696616,
				"y": -3.4953883787,
				"z": -0.5939665305,
				"element": "C" 
			},
			{
				"x": -0.0795087901,
				"y": -0.1793895576,
				"z": 0.9038162671,
				"element": "N" 
			},
			{
				"x": -2.5141813806,
				"y": 5.2059446665,
				"z": 1.0386759648,
				"element": "H" 
			},
			{
				"x": -0.8903419094,
				"y": 4.514147678,
				"z": 0.8505437965,
				"element": "H" 
			},
			{
				"x": -1.9102915377,
				"y": 4.0206460761,
				"z": 2.2139726513,
				"element": "H" 
			},
			{
				"x": -2.5207092885,
				"y": 3.4343061569,
				"z": -0.7539181877,
				"element": "H" 
			},
			{
				"x": -3.5354590431,
				"y": 2.943473451,
				"z": 0.6026082545,
				"element": "H" 
			},
			{
				"x": -2.2039699255,
				"y": -1.6965127637,
				"z": -1.2270922286,
				"element": "H" 
			},
			{
				"x": 1.968174918,
				"y": -0.7378581206,
				"z": 2.1856558688,
				"element": "H" 
			},
			{
				"x": 1.9534474045,
				"y": -3.6290290628,
				"z": 1.5285685384,
				"element": "H" 
			},
			{
				"x": 3.1305894078,
				"y": -2.7517129789,
				"z": 2.4905903443,
				"element": "H" 
			},
			{
				"x": 4.0249788441,
				"y": -1.6676762409,
				"z": 0.3104533903,
				"element": "H" 
			},
			{
				"x": 2.9289553563,
				"y": -4.4091412319,
				"z": -0.56731599,
				"element": "H" 
			},
			{
				"x": 4.1855432649,
				"y": -3.3715868474,
				"z": -1.4414262372,
				"element": "H" 
			}
		],
		 "valence_orbital": [ 
			{
				"type": "occ",
				"energy": -0.28357,
				"method": "rhf"
			},
			{
				"type": "occ",
				"energy": -0.27685,
				"method": "rhf"
			},
			{
				"type": "occ",
				"energy": -0.26926,
				"method": "rhf"
			},
			{
				"type": "occ",
				"energy": -0.26113,
				"method": "rhf"
			},
			{
				"type": "occ",
				"energy": -0.20889,
				"method": "rhf"
			},
			{
				"type": "unocc",
				"energy": -0.03023,
				"method": "rhf"
			},
			{
				"type": "unocc",
				"energy": 0.00095,
				"method": "rhf"
			},
			{
				"type": "unocc",
				"energy": 0.01427,
				"method": "rhf"
			},
			{
				"type": "unocc",
				"energy": 0.02204,
				"method": "rhf"
			},
			{
				"type": "unocc",
				"energy": 0.06546,
				"method": "rhf"
			}
		],
		"cosmo_sigma_profile": { 
			"-0.025": 0.0,
			"-0.024": 0.0,
			"-0.023": 0.0,
			"-0.022": 0.0,
			"-0.021": 0.0,
			"-0.02": 0.0,
			"-0.019": 0.0,
			"-0.018": 0.0,
			"-0.017": 0.0,
			"-0.016": 0.0,
			"-0.015": 0.0752043841969,
			"-0.014": 1.01880830719,
			"-0.013": 1.24798978843,
			"-0.012": 1.45089115185,
			"-0.011": 0.989624524034,
			"-0.01": 1.14332607559,
			"-0.009": 2.05828190995,
			"-0.008": 2.50896872709,
			"-0.007": 4.53622686232,
			"-0.006": 10.2037414103,
			"-0.005": 18.5027363909,
			"-0.004": 23.7391596043,
			"-0.003": 23.4361197176,
			"-0.002": 20.9423505199,
			"-0.001": 20.1380964604,
			"0.0": 21.5299535762,
			"0.001": 20.7672363594,
			"0.002": 18.3647423373,
			"0.003": 15.2019329063,
			"0.004": 9.17922588735,
			"0.005": 9.27540204524,
			"0.006": 6.02494135041,
			"0.007": 3.99550421702,
			"0.008": 3.2338717094,
			"0.009": 2.79800842699,
			"0.01": 3.00392365524,
			"0.011": 3.71286485737,
			"0.012": 6.1093102028,
			"0.013": 2.27147748621,
			"0.014": 1.11327156006,
			"0.015": 1.13086438333,
			"0.016": 0.921458967083,
			"0.017": 0.0869213543315,
			"0.018": 0.0,
			"0.019": 0.0,
			"0.02": 0.0,
			"0.021": 0.0,
			"0.022": 0.0,
			"0.023": 0.0,
			"0.024": 0.0,
			"0.025": 0.0
		}
	}
}
