{
	 "smiles": "C=CC(=O)NCC1=CC=CC=C1", 
	 "Tm": 334.15, 
	 "num_atms": 23, 
	 "gaussian": { 
		 "optdone": 1, 
		 "sigma_profile": "yes", 
		 "theory": "DFT", 
		 "functional": "B3LYP", 
		 "basiset": "6-31G**", 
		 "properties": { 
			 "R2extent": 3375.5872, 
			 "electric_dipole_moment_norm": 3.61859670867, 
			 "electric_quadrupole_moment_norm": 13.9138845108, 
			 "total_energy": -517.660311965, 
			 "HOMO_LUMO_gap": 0.20293, 
			 "cosmo_polarized_energy": -12.25, 
			 "cosmo_cavitation_energy": 27.6, 
			 "cosmo_dispersion_energy": -19.36, 
			 "cosmo_repulsion_energy": 1.55, 
			 "cosmo_total_nonelectrostatic_energy": 9.79, 
			 "SMD_solvation_energy": 5.9 
		},
		"coords": [
			{
				"x": 2.0924838858,
				"y": 2.7902445935,
				"z": -2.5817584419,
				"element": "C" 
			},
			{
				"x": 2.8638593219,
				"y": 1.8957789483,
				"z": -1.9590749077,
				"element": "C" 
			},
			{
				"x": 2.498704527,
				"y": 1.1274648427,
				"z": -0.7272019232,
				"element": "C" 
			},
			{
				"x": 3.3658363014,
				"y": 0.7586879597,
				"z": 0.0600544385,
				"element": "O" 
			},
			{
				"x": 1.1632763746,
				"y": 0.8863955565,
				"z": -0.5362739842,
				"element": "N" 
			},
			{
				"x": 0.6606578044,
				"y": 0.1649114417,
				"z": 0.6243765075,
				"element": "C" 
			},
			{
				"x": -0.5540731843,
				"y": 0.8277901406,
				"z": 1.2444662337,
				"element": "C" 
			},
			{
				"x": -0.5353238379,
				"y": 2.1897967712,
				"z": 1.5775662903,
				"element": "C" 
			},
			{
				"x": -1.6452874765,
				"y": 2.7912069267,
				"z": 2.168745426,
				"element": "C" 
			},
			{
				"x": -2.7925689751,
				"y": 2.0393423987,
				"z": 2.4376503865,
				"element": "C" 
			},
			{
				"x": -2.8212180364,
				"y": 0.6840091232,
				"z": 2.1096245861,
				"element": "C" 
			},
			{
				"x": -1.7085732941,
				"y": 0.0850533975,
				"z": 1.5138888462,
				"element": "C" 
			},
			{
				"x": 2.4516893807,
				"y": 3.3415044278,
				"z": -3.4454430213,
				"element": "H" 
			},
			{
				"x": 1.0881988861,
				"y": 3.0307389372,
				"z": -2.2420581834,
				"element": "H" 
			},
			{
				"x": 3.8860051864,
				"y": 1.7197283632,
				"z": -2.2828934245,
				"element": "H" 
			},
			{
				"x": 0.5214811567,
				"y": 1.0840210771,
				"z": -1.2891293279,
				"element": "H" 
			},
			{
				"x": 0.4178907356,
				"y": -0.8727928465,
				"z": 0.3584363307,
				"element": "H" 
			},
			{
				"x": 1.4966513822,
				"y": 0.1248180704,
				"z": 1.3294827084,
				"element": "H" 
			},
			{
				"x": 0.3551206261,
				"y": 2.77641959,
				"z": 1.3685136495,
				"element": "H" 
			},
			{
				"x": -1.6152563317,
				"y": 3.8469894828,
				"z": 2.4234722666,
				"element": "H" 
			},
			{
				"x": -3.6571487292,
				"y": 2.5086153471,
				"z": 2.8982571752,
				"element": "H" 
			},
			{
				"x": -3.7096261288,
				"y": 0.0922287877,
				"z": 2.3115223433,
				"element": "H" 
			},
			{
				"x": -1.7369795748,
				"y": -0.9711533371,
				"z": 1.2561760256,
				"element": "H" 
			}
		],
		 "valence_orbital": [ 
			{
				"type": "occ",
				"energy": -0.28357,
				"method": "rhf"
			},
			{
				"type": "occ",
				"energy": -0.26083,
				"method": "rhf"
			},
			{
				"type": "occ",
				"energy": -0.25562,
				"method": "rhf"
			},
			{
				"type": "occ",
				"energy": -0.2517,
				"method": "rhf"
			},
			{
				"type": "occ",
				"energy": -0.23682,
				"method": "rhf"
			},
			{
				"type": "unocc",
				"energy": -0.03389,
				"method": "rhf"
			},
			{
				"type": "unocc",
				"energy": -0.00726,
				"method": "rhf"
			},
			{
				"type": "unocc",
				"energy": -0.00313,
				"method": "rhf"
			},
			{
				"type": "unocc",
				"energy": 0.07807,
				"method": "rhf"
			},
			{
				"type": "unocc",
				"energy": 0.08637,
				"method": "rhf"
			}
		],
		"cosmo_sigma_profile": { 
			"-0.025": 0.0,
			"-0.024": 0.0,
			"-0.023": 0.0,
			"-0.022": 0.0,
			"-0.021": 0.0,
			"-0.02": 0.0,
			"-0.019": 0.0,
			"-0.018": 0.0,
			"-0.017": 0.0,
			"-0.016": 0.0,
			"-0.015": 0.0,
			"-0.014": 0.420494139651,
			"-0.013": 1.0345074642,
			"-0.012": 1.00711951859,
			"-0.011": 1.16352694429,
			"-0.01": 1.26157580903,
			"-0.009": 1.30718103557,
			"-0.008": 1.71748165684,
			"-0.007": 2.93203501757,
			"-0.006": 10.3368207791,
			"-0.005": 18.3540897962,
			"-0.004": 21.1149234072,
			"-0.003": 20.1846122466,
			"-0.002": 17.4980000694,
			"-0.001": 17.3978088093,
			"0.0": 15.3738687334,
			"0.001": 13.5078607696,
			"0.002": 12.3803148119,
			"0.003": 11.7923783013,
			"0.004": 12.664988922,
			"0.005": 10.1121178419,
			"0.006": 9.02369812193,
			"0.007": 2.13731174627,
			"0.008": 1.39527776156,
			"0.009": 1.26354067377,
			"0.01": 1.41794799153,
			"0.011": 1.93011436884,
			"0.012": 1.3409276051,
			"0.013": 3.43968649741,
			"0.014": 5.18683861981,
			"0.015": 1.14715292583,
			"0.016": 0.00306677728872,
			"0.017": 0.0,
			"0.018": 0.0,
			"0.019": 0.0,
			"0.02": 0.0,
			"0.021": 0.0,
			"0.022": 0.0,
			"0.023": 0.0,
			"0.024": 0.0,
			"0.025": 0.0
		}
	}
}
