{
	 "smiles": "NC(=O)C1=CC=C(S1)C(O)=O", 
	 "Tm": 591.15, 
	 "num_atms": 16, 
	 "gaussian": { 
		 "optdone": 1, 
		 "sigma_profile": "yes", 
		 "theory": "DFT", 
		 "functional": "B3LYP", 
		 "basiset": "6-31G**", 
		 "properties": { 
			 "R2extent": 2327.4855, 
			 "electric_dipole_moment_norm": 4.64726161626, 
			 "electric_quadrupole_moment_norm": 18.3234060788, 
			 "total_energy": -910.268263326, 
			 "HOMO_LUMO_gap": 0.17881, 
			 "cosmo_polarized_energy": -21.09, 
			 "cosmo_cavitation_energy": 23.06, 
			 "cosmo_dispersion_energy": -17.65, 
			 "cosmo_repulsion_energy": 1.38, 
			 "cosmo_total_nonelectrostatic_energy": 6.79, 
			 "SMD_solvation_energy": 5.9 
		},
		"coords": [
			{
				"x": 0.1368711438,
				"y": -1.5427337475,
				"z": 2.8482395469,
				"element": "N" 
			},
			{
				"x": -0.860369522,
				"y": -1.0774494353,
				"z": 2.0399659962,
				"element": "C" 
			},
			{
				"x": -2.0464689638,
				"y": -1.2439996291,
				"z": 2.2927073654,
				"element": "O" 
			},
			{
				"x": -0.4537995024,
				"y": -0.3413946865,
				"z": 0.8070810553,
				"element": "C" 
			},
			{
				"x": -1.3454255789,
				"y": 0.1834152087,
				"z": -0.0996447885,
				"element": "C" 
			},
			{
				"x": -0.7217756945,
				"y": 0.8374431348,
				"z": -1.1887750624,
				"element": "C" 
			},
			{
				"x": 0.6529980641,
				"y": 0.8170927413,
				"z": -1.122094617,
				"element": "C" 
			},
			{
				"x": 1.1900738255,
				"y": -0.0250505959,
				"z": 0.3119029019,
				"element": "S" 
			},
			{
				"x": 1.5444948179,
				"y": 1.4313932345,
				"z": -2.1381098959,
				"element": "C" 
			},
			{
				"x": 2.8862655171,
				"y": 1.3384563114,
				"z": -1.9494159934,
				"element": "O" 
			},
			{
				"x": 1.1061187925,
				"y": 2.0010695788,
				"z": -3.1092020872,
				"element": "O" 
			},
			{
				"x": -0.1393400277,
				"y": -2.0401008818,
				"z": 3.6808284604,
				"element": "H" 
			},
			{
				"x": 1.1183720092,
				"y": -1.4186040994,
				"z": 2.6613624672,
				"element": "H" 
			},
			{
				"x": -2.4138457451,
				"y": 0.0829070259,
				"z": 0.0448673103,
				"element": "H" 
			},
			{
				"x": -1.2391595021,
				"y": 1.317040149,
				"z": -2.0104475027,
				"element": "H" 
			},
			{
				"x": 3.1100903665,
				"y": 0.8608156911,
				"z": -1.1381651563,
				"element": "H" 
			}
		],
		 "valence_orbital": [ 
			{
				"type": "occ",
				"energy": -0.29108,
				"method": "rhf"
			},
			{
				"type": "occ",
				"energy": -0.29017,
				"method": "rhf"
			},
			{
				"type": "occ",
				"energy": -0.281,
				"method": "rhf"
			},
			{
				"type": "occ",
				"energy": -0.27188,
				"method": "rhf"
			},
			{
				"type": "occ",
				"energy": -0.2649,
				"method": "rhf"
			},
			{
				"type": "unocc",
				"energy": -0.08609,
				"method": "rhf"
			},
			{
				"type": "unocc",
				"energy": -0.02497,
				"method": "rhf"
			},
			{
				"type": "unocc",
				"energy": -0.00707,
				"method": "rhf"
			},
			{
				"type": "unocc",
				"energy": 0.03309,
				"method": "rhf"
			},
			{
				"type": "unocc",
				"energy": 0.06812,
				"method": "rhf"
			}
		],
		"cosmo_sigma_profile": { 
			"-0.025": 0.0,
			"-0.024": 0.0,
			"-0.023": 0.0,
			"-0.022": 0.0,
			"-0.021": 0.0,
			"-0.02": 0.0,
			"-0.019": 0.173010956005,
			"-0.018": 0.739836016272,
			"-0.017": 0.914219190377,
			"-0.016": 1.07286556381,
			"-0.015": 2.41644307095,
			"-0.014": 2.29039562486,
			"-0.013": 4.15622693206,
			"-0.012": 3.85241817466,
			"-0.011": 3.48002672204,
			"-0.01": 2.45875173902,
			"-0.009": 2.80480602424,
			"-0.008": 4.87599440879,
			"-0.007": 6.25562062389,
			"-0.006": 6.5794003024,
			"-0.005": 6.65379070889,
			"-0.004": 6.47486148288,
			"-0.003": 8.26538065005,
			"-0.002": 8.72376425868,
			"-0.001": 11.7908584935,
			"0.0": 15.5998296574,
			"0.001": 18.921066723,
			"0.002": 10.2823674405,
			"0.003": 5.67813963498,
			"0.004": 4.61137426518,
			"0.005": 3.31831005643,
			"0.006": 3.86799391639,
			"0.007": 4.01854435104,
			"0.008": 4.12217347765,
			"0.009": 5.67459071624,
			"0.01": 6.05073834874,
			"0.011": 7.45176971928,
			"0.012": 6.18901428055,
			"0.013": 5.91062019617,
			"0.014": 1.14330254408,
			"0.015": 0.0,
			"0.016": 0.0,
			"0.017": 0.0,
			"0.018": 0.0,
			"0.019": 0.0,
			"0.02": 0.0,
			"0.021": 0.0,
			"0.022": 0.0,
			"0.023": 0.0,
			"0.024": 0.0,
			"0.025": 0.0
		}
	}
}
