{
	 "smiles": "OC(=O)CCC(=O)NC1=CC=CC=C1", 
	 "Tm": 421.15, 
	 "num_atms": 25, 
	 "gaussian": { 
		 "optdone": 1, 
		 "sigma_profile": "yes", 
		 "theory": "DFT", 
		 "functional": "B3LYP", 
		 "basiset": "6-31G**", 
		 "properties": { 
			 "R2extent": 3952.797, 
			 "electric_dipole_moment_norm": 3.70440154141, 
			 "electric_quadrupole_moment_norm": 15.7558314293, 
			 "total_energy": -668.142536457, 
			 "HOMO_LUMO_gap": 0.21215, 
			 "cosmo_polarized_energy": -20.16, 
			 "cosmo_cavitation_energy": 29.73, 
			 "cosmo_dispersion_energy": -21.39, 
			 "cosmo_repulsion_energy": 1.71, 
			 "cosmo_total_nonelectrostatic_energy": 10.05, 
			 "SMD_solvation_energy": 6.8 
		},
		"coords": [
			{
				"x": -3.8759076918,
				"y": 1.9366922906,
				"z": -2.6031304234,
				"element": "O" 
			},
			{
				"x": -2.656036658,
				"y": 1.9095313621,
				"z": -2.0025724045,
				"element": "C" 
			},
			{
				"x": -2.1553276806,
				"y": 2.9340028023,
				"z": -1.6086336529,
				"element": "O" 
			},
			{
				"x": -2.0135088493,
				"y": 0.5346104988,
				"z": -1.9048176447,
				"element": "C" 
			},
			{
				"x": -0.7397524592,
				"y": 0.5483582624,
				"z": -1.0629045501,
				"element": "C" 
			},
			{
				"x": 0.100488401,
				"y": -0.6938846324,
				"z": -1.3256062835,
				"element": "C" 
			},
			{
				"x": -0.0300595271,
				"y": -1.3630773055,
				"z": -2.344607471,
				"element": "O" 
			},
			{
				"x": 1.0289839997,
				"y": -1.0785738634,
				"z": -0.3790881299,
				"element": "N" 
			},
			{
				"x": 1.3578497691,
				"y": -0.5525541226,
				"z": 0.8944112292,
				"element": "C" 
			},
			{
				"x": 1.5964759256,
				"y": -1.4557674588,
				"z": 1.9419644221,
				"element": "C" 
			},
			{
				"x": 1.96306128,
				"y": -0.9919583082,
				"z": 3.2030618906,
				"element": "C" 
			},
			{
				"x": 2.0819320536,
				"y": 0.3787640934,
				"z": 3.4432820508,
				"element": "C" 
			},
			{
				"x": 1.850662126,
				"y": 1.2780035626,
				"z": 2.4020904199,
				"element": "C" 
			},
			{
				"x": 1.5071691472,
				"y": 0.8213449951,
				"z": 1.1290279847,
				"element": "C" 
			},
			{
				"x": -4.1341321906,
				"y": 1.0442764767,
				"z": -2.8748863521,
				"element": "H" 
			},
			{
				"x": -1.770522545,
				"y": 0.1789656036,
				"z": -2.913583987,
				"element": "H" 
			},
			{
				"x": -2.7420957061,
				"y": -0.1805682613,
				"z": -1.5017202689,
				"element": "H" 
			},
			{
				"x": -0.9678610601,
				"y": 0.6493550777,
				"z": 0.0018136983,
				"element": "H" 
			},
			{
				"x": -0.161822432,
				"y": 1.4401105702,
				"z": -1.3301505964,
				"element": "H" 
			},
			{
				"x": 1.4494135784,
				"y": -1.9680660898,
				"z": -0.6209900261,
				"element": "H" 
			},
			{
				"x": 1.4835830516,
				"y": -2.5215583385,
				"z": 1.7616685209,
				"element": "H" 
			},
			{
				"x": 2.1455889516,
				"y": -1.7046031348,
				"z": 4.0020903026,
				"element": "H" 
			},
			{
				"x": 2.3588726539,
				"y": 0.7406211224,
				"z": 4.4285463601,
				"element": "H" 
			},
			{
				"x": 1.9561831827,
				"y": 2.3457043214,
				"z": 2.5702885433,
				"element": "H" 
			},
			{
				"x": 1.3789626794,
				"y": 1.530070476,
				"z": 0.3197463679,
				"element": "H" 
			}
		],
		 "valence_orbital": [ 
			{
				"type": "occ",
				"energy": -0.30323,
				"method": "rhf"
			},
			{
				"type": "occ",
				"energy": -0.27524,
				"method": "rhf"
			},
			{
				"type": "occ",
				"energy": -0.26368,
				"method": "rhf"
			},
			{
				"type": "occ",
				"energy": -0.26156,
				"method": "rhf"
			},
			{
				"type": "occ",
				"energy": -0.23293,
				"method": "rhf"
			},
			{
				"type": "unocc",
				"energy": -0.02078,
				"method": "rhf"
			},
			{
				"type": "unocc",
				"energy": -0.01465,
				"method": "rhf"
			},
			{
				"type": "unocc",
				"energy": 0.00986,
				"method": "rhf"
			},
			{
				"type": "unocc",
				"energy": 0.02827,
				"method": "rhf"
			},
			{
				"type": "unocc",
				"energy": 0.05602,
				"method": "rhf"
			}
		],
		"cosmo_sigma_profile": { 
			"-0.025": 0.0,
			"-0.024": 0.0,
			"-0.023": 0.0,
			"-0.022": 0.0,
			"-0.021": 0.0,
			"-0.02": 0.0,
			"-0.019": 0.571044922954,
			"-0.018": 1.10627893657,
			"-0.017": 1.27218699824,
			"-0.016": 1.04029041306,
			"-0.015": 1.61200626953,
			"-0.014": 1.02750674058,
			"-0.013": 1.80705952952,
			"-0.012": 2.66766714054,
			"-0.011": 1.94746175359,
			"-0.01": 3.25602848838,
			"-0.009": 2.31275368659,
			"-0.008": 4.01784048064,
			"-0.007": 8.09288182957,
			"-0.006": 14.1066609584,
			"-0.005": 18.1188315089,
			"-0.004": 18.7206790622,
			"-0.003": 14.4138737668,
			"-0.002": 11.4414017611,
			"-0.001": 11.2383046715,
			"0.0": 11.3176467964,
			"0.001": 10.0750687339,
			"0.002": 12.6041182935,
			"0.003": 11.5408729766,
			"0.004": 12.1274908042,
			"0.005": 12.6641956185,
			"0.006": 5.34467137185,
			"0.007": 3.96268411144,
			"0.008": 3.65085793709,
			"0.009": 5.03911283214,
			"0.01": 5.87289920521,
			"0.011": 7.16203010027,
			"0.012": 7.62514218205,
			"0.013": 6.70655957574,
			"0.014": 1.38947074234,
			"0.015": 0.0,
			"0.016": 0.0,
			"0.017": 0.0,
			"0.018": 0.0,
			"0.019": 0.0,
			"0.02": 0.0,
			"0.021": 0.0,
			"0.022": 0.0,
			"0.023": 0.0,
			"0.024": 0.0,
			"0.025": 0.0
		}
	}
}
