{
	 "smiles": "COC1=CC=C(C=C1)C(=O)CCCC(O)=O", 
	 "Tm": 412.15, 
	 "num_atms": 30, 
	 "gaussian": { 
		 "optdone": 1, 
		 "sigma_profile": "yes", 
		 "theory": "DFT", 
		 "functional": "B3LYP", 
		 "basiset": "6-31G**", 
		 "properties": { 
			 "R2extent": 6532.8136, 
			 "electric_dipole_moment_norm": 10.6535023166, 
			 "electric_quadrupole_moment_norm": 19.8791165649, 
			 "total_energy": -766.623386843, 
			 "HOMO_LUMO_gap": 0.16914, 
			 "cosmo_polarized_energy": -18.59, 
			 "cosmo_cavitation_energy": 33.51, 
			 "cosmo_dispersion_energy": -24.52, 
			 "cosmo_repulsion_energy": 1.9, 
			 "cosmo_total_nonelectrostatic_energy": 10.89, 
			 "SMD_solvation_energy": 7.6 
		},
		"coords": [
			{
				"x": 2.8441672692,
				"y": 5.5460462683,
				"z": 0.5103150257,
				"element": "C" 
			},
			{
				"x": 1.7771345695,
				"y": 4.9006668566,
				"z": 1.1960909399,
				"element": "O" 
			},
			{
				"x": 1.6277586267,
				"y": 3.5615702775,
				"z": 1.0587986347,
				"element": "C" 
			},
			{
				"x": 0.5503952767,
				"y": 2.9938977326,
				"z": 1.7654461036,
				"element": "C" 
			},
			{
				"x": 0.3130406821,
				"y": 1.6349451972,
				"z": 1.690185323,
				"element": "C" 
			},
			{
				"x": 1.1374499338,
				"y": 0.7952646534,
				"z": 0.9118736531,
				"element": "C" 
			},
			{
				"x": 2.2073181497,
				"y": 1.3743482264,
				"z": 0.2134268107,
				"element": "C" 
			},
			{
				"x": 2.4587454478,
				"y": 2.7429745347,
				"z": 0.279047741,
				"element": "C" 
			},
			{
				"x": 0.834586682,
				"y": -0.6548130313,
				"z": 0.8679136772,
				"element": "C" 
			},
			{
				"x": -0.1221099139,
				"y": -1.1029074228,
				"z": 1.5049421578,
				"element": "O" 
			},
			{
				"x": 1.7196628144,
				"y": -1.5807919628,
				"z": 0.0393249758,
				"element": "C" 
			},
			{
				"x": 1.2991684255,
				"y": -3.052406666,
				"z": 0.0977029005,
				"element": "C" 
			},
			{
				"x": -0.0489234974,
				"y": -3.3597817597,
				"z": -0.6123462018,
				"element": "C" 
			},
			{
				"x": -1.024155523,
				"y": -4.1652528047,
				"z": 0.2465549335,
				"element": "C" 
			},
			{
				"x": -1.3466132497,
				"y": -3.6013764954,
				"z": 1.4269672728,
				"element": "O" 
			},
			{
				"x": -1.486234884,
				"y": -5.2310396837,
				"z": -0.0897951487,
				"element": "O" 
			},
			{
				"x": 3.8193479153,
				"y": 5.1647717327,
				"z": 0.8364414715,
				"element": "H" 
			},
			{
				"x": 2.7664955159,
				"y": 6.60318648,
				"z": 0.7659266816,
				"element": "H" 
			},
			{
				"x": 2.7522742647,
				"y": 5.4278937849,
				"z": -0.5760963739,
				"element": "H" 
			},
			{
				"x": -0.0774308407,
				"y": 3.6480595614,
				"z": 2.3610834537,
				"element": "H" 
			},
			{
				"x": -0.5140614515,
				"y": 1.1866927137,
				"z": 2.2297629472,
				"element": "H" 
			},
			{
				"x": 2.8626479996,
				"y": 0.7602505979,
				"z": -0.3953519484,
				"element": "H" 
			},
			{
				"x": 3.292785608,
				"y": 3.1589422986,
				"z": -0.2726531495,
				"element": "H" 
			},
			{
				"x": 1.7270460114,
				"y": -1.2204512597,
				"z": -0.9984090797,
				"element": "H" 
			},
			{
				"x": 2.7513847815,
				"y": -1.4668759736,
				"z": 0.3980045651,
				"element": "H" 
			},
			{
				"x": 1.250977906,
				"y": -3.3587866355,
				"z": 1.147177048,
				"element": "H" 
			},
			{
				"x": 2.0903336959,
				"y": -3.654906203,
				"z": -0.3583547686,
				"element": "H" 
			},
			{
				"x": 0.1081306925,
				"y": -3.9249915576,
				"z": -1.5322850721,
				"element": "H" 
			},
			{
				"x": -0.5517831868,
				"y": -2.4240862598,
				"z": -0.8870337653,
				"element": "H" 
			},
			{
				"x": -0.9163397208,
				"y": -2.7226432003,
				"z": 1.5152391914,
				"element": "H" 
			}
		],
		 "valence_orbital": [ 
			{
				"type": "occ",
				"energy": -0.28238,
				"method": "rhf"
			},
			{
				"type": "occ",
				"energy": -0.27706,
				"method": "rhf"
			},
			{
				"type": "occ",
				"energy": -0.27591,
				"method": "rhf"
			},
			{
				"type": "occ",
				"energy": -0.24708,
				"method": "rhf"
			},
			{
				"type": "occ",
				"energy": -0.24009,
				"method": "rhf"
			},
			{
				"type": "unocc",
				"energy": -0.07095,
				"method": "rhf"
			},
			{
				"type": "unocc",
				"energy": -0.02464,
				"method": "rhf"
			},
			{
				"type": "unocc",
				"energy": 0.02909,
				"method": "rhf"
			},
			{
				"type": "unocc",
				"energy": 0.03538,
				"method": "rhf"
			},
			{
				"type": "unocc",
				"energy": 0.07065,
				"method": "rhf"
			}
		],
		"cosmo_sigma_profile": { 
			"-0.025": 0.0,
			"-0.024": 0.0,
			"-0.023": 0.0,
			"-0.022": 0.0,
			"-0.021": 0.0,
			"-0.02": 0.0,
			"-0.019": 0.0,
			"-0.018": 0.0,
			"-0.017": 0.0,
			"-0.016": 0.0,
			"-0.015": 0.0,
			"-0.014": 0.0,
			"-0.013": 0.0,
			"-0.012": 0.0,
			"-0.011": 0.0,
			"-0.01": 0.0,
			"-0.009": 0.0,
			"-0.008": 0.0647451467964,
			"-0.007": 8.18605846343,
			"-0.006": 25.3667995574,
			"-0.005": 25.5040892036,
			"-0.004": 30.25226116,
			"-0.003": 26.5723668041,
			"-0.002": 20.3008011073,
			"-0.001": 13.8595515689,
			"0.0": 10.741648197,
			"0.001": 12.0840450004,
			"0.002": 15.0034052968,
			"0.003": 17.9801740082,
			"0.004": 12.0973943603,
			"0.005": 4.99620756477,
			"0.006": 4.58534948208,
			"0.007": 4.78975157514,
			"0.008": 5.13915942879,
			"0.009": 5.23489216753,
			"0.01": 3.7736933191,
			"0.011": 4.79342775791,
			"0.012": 6.70144752035,
			"0.013": 5.34226105909,
			"0.014": 2.00520657796,
			"0.015": 0.0690150801328,
			"0.016": 0.0,
			"0.017": 0.0,
			"0.018": 0.0,
			"0.019": 0.0,
			"0.02": 0.0,
			"0.021": 0.0,
			"0.022": 0.0,
			"0.023": 0.0,
			"0.024": 0.0,
			"0.025": 0.0
		}
	}
}
