{
	 "smiles": "CC1=CC(C)=C(C)C2=C1CC2=O", 
	 "Tm": 346.15, 
	 "num_atms": 24, 
	 "gaussian": { 
		 "optdone": 1, 
		 "sigma_profile": "yes", 
		 "theory": "DFT", 
		 "functional": "B3LYP", 
		 "basiset": "6-31G**", 
		 "properties": { 
			 "R2extent": 2145.4118, 
			 "electric_dipole_moment_norm": 3.62890835789, 
			 "electric_quadrupole_moment_norm": 10.9356741548, 
			 "total_energy": -501.610237395, 
			 "HOMO_LUMO_gap": 0.18848, 
			 "cosmo_polarized_energy": -6.81, 
			 "cosmo_cavitation_energy": 27.33, 
			 "cosmo_dispersion_energy": -19.44, 
			 "cosmo_repulsion_energy": 1.56, 
			 "cosmo_total_nonelectrostatic_energy": 9.45, 
			 "SMD_solvation_energy": 5.14 
		},
		"coords": [
			{
				"x": -0.7823186657,
				"y": -1.34961565,
				"z": 2.8559722421,
				"element": "C" 
			},
			{
				"x": -0.5857295258,
				"y": -0.6765257291,
				"z": 1.5208991008,
				"element": "C" 
			},
			{
				"x": -1.6670976887,
				"y": -0.2490880842,
				"z": 0.727581964,
				"element": "C" 
			},
			{
				"x": -1.5431655082,
				"y": 0.3842748174,
				"z": -0.5261151251,
				"element": "C" 
			},
			{
				"x": -2.7866362793,
				"y": 0.7956657905,
				"z": -1.2803916534,
				"element": "C" 
			},
			{
				"x": -0.2653944598,
				"y": 0.6332353822,
				"z": -1.0744365598,
				"element": "C" 
			},
			{
				"x": -0.0516439021,
				"y": 1.3039124325,
				"z": -2.4058969926,
				"element": "C" 
			},
			{
				"x": 0.7987194706,
				"y": 0.2060764497,
				"z": -0.2807995695,
				"element": "C" 
			},
			{
				"x": 0.6618822629,
				"y": -0.4218459259,
				"z": 0.9626600684,
				"element": "C" 
			},
			{
				"x": 2.1623871199,
				"y": -0.5787758232,
				"z": 1.2041748906,
				"element": "C" 
			},
			{
				"x": 2.2878917527,
				"y": 0.1306195459,
				"z": -0.1993876787,
				"element": "C" 
			},
			{
				"x": 3.2211287656,
				"y": 0.4600362062,
				"z": -0.8906782943,
				"element": "O" 
			},
			{
				"x": -1.8434397698,
				"y": -1.449825657,
				"z": 3.1003693349,
				"element": "H" 
			},
			{
				"x": -0.3393703411,
				"y": -2.3522013298,
				"z": 2.8656254299,
				"element": "H" 
			},
			{
				"x": -0.3041028119,
				"y": -0.7819262232,
				"z": 3.6625117208,
				"element": "H" 
			},
			{
				"x": -2.6739542493,
				"y": -0.4178169789,
				"z": 1.105769965,
				"element": "H" 
			},
			{
				"x": -3.6928229878,
				"y": 0.5360492152,
				"z": -0.7272190283,
				"element": "H" 
			},
			{
				"x": -2.8063978145,
				"y": 1.8765003215,
				"z": -1.4655795707,
				"element": "H" 
			},
			{
				"x": -2.8427142948,
				"y": 0.307978444,
				"z": -2.2611613281,
				"element": "H" 
			},
			{
				"x": 1.0147108592,
				"y": 1.3907068495,
				"z": -2.6244391445,
				"element": "H" 
			},
			{
				"x": -0.4888522523,
				"y": 2.3096899582,
				"z": -2.423500585,
				"element": "H" 
			},
			{
				"x": -0.5242454631,
				"y": 0.7403594441,
				"z": -3.2195918071,
				"element": "H" 
			},
			{
				"x": 2.5917409421,
				"y": -0.0126421573,
				"z": 2.0388575833,
				"element": "H" 
			},
			{
				"x": 2.5554248411,
				"y": -1.6016412985,
				"z": 1.2325750375,
				"element": "H" 
			}
		],
		 "valence_orbital": [ 
			{
				"type": "occ",
				"energy": -0.33698,
				"method": "rhf"
			},
			{
				"type": "occ",
				"energy": -0.32518,
				"method": "rhf"
			},
			{
				"type": "occ",
				"energy": -0.24936,
				"method": "rhf"
			},
			{
				"type": "occ",
				"energy": -0.24091,
				"method": "rhf"
			},
			{
				"type": "occ",
				"energy": -0.2365,
				"method": "rhf"
			},
			{
				"type": "unocc",
				"energy": -0.04802,
				"method": "rhf"
			},
			{
				"type": "unocc",
				"energy": -0.00772,
				"method": "rhf"
			},
			{
				"type": "unocc",
				"energy": 0.05426,
				"method": "rhf"
			},
			{
				"type": "unocc",
				"energy": 0.09074,
				"method": "rhf"
			},
			{
				"type": "unocc",
				"energy": 0.10022,
				"method": "rhf"
			}
		],
		"cosmo_sigma_profile": { 
			"-0.025": 0.0,
			"-0.024": 0.0,
			"-0.023": 0.0,
			"-0.022": 0.0,
			"-0.021": 0.0,
			"-0.02": 0.0,
			"-0.019": 0.0,
			"-0.018": 0.0,
			"-0.017": 0.0,
			"-0.016": 0.0,
			"-0.015": 0.0,
			"-0.014": 0.0,
			"-0.013": 0.0,
			"-0.012": 0.0,
			"-0.011": 0.0,
			"-0.01": 0.0,
			"-0.009": 0.0,
			"-0.008": 0.0,
			"-0.007": 0.0,
			"-0.006": 1.6522720896,
			"-0.005": 13.0399229625,
			"-0.004": 24.3814959367,
			"-0.003": 22.2851683005,
			"-0.002": 25.1947630309,
			"-0.001": 29.6752020464,
			"0.0": 29.7890900907,
			"0.001": 15.5656834713,
			"0.002": 9.91510304864,
			"0.003": 8.27922083228,
			"0.004": 9.87344269458,
			"0.005": 5.41079931772,
			"0.006": 2.11827596838,
			"0.007": 1.97537225697,
			"0.008": 1.96142379074,
			"0.009": 2.4310584063,
			"0.01": 2.6542322268,
			"0.011": 4.46125837416,
			"0.012": 4.25857554566,
			"0.013": 1.06141377296,
			"0.014": 0.00670114520963,
			"0.015": 0.0,
			"0.016": 0.0,
			"0.017": 0.0,
			"0.018": 0.0,
			"0.019": 0.0,
			"0.02": 0.0,
			"0.021": 0.0,
			"0.022": 0.0,
			"0.023": 0.0,
			"0.024": 0.0,
			"0.025": 0.0
		}
	}
}
