{
	 "smiles": "CSC1=NC=NC2=C1N=CN2", 
	 "Tm": 494.65, 
	 "num_atms": 17, 
	 "gaussian": { 
		 "optdone": 1, 
		 "sigma_profile": "yes", 
		 "theory": "DFT", 
		 "functional": "B3LYP", 
		 "basiset": "6-31G**", 
		 "properties": { 
			 "R2extent": 2110.2325, 
			 "electric_dipole_moment_norm": 4.48706635342, 
			 "electric_quadrupole_moment_norm": 9.35637096689, 
			 "total_energy": -849.451217227, 
			 "HOMO_LUMO_gap": 0.18043, 
			 "cosmo_polarized_energy": -14.58, 
			 "cosmo_cavitation_energy": 22.78, 
			 "cosmo_dispersion_energy": -17.94, 
			 "cosmo_repulsion_energy": 1.38, 
			 "cosmo_total_nonelectrostatic_energy": 6.22, 
			 "SMD_solvation_energy": 0.11 
		},
		"coords": [
			{
				"x": -0.8785002446,
				"y": -3.159594939,
				"z": 0.6147332697,
				"element": "C" 
			},
			{
				"x": 0.6280798255,
				"y": -2.4024567575,
				"z": 1.3218500788,
				"element": "S" 
			},
			{
				"x": 0.365828858,
				"y": -0.6609845689,
				"z": 1.2223303285,
				"element": "C" 
			},
			{
				"x": 1.3930105109,
				"y": 0.0534022355,
				"z": 1.707448297,
				"element": "N" 
			},
			{
				"x": 1.3276968171,
				"y": 1.3912980983,
				"z": 1.6942440196,
				"element": "C" 
			},
			{
				"x": 0.3320886877,
				"y": 2.1633958412,
				"z": 1.2426633609,
				"element": "N" 
			},
			{
				"x": -0.6731872765,
				"y": 1.4311510467,
				"z": 0.7673374899,
				"element": "C" 
			},
			{
				"x": -0.7549918338,
				"y": 0.0216251768,
				"z": 0.7115201192,
				"element": "C" 
			},
			{
				"x": -1.9610253785,
				"y": -0.3714841523,
				"z": 0.1474892404,
				"element": "N" 
			},
			{
				"x": -2.5768337357,
				"y": 0.7510015213,
				"z": -0.1235731263,
				"element": "C" 
			},
			{
				"x": -1.8572179386,
				"y": 1.8743616374,
				"z": 0.2239981449,
				"element": "N" 
			},
			{
				"x": -0.7019680136,
				"y": -4.2356739845,
				"z": 0.6828950895,
				"element": "H" 
			},
			{
				"x": -1.7666466917,
				"y": -2.8938905104,
				"z": 1.1864256556,
				"element": "H" 
			},
			{
				"x": -1.0197666141,
				"y": -2.8735472253,
				"z": -0.4266588565,
				"element": "H" 
			},
			{
				"x": 2.1922195026,
				"y": 1.9103364374,
				"z": 2.1015860789,
				"element": "H" 
			},
			{
				"x": -3.5565472259,
				"y": 0.8268746126,
				"z": -0.57682826,
				"element": "H" 
			},
			{
				"x": -2.1277392489,
				"y": 2.8400855307,
				"z": 0.11203907,
				"element": "H" 
			}
		],
		 "valence_orbital": [ 
			{
				"type": "occ",
				"energy": -0.28924,
				"method": "rhf"
			},
			{
				"type": "occ",
				"energy": -0.28814,
				"method": "rhf"
			},
			{
				"type": "occ",
				"energy": -0.26802,
				"method": "rhf"
			},
			{
				"type": "occ",
				"energy": -0.25205,
				"method": "rhf"
			},
			{
				"type": "occ",
				"energy": -0.22293,
				"method": "rhf"
			},
			{
				"type": "unocc",
				"energy": -0.0425,
				"method": "rhf"
			},
			{
				"type": "unocc",
				"energy": -0.00594,
				"method": "rhf"
			},
			{
				"type": "unocc",
				"energy": 0.02818,
				"method": "rhf"
			},
			{
				"type": "unocc",
				"energy": 0.04155,
				"method": "rhf"
			},
			{
				"type": "unocc",
				"energy": 0.06934,
				"method": "rhf"
			}
		],
		"cosmo_sigma_profile": { 
			"-0.025": 0.0,
			"-0.024": 0.0,
			"-0.023": 0.0,
			"-0.022": 0.0,
			"-0.021": 0.0,
			"-0.02": 0.0,
			"-0.019": 0.0,
			"-0.018": 0.585793041912,
			"-0.017": 1.79055748893,
			"-0.016": 1.38138052471,
			"-0.015": 1.18099698361,
			"-0.014": 0.71151708415,
			"-0.013": 1.18886521268,
			"-0.012": 1.6062982634,
			"-0.011": 1.92942805601,
			"-0.01": 3.64837195739,
			"-0.009": 2.58345525123,
			"-0.008": 2.46697035562,
			"-0.007": 5.44400199362,
			"-0.006": 5.87202529693,
			"-0.005": 8.40816714541,
			"-0.004": 8.30385490866,
			"-0.003": 8.80322048499,
			"-0.002": 16.2248382468,
			"-0.001": 18.3915323226,
			"0.0": 14.9261583132,
			"0.001": 9.62150775273,
			"0.002": 8.3368090714,
			"0.003": 7.11727732097,
			"0.004": 9.2329697154,
			"0.005": 7.96239617143,
			"0.006": 8.87109271364,
			"0.007": 8.32326840322,
			"0.008": 4.73026687994,
			"0.009": 2.74156533163,
			"0.01": 3.58067491656,
			"0.011": 2.67328620114,
			"0.012": 1.92022637956,
			"0.013": 2.21096882145,
			"0.014": 1.80336422683,
			"0.015": 0.732720209167,
			"0.016": 0.0,
			"0.017": 0.0,
			"0.018": 0.0,
			"0.019": 0.0,
			"0.02": 0.0,
			"0.021": 0.0,
			"0.022": 0.0,
			"0.023": 0.0,
			"0.024": 0.0,
			"0.025": 0.0
		}
	}
}
