{
	 "smiles": "OC(=O)C1=NC(Br)=C(C=C1)[N+]([O-])=O", 
	 "Tm": 453.15, 
	 "num_atms": 16, 
	 "gaussian": { 
		 "optdone": 1, 
		 "sigma_profile": "yes", 
		 "theory": "DFT", 
		 "functional": "B3LYP", 
		 "basiset": "6-31G**", 
		 "properties": { 
			 "R2extent": 6325.2329, 
			 "electric_dipole_moment_norm": 2.91231679252, 
			 "electric_quadrupole_moment_norm": 13.2378848945, 
			 "total_energy": -3212.1360145, 
			 "HOMO_LUMO_gap": 0.16708, 
			 "cosmo_polarized_energy": -14.9, 
			 "cosmo_cavitation_energy": 25.12, 
			 "cosmo_dispersion_energy": -18.77, 
			 "cosmo_repulsion_energy": 1.5, 
			 "cosmo_total_nonelectrostatic_energy": 7.86, 
			 "SMD_solvation_energy": 5.81 
		},
		"coords": [
			{
				"x": 1.5820867552,
				"y": -0.9464326742,
				"z": 2.6136867414,
				"element": "O" 
			},
			{
				"x": 0.9576381866,
				"y": -0.17945802,
				"z": 1.7088416654,
				"element": "C" 
			},
			{
				"x": 0.6124047275,
				"y": 0.9667469077,
				"z": 1.9122997379,
				"element": "O" 
			},
			{
				"x": 0.7194367912,
				"y": -0.8748421776,
				"z": 0.396159055,
				"element": "C" 
			},
			{
				"x": 1.122687733,
				"y": -2.1436424137,
				"z": 0.2604973426,
				"element": "N" 
			},
			{
				"x": 0.9434195293,
				"y": -2.7596725592,
				"z": -0.8931902687,
				"element": "C" 
			},
			{
				"x": 1.4865028752,
				"y": -4.5825956247,
				"z": -0.9373419482,
				"element": "Br" 
			},
			{
				"x": 0.3306783412,
				"y": -2.1168847787,
				"z": -1.98526118,
				"element": "C" 
			},
			{
				"x": -0.1261396649,
				"y": -0.8101543264,
				"z": -1.8317521847,
				"element": "C" 
			},
			{
				"x": 0.077461573,
				"y": -0.1631496279,
				"z": -0.61967659,
				"element": "C" 
			},
			{
				"x": 0.1351731245,
				"y": -2.7338341005,
				"z": -3.3092302609,
				"element": "N" 
			},
			{
				"x": 1.0132366836,
				"y": -3.4749837031,
				"z": -3.7318960597,
				"element": "O" 
			},
			{
				"x": -0.893457473,
				"y": -2.4217406088,
				"z": -3.9076481529,
				"element": "O" 
			},
			{
				"x": 1.681504365,
				"y": -0.3986197721,
				"z": 3.4106128618,
				"element": "H" 
			},
			{
				"x": -0.6275037052,
				"y": -0.3300494429,
				"z": -2.6639678971,
				"element": "H" 
			},
			{
				"x": -0.2429298421,
				"y": 0.856412922,
				"z": -0.4450328617,
				"element": "H" 
			}
		],
		 "valence_orbital": [ 
			{
				"type": "occ",
				"energy": -0.31622,
				"method": "rhf"
			},
			{
				"type": "occ",
				"energy": -0.31243,
				"method": "rhf"
			},
			{
				"type": "occ",
				"energy": -0.29472,
				"method": "rhf"
			},
			{
				"type": "occ",
				"energy": -0.28992,
				"method": "rhf"
			},
			{
				"type": "occ",
				"energy": -0.28373,
				"method": "rhf"
			},
			{
				"type": "unocc",
				"energy": -0.11665,
				"method": "rhf"
			},
			{
				"type": "unocc",
				"energy": -0.07144,
				"method": "rhf"
			},
			{
				"type": "unocc",
				"energy": -0.05919,
				"method": "rhf"
			},
			{
				"type": "unocc",
				"energy": -0.01479,
				"method": "rhf"
			},
			{
				"type": "unocc",
				"energy": 0.02269,
				"method": "rhf"
			}
		],
		"cosmo_sigma_profile": { 
			"-0.025": 0.0,
			"-0.024": 0.0,
			"-0.023": 0.0,
			"-0.022": 0.0,
			"-0.021": 0.0,
			"-0.02": 0.0943625956027,
			"-0.019": 0.932621818099,
			"-0.018": 1.08544885012,
			"-0.017": 0.620232830809,
			"-0.016": 0.672424806604,
			"-0.015": 1.11136947813,
			"-0.014": 0.272152259361,
			"-0.013": 1.01521794873,
			"-0.012": 0.999066370997,
			"-0.011": 0.846154429432,
			"-0.01": 3.21359622362,
			"-0.009": 5.82208774168,
			"-0.008": 5.26963161742,
			"-0.007": 5.56444838146,
			"-0.006": 9.45475183489,
			"-0.005": 12.299726578,
			"-0.004": 14.4694518069,
			"-0.003": 14.6751661077,
			"-0.002": 12.7829810804,
			"-0.001": 9.16906506919,
			"0.0": 8.53201748836,
			"0.001": 8.68798788342,
			"0.002": 10.0710290324,
			"0.003": 13.1735010059,
			"0.004": 8.75250090377,
			"0.005": 7.63121860944,
			"0.006": 11.1430319398,
			"0.007": 14.1049703084,
			"0.008": 6.36690006958,
			"0.009": 5.33524737388,
			"0.01": 5.23042084003,
			"0.011": 4.28062959547,
			"0.012": 1.08260918199,
			"0.013": 1.21222554187,
			"0.014": 0.122922025607,
			"0.015": 0.0,
			"0.016": 0.0,
			"0.017": 0.0,
			"0.018": 0.0,
			"0.019": 0.0,
			"0.02": 0.0,
			"0.021": 0.0,
			"0.022": 0.0,
			"0.023": 0.0,
			"0.024": 0.0,
			"0.025": 0.0
		}
	}
}
