{
	 "smiles": "COC1=CC(=C(Cl)C=C1)S(N)(=O)=O", 
	 "Tm": 403.15, 
	 "num_atms": 21, 
	 "gaussian": { 
		 "optdone": 1, 
		 "sigma_profile": "yes", 
		 "theory": "DFT", 
		 "functional": "B3LYP", 
		 "basiset": "6-31G**", 
		 "properties": { 
			 "R2extent": 3713.9462, 
			 "electric_dipole_moment_norm": 5.33439901207, 
			 "electric_quadrupole_moment_norm": 18.8249704571, 
			 "total_energy": -1410.28097263, 
			 "HOMO_LUMO_gap": 0.19446, 
			 "cosmo_polarized_energy": -17.59, 
			 "cosmo_cavitation_energy": 27.92, 
			 "cosmo_dispersion_energy": -21.2, 
			 "cosmo_repulsion_energy": 1.63, 
			 "cosmo_total_nonelectrostatic_energy": 8.35, 
			 "SMD_solvation_energy": 4.96 
		},
		"coords": [
			{
				"x": 1.0452599099,
				"y": 2.0005462751,
				"z": 2.4007835235,
				"element": "C" 
			},
			{
				"x": 0.7628110515,
				"y": 2.1476005165,
				"z": 1.0130251621,
				"element": "O" 
			},
			{
				"x": 0.2334839423,
				"y": 1.0896656414,
				"z": 0.3472778695,
				"element": "C" 
			},
			{
				"x": -0.0385285131,
				"y": -0.1538597322,
				"z": 0.9254147422,
				"element": "C" 
			},
			{
				"x": -0.5885119404,
				"y": -1.1830765331,
				"z": 0.1524684638,
				"element": "C" 
			},
			{
				"x": -0.8680440579,
				"y": -0.9710452219,
				"z": -1.200354268,
				"element": "C" 
			},
			{
				"x": -1.5467582684,
				"y": -2.2208265846,
				"z": -2.2341427911,
				"element": "Cl" 
			},
			{
				"x": -0.5873605106,
				"y": 0.2712163487,
				"z": -1.7772189626,
				"element": "C" 
			},
			{
				"x": -0.0448587296,
				"y": 1.2940883245,
				"z": -1.0126958318,
				"element": "C" 
			},
			{
				"x": -0.9518548633,
				"y": -2.726941936,
				"z": 1.0365773091,
				"element": "S" 
			},
			{
				"x": -0.1143031219,
				"y": -3.9466471532,
				"z": 0.2587066734,
				"element": "N" 
			},
			{
				"x": -0.3258137627,
				"y": -2.5946047296,
				"z": 2.3521855072,
				"element": "O" 
			},
			{
				"x": -2.3716226338,
				"y": -3.0169535544,
				"z": 0.8762007233,
				"element": "O" 
			},
			{
				"x": 0.1377698587,
				"y": 1.7730775586,
				"z": 2.9727648551,
				"element": "H" 
			},
			{
				"x": 1.4469007581,
				"y": 2.9606630428,
				"z": 2.7261089724,
				"element": "H" 
			},
			{
				"x": 1.7910704446,
				"y": 1.2161820016,
				"z": 2.5780471742,
				"element": "H" 
			},
			{
				"x": 0.1607487153,
				"y": -0.3599629247,
				"z": 1.9687001572,
				"element": "H" 
			},
			{
				"x": -0.8015093281,
				"y": 0.4285490056,
				"z": -2.8285309919,
				"element": "H" 
			},
			{
				"x": 0.1720246628,
				"y": 2.2622557775,
				"z": -1.4509170562,
				"element": "H" 
			},
			{
				"x": 0.8920059852,
				"y": -3.851352247,
				"z": 0.3491334366,
				"element": "H" 
			},
			{
				"x": -0.4280095986,
				"y": -4.0982738758,
				"z": -0.6951346677,
				"element": "H" 
			}
		],
		 "valence_orbital": [ 
			{
				"type": "occ",
				"energy": -0.31636,
				"method": "rhf"
			},
			{
				"type": "occ",
				"energy": -0.30838,
				"method": "rhf"
			},
			{
				"type": "occ",
				"energy": -0.30137,
				"method": "rhf"
			},
			{
				"type": "occ",
				"energy": -0.27904,
				"method": "rhf"
			},
			{
				"type": "occ",
				"energy": -0.24087,
				"method": "rhf"
			},
			{
				"type": "unocc",
				"energy": -0.04641,
				"method": "rhf"
			},
			{
				"type": "unocc",
				"energy": -0.02194,
				"method": "rhf"
			},
			{
				"type": "unocc",
				"energy": 0.00519,
				"method": "rhf"
			},
			{
				"type": "unocc",
				"energy": 0.06022,
				"method": "rhf"
			},
			{
				"type": "unocc",
				"energy": 0.08283,
				"method": "rhf"
			}
		],
		"cosmo_sigma_profile": { 
			"-0.025": 0.0,
			"-0.024": 0.0,
			"-0.023": 0.0,
			"-0.022": 0.0,
			"-0.021": 0.0,
			"-0.02": 0.0,
			"-0.019": 0.0,
			"-0.018": 0.0,
			"-0.017": 0.0,
			"-0.016": 0.720759925881,
			"-0.015": 1.35205682035,
			"-0.014": 1.00782706433,
			"-0.013": 2.4728004833,
			"-0.012": 2.85803787893,
			"-0.011": 2.07252416913,
			"-0.01": 1.92383653754,
			"-0.009": 1.82488717737,
			"-0.008": 4.62108583827,
			"-0.007": 8.79449336971,
			"-0.006": 14.7874378422,
			"-0.005": 12.8325904338,
			"-0.004": 13.9936528863,
			"-0.003": 13.8509207401,
			"-0.002": 10.8282533667,
			"-0.001": 10.8070089831,
			"0.0": 14.9138998067,
			"0.001": 22.254810055,
			"0.002": 14.5477890579,
			"0.003": 10.1905611338,
			"0.004": 7.43449477375,
			"0.005": 5.35258040547,
			"0.006": 4.69070705232,
			"0.007": 6.97372670135,
			"0.008": 6.0672499101,
			"0.009": 5.92983168352,
			"0.01": 10.6501127398,
			"0.011": 9.80426388482,
			"0.012": 1.46801083834,
			"0.013": 0.0,
			"0.014": 0.0,
			"0.015": 0.0,
			"0.016": 0.0,
			"0.017": 0.0,
			"0.018": 0.0,
			"0.019": 0.0,
			"0.02": 0.0,
			"0.021": 0.0,
			"0.022": 0.0,
			"0.023": 0.0,
			"0.024": 0.0,
			"0.025": 0.0
		}
	}
}
