{
	 "smiles": "[O-][N+](=O)C1=CC2=C(NC(=O)O2)C=C1", 
	 "Tm": 516.15, 
	 "num_atms": 17, 
	 "gaussian": { 
		 "optdone": 1, 
		 "sigma_profile": "yes", 
		 "theory": "DFT", 
		 "functional": "B3LYP", 
		 "basiset": "6-31G**", 
		 "properties": { 
			 "R2extent": 2908.2131, 
			 "electric_dipole_moment_norm": 4.85369070914, 
			 "electric_quadrupole_moment_norm": 21.2046033712, 
			 "total_energy": -679.469667207, 
			 "HOMO_LUMO_gap": 0.16184, 
			 "cosmo_polarized_energy": -17.29, 
			 "cosmo_cavitation_energy": 23.11, 
			 "cosmo_dispersion_energy": -17.55, 
			 "cosmo_repulsion_energy": 1.37, 
			 "cosmo_total_nonelectrostatic_energy": 6.94, 
			 "SMD_solvation_energy": 7.55 
		},
		"coords": [
			{
				"x": -0.6153565833,
				"y": 0.8642118685,
				"z": 2.8968483342,
				"element": "O" 
			},
			{
				"x": -1.4845638283,
				"y": 0.4369323673,
				"z": 2.1368807842,
				"element": "N" 
			},
			{
				"x": -2.584799717,
				"y": 0.0164149075,
				"z": 2.4951787368,
				"element": "O" 
			},
			{
				"x": -1.1844178354,
				"y": 0.4296407789,
				"z": 0.6999959269,
				"element": "C" 
			},
			{
				"x": 0.0670421914,
				"y": 0.907477982,
				"z": 0.2839204822,
				"element": "C" 
			},
			{
				"x": 0.2871612944,
				"y": 0.8743639424,
				"z": -1.0743067355,
				"element": "C" 
			},
			{
				"x": -0.6674978246,
				"y": 0.3976276929,
				"z": -1.9876035507,
				"element": "C" 
			},
			{
				"x": -0.0747202496,
				"y": 0.5286046473,
				"z": -3.2305347204,
				"element": "N" 
			},
			{
				"x": 1.2029855352,
				"y": 1.0659397563,
				"z": -3.1127160449,
				"element": "C" 
			},
			{
				"x": 2.0019733807,
				"y": 1.3169410517,
				"z": -3.9712896173,
				"element": "O" 
			},
			{
				"x": 1.4129722141,
				"y": 1.2766534463,
				"z": -1.7512279492,
				"element": "O" 
			},
			{
				"x": -1.9039046616,
				"y": -0.0727486276,
				"z": -1.5579537404,
				"element": "C" 
			},
			{
				"x": -2.1535322154,
				"y": -0.0502933669,
				"z": -0.1835000263,
				"element": "C" 
			},
			{
				"x": 0.7946323872,
				"y": 1.2722877833,
				"z": 0.9960908702,
				"element": "H" 
			},
			{
				"x": -0.4630719008,
				"y": 0.2866171403,
				"z": -4.128682366,
				"element": "H" 
			},
			{
				"x": -2.6482585862,
				"y": -0.4429745439,
				"z": -2.2539559765,
				"element": "H" 
			},
			{
				"x": -3.0944436009,
				"y": -0.4011968262,
				"z": 0.2202555926,
				"element": "H" 
			}
		],
		 "valence_orbital": [ 
			{
				"type": "occ",
				"energy": -0.31464,
				"method": "rhf"
			},
			{
				"type": "occ",
				"energy": -0.31179,
				"method": "rhf"
			},
			{
				"type": "occ",
				"energy": -0.29611,
				"method": "rhf"
			},
			{
				"type": "occ",
				"energy": -0.28677,
				"method": "rhf"
			},
			{
				"type": "occ",
				"energy": -0.25651,
				"method": "rhf"
			},
			{
				"type": "unocc",
				"energy": -0.09467,
				"method": "rhf"
			},
			{
				"type": "unocc",
				"energy": -0.04119,
				"method": "rhf"
			},
			{
				"type": "unocc",
				"energy": -0.00321,
				"method": "rhf"
			},
			{
				"type": "unocc",
				"energy": 0.02492,
				"method": "rhf"
			},
			{
				"type": "unocc",
				"energy": 0.0515,
				"method": "rhf"
			}
		],
		"cosmo_sigma_profile": { 
			"-0.025": 0.0,
			"-0.024": 0.0,
			"-0.023": 0.0,
			"-0.022": 0.0,
			"-0.021": 0.0,
			"-0.02": 0.0,
			"-0.019": 0.0091666062004,
			"-0.018": 1.36377549369,
			"-0.017": 1.76675519634,
			"-0.016": 1.13796547912,
			"-0.015": 1.64435791771,
			"-0.014": 1.07228969362,
			"-0.013": 0.774018062878,
			"-0.012": 1.38472610716,
			"-0.011": 1.02430794281,
			"-0.01": 1.02749655391,
			"-0.009": 3.92068073472,
			"-0.008": 5.44374290825,
			"-0.007": 6.048564572,
			"-0.006": 8.23852589376,
			"-0.005": 8.73638271829,
			"-0.004": 8.53639935261,
			"-0.003": 11.5929466417,
			"-0.002": 14.9296373404,
			"-0.001": 17.7691077826,
			"0.0": 13.6473277369,
			"0.001": 9.33170511087,
			"0.002": 4.61806840067,
			"0.003": 3.79431725851,
			"0.004": 4.98182590083,
			"0.005": 4.92269818097,
			"0.006": 7.10517477967,
			"0.007": 11.0533904025,
			"0.008": 9.49575738678,
			"0.009": 6.40961762467,
			"0.01": 6.88683445755,
			"0.011": 6.98245842563,
			"0.012": 1.29525598357,
			"0.013": 0.0,
			"0.014": 0.0,
			"0.015": 0.0,
			"0.016": 0.0,
			"0.017": 0.0,
			"0.018": 0.0,
			"0.019": 0.0,
			"0.02": 0.0,
			"0.021": 0.0,
			"0.022": 0.0,
			"0.023": 0.0,
			"0.024": 0.0,
			"0.025": 0.0
		}
	}
}
