{
	 "smiles": "CCCCCCCCCCCCCCCl", 
	 "Tm": 278.05, 
	 "num_atms": 44, 
	 "gaussian": { 
		 "optdone": 1, 
		 "sigma_profile": "yes", 
		 "theory": "DFT", 
		 "functional": "B3LYP", 
		 "basiset": "6-31G**", 
		 "properties": { 
			 "R2extent": 6761.777, 
			 "electric_dipole_moment_norm": 2.48220676214, 
			 "electric_quadrupole_moment_norm": 10.7256819862, 
			 "total_energy": -1011.20199282, 
			 "HOMO_LUMO_gap": 0.31226, 
			 "cosmo_polarized_energy": -4.35, 
			 "cosmo_cavitation_energy": 44.47, 
			 "cosmo_dispersion_energy": -28.97, 
			 "cosmo_repulsion_energy": 2.38, 
			 "cosmo_total_nonelectrostatic_energy": 17.88, 
			 "SMD_solvation_energy": 5.37 
		},
		"coords": [
			{
				"x": 0.9360159708,
				"y": -0.4522408739,
				"z": -4.573730789,
				"element": "C" 
			},
			{
				"x": 1.3056121238,
				"y": 1.0311142823,
				"z": -4.6886198067,
				"element": "C" 
			},
			{
				"x": 0.3605774685,
				"y": 2.0169377498,
				"z": -3.9778583223,
				"element": "C" 
			},
			{
				"x": 0.2781816151,
				"y": 1.8869591143,
				"z": -2.4403751514,
				"element": "C" 
			},
			{
				"x": -0.842887132,
				"y": 0.9735296848,
				"z": -1.9190273459,
				"element": "C" 
			},
			{
				"x": -0.8776980403,
				"y": 0.8870114512,
				"z": -0.3865522331,
				"element": "C" 
			},
			{
				"x": -2.0565460503,
				"y": 0.0804646255,
				"z": 0.1867403203,
				"element": "C" 
			},
			{
				"x": -2.0834094898,
				"y": -1.417853349,
				"z": -0.1700442427,
				"element": "C" 
			},
			{
				"x": -0.9148521125,
				"y": -2.2618877542,
				"z": 0.3711321934,
				"element": "C" 
			},
			{
				"x": -0.8656756428,
				"y": -2.3655817136,
				"z": 1.9037485988,
				"element": "C" 
			},
			{
				"x": 0.1213564424,
				"y": -3.4184844192,
				"z": 2.4392433344,
				"element": "C" 
			},
			{
				"x": 1.6214899528,
				"y": -3.215101413,
				"z": 2.1495953451,
				"element": "C" 
			},
			{
				"x": 2.3133495646,
				"y": -2.0511191549,
				"z": 2.8967972504,
				"element": "C" 
			},
			{
				"x": 2.2359733622,
				"y": -0.7159036967,
				"z": 2.1649379402,
				"element": "C" 
			},
			{
				"x": 3.131490819,
				"y": 0.5905042004,
				"z": 3.0672140895,
				"element": "Cl" 
			},
			{
				"x": -0.085264474,
				"y": -0.6373128933,
				"z": -4.9266158868,
				"element": "H" 
			},
			{
				"x": 1.0010687619,
				"y": -0.8107064457,
				"z": -3.5414369776,
				"element": "H" 
			},
			{
				"x": 1.6113144093,
				"y": -1.0701335625,
				"z": -5.1754347537,
				"element": "H" 
			},
			{
				"x": 1.3458505397,
				"y": 1.3025997454,
				"z": -5.7517021436,
				"element": "H" 
			},
			{
				"x": 2.3238640045,
				"y": 1.1786731473,
				"z": -4.302817051,
				"element": "H" 
			},
			{
				"x": 0.6991959162,
				"y": 3.0303902693,
				"z": -4.2270539859,
				"element": "H" 
			},
			{
				"x": -0.6485476094,
				"y": 1.927473615,
				"z": -4.405054765,
				"element": "H" 
			},
			{
				"x": 1.2465424554,
				"y": 1.5402007514,
				"z": -2.0511212683,
				"element": "H" 
			},
			{
				"x": 0.1274512264,
				"y": 2.8840027542,
				"z": -2.0058117428,
				"element": "H" 
			},
			{
				"x": -1.8088040214,
				"y": 1.3564152471,
				"z": -2.2795054,
				"element": "H" 
			},
			{
				"x": -0.7384558117,
				"y": -0.0292706245,
				"z": -2.347993889,
				"element": "H" 
			},
			{
				"x": -0.92484722,
				"y": 1.905239921,
				"z": 0.0229244034,
				"element": "H" 
			},
			{
				"x": 0.0740372667,
				"y": 0.4703794909,
				"z": -0.0287108652,
				"element": "H" 
			},
			{
				"x": -2.0663446197,
				"y": 0.1947559239,
				"z": 1.2782907578,
				"element": "H" 
			},
			{
				"x": -2.9929459469,
				"y": 0.5337355711,
				"z": -0.1660873658,
				"element": "H" 
			},
			{
				"x": -2.1227851205,
				"y": -1.5300603665,
				"z": -1.2607002839,
				"element": "H" 
			},
			{
				"x": -3.0229549401,
				"y": -1.8450798151,
				"z": 0.2064795505,
				"element": "H" 
			},
			{
				"x": -1.0048746158,
				"y": -3.2760998688,
				"z": -0.0421505384,
				"element": "H" 
			},
			{
				"x": 0.0357938486,
				"y": -1.8698321451,
				"z": -0.0130908904,
				"element": "H" 
			},
			{
				"x": -0.6503268688,
				"y": -1.3857577512,
				"z": 2.347687435,
				"element": "H" 
			},
			{
				"x": -1.868223192,
				"y": -2.6340069205,
				"z": 2.2648804767,
				"element": "H" 
			},
			{
				"x": -0.1693819106,
				"y": -4.394629706,
				"z": 2.0271260911,
				"element": "H" 
			},
			{
				"x": -0.0086119362,
				"y": -3.5022387196,
				"z": 3.5267407879,
				"element": "H" 
			},
			{
				"x": 1.7927899004,
				"y": -3.1174662078,
				"z": 1.0691815357,
				"element": "H" 
			},
			{
				"x": 2.1337837528,
				"y": -4.1396231625,
				"z": 2.4415815735,
				"element": "H" 
			},
			{
				"x": 3.3728989132,
				"y": -2.2912982759,
				"z": 3.0368216008,
				"element": "H" 
			},
			{
				"x": 1.8854619787,
				"y": -1.9417590146,
				"z": 3.9003701187,
				"element": "H" 
			},
			{
				"x": 1.2159327289,
				"y": -0.3505185366,
				"z": 2.0517782791,
				"element": "H" 
			},
			{
				"x": 2.7024037327,
				"y": -0.7728211544,
				"z": 1.1792240162,
				"element": "H" 
			}
		],
		 "valence_orbital": [ 
			{
				"type": "occ",
				"energy": -0.30852,
				"method": "rhf"
			},
			{
				"type": "occ",
				"energy": -0.30429,
				"method": "rhf"
			},
			{
				"type": "occ",
				"energy": -0.29617,
				"method": "rhf"
			},
			{
				"type": "occ",
				"energy": -0.28841,
				"method": "rhf"
			},
			{
				"type": "occ",
				"energy": -0.28795,
				"method": "rhf"
			},
			{
				"type": "unocc",
				"energy": 0.02431,
				"method": "rhf"
			},
			{
				"type": "unocc",
				"energy": 0.06758,
				"method": "rhf"
			},
			{
				"type": "unocc",
				"energy": 0.08311,
				"method": "rhf"
			},
			{
				"type": "unocc",
				"energy": 0.09183,
				"method": "rhf"
			},
			{
				"type": "unocc",
				"energy": 0.09726,
				"method": "rhf"
			}
		],
		"cosmo_sigma_profile": { 
			"-0.025": 0.0,
			"-0.024": 0.0,
			"-0.023": 0.0,
			"-0.022": 0.0,
			"-0.021": 0.0,
			"-0.02": 0.0,
			"-0.019": 0.0,
			"-0.018": 0.0,
			"-0.017": 0.0,
			"-0.016": 0.0,
			"-0.015": 0.0,
			"-0.014": 0.0,
			"-0.013": 0.0,
			"-0.012": 0.0,
			"-0.011": 0.0,
			"-0.01": 0.0,
			"-0.009": 0.0,
			"-0.008": 0.0,
			"-0.007": 0.117964167198,
			"-0.006": 1.89472720811,
			"-0.005": 4.05553677178,
			"-0.004": 7.26595932319,
			"-0.003": 21.4307457887,
			"-0.002": 45.5679625863,
			"-0.001": 69.6830697317,
			"0.0": 75.8313308048,
			"0.001": 60.4289932457,
			"0.002": 25.93987776,
			"0.003": 4.13435240302,
			"0.004": 3.64590059017,
			"0.005": 4.90754075911,
			"0.006": 6.9498741375,
			"0.007": 10.00594481,
			"0.008": 1.1832391837,
			"0.009": 0.0,
			"0.01": 0.0,
			"0.011": 0.0,
			"0.012": 0.0,
			"0.013": 0.0,
			"0.014": 0.0,
			"0.015": 0.0,
			"0.016": 0.0,
			"0.017": 0.0,
			"0.018": 0.0,
			"0.019": 0.0,
			"0.02": 0.0,
			"0.021": 0.0,
			"0.022": 0.0,
			"0.023": 0.0,
			"0.024": 0.0,
			"0.025": 0.0
		}
	}
}
