{
	 "smiles": "OC(=O)C1=NOC(COC2=C(Cl)C=C(Cl)C=C2)=C1", 
	 "Tm": 425.15, 
	 "num_atms": 25, 
	 "gaussian": { 
		 "optdone": 1, 
		 "sigma_profile": "yes", 
		 "theory": "DFT", 
		 "functional": "B3LYP", 
		 "basiset": "6-31G**", 
		 "properties": { 
			 "R2extent": 9971.1142, 
			 "electric_dipole_moment_norm": 6.36701634834, 
			 "electric_quadrupole_moment_norm": 36.3637121185, 
			 "total_energy": -1699.34146384, 
			 "HOMO_LUMO_gap": 0.20376, 
			 "cosmo_polarized_energy": -20.88, 
			 "cosmo_cavitation_energy": 35.74, 
			 "cosmo_dispersion_energy": -25.58, 
			 "cosmo_repulsion_energy": 1.99, 
			 "cosmo_total_nonelectrostatic_energy": 12.15, 
			 "SMD_solvation_energy": 6.91 
		},
		"coords": [
			{
				"x": 4.6166501537,
				"y": -4.0188721645,
				"z": -0.881288064,
				"element": "O" 
			},
			{
				"x": 3.5141058067,
				"y": -4.1207965625,
				"z": -1.6690496938,
				"element": "C" 
			},
			{
				"x": 3.2399267452,
				"y": -5.1472611604,
				"z": -2.23053201,
				"element": "O" 
			},
			{
				"x": 2.6894325402,
				"y": -2.869538055,
				"z": -1.7443357333,
				"element": "C" 
			},
			{
				"x": 1.9529568153,
				"y": -2.648534406,
				"z": -2.8138624898,
				"element": "N" 
			},
			{
				"x": 1.3230312806,
				"y": -1.4320902225,
				"z": -2.5740811319,
				"element": "O" 
			},
			{
				"x": 1.6883581848,
				"y": -0.9627476586,
				"z": -1.3641357037,
				"element": "C" 
			},
			{
				"x": 1.0697993101,
				"y": 0.3246909514,
				"z": -0.929215197,
				"element": "C" 
			},
			{
				"x": 1.8559824276,
				"y": 0.8233205213,
				"z": 0.154233252,
				"element": "O" 
			},
			{
				"x": 1.3395597878,
				"y": 1.9290317477,
				"z": 0.7899027903,
				"element": "C" 
			},
			{
				"x": 0.4140333173,
				"y": 1.8037182119,
				"z": 1.8367808204,
				"element": "C" 
			},
			{
				"x": -0.1455182284,
				"y": 0.2181724764,
				"z": 2.3205148849,
				"element": "Cl" 
			},
			{
				"x": -0.0569273885,
				"y": 2.9286151213,
				"z": 2.5127271116,
				"element": "C" 
			},
			{
				"x": 0.4064089843,
				"y": 4.1874640561,
				"z": 2.1317875732,
				"element": "C" 
			},
			{
				"x": -0.1829333098,
				"y": 5.6038901977,
				"z": 2.9797390345,
				"element": "Cl" 
			},
			{
				"x": 1.3302286137,
				"y": 4.3370067797,
				"z": 1.0975594721,
				"element": "C" 
			},
			{
				"x": 1.7886887802,
				"y": 3.2018583172,
				"z": 0.4324752912,
				"element": "C" 
			},
			{
				"x": 2.5646413919,
				"y": -1.8234233805,
				"z": -0.7793117165,
				"element": "C" 
			},
			{
				"x": 4.7584287617,
				"y": -3.1006617188,
				"z": -0.6100641668,
				"element": "H" 
			},
			{
				"x": 0.03180737,
				"y": 0.1563364761,
				"z": -0.6116778612,
				"element": "H" 
			},
			{
				"x": 1.0555812648,
				"y": 1.0358847741,
				"z": -1.7667720838,
				"element": "H" 
			},
			{
				"x": -0.7680887409,
				"y": 2.8203017063,
				"z": 3.3224085828,
				"element": "H" 
			},
			{
				"x": 1.6843675444,
				"y": 5.3229750365,
				"z": 0.8200090471,
				"element": "H" 
			},
			{
				"x": 2.5161407983,
				"y": 3.2851180693,
				"z": -0.3685033028,
				"element": "H" 
			},
			{
				"x": 3.0051377893,
				"y": -1.7339591141,
				"z": 0.2013912946,
				"element": "H" 
			}
		],
		 "valence_orbital": [ 
			{
				"type": "occ",
				"energy": -0.31611,
				"method": "rhf"
			},
			{
				"type": "occ",
				"energy": -0.28815,
				"method": "rhf"
			},
			{
				"type": "occ",
				"energy": -0.28191,
				"method": "rhf"
			},
			{
				"type": "occ",
				"energy": -0.28163,
				"method": "rhf"
			},
			{
				"type": "occ",
				"energy": -0.2632,
				"method": "rhf"
			},
			{
				"type": "unocc",
				"energy": -0.05944,
				"method": "rhf"
			},
			{
				"type": "unocc",
				"energy": -0.04399,
				"method": "rhf"
			},
			{
				"type": "unocc",
				"energy": -0.03936,
				"method": "rhf"
			},
			{
				"type": "unocc",
				"energy": -0.01255,
				"method": "rhf"
			},
			{
				"type": "unocc",
				"energy": -0.00947,
				"method": "rhf"
			}
		],
		"cosmo_sigma_profile": { 
			"-0.025": 0.0,
			"-0.024": 0.0,
			"-0.023": 0.0,
			"-0.022": 0.0,
			"-0.021": 0.0,
			"-0.02": 0.00345978930343,
			"-0.019": 1.04736401674,
			"-0.018": 1.07530609156,
			"-0.017": 1.13581098334,
			"-0.016": 1.14965301785,
			"-0.015": 1.09874495166,
			"-0.014": 1.15696934497,
			"-0.013": 1.33322688957,
			"-0.012": 1.24389364562,
			"-0.011": 1.56813687646,
			"-0.01": 1.37567488995,
			"-0.009": 2.28475692711,
			"-0.008": 10.7518015061,
			"-0.007": 13.0980093293,
			"-0.006": 14.93360359,
			"-0.005": 11.470254287,
			"-0.004": 10.0498841108,
			"-0.003": 14.0912562418,
			"-0.002": 16.182952331,
			"-0.001": 17.8717227001,
			"0.0": 25.8480959027,
			"0.001": 29.4215258315,
			"0.002": 21.1442165753,
			"0.003": 18.5483254713,
			"0.004": 20.9701381219,
			"0.005": 8.94051134049,
			"0.006": 8.14170083629,
			"0.007": 6.08451277192,
			"0.008": 4.91024483006,
			"0.009": 7.27320699222,
			"0.01": 7.65940235677,
			"0.011": 7.10987299882,
			"0.012": 2.86620883328,
			"0.013": 0.35525187895,
			"0.014": 0.0,
			"0.015": 0.0,
			"0.016": 0.0,
			"0.017": 0.0,
			"0.018": 0.0,
			"0.019": 0.0,
			"0.02": 0.0,
			"0.021": 0.0,
			"0.022": 0.0,
			"0.023": 0.0,
			"0.024": 0.0,
			"0.025": 0.0
		}
	}
}
