{
	 "smiles": "CCCCCCN(CCCCCC)C(=O)C(C(F)(F)F)C(F)(F)F", 
	 "Tm": 474.15, 
	 "num_atms": 51, 
	 "gaussian": { 
		 "optdone": 1, 
		 "sigma_profile": "yes", 
		 "theory": "DFT", 
		 "functional": "B3LYP", 
		 "basiset": "6-31G**", 
		 "properties": { 
			 "R2extent": 12088.0425, 
			 "electric_dipole_moment_norm": 5.12307003856, 
			 "electric_quadrupole_moment_norm": 8.06206888026, 
			 "total_energy": -1355.04775658, 
			 "HOMO_LUMO_gap": 0.25087, 
			 "cosmo_polarized_energy": -11.53, 
			 "cosmo_cavitation_energy": 53.66, 
			 "cosmo_dispersion_energy": -34.1, 
			 "cosmo_repulsion_energy": 2.61, 
			 "cosmo_total_nonelectrostatic_energy": 22.16, 
			 "SMD_solvation_energy": 10.36 
		},
		"coords": [
			{
				"x": 0.8388085719,
				"y": 0.7658548271,
				"z": 5.341229959,
				"element": "C" 
			},
			{
				"x": -0.1789706583,
				"y": 1.908657242,
				"z": 5.2432374664,
				"element": "C" 
			},
			{
				"x": -1.2939648277,
				"y": 1.6829317207,
				"z": 4.2087231105,
				"element": "C" 
			},
			{
				"x": -0.8126376146,
				"y": 1.6401976795,
				"z": 2.7512022468,
				"element": "C" 
			},
			{
				"x": -1.9657405513,
				"y": 1.4720655375,
				"z": 1.7534507119,
				"element": "C" 
			},
			{
				"x": -1.5422261627,
				"y": 1.4651414799,
				"z": 0.2746729495,
				"element": "C" 
			},
			{
				"x": -0.6656811497,
				"y": 0.3479918962,
				"z": -0.107879459,
				"element": "N" 
			},
			{
				"x": 0.7771299861,
				"y": 0.6125559957,
				"z": -0.2438875258,
				"element": "C" 
			},
			{
				"x": 1.1730849659,
				"y": 1.0769230361,
				"z": -1.651439031,
				"element": "C" 
			},
			{
				"x": 2.6761973337,
				"y": 1.3592769272,
				"z": -1.7709372181,
				"element": "C" 
			},
			{
				"x": 3.0878872953,
				"y": 1.8207703853,
				"z": -3.1761330735,
				"element": "C" 
			},
			{
				"x": 4.5777137557,
				"y": 2.17120977,
				"z": -3.324708977,
				"element": "C" 
			},
			{
				"x": 5.5306459178,
				"y": 0.9812719828,
				"z": -3.1589878968,
				"element": "C" 
			},
			{
				"x": -1.092391931,
				"y": -0.894512783,
				"z": -0.4780942083,
				"element": "C" 
			},
			{
				"x": -0.3359986259,
				"y": -1.7740905353,
				"z": -0.870826753,
				"element": "O" 
			},
			{
				"x": -2.6075640729,
				"y": -1.1961399385,
				"z": -0.3926810049,
				"element": "C" 
			},
			{
				"x": -2.8573282906,
				"y": -2.4128035257,
				"z": 0.5012067241,
				"element": "C" 
			},
			{
				"x": -4.180560843,
				"y": -2.5795281531,
				"z": 0.7114757757,
				"element": "F" 
			},
			{
				"x": -2.3750112548,
				"y": -3.5546097828,
				"z": 0.0075700847,
				"element": "F" 
			},
			{
				"x": -2.284468348,
				"y": -2.1964564839,
				"z": 1.709676504,
				"element": "F" 
			},
			{
				"x": -3.1879141086,
				"y": -1.3517205,
				"z": -1.7993131074,
				"element": "C" 
			},
			{
				"x": -2.6894850517,
				"y": -2.3930385312,
				"z": -2.4705822584,
				"element": "F" 
			},
			{
				"x": -2.9198344643,
				"y": -0.2271917869,
				"z": -2.5084503236,
				"element": "F" 
			},
			{
				"x": -4.5286972837,
				"y": -1.4878351922,
				"z": -1.7566221535,
				"element": "F" 
			},
			{
				"x": 1.5723885186,
				"y": 0.9602100774,
				"z": 6.1303738849,
				"element": "H" 
			},
			{
				"x": 0.3439375762,
				"y": -0.1839659816,
				"z": 5.5747481572,
				"element": "H" 
			},
			{
				"x": 1.3934694782,
				"y": 0.6280414955,
				"z": 4.4073600046,
				"element": "H" 
			},
			{
				"x": -0.6426318018,
				"y": 2.0570743266,
				"z": 6.2265964783,
				"element": "H" 
			},
			{
				"x": 0.3438796135,
				"y": 2.8469346569,
				"z": 5.0114646045,
				"element": "H" 
			},
			{
				"x": -1.8194338032,
				"y": 0.7460158219,
				"z": 4.4423522755,
				"element": "H" 
			},
			{
				"x": -2.0395066651,
				"y": 2.4833334791,
				"z": 4.3112192944,
				"element": "H" 
			},
			{
				"x": -0.1020031665,
				"y": 0.8160941119,
				"z": 2.6196061058,
				"element": "H" 
			},
			{
				"x": -0.2646195219,
				"y": 2.5668248153,
				"z": 2.5247442767,
				"element": "H" 
			},
			{
				"x": -2.5005682838,
				"y": 0.542409042,
				"z": 1.9859648917,
				"element": "H" 
			},
			{
				"x": -2.688758325,
				"y": 2.2886103818,
				"z": 1.886284417,
				"element": "H" 
			},
			{
				"x": -0.9949578424,
				"y": 2.3854517171,
				"z": 0.0468063015,
				"element": "H" 
			},
			{
				"x": -2.421032552,
				"y": 1.4810847907,
				"z": -0.3770037691,
				"element": "H" 
			},
			{
				"x": 1.3058364568,
				"y": -0.310489611,
				"z": 0.0031707225,
				"element": "H" 
			},
			{
				"x": 1.0474713123,
				"y": 1.3682749967,
				"z": 0.4998533733,
				"element": "H" 
			},
			{
				"x": 0.6054183718,
				"y": 1.9802808049,
				"z": -1.9147310588,
				"element": "H" 
			},
			{
				"x": 0.8814408532,
				"y": 0.2986666824,
				"z": -2.3656240146,
				"element": "H" 
			},
			{
				"x": 2.9654534236,
				"y": 2.1288181836,
				"z": -1.0397398499,
				"element": "H" 
			},
			{
				"x": 3.2312873456,
				"y": 0.4530299491,
				"z": -1.4969583105,
				"element": "H" 
			},
			{
				"x": 2.8253741708,
				"y": 1.0393672391,
				"z": -3.903264192,
				"element": "H" 
			},
			{
				"x": 2.4888798782,
				"y": 2.7008981313,
				"z": -3.4473804141,
				"element": "H" 
			},
			{
				"x": 4.7336911234,
				"y": 2.6158186136,
				"z": -4.3158519948,
				"element": "H" 
			},
			{
				"x": 4.8387385428,
				"y": 2.9535153238,
				"z": -2.59841595,
				"element": "H" 
			},
			{
				"x": 5.2945493267,
				"y": 0.1849394808,
				"z": -3.8744155908,
				"element": "H" 
			},
			{
				"x": 6.5693980056,
				"y": 1.2827991005,
				"z": -3.3293549874,
				"element": "H" 
			},
			{
				"x": 5.4768043599,
				"y": 0.5490395158,
				"z": -2.1545226706,
				"element": "H" 
			},
			{
				"x": -3.1747989832,
				"y": -0.3883984126,
				"z": 0.0676154722,
				"element": "H" 
			}
		],
		 "valence_orbital": [ 
			{
				"type": "occ",
				"energy": -0.32355,
				"method": "rhf"
			},
			{
				"type": "occ",
				"energy": -0.32261,
				"method": "rhf"
			},
			{
				"type": "occ",
				"energy": -0.31774,
				"method": "rhf"
			},
			{
				"type": "occ",
				"energy": -0.26408,
				"method": "rhf"
			},
			{
				"type": "occ",
				"energy": -0.24955,
				"method": "rhf"
			},
			{
				"type": "unocc",
				"energy": 0.00132,
				"method": "rhf"
			},
			{
				"type": "unocc",
				"energy": 0.06618,
				"method": "rhf"
			},
			{
				"type": "unocc",
				"energy": 0.08013,
				"method": "rhf"
			},
			{
				"type": "unocc",
				"energy": 0.08292,
				"method": "rhf"
			},
			{
				"type": "unocc",
				"energy": 0.08956,
				"method": "rhf"
			}
		],
		"cosmo_sigma_profile": { 
			"-0.025": 0.0,
			"-0.024": 0.0,
			"-0.023": 0.0,
			"-0.022": 0.0,
			"-0.021": 0.0,
			"-0.02": 0.0,
			"-0.019": 0.0,
			"-0.018": 0.0,
			"-0.017": 0.0,
			"-0.016": 0.0,
			"-0.015": 0.0,
			"-0.014": 0.0,
			"-0.013": 0.0,
			"-0.012": 0.379703600267,
			"-0.011": 1.57016043469,
			"-0.01": 2.01084694235,
			"-0.009": 1.74946556689,
			"-0.008": 1.78405232757,
			"-0.007": 1.50235646747,
			"-0.006": 3.31233714806,
			"-0.005": 7.57110494731,
			"-0.004": 11.4605562784,
			"-0.003": 26.8904132909,
			"-0.002": 58.6587164039,
			"-0.001": 63.0355025117,
			"0.0": 68.5799247637,
			"0.001": 61.4775717483,
			"0.002": 63.6130761833,
			"0.003": 18.884247592,
			"0.004": 3.13895705072,
			"0.005": 2.88795973319,
			"0.006": 2.10159780848,
			"0.007": 1.7418326508,
			"0.008": 1.37366507304,
			"0.009": 2.52610244161,
			"0.01": 1.97685674847,
			"0.011": 1.99367413928,
			"0.012": 3.10508449209,
			"0.013": 3.13617455022,
			"0.014": 0.0179823204361,
			"0.015": 0.0,
			"0.016": 0.0,
			"0.017": 0.0,
			"0.018": 0.0,
			"0.019": 0.0,
			"0.02": 0.0,
			"0.021": 0.0,
			"0.022": 0.0,
			"0.023": 0.0,
			"0.024": 0.0,
			"0.025": 0.0
		}
	}
}
