{
	 "smiles": "O=C1NC(NC2=CC=CC=C2)=CC2=C1C=CC=C2", 
	 "Tm": 465.15, 
	 "num_atms": 30, 
	 "gaussian": { 
		 "optdone": 1, 
		 "sigma_profile": "yes", 
		 "theory": "DFT", 
		 "functional": "B3LYP", 
		 "basiset": "6-31G**", 
		 "properties": { 
			 "R2extent": 5953.4574, 
			 "electric_dipole_moment_norm": 3.97171690582, 
			 "electric_quadrupole_moment_norm": 16.8362497754, 
			 "total_energy": -763.584683724, 
			 "HOMO_LUMO_gap": 0.16106, 
			 "cosmo_polarized_energy": -16.73, 
			 "cosmo_cavitation_energy": 34.16, 
			 "cosmo_dispersion_energy": -25.13, 
			 "cosmo_repulsion_energy": 1.91, 
			 "cosmo_total_nonelectrostatic_energy": 10.94, 
			 "SMD_solvation_energy": 5.9 
		},
		"coords": [
			{
				"x": -3.1630792362,
				"y": -1.5244873137,
				"z": -2.777216768,
				"element": "O" 
			},
			{
				"x": -2.2939260798,
				"y": -1.0098443699,
				"z": -2.0807090276,
				"element": "C" 
			},
			{
				"x": -1.0668359743,
				"y": -1.6608133555,
				"z": -1.9051863969,
				"element": "N" 
			},
			{
				"x": -0.0048182975,
				"y": -1.2057529691,
				"z": -1.1416081409,
				"element": "C" 
			},
			{
				"x": 1.0986002379,
				"y": -2.0602107084,
				"z": -1.1641668241,
				"element": "N" 
			},
			{
				"x": 2.1858683331,
				"y": -2.0431119397,
				"z": -0.2685974116,
				"element": "C" 
			},
			{
				"x": 3.4696834268,
				"y": -2.3319931727,
				"z": -0.7558484529,
				"element": "C" 
			},
			{
				"x": 4.5563801805,
				"y": -2.3976141655,
				"z": 0.1140965262,
				"element": "C" 
			},
			{
				"x": 4.3852600503,
				"y": -2.1616210634,
				"z": 1.4788765302,
				"element": "C" 
			},
			{
				"x": 3.1076829236,
				"y": -1.8733772455,
				"z": 1.9641889102,
				"element": "C" 
			},
			{
				"x": 2.0105516753,
				"y": -1.8206352795,
				"z": 1.1066933092,
				"element": "C" 
			},
			{
				"x": -0.1106105,
				"y": -0.0196734713,
				"z": -0.4777217453,
				"element": "C" 
			},
			{
				"x": -1.3320803007,
				"y": 0.7347801372,
				"z": -0.5598788138,
				"element": "C" 
			},
			{
				"x": -2.4084818485,
				"y": 0.2640996719,
				"z": -1.3572857128,
				"element": "C" 
			},
			{
				"x": -3.6014961998,
				"y": 0.997112925,
				"z": -1.456871898,
				"element": "C" 
			},
			{
				"x": -3.7416694746,
				"y": 2.1997267657,
				"z": -0.7819607108,
				"element": "C" 
			},
			{
				"x": -2.6802918064,
				"y": 2.6800707572,
				"z": 0.0062470143,
				"element": "C" 
			},
			{
				"x": -1.4989595479,
				"y": 1.9642972983,
				"z": 0.1175541508,
				"element": "C" 
			},
			{
				"x": -1.0276401478,
				"y": -2.5888645786,
				"z": -2.3077950424,
				"element": "H" 
			},
			{
				"x": 1.3193159888,
				"y": -2.4309679517,
				"z": -2.0796924022,
				"element": "H" 
			},
			{
				"x": 3.6136887814,
				"y": -2.5025619814,
				"z": -1.8203561242,
				"element": "H" 
			},
			{
				"x": 5.5418640828,
				"y": -2.6250381749,
				"z": -0.2820451329,
				"element": "H" 
			},
			{
				"x": 5.2334668583,
				"y": -2.2041377322,
				"z": 2.1547709984,
				"element": "H" 
			},
			{
				"x": 2.956412257,
				"y": -1.6987919076,
				"z": 3.0256622153,
				"element": "H" 
			},
			{
				"x": 1.0193410616,
				"y": -1.6214978552,
				"z": 1.4977615538,
				"element": "H" 
			},
			{
				"x": 0.7309542192,
				"y": 0.3656386691,
				"z": 0.0821190377,
				"element": "H" 
			},
			{
				"x": -4.3961361174,
				"y": 0.5924397639,
				"z": -2.0750429369,
				"element": "H" 
			},
			{
				"x": -4.6625485388,
				"y": 2.7692464117,
				"z": -0.8608350451,
				"element": "H" 
			},
			{
				"x": -2.7870116601,
				"y": 3.6228935356,
				"z": 0.5359626096,
				"element": "H" 
			},
			{
				"x": -0.6852843464,
				"y": 2.3436893001,
				"z": 0.7298857308,
				"element": "H" 
			}
		],
		 "valence_orbital": [ 
			{
				"type": "occ",
				"energy": -0.25989,
				"method": "rhf"
			},
			{
				"type": "occ",
				"energy": -0.25203,
				"method": "rhf"
			},
			{
				"type": "occ",
				"energy": -0.25078,
				"method": "rhf"
			},
			{
				"type": "occ",
				"energy": -0.23541,
				"method": "rhf"
			},
			{
				"type": "occ",
				"energy": -0.19249,
				"method": "rhf"
			},
			{
				"type": "unocc",
				"energy": -0.03143,
				"method": "rhf"
			},
			{
				"type": "unocc",
				"energy": -0.02657,
				"method": "rhf"
			},
			{
				"type": "unocc",
				"energy": -0.01075,
				"method": "rhf"
			},
			{
				"type": "unocc",
				"energy": 0.00472,
				"method": "rhf"
			},
			{
				"type": "unocc",
				"energy": 0.04779,
				"method": "rhf"
			}
		],
		"cosmo_sigma_profile": { 
			"-0.025": 0.0,
			"-0.024": 0.0,
			"-0.023": 0.0,
			"-0.022": 0.0,
			"-0.021": 0.0,
			"-0.02": 0.0,
			"-0.019": 0.0,
			"-0.018": 0.0,
			"-0.017": 0.0272442585235,
			"-0.016": 1.57306835156,
			"-0.015": 3.13961858256,
			"-0.014": 1.71679605148,
			"-0.013": 2.47740339973,
			"-0.012": 1.5865588342,
			"-0.011": 1.90358719703,
			"-0.01": 1.53966786028,
			"-0.009": 1.99375281115,
			"-0.008": 1.56538931783,
			"-0.007": 2.1707715405,
			"-0.006": 11.9951806032,
			"-0.005": 18.735844676,
			"-0.004": 21.3332797728,
			"-0.003": 19.2021750753,
			"-0.002": 16.0555910396,
			"-0.001": 19.2408260921,
			"0.0": 17.3212957172,
			"0.001": 17.9354218042,
			"0.002": 19.1155173999,
			"0.003": 21.2994928327,
			"0.004": 24.4566065928,
			"0.005": 19.3763920387,
			"0.006": 9.61391062117,
			"0.007": 1.89730046187,
			"0.008": 1.22714039921,
			"0.009": 1.42818004753,
			"0.01": 1.25155011241,
			"0.011": 1.67907740913,
			"0.012": 1.54229168918,
			"0.013": 4.39854742655,
			"0.014": 4.89727445448,
			"0.015": 0.234390024051,
			"0.016": 0.0,
			"0.017": 0.0,
			"0.018": 0.0,
			"0.019": 0.0,
			"0.02": 0.0,
			"0.021": 0.0,
			"0.022": 0.0,
			"0.023": 0.0,
			"0.024": 0.0,
			"0.025": 0.0
		}
	}
}
