{
	 "smiles": "OC(CC1CCCN1)C1=CC=CS1", 
	 "Tm": 337.15, 
	 "num_atms": 28, 
	 "gaussian": { 
		 "optdone": 1, 
		 "sigma_profile": "yes", 
		 "theory": "DFT", 
		 "functional": "B3LYP", 
		 "basiset": "6-31G**", 
		 "properties": { 
			 "R2extent": 3336.1774, 
			 "electric_dipole_moment_norm": 2.54832228142, 
			 "electric_quadrupole_moment_norm": 7.15580143799, 
			 "total_energy": -918.234837196, 
			 "HOMO_LUMO_gap": 0.19191, 
			 "cosmo_polarized_energy": -9.89, 
			 "cosmo_cavitation_energy": 30.12, 
			 "cosmo_dispersion_energy": -22.35, 
			 "cosmo_repulsion_energy": 1.74, 
			 "cosmo_total_nonelectrostatic_energy": 9.51, 
			 "SMD_solvation_energy": 1.77 
		},
		"coords": [
			{
				"x": 0.2044858681,
				"y": 1.8224863726,
				"z": -2.049548145,
				"element": "O" 
			},
			{
				"x": 1.3670720223,
				"y": 1.1559337222,
				"z": -1.5605304754,
				"element": "C" 
			},
			{
				"x": 1.2331754501,
				"y": -0.353169483,
				"z": -1.8585621983,
				"element": "C" 
			},
			{
				"x": -0.0608831446,
				"y": -1.0981166781,
				"z": -1.4938202662,
				"element": "C" 
			},
			{
				"x": -0.6227793641,
				"y": -0.9795205964,
				"z": -0.0569775153,
				"element": "C" 
			},
			{
				"x": -2.0840661432,
				"y": -1.4637081739,
				"z": -0.2109204563,
				"element": "C" 
			},
			{
				"x": -2.3662767345,
				"y": -1.355039447,
				"z": -1.7466820706,
				"element": "C" 
			},
			{
				"x": -1.1839651433,
				"y": -0.7537930338,
				"z": -2.3834692948,
				"element": "N" 
			},
			{
				"x": 1.6225593595,
				"y": 1.530591344,
				"z": -0.112166552,
				"element": "C" 
			},
			{
				"x": 0.8767533632,
				"y": 2.350418689,
				"z": 0.6937055002,
				"element": "C" 
			},
			{
				"x": 1.4495074435,
				"y": 2.5536760025,
				"z": 1.9883322714,
				"element": "C" 
			},
			{
				"x": 2.6319761965,
				"y": 1.8919290708,
				"z": 2.1532098635,
				"element": "C" 
			},
			{
				"x": 3.0668499582,
				"y": 1.0056061067,
				"z": 0.7225514799,
				"element": "S" 
			},
			{
				"x": 0.3678170014,
				"y": 2.7741464242,
				"z": -2.0130939854,
				"element": "H" 
			},
			{
				"x": 2.2457649681,
				"y": 1.4895382141,
				"z": -2.1379313268,
				"element": "H" 
			},
			{
				"x": 1.3709563757,
				"y": -0.479130952,
				"z": -2.9382855422,
				"element": "H" 
			},
			{
				"x": 2.0801487161,
				"y": -0.8523860046,
				"z": -1.3732996503,
				"element": "H" 
			},
			{
				"x": 0.1571908933,
				"y": -2.1641654485,
				"z": -1.6710184883,
				"element": "H" 
			},
			{
				"x": -0.0535440686,
				"y": -1.5624955453,
				"z": 0.674937851,
				"element": "H" 
			},
			{
				"x": -0.5994059681,
				"y": 0.0632170639,
				"z": 0.2667340143,
				"element": "H" 
			},
			{
				"x": -2.7741190351,
				"y": -0.8531076635,
				"z": 0.3797247433,
				"element": "H" 
			},
			{
				"x": -2.2013615457,
				"y": -2.4974400444,
				"z": 0.131289938,
				"element": "H" 
			},
			{
				"x": -2.5285706452,
				"y": -2.3566480681,
				"z": -2.165310298,
				"element": "H" 
			},
			{
				"x": -3.2590948647,
				"y": -0.7657575138,
				"z": -1.976800311,
				"element": "H" 
			},
			{
				"x": -1.2724180715,
				"y": 0.2598123306,
				"z": -2.3817903868,
				"element": "H" 
			},
			{
				"x": -0.0660269771,
				"y": 2.7794609747,
				"z": 0.3753705339,
				"element": "H" 
			},
			{
				"x": 0.9942470693,
				"y": 3.1639932126,
				"z": 2.7602487704,
				"element": "H" 
			},
			{
				"x": 3.2731070203,
				"y": 1.8590691243,
				"z": 3.0231019968,
				"element": "H" 
			}
		],
		 "valence_orbital": [ 
			{
				"type": "occ",
				"energy": -0.30481,
				"method": "rhf"
			},
			{
				"type": "occ",
				"energy": -0.28782,
				"method": "rhf"
			},
			{
				"type": "occ",
				"energy": -0.25257,
				"method": "rhf"
			},
			{
				"type": "occ",
				"energy": -0.2287,
				"method": "rhf"
			},
			{
				"type": "occ",
				"energy": -0.20671,
				"method": "rhf"
			},
			{
				"type": "unocc",
				"energy": -0.0148,
				"method": "rhf"
			},
			{
				"type": "unocc",
				"energy": 0.02619,
				"method": "rhf"
			},
			{
				"type": "unocc",
				"energy": 0.0561,
				"method": "rhf"
			},
			{
				"type": "unocc",
				"energy": 0.06576,
				"method": "rhf"
			},
			{
				"type": "unocc",
				"energy": 0.09165,
				"method": "rhf"
			}
		],
		"cosmo_sigma_profile": { 
			"-0.025": 0.0,
			"-0.024": 0.0,
			"-0.023": 0.0,
			"-0.022": 0.0,
			"-0.021": 0.0,
			"-0.02": 0.0,
			"-0.019": 0.0,
			"-0.018": 0.0,
			"-0.017": 0.0,
			"-0.016": 0.615332968075,
			"-0.015": 0.913567164643,
			"-0.014": 0.605709904419,
			"-0.013": 0.997592742739,
			"-0.012": 0.874772098323,
			"-0.011": 0.566348575052,
			"-0.01": 1.24180837522,
			"-0.009": 0.839690067351,
			"-0.008": 2.8166323982,
			"-0.007": 3.68312453647,
			"-0.006": 6.54281923541,
			"-0.005": 10.8161278828,
			"-0.004": 12.9335449839,
			"-0.003": 18.4981944273,
			"-0.002": 25.7538195643,
			"-0.001": 29.8071149383,
			"0.0": 23.4447335516,
			"0.001": 19.5214707034,
			"0.002": 14.9726115352,
			"0.003": 13.8605451543,
			"0.004": 13.643144947,
			"0.005": 14.0700912418,
			"0.006": 6.37414552228,
			"0.007": 2.76774152299,
			"0.008": 1.79939515347,
			"0.009": 1.83954584195,
			"0.01": 1.48947934099,
			"0.011": 1.07619869556,
			"0.012": 0.775150226772,
			"0.013": 0.55341010924,
			"0.014": 0.682974479742,
			"0.015": 0.699626982202,
			"0.016": 0.720903227644,
			"0.017": 0.356327462055,
			"0.018": 0.635739601279,
			"0.019": 0.572039482987,
			"0.02": 0.183484672091,
			"0.021": 0.0,
			"0.022": 0.0,
			"0.023": 0.0,
			"0.024": 0.0,
			"0.025": 0.0
		}
	}
}
