{
	 "smiles": "CC1CCCCC1NC(=O)NC(=O)CCl", 
	 "Tm": 400.15, 
	 "num_atms": 32, 
	 "gaussian": { 
		 "optdone": 1, 
		 "sigma_profile": "yes", 
		 "theory": "DFT", 
		 "functional": "B3LYP", 
		 "basiset": "6-31G**", 
		 "properties": { 
			 "R2extent": 5685.463, 
			 "electric_dipole_moment_norm": 2.86128288885, 
			 "electric_quadrupole_moment_norm": 13.4327171514, 
			 "total_energy": -1111.50462108, 
			 "HOMO_LUMO_gap": 0.2333, 
			 "cosmo_polarized_energy": -13.49, 
			 "cosmo_cavitation_energy": 34.42, 
			 "cosmo_dispersion_energy": -24.61, 
			 "cosmo_repulsion_energy": 1.97, 
			 "cosmo_total_nonelectrostatic_energy": 11.78, 
			 "SMD_solvation_energy": 6.0 
		},
		"coords": [
			{
				"x": 0.9883147818,
				"y": 2.9134654604,
				"z": -0.0902186269,
				"element": "C" 
			},
			{
				"x": 1.0765841967,
				"y": 1.5010934304,
				"z": 0.5119092706,
				"element": "C" 
			},
			{
				"x": 2.3869203743,
				"y": 0.7793619323,
				"z": 0.1207882978,
				"element": "C" 
			},
			{
				"x": 2.4107578195,
				"y": 0.3255178994,
				"z": -1.3486547476,
				"element": "C" 
			},
			{
				"x": 1.1867702001,
				"y": -0.5410568924,
				"z": -1.6845960613,
				"element": "C" 
			},
			{
				"x": -0.1247222653,
				"y": 0.1787750496,
				"z": -1.3334150855,
				"element": "C" 
			},
			{
				"x": -0.1658453134,
				"y": 0.645681592,
				"z": 0.1343638736,
				"element": "C" 
			},
			{
				"x": -0.2826267725,
				"y": -0.5165357307,
				"z": 1.0319194317,
				"element": "N" 
			},
			{
				"x": -1.0835434878,
				"y": -0.6947266528,
				"z": 2.1136173557,
				"element": "C" 
			},
			{
				"x": -0.8219060644,
				"y": -1.4480664893,
				"z": 3.0396543331,
				"element": "O" 
			},
			{
				"x": -2.3093336122,
				"y": 0.0485101193,
				"z": 2.17912605,
				"element": "N" 
			},
			{
				"x": -3.2519419205,
				"y": 0.2191282924,
				"z": 1.1982095206,
				"element": "C" 
			},
			{
				"x": -3.0911145545,
				"y": 0.0387065761,
				"z": 0.0026282858,
				"element": "O" 
			},
			{
				"x": -4.6416157202,
				"y": 0.6964129942,
				"z": 1.6411302779,
				"element": "C" 
			},
			{
				"x": -4.9007733294,
				"y": 0.9814186135,
				"z": 3.4107383439,
				"element": "Cl" 
			},
			{
				"x": 0.0705811627,
				"y": 3.4194495844,
				"z": 0.2292373368,
				"element": "H" 
			},
			{
				"x": 1.8357942696,
				"y": 3.5235036113,
				"z": 0.2398867675,
				"element": "H" 
			},
			{
				"x": 0.9961926247,
				"y": 2.9062095148,
				"z": -1.1842544413,
				"element": "H" 
			},
			{
				"x": 1.0657595456,
				"y": 1.6142702948,
				"z": 1.604203887,
				"element": "H" 
			},
			{
				"x": 2.5236889924,
				"y": -0.1012047088,
				"z": 0.7652474356,
				"element": "H" 
			},
			{
				"x": 3.2403059734,
				"y": 1.4345738005,
				"z": 0.3332838159,
				"element": "H" 
			},
			{
				"x": 3.3367306588,
				"y": -0.2255965273,
				"z": -1.550774858,
				"element": "H" 
			},
			{
				"x": 2.4256429715,
				"y": 1.2023037906,
				"z": -2.0092992144,
				"element": "H" 
			},
			{
				"x": 1.1887885713,
				"y": -0.8106945236,
				"z": -2.7469134099,
				"element": "H" 
			},
			{
				"x": 1.2487386186,
				"y": -1.4913641768,
				"z": -1.1345508037,
				"element": "H" 
			},
			{
				"x": -0.9940029202,
				"y": -0.4581383015,
				"z": -1.513534705,
				"element": "H" 
			},
			{
				"x": -0.2355841405,
				"y": 1.0587156629,
				"z": -1.9794520602,
				"element": "H" 
			},
			{
				"x": -1.0628518736,
				"y": 1.2455531271,
				"z": 0.2808307838,
				"element": "H" 
			},
			{
				"x": 0.5317678617,
				"y": -1.1126847508,
				"z": 1.1028303579,
				"element": "H" 
			},
			{
				"x": -2.6620940215,
				"y": 0.0519438894,
				"z": 3.1302945065,
				"element": "H" 
			},
			{
				"x": -5.36831595,
				"y": -0.0516138447,
				"z": 1.3226003269,
				"element": "H" 
			},
			{
				"x": -4.8546666768,
				"y": 1.6333873635,
				"z": 1.125963755,
				"element": "H" 
			}
		],
		 "valence_orbital": [ 
			{
				"type": "occ",
				"energy": -0.30544,
				"method": "rhf"
			},
			{
				"type": "occ",
				"energy": -0.29967,
				"method": "rhf"
			},
			{
				"type": "occ",
				"energy": -0.27954,
				"method": "rhf"
			},
			{
				"type": "occ",
				"energy": -0.26509,
				"method": "rhf"
			},
			{
				"type": "occ",
				"energy": -0.25092,
				"method": "rhf"
			},
			{
				"type": "unocc",
				"energy": -0.01762,
				"method": "rhf"
			},
			{
				"type": "unocc",
				"energy": 0.00648,
				"method": "rhf"
			},
			{
				"type": "unocc",
				"energy": 0.04612,
				"method": "rhf"
			},
			{
				"type": "unocc",
				"energy": 0.06428,
				"method": "rhf"
			},
			{
				"type": "unocc",
				"energy": 0.08081,
				"method": "rhf"
			}
		],
		"cosmo_sigma_profile": { 
			"-0.025": 0.0,
			"-0.024": 0.0,
			"-0.023": 0.0,
			"-0.022": 0.0,
			"-0.021": 0.0,
			"-0.02": 0.0,
			"-0.019": 0.0,
			"-0.018": 0.0,
			"-0.017": 0.0,
			"-0.016": 0.0,
			"-0.015": 0.0,
			"-0.014": 0.0,
			"-0.013": 0.0,
			"-0.012": 0.727119802691,
			"-0.011": 0.989936216708,
			"-0.01": 3.17482812742,
			"-0.009": 7.01227953883,
			"-0.008": 6.3994651073,
			"-0.007": 7.87390879974,
			"-0.006": 5.79940039197,
			"-0.005": 6.6433208637,
			"-0.004": 10.0206431283,
			"-0.003": 23.8058394972,
			"-0.002": 31.9322607394,
			"-0.001": 34.6768933133,
			"0.0": 33.4599384316,
			"0.001": 28.4924378441,
			"0.002": 11.0219709839,
			"0.003": 6.58077580256,
			"0.004": 8.72523291948,
			"0.005": 9.20880397799,
			"0.006": 3.8930130936,
			"0.007": 3.55691200349,
			"0.008": 3.12665492665,
			"0.009": 2.99760821242,
			"0.01": 4.09356840375,
			"0.011": 3.35369580322,
			"0.012": 4.20938745603,
			"0.013": 6.91405221145,
			"0.014": 1.7370153361,
			"0.015": 0.0,
			"0.016": 0.0,
			"0.017": 0.0,
			"0.018": 0.0,
			"0.019": 0.0,
			"0.02": 0.0,
			"0.021": 0.0,
			"0.022": 0.0,
			"0.023": 0.0,
			"0.024": 0.0,
			"0.025": 0.0
		}
	}
}
