{
	 "smiles": "CN1C(=O)C=CC=C1C1=NC=CC=C1", 
	 "Tm": 340.15, 
	 "num_atms": 24, 
	 "gaussian": { 
		 "optdone": 1, 
		 "sigma_profile": "yes", 
		 "theory": "DFT", 
		 "functional": "B3LYP", 
		 "basiset": "6-31G**", 
		 "properties": { 
			 "R2extent": 2940.6808, 
			 "electric_dipole_moment_norm": 6.0078050784, 
			 "electric_quadrupole_moment_norm": 9.27035729732, 
			 "total_energy": -609.922776443, 
			 "HOMO_LUMO_gap": 0.14926, 
			 "cosmo_polarized_energy": -13.33, 
			 "cosmo_cavitation_energy": 27.73, 
			 "cosmo_dispersion_energy": -20.32, 
			 "cosmo_repulsion_energy": 1.57, 
			 "cosmo_total_nonelectrostatic_energy": 8.98, 
			 "SMD_solvation_energy": 4.61 
		},
		"coords": [
			{
				"x": 0.7185392443,
				"y": 0.3865452931,
				"z": 1.773316874,
				"element": "C" 
			},
			{
				"x": 0.7457277002,
				"y": 0.9625850506,
				"z": 0.4208191613,
				"element": "N" 
			},
			{
				"x": 1.7682255854,
				"y": 1.9344375818,
				"z": 0.1886485377,
				"element": "C" 
			},
			{
				"x": 2.51405772,
				"y": 2.2836010605,
				"z": 1.1023691739,
				"element": "O" 
			},
			{
				"x": 1.8462751017,
				"y": 2.4272925952,
				"z": -1.1710007583,
				"element": "C" 
			},
			{
				"x": 0.9921970142,
				"y": 1.9984102418,
				"z": -2.1426769321,
				"element": "C" 
			},
			{
				"x": -0.0169092707,
				"y": 1.0478044764,
				"z": -1.8413538697,
				"element": "C" 
			},
			{
				"x": -0.1286695907,
				"y": 0.5564928568,
				"z": -0.5616354475,
				"element": "C" 
			},
			{
				"x": -1.2330800742,
				"y": -0.3942397823,
				"z": -0.2396807893,
				"element": "C" 
			},
			{
				"x": -1.9965954005,
				"y": -0.1246126675,
				"z": 0.8339264952,
				"element": "N" 
			},
			{
				"x": -3.0307557199,
				"y": -0.9311662654,
				"z": 1.0870356572,
				"element": "C" 
			},
			{
				"x": -3.3616780594,
				"y": -2.0379700482,
				"z": 0.302238771,
				"element": "C" 
			},
			{
				"x": -2.5619446373,
				"y": -2.3219904791,
				"z": -0.8031218408,
				"element": "C" 
			},
			{
				"x": -1.4787377416,
				"y": -1.4907856838,
				"z": -1.0804909305,
				"element": "C" 
			},
			{
				"x": -0.091830605,
				"y": 0.8190970517,
				"z": 2.3615140321,
				"element": "H" 
			},
			{
				"x": 1.6763471527,
				"y": 0.6223867711,
				"z": 2.2325738466,
				"element": "H" 
			},
			{
				"x": 0.5741950922,
				"y": -0.693281592,
				"z": 1.7149284634,
				"element": "H" 
			},
			{
				"x": 2.6256674433,
				"y": 3.1561155612,
				"z": -1.3599485466,
				"element": "H" 
			},
			{
				"x": 1.0718769296,
				"y": 2.3900337837,
				"z": -3.1534311929,
				"element": "H" 
			},
			{
				"x": -0.7324258788,
				"y": 0.7361707324,
				"z": -2.591470917,
				"element": "H" 
			},
			{
				"x": -3.6280026509,
				"y": -0.678754764,
				"z": 1.9614645434,
				"element": "H" 
			},
			{
				"x": -4.2151343991,
				"y": -2.657408876,
				"z": 0.5582399648,
				"element": "H" 
			},
			{
				"x": -2.7717036401,
				"y": -3.1796341034,
				"z": -1.4356560958,
				"element": "H" 
			},
			{
				"x": -0.8231413156,
				"y": -1.6865287945,
				"z": -1.9219082,
				"element": "H" 
			}
		],
		 "valence_orbital": [ 
			{
				"type": "occ",
				"energy": -0.29059,
				"method": "rhf"
			},
			{
				"type": "occ",
				"energy": -0.27451,
				"method": "rhf"
			},
			{
				"type": "occ",
				"energy": -0.26903,
				"method": "rhf"
			},
			{
				"type": "occ",
				"energy": -0.2399,
				"method": "rhf"
			},
			{
				"type": "occ",
				"energy": -0.20644,
				"method": "rhf"
			},
			{
				"type": "unocc",
				"energy": -0.05718,
				"method": "rhf"
			},
			{
				"type": "unocc",
				"energy": -0.03558,
				"method": "rhf"
			},
			{
				"type": "unocc",
				"energy": -0.01076,
				"method": "rhf"
			},
			{
				"type": "unocc",
				"energy": 0.02561,
				"method": "rhf"
			},
			{
				"type": "unocc",
				"energy": 0.08502,
				"method": "rhf"
			}
		],
		"cosmo_sigma_profile": { 
			"-0.025": 0.0,
			"-0.024": 0.0,
			"-0.023": 0.0,
			"-0.022": 0.0,
			"-0.021": 0.0,
			"-0.02": 0.0,
			"-0.019": 0.0,
			"-0.018": 0.0,
			"-0.017": 0.0,
			"-0.016": 0.0,
			"-0.015": 0.0,
			"-0.014": 0.0,
			"-0.013": 0.0,
			"-0.012": 0.0,
			"-0.011": 0.0,
			"-0.01": 0.0,
			"-0.009": 0.0,
			"-0.008": 0.92165440016,
			"-0.007": 10.0371474653,
			"-0.006": 17.4793871504,
			"-0.005": 18.4354867902,
			"-0.004": 16.2451607865,
			"-0.003": 16.3990517525,
			"-0.002": 17.2809584132,
			"-0.001": 17.1315933186,
			"0.0": 17.0302406723,
			"0.001": 18.5922721611,
			"0.002": 22.60970903,
			"0.003": 14.1957677091,
			"0.004": 5.75523219234,
			"0.005": 3.14687391961,
			"0.006": 2.6783514024,
			"0.007": 3.03444575957,
			"0.008": 1.85522946026,
			"0.009": 2.4472952027,
			"0.01": 2.37664181345,
			"0.011": 1.68731555286,
			"0.012": 1.96988385591,
			"0.013": 2.9443169813,
			"0.014": 4.96231052841,
			"0.015": 2.85740662277,
			"0.016": 0.382806909004,
			"0.017": 0.0,
			"0.018": 0.0,
			"0.019": 0.0,
			"0.02": 0.0,
			"0.021": 0.0,
			"0.022": 0.0,
			"0.023": 0.0,
			"0.024": 0.0,
			"0.025": 0.0
		}
	}
}
