{
	 "smiles": "OC1=CC(Cl)=C(C=C1)[N+]([O-])=O", 
	 "Tm": 389.15, 
	 "num_atms": 15, 
	 "gaussian": { 
		 "optdone": 1, 
		 "sigma_profile": "yes", 
		 "theory": "DFT", 
		 "functional": "B3LYP", 
		 "basiset": "6-31G**", 
		 "properties": { 
			 "R2extent": 2595.7735, 
			 "electric_dipole_moment_norm": 5.93375341416, 
			 "electric_quadrupole_moment_norm": 7.65632432241, 
			 "total_energy": -971.547381238, 
			 "HOMO_LUMO_gap": 0.17546, 
			 "cosmo_polarized_energy": -14.35, 
			 "cosmo_cavitation_energy": 22.13, 
			 "cosmo_dispersion_energy": -16.68, 
			 "cosmo_repulsion_energy": 1.34, 
			 "cosmo_total_nonelectrostatic_energy": 6.78, 
			 "SMD_solvation_energy": 6.24 
		},
		"coords": [
			{
				"x": 0.7253798523,
				"y": -0.334135116,
				"z": 4.2875380219,
				"element": "O" 
			},
			{
				"x": 0.5953510577,
				"y": -0.4359748946,
				"z": 2.9426480978,
				"element": "C" 
			},
			{
				"x": -0.0537925489,
				"y": -1.5755114327,
				"z": 2.4547174189,
				"element": "C" 
			},
			{
				"x": -0.2180706086,
				"y": -1.7657941287,
				"z": 1.0857106019,
				"element": "C" 
			},
			{
				"x": -1.086222201,
				"y": -3.1941850507,
				"z": 0.5949441817,
				"element": "Cl" 
			},
			{
				"x": 0.2636609448,
				"y": -0.7904287106,
				"z": 0.1906500937,
				"element": "C" 
			},
			{
				"x": 0.8902443164,
				"y": 0.3548291281,
				"z": 0.6910617295,
				"element": "C" 
			},
			{
				"x": 1.0687372578,
				"y": 0.5377104776,
				"z": 2.0528686815,
				"element": "C" 
			},
			{
				"x": 0.1655984494,
				"y": -0.8935059151,
				"z": -1.2695996588,
				"element": "N" 
			},
			{
				"x": 0.2213265828,
				"y": 0.1621412785,
				"z": -1.9055761282,
				"element": "O" 
			},
			{
				"x": 0.0611623188,
				"y": -2.0075326814,
				"z": -1.7738346008,
				"element": "O" 
			},
			{
				"x": 1.1770111929,
				"y": 0.4905126626,
				"z": 4.5117532687,
				"element": "H" 
			},
			{
				"x": -0.4334807946,
				"y": -2.3087614766,
				"z": 3.1555490054,
				"element": "H" 
			},
			{
				"x": 1.2350755691,
				"y": 1.0934717142,
				"z": -0.0215552582,
				"element": "H" 
			},
			{
				"x": 1.5702186109,
				"y": 1.4278641456,
				"z": 2.422824545,
				"element": "H" 
			}
		],
		 "valence_orbital": [ 
			{
				"type": "occ",
				"energy": -0.30631,
				"method": "rhf"
			},
			{
				"type": "occ",
				"energy": -0.30276,
				"method": "rhf"
			},
			{
				"type": "occ",
				"energy": -0.28635,
				"method": "rhf"
			},
			{
				"type": "occ",
				"energy": -0.27433,
				"method": "rhf"
			},
			{
				"type": "occ",
				"energy": -0.2604,
				"method": "rhf"
			},
			{
				"type": "unocc",
				"energy": -0.08494,
				"method": "rhf"
			},
			{
				"type": "unocc",
				"energy": -0.03997,
				"method": "rhf"
			},
			{
				"type": "unocc",
				"energy": -0.0029,
				"method": "rhf"
			},
			{
				"type": "unocc",
				"energy": 0.01215,
				"method": "rhf"
			},
			{
				"type": "unocc",
				"energy": 0.04262,
				"method": "rhf"
			}
		],
		"cosmo_sigma_profile": { 
			"-0.025": 0.0,
			"-0.024": 0.0,
			"-0.023": 0.0,
			"-0.022": 0.0,
			"-0.021": 0.0,
			"-0.02": 0.0426218064137,
			"-0.019": 1.18109110854,
			"-0.018": 1.27919447887,
			"-0.017": 1.05074135221,
			"-0.016": 1.51764242527,
			"-0.015": 0.99578632332,
			"-0.014": 1.03496904249,
			"-0.013": 0.966951144419,
			"-0.012": 0.656059091099,
			"-0.011": 0.957698927543,
			"-0.01": 1.82364280244,
			"-0.009": 1.68866677318,
			"-0.008": 4.38976787692,
			"-0.007": 6.39262203039,
			"-0.006": 6.47846816196,
			"-0.005": 4.87318828712,
			"-0.004": 6.55294741172,
			"-0.003": 8.99292125952,
			"-0.002": 8.09841947215,
			"-0.001": 15.733366409,
			"0.0": 20.6960422021,
			"0.001": 15.5354433077,
			"0.002": 10.2931779312,
			"0.003": 9.63396145026,
			"0.004": 7.25076377891,
			"0.005": 6.15047130275,
			"0.006": 4.81302100833,
			"0.007": 7.26196793856,
			"0.008": 12.8111575658,
			"0.009": 6.96728759527,
			"0.01": 3.61812464327,
			"0.011": 0.244327174232,
			"0.012": 0.0,
			"0.013": 0.0,
			"0.014": 0.0,
			"0.015": 0.0,
			"0.016": 0.0,
			"0.017": 0.0,
			"0.018": 0.0,
			"0.019": 0.0,
			"0.02": 0.0,
			"0.021": 0.0,
			"0.022": 0.0,
			"0.023": 0.0,
			"0.024": 0.0,
			"0.025": 0.0
		}
	}
}
