{
	 "smiles": "COC1=CC(=C(NC(=O)CCCl)C=C1)[N+]([O-])=O", 
	 "Tm": 371.15, 
	 "num_atms": 28, 
	 "gaussian": { 
		 "optdone": 1, 
		 "sigma_profile": "yes", 
		 "theory": "DFT", 
		 "functional": "B3LYP", 
		 "basiset": "6-31G**", 
		 "properties": { 
			 "R2extent": 6074.7126, 
			 "electric_dipole_moment_norm": 2.94613283136, 
			 "electric_quadrupole_moment_norm": 25.2971734095, 
			 "total_energy": -1258.19456775, 
			 "HOMO_LUMO_gap": 0.12414, 
			 "cosmo_polarized_energy": -15.95, 
			 "cosmo_cavitation_energy": 34.56, 
			 "cosmo_dispersion_energy": -24.78, 
			 "cosmo_repulsion_energy": 1.93, 
			 "cosmo_total_nonelectrostatic_energy": 11.71, 
			 "SMD_solvation_energy": 8.62 
		},
		"coords": [
			{
				"x": -3.5494195729,
				"y": -1.081866133,
				"z": 2.7965606957,
				"element": "C" 
			},
			{
				"x": -2.2366637729,
				"y": -0.5757041303,
				"z": 2.9951462122,
				"element": "O" 
			},
			{
				"x": -1.4529177855,
				"y": -0.3698567314,
				"z": 1.9012121211,
				"element": "C" 
			},
			{
				"x": -0.1742574651,
				"y": 0.1196126281,
				"z": 2.1470963877,
				"element": "C" 
			},
			{
				"x": 0.7069964413,
				"y": 0.3644407998,
				"z": 1.091717146,
				"element": "C" 
			},
			{
				"x": 0.3349355627,
				"y": 0.1279167508,
				"z": -0.2620022522,
				"element": "C" 
			},
			{
				"x": 1.2218469441,
				"y": 0.3737186245,
				"z": -1.3098924123,
				"element": "N" 
			},
			{
				"x": 1.0419875389,
				"y": 0.1622990386,
				"z": -2.6630379737,
				"element": "C" 
			},
			{
				"x": 0.0093035846,
				"y": -0.2391955128,
				"z": -3.1761736948,
				"element": "O" 
			},
			{
				"x": 2.2732383221,
				"y": 0.5146140187,
				"z": -3.5020249386,
				"element": "C" 
			},
			{
				"x": 3.5612034241,
				"y": -0.213682508,
				"z": -3.1239186459,
				"element": "C" 
			},
			{
				"x": 3.4057135431,
				"y": -2.0122030444,
				"z": -3.3088341809,
				"element": "Cl" 
			},
			{
				"x": -0.9636624198,
				"y": -0.3671281427,
				"z": -0.4781365434,
				"element": "C" 
			},
			{
				"x": -1.8384533166,
				"y": -0.6119520547,
				"z": 0.5737277577,
				"element": "C" 
			},
			{
				"x": 2.0239626544,
				"y": 0.8729232708,
				"z": 1.4777598965,
				"element": "N" 
			},
			{
				"x": 2.2632551735,
				"y": 1.0325463173,
				"z": 2.6698228241,
				"element": "O" 
			},
			{
				"x": 2.8625009891,
				"y": 1.1299619433,
				"z": 0.5902173907,
				"element": "O" 
			},
			{
				"x": -4.1597147978,
				"y": -0.3983257689,
				"z": 2.1926671965,
				"element": "H" 
			},
			{
				"x": -3.534127605,
				"y": -2.0699881181,
				"z": 2.3194530083,
				"element": "H" 
			},
			{
				"x": -3.9887239496,
				"y": -1.1707345063,
				"z": 3.7907786777,
				"element": "H" 
			},
			{
				"x": 0.1462230563,
				"y": 0.3121232886,
				"z": 3.1617055185,
				"element": "H" 
			},
			{
				"x": 2.1103449941,
				"y": 0.7451069287,
				"z": -0.9857787278,
				"element": "H" 
			},
			{
				"x": 2.0085807514,
				"y": 0.3059964565,
				"z": -4.5398336794,
				"element": "H" 
			},
			{
				"x": 2.466725412,
				"y": 1.5932424463,
				"z": -3.4133029308,
				"element": "H" 
			},
			{
				"x": 3.8591596105,
				"y": -0.0377537681,
				"z": -2.0887599814,
				"element": "H" 
			},
			{
				"x": 4.3788857708,
				"y": 0.0934577541,
				"z": -3.7770845159,
				"element": "H" 
			},
			{
				"x": -1.2676734529,
				"y": -0.5558707074,
				"z": -1.4975103003,
				"element": "H" 
			},
			{
				"x": -2.8258496349,
				"y": -0.9939991401,
				"z": 0.3429259446,
				"element": "H" 
			}
		],
		 "valence_orbital": [ 
			{
				"type": "occ",
				"energy": -0.30134,
				"method": "rhf"
			},
			{
				"type": "occ",
				"energy": -0.30053,
				"method": "rhf"
			},
			{
				"type": "occ",
				"energy": -0.28491,
				"method": "rhf"
			},
			{
				"type": "occ",
				"energy": -0.26532,
				"method": "rhf"
			},
			{
				"type": "occ",
				"energy": -0.22499,
				"method": "rhf"
			},
			{
				"type": "unocc",
				"energy": -0.10085,
				"method": "rhf"
			},
			{
				"type": "unocc",
				"energy": -0.02702,
				"method": "rhf"
			},
			{
				"type": "unocc",
				"energy": -0.00447,
				"method": "rhf"
			},
			{
				"type": "unocc",
				"energy": 0.01828,
				"method": "rhf"
			},
			{
				"type": "unocc",
				"energy": 0.03122,
				"method": "rhf"
			}
		],
		"cosmo_sigma_profile": { 
			"-0.025": 0.0,
			"-0.024": 0.0,
			"-0.023": 0.0,
			"-0.022": 0.0,
			"-0.021": 0.0,
			"-0.02": 0.0,
			"-0.019": 0.0,
			"-0.018": 0.0,
			"-0.017": 0.0,
			"-0.016": 0.0,
			"-0.015": 0.0,
			"-0.014": 0.0,
			"-0.013": 0.0320491486062,
			"-0.012": 0.564695048061,
			"-0.011": 0.532783881873,
			"-0.01": 0.927046159909,
			"-0.009": 1.78986486051,
			"-0.008": 7.08156523684,
			"-0.007": 12.6950531776,
			"-0.006": 23.4687646907,
			"-0.005": 22.6718195769,
			"-0.004": 20.1680315815,
			"-0.003": 16.9895028548,
			"-0.002": 12.8182715302,
			"-0.001": 14.4245693914,
			"0.0": 20.0973393341,
			"0.001": 21.902100597,
			"0.002": 15.4334035063,
			"0.003": 11.9857105847,
			"0.004": 9.12337843851,
			"0.005": 14.0800087822,
			"0.006": 15.6182024344,
			"0.007": 10.1859834774,
			"0.008": 7.24704882126,
			"0.009": 6.99032036991,
			"0.01": 4.47565981086,
			"0.011": 2.59944657896,
			"0.012": 2.40310582334,
			"0.013": 1.65543545604,
			"0.014": 0.08634290903,
			"0.015": 0.0,
			"0.016": 0.0,
			"0.017": 0.0,
			"0.018": 0.0,
			"0.019": 0.0,
			"0.02": 0.0,
			"0.021": 0.0,
			"0.022": 0.0,
			"0.023": 0.0,
			"0.024": 0.0,
			"0.025": 0.0
		}
	}
}
