{
	 "smiles": "COC1=CC(OC)=C(OC)C2=C1C=C(N2)C(O)=O", 
	 "Tm": 455.15, 
	 "num_atms": 31, 
	 "gaussian": { 
		 "optdone": 1, 
		 "sigma_profile": "yes", 
		 "theory": "DFT", 
		 "functional": "B3LYP", 
		 "basiset": "6-31G**", 
		 "properties": { 
			 "R2extent": 6151.6587, 
			 "electric_dipole_moment_norm": 5.01378168751, 
			 "electric_quadrupole_moment_norm": 22.5683770455, 
			 "total_energy": -895.952843747, 
			 "HOMO_LUMO_gap": 0.15343, 
			 "cosmo_polarized_energy": -17.56, 
			 "cosmo_cavitation_energy": 35.47, 
			 "cosmo_dispersion_energy": -25.3, 
			 "cosmo_repulsion_energy": 1.97, 
			 "cosmo_total_nonelectrostatic_energy": 12.14, 
			 "SMD_solvation_energy": 9.08 
		},
		"coords": [
			{
				"x": -1.192367419,
				"y": -1.3668025194,
				"z": -4.4163102841,
				"element": "C" 
			},
			{
				"x": -1.063952679,
				"y": -1.9434321574,
				"z": -3.1250006355,
				"element": "O" 
			},
			{
				"x": -1.1368767624,
				"y": -1.1136820854,
				"z": -2.0470852818,
				"element": "C" 
			},
			{
				"x": -1.3400663941,
				"y": 0.2581925258,
				"z": -2.096808566,
				"element": "C" 
			},
			{
				"x": -1.3963414529,
				"y": 1.0367092319,
				"z": -0.9116512213,
				"element": "C" 
			},
			{
				"x": -1.5741974257,
				"y": 2.394751268,
				"z": -1.0643486812,
				"element": "O" 
			},
			{
				"x": -2.8122676687,
				"y": 2.9022481716,
				"z": -0.5509664329,
				"element": "C" 
			},
			{
				"x": -1.2351698076,
				"y": 0.4670184904,
				"z": 0.3478675977,
				"element": "C" 
			},
			{
				"x": -1.2781945007,
				"y": 1.1725540665,
				"z": 1.5325407909,
				"element": "O" 
			},
			{
				"x": -0.1743249236,
				"y": 2.0685895202,
				"z": 1.7295895627,
				"element": "C" 
			},
			{
				"x": -1.050182229,
				"y": -0.9262851741,
				"z": 0.3867369072,
				"element": "C" 
			},
			{
				"x": -1.0001225995,
				"y": -1.732616641,
				"z": -0.7806588644,
				"element": "C" 
			},
			{
				"x": -0.7954164165,
				"y": -3.0764278818,
				"z": -0.3515442072,
				"element": "C" 
			},
			{
				"x": -0.7309391617,
				"y": -3.0530917691,
				"z": 1.0304105291,
				"element": "C" 
			},
			{
				"x": -0.8828046534,
				"y": -1.7484580524,
				"z": 1.4647933907,
				"element": "N" 
			},
			{
				"x": -0.5434377341,
				"y": -4.0919456365,
				"z": 2.0531509154,
				"element": "C" 
			},
			{
				"x": -0.4002260612,
				"y": -5.3686907079,
				"z": 1.6169197355,
				"element": "O" 
			},
			{
				"x": -0.5153777419,
				"y": -3.8377718324,
				"z": 3.2397029777,
				"element": "O" 
			},
			{
				"x": -1.0965430356,
				"y": -2.1897176558,
				"z": -5.1260803677,
				"element": "H" 
			},
			{
				"x": -0.4032006808,
				"y": -0.6284887827,
				"z": -4.6062030883,
				"element": "H" 
			},
			{
				"x": -2.1707811989,
				"y": -0.8871817093,
				"z": -4.5461943683,
				"element": "H" 
			},
			{
				"x": -1.4618764125,
				"y": 0.7890868103,
				"z": -3.0321958067,
				"element": "H" 
			},
			{
				"x": -2.8994324612,
				"y": 2.731252085,
				"z": 0.5263630225,
				"element": "H" 
			},
			{
				"x": -2.810598273,
				"y": 3.9746538536,
				"z": -0.7567620696,
				"element": "H" 
			},
			{
				"x": -3.6635869103,
				"y": 2.4363557941,
				"z": -1.0627032773,
				"element": "H" 
			},
			{
				"x": -0.3273221289,
				"y": 2.5319323141,
				"z": 2.7065092704,
				"element": "H" 
			},
			{
				"x": -0.1480820558,
				"y": 2.8384088795,
				"z": 0.9524880803,
				"element": "H" 
			},
			{
				"x": 0.7764018342,
				"y": 1.5215850106,
				"z": 1.7304029143,
				"element": "H" 
			},
			{
				"x": -0.7092509184,
				"y": -3.9366387997,
				"z": -1.0011686137,
				"element": "H" 
			},
			{
				"x": -0.8937193649,
				"y": -1.4869438762,
				"z": 2.4392379889,
				"element": "H" 
			},
			{
				"x": -0.4501427627,
				"y": -5.4015627405,
				"z": 0.6512680828,
				"element": "H" 
			}
		],
		 "valence_orbital": [ 
			{
				"type": "occ",
				"energy": -0.27523,
				"method": "rhf"
			},
			{
				"type": "occ",
				"energy": -0.27068,
				"method": "rhf"
			},
			{
				"type": "occ",
				"energy": -0.26825,
				"method": "rhf"
			},
			{
				"type": "occ",
				"energy": -0.22924,
				"method": "rhf"
			},
			{
				"type": "occ",
				"energy": -0.19797,
				"method": "rhf"
			},
			{
				"type": "unocc",
				"energy": -0.04454,
				"method": "rhf"
			},
			{
				"type": "unocc",
				"energy": 0.02063,
				"method": "rhf"
			},
			{
				"type": "unocc",
				"energy": 0.02679,
				"method": "rhf"
			},
			{
				"type": "unocc",
				"energy": 0.0566,
				"method": "rhf"
			},
			{
				"type": "unocc",
				"energy": 0.07635,
				"method": "rhf"
			}
		],
		"cosmo_sigma_profile": { 
			"-0.025": 0.0,
			"-0.024": 0.0,
			"-0.023": 0.0,
			"-0.022": 0.0,
			"-0.021": 0.0,
			"-0.02": 0.0,
			"-0.019": 0.327215023451,
			"-0.018": 0.830108227495,
			"-0.017": 1.38889283871,
			"-0.016": 0.896181341843,
			"-0.015": 0.977849613184,
			"-0.014": 1.5157531633,
			"-0.013": 1.02162271452,
			"-0.012": 1.37450364355,
			"-0.011": 2.70290312457,
			"-0.01": 1.78732006856,
			"-0.009": 1.16852241842,
			"-0.008": 3.30789932407,
			"-0.007": 1.74698410292,
			"-0.006": 9.17306248992,
			"-0.005": 19.5727665428,
			"-0.004": 22.7742232087,
			"-0.003": 31.5362973405,
			"-0.002": 25.3448173596,
			"-0.001": 17.234000241,
			"0.0": 14.4474524323,
			"0.001": 14.9284803142,
			"0.002": 17.5309554417,
			"0.003": 22.1489606872,
			"0.004": 15.2309801798,
			"0.005": 9.22878784016,
			"0.006": 7.135803893,
			"0.007": 4.94519834808,
			"0.008": 5.22505973937,
			"0.009": 6.06524390927,
			"0.01": 6.55274041264,
			"0.011": 6.41690044116,
			"0.012": 5.18774741387,
			"0.013": 1.97701736413,
			"0.014": 0.159998931013,
			"0.015": 0.0,
			"0.016": 0.0,
			"0.017": 0.0,
			"0.018": 0.0,
			"0.019": 0.0,
			"0.02": 0.0,
			"0.021": 0.0,
			"0.022": 0.0,
			"0.023": 0.0,
			"0.024": 0.0,
			"0.025": 0.0
		}
	}
}
