{
	 "smiles": "CCN(C(C(O)=O)C1=CC(F)=C(F)C=C1)C(C)=O", 
	 "Tm": 479.15, 
	 "num_atms": 31, 
	 "gaussian": { 
		 "optdone": 1, 
		 "sigma_profile": "yes", 
		 "theory": "DFT", 
		 "functional": "B3LYP", 
		 "basiset": "6-31G**", 
		 "properties": { 
			 "R2extent": 5367.5486, 
			 "electric_dipole_moment_norm": 3.54224931505, 
			 "electric_quadrupole_moment_norm": 21.6782292007, 
			 "total_energy": -945.220814637, 
			 "HOMO_LUMO_gap": 0.21009, 
			 "cosmo_polarized_energy": -16.15, 
			 "cosmo_cavitation_energy": 35.52, 
			 "cosmo_dispersion_energy": -23.69, 
			 "cosmo_repulsion_energy": 1.8, 
			 "cosmo_total_nonelectrostatic_energy": 13.63, 
			 "SMD_solvation_energy": 8.97 
		},
		"coords": [
			{
				"x": 2.4323175367,
				"y": -0.8949654182,
				"z": -0.5448329126,
				"element": "C" 
			},
			{
				"x": 1.3887762245,
				"y": -0.807247193,
				"z": 0.5705998405,
				"element": "C" 
			},
			{
				"x": 0.0011371209,
				"y": -0.7564660053,
				"z": 0.06829022,
				"element": "N" 
			},
			{
				"x": -0.7397609932,
				"y": 0.5123559574,
				"z": 0.1238563029,
				"element": "C" 
			},
			{
				"x": -1.1559773939,
				"y": 0.7826673514,
				"z": 1.5759919044,
				"element": "C" 
			},
			{
				"x": -2.491853958,
				"y": 0.6420963963,
				"z": 1.7327175199,
				"element": "O" 
			},
			{
				"x": -0.4135841624,
				"y": 1.0384087721,
				"z": 2.499622307,
				"element": "O" 
			},
			{
				"x": 0.0043142841,
				"y": 1.6755755859,
				"z": -0.530534276,
				"element": "C" 
			},
			{
				"x": 0.7172717316,
				"y": 2.636601861,
				"z": 0.197858981,
				"element": "C" 
			},
			{
				"x": 1.3759198973,
				"y": 3.6588037454,
				"z": -0.472634911,
				"element": "C" 
			},
			{
				"x": 2.0602029954,
				"y": 4.5864569011,
				"z": 0.2165426988,
				"element": "F" 
			},
			{
				"x": 1.3389673096,
				"y": 3.7420298577,
				"z": -1.862775024,
				"element": "C" 
			},
			{
				"x": 1.9845170068,
				"y": 4.7447903291,
				"z": -2.4784387706,
				"element": "F" 
			},
			{
				"x": 0.6354487675,
				"y": 2.7961295091,
				"z": -2.5974478931,
				"element": "C" 
			},
			{
				"x": -0.0302841586,
				"y": 1.7698537972,
				"z": -1.9291348178,
				"element": "C" 
			},
			{
				"x": -0.5864417082,
				"y": -1.9595975591,
				"z": -0.284568077,
				"element": "C" 
			},
			{
				"x": -2.0460376274,
				"y": -1.9624680117,
				"z": -0.725029804,
				"element": "C" 
			},
			{
				"x": 0.0582467794,
				"y": -3.0010039841,
				"z": -0.2469249075,
				"element": "O" 
			},
			{
				"x": 2.2759732661,
				"y": -1.8006522353,
				"z": -1.1349198831,
				"element": "H" 
			},
			{
				"x": 3.4366902472,
				"y": -0.9384231386,
				"z": -0.1099849278,
				"element": "H" 
			},
			{
				"x": 2.3846678144,
				"y": -0.0264689304,
				"z": -1.2077378462,
				"element": "H" 
			},
			{
				"x": 1.4677188512,
				"y": -1.6849062245,
				"z": 1.2167819693,
				"element": "H" 
			},
			{
				"x": 1.5469408994,
				"y": 0.0761580737,
				"z": 1.190756612,
				"element": "H" 
			},
			{
				"x": -1.6609655823,
				"y": 0.3722392114,
				"z": -0.4378481511,
				"element": "H" 
			},
			{
				"x": -2.6771946755,
				"y": 0.7819138501,
				"z": 2.6781024063,
				"element": "H" 
			},
			{
				"x": 0.7696369366,
				"y": 2.6028637585,
				"z": 1.2792748928,
				"element": "H" 
			},
			{
				"x": 0.6144177649,
				"y": 2.8798676271,
				"z": -3.6785949377,
				"element": "H" 
			},
			{
				"x": -0.5773382851,
				"y": 1.0301561227,
				"z": -2.506163254,
				"element": "H" 
			},
			{
				"x": -2.195499144,
				"y": -1.3921305277,
				"z": -1.6486404715,
				"element": "H" 
			},
			{
				"x": -2.7122482575,
				"y": -1.5487478314,
				"z": 0.0380279631,
				"element": "H" 
			},
			{
				"x": -2.3158794874,
				"y": -3.0011916478,
				"z": -0.912612753,
				"element": "H" 
			}
		],
		 "valence_orbital": [ 
			{
				"type": "occ",
				"energy": -0.30464,
				"method": "rhf"
			},
			{
				"type": "occ",
				"energy": -0.27366,
				"method": "rhf"
			},
			{
				"type": "occ",
				"energy": -0.25951,
				"method": "rhf"
			},
			{
				"type": "occ",
				"energy": -0.24833,
				"method": "rhf"
			},
			{
				"type": "occ",
				"energy": -0.2426,
				"method": "rhf"
			},
			{
				"type": "unocc",
				"energy": -0.03251,
				"method": "rhf"
			},
			{
				"type": "unocc",
				"energy": -0.02577,
				"method": "rhf"
			},
			{
				"type": "unocc",
				"energy": -0.00833,
				"method": "rhf"
			},
			{
				"type": "unocc",
				"energy": 0.02397,
				"method": "rhf"
			},
			{
				"type": "unocc",
				"energy": 0.05847,
				"method": "rhf"
			}
		],
		"cosmo_sigma_profile": { 
			"-0.025": 0.0,
			"-0.024": 0.0,
			"-0.023": 0.0,
			"-0.022": 0.0,
			"-0.021": 0.0,
			"-0.02": 0.0,
			"-0.019": 0.37894277643,
			"-0.018": 0.977318585527,
			"-0.017": 0.773222529623,
			"-0.016": 1.47690388513,
			"-0.015": 0.43580305548,
			"-0.014": 0.498076923467,
			"-0.013": 0.678842617316,
			"-0.012": 0.99221448602,
			"-0.011": 1.04115145742,
			"-0.01": 0.569840244951,
			"-0.009": 2.19260462813,
			"-0.008": 5.05988320437,
			"-0.007": 7.44094331152,
			"-0.006": 9.2086195504,
			"-0.005": 9.70369983682,
			"-0.004": 15.3554727963,
			"-0.003": 20.6598508848,
			"-0.002": 24.8391203988,
			"-0.001": 31.0219110657,
			"0.0": 31.3165362518,
			"0.001": 26.1311845257,
			"0.002": 16.162888844,
			"0.003": 19.2673842546,
			"0.004": 19.5077037438,
			"0.005": 4.45004636546,
			"0.006": 3.15718998751,
			"0.007": 4.80626765481,
			"0.008": 3.84541080769,
			"0.009": 2.48314579853,
			"0.01": 3.41464646864,
			"0.011": 4.35422425334,
			"0.012": 2.13643888225,
			"0.013": 3.06231206898,
			"0.014": 3.70748509176,
			"0.015": 0.789748335016,
			"0.016": 0.0,
			"0.017": 0.0,
			"0.018": 0.0,
			"0.019": 0.0,
			"0.02": 0.0,
			"0.021": 0.0,
			"0.022": 0.0,
			"0.023": 0.0,
			"0.024": 0.0,
			"0.025": 0.0
		}
	}
}
