{
	 "smiles": "CC(Cl)C1=NC2=C(C=CC(Cl)=C2)N1CC1=CC=CC=C1", 
	 "Tm": 384.15, 
	 "num_atms": 34, 
	 "gaussian": { 
		 "optdone": 1, 
		 "sigma_profile": "yes", 
		 "theory": "DFT", 
		 "functional": "B3LYP", 
		 "basiset": "6-31G**", 
		 "properties": { 
			 "R2extent": 8413.3991, 
			 "electric_dipole_moment_norm": 4.9709202307, 
			 "electric_quadrupole_moment_norm": 11.9803352954, 
			 "total_energy": -1648.05533681, 
			 "HOMO_LUMO_gap": 0.18309, 
			 "cosmo_polarized_energy": -11.94, 
			 "cosmo_cavitation_energy": 40.89, 
			 "cosmo_dispersion_energy": -28.32, 
			 "cosmo_repulsion_energy": 2.19, 
			 "cosmo_total_nonelectrostatic_energy": 14.75, 
			 "SMD_solvation_energy": 4.26 
		},
		"coords": [
			{
				"x": -0.8606717186,
				"y": -1.3064165503,
				"z": 2.9971507038,
				"element": "C" 
			},
			{
				"x": -0.3783726112,
				"y": -0.363080375,
				"z": 1.9076710485,
				"element": "C" 
			},
			{
				"x": 0.7879314685,
				"y": 0.8858606814,
				"z": 2.6471068926,
				"element": "Cl" 
			},
			{
				"x": 0.3058748128,
				"y": -1.0642221437,
				"z": 0.778552585,
				"element": "C" 
			},
			{
				"x": 0.7461471081,
				"y": -2.3007217209,
				"z": 0.8413010787,
				"element": "N" 
			},
			{
				"x": 1.2951399924,
				"y": -2.5505206825,
				"z": -0.4011235543,
				"element": "C" 
			},
			{
				"x": 1.1721016188,
				"y": -1.4092280002,
				"z": -1.2302164087,
				"element": "C" 
			},
			{
				"x": 1.6449631018,
				"y": -1.3948950321,
				"z": -2.5455711556,
				"element": "C" 
			},
			{
				"x": 2.2525900011,
				"y": -2.554267932,
				"z": -3.0168776329,
				"element": "C" 
			},
			{
				"x": 2.3748932293,
				"y": -3.6883816516,
				"z": -2.189458923,
				"element": "C" 
			},
			{
				"x": 3.153341161,
				"y": -5.1235894724,
				"z": -2.852247874,
				"element": "Cl" 
			},
			{
				"x": 1.9066232013,
				"y": -3.7156323526,
				"z": -0.8836284845,
				"element": "C" 
			},
			{
				"x": 0.5314331519,
				"y": -0.4608261229,
				"z": -0.4488843819,
				"element": "N" 
			},
			{
				"x": 0.1643493326,
				"y": 0.895255531,
				"z": -0.8524876156,
				"element": "C" 
			},
			{
				"x": -1.312672166,
				"y": 1.0789426718,
				"z": -1.164124339,
				"element": "C" 
			},
			{
				"x": -1.9734747588,
				"y": 2.2336302358,
				"z": -0.728614604,
				"element": "C" 
			},
			{
				"x": -3.3188051337,
				"y": 2.4427748361,
				"z": -1.0401079653,
				"element": "C" 
			},
			{
				"x": -4.0185740417,
				"y": 1.4938268595,
				"z": -1.7856515884,
				"element": "C" 
			},
			{
				"x": -3.3671439576,
				"y": 0.3360545719,
				"z": -2.2186837841,
				"element": "C" 
			},
			{
				"x": -2.0225384119,
				"y": 0.1297423655,
				"z": -1.9116634541,
				"element": "C" 
			},
			{
				"x": -0.0343694799,
				"y": -1.9049842228,
				"z": 3.3820236967,
				"element": "H" 
			},
			{
				"x": -1.3159196315,
				"y": -0.7394173957,
				"z": 3.8115640731,
				"element": "H" 
			},
			{
				"x": -1.6061473716,
				"y": -1.9882181878,
				"z": 2.5762039892,
				"element": "H" 
			},
			{
				"x": -1.194506791,
				"y": 0.2557135846,
				"z": 1.5306503491,
				"element": "H" 
			},
			{
				"x": 1.5501348353,
				"y": -0.5258478549,
				"z": -3.1888571126,
				"element": "H" 
			},
			{
				"x": 2.6372679972,
				"y": -2.594370521,
				"z": -4.029467368,
				"element": "H" 
			},
			{
				"x": 2.0071705331,
				"y": -4.5942423331,
				"z": -0.2577543726,
				"element": "H" 
			},
			{
				"x": 0.7724586807,
				"y": 1.135295445,
				"z": -1.7308064179,
				"element": "H" 
			},
			{
				"x": 0.4714761977,
				"y": 1.5865253485,
				"z": -0.0630752175,
				"element": "H" 
			},
			{
				"x": -1.4332757812,
				"y": 2.9728688288,
				"z": -0.1419231547,
				"element": "H" 
			},
			{
				"x": -3.8188661184,
				"y": 3.3424476251,
				"z": -0.6934390476,
				"element": "H" 
			},
			{
				"x": -5.0659336452,
				"y": 1.6520629014,
				"z": -2.025304892,
				"element": "H" 
			},
			{
				"x": -3.9070649007,
				"y": -0.4080474095,
				"z": -2.797096835,
				"element": "H" 
			},
			{
				"x": -1.5237599047,
				"y": -0.7744915257,
				"z": -2.2491582335,
				"element": "H" 
			}
		],
		 "valence_orbital": [ 
			{
				"type": "occ",
				"energy": -0.28253,
				"method": "rhf"
			},
			{
				"type": "occ",
				"energy": -0.26594,
				"method": "rhf"
			},
			{
				"type": "occ",
				"energy": -0.26193,
				"method": "rhf"
			},
			{
				"type": "occ",
				"energy": -0.23711,
				"method": "rhf"
			},
			{
				"type": "occ",
				"energy": -0.2279,
				"method": "rhf"
			},
			{
				"type": "unocc",
				"energy": -0.04481,
				"method": "rhf"
			},
			{
				"type": "unocc",
				"energy": -0.02182,
				"method": "rhf"
			},
			{
				"type": "unocc",
				"energy": -0.01766,
				"method": "rhf"
			},
			{
				"type": "unocc",
				"energy": 0.00206,
				"method": "rhf"
			},
			{
				"type": "unocc",
				"energy": 0.01168,
				"method": "rhf"
			}
		],
		"cosmo_sigma_profile": { 
			"-0.025": 0.0,
			"-0.024": 0.0,
			"-0.023": 0.0,
			"-0.022": 0.0,
			"-0.021": 0.0,
			"-0.02": 0.0,
			"-0.019": 0.0,
			"-0.018": 0.0,
			"-0.017": 0.0,
			"-0.016": 0.0,
			"-0.015": 0.0,
			"-0.014": 0.0,
			"-0.013": 0.0,
			"-0.012": 0.0,
			"-0.011": 0.0,
			"-0.01": 0.0142232087539,
			"-0.009": 1.53373339713,
			"-0.008": 3.33616807429,
			"-0.007": 7.82122673033,
			"-0.006": 18.1076446757,
			"-0.005": 24.8766124776,
			"-0.004": 27.8787556113,
			"-0.003": 23.7140871689,
			"-0.002": 22.1414446279,
			"-0.001": 24.3961430377,
			"0.0": 22.1016400424,
			"0.001": 21.881665261,
			"0.002": 26.9295685005,
			"0.003": 34.455480684,
			"0.004": 24.7921633472,
			"0.005": 25.5681723645,
			"0.006": 11.6112750386,
			"0.007": 2.68002186826,
			"0.008": 1.16866209144,
			"0.009": 1.02401000413,
			"0.01": 1.11811547959,
			"0.011": 1.43060842893,
			"0.012": 0.968347591393,
			"0.013": 0.575673036721,
			"0.014": 0.764280011655,
			"0.015": 0.530165290074,
			"0.016": 0.0,
			"0.017": 0.0,
			"0.018": 0.0,
			"0.019": 0.0,
			"0.02": 0.0,
			"0.021": 0.0,
			"0.022": 0.0,
			"0.023": 0.0,
			"0.024": 0.0,
			"0.025": 0.0
		}
	}
}
