{
	 "smiles": "OC(=O)C1=CC=C(CS(=O)(=O)C(F)F)C=C1", 
	 "Tm": 492.15, 
	 "num_atms": 24, 
	 "gaussian": { 
		 "optdone": 1, 
		 "sigma_profile": "yes", 
		 "theory": "DFT", 
		 "functional": "B3LYP", 
		 "basiset": "6-31G**", 
		 "properties": { 
			 "R2extent": 5966.0009, 
			 "electric_dipole_moment_norm": 0.953448158003, 
			 "electric_quadrupole_moment_norm": 38.9400397543, 
			 "total_energy": -1246.46358888, 
			 "HOMO_LUMO_gap": 0.2013, 
			 "cosmo_polarized_energy": -24.18, 
			 "cosmo_cavitation_energy": 31.27, 
			 "cosmo_dispersion_energy": -22.3, 
			 "cosmo_repulsion_energy": 1.64, 
			 "cosmo_total_nonelectrostatic_energy": 10.61, 
			 "SMD_solvation_energy": 6.45 
		},
		"coords": [
			{
				"x": -2.1391182815,
				"y": -0.8991034801,
				"z": 4.0409799092,
				"element": "O" 
			},
			{
				"x": -0.9601334033,
				"y": -0.4267917927,
				"z": 3.5593549907,
				"element": "C" 
			},
			{
				"x": 0.0706179717,
				"y": -0.6571772321,
				"z": 4.1456691032,
				"element": "O" 
			},
			{
				"x": -1.0164972073,
				"y": 0.3745278265,
				"z": 2.2905872631,
				"element": "C" 
			},
			{
				"x": -2.1796663741,
				"y": 1.0103013518,
				"z": 1.8336465942,
				"element": "C" 
			},
			{
				"x": -2.1618268618,
				"y": 1.7570452933,
				"z": 0.6585509751,
				"element": "C" 
			},
			{
				"x": -0.9788519936,
				"y": 1.8828070032,
				"z": -0.0830291321,
				"element": "C" 
			},
			{
				"x": -0.9587094965,
				"y": 2.6784323442,
				"z": -1.3584687265,
				"element": "C" 
			},
			{
				"x": -1.6967438366,
				"y": 1.8061612395,
				"z": -2.7969172878,
				"element": "S" 
			},
			{
				"x": -3.0325675236,
				"y": 1.3159649477,
				"z": -2.4295223363,
				"element": "O" 
			},
			{
				"x": -1.4794131304,
				"y": 2.6393669933,
				"z": -3.9828421009,
				"element": "O" 
			},
			{
				"x": -0.6116147575,
				"y": 0.2868381639,
				"z": -2.9504312368,
				"element": "C" 
			},
			{
				"x": 0.6798548504,
				"y": 0.6817089114,
				"z": -2.8270481759,
				"element": "F" 
			},
			{
				"x": -0.8155648761,
				"y": -0.2174915679,
				"z": -4.1758192933,
				"element": "F" 
			},
			{
				"x": 0.1855645581,
				"y": 1.2496877956,
				"z": 0.3787912199,
				"element": "C" 
			},
			{
				"x": 0.1700436966,
				"y": 0.5139212529,
				"z": 1.5593452893,
				"element": "C" 
			},
			{
				"x": -2.8444483564,
				"y": -0.7802069228,
				"z": 3.3900598476,
				"element": "H" 
			},
			{
				"x": -3.102487181,
				"y": 0.9646354541,
				"z": 2.4065793074,
				"element": "H" 
			},
			{
				"x": -3.0684881699,
				"y": 2.2418358237,
				"z": 0.3115450796,
				"element": "H" 
			},
			{
				"x": 0.0482170114,
				"y": 2.9613814793,
				"z": -1.6698019871,
				"element": "H" 
			},
			{
				"x": -1.5737662464,
				"y": 3.5818918232,
				"z": -1.3022142599,
				"element": "H" 
			},
			{
				"x": -0.8665065013,
				"y": -0.4422175927,
				"z": -2.1758628236,
				"element": "H" 
			},
			{
				"x": 1.1070292441,
				"y": 1.3389598555,
				"z": -0.1890338567,
				"element": "H" 
			},
			{
				"x": 1.0688768648,
				"y": 0.0381210294,
				"z": 1.9360816375,
				"element": "H" 
			}
		],
		 "valence_orbital": [ 
			{
				"type": "occ",
				"energy": -0.32384,
				"method": "rhf"
			},
			{
				"type": "occ",
				"energy": -0.31363,
				"method": "rhf"
			},
			{
				"type": "occ",
				"energy": -0.29053,
				"method": "rhf"
			},
			{
				"type": "occ",
				"energy": -0.28828,
				"method": "rhf"
			},
			{
				"type": "occ",
				"energy": -0.27605,
				"method": "rhf"
			},
			{
				"type": "unocc",
				"energy": -0.07475,
				"method": "rhf"
			},
			{
				"type": "unocc",
				"energy": -0.0429,
				"method": "rhf"
			},
			{
				"type": "unocc",
				"energy": 0.01614,
				"method": "rhf"
			},
			{
				"type": "unocc",
				"energy": 0.02308,
				"method": "rhf"
			},
			{
				"type": "unocc",
				"energy": 0.0399,
				"method": "rhf"
			}
		],
		"cosmo_sigma_profile": { 
			"-0.025": 0.0,
			"-0.024": 0.0,
			"-0.023": 0.0,
			"-0.022": 0.0,
			"-0.021": 0.0,
			"-0.02": 0.0,
			"-0.019": 0.583760922382,
			"-0.018": 0.756657771916,
			"-0.017": 0.920550433189,
			"-0.016": 1.72196153234,
			"-0.015": 0.456259791274,
			"-0.014": 0.530847593805,
			"-0.013": 1.32244673319,
			"-0.012": 3.05186605155,
			"-0.011": 3.50783922681,
			"-0.01": 5.86527005538,
			"-0.009": 7.90885210764,
			"-0.008": 8.50744468742,
			"-0.007": 11.2937117947,
			"-0.006": 12.5820122613,
			"-0.005": 11.2211663005,
			"-0.004": 9.38769055391,
			"-0.003": 10.5942196305,
			"-0.002": 11.3826209196,
			"-0.001": 12.3760442665,
			"0.0": 13.9249039382,
			"0.001": 18.0384930143,
			"0.002": 27.2736098147,
			"0.003": 8.60813960532,
			"0.004": 5.90619395935,
			"0.005": 4.51321002411,
			"0.006": 6.12393855521,
			"0.007": 4.94931303464,
			"0.008": 6.39965516089,
			"0.009": 8.83339827247,
			"0.01": 15.8624716097,
			"0.011": 10.4966334642,
			"0.012": 4.07560330539,
			"0.013": 1.09555947166,
			"0.014": 0.0,
			"0.015": 0.0,
			"0.016": 0.0,
			"0.017": 0.0,
			"0.018": 0.0,
			"0.019": 0.0,
			"0.02": 0.0,
			"0.021": 0.0,
			"0.022": 0.0,
			"0.023": 0.0,
			"0.024": 0.0,
			"0.025": 0.0
		}
	}
}
