{
	 "smiles": "OC(=O)CC1=CC2=C(OCCCO2)C(Cl)=C1", 
	 "Tm": 440.15, 
	 "num_atms": 27, 
	 "gaussian": { 
		 "optdone": 1, 
		 "sigma_profile": "yes", 
		 "theory": "DFT", 
		 "functional": "B3LYP", 
		 "basiset": "6-31G**", 
		 "properties": { 
			 "R2extent": 5097.4295, 
			 "electric_dipole_moment_norm": 3.11225812072, 
			 "electric_quadrupole_moment_norm": 28.5503693664, 
			 "total_energy": -1186.86974468, 
			 "HOMO_LUMO_gap": 0.21097, 
			 "cosmo_polarized_energy": -20.36, 
			 "cosmo_cavitation_energy": 32.28, 
			 "cosmo_dispersion_energy": -23.79, 
			 "cosmo_repulsion_energy": 1.89, 
			 "cosmo_total_nonelectrostatic_energy": 10.37, 
			 "SMD_solvation_energy": 6.38 
		},
		"coords": [
			{
				"x": -1.6613615775,
				"y": -4.3100334474,
				"z": -2.4378611707,
				"element": "O" 
			},
			{
				"x": -1.1418111024,
				"y": -3.261354989,
				"z": -1.7414992323,
				"element": "C" 
			},
			{
				"x": -0.6160843141,
				"y": -3.4465428341,
				"z": -0.675981813,
				"element": "O" 
			},
			{
				"x": -1.3399163461,
				"y": -1.8967465086,
				"z": -2.4128678577,
				"element": "C" 
			},
			{
				"x": -0.5503315782,
				"y": -0.7662132989,
				"z": -1.7979518512,
				"element": "C" 
			},
			{
				"x": -0.7586199983,
				"y": -0.3858829224,
				"z": -0.4701140365,
				"element": "C" 
			},
			{
				"x": -0.0486795238,
				"y": 0.6716721884,
				"z": 0.0959749832,
				"element": "C" 
			},
			{
				"x": 0.9214053455,
				"y": 1.367775781,
				"z": -0.661767721,
				"element": "C" 
			},
			{
				"x": 1.6739124423,
				"y": 2.397945872,
				"z": -0.1719464976,
				"element": "O" 
			},
			{
				"x": 2.1344478902,
				"y": 2.2667077506,
				"z": 1.1838028404,
				"element": "C" 
			},
			{
				"x": 1.1038314146,
				"y": 2.8057066483,
				"z": 2.1767667703,
				"element": "C" 
			},
			{
				"x": -0.3025099184,
				"y": 2.3519029312,
				"z": 1.7828064023,
				"element": "C" 
			},
			{
				"x": -0.3263600314,
				"y": 0.9659812533,
				"z": 1.408396721,
				"element": "O" 
			},
			{
				"x": 1.1007140443,
				"y": 0.9873741618,
				"z": -1.9990651537,
				"element": "C" 
			},
			{
				"x": 2.2816764643,
				"y": 1.8378251421,
				"z": -2.9755916363,
				"element": "Cl" 
			},
			{
				"x": 0.3766900318,
				"y": -0.0591352101,
				"z": -2.5668212289,
				"element": "C" 
			},
			{
				"x": -2.040266018,
				"y": -4.0073009969,
				"z": -3.2752357043,
				"element": "H" 
			},
			{
				"x": -2.4184203676,
				"y": -1.6841153664,
				"z": -2.3664642706,
				"element": "H" 
			},
			{
				"x": -1.0955550931,
				"y": -1.987145725,
				"z": -3.4783112131,
				"element": "H" 
			},
			{
				"x": -1.4745540154,
				"y": -0.9041346083,
				"z": 0.1574541319,
				"element": "H" 
			},
			{
				"x": 2.3589657601,
				"y": 1.214752465,
				"z": 1.3899066036,
				"element": "H" 
			},
			{
				"x": 3.0686298798,
				"y": 2.832071882,
				"z": 1.232368692,
				"element": "H" 
			},
			{
				"x": 1.3618805582,
				"y": 2.4472948037,
				"z": 3.1800625275,
				"element": "H" 
			},
			{
				"x": 1.1242647107,
				"y": 3.9014779749,
				"z": 2.2037984739,
				"element": "H" 
			},
			{
				"x": -0.686617666,
				"y": 2.9597853737,
				"z": 0.9559536662,
				"element": "H" 
			},
			{
				"x": -0.9964298602,
				"y": 2.442164372,
				"z": 2.6229155616,
				"element": "H" 
			},
			{
				"x": 0.5560988685,
				"y": -0.3207326928,
				"z": -3.604127987,
				"element": "H" 
			}
		],
		 "valence_orbital": [ 
			{
				"type": "occ",
				"energy": -0.30232,
				"method": "rhf"
			},
			{
				"type": "occ",
				"energy": -0.2973,
				"method": "rhf"
			},
			{
				"type": "occ",
				"energy": -0.27598,
				"method": "rhf"
			},
			{
				"type": "occ",
				"energy": -0.23346,
				"method": "rhf"
			},
			{
				"type": "occ",
				"energy": -0.22119,
				"method": "rhf"
			},
			{
				"type": "unocc",
				"energy": -0.01022,
				"method": "rhf"
			},
			{
				"type": "unocc",
				"energy": -0.00213,
				"method": "rhf"
			},
			{
				"type": "unocc",
				"energy": 0.0083,
				"method": "rhf"
			},
			{
				"type": "unocc",
				"energy": 0.02935,
				"method": "rhf"
			},
			{
				"type": "unocc",
				"energy": 0.05093,
				"method": "rhf"
			}
		],
		"cosmo_sigma_profile": { 
			"-0.025": 0.0,
			"-0.024": 0.0,
			"-0.023": 0.0,
			"-0.022": 0.0,
			"-0.021": 0.0,
			"-0.02": 0.0117497434796,
			"-0.019": 0.775008191667,
			"-0.018": 1.10107391736,
			"-0.017": 1.16131724518,
			"-0.016": 1.52003338559,
			"-0.015": 0.997893333685,
			"-0.014": 1.20822521064,
			"-0.013": 0.848866456431,
			"-0.012": 0.860471994106,
			"-0.011": 1.73534584019,
			"-0.01": 1.54827714687,
			"-0.009": 2.16794373644,
			"-0.008": 5.0839549355,
			"-0.007": 6.55296280189,
			"-0.006": 12.2245923866,
			"-0.005": 19.6735945006,
			"-0.004": 25.2842710796,
			"-0.003": 19.0651579494,
			"-0.002": 13.5000639165,
			"-0.001": 11.2924622625,
			"0.0": 10.1275888463,
			"0.001": 12.9882941368,
			"0.002": 17.541951122,
			"0.003": 17.2209522591,
			"0.004": 15.3924204736,
			"0.005": 12.7378531527,
			"0.006": 5.31164555236,
			"0.007": 5.7169463288,
			"0.008": 6.1217770479,
			"0.009": 6.61763570952,
			"0.01": 7.78351068096,
			"0.011": 7.30761500057,
			"0.012": 5.11496754928,
			"0.013": 1.12143341586,
			"0.014": 0.0,
			"0.015": 0.0,
			"0.016": 0.0,
			"0.017": 0.0,
			"0.018": 0.0,
			"0.019": 0.0,
			"0.02": 0.0,
			"0.021": 0.0,
			"0.022": 0.0,
			"0.023": 0.0,
			"0.024": 0.0,
			"0.025": 0.0
		}
	}
}
