{
	 "smiles": "COC(=O)C1=NN2C(=N1)N=C(C=C2Cl)C(C)C", 
	 "Tm": 378.15, 
	 "num_atms": 28, 
	 "gaussian": { 
		 "optdone": 1, 
		 "sigma_profile": "yes", 
		 "theory": "DFT", 
		 "functional": "B3LYP", 
		 "basiset": "6-31G**", 
		 "properties": { 
			 "R2extent": 7156.4072, 
			 "electric_dipole_moment_norm": 3.82335295127, 
			 "electric_quadrupole_moment_norm": 17.9889767477, 
			 "total_energy": -1217.32667719, 
			 "HOMO_LUMO_gap": 0.18174, 
			 "cosmo_polarized_energy": -17.64, 
			 "cosmo_cavitation_energy": 35.05, 
			 "cosmo_dispersion_energy": -25.34, 
			 "cosmo_repulsion_energy": 2.0, 
			 "cosmo_total_nonelectrostatic_energy": 11.71, 
			 "SMD_solvation_energy": 3.96 
		},
		"coords": [
			{
				"x": 6.6864723638,
				"y": 1.3313295448,
				"z": 1.5741765719,
				"element": "C" 
			},
			{
				"x": 5.3371593595,
				"y": 0.9368004949,
				"z": 1.2774205967,
				"element": "O" 
			},
			{
				"x": 4.3889325963,
				"y": 1.6573939494,
				"z": 1.8968130927,
				"element": "C" 
			},
			{
				"x": 4.6018908467,
				"y": 2.5772976998,
				"z": 2.6553684023,
				"element": "O" 
			},
			{
				"x": 3.0200126204,
				"y": 1.1793460897,
				"z": 1.5309095893,
				"element": "C" 
			},
			{
				"x": 1.9563435888,
				"y": 1.7966171313,
				"z": 2.0666042067,
				"element": "N" 
			},
			{
				"x": 0.9444332623,
				"y": 1.1021196955,
				"z": 1.5129180917,
				"element": "N" 
			},
			{
				"x": 1.4459053632,
				"y": 0.0891390308,
				"z": 0.6616159531,
				"element": "C" 
			},
			{
				"x": 2.772536278,
				"y": 0.1528019587,
				"z": 0.6850518716,
				"element": "N" 
			},
			{
				"x": 0.63543286,
				"y": -0.7397698278,
				"z": -0.0080273306,
				"element": "N" 
			},
			{
				"x": -0.6701242513,
				"y": -0.5830509451,
				"z": 0.150538802,
				"element": "C" 
			},
			{
				"x": -1.2289192908,
				"y": 0.4219581483,
				"z": 0.9963799897,
				"element": "C" 
			},
			{
				"x": -0.3953184559,
				"y": 1.269548132,
				"z": 1.6812460081,
				"element": "C" 
			},
			{
				"x": -0.935579985,
				"y": 2.5206891645,
				"z": 2.7310574499,
				"element": "Cl" 
			},
			{
				"x": -1.5810583723,
				"y": -1.5295664837,
				"z": -0.6134511962,
				"element": "C" 
			},
			{
				"x": -1.3407321284,
				"y": -2.9841764725,
				"z": -0.1681240757,
				"element": "C" 
			},
			{
				"x": -1.3745539571,
				"y": -1.3688980748,
				"z": -2.1310709184,
				"element": "C" 
			},
			{
				"x": 6.8885495974,
				"y": 1.23428294,
				"z": 2.6439098066,
				"element": "H" 
			},
			{
				"x": 6.8575716062,
				"y": 2.3689026348,
				"z": 1.2762586374,
				"element": "H" 
			},
			{
				"x": 7.320160128,
				"y": 0.6564013359,
				"z": 0.9998853457,
				"element": "H" 
			},
			{
				"x": -2.3005910377,
				"y": 0.5249222204,
				"z": 1.1053097316,
				"element": "H" 
			},
			{
				"x": -2.6168565518,
				"y": -1.2591395195,
				"z": -0.372956737,
				"element": "H" 
			},
			{
				"x": -0.3052090126,
				"y": -3.2740133176,
				"z": -0.3664599336,
				"element": "H" 
			},
			{
				"x": -2.0036581866,
				"y": -3.6617953973,
				"z": -0.7153114642,
				"element": "H" 
			},
			{
				"x": -1.5316192574,
				"y": -3.1131168342,
				"z": 0.9021592344,
				"element": "H" 
			},
			{
				"x": -1.5897990765,
				"y": -0.3469380021,
				"z": -2.4594323067,
				"element": "H" 
			},
			{
				"x": -2.0373792683,
				"y": -2.0476649242,
				"z": -2.6769471179,
				"element": "H" 
			},
			{
				"x": -0.3402016387,
				"y": -1.601520372,
				"z": -2.3986423011,
				"element": "H" 
			}
		],
		 "valence_orbital": [ 
			{
				"type": "occ",
				"energy": -0.29693,
				"method": "rhf"
			},
			{
				"type": "occ",
				"energy": -0.28722,
				"method": "rhf"
			},
			{
				"type": "occ",
				"energy": -0.28133,
				"method": "rhf"
			},
			{
				"type": "occ",
				"energy": -0.27538,
				"method": "rhf"
			},
			{
				"type": "occ",
				"energy": -0.26165,
				"method": "rhf"
			},
			{
				"type": "unocc",
				"energy": -0.07991,
				"method": "rhf"
			},
			{
				"type": "unocc",
				"energy": -0.04441,
				"method": "rhf"
			},
			{
				"type": "unocc",
				"energy": -0.00921,
				"method": "rhf"
			},
			{
				"type": "unocc",
				"energy": -1e-05,
				"method": "rhf"
			},
			{
				"type": "unocc",
				"energy": 0.08129,
				"method": "rhf"
			}
		],
		"cosmo_sigma_profile": { 
			"-0.025": 0.0,
			"-0.024": 0.0,
			"-0.023": 0.0,
			"-0.022": 0.0,
			"-0.021": 0.0,
			"-0.02": 0.0,
			"-0.019": 0.0,
			"-0.018": 0.0,
			"-0.017": 0.0,
			"-0.016": 0.0,
			"-0.015": 0.0,
			"-0.014": 0.0,
			"-0.013": 0.0,
			"-0.012": 0.0,
			"-0.011": 0.0,
			"-0.01": 1.41129207913,
			"-0.009": 1.9855348273,
			"-0.008": 3.45436348197,
			"-0.007": 7.49632128736,
			"-0.006": 13.2671381003,
			"-0.005": 17.3986342239,
			"-0.004": 29.9745301679,
			"-0.003": 35.1175072782,
			"-0.002": 26.143607069,
			"-0.001": 23.0468171716,
			"0.0": 23.3119711212,
			"0.001": 23.6823031917,
			"0.002": 10.7939756076,
			"0.003": 5.64973573604,
			"0.004": 4.8877303529,
			"0.005": 6.18967051957,
			"0.006": 6.11175628399,
			"0.007": 5.17562825127,
			"0.008": 4.28766345275,
			"0.009": 5.65004491201,
			"0.01": 5.25899740604,
			"0.011": 9.33634978306,
			"0.012": 5.63736294993,
			"0.013": 3.37947496175,
			"0.014": 1.70321787901,
			"0.015": 1.15294196005,
			"0.016": 0.17108643842,
			"0.017": 0.0,
			"0.018": 0.0,
			"0.019": 0.0,
			"0.02": 0.0,
			"0.021": 0.0,
			"0.022": 0.0,
			"0.023": 0.0,
			"0.024": 0.0,
			"0.025": 0.0
		}
	}
}
