{
	 "smiles": "NC1=CC=C(C=C1)C(=O)OC1CCCC1", 
	 "Tm": 329.15, 
	 "num_atms": 30, 
	 "gaussian": { 
		 "optdone": 1, 
		 "sigma_profile": "yes", 
		 "theory": "DFT", 
		 "functional": "B3LYP", 
		 "basiset": "6-31G**", 
		 "properties": { 
			 "R2extent": 4713.8689, 
			 "electric_dipole_moment_norm": 3.50487261109, 
			 "electric_quadrupole_moment_norm": 21.0847743215, 
			 "total_energy": -671.54836845, 
			 "HOMO_LUMO_gap": 0.18495, 
			 "cosmo_polarized_energy": -12.96, 
			 "cosmo_cavitation_energy": 32.66, 
			 "cosmo_dispersion_energy": -23.71, 
			 "cosmo_repulsion_energy": 1.88, 
			 "cosmo_total_nonelectrostatic_energy": 10.83, 
			 "SMD_solvation_energy": 5.68 
		},
		"coords": [
			{
				"x": -1.7649744024,
				"y": -2.9968120766,
				"z": 4.6301453184,
				"element": "N" 
			},
			{
				"x": -1.2125411156,
				"y": -2.6216845437,
				"z": 3.4149030973,
				"element": "C" 
			},
			{
				"x": -1.642578029,
				"y": -1.4502694293,
				"z": 2.7607614393,
				"element": "C" 
			},
			{
				"x": -1.0530688575,
				"y": -1.0494488542,
				"z": 1.5700339152,
				"element": "C" 
			},
			{
				"x": -0.0183200131,
				"y": -1.8018852441,
				"z": 0.9927448283,
				"element": "C" 
			},
			{
				"x": 0.4103262026,
				"y": -2.9684732911,
				"z": 1.6449770027,
				"element": "C" 
			},
			{
				"x": -0.1730093742,
				"y": -3.3759500966,
				"z": 2.8345723208,
				"element": "C" 
			},
			{
				"x": 0.6449040836,
				"y": -1.4239314765,
				"z": -0.2771347364,
				"element": "C" 
			},
			{
				"x": 1.5420221982,
				"y": -2.0619788251,
				"z": -0.8012022701,
				"element": "O" 
			},
			{
				"x": 0.1387595844,
				"y": -0.2808970719,
				"z": -0.8061735951,
				"element": "O" 
			},
			{
				"x": 0.7214561637,
				"y": 0.1709011695,
				"z": -2.0604739811,
				"element": "C" 
			},
			{
				"x": 1.9794183309,
				"y": 1.0056356101,
				"z": -1.7832627325,
				"element": "C" 
			},
			{
				"x": 1.4183442777,
				"y": 2.384238346,
				"z": -1.401589877,
				"element": "C" 
			},
			{
				"x": 0.2605332256,
				"y": 2.586366512,
				"z": -2.4021011918,
				"element": "C" 
			},
			{
				"x": -0.285710437,
				"y": 1.1574594167,
				"z": -2.6896054839,
				"element": "C" 
			},
			{
				"x": -1.6565307782,
				"y": -3.9655638598,
				"z": 4.8931053525,
				"element": "H" 
			},
			{
				"x": -2.6804856552,
				"y": -2.6273823969,
				"z": 4.8415476572,
				"element": "H" 
			},
			{
				"x": -2.4411245059,
				"y": -0.8566956962,
				"z": 3.199022463,
				"element": "H" 
			},
			{
				"x": -1.3944484488,
				"y": -0.1471624611,
				"z": 1.0754341255,
				"element": "H" 
			},
			{
				"x": 1.2092827198,
				"y": -3.5471247734,
				"z": 1.1933267402,
				"element": "H" 
			},
			{
				"x": 0.1718726314,
				"y": -4.2802836951,
				"z": 3.3297919085,
				"element": "H" 
			},
			{
				"x": 0.9228385068,
				"y": -0.7122048899,
				"z": -2.6689158032,
				"element": "H" 
			},
			{
				"x": 2.5605160858,
				"y": 1.0778507818,
				"z": -2.7120945398,
				"element": "H" 
			},
			{
				"x": 2.6207659951,
				"y": 0.544447168,
				"z": -1.0287861966,
				"element": "H" 
			},
			{
				"x": 2.1654307399,
				"y": 3.1825867569,
				"z": -1.4456403441,
				"element": "H" 
			},
			{
				"x": 1.0320520546,
				"y": 2.3489400586,
				"z": -0.3765142292,
				"element": "H" 
			},
			{
				"x": 0.644160332,
				"y": 3.0331127751,
				"z": -3.3266070352,
				"element": "H" 
			},
			{
				"x": -0.5123519163,
				"y": 3.2604928046,
				"z": -2.0212946352,
				"element": "H" 
			},
			{
				"x": -1.2735480713,
				"y": 0.9919322624,
				"z": -2.2515995029,
				"element": "H" 
			},
			{
				"x": -0.3763915277,
				"y": 0.97368502,
				"z": -3.7645700148,
				"element": "H" 
			}
		],
		 "valence_orbital": [ 
			{
				"type": "occ",
				"energy": -0.30798,
				"method": "rhf"
			},
			{
				"type": "occ",
				"energy": -0.28039,
				"method": "rhf"
			},
			{
				"type": "occ",
				"energy": -0.25645,
				"method": "rhf"
			},
			{
				"type": "occ",
				"energy": -0.25159,
				"method": "rhf"
			},
			{
				"type": "occ",
				"energy": -0.20918,
				"method": "rhf"
			},
			{
				"type": "unocc",
				"energy": -0.02423,
				"method": "rhf"
			},
			{
				"type": "unocc",
				"energy": 0.00042,
				"method": "rhf"
			},
			{
				"type": "unocc",
				"energy": 0.0676,
				"method": "rhf"
			},
			{
				"type": "unocc",
				"energy": 0.08192,
				"method": "rhf"
			},
			{
				"type": "unocc",
				"energy": 0.08806,
				"method": "rhf"
			}
		],
		"cosmo_sigma_profile": { 
			"-0.025": 0.0,
			"-0.024": 0.0,
			"-0.023": 0.0,
			"-0.022": 0.0,
			"-0.021": 0.0,
			"-0.02": 0.0,
			"-0.019": 0.0,
			"-0.018": 0.0,
			"-0.017": 0.0,
			"-0.016": 0.0,
			"-0.015": 0.0,
			"-0.014": 0.0661633967774,
			"-0.013": 2.09626553146,
			"-0.012": 2.77160239927,
			"-0.011": 2.98448218082,
			"-0.01": 3.45206500028,
			"-0.009": 3.07222695086,
			"-0.008": 2.87398559437,
			"-0.007": 3.27824440029,
			"-0.006": 4.68570031427,
			"-0.005": 7.13465715483,
			"-0.004": 11.8849318462,
			"-0.003": 24.9331290366,
			"-0.002": 25.6735302737,
			"-0.001": 26.6041354417,
			"0.0": 26.232632669,
			"0.001": 23.7755529255,
			"0.002": 14.9618308289,
			"0.003": 15.3149499223,
			"0.004": 15.3977923604,
			"0.005": 15.9780109392,
			"0.006": 3.85515487452,
			"0.007": 2.35966507674,
			"0.008": 2.23525034114,
			"0.009": 2.93286008725,
			"0.01": 1.91290669618,
			"0.011": 2.63345282954,
			"0.012": 3.71991714825,
			"0.013": 3.8805876672,
			"0.014": 0.0284818044493,
			"0.015": 0.0,
			"0.016": 0.0,
			"0.017": 0.0,
			"0.018": 0.0,
			"0.019": 0.0,
			"0.02": 0.0,
			"0.021": 0.0,
			"0.022": 0.0,
			"0.023": 0.0,
			"0.024": 0.0,
			"0.025": 0.0
		}
	}
}
