{
	 "smiles": "CC(C)(C)C1CNC(=O)C1", 
	 "Tm": 404.15, 
	 "num_atms": 25, 
	 "gaussian": { 
		 "optdone": 1, 
		 "sigma_profile": "yes", 
		 "theory": "DFT", 
		 "functional": "B3LYP", 
		 "basiset": "6-31G**", 
		 "properties": { 
			 "R2extent": 1783.3762, 
			 "electric_dipole_moment_norm": 4.06524931708, 
			 "electric_quadrupole_moment_norm": 9.95706565862, 
			 "total_energy": -443.897614447, 
			 "HOMO_LUMO_gap": 0.27277, 
			 "cosmo_polarized_energy": -10.98, 
			 "cosmo_cavitation_energy": 25.39, 
			 "cosmo_dispersion_energy": -18.44, 
			 "cosmo_repulsion_energy": 1.49, 
			 "cosmo_total_nonelectrostatic_energy": 8.43, 
			 "SMD_solvation_energy": 4.23 
		},
		"coords": [
			{
				"x": -2.208830574,
				"y": -0.9103176501,
				"z": 0.7182872567,
				"element": "C" 
			},
			{
				"x": -0.9290787174,
				"y": -1.7476903932,
				"z": 0.5193005788,
				"element": "C" 
			},
			{
				"x": -0.6514773097,
				"y": -2.5509759489,
				"z": 1.8073714241,
				"element": "C" 
			},
			{
				"x": -1.1592379338,
				"y": -2.7379248509,
				"z": -0.641013673,
				"element": "C" 
			},
			{
				"x": 0.3166477227,
				"y": -0.8777468361,
				"z": 0.1896925437,
				"element": "C" 
			},
			{
				"x": 0.7674135602,
				"y": 0.1120027704,
				"z": 1.3008579667,
				"element": "C" 
			},
			{
				"x": 1.498290217,
				"y": 1.1210908193,
				"z": 0.5511431348,
				"element": "N" 
			},
			{
				"x": 1.2123036939,
				"y": 1.1676701074,
				"z": -0.7896217739,
				"element": "C" 
			},
			{
				"x": 1.6360123553,
				"y": 1.9898615856,
				"z": -1.5832611708,
				"element": "O" 
			},
			{
				"x": 0.2503405072,
				"y": 0.0100751846,
				"z": -1.0710291557,
				"element": "C" 
			},
			{
				"x": -2.1142621085,
				"y": -0.1965731153,
				"z": 1.5430827967,
				"element": "H" 
			},
			{
				"x": -3.0520207664,
				"y": -1.5686226077,
				"z": 0.953955666,
				"element": "H" 
			},
			{
				"x": -2.4784289776,
				"y": -0.3491889539,
				"z": -0.1819859642,
				"element": "H" 
			},
			{
				"x": -0.5286498728,
				"y": -1.8970226641,
				"z": 2.6776102516,
				"element": "H" 
			},
			{
				"x": -1.4818603894,
				"y": -3.2314201299,
				"z": 2.0249254788,
				"element": "H" 
			},
			{
				"x": 0.25741072,
				"y": -3.1560100749,
				"z": 1.7099308028,
				"element": "H" 
			},
			{
				"x": -1.3887517324,
				"y": -2.2173315033,
				"z": -1.5765076495,
				"element": "H" 
			},
			{
				"x": -1.9991289,
				"y": -3.4052973572,
				"z": -0.4189336977,
				"element": "H" 
			},
			{
				"x": -0.274216662,
				"y": -3.3615282945,
				"z": -0.8121841314,
				"element": "H" 
			},
			{
				"x": 1.1531476329,
				"y": -1.5748919962,
				"z": 0.0448189379,
				"element": "H" 
			},
			{
				"x": 1.4089502618,
				"y": -0.3723372606,
				"z": 2.044193971,
				"element": "H" 
			},
			{
				"x": -0.0884190412,
				"y": 0.5496520509,
				"z": 1.8346973076,
				"element": "H" 
			},
			{
				"x": 2.0106931371,
				"y": 1.8769911903,
				"z": 0.9823127738,
				"element": "H" 
			},
			{
				"x": -0.7443347658,
				"y": 0.4434791164,
				"z": -1.2304210093,
				"element": "H" 
			},
			{
				"x": 0.5333879429,
				"y": -0.5000431883,
				"z": -1.9939226658,
				"element": "H" 
			}
		],
		 "valence_orbital": [ 
			{
				"type": "occ",
				"energy": -0.32791,
				"method": "rhf"
			},
			{
				"type": "occ",
				"energy": -0.32138,
				"method": "rhf"
			},
			{
				"type": "occ",
				"energy": -0.31768,
				"method": "rhf"
			},
			{
				"type": "occ",
				"energy": -0.24717,
				"method": "rhf"
			},
			{
				"type": "occ",
				"energy": -0.23478,
				"method": "rhf"
			},
			{
				"type": "unocc",
				"energy": 0.03799,
				"method": "rhf"
			},
			{
				"type": "unocc",
				"energy": 0.06433,
				"method": "rhf"
			},
			{
				"type": "unocc",
				"energy": 0.09631,
				"method": "rhf"
			},
			{
				"type": "unocc",
				"energy": 0.10083,
				"method": "rhf"
			},
			{
				"type": "unocc",
				"energy": 0.11274,
				"method": "rhf"
			}
		],
		"cosmo_sigma_profile": { 
			"-0.025": 0.0,
			"-0.024": 0.0,
			"-0.023": 0.0,
			"-0.022": 0.0,
			"-0.021": 0.0,
			"-0.02": 0.0,
			"-0.019": 0.0,
			"-0.018": 0.0,
			"-0.017": 0.0,
			"-0.016": 0.0,
			"-0.015": 0.0,
			"-0.014": 0.482323296713,
			"-0.013": 1.34341441948,
			"-0.012": 1.17324872748,
			"-0.011": 0.978506874409,
			"-0.01": 0.884685942778,
			"-0.009": 0.855159398026,
			"-0.008": 0.698203736138,
			"-0.007": 0.936779647641,
			"-0.006": 1.411285261,
			"-0.005": 5.26135167944,
			"-0.004": 12.5152443814,
			"-0.003": 28.8685699052,
			"-0.002": 36.1737627951,
			"-0.001": 22.7551934823,
			"0.0": 17.5250545773,
			"0.001": 22.9899028875,
			"0.002": 12.4245405541,
			"0.003": 1.91282454741,
			"0.004": 1.76298498834,
			"0.005": 2.25105124245,
			"0.006": 1.48691358869,
			"0.007": 1.43679490004,
			"0.008": 0.897621874473,
			"0.009": 1.37807413469,
			"0.01": 1.20259506833,
			"0.011": 1.39094566885,
			"0.012": 1.48444253457,
			"0.013": 2.92181965478,
			"0.014": 6.40945965705,
			"0.015": 3.58833882972,
			"0.016": 0.421624763686,
			"0.017": 0.0,
			"0.018": 0.0,
			"0.019": 0.0,
			"0.02": 0.0,
			"0.021": 0.0,
			"0.022": 0.0,
			"0.023": 0.0,
			"0.024": 0.0,
			"0.025": 0.0
		}
	}
}
