{
	 "smiles": "COC(=O)C1=CC=C2C(C=O)=CN(C(=O)OC(C)(C)C)C2=C1", 
	 "Tm": 487.15, 
	 "num_atms": 39, 
	 "gaussian": { 
		 "optdone": 1, 
		 "sigma_profile": "yes", 
		 "theory": "DFT", 
		 "functional": "B3LYP", 
		 "basiset": "6-31G**", 
		 "properties": { 
			 "R2extent": 9506.8658, 
			 "electric_dipole_moment_norm": 4.61916032305, 
			 "electric_quadrupole_moment_norm": 11.5742470908, 
			 "total_energy": -1050.8611568, 
			 "HOMO_LUMO_gap": 0.16583, 
			 "cosmo_polarized_energy": -14.69, 
			 "cosmo_cavitation_energy": 43.66, 
			 "cosmo_dispersion_energy": -30.15, 
			 "cosmo_repulsion_energy": 2.29, 
			 "cosmo_total_nonelectrostatic_energy": 15.8, 
			 "SMD_solvation_energy": 11.24 
		},
		"coords": [
			{
				"x": 5.1840908207,
				"y": 0.9045295678,
				"z": 0.5582305222,
				"element": "C" 
			},
			{
				"x": 3.945865424,
				"y": 0.1803804484,
				"z": 0.5204612282,
				"element": "O" 
			},
			{
				"x": 4.0095675198,
				"y": -1.0934447738,
				"z": 0.9723350883,
				"element": "C" 
			},
			{
				"x": 5.0367876327,
				"y": -1.5991959892,
				"z": 1.3833810658,
				"element": "O" 
			},
			{
				"x": 2.694429621,
				"y": -1.7898573666,
				"z": 0.9072056424,
				"element": "C" 
			},
			{
				"x": 2.6477245877,
				"y": -3.1270241457,
				"z": 1.3552800791,
				"element": "C" 
			},
			{
				"x": 1.4652776793,
				"y": -3.8504814194,
				"z": 1.3301689535,
				"element": "C" 
			},
			{
				"x": 0.3027075935,
				"y": -3.229042145,
				"z": 0.8480755693,
				"element": "C" 
			},
			{
				"x": -1.0696441263,
				"y": -3.6663246617,
				"z": 0.68075591,
				"element": "C" 
			},
			{
				"x": -1.6605461396,
				"y": -4.9686098362,
				"z": 0.9911705951,
				"element": "C" 
			},
			{
				"x": -2.835444319,
				"y": -5.2474563863,
				"z": 0.8153105392,
				"element": "O" 
			},
			{
				"x": -1.7699634019,
				"y": -2.6090004127,
				"z": 0.1558106269,
				"element": "C" 
			},
			{
				"x": -0.9296619273,
				"y": -1.5246780849,
				"z": -0.0220013371,
				"element": "N" 
			},
			{
				"x": -1.3023948375,
				"y": -0.2658549845,
				"z": -0.5402256538,
				"element": "C" 
			},
			{
				"x": -0.5131564275,
				"y": 0.6454112851,
				"z": -0.6693982881,
				"element": "O" 
			},
			{
				"x": -2.6027092699,
				"y": -0.2698573266,
				"z": -0.8411683272,
				"element": "O" 
			},
			{
				"x": -3.2654811202,
				"y": 0.9347676682,
				"z": -1.4074852085,
				"element": "C" 
			},
			{
				"x": -4.7083751809,
				"y": 0.4587248964,
				"z": -1.5800654051,
				"element": "C" 
			},
			{
				"x": -3.1798354566,
				"y": 2.085959344,
				"z": -0.4026357107,
				"element": "C" 
			},
			{
				"x": -2.632436041,
				"y": 1.2802868664,
				"z": -2.7573787984,
				"element": "C" 
			},
			{
				"x": 0.3698868989,
				"y": -1.8855533157,
				"z": 0.4025328876,
				"element": "C" 
			},
			{
				"x": 1.5500159729,
				"y": -1.147096955,
				"z": 0.4220289839,
				"element": "C" 
			},
			{
				"x": 5.9388499949,
				"y": 0.4103919912,
				"z": -0.0588771273,
				"element": "H" 
			},
			{
				"x": 4.9569802457,
				"y": 1.8956566105,
				"z": 0.1655958716,
				"element": "H" 
			},
			{
				"x": 5.5593735515,
				"y": 0.9736533797,
				"z": 1.582456615,
				"element": "H" 
			},
			{
				"x": 3.5666554288,
				"y": -3.5719062942,
				"z": 1.7204107609,
				"element": "H" 
			},
			{
				"x": 1.4437331375,
				"y": -4.8783897747,
				"z": 1.6779242406,
				"element": "H" 
			},
			{
				"x": -0.9572076434,
				"y": -5.7189634991,
				"z": 1.411295843,
				"element": "H" 
			},
			{
				"x": -2.8133492259,
				"y": -2.5487733858,
				"z": -0.106158409,
				"element": "H" 
			},
			{
				"x": -5.1380264639,
				"y": 0.164177117,
				"z": -0.6184665562,
				"element": "H" 
			},
			{
				"x": -5.3170027452,
				"y": 1.2657357453,
				"z": -1.9977650614,
				"element": "H" 
			},
			{
				"x": -4.7565526547,
				"y": -0.3972590061,
				"z": -2.2590409388,
				"element": "H" 
			},
			{
				"x": -3.5916483062,
				"y": 1.7811088593,
				"z": 0.5642680646,
				"element": "H" 
			},
			{
				"x": -3.7708278139,
				"y": 2.9302142148,
				"z": -0.7711335084,
				"element": "H" 
			},
			{
				"x": -2.1501352859,
				"y": 2.4163435982,
				"z": -0.2630708901,
				"element": "H" 
			},
			{
				"x": -2.6637816724,
				"y": 0.4154669555,
				"z": -3.4271018822,
				"element": "H" 
			},
			{
				"x": -1.5974687871,
				"y": 1.6028980805,
				"z": -2.6404393621,
				"element": "H" 
			},
			{
				"x": -3.2005077391,
				"y": 2.0907912559,
				"z": -3.2245045211,
				"element": "H" 
			},
			{
				"x": 1.5823104765,
				"y": -0.1240281211,
				"z": 0.0785178984,
				"element": "H" 
			}
		],
		 "valence_orbital": [ 
			{
				"type": "occ",
				"energy": -0.29386,
				"method": "rhf"
			},
			{
				"type": "occ",
				"energy": -0.27156,
				"method": "rhf"
			},
			{
				"type": "occ",
				"energy": -0.25325,
				"method": "rhf"
			},
			{
				"type": "occ",
				"energy": -0.24886,
				"method": "rhf"
			},
			{
				"type": "occ",
				"energy": -0.23314,
				"method": "rhf"
			},
			{
				"type": "unocc",
				"energy": -0.06731,
				"method": "rhf"
			},
			{
				"type": "unocc",
				"energy": -0.04234,
				"method": "rhf"
			},
			{
				"type": "unocc",
				"energy": -0.01555,
				"method": "rhf"
			},
			{
				"type": "unocc",
				"energy": 0.02208,
				"method": "rhf"
			},
			{
				"type": "unocc",
				"energy": 0.06834,
				"method": "rhf"
			}
		],
		"cosmo_sigma_profile": { 
			"-0.025": 0.0,
			"-0.024": 0.0,
			"-0.023": 0.0,
			"-0.022": 0.0,
			"-0.021": 0.0,
			"-0.02": 0.0,
			"-0.019": 0.0,
			"-0.018": 0.0,
			"-0.017": 0.0,
			"-0.016": 0.0,
			"-0.015": 0.0,
			"-0.014": 0.0,
			"-0.013": 0.0,
			"-0.012": 0.0,
			"-0.011": 0.0,
			"-0.01": 0.0,
			"-0.009": 0.119703741181,
			"-0.008": 2.21542624963,
			"-0.007": 6.87546697675,
			"-0.006": 11.3528323916,
			"-0.005": 21.4350246808,
			"-0.004": 33.7142793359,
			"-0.003": 35.4189869939,
			"-0.002": 34.0020095596,
			"-0.001": 36.4565365036,
			"0.0": 41.2258333871,
			"0.001": 28.0993333154,
			"0.002": 23.0176409964,
			"0.003": 15.526260201,
			"0.004": 8.25425731461,
			"0.005": 7.69804862202,
			"0.006": 5.91128483084,
			"0.007": 3.2008217895,
			"0.008": 4.85045979213,
			"0.009": 5.0251124783,
			"0.01": 5.80542045525,
			"0.011": 6.79699433492,
			"0.012": 8.29660816015,
			"0.013": 1.66960637998,
			"0.014": 0.01935255225,
			"0.015": 0.0,
			"0.016": 0.0,
			"0.017": 0.0,
			"0.018": 0.0,
			"0.019": 0.0,
			"0.02": 0.0,
			"0.021": 0.0,
			"0.022": 0.0,
			"0.023": 0.0,
			"0.024": 0.0,
			"0.025": 0.0
		}
	}
}
