{
	 "smiles": "BrCCC(Br)CBr", 
	 "Tm": 255.15, 
	 "num_atms": 14, 
	 "gaussian": { 
		 "optdone": 1, 
		 "sigma_profile": "yes", 
		 "theory": "DFT", 
		 "functional": "B3LYP", 
		 "basiset": "6-31G**", 
		 "properties": { 
			 "R2extent": 3828.0745, 
			 "electric_dipole_moment_norm": 1.33870031747, 
			 "electric_quadrupole_moment_norm": 9.40926735299, 
			 "total_energy": -7870.87190443, 
			 "HOMO_LUMO_gap": 0.25196, 
			 "cosmo_polarized_energy": -8.2, 
			 "cosmo_cavitation_energy": 23.36, 
			 "cosmo_dispersion_energy": -18.04, 
			 "cosmo_repulsion_energy": 1.52, 
			 "cosmo_total_nonelectrostatic_energy": 6.84, 
			 "SMD_solvation_energy": 0.48 
		},
		"coords": [
			{
				"x": -2.1557578613,
				"y": -2.5673672422,
				"z": -1.8670753575,
				"element": "Br" 
			},
			{
				"x": -0.3742961369,
				"y": -1.6980434948,
				"z": -1.7360311307,
				"element": "C" 
			},
			{
				"x": -0.4142059474,
				"y": -0.4289986291,
				"z": -0.9008207051,
				"element": "C" 
			},
			{
				"x": -0.7721506212,
				"y": -0.6292378687,
				"z": 0.568660222,
				"element": "C" 
			},
			{
				"x": 0.6170690955,
				"y": -1.7267369557,
				"z": 1.4872975321,
				"element": "Br" 
			},
			{
				"x": -1.030206622,
				"y": 0.6511313129,
				"z": 1.3415201278,
				"element": "C" 
			},
			{
				"x": 0.4487758459,
				"y": 1.9592928495,
				"z": 1.2859276254,
				"element": "Br" 
			},
			{
				"x": -0.0864768073,
				"y": -1.4879914219,
				"z": -2.7647686914,
				"element": "H" 
			},
			{
				"x": 0.2848825442,
				"y": -2.4521010992,
				"z": -1.308828657,
				"element": "H" 
			},
			{
				"x": -1.1458351415,
				"y": 0.2669527108,
				"z": -1.3310006796,
				"element": "H" 
			},
			{
				"x": 0.5660100979,
				"y": 0.0564161698,
				"z": -0.9698894418,
				"element": "H" 
			},
			{
				"x": -1.6718658384,
				"y": -1.245121909,
				"z": 0.6520763682,
				"element": "H" 
			},
			{
				"x": -1.2097942795,
				"y": 0.4535672055,
				"z": 2.3961763971,
				"element": "H" 
			},
			{
				"x": -1.8888483282,
				"y": 1.170638372,
				"z": 0.9107563904,
				"element": "H" 
			}
		],
		 "valence_orbital": [ 
			{
				"type": "occ",
				"energy": -0.28864,
				"method": "rhf"
			},
			{
				"type": "occ",
				"energy": -0.28375,
				"method": "rhf"
			},
			{
				"type": "occ",
				"energy": -0.28224,
				"method": "rhf"
			},
			{
				"type": "occ",
				"energy": -0.27947,
				"method": "rhf"
			},
			{
				"type": "occ",
				"energy": -0.27531,
				"method": "rhf"
			},
			{
				"type": "unocc",
				"energy": -0.02335,
				"method": "rhf"
			},
			{
				"type": "unocc",
				"energy": -0.00833,
				"method": "rhf"
			},
			{
				"type": "unocc",
				"energy": 0.00358,
				"method": "rhf"
			},
			{
				"type": "unocc",
				"energy": 0.08045,
				"method": "rhf"
			},
			{
				"type": "unocc",
				"energy": 0.09791,
				"method": "rhf"
			}
		],
		"cosmo_sigma_profile": { 
			"-0.025": 0.0,
			"-0.024": 0.0,
			"-0.023": 0.0,
			"-0.022": 0.0,
			"-0.021": 0.0,
			"-0.02": 0.0,
			"-0.019": 0.0,
			"-0.018": 0.0,
			"-0.017": 0.0,
			"-0.016": 0.0,
			"-0.015": 0.0,
			"-0.014": 0.0,
			"-0.013": 0.0,
			"-0.012": 0.0,
			"-0.011": 0.0,
			"-0.01": 0.0320485477737,
			"-0.009": 2.68782209953,
			"-0.008": 8.2267409406,
			"-0.007": 9.64972762792,
			"-0.006": 11.2651763361,
			"-0.005": 12.1690806291,
			"-0.004": 10.4958184648,
			"-0.003": 9.2562303532,
			"-0.002": 11.1723141413,
			"-0.001": 11.0143440572,
			"0.0": 12.0054636232,
			"0.001": 9.72478272254,
			"0.002": 11.7155058717,
			"0.003": 13.9882177303,
			"0.004": 16.468455888,
			"0.005": 19.8509562299,
			"0.006": 19.4480638673,
			"0.007": 4.15959509184,
			"0.008": 0.263977465759,
			"0.009": 0.0,
			"0.01": 0.0,
			"0.011": 0.0,
			"0.012": 0.0,
			"0.013": 0.0,
			"0.014": 0.0,
			"0.015": 0.0,
			"0.016": 0.0,
			"0.017": 0.0,
			"0.018": 0.0,
			"0.019": 0.0,
			"0.02": 0.0,
			"0.021": 0.0,
			"0.022": 0.0,
			"0.023": 0.0,
			"0.024": 0.0,
			"0.025": 0.0
		}
	}
}
