{
	 "smiles": "OC1=CC=C(C=C1O)C1=CC(=O)C2=CC=CC=C2O1", 
	 "Tm": 523.65, 
	 "num_atms": 29, 
	 "gaussian": { 
		 "optdone": 1, 
		 "sigma_profile": "yes", 
		 "theory": "DFT", 
		 "functional": "B3LYP", 
		 "basiset": "6-31G**", 
		 "properties": { 
			 "R2extent": 6744.2195, 
			 "electric_dipole_moment_norm": 5.71499711723, 
			 "electric_quadrupole_moment_norm": 14.6775764675, 
			 "total_energy": -878.513515353, 
			 "HOMO_LUMO_gap": 0.15377, 
			 "cosmo_polarized_energy": -18.39, 
			 "cosmo_cavitation_energy": 34.06, 
			 "cosmo_dispersion_energy": -25.29, 
			 "cosmo_repulsion_energy": 1.89, 
			 "cosmo_total_nonelectrostatic_energy": 10.66, 
			 "SMD_solvation_energy": 7.1 
		},
		"coords": [
			{
				"x": 2.7457098594,
				"y": -4.583798073,
				"z": 1.0994642936,
				"element": "O" 
			},
			{
				"x": 2.2978720539,
				"y": -3.4141820894,
				"z": 0.5784178753,
				"element": "C" 
			},
			{
				"x": 3.1999168951,
				"y": -2.4677575149,
				"z": 0.0949654802,
				"element": "C" 
			},
			{
				"x": 2.7396275843,
				"y": -1.26721127,
				"z": -0.4383805227,
				"element": "C" 
			},
			{
				"x": 1.3652844076,
				"y": -0.9875091929,
				"z": -0.5049412532,
				"element": "C" 
			},
			{
				"x": 0.4575194173,
				"y": -1.9429263545,
				"z": -0.006154925,
				"element": "C" 
			},
			{
				"x": 0.9187799489,
				"y": -3.1369514512,
				"z": 0.5242456756,
				"element": "C" 
			},
			{
				"x": 0.1134101954,
				"y": -4.1312300588,
				"z": 1.0276676536,
				"element": "O" 
			},
			{
				"x": 0.8695160282,
				"y": 0.2715401184,
				"z": -1.0812175219,
				"element": "C" 
			},
			{
				"x": 1.5733942522,
				"y": 1.1291908454,
				"z": -1.867804758,
				"element": "C" 
			},
			{
				"x": 1.0048677258,
				"y": 2.3646400016,
				"z": -2.3876685253,
				"element": "C" 
			},
			{
				"x": 1.6303690208,
				"y": 3.1589240889,
				"z": -3.091068997,
				"element": "O" 
			},
			{
				"x": -0.4105928441,
				"y": 2.5818663487,
				"z": -2.0040729559,
				"element": "C" 
			},
			{
				"x": -1.1210928389,
				"y": 3.7152601791,
				"z": -2.4293097071,
				"element": "C" 
			},
			{
				"x": -2.4470896938,
				"y": 3.8947645903,
				"z": -2.0626043342,
				"element": "C" 
			},
			{
				"x": -3.0862403823,
				"y": 2.9355637804,
				"z": -1.259673342,
				"element": "C" 
			},
			{
				"x": -2.4041393202,
				"y": 1.8050178366,
				"z": -0.8269360728,
				"element": "C" 
			},
			{
				"x": -1.0681655989,
				"y": 1.6384276957,
				"z": -1.2055947235,
				"element": "C" 
			},
			{
				"x": -0.435109845,
				"y": 0.5093700035,
				"z": -0.7492346301,
				"element": "O" 
			},
			{
				"x": 1.9726134136,
				"y": -5.0966423502,
				"z": 1.3810033887,
				"element": "H" 
			},
			{
				"x": 4.2609012744,
				"y": -2.6853398868,
				"z": 0.1536680604,
				"element": "H" 
			},
			{
				"x": 3.4612893001,
				"y": -0.5365062568,
				"z": -0.785009292,
				"element": "H" 
			},
			{
				"x": -0.6085226702,
				"y": -1.7431443505,
				"z": -0.0441058872,
				"element": "H" 
			},
			{
				"x": -0.813778908,
				"y": -3.8722714548,
				"z": 0.9602689516,
				"element": "H" 
			},
			{
				"x": 2.5940544732,
				"y": 0.9001443361,
				"z": -2.14541932,
				"element": "H" 
			},
			{
				"x": -0.5912417633,
				"y": 4.431828405,
				"z": -3.0485772321,
				"element": "H" 
			},
			{
				"x": -2.9922820329,
				"y": 4.7733277624,
				"z": -2.3933244875,
				"element": "H" 
			},
			{
				"x": -4.1238510922,
				"y": 3.0748205732,
				"z": -0.9708168472,
				"element": "H" 
			},
			{
				"x": -2.8785188605,
				"y": 1.0536837385,
				"z": -0.2044860445,
				"element": "H" 
			}
		],
		 "valence_orbital": [ 
			{
				"type": "occ",
				"energy": -0.26116,
				"method": "rhf"
			},
			{
				"type": "occ",
				"energy": -0.25322,
				"method": "rhf"
			},
			{
				"type": "occ",
				"energy": -0.23898,
				"method": "rhf"
			},
			{
				"type": "occ",
				"energy": -0.23479,
				"method": "rhf"
			},
			{
				"type": "occ",
				"energy": -0.21577,
				"method": "rhf"
			},
			{
				"type": "unocc",
				"energy": -0.062,
				"method": "rhf"
			},
			{
				"type": "unocc",
				"energy": -0.02763,
				"method": "rhf"
			},
			{
				"type": "unocc",
				"energy": -0.00917,
				"method": "rhf"
			},
			{
				"type": "unocc",
				"energy": -0.00221,
				"method": "rhf"
			},
			{
				"type": "unocc",
				"energy": 0.03506,
				"method": "rhf"
			}
		],
		"cosmo_sigma_profile": { 
			"-0.025": 0.0,
			"-0.024": 0.0,
			"-0.023": 0.0,
			"-0.022": 0.0,
			"-0.021": 0.0,
			"-0.02": 0.0,
			"-0.019": 0.3871611739,
			"-0.018": 1.04479730097,
			"-0.017": 1.21168507957,
			"-0.016": 1.08103356522,
			"-0.015": 1.42747194735,
			"-0.014": 1.29059827296,
			"-0.013": 1.85137894692,
			"-0.012": 1.09143423759,
			"-0.011": 2.12141492001,
			"-0.01": 1.81320404196,
			"-0.009": 2.05825174917,
			"-0.008": 3.39377762094,
			"-0.007": 9.14225298355,
			"-0.006": 13.5792888367,
			"-0.005": 14.4945103392,
			"-0.004": 13.7872994751,
			"-0.003": 13.1297257135,
			"-0.002": 14.4029292979,
			"-0.001": 18.1637304002,
			"0.0": 21.5407430869,
			"0.001": 26.1572683007,
			"0.002": 29.5886015532,
			"0.003": 27.4278086936,
			"0.004": 16.2037952954,
			"0.005": 4.82904959571,
			"0.006": 5.07218684341,
			"0.007": 4.30239707335,
			"0.008": 3.24665369975,
			"0.009": 2.17037490089,
			"0.01": 3.80970432565,
			"0.011": 2.6700449427,
			"0.012": 2.40333289784,
			"0.013": 4.20066514041,
			"0.014": 4.01058577565,
			"0.015": 0.966926917715,
			"0.016": 0.0255032595847,
			"0.017": 0.0,
			"0.018": 0.0,
			"0.019": 0.0,
			"0.02": 0.0,
			"0.021": 0.0,
			"0.022": 0.0,
			"0.023": 0.0,
			"0.024": 0.0,
			"0.025": 0.0
		}
	}
}
