{
	 "smiles": "NC1=CC(Cl)=C(C=C1)C(=O)NCC1=NC=CC=C1", 
	 "Tm": 433.15, 
	 "num_atms": 30, 
	 "gaussian": { 
		 "optdone": 1, 
		 "sigma_profile": "yes", 
		 "theory": "DFT", 
		 "functional": "B3LYP", 
		 "basiset": "6-31G**", 
		 "properties": { 
			 "R2extent": 7320.4244, 
			 "electric_dipole_moment_norm": 5.09562387348, 
			 "electric_quadrupole_moment_norm": 26.0171544222, 
			 "total_energy": -1202.3022889, 
			 "HOMO_LUMO_gap": 0.19521, 
			 "cosmo_polarized_energy": -20.63, 
			 "cosmo_cavitation_energy": 36.57, 
			 "cosmo_dispersion_energy": -26.07, 
			 "cosmo_repulsion_energy": 2.03, 
			 "cosmo_total_nonelectrostatic_energy": 12.52, 
			 "SMD_solvation_energy": 4.49 
		},
		"coords": [
			{
				"x": -3.3936415793,
				"y": -4.4530890703,
				"z": -3.7424959007,
				"element": "N" 
			},
			{
				"x": -2.7735603985,
				"y": -3.5771807219,
				"z": -2.8649173119,
				"element": "C" 
			},
			{
				"x": -2.0336441424,
				"y": -4.0653216136,
				"z": -1.7737370549,
				"element": "C" 
			},
			{
				"x": -1.4652567843,
				"y": -3.1899880294,
				"z": -0.8551556003,
				"element": "C" 
			},
			{
				"x": -0.528255503,
				"y": -3.9094720412,
				"z": 0.4439585204,
				"element": "Cl" 
			},
			{
				"x": -1.5871134486,
				"y": -1.7958483046,
				"z": -0.9877926116,
				"element": "C" 
			},
			{
				"x": -2.3227104088,
				"y": -1.3293307999,
				"z": -2.0910903985,
				"element": "C" 
			},
			{
				"x": -2.9098282448,
				"y": -2.1854813682,
				"z": -3.011817645,
				"element": "C" 
			},
			{
				"x": -1.0300787966,
				"y": -0.8185983522,
				"z": 0.0083056036,
				"element": "C" 
			},
			{
				"x": -1.1139958013,
				"y": -0.9725679766,
				"z": 1.2226883213,
				"element": "O" 
			},
			{
				"x": -0.4627409792,
				"y": 0.2992864899,
				"z": -0.5543892922,
				"element": "N" 
			},
			{
				"x": 0.1272967299,
				"y": 1.3516104193,
				"z": 0.269861193,
				"element": "C" 
			},
			{
				"x": 1.6024664731,
				"y": 1.1350999151,
				"z": 0.5612860997,
				"element": "C" 
			},
			{
				"x": 2.463324794,
				"y": 1.9041378579,
				"z": -0.1229680588,
				"element": "N" 
			},
			{
				"x": 3.7726819727,
				"y": 1.7280973939,
				"z": 0.1022959871,
				"element": "C" 
			},
			{
				"x": 4.2831558333,
				"y": 0.7934830497,
				"z": 1.0017390817,
				"element": "C" 
			},
			{
				"x": 3.3809390598,
				"y": -0.0056945925,
				"z": 1.7063239729,
				"element": "C" 
			},
			{
				"x": 2.0171629429,
				"y": 0.1650248826,
				"z": 1.4855406159,
				"element": "C" 
			},
			{
				"x": -3.0289768316,
				"y": -5.3939328306,
				"z": -3.7745534019,
				"element": "H" 
			},
			{
				"x": -3.6278341541,
				"y": -4.0857007093,
				"z": -4.6531369634,
				"element": "H" 
			},
			{
				"x": -1.9024055447,
				"y": -5.1340301933,
				"z": -1.6393830307,
				"element": "H" 
			},
			{
				"x": -2.456071229,
				"y": -0.2579960498,
				"z": -2.2075412927,
				"element": "H" 
			},
			{
				"x": -3.4870402393,
				"y": -1.7829010204,
				"z": -3.8395984852,
				"element": "H" 
			},
			{
				"x": -0.1969914845,
				"y": 0.2604285427,
				"z": -1.5277021408,
				"element": "H" 
			},
			{
				"x": 0.0168312045,
				"y": 2.3073921,
				"z": -0.2480958658,
				"element": "H" 
			},
			{
				"x": -0.4461719283,
				"y": 1.3747489293,
				"z": 1.1991837677,
				"element": "H" 
			},
			{
				"x": 4.444682514,
				"y": 2.3692190769,
				"z": -0.4662506526,
				"element": "H" 
			},
			{
				"x": 5.355015094,
				"y": 0.6971324372,
				"z": 1.144288264,
				"element": "H" 
			},
			{
				"x": 3.7346863666,
				"y": -0.7467399113,
				"z": 2.4176958268,
				"element": "H" 
			},
			{
				"x": 1.2725745136,
				"y": -0.4341875093,
				"z": 1.999458453,
				"element": "H" 
			}
		],
		 "valence_orbital": [ 
			{
				"type": "occ",
				"energy": -0.25267,
				"method": "rhf"
			},
			{
				"type": "occ",
				"energy": -0.24965,
				"method": "rhf"
			},
			{
				"type": "occ",
				"energy": -0.24522,
				"method": "rhf"
			},
			{
				"type": "occ",
				"energy": -0.24088,
				"method": "rhf"
			},
			{
				"type": "occ",
				"energy": -0.21771,
				"method": "rhf"
			},
			{
				"type": "unocc",
				"energy": -0.0225,
				"method": "rhf"
			},
			{
				"type": "unocc",
				"energy": -0.01801,
				"method": "rhf"
			},
			{
				"type": "unocc",
				"energy": -0.01523,
				"method": "rhf"
			},
			{
				"type": "unocc",
				"energy": -0.00912,
				"method": "rhf"
			},
			{
				"type": "unocc",
				"energy": 0.03604,
				"method": "rhf"
			}
		],
		"cosmo_sigma_profile": { 
			"-0.025": 0.0,
			"-0.024": 0.0,
			"-0.023": 0.0,
			"-0.022": 0.0,
			"-0.021": 0.0,
			"-0.02": 0.0,
			"-0.019": 0.0,
			"-0.018": 0.0,
			"-0.017": 0.0,
			"-0.016": 0.0,
			"-0.015": 0.0261363070203,
			"-0.014": 0.895664037222,
			"-0.013": 3.68309481187,
			"-0.012": 3.7635115217,
			"-0.011": 4.31414760969,
			"-0.01": 4.35687305522,
			"-0.009": 4.22061305904,
			"-0.008": 5.32015329995,
			"-0.007": 8.73158272389,
			"-0.006": 13.3457516402,
			"-0.005": 19.1155572019,
			"-0.004": 15.4883573115,
			"-0.003": 16.072450523,
			"-0.002": 15.008393907,
			"-0.001": 17.2706477532,
			"0.0": 17.3259919206,
			"0.001": 18.5149419128,
			"0.002": 26.1406443933,
			"0.003": 30.5649660712,
			"0.004": 22.8154496352,
			"0.005": 11.3917492721,
			"0.006": 5.06234433223,
			"0.007": 4.83994078176,
			"0.008": 3.24973269776,
			"0.009": 2.12216145082,
			"0.01": 3.95562442208,
			"0.011": 4.15809170266,
			"0.012": 3.15829389849,
			"0.013": 4.20021554802,
			"0.014": 3.35879417369,
			"0.015": 0.950266291581,
			"0.016": 0.714357768466,
			"0.017": 0.0,
			"0.018": 0.0,
			"0.019": 0.0,
			"0.02": 0.0,
			"0.021": 0.0,
			"0.022": 0.0,
			"0.023": 0.0,
			"0.024": 0.0,
			"0.025": 0.0
		}
	}
}
