{
	 "smiles": "CCOC(=O)C1=C(COCCN)NC(C)=C(C1C1=CC=CC=C1Cl)C(=O)OC", 
	 "Tm": 451.65, 
	 "num_atms": 53, 
	 "gaussian": { 
		 "optdone": 1, 
		 "sigma_profile": "yes", 
		 "theory": "DFT", 
		 "functional": "B3LYP", 
		 "basiset": "6-31G**", 
		 "properties": { 
			 "R2extent": 12655.712, 
			 "electric_dipole_moment_norm": 3.97981829485, 
			 "electric_quadrupole_moment_norm": 16.9498871722, 
			 "total_energy": -1723.01002043, 
			 "HOMO_LUMO_gap": 0.15483, 
			 "cosmo_polarized_energy": -23.57, 
			 "cosmo_cavitation_energy": 56.22, 
			 "cosmo_dispersion_energy": -36.28, 
			 "cosmo_repulsion_energy": 2.84, 
			 "cosmo_total_nonelectrostatic_energy": 22.78, 
			 "SMD_solvation_energy": 10.09 
		},
		"coords": [
			{
				"x": 4.3946741601,
				"y": -0.3443638707,
				"z": -2.8614198675,
				"element": "C" 
			},
			{
				"x": 4.0046734363,
				"y": -1.1571681155,
				"z": -1.6358775495,
				"element": "C" 
			},
			{
				"x": 2.9173971083,
				"y": -0.5326670105,
				"z": -0.9121294874,
				"element": "O" 
			},
			{
				"x": 1.6580873611,
				"y": -0.8089881062,
				"z": -1.365005507,
				"element": "C" 
			},
			{
				"x": 1.457169817,
				"y": -1.5302523945,
				"z": -2.3257585894,
				"element": "O" 
			},
			{
				"x": 0.5849968506,
				"y": -0.1454893867,
				"z": -0.6049379988,
				"element": "C" 
			},
			{
				"x": 0.7467778688,
				"y": 0.4368164738,
				"z": 0.6138074066,
				"element": "C" 
			},
			{
				"x": 2.040651284,
				"y": 0.6173729565,
				"z": 1.4076649629,
				"element": "C" 
			},
			{
				"x": 1.7874848455,
				"y": 0.9002112367,
				"z": 2.7792371133,
				"element": "O" 
			},
			{
				"x": 1.6534224177,
				"y": -0.2627197473,
				"z": 3.6027270518,
				"element": "C" 
			},
			{
				"x": 1.4974027484,
				"y": 0.2061471001,
				"z": 5.0487927366,
				"element": "C" 
			},
			{
				"x": 2.6014788211,
				"y": 1.0010445013,
				"z": 5.5783850269,
				"element": "N" 
			},
			{
				"x": -0.3437780477,
				"y": 0.9693138233,
				"z": 1.2699625909,
				"element": "N" 
			},
			{
				"x": -1.6552990738,
				"y": 0.731281415,
				"z": 0.8974751999,
				"element": "C" 
			},
			{
				"x": -2.6741719765,
				"y": 1.1473417297,
				"z": 1.927091253,
				"element": "C" 
			},
			{
				"x": -1.9047157929,
				"y": 0.1389169153,
				"z": -0.3045591124,
				"element": "C" 
			},
			{
				"x": -0.7787048362,
				"y": -0.1351320343,
				"z": -1.3044852324,
				"element": "C" 
			},
			{
				"x": -0.7885886061,
				"y": 0.8905810031,
				"z": -2.4519515342,
				"element": "C" 
			},
			{
				"x": -0.6124318889,
				"y": 2.250215156,
				"z": -2.1455210231,
				"element": "C" 
			},
			{
				"x": -0.6009107517,
				"y": 3.2401829878,
				"z": -3.1236156902,
				"element": "C" 
			},
			{
				"x": -0.7693020054,
				"y": 2.8866437661,
				"z": -4.4630922819,
				"element": "C" 
			},
			{
				"x": -0.9480729411,
				"y": 1.5488329466,
				"z": -4.8034228783,
				"element": "C" 
			},
			{
				"x": -0.9573674621,
				"y": 0.5667399974,
				"z": -3.8077360722,
				"element": "C" 
			},
			{
				"x": -1.1952085432,
				"y": -1.092101745,
				"z": -4.3488993288,
				"element": "Cl" 
			},
			{
				"x": -3.2894253035,
				"y": -0.2111529277,
				"z": -0.6615732012,
				"element": "C" 
			},
			{
				"x": -4.2899513082,
				"y": -0.010381236,
				"z": 0.0130597295,
				"element": "O" 
			},
			{
				"x": -3.3492659859,
				"y": -0.8174189685,
				"z": -1.8723930731,
				"element": "O" 
			},
			{
				"x": -4.6578859667,
				"y": -1.2002892002,
				"z": -2.3096964641,
				"element": "C" 
			},
			{
				"x": 5.265952724,
				"y": -0.7978472165,
				"z": -3.3460953047,
				"element": "H" 
			},
			{
				"x": 3.5731489353,
				"y": -0.322358072,
				"z": -3.5808091469,
				"element": "H" 
			},
			{
				"x": 4.6517328582,
				"y": 0.6822140708,
				"z": -2.583385259,
				"element": "H" 
			},
			{
				"x": 3.7075308868,
				"y": -2.1703098393,
				"z": -1.9155777839,
				"element": "H" 
			},
			{
				"x": 4.8219568951,
				"y": -1.20465729,
				"z": -0.9111918912,
				"element": "H" 
			},
			{
				"x": 2.678582946,
				"y": -0.2608735594,
				"z": 1.2978491858,
				"element": "H" 
			},
			{
				"x": 2.592659043,
				"y": 1.4746535094,
				"z": 1.008126874,
				"element": "H" 
			},
			{
				"x": 2.5523717852,
				"y": -0.8901581807,
				"z": 3.4951131656,
				"element": "H" 
			},
			{
				"x": 0.7851830782,
				"y": -0.8635081878,
				"z": 3.2893281134,
				"element": "H" 
			},
			{
				"x": 1.3529660149,
				"y": -0.6751040897,
				"z": 5.6849403553,
				"element": "H" 
			},
			{
				"x": 0.5782725359,
				"y": 0.8008326155,
				"z": 5.1265785684,
				"element": "H" 
			},
			{
				"x": 2.7875934119,
				"y": 1.7690610466,
				"z": 4.9375968815,
				"element": "H" 
			},
			{
				"x": 3.4508871915,
				"y": 0.4407459499,
				"z": 5.6052872087,
				"element": "H" 
			},
			{
				"x": -0.1471698836,
				"y": 1.3425941363,
				"z": 2.1897690092,
				"element": "H" 
			},
			{
				"x": -3.1830410466,
				"y": 0.2759428179,
				"z": 2.3474700061,
				"element": "H" 
			},
			{
				"x": -2.1929421836,
				"y": 1.7026638787,
				"z": 2.7389695162,
				"element": "H" 
			},
			{
				"x": -3.4554742915,
				"y": 1.7636159878,
				"z": 1.481308405,
				"element": "H" 
			},
			{
				"x": -0.9285790136,
				"y": -1.1186123703,
				"z": -1.7505463338,
				"element": "H" 
			},
			{
				"x": -0.4838491833,
				"y": 2.530493757,
				"z": -1.1042071856,
				"element": "H" 
			},
			{
				"x": -0.4625655053,
				"y": 4.2800383308,
				"z": -2.8423916245,
				"element": "H" 
			},
			{
				"x": -0.7636087305,
				"y": 3.6442319669,
				"z": -5.2412327625,
				"element": "H" 
			},
			{
				"x": -1.0816329165,
				"y": 1.252989659,
				"z": -5.8382305462,
				"element": "H" 
			},
			{
				"x": -5.3134619167,
				"y": -0.3281441288,
				"z": -2.3785782544,
				"element": "H" 
			},
			{
				"x": -4.5157323197,
				"y": -1.651949392,
				"z": -3.2912493494,
				"element": "H" 
			},
			{
				"x": -5.1042175442,
				"y": -1.917772666,
				"z": -1.6156700271,
				"element": "H" 
			}
		],
		 "valence_orbital": [ 
			{
				"type": "occ",
				"energy": -0.25505,
				"method": "rhf"
			},
			{
				"type": "occ",
				"energy": -0.2444,
				"method": "rhf"
			},
			{
				"type": "occ",
				"energy": -0.2411,
				"method": "rhf"
			},
			{
				"type": "occ",
				"energy": -0.23065,
				"method": "rhf"
			},
			{
				"type": "occ",
				"energy": -0.20455,
				"method": "rhf"
			},
			{
				"type": "unocc",
				"energy": -0.04972,
				"method": "rhf"
			},
			{
				"type": "unocc",
				"energy": -0.00242,
				"method": "rhf"
			},
			{
				"type": "unocc",
				"energy": 0.00288,
				"method": "rhf"
			},
			{
				"type": "unocc",
				"energy": 0.00619,
				"method": "rhf"
			},
			{
				"type": "unocc",
				"energy": 0.04497,
				"method": "rhf"
			}
		],
		"cosmo_sigma_profile": { 
			"-0.025": 0.0,
			"-0.024": 0.0,
			"-0.023": 0.0,
			"-0.022": 0.0,
			"-0.021": 0.0,
			"-0.02": 0.0,
			"-0.019": 0.0,
			"-0.018": 0.0,
			"-0.017": 0.0,
			"-0.016": 0.0,
			"-0.015": 0.0,
			"-0.014": 0.0,
			"-0.013": 0.0,
			"-0.012": 0.470042774623,
			"-0.011": 1.18981053212,
			"-0.01": 1.27784963359,
			"-0.009": 2.37739133155,
			"-0.008": 4.08500549225,
			"-0.007": 5.9936489361,
			"-0.006": 15.6179091646,
			"-0.005": 30.7589115554,
			"-0.004": 47.2028140631,
			"-0.003": 48.7196452758,
			"-0.002": 42.0427499539,
			"-0.001": 37.9143012981,
			"0.0": 36.0388814248,
			"0.001": 28.1042802496,
			"0.002": 26.0790450588,
			"0.003": 23.6265163005,
			"0.004": 25.699478848,
			"0.005": 18.3046124221,
			"0.006": 9.32982239755,
			"0.007": 5.97614667653,
			"0.008": 4.32017092794,
			"0.009": 4.5172803393,
			"0.01": 4.0573067619,
			"0.011": 4.71177710338,
			"0.012": 5.94665260831,
			"0.013": 5.66518871071,
			"0.014": 0.934100390304,
			"0.015": 0.81778949962,
			"0.016": 0.479280189182,
			"0.017": 0.865661964523,
			"0.018": 0.764277577143,
			"0.019": 0.51086861001,
			"0.02": 0.372572381753,
			"0.021": 0.0,
			"0.022": 0.0,
			"0.023": 0.0,
			"0.024": 0.0,
			"0.025": 0.0
		}
	}
}
