{
	 "smiles": "CCOC(=O)CC1=NN=C(S)N1C", 
	 "Tm": 409.15, 
	 "num_atms": 24, 
	 "gaussian": { 
		 "optdone": 1, 
		 "sigma_profile": "yes", 
		 "theory": "DFT", 
		 "functional": "B3LYP", 
		 "basiset": "6-31G**", 
		 "properties": { 
			 "R2extent": 4026.1454, 
			 "electric_dipole_moment_norm": 4.24618815528, 
			 "electric_quadrupole_moment_norm": 15.5682994502, 
			 "total_energy": -986.253811383, 
			 "HOMO_LUMO_gap": 0.21919, 
			 "cosmo_polarized_energy": -17.36, 
			 "cosmo_cavitation_energy": 30.0, 
			 "cosmo_dispersion_energy": -22.21, 
			 "cosmo_repulsion_energy": 1.76, 
			 "cosmo_total_nonelectrostatic_energy": 9.55, 
			 "SMD_solvation_energy": 3.86 
		},
		"coords": [
			{
				"x": -0.7130082274,
				"y": -5.1185881243,
				"z": -0.7044769786,
				"element": "C" 
			},
			{
				"x": -0.9752246439,
				"y": -3.7393801439,
				"z": -1.276645673,
				"element": "C" 
			},
			{
				"x": 0.1051264349,
				"y": -2.8747770599,
				"z": -0.8378696426,
				"element": "O" 
			},
			{
				"x": 0.0378903968,
				"y": -1.5972387191,
				"z": -1.2374525822,
				"element": "C" 
			},
			{
				"x": -0.8519645999,
				"y": -1.147679984,
				"z": -1.9327696155,
				"element": "O" 
			},
			{
				"x": 1.2340029981,
				"y": -0.7946525224,
				"z": -0.7339632469,
				"element": "C" 
			},
			{
				"x": 0.8592072569,
				"y": 0.4811166613,
				"z": -0.045600894,
				"element": "C" 
			},
			{
				"x": 0.9601158862,
				"y": 0.6630582232,
				"z": 1.2501696375,
				"element": "N" 
			},
			{
				"x": 0.5674154824,
				"y": 1.9568499003,
				"z": 1.5299949554,
				"element": "N" 
			},
			{
				"x": 0.2419540295,
				"y": 2.507120874,
				"z": 0.3830130282,
				"element": "C" 
			},
			{
				"x": -0.3273876763,
				"y": 4.1652262473,
				"z": 0.1512224352,
				"element": "S" 
			},
			{
				"x": 0.397730675,
				"y": 1.6282194457,
				"z": -0.6574168524,
				"element": "N" 
			},
			{
				"x": 0.1579094868,
				"y": 1.8774617522,
				"z": -2.0745553448,
				"element": "C" 
			},
			{
				"x": 0.2404487069,
				"y": -5.5172171461,
				"z": -1.0624945855,
				"element": "H" 
			},
			{
				"x": -1.5095675331,
				"y": -5.8028722965,
				"z": -1.012405677,
				"element": "H" 
			},
			{
				"x": -0.6870248141,
				"y": -5.0897098531,
				"z": 0.3883212019,
				"element": "H" 
			},
			{
				"x": -1.9213442153,
				"y": -3.3172893896,
				"z": -0.9253440711,
				"element": "H" 
			},
			{
				"x": -0.9983716893,
				"y": -3.7406461798,
				"z": -2.3707954692,
				"element": "H" 
			},
			{
				"x": 1.8768431063,
				"y": -0.5963586068,
				"z": -1.6015496975,
				"element": "H" 
			},
			{
				"x": 1.8044105579,
				"y": -1.3913348705,
				"z": -0.0218318443,
				"element": "H" 
			},
			{
				"x": -0.39395365,
				"y": 4.3946913975,
				"z": 1.475994761,
				"element": "H" 
			},
			{
				"x": -0.6689581094,
				"y": 2.583788137,
				"z": -2.1783718609,
				"element": "H" 
			},
			{
				"x": 1.0473088237,
				"y": 2.2982319089,
				"z": -2.5550653592,
				"element": "H" 
			},
			{
				"x": -0.1323586826,
				"y": 0.9412803487,
				"z": -2.5502066245,
				"element": "H" 
			}
		],
		 "valence_orbital": [ 
			{
				"type": "occ",
				"energy": -0.30415,
				"method": "rhf"
			},
			{
				"type": "occ",
				"energy": -0.28868,
				"method": "rhf"
			},
			{
				"type": "occ",
				"energy": -0.2835,
				"method": "rhf"
			},
			{
				"type": "occ",
				"energy": -0.25213,
				"method": "rhf"
			},
			{
				"type": "occ",
				"energy": -0.22669,
				"method": "rhf"
			},
			{
				"type": "unocc",
				"energy": -0.0075,
				"method": "rhf"
			},
			{
				"type": "unocc",
				"energy": 0.00782,
				"method": "rhf"
			},
			{
				"type": "unocc",
				"energy": 0.02191,
				"method": "rhf"
			},
			{
				"type": "unocc",
				"energy": 0.04589,
				"method": "rhf"
			},
			{
				"type": "unocc",
				"energy": 0.06413,
				"method": "rhf"
			}
		],
		"cosmo_sigma_profile": { 
			"-0.025": 0.0,
			"-0.024": 0.0,
			"-0.023": 0.0,
			"-0.022": 0.0,
			"-0.021": 0.0,
			"-0.02": 0.0,
			"-0.019": 0.0,
			"-0.018": 0.0,
			"-0.017": 0.0,
			"-0.016": 0.0,
			"-0.015": 0.0,
			"-0.014": 0.0,
			"-0.013": 0.0424935813582,
			"-0.012": 1.18923941572,
			"-0.011": 1.54350684537,
			"-0.01": 1.37436170799,
			"-0.009": 2.50936273163,
			"-0.008": 5.16744359879,
			"-0.007": 8.10316608801,
			"-0.006": 13.3314990978,
			"-0.005": 19.3167082788,
			"-0.004": 27.4813726906,
			"-0.003": 20.943024107,
			"-0.002": 18.0433054358,
			"-0.001": 16.7543273084,
			"0.0": 15.7364388442,
			"0.001": 12.8313882625,
			"0.002": 8.52351867427,
			"0.003": 9.16677949012,
			"0.004": 7.60305963714,
			"0.005": 7.75856688671,
			"0.006": 7.02073599345,
			"0.007": 4.8058977527,
			"0.008": 3.7372773394,
			"0.009": 3.27631791785,
			"0.01": 4.33150976173,
			"0.011": 4.19160485264,
			"0.012": 3.67724317496,
			"0.013": 3.50351284755,
			"0.014": 2.54630107855,
			"0.015": 3.06987414993,
			"0.016": 1.90452380351,
			"0.017": 0.75406023366,
			"0.018": 0.0,
			"0.019": 0.0,
			"0.02": 0.0,
			"0.021": 0.0,
			"0.022": 0.0,
			"0.023": 0.0,
			"0.024": 0.0,
			"0.025": 0.0
		}
	}
}
