{
	 "smiles": "CN1N=CC2=C1N=CN=C2N", 
	 "Tm": 538.15, 
	 "num_atms": 18, 
	 "gaussian": { 
		 "optdone": 1, 
		 "sigma_profile": "yes", 
		 "theory": "DFT", 
		 "functional": "B3LYP", 
		 "basiset": "6-31G**", 
		 "properties": { 
			 "R2extent": 2014.757, 
			 "electric_dipole_moment_norm": 2.15806102092, 
			 "electric_quadrupole_moment_norm": 16.8272611197, 
			 "total_energy": -506.613070553, 
			 "HOMO_LUMO_gap": 0.19378, 
			 "cosmo_polarized_energy": -13.52, 
			 "cosmo_cavitation_energy": 22.28, 
			 "cosmo_dispersion_energy": -16.95, 
			 "cosmo_repulsion_energy": 1.35, 
			 "cosmo_total_nonelectrostatic_energy": 6.69, 
			 "SMD_solvation_energy": 0.46 
		},
		"coords": [
			{
				"x": -1.5472215704,
				"y": 0.8176070012,
				"z": 0.5061815111,
				"element": "C" 
			},
			{
				"x": -0.476841666,
				"y": -0.1585347613,
				"z": 0.4854472545,
				"element": "N" 
			},
			{
				"x": -0.416636175,
				"y": -1.1523348123,
				"z": 1.417918283,
				"element": "N" 
			},
			{
				"x": 0.6618312455,
				"y": -1.8661386238,
				"z": 1.1349727093,
				"element": "C" 
			},
			{
				"x": 1.3362345605,
				"y": -1.3442558972,
				"z": -0.0048138013,
				"element": "C" 
			},
			{
				"x": 0.5598453061,
				"y": -0.2322476673,
				"z": -0.3931578147,
				"element": "C" 
			},
			{
				"x": 0.8049949402,
				"y": 0.5900837721,
				"z": -1.4290944551,
				"element": "N" 
			},
			{
				"x": 1.9043929523,
				"y": 0.2392178664,
				"z": -2.0903819647,
				"element": "C" 
			},
			{
				"x": 2.7405989811,
				"y": -0.7899054213,
				"z": -1.8517434589,
				"element": "N" 
			},
			{
				"x": 2.4737261327,
				"y": -1.5928668596,
				"z": -0.8119595282,
				"element": "C" 
			},
			{
				"x": 3.3482104233,
				"y": -2.6080116634,
				"z": -0.567587898,
				"element": "N" 
			},
			{
				"x": -2.5147093304,
				"y": 0.3217696169,
				"z": 0.3901217012,
				"element": "H" 
			},
			{
				"x": -1.3817637601,
				"y": 1.5044187325,
				"z": -0.3246941244,
				"element": "H" 
			},
			{
				"x": -1.5387320368,
				"y": 1.3690510365,
				"z": 1.4501824743,
				"element": "H" 
			},
			{
				"x": 0.9130370055,
				"y": -2.7152822738,
				"z": 1.7572011935,
				"element": "H" 
			},
			{
				"x": 2.1688277951,
				"y": 0.8604011349,
				"z": -2.9442254721,
				"element": "H" 
			},
			{
				"x": 4.0349929371,
				"y": -2.788627312,
				"z": -1.284404692,
				"element": "H" 
			},
			{
				"x": 3.0805122594,
				"y": -3.3716438687,
				"z": 0.0312380826,
				"element": "H" 
			}
		],
		 "valence_orbital": [ 
			{
				"type": "occ",
				"energy": -0.2847,
				"method": "rhf"
			},
			{
				"type": "occ",
				"energy": -0.27745,
				"method": "rhf"
			},
			{
				"type": "occ",
				"energy": -0.25659,
				"method": "rhf"
			},
			{
				"type": "occ",
				"energy": -0.25534,
				"method": "rhf"
			},
			{
				"type": "occ",
				"energy": -0.22323,
				"method": "rhf"
			},
			{
				"type": "unocc",
				"energy": -0.02945,
				"method": "rhf"
			},
			{
				"type": "unocc",
				"energy": 0.00878,
				"method": "rhf"
			},
			{
				"type": "unocc",
				"energy": 0.04626,
				"method": "rhf"
			},
			{
				"type": "unocc",
				"energy": 0.06814,
				"method": "rhf"
			},
			{
				"type": "unocc",
				"energy": 0.11785,
				"method": "rhf"
			}
		],
		"cosmo_sigma_profile": { 
			"-0.025": 0.0,
			"-0.024": 0.0,
			"-0.023": 0.0,
			"-0.022": 0.0,
			"-0.021": 0.0,
			"-0.02": 0.0,
			"-0.019": 0.0,
			"-0.018": 0.0,
			"-0.017": 0.0,
			"-0.016": 0.0,
			"-0.015": 0.339231126701,
			"-0.014": 2.15291345813,
			"-0.013": 2.47344311989,
			"-0.012": 2.47881699636,
			"-0.011": 3.04671866012,
			"-0.01": 2.72836833026,
			"-0.009": 2.77025430162,
			"-0.008": 3.47663881124,
			"-0.007": 3.97035673071,
			"-0.006": 9.32948066928,
			"-0.005": 9.31098670442,
			"-0.004": 9.45897919185,
			"-0.003": 13.7134631483,
			"-0.002": 8.60650549961,
			"-0.001": 9.16443818818,
			"0.0": 15.0668882777,
			"0.001": 13.530238329,
			"0.002": 11.2371876409,
			"0.003": 9.43239484287,
			"0.004": 7.09288848621,
			"0.005": 5.967713407,
			"0.006": 4.96630544223,
			"0.007": 4.38841024303,
			"0.008": 4.37177259879,
			"0.009": 3.52217500238,
			"0.01": 3.10978577752,
			"0.011": 2.56507510698,
			"0.012": 3.24496257051,
			"0.013": 2.94032306617,
			"0.014": 2.41834658474,
			"0.015": 1.41182167263,
			"0.016": 0.151099280653,
			"0.017": 0.0,
			"0.018": 0.0,
			"0.019": 0.0,
			"0.02": 0.0,
			"0.021": 0.0,
			"0.022": 0.0,
			"0.023": 0.0,
			"0.024": 0.0,
			"0.025": 0.0
		}
	}
}
