{
	 "smiles": "COC(=O)C=C(/C)OP(=O)(OC)OC", 
	 "Tm": 294.15, 
	 "num_atms": 27, 
	 "gaussian": { 
		 "optdone": 1, 
		 "sigma_profile": "yes", 
		 "theory": "DFT", 
		 "functional": "B3LYP", 
		 "basiset": "6-31G**", 
		 "properties": { 
			 "R2extent": 4487.8325, 
			 "electric_dipole_moment_norm": 3.47345128367, 
			 "electric_quadrupole_moment_norm": 18.9719324675, 
			 "total_energy": -1067.33192114, 
			 "HOMO_LUMO_gap": 0.21966, 
			 "cosmo_polarized_energy": -14.82, 
			 "cosmo_cavitation_energy": 33.47, 
			 "cosmo_dispersion_energy": -23.35, 
			 "cosmo_repulsion_energy": 1.88, 
			 "cosmo_total_nonelectrostatic_energy": 12.0, 
			 "SMD_solvation_energy": 11.11 
		},
		"coords": [
			{
				"x": 2.1335297675,
				"y": -5.035958731,
				"z": -0.4456370219,
				"element": "C" 
			},
			{
				"x": 1.8594390072,
				"y": -3.629804169,
				"z": -0.5387268498,
				"element": "O" 
			},
			{
				"x": 0.6286634868,
				"y": -3.319499192,
				"z": -1.0266329305,
				"element": "C" 
			},
			{
				"x": -0.1744875494,
				"y": -4.1752204927,
				"z": -1.3479391271,
				"element": "O" 
			},
			{
				"x": 0.3279706914,
				"y": -1.8806849743,
				"z": -1.1297744018,
				"element": "C" 
			},
			{
				"x": 1.1195204498,
				"y": -0.8246257158,
				"z": -0.8633776915,
				"element": "C" 
			},
			{
				"x": 2.5487040879,
				"y": -0.7699124169,
				"z": -0.4291204325,
				"element": "C" 
			},
			{
				"x": 0.6521876573,
				"y": 0.4798292953,
				"z": -1.0171809315,
				"element": "O" 
			},
			{
				"x": -0.8883195179,
				"y": 0.9816833228,
				"z": -0.8722772617,
				"element": "P" 
			},
			{
				"x": -1.9030842098,
				"y": 0.3171828167,
				"z": -1.7198837558,
				"element": "O" 
			},
			{
				"x": -0.6955001908,
				"y": 2.5548107472,
				"z": -1.1087182651,
				"element": "O" 
			},
			{
				"x": -0.6830724838,
				"y": 3.0624086688,
				"z": -2.4586948514,
				"element": "C" 
			},
			{
				"x": -1.0847643593,
				"y": 0.8856183094,
				"z": 0.7125896831,
				"element": "O" 
			},
			{
				"x": -2.420338558,
				"y": 0.9432420696,
				"z": 1.2575104553,
				"element": "C" 
			},
			{
				"x": 1.4154075625,
				"y": -5.5264877127,
				"z": 0.2160847384,
				"element": "H" 
			},
			{
				"x": 2.0797528445,
				"y": -5.5072620568,
				"z": -1.430233066,
				"element": "H" 
			},
			{
				"x": 3.1424377143,
				"y": -5.1120507167,
				"z": -0.0393823909,
				"element": "H" 
			},
			{
				"x": -0.6807094172,
				"y": -1.6986612177,
				"z": -1.4830379088,
				"element": "H" 
			},
			{
				"x": 2.9975719337,
				"y": -1.7582717986,
				"z": -0.403682629,
				"element": "H" 
			},
			{
				"x": 3.1053111399,
				"y": -0.1217578307,
				"z": -1.1149400444,
				"element": "H" 
			},
			{
				"x": 2.6102383983,
				"y": -0.3113482635,
				"z": 0.5645045999,
				"element": "H" 
			},
			{
				"x": -1.5039443143,
				"y": 2.6334928054,
				"z": -3.0385110289,
				"element": "H" 
			},
			{
				"x": 0.2733204551,
				"y": 2.8311830655,
				"z": -2.9370733084,
				"element": "H" 
			},
			{
				"x": -0.8020035734,
				"y": 4.1435892303,
				"z": -2.3811701676,
				"element": "H" 
			},
			{
				"x": -3.0988111372,
				"y": 0.3131456214,
				"z": 0.6778948688,
				"element": "H" 
			},
			{
				"x": -2.7784331057,
				"y": 1.9767954286,
				"z": 1.2602668747,
				"element": "H" 
			},
			{
				"x": -2.3478867796,
				"y": 0.5762639075,
				"z": 2.2816428444,
				"element": "H" 
			}
		],
		 "valence_orbital": [ 
			{
				"type": "occ",
				"energy": -0.30049,
				"method": "rhf"
			},
			{
				"type": "occ",
				"energy": -0.29559,
				"method": "rhf"
			},
			{
				"type": "occ",
				"energy": -0.29441,
				"method": "rhf"
			},
			{
				"type": "occ",
				"energy": -0.26538,
				"method": "rhf"
			},
			{
				"type": "occ",
				"energy": -0.25384,
				"method": "rhf"
			},
			{
				"type": "unocc",
				"energy": -0.03418,
				"method": "rhf"
			},
			{
				"type": "unocc",
				"energy": 0.0522,
				"method": "rhf"
			},
			{
				"type": "unocc",
				"energy": 0.08337,
				"method": "rhf"
			},
			{
				"type": "unocc",
				"energy": 0.08934,
				"method": "rhf"
			},
			{
				"type": "unocc",
				"energy": 0.09778,
				"method": "rhf"
			}
		],
		"cosmo_sigma_profile": { 
			"-0.025": 0.0,
			"-0.024": 0.0,
			"-0.023": 0.0,
			"-0.022": 0.0,
			"-0.021": 0.0,
			"-0.02": 0.0,
			"-0.019": 0.0,
			"-0.018": 0.0,
			"-0.017": 0.0,
			"-0.016": 0.0,
			"-0.015": 0.0,
			"-0.014": 0.0,
			"-0.013": 0.0,
			"-0.012": 0.0,
			"-0.011": 0.0,
			"-0.01": 0.0,
			"-0.009": 0.0,
			"-0.008": 0.0994719435618,
			"-0.007": 4.95058690472,
			"-0.006": 19.2671006268,
			"-0.005": 26.7081626465,
			"-0.004": 30.2621105458,
			"-0.003": 24.4699820907,
			"-0.002": 21.4298717883,
			"-0.001": 20.8963852842,
			"0.0": 18.5463468729,
			"0.001": 15.3340367922,
			"0.002": 12.7841754602,
			"0.003": 9.91777612129,
			"0.004": 7.98330496309,
			"0.005": 7.42144150018,
			"0.006": 6.86045895621,
			"0.007": 6.08575191785,
			"0.008": 3.87746073161,
			"0.009": 4.70088729464,
			"0.01": 3.33647761204,
			"0.011": 3.30938057569,
			"0.012": 6.85786128837,
			"0.013": 6.66298589485,
			"0.014": 0.719870346233,
			"0.015": 0.0,
			"0.016": 0.0,
			"0.017": 0.0,
			"0.018": 0.0,
			"0.019": 0.0,
			"0.02": 0.0,
			"0.021": 0.0,
			"0.022": 0.0,
			"0.023": 0.0,
			"0.024": 0.0,
			"0.025": 0.0
		}
	}
}
