{
	 "smiles": "CC1(C)N(C(=O)CCl)C2=C(NC1=O)C=CC=C2", 
	 "Tm": 444.15, 
	 "num_atms": 30, 
	 "gaussian": { 
		 "optdone": 1, 
		 "sigma_profile": "yes", 
		 "theory": "DFT", 
		 "functional": "B3LYP", 
		 "basiset": "6-31G**", 
		 "properties": { 
			 "R2extent": 4631.8057, 
			 "electric_dipole_moment_norm": 4.2151804908, 
			 "electric_quadrupole_moment_norm": 13.5527164495, 
			 "total_energy": -1185.28171932, 
			 "HOMO_LUMO_gap": 0.17996, 
			 "cosmo_polarized_energy": -15.55, 
			 "cosmo_cavitation_energy": 33.71, 
			 "cosmo_dispersion_energy": -23.79, 
			 "cosmo_repulsion_energy": 1.82, 
			 "cosmo_total_nonelectrostatic_energy": 11.74, 
			 "SMD_solvation_energy": 6.16 
		},
		"coords": [
			{
				"x": 1.3475213914,
				"y": 1.4427001601,
				"z": -1.2797491006,
				"element": "C" 
			},
			{
				"x": 1.5055079578,
				"y": -0.0899747232,
				"z": -1.2025833809,
				"element": "C" 
			},
			{
				"x": 2.9216955306,
				"y": -0.5164840171,
				"z": -1.6254372159,
				"element": "C" 
			},
			{
				"x": 1.149588531,
				"y": -0.5891271617,
				"z": 0.1688882591,
				"element": "N" 
			},
			{
				"x": 2.1339631412,
				"y": -0.6872128148,
				"z": 1.1576240394,
				"element": "C" 
			},
			{
				"x": 3.1843119141,
				"y": -0.0739057382,
				"z": 1.129599096,
				"element": "O" 
			},
			{
				"x": 1.8992730559,
				"y": -1.7698429862,
				"z": 2.2193234145,
				"element": "C" 
			},
			{
				"x": 2.1288468418,
				"y": -1.1470413314,
				"z": 3.8991775341,
				"element": "Cl" 
			},
			{
				"x": -0.22646262,
				"y": -0.5930105831,
				"z": 0.5218034686,
				"element": "C" 
			},
			{
				"x": -1.1551226504,
				"y": -0.9429755781,
				"z": -0.4739129561,
				"element": "C" 
			},
			{
				"x": -0.6666545029,
				"y": -1.1953779321,
				"z": -1.7588286368,
				"element": "N" 
			},
			{
				"x": 0.5391515275,
				"y": -0.7373298724,
				"z": -2.2335891246,
				"element": "C" 
			},
			{
				"x": 0.8168386855,
				"y": -0.8140172814,
				"z": -3.4191235923,
				"element": "O" 
			},
			{
				"x": -2.5185612252,
				"y": -1.0091613469,
				"z": -0.1810306823,
				"element": "C" 
			},
			{
				"x": -2.9710957957,
				"y": -0.7141503771,
				"z": 1.10422188,
				"element": "C" 
			},
			{
				"x": -2.0632932551,
				"y": -0.3142067987,
				"z": 2.0851276841,
				"element": "C" 
			},
			{
				"x": -0.702270327,
				"y": -0.2292756781,
				"z": 1.7879979373,
				"element": "C" 
			},
			{
				"x": 2.0595733811,
				"y": 1.9097653292,
				"z": -0.5950966768,
				"element": "H" 
			},
			{
				"x": 0.336396084,
				"y": 1.7556577257,
				"z": -1.0017597967,
				"element": "H" 
			},
			{
				"x": 1.5499665977,
				"y": 1.786750493,
				"z": -2.2973430566,
				"element": "H" 
			},
			{
				"x": 3.0066568019,
				"y": -0.3507378559,
				"z": -2.699581,
				"element": "H" 
			},
			{
				"x": 3.0797459842,
				"y": -1.5828289758,
				"z": -1.4359873008,
				"element": "H" 
			},
			{
				"x": 3.6820357135,
				"y": 0.0505594609,
				"z": -1.0947415935,
				"element": "H" 
			},
			{
				"x": 0.9184619235,
				"y": -2.2352018799,
				"z": 2.1695870929,
				"element": "H" 
			},
			{
				"x": 2.6747303555,
				"y": -2.5228478867,
				"z": 2.0635708462,
				"element": "H" 
			},
			{
				"x": -1.3017348285,
				"y": -1.5244984605,
				"z": -2.4755570225,
				"element": "H" 
			},
			{
				"x": -3.2183720942,
				"y": -1.2863726455,
				"z": -0.96485758,
				"element": "H" 
			},
			{
				"x": -4.0313435284,
				"y": -0.7747859888,
				"z": 1.3280168249,
				"element": "H" 
			},
			{
				"x": -2.4092767635,
				"y": -0.0477046388,
				"z": 3.0784480954,
				"element": "H" 
			},
			{
				"x": -0.0080778273,
				"y": 0.1179393835,
				"z": 2.545692544,
				"element": "H" 
			}
		],
		 "valence_orbital": [ 
			{
				"type": "occ",
				"energy": -0.30044,
				"method": "rhf"
			},
			{
				"type": "occ",
				"energy": -0.27609,
				"method": "rhf"
			},
			{
				"type": "occ",
				"energy": -0.26642,
				"method": "rhf"
			},
			{
				"type": "occ",
				"energy": -0.25008,
				"method": "rhf"
			},
			{
				"type": "occ",
				"energy": -0.22558,
				"method": "rhf"
			},
			{
				"type": "unocc",
				"energy": -0.04562,
				"method": "rhf"
			},
			{
				"type": "unocc",
				"energy": -0.0241,
				"method": "rhf"
			},
			{
				"type": "unocc",
				"energy": -0.00665,
				"method": "rhf"
			},
			{
				"type": "unocc",
				"energy": 0.02111,
				"method": "rhf"
			},
			{
				"type": "unocc",
				"energy": 0.03533,
				"method": "rhf"
			}
		],
		"cosmo_sigma_profile": { 
			"-0.025": 0.0,
			"-0.024": 0.0,
			"-0.023": 0.0,
			"-0.022": 0.0,
			"-0.021": 0.0,
			"-0.02": 0.0,
			"-0.019": 0.0,
			"-0.018": 0.0,
			"-0.017": 0.0,
			"-0.016": 0.163242948367,
			"-0.015": 1.17692206624,
			"-0.014": 1.49360724494,
			"-0.013": 0.935568959857,
			"-0.012": 1.06798651389,
			"-0.011": 1.39648230028,
			"-0.01": 1.3424108395,
			"-0.009": 3.84466664104,
			"-0.008": 4.24651503366,
			"-0.007": 6.11585044254,
			"-0.006": 10.5713191599,
			"-0.005": 16.9853223905,
			"-0.004": 20.6021502303,
			"-0.003": 18.6391323438,
			"-0.002": 23.0326258352,
			"-0.001": 23.9364970072,
			"0.0": 22.9473103114,
			"0.001": 17.6762197907,
			"0.002": 13.2660887232,
			"0.003": 14.3841324726,
			"0.004": 16.4021994294,
			"0.005": 12.9026531843,
			"0.006": 6.36496572153,
			"0.007": 3.65288545736,
			"0.008": 4.05327204723,
			"0.009": 3.54317063092,
			"0.01": 3.21267533783,
			"0.011": 4.73803510601,
			"0.012": 7.28192593835,
			"0.013": 3.32621620984,
			"0.014": 0.019413842054,
			"0.015": 0.0,
			"0.016": 0.0,
			"0.017": 0.0,
			"0.018": 0.0,
			"0.019": 0.0,
			"0.02": 0.0,
			"0.021": 0.0,
			"0.022": 0.0,
			"0.023": 0.0,
			"0.024": 0.0,
			"0.025": 0.0
		}
	}
}
