{
	 "smiles": "CC(CC(C1=CC(=C(O)C=C1C)C(C)(C)C)C1=C(C)C=C(O)C(=C1)C(C)(C)C)C1=CC(=C(O)C=C1C)C(C)(C)C", 
	 "Tm": 459.15, 
	 "num_atms": 92, 
	 "gaussian": { 
		 "optdone": 1, 
		 "sigma_profile": "yes", 
		 "theory": "DFT", 
		 "functional": "B3LYP", 
		 "basiset": "6-31G**", 
		 "properties": { 
			 "R2extent": 22421.1308, 
			 "electric_dipole_moment_norm": 2.93910637269, 
			 "electric_quadrupole_moment_norm": 24.4446606184, 
			 "total_energy": -1666.99612392, 
			 "HOMO_LUMO_gap": 0.2013, 
			 "cosmo_polarized_energy": -19.01, 
			 "cosmo_cavitation_energy": 82.43, 
			 "cosmo_dispersion_energy": -47.67, 
			 "cosmo_repulsion_energy": 3.52, 
			 "cosmo_total_nonelectrostatic_energy": 38.27, 
			 "SMD_solvation_energy": 14.51 
		},
		"coords": [
			{
				"x": -0.3733685399,
				"y": 2.1482145833,
				"z": 2.1565048814,
				"element": "C" 
			},
			{
				"x": 0.3813271565,
				"y": 1.040841151,
				"z": 1.3857518094,
				"element": "C" 
			},
			{
				"x": 1.4076577103,
				"y": 1.6330563676,
				"z": 0.3759023823,
				"element": "C" 
			},
			{
				"x": 0.9312144331,
				"y": 1.8858238089,
				"z": -1.0949114505,
				"element": "C" 
			},
			{
				"x": -0.4682211107,
				"y": 2.5100519862,
				"z": -1.180224822,
				"element": "C" 
			},
			{
				"x": -1.5956066345,
				"y": 1.6934085964,
				"z": -1.3506072455,
				"element": "C" 
			},
			{
				"x": -2.9161589402,
				"y": 2.1583843712,
				"z": -1.4026311284,
				"element": "C" 
			},
			{
				"x": -3.0763444229,
				"y": 3.5542033744,
				"z": -1.2817312858,
				"element": "C" 
			},
			{
				"x": -4.340854205,
				"y": 4.0923110619,
				"z": -1.3261037035,
				"element": "O" 
			},
			{
				"x": -1.9696343629,
				"y": 4.3913510094,
				"z": -1.127606545,
				"element": "C" 
			},
			{
				"x": -0.6615402988,
				"y": 3.9014352616,
				"z": -1.0744714446,
				"element": "C" 
			},
			{
				"x": 0.4829293373,
				"y": 4.877020003,
				"z": -0.9138323019,
				"element": "C" 
			},
			{
				"x": -4.1147539066,
				"y": 1.2061889171,
				"z": -1.5888317952,
				"element": "C" 
			},
			{
				"x": -4.8734768055,
				"y": 1.5598220208,
				"z": -2.8920890383,
				"element": "C" 
			},
			{
				"x": -5.0721289529,
				"y": 1.3181114359,
				"z": -0.3764778197,
				"element": "C" 
			},
			{
				"x": -3.6693745646,
				"y": -0.2660908515,
				"z": -1.6958558718,
				"element": "C" 
			},
			{
				"x": 1.1025872386,
				"y": 0.6937939956,
				"z": -2.0440721664,
				"element": "C" 
			},
			{
				"x": 1.1623639167,
				"y": 0.920187011,
				"z": -3.4394594517,
				"element": "C" 
			},
			{
				"x": 1.0731425881,
				"y": 2.3026436552,
				"z": -4.0434471369,
				"element": "C" 
			},
			{
				"x": 1.3266127944,
				"y": -0.1726991517,
				"z": -4.2853180272,
				"element": "C" 
			},
			{
				"x": 1.4470334506,
				"y": -1.4785590283,
				"z": -3.8046734566,
				"element": "C" 
			},
			{
				"x": 1.6029072646,
				"y": -2.4309201526,
				"z": -4.7827237612,
				"element": "O" 
			},
			{
				"x": 1.4174536844,
				"y": -1.7400471479,
				"z": -2.4202549274,
				"element": "C" 
			},
			{
				"x": 1.2347455757,
				"y": -0.6216470706,
				"z": -1.5852718899,
				"element": "C" 
			},
			{
				"x": 1.5896473016,
				"y": -3.1649488303,
				"z": -1.847586966,
				"element": "C" 
			},
			{
				"x": 1.5602678925,
				"y": -3.1809357119,
				"z": -0.3071369132,
				"element": "C" 
			},
			{
				"x": 0.431832085,
				"y": -4.0844185126,
				"z": -2.3201421427,
				"element": "C" 
			},
			{
				"x": 2.9655215332,
				"y": -3.7523189334,
				"z": -2.2633076392,
				"element": "C" 
			},
			{
				"x": 0.9454797254,
				"y": 0.0134908183,
				"z": 2.3735014346,
				"element": "C" 
			},
			{
				"x": 0.1761310303,
				"y": -1.1407321045,
				"z": 2.6015374354,
				"element": "C" 
			},
			{
				"x": 0.479519579,
				"y": -2.1480231661,
				"z": 3.5260137766,
				"element": "C" 
			},
			{
				"x": 1.6707692988,
				"y": -1.957268609,
				"z": 4.2546841038,
				"element": "C" 
			},
			{
				"x": 2.0540194855,
				"y": -2.9011215827,
				"z": 5.1790050854,
				"element": "O" 
			},
			{
				"x": 2.4528377802,
				"y": -0.8199308749,
				"z": 4.0556856945,
				"element": "C" 
			},
			{
				"x": 2.1169581397,
				"y": 0.1829601879,
				"z": 3.1395244681,
				"element": "C" 
			},
			{
				"x": 3.0355489892,
				"y": 1.3837529052,
				"z": 3.0428216177,
				"element": "C" 
			},
			{
				"x": -0.4366400797,
				"y": -3.3678686036,
				"z": 3.7519545513,
				"element": "C" 
			},
			{
				"x": 0.3310236506,
				"y": -4.6791610318,
				"z": 3.4530651918,
				"element": "C" 
			},
			{
				"x": -0.9374884084,
				"y": -3.3788596528,
				"z": 5.2180487989,
				"element": "C" 
			},
			{
				"x": -1.6784494428,
				"y": -3.3358022542,
				"z": 2.8386670464,
				"element": "C" 
			},
			{
				"x": -0.8622256648,
				"y": 2.8445506877,
				"z": 1.4707830467,
				"element": "H" 
			},
			{
				"x": 0.3073986292,
				"y": 2.7219763382,
				"z": 2.7952280753,
				"element": "H" 
			},
			{
				"x": -1.1397636913,
				"y": 1.7106973237,
				"z": 2.8038784536,
				"element": "H" 
			},
			{
				"x": -0.3764685903,
				"y": 0.5061085449,
				"z": 0.8025558524,
				"element": "H" 
			},
			{
				"x": 1.7629820948,
				"y": 2.5917761347,
				"z": 0.7687156636,
				"element": "H" 
			},
			{
				"x": 2.2922970145,
				"y": 0.9919129675,
				"z": 0.3168399046,
				"element": "H" 
			},
			{
				"x": 1.627869013,
				"y": 2.6452746989,
				"z": -1.469434816,
				"element": "H" 
			},
			{
				"x": -1.4178137581,
				"y": 0.6316461584,
				"z": -1.4637782184,
				"element": "H" 
			},
			{
				"x": -4.2708938541,
				"y": 5.0512360885,
				"z": -1.2343945376,
				"element": "H" 
			},
			{
				"x": -2.1353552079,
				"y": 5.4658432483,
				"z": -1.0503962706,
				"element": "H" 
			},
			{
				"x": 1.066471305,
				"y": 4.6826280744,
				"z": -0.0072675329,
				"element": "H" 
			},
			{
				"x": 0.1133822366,
				"y": 5.9042913461,
				"z": -0.8518189814,
				"element": "H" 
			},
			{
				"x": 1.1796522096,
				"y": 4.8294028929,
				"z": -1.7592325079,
				"element": "H" 
			},
			{
				"x": -4.2168584728,
				"y": 1.4515725032,
				"z": -3.7622020035,
				"element": "H" 
			},
			{
				"x": -5.7239276992,
				"y": 0.8812224924,
				"z": -3.0264415992,
				"element": "H" 
			},
			{
				"x": -5.2523444285,
				"y": 2.5826891539,
				"z": -2.8727527606,
				"element": "H" 
			},
			{
				"x": -4.556688198,
				"y": 1.0405820741,
				"z": 0.5495518402,
				"element": "H" 
			},
			{
				"x": -5.4608668802,
				"y": 2.3309463539,
				"z": -0.2618509149,
				"element": "H" 
			},
			{
				"x": -5.9212552032,
				"y": 0.6368276162,
				"z": -0.5055015558,
				"element": "H" 
			},
			{
				"x": -3.0109921174,
				"y": -0.4370169548,
				"z": -2.5537268701,
				"element": "H" 
			},
			{
				"x": -3.1515613173,
				"y": -0.6060963437,
				"z": -0.7926573528,
				"element": "H" 
			},
			{
				"x": -4.5523361698,
				"y": -0.9002473597,
				"z": -1.8263471296,
				"element": "H" 
			},
			{
				"x": 1.8884726795,
				"y": 2.9489267859,
				"z": -3.6938090737,
				"element": "H" 
			},
			{
				"x": 0.1354214147,
				"y": 2.8023929884,
				"z": -3.78086759,
				"element": "H" 
			},
			{
				"x": 1.1393171783,
				"y": 2.2538280318,
				"z": -5.1334051637,
				"element": "H" 
			},
			{
				"x": 1.3740919022,
				"y": -0.0327123899,
				"z": -5.3613395426,
				"element": "H" 
			},
			{
				"x": 1.6463156551,
				"y": -3.3054123304,
				"z": -4.3839324462,
				"element": "H" 
			},
			{
				"x": 1.2058289535,
				"y": -0.7893148696,
				"z": -0.5168059284,
				"element": "H" 
			},
			{
				"x": 0.6089801527,
				"y": -2.8175458747,
				"z": 0.0904043816,
				"element": "H" 
			},
			{
				"x": 2.3600791618,
				"y": -2.573897407,
				"z": 0.1266565845,
				"element": "H" 
			},
			{
				"x": 1.6959613639,
				"y": -4.2080877046,
				"z": 0.0474301241,
				"element": "H" 
			},
			{
				"x": 0.3377937922,
				"y": -4.164103955,
				"z": -3.4082213877,
				"element": "H" 
			},
			{
				"x": 0.5666722744,
				"y": -5.0991559635,
				"z": -1.9295784043,
				"element": "H" 
			},
			{
				"x": -0.5261856541,
				"y": -3.7032723814,
				"z": -1.9532245519,
				"element": "H" 
			},
			{
				"x": 3.1266803421,
				"y": -3.7916558296,
				"z": -3.344743497,
				"element": "H" 
			},
			{
				"x": 3.0757868615,
				"y": -4.771471794,
				"z": -1.8764709153,
				"element": "H" 
			},
			{
				"x": 3.7746620266,
				"y": -3.142869435,
				"z": -1.8491560657,
				"element": "H" 
			},
			{
				"x": -0.7333394501,
				"y": -1.2399560163,
				"z": 2.0192785293,
				"element": "H" 
			},
			{
				"x": 2.8778923248,
				"y": -2.6107096508,
				"z": 5.5910209267,
				"element": "H" 
			},
			{
				"x": 3.3582010352,
				"y": -0.7032010046,
				"z": 4.6515011086,
				"element": "H" 
			},
			{
				"x": 3.7122460013,
				"y": 1.4165081212,
				"z": 3.9015730247,
				"element": "H" 
			},
			{
				"x": 3.655831701,
				"y": 1.3568515389,
				"z": 2.1403789887,
				"element": "H" 
			},
			{
				"x": 2.4839475639,
				"y": 2.3272861865,
				"z": 3.0227358814,
				"element": "H" 
			},
			{
				"x": 1.2084950207,
				"y": -4.7864539589,
				"z": 4.0920966858,
				"element": "H" 
			},
			{
				"x": 0.6603010053,
				"y": -4.7051723399,
				"z": 2.4088216358,
				"element": "H" 
			},
			{
				"x": -0.3236585689,
				"y": -5.5424817173,
				"z": 3.6203510713,
				"element": "H" 
			},
			{
				"x": -0.1089226718,
				"y": -3.4396438569,
				"z": 5.9251815583,
				"element": "H" 
			},
			{
				"x": -1.5941331703,
				"y": -4.2409989307,
				"z": 5.3834844404,
				"element": "H" 
			},
			{
				"x": -1.5116319943,
				"y": -2.4720026484,
				"z": 5.4370160047,
				"element": "H" 
			},
			{
				"x": -2.295870128,
				"y": -4.2174237756,
				"z": 3.0393370059,
				"element": "H" 
			},
			{
				"x": -2.2998977198,
				"y": -2.4522996135,
				"z": 3.0182692846,
				"element": "H" 
			},
			{
				"x": -1.4114312688,
				"y": -3.3581734959,
				"z": 1.7767681986,
				"element": "H" 
			}
		],
		 "valence_orbital": [ 
			{
				"type": "occ",
				"energy": -0.23383,
				"method": "rhf"
			},
			{
				"type": "occ",
				"energy": -0.22883,
				"method": "rhf"
			},
			{
				"type": "occ",
				"energy": -0.20912,
				"method": "rhf"
			},
			{
				"type": "occ",
				"energy": -0.20597,
				"method": "rhf"
			},
			{
				"type": "occ",
				"energy": -0.19887,
				"method": "rhf"
			},
			{
				"type": "unocc",
				"energy": 0.00243,
				"method": "rhf"
			},
			{
				"type": "unocc",
				"energy": 0.00561,
				"method": "rhf"
			},
			{
				"type": "unocc",
				"energy": 0.01104,
				"method": "rhf"
			},
			{
				"type": "unocc",
				"energy": 0.01416,
				"method": "rhf"
			},
			{
				"type": "unocc",
				"energy": 0.01701,
				"method": "rhf"
			}
		],
		"cosmo_sigma_profile": { 
			"-0.025": 0.0,
			"-0.024": 0.0,
			"-0.023": 0.0,
			"-0.022": 0.0,
			"-0.021": 0.0,
			"-0.02": 0.0,
			"-0.019": 0.0,
			"-0.018": 0.0376279239749,
			"-0.017": 1.56418364025,
			"-0.016": 2.11708040236,
			"-0.015": 2.15051945868,
			"-0.014": 2.56090342591,
			"-0.013": 3.09740135215,
			"-0.012": 2.21197981346,
			"-0.011": 1.66856815472,
			"-0.01": 2.74280968826,
			"-0.009": 3.02519405227,
			"-0.008": 3.51253250337,
			"-0.007": 2.8263700509,
			"-0.006": 3.68081075953,
			"-0.005": 8.67390047437,
			"-0.004": 23.1684160024,
			"-0.003": 49.0300805151,
			"-0.002": 81.7277841814,
			"-0.001": 81.4287968568,
			"0.0": 86.8685198982,
			"0.001": 80.7265344071,
			"0.002": 66.5041464612,
			"0.003": 30.3769685708,
			"0.004": 32.0191610482,
			"0.005": 28.3694102854,
			"0.006": 20.5099243234,
			"0.007": 9.71546687242,
			"0.008": 3.39893248532,
			"0.009": 1.75638003824,
			"0.01": 1.56983495191,
			"0.011": 1.64171767143,
			"0.012": 1.33080622265,
			"0.013": 0.0,
			"0.014": 0.0,
			"0.015": 0.0,
			"0.016": 0.0,
			"0.017": 0.0,
			"0.018": 0.0,
			"0.019": 0.0,
			"0.02": 0.0,
			"0.021": 0.0,
			"0.022": 0.0,
			"0.023": 0.0,
			"0.024": 0.0,
			"0.025": 0.0
		}
	}
}
