{
	 "smiles": "ClCCN(CCCl)CN1C(=S)SC(=CC2=CC=C(C=C2)N(CCCl)CCCl)C1=O", 
	 "Tm": 379.15, 
	 "num_atms": 52, 
	 "gaussian": { 
		 "optdone": 1, 
		 "sigma_profile": "yes", 
		 "theory": "DFT", 
		 "functional": "B3LYP", 
		 "basiset": "6-31G**", 
		 "properties": { 
			 "R2extent": 31068.5197, 
			 "electric_dipole_moment_norm": 5.74261099675, 
			 "electric_quadrupole_moment_norm": 20.483132447, 
			 "total_energy": -3614.51671039, 
			 "HOMO_LUMO_gap": 0.11823, 
			 "cosmo_polarized_energy": -24.17, 
			 "cosmo_cavitation_energy": 63.47, 
			 "cosmo_dispersion_energy": -44.1, 
			 "cosmo_repulsion_energy": 3.3, 
			 "cosmo_total_nonelectrostatic_energy": 22.66, 
			 "SMD_solvation_energy": 7.36 
		},
		"coords": [
			{
				"x": 2.410470701,
				"y": 4.8776413241,
				"z": 4.8092593028,
				"element": "Cl" 
			},
			{
				"x": 1.7118600355,
				"y": 3.2169086793,
				"z": 5.0922907999,
				"element": "C" 
			},
			{
				"x": 2.7655643192,
				"y": 2.1434552175,
				"z": 5.3464644889,
				"element": "C" 
			},
			{
				"x": 3.5726794368,
				"y": 1.8053340395,
				"z": 4.1692544142,
				"element": "N" 
			},
			{
				"x": 4.9014399747,
				"y": 2.4306531006,
				"z": 4.1695479871,
				"element": "C" 
			},
			{
				"x": 5.5761046167,
				"y": 2.4984461085,
				"z": 2.7982226012,
				"element": "C" 
			},
			{
				"x": 6.6978767707,
				"y": 1.0922762197,
				"z": 2.4638241001,
				"element": "Cl" 
			},
			{
				"x": 3.5284253493,
				"y": 0.4096562634,
				"z": 3.7855643643,
				"element": "C" 
			},
			{
				"x": 2.2965978628,
				"y": 0.0974097217,
				"z": 3.0231780826,
				"element": "N" 
			},
			{
				"x": 1.2360769919,
				"y": -0.6101210183,
				"z": 3.5281803222,
				"element": "C" 
			},
			{
				"x": 1.0607227977,
				"y": -1.2696863259,
				"z": 5.0357195607,
				"element": "S" 
			},
			{
				"x": -0.0362857606,
				"y": -0.7612441819,
				"z": 2.2974726839,
				"element": "S" 
			},
			{
				"x": 0.9056009228,
				"y": 0.1269401111,
				"z": 1.0952322022,
				"element": "C" 
			},
			{
				"x": 0.6062710361,
				"y": 0.4541859044,
				"z": -0.1881420055,
				"element": "C" 
			},
			{
				"x": -0.5609858443,
				"y": 0.2039508567,
				"z": -1.0009186801,
				"element": "C" 
			},
			{
				"x": -1.7140271598,
				"y": -0.4932044216,
				"z": -0.5821219107,
				"element": "C" 
			},
			{
				"x": -2.7942685018,
				"y": -0.6931608545,
				"z": -1.4253595335,
				"element": "C" 
			},
			{
				"x": -2.7980076532,
				"y": -0.2014696421,
				"z": -2.7555914595,
				"element": "C" 
			},
			{
				"x": -1.6427539348,
				"y": 0.5019276217,
				"z": -3.1795847648,
				"element": "C" 
			},
			{
				"x": -0.5696946491,
				"y": 0.6892941482,
				"z": -2.3270388606,
				"element": "C" 
			},
			{
				"x": -3.8804836956,
				"y": -0.3967484513,
				"z": -3.6006439585,
				"element": "N" 
			},
			{
				"x": -5.0779769465,
				"y": -1.0921552215,
				"z": -3.1483710617,
				"element": "C" 
			},
			{
				"x": -4.9801724071,
				"y": -2.6198793966,
				"z": -3.1473028227,
				"element": "C" 
			},
			{
				"x": -4.8436721387,
				"y": -3.3044956305,
				"z": -4.8216554195,
				"element": "Cl" 
			},
			{
				"x": -3.8832769753,
				"y": 0.1231664749,
				"z": -4.9661700769,
				"element": "C" 
			},
			{
				"x": -4.2946445963,
				"y": 1.5995680789,
				"z": -5.0045786359,
				"element": "C" 
			},
			{
				"x": -4.2544824646,
				"y": 2.2231483343,
				"z": -6.7052407699,
				"element": "Cl" 
			},
			{
				"x": 2.2068032532,
				"y": 0.5196902577,
				"z": 1.6742875532,
				"element": "C" 
			},
			{
				"x": 3.1074584604,
				"y": 1.108766443,
				"z": 1.1025387804,
				"element": "O" 
			},
			{
				"x": 1.0509419548,
				"y": 3.3177579631,
				"z": 5.9552761197,
				"element": "H" 
			},
			{
				"x": 1.1253939452,
				"y": 2.984319246,
				"z": 4.2032302435,
				"element": "H" 
			},
			{
				"x": 2.2125834301,
				"y": 1.2532764963,
				"z": 5.669598152,
				"element": "H" 
			},
			{
				"x": 3.3985390397,
				"y": 2.4404900112,
				"z": 6.1950502476,
				"element": "H" 
			},
			{
				"x": 5.5912696401,
				"y": 1.9716742042,
				"z": 4.8989684399,
				"element": "H" 
			},
			{
				"x": 4.7460358672,
				"y": 3.4642973432,
				"z": 4.4887707422,
				"element": "H" 
			},
			{
				"x": 4.8373456003,
				"y": 2.4970669783,
				"z": 1.9978452721,
				"element": "H" 
			},
			{
				"x": 6.2122823199,
				"y": 3.3806348521,
				"z": 2.7304646683,
				"element": "H" 
			},
			{
				"x": 3.5430681319,
				"y": -0.2904783481,
				"z": 4.6286109795,
				"element": "H" 
			},
			{
				"x": 4.3626904479,
				"y": 0.1901989898,
				"z": 3.1212623867,
				"element": "H" 
			},
			{
				"x": 1.4081997601,
				"y": 1.0071508951,
				"z": -0.6762375019,
				"element": "H" 
			},
			{
				"x": -1.7792301174,
				"y": -0.8970223015,
				"z": 0.4219580344,
				"element": "H" 
			},
			{
				"x": -3.6418466012,
				"y": -1.2433223428,
				"z": -1.0373661498,
				"element": "H" 
			},
			{
				"x": -1.5795579047,
				"y": 0.9096214998,
				"z": -4.1803522874,
				"element": "H" 
			},
			{
				"x": 0.2968776344,
				"y": 1.2338977748,
				"z": -2.6923347037,
				"element": "H" 
			},
			{
				"x": -5.9121388324,
				"y": -0.7884750066,
				"z": -3.7861169517,
				"element": "H" 
			},
			{
				"x": -5.338423566,
				"y": -0.7744421127,
				"z": -2.1309256809,
				"element": "H" 
			},
			{
				"x": -4.1029573111,
				"y": -2.9688967351,
				"z": -2.6025120166,
				"element": "H" 
			},
			{
				"x": -5.878682784,
				"y": -3.0547895047,
				"z": -2.7049470408,
				"element": "H" 
			},
			{
				"x": -4.5795304823,
				"y": -0.4695976915,
				"z": -5.5609817652,
				"element": "H" 
			},
			{
				"x": -2.9014718805,
				"y": -0.0089220305,
				"z": -5.4273534346,
				"element": "H" 
			},
			{
				"x": -5.3135527009,
				"y": 1.7377633893,
				"z": -4.6386212533,
				"element": "H" 
			},
			{
				"x": -3.6194553923,
				"y": 2.2234426693,
				"z": -4.4181037841,
				"element": "H" 
			}
		],
		 "valence_orbital": [ 
			{
				"type": "occ",
				"energy": -0.2693,
				"method": "rhf"
			},
			{
				"type": "occ",
				"energy": -0.25065,
				"method": "rhf"
			},
			{
				"type": "occ",
				"energy": -0.24088,
				"method": "rhf"
			},
			{
				"type": "occ",
				"energy": -0.22341,
				"method": "rhf"
			},
			{
				"type": "occ",
				"energy": -0.21141,
				"method": "rhf"
			},
			{
				"type": "unocc",
				"energy": -0.09318,
				"method": "rhf"
			},
			{
				"type": "unocc",
				"energy": -0.04065,
				"method": "rhf"
			},
			{
				"type": "unocc",
				"energy": -0.02841,
				"method": "rhf"
			},
			{
				"type": "unocc",
				"energy": -0.00106,
				"method": "rhf"
			},
			{
				"type": "unocc",
				"energy": 0.00399,
				"method": "rhf"
			}
		],
		"cosmo_sigma_profile": { 
			"-0.025": 0.0,
			"-0.024": 0.0,
			"-0.023": 0.0,
			"-0.022": 0.0,
			"-0.021": 0.0,
			"-0.02": 0.0,
			"-0.019": 0.0,
			"-0.018": 0.0,
			"-0.017": 0.0,
			"-0.016": 0.0,
			"-0.015": 0.0,
			"-0.014": 0.0,
			"-0.013": 0.0,
			"-0.012": 0.0,
			"-0.011": 0.0,
			"-0.01": 0.329049535451,
			"-0.009": 2.32169110483,
			"-0.008": 11.2371678909,
			"-0.007": 27.0670157019,
			"-0.006": 31.1339167148,
			"-0.005": 36.6980757662,
			"-0.004": 43.5143083177,
			"-0.003": 36.3365337614,
			"-0.002": 26.0222768421,
			"-0.001": 24.3320668432,
			"0.0": 29.9628066712,
			"0.001": 34.3789171026,
			"0.002": 36.3764834773,
			"0.003": 36.6011369812,
			"0.004": 37.0094571634,
			"0.005": 29.1054699875,
			"0.006": 38.2946794524,
			"0.007": 23.2832890902,
			"0.008": 5.31742694857,
			"0.009": 4.19398766106,
			"0.01": 2.09197980375,
			"0.011": 1.59138096907,
			"0.012": 0.278763002373,
			"0.013": 0.0,
			"0.014": 0.0,
			"0.015": 0.0,
			"0.016": 0.0,
			"0.017": 0.0,
			"0.018": 0.0,
			"0.019": 0.0,
			"0.02": 0.0,
			"0.021": 0.0,
			"0.022": 0.0,
			"0.023": 0.0,
			"0.024": 0.0,
			"0.025": 0.0
		}
	}
}
