{
	 "smiles": "CC(C)S(=O)(=O)C1=CC(C(O)=O)=C(F)C=C1", 
	 "Tm": 413.15, 
	 "num_atms": 27, 
	 "gaussian": { 
		 "optdone": 1, 
		 "sigma_profile": "yes", 
		 "theory": "DFT", 
		 "functional": "B3LYP", 
		 "basiset": "6-31G**", 
		 "properties": { 
			 "R2extent": 4712.9282, 
			 "electric_dipole_moment_norm": 3.83165319281, 
			 "electric_quadrupole_moment_norm": 18.3009387065, 
			 "total_energy": -1186.5695754, 
			 "HOMO_LUMO_gap": 0.20535, 
			 "cosmo_polarized_energy": -19.02, 
			 "cosmo_cavitation_energy": 32.9, 
			 "cosmo_dispersion_energy": -23.42, 
			 "cosmo_repulsion_energy": 1.76, 
			 "cosmo_total_nonelectrostatic_energy": 11.24, 
			 "SMD_solvation_energy": 6.72 
		},
		"coords": [
			{
				"x": 3.8997146421,
				"y": -0.0158689496,
				"z": 0.7752969591,
				"element": "C" 
			},
			{
				"x": 2.7345648195,
				"y": 0.177550743,
				"z": -0.2004090991,
				"element": "C" 
			},
			{
				"x": 3.0797612136,
				"y": 1.0882285663,
				"z": -1.3774682468,
				"element": "C" 
			},
			{
				"x": 1.3116945762,
				"y": 0.850270205,
				"z": 0.7600189726,
				"element": "S" 
			},
			{
				"x": 1.5800997421,
				"y": 2.2721602636,
				"z": 1.0453082964,
				"element": "O" 
			},
			{
				"x": 1.0275708782,
				"y": -0.1046501047,
				"z": 1.8454482294,
				"element": "O" 
			},
			{
				"x": -0.0848668844,
				"y": 0.7919269741,
				"z": -0.3803902487,
				"element": "C" 
			},
			{
				"x": -0.7933923003,
				"y": -0.3964390693,
				"z": -0.5303509203,
				"element": "C" 
			},
			{
				"x": -1.8934292583,
				"y": -0.4612321935,
				"z": -1.3987883747,
				"element": "C" 
			},
			{
				"x": -2.6638270948,
				"y": -1.7254014513,
				"z": -1.57055384,
				"element": "C" 
			},
			{
				"x": -2.1355627034,
				"y": -2.7383220689,
				"z": -0.8368983982,
				"element": "O" 
			},
			{
				"x": -3.6424093323,
				"y": -1.8732611949,
				"z": -2.2690833583,
				"element": "O" 
			},
			{
				"x": -2.2506429285,
				"y": 0.7101526876,
				"z": -2.0893804139,
				"element": "C" 
			},
			{
				"x": -3.286799805,
				"y": 0.7117769195,
				"z": -2.9293453104,
				"element": "F" 
			},
			{
				"x": -1.5534468025,
				"y": 1.9054932884,
				"z": -1.9270443049,
				"element": "C" 
			},
			{
				"x": -0.4624741151,
				"y": 1.9506471226,
				"z": -1.065571885,
				"element": "C" 
			},
			{
				"x": 4.738504784,
				"y": -0.4761467406,
				"z": 0.2441337185,
				"element": "H" 
			},
			{
				"x": 3.6158440427,
				"y": -0.6611102347,
				"z": 1.6089476068,
				"element": "H" 
			},
			{
				"x": 4.2321855701,
				"y": 0.9467824404,
				"z": 1.174472989,
				"element": "H" 
			},
			{
				"x": 2.373552375,
				"y": -0.7957417529,
				"z": -0.5521393503,
				"element": "H" 
			},
			{
				"x": 3.9219456275,
				"y": 0.6598611886,
				"z": -1.9299726978,
				"element": "H" 
			},
			{
				"x": 2.244216598,
				"y": 1.1969310652,
				"z": -2.074525192,
				"element": "H" 
			},
			{
				"x": 3.3688746366,
				"y": 2.0808600093,
				"z": -1.0220829646,
				"element": "H" 
			},
			{
				"x": -0.5140105452,
				"y": -1.2736933818,
				"z": 0.0405873065,
				"element": "H" 
			},
			{
				"x": -2.7047496306,
				"y": -3.5078579172,
				"z": -1.0017259436,
				"element": "H" 
			},
			{
				"x": -1.8849626159,
				"y": 2.7801496235,
				"z": -2.4753812754,
				"element": "H" 
			},
			{
				"x": 0.085644511,
				"y": 2.872333962,
				"z": -0.9029022545,
				"element": "H" 
			}
		],
		 "valence_orbital": [ 
			{
				"type": "occ",
				"energy": -0.3002,
				"method": "rhf"
			},
			{
				"type": "occ",
				"energy": -0.29308,
				"method": "rhf"
			},
			{
				"type": "occ",
				"energy": -0.29103,
				"method": "rhf"
			},
			{
				"type": "occ",
				"energy": -0.2842,
				"method": "rhf"
			},
			{
				"type": "occ",
				"energy": -0.27759,
				"method": "rhf"
			},
			{
				"type": "unocc",
				"energy": -0.07224,
				"method": "rhf"
			},
			{
				"type": "unocc",
				"energy": -0.04706,
				"method": "rhf"
			},
			{
				"type": "unocc",
				"energy": 0.02507,
				"method": "rhf"
			},
			{
				"type": "unocc",
				"energy": 0.05267,
				"method": "rhf"
			},
			{
				"type": "unocc",
				"energy": 0.06587,
				"method": "rhf"
			}
		],
		"cosmo_sigma_profile": { 
			"-0.025": 0.0,
			"-0.024": 0.0,
			"-0.023": 0.0,
			"-0.022": 0.0,
			"-0.021": 0.0,
			"-0.02": 0.0,
			"-0.019": 0.243495242549,
			"-0.018": 0.753679543746,
			"-0.017": 1.05524977081,
			"-0.016": 0.886516739119,
			"-0.015": 0.702487810731,
			"-0.014": 1.01747549687,
			"-0.013": 0.45384698629,
			"-0.012": 0.702931516201,
			"-0.011": 0.789238455085,
			"-0.01": 0.531165936006,
			"-0.009": 2.33254898497,
			"-0.008": 5.85442258344,
			"-0.007": 8.12824293842,
			"-0.006": 8.63989483705,
			"-0.005": 13.631512707,
			"-0.004": 20.5621865784,
			"-0.003": 25.1297583394,
			"-0.002": 27.8404499433,
			"-0.001": 29.793449797,
			"0.0": 21.0931844508,
			"0.001": 9.75089444239,
			"0.002": 7.60314137039,
			"0.003": 11.3643249882,
			"0.004": 6.34386922818,
			"0.005": 6.55411237051,
			"0.006": 4.98600583574,
			"0.007": 4.84156676675,
			"0.008": 5.06272917858,
			"0.009": 5.37247173921,
			"0.01": 8.38064876897,
			"0.011": 13.0351538035,
			"0.012": 7.31033408711,
			"0.013": 0.586496575217,
			"0.014": 0.0,
			"0.015": 0.0,
			"0.016": 0.0,
			"0.017": 0.0,
			"0.018": 0.0,
			"0.019": 0.0,
			"0.02": 0.0,
			"0.021": 0.0,
			"0.022": 0.0,
			"0.023": 0.0,
			"0.024": 0.0,
			"0.025": 0.0
		}
	}
}
