{
	 "smiles": "CCOC(=O)C=C1C2=CC=CC=C2C2=C1C=CC=C2", 
	 "Tm": 349.15, 
	 "num_atms": 33, 
	 "gaussian": { 
		 "optdone": 1, 
		 "sigma_profile": "yes", 
		 "theory": "DFT", 
		 "functional": "B3LYP", 
		 "basiset": "6-31G**", 
		 "properties": { 
			 "R2extent": 5777.3534, 
			 "electric_dipole_moment_norm": 2.42809360198, 
			 "electric_quadrupole_moment_norm": 15.4230573989, 
			 "total_energy": -806.708680511, 
			 "HOMO_LUMO_gap": 0.13786, 
			 "cosmo_polarized_energy": -9.83, 
			 "cosmo_cavitation_energy": 36.77, 
			 "cosmo_dispersion_energy": -26.16, 
			 "cosmo_repulsion_energy": 1.96, 
			 "cosmo_total_nonelectrostatic_energy": 12.57, 
			 "SMD_solvation_energy": 6.76 
		},
		"coords": [
			{
				"x": -0.2751950719,
				"y": -2.94279848,
				"z": 3.9629510915,
				"element": "C" 
			},
			{
				"x": 0.6462076982,
				"y": -1.7391159866,
				"z": 3.9050154563,
				"element": "C" 
			},
			{
				"x": 0.6145688867,
				"y": -1.2202834877,
				"z": 2.5540508757,
				"element": "O" 
			},
			{
				"x": 1.393458028,
				"y": -0.1354592946,
				"z": 2.3377995396,
				"element": "C" 
			},
			{
				"x": 2.0711516547,
				"y": 0.3656117858,
				"z": 3.2197117203,
				"element": "O" 
			},
			{
				"x": 1.391749603,
				"y": 0.4238972223,
				"z": 0.9727271958,
				"element": "C" 
			},
			{
				"x": 0.7708038918,
				"y": 0.1255136988,
				"z": -0.1966340328,
				"element": "C" 
			},
			{
				"x": 1.0338230195,
				"y": 0.9519761497,
				"z": -1.4100930094,
				"element": "C" 
			},
			{
				"x": 1.8603508245,
				"y": 2.0596239741,
				"z": -1.589178392,
				"element": "C" 
			},
			{
				"x": 1.9277900419,
				"y": 2.65979503,
				"z": -2.8506297254,
				"element": "C" 
			},
			{
				"x": 1.178095969,
				"y": 2.1585374487,
				"z": -3.9200158562,
				"element": "C" 
			},
			{
				"x": 0.3467787308,
				"y": 1.0474227516,
				"z": -3.7474713229,
				"element": "C" 
			},
			{
				"x": 0.2795948828,
				"y": 0.449839677,
				"z": -2.491162783,
				"element": "C" 
			},
			{
				"x": -0.4872417388,
				"y": -0.7058940355,
				"z": -2.0113748871,
				"element": "C" 
			},
			{
				"x": -0.2016505651,
				"y": -0.9116403754,
				"z": -0.634940212,
				"element": "C" 
			},
			{
				"x": -0.8235258878,
				"y": -1.9637819434,
				"z": 0.0402171616,
				"element": "C" 
			},
			{
				"x": -1.7133387765,
				"y": -2.7927129791,
				"z": -0.6520260952,
				"element": "C" 
			},
			{
				"x": -1.9873673843,
				"y": -2.5828621236,
				"z": -2.0053379699,
				"element": "C" 
			},
			{
				"x": -1.372648341,
				"y": -1.5332054023,
				"z": -2.6948223721,
				"element": "C" 
			},
			{
				"x": 0.0528638687,
				"y": -3.7242709523,
				"z": 3.2710522021,
				"element": "H" 
			},
			{
				"x": -0.2718854439,
				"y": -3.3600871725,
				"z": 4.9747412046,
				"element": "H" 
			},
			{
				"x": -1.30343771,
				"y": -2.6650634822,
				"z": 3.7125988641,
				"element": "H" 
			},
			{
				"x": 0.3323750853,
				"y": -0.9476885462,
				"z": 4.5924496669,
				"element": "H" 
			},
			{
				"x": 1.6787910505,
				"y": -1.9994849782,
				"z": 4.156783155,
				"element": "H" 
			},
			{
				"x": 2.0642067748,
				"y": 1.2759528233,
				"z": 0.9561119717,
				"element": "H" 
			},
			{
				"x": 2.4496759265,
				"y": 2.4625343126,
				"z": -0.7706598224,
				"element": "H" 
			},
			{
				"x": 2.5689308707,
				"y": 3.5233943703,
				"z": -2.9999759044,
				"element": "H" 
			},
			{
				"x": 1.2425231054,
				"y": 2.6369066079,
				"z": -4.8930416122,
				"element": "H" 
			},
			{
				"x": -0.2334025733,
				"y": 0.6618057575,
				"z": -4.5810384216,
				"element": "H" 
			},
			{
				"x": -0.6193691703,
				"y": -2.1354698136,
				"z": 1.0858631129,
				"element": "H" 
			},
			{
				"x": -2.1964069591,
				"y": -3.610862417,
				"z": -0.1256796994,
				"element": "H" 
			},
			{
				"x": -2.6810830361,
				"y": -3.2372851919,
				"z": -2.5255095488,
				"element": "H" 
			},
			{
				"x": -1.5849872546,
				"y": -1.3684449477,
				"z": -3.7473815513,
				"element": "H" 
			}
		],
		 "valence_orbital": [ 
			{
				"type": "occ",
				"energy": -0.28401,
				"method": "rhf"
			},
			{
				"type": "occ",
				"energy": -0.26912,
				"method": "rhf"
			},
			{
				"type": "occ",
				"energy": -0.2542,
				"method": "rhf"
			},
			{
				"type": "occ",
				"energy": -0.23234,
				"method": "rhf"
			},
			{
				"type": "occ",
				"energy": -0.22026,
				"method": "rhf"
			},
			{
				"type": "unocc",
				"energy": -0.0824,
				"method": "rhf"
			},
			{
				"type": "unocc",
				"energy": -0.03133,
				"method": "rhf"
			},
			{
				"type": "unocc",
				"energy": 0.00276,
				"method": "rhf"
			},
			{
				"type": "unocc",
				"energy": 0.02811,
				"method": "rhf"
			},
			{
				"type": "unocc",
				"energy": 0.03735,
				"method": "rhf"
			}
		],
		"cosmo_sigma_profile": { 
			"-0.025": 0.0,
			"-0.024": 0.0,
			"-0.023": 0.0,
			"-0.022": 0.0,
			"-0.021": 0.0,
			"-0.02": 0.0,
			"-0.019": 0.0,
			"-0.018": 0.0,
			"-0.017": 0.0,
			"-0.016": 0.0,
			"-0.015": 0.0,
			"-0.014": 0.0,
			"-0.013": 0.0,
			"-0.012": 0.0,
			"-0.011": 0.0,
			"-0.01": 0.0,
			"-0.009": 0.292129744528,
			"-0.008": 1.41557835798,
			"-0.007": 3.96453871294,
			"-0.006": 13.716914774,
			"-0.005": 20.81112653,
			"-0.004": 28.4052452011,
			"-0.003": 26.2772235916,
			"-0.002": 25.7480446092,
			"-0.001": 21.134834476,
			"0.0": 22.9117249347,
			"0.001": 23.1973746416,
			"0.002": 26.5889007667,
			"0.003": 25.1926042848,
			"0.004": 23.7889507119,
			"0.005": 14.83519708,
			"0.006": 2.36357012358,
			"0.007": 0.324057712927,
			"0.008": 0.681169948227,
			"0.009": 2.18410652525,
			"0.01": 1.6015466222,
			"0.011": 2.19464957011,
			"0.012": 4.66466083885,
			"0.013": 2.4167695062,
			"0.014": 0.0918476347437,
			"0.015": 0.0,
			"0.016": 0.0,
			"0.017": 0.0,
			"0.018": 0.0,
			"0.019": 0.0,
			"0.02": 0.0,
			"0.021": 0.0,
			"0.022": 0.0,
			"0.023": 0.0,
			"0.024": 0.0,
			"0.025": 0.0
		}
	}
}
