{
	 "smiles": "CCCCCCC(Cl)=O", 
	 "Tm": 189.25, 
	 "num_atms": 22, 
	 "gaussian": { 
		 "optdone": 1, 
		 "sigma_profile": "yes", 
		 "theory": "DFT", 
		 "functional": "B3LYP", 
		 "basiset": "6-31G**", 
		 "properties": { 
			 "R2extent": 4658.7397, 
			 "electric_dipole_moment_norm": 3.01904870448, 
			 "electric_quadrupole_moment_norm": 19.1210365888, 
			 "total_energy": -810.024394261, 
			 "HOMO_LUMO_gap": 0.25765, 
			 "cosmo_polarized_energy": -5.3, 
			 "cosmo_cavitation_energy": 26.67, 
			 "cosmo_dispersion_energy": -19.17, 
			 "cosmo_repulsion_energy": 1.64, 
			 "cosmo_total_nonelectrostatic_energy": 9.14, 
			 "SMD_solvation_energy": 4.63 
		},
		"coords": [
			{
				"x": -1.7036814511,
				"y": -1.8034338021,
				"z": -1.1340884141,
				"element": "C" 
			},
			{
				"x": -0.665966037,
				"y": -1.6375745114,
				"z": -0.0193949098,
				"element": "C" 
			},
			{
				"x": -0.1496743138,
				"y": -0.1993574778,
				"z": 0.1159691429,
				"element": "C" 
			},
			{
				"x": 0.8871870892,
				"y": -0.0266176501,
				"z": 1.2329195732,
				"element": "C" 
			},
			{
				"x": 1.3996338441,
				"y": 1.4147621489,
				"z": 1.3550414607,
				"element": "C" 
			},
			{
				"x": 2.4645280428,
				"y": 1.611551033,
				"z": 2.4414137533,
				"element": "C" 
			},
			{
				"x": 1.9179649993,
				"y": 1.5154940825,
				"z": 3.8457430439,
				"element": "C" 
			},
			{
				"x": 3.2535025101,
				"y": 1.6497365571,
				"z": 5.1040784252,
				"element": "Cl" 
			},
			{
				"x": 0.7890557477,
				"y": 1.3898532793,
				"z": 4.1939701646,
				"element": "O" 
			},
			{
				"x": -2.0521134803,
				"y": -2.8388823557,
				"z": -1.2053659707,
				"element": "H" 
			},
			{
				"x": -1.2868704993,
				"y": -1.5251703344,
				"z": -2.1088889935,
				"element": "H" 
			},
			{
				"x": -2.5799661942,
				"y": -1.169414028,
				"z": -0.9571869574,
				"element": "H" 
			},
			{
				"x": 0.1823670723,
				"y": -2.3103509218,
				"z": -0.2053234572,
				"element": "H" 
			},
			{
				"x": -1.101304072,
				"y": -1.9557714755,
				"z": 0.93739361,
				"element": "H" 
			},
			{
				"x": 0.287027427,
				"y": 0.1206871438,
				"z": -0.841218534,
				"element": "H" 
			},
			{
				"x": -0.9984321282,
				"y": 0.4737216872,
				"z": 0.3026176388,
				"element": "H" 
			},
			{
				"x": 0.4467650678,
				"y": -0.3379336239,
				"z": 2.1876679387,
				"element": "H" 
			},
			{
				"x": 1.7377572746,
				"y": -0.6981512942,
				"z": 1.0467165836,
				"element": "H" 
			},
			{
				"x": 0.5597127643,
				"y": 2.0919048857,
				"z": 1.5490669567,
				"element": "H" 
			},
			{
				"x": 1.8392635975,
				"y": 1.7276459361,
				"z": 0.3997097633,
				"element": "H" 
			},
			{
				"x": 3.2799245443,
				"y": 0.8841017198,
				"z": 2.3516487824,
				"element": "H" 
			},
			{
				"x": 2.941018195,
				"y": 2.5970990014,
				"z": 2.3656103997,
				"element": "H" 
			}
		],
		 "valence_orbital": [ 
			{
				"type": "occ",
				"energy": -0.32623,
				"method": "rhf"
			},
			{
				"type": "occ",
				"energy": -0.32352,
				"method": "rhf"
			},
			{
				"type": "occ",
				"energy": -0.3187,
				"method": "rhf"
			},
			{
				"type": "occ",
				"energy": -0.31178,
				"method": "rhf"
			},
			{
				"type": "occ",
				"energy": -0.29546,
				"method": "rhf"
			},
			{
				"type": "unocc",
				"energy": -0.03781,
				"method": "rhf"
			},
			{
				"type": "unocc",
				"energy": 0.01731,
				"method": "rhf"
			},
			{
				"type": "unocc",
				"energy": 0.08117,
				"method": "rhf"
			},
			{
				"type": "unocc",
				"energy": 0.09203,
				"method": "rhf"
			},
			{
				"type": "unocc",
				"energy": 0.11389,
				"method": "rhf"
			}
		],
		"cosmo_sigma_profile": { 
			"-0.025": 0.0,
			"-0.024": 0.0,
			"-0.023": 0.0,
			"-0.022": 0.0,
			"-0.021": 0.0,
			"-0.02": 0.0,
			"-0.019": 0.0,
			"-0.018": 0.0,
			"-0.017": 0.0,
			"-0.016": 0.0,
			"-0.015": 0.0,
			"-0.014": 0.0,
			"-0.013": 0.0,
			"-0.012": 0.0,
			"-0.011": 0.0,
			"-0.01": 0.0,
			"-0.009": 0.0,
			"-0.008": 1.24880714777,
			"-0.007": 4.56270644903,
			"-0.006": 5.98662759909,
			"-0.005": 5.60494670192,
			"-0.004": 9.53830974763,
			"-0.003": 14.3856468295,
			"-0.002": 27.0962322982,
			"-0.001": 29.8270082789,
			"0.0": 30.0005706396,
			"0.001": 24.5095409152,
			"0.002": 14.8537853554,
			"0.003": 6.9590073538,
			"0.004": 10.2494026908,
			"0.005": 11.2959540052,
			"0.006": 3.93520673218,
			"0.007": 2.73308479981,
			"0.008": 4.38805489409,
			"0.009": 2.20474020487,
			"0.01": 0.078610455951,
			"0.011": 0.0,
			"0.012": 0.0,
			"0.013": 0.0,
			"0.014": 0.0,
			"0.015": 0.0,
			"0.016": 0.0,
			"0.017": 0.0,
			"0.018": 0.0,
			"0.019": 0.0,
			"0.02": 0.0,
			"0.021": 0.0,
			"0.022": 0.0,
			"0.023": 0.0,
			"0.024": 0.0,
			"0.025": 0.0
		}
	}
}
