{
	 "smiles": "CSCCC(NC(=O)C1=C(Cl)C=C(Cl)C=C1)C(O)=O", 
	 "Tm": 353.15, 
	 "num_atms": 32, 
	 "gaussian": { 
		 "optdone": 1, 
		 "sigma_profile": "yes", 
		 "theory": "DFT", 
		 "functional": "B3LYP", 
		 "basiset": "6-31G**", 
		 "properties": { 
			 "R2extent": 8230.271, 
			 "electric_dipole_moment_norm": 3.08900368566, 
			 "electric_quadrupole_moment_norm": 19.1106380767, 
			 "total_energy": -2064.12122348, 
			 "HOMO_LUMO_gap": 0.19639, 
			 "cosmo_polarized_energy": -21.19, 
			 "cosmo_cavitation_energy": 40.55, 
			 "cosmo_dispersion_energy": -27.72, 
			 "cosmo_repulsion_energy": 2.11, 
			 "cosmo_total_nonelectrostatic_energy": 14.94, 
			 "SMD_solvation_energy": 7.58 
		},
		"coords": [
			{
				"x": 2.1807862999,
				"y": -3.9846383442,
				"z": 1.0965380834,
				"element": "C" 
			},
			{
				"x": 0.6033799944,
				"y": -3.7920121579,
				"z": 0.1930999565,
				"element": "S" 
			},
			{
				"x": -0.1167524887,
				"y": -2.3314330765,
				"z": 1.04540551,
				"element": "C" 
			},
			{
				"x": 0.6188774029,
				"y": -1.002551903,
				"z": 0.8358017507,
				"element": "C" 
			},
			{
				"x": 0.801912613,
				"y": -0.6110199592,
				"z": -0.6377382713,
				"element": "C" 
			},
			{
				"x": -0.4230893148,
				"y": -0.5962140218,
				"z": -1.454941558,
				"element": "N" 
			},
			{
				"x": -1.5867036679,
				"y": 0.1421322712,
				"z": -1.2823176053,
				"element": "C" 
			},
			{
				"x": -2.6563591269,
				"y": -0.2787179968,
				"z": -1.6887941734,
				"element": "O" 
			},
			{
				"x": -1.4901992919,
				"y": 1.5159466838,
				"z": -0.654514468,
				"element": "C" 
			},
			{
				"x": -1.3239611972,
				"y": 2.6642535449,
				"z": -1.4406739689,
				"element": "C" 
			},
			{
				"x": -1.1255948389,
				"y": 2.5278189283,
				"z": -3.180280567,
				"element": "Cl" 
			},
			{
				"x": -1.3380420628,
				"y": 3.9419501883,
				"z": -0.8847019373,
				"element": "C" 
			},
			{
				"x": -1.5487756601,
				"y": 4.0727084247,
				"z": 0.4866372751,
				"element": "C" 
			},
			{
				"x": -1.5683112862,
				"y": 5.6731331081,
				"z": 1.1963474173,
				"element": "Cl" 
			},
			{
				"x": -1.7575134217,
				"y": 2.9565038309,
				"z": 1.2950394968,
				"element": "C" 
			},
			{
				"x": -1.7342083181,
				"y": 1.6912265781,
				"z": 0.7135172886,
				"element": "C" 
			},
			{
				"x": 1.6590915039,
				"y": 0.6573965534,
				"z": -0.789912761,
				"element": "C" 
			},
			{
				"x": 1.6208158495,
				"y": 1.236115894,
				"z": -2.0042953059,
				"element": "O" 
			},
			{
				"x": 2.3896559392,
				"y": 1.059791026,
				"z": 0.0821622273,
				"element": "O" 
			},
			{
				"x": 2.6594834077,
				"y": -4.8806155292,
				"z": 0.6958840736,
				"element": "H" 
			},
			{
				"x": 1.9996810006,
				"y": -4.1305103636,
				"z": 2.1647002463,
				"element": "H" 
			},
			{
				"x": 2.849869881,
				"y": -3.1343321827,
				"z": 0.9464565016,
				"element": "H" 
			},
			{
				"x": -1.1407440659,
				"y": -2.2774074817,
				"z": 0.661570061,
				"element": "H" 
			},
			{
				"x": -0.1883806014,
				"y": -2.5517563989,
				"z": 2.1152809691,
				"element": "H" 
			},
			{
				"x": 1.6142176484,
				"y": -1.0326978259,
				"z": 1.2866614081,
				"element": "H" 
			},
			{
				"x": 0.0804764841,
				"y": -0.2114399066,
				"z": 1.3676457358,
				"element": "H" 
			},
			{
				"x": 1.4074972583,
				"y": -1.4016159818,
				"z": -1.1006512618,
				"element": "H" 
			},
			{
				"x": -0.6481703849,
				"y": -1.4927409019,
				"z": -1.8758030503,
				"element": "H" 
			},
			{
				"x": -1.1956875368,
				"y": 4.814070624,
				"z": -1.5105155101,
				"element": "H" 
			},
			{
				"x": -1.9413755197,
				"y": 3.0763425864,
				"z": 2.3562208516,
				"element": "H" 
			},
			{
				"x": -1.9262956321,
				"y": 0.8217021209,
				"z": 1.3338100852,
				"element": "H" 
			},
			{
				"x": 0.924419133,
				"y": 0.8160116685,
				"z": -2.5383384997,
				"element": "H" 
			}
		],
		 "valence_orbital": [ 
			{
				"type": "occ",
				"energy": -0.28696,
				"method": "rhf"
			},
			{
				"type": "occ",
				"energy": -0.27594,
				"method": "rhf"
			},
			{
				"type": "occ",
				"energy": -0.27147,
				"method": "rhf"
			},
			{
				"type": "occ",
				"energy": -0.25968,
				"method": "rhf"
			},
			{
				"type": "occ",
				"energy": -0.23982,
				"method": "rhf"
			},
			{
				"type": "unocc",
				"energy": -0.04343,
				"method": "rhf"
			},
			{
				"type": "unocc",
				"energy": -0.03963,
				"method": "rhf"
			},
			{
				"type": "unocc",
				"energy": -0.01715,
				"method": "rhf"
			},
			{
				"type": "unocc",
				"energy": -0.00543,
				"method": "rhf"
			},
			{
				"type": "unocc",
				"energy": 7e-05,
				"method": "rhf"
			}
		],
		"cosmo_sigma_profile": { 
			"-0.025": 0.0,
			"-0.024": 0.0,
			"-0.023": 0.0,
			"-0.022": 0.0,
			"-0.021": 0.0,
			"-0.02": 0.0,
			"-0.019": 0.0,
			"-0.018": 0.0,
			"-0.017": 0.0,
			"-0.016": 0.0,
			"-0.015": 0.0328970093642,
			"-0.014": 0.384252679374,
			"-0.013": 0.923327239393,
			"-0.012": 1.77324007575,
			"-0.011": 1.89134248541,
			"-0.01": 3.84735267026,
			"-0.009": 6.92534780711,
			"-0.008": 11.7254460674,
			"-0.007": 10.8254305365,
			"-0.006": 14.3846902855,
			"-0.005": 20.2303519395,
			"-0.004": 20.9847726862,
			"-0.003": 22.1717774102,
			"-0.002": 22.9465314794,
			"-0.001": 23.5523446951,
			"0.0": 26.5653952283,
			"0.001": 21.3580095852,
			"0.002": 18.1958489544,
			"0.003": 19.9609135638,
			"0.004": 16.9578357034,
			"0.005": 8.16099149136,
			"0.006": 6.36309485804,
			"0.007": 6.80734579859,
			"0.008": 7.32713955429,
			"0.009": 6.32362125083,
			"0.01": 7.56045131104,
			"0.011": 9.2264248151,
			"0.012": 8.46495062784,
			"0.013": 2.02349999568,
			"0.014": 0.00334362262659,
			"0.015": 0.0,
			"0.016": 0.0,
			"0.017": 0.0,
			"0.018": 0.0,
			"0.019": 0.0,
			"0.02": 0.0,
			"0.021": 0.0,
			"0.022": 0.0,
			"0.023": 0.0,
			"0.024": 0.0,
			"0.025": 0.0
		}
	}
}
