{
	 "smiles": "CC1CCC(C)(COC(=O)C2=CC=C(N)C=C2)C1(C)C", 
	 "Tm": 347.15, 
	 "num_atms": 45, 
	 "gaussian": { 
		 "optdone": 1, 
		 "sigma_profile": "yes", 
		 "theory": "DFT", 
		 "functional": "B3LYP", 
		 "basiset": "6-31G**", 
		 "properties": { 
			 "R2extent": 7728.739, 
			 "electric_dipole_moment_norm": 3.69584515504, 
			 "electric_quadrupole_moment_norm": 29.0725879046, 
			 "total_energy": -868.109039477, 
			 "HOMO_LUMO_gap": 0.18473, 
			 "cosmo_polarized_energy": -13.28, 
			 "cosmo_cavitation_energy": 43.56, 
			 "cosmo_dispersion_energy": -29.88, 
			 "cosmo_repulsion_energy": 2.24, 
			 "cosmo_total_nonelectrostatic_energy": 15.92, 
			 "SMD_solvation_energy": 7.71 
		},
		"coords": [
			{
				"x": -2.2840039234,
				"y": 3.789171459,
				"z": -1.2336186598,
				"element": "C" 
			},
			{
				"x": -2.0219832542,
				"y": 2.3083541742,
				"z": -0.9119098585,
				"element": "C" 
			},
			{
				"x": -1.1525944,
				"y": 1.6390498632,
				"z": -1.994861769,
				"element": "C" 
			},
			{
				"x": 0.2932503944,
				"y": 1.9740081914,
				"z": -1.593019769,
				"element": "C" 
			},
			{
				"x": 0.3113961961,
				"y": 2.0987533827,
				"z": -0.0314007175,
				"element": "C" 
			},
			{
				"x": 0.9737984166,
				"y": 3.4413609744,
				"z": 0.3606894004,
				"element": "C" 
			},
			{
				"x": 1.2144431495,
				"y": 1.0294487881,
				"z": 0.609492144,
				"element": "C" 
			},
			{
				"x": 0.9915742996,
				"y": -0.2664917317,
				"z": 0.0171058169,
				"element": "O" 
			},
			{
				"x": 1.6829630336,
				"y": -1.2943186915,
				"z": 0.5727354987,
				"element": "C" 
			},
			{
				"x": 2.4284686394,
				"y": -1.1478035654,
				"z": 1.5253527377,
				"element": "O" 
			},
			{
				"x": 1.4257203887,
				"y": -2.5872922011,
				"z": -0.1021218013,
				"element": "C" 
			},
			{
				"x": 0.5940995128,
				"y": -2.7162575466,
				"z": -1.2255219157,
				"element": "C" 
			},
			{
				"x": 0.3921085704,
				"y": -3.9535346555,
				"z": -1.8209685101,
				"element": "C" 
			},
			{
				"x": 1.0178434247,
				"y": -5.1068169376,
				"z": -1.3078327423,
				"element": "C" 
			},
			{
				"x": 0.7770313587,
				"y": -6.3514182781,
				"z": -1.8687629599,
				"element": "N" 
			},
			{
				"x": 1.8537664484,
				"y": -4.9759384941,
				"z": -0.1805828563,
				"element": "C" 
			},
			{
				"x": 2.0512758035,
				"y": -3.7362524883,
				"z": 0.4069437122,
				"element": "C" 
			},
			{
				"x": -1.2298135438,
				"y": 2.0151069625,
				"z": 0.4113566139,
				"element": "C" 
			},
			{
				"x": -1.6422880678,
				"y": 0.6001320743,
				"z": 0.8888946665,
				"element": "C" 
			},
			{
				"x": -1.5917120034,
				"y": 2.9732432813,
				"z": 1.5618956189,
				"element": "C" 
			},
			{
				"x": -2.8822706475,
				"y": 4.2774510119,
				"z": -0.4587209777,
				"element": "H" 
			},
			{
				"x": -1.3611083751,
				"y": 4.3654398601,
				"z": -1.3542338634,
				"element": "H" 
			},
			{
				"x": -2.83998807,
				"y": 3.8700372228,
				"z": -2.1743285969,
				"element": "H" 
			},
			{
				"x": -3.0023787164,
				"y": 1.818160768,
				"z": -0.8502172278,
				"element": "H" 
			},
			{
				"x": -1.3994448261,
				"y": 1.9852816195,
				"z": -3.0046838938,
				"element": "H" 
			},
			{
				"x": -1.306213236,
				"y": 0.5547560394,
				"z": -1.9835228414,
				"element": "H" 
			},
			{
				"x": 0.5925790094,
				"y": 2.9298354668,
				"z": -2.0375378838,
				"element": "H" 
			},
			{
				"x": 1.003803558,
				"y": 1.2241872588,
				"z": -1.9505840817,
				"element": "H" 
			},
			{
				"x": 1.0846971861,
				"y": 3.5513333013,
				"z": 1.4447283049,
				"element": "H" 
			},
			{
				"x": 0.4040699515,
				"y": 4.2987054852,
				"z": -0.0044304624,
				"element": "H" 
			},
			{
				"x": 1.9743436772,
				"y": 3.503278106,
				"z": -0.0811712707,
				"element": "H" 
			},
			{
				"x": 1.0608829652,
				"y": 0.9613101495,
				"z": 1.6908956327,
				"element": "H" 
			},
			{
				"x": 2.2677423013,
				"y": 1.2883601004,
				"z": 0.4547235383,
				"element": "H" 
			},
			{
				"x": 0.1105416488,
				"y": -1.8368095465,
				"z": -1.6355404162,
				"element": "H" 
			},
			{
				"x": -0.2562165812,
				"y": -4.0395048812,
				"z": -2.6894625902,
				"element": "H" 
			},
			{
				"x": 1.4600355654,
				"y": -7.0703783734,
				"z": -1.6792651836,
				"element": "H" 
			},
			{
				"x": 0.4435641332,
				"y": -6.3597052986,
				"z": -2.8216405111,
				"element": "H" 
			},
			{
				"x": 2.3414969826,
				"y": -5.8573491858,
				"z": 0.2282990173,
				"element": "H" 
			},
			{
				"x": 2.6964896277,
				"y": -3.6304304183,
				"z": 1.2727539005,
				"element": "H" 
			},
			{
				"x": -1.4822016011,
				"y": -0.1695519647,
				"z": 0.1331097641,
				"element": "H" 
			},
			{
				"x": -1.0954659109,
				"y": 0.2960451131,
				"z": 1.7867482011,
				"element": "H" 
			},
			{
				"x": -2.7070521448,
				"y": 0.6053957706,
				"z": 1.1471819777,
				"element": "H" 
			},
			{
				"x": -1.384546346,
				"y": 4.0216226827,
				"z": 1.3400215236,
				"element": "H" 
			},
			{
				"x": -1.0434079986,
				"y": 2.7123222987,
				"z": 2.4745258299,
				"element": "H" 
			},
			{
				"x": -2.6593965965,
				"y": 2.8918028526,
				"z": 1.7954874608,
				"element": "H" 
			}
		],
		 "valence_orbital": [ 
			{
				"type": "occ",
				"energy": -0.2912,
				"method": "rhf"
			},
			{
				"type": "occ",
				"energy": -0.27843,
				"method": "rhf"
			},
			{
				"type": "occ",
				"energy": -0.25845,
				"method": "rhf"
			},
			{
				"type": "occ",
				"energy": -0.25285,
				"method": "rhf"
			},
			{
				"type": "occ",
				"energy": -0.21016,
				"method": "rhf"
			},
			{
				"type": "unocc",
				"energy": -0.02543,
				"method": "rhf"
			},
			{
				"type": "unocc",
				"energy": -0.0011,
				"method": "rhf"
			},
			{
				"type": "unocc",
				"energy": 0.06687,
				"method": "rhf"
			},
			{
				"type": "unocc",
				"energy": 0.07158,
				"method": "rhf"
			},
			{
				"type": "unocc",
				"energy": 0.08151,
				"method": "rhf"
			}
		],
		"cosmo_sigma_profile": { 
			"-0.025": 0.0,
			"-0.024": 0.0,
			"-0.023": 0.0,
			"-0.022": 0.0,
			"-0.021": 0.0,
			"-0.02": 0.0,
			"-0.019": 0.0,
			"-0.018": 0.0,
			"-0.017": 0.0,
			"-0.016": 0.0,
			"-0.015": 0.0,
			"-0.014": 0.063827197149,
			"-0.013": 2.02995316017,
			"-0.012": 2.815657115,
			"-0.011": 2.98917126187,
			"-0.01": 3.70980474896,
			"-0.009": 2.49371168001,
			"-0.008": 2.48117922367,
			"-0.007": 3.92854263237,
			"-0.006": 5.1120555634,
			"-0.005": 5.70337468489,
			"-0.004": 14.4205522432,
			"-0.003": 25.0555077281,
			"-0.002": 39.2669129882,
			"-0.001": 44.0800866406,
			"0.0": 42.3780219867,
			"0.001": 42.2495847754,
			"0.002": 33.7164399826,
			"0.003": 15.0176546157,
			"0.004": 13.2100475383,
			"0.005": 14.3823075208,
			"0.006": 3.22776446869,
			"0.007": 2.91138585828,
			"0.008": 1.81075570677,
			"0.009": 2.07366476211,
			"0.01": 2.4683579992,
			"0.011": 3.02159875601,
			"0.012": 3.6609776113,
			"0.013": 4.19797098971,
			"0.014": 0.0540732538119,
			"0.015": 0.0,
			"0.016": 0.0,
			"0.017": 0.0,
			"0.018": 0.0,
			"0.019": 0.0,
			"0.02": 0.0,
			"0.021": 0.0,
			"0.022": 0.0,
			"0.023": 0.0,
			"0.024": 0.0,
			"0.025": 0.0
		}
	}
}
