{
	 "smiles": "OC(=O)CCN1C(=O)C2CCCCC2C1=O", 
	 "Tm": 355.15, 
	 "num_atms": 31, 
	 "gaussian": { 
		 "optdone": 1, 
		 "sigma_profile": "yes", 
		 "theory": "DFT", 
		 "functional": "B3LYP", 
		 "basiset": "6-31G**", 
		 "properties": { 
			 "R2extent": 4895.685, 
			 "electric_dipole_moment_norm": 7.69333332828, 
			 "electric_quadrupole_moment_norm": 22.7061252144, 
			 "total_energy": -783.921852092, 
			 "HOMO_LUMO_gap": 0.20603, 
			 "cosmo_polarized_energy": -19.2, 
			 "cosmo_cavitation_energy": 32.36, 
			 "cosmo_dispersion_energy": -23.43, 
			 "cosmo_repulsion_energy": 1.82, 
			 "cosmo_total_nonelectrostatic_energy": 10.75, 
			 "SMD_solvation_energy": 6.68 
		},
		"coords": [
			{
				"x": -1.2229770646,
				"y": 2.9320628132,
				"z": 1.3110581695,
				"element": "O" 
			},
			{
				"x": -1.3712973745,
				"y": 2.196196897,
				"z": 2.4248856092,
				"element": "C" 
			},
			{
				"x": -1.3527461673,
				"y": 2.7014472007,
				"z": 3.5230546153,
				"element": "O" 
			},
			{
				"x": -1.5637338401,
				"y": 0.6882669107,
				"z": 2.2235783862,
				"element": "C" 
			},
			{
				"x": -0.4655739085,
				"y": 0.0085644838,
				"z": 1.3629215031,
				"element": "C" 
			},
			{
				"x": -0.9631516507,
				"y": -0.5705380917,
				"z": 0.1143531133,
				"element": "N" 
			},
			{
				"x": -0.9761501517,
				"y": -1.9549265797,
				"z": -0.1482890174,
				"element": "C" 
			},
			{
				"x": -0.5147574809,
				"y": -2.7952591796,
				"z": 0.5911241421,
				"element": "O" 
			},
			{
				"x": -1.7227808038,
				"y": -2.151259195,
				"z": -1.4668203807,
				"element": "C" 
			},
			{
				"x": -1.2825867357,
				"y": -3.3677552676,
				"z": -2.29372817,
				"element": "C" 
			},
			{
				"x": -0.0514489803,
				"y": -3.0984176725,
				"z": -3.1687686018,
				"element": "C" 
			},
			{
				"x": -0.2411891451,
				"y": -1.8277908637,
				"z": -4.0077165708,
				"element": "C" 
			},
			{
				"x": -0.4181694389,
				"y": -0.607597473,
				"z": -3.0969800379,
				"element": "C" 
			},
			{
				"x": -1.6306913752,
				"y": -0.758139894,
				"z": -2.1366712589,
				"element": "C" 
			},
			{
				"x": -1.4166557024,
				"y": 0.1756173263,
				"z": -0.9563336178,
				"element": "C" 
			},
			{
				"x": -1.5461158952,
				"y": 1.3943622449,
				"z": -0.9469947472,
				"element": "O" 
			},
			{
				"x": -1.3329470816,
				"y": 2.3940674415,
				"z": 0.4936176471,
				"element": "H" 
			},
			{
				"x": -2.5453641837,
				"y": 0.5222825493,
				"z": 1.7646007994,
				"element": "H" 
			},
			{
				"x": -1.5947716818,
				"y": 0.2456652772,
				"z": 3.2198637545,
				"element": "H" 
			},
			{
				"x": -0.0149201874,
				"y": -0.8251740051,
				"z": 1.9033890121,
				"element": "H" 
			},
			{
				"x": 0.3290670223,
				"y": 0.7183276881,
				"z": 1.1140763975,
				"element": "H" 
			},
			{
				"x": -2.7654993569,
				"y": -2.3093973497,
				"z": -1.1549458963,
				"element": "H" 
			},
			{
				"x": -1.1019540448,
				"y": -4.201762175,
				"z": -1.6078010968,
				"element": "H" 
			},
			{
				"x": -2.1182582771,
				"y": -3.6614649243,
				"z": -2.9406327845,
				"element": "H" 
			},
			{
				"x": 0.1315678935,
				"y": -3.9640911984,
				"z": -3.8145383589,
				"element": "H" 
			},
			{
				"x": 0.8402629811,
				"y": -2.9863809096,
				"z": -2.536889396,
				"element": "H" 
			},
			{
				"x": 0.6217004686,
				"y": -1.6668352284,
				"z": -4.6633732406,
				"element": "H" 
			},
			{
				"x": -1.1171558308,
				"y": -1.9411911487,
				"z": -4.661650135,
				"element": "H" 
			},
			{
				"x": 0.4991106793,
				"y": -0.4863189376,
				"z": -2.5048049772,
				"element": "H" 
			},
			{
				"x": -0.5405354853,
				"y": 0.3154695841,
				"z": -3.6713232162,
				"element": "H" 
			},
			{
				"x": -2.5494772007,
				"y": -0.4869303231,
				"z": -2.6636616455,
				"element": "H" 
			}
		],
		 "valence_orbital": [ 
			{
				"type": "occ",
				"energy": -0.30571,
				"method": "rhf"
			},
			{
				"type": "occ",
				"energy": -0.3025,
				"method": "rhf"
			},
			{
				"type": "occ",
				"energy": -0.29251,
				"method": "rhf"
			},
			{
				"type": "occ",
				"energy": -0.28462,
				"method": "rhf"
			},
			{
				"type": "occ",
				"energy": -0.25277,
				"method": "rhf"
			},
			{
				"type": "unocc",
				"energy": -0.04674,
				"method": "rhf"
			},
			{
				"type": "unocc",
				"energy": 0.00124,
				"method": "rhf"
			},
			{
				"type": "unocc",
				"energy": 0.02177,
				"method": "rhf"
			},
			{
				"type": "unocc",
				"energy": 0.06252,
				"method": "rhf"
			},
			{
				"type": "unocc",
				"energy": 0.08119,
				"method": "rhf"
			}
		],
		"cosmo_sigma_profile": { 
			"-0.025": 0.0,
			"-0.024": 0.0,
			"-0.023": 0.0,
			"-0.022": 0.0,
			"-0.021": 0.0,
			"-0.02": 0.0,
			"-0.019": 0.0,
			"-0.018": 0.0,
			"-0.017": 0.0,
			"-0.016": 0.0,
			"-0.015": 0.0,
			"-0.014": 0.0,
			"-0.013": 0.0,
			"-0.012": 0.0,
			"-0.011": 0.0,
			"-0.01": 0.0,
			"-0.009": 0.751527580816,
			"-0.008": 5.45777158283,
			"-0.007": 15.3393992427,
			"-0.006": 19.8222378114,
			"-0.005": 16.1602293697,
			"-0.004": 21.9557471247,
			"-0.003": 27.7099290223,
			"-0.002": 23.448593534,
			"-0.001": 23.891177854,
			"0.0": 17.9905889516,
			"0.001": 8.45145519131,
			"0.002": 5.61603407735,
			"0.003": 4.49250676513,
			"0.004": 4.62918908268,
			"0.005": 4.53144135686,
			"0.006": 5.51484722603,
			"0.007": 4.9687509234,
			"0.008": 3.94671630292,
			"0.009": 5.99559951614,
			"0.01": 7.96433745426,
			"0.011": 9.9965301518,
			"0.012": 9.06259236894,
			"0.013": 4.34266641346,
			"0.014": 1.11027312377,
			"0.015": 0.0,
			"0.016": 0.0,
			"0.017": 0.0,
			"0.018": 0.0,
			"0.019": 0.0,
			"0.02": 0.0,
			"0.021": 0.0,
			"0.022": 0.0,
			"0.023": 0.0,
			"0.024": 0.0,
			"0.0": 0.0
		}
	}
}
