{
	 "smiles": "CC(C)COC(=O)C1=C(C=CC=C1)C(=O)OCC(C)C", 
	 "Tm": 209.15, 
	 "num_atms": 42, 
	 "gaussian": { 
		 "optdone": 1, 
		 "sigma_profile": "yes", 
		 "theory": "DFT", 
		 "functional": "B3LYP", 
		 "basiset": "6-31G**", 
		 "properties": { 
			 "R2extent": 7357.951, 
			 "electric_dipole_moment_norm": 3.44569125721, 
			 "electric_quadrupole_moment_norm": 15.7666883803, 
			 "total_energy": -923.903757646, 
			 "HOMO_LUMO_gap": 0.20431, 
			 "cosmo_polarized_energy": -11.5, 
			 "cosmo_cavitation_energy": 44.55, 
			 "cosmo_dispersion_energy": -29.8, 
			 "cosmo_repulsion_energy": 2.32, 
			 "cosmo_total_nonelectrostatic_energy": 17.08, 
			 "SMD_solvation_energy": 9.04 
		},
		"coords": [
			{
				"x": -2.117100734,
				"y": 2.6604238261,
				"z": 3.2263151251,
				"element": "C" 
			},
			{
				"x": -1.8310634435,
				"y": 1.1581996842,
				"z": 3.3549885985,
				"element": "C" 
			},
			{
				"x": -1.8108195406,
				"y": 0.7134930934,
				"z": 4.8251342753,
				"element": "C" 
			},
			{
				"x": -0.5118059704,
				"y": 0.7705992701,
				"z": 2.692597574,
				"element": "C" 
			},
			{
				"x": -0.6002861652,
				"y": 1.0716324862,
				"z": 1.2802998943,
				"element": "O" 
			},
			{
				"x": 0.4980945764,
				"y": 0.7885107032,
				"z": 0.5491215466,
				"element": "C" 
			},
			{
				"x": 1.5099428885,
				"y": 0.3034819226,
				"z": 1.0127997065,
				"element": "O" 
			},
			{
				"x": 0.3431575209,
				"y": 1.2107121017,
				"z": -0.8783647431,
				"element": "C" 
			},
			{
				"x": 0.9347321194,
				"y": 0.485789492,
				"z": -1.9331952832,
				"element": "C" 
			},
			{
				"x": 0.9228650872,
				"y": 1.0264033731,
				"z": -3.2241281116,
				"element": "C" 
			},
			{
				"x": 0.3082058235,
				"y": 2.2501699149,
				"z": -3.4840450251,
				"element": "C" 
			},
			{
				"x": -0.3059765077,
				"y": 2.9510741513,
				"z": -2.4467370191,
				"element": "C" 
			},
			{
				"x": -0.2837713233,
				"y": 2.4328665602,
				"z": -1.1524790523,
				"element": "C" 
			},
			{
				"x": 1.5338914744,
				"y": -0.8873217134,
				"z": -1.8181859849,
				"element": "C" 
			},
			{
				"x": 2.463839988,
				"y": -1.2594351176,
				"z": -2.5063744218,
				"element": "O" 
			},
			{
				"x": 0.8515292578,
				"y": -1.684136767,
				"z": -0.9731122076,
				"element": "O" 
			},
			{
				"x": 1.2614002075,
				"y": -3.0749323815,
				"z": -0.9352904056,
				"element": "C" 
			},
			{
				"x": 2.425526218,
				"y": -3.3467337863,
				"z": 0.0219329089,
				"element": "C" 
			},
			{
				"x": 2.0653489777,
				"y": -3.0234831179,
				"z": 1.4774479538,
				"element": "C" 
			},
			{
				"x": 2.8637777264,
				"y": -4.8108877021,
				"z": -0.1389740388,
				"element": "C" 
			},
			{
				"x": -1.342662743,
				"y": 3.2502060633,
				"z": 3.7320537993,
				"element": "H" 
			},
			{
				"x": -2.1479722958,
				"y": 2.9699184012,
				"z": 2.1782273883,
				"element": "H" 
			},
			{
				"x": -3.0794869564,
				"y": 2.9138631706,
				"z": 3.682744707,
				"element": "H" 
			},
			{
				"x": -2.6283542208,
				"y": 0.6074598921,
				"z": 2.8372728485,
				"element": "H" 
			},
			{
				"x": -1.6458244398,
				"y": -0.3651699395,
				"z": 4.9199820776,
				"element": "H" 
			},
			{
				"x": -1.0161019614,
				"y": 1.2246812647,
				"z": 5.3816075099,
				"element": "H" 
			},
			{
				"x": -2.7607739671,
				"y": 0.9509610441,
				"z": 5.3138610483,
				"element": "H" 
			},
			{
				"x": 0.3331689372,
				"y": 1.3224822936,
				"z": 3.1209929953,
				"element": "H" 
			},
			{
				"x": -0.3028225487,
				"y": -0.2976218461,
				"z": 2.8084904815,
				"element": "H" 
			},
			{
				"x": 1.3969950288,
				"y": 0.4619028147,
				"z": -4.0196218185,
				"element": "H" 
			},
			{
				"x": 0.3058998383,
				"y": 2.6503763736,
				"z": -4.4934815392,
				"element": "H" 
			},
			{
				"x": -0.7912001267,
				"y": 3.9033110089,
				"z": -2.6391533524,
				"element": "H" 
			},
			{
				"x": -0.7344299596,
				"y": 2.9849041086,
				"z": -0.3353880022,
				"element": "H" 
			},
			{
				"x": 1.5232816108,
				"y": -3.3805550543,
				"z": -1.951594031,
				"element": "H" 
			},
			{
				"x": 0.3619749683,
				"y": -3.6095736156,
				"z": -0.6140879247,
				"element": "H" 
			},
			{
				"x": 3.2565754391,
				"y": -2.7027763632,
				"z": -0.2898887854,
				"element": "H" 
			},
			{
				"x": 1.787081889,
				"y": -1.9737028773,
				"z": 1.5918983707,
				"element": "H" 
			},
			{
				"x": 2.9168087119,
				"y": -3.2226166518,
				"z": 2.1372599893,
				"element": "H" 
			},
			{
				"x": 1.2294865261,
				"y": -3.6480734176,
				"z": 1.8194564634,
				"element": "H" 
			},
			{
				"x": 3.1721551109,
				"y": -5.0317509096,
				"z": -1.1665892087,
				"element": "H" 
			},
			{
				"x": 2.051294965,
				"y": -5.4996162333,
				"z": 0.1250298671,
				"element": "H" 
			},
			{
				"x": 3.7092180128,
				"y": -5.0342355203,
				"z": 0.5192758259,
				"element": "H" 
			}
		],
		 "valence_orbital": [ 
			{
				"type": "occ",
				"energy": -0.28686,
				"method": "rhf"
			},
			{
				"type": "occ",
				"energy": -0.28034,
				"method": "rhf"
			},
			{
				"type": "occ",
				"energy": -0.27459,
				"method": "rhf"
			},
			{
				"type": "occ",
				"energy": -0.26179,
				"method": "rhf"
			},
			{
				"type": "occ",
				"energy": -0.25726,
				"method": "rhf"
			},
			{
				"type": "unocc",
				"energy": -0.05295,
				"method": "rhf"
			},
			{
				"type": "unocc",
				"energy": -0.02514,
				"method": "rhf"
			},
			{
				"type": "unocc",
				"energy": 0.03246,
				"method": "rhf"
			},
			{
				"type": "unocc",
				"energy": 0.04651,
				"method": "rhf"
			},
			{
				"type": "unocc",
				"energy": 0.07609,
				"method": "rhf"
			}
		],
		"cosmo_sigma_profile": { 
			"-0.025": 0.0,
			"-0.024": 0.0,
			"-0.023": 0.0,
			"-0.022": 0.0,
			"-0.021": 0.0,
			"-0.02": 0.0,
			"-0.019": 0.0,
			"-0.018": 0.0,
			"-0.017": 0.0,
			"-0.016": 0.0,
			"-0.015": 0.0,
			"-0.014": 0.0,
			"-0.013": 0.0,
			"-0.012": 0.0,
			"-0.011": 0.0,
			"-0.01": 0.0,
			"-0.009": 0.0,
			"-0.008": 0.143114690122,
			"-0.007": 4.27265786378,
			"-0.006": 8.93304547388,
			"-0.005": 14.3448248632,
			"-0.004": 23.7362674586,
			"-0.003": 43.3758704937,
			"-0.002": 42.1207870489,
			"-0.001": 38.0589486461,
			"0.0": 36.3666337747,
			"0.001": 43.1435236886,
			"0.002": 30.8325617819,
			"0.003": 17.9152797413,
			"0.004": 7.97907337892,
			"0.005": 6.7482269536,
			"0.006": 6.07642533417,
			"0.007": 5.00237794504,
			"0.008": 3.88024575692,
			"0.009": 2.6600182389,
			"0.01": 4.00662416317,
			"0.011": 5.4730308672,
			"0.012": 4.02260032287,
			"0.013": 0.134572354397,
			"0.014": 0.0,
			"0.015": 0.0,
			"0.016": 0.0,
			"0.017": 0.0,
			"0.018": 0.0,
			"0.019": 0.0,
			"0.02": 0.0,
			"0.021": 0.0,
			"0.022": 0.0,
			"0.023": 0.0,
			"0.024": 0.0,
			"0.025": 0.0
		}
	}
}
