{
	 "smiles": "COC1=CC=C(NC2=NNC(N)=C2C#N)C=C1", 
	 "Tm": 393.15, 
	 "num_atms": 28, 
	 "gaussian": { 
		 "optdone": 1, 
		 "sigma_profile": "yes", 
		 "theory": "DFT", 
		 "functional": "B3LYP", 
		 "basiset": "6-31G**", 
		 "properties": { 
			 "R2extent": 6235.4977, 
			 "electric_dipole_moment_norm": 5.52124116662, 
			 "electric_quadrupole_moment_norm": 26.3881750803, 
			 "total_energy": -774.736948143, 
			 "HOMO_LUMO_gap": 0.18034, 
			 "cosmo_polarized_energy": -24.27, 
			 "cosmo_cavitation_energy": 33.79, 
			 "cosmo_dispersion_energy": -24.53, 
			 "cosmo_repulsion_energy": 1.91, 
			 "cosmo_total_nonelectrostatic_energy": 11.17, 
			 "SMD_solvation_energy": 6.88 
		},
		"coords": [
			{
				"x": -4.5703028384,
				"y": 2.2236474724,
				"z": -3.4685362893,
				"element": "C" 
			},
			{
				"x": -4.2396135735,
				"y": 2.6453877206,
				"z": -2.1578903362,
				"element": "O" 
			},
			{
				"x": -3.3086892097,
				"y": 1.9165241604,
				"z": -1.4659041393,
				"element": "C" 
			},
			{
				"x": -2.6535605988,
				"y": 0.7825163154,
				"z": -1.9509717464,
				"element": "C" 
			},
			{
				"x": -1.7154409119,
				"y": 0.1067584237,
				"z": -1.1626738347,
				"element": "C" 
			},
			{
				"x": -1.4207180693,
				"y": 0.560183998,
				"z": 0.1282145078,
				"element": "C" 
			},
			{
				"x": -0.4934454071,
				"y": -0.0593114344,
				"z": 0.9841691371,
				"element": "N" 
			},
			{
				"x": 0.2824165627,
				"y": -1.1716522819,
				"z": 0.7840497774,
				"element": "C" 
			},
			{
				"x": 0.295437362,
				"y": -1.9068697067,
				"z": -0.3187603481,
				"element": "N" 
			},
			{
				"x": 1.2045840198,
				"y": -2.9135121766,
				"z": -0.0405085769,
				"element": "N" 
			},
			{
				"x": 1.7631479496,
				"y": -2.814590891,
				"z": 1.1816125186,
				"element": "C" 
			},
			{
				"x": 2.7499109912,
				"y": -3.6587826082,
				"z": 1.6423694271,
				"element": "N" 
			},
			{
				"x": 1.1861126285,
				"y": -1.6910329766,
				"z": 1.7817687744,
				"element": "C" 
			},
			{
				"x": 1.4175759928,
				"y": -1.2107884483,
				"z": 3.0841808457,
				"element": "C" 
			},
			{
				"x": 1.5975943333,
				"y": -0.8025004574,
				"z": 4.1633760813,
				"element": "N" 
			},
			{
				"x": -2.085478392,
				"y": 1.7038813618,
				"z": 0.6099358953,
				"element": "C" 
			},
			{
				"x": -3.0137631219,
				"y": 2.3719081255,
				"z": -0.1726849763,
				"element": "C" 
			},
			{
				"x": -4.9974799692,
				"y": 1.2117335956,
				"z": -3.4755827408,
				"element": "H" 
			},
			{
				"x": -5.3177426721,
				"y": 2.9293486094,
				"z": -3.8354034048,
				"element": "H" 
			},
			{
				"x": -3.6981264703,
				"y": 2.2447020181,
				"z": -4.135886409,
				"element": "H" 
			},
			{
				"x": -2.8584447395,
				"y": 0.4047576974,
				"z": -2.9459434799,
				"element": "H" 
			},
			{
				"x": -1.2146556209,
				"y": -0.7700273001,
				"z": -1.5493889511,
				"element": "H" 
			},
			{
				"x": -0.3755860935,
				"y": 0.3757340609,
				"z": 1.8872357694,
				"element": "H" 
			},
			{
				"x": 1.4774867742,
				"y": -3.5314489968,
				"z": -0.7872833717,
				"element": "H" 
			},
			{
				"x": 2.9548168623,
				"y": -3.5427052205,
				"z": 2.6263666597,
				"element": "H" 
			},
			{
				"x": 2.6506357633,
				"y": -4.6326300503,
				"z": 1.3867828981,
				"element": "H" 
			},
			{
				"x": -1.8692233948,
				"y": 2.0708698276,
				"z": 1.6109375706,
				"element": "H" 
			},
			{
				"x": -3.5254481566,
				"y": 3.253399162,
				"z": 0.1994187421,
				"element": "H" 
			}
		],
		 "valence_orbital": [ 
			{
				"type": "occ",
				"energy": -0.29266,
				"method": "rhf"
			},
			{
				"type": "occ",
				"energy": -0.24693,
				"method": "rhf"
			},
			{
				"type": "occ",
				"energy": -0.24198,
				"method": "rhf"
			},
			{
				"type": "occ",
				"energy": -0.22725,
				"method": "rhf"
			},
			{
				"type": "occ",
				"energy": -0.18174,
				"method": "rhf"
			},
			{
				"type": "unocc",
				"energy": -0.0014,
				"method": "rhf"
			},
			{
				"type": "unocc",
				"energy": 0.00573,
				"method": "rhf"
			},
			{
				"type": "unocc",
				"energy": 0.01324,
				"method": "rhf"
			},
			{
				"type": "unocc",
				"energy": 0.01787,
				"method": "rhf"
			},
			{
				"type": "unocc",
				"energy": 0.05076,
				"method": "rhf"
			}
		],
		"cosmo_sigma_profile": { 
			"-0.025": 0.0,
			"-0.024": 0.0,
			"-0.023": 0.0,
			"-0.022": 0.0,
			"-0.021": 0.0,
			"-0.02": 0.0,
			"-0.019": 0.0,
			"-0.018": 0.0,
			"-0.017": 1.50897499155,
			"-0.016": 2.50511146952,
			"-0.015": 2.4765898379,
			"-0.014": 4.04887888367,
			"-0.013": 4.63741802508,
			"-0.012": 4.6082792254,
			"-0.011": 4.8192438717,
			"-0.01": 4.29588972501,
			"-0.009": 3.90284414169,
			"-0.008": 4.01771451864,
			"-0.007": 3.89142800163,
			"-0.006": 8.83614375439,
			"-0.005": 15.8536721488,
			"-0.004": 16.468135613,
			"-0.003": 18.0230720966,
			"-0.002": 11.2315265692,
			"-0.001": 10.4169829498,
			"0.0": 9.95861588659,
			"0.001": 13.5045634046,
			"0.002": 18.025682351,
			"0.003": 15.8572244905,
			"0.004": 19.3773749178,
			"0.005": 16.9960941182,
			"0.006": 14.393719263,
			"0.007": 6.41901092491,
			"0.008": 6.4945743369,
			"0.009": 7.2083265611,
			"0.01": 7.3358631306,
			"0.011": 6.39853093269,
			"0.012": 3.31265691856,
			"0.013": 2.63681423678,
			"0.014": 1.2616774442,
			"0.015": 0.0,
			"0.016": 0.0,
			"0.017": 0.0,
			"0.018": 0.0,
			"0.019": 0.0,
			"0.02": 0.0,
			"0.021": 0.0,
			"0.022": 0.0,
			"0.023": 0.0,
			"0.024": 0.0,
			"0.025": 0.0
		}
	}
}
