{
	 "smiles": "NC1=CC=C(C=C1)N1CCOCC1", 
	 "Tm": 403.15, 
	 "num_atms": 27, 
	 "gaussian": { 
		 "optdone": 1, 
		 "sigma_profile": "yes", 
		 "theory": "DFT", 
		 "functional": "B3LYP", 
		 "basiset": "6-31G**", 
		 "properties": { 
			 "R2extent": 3384.6924, 
			 "electric_dipole_moment_norm": 1.54347739212, 
			 "electric_quadrupole_moment_norm": 9.18340840865, 
			 "total_energy": -574.199443685, 
			 "HOMO_LUMO_gap": 0.17304, 
			 "cosmo_polarized_energy": -11.39, 
			 "cosmo_cavitation_energy": 28.4, 
			 "cosmo_dispersion_energy": -21.53, 
			 "cosmo_repulsion_energy": 1.7, 
			 "cosmo_total_nonelectrostatic_energy": 8.57, 
			 "SMD_solvation_energy": 3.53 
		},
		"coords": [
			{
				"x": -1.3378748437,
				"y": -3.5541851384,
				"z": 1.4228750236,
				"element": "N" 
			},
			{
				"x": -1.0904854141,
				"y": -2.2874292687,
				"z": 0.8588605288,
				"element": "C" 
			},
			{
				"x": -1.7146576229,
				"y": -1.1353992181,
				"z": 1.3551675376,
				"element": "C" 
			},
			{
				"x": -1.4191344648,
				"y": 0.1280462633,
				"z": 0.8473061404,
				"element": "C" 
			},
			{
				"x": -0.4888804036,
				"y": 0.2976846918,
				"z": -0.1969982701,
				"element": "C" 
			},
			{
				"x": 0.1292869394,
				"y": -0.8656055858,
				"z": -0.6992432195,
				"element": "C" 
			},
			{
				"x": -0.1604353682,
				"y": -2.1230619241,
				"z": -0.1775738447,
				"element": "C" 
			},
			{
				"x": -0.2011143201,
				"y": 1.5567486904,
				"z": -0.7322745746,
				"element": "N" 
			},
			{
				"x": 1.0670829658,
				"y": 1.8142101696,
				"z": -1.4083357882,
				"element": "C" 
			},
			{
				"x": 1.5394321805,
				"y": 3.2385122821,
				"z": -1.1194300455,
				"element": "C" 
			},
			{
				"x": 0.6005497419,
				"y": 4.2313764755,
				"z": -1.5146731713,
				"element": "O" 
			},
			{
				"x": -0.7633494074,
				"y": 3.8381407588,
				"z": -1.378329286,
				"element": "C" 
			},
			{
				"x": -0.9768904815,
				"y": 2.7261471005,
				"z": -0.3538310506,
				"element": "C" 
			},
			{
				"x": -1.1797508722,
				"y": -4.3210162368,
				"z": 0.7812087442,
				"element": "H" 
			},
			{
				"x": -2.2537209531,
				"y": -3.6371993068,
				"z": 1.8458912728,
				"element": "H" 
			},
			{
				"x": -2.4335842795,
				"y": -1.2232430068,
				"z": 2.1668595778,
				"element": "H" 
			},
			{
				"x": -1.9120924753,
				"y": 0.9878952663,
				"z": 1.2866831214,
				"element": "H" 
			},
			{
				"x": 0.8277401645,
				"y": -0.7958175652,
				"z": -1.5262408214,
				"element": "H" 
			},
			{
				"x": 0.3408417804,
				"y": -2.9955577773,
				"z": -0.5909632099,
				"element": "H" 
			},
			{
				"x": 0.9901023823,
				"y": 1.6646885148,
				"z": -2.4975151849,
				"element": "H" 
			},
			{
				"x": 1.8315523137,
				"y": 1.1197217353,
				"z": -1.039498384,
				"element": "H" 
			},
			{
				"x": 1.7634984902,
				"y": 3.3311335095,
				"z": -0.0449199284,
				"element": "H" 
			},
			{
				"x": 2.4632823377,
				"y": 3.4435560238,
				"z": -1.6703383531,
				"element": "H" 
			},
			{
				"x": -1.3287040648,
				"y": 4.728926171,
				"z": -1.0823126221,
				"element": "H" 
			},
			{
				"x": -1.1499061949,
				"y": 3.5008910593,
				"z": -2.3522242792,
				"element": "H" 
			},
			{
				"x": -2.0430487585,
				"y": 2.4698482657,
				"z": -0.3477710452,
				"element": "H" 
			},
			{
				"x": -0.7301393716,
				"y": 3.0953880503,
				"z": 0.657721132,
				"element": "H" 
			}
		],
		 "valence_orbital": [ 
			{
				"type": "occ",
				"energy": -0.30155,
				"method": "rhf"
			},
			{
				"type": "occ",
				"energy": -0.24936,
				"method": "rhf"
			},
			{
				"type": "occ",
				"energy": -0.23815,
				"method": "rhf"
			},
			{
				"type": "occ",
				"energy": -0.23768,
				"method": "rhf"
			},
			{
				"type": "occ",
				"energy": -0.16442,
				"method": "rhf"
			},
			{
				"type": "unocc",
				"energy": 0.00862,
				"method": "rhf"
			},
			{
				"type": "unocc",
				"energy": 0.03806,
				"method": "rhf"
			},
			{
				"type": "unocc",
				"energy": 0.08449,
				"method": "rhf"
			},
			{
				"type": "unocc",
				"energy": 0.08914,
				"method": "rhf"
			},
			{
				"type": "unocc",
				"energy": 0.10918,
				"method": "rhf"
			}
		],
		"cosmo_sigma_profile": { 
			"-0.025": 0.0,
			"-0.024": 0.0,
			"-0.023": 0.0,
			"-0.022": 0.0,
			"-0.021": 0.0,
			"-0.02": 0.0,
			"-0.019": 0.0,
			"-0.018": 0.0,
			"-0.017": 0.0,
			"-0.016": 0.0,
			"-0.015": 0.0,
			"-0.014": 0.0,
			"-0.013": 0.0,
			"-0.012": 0.471893721807,
			"-0.011": 2.46834558826,
			"-0.01": 2.6889240512,
			"-0.009": 3.30632108746,
			"-0.008": 2.80439178438,
			"-0.007": 2.61179898676,
			"-0.006": 3.86130357125,
			"-0.005": 17.0588945108,
			"-0.004": 25.8799379265,
			"-0.003": 32.999272704,
			"-0.002": 21.7125556729,
			"-0.001": 14.1204615821,
			"0.0": 8.66052380221,
			"0.001": 7.96972095837,
			"0.002": 8.41546749882,
			"0.003": 7.55001125599,
			"0.004": 8.22733787672,
			"0.005": 8.26487785538,
			"0.006": 8.705782211,
			"0.007": 11.0979451203,
			"0.008": 9.60766061654,
			"0.009": 2.0846290892,
			"0.01": 2.10168535016,
			"0.011": 2.4182653279,
			"0.012": 1.85562270077,
			"0.013": 2.54943382854,
			"0.014": 1.65825720514,
			"0.015": 0.570996175712,
			"0.016": 0.574195387714,
			"0.017": 0.194802648091,
			"0.018": 0.0,
			"0.019": 0.0,
			"0.02": 0.0,
			"0.021": 0.0,
			"0.022": 0.0,
			"0.023": 0.0,
			"0.024": 0.0,
			"0.025": 0.0
		}
	}
}
