{
	 "smiles": "FC1=C(F)C(F)=C(OC(=O)C2=CC(=CC=C2)C2=NC=CS2)C(F)=C1F", 
	 "Tm": 342.15, 
	 "num_atms": 31, 
	 "gaussian": { 
		 "optdone": 1, 
		 "sigma_profile": "yes", 
		 "theory": "DFT", 
		 "functional": "B3LYP", 
		 "basiset": "6-31G**", 
		 "properties": { 
			 "R2extent": 12815.3637, 
			 "electric_dipole_moment_norm": 4.42362994044, 
			 "electric_quadrupole_moment_norm": 11.3337195651, 
			 "total_energy": -1715.83426392, 
			 "HOMO_LUMO_gap": 0.164, 
			 "cosmo_polarized_energy": -9.58, 
			 "cosmo_cavitation_energy": 42.77, 
			 "cosmo_dispersion_energy": -29.82, 
			 "cosmo_repulsion_energy": 2.08, 
			 "cosmo_total_nonelectrostatic_energy": 15.03, 
			 "SMD_solvation_energy": 9.37 
		},
		"coords": [
			{
				"x": -2.1776661816,
				"y": 4.3574899453,
				"z": -4.0251972861,
				"element": "F" 
			},
			{
				"x": -1.6179301119,
				"y": 3.5582986186,
				"z": -3.1133047879,
				"element": "C" 
			},
			{
				"x": -1.7877674056,
				"y": 3.8258738932,
				"z": -1.7559989193,
				"element": "C" 
			},
			{
				"x": -2.5057878536,
				"y": 4.8849237913,
				"z": -1.369212192,
				"element": "F" 
			},
			{
				"x": -1.2040656815,
				"y": 2.9888502101,
				"z": -0.8080813553,
				"element": "C" 
			},
			{
				"x": -1.3573923259,
				"y": 3.2527147228,
				"z": 0.4923378841,
				"element": "F" 
			},
			{
				"x": -0.4620945382,
				"y": 1.8779775524,
				"z": -1.2068810051,
				"element": "C" 
			},
			{
				"x": 0.0559422524,
				"y": 1.0143530592,
				"z": -0.2666023192,
				"element": "O" 
			},
			{
				"x": 1.3363425113,
				"y": 1.2915680914,
				"z": 0.1858949379,
				"element": "C" 
			},
			{
				"x": 1.9727103927,
				"y": 2.2351577923,
				"z": -0.2150051161,
				"element": "O" 
			},
			{
				"x": 1.7893896907,
				"y": 0.2997415728,
				"z": 1.1924639106,
				"element": "C" 
			},
			{
				"x": 0.9867670811,
				"y": -0.7675519605,
				"z": 1.6032553024,
				"element": "C" 
			},
			{
				"x": 1.4611003621,
				"y": -1.6796310713,
				"z": 2.5592246796,
				"element": "C" 
			},
			{
				"x": 2.7485385753,
				"y": -1.4990987571,
				"z": 3.0899978485,
				"element": "C" 
			},
			{
				"x": 3.5470542478,
				"y": -0.4326559661,
				"z": 2.6776807131,
				"element": "C" 
			},
			{
				"x": 3.0745556502,
				"y": 0.470008886,
				"z": 1.7301372283,
				"element": "C" 
			},
			{
				"x": 0.589374176,
				"y": -2.7906342925,
				"z": 2.9683800421,
				"element": "C" 
			},
			{
				"x": -0.6133596805,
				"y": -2.9839519912,
				"z": 2.4917672764,
				"element": "N" 
			},
			{
				"x": -1.2046960152,
				"y": -4.0897800645,
				"z": 3.0433888144,
				"element": "C" 
			},
			{
				"x": -0.4594026839,
				"y": -4.7724478885,
				"z": 3.962800901,
				"element": "C" 
			},
			{
				"x": 1.0768045852,
				"y": -3.9999174029,
				"z": 4.1622275675,
				"element": "S" 
			},
			{
				"x": -0.2866557705,
				"y": 1.6248073635,
				"z": -2.566563454,
				"element": "C" 
			},
			{
				"x": 0.4425801767,
				"y": 0.5763369641,
				"z": -2.9579106829,
				"element": "F" 
			},
			{
				"x": -0.8670916747,
				"y": 2.4569572494,
				"z": -3.5207681473,
				"element": "C" 
			},
			{
				"x": -0.7037814492,
				"y": 2.2055114016,
				"z": -4.8234021005,
				"element": "F" 
			},
			{
				"x": -0.0055809673,
				"y": -0.9064663026,
				"z": 1.1938936093,
				"element": "H" 
			},
			{
				"x": 3.1338512074,
				"y": -2.1941647522,
				"z": 3.8308824945,
				"element": "H" 
			},
			{
				"x": 4.5397014547,
				"y": -0.3089187472,
				"z": 3.0989726452,
				"element": "H" 
			},
			{
				"x": 3.6773208366,
				"y": 1.3065765935,
				"z": 1.3944890652,
				"element": "H" 
			},
			{
				"x": -2.2066369842,
				"y": -4.3641201361,
				"z": 2.7345537251,
				"element": "H" 
			},
			{
				"x": -0.7176238765,
				"y": -5.6616083747,
				"z": 4.5196787206,
				"element": "H" 
			}
		],
		 "valence_orbital": [ 
			{
				"type": "occ",
				"energy": -0.28452,
				"method": "rhf"
			},
			{
				"type": "occ",
				"energy": -0.27648,
				"method": "rhf"
			},
			{
				"type": "occ",
				"energy": -0.26426,
				"method": "rhf"
			},
			{
				"type": "occ",
				"energy": -0.25977,
				"method": "rhf"
			},
			{
				"type": "occ",
				"energy": -0.23632,
				"method": "rhf"
			},
			{
				"type": "unocc",
				"energy": -0.07232,
				"method": "rhf"
			},
			{
				"type": "unocc",
				"energy": -0.05581,
				"method": "rhf"
			},
			{
				"type": "unocc",
				"energy": -0.02682,
				"method": "rhf"
			},
			{
				"type": "unocc",
				"energy": -0.01947,
				"method": "rhf"
			},
			{
				"type": "unocc",
				"energy": -0.00132,
				"method": "rhf"
			}
		],
		"cosmo_sigma_profile": { 
			"-0.025": 0.0,
			"-0.024": 0.0,
			"-0.023": 0.0,
			"-0.022": 0.0,
			"-0.021": 0.0,
			"-0.02": 0.0,
			"-0.019": 0.0,
			"-0.018": 0.0,
			"-0.017": 0.0,
			"-0.016": 0.0,
			"-0.015": 0.0,
			"-0.014": 0.0,
			"-0.013": 0.0,
			"-0.012": 0.0,
			"-0.011": 0.0,
			"-0.01": 0.434901871783,
			"-0.009": 2.2601289685,
			"-0.008": 4.03080827728,
			"-0.007": 9.33017022307,
			"-0.006": 11.4503916512,
			"-0.005": 12.9710533816,
			"-0.004": 25.6704283754,
			"-0.003": 23.4577778884,
			"-0.002": 22.1427592879,
			"-0.001": 26.9658180269,
			"0.0": 32.3980427563,
			"0.001": 43.3267063669,
			"0.002": 76.6076560169,
			"0.003": 30.4178703577,
			"0.004": 5.0185119616,
			"0.005": 3.62687034654,
			"0.006": 2.95600720258,
			"0.007": 3.10024663649,
			"0.008": 3.14140625743,
			"0.009": 3.30616744032,
			"0.01": 5.23796890657,
			"0.011": 1.76465069843,
			"0.012": 0.61869551518,
			"0.013": 0.0,
			"0.014": 0.0,
			"0.015": 0.0,
			"0.016": 0.0,
			"0.017": 0.0,
			"0.018": 0.0,
			"0.019": 0.0,
			"0.02": 0.0,
			"0.021": 0.0,
			"0.022": 0.0,
			"0.023": 0.0,
			"0.024": 0.0,
			"0.025": 0.0
		}
	}
}
