{
	 "smiles": "CN(C)C1=NC(N)=NC=C1", 
	 "Tm": 431.15, 
	 "num_atms": 20, 
	 "gaussian": { 
		 "optdone": 1, 
		 "sigma_profile": "yes", 
		 "theory": "DFT", 
		 "functional": "B3LYP", 
		 "basiset": "6-31G**", 
		 "properties": { 
			 "R2extent": 2038.8034, 
			 "electric_dipole_moment_norm": 2.65076408984, 
			 "electric_quadrupole_moment_norm": 9.90743489002, 
			 "total_energy": -453.687147612, 
			 "HOMO_LUMO_gap": 0.20027, 
			 "cosmo_polarized_energy": -10.75, 
			 "cosmo_cavitation_energy": 23.04, 
			 "cosmo_dispersion_energy": -17.42, 
			 "cosmo_repulsion_energy": 1.42, 
			 "cosmo_total_nonelectrostatic_energy": 7.04, 
			 "SMD_solvation_energy": 1.57 
		},
		"coords": [
			{
				"x": -3.0550001516,
				"y": 1.5776799728,
				"z": -1.9213805297,
				"element": "C" 
			},
			{
				"x": -1.6329541324,
				"y": 1.3760914069,
				"z": -2.1599419574,
				"element": "N" 
			},
			{
				"x": -0.9750138793,
				"y": 2.2985790418,
				"z": -3.0681844159,
				"element": "C" 
			},
			{
				"x": -0.8935488645,
				"y": 0.534222392,
				"z": -1.3675498919,
				"element": "C" 
			},
			{
				"x": -1.5589790837,
				"y": -0.232163964,
				"z": -0.4848848906,
				"element": "N" 
			},
			{
				"x": -0.8338903003,
				"y": -1.0761092074,
				"z": 0.2627987189,
				"element": "C" 
			},
			{
				"x": -1.533733873,
				"y": -1.8904280354,
				"z": 1.1156071052,
				"element": "N" 
			},
			{
				"x": 0.5037064085,
				"y": -1.2325142497,
				"z": 0.2547756192,
				"element": "N" 
			},
			{
				"x": 1.1422837487,
				"y": -0.4483356306,
				"z": -0.6219504798,
				"element": "C" 
			},
			{
				"x": 0.5186442861,
				"y": 0.4553321976,
				"z": -1.4667697187,
				"element": "C" 
			},
			{
				"x": -3.5941321182,
				"y": 1.5908375233,
				"z": -2.8751243918,
				"element": "H" 
			},
			{
				"x": -3.2487034572,
				"y": 2.5276299303,
				"z": -1.4019250212,
				"element": "H" 
			},
			{
				"x": -3.4262078694,
				"y": 0.7612551179,
				"z": -1.3059052994,
				"element": "H" 
			},
			{
				"x": -0.2651634158,
				"y": 1.7758402858,
				"z": -3.7171991587,
				"element": "H" 
			},
			{
				"x": -0.4366098204,
				"y": 3.101481431,
				"z": -2.5430034327,
				"element": "H" 
			},
			{
				"x": -1.7309817253,
				"y": 2.7592536452,
				"z": -3.7073550081,
				"element": "H" 
			},
			{
				"x": -2.481045413,
				"y": -1.6195416995,
				"z": 1.3258409891,
				"element": "H" 
			},
			{
				"x": -0.9963240253,
				"y": -2.3359141092,
				"z": 1.8424484803,
				"element": "H" 
			},
			{
				"x": 2.2272843648,
				"y": -0.5471808037,
				"z": -0.6441750551,
				"element": "H" 
			},
			{
				"x": 1.0973693212,
				"y": 1.0703847548,
				"z": -2.1412216617,
				"element": "H" 
			}
		],
		 "valence_orbital": [ 
			{
				"type": "occ",
				"energy": -0.30095,
				"method": "rhf"
			},
			{
				"type": "occ",
				"energy": -0.28911,
				"method": "rhf"
			},
			{
				"type": "occ",
				"energy": -0.23294,
				"method": "rhf"
			},
			{
				"type": "occ",
				"energy": -0.2273,
				"method": "rhf"
			},
			{
				"type": "occ",
				"energy": -0.20094,
				"method": "rhf"
			},
			{
				"type": "unocc",
				"energy": -0.00067,
				"method": "rhf"
			},
			{
				"type": "unocc",
				"energy": 0.02658,
				"method": "rhf"
			},
			{
				"type": "unocc",
				"energy": 0.09242,
				"method": "rhf"
			},
			{
				"type": "unocc",
				"energy": 0.10415,
				"method": "rhf"
			},
			{
				"type": "unocc",
				"energy": 0.12003,
				"method": "rhf"
			}
		],
		"cosmo_sigma_profile": { 
			"-0.025": 0.0,
			"-0.024": 0.0,
			"-0.023": 0.0,
			"-0.022": 0.0,
			"-0.021": 0.0,
			"-0.02": 0.0,
			"-0.019": 0.0,
			"-0.018": 0.0,
			"-0.017": 0.0,
			"-0.016": 0.0,
			"-0.015": 0.0,
			"-0.014": 0.00176980228772,
			"-0.013": 1.12387091721,
			"-0.012": 1.9173914251,
			"-0.011": 2.22435320841,
			"-0.01": 1.61330412163,
			"-0.009": 2.01588010929,
			"-0.008": 1.73666570656,
			"-0.007": 1.71203526591,
			"-0.006": 6.56054325061,
			"-0.005": 12.538288404,
			"-0.004": 16.9696303995,
			"-0.003": 17.1834360873,
			"-0.002": 19.5454788076,
			"-0.001": 14.1184761915,
			"0.0": 8.09679171263,
			"0.001": 7.4584458742,
			"0.002": 11.2573354295,
			"0.003": 10.6680923972,
			"0.004": 10.4235572248,
			"0.005": 6.80673518272,
			"0.006": 4.51155115998,
			"0.007": 4.52065248074,
			"0.008": 4.33146823819,
			"0.009": 4.24757149554,
			"0.01": 3.33566302248,
			"0.011": 1.7203062996,
			"0.012": 1.34746429084,
			"0.013": 0.934236862841,
			"0.014": 1.12200750872,
			"0.015": 0.585694619048,
			"0.016": 0.902618800866,
			"0.017": 0.500148768156,
			"0.018": 0.00414167104873,
			"0.019": 0.0,
			"0.02": 0.0,
			"0.021": 0.0,
			"0.022": 0.0,
			"0.023": 0.0,
			"0.024": 0.0,
			"0.025": 0.0
		}
	}
}
