{
	 "smiles": "CC1=CN=CC(=N1)N1CCC(CC1)C(O)=O", 
	 "Tm": 425.15, 
	 "num_atms": 31, 
	 "gaussian": { 
		 "optdone": 1, 
		 "sigma_profile": "yes", 
		 "theory": "DFT", 
		 "functional": "B3LYP", 
		 "basiset": "6-31G**", 
		 "properties": { 
			 "R2extent": 4712.778, 
			 "electric_dipole_moment_norm": 3.85956075869, 
			 "electric_quadrupole_moment_norm": 16.4069077888, 
			 "total_energy": -742.924630311, 
			 "HOMO_LUMO_gap": 0.17144, 
			 "cosmo_polarized_energy": -18.22, 
			 "cosmo_cavitation_energy": 32.78, 
			 "cosmo_dispersion_energy": -23.71, 
			 "cosmo_repulsion_energy": 1.83, 
			 "cosmo_total_nonelectrostatic_energy": 10.9, 
			 "SMD_solvation_energy": 2.93 
		},
		"coords": [
			{
				"x": 2.307426732,
				"y": 2.0892324996,
				"z": 2.8846325115,
				"element": "C" 
			},
			{
				"x": 2.4635127722,
				"y": 0.7962937347,
				"z": 2.1279451397,
				"element": "C" 
			},
			{
				"x": 3.3115668126,
				"y": -0.2207858143,
				"z": 2.5652718419,
				"element": "C" 
			},
			{
				"x": 3.4432106323,
				"y": -1.3660226918,
				"z": 1.8775079101,
				"element": "N" 
			},
			{
				"x": 2.7402257356,
				"y": -1.5011227986,
				"z": 0.7629696677,
				"element": "C" 
			},
			{
				"x": 1.866520096,
				"y": -0.4777492731,
				"z": 0.2988611873,
				"element": "C" 
			},
			{
				"x": 1.7409579049,
				"y": 0.6577257557,
				"z": 1.0056463221,
				"element": "N" 
			},
			{
				"x": 1.1593640348,
				"y": -0.5734523543,
				"z": -0.8863353636,
				"element": "N" 
			},
			{
				"x": 0.8500450682,
				"y": -1.8561974645,
				"z": -1.5210009656,
				"element": "C" 
			},
			{
				"x": -0.5395576488,
				"y": -2.3671621804,
				"z": -1.0988152808,
				"element": "C" 
			},
			{
				"x": -1.6433669138,
				"y": -1.3191083663,
				"z": -1.3431901454,
				"element": "C" 
			},
			{
				"x": -1.2247016365,
				"y": 0.0640549006,
				"z": -0.771945608,
				"element": "C" 
			},
			{
				"x": 0.1864194494,
				"y": 0.4629427407,
				"z": -1.2331655839,
				"element": "C" 
			},
			{
				"x": -2.0017231316,
				"y": -1.2194703666,
				"z": -2.8295907935,
				"element": "C" 
			},
			{
				"x": -3.1008829958,
				"y": -0.4692995781,
				"z": -3.1164692545,
				"element": "O" 
			},
			{
				"x": -1.3885266734,
				"y": -1.741955434,
				"z": -3.7286307674,
				"element": "O" 
			},
			{
				"x": 2.6069867001,
				"y": 2.9368338721,
				"z": 2.2590600516,
				"element": "H" 
			},
			{
				"x": 2.9132211749,
				"y": 2.0969414382,
				"z": 3.7942501277,
				"element": "H" 
			},
			{
				"x": 1.259655036,
				"y": 2.2481050925,
				"z": 3.1603298083,
				"element": "H" 
			},
			{
				"x": 3.8938039152,
				"y": -0.1187864094,
				"z": 3.477502623,
				"element": "H" 
			},
			{
				"x": 2.8754358868,
				"y": -2.4307720448,
				"z": 0.2190406017,
				"element": "H" 
			},
			{
				"x": 1.6131551039,
				"y": -2.5962625635,
				"z": -1.2833631625,
				"element": "H" 
			},
			{
				"x": 0.8672592976,
				"y": -1.7137478088,
				"z": -2.6055333096,
				"element": "H" 
			},
			{
				"x": -0.52128853,
				"y": -2.6101346951,
				"z": -0.0296307836,
				"element": "H" 
			},
			{
				"x": -0.7719867073,
				"y": -3.2858733425,
				"z": -1.6456088118,
				"element": "H" 
			},
			{
				"x": -2.5584634334,
				"y": -1.6427274797,
				"z": -0.8257366648,
				"element": "H" 
			},
			{
				"x": -1.9410765747,
				"y": 0.8445146972,
				"z": -1.0580354464,
				"element": "H" 
			},
			{
				"x": -1.2319420958,
				"y": 0.011479152,
				"z": 0.3222434011,
				"element": "H" 
			},
			{
				"x": 0.4897843415,
				"y": 1.3975876504,
				"z": -0.7651312769,
				"element": "H" 
			},
			{
				"x": 0.2083452407,
				"y": 0.5928680301,
				"z": -2.3228585023,
				"element": "H" 
			},
			{
				"x": -3.5048795939,
				"y": -0.1384488979,
				"z": -2.3017194731,
				"element": "H" 
			}
		],
		 "valence_orbital": [ 
			{
				"type": "occ",
				"energy": -0.29115,
				"method": "rhf"
			},
			{
				"type": "occ",
				"energy": -0.28192,
				"method": "rhf"
			},
			{
				"type": "occ",
				"energy": -0.27447,
				"method": "rhf"
			},
			{
				"type": "occ",
				"energy": -0.23798,
				"method": "rhf"
			},
			{
				"type": "occ",
				"energy": -0.20528,
				"method": "rhf"
			},
			{
				"type": "unocc",
				"energy": -0.03384,
				"method": "rhf"
			},
			{
				"type": "unocc",
				"energy": -0.00118,
				"method": "rhf"
			},
			{
				"type": "unocc",
				"energy": 0.00481,
				"method": "rhf"
			},
			{
				"type": "unocc",
				"energy": 0.04206,
				"method": "rhf"
			},
			{
				"type": "unocc",
				"energy": 0.08759,
				"method": "rhf"
			}
		],
		"cosmo_sigma_profile": { 
			"-0.025": 0.0,
			"-0.024": 0.0,
			"-0.023": 0.0,
			"-0.022": 0.0,
			"-0.021": 0.0,
			"-0.02": 0.0,
			"-0.019": 0.286453244011,
			"-0.018": 0.970740045711,
			"-0.017": 1.12893354457,
			"-0.016": 0.779971666924,
			"-0.015": 1.07627906398,
			"-0.014": 1.25034625134,
			"-0.013": 0.60976212794,
			"-0.012": 1.49393215155,
			"-0.011": 1.13196904163,
			"-0.01": 1.15943792762,
			"-0.009": 1.4074234889,
			"-0.008": 3.8475669816,
			"-0.007": 4.35152697044,
			"-0.006": 6.914637793,
			"-0.005": 14.5717554208,
			"-0.004": 25.5928951835,
			"-0.003": 27.792553053,
			"-0.002": 23.4330748858,
			"-0.001": 22.3225232685,
			"0.0": 18.7227830303,
			"0.001": 14.330891386,
			"0.002": 12.1233037165,
			"0.003": 11.0314834511,
			"0.004": 8.33705660915,
			"0.005": 7.19793038477,
			"0.006": 6.12326662865,
			"0.007": 6.44034734455,
			"0.008": 5.16663852353,
			"0.009": 5.94799824936,
			"0.01": 5.34523527993,
			"0.011": 6.84951063798,
			"0.012": 5.21474430095,
			"0.013": 2.3256335584,
			"0.014": 0.959220575428,
			"0.015": 0.923663066943,
			"0.016": 0.757601993937,
			"0.017": 0.0482375635867,
			"0.018": 0.0,
			"0.019": 0.0,
			"0.02": 0.0,
			"0.021": 0.0,
			"0.022": 0.0,
			"0.023": 0.0,
			"0.024": 0.0,
			"0.025": 0.0
		}
	}
}
