{
	 "smiles": "CC1(C)OC(=O)C2=CC=CC=C12", 
	 "Tm": 343.15, 
	 "num_atms": 22, 
	 "gaussian": { 
		 "optdone": 1, 
		 "sigma_profile": "yes", 
		 "theory": "DFT", 
		 "functional": "B3LYP", 
		 "basiset": "6-31G**", 
		 "properties": { 
			 "R2extent": 2123.1192, 
			 "electric_dipole_moment_norm": 4.99814982268, 
			 "electric_quadrupole_moment_norm": 11.1282916793, 
			 "total_energy": -537.565946266, 
			 "HOMO_LUMO_gap": 0.21668, 
			 "cosmo_polarized_energy": -11.11, 
			 "cosmo_cavitation_energy": 25.49, 
			 "cosmo_dispersion_energy": -18.19, 
			 "cosmo_repulsion_energy": 1.44, 
			 "cosmo_total_nonelectrostatic_energy": 8.74, 
			 "SMD_solvation_energy": 5.48 
		},
		"coords": [
			{
				"x": -0.0067234642,
				"y": 2.4355905004,
				"z": 0.057059521,
				"element": "C" 
			},
			{
				"x": 0.2738588621,
				"y": 0.9313588816,
				"z": 0.1273248614,
				"element": "C" 
			},
			{
				"x": 0.4082177424,
				"y": 0.4363701098,
				"z": 1.5706559278,
				"element": "C" 
			},
			{
				"x": 1.5515761361,
				"y": 0.6917718732,
				"z": -0.5392879962,
				"element": "O" 
			},
			{
				"x": 1.4202964236,
				"y": -0.1504292895,
				"z": -1.6151321283,
				"element": "C" 
			},
			{
				"x": 2.3521274134,
				"y": -0.4794396554,
				"z": -2.3074869218,
				"element": "O" 
			},
			{
				"x": -0.0100115078,
				"y": -0.5217318392,
				"z": -1.7145435739,
				"element": "C" 
			},
			{
				"x": -0.640456272,
				"y": -1.3520195917,
				"z": -2.6389410853,
				"element": "C" 
			},
			{
				"x": -2.0163624495,
				"y": -1.5388609236,
				"z": -2.5083014099,
				"element": "C" 
			},
			{
				"x": -2.7252800882,
				"y": -0.9051271161,
				"z": -1.4763086403,
				"element": "C" 
			},
			{
				"x": -2.0800472512,
				"y": -0.0738269288,
				"z": -0.5549003357,
				"element": "C" 
			},
			{
				"x": -0.7057216405,
				"y": 0.1097255363,
				"z": -0.689413986,
				"element": "C" 
			},
			{
				"x": -0.961082,
				"y": 2.6690577788,
				"z": 0.5393521167,
				"element": "H" 
			},
			{
				"x": 0.7860175463,
				"y": 2.9894099231,
				"z": 0.5675975259,
				"element": "H" 
			},
			{
				"x": -0.0522269168,
				"y": 2.7689276995,
				"z": -0.9827884905,
				"element": "H" 
			},
			{
				"x": 1.2019711588,
				"y": 0.9864777588,
				"z": 2.0836262921,
				"element": "H" 
			},
			{
				"x": 0.6525042195,
				"y": -0.628729485,
				"z": 1.5894285023,
				"element": "H" 
			},
			{
				"x": -0.5289368988,
				"y": 0.5881174638,
				"z": 2.1152753279,
				"element": "H" 
			},
			{
				"x": -0.0672404524,
				"y": -1.8297633729,
				"z": -3.4272802641,
				"element": "H" 
			},
			{
				"x": -2.5468422329,
				"y": -2.178191256,
				"z": -3.2074744713,
				"element": "H" 
			},
			{
				"x": -3.7966686115,
				"y": -1.0637230527,
				"z": -1.3918931619,
				"element": "H" 
			},
			{
				"x": -2.6446697165,
				"y": 0.4089349854,
				"z": 0.2378323901,
				"element": "H" 
			}
		],
		 "valence_orbital": [ 
			{
				"type": "occ",
				"energy": -0.33954,
				"method": "rhf"
			},
			{
				"type": "occ",
				"energy": -0.29082,
				"method": "rhf"
			},
			{
				"type": "occ",
				"energy": -0.26928,
				"method": "rhf"
			},
			{
				"type": "occ",
				"energy": -0.26429,
				"method": "rhf"
			},
			{
				"type": "occ",
				"energy": -0.26377,
				"method": "rhf"
			},
			{
				"type": "unocc",
				"energy": -0.04709,
				"method": "rhf"
			},
			{
				"type": "unocc",
				"energy": -0.0202,
				"method": "rhf"
			},
			{
				"type": "unocc",
				"energy": 0.05841,
				"method": "rhf"
			},
			{
				"type": "unocc",
				"energy": 0.07636,
				"method": "rhf"
			},
			{
				"type": "unocc",
				"energy": 0.0971,
				"method": "rhf"
			}
		],
		"cosmo_sigma_profile": { 
			"-0.025": 0.0,
			"-0.024": 0.0,
			"-0.023": 0.0,
			"-0.022": 0.0,
			"-0.021": 0.0,
			"-0.02": 0.0,
			"-0.019": 0.0,
			"-0.018": 0.0,
			"-0.017": 0.0,
			"-0.016": 0.0,
			"-0.015": 0.0,
			"-0.014": 0.0,
			"-0.013": 0.0,
			"-0.012": 0.0,
			"-0.011": 0.0,
			"-0.01": 0.0,
			"-0.009": 0.0,
			"-0.008": 0.00307205619525,
			"-0.007": 4.94192009869,
			"-0.006": 11.797562088,
			"-0.005": 17.0242836203,
			"-0.004": 22.0815233053,
			"-0.003": 17.8853294482,
			"-0.002": 16.5190949238,
			"-0.001": 21.4820834404,
			"0.0": 18.9931547512,
			"0.001": 10.935686175,
			"0.002": 10.9106098247,
			"0.003": 12.8537517306,
			"0.004": 7.34935686789,
			"0.005": 2.00827926374,
			"0.006": 2.85010585204,
			"0.007": 1.9434876772,
			"0.008": 2.02229557823,
			"0.009": 3.09104596986,
			"0.01": 4.50559424715,
			"0.011": 4.56913501285,
			"0.012": 6.00988140349,
			"0.013": 2.44426442657,
			"0.014": 0.133399759657,
			"0.015": 0.0,
			"0.016": 0.0,
			"0.017": 0.0,
			"0.018": 0.0,
			"0.019": 0.0,
			"0.02": 0.0,
			"0.021": 0.0,
			"0.022": 0.0,
			"0.023": 0.0,
			"0.024": 0.0,
			"0.025": 0.0
		}
	}
}
