{
	 "smiles": "FC1=C(F)C(C=O)=C(Br)C=C1", 
	 "Tm": 314.15, 
	 "num_atms": 14, 
	 "gaussian": { 
		 "optdone": 1, 
		 "sigma_profile": "yes", 
		 "theory": "DFT", 
		 "functional": "B3LYP", 
		 "basiset": "6-31G**", 
		 "properties": { 
			 "R2extent": 3048.3621, 
			 "electric_dipole_moment_norm": 3.93057020545, 
			 "electric_quadrupole_moment_norm": 11.1855112753, 
			 "total_energy": -3114.81921622, 
			 "HOMO_LUMO_gap": 0.1758, 
			 "cosmo_polarized_energy": -7.71, 
			 "cosmo_cavitation_energy": 22.26, 
			 "cosmo_dispersion_energy": -16.57, 
			 "cosmo_repulsion_energy": 1.28, 
			 "cosmo_total_nonelectrostatic_energy": 6.96, 
			 "SMD_solvation_energy": 4.84 
		},
		"coords": [
			{
				"x": 0.8292670187,
				"y": -1.5373377592,
				"z": -2.8785314067,
				"element": "F" 
			},
			{
				"x": 0.5731021511,
				"y": -1.1101312516,
				"z": -1.6344337344,
				"element": "C" 
			},
			{
				"x": 0.8344127888,
				"y": -1.9660093115,
				"z": -0.5648219184,
				"element": "C" 
			},
			{
				"x": 1.3281447866,
				"y": -3.1690907773,
				"z": -0.8480940954,
				"element": "F" 
			},
			{
				"x": 0.5859488339,
				"y": -1.5732858062,
				"z": 0.7620082115,
				"element": "C" 
			},
			{
				"x": 0.8709490208,
				"y": -2.5008014353,
				"z": 1.896670303,
				"element": "C" 
			},
			{
				"x": 1.3202816374,
				"y": -3.6217580295,
				"z": 1.7812614909,
				"element": "O" 
			},
			{
				"x": 0.0622697305,
				"y": -0.2779471655,
				"z": 0.9553011085,
				"element": "C" 
			},
			{
				"x": -0.3255199552,
				"y": 0.3916240185,
				"z": 2.7077130697,
				"element": "Br" 
			},
			{
				"x": -0.1993363506,
				"y": 0.5779062982,
				"z": -0.1097677859,
				"element": "C" 
			},
			{
				"x": 0.058427311,
				"y": 0.1577763025,
				"z": -1.4152495727,
				"element": "C" 
			},
			{
				"x": 0.6344579729,
				"y": -2.0775327153,
				"z": 2.8898335061,
				"element": "H" 
			},
			{
				"x": -0.6016234882,
				"y": 1.5661514637,
				"z": 0.0763398074,
				"element": "H" 
			},
			{
				"x": -0.1357814576,
				"y": 0.8036361684,
				"z": -2.2646289836,
				"element": "H" 
			}
		],
		 "valence_orbital": [ 
			{
				"type": "occ",
				"energy": -0.32803,
				"method": "rhf"
			},
			{
				"type": "occ",
				"energy": -0.31472,
				"method": "rhf"
			},
			{
				"type": "occ",
				"energy": -0.28582,
				"method": "rhf"
			},
			{
				"type": "occ",
				"energy": -0.26158,
				"method": "rhf"
			},
			{
				"type": "occ",
				"energy": -0.25983,
				"method": "rhf"
			},
			{
				"type": "unocc",
				"energy": -0.08403,
				"method": "rhf"
			},
			{
				"type": "unocc",
				"energy": -0.03168,
				"method": "rhf"
			},
			{
				"type": "unocc",
				"energy": -0.01984,
				"method": "rhf"
			},
			{
				"type": "unocc",
				"energy": 0.01843,
				"method": "rhf"
			},
			{
				"type": "unocc",
				"energy": 0.0684,
				"method": "rhf"
			}
		],
		"cosmo_sigma_profile": { 
			"-0.025": 0.0,
			"-0.024": 0.0,
			"-0.023": 0.0,
			"-0.022": 0.0,
			"-0.021": 0.0,
			"-0.02": 0.0,
			"-0.019": 0.0,
			"-0.018": 0.0,
			"-0.017": 0.0,
			"-0.016": 0.0,
			"-0.015": 0.0,
			"-0.014": 0.0,
			"-0.013": 0.0,
			"-0.012": 0.0,
			"-0.011": 0.0,
			"-0.01": 0.508175341896,
			"-0.009": 2.95322484272,
			"-0.008": 3.52316297778,
			"-0.007": 4.67366155135,
			"-0.006": 5.09992710284,
			"-0.005": 8.88065943591,
			"-0.004": 12.2773321049,
			"-0.003": 16.827786108,
			"-0.002": 17.6137267265,
			"-0.001": 15.7092402512,
			"0.0": 16.6755831714,
			"0.001": 14.1308163732,
			"0.002": 12.9842370403,
			"0.003": 24.8812505985,
			"0.004": 6.74368886856,
			"0.005": 2.0121404615,
			"0.006": 1.97917488932,
			"0.007": 2.43805534657,
			"0.008": 2.08293939668,
			"0.009": 2.74682655178,
			"0.01": 4.11242994951,
			"0.011": 3.9647995288,
			"0.012": 0.909614983025,
			"0.013": 0.0236985359548,
			"0.014": 0.0,
			"0.015": 0.0,
			"0.016": 0.0,
			"0.017": 0.0,
			"0.018": 0.0,
			"0.019": 0.0,
			"0.02": 0.0,
			"0.021": 0.0,
			"0.022": 0.0,
			"0.023": 0.0,
			"0.024": 0.0,
			"0.025": 0.0
		}
	}
}
