{
	 "smiles": "CCCCCCC(C)OC(=O)COC1=C(Cl)C(N)=C(Cl)C(F)=N1", 
	 "Tm": 332.15, 
	 "num_atms": 44, 
	 "gaussian": { 
		 "optdone": 1, 
		 "sigma_profile": "yes", 
		 "theory": "DFT", 
		 "functional": "B3LYP", 
		 "basiset": "6-31G**", 
		 "properties": { 
			 "R2extent": 9985.6878, 
			 "electric_dipole_moment_norm": 3.53574782755, 
			 "electric_quadrupole_moment_norm": 21.6056627128, 
			 "total_energy": -1939.68212222, 
			 "HOMO_LUMO_gap": 0.21711, 
			 "cosmo_polarized_energy": -13.3, 
			 "cosmo_cavitation_energy": 50.46, 
			 "cosmo_dispersion_energy": -31.1, 
			 "cosmo_repulsion_energy": 2.4, 
			 "cosmo_total_nonelectrostatic_energy": 21.76, 
			 "SMD_solvation_energy": 7.96 
		},
		"coords": [
			{
				"x": 1.8639997765,
				"y": -3.405210943,
				"z": 0.8373364148,
				"element": "C" 
			},
			{
				"x": 0.7872108252,
				"y": -3.7165039041,
				"z": -0.2094342143,
				"element": "C" 
			},
			{
				"x": 0.4868443636,
				"y": -2.5555509222,
				"z": -1.1748068555,
				"element": "C" 
			},
			{
				"x": -0.0310894225,
				"y": -1.2556900162,
				"z": -0.5343425664,
				"element": "C" 
			},
			{
				"x": -1.4056759391,
				"y": -1.388257718,
				"z": 0.1382253737,
				"element": "C" 
			},
			{
				"x": -1.9124874128,
				"y": -0.1249703936,
				"z": 0.8575814128,
				"element": "C" 
			},
			{
				"x": -2.2987512384,
				"y": 1.0909497295,
				"z": 0.0088734955,
				"element": "C" 
			},
			{
				"x": -3.247449993,
				"y": 0.8081673946,
				"z": -1.151092795,
				"element": "C" 
			},
			{
				"x": -1.0656436027,
				"y": 1.680004028,
				"z": -0.522273559,
				"element": "O" 
			},
			{
				"x": -1.0445758285,
				"y": 3.0087863833,
				"z": -0.6725856885,
				"element": "C" 
			},
			{
				"x": -1.9606979327,
				"y": 3.7667671094,
				"z": -0.4346952902,
				"element": "O" 
			},
			{
				"x": 0.2769216124,
				"y": 3.5359165563,
				"z": -1.2243512464,
				"element": "C" 
			},
			{
				"x": 1.2893961427,
				"y": 2.5591912605,
				"z": -1.449207212,
				"element": "O" 
			},
			{
				"x": 1.9941659985,
				"y": 2.1272298248,
				"z": -0.3862639311,
				"element": "C" 
			},
			{
				"x": 3.0020054017,
				"y": 1.1840500119,
				"z": -0.61529398,
				"element": "C" 
			},
			{
				"x": 3.3295084362,
				"y": 0.5964813992,
				"z": -2.2301671488,
				"element": "Cl" 
			},
			{
				"x": 3.7611749255,
				"y": 0.6994920194,
				"z": 0.4694905896,
				"element": "C" 
			},
			{
				"x": 4.7201024152,
				"y": -0.2489264828,
				"z": 0.3099665705,
				"element": "N" 
			},
			{
				"x": 3.4523976113,
				"y": 1.2335930828,
				"z": 1.7451648789,
				"element": "C" 
			},
			{
				"x": 4.3388831465,
				"y": 0.7155702533,
				"z": 3.1593263328,
				"element": "Cl" 
			},
			{
				"x": 2.4376393025,
				"y": 2.1725770013,
				"z": 1.8376562425,
				"element": "C" 
			},
			{
				"x": 2.1407037926,
				"y": 2.6848974451,
				"z": 3.0340531768,
				"element": "F" 
			},
			{
				"x": 1.7208427391,
				"y": 2.6136297177,
				"z": 0.8229192113,
				"element": "N" 
			},
			{
				"x": 1.5408654419,
				"y": -2.6274719383,
				"z": 1.5369983463,
				"element": "H" 
			},
			{
				"x": 2.1078364144,
				"y": -4.2944381169,
				"z": 1.4283265181,
				"element": "H" 
			},
			{
				"x": 2.7887549066,
				"y": -3.0535556273,
				"z": 0.3646226226,
				"element": "H" 
			},
			{
				"x": 1.1069026704,
				"y": -4.5815511101,
				"z": -0.8048343827,
				"element": "H" 
			},
			{
				"x": -0.1330971798,
				"y": -4.0322920693,
				"z": 0.2988739231,
				"element": "H" 
			},
			{
				"x": -0.2416196874,
				"y": -2.8987299772,
				"z": -1.9229673381,
				"element": "H" 
			},
			{
				"x": 1.4036506828,
				"y": -2.3209542414,
				"z": -1.7324027142,
				"element": "H" 
			},
			{
				"x": 0.6943294832,
				"y": -0.8911194581,
				"z": 0.2044883208,
				"element": "H" 
			},
			{
				"x": -0.0739219274,
				"y": -0.4804524712,
				"z": -1.3056785928,
				"element": "H" 
			},
			{
				"x": -1.3665606269,
				"y": -2.1882341159,
				"z": 0.8882493314,
				"element": "H" 
			},
			{
				"x": -2.1460243422,
				"y": -1.7182408377,
				"z": -0.6031968508,
				"element": "H" 
			},
			{
				"x": -1.167313495,
				"y": 0.2051561672,
				"z": 1.5920696226,
				"element": "H" 
			},
			{
				"x": -2.8105062239,
				"y": -0.3883786767,
				"z": 1.4321499963,
				"element": "H" 
			},
			{
				"x": -2.7465069254,
				"y": 1.8462171017,
				"z": 0.6606189388,
				"element": "H" 
			},
			{
				"x": -3.5340343022,
				"y": 1.7431909347,
				"z": -1.6386492559,
				"element": "H" 
			},
			{
				"x": -4.1573580853,
				"y": 0.323870587,
				"z": -0.7815020296,
				"element": "H" 
			},
			{
				"x": -2.7859459499,
				"y": 0.1520046992,
				"z": -1.8940331429,
				"element": "H" 
			},
			{
				"x": 0.0768494063,
				"y": 3.9735963872,
				"z": -2.2051939196,
				"element": "H" 
			},
			{
				"x": 0.6221727706,
				"y": 4.3211651457,
				"z": -0.547968865,
				"element": "H" 
			},
			{
				"x": 5.0226985437,
				"y": -0.4784014676,
				"z": -0.6231563279,
				"element": "H" 
			},
			{
				"x": 5.3449033062,
				"y": -0.4405737522,
				"z": 1.0766065875,
				"element": "H" 
			}
		],
		 "valence_orbital": [ 
			{
				"type": "occ",
				"energy": -0.30173,
				"method": "rhf"
			},
			{
				"type": "occ",
				"energy": -0.29578,
				"method": "rhf"
			},
			{
				"type": "occ",
				"energy": -0.27357,
				"method": "rhf"
			},
			{
				"type": "occ",
				"energy": -0.24409,
				"method": "rhf"
			},
			{
				"type": "occ",
				"energy": -0.23615,
				"method": "rhf"
			},
			{
				"type": "unocc",
				"energy": -0.01904,
				"method": "rhf"
			},
			{
				"type": "unocc",
				"energy": -0.01392,
				"method": "rhf"
			},
			{
				"type": "unocc",
				"energy": 0.00172,
				"method": "rhf"
			},
			{
				"type": "unocc",
				"energy": 0.0121,
				"method": "rhf"
			},
			{
				"type": "unocc",
				"energy": 0.03809,
				"method": "rhf"
			}
		],
		"cosmo_sigma_profile": { 
			"-0.025": 0.0,
			"-0.024": 0.0,
			"-0.023": 0.0,
			"-0.022": 0.0,
			"-0.021": 0.0,
			"-0.02": 0.0,
			"-0.019": 0.0,
			"-0.018": 0.0,
			"-0.017": 0.0,
			"-0.016": 0.0,
			"-0.015": 0.0185760780654,
			"-0.014": 1.26983404995,
			"-0.013": 1.62848334115,
			"-0.012": 1.93288035255,
			"-0.011": 2.20314693672,
			"-0.01": 1.5972217091,
			"-0.009": 3.52352904832,
			"-0.008": 4.82579335754,
			"-0.007": 4.97849542166,
			"-0.006": 5.38278398094,
			"-0.005": 8.29166359343,
			"-0.004": 15.9253306355,
			"-0.003": 23.1928097916,
			"-0.002": 45.7576241927,
			"-0.001": 54.5415347087,
			"0.0": 57.8351500811,
			"0.001": 46.5088953291,
			"0.002": 34.7775284078,
			"0.003": 28.1950406826,
			"0.004": 22.5881034576,
			"0.005": 9.36475552954,
			"0.006": 5.92281589584,
			"0.007": 5.26601763236,
			"0.008": 3.36737153547,
			"0.009": 2.20909360868,
			"0.01": 2.14040489058,
			"0.011": 3.331655953,
			"0.012": 3.71080575227,
			"0.013": 0.341177428124,
			"0.014": 0.0,
			"0.015": 0.0,
			"0.016": 0.0,
			"0.017": 0.0,
			"0.018": 0.0,
			"0.019": 0.0,
			"0.02": 0.0,
			"0.021": 0.0,
			"0.022": 0.0,
			"0.023": 0.0,
			"0.024": 0.0,
			"0.025": 0.0
		}
	}
}
