{
	 "smiles": "CC(Cl)C(=O)NC1=CC(=CC=C1)C(C)=O", 
	 "Tm": 385.15, 
	 "num_atms": 27, 
	 "gaussian": { 
		 "optdone": 1, 
		 "sigma_profile": "yes", 
		 "theory": "DFT", 
		 "functional": "B3LYP", 
		 "basiset": "6-31G**", 
		 "properties": { 
			 "R2extent": 4958.4064, 
			 "electric_dipole_moment_norm": 1.58141375041, 
			 "electric_quadrupole_moment_norm": 24.2241284578, 
			 "total_energy": -1091.80950155, 
			 "HOMO_LUMO_gap": 0.18255, 
			 "cosmo_polarized_energy": -15.67, 
			 "cosmo_cavitation_energy": 32.6, 
			 "cosmo_dispersion_energy": -22.72, 
			 "cosmo_repulsion_energy": 1.8, 
			 "cosmo_total_nonelectrostatic_energy": 11.68, 
			 "SMD_solvation_energy": 6.71 
		},
		"coords": [
			{
				"x": -2.7801544573,
				"y": -2.2558557825,
				"z": -0.5907021992,
				"element": "C" 
			},
			{
				"x": -2.7067507078,
				"y": -2.9334663361,
				"z": 0.7717943653,
				"element": "C" 
			},
			{
				"x": -3.6857260696,
				"y": -2.0063238319,
				"z": 2.018158788,
				"element": "Cl" 
			},
			{
				"x": -1.3067038199,
				"y": -3.25986818,
				"z": 1.3192753036,
				"element": "C" 
			},
			{
				"x": -1.0809961941,
				"y": -4.3981112054,
				"z": 1.7044976762,
				"element": "O" 
			},
			{
				"x": -0.295067586,
				"y": -2.3233473249,
				"z": 1.3304480039,
				"element": "N" 
			},
			{
				"x": -0.2119716131,
				"y": -0.9612652861,
				"z": 0.9123445228,
				"element": "C" 
			},
			{
				"x": 0.7109770695,
				"y": -0.6257279468,
				"z": -0.0860628275,
				"element": "C" 
			},
			{
				"x": 0.8782028005,
				"y": 0.706077173,
				"z": -0.4853633452,
				"element": "C" 
			},
			{
				"x": 0.0984892044,
				"y": 1.7053960506,
				"z": 0.1170874397,
				"element": "C" 
			},
			{
				"x": -0.8149248904,
				"y": 1.3737036551,
				"z": 1.1122199901,
				"element": "C" 
			},
			{
				"x": -0.9620955579,
				"y": 0.0475485208,
				"z": 1.5272633022,
				"element": "C" 
			},
			{
				"x": 1.8573690993,
				"y": 1.114956131,
				"z": -1.5495555601,
				"element": "C" 
			},
			{
				"x": 2.7216167234,
				"y": 0.0504715262,
				"z": -2.2029556372,
				"element": "C" 
			},
			{
				"x": 1.9544348724,
				"y": 2.2861833367,
				"z": -1.8803097898,
				"element": "O" 
			},
			{
				"x": -3.8178722926,
				"y": -2.2271799436,
				"z": -0.9315564594,
				"element": "H" 
			},
			{
				"x": -2.3922635619,
				"y": -1.2375396938,
				"z": -0.5731145962,
				"element": "H" 
			},
			{
				"x": -2.1987646029,
				"y": -2.8402616782,
				"z": -1.3130563367,
				"element": "H" 
			},
			{
				"x": -3.1930359086,
				"y": -3.9071005803,
				"z": 0.7391440995,
				"element": "H" 
			},
			{
				"x": 0.5743169782,
				"y": -2.7539397144,
				"z": 1.6245311094,
				"element": "H" 
			},
			{
				"x": 1.2884996202,
				"y": -1.4207577716,
				"z": -0.5468660168,
				"element": "H" 
			},
			{
				"x": 0.2357670161,
				"y": 2.7301645381,
				"z": -0.2102303297,
				"element": "H" 
			},
			{
				"x": -1.4076493013,
				"y": 2.1495571079,
				"z": 1.5873200079,
				"element": "H" 
			},
			{
				"x": -1.6528902938,
				"y": -0.2101760037,
				"z": 2.320477079,
				"element": "H" 
			},
			{
				"x": 3.3694628805,
				"y": 0.5303358681,
				"z": -2.9367338351,
				"element": "H" 
			},
			{
				"x": 2.1053537959,
				"y": -0.7050373315,
				"z": -2.7029581934,
				"element": "H" 
			},
			{
				"x": 3.3366767967,
				"y": -0.4688352967,
				"z": -1.4596965612,
				"element": "H" 
			}
		],
		 "valence_orbital": [ 
			{
				"type": "occ",
				"energy": -0.29806,
				"method": "rhf"
			},
			{
				"type": "occ",
				"energy": -0.27596,
				"method": "rhf"
			},
			{
				"type": "occ",
				"energy": -0.26766,
				"method": "rhf"
			},
			{
				"type": "occ",
				"energy": -0.25844,
				"method": "rhf"
			},
			{
				"type": "occ",
				"energy": -0.25029,
				"method": "rhf"
			},
			{
				"type": "unocc",
				"energy": -0.06774,
				"method": "rhf"
			},
			{
				"type": "unocc",
				"energy": -0.03657,
				"method": "rhf"
			},
			{
				"type": "unocc",
				"energy": -0.01813,
				"method": "rhf"
			},
			{
				"type": "unocc",
				"energy": 0.02609,
				"method": "rhf"
			},
			{
				"type": "unocc",
				"energy": 0.05069,
				"method": "rhf"
			}
		],
		"cosmo_sigma_profile": { 
			"-0.025": 0.0,
			"-0.024": 0.0,
			"-0.023": 0.0,
			"-0.022": 0.0,
			"-0.021": 0.0,
			"-0.02": 0.0,
			"-0.019": 0.0,
			"-0.018": 0.0,
			"-0.017": 0.0,
			"-0.016": 0.0,
			"-0.015": 0.371980154094,
			"-0.014": 0.988559428096,
			"-0.013": 0.841924569797,
			"-0.012": 1.13129350781,
			"-0.011": 0.968033312143,
			"-0.01": 1.0136027164,
			"-0.009": 1.04768839173,
			"-0.008": 2.64286729054,
			"-0.007": 8.61953673644,
			"-0.006": 17.1360423746,
			"-0.005": 19.537505881,
			"-0.004": 18.9429657136,
			"-0.003": 17.7994600569,
			"-0.002": 20.9287549411,
			"-0.001": 25.6774133155,
			"0.0": 17.1230418947,
			"0.001": 18.285697581,
			"0.002": 17.6243606693,
			"0.003": 14.8187775588,
			"0.004": 8.12139230503,
			"0.005": 9.45864401659,
			"0.006": 7.30023153184,
			"0.007": 1.67089430973,
			"0.008": 2.22995794292,
			"0.009": 3.58368666783,
			"0.01": 4.05151255528,
			"0.011": 5.24704902339,
			"0.012": 7.46099071358,
			"0.013": 5.71912288758,
			"0.014": 0.424309410735,
			"0.015": 0.0,
			"0.016": 0.0,
			"0.017": 0.0,
			"0.018": 0.0,
			"0.019": 0.0,
			"0.02": 0.0,
			"0.021": 0.0,
			"0.022": 0.0,
			"0.023": 0.0,
			"0.024": 0.0,
			"0.025": 0.0
		}
	}
}
