{
	 "smiles": "CCOC1=CC=C2N=C(N)SC2=C1", 
	 "Tm": 435.15, 
	 "num_atms": 23, 
	 "gaussian": { 
		 "optdone": 1, 
		 "sigma_profile": "yes", 
		 "theory": "DFT", 
		 "functional": "B3LYP", 
		 "basiset": "6-31G**", 
		 "properties": { 
			 "R2extent": 5793.6384, 
			 "electric_dipole_moment_norm": 1.23294308466, 
			 "electric_quadrupole_moment_norm": 19.5498811544, 
			 "total_energy": -931.904034679, 
			 "HOMO_LUMO_gap": 0.18812, 
			 "cosmo_polarized_energy": -12.45, 
			 "cosmo_cavitation_energy": 28.2, 
			 "cosmo_dispersion_energy": -21.71, 
			 "cosmo_repulsion_energy": 1.68, 
			 "cosmo_total_nonelectrostatic_energy": 8.17, 
			 "SMD_solvation_energy": 2.94 
		},
		"coords": [
			{
				"x": -1.3772010342,
				"y": 2.4726474789,
				"z": -1.3130437958,
				"element": "C" 
			},
			{
				"x": -0.8973469165,
				"y": 1.8157747235,
				"z": -0.0221496555,
				"element": "C" 
			},
			{
				"x": 0.498964055,
				"y": 1.5168052721,
				"z": -0.0417020238,
				"element": "O" 
			},
			{
				"x": 0.952028412,
				"y": 0.401167268,
				"z": -0.6935869552,
				"element": "C" 
			},
			{
				"x": 0.1338927364,
				"y": -0.5573474966,
				"z": -1.3176731217,
				"element": "C" 
			},
			{
				"x": 0.6953132126,
				"y": -1.6741453941,
				"z": -1.937371851,
				"element": "C" 
			},
			{
				"x": 2.0802258698,
				"y": -1.8510127555,
				"z": -1.9452502408,
				"element": "C" 
			},
			{
				"x": 2.7607143535,
				"y": -2.9067633252,
				"z": -2.5402599818,
				"element": "N" 
			},
			{
				"x": 4.035976426,
				"y": -2.7810128753,
				"z": -2.3746416029,
				"element": "C" 
			},
			{
				"x": 4.9677799073,
				"y": -3.7031359072,
				"z": -2.7880056071,
				"element": "N" 
			},
			{
				"x": 4.581034849,
				"y": -1.3379435148,
				"z": -1.4585369464,
				"element": "S" 
			},
			{
				"x": 2.8866015804,
				"y": -0.8727719468,
				"z": -1.3109410536,
				"element": "C" 
			},
			{
				"x": 2.3458957556,
				"y": 0.2456398144,
				"z": -0.6914172224,
				"element": "C" 
			},
			{
				"x": -1.2640810783,
				"y": 1.8066151264,
				"z": -2.1725842509,
				"element": "H" 
			},
			{
				"x": -2.4349799663,
				"y": 2.7433553006,
				"z": -1.2260864075,
				"element": "H" 
			},
			{
				"x": -0.8033714944,
				"y": 3.3827952551,
				"z": -1.5096342192,
				"element": "H" 
			},
			{
				"x": -1.0149838335,
				"y": 2.5058518196,
				"z": 0.8184371113,
				"element": "H" 
			},
			{
				"x": -1.478959408,
				"y": 0.9149633879,
				"z": 0.2125362704,
				"element": "H" 
			},
			{
				"x": -0.942856607,
				"y": -0.4413405738,
				"z": -1.3277180041,
				"element": "H" 
			},
			{
				"x": 0.0637576519,
				"y": -2.4126465592,
				"z": -2.420327101,
				"element": "H" 
			},
			{
				"x": 5.883215335,
				"y": -3.3525370226,
				"z": -3.0312004037,
				"element": "H" 
			},
			{
				"x": 4.5942174301,
				"y": -4.3767441298,
				"z": -3.4441185661,
				"element": "H" 
			},
			{
				"x": 2.9564627634,
				"y": 0.9964860544,
				"z": -0.2025243712,
				"element": "H" 
			}
		],
		 "valence_orbital": [ 
			{
				"type": "occ",
				"energy": -0.29335,
				"method": "rhf"
			},
			{
				"type": "occ",
				"energy": -0.27078,
				"method": "rhf"
			},
			{
				"type": "occ",
				"energy": -0.26774,
				"method": "rhf"
			},
			{
				"type": "occ",
				"energy": -0.22648,
				"method": "rhf"
			},
			{
				"type": "occ",
				"energy": -0.1928,
				"method": "rhf"
			},
			{
				"type": "unocc",
				"energy": -0.00468,
				"method": "rhf"
			},
			{
				"type": "unocc",
				"energy": 0.00246,
				"method": "rhf"
			},
			{
				"type": "unocc",
				"energy": 0.008,
				"method": "rhf"
			},
			{
				"type": "unocc",
				"energy": 0.05705,
				"method": "rhf"
			},
			{
				"type": "unocc",
				"energy": 0.07183,
				"method": "rhf"
			}
		],
		"cosmo_sigma_profile": { 
			"-0.025": 0.0,
			"-0.024": 0.0,
			"-0.023": 0.0,
			"-0.022": 0.0,
			"-0.021": 0.0,
			"-0.02": 0.0,
			"-0.019": 0.0,
			"-0.018": 0.0,
			"-0.017": 0.0,
			"-0.016": 0.0,
			"-0.015": 0.392077738307,
			"-0.014": 2.38203866615,
			"-0.013": 2.09152443748,
			"-0.012": 3.07654053354,
			"-0.011": 3.14793650307,
			"-0.01": 2.147860958,
			"-0.009": 1.71734433281,
			"-0.008": 1.79061752681,
			"-0.007": 3.63566562556,
			"-0.006": 8.2464070339,
			"-0.005": 12.0007456874,
			"-0.004": 15.4309980585,
			"-0.003": 17.6632068326,
			"-0.002": 16.2239723465,
			"-0.001": 13.2827526532,
			"0.0": 14.8725520474,
			"0.001": 16.5515604729,
			"0.002": 14.6887458133,
			"0.003": 15.4573520987,
			"0.004": 20.1771490968,
			"0.005": 16.264818163,
			"0.006": 5.73903011596,
			"0.007": 3.96029903378,
			"0.008": 3.56498907236,
			"0.009": 2.33268431227,
			"0.01": 3.39249747155,
			"0.011": 2.45850284534,
			"0.012": 1.05075047424,
			"0.013": 1.3431999999,
			"0.014": 0.417980186851,
			"0.015": 0.850149584589,
			"0.016": 0.19325036212,
			"0.017": 0.0,
			"0.018": 0.0,
			"0.019": 0.0,
			"0.02": 0.0,
			"0.021": 0.0,
			"0.022": 0.0,
			"0.023": 0.0,
			"0.024": 0.0,
			"0.025": 0.0
		}
	}
}
