{
	 "smiles": "C(C1CCCCN1)C1=CC=CC=C1", 
	 "Tm": 305.15, 
	 "num_atms": 30, 
	 "gaussian": { 
		 "optdone": 1, 
		 "sigma_profile": "yes", 
		 "theory": "DFT", 
		 "functional": "B3LYP", 
		 "basiset": "6-31G**", 
		 "properties": { 
			 "R2extent": 3588.0104, 
			 "electric_dipole_moment_norm": 0.932276600586, 
			 "electric_quadrupole_moment_norm": 5.97307859148, 
			 "total_energy": -522.273626985, 
			 "HOMO_LUMO_gap": 0.19634, 
			 "cosmo_polarized_energy": -5.77, 
			 "cosmo_cavitation_energy": 30.18, 
			 "cosmo_dispersion_energy": -21.92, 
			 "cosmo_repulsion_energy": 1.73, 
			 "cosmo_total_nonelectrostatic_energy": 9.99, 
			 "SMD_solvation_energy": 1.9 
		},
		"coords": [
			{
				"x": 1.1011826114,
				"y": -0.2675490057,
				"z": 1.2482149796,
				"element": "C" 
			},
			{
				"x": 0.2812640069,
				"y": -0.0154814855,
				"z": -0.0525983439,
				"element": "C" 
			},
			{
				"x": 0.7925373347,
				"y": -0.8791563276,
				"z": -1.2172800614,
				"element": "C" 
			},
			{
				"x": 0.5659204627,
				"y": -2.3920580683,
				"z": -0.9964271561,
				"element": "C" 
			},
			{
				"x": -0.7812057162,
				"y": -2.6766061981,
				"z": -0.2820753804,
				"element": "C" 
			},
			{
				"x": -1.7240596653,
				"y": -1.4711308626,
				"z": -0.4143191712,
				"element": "C" 
			},
			{
				"x": -1.1679911246,
				"y": -0.2161090896,
				"z": 0.1031485059,
				"element": "N" 
			},
			{
				"x": 0.6641408088,
				"y": 0.5921940076,
				"z": 2.4137968054,
				"element": "C" 
			},
			{
				"x": -0.1526576711,
				"y": 0.0755810999,
				"z": 3.4300149692,
				"element": "C" 
			},
			{
				"x": -0.5859083179,
				"y": 0.8807737113,
				"z": 4.4867329673,
				"element": "C" 
			},
			{
				"x": -0.2060401362,
				"y": 2.2213953069,
				"z": 4.5456863355,
				"element": "C" 
			},
			{
				"x": 0.6101555828,
				"y": 2.7499722913,
				"z": 3.5420579443,
				"element": "C" 
			},
			{
				"x": 1.0383576302,
				"y": 1.9430175143,
				"z": 2.4889489923,
				"element": "C" 
			},
			{
				"x": 2.156081786,
				"y": -0.0640790274,
				"z": 1.0213421393,
				"element": "H" 
			},
			{
				"x": 1.0343575966,
				"y": -1.323941922,
				"z": 1.5298543167,
				"element": "H" 
			},
			{
				"x": 0.4515506418,
				"y": 1.0397855136,
				"z": -0.317692965,
				"element": "H" 
			},
			{
				"x": 1.8547641038,
				"y": -0.6723195303,
				"z": -1.3893282309,
				"element": "H" 
			},
			{
				"x": 0.2661996542,
				"y": -0.5587039566,
				"z": -2.1240269857,
				"element": "H" 
			},
			{
				"x": 0.5928037354,
				"y": -2.8952694897,
				"z": -1.9695534462,
				"element": "H" 
			},
			{
				"x": 1.3918208697,
				"y": -2.8174696465,
				"z": -0.4155189031,
				"element": "H" 
			},
			{
				"x": -0.6124387348,
				"y": -2.8746042039,
				"z": 0.7838190143,
				"element": "H" 
			},
			{
				"x": -1.2556638368,
				"y": -3.5761086258,
				"z": -0.6927436973,
				"element": "H" 
			},
			{
				"x": -2.6684294256,
				"y": -1.6605133303,
				"z": 0.1068687528,
				"element": "H" 
			},
			{
				"x": -1.9868899951,
				"y": -1.3437164712,
				"z": -1.4752662372,
				"element": "H" 
			},
			{
				"x": -1.4464414967,
				"y": -0.0617613778,
				"z": 1.0655118124,
				"element": "H" 
			},
			{
				"x": -0.4402268424,
				"y": -0.9729400427,
				"z": 3.4001736011,
				"element": "H" 
			},
			{
				"x": -1.2148943072,
				"y": 0.4573640164,
				"z": 5.2650259326,
				"element": "H" 
			},
			{
				"x": -0.5379287398,
				"y": 2.8489693411,
				"z": 5.367779764,
				"element": "H" 
			},
			{
				"x": 0.9158276774,
				"y": 3.791879038,
				"z": 3.582382398,
				"element": "H" 
			},
			{
				"x": 1.6760115071,
				"y": 2.3627868212,
				"z": 1.7143713475,
				"element": "H" 
			}
		],
		 "valence_orbital": [ 
			{
				"type": "occ",
				"energy": -0.31028,
				"method": "rhf"
			},
			{
				"type": "occ",
				"energy": -0.29988,
				"method": "rhf"
			},
			{
				"type": "occ",
				"energy": -0.24783,
				"method": "rhf"
			},
			{
				"type": "occ",
				"energy": -0.24067,
				"method": "rhf"
			},
			{
				"type": "occ",
				"energy": -0.19789,
				"method": "rhf"
			},
			{
				"type": "unocc",
				"energy": -0.00155,
				"method": "rhf"
			},
			{
				"type": "unocc",
				"energy": 0.00143,
				"method": "rhf"
			},
			{
				"type": "unocc",
				"energy": 0.07362,
				"method": "rhf"
			},
			{
				"type": "unocc",
				"energy": 0.09419,
				"method": "rhf"
			},
			{
				"type": "unocc",
				"energy": 0.10407,
				"method": "rhf"
			}
		],
		"cosmo_sigma_profile": { 
			"-0.025": 0.0,
			"-0.024": 0.0,
			"-0.023": 0.0,
			"-0.022": 0.0,
			"-0.021": 0.0,
			"-0.02": 0.0,
			"-0.019": 0.0,
			"-0.018": 0.0,
			"-0.017": 0.0,
			"-0.016": 0.0,
			"-0.015": 0.0,
			"-0.014": 0.0,
			"-0.013": 0.0,
			"-0.012": 0.0,
			"-0.011": 0.0,
			"-0.01": 0.0,
			"-0.009": 0.0,
			"-0.008": 0.0,
			"-0.007": 0.0826596270081,
			"-0.006": 2.15599937582,
			"-0.005": 10.2865548447,
			"-0.004": 15.2424904371,
			"-0.003": 28.6946229806,
			"-0.002": 34.930811782,
			"-0.001": 33.417149459,
			"0.0": 30.7848882306,
			"0.001": 21.5481898853,
			"0.002": 12.0699588021,
			"0.003": 9.44703920052,
			"0.004": 9.8689610745,
			"0.005": 8.4700191276,
			"0.006": 8.34052563195,
			"0.007": 2.8203184884,
			"0.008": 0.528957101661,
			"0.009": 1.36871572291,
			"0.01": 0.726679254085,
			"0.011": 0.435570688142,
			"0.012": 0.889143718355,
			"0.013": 0.236060167697,
			"0.014": 0.0272569038405,
			"0.015": 1.29969381897,
			"0.016": 0.592710743189,
			"0.017": 0.493730055874,
			"0.018": 0.36105251467,
			"0.019": 0.0943172334567,
			"0.02": 0.0,
			"0.021": 0.0,
			"0.022": 0.0,
			"0.023": 0.0,
			"0.024": 0.0,
			"0.025": 0.0
		}
	}
}
