{
	 "smiles": "O=S(=O)(CC#N)C1=CC=CS1", 
	 "Tm": 357.15, 
	 "num_atms": 16, 
	 "gaussian": { 
		 "optdone": 1, 
		 "sigma_profile": "yes", 
		 "theory": "DFT", 
		 "functional": "B3LYP", 
		 "basiset": "6-31G**", 
		 "properties": { 
			 "R2extent": 2588.6558, 
			 "electric_dipole_moment_norm": 4.55727666705, 
			 "electric_quadrupole_moment_norm": 18.2897150894, 
			 "total_energy": -1233.10711466, 
			 "HOMO_LUMO_gap": 0.2095, 
			 "cosmo_polarized_energy": -17.39, 
			 "cosmo_cavitation_energy": 24.7, 
			 "cosmo_dispersion_energy": -18.07, 
			 "cosmo_repulsion_energy": 1.36, 
			 "cosmo_total_nonelectrostatic_energy": 7.99, 
			 "SMD_solvation_energy": 5.0 
		},
		"coords": [
			{
				"x": -2.5078477392,
				"y": 1.1523780515,
				"z": -0.2442393842,
				"element": "O" 
			},
			{
				"x": -1.0894665679,
				"y": 0.7898425113,
				"z": -0.2799812884,
				"element": "S" 
			},
			{
				"x": -0.038038874,
				"y": 1.6650767461,
				"z": 0.2489182093,
				"element": "O" 
			},
			{
				"x": -0.6291589378,
				"y": 0.554028552,
				"z": -2.0605831777,
				"element": "C" 
			},
			{
				"x": -1.4759777292,
				"y": -0.39142783,
				"z": -2.7661436019,
				"element": "C" 
			},
			{
				"x": -2.1501337562,
				"y": -1.1614607398,
				"z": -3.3134753624,
				"element": "N" 
			},
			{
				"x": -0.8927082525,
				"y": -0.8052535904,
				"z": 0.4541159929,
				"element": "C" 
			},
			{
				"x": 0.2520325872,
				"y": -1.2547392796,
				"z": 1.0700966828,
				"element": "C" 
			},
			{
				"x": 0.0942472168,
				"y": -2.5667232505,
				"z": 1.5913199948,
				"element": "C" 
			},
			{
				"x": -1.1614119216,
				"y": -3.0736901947,
				"z": 1.3644159187,
				"element": "C" 
			},
			{
				"x": -2.1829186183,
				"y": -1.9703637484,
				"z": 0.5181823811,
				"element": "S" 
			},
			{
				"x": 0.4186876542,
				"y": 0.2442599748,
				"z": -2.0812485865,
				"element": "H" 
			},
			{
				"x": -0.7147614401,
				"y": 1.5574855943,
				"z": -2.4897120351,
				"element": "H" 
			},
			{
				"x": 1.149318623,
				"y": -0.6536276516,
				"z": 1.1540861239,
				"element": "H" 
			},
			{
				"x": 0.871998892,
				"y": -3.1070426845,
				"z": 2.117615556,
				"element": "H" 
			},
			{
				"x": -1.5499611364,
				"y": -4.0405424604,
				"z": 1.6557325765,
				"element": "H" 
			}
		],
		 "valence_orbital": [ 
			{
				"type": "occ",
				"energy": -0.3372,
				"method": "rhf"
			},
			{
				"type": "occ",
				"energy": -0.32184,
				"method": "rhf"
			},
			{
				"type": "occ",
				"energy": -0.30967,
				"method": "rhf"
			},
			{
				"type": "occ",
				"energy": -0.28372,
				"method": "rhf"
			},
			{
				"type": "occ",
				"energy": -0.27471,
				"method": "rhf"
			},
			{
				"type": "unocc",
				"energy": -0.06521,
				"method": "rhf"
			},
			{
				"type": "unocc",
				"energy": -0.01883,
				"method": "rhf"
			},
			{
				"type": "unocc",
				"energy": 0.00238,
				"method": "rhf"
			},
			{
				"type": "unocc",
				"energy": 0.01263,
				"method": "rhf"
			},
			{
				"type": "unocc",
				"energy": 0.02549,
				"method": "rhf"
			}
		],
		"cosmo_sigma_profile": { 
			"-0.025": 0.0,
			"-0.024": 0.0,
			"-0.023": 0.0,
			"-0.022": 0.0,
			"-0.021": 0.0,
			"-0.02": 0.0,
			"-0.019": 0.0,
			"-0.018": 0.0,
			"-0.017": 0.0,
			"-0.016": 0.0,
			"-0.015": 0.0,
			"-0.014": 0.0,
			"-0.013": 1.22775330122,
			"-0.012": 4.40587800964,
			"-0.011": 5.00300360258,
			"-0.01": 5.70472463451,
			"-0.009": 6.01876038053,
			"-0.008": 9.58943306864,
			"-0.007": 7.96397238379,
			"-0.006": 8.75081273122,
			"-0.005": 8.59425500395,
			"-0.004": 6.48397347361,
			"-0.003": 6.28882502858,
			"-0.002": 8.94600046393,
			"-0.001": 10.2250047047,
			"0.0": 13.3870521963,
			"0.001": 16.8724406865,
			"0.002": 15.2543552585,
			"0.003": 9.11985523567,
			"0.004": 6.15831355783,
			"0.005": 4.85452189176,
			"0.006": 6.12793171743,
			"0.007": 6.86513418821,
			"0.008": 4.86215129293,
			"0.009": 10.6261458141,
			"0.01": 11.9078192016,
			"0.011": 5.32835441108,
			"0.012": 1.25906950365,
			"0.013": 0.000205078530782,
			"0.014": 0.0,
			"0.015": 0.0,
			"0.016": 0.0,
			"0.017": 0.0,
			"0.018": 0.0,
			"0.019": 0.0,
			"0.02": 0.0,
			"0.021": 0.0,
			"0.022": 0.0,
			"0.023": 0.0,
			"0.024": 0.0,
			"0.025": 0.0
		}
	}
}
