{
	 "smiles": "ClC1=CC2=C(C=C1)C(=O)CC2", 
	 "Tm": 367.15, 
	 "num_atms": 18, 
	 "gaussian": { 
		 "optdone": 1, 
		 "sigma_profile": "yes", 
		 "theory": "DFT", 
		 "functional": "B3LYP", 
		 "basiset": "6-31G**", 
		 "properties": { 
			 "R2extent": 2356.4012, 
			 "electric_dipole_moment_norm": 2.32783230925, 
			 "electric_quadrupole_moment_norm": 14.633820632, 
			 "total_energy": -882.602343509, 
			 "HOMO_LUMO_gap": 0.18452, 
			 "cosmo_polarized_energy": -8.35, 
			 "cosmo_cavitation_energy": 23.69, 
			 "cosmo_dispersion_energy": -17.83, 
			 "cosmo_repulsion_energy": 1.44, 
			 "cosmo_total_nonelectrostatic_energy": 7.29, 
			 "SMD_solvation_energy": 3.95 
		},
		"coords": [
			{
				"x": -1.7006654989,
				"y": -3.3052697222,
				"z": -0.5396506184,
				"element": "Cl" 
			},
			{
				"x": -0.7988126903,
				"y": -1.8083383105,
				"z": -0.3704250895,
				"element": "C" 
			},
			{
				"x": -0.3296631354,
				"y": -1.1711886846,
				"z": -1.5203463018,
				"element": "C" 
			},
			{
				"x": 0.3839975132,
				"y": 0.0162194266,
				"z": -1.3616646202,
				"element": "C" 
			},
			{
				"x": 0.6098149271,
				"y": 0.5325070483,
				"z": -0.0821464619,
				"element": "C" 
			},
			{
				"x": 0.1359104181,
				"y": -0.1130457869,
				"z": 1.0631512791,
				"element": "C" 
			},
			{
				"x": -0.5771065917,
				"y": -1.2978107864,
				"z": 0.9181723637,
				"element": "C" 
			},
			{
				"x": 1.3848548307,
				"y": 1.7932608121,
				"z": -0.1650946955,
				"element": "C" 
			},
			{
				"x": 1.7455183177,
				"y": 2.4900506712,
				"z": 0.7641350873,
				"element": "O" 
			},
			{
				"x": 1.6536599099,
				"y": 2.0630220752,
				"z": -1.6559939963,
				"element": "C" 
			},
			{
				"x": 0.9967774929,
				"y": 0.8974187451,
				"z": -2.435208465,
				"element": "C" 
			},
			{
				"x": -0.5227097736,
				"y": -1.599364859,
				"z": -2.4985282873,
				"element": "H" 
			},
			{
				"x": 0.3276582253,
				"y": 0.3132478162,
				"z": 2.0432932621,
				"element": "H" 
			},
			{
				"x": -0.9630073817,
				"y": -1.8316040545,
				"z": 1.7792884518,
				"element": "H" 
			},
			{
				"x": 1.2391073699,
				"y": 3.0407345464,
				"z": -1.9214784891,
				"element": "H" 
			},
			{
				"x": 2.7344348981,
				"y": 2.128224584,
				"z": -1.817040958,
				"element": "H" 
			},
			{
				"x": 0.2309256062,
				"y": 1.2499626031,
				"z": -3.1352581168,
				"element": "H" 
			},
			{
				"x": 1.7265055625,
				"y": 0.337273876,
				"z": -3.0307043443,
				"element": "H" 
			}
		],
		 "valence_orbital": [ 
			{
				"type": "occ",
				"energy": -0.32827,
				"method": "rhf"
			},
			{
				"type": "occ",
				"energy": -0.32129,
				"method": "rhf"
			},
			{
				"type": "occ",
				"energy": -0.27027,
				"method": "rhf"
			},
			{
				"type": "occ",
				"energy": -0.25632,
				"method": "rhf"
			},
			{
				"type": "occ",
				"energy": -0.24688,
				"method": "rhf"
			},
			{
				"type": "unocc",
				"energy": -0.06236,
				"method": "rhf"
			},
			{
				"type": "unocc",
				"energy": -0.025,
				"method": "rhf"
			},
			{
				"type": "unocc",
				"energy": 0.02189,
				"method": "rhf"
			},
			{
				"type": "unocc",
				"energy": 0.03506,
				"method": "rhf"
			},
			{
				"type": "unocc",
				"energy": 0.09249,
				"method": "rhf"
			}
		],
		"cosmo_sigma_profile": { 
			"-0.025": 0.0,
			"-0.024": 0.0,
			"-0.023": 0.0,
			"-0.022": 0.0,
			"-0.021": 0.0,
			"-0.02": 0.0,
			"-0.019": 0.0,
			"-0.018": 0.0,
			"-0.017": 0.0,
			"-0.016": 0.0,
			"-0.015": 0.0,
			"-0.014": 0.0,
			"-0.013": 0.0,
			"-0.012": 0.0,
			"-0.011": 0.0,
			"-0.01": 0.0,
			"-0.009": 0.0,
			"-0.008": 1.29831781146,
			"-0.007": 4.84361197769,
			"-0.006": 9.22224977339,
			"-0.005": 17.6115814107,
			"-0.004": 20.1853368395,
			"-0.003": 14.5815271669,
			"-0.002": 13.4899722737,
			"-0.001": 13.14671076,
			"0.0": 14.1522323341,
			"0.001": 17.5231828684,
			"0.002": 20.2052974861,
			"0.003": 11.0848553798,
			"0.004": 11.9352953075,
			"0.005": 3.73457992038,
			"0.006": 1.33514900661,
			"0.007": 1.5223664026,
			"0.008": 1.59563923057,
			"0.009": 1.44078084576,
			"0.01": 2.08583628932,
			"0.011": 2.98856061764,
			"0.012": 4.98407587853,
			"0.013": 2.49699399003,
			"0.014": 0.268450449338,
			"0.015": 0.0,
			"0.016": 0.0,
			"0.017": 0.0,
			"0.018": 0.0,
			"0.019": 0.0,
			"0.02": 0.0,
			"0.021": 0.0,
			"0.022": 0.0,
			"0.023": 0.0,
			"0.024": 0.0,
			"0.025": 0.0
		}
	}
}
