{
	 "smiles": "C[Si](C)(C)O[Si](O[Si](C)(C)C)(O[Si](C)(C)C)O[Si](C)(C)C", 
	 "Tm": 213.15, 
	 "num_atms": 57, 
	 "gaussian": { 
		 "optdone": 1, 
		 "sigma_profile": "yes", 
		 "theory": "DFT", 
		 "functional": "B3LYP", 
		 "basiset": "6-31G**", 
		 "properties": { 
			 "R2extent": 9796.4866, 
			 "electric_dipole_moment_norm": 0.0187283208003, 
			 "electric_quadrupole_moment_norm": 0.155037769592, 
			 "total_energy": -2227.91610893, 
			 "HOMO_LUMO_gap": 0.30827, 
			 "cosmo_polarized_energy": -7.32, 
			 "cosmo_cavitation_energy": 67.62, 
			 "cosmo_dispersion_energy": -29.21, 
			 "cosmo_repulsion_energy": 2.68, 
			 "cosmo_total_nonelectrostatic_energy": 41.09, 
			 "SMD_solvation_energy": 16.56 
		},
		"coords": [
			{
				"x": 2.5339344157,
				"y": 1.7749322283,
				"z": 2.0822494188,
				"element": "C" 
			},
			{
				"x": 2.8498784284,
				"y": 0.5584759331,
				"z": 0.6788972342,
				"element": "Si" 
			},
			{
				"x": 4.0645860789,
				"y": -0.7758946469,
				"z": 1.2159240639,
				"element": "C" 
			},
			{
				"x": 3.4912876147,
				"y": 1.4655053878,
				"z": -0.8439034754,
				"element": "C" 
			},
			{
				"x": 1.4176277402,
				"y": -0.2274782291,
				"z": 0.3101046229,
				"element": "O" 
			},
			{
				"x": -0.0019713009,
				"y": -0.0420109028,
				"z": -0.486159682,
				"element": "Si" 
			},
			{
				"x": -1.1155212855,
				"y": -1.0335006114,
				"z": 0.1923035424,
				"element": "O" 
			},
			{
				"x": -1.5964168637,
				"y": -1.6892099813,
				"z": 1.6565289127,
				"element": "Si" 
			},
			{
				"x": -0.4798425235,
				"y": -3.1505641403,
				"z": 2.0648852147,
				"element": "C" 
			},
			{
				"x": -3.3767751952,
				"y": -2.2561628302,
				"z": 1.425893003,
				"element": "C" 
			},
			{
				"x": -1.4860923071,
				"y": -0.3813917936,
				"z": 3.0094632104,
				"element": "C" 
			},
			{
				"x": -0.462227151,
				"y": 1.5265071272,
				"z": -0.3781934655,
				"element": "O" 
			},
			{
				"x": -1.368499117,
				"y": 2.6994058728,
				"z": -1.1585483779,
				"element": "Si" 
			},
			{
				"x": -1.7309551627,
				"y": 4.0304877898,
				"z": 0.1225936857,
				"element": "C" 
			},
			{
				"x": -0.3551087465,
				"y": 3.4035366108,
				"z": -2.5820446417,
				"element": "C" 
			},
			{
				"x": -2.971043992,
				"y": 1.9459364368,
				"z": -1.8042977572,
				"element": "C" 
			},
			{
				"x": 0.1512981686,
				"y": -0.4336803371,
				"z": -2.069497672,
				"element": "O" 
			},
			{
				"x": 0.1336481402,
				"y": -1.7366059011,
				"z": -3.1220648562,
				"element": "Si" 
			},
			{
				"x": 0.9966468706,
				"y": -1.1617169066,
				"z": -4.6934348856,
				"element": "C" 
			},
			{
				"x": -1.6553483481,
				"y": -2.2068330715,
				"z": -3.4786375134,
				"element": "C" 
			},
			{
				"x": 1.053932398,
				"y": -3.1911108642,
				"z": -2.3535810451,
				"element": "C" 
			},
			{
				"x": 3.4451675524,
				"y": 2.320965892,
				"z": 2.3523746999,
				"element": "H" 
			},
			{
				"x": 1.7732497644,
				"y": 2.5084406336,
				"z": 1.795441497,
				"element": "H" 
			},
			{
				"x": 2.1765031227,
				"y": 1.2593215039,
				"z": 2.9803812246,
				"element": "H" 
			},
			{
				"x": 4.2394383323,
				"y": -1.497450064,
				"z": 0.4107508863,
				"element": "H" 
			},
			{
				"x": 5.0328351481,
				"y": -0.3446505052,
				"z": 1.4947938016,
				"element": "H" 
			},
			{
				"x": 3.6847510812,
				"y": -1.3297132057,
				"z": 2.0812211785,
				"element": "H" 
			},
			{
				"x": 3.6587864025,
				"y": 0.7742026968,
				"z": -1.6767226414,
				"element": "H" 
			},
			{
				"x": 4.4409511262,
				"y": 1.970622367,
				"z": -0.6327743351,
				"element": "H" 
			},
			{
				"x": 2.7778665026,
				"y": 2.2245751694,
				"z": -1.1819725245,
				"element": "H" 
			},
			{
				"x": -0.7533650808,
				"y": -3.6087841164,
				"z": 3.0223305828,
				"element": "H" 
			},
			{
				"x": 0.5660932614,
				"y": -2.8329607134,
				"z": 2.1294176209,
				"element": "H" 
			},
			{
				"x": -0.5448398576,
				"y": -3.926476176,
				"z": 1.2941800376,
				"element": "H" 
			},
			{
				"x": -4.0292552168,
				"y": -1.4139108858,
				"z": 1.1721286985,
				"element": "H" 
			},
			{
				"x": -3.454779558,
				"y": -2.9916357331,
				"z": 0.6179839608,
				"element": "H" 
			},
			{
				"x": -3.7688439841,
				"y": -2.7199904537,
				"z": 2.3382484376,
				"element": "H" 
			},
			{
				"x": -2.109684267,
				"y": 0.487543587,
				"z": 2.7737087308,
				"element": "H" 
			},
			{
				"x": -1.8198289274,
				"y": -0.7806718953,
				"z": 3.9742160181,
				"element": "H" 
			},
			{
				"x": -0.4573180766,
				"y": -0.0267705192,
				"z": 3.1331800235,
				"element": "H" 
			},
			{
				"x": -0.8041400219,
				"y": 4.4506951042,
				"z": 0.5277524581,
				"element": "H" 
			},
			{
				"x": -2.3058010871,
				"y": 3.6242308447,
				"z": 0.9616603182,
				"element": "H" 
			},
			{
				"x": -2.3091268068,
				"y": 4.8543701394,
				"z": -0.3112081401,
				"element": "H" 
			},
			{
				"x": -0.0830517743,
				"y": 2.6147205547,
				"z": -3.2911208202,
				"element": "H" 
			},
			{
				"x": -0.9127903985,
				"y": 4.1721108295,
				"z": -3.129545169,
				"element": "H" 
			},
			{
				"x": 0.5726485156,
				"y": 3.8602665729,
				"z": -2.2201945143,
				"element": "H" 
			},
			{
				"x": -3.5911234228,
				"y": 2.7010673737,
				"z": -2.3011354554,
				"element": "H" 
			},
			{
				"x": -2.7691788684,
				"y": 1.1502922343,
				"z": -2.5292552791,
				"element": "H" 
			},
			{
				"x": -3.5617948549,
				"y": 1.5111159207,
				"z": -0.9909876889,
				"element": "H" 
			},
			{
				"x": 1.0135155971,
				"y": -1.9532552267,
				"z": -5.4513478088,
				"element": "H" 
			},
			{
				"x": 2.0328951012,
				"y": -0.8708378184,
				"z": -4.4907170883,
				"element": "H" 
			},
			{
				"x": 0.4874652057,
				"y": -0.2948360115,
				"z": -5.1281486957,
				"element": "H" 
			},
			{
				"x": -2.1782110656,
				"y": -2.4703881323,
				"z": -2.5533711407,
				"element": "H" 
			},
			{
				"x": -1.7166950911,
				"y": -3.0650073299,
				"z": -4.157783945,
				"element": "H" 
			},
			{
				"x": -2.1986569871,
				"y": -1.3760933962,
				"z": -3.9422149885,
				"element": "H" 
			},
			{
				"x": 2.0895838798,
				"y": -2.9250514061,
				"z": -2.1166436945,
				"element": "H" 
			},
			{
				"x": 0.5747219229,
				"y": -3.51603607,
				"z": -1.4239311613,
				"element": "H" 
			},
			{
				"x": 1.0767749684,
				"y": -4.0494489358,
				"z": -3.0349746208,
				"element": "H" 
			}
		],
		 "valence_orbital": [ 
			{
				"type": "occ",
				"energy": -0.28301,
				"method": "rhf"
			},
			{
				"type": "occ",
				"energy": -0.28161,
				"method": "rhf"
			},
			{
				"type": "occ",
				"energy": -0.27753,
				"method": "rhf"
			},
			{
				"type": "occ",
				"energy": -0.26979,
				"method": "rhf"
			},
			{
				"type": "occ",
				"energy": -0.26968,
				"method": "rhf"
			},
			{
				"type": "unocc",
				"energy": 0.03859,
				"method": "rhf"
			},
			{
				"type": "unocc",
				"energy": 0.06903,
				"method": "rhf"
			},
			{
				"type": "unocc",
				"energy": 0.06922,
				"method": "rhf"
			},
			{
				"type": "unocc",
				"energy": 0.07126,
				"method": "rhf"
			},
			{
				"type": "unocc",
				"energy": 0.07617,
				"method": "rhf"
			}
		],
		"cosmo_sigma_profile": { 
			"-0.025": 0.0,
			"-0.024": 0.0,
			"-0.023": 0.0,
			"-0.022": 0.0,
			"-0.021": 0.0,
			"-0.02": 0.0,
			"-0.019": 0.0,
			"-0.018": 0.0,
			"-0.017": 0.0,
			"-0.016": 0.0,
			"-0.015": 0.0,
			"-0.014": 0.0,
			"-0.013": 0.0,
			"-0.012": 0.0,
			"-0.011": 0.0,
			"-0.01": 0.0,
			"-0.009": 0.0,
			"-0.008": 0.0,
			"-0.007": 0.0,
			"-0.006": 0.0,
			"-0.005": 0.00673674616768,
			"-0.004": 22.3933174167,
			"-0.003": 60.0404039079,
			"-0.002": 71.2316074693,
			"-0.001": 69.110951729,
			"0.0": 69.0641480162,
			"0.001": 89.3062310302,
			"0.002": 53.7767377779,
			"0.003": 29.9795807554,
			"0.004": 12.2370316581,
			"0.005": 8.39047505377,
			"0.006": 6.20076859366,
			"0.007": 3.79800620818,
			"0.008": 3.13431405614,
			"0.009": 0.941194624483,
			"0.01": 0.0,
			"0.011": 0.0,
			"0.012": 0.0,
			"0.013": 0.0,
			"0.014": 0.0,
			"0.015": 0.0,
			"0.016": 0.0,
			"0.017": 0.0,
			"0.018": 0.0,
			"0.019": 0.0,
			"0.02": 0.0,
			"0.021": 0.0,
			"0.022": 0.0,
			"0.023": 0.0,
			"0.024": 0.0,
			"0.025": 0.0
		}
	}
}
