{
	 "smiles": "COC1=CC=C(CNC(=O)C2CCNCC2)C=C1", 
	 "Tm": 392.15, 
	 "num_atms": 38, 
	 "gaussian": { 
		 "optdone": 1, 
		 "sigma_profile": "yes", 
		 "theory": "DFT", 
		 "functional": "B3LYP", 
		 "basiset": "6-31G**", 
		 "properties": { 
			 "R2extent": 6801.4384, 
			 "electric_dipole_moment_norm": 5.42227077985, 
			 "electric_quadrupole_moment_norm": 9.6915535509, 
			 "total_energy": -805.486271412, 
			 "HOMO_LUMO_gap": 0.19266, 
			 "cosmo_polarized_energy": -17.49, 
			 "cosmo_cavitation_energy": 39.23, 
			 "cosmo_dispersion_energy": -27.51, 
			 "cosmo_repulsion_energy": 2.16, 
			 "cosmo_total_nonelectrostatic_energy": 13.87, 
			 "SMD_solvation_energy": 4.5 
		},
		"coords": [
			{
				"x": -3.058955987,
				"y": -5.0691328978,
				"z": 1.4074202069,
				"element": "C" 
			},
			{
				"x": -3.4873847323,
				"y": -3.7330308764,
				"z": 1.6145649121,
				"element": "O" 
			},
			{
				"x": -2.5375853657,
				"y": -2.7745797116,
				"z": 1.819312546,
				"element": "C" 
			},
			{
				"x": -1.1579459544,
				"y": -3.00885281,
				"z": 1.8371596517,
				"element": "C" 
			},
			{
				"x": -0.2819588269,
				"y": -1.9408696308,
				"z": 2.0519337772,
				"element": "C" 
			},
			{
				"x": -0.7470268803,
				"y": -0.6401944963,
				"z": 2.2560344604,
				"element": "C" 
			},
			{
				"x": 0.2392721239,
				"y": 0.4843122916,
				"z": 2.5479057457,
				"element": "C" 
			},
			{
				"x": -0.1858333608,
				"y": 1.8209036175,
				"z": 2.1562920007,
				"element": "N" 
			},
			{
				"x": -0.2405366669,
				"y": 2.3707443487,
				"z": 0.8973873049,
				"element": "C" 
			},
			{
				"x": -0.72730457,
				"y": 3.4848274564,
				"z": 0.731915099,
				"element": "O" 
			},
			{
				"x": 0.3840815035,
				"y": 1.5787828572,
				"z": -0.2514101851,
				"element": "C" 
			},
			{
				"x": 1.9050366964,
				"y": 1.9086659511,
				"z": -0.3203581113,
				"element": "C" 
			},
			{
				"x": 2.4626316285,
				"y": 1.6101921303,
				"z": -1.7133869617,
				"element": "C" 
			},
			{
				"x": 1.8738934372,
				"y": 2.5261665764,
				"z": -2.7034157098,
				"element": "N" 
			},
			{
				"x": 0.4988028172,
				"y": 2.9568068042,
				"z": -2.3881490485,
				"element": "C" 
			},
			{
				"x": -0.3085706436,
				"y": 1.9166625811,
				"z": -1.5999201898,
				"element": "C" 
			},
			{
				"x": -2.1325124032,
				"y": -0.4233233149,
				"z": 2.2314303561,
				"element": "C" 
			},
			{
				"x": -3.0183063142,
				"y": -1.4712061848,
				"z": 2.0155142395,
				"element": "C" 
			},
			{
				"x": -3.9663486373,
				"y": -5.6593662043,
				"z": 1.2706423286,
				"element": "H" 
			},
			{
				"x": -2.4319489309,
				"y": -5.1600185702,
				"z": 0.5108457944,
				"element": "H" 
			},
			{
				"x": -2.5044465117,
				"y": -5.4563250706,
				"z": 2.2721979632,
				"element": "H" 
			},
			{
				"x": -0.7566565552,
				"y": -4.0027390233,
				"z": 1.6782466677,
				"element": "H" 
			},
			{
				"x": 0.7884825896,
				"y": -2.1361881519,
				"z": 2.0586532691,
				"element": "H" 
			},
			{
				"x": 1.2038083862,
				"y": 0.2494014176,
				"z": 2.0847327275,
				"element": "H" 
			},
			{
				"x": 0.4355458644,
				"y": 0.5290649903,
				"z": 3.6263137232,
				"element": "H" 
			},
			{
				"x": -0.5979231965,
				"y": 2.4174646821,
				"z": 2.8613028909,
				"element": "H" 
			},
			{
				"x": 0.2723463746,
				"y": 0.5067407244,
				"z": -0.0583543304,
				"element": "H" 
			},
			{
				"x": 2.4587776927,
				"y": 1.3389776816,
				"z": 0.4337373536,
				"element": "H" 
			},
			{
				"x": 2.0645419826,
				"y": 2.9698283215,
				"z": -0.097639937,
				"element": "H" 
			},
			{
				"x": 3.5538014888,
				"y": 1.7336456201,
				"z": -1.7126362421,
				"element": "H" 
			},
			{
				"x": 2.2684252796,
				"y": 0.5458626117,
				"z": -1.941614945,
				"element": "H" 
			},
			{
				"x": 1.8902386577,
				"y": 2.0844425186,
				"z": -3.6165822971,
				"element": "H" 
			},
			{
				"x": -0.0043273756,
				"y": 3.2026968089,
				"z": -3.3290901428,
				"element": "H" 
			},
			{
				"x": 0.5286786306,
				"y": 3.8826202328,
				"z": -1.8017334215,
				"element": "H" 
			},
			{
				"x": -0.4020860077,
				"y": 1.0004817155,
				"z": -2.1959335106,
				"element": "H" 
			},
			{
				"x": -1.3180519385,
				"y": 2.2940685618,
				"z": -1.4150518332,
				"element": "H" 
			},
			{
				"x": -2.5203605726,
				"y": 0.5815628009,
				"z": 2.370099871,
				"element": "H" 
			},
			{
				"x": -4.0905937227,
				"y": -1.3062963594,
				"z": 1.9909339762,
				"element": "H" 
			}
		],
		 "valence_orbital": [ 
			{
				"type": "occ",
				"energy": -0.25663,
				"method": "rhf"
			},
			{
				"type": "occ",
				"energy": -0.24824,
				"method": "rhf"
			},
			{
				"type": "occ",
				"energy": -0.23836,
				"method": "rhf"
			},
			{
				"type": "occ",
				"energy": -0.2201,
				"method": "rhf"
			},
			{
				"type": "occ",
				"energy": -0.20146,
				"method": "rhf"
			},
			{
				"type": "unocc",
				"energy": -0.0088,
				"method": "rhf"
			},
			{
				"type": "unocc",
				"energy": 0.00472,
				"method": "rhf"
			},
			{
				"type": "unocc",
				"energy": 0.03053,
				"method": "rhf"
			},
			{
				"type": "unocc",
				"energy": 0.07381,
				"method": "rhf"
			},
			{
				"type": "unocc",
				"energy": 0.08533,
				"method": "rhf"
			}
		],
		"cosmo_sigma_profile": { 
			"-0.025": 0.0,
			"-0.024": 0.0,
			"-0.023": 0.0,
			"-0.022": 0.0,
			"-0.021": 0.0,
			"-0.02": 0.0,
			"-0.019": 0.0,
			"-0.018": 0.0,
			"-0.017": 0.0,
			"-0.016": 0.0,
			"-0.015": 0.0,
			"-0.014": 0.0510436658493,
			"-0.013": 1.15674958224,
			"-0.012": 0.884868399993,
			"-0.011": 1.0284738684,
			"-0.01": 1.90977178934,
			"-0.009": 2.04397598569,
			"-0.008": 3.2228754411,
			"-0.007": 2.54117673984,
			"-0.006": 14.6005184613,
			"-0.005": 24.1497223617,
			"-0.004": 24.2406772641,
			"-0.003": 31.5078126801,
			"-0.002": 35.5997566262,
			"-0.001": 29.4079429086,
			"0.0": 27.7395830981,
			"0.001": 14.1806066915,
			"0.002": 11.5477706142,
			"0.003": 13.2979353166,
			"0.004": 13.2579144938,
			"0.005": 12.6450047286,
			"0.006": 9.47420557476,
			"0.007": 2.58125015303,
			"0.008": 4.38609717877,
			"0.009": 3.97264679467,
			"0.01": 4.04236430915,
			"0.011": 1.94191119707,
			"0.012": 1.89131492723,
			"0.013": 2.97041982052,
			"0.014": 6.15016528216,
			"0.015": 2.20120932638,
			"0.016": 0.328370676766,
			"0.017": 0.683229530071,
			"0.018": 0.424845231185,
			"0.019": 0.502352165979,
			"0.02": 0.0,
			"0.021": 0.0,
			"0.022": 0.0,
			"0.023": 0.0,
			"0.024": 0.0,
			"0.025": 0.0
		}
	}
}
