{
	 "smiles": "CC(=O)CCCCC(C)=O", 
	 "Tm": 317.15, 
	 "num_atms": 24, 
	 "gaussian": { 
		 "optdone": 1, 
		 "sigma_profile": "yes", 
		 "theory": "DFT", 
		 "functional": "B3LYP", 
		 "basiset": "6-31G**", 
		 "properties": { 
			 "R2extent": 2375.9934, 
			 "electric_dipole_moment_norm": 4.11555834973, 
			 "electric_quadrupole_moment_norm": 14.1478509658, 
			 "total_energy": -463.741366123, 
			 "HOMO_LUMO_gap": 0.22038, 
			 "cosmo_polarized_energy": -13.19, 
			 "cosmo_cavitation_energy": 26.77, 
			 "cosmo_dispersion_energy": -18.67, 
			 "cosmo_repulsion_energy": 1.55, 
			 "cosmo_total_nonelectrostatic_energy": 9.65, 
			 "SMD_solvation_energy": 5.8 
		},
		"coords": [
			{
				"x": -3.613588602,
				"y": 1.2205273534,
				"z": -0.5376499902,
				"element": "C" 
			},
			{
				"x": -2.4780331765,
				"y": 0.2190798081,
				"z": -0.6608437014,
				"element": "C" 
			},
			{
				"x": -2.2886910925,
				"y": -0.4063950199,
				"z": -1.6874855915,
				"element": "O" 
			},
			{
				"x": -1.5974810885,
				"y": 0.0339397271,
				"z": 0.5736268344,
				"element": "C" 
			},
			{
				"x": -0.3537727848,
				"y": -0.8302118196,
				"z": 0.3342555643,
				"element": "C" 
			},
			{
				"x": 0.7395928664,
				"y": -0.1502228605,
				"z": -0.5109704024,
				"element": "C" 
			},
			{
				"x": 1.486755209,
				"y": 1.035318791,
				"z": 0.1542315348,
				"element": "C" 
			},
			{
				"x": 2.7432116958,
				"y": 0.6574775204,
				"z": 0.9355975321,
				"element": "C" 
			},
			{
				"x": 2.6085034149,
				"y": -0.3070168434,
				"z": 2.103611752,
				"element": "C" 
			},
			{
				"x": 3.8271985939,
				"y": 1.1198904457,
				"z": 0.6311056306,
				"element": "O" 
			},
			{
				"x": -4.190713143,
				"y": 1.0555332388,
				"z": 0.3788586693,
				"element": "H" 
			},
			{
				"x": -3.2048959379,
				"y": 2.236706288,
				"z": -0.4780627525,
				"element": "H" 
			},
			{
				"x": -4.2664888072,
				"y": 1.1488341509,
				"z": -1.4085787232,
				"element": "H" 
			},
			{
				"x": -2.2344443979,
				"y": -0.4220255601,
				"z": 1.3459971404,
				"element": "H" 
			},
			{
				"x": -1.3429684273,
				"y": 1.0253886367,
				"z": 0.9731861585,
				"element": "H" 
			},
			{
				"x": -0.671880636,
				"y": -1.7397360395,
				"z": -0.185369446,
				"element": "H" 
			},
			{
				"x": 0.0492118827,
				"y": -1.1445249742,
				"z": 1.3032562728,
				"element": "H" 
			},
			{
				"x": 0.2777346105,
				"y": 0.2068458344,
				"z": -1.4363266767,
				"element": "H" 
			},
			{
				"x": 1.4715578783,
				"y": -0.9051521409,
				"z": -0.8238005047,
				"element": "H" 
			},
			{
				"x": 1.8146323606,
				"y": 1.7493091547,
				"z": -0.6056959519,
				"element": "H" 
			},
			{
				"x": 0.8103894818,
				"y": 1.5743159118,
				"z": 0.8331073782,
				"element": "H" 
			},
			{
				"x": 2.3344337593,
				"y": -1.3053886441,
				"z": 1.7436134827,
				"element": "H" 
			},
			{
				"x": 1.8192907675,
				"y": 0.0130686678,
				"z": 2.7927974229,
				"element": "H" 
			},
			{
				"x": 3.561145573,
				"y": -0.3696616266,
				"z": 2.6316383678,
				"element": "H" 
			}
		],
		 "valence_orbital": [ 
			{
				"type": "occ",
				"energy": -0.34298,
				"method": "rhf"
			},
			{
				"type": "occ",
				"energy": -0.33151,
				"method": "rhf"
			},
			{
				"type": "occ",
				"energy": -0.32923,
				"method": "rhf"
			},
			{
				"type": "occ",
				"energy": -0.25136,
				"method": "rhf"
			},
			{
				"type": "occ",
				"energy": -0.23966,
				"method": "rhf"
			},
			{
				"type": "unocc",
				"energy": -0.01928,
				"method": "rhf"
			},
			{
				"type": "unocc",
				"energy": -0.01014,
				"method": "rhf"
			},
			{
				"type": "unocc",
				"energy": 0.07061,
				"method": "rhf"
			},
			{
				"type": "unocc",
				"energy": 0.09463,
				"method": "rhf"
			},
			{
				"type": "unocc",
				"energy": 0.10999,
				"method": "rhf"
			}
		],
		"cosmo_sigma_profile": { 
			"-0.025": 0.0,
			"-0.024": 0.0,
			"-0.023": 0.0,
			"-0.022": 0.0,
			"-0.021": 0.0,
			"-0.02": 0.0,
			"-0.019": 0.0,
			"-0.018": 0.0,
			"-0.017": 0.0,
			"-0.016": 0.0,
			"-0.015": 0.0,
			"-0.014": 0.0,
			"-0.013": 0.0,
			"-0.012": 0.0,
			"-0.011": 0.0,
			"-0.01": 0.0,
			"-0.009": 0.0,
			"-0.008": 0.0,
			"-0.007": 0.349429786328,
			"-0.006": 13.7588078481,
			"-0.005": 21.7159934973,
			"-0.004": 22.3213263684,
			"-0.003": 23.6737739941,
			"-0.002": 26.2595547561,
			"-0.001": 27.3469594383,
			"0.0": 16.534513204,
			"0.001": 5.54135629521,
			"0.002": 3.61329388035,
			"0.003": 4.07209297939,
			"0.004": 2.93730225048,
			"0.005": 3.08873842311,
			"0.006": 3.40450452191,
			"0.007": 3.9633594682,
			"0.008": 2.5779354627,
			"0.009": 3.57470132604,
			"0.01": 3.85352336355,
			"0.011": 4.79463041996,
			"0.012": 8.50220645067,
			"0.013": 5.55987773995,
			"0.014": 1.03822358687,
			"0.015": 0.0,
			"0.016": 0.0,
			"0.017": 0.0,
			"0.018": 0.0,
			"0.019": 0.0,
			"0.02": 0.0,
			"0.021": 0.0,
			"0.022": 0.0,
			"0.023": 0.0,
			"0.024": 0.0,
			"0.025": 0.0
		}
	}
}
