{
	 "smiles": "CCCC1NN2C(S1)=NN=C2C1=CC=C(OCC)C=C1", 
	 "Tm": 363.15, 
	 "num_atms": 38, 
	 "gaussian": { 
		 "optdone": 1, 
		 "sigma_profile": "yes", 
		 "theory": "DFT", 
		 "functional": "B3LYP", 
		 "basiset": "6-31G**", 
		 "properties": { 
			 "R2extent": 8729.4173, 
			 "electric_dipole_moment_norm": 7.44870846456, 
			 "electric_quadrupole_moment_norm": 20.7221812906, 
			 "total_energy": -1236.6911168, 
			 "HOMO_LUMO_gap": 0.17728, 
			 "cosmo_polarized_energy": -21.6, 
			 "cosmo_cavitation_energy": 41.57, 
			 "cosmo_dispersion_energy": -29.93, 
			 "cosmo_repulsion_energy": 2.26, 
			 "cosmo_total_nonelectrostatic_energy": 13.9, 
			 "SMD_solvation_energy": 4.31 
		},
		"coords": [
			{
				"x": -3.801413295,
				"y": -0.3395762909,
				"z": 2.1702283582,
				"element": "C" 
			},
			{
				"x": -2.4942067261,
				"y": -1.0582001978,
				"z": 2.5306367831,
				"element": "C" 
			},
			{
				"x": -1.8200289716,
				"y": -0.64893532,
				"z": 3.8542638086,
				"element": "C" 
			},
			{
				"x": -0.9848121965,
				"y": 0.6368852199,
				"z": 3.9180324659,
				"element": "C" 
			},
			{
				"x": 0.0237092898,
				"y": 0.7297372166,
				"z": 2.8472961574,
				"element": "N" 
			},
			{
				"x": -0.5693463596,
				"y": 1.4904358239,
				"z": 1.8191026097,
				"element": "N" 
			},
			{
				"x": -1.5762697634,
				"y": 2.3572757399,
				"z": 2.1542853341,
				"element": "C" 
			},
			{
				"x": -1.9899749538,
				"y": 2.2544658001,
				"z": 3.8609668665,
				"element": "S" 
			},
			{
				"x": -2.0094323552,
				"y": 3.0021573952,
				"z": 1.1039923199,
				"element": "N" 
			},
			{
				"x": -1.2404519968,
				"y": 2.5560286206,
				"z": 0.0363348585,
				"element": "N" 
			},
			{
				"x": -0.3855969334,
				"y": 1.6378972172,
				"z": 0.4593952171,
				"element": "C" 
			},
			{
				"x": 0.5739855029,
				"y": 0.9262620222,
				"z": -0.3840646956,
				"element": "C" 
			},
			{
				"x": 0.6940039793,
				"y": 1.3112453491,
				"z": -1.7352948132,
				"element": "C" 
			},
			{
				"x": 1.5799531208,
				"y": 0.6648737414,
				"z": -2.5785464056,
				"element": "C" 
			},
			{
				"x": 2.3777642067,
				"y": -0.3895427354,
				"z": -2.0999914013,
				"element": "C" 
			},
			{
				"x": 3.2174456751,
				"y": -0.9552803474,
				"z": -3.0097222144,
				"element": "O" 
			},
			{
				"x": 4.0556008428,
				"y": -2.0353454143,
				"z": -2.5977988663,
				"element": "C" 
			},
			{
				"x": 4.8733248602,
				"y": -2.4651454136,
				"z": -3.8030809398,
				"element": "C" 
			},
			{
				"x": 2.266945905,
				"y": -0.7831324991,
				"z": -0.7611870722,
				"element": "C" 
			},
			{
				"x": 1.3704552138,
				"y": -0.1262555695,
				"z": 0.0846428706,
				"element": "C" 
			},
			{
				"x": -3.6551329915,
				"y": 0.713011648,
				"z": 1.9209156945,
				"element": "H" 
			},
			{
				"x": -4.5186317272,
				"y": -0.390844963,
				"z": 2.9972712969,
				"element": "H" 
			},
			{
				"x": -4.2634652507,
				"y": -0.8192701823,
				"z": 1.3012312901,
				"element": "H" 
			},
			{
				"x": -1.7727310639,
				"y": -0.9705507863,
				"z": 1.7103477106,
				"element": "H" 
			},
			{
				"x": -2.7082705561,
				"y": -2.1307349817,
				"z": 2.6185605672,
				"element": "H" 
			},
			{
				"x": -1.1189178471,
				"y": -1.4463619737,
				"z": 4.13610738,
				"element": "H" 
			},
			{
				"x": -2.5677394545,
				"y": -0.5976752725,
				"z": 4.6556515432,
				"element": "H" 
			},
			{
				"x": -0.4515411379,
				"y": 0.6560806064,
				"z": 4.8711755144,
				"element": "H" 
			},
			{
				"x": 0.8179509112,
				"y": 1.2749703018,
				"z": 3.1885270621,
				"element": "H" 
			},
			{
				"x": 0.0757341862,
				"y": 2.1234660977,
				"z": -2.1014096579,
				"element": "H" 
			},
			{
				"x": 1.6786565616,
				"y": 0.955848836,
				"z": -3.6191661534,
				"element": "H" 
			},
			{
				"x": 4.7092243406,
				"y": -1.7082984723,
				"z": -1.7767273821,
				"element": "H" 
			},
			{
				"x": 3.4386567165,
				"y": -2.8655940835,
				"z": -2.2259520552,
				"element": "H" 
			},
			{
				"x": 5.4871953726,
				"y": -1.6368152666,
				"z": -4.1674430686,
				"element": "H" 
			},
			{
				"x": 4.2189324239,
				"y": -2.7924006625,
				"z": -4.6157088087,
				"element": "H" 
			},
			{
				"x": 5.5337377055,
				"y": -3.2947916679,
				"z": -3.5328392902,
				"element": "H" 
			},
			{
				"x": 2.8661704548,
				"y": -1.5947337691,
				"z": -0.3665147383,
				"element": "H" 
			},
			{
				"x": 1.287816311,
				"y": -0.4483557668,
				"z": 1.1170818544,
				"element": "H" 
			}
		],
		 "valence_orbital": [ 
			{
				"type": "occ",
				"energy": -0.27107,
				"method": "rhf"
			},
			{
				"type": "occ",
				"energy": -0.25597,
				"method": "rhf"
			},
			{
				"type": "occ",
				"energy": -0.24864,
				"method": "rhf"
			},
			{
				"type": "occ",
				"energy": -0.24186,
				"method": "rhf"
			},
			{
				"type": "occ",
				"energy": -0.20344,
				"method": "rhf"
			},
			{
				"type": "unocc",
				"energy": -0.02616,
				"method": "rhf"
			},
			{
				"type": "unocc",
				"energy": -0.00847,
				"method": "rhf"
			},
			{
				"type": "unocc",
				"energy": -0.00528,
				"method": "rhf"
			},
			{
				"type": "unocc",
				"energy": 0.03429,
				"method": "rhf"
			},
			{
				"type": "unocc",
				"energy": 0.04341,
				"method": "rhf"
			}
		],
		"cosmo_sigma_profile": { 
			"-0.025": 0.0,
			"-0.024": 0.0,
			"-0.023": 0.0,
			"-0.022": 0.0,
			"-0.021": 0.0,
			"-0.02": 0.0,
			"-0.019": 0.0,
			"-0.018": 0.0,
			"-0.017": 0.0,
			"-0.016": 0.0,
			"-0.015": 1.61511558755,
			"-0.014": 2.15722771858,
			"-0.013": 1.30851864552,
			"-0.012": 1.88435591569,
			"-0.011": 1.32720673558,
			"-0.01": 2.18794727777,
			"-0.009": 3.95618350781,
			"-0.008": 3.6304388801,
			"-0.007": 3.89498995673,
			"-0.006": 8.1008983624,
			"-0.005": 17.2360553651,
			"-0.004": 24.6219381625,
			"-0.003": 28.6937444786,
			"-0.002": 32.0323909397,
			"-0.001": 31.3012746731,
			"0.0": 30.9106912208,
			"0.001": 27.0922118412,
			"0.002": 21.4683374431,
			"0.003": 20.3648487969,
			"0.004": 20.4718293437,
			"0.005": 10.3290625223,
			"0.006": 6.52645827866,
			"0.007": 4.02201269504,
			"0.008": 3.52768906063,
			"0.009": 3.26466946519,
			"0.01": 2.87195180419,
			"0.011": 1.97705263073,
			"0.012": 2.43665592657,
			"0.013": 2.92248374084,
			"0.014": 4.17475767653,
			"0.015": 2.62888014637,
			"0.016": 1.49671895965,
			"0.017": 0.318512485762,
			"0.018": 0.0,
			"0.019": 0.0,
			"0.02": 0.0,
			"0.021": 0.0,
			"0.022": 0.0,
			"0.023": 0.0,
			"0.024": 0.0,
			"0.025": 0.0
		}
	}
}
