{
	 "smiles": "CC(C)CCCC(C)C1CCC2C3CC(Cl)C4(O)CC(=O)CCC4(C)C3CCC12C", 
	 "Tm": 487.15, 
	 "num_atms": 75, 
	 "gaussian": { 
		 "optdone": 1, 
		 "sigma_profile": "yes", 
		 "theory": "DFT", 
		 "functional": "B3LYP", 
		 "basiset": "6-31G**", 
		 "properties": { 
			 "R2extent": 18749.648, 
			 "electric_dipole_moment_norm": 5.06566412329, 
			 "electric_quadrupole_moment_norm": 33.2046179987, 
			 "total_energy": -1666.65559012, 
			 "HOMO_LUMO_gap": 0.22122, 
			 "cosmo_polarized_energy": -16.29, 
			 "cosmo_cavitation_energy": 63.66, 
			 "cosmo_dispersion_energy": -42.86, 
			 "cosmo_repulsion_energy": 3.17, 
			 "cosmo_total_nonelectrostatic_energy": 23.96, 
			 "SMD_solvation_energy": 9.07 
		},
		"coords": [
			{
				"x": -5.9073633922,
				"y": -2.3781083976,
				"z": 1.6907890506,
				"element": "C" 
			},
			{
				"x": -5.7371507983,
				"y": -2.7077282364,
				"z": 0.1997244057,
				"element": "C" 
			},
			{
				"x": -6.9760851883,
				"y": -3.4436371526,
				"z": -0.3325852865,
				"element": "C" 
			},
			{
				"x": -4.4609720033,
				"y": -3.5252633272,
				"z": -0.0834953036,
				"element": "C" 
			},
			{
				"x": -3.1382020764,
				"y": -2.8133074119,
				"z": 0.2363578005,
				"element": "C" 
			},
			{
				"x": -1.9136498499,
				"y": -3.650268424,
				"z": -0.1662779958,
				"element": "C" 
			},
			{
				"x": -0.5220169041,
				"y": -3.0461677671,
				"z": 0.1584902563,
				"element": "C" 
			},
			{
				"x": -0.3254984241,
				"y": -2.9559381422,
				"z": 1.6832930552,
				"element": "C" 
			},
			{
				"x": -0.2683572413,
				"y": -1.7051903333,
				"z": -0.5779039835,
				"element": "C" 
			},
			{
				"x": -0.5625995736,
				"y": -1.7617371615,
				"z": -2.0917397288,
				"element": "C" 
			},
			{
				"x": -0.0286993474,
				"y": -0.4273581524,
				"z": -2.6204117917,
				"element": "C" 
			},
			{
				"x": 1.2647009194,
				"y": -0.1743163088,
				"z": -1.8132083456,
				"element": "C" 
			},
			{
				"x": 1.6322484234,
				"y": 1.3190244778,
				"z": -1.598782439,
				"element": "C" 
			},
			{
				"x": 0.4863674903,
				"y": 2.2797834416,
				"z": -1.1552760494,
				"element": "C" 
			},
			{
				"x": 0.8301478105,
				"y": 3.1355864015,
				"z": 0.0676973439,
				"element": "C" 
			},
			{
				"x": -0.5609664901,
				"y": 4.2955330302,
				"z": 0.368163523,
				"element": "Cl" 
			},
			{
				"x": 2.2157343562,
				"y": 3.8425033674,
				"z": 0.1218481236,
				"element": "C" 
			},
			{
				"x": 2.4145838557,
				"y": 3.97176278,
				"z": 1.5378594871,
				"element": "O" 
			},
			{
				"x": 2.2446316014,
				"y": 5.262017979,
				"z": -0.487170763,
				"element": "C" 
			},
			{
				"x": 2.0491591189,
				"y": 5.3397188427,
				"z": -1.9924334722,
				"element": "C" 
			},
			{
				"x": 1.4162471632,
				"y": 6.229336162,
				"z": -2.52412031,
				"element": "O" 
			},
			{
				"x": 2.7374622208,
				"y": 4.2386811528,
				"z": -2.7855061788,
				"element": "C" 
			},
			{
				"x": 3.7728741464,
				"y": 3.4711866098,
				"z": -1.9510516296,
				"element": "C" 
			},
			{
				"x": 3.3415468339,
				"y": 2.9187064064,
				"z": -0.5427878191,
				"element": "C" 
			},
			{
				"x": 4.6243163839,
				"y": 2.9507450558,
				"z": 0.3180387777,
				"element": "C" 
			},
			{
				"x": 2.863652781,
				"y": 1.435109081,
				"z": -0.6727920298,
				"element": "C" 
			},
			{
				"x": 2.6443099966,
				"y": 0.6993859789,
				"z": 0.688770577,
				"element": "C" 
			},
			{
				"x": 1.3824157253,
				"y": -0.1867838343,
				"z": 0.7420825003,
				"element": "C" 
			},
			{
				"x": 1.1744494724,
				"y": -1.0682503474,
				"z": -0.5074421873,
				"element": "C" 
			},
			{
				"x": 2.2756018236,
				"y": -2.1481341283,
				"z": -0.5740673535,
				"element": "C" 
			},
			{
				"x": -5.9709078208,
				"y": -3.2968101366,
				"z": 2.287576458,
				"element": "H" 
			},
			{
				"x": -5.0750031064,
				"y": -1.7843041043,
				"z": 2.0804435969,
				"element": "H" 
			},
			{
				"x": -6.8266869565,
				"y": -1.8078840457,
				"z": 1.8632830818,
				"element": "H" 
			},
			{
				"x": -5.6508788201,
				"y": -1.756742198,
				"z": -0.347997654,
				"element": "H" 
			},
			{
				"x": -6.8904443712,
				"y": -3.6480127328,
				"z": -1.4055781171,
				"element": "H" 
			},
			{
				"x": -7.1098193314,
				"y": -4.4049780781,
				"z": 0.1788750563,
				"element": "H" 
			},
			{
				"x": -7.8869882443,
				"y": -2.8559321214,
				"z": -0.174706334,
				"element": "H" 
			},
			{
				"x": -4.458325238,
				"y": -3.8085087811,
				"z": -1.1457609281,
				"element": "H" 
			},
			{
				"x": -4.5111462242,
				"y": -4.4698807769,
				"z": 0.4789419943,
				"element": "H" 
			},
			{
				"x": -3.0909903274,
				"y": -2.583896201,
				"z": 1.307164367,
				"element": "H" 
			},
			{
				"x": -3.1207407989,
				"y": -1.8463052458,
				"z": -0.2846453791,
				"element": "H" 
			},
			{
				"x": -1.9768683027,
				"y": -4.6240134059,
				"z": 0.3394521909,
				"element": "H" 
			},
			{
				"x": -1.9732143576,
				"y": -3.8723523075,
				"z": -1.2388094511,
				"element": "H" 
			},
			{
				"x": 0.2073821636,
				"y": -3.7742892883,
				"z": -0.2227795546,
				"element": "H" 
			},
			{
				"x": -0.9186106052,
				"y": -2.1469374975,
				"z": 2.1233533879,
				"element": "H" 
			},
			{
				"x": 0.7181580233,
				"y": -2.7810854391,
				"z": 1.9558720769,
				"element": "H" 
			},
			{
				"x": -0.6329665609,
				"y": -3.8907457802,
				"z": 2.165580216,
				"element": "H" 
			},
			{
				"x": -0.9542283645,
				"y": -0.9592500419,
				"z": -0.1471765039,
				"element": "H" 
			},
			{
				"x": -0.0243594402,
				"y": -2.6039463344,
				"z": -2.5480905598,
				"element": "H" 
			},
			{
				"x": -1.6236908229,
				"y": -1.9021812684,
				"z": -2.3166797882,
				"element": "H" 
			},
			{
				"x": 0.1523376258,
				"y": -0.4310327756,
				"z": -3.7006896192,
				"element": "H" 
			},
			{
				"x": -0.7729492568,
				"y": 0.354089759,
				"z": -2.4299887376,
				"element": "H" 
			},
			{
				"x": 2.0990331295,
				"y": -0.5744300692,
				"z": -2.4043728856,
				"element": "H" 
			},
			{
				"x": 1.953505204,
				"y": 1.660700236,
				"z": -2.5876992467,
				"element": "H" 
			},
			{
				"x": -0.4203221071,
				"y": 1.7261958249,
				"z": -0.89733996,
				"element": "H" 
			},
			{
				"x": 0.1986627179,
				"y": 2.9344444879,
				"z": -1.9837308763,
				"element": "H" 
			},
			{
				"x": 0.8079411323,
				"y": 2.5152714652,
				"z": 0.9598765396,
				"element": "H" 
			},
			{
				"x": 3.1584337935,
				"y": 4.5677596117,
				"z": 1.6913838981,
				"element": "H" 
			},
			{
				"x": 3.2474675487,
				"y": 5.6759107899,
				"z": -0.2928435084,
				"element": "H" 
			},
			{
				"x": 1.5200834318,
				"y": 5.9084327139,
				"z": 0.0072111244,
				"element": "H" 
			},
			{
				"x": 1.9537357089,
				"y": 3.5871388392,
				"z": -3.1864464109,
				"element": "H" 
			},
			{
				"x": 3.2096139434,
				"y": 4.6989390066,
				"z": -3.6604688265,
				"element": "H" 
			},
			{
				"x": 4.1762872748,
				"y": 2.639881632,
				"z": -2.5403758085,
				"element": "H" 
			},
			{
				"x": 4.619421043,
				"y": 4.1509681567,
				"z": -1.7955014098,
				"element": "H" 
			},
			{
				"x": 5.4144561865,
				"y": 2.3842259904,
				"z": -0.1870384043,
				"element": "H" 
			},
			{
				"x": 4.4792721758,
				"y": 2.5223308797,
				"z": 1.3097913303,
				"element": "H" 
			},
			{
				"x": 5.0018664189,
				"y": 3.9734748487,
				"z": 0.4417660164,
				"element": "H" 
			},
			{
				"x": 3.6793143851,
				"y": 0.9122688968,
				"z": -1.1911980377,
				"element": "H" 
			},
			{
				"x": 2.591698065,
				"y": 1.4178330094,
				"z": 1.5116819102,
				"element": "H" 
			},
			{
				"x": 3.5241688957,
				"y": 0.0808497282,
				"z": 0.8976558274,
				"element": "H" 
			},
			{
				"x": 0.4944253763,
				"y": 0.4429083051,
				"z": 0.8740451109,
				"element": "H" 
			},
			{
				"x": 1.4356855038,
				"y": -0.8045740881,
				"z": 1.6438222013,
				"element": "H" 
			},
			{
				"x": 3.2652255013,
				"y": -1.689328346,
				"z": -0.6719020547,
				"element": "H" 
			},
			{
				"x": 2.2944163899,
				"y": -2.7763460635,
				"z": 0.3219583022,
				"element": "H" 
			},
			{
				"x": 2.1414605848,
				"y": -2.8049486964,
				"z": -1.440376864,
				"element": "H" 
			}
		],
		 "valence_orbital": [ 
			{
				"type": "occ",
				"energy": -0.2858,
				"method": "rhf"
			},
			{
				"type": "occ",
				"energy": -0.28292,
				"method": "rhf"
			},
			{
				"type": "occ",
				"energy": -0.27678,
				"method": "rhf"
			},
			{
				"type": "occ",
				"energy": -0.27001,
				"method": "rhf"
			},
			{
				"type": "occ",
				"energy": -0.23957,
				"method": "rhf"
			},
			{
				"type": "unocc",
				"energy": -0.01835,
				"method": "rhf"
			},
			{
				"type": "unocc",
				"energy": 0.02433,
				"method": "rhf"
			},
			{
				"type": "unocc",
				"energy": 0.05116,
				"method": "rhf"
			},
			{
				"type": "unocc",
				"energy": 0.0634,
				"method": "rhf"
			},
			{
				"type": "unocc",
				"energy": 0.07131,
				"method": "rhf"
			}
		],
		"cosmo_sigma_profile": { 
			"-0.025": 0.0,
			"-0.024": 0.0,
			"-0.023": 0.0,
			"-0.022": 0.0,
			"-0.021": 0.0,
			"-0.02": 0.0,
			"-0.019": 0.0,
			"-0.018": 0.0,
			"-0.017": 0.0,
			"-0.016": 0.0,
			"-0.015": 0.522311588389,
			"-0.014": 0.825903946499,
			"-0.013": 1.59069350891,
			"-0.012": 1.4539873365,
			"-0.011": 0.977024441966,
			"-0.01": 0.99975217518,
			"-0.009": 1.35398118225,
			"-0.008": 2.2982637913,
			"-0.007": 5.23038855845,
			"-0.006": 6.46097080728,
			"-0.005": 8.84704092176,
			"-0.004": 16.3168771327,
			"-0.003": 32.361403716,
			"-0.002": 66.021342095,
			"-0.001": 88.6458798626,
			"0.0": 83.8238839469,
			"0.001": 65.3468458189,
			"0.002": 39.3128022392,
			"0.003": 9.81645393751,
			"0.004": 6.42373834027,
			"0.005": 8.75717435174,
			"0.006": 8.97715150667,
			"0.007": 7.81157081056,
			"0.008": 2.87718125617,
			"0.009": 2.89079857712,
			"0.01": 3.90932680504,
			"0.011": 4.57357577148,
			"0.012": 6.11325941959,
			"0.013": 3.32794815954,
			"0.014": 0.48740812053,
			"0.015": 0.0,
			"0.016": 0.0,
			"0.017": 0.0,
			"0.018": 0.0,
			"0.019": 0.0,
			"0.02": 0.0,
			"0.021": 0.0,
			"0.022": 0.0,
			"0.023": 0.0,
			"0.024": 0.0,
			"0.025": 0.0
		}
	}
}
