{
	 "smiles": "OC1OCC(CC2=CC3=C(OCO3)C=C2)C1CC1=CC=C2OCOC2=C1", 
	 "Tm": 405.15, 
	 "num_atms": 46, 
	 "gaussian": { 
		 "optdone": 1, 
		 "sigma_profile": "yes", 
		 "theory": "DFT", 
		 "functional": "B3LYP", 
		 "basiset": "6-31G**", 
		 "properties": { 
			 "R2extent": 11536.8928, 
			 "electric_dipole_moment_norm": 0.619990016049, 
			 "electric_quadrupole_moment_norm": 9.26700661541, 
			 "total_energy": -1225.46909996, 
			 "HOMO_LUMO_gap": 0.20075, 
			 "cosmo_polarized_energy": -15.65, 
			 "cosmo_cavitation_energy": 48.45, 
			 "cosmo_dispersion_energy": -33.52, 
			 "cosmo_repulsion_energy": 2.55, 
			 "cosmo_total_nonelectrostatic_energy": 17.48, 
			 "SMD_solvation_energy": 8.67 
		},
		"coords": [
			{
				"x": -1.7516739066,
				"y": 2.7290613963,
				"z": 1.0735173516,
				"element": "O" 
			},
			{
				"x": -1.9477870402,
				"y": 1.4698954256,
				"z": 1.693512826,
				"element": "C" 
			},
			{
				"x": -1.9284613604,
				"y": 1.5672136056,
				"z": 3.1023812936,
				"element": "O" 
			},
			{
				"x": -0.5550552474,
				"y": 1.6814350871,
				"z": 3.5024727672,
				"element": "C" 
			},
			{
				"x": 0.2975533288,
				"y": 0.9927522155,
				"z": 2.4009982462,
				"element": "C" 
			},
			{
				"x": 1.4037052536,
				"y": 1.9290142304,
				"z": 1.8610054793,
				"element": "C" 
			},
			{
				"x": 2.3144226973,
				"y": 1.2845989481,
				"z": 0.8368723847,
				"element": "C" 
			},
			{
				"x": 3.2913258808,
				"y": 0.3513451742,
				"z": 1.2567184013,
				"element": "C" 
			},
			{
				"x": 4.0845633656,
				"y": -0.2268200084,
				"z": 0.2879022589,
				"element": "C" 
			},
			{
				"x": 3.945888564,
				"y": 0.0808149552,
				"z": -1.0641850636,
				"element": "C" 
			},
			{
				"x": 4.8481847617,
				"y": -0.6521534066,
				"z": -1.8009830962,
				"element": "O" 
			},
			{
				"x": 5.6771274636,
				"y": -1.3192151996,
				"z": -0.8436860334,
				"element": "C" 
			},
			{
				"x": 5.0800468071,
				"y": -1.162327256,
				"z": 0.4488218196,
				"element": "O" 
			},
			{
				"x": 3.0038251477,
				"y": 0.9865997615,
				"z": -1.5051651721,
				"element": "C" 
			},
			{
				"x": 2.1892885812,
				"y": 1.585403981,
				"z": -0.5239843235,
				"element": "C" 
			},
			{
				"x": -0.754286236,
				"y": 0.5812362798,
				"z": 1.3318389151,
				"element": "C" 
			},
			{
				"x": -1.1070653389,
				"y": -0.9216505404,
				"z": 1.4070156613,
				"element": "C" 
			},
			{
				"x": -2.0643831296,
				"y": -1.3941289791,
				"z": 0.3318906385,
				"element": "C" 
			},
			{
				"x": -3.3827614993,
				"y": -1.7426624292,
				"z": 0.643144391,
				"element": "C" 
			},
			{
				"x": -4.2988381359,
				"y": -2.1732875777,
				"z": -0.3366780477,
				"element": "C" 
			},
			{
				"x": -3.8372338788,
				"y": -2.2354005686,
				"z": -1.6346092051,
				"element": "C" 
			},
			{
				"x": -4.5039423572,
				"y": -2.6430408777,
				"z": -2.7674852535,
				"element": "O" 
			},
			{
				"x": -3.6091750146,
				"y": -2.3847653138,
				"z": -3.8545988374,
				"element": "C" 
			},
			{
				"x": -2.3228056702,
				"y": -2.0743972392,
				"z": -3.3080800554,
				"element": "O" 
			},
			{
				"x": -2.5255852465,
				"y": -1.8931649675,
				"z": -1.9595649395,
				"element": "C" 
			},
			{
				"x": -1.6191278814,
				"y": -1.4743587955,
				"z": -1.0088491187,
				"element": "C" 
			},
			{
				"x": -2.4286272922,
				"y": 3.3237916978,
				"z": 1.4252669697,
				"element": "H" 
			},
			{
				"x": -2.9246247493,
				"y": 1.0495608451,
				"z": 1.4265948128,
				"element": "H" 
			},
			{
				"x": -0.2790909868,
				"y": 2.7396316879,
				"z": 3.606065717,
				"element": "H" 
			},
			{
				"x": -0.4620254199,
				"y": 1.2062913909,
				"z": 4.4834755704,
				"element": "H" 
			},
			{
				"x": 0.7742108779,
				"y": 0.093201694,
				"z": 2.8073193852,
				"element": "H" 
			},
			{
				"x": 0.9206025109,
				"y": 2.8108487961,
				"z": 1.4280167266,
				"element": "H" 
			},
			{
				"x": 2.0043111119,
				"y": 2.2791958667,
				"z": 2.7115211029,
				"element": "H" 
			},
			{
				"x": 3.4210233529,
				"y": 0.1003399088,
				"z": 2.3046946958,
				"element": "H" 
			},
			{
				"x": 5.7361382618,
				"y": -2.3839533053,
				"z": -1.0908024023,
				"element": "H" 
			},
			{
				"x": 6.6782293926,
				"y": -0.863702856,
				"z": -0.8428139199,
				"element": "H" 
			},
			{
				"x": 2.8999201312,
				"y": 1.2273293515,
				"z": -2.5572070831,
				"element": "H" 
			},
			{
				"x": 1.4444623447,
				"y": 2.3122370567,
				"z": -0.8347544833,
				"element": "H" 
			},
			{
				"x": -0.407436277,
				"y": 0.8184687062,
				"z": 0.323009904,
				"element": "H" 
			},
			{
				"x": -1.5286923654,
				"y": -1.1360323127,
				"z": 2.3960500403,
				"element": "H" 
			},
			{
				"x": -0.1702047145,
				"y": -1.4883505836,
				"z": 1.335588547,
				"element": "H" 
			},
			{
				"x": -3.7127532712,
				"y": -1.6843267162,
				"z": 1.6764787633,
				"element": "H" 
			},
			{
				"x": -5.3170573457,
				"y": -2.4476715585,
				"z": -0.0847535405,
				"element": "H" 
			},
			{
				"x": -3.9767093265,
				"y": -1.5275862491,
				"z": -4.4378264774,
				"element": "H" 
			},
			{
				"x": -3.5323177029,
				"y": -3.277162962,
				"z": -4.4836792185,
				"element": "H" 
			},
			{
				"x": -0.6001084408,
				"y": -1.2201083593,
				"z": -1.2823683984,
				"element": "H" 
			}
		],
		 "valence_orbital": [ 
			{
				"type": "occ",
				"energy": -0.26039,
				"method": "rhf"
			},
			{
				"type": "occ",
				"energy": -0.24192,
				"method": "rhf"
			},
			{
				"type": "occ",
				"energy": -0.24009,
				"method": "rhf"
			},
			{
				"type": "occ",
				"energy": -0.2028,
				"method": "rhf"
			},
			{
				"type": "occ",
				"energy": -0.20133,
				"method": "rhf"
			},
			{
				"type": "unocc",
				"energy": -0.00058,
				"method": "rhf"
			},
			{
				"type": "unocc",
				"energy": 0.00155,
				"method": "rhf"
			},
			{
				"type": "unocc",
				"energy": 0.01362,
				"method": "rhf"
			},
			{
				"type": "unocc",
				"energy": 0.01499,
				"method": "rhf"
			},
			{
				"type": "unocc",
				"energy": 0.08302,
				"method": "rhf"
			}
		],
		"cosmo_sigma_profile": { 
			"-0.025": 0.0,
			"-0.024": 0.0,
			"-0.023": 0.0,
			"-0.022": 0.0,
			"-0.021": 0.0,
			"-0.02": 0.0,
			"-0.019": 0.0,
			"-0.018": 0.0,
			"-0.017": 0.0,
			"-0.016": 0.236141252039,
			"-0.015": 0.900645191711,
			"-0.014": 1.16939478205,
			"-0.013": 0.878137474759,
			"-0.012": 0.355503434121,
			"-0.011": 0.828896448022,
			"-0.01": 0.715633836617,
			"-0.009": 0.890810569396,
			"-0.008": 4.25977383276,
			"-0.007": 15.32768265,
			"-0.006": 20.6794244387,
			"-0.005": 21.1443787089,
			"-0.004": 30.1075926437,
			"-0.003": 36.5074366356,
			"-0.002": 31.5101661104,
			"-0.001": 28.2893109002,
			"0.0": 22.312619213,
			"0.001": 21.3379671603,
			"0.002": 24.2398086908,
			"0.003": 28.7570810135,
			"0.004": 25.4340473923,
			"0.005": 19.1882873323,
			"0.006": 10.6438615304,
			"0.007": 6.35115180153,
			"0.008": 8.03998749076,
			"0.009": 9.15349466448,
			"0.01": 6.60034382704,
			"0.011": 1.88982201974,
			"0.012": 2.4913606843,
			"0.013": 2.38222676341,
			"0.014": 0.432773116064,
			"0.015": 0.0,
			"0.016": 0.0,
			"0.017": 0.0,
			"0.018": 0.0,
			"0.019": 0.0,
			"0.02": 0.0,
			"0.021": 0.0,
			"0.022": 0.0,
			"0.023": 0.0,
			"0.024": 0.0,
			"0.025": 0.0
		}
	}
}
