{
	 "smiles": "OC(=O)CCN1C=NC2=C(C=CC=C2)C1=O", 
	 "Tm": 455.15, 
	 "num_atms": 26, 
	 "gaussian": { 
		 "optdone": 1, 
		 "sigma_profile": "yes", 
		 "theory": "DFT", 
		 "functional": "B3LYP", 
		 "basiset": "6-31G**", 
		 "properties": { 
			 "R2extent": 4060.8807, 
			 "electric_dipole_moment_norm": 1.85313423421, 
			 "electric_quadrupole_moment_norm": 16.096800283, 
			 "total_energy": -760.413316895, 
			 "HOMO_LUMO_gap": 0.18801, 
			 "cosmo_polarized_energy": -18.46, 
			 "cosmo_cavitation_energy": 30.59, 
			 "cosmo_dispersion_energy": -21.75, 
			 "cosmo_repulsion_energy": 1.67, 
			 "cosmo_total_nonelectrostatic_energy": 10.5, 
			 "SMD_solvation_energy": 5.1 
		},
		"coords": [
			{
				"x": 2.7907615589,
				"y": -2.8798221009,
				"z": 0.2719822965,
				"element": "O" 
			},
			{
				"x": 2.683860877,
				"y": -1.7820466365,
				"z": 1.0530318835,
				"element": "C" 
			},
			{
				"x": 3.0387054817,
				"y": -0.6783385506,
				"z": 0.706793688,
				"element": "O" 
			},
			{
				"x": 2.0623399453,
				"y": -2.1179047349,
				"z": 2.3946768236,
				"element": "C" 
			},
			{
				"x": 0.5292414789,
				"y": -2.2643256587,
				"z": 2.3185622209,
				"element": "C" 
			},
			{
				"x": -0.1608433865,
				"y": -1.0106173588,
				"z": 1.9933518777,
				"element": "N" 
			},
			{
				"x": -0.5260972784,
				"y": -0.1400773548,
				"z": 2.9976974449,
				"element": "C" 
			},
			{
				"x": -1.1268101379,
				"y": 0.9900655421,
				"z": 2.8459100635,
				"element": "N" 
			},
			{
				"x": -1.4306716568,
				"y": 1.3673219236,
				"z": 1.5432153968,
				"element": "C" 
			},
			{
				"x": -1.1075915461,
				"y": 0.5560455096,
				"z": 0.4302399191,
				"element": "C" 
			},
			{
				"x": -1.4360048333,
				"y": 0.9714573127,
				"z": -0.8705933732,
				"element": "C" 
			},
			{
				"x": -2.0808803283,
				"y": 2.18269014,
				"z": -1.0668341021,
				"element": "C" 
			},
			{
				"x": -2.4035996423,
				"y": 2.9938530857,
				"z": 0.0366095744,
				"element": "C" 
			},
			{
				"x": -2.0846375361,
				"y": 2.5952404949,
				"z": 1.3256056107,
				"element": "C" 
			},
			{
				"x": -0.4218261144,
				"y": -0.7225609422,
				"z": 0.6363796034,
				"element": "C" 
			},
			{
				"x": -0.0891461492,
				"y": -1.5074752618,
				"z": -0.2451649347,
				"element": "O" 
			},
			{
				"x": 3.0966606122,
				"y": -2.5698304954,
				"z": -0.5967406173,
				"element": "H" 
			},
			{
				"x": 2.3339520924,
				"y": -1.3263654312,
				"z": 3.0971783565,
				"element": "H" 
			},
			{
				"x": 2.4738224391,
				"y": -3.0672179944,
				"z": 2.752459718,
				"element": "H" 
			},
			{
				"x": 0.1520879349,
				"y": -2.6147836373,
				"z": 3.2832354211,
				"element": "H" 
			},
			{
				"x": 0.2595986717,
				"y": -2.9889166324,
				"z": 1.5493536059,
				"element": "H" 
			},
			{
				"x": -0.2737483288,
				"y": -0.4755176485,
				"z": 4.0026909645,
				"element": "H" 
			},
			{
				"x": -1.1705941907,
				"y": 0.3240018819,
				"z": -1.699527588,
				"element": "H" 
			},
			{
				"x": -2.336027137,
				"y": 2.5077413052,
				"z": -2.0708098154,
				"element": "H" 
			},
			{
				"x": -2.9076150968,
				"y": 3.942791391,
				"z": -0.1233694197,
				"element": "H" 
			},
			{
				"x": -2.3249377296,
				"y": 3.2066918514,
				"z": 2.1889653811,
				"element": "H" 
			}
		],
		 "valence_orbital": [ 
			{
				"type": "occ",
				"energy": -0.27746,
				"method": "rhf"
			},
			{
				"type": "occ",
				"energy": -0.27314,
				"method": "rhf"
			},
			{
				"type": "occ",
				"energy": -0.26674,
				"method": "rhf"
			},
			{
				"type": "occ",
				"energy": -0.26082,
				"method": "rhf"
			},
			{
				"type": "occ",
				"energy": -0.23103,
				"method": "rhf"
			},
			{
				"type": "unocc",
				"energy": -0.04302,
				"method": "rhf"
			},
			{
				"type": "unocc",
				"energy": -0.03793,
				"method": "rhf"
			},
			{
				"type": "unocc",
				"energy": 0.0051,
				"method": "rhf"
			},
			{
				"type": "unocc",
				"energy": 0.02636,
				"method": "rhf"
			},
			{
				"type": "unocc",
				"energy": 0.06734,
				"method": "rhf"
			}
		],
		"cosmo_sigma_profile": { 
			"-0.025": 0.0,
			"-0.024": 0.0,
			"-0.023": 0.0,
			"-0.022": 0.0,
			"-0.021": 0.0,
			"-0.02": 0.0,
			"-0.019": 0.0107716697114,
			"-0.018": 0.718670424677,
			"-0.017": 0.905386699186,
			"-0.016": 0.709527393723,
			"-0.015": 0.806463350235,
			"-0.014": 0.891805888003,
			"-0.013": 0.351951162165,
			"-0.012": 0.488709242083,
			"-0.011": 0.518292760139,
			"-0.01": 4.60782212231,
			"-0.009": 3.48822489755,
			"-0.008": 4.81923956218,
			"-0.007": 10.6654823585,
			"-0.006": 17.1250951258,
			"-0.005": 17.5740059467,
			"-0.004": 19.1373139932,
			"-0.003": 16.0520486595,
			"-0.002": 12.6266073414,
			"-0.001": 9.18883638854,
			"0.0": 12.0644787474,
			"0.001": 13.9207792883,
			"0.002": 17.0613861513,
			"0.003": 17.3337970141,
			"0.004": 9.98424013764,
			"0.005": 5.3688983523,
			"0.006": 5.66187670162,
			"0.007": 6.31685954224,
			"0.008": 6.46697977197,
			"0.009": 5.6745799933,
			"0.01": 5.19325494538,
			"0.011": 5.5591566234,
			"0.012": 8.24515897074,
			"0.013": 2.94855291425,
			"0.014": 0.717251542907,
			"0.015": 0.710366849649,
			"0.016": 0.105422050125,
			"0.017": 0.0,
			"0.018": 0.0,
			"0.019": 0.0,
			"0.02": 0.0,
			"0.021": 0.0,
			"0.022": 0.0,
			"0.023": 0.0,
			"0.024": 0.0,
			"0.025": 0.0
		}
	}
}
