{
	 "smiles": "CC(C)C(=O)N1CCCC(C1)C(O)=O", 
	 "Tm": 405.15, 
	 "num_atms": 31, 
	 "gaussian": { 
		 "optdone": 1, 
		 "sigma_profile": "yes", 
		 "theory": "DFT", 
		 "functional": "B3LYP", 
		 "basiset": "6-31G**", 
		 "properties": { 
			 "R2extent": 3122.9357, 
			 "electric_dipole_moment_norm": 6.11377116108, 
			 "electric_quadrupole_moment_norm": 17.5302703756, 
			 "total_energy": -671.759117426, 
			 "HOMO_LUMO_gap": 0.22757, 
			 "cosmo_polarized_energy": -22.24, 
			 "cosmo_cavitation_energy": 31.73, 
			 "cosmo_dispersion_energy": -22.32, 
			 "cosmo_repulsion_energy": 1.76, 
			 "cosmo_total_nonelectrostatic_energy": 11.17, 
			 "SMD_solvation_energy": 5.88 
		},
		"coords": [
			{
				"x": 1.538248486,
				"y": 0.4023508166,
				"z": 2.7296255592,
				"element": "C" 
			},
			{
				"x": 1.6387759963,
				"y": 1.4152897199,
				"z": 1.5695346,
				"element": "C" 
			},
			{
				"x": 2.2019094105,
				"y": 2.7610949942,
				"z": 2.0461882058,
				"element": "C" 
			},
			{
				"x": 0.2267728355,
				"y": 1.6077641274,
				"z": 1.0049182798,
				"element": "C" 
			},
			{
				"x": -0.5859283715,
				"y": 2.3047946993,
				"z": 1.6090105531,
				"element": "O" 
			},
			{
				"x": -0.1270226827,
				"y": 0.9487654864,
				"z": -0.1533573674,
				"element": "N" 
			},
			{
				"x": 0.7697233333,
				"y": 0.0925182315,
				"z": -0.937914769,
				"element": "C" 
			},
			{
				"x": 0.1673011327,
				"y": -0.1642106364,
				"z": -2.32224537,
				"element": "C" 
			},
			{
				"x": -1.1776012316,
				"y": -0.9100834185,
				"z": -2.2414621509,
				"element": "C" 
			},
			{
				"x": -2.0050110392,
				"y": -0.4606522996,
				"z": -0.991124657,
				"element": "C" 
			},
			{
				"x": -1.5549471114,
				"y": 0.9166718456,
				"z": -0.483164845,
				"element": "C" 
			},
			{
				"x": -1.9443187957,
				"y": -1.5258369812,
				"z": 0.1077046947,
				"element": "C" 
			},
			{
				"x": -2.5953161069,
				"y": -2.6880474175,
				"z": -0.185854053,
				"element": "O" 
			},
			{
				"x": -1.3645398708,
				"y": -1.4211250331,
				"z": 1.1591045813,
				"element": "O" 
			},
			{
				"x": 1.1113853803,
				"y": -0.5494296558,
				"z": 2.3992225069,
				"element": "H" 
			},
			{
				"x": 2.5279695865,
				"y": 0.2126764089,
				"z": 3.158104742,
				"element": "H" 
			},
			{
				"x": 0.8892632092,
				"y": 0.8021972953,
				"z": 3.5142430507,
				"element": "H" 
			},
			{
				"x": 2.3122950578,
				"y": 1.0013232574,
				"z": 0.813705548,
				"element": "H" 
			},
			{
				"x": 3.1723222285,
				"y": 2.6191939768,
				"z": 2.5331024596,
				"element": "H" 
			},
			{
				"x": 2.3394020311,
				"y": 3.4570376604,
				"z": 1.2116729641,
				"element": "H" 
			},
			{
				"x": 1.5124852365,
				"y": 3.2224828429,
				"z": 2.7570102143,
				"element": "H" 
			},
			{
				"x": 1.736141853,
				"y": 0.5868181314,
				"z": -1.0618296334,
				"element": "H" 
			},
			{
				"x": 0.9511633232,
				"y": -0.8641669601,
				"z": -0.4250909762,
				"element": "H" 
			},
			{
				"x": 0.0324665356,
				"y": 0.7991531899,
				"z": -2.8270448274,
				"element": "H" 
			},
			{
				"x": 0.8791638532,
				"y": -0.7377994621,
				"z": -2.9246598298,
				"element": "H" 
			},
			{
				"x": -0.9977062226,
				"y": -1.9905464946,
				"z": -2.1995220596,
				"element": "H" 
			},
			{
				"x": -1.7528615754,
				"y": -0.7269947438,
				"z": -3.1547722896,
				"element": "H" 
			},
			{
				"x": -3.0607800191,
				"y": -0.3673671886,
				"z": -1.2802064178,
				"element": "H" 
			},
			{
				"x": -1.7949983413,
				"y": 1.6653187698,
				"z": -1.2510596491,
				"element": "H" 
			},
			{
				"x": -2.0949107954,
				"y": 1.2003271389,
				"z": 0.4204698232,
				"element": "H" 
			},
			{
				"x": -3.0417473255,
				"y": -2.6185183015,
				"z": -1.0416088872,
				"element": "H" 
			}
		],
		 "valence_orbital": [ 
			{
				"type": "occ",
				"energy": -0.32117,
				"method": "rhf"
			},
			{
				"type": "occ",
				"energy": -0.31945,
				"method": "rhf"
			},
			{
				"type": "occ",
				"energy": -0.27582,
				"method": "rhf"
			},
			{
				"type": "occ",
				"energy": -0.23302,
				"method": "rhf"
			},
			{
				"type": "occ",
				"energy": -0.22813,
				"method": "rhf"
			},
			{
				"type": "unocc",
				"energy": -0.00056,
				"method": "rhf"
			},
			{
				"type": "unocc",
				"energy": 0.03457,
				"method": "rhf"
			},
			{
				"type": "unocc",
				"energy": 0.04644,
				"method": "rhf"
			},
			{
				"type": "unocc",
				"energy": 0.06664,
				"method": "rhf"
			},
			{
				"type": "unocc",
				"energy": 0.09637,
				"method": "rhf"
			}
		],
		"cosmo_sigma_profile": { 
			"-0.025": 0.0,
			"-0.024": 0.0,
			"-0.023": 0.0,
			"-0.022": 0.0,
			"-0.021": 0.0,
			"-0.02": 0.0,
			"-0.019": 0.506961632463,
			"-0.018": 0.947765945702,
			"-0.017": 0.722660124799,
			"-0.016": 1.39022396562,
			"-0.015": 1.21929814538,
			"-0.014": 0.415353777367,
			"-0.013": 0.85328755798,
			"-0.012": 1.38323822394,
			"-0.011": 1.64501037191,
			"-0.01": 1.2073281038,
			"-0.009": 0.975470056991,
			"-0.008": 1.98924192579,
			"-0.007": 3.32162299518,
			"-0.006": 6.57035282665,
			"-0.005": 13.807374376,
			"-0.004": 24.9007078243,
			"-0.003": 30.3505486615,
			"-0.002": 26.6375123283,
			"-0.001": 22.1294325179,
			"0.0": 16.9552768946,
			"0.001": 17.6828322999,
			"0.002": 8.26571018923,
			"0.003": 4.85273783409,
			"0.004": 5.9269681144,
			"0.005": 4.16040300186,
			"0.006": 5.26845772571,
			"0.007": 5.71884651739,
			"0.008": 4.48040981973,
			"0.009": 6.20316442682,
			"0.01": 6.45680034956,
			"0.011": 5.60846351291,
			"0.012": 3.34831898117,
			"0.013": 3.40205173814,
			"0.014": 4.25813398502,
			"0.015": 2.45468713458,
			"0.016": 0.0149646733362,
			"0.017": 0.0,
			"0.018": 0.0,
			"0.019": 0.0,
			"0.02": 0.0,
			"0.021": 0.0,
			"0.022": 0.0,
			"0.023": 0.0,
			"0.024": 0.0,
			"0.025": 0.0
		}
	}
}
