{
	 "smiles": "NCC(O)C1=CC(OCC2=CC=CC=C2)=CC=C1", 
	 "Tm": 381.15, 
	 "num_atms": 35, 
	 "gaussian": { 
		 "optdone": 1, 
		 "sigma_profile": "yes", 
		 "theory": "DFT", 
		 "functional": "B3LYP", 
		 "basiset": "6-31G**", 
		 "properties": { 
			 "R2extent": 7026.6718, 
			 "electric_dipole_moment_norm": 2.81384973657, 
			 "electric_quadrupole_moment_norm": 22.9870349217, 
			 "total_energy": -787.02683954, 
			 "HOMO_LUMO_gap": 0.20539, 
			 "cosmo_polarized_energy": -13.6, 
			 "cosmo_cavitation_energy": 38.02, 
			 "cosmo_dispersion_energy": -27.1, 
			 "cosmo_repulsion_energy": 2.15, 
			 "cosmo_total_nonelectrostatic_energy": 13.07, 
			 "SMD_solvation_energy": 5.72 
		},
		"coords": [
			{
				"x": -3.4023946865,
				"y": 4.3074891155,
				"z": 0.040059043,
				"element": "N" 
			},
			{
				"x": -2.3714659568,
				"y": 3.2974377598,
				"z": -0.2376277802,
				"element": "C" 
			},
			{
				"x": -2.3303984217,
				"y": 2.3031261818,
				"z": 0.9451950788,
				"element": "C" 
			},
			{
				"x": -3.6484365332,
				"y": 1.8794908987,
				"z": 1.2273928822,
				"element": "O" 
			},
			{
				"x": -1.4425014852,
				"y": 1.1161357711,
				"z": 0.6289427856,
				"element": "C" 
			},
			{
				"x": -0.0619157752,
				"y": 1.2191016909,
				"z": 0.7998407085,
				"element": "C" 
			},
			{
				"x": 0.7822042832,
				"y": 0.1542602695,
				"z": 0.4607994958,
				"element": "C" 
			},
			{
				"x": 2.1194656219,
				"y": 0.3755798349,
				"z": 0.6830383543,
				"element": "O" 
			},
			{
				"x": 3.0321309595,
				"y": -0.7096560695,
				"z": 0.5541801619,
				"element": "C" 
			},
			{
				"x": 3.4288690044,
				"y": -1.027632481,
				"z": -0.8758115566,
				"element": "C" 
			},
			{
				"x": 3.4523274981,
				"y": -0.0265141776,
				"z": -1.8533587334,
				"element": "C" 
			},
			{
				"x": 3.8718258068,
				"y": -0.3180447155,
				"z": -3.1515810316,
				"element": "C" 
			},
			{
				"x": 4.28011408,
				"y": -1.6111080994,
				"z": -3.4861103733,
				"element": "C" 
			},
			{
				"x": 4.2612588848,
				"y": -2.6138894362,
				"z": -2.5152604528,
				"element": "C" 
			},
			{
				"x": 3.8337017615,
				"y": -2.3230218495,
				"z": -1.2186669728,
				"element": "C" 
			},
			{
				"x": 0.2422288685,
				"y": -1.0292266273,
				"z": -0.0538798741,
				"element": "C" 
			},
			{
				"x": -1.1437681859,
				"y": -1.1277883825,
				"z": -0.2106710758,
				"element": "C" 
			},
			{
				"x": -1.9875332219,
				"y": -0.0716077622,
				"z": 0.1226666529,
				"element": "C" 
			},
			{
				"x": -3.6917796033,
				"y": 4.7800227396,
				"z": -0.8103421317,
				"element": "H" 
			},
			{
				"x": -3.0484712818,
				"y": 5.0204913957,
				"z": 0.6732034591,
				"element": "H" 
			},
			{
				"x": -1.3667308037,
				"y": 3.706566793,
				"z": -0.4206761634,
				"element": "H" 
			},
			{
				"x": -2.672652996,
				"y": 2.7446274025,
				"z": -1.1336612974,
				"element": "H" 
			},
			{
				"x": -1.9035784229,
				"y": 2.8345042864,
				"z": 1.8169594155,
				"element": "H" 
			},
			{
				"x": -4.1926015896,
				"y": 2.6613708372,
				"z": 1.0172872425,
				"element": "H" 
			},
			{
				"x": 0.3872419399,
				"y": 2.1178941599,
				"z": 1.2138167345,
				"element": "H" 
			},
			{
				"x": 2.6379745215,
				"y": -1.6053232253,
				"z": 1.0526072926,
				"element": "H" 
			},
			{
				"x": 3.9138098214,
				"y": -0.3845663717,
				"z": 1.1184309054,
				"element": "H" 
			},
			{
				"x": 3.1304469236,
				"y": 0.9762872206,
				"z": -1.5907025757,
				"element": "H" 
			},
			{
				"x": 3.8801735257,
				"y": 0.4659715502,
				"z": -3.9037103718,
				"element": "H" 
			},
			{
				"x": 4.6065132801,
				"y": -1.8365505974,
				"z": -4.497299567,
				"element": "H" 
			},
			{
				"x": 4.5708848872,
				"y": -3.6240826393,
				"z": -2.7680647701,
				"element": "H" 
			},
			{
				"x": 3.8132335304,
				"y": -3.1103062026,
				"z": -0.4679238137,
				"element": "H" 
			},
			{
				"x": 0.8788513256,
				"y": -1.8557897193,
				"z": -0.344585541,
				"element": "H" 
			},
			{
				"x": -1.5637032957,
				"y": -2.0495834965,
				"z": -0.6042490351,
				"element": "H" 
			},
			{
				"x": -3.0626242646,
				"y": -0.1528660547,
				"z": 0.0144629053,
				"element": "H" 
			}
		],
		 "valence_orbital": [ 
			{
				"type": "occ",
				"energy": -0.25471,
				"method": "rhf"
			},
			{
				"type": "occ",
				"energy": -0.25077,
				"method": "rhf"
			},
			{
				"type": "occ",
				"energy": -0.245,
				"method": "rhf"
			},
			{
				"type": "occ",
				"energy": -0.23029,
				"method": "rhf"
			},
			{
				"type": "occ",
				"energy": -0.21101,
				"method": "rhf"
			},
			{
				"type": "unocc",
				"energy": -0.00562,
				"method": "rhf"
			},
			{
				"type": "unocc",
				"energy": -0.00319,
				"method": "rhf"
			},
			{
				"type": "unocc",
				"energy": 0.00778,
				"method": "rhf"
			},
			{
				"type": "unocc",
				"energy": 0.02157,
				"method": "rhf"
			},
			{
				"type": "unocc",
				"energy": 0.07153,
				"method": "rhf"
			}
		],
		"cosmo_sigma_profile": { 
			"-0.025": 0.0,
			"-0.024": 0.0,
			"-0.023": 0.0,
			"-0.022": 0.0,
			"-0.021": 0.0,
			"-0.02": 0.0,
			"-0.019": 0.0,
			"-0.018": 0.0,
			"-0.017": 0.0,
			"-0.016": 0.0,
			"-0.015": 0.0,
			"-0.014": 0.0,
			"-0.013": 0.0,
			"-0.012": 0.0,
			"-0.011": 1.15663317999,
			"-0.01": 3.02942759371,
			"-0.009": 2.48863466775,
			"-0.008": 3.44238613908,
			"-0.007": 3.8067469359,
			"-0.006": 14.4120392991,
			"-0.005": 23.5565179329,
			"-0.004": 31.0131360116,
			"-0.003": 28.0766987355,
			"-0.002": 20.903404744,
			"-0.001": 19.2495699868,
			"0.0": 17.1167407474,
			"0.001": 17.0978531373,
			"0.002": 18.1867472429,
			"0.003": 18.2957815483,
			"0.004": 19.6217871429,
			"0.005": 20.9145524762,
			"0.006": 17.708837634,
			"0.007": 4.54927956869,
			"0.008": 3.03420806513,
			"0.009": 3.32833631008,
			"0.01": 3.23645768582,
			"0.011": 1.62932619993,
			"0.012": 0.963023303694,
			"0.013": 1.23953952228,
			"0.014": 1.36455344019,
			"0.015": 0.778436460451,
			"0.016": 0.0548097093026,
			"0.017": 0.0,
			"0.018": 0.0,
			"0.019": 0.0,
			"0.02": 0.0,
			"0.021": 0.0,
			"0.022": 0.0,
			"0.023": 0.0,
			"0.024": 0.0,
			"0.025": 0.0
		}
	}
}
