{
	 "smiles": "COC1=C(Cl)SC=C1C(O)=O", 
	 "Tm": 413.15, 
	 "num_atms": 16, 
	 "gaussian": { 
		 "optdone": 1, 
		 "sigma_profile": "yes", 
		 "theory": "DFT", 
		 "functional": "B3LYP", 
		 "basiset": "6-31G**", 
		 "properties": { 
			 "R2extent": 2879.9094, 
			 "electric_dipole_moment_norm": 4.179307055, 
			 "electric_quadrupole_moment_norm": 12.4077757136, 
			 "total_energy": -1315.67329843, 
			 "HOMO_LUMO_gap": 0.19511, 
			 "cosmo_polarized_energy": -11.6, 
			 "cosmo_cavitation_energy": 24.01, 
			 "cosmo_dispersion_energy": -18.21, 
			 "cosmo_repulsion_energy": 1.41, 
			 "cosmo_total_nonelectrostatic_energy": 7.21, 
			 "SMD_solvation_energy": 5.76 
		},
		"coords": [
			{
				"x": -2.2440491646,
				"y": 0.3009273504,
				"z": -0.069821771,
				"element": "C" 
			},
			{
				"x": -0.9829233682,
				"y": -0.4014925043,
				"z": -0.0011509557,
				"element": "O" 
			},
			{
				"x": -0.1373773726,
				"y": -0.2011175682,
				"z": -1.0676583276,
				"element": "C" 
			},
			{
				"x": -0.2934276407,
				"y": -0.7357829468,
				"z": -2.3202807031,
				"element": "C" 
			},
			{
				"x": -1.5725360174,
				"y": -1.7606043543,
				"z": -2.8628172816,
				"element": "Cl" 
			},
			{
				"x": 1.0213675427,
				"y": -0.2906609869,
				"z": -3.3766177123,
				"element": "S" 
			},
			{
				"x": 1.7802256456,
				"y": 0.6089000405,
				"z": -2.1149033851,
				"element": "C" 
			},
			{
				"x": 1.0680243487,
				"y": 0.5773382112,
				"z": -0.945600094,
				"element": "C" 
			},
			{
				"x": 1.5588085206,
				"y": 1.2787399659,
				"z": 0.281587878,
				"element": "C" 
			},
			{
				"x": 0.8468100614,
				"y": 1.0660545608,
				"z": 1.4068490643,
				"element": "O" 
			},
			{
				"x": 2.5353366336,
				"y": 1.992773757,
				"z": 0.2729697934,
				"element": "O" 
			},
			{
				"x": -2.8236571026,
				"y": -0.0314224961,
				"z": -0.933947906,
				"element": "H" 
			},
			{
				"x": -2.7752300753,
				"y": 0.0494955621,
				"z": 0.8487756188,
				"element": "H" 
			},
			{
				"x": -2.0784982713,
				"y": 1.3821744349,
				"z": -0.122247693,
				"element": "H" 
			},
			{
				"x": 2.7151899679,
				"y": 1.1259666035,
				"z": -2.2782908333,
				"element": "H" 
			},
			{
				"x": 0.1236362922,
				"y": 0.4341103702,
				"z": 1.2216543081,
				"element": "H" 
			}
		],
		 "valence_orbital": [ 
			{
				"type": "occ",
				"energy": -0.31878,
				"method": "rhf"
			},
			{
				"type": "occ",
				"energy": -0.31075,
				"method": "rhf"
			},
			{
				"type": "occ",
				"energy": -0.27611,
				"method": "rhf"
			},
			{
				"type": "occ",
				"energy": -0.27347,
				"method": "rhf"
			},
			{
				"type": "occ",
				"energy": -0.25129,
				"method": "rhf"
			},
			{
				"type": "unocc",
				"energy": -0.05618,
				"method": "rhf"
			},
			{
				"type": "unocc",
				"energy": -0.01039,
				"method": "rhf"
			},
			{
				"type": "unocc",
				"energy": -0.00741,
				"method": "rhf"
			},
			{
				"type": "unocc",
				"energy": 0.00584,
				"method": "rhf"
			},
			{
				"type": "unocc",
				"energy": 0.06112,
				"method": "rhf"
			}
		],
		"cosmo_sigma_profile": { 
			"-0.025": 0.0,
			"-0.024": 0.0,
			"-0.023": 0.0,
			"-0.022": 0.0,
			"-0.021": 0.0,
			"-0.02": 0.0,
			"-0.019": 0.0,
			"-0.018": 0.0,
			"-0.017": 0.0,
			"-0.016": 0.0,
			"-0.015": 0.0,
			"-0.014": 0.0,
			"-0.013": 0.0,
			"-0.012": 0.0,
			"-0.011": 0.160019735307,
			"-0.01": 2.14671029211,
			"-0.009": 3.8249020214,
			"-0.008": 3.77226819862,
			"-0.007": 6.62103720984,
			"-0.006": 9.9707464853,
			"-0.005": 11.3330548965,
			"-0.004": 15.2566760856,
			"-0.003": 14.2981773881,
			"-0.002": 13.2880008271,
			"-0.001": 16.8322567099,
			"0.0": 21.6203665963,
			"0.001": 18.1644598799,
			"0.002": 13.080208899,
			"0.003": 10.3812998163,
			"0.004": 3.84907252456,
			"0.005": 2.61537282952,
			"0.006": 3.1061207302,
			"0.007": 3.1527399269,
			"0.008": 3.30181908079,
			"0.009": 3.4287268995,
			"0.01": 4.42652598386,
			"0.011": 5.68349488095,
			"0.012": 5.17927594055,
			"0.013": 1.76924907233,
			"0.014": 0.140245359503,
			"0.015": 0.0,
			"0.016": 0.0,
			"0.017": 0.0,
			"0.018": 0.0,
			"0.019": 0.0,
			"0.02": 0.0,
			"0.021": 0.0,
			"0.022": 0.0,
			"0.023": 0.0,
			"0.024": 0.0,
			"0.025": 0.0
		}
	}
}
