{
	 "smiles": "CCOC1=CC=CC=C1N", 
	 "Tm": 269.15, 
	 "num_atms": 21, 
	 "gaussian": { 
		 "optdone": 1, 
		 "sigma_profile": "yes", 
		 "theory": "DFT", 
		 "functional": "B3LYP", 
		 "basiset": "6-31G**", 
		 "properties": { 
			 "R2extent": 1882.3403, 
			 "electric_dipole_moment_norm": 1.11691980464, 
			 "electric_quadrupole_moment_norm": 8.70263167036, 
			 "total_energy": -441.452522633, 
			 "HOMO_LUMO_gap": 0.20611, 
			 "cosmo_polarized_energy": -7.82, 
			 "cosmo_cavitation_energy": 24.15, 
			 "cosmo_dispersion_energy": -17.65, 
			 "cosmo_repulsion_energy": 1.46, 
			 "cosmo_total_nonelectrostatic_energy": 7.95, 
			 "SMD_solvation_energy": 4.38 
		},
		"coords": [
			{
				"x": 2.3149776099,
				"y": -0.2261094579,
				"z": 2.2188338675,
				"element": "C" 
			},
			{
				"x": 1.8320255364,
				"y": 0.3917079036,
				"z": 0.9189760006,
				"element": "C" 
			},
			{
				"x": 1.0924149755,
				"y": -0.6100685202,
				"z": 0.1984219618,
				"element": "O" 
			},
			{
				"x": 0.5731866713,
				"y": -0.1753639862,
				"z": -1.0117284889,
				"element": "C" 
			},
			{
				"x": 1.3290853287,
				"y": -0.2311223314,
				"z": -2.1782760621,
				"element": "C" 
			},
			{
				"x": 0.776951535,
				"y": 0.1725639648,
				"z": -3.3969628499,
				"element": "C" 
			},
			{
				"x": -0.5413802743,
				"y": 0.6298608995,
				"z": -3.4294268984,
				"element": "C" 
			},
			{
				"x": -1.3055307271,
				"y": 0.6800774826,
				"z": -2.2633191089,
				"element": "C" 
			},
			{
				"x": -0.7612212279,
				"y": 0.2813567008,
				"z": -1.0335424933,
				"element": "C" 
			},
			{
				"x": -1.472044986,
				"y": 0.3561954917,
				"z": 0.1655450153,
				"element": "N" 
			},
			{
				"x": 2.8969729408,
				"y": 0.5029971727,
				"z": 2.7913179923,
				"element": "H" 
			},
			{
				"x": 1.4695249375,
				"y": -0.5504717411,
				"z": 2.8331998004,
				"element": "H" 
			},
			{
				"x": 2.9468055019,
				"y": -1.0965447839,
				"z": 2.0197826302,
				"element": "H" 
			},
			{
				"x": 2.6794084955,
				"y": 0.7297643941,
				"z": 0.3065640436,
				"element": "H" 
			},
			{
				"x": 1.1879076726,
				"y": 1.2614302186,
				"z": 1.1077031837,
				"element": "H" 
			},
			{
				"x": 2.3461170152,
				"y": -0.6077800809,
				"z": -2.1181034531,
				"element": "H" 
			},
			{
				"x": 1.3680864479,
				"y": 0.1257847607,
				"z": -4.3060997341,
				"element": "H" 
			},
			{
				"x": -0.9857351926,
				"y": 0.9437751467,
				"z": -4.3697397084,
				"element": "H" 
			},
			{
				"x": -2.3330307768,
				"y": 1.0346217256,
				"z": -2.2979009573,
				"element": "H" 
			},
			{
				"x": -1.1196937242,
				"y": -0.2853142877,
				"z": 0.8650597784,
				"element": "H" 
			},
			{
				"x": -2.4767277595,
				"y": 0.3051393279,
				"z": 0.0653954807,
				"element": "H" 
			}
		],
		 "valence_orbital": [ 
			{
				"type": "occ",
				"energy": -0.3302,
				"method": "rhf"
			},
			{
				"type": "occ",
				"energy": -0.30239,
				"method": "rhf"
			},
			{
				"type": "occ",
				"energy": -0.26687,
				"method": "rhf"
			},
			{
				"type": "occ",
				"energy": -0.23404,
				"method": "rhf"
			},
			{
				"type": "occ",
				"energy": -0.1959,
				"method": "rhf"
			},
			{
				"type": "unocc",
				"energy": 0.01021,
				"method": "rhf"
			},
			{
				"type": "unocc",
				"energy": 0.02341,
				"method": "rhf"
			},
			{
				"type": "unocc",
				"energy": 0.08283,
				"method": "rhf"
			},
			{
				"type": "unocc",
				"energy": 0.10178,
				"method": "rhf"
			},
			{
				"type": "unocc",
				"energy": 0.11128,
				"method": "rhf"
			}
		],
		"cosmo_sigma_profile": { 
			"-0.025": 0.0,
			"-0.024": 0.0,
			"-0.023": 0.0,
			"-0.022": 0.0,
			"-0.021": 0.0,
			"-0.02": 0.0,
			"-0.019": 0.0,
			"-0.018": 0.0,
			"-0.017": 0.0,
			"-0.016": 0.0,
			"-0.015": 0.0,
			"-0.014": 0.0,
			"-0.013": 0.0971244744159,
			"-0.012": 1.19198100307,
			"-0.011": 1.37958436896,
			"-0.01": 2.06249824749,
			"-0.009": 2.36332354957,
			"-0.008": 2.70830802415,
			"-0.007": 2.77317210866,
			"-0.006": 3.19207285769,
			"-0.005": 8.45529627059,
			"-0.004": 14.9511611668,
			"-0.003": 22.7835107506,
			"-0.002": 20.5487985338,
			"-0.001": 16.7942406694,
			"0.0": 15.7269132926,
			"0.001": 11.8906555604,
			"0.002": 8.12158606763,
			"0.003": 7.99551981062,
			"0.004": 8.33963211586,
			"0.005": 9.91134020189,
			"0.006": 10.8609579008,
			"0.007": 7.81078452182,
			"0.008": 2.17038323709,
			"0.009": 2.5108666497,
			"0.01": 1.31290570955,
			"0.011": 1.07988937267,
			"0.012": 1.71254277553,
			"0.013": 0.89035471921,
			"0.014": 0.458441627314,
			"0.015": 0.112036466028,
			"0.016": 0.0,
			"0.017": 0.0,
			"0.018": 0.0,
			"0.019": 0.0,
			"0.02": 0.0,
			"0.021": 0.0,
			"0.022": 0.0,
			"0.023": 0.0,
			"0.024": 0.0,
			"0.025": 0.0
		}
	}
}
