{
	 "smiles": "FC1=CC2=C(C=C1)C(Cl)=CC=N2", 
	 "Tm": 345.15, 
	 "num_atms": 17, 
	 "gaussian": { 
		 "optdone": 1, 
		 "sigma_profile": "yes", 
		 "theory": "DFT", 
		 "functional": "B3LYP", 
		 "basiset": "6-31G**", 
		 "properties": { 
			 "R2extent": 2563.2839, 
			 "electric_dipole_moment_norm": 1.32109117399, 
			 "electric_quadrupole_moment_norm": 6.48699854864, 
			 "total_energy": -960.753494087, 
			 "HOMO_LUMO_gap": 0.17511, 
			 "cosmo_polarized_energy": -5.53, 
			 "cosmo_cavitation_energy": 23.57, 
			 "cosmo_dispersion_energy": -17.76, 
			 "cosmo_repulsion_energy": 1.36, 
			 "cosmo_total_nonelectrostatic_energy": 7.17, 
			 "SMD_solvation_energy": 2.7 
		},
		"coords": [
			{
				"x": 3.7687749551,
				"y": 0.2576546775,
				"z": -1.4603080425,
				"element": "F" 
			},
			{
				"x": 2.6291411324,
				"y": 0.2139190291,
				"z": -0.7443306143,
				"element": "C" 
			},
			{
				"x": 2.1112915597,
				"y": 1.3694554133,
				"z": -0.2199568914,
				"element": "C" 
			},
			{
				"x": 0.9098465088,
				"y": 1.3125418035,
				"z": 0.5330543095,
				"element": "C" 
			},
			{
				"x": 0.2659691665,
				"y": 0.0409026217,
				"z": 0.726434608,
				"element": "C" 
			},
			{
				"x": 0.8482749299,
				"y": -1.122949977,
				"z": 0.1597664076,
				"element": "C" 
			},
			{
				"x": 2.0136153402,
				"y": -1.0429562786,
				"z": -0.5664126569,
				"element": "C" 
			},
			{
				"x": -0.9326245977,
				"y": 0.0583833705,
				"z": 1.4902261649,
				"element": "C" 
			},
			{
				"x": -1.8089410014,
				"y": -1.4305456254,
				"z": 1.7942606349,
				"element": "Cl" 
			},
			{
				"x": -1.4186074015,
				"y": 1.2389513428,
				"z": 1.9986955526,
				"element": "C" 
			},
			{
				"x": -0.6917083173,
				"y": 2.4255523633,
				"z": 1.7382170503,
				"element": "C" 
			},
			{
				"x": 0.4231220526,
				"y": 2.4811272453,
				"z": 1.0399116627,
				"element": "N" 
			},
			{
				"x": 2.5970309399,
				"y": 2.3265646988,
				"z": -0.3662166259,
				"element": "H" 
			},
			{
				"x": 0.3631858287,
				"y": -2.081125111,
				"z": 0.3054883449,
				"element": "H" 
			},
			{
				"x": 2.4726991514,
				"y": -1.9213127257,
				"z": -1.0065269319,
				"element": "H" 
			},
			{
				"x": -2.3310183323,
				"y": 1.2658233836,
				"z": 2.5824284746,
				"element": "H" 
			},
			{
				"x": -1.0654519149,
				"y": 3.3685137683,
				"z": 2.1351685528,
				"element": "H" 
			}
		],
		 "valence_orbital": [ 
			{
				"type": "occ",
				"energy": -0.32843,
				"method": "rhf"
			},
			{
				"type": "occ",
				"energy": -0.2967,
				"method": "rhf"
			},
			{
				"type": "occ",
				"energy": -0.26877,
				"method": "rhf"
			},
			{
				"type": "occ",
				"energy": -0.26235,
				"method": "rhf"
			},
			{
				"type": "occ",
				"energy": -0.24311,
				"method": "rhf"
			},
			{
				"type": "unocc",
				"energy": -0.068,
				"method": "rhf"
			},
			{
				"type": "unocc",
				"energy": -0.02875,
				"method": "rhf"
			},
			{
				"type": "unocc",
				"energy": 0.00692,
				"method": "rhf"
			},
			{
				"type": "unocc",
				"energy": 0.01793,
				"method": "rhf"
			},
			{
				"type": "unocc",
				"energy": 0.07853,
				"method": "rhf"
			}
		],
		"cosmo_sigma_profile": { 
			"-0.025": 0.0,
			"-0.024": 0.0,
			"-0.023": 0.0,
			"-0.022": 0.0,
			"-0.021": 0.0,
			"-0.02": 0.0,
			"-0.019": 0.0,
			"-0.018": 0.0,
			"-0.017": 0.0,
			"-0.016": 0.0,
			"-0.015": 0.0,
			"-0.014": 0.0,
			"-0.013": 0.0,
			"-0.012": 0.0,
			"-0.011": 0.0,
			"-0.01": 0.0,
			"-0.009": 0.18371473378,
			"-0.008": 4.4222502961,
			"-0.007": 9.05624775207,
			"-0.006": 8.34669869627,
			"-0.005": 7.73506507879,
			"-0.004": 7.21528609213,
			"-0.003": 7.84209907395,
			"-0.002": 10.6496203235,
			"-0.001": 18.8560633968,
			"0.0": 30.6908022738,
			"0.001": 27.1278922144,
			"0.002": 18.2084332613,
			"0.003": 15.3181856786,
			"0.004": 15.9202508414,
			"0.005": 1.72543787245,
			"0.006": 0.924369131746,
			"0.007": 1.82014754075,
			"0.008": 1.30676580694,
			"0.009": 1.09455408025,
			"0.01": 0.330336147944,
			"0.011": 0.900039200961,
			"0.012": 1.31877696762,
			"0.013": 0.518996278001,
			"0.014": 0.848999653954,
			"0.015": 0.65918216057,
			"0.016": 0.119751773007,
			"0.017": 0.0,
			"0.018": 0.0,
			"0.019": 0.0,
			"0.02": 0.0,
			"0.021": 0.0,
			"0.022": 0.0,
			"0.023": 0.0,
			"0.024": 0.0,
			"0.025": 0.0
		}
	}
}
