{
	 "smiles": "C#CCCCCCCCC#C", 
	 "Tm": 256.15, 
	 "num_atms": 27, 
	 "gaussian": { 
		 "optdone": 1, 
		 "sigma_profile": "yes", 
		 "theory": "DFT", 
		 "functional": "B3LYP", 
		 "basiset": "6-31G**", 
		 "properties": { 
			 "R2extent": 3387.0762, 
			 "electric_dipole_moment_norm": 0.600540781296, 
			 "electric_quadrupole_moment_norm": 4.765251262, 
			 "total_energy": -428.683263046, 
			 "HOMO_LUMO_gap": 0.30803, 
			 "cosmo_polarized_energy": -6.9, 
			 "cosmo_cavitation_energy": 31.0, 
			 "cosmo_dispersion_energy": -20.39, 
			 "cosmo_repulsion_energy": 1.67, 
			 "cosmo_total_nonelectrostatic_energy": 12.27, 
			 "SMD_solvation_energy": 7.23 
		},
		"coords": [
			{
				"x": 1.1566577616,
				"y": -4.2103843773,
				"z": -2.1063324874,
				"element": "C" 
			},
			{
				"x": 0.5768931962,
				"y": -3.4737661983,
				"z": -1.3443687919,
				"element": "C" 
			},
			{
				"x": -0.1053626843,
				"y": -2.5747392182,
				"z": -0.4136285271,
				"element": "C" 
			},
			{
				"x": 0.8674945673,
				"y": -1.8292377501,
				"z": 0.5267909354,
				"element": "C" 
			},
			{
				"x": 0.1626383067,
				"y": -0.9352046347,
				"z": 1.560378472,
				"element": "C" 
			},
			{
				"x": -0.6463509353,
				"y": 0.2487702672,
				"z": 0.9987277509,
				"element": "C" 
			},
			{
				"x": 0.1993930494,
				"y": 1.2984350869,
				"z": 0.2628972106,
				"element": "C" 
			},
			{
				"x": -0.6026410067,
				"y": 2.4846227251,
				"z": -0.294104815,
				"element": "C" 
			},
			{
				"x": -1.2716793321,
				"y": 3.3824640078,
				"z": 0.7737185925,
				"element": "C" 
			},
			{
				"x": -0.3215545155,
				"y": 3.9899851611,
				"z": 1.7070507288,
				"element": "C" 
			},
			{
				"x": 0.4748423397,
				"y": 4.4845480589,
				"z": 2.4694924299,
				"element": "C" 
			},
			{
				"x": 1.6636817223,
				"y": -4.8615391328,
				"z": -2.779599722,
				"element": "H" 
			},
			{
				"x": -0.7021074463,
				"y": -1.8541758699,
				"z": -0.9873750271,
				"element": "H" 
			},
			{
				"x": -0.8223036176,
				"y": -3.1505280485,
				"z": 0.1882403207,
				"element": "H" 
			},
			{
				"x": 1.4739660238,
				"y": -2.5734953669,
				"z": 1.0552939662,
				"element": "H" 
			},
			{
				"x": 1.567947033,
				"y": -1.2435216958,
				"z": -0.0789600201,
				"element": "H" 
			},
			{
				"x": 0.9209447533,
				"y": -0.5439056137,
				"z": 2.2513287125,
				"element": "H" 
			},
			{
				"x": -0.5048556712,
				"y": -1.5608884921,
				"z": 2.1686685315,
				"element": "H" 
			},
			{
				"x": -1.4368437383,
				"y": -0.1174830623,
				"z": 0.3285859793,
				"element": "H" 
			},
			{
				"x": -1.1662744281,
				"y": 0.7238425966,
				"z": 1.8399227936,
				"element": "H" 
			},
			{
				"x": 0.9757132636,
				"y": 1.6786023553,
				"z": 0.9396143487,
				"element": "H" 
			},
			{
				"x": 0.7260953916,
				"y": 0.8256740605,
				"z": -0.5751556175,
				"element": "H" 
			},
			{
				"x": 0.0601737695,
				"y": 3.1102775728,
				"z": -0.9028152529,
				"element": "H" 
			},
			{
				"x": -1.3904002687,
				"y": 2.1169860217,
				"z": -0.9646826189,
				"element": "H" 
			},
			{
				"x": -1.8346243759,
				"y": 4.1771004111,
				"z": 0.2672541327,
				"element": "H" 
			},
			{
				"x": -2.0129622997,
				"y": 2.8046564433,
				"z": 1.3402925493,
				"element": "H" 
			},
			{
				"x": 1.1710191418,
				"y": 4.9270046923,
				"z": 3.1433654253,
				"element": "H" 
			}
		],
		 "valence_orbital": [ 
			{
				"type": "occ",
				"energy": -0.31289,
				"method": "rhf"
			},
			{
				"type": "occ",
				"energy": -0.2605,
				"method": "rhf"
			},
			{
				"type": "occ",
				"energy": -0.25966,
				"method": "rhf"
			},
			{
				"type": "occ",
				"energy": -0.25732,
				"method": "rhf"
			},
			{
				"type": "occ",
				"energy": -0.25646,
				"method": "rhf"
			},
			{
				"type": "unocc",
				"energy": 0.05157,
				"method": "rhf"
			},
			{
				"type": "unocc",
				"energy": 0.0589,
				"method": "rhf"
			},
			{
				"type": "unocc",
				"energy": 0.05939,
				"method": "rhf"
			},
			{
				"type": "unocc",
				"energy": 0.06243,
				"method": "rhf"
			},
			{
				"type": "unocc",
				"energy": 0.08633,
				"method": "rhf"
			}
		],
		"cosmo_sigma_profile": { 
			"-0.025": 0.0,
			"-0.024": 0.0,
			"-0.023": 0.0,
			"-0.022": 0.0,
			"-0.021": 0.0,
			"-0.02": 0.0,
			"-0.019": 0.0,
			"-0.018": 0.0,
			"-0.017": 0.0,
			"-0.016": 0.0,
			"-0.015": 0.0,
			"-0.014": 0.0,
			"-0.013": 0.0,
			"-0.012": 0.0,
			"-0.011": 1.42701224909,
			"-0.01": 2.54862226237,
			"-0.009": 2.51863495454,
			"-0.008": 1.44143164518,
			"-0.007": 2.78534435818,
			"-0.006": 1.77744100168,
			"-0.005": 7.69825173,
			"-0.004": 15.6404808393,
			"-0.003": 25.1167772007,
			"-0.002": 35.0341281654,
			"-0.001": 32.7222755403,
			"0.0": 27.1171795452,
			"0.001": 18.6185134129,
			"0.002": 10.01066427,
			"0.003": 7.49146620622,
			"0.004": 7.57742874691,
			"0.005": 10.0902577846,
			"0.006": 8.83624754921,
			"0.007": 16.4266060295,
			"0.008": 9.17428090286,
			"0.009": 0.0170778669767,
			"0.01": 0.0,
			"0.011": 0.0,
			"0.012": 0.0,
			"0.013": 0.0,
			"0.014": 0.0,
			"0.015": 0.0,
			"0.016": 0.0,
			"0.017": 0.0,
			"0.018": 0.0,
			"0.019": 0.0,
			"0.02": 0.0,
			"0.021": 0.0,
			"0.022": 0.0,
			"0.023": 0.0,
			"0.024": 0.0,
			"0.025": 0.0
		}
	}
}
