{
	 "smiles": "NNC(=O)C1=CN(N=C1C1=CC=CC=C1)C1=CC=CC=C1", 
	 "Tm": 435.15, 
	 "num_atms": 35, 
	 "gaussian": { 
		 "optdone": 1, 
		 "sigma_profile": "yes", 
		 "theory": "DFT", 
		 "functional": "B3LYP", 
		 "basiset": "6-31G**", 
		 "properties": { 
			 "R2extent": 7258.2061, 
			 "electric_dipole_moment_norm": 3.10154392198, 
			 "electric_quadrupole_moment_norm": 16.5985779005, 
			 "total_energy": -912.334763492, 
			 "HOMO_LUMO_gap": 0.18429, 
			 "cosmo_polarized_energy": -16.43, 
			 "cosmo_cavitation_energy": 39.29, 
			 "cosmo_dispersion_energy": -27.89, 
			 "cosmo_repulsion_energy": 2.12, 
			 "cosmo_total_nonelectrostatic_energy": 13.52, 
			 "SMD_solvation_energy": 7.07 
		},
		"coords": [
			{
				"x": 1.5623637596,
				"y": 0.658357727,
				"z": 2.8486859791,
				"element": "N" 
			},
			{
				"x": 0.3214716934,
				"y": 1.3070125819,
				"z": 3.0091901696,
				"element": "N" 
			},
			{
				"x": -0.8032489225,
				"y": 1.1212853836,
				"z": 2.2345548631,
				"element": "C" 
			},
			{
				"x": -1.9167423241,
				"y": 1.3794642561,
				"z": 2.6833209977,
				"element": "O" 
			},
			{
				"x": -0.6378678501,
				"y": 0.5654101667,
				"z": 0.8614560542,
				"element": "C" 
			},
			{
				"x": -1.5770847659,
				"y": -0.3131075049,
				"z": 0.3523950023,
				"element": "C" 
			},
			{
				"x": -1.1864347138,
				"y": -0.647808915,
				"z": -0.9037162461,
				"element": "N" 
			},
			{
				"x": -0.0514728711,
				"y": 0.0011087256,
				"z": -1.2650834423,
				"element": "N" 
			},
			{
				"x": 0.2986226206,
				"y": 0.743071745,
				"z": -0.2119047633,
				"element": "C" 
			},
			{
				"x": 1.4831808171,
				"y": 1.617331216,
				"z": -0.3267310767,
				"element": "C" 
			},
			{
				"x": 2.5454258257,
				"y": 1.2447661557,
				"z": -1.1691446387,
				"element": "C" 
			},
			{
				"x": 3.6563935898,
				"y": 2.0718594366,
				"z": -1.3164441744,
				"element": "C" 
			},
			{
				"x": 3.7292448669,
				"y": 3.2844331291,
				"z": -0.625851713,
				"element": "C" 
			},
			{
				"x": 2.6775696167,
				"y": 3.6667195616,
				"z": 0.2083745353,
				"element": "C" 
			},
			{
				"x": 1.5592194007,
				"y": 2.8446008581,
				"z": 0.3540235419,
				"element": "C" 
			},
			{
				"x": -1.8302033592,
				"y": -1.5243972814,
				"z": -1.8207106457,
				"element": "C" 
			},
			{
				"x": -2.7254729902,
				"y": -2.4944095619,
				"z": -1.3574568931,
				"element": "C" 
			},
			{
				"x": -3.3629936461,
				"y": -3.3327339689,
				"z": -2.2712358401,
				"element": "C" 
			},
			{
				"x": -3.1012807816,
				"y": -3.2202595357,
				"z": -3.6374821271,
				"element": "C" 
			},
			{
				"x": -2.1940038844,
				"y": -2.2584525726,
				"z": -4.087480172,
				"element": "C" 
			},
			{
				"x": -1.5581511131,
				"y": -1.4057065459,
				"z": -3.1876895328,
				"element": "C" 
			},
			{
				"x": 1.4171454139,
				"y": -0.2947745355,
				"z": 2.5234167967,
				"element": "H" 
			},
			{
				"x": 2.1085932843,
				"y": 1.1519711134,
				"z": 2.1472817315,
				"element": "H" 
			},
			{
				"x": 0.1061849184,
				"y": 1.5613293565,
				"z": 3.9657517558,
				"element": "H" 
			},
			{
				"x": -2.4805007559,
				"y": -0.6841529298,
				"z": 0.8093629541,
				"element": "H" 
			},
			{
				"x": 2.483559726,
				"y": 0.302674869,
				"z": -1.7032957589,
				"element": "H" 
			},
			{
				"x": 4.470157497,
				"y": 1.7673087841,
				"z": -1.9684321969,
				"element": "H" 
			},
			{
				"x": 4.5978673913,
				"y": 3.9265465362,
				"z": -0.738771309,
				"element": "H" 
			},
			{
				"x": 2.7197897213,
				"y": 4.6123038961,
				"z": 0.7410714791,
				"element": "H" 
			},
			{
				"x": 0.7394005694,
				"y": 3.1604363147,
				"z": 0.9907267536,
				"element": "H" 
			},
			{
				"x": -2.9119777768,
				"y": -2.6106514768,
				"z": -0.2953407291,
				"element": "H" 
			},
			{
				"x": -4.0577391699,
				"y": -4.0839059998,
				"z": -1.9077793501,
				"element": "H" 
			},
			{
				"x": -3.5966325681,
				"y": -3.8786839609,
				"z": -4.3443356312,
				"element": "H" 
			},
			{
				"x": -1.9822585654,
				"y": -2.1638433362,
				"z": -5.1483809451,
				"element": "H" 
			},
			{
				"x": -0.8562246538,
				"y": -0.6514036876,
				"z": -3.5206454287,
				"element": "H" 
			}
		],
		 "valence_orbital": [ 
			{
				"type": "occ",
				"energy": -0.25745,
				"method": "rhf"
			},
			{
				"type": "occ",
				"energy": -0.25495,
				"method": "rhf"
			},
			{
				"type": "occ",
				"energy": -0.24946,
				"method": "rhf"
			},
			{
				"type": "occ",
				"energy": -0.23994,
				"method": "rhf"
			},
			{
				"type": "occ",
				"energy": -0.22466,
				"method": "rhf"
			},
			{
				"type": "unocc",
				"energy": -0.04037,
				"method": "rhf"
			},
			{
				"type": "unocc",
				"energy": -0.02908,
				"method": "rhf"
			},
			{
				"type": "unocc",
				"energy": -0.01373,
				"method": "rhf"
			},
			{
				"type": "unocc",
				"energy": -0.00773,
				"method": "rhf"
			},
			{
				"type": "unocc",
				"energy": 0.01111,
				"method": "rhf"
			}
		],
		"cosmo_sigma_profile": { 
			"-0.025": 0.0,
			"-0.024": 0.0,
			"-0.023": 0.0,
			"-0.022": 0.0,
			"-0.021": 0.0,
			"-0.02": 0.0,
			"-0.019": 0.0,
			"-0.018": 0.0,
			"-0.017": 0.0,
			"-0.016": 0.0,
			"-0.015": 0.0,
			"-0.014": 0.113383965739,
			"-0.013": 0.835716119242,
			"-0.012": 1.21898318108,
			"-0.011": 2.53106401214,
			"-0.01": 3.84666232979,
			"-0.009": 3.86155603838,
			"-0.008": 4.77310444364,
			"-0.007": 6.43894879276,
			"-0.006": 18.4345068811,
			"-0.005": 23.8778995592,
			"-0.004": 26.3068166376,
			"-0.003": 21.020348235,
			"-0.002": 19.1407116456,
			"-0.001": 17.5956826402,
			"0.0": 22.8776310694,
			"0.001": 22.551197372,
			"0.002": 21.1062901861,
			"0.003": 22.9039327909,
			"0.004": 26.1229249697,
			"0.005": 14.8938439551,
			"0.006": 4.32172324288,
			"0.007": 5.19202282874,
			"0.008": 3.06194408219,
			"0.009": 3.26361602848,
			"0.01": 2.30916824654,
			"0.011": 2.56539082068,
			"0.012": 2.53134779135,
			"0.013": 6.17629488257,
			"0.014": 3.66295829734,
			"0.015": 0.95412941368,
			"0.016": 0.456410139797,
			"0.017": 0.0,
			"0.018": 0.0,
			"0.019": 0.0,
			"0.02": 0.0,
			"0.021": 0.0,
			"0.022": 0.0,
			"0.023": 0.0,
			"0.024": 0.0,
			"0.025": 0.0
		}
	}
}
