{
	 "smiles": "CN(C(=O)C1=CC=C(Cl)C=C1)C1=CC=C(N)C=C1", 
	 "Tm": 426.15, 
	 "num_atms": 31, 
	 "gaussian": { 
		 "optdone": 1, 
		 "sigma_profile": "yes", 
		 "theory": "DFT", 
		 "functional": "B3LYP", 
		 "basiset": "6-31G**", 
		 "properties": { 
			 "R2extent": 6939.4719, 
			 "electric_dipole_moment_norm": 5.05032506974, 
			 "electric_quadrupole_moment_norm": 17.2460295558, 
			 "total_energy": -1186.25795286, 
			 "HOMO_LUMO_gap": 0.16816, 
			 "cosmo_polarized_energy": -15.05, 
			 "cosmo_cavitation_energy": 36.83, 
			 "cosmo_dispersion_energy": -25.7, 
			 "cosmo_repulsion_energy": 2.02, 
			 "cosmo_total_nonelectrostatic_energy": 13.15, 
			 "SMD_solvation_energy": 6.48 
		},
		"coords": [
			{
				"x": -2.3157098184,
				"y": -1.5303412958,
				"z": -1.1971432487,
				"element": "C" 
			},
			{
				"x": -1.6412731181,
				"y": -0.7932360441,
				"z": -0.1207952388,
				"element": "N" 
			},
			{
				"x": -1.6330105656,
				"y": -1.4081963683,
				"z": 1.1189562333,
				"element": "C" 
			},
			{
				"x": -2.1230292818,
				"y": -2.5253081905,
				"z": 1.273852518,
				"element": "O" 
			},
			{
				"x": -1.0668234913,
				"y": -0.6736643783,
				"z": 2.305727401,
				"element": "C" 
			},
			{
				"x": -0.546950404,
				"y": -1.4608868338,
				"z": 3.3427611743,
				"element": "C" 
			},
			{
				"x": -0.0650860895,
				"y": -0.8806182606,
				"z": 4.5129375701,
				"element": "C" 
			},
			{
				"x": -0.1323425476,
				"y": 0.5053553343,
				"z": 4.6562958965,
				"element": "C" 
			},
			{
				"x": 0.4662809774,
				"y": 1.2518327986,
				"z": 6.1311652238,
				"element": "Cl" 
			},
			{
				"x": -0.6733310071,
				"y": 1.3093718291,
				"z": 3.6536073454,
				"element": "C" 
			},
			{
				"x": -1.1335630515,
				"y": 0.7154851901,
				"z": 2.4794470921,
				"element": "C" 
			},
			{
				"x": -0.7012302733,
				"y": 0.2127099612,
				"z": -0.5212215716,
				"element": "C" 
			},
			{
				"x": -1.1526541747,
				"y": 1.4013852042,
				"z": -1.1088704078,
				"element": "C" 
			},
			{
				"x": -0.2544125777,
				"y": 2.373062029,
				"z": -1.5364993426,
				"element": "C" 
			},
			{
				"x": 1.131627446,
				"y": 2.1880461463,
				"z": -1.3803470423,
				"element": "C" 
			},
			{
				"x": 2.0360017254,
				"y": 3.138104636,
				"z": -1.8505044874,
				"element": "N" 
			},
			{
				"x": 1.5812055468,
				"y": 0.9925697182,
				"z": -0.7930893401,
				"element": "C" 
			},
			{
				"x": 0.6779560173,
				"y": 0.0166751494,
				"z": -0.3837974054,
				"element": "C" 
			},
			{
				"x": -1.6680719631,
				"y": -2.3115769045,
				"z": -1.6144406036,
				"element": "H" 
			},
			{
				"x": -3.211589264,
				"y": -2.0063392958,
				"z": -0.7996563576,
				"element": "H" 
			},
			{
				"x": -2.5814218621,
				"y": -0.8315896801,
				"z": -1.9920789269,
				"element": "H" 
			},
			{
				"x": -0.5387594621,
				"y": -2.5385407881,
				"z": 3.2204240855,
				"element": "H" 
			},
			{
				"x": 0.3479456633,
				"y": -1.4912488786,
				"z": 5.3081238902,
				"element": "H" 
			},
			{
				"x": -0.7346091638,
				"y": 2.3831429746,
				"z": 3.7915270956,
				"element": "H" 
			},
			{
				"x": -1.5534610004,
				"y": 1.3432492022,
				"z": 1.7025783548,
				"element": "H" 
			},
			{
				"x": -2.220420015,
				"y": 1.5677324904,
				"z": -1.2212284245,
				"element": "H" 
			},
			{
				"x": -0.6251509604,
				"y": 3.2876234282,
				"z": -1.9925337707,
				"element": "H" 
			},
			{
				"x": 1.6751540564,
				"y": 4.0777789816,
				"z": -1.9380253399,
				"element": "H" 
			},
			{
				"x": 2.950050269,
				"y": 3.1193954487,
				"z": -1.4203614745,
				"element": "H" 
			},
			{
				"x": 2.6481035814,
				"y": 0.8228724566,
				"z": -0.6723865521,
				"element": "H" 
			},
			{
				"x": 1.0452748087,
				"y": -0.9055460603,
				"z": 0.0558756537,
				"element": "H" 
			}
		],
		 "valence_orbital": [ 
			{
				"type": "occ",
				"energy": -0.26322,
				"method": "rhf"
			},
			{
				"type": "occ",
				"energy": -0.25769,
				"method": "rhf"
			},
			{
				"type": "occ",
				"energy": -0.24831,
				"method": "rhf"
			},
			{
				"type": "occ",
				"energy": -0.23838,
				"method": "rhf"
			},
			{
				"type": "occ",
				"energy": -0.20548,
				"method": "rhf"
			},
			{
				"type": "unocc",
				"energy": -0.03732,
				"method": "rhf"
			},
			{
				"type": "unocc",
				"energy": -0.01478,
				"method": "rhf"
			},
			{
				"type": "unocc",
				"energy": -0.00908,
				"method": "rhf"
			},
			{
				"type": "unocc",
				"energy": 0.00424,
				"method": "rhf"
			},
			{
				"type": "unocc",
				"energy": 0.03118,
				"method": "rhf"
			}
		],
		"cosmo_sigma_profile": { 
			"-0.025": 0.0,
			"-0.024": 0.0,
			"-0.023": 0.0,
			"-0.022": 0.0,
			"-0.021": 0.0,
			"-0.02": 0.0,
			"-0.019": 0.0,
			"-0.018": 0.0,
			"-0.017": 0.0,
			"-0.016": 0.0,
			"-0.015": 0.0,
			"-0.014": 0.0,
			"-0.013": 0.612633226844,
			"-0.012": 2.49222723849,
			"-0.011": 3.39776672189,
			"-0.01": 2.26519429909,
			"-0.009": 3.55568070359,
			"-0.008": 4.04123824138,
			"-0.007": 7.11693729988,
			"-0.006": 13.0248792753,
			"-0.005": 19.6160104914,
			"-0.004": 19.7114112262,
			"-0.003": 22.3306738752,
			"-0.002": 21.3019275313,
			"-0.001": 21.3816257886,
			"0.0": 19.5848824547,
			"0.001": 21.3021180587,
			"0.002": 21.5116766684,
			"0.003": 26.1222872673,
			"0.004": 20.4663386532,
			"0.005": 16.8583292829,
			"0.006": 6.28827434439,
			"0.007": 2.84275903072,
			"0.008": 2.67282731971,
			"0.009": 2.0958543597,
			"0.01": 1.81041458311,
			"0.011": 2.24777295156,
			"0.012": 3.10600966148,
			"0.013": 4.59289738855,
			"0.014": 3.37556462146,
			"0.015": 0.0991119582011,
			"0.016": 0.0,
			"0.017": 0.0,
			"0.018": 0.0,
			"0.019": 0.0,
			"0.02": 0.0,
			"0.021": 0.0,
			"0.022": 0.0,
			"0.023": 0.0,
			"0.024": 0.0,
			"0.025": 0.0
		}
	}
}
