{
	 "smiles": "FC1=CC2=C(C=C1)N=C(S)N2C1=C(F)C=CC=C1", 
	 "Tm": 494.15, 
	 "num_atms": 26, 
	 "gaussian": { 
		 "optdone": 1, 
		 "sigma_profile": "yes", 
		 "theory": "DFT", 
		 "functional": "B3LYP", 
		 "basiset": "6-31G**", 
		 "properties": { 
			 "R2extent": 5530.0406, 
			 "electric_dipole_moment_norm": 3.64999257123, 
			 "electric_quadrupole_moment_norm": 8.00974362511, 
			 "total_energy": -1207.56379007, 
			 "HOMO_LUMO_gap": 0.17539, 
			 "cosmo_polarized_energy": -9.85, 
			 "cosmo_cavitation_energy": 33.26, 
			 "cosmo_dispersion_energy": -23.83, 
			 "cosmo_repulsion_energy": 1.75, 
			 "cosmo_total_nonelectrostatic_energy": 11.18, 
			 "SMD_solvation_energy": 4.28 
		},
		"coords": [
			{
				"x": -3.1088682495,
				"y": 3.1245748238,
				"z": -3.1163979707,
				"element": "F" 
			},
			{
				"x": -2.2565623492,
				"y": 3.2046968972,
				"z": -2.0695583958,
				"element": "C" 
			},
			{
				"x": -1.714586297,
				"y": 2.0267530219,
				"z": -1.5726649218,
				"element": "C" 
			},
			{
				"x": -0.8470253613,
				"y": 2.1813543076,
				"z": -0.4928021917,
				"element": "C" 
			},
			{
				"x": -0.5276408319,
				"y": 3.4397171154,
				"z": 0.0641013121,
				"element": "C" 
			},
			{
				"x": -1.097539857,
				"y": 4.6004369758,
				"z": -0.469917496,
				"element": "C" 
			},
			{
				"x": -1.9702432663,
				"y": 4.4731823559,
				"z": -1.546930059,
				"element": "C" 
			},
			{
				"x": 0.367771393,
				"y": 3.2918824948,
				"z": 1.1185957121,
				"element": "N" 
			},
			{
				"x": 0.5835070149,
				"y": 2.0079010967,
				"z": 1.1961341099,
				"element": "C" 
			},
			{
				"x": 1.6244699419,
				"y": 1.2168461629,
				"z": 2.3901026776,
				"element": "S" 
			},
			{
				"x": -0.1109109474,
				"y": 1.2566407026,
				"z": 0.2492882961,
				"element": "N" 
			},
			{
				"x": -0.0871553135,
				"y": -0.1528170294,
				"z": 0.0763062796,
				"element": "C" 
			},
			{
				"x": -1.2611901803,
				"y": -0.8991544598,
				"z": 0.2361843916,
				"element": "C" 
			},
			{
				"x": -2.4005166202,
				"y": -0.2583514411,
				"z": 0.5491514336,
				"element": "F" 
			},
			{
				"x": -1.2768581702,
				"y": -2.2779633922,
				"z": 0.0721410403,
				"element": "C" 
			},
			{
				"x": -0.0875318481,
				"y": -2.9357656835,
				"z": -0.244905648,
				"element": "C" 
			},
			{
				"x": 1.0964706934,
				"y": -2.2128603224,
				"z": -0.404973409,
				"element": "C" 
			},
			{
				"x": 1.0938823113,
				"y": -0.8261887749,
				"z": -0.2562609842,
				"element": "C" 
			},
			{
				"x": -1.9687546363,
				"y": 1.0689701531,
				"z": -2.0098312416,
				"element": "H" 
			},
			{
				"x": -0.8578687219,
				"y": 5.5713720586,
				"z": -0.05001485,
				"element": "H" 
			},
			{
				"x": -2.441428857,
				"y": 5.3387223036,
				"z": -1.9991637464,
				"element": "H" 
			},
			{
				"x": 1.8925698704,
				"y": 2.3819946554,
				"z": 3.0081948743,
				"element": "H" 
			},
			{
				"x": -2.2116158102,
				"y": -2.8116419362,
				"z": 0.2044963398,
				"element": "H" 
			},
			{
				"x": -0.0899733614,
				"y": -4.0141295604,
				"z": -0.3687272115,
				"element": "H" 
			},
			{
				"x": 2.0193863144,
				"y": -2.7242702549,
				"z": -0.6576641727,
				"element": "H" 
			},
			{
				"x": 2.0021131393,
				"y": -0.2498022706,
				"z": -0.397384169,
				"element": "H" 
			}
		],
		 "valence_orbital": [ 
			{
				"type": "occ",
				"energy": -0.28017,
				"method": "rhf"
			},
			{
				"type": "occ",
				"energy": -0.27332,
				"method": "rhf"
			},
			{
				"type": "occ",
				"energy": -0.2642,
				"method": "rhf"
			},
			{
				"type": "occ",
				"energy": -0.23247,
				"method": "rhf"
			},
			{
				"type": "occ",
				"energy": -0.21197,
				"method": "rhf"
			},
			{
				"type": "unocc",
				"energy": -0.03658,
				"method": "rhf"
			},
			{
				"type": "unocc",
				"energy": -0.02381,
				"method": "rhf"
			},
			{
				"type": "unocc",
				"energy": -0.01628,
				"method": "rhf"
			},
			{
				"type": "unocc",
				"energy": 0.01341,
				"method": "rhf"
			},
			{
				"type": "unocc",
				"energy": 0.01931,
				"method": "rhf"
			}
		],
		"cosmo_sigma_profile": { 
			"-0.025": 0.0,
			"-0.024": 0.0,
			"-0.023": 0.0,
			"-0.022": 0.0,
			"-0.021": 0.0,
			"-0.02": 0.0,
			"-0.019": 0.0,
			"-0.018": 0.0,
			"-0.017": 0.0,
			"-0.016": 0.0,
			"-0.015": 0.0,
			"-0.014": 0.0,
			"-0.013": 0.00793543241695,
			"-0.012": 1.23699314868,
			"-0.011": 1.32600669904,
			"-0.01": 1.26746957685,
			"-0.009": 1.10127891511,
			"-0.008": 3.93247077051,
			"-0.007": 11.9264605103,
			"-0.006": 15.4284385014,
			"-0.005": 16.0165635619,
			"-0.004": 13.1227037647,
			"-0.003": 12.7899676858,
			"-0.002": 14.7383294958,
			"-0.001": 18.0077548562,
			"0.0": 19.17698828,
			"0.001": 26.4189815009,
			"0.002": 30.0428286737,
			"0.003": 33.9828688656,
			"0.004": 26.163501486,
			"0.005": 10.4776335351,
			"0.006": 3.96809475724,
			"0.007": 2.03162290303,
			"0.008": 0.597677378825,
			"0.009": 1.08731245981,
			"0.01": 1.15276845252,
			"0.011": 1.17163645219,
			"0.012": 0.973099230322,
			"0.013": 1.23216043679,
			"0.014": 0.604201182847,
			"0.015": 0.604031206923,
			"0.016": 0.440953507622,
			"0.017": 0.0,
			"0.018": 0.0,
			"0.019": 0.0,
			"0.02": 0.0,
			"0.021": 0.0,
			"0.022": 0.0,
			"0.023": 0.0,
			"0.024": 0.0,
			"0.025": 0.0
		}
	}
}
