{
	 "smiles": "CC(C)(C)OC(=O)N1CCN(CC(C)(C)O)CC1", 
	 "Tm": 307.15, 
	 "num_atms": 44, 
	 "gaussian": { 
		 "optdone": 1, 
		 "sigma_profile": "yes", 
		 "theory": "DFT", 
		 "functional": "B3LYP", 
		 "basiset": "6-31G**", 
		 "properties": { 
			 "R2extent": 8034.5816, 
			 "electric_dipole_moment_norm": 1.16840801521, 
			 "electric_quadrupole_moment_norm": 17.9740220916, 
			 "total_energy": -846.251019814, 
			 "HOMO_LUMO_gap": 0.26255, 
			 "cosmo_polarized_energy": -13.03, 
			 "cosmo_cavitation_energy": 42.87, 
			 "cosmo_dispersion_energy": -29.28, 
			 "cosmo_repulsion_energy": 2.27, 
			 "cosmo_total_nonelectrostatic_energy": 15.86, 
			 "SMD_solvation_energy": 6.58 
		},
		"coords": [
			{
				"x": -3.2558482325,
				"y": -2.0179623196,
				"z": 1.9091648216,
				"element": "C" 
			},
			{
				"x": -3.4481767469,
				"y": -0.7216811264,
				"z": 1.1142387672,
				"element": "C" 
			},
			{
				"x": -4.2818316147,
				"y": -0.9771463437,
				"z": -0.1445902372,
				"element": "C" 
			},
			{
				"x": -4.0732067478,
				"y": 0.3916430132,
				"z": 1.9620659674,
				"element": "C" 
			},
			{
				"x": -2.1622051067,
				"y": -0.2750675612,
				"z": 0.559615504,
				"element": "O" 
			},
			{
				"x": -1.1350042166,
				"y": 0.0711659367,
				"z": 1.3772192797,
				"element": "C" 
			},
			{
				"x": -1.149304269,
				"y": 0.0255686656,
				"z": 2.6007799847,
				"element": "O" 
			},
			{
				"x": -0.0587422991,
				"y": 0.4871870944,
				"z": 0.6418916943,
				"element": "N" 
			},
			{
				"x": 1.1877685878,
				"y": 0.8090229366,
				"z": 1.3388702118,
				"element": "C" 
			},
			{
				"x": 2.3798808792,
				"y": 0.2950280448,
				"z": 0.5370395184,
				"element": "C" 
			},
			{
				"x": 2.4398327657,
				"y": 0.9232398079,
				"z": -0.7869283876,
				"element": "N" 
			},
			{
				"x": 3.342974436,
				"y": 0.2725339922,
				"z": -1.7316332129,
				"element": "C" 
			},
			{
				"x": 4.5680556307,
				"y": 1.1239979867,
				"z": -2.1556681286,
				"element": "C" 
			},
			{
				"x": 5.4370879867,
				"y": 1.4841651127,
				"z": -0.9455999167,
				"element": "C" 
			},
			{
				"x": 4.1335098792,
				"y": 2.3790251389,
				"z": -2.9115884657,
				"element": "C" 
			},
			{
				"x": 5.3253366398,
				"y": 0.3547166576,
				"z": -3.1025745862,
				"element": "O" 
			},
			{
				"x": 1.136055602,
				"y": 1.3575271961,
				"z": -1.3018099257,
				"element": "C" 
			},
			{
				"x": -0.0371595379,
				"y": 0.493769424,
				"z": -0.8244479151,
				"element": "C" 
			},
			{
				"x": -2.6425684748,
				"y": -1.8441404127,
				"z": 2.7933500622,
				"element": "H" 
			},
			{
				"x": -4.2307469452,
				"y": -2.405783925,
				"z": 2.2224513621,
				"element": "H" 
			},
			{
				"x": -2.773344037,
				"y": -2.7771381691,
				"z": 1.2851410681,
				"element": "H" 
			},
			{
				"x": -5.2814332377,
				"y": -1.3266147096,
				"z": 0.1305284063,
				"element": "H" 
			},
			{
				"x": -3.809421976,
				"y": -1.7381075776,
				"z": -0.7727076137,
				"element": "H" 
			},
			{
				"x": -4.3854720414,
				"y": -0.0603459851,
				"z": -0.7325373935,
				"element": "H" 
			},
			{
				"x": -3.4704466383,
				"y": 0.5913920344,
				"z": 2.8480681563,
				"element": "H" 
			},
			{
				"x": -5.0791055602,
				"y": 0.0940506749,
				"z": 2.2759868677,
				"element": "H" 
			},
			{
				"x": -4.1595020011,
				"y": 1.3120811361,
				"z": 1.375596514,
				"element": "H" 
			},
			{
				"x": 1.2799783992,
				"y": 1.8930656869,
				"z": 1.4947081042,
				"element": "H" 
			},
			{
				"x": 1.1528662858,
				"y": 0.3386508527,
				"z": 2.3223060178,
				"element": "H" 
			},
			{
				"x": 2.3011889062,
				"y": -0.8057711245,
				"z": 0.4645872465,
				"element": "H" 
			},
			{
				"x": 3.3014942902,
				"y": 0.5100217675,
				"z": 1.0930090823,
				"element": "H" 
			},
			{
				"x": 3.7242975503,
				"y": -0.6626053241,
				"z": -1.2911392872,
				"element": "H" 
			},
			{
				"x": 2.8158351167,
				"y": -0.0173741047,
				"z": -2.6513014583,
				"element": "H" 
			},
			{
				"x": 4.8667447161,
				"y": 2.0699736599,
				"z": -0.2190583066,
				"element": "H" 
			},
			{
				"x": 6.3085753506,
				"y": 2.0653123041,
				"z": -1.2614274186,
				"element": "H" 
			},
			{
				"x": 5.7976630925,
				"y": 0.5782401895,
				"z": -0.440761941,
				"element": "H" 
			},
			{
				"x": 5.0098418448,
				"y": 2.9528573798,
				"z": -3.2268182557,
				"element": "H" 
			},
			{
				"x": 3.5684702977,
				"y": 2.1058414656,
				"z": -3.8086071047,
				"element": "H" 
			},
			{
				"x": 3.5079371459,
				"y": 3.0109856143,
				"z": -2.2759334624,
				"element": "H" 
			},
			{
				"x": 5.692230464,
				"y": -0.4080802155,
				"z": -2.6349648227,
				"element": "H" 
			},
			{
				"x": 0.9398170321,
				"y": 2.3990549672,
				"z": -1.0092331679,
				"element": "H" 
			},
			{
				"x": 1.1633174776,
				"y": 1.3449800551,
				"z": -2.394978698,
				"element": "H" 
			},
			{
				"x": -0.9791495728,
				"y": 0.9003628384,
				"z": -1.2014765885,
				"element": "H" 
			},
			{
				"x": 0.0568088789,
				"y": -0.5285427351,
				"z": -1.2186323421,
				"element": "H" 
			}
		],
		 "valence_orbital": [ 
			{
				"type": "occ",
				"energy": -0.28298,
				"method": "rhf"
			},
			{
				"type": "occ",
				"energy": -0.26755,
				"method": "rhf"
			},
			{
				"type": "occ",
				"energy": -0.25622,
				"method": "rhf"
			},
			{
				"type": "occ",
				"energy": -0.23245,
				"method": "rhf"
			},
			{
				"type": "occ",
				"energy": -0.20512,
				"method": "rhf"
			},
			{
				"type": "unocc",
				"energy": 0.05743,
				"method": "rhf"
			},
			{
				"type": "unocc",
				"energy": 0.06658,
				"method": "rhf"
			},
			{
				"type": "unocc",
				"energy": 0.07819,
				"method": "rhf"
			},
			{
				"type": "unocc",
				"energy": 0.09076,
				"method": "rhf"
			},
			{
				"type": "unocc",
				"energy": 0.09695,
				"method": "rhf"
			}
		],
		"cosmo_sigma_profile": { 
			"-0.025": 0.0,
			"-0.024": 0.0,
			"-0.023": 0.0,
			"-0.022": 0.0,
			"-0.021": 0.0,
			"-0.02": 0.0,
			"-0.019": 0.0,
			"-0.018": 0.0,
			"-0.017": 0.0,
			"-0.016": 0.0,
			"-0.015": 0.0538876638538,
			"-0.014": 0.872162735305,
			"-0.013": 0.817317533612,
			"-0.012": 1.10494384744,
			"-0.011": 1.03586489252,
			"-0.01": 0.933211872889,
			"-0.009": 0.967453730223,
			"-0.008": 1.16827939048,
			"-0.007": 1.44047623386,
			"-0.006": 1.32819689101,
			"-0.005": 4.71258507931,
			"-0.004": 24.1926103285,
			"-0.003": 46.573472701,
			"-0.002": 50.5823510815,
			"-0.001": 41.1501317,
			"0.0": 42.0840244168,
			"0.001": 38.2803602049,
			"0.002": 17.3216144465,
			"0.003": 7.26051120371,
			"0.004": 6.51594749793,
			"0.005": 6.58948860848,
			"0.006": 5.52296835195,
			"0.007": 4.71423404236,
			"0.008": 4.15940772506,
			"0.009": 2.7273329235,
			"0.01": 2.82589956604,
			"0.011": 3.11216884183,
			"0.012": 2.24515874505,
			"0.013": 4.20631560763,
			"0.014": 4.11741530426,
			"0.015": 1.34895609141,
			"0.016": 0.0,
			"0.017": 0.0,
			"0.018": 0.0,
			"0.019": 0.0,
			"0.02": 0.0,
			"0.021": 0.0,
			"0.022": 0.0,
			"0.023": 0.0,
			"0.024": 0.0,
			"0.025": 0.0
		}
	}
}
