{
	 "smiles": "CCCCCCCCCl", 
	 "Tm": 215.25, 
	 "num_atms": 26, 
	 "gaussian": { 
		 "optdone": 1, 
		 "sigma_profile": "yes", 
		 "theory": "DFT", 
		 "functional": "B3LYP", 
		 "basiset": "6-31G**", 
		 "properties": { 
			 "R2extent": 2806.7583, 
			 "electric_dipole_moment_norm": 2.13573987414, 
			 "electric_quadrupole_moment_norm": 8.80020902536, 
			 "total_energy": -775.310605843, 
			 "HOMO_LUMO_gap": 0.31318, 
			 "cosmo_polarized_energy": -3.84, 
			 "cosmo_cavitation_energy": 27.84, 
			 "cosmo_dispersion_energy": -19.99, 
			 "cosmo_repulsion_energy": 1.67, 
			 "cosmo_total_nonelectrostatic_energy": 9.52, 
			 "SMD_solvation_energy": 3.82 
		},
		"coords": [
			{
				"x": 2.5369361019,
				"y": 1.4662701871,
				"z": 0.2022325977,
				"element": "C" 
			},
			{
				"x": 2.1673098122,
				"y": 0.3455149438,
				"z": -0.7766911652,
				"element": "C" 
			},
			{
				"x": 1.3197343985,
				"y": -0.7827318449,
				"z": -0.1614501163,
				"element": "C" 
			},
			{
				"x": -0.0674550886,
				"y": -0.3744274288,
				"z": 0.370151159,
				"element": "C" 
			},
			{
				"x": -1.0551612725,
				"y": 0.1549057351,
				"z": -0.6880542543,
				"element": "C" 
			},
			{
				"x": -1.5540020427,
				"y": -0.8865404703,
				"z": -1.7184552524,
				"element": "C" 
			},
			{
				"x": -2.9132749232,
				"y": -1.5569093942,
				"z": -1.4442859123,
				"element": "C" 
			},
			{
				"x": -3.0143503427,
				"y": -2.5132516537,
				"z": -0.2571400241,
				"element": "C" 
			},
			{
				"x": -3.2867454344,
				"y": -1.6802801801,
				"z": 1.3454577891,
				"element": "Cl" 
			},
			{
				"x": 3.1947168749,
				"y": 2.2023598423,
				"z": -0.2718296251,
				"element": "H" 
			},
			{
				"x": 3.0617439758,
				"y": 1.0675640484,
				"z": 1.0784278388,
				"element": "H" 
			},
			{
				"x": 1.6534564664,
				"y": 2.0024849208,
				"z": 0.563747369,
				"element": "H" 
			},
			{
				"x": 1.6477766474,
				"y": 0.775262579,
				"z": -1.643017938,
				"element": "H" 
			},
			{
				"x": 3.0893820376,
				"y": -0.0972428573,
				"z": -1.1750105497,
				"element": "H" 
			},
			{
				"x": 1.2084071224,
				"y": -1.5815990069,
				"z": -0.9070013416,
				"element": "H" 
			},
			{
				"x": 1.8851700984,
				"y": -1.2305046586,
				"z": 0.6675019977,
				"element": "H" 
			},
			{
				"x": 0.055794796,
				"y": 0.3944808296,
				"z": 1.1429249301,
				"element": "H" 
			},
			{
				"x": -0.512222033,
				"y": -1.2323516842,
				"z": 0.8868014649,
				"element": "H" 
			},
			{
				"x": -0.5785684199,
				"y": 0.9811597146,
				"z": -1.2294205321,
				"element": "H" 
			},
			{
				"x": -1.9176490958,
				"y": 0.5961231327,
				"z": -0.1756573481,
				"element": "H" 
			},
			{
				"x": -0.7969852092,
				"y": -1.6699954137,
				"z": -1.8575468828,
				"element": "H" 
			},
			{
				"x": -1.6468081095,
				"y": -0.3989695593,
				"z": -2.6966028339,
				"element": "H" 
			},
			{
				"x": -3.1682465515,
				"y": -2.1589210057,
				"z": -2.3283264055,
				"element": "H" 
			},
			{
				"x": -3.7012579341,
				"y": -0.7993337125,
				"z": -1.3581453436,
				"element": "H" 
			},
			{
				"x": -3.8696401714,
				"y": -3.1811385189,
				"z": -0.3675634409,
				"element": "H" 
			},
			{
				"x": -2.1113617029,
				"y": -3.1153285441,
				"z": -0.1359461803,
				"element": "H" 
			}
		],
		 "valence_orbital": [ 
			{
				"type": "occ",
				"energy": -0.31063,
				"method": "rhf"
			},
			{
				"type": "occ",
				"energy": -0.30567,
				"method": "rhf"
			},
			{
				"type": "occ",
				"energy": -0.30264,
				"method": "rhf"
			},
			{
				"type": "occ",
				"energy": -0.28861,
				"method": "rhf"
			},
			{
				"type": "occ",
				"energy": -0.28591,
				"method": "rhf"
			},
			{
				"type": "unocc",
				"energy": 0.02727,
				"method": "rhf"
			},
			{
				"type": "unocc",
				"energy": 0.07266,
				"method": "rhf"
			},
			{
				"type": "unocc",
				"energy": 0.09995,
				"method": "rhf"
			},
			{
				"type": "unocc",
				"energy": 0.10282,
				"method": "rhf"
			},
			{
				"type": "unocc",
				"energy": 0.11667,
				"method": "rhf"
			}
		],
		"cosmo_sigma_profile": { 
			"-0.025": 0.0,
			"-0.024": 0.0,
			"-0.023": 0.0,
			"-0.022": 0.0,
			"-0.021": 0.0,
			"-0.02": 0.0,
			"-0.019": 0.0,
			"-0.018": 0.0,
			"-0.017": 0.0,
			"-0.016": 0.0,
			"-0.015": 0.0,
			"-0.014": 0.0,
			"-0.013": 0.0,
			"-0.012": 0.0,
			"-0.011": 0.0,
			"-0.01": 0.0,
			"-0.009": 0.0,
			"-0.008": 0.0,
			"-0.007": 0.577029106082,
			"-0.006": 4.17421847424,
			"-0.005": 5.57043782557,
			"-0.004": 9.34413825,
			"-0.003": 14.6253082673,
			"-0.002": 29.2450026289,
			"-0.001": 34.6282121469,
			"0.0": 35.0331857837,
			"0.001": 34.4997067256,
			"0.002": 17.9144784477,
			"0.003": 5.25763414608,
			"0.004": 5.37839887598,
			"0.005": 6.10147298999,
			"0.006": 6.96775424416,
			"0.007": 6.6208781036,
			"0.008": 0.604859395157,
			"0.009": 0.0,
			"0.01": 0.0,
			"0.011": 0.0,
			"0.012": 0.0,
			"0.013": 0.0,
			"0.014": 0.0,
			"0.015": 0.0,
			"0.016": 0.0,
			"0.017": 0.0,
			"0.018": 0.0,
			"0.019": 0.0,
			"0.02": 0.0,
			"0.021": 0.0,
			"0.022": 0.0,
			"0.023": 0.0,
			"0.024": 0.0,
			"0.025": 0.0
		}
	}
}
