{
	 "smiles": "CC(=CC(O)=O)C1=CC(=CC=C1)C(F)(F)F", 
	 "Tm": 409.15, 
	 "num_atms": 25, 
	 "gaussian": { 
		 "optdone": 1, 
		 "sigma_profile": "yes", 
		 "theory": "DFT", 
		 "functional": "B3LYP", 
		 "basiset": "6-31G**", 
		 "properties": { 
			 "R2extent": 7262.3076, 
			 "electric_dipole_moment_norm": 5.31511680493, 
			 "electric_quadrupole_moment_norm": 25.9539027271, 
			 "total_energy": -874.563722212, 
			 "HOMO_LUMO_gap": 0.18603, 
			 "cosmo_polarized_energy": -15.38, 
			 "cosmo_cavitation_energy": 31.11, 
			 "cosmo_dispersion_energy": -21.77, 
			 "cosmo_repulsion_energy": 1.65, 
			 "cosmo_total_nonelectrostatic_energy": 10.99, 
			 "SMD_solvation_energy": 7.72 
		},
		"coords": [
			{
				"x": 0.0411901209,
				"y": -1.0263847377,
				"z": -1.5102042774,
				"element": "C" 
			},
			{
				"x": 0.1933138546,
				"y": -1.8326759944,
				"z": -0.2392121776,
				"element": "C" 
			},
			{
				"x": -0.3232976036,
				"y": -3.0703092011,
				"z": -0.0662476484,
				"element": "C" 
			},
			{
				"x": -1.1468515218,
				"y": -3.8661067054,
				"z": -1.0223537181,
				"element": "C" 
			},
			{
				"x": -2.170602876,
				"y": -3.2244605138,
				"z": -1.6594026216,
				"element": "O" 
			},
			{
				"x": -0.9549745422,
				"y": -5.0409752429,
				"z": -1.2229433577,
				"element": "O" 
			},
			{
				"x": 1.0114273639,
				"y": -1.222980863,
				"z": 0.8471456799,
				"element": "C" 
			},
			{
				"x": 0.7033560038,
				"y": -1.4715939487,
				"z": 2.1956866939,
				"element": "C" 
			},
			{
				"x": 1.4606581259,
				"y": -0.9059699495,
				"z": 3.2192974597,
				"element": "C" 
			},
			{
				"x": 2.5422365716,
				"y": -0.0713276656,
				"z": 2.9238470421,
				"element": "C" 
			},
			{
				"x": 2.8508522153,
				"y": 0.1933153449,
				"z": 1.5917518847,
				"element": "C" 
			},
			{
				"x": 2.0915765022,
				"y": -0.3686782228,
				"z": 0.5658585214,
				"element": "C" 
			},
			{
				"x": 1.1374649036,
				"y": -1.2268084666,
				"z": 4.6553201646,
				"element": "C" 
			},
			{
				"x": -0.1657299398,
				"y": -1.5415446806,
				"z": 4.8218607427,
				"element": "F" 
			},
			{
				"x": 1.8586305071,
				"y": -2.2804516891,
				"z": 5.1014004618,
				"element": "F" 
			},
			{
				"x": 1.414083506,
				"y": -0.1875516414,
				"z": 5.4735297657,
				"element": "F" 
			},
			{
				"x": -0.5861314779,
				"y": -1.5243587191,
				"z": -2.2490994111,
				"element": "H" 
			},
			{
				"x": 1.01881682,
				"y": -0.8706808634,
				"z": -1.9795048823,
				"element": "H" 
			},
			{
				"x": -0.3681274452,
				"y": -0.0313325302,
				"z": -1.3013590466,
				"element": "H" 
			},
			{
				"x": -0.0416624986,
				"y": -3.6454296465,
				"z": 0.8104064756,
				"element": "H" 
			},
			{
				"x": -2.2916953746,
				"y": -2.3481723564,
				"z": -1.2675674885,
				"element": "H" 
			},
			{
				"x": -0.1535290782,
				"y": -2.084874431,
				"z": 2.4494982836,
				"element": "H" 
			},
			{
				"x": 3.1191871158,
				"y": 0.3748067296,
				"z": 3.7264571642,
				"element": "H" 
			},
			{
				"x": 3.6855820919,
				"y": 0.8435540426,
				"z": 1.3488929594,
				"element": "H" 
			},
			{
				"x": 2.3573266552,
				"y": -0.1492080477,
				"z": -0.4624586699,
				"element": "H" 
			}
		],
		 "valence_orbital": [ 
			{
				"type": "occ",
				"energy": -0.32106,
				"method": "rhf"
			},
			{
				"type": "occ",
				"energy": -0.30914,
				"method": "rhf"
			},
			{
				"type": "occ",
				"energy": -0.28153,
				"method": "rhf"
			},
			{
				"type": "occ",
				"energy": -0.27551,
				"method": "rhf"
			},
			{
				"type": "occ",
				"energy": -0.25518,
				"method": "rhf"
			},
			{
				"type": "unocc",
				"energy": -0.06915,
				"method": "rhf"
			},
			{
				"type": "unocc",
				"energy": -0.03865,
				"method": "rhf"
			},
			{
				"type": "unocc",
				"energy": -0.00618,
				"method": "rhf"
			},
			{
				"type": "unocc",
				"energy": 0.04568,
				"method": "rhf"
			},
			{
				"type": "unocc",
				"energy": 0.0588,
				"method": "rhf"
			}
		],
		"cosmo_sigma_profile": { 
			"-0.025": 0.0,
			"-0.024": 0.0,
			"-0.023": 0.0,
			"-0.022": 0.0,
			"-0.021": 0.0,
			"-0.02": 0.0,
			"-0.019": 0.0,
			"-0.018": 0.590487782605,
			"-0.017": 0.776045677585,
			"-0.016": 0.652635702981,
			"-0.015": 0.647959173424,
			"-0.014": 0.916896756756,
			"-0.013": 0.796300812177,
			"-0.012": 1.22276436836,
			"-0.011": 1.11133449936,
			"-0.01": 0.79328487803,
			"-0.009": 0.903102030445,
			"-0.008": 3.8327874733,
			"-0.007": 8.196383813,
			"-0.006": 12.2689122199,
			"-0.005": 14.853739392,
			"-0.004": 16.6298080078,
			"-0.003": 16.5780642825,
			"-0.002": 16.4531586073,
			"-0.001": 15.9131267055,
			"0.0": 15.2464563871,
			"0.001": 16.8447386718,
			"0.002": 31.2016738582,
			"0.003": 36.8158086723,
			"0.004": 4.9502549023,
			"0.005": 2.4929578608,
			"0.006": 1.89675447352,
			"0.007": 2.13276814267,
			"0.008": 2.62481429908,
			"0.009": 3.29762445364,
			"0.01": 4.93998263974,
			"0.011": 5.4854279414,
			"0.012": 5.3814294411,
			"0.013": 2.48127772859,
			"0.014": 0.0726182057135,
			"0.015": 0.0,
			"0.016": 0.0,
			"0.017": 0.0,
			"0.018": 0.0,
			"0.019": 0.0,
			"0.02": 0.0,
			"0.021": 0.0,
			"0.022": 0.0,
			"0.023": 0.0,
			"0.024": 0.0,
			"0.025": 0.0
		}
	}
}
