{
	 "smiles": "NC(=O)C1=CC=C(C=C1)C1=NNN=N1", 
	 "Tm": 532.15, 
	 "num_atms": 21, 
	 "gaussian": { 
		 "optdone": 1, 
		 "sigma_profile": "yes", 
		 "theory": "DFT", 
		 "functional": "B3LYP", 
		 "basiset": "6-31G**", 
		 "properties": { 
			 "R2extent": 4089.9563, 
			 "electric_dipole_moment_norm": 2.35609259156, 
			 "electric_quadrupole_moment_norm": 32.0130202521, 
			 "total_energy": -658.023213359, 
			 "HOMO_LUMO_gap": 0.18647, 
			 "cosmo_polarized_energy": -20.52, 
			 "cosmo_cavitation_energy": 26.67, 
			 "cosmo_dispersion_energy": -20.03, 
			 "cosmo_repulsion_energy": 1.57, 
			 "cosmo_total_nonelectrostatic_energy": 8.21, 
			 "SMD_solvation_energy": 3.1 
		},
		"coords": [
			{
				"x": -2.853184371,
				"y": -1.134473859,
				"z": -2.3118025937,
				"element": "N" 
			},
			{
				"x": -3.0193277302,
				"y": -0.1273879588,
				"z": -1.3910047138,
				"element": "C" 
			},
			{
				"x": -4.1225497631,
				"y": 0.3408227177,
				"z": -1.1380169286,
				"element": "O" 
			},
			{
				"x": -1.769881512,
				"y": 0.3848884581,
				"z": -0.7306458871,
				"element": "C" 
			},
			{
				"x": -0.4808107627,
				"y": 0.1690394539,
				"z": -1.2384065154,
				"element": "C" 
			},
			{
				"x": 0.6343839249,
				"y": 0.6756508416,
				"z": -0.5774271374,
				"element": "C" 
			},
			{
				"x": 0.4765577964,
				"y": 1.4096550634,
				"z": 0.6071231564,
				"element": "C" 
			},
			{
				"x": -0.8138445818,
				"y": 1.6392871055,
				"z": 1.1107953703,
				"element": "C" 
			},
			{
				"x": -1.9230273992,
				"y": 1.1363852301,
				"z": 0.4426694894,
				"element": "C" 
			},
			{
				"x": 1.6554844945,
				"y": 1.9351821058,
				"z": 1.3014330817,
				"element": "C" 
			},
			{
				"x": 1.6115748622,
				"y": 2.6529780241,
				"z": 2.4273815094,
				"element": "N" 
			},
			{
				"x": 2.9025730322,
				"y": 2.876167577,
				"z": 2.6378769049,
				"element": "N" 
			},
			{
				"x": 3.7182545297,
				"y": 2.3499892182,
				"z": 1.7287115441,
				"element": "N" 
			},
			{
				"x": 2.9389425183,
				"y": 1.7474705744,
				"z": 0.871431222,
				"element": "N" 
			},
			{
				"x": -2.0394100089,
				"y": -1.7283173125,
				"z": -2.2804654213,
				"element": "H" 
			},
			{
				"x": -3.7074382697,
				"y": -1.5474875315,
				"z": -2.6576208918,
				"element": "H" 
			},
			{
				"x": -0.3397376904,
				"y": -0.3664193902,
				"z": -2.1725311493,
				"element": "H" 
			},
			{
				"x": 1.6315322873,
				"y": 0.5156243997,
				"z": -0.9728083305,
				"element": "H" 
			},
			{
				"x": -0.9354180242,
				"y": 2.2137646767,
				"z": 2.0230667498,
				"element": "H" 
			},
			{
				"x": -2.927908934,
				"y": 1.3135986833,
				"z": 0.8101071858,
				"element": "H" 
			},
			{
				"x": 3.2449356016,
				"y": 3.4064819225,
				"z": 3.4278333551,
				"element": "H" 
			}
		],
		 "valence_orbital": [ 
			{
				"type": "occ",
				"energy": -0.30008,
				"method": "rhf"
			},
			{
				"type": "occ",
				"energy": -0.27553,
				"method": "rhf"
			},
			{
				"type": "occ",
				"energy": -0.26522,
				"method": "rhf"
			},
			{
				"type": "occ",
				"energy": -0.25532,
				"method": "rhf"
			},
			{
				"type": "occ",
				"energy": -0.24711,
				"method": "rhf"
			},
			{
				"type": "unocc",
				"energy": -0.06064,
				"method": "rhf"
			},
			{
				"type": "unocc",
				"energy": -0.03465,
				"method": "rhf"
			},
			{
				"type": "unocc",
				"energy": -0.01297,
				"method": "rhf"
			},
			{
				"type": "unocc",
				"energy": 0.02303,
				"method": "rhf"
			},
			{
				"type": "unocc",
				"energy": 0.05902,
				"method": "rhf"
			}
		],
		"cosmo_sigma_profile": { 
			"-0.025": 0.0,
			"-0.024": 0.0,
			"-0.023": 0.0,
			"-0.022": 0.0,
			"-0.021": 0.0,
			"-0.02": 0.811271858415,
			"-0.019": 1.89653279068,
			"-0.018": 1.63226046309,
			"-0.017": 0.795618600355,
			"-0.016": 0.847900606484,
			"-0.015": 1.71781915564,
			"-0.014": 2.19691025313,
			"-0.013": 2.92790602779,
			"-0.012": 3.72235851167,
			"-0.011": 2.96225682916,
			"-0.01": 3.82527971497,
			"-0.009": 2.85391936813,
			"-0.008": 2.98532231769,
			"-0.007": 4.01291886223,
			"-0.006": 7.37051785181,
			"-0.005": 9.09599696394,
			"-0.004": 8.79711290334,
			"-0.003": 10.9312132982,
			"-0.002": 9.33410426647,
			"-0.001": 12.4280047706,
			"0.0": 17.0040815236,
			"0.001": 15.5426800105,
			"0.002": 16.3401111955,
			"0.003": 18.1220798515,
			"0.004": 6.53770611304,
			"0.005": 6.12625027815,
			"0.006": 5.41743438007,
			"0.007": 5.248230321,
			"0.008": 5.57185148963,
			"0.009": 5.82155069242,
			"0.01": 5.56941400438,
			"0.011": 3.90995150859,
			"0.012": 3.52070997174,
			"0.013": 5.36324459581,
			"0.014": 3.09616797541,
			"0.015": 0.122309557894,
			"0.016": 0.0,
			"0.017": 0.0,
			"0.018": 0.0,
			"0.019": 0.0,
			"0.02": 0.0,
			"0.021": 0.0,
			"0.022": 0.0,
			"0.023": 0.0,
			"0.024": 0.0,
			"0.025": 0.0
		}
	}
}
