{
	 "smiles": "OC(=O)COC1=CC=C(C=C1)N1CCCC1=O", 
	 "Tm": 425.15, 
	 "num_atms": 30, 
	 "gaussian": { 
		 "optdone": 1, 
		 "sigma_profile": "yes", 
		 "theory": "DFT", 
		 "functional": "B3LYP", 
		 "basiset": "6-31G**", 
		 "properties": { 
			 "R2extent": 6057.6608, 
			 "electric_dipole_moment_norm": 3.36774442172, 
			 "electric_quadrupole_moment_norm": 22.2335837426, 
			 "total_energy": -820.775186915, 
			 "HOMO_LUMO_gap": 0.19221, 
			 "cosmo_polarized_energy": -18.54, 
			 "cosmo_cavitation_energy": 33.65, 
			 "cosmo_dispersion_energy": -24.72, 
			 "cosmo_repulsion_energy": 1.93, 
			 "cosmo_total_nonelectrostatic_energy": 10.86, 
			 "SMD_solvation_energy": 7.07 
		},
		"coords": [
			{
				"x": -1.6750471586,
				"y": -3.9686375528,
				"z": 2.8221553714,
				"element": "O" 
			},
			{
				"x": -2.4430926028,
				"y": -4.1209122697,
				"z": 1.7282895394,
				"element": "C" 
			},
			{
				"x": -3.6527869816,
				"y": -4.1753177448,
				"z": 1.7536359074,
				"element": "O" 
			},
			{
				"x": -1.6265475708,
				"y": -4.2802102249,
				"z": 0.4474821716,
				"element": "C" 
			},
			{
				"x": -0.3452260408,
				"y": -3.6968035359,
				"z": 0.4694878172,
				"element": "O" 
			},
			{
				"x": -0.2532376991,
				"y": -2.3264877325,
				"z": 0.3964563624,
				"element": "C" 
			},
			{
				"x": -1.3395785385,
				"y": -1.4523009318,
				"z": 0.3502848853,
				"element": "C" 
			},
			{
				"x": -1.1184737514,
				"y": -0.074068461,
				"z": 0.2675492282,
				"element": "C" 
			},
			{
				"x": 0.1782816331,
				"y": 0.4550513305,
				"z": 0.2336302402,
				"element": "C" 
			},
			{
				"x": 1.267423376,
				"y": -0.4392741331,
				"z": 0.2829840075,
				"element": "C" 
			},
			{
				"x": 1.0461893703,
				"y": -1.8063979587,
				"z": 0.360848234,
				"element": "C" 
			},
			{
				"x": 0.3660680205,
				"y": 1.8585680951,
				"z": 0.169530116,
				"element": "N" 
			},
			{
				"x": -0.7619230541,
				"y": 2.7846725774,
				"z": 0.3202447534,
				"element": "C" 
			},
			{
				"x": -0.0948242764,
				"y": 4.1619181453,
				"z": 0.4826313921,
				"element": "C" 
			},
			{
				"x": 1.2316412341,
				"y": 4.0060084066,
				"z": -0.2667754484,
				"element": "C" 
			},
			{
				"x": 1.5404123078,
				"y": 2.5126342984,
				"z": -0.1827397708,
				"element": "C" 
			},
			{
				"x": 2.6236241576,
				"y": 1.9977587119,
				"z": -0.4073601308,
				"element": "O" 
			},
			{
				"x": -2.2858111524,
				"y": -3.8948675792,
				"z": 3.5752127198,
				"element": "H" 
			},
			{
				"x": -2.2421680723,
				"y": -3.9185472932,
				"z": -0.3839124442,
				"element": "H" 
			},
			{
				"x": -1.4626088361,
				"y": -5.353306558,
				"z": 0.301460233,
				"element": "H" 
			},
			{
				"x": -2.3619695026,
				"y": -1.8115837454,
				"z": 0.3790873903,
				"element": "H" 
			},
			{
				"x": -1.9830207105,
				"y": 0.5775106417,
				"z": 0.2227667356,
				"element": "H" 
			},
			{
				"x": 2.2744176032,
				"y": -0.0501718367,
				"z": 0.2448646916,
				"element": "H" 
			},
			{
				"x": 1.8821193786,
				"y": -2.4972706732,
				"z": 0.3977169023,
				"element": "H" 
			},
			{
				"x": -1.4113523567,
				"y": 2.7496686214,
				"z": -0.5664514644,
				"element": "H" 
			},
			{
				"x": -1.3677520856,
				"y": 2.5089719896,
				"z": 1.1886975271,
				"element": "H" 
			},
			{
				"x": -0.7259349565,
				"y": 4.9682858637,
				"z": 0.1017474616,
				"element": "H" 
			},
			{
				"x": 0.0929892664,
				"y": 4.3562199859,
				"z": 1.5433068124,
				"element": "H" 
			},
			{
				"x": 2.0613330416,
				"y": 4.5851432751,
				"z": 0.1434967853,
				"element": "H" 
			},
			{
				"x": 1.1400559577,
				"y": 4.2707462883,
				"z": -1.3278280265,
				"element": "H" 
			}
		],
		 "valence_orbital": [ 
			{
				"type": "occ",
				"energy": -0.28894,
				"method": "rhf"
			},
			{
				"type": "occ",
				"energy": -0.27172,
				"method": "rhf"
			},
			{
				"type": "occ",
				"energy": -0.25238,
				"method": "rhf"
			},
			{
				"type": "occ",
				"energy": -0.2463,
				"method": "rhf"
			},
			{
				"type": "occ",
				"energy": -0.20306,
				"method": "rhf"
			},
			{
				"type": "unocc",
				"energy": -0.01085,
				"method": "rhf"
			},
			{
				"type": "unocc",
				"energy": -0.00382,
				"method": "rhf"
			},
			{
				"type": "unocc",
				"energy": 0.00335,
				"method": "rhf"
			},
			{
				"type": "unocc",
				"energy": 0.0474,
				"method": "rhf"
			},
			{
				"type": "unocc",
				"energy": 0.0678,
				"method": "rhf"
			}
		],
		"cosmo_sigma_profile": { 
			"-0.025": 0.0,
			"-0.024": 0.0,
			"-0.023": 0.0,
			"-0.022": 0.0,
			"-0.021": 0.0,
			"-0.02": 0.0,
			"-0.019": 0.500822703356,
			"-0.018": 0.911968899455,
			"-0.017": 1.21231639683,
			"-0.016": 0.576312407522,
			"-0.015": 0.663008375633,
			"-0.014": 0.467417438953,
			"-0.013": 0.578879981329,
			"-0.012": 1.14113751591,
			"-0.011": 1.01008923731,
			"-0.01": 0.767191533136,
			"-0.009": 2.62889621101,
			"-0.008": 4.25242568151,
			"-0.007": 7.22936604059,
			"-0.006": 13.7178159567,
			"-0.005": 24.3755028882,
			"-0.004": 28.7102580308,
			"-0.003": 22.706711178,
			"-0.002": 17.7559066908,
			"-0.001": 14.9059655728,
			"0.0": 11.4918618648,
			"0.001": 10.0948243231,
			"0.002": 11.138632443,
			"0.003": 11.6226474825,
			"0.004": 16.1450027952,
			"0.005": 15.7339017782,
			"0.006": 5.14502030915,
			"0.007": 5.6302469973,
			"0.008": 5.74599374208,
			"0.009": 6.49101492989,
			"0.01": 5.56376911658,
			"0.011": 6.73653358277,
			"0.012": 5.43482850627,
			"0.013": 3.53565333985,
			"0.014": 1.84289449605,
			"0.015": 0.261930868461,
			"0.016": 0.0,
			"0.017": 0.0,
			"0.018": 0.0,
			"0.019": 0.0,
			"0.02": 0.0,
			"0.021": 0.0,
			"0.022": 0.0,
			"0.023": 0.0,
			"0.024": 0.0,
			"0.025": 0.0
		}
	}
}
