{
	 "smiles": "ClC1=C2C=CC=NC2=C(C=O)C=C1", 
	 "Tm": 406.15, 
	 "num_atms": 19, 
	 "gaussian": { 
		 "optdone": 1, 
		 "sigma_profile": "yes", 
		 "theory": "DFT", 
		 "functional": "B3LYP", 
		 "basiset": "6-31G**", 
		 "properties": { 
			 "R2extent": 3110.679, 
			 "electric_dipole_moment_norm": 3.78891539362, 
			 "electric_quadrupole_moment_norm": 13.4455551897, 
			 "total_energy": -974.842722172, 
			 "HOMO_LUMO_gap": 0.15734, 
			 "cosmo_polarized_energy": -8.41, 
			 "cosmo_cavitation_energy": 25.42, 
			 "cosmo_dispersion_energy": -19.03, 
			 "cosmo_repulsion_energy": 1.47, 
			 "cosmo_total_nonelectrostatic_energy": 7.85, 
			 "SMD_solvation_energy": 4.03 
		},
		"coords": [
			{
				"x": 2.4810341153,
				"y": -2.5154538116,
				"z": 1.7395693838,
				"element": "Cl" 
			},
			{
				"x": 1.7334107013,
				"y": -0.9411288047,
				"z": 1.520938562,
				"element": "C" 
			},
			{
				"x": 1.0106562764,
				"y": -0.6629197964,
				"z": 0.3264810715,
				"element": "C" 
			},
			{
				"x": 0.838042749,
				"y": -1.5832229385,
				"z": -0.7387950322,
				"element": "C" 
			},
			{
				"x": 0.1187356812,
				"y": -1.203841218,
				"z": -1.8464053168,
				"element": "C" 
			},
			{
				"x": -0.4297349885,
				"y": 0.1004896627,
				"z": -1.888581604,
				"element": "C" 
			},
			{
				"x": -0.2944273462,
				"y": 0.9866450368,
				"z": -0.9234158949,
				"element": "N" 
			},
			{
				"x": 0.4143094162,
				"y": 0.636372789,
				"z": 0.1865208558,
				"element": "C" 
			},
			{
				"x": 0.562056892,
				"y": 1.5976418046,
				"z": 1.2353640377,
				"element": "C" 
			},
			{
				"x": -0.0389706695,
				"y": 2.9541808751,
				"z": 1.1314261489,
				"element": "C" 
			},
			{
				"x": 0.0699119691,
				"y": 3.794040205,
				"z": 2.0084647614,
				"element": "O" 
			},
			{
				"x": 1.2773371453,
				"y": 1.26424931,
				"z": 2.3715492913,
				"element": "C" 
			},
			{
				"x": 1.8672119696,
				"y": -0.0037483221,
				"z": 2.5236431635,
				"element": "C" 
			},
			{
				"x": 1.2750535983,
				"y": -2.5727904194,
				"z": -0.6659522372,
				"element": "H" 
			},
			{
				"x": -0.0322601845,
				"y": -1.8831214111,
				"z": -2.6788539707,
				"element": "H" 
			},
			{
				"x": -1.0027072018,
				"y": 0.4177393446,
				"z": -2.7589261821,
				"element": "H" 
			},
			{
				"x": -0.5957061239,
				"y": 3.1544571495,
				"z": 0.2004229973,
				"element": "H" 
			},
			{
				"x": 1.3735529584,
				"y": 2.0130532061,
				"z": 3.1517352701,
				"element": "H" 
			},
			{
				"x": 2.4244930422,
				"y": -0.2483426615,
				"z": 3.4208146948,
				"element": "H" 
			}
		],
		 "valence_orbital": [ 
			{
				"type": "occ",
				"energy": -0.31509,
				"method": "rhf"
			},
			{
				"type": "occ",
				"energy": -0.28368,
				"method": "rhf"
			},
			{
				"type": "occ",
				"energy": -0.27527,
				"method": "rhf"
			},
			{
				"type": "occ",
				"energy": -0.248,
				"method": "rhf"
			},
			{
				"type": "occ",
				"energy": -0.24615,
				"method": "rhf"
			},
			{
				"type": "unocc",
				"energy": -0.08881,
				"method": "rhf"
			},
			{
				"type": "unocc",
				"energy": -0.03902,
				"method": "rhf"
			},
			{
				"type": "unocc",
				"energy": -0.03707,
				"method": "rhf"
			},
			{
				"type": "unocc",
				"energy": 0.01549,
				"method": "rhf"
			},
			{
				"type": "unocc",
				"energy": 0.03285,
				"method": "rhf"
			}
		],
		"cosmo_sigma_profile": { 
			"-0.025": 0.0,
			"-0.024": 0.0,
			"-0.023": 0.0,
			"-0.022": 0.0,
			"-0.021": 0.0,
			"-0.02": 0.0,
			"-0.019": 0.0,
			"-0.018": 0.0,
			"-0.017": 0.0,
			"-0.016": 0.0,
			"-0.015": 0.0,
			"-0.014": 0.0,
			"-0.013": 0.0,
			"-0.012": 0.0,
			"-0.011": 0.0,
			"-0.01": 0.0,
			"-0.009": 0.16844861833,
			"-0.008": 3.25499850697,
			"-0.007": 10.0491984295,
			"-0.006": 11.025576903,
			"-0.005": 9.18982171905,
			"-0.004": 9.98812646179,
			"-0.003": 12.1480513169,
			"-0.002": 15.3836505239,
			"-0.001": 24.3765437753,
			"0.0": 31.8906255187,
			"0.001": 24.1640350083,
			"0.002": 10.8747217211,
			"0.003": 11.1284617066,
			"0.004": 8.27942796818,
			"0.005": 2.96414856194,
			"0.006": 2.57574276993,
			"0.007": 2.8702422006,
			"0.008": 3.52041634413,
			"0.009": 2.90405820904,
			"0.01": 3.46847984784,
			"0.011": 4.44768746406,
			"0.012": 2.61671430828,
			"0.013": 0.755753515476,
			"0.014": 0.0,
			"0.015": 0.0,
			"0.016": 0.0,
			"0.017": 0.0,
			"0.018": 0.0,
			"0.019": 0.0,
			"0.02": 0.0,
			"0.021": 0.0,
			"0.022": 0.0,
			"0.023": 0.0,
			"0.024": 0.0,
			"0.025": 0.0
		}
	}
}
