{
	 "smiles": "CCSC1=NN=C(NN1)SCC", 
	 "Tm": 397.15, 
	 "num_atms": 24, 
	 "gaussian": { 
		 "optdone": 1, 
		 "sigma_profile": "yes", 
		 "theory": "DFT", 
		 "functional": "B3LYP", 
		 "basiset": "6-31G**", 
		 "properties": { 
			 "R2extent": 3993.7705, 
			 "electric_dipole_moment_norm": 0.191127941442, 
			 "electric_quadrupole_moment_norm": 6.98252491438, 
			 "total_energy": -1251.17633297, 
			 "HOMO_LUMO_gap": 0.18541, 
			 "cosmo_polarized_energy": -12.45, 
			 "cosmo_cavitation_energy": 30.31, 
			 "cosmo_dispersion_energy": -23.04, 
			 "cosmo_repulsion_energy": 1.8, 
			 "cosmo_total_nonelectrostatic_energy": 9.07, 
			 "SMD_solvation_energy": 3.61 
		},
		"coords": [
			{
				"x": -2.7029592869,
				"y": -2.9959415917,
				"z": 1.8358425917,
				"element": "C" 
			},
			{
				"x": -3.4991914276,
				"y": -1.7291879869,
				"z": 1.5349177508,
				"element": "C" 
			},
			{
				"x": -3.1564406199,
				"y": -1.0036964313,
				"z": -0.1225831832,
				"element": "S" 
			},
			{
				"x": -1.6933765814,
				"y": -0.0649591275,
				"z": 0.2047954785,
				"element": "C" 
			},
			{
				"x": -0.9806338627,
				"y": -0.2183237323,
				"z": 1.2663437591,
				"element": "N" 
			},
			{
				"x": 0.0373892633,
				"y": 0.734627575,
				"z": 1.4921682475,
				"element": "N" 
			},
			{
				"x": 0.5429977775,
				"y": 1.3017265795,
				"z": 0.4535099123,
				"element": "C" 
			},
			{
				"x": -0.0066834088,
				"y": 1.2021881907,
				"z": -0.8389178927,
				"element": "N" 
			},
			{
				"x": -1.3717661681,
				"y": 0.8324650494,
				"z": -0.830923083,
				"element": "N" 
			},
			{
				"x": 1.9662813027,
				"y": 2.3523839017,
				"z": 0.5227629422,
				"element": "S" 
			},
			{
				"x": 2.6673478041,
				"y": 1.8958695795,
				"z": 2.1637633154,
				"element": "C" 
			},
			{
				"x": 3.3684965109,
				"y": 0.5408521198,
				"z": 2.1888409637,
				"element": "C" 
			},
			{
				"x": -1.6347858239,
				"y": -2.7722061556,
				"z": 1.8611429354,
				"element": "H" 
			},
			{
				"x": -2.9962636925,
				"y": -3.3915442015,
				"z": 2.8152834427,
				"element": "H" 
			},
			{
				"x": -2.886686646,
				"y": -3.7709551411,
				"z": 1.0859527388,
				"element": "H" 
			},
			{
				"x": -4.5762946075,
				"y": -1.9216307828,
				"z": 1.5236361418,
				"element": "H" 
			},
			{
				"x": -3.2927231591,
				"y": -0.9483832978,
				"z": 2.2703245055,
				"element": "H" 
			},
			{
				"x": 0.5308555648,
				"y": 0.6390886224,
				"z": -1.4935410934,
				"element": "H" 
			},
			{
				"x": -1.9790491696,
				"y": 1.6454732801,
				"z": -0.8993922803,
				"element": "H" 
			},
			{
				"x": 1.8472623104,
				"y": 1.9351657541,
				"z": 2.8822736054,
				"element": "H" 
			},
			{
				"x": 3.3603725729,
				"y": 2.7133622323,
				"z": 2.3842890602,
				"element": "H" 
			},
			{
				"x": 3.7849677176,
				"y": 0.3586182189,
				"z": 3.1861512033,
				"element": "H" 
			},
			{
				"x": 2.6614892878,
				"y": -0.262293762,
				"z": 1.9687559025,
				"element": "H" 
			},
			{
				"x": 4.186394342,
				"y": 0.4997011074,
				"z": 1.4638030357,
				"element": "H" 
			}
		],
		 "valence_orbital": [ 
			{
				"type": "occ",
				"energy": -0.29806,
				"method": "rhf"
			},
			{
				"type": "occ",
				"energy": -0.26937,
				"method": "rhf"
			},
			{
				"type": "occ",
				"energy": -0.26139,
				"method": "rhf"
			},
			{
				"type": "occ",
				"energy": -0.23793,
				"method": "rhf"
			},
			{
				"type": "occ",
				"energy": -0.21162,
				"method": "rhf"
			},
			{
				"type": "unocc",
				"energy": -0.02621,
				"method": "rhf"
			},
			{
				"type": "unocc",
				"energy": 0.02298,
				"method": "rhf"
			},
			{
				"type": "unocc",
				"energy": 0.02976,
				"method": "rhf"
			},
			{
				"type": "unocc",
				"energy": 0.04283,
				"method": "rhf"
			},
			{
				"type": "unocc",
				"energy": 0.06207,
				"method": "rhf"
			}
		],
		"cosmo_sigma_profile": { 
			"-0.025": 0.0,
			"-0.024": 0.0,
			"-0.023": 0.0,
			"-0.022": 0.0,
			"-0.021": 0.0,
			"-0.02": 0.0,
			"-0.019": 0.0,
			"-0.018": 0.0,
			"-0.017": 0.0,
			"-0.016": 0.0,
			"-0.015": 0.467926243791,
			"-0.014": 2.61649879793,
			"-0.013": 2.99910775957,
			"-0.012": 2.18794800815,
			"-0.011": 2.04073114327,
			"-0.01": 1.16441835017,
			"-0.009": 2.42986943863,
			"-0.008": 2.49920404308,
			"-0.007": 3.36884977289,
			"-0.006": 6.84273772328,
			"-0.005": 7.93530239576,
			"-0.004": 16.223174605,
			"-0.003": 21.9035361395,
			"-0.002": 24.2531049149,
			"-0.001": 19.5680608773,
			"0.0": 23.1328852346,
			"0.001": 17.4259267897,
			"0.002": 10.3972007113,
			"0.003": 14.0670945816,
			"0.004": 14.5739597998,
			"0.005": 12.8049392391,
			"0.006": 9.09575481405,
			"0.007": 8.16505044541,
			"0.008": 4.57047924114,
			"0.009": 2.43261107641,
			"0.01": 2.10352423482,
			"0.011": 1.37585812366,
			"0.012": 1.99001336126,
			"0.013": 2.53498495612,
			"0.014": 1.41165169704,
			"0.015": 0.00512937582257,
			"0.016": 0.0,
			"0.017": 0.0,
			"0.018": 0.0,
			"0.019": 0.0,
			"0.02": 0.0,
			"0.021": 0.0,
			"0.022": 0.0,
			"0.023": 0.0,
			"0.024": 0.0,
			"0.025": 0.0
		}
	}
}
