{
	 "smiles": "CC1(C)C=CC=C(C=C1)C(O)=O", 
	 "Tm": 361.65, 
	 "num_atms": 24, 
	 "gaussian": { 
		 "optdone": 1, 
		 "sigma_profile": "yes", 
		 "theory": "DFT", 
		 "functional": "B3LYP", 
		 "basiset": "6-31G**", 
		 "properties": { 
			 "R2extent": 2571.5192, 
			 "electric_dipole_moment_norm": 2.18588715171, 
			 "electric_quadrupole_moment_norm": 8.98291800419, 
			 "total_energy": -538.721358025, 
			 "HOMO_LUMO_gap": 0.16207, 
			 "cosmo_polarized_energy": -8.87, 
			 "cosmo_cavitation_energy": 26.47, 
			 "cosmo_dispersion_energy": -19.22, 
			 "cosmo_repulsion_energy": 1.53, 
			 "cosmo_total_nonelectrostatic_energy": 8.78, 
			 "SMD_solvation_energy": 5.97 
		},
		"coords": [
			{
				"x": 1.2796345422,
				"y": -0.7691058342,
				"z": 0.7793365094,
				"element": "C" 
			},
			{
				"x": 0.9178007454,
				"y": -1.7348473617,
				"z": -0.3730989756,
				"element": "C" 
			},
			{
				"x": 1.5225344391,
				"y": -3.1196778645,
				"z": -0.0694122174,
				"element": "C" 
			},
			{
				"x": 1.4504928072,
				"y": -1.2334512077,
				"z": -1.7038423381,
				"element": "C" 
			},
			{
				"x": 1.0993572666,
				"y": -0.0782645515,
				"z": -2.3185384585,
				"element": "C" 
			},
			{
				"x": 0.0233507034,
				"y": 0.8050738248,
				"z": -1.9645351753,
				"element": "C" 
			},
			{
				"x": -1.1252388117,
				"y": 0.4613288417,
				"z": -1.2995920165,
				"element": "C" 
			},
			{
				"x": -1.4540502359,
				"y": -0.8786305862,
				"z": -0.852559216,
				"element": "C" 
			},
			{
				"x": -0.5888159478,
				"y": -1.8670961027,
				"z": -0.5377914503,
				"element": "C" 
			},
			{
				"x": -2.1489430817,
				"y": 1.5411682933,
				"z": -1.1837447268,
				"element": "C" 
			},
			{
				"x": -3.3059527002,
				"y": 1.1172153243,
				"z": -0.6107101532,
				"element": "O" 
			},
			{
				"x": -2.0050005351,
				"y": 2.694525838,
				"z": -1.5431304653,
				"element": "O" 
			},
			{
				"x": 0.8806101256,
				"y": -1.1488001583,
				"z": 1.7262016384,
				"element": "H" 
			},
			{
				"x": 2.3677838258,
				"y": -0.6823449262,
				"z": 0.8737854825,
				"element": "H" 
			},
			{
				"x": 0.8714086003,
				"y": 0.2292567314,
				"z": 0.6131619262,
				"element": "H" 
			},
			{
				"x": 1.290345022,
				"y": -3.8371302272,
				"z": -0.8643847645,
				"element": "H" 
			},
			{
				"x": 2.6116578265,
				"y": -3.0563617528,
				"z": 0.0232730388,
				"element": "H" 
			},
			{
				"x": 1.1272254201,
				"y": -3.516860008,
				"z": 0.8709986675,
				"element": "H" 
			},
			{
				"x": 2.2144955259,
				"y": -1.846307814,
				"z": -2.1818522094,
				"element": "H" 
			},
			{
				"x": 1.6744302701,
				"y": 0.215072215,
				"z": -3.1957439786,
				"element": "H" 
			},
			{
				"x": 0.0609455924,
				"y": 1.8204228772,
				"z": -2.3511232059,
				"element": "H" 
			},
			{
				"x": -2.5148309778,
				"y": -1.1078300475,
				"z": -0.8051109543,
				"element": "H" 
			},
			{
				"x": -1.005690224,
				"y": -2.856542762,
				"z": -0.353090027,
				"element": "H" 
			},
			{
				"x": -3.8865501987,
				"y": 1.8956872586,
				"z": -0.5953969301,
				"element": "H" 
			}
		],
		 "valence_orbital": [ 
			{
				"type": "occ",
				"energy": -0.32181,
				"method": "rhf"
			},
			{
				"type": "occ",
				"energy": -0.30862,
				"method": "rhf"
			},
			{
				"type": "occ",
				"energy": -0.27283,
				"method": "rhf"
			},
			{
				"type": "occ",
				"energy": -0.26166,
				"method": "rhf"
			},
			{
				"type": "occ",
				"energy": -0.22496,
				"method": "rhf"
			},
			{
				"type": "unocc",
				"energy": -0.06289,
				"method": "rhf"
			},
			{
				"type": "unocc",
				"energy": 0.00733,
				"method": "rhf"
			},
			{
				"type": "unocc",
				"energy": 0.03667,
				"method": "rhf"
			},
			{
				"type": "unocc",
				"energy": 0.08016,
				"method": "rhf"
			},
			{
				"type": "unocc",
				"energy": 0.09121,
				"method": "rhf"
			}
		],
		"cosmo_sigma_profile": { 
			"-0.025": 0.0,
			"-0.024": 0.0,
			"-0.023": 0.0,
			"-0.022": 0.0,
			"-0.021": 0.0,
			"-0.02": 0.0,
			"-0.019": 0.0,
			"-0.018": 0.431910481627,
			"-0.017": 0.827264200902,
			"-0.016": 1.06886289997,
			"-0.015": 1.03209895878,
			"-0.014": 0.59401025224,
			"-0.013": 0.3568894493,
			"-0.012": 0.45553320594,
			"-0.011": 0.782513951925,
			"-0.01": 1.2167401737,
			"-0.009": 0.367181674615,
			"-0.008": 0.692333391604,
			"-0.007": 0.960764786759,
			"-0.006": 3.38795575054,
			"-0.005": 9.90555869248,
			"-0.004": 11.9186582755,
			"-0.003": 23.8459869083,
			"-0.002": 21.9260438218,
			"-0.001": 22.3560374519,
			"0.0": 19.2438213982,
			"0.001": 23.8653631189,
			"0.002": 12.8400122747,
			"0.003": 10.5397080513,
			"0.004": 9.01440883588,
			"0.005": 7.77719270386,
			"0.006": 4.68975123206,
			"0.007": 3.55221420182,
			"0.008": 2.13233272573,
			"0.009": 2.20163638087,
			"0.01": 2.01064931137,
			"0.011": 2.25147231377,
			"0.012": 5.29226610842,
			"0.013": 0.766286681399,
			"0.014": 0.0,
			"0.015": 0.0,
			"0.016": 0.0,
			"0.017": 0.0,
			"0.018": 0.0,
			"0.019": 0.0,
			"0.02": 0.0,
			"0.021": 0.0,
			"0.022": 0.0,
			"0.023": 0.0,
			"0.024": 0.0,
			"0.025": 0.0
		}
	}
}
