{
	 "smiles": "OC(=O)CCCC1=CC2=C(NC(=O)N2)C=C1", 
	 "Tm": 518.15, 
	 "num_atms": 28, 
	 "gaussian": { 
		 "optdone": 1, 
		 "sigma_profile": "yes", 
		 "theory": "DFT", 
		 "functional": "B3LYP", 
		 "basiset": "6-31G**", 
		 "properties": { 
			 "R2extent": 4317.1844, 
			 "electric_dipole_moment_norm": 4.21076908533, 
			 "electric_quadrupole_moment_norm": 20.451405618, 
			 "total_energy": -761.635489607, 
			 "HOMO_LUMO_gap": 0.19867, 
			 "cosmo_polarized_energy": -20.35, 
			 "cosmo_cavitation_energy": 32.12, 
			 "cosmo_dispersion_energy": -22.36, 
			 "cosmo_repulsion_energy": 1.76, 
			 "cosmo_total_nonelectrostatic_energy": 11.52, 
			 "SMD_solvation_energy": 6.51 
		},
		"coords": [
			{
				"x": 2.091774769,
				"y": 1.0035110678,
				"z": -1.3917711476,
				"element": "O" 
			},
			{
				"x": 0.8877717594,
				"y": 1.1270230261,
				"z": -2.0008544638,
				"element": "C" 
			},
			{
				"x": 0.5261194422,
				"y": 0.3790098514,
				"z": -2.8837645322,
				"element": "O" 
			},
			{
				"x": 0.1104060835,
				"y": 2.3186661729,
				"z": -1.4822494499,
				"element": "C" 
			},
			{
				"x": -0.0707169717,
				"y": 2.4014114519,
				"z": 0.0457342509,
				"element": "C" 
			},
			{
				"x": -1.0336376533,
				"y": 1.3576471057,
				"z": 0.6566872273,
				"element": "C" 
			},
			{
				"x": -0.5025295296,
				"y": -0.0618627157,
				"z": 0.7235013434,
				"element": "C" 
			},
			{
				"x": -0.8572297306,
				"y": -1.0068996862,
				"z": -0.2543069434,
				"element": "C" 
			},
			{
				"x": -0.3273994971,
				"y": -2.2869060882,
				"z": -0.1625231962,
				"element": "C" 
			},
			{
				"x": 0.5333619717,
				"y": -2.6513946702,
				"z": 0.893344668,
				"element": "C" 
			},
			{
				"x": 0.8672959265,
				"y": -3.9865075957,
				"z": 0.68922818,
				"element": "N" 
			},
			{
				"x": 0.2579659379,
				"y": -4.4936362644,
				"z": -0.4610693039,
				"element": "C" 
			},
			{
				"x": 0.3509342791,
				"y": -5.6162647477,
				"z": -0.9225128366,
				"element": "O" 
			},
			{
				"x": -0.4796939118,
				"y": -3.417642633,
				"z": -0.9575677786,
				"element": "N" 
			},
			{
				"x": 0.883780536,
				"y": -1.7311495764,
				"z": 1.872631753,
				"element": "C" 
			},
			{
				"x": 0.3551815984,
				"y": -0.439388007,
				"z": 1.7698077031,
				"element": "C" 
			},
			{
				"x": 2.5107844347,
				"y": 0.2181001563,
				"z": -1.7815755002,
				"element": "H" 
			},
			{
				"x": 0.6559897978,
				"y": 3.2109645567,
				"z": -1.8156523748,
				"element": "H" 
			},
			{
				"x": -0.8553871731,
				"y": 2.3166069436,
				"z": -1.9946171748,
				"element": "H" 
			},
			{
				"x": 0.9082750963,
				"y": 2.3319370132,
				"z": 0.5314534879,
				"element": "H" 
			},
			{
				"x": -0.4655094835,
				"y": 3.3990694075,
				"z": 0.2723100279,
				"element": "H" 
			},
			{
				"x": -1.2790870042,
				"y": 1.6888702943,
				"z": 1.672978594,
				"element": "H" 
			},
			{
				"x": -1.9760901146,
				"y": 1.3727733292,
				"z": 0.094905314,
				"element": "H" 
			},
			{
				"x": -1.512268042,
				"y": -0.7353817485,
				"z": -1.0759428253,
				"element": "H" 
			},
			{
				"x": 1.462618361,
				"y": -4.5603363721,
				"z": 1.2638070486,
				"element": "H" 
			},
			{
				"x": -0.9954689005,
				"y": -3.4855319753,
				"z": -1.8200094128,
				"element": "H" 
			},
			{
				"x": 1.5403198929,
				"y": -2.0023802805,
				"z": 2.6935465701,
				"element": "H" 
			},
			{
				"x": 0.6146381259,
				"y": 0.2939919843,
				"z": 2.5286807719,
				"element": "H" 
			}
		],
		 "valence_orbital": [ 
			{
				"type": "occ",
				"energy": -0.29605,
				"method": "rhf"
			},
			{
				"type": "occ",
				"energy": -0.27054,
				"method": "rhf"
			},
			{
				"type": "occ",
				"energy": -0.26498,
				"method": "rhf"
			},
			{
				"type": "occ",
				"energy": -0.23664,
				"method": "rhf"
			},
			{
				"type": "occ",
				"energy": -0.20425,
				"method": "rhf"
			},
			{
				"type": "unocc",
				"energy": -0.00558,
				"method": "rhf"
			},
			{
				"type": "unocc",
				"energy": 0.00061,
				"method": "rhf"
			},
			{
				"type": "unocc",
				"energy": 0.02004,
				"method": "rhf"
			},
			{
				"type": "unocc",
				"energy": 0.07122,
				"method": "rhf"
			},
			{
				"type": "unocc",
				"energy": 0.07531,
				"method": "rhf"
			}
		],
		"cosmo_sigma_profile": { 
			"-0.025": 0.0,
			"-0.024": 0.0,
			"-0.023": 0.0,
			"-0.022": 0.0,
			"-0.021": 0.0,
			"-0.02": 0.0,
			"-0.019": 0.0,
			"-0.018": 0.443079608802,
			"-0.017": 0.855606833285,
			"-0.016": 2.18060625036,
			"-0.015": 3.91992321999,
			"-0.014": 2.88612281222,
			"-0.013": 2.56304985813,
			"-0.012": 2.6835478958,
			"-0.011": 2.17923554507,
			"-0.01": 2.78417224742,
			"-0.009": 3.06788304368,
			"-0.008": 2.04416057888,
			"-0.007": 4.10002313673,
			"-0.006": 9.32675734674,
			"-0.005": 11.1164024394,
			"-0.004": 18.7250110523,
			"-0.003": 21.259734148,
			"-0.002": 21.4915772497,
			"-0.001": 16.4061605477,
			"0.0": 16.3167771925,
			"0.001": 13.9246080687,
			"0.002": 14.6055758706,
			"0.003": 11.8000702832,
			"0.004": 9.48270319834,
			"0.005": 10.9618100367,
			"0.006": 8.55898913004,
			"0.007": 4.57682818306,
			"0.008": 4.51178673129,
			"0.009": 4.71020865474,
			"0.01": 2.32890304838,
			"0.011": 2.8255248521,
			"0.012": 7.10301392501,
			"0.013": 5.8676984934,
			"0.014": 6.90322093741,
			"0.015": 0.751574099397,
			"0.016": 0.0,
			"0.017": 0.0,
			"0.018": 0.0,
			"0.019": 0.0,
			"0.02": 0.0,
			"0.021": 0.0,
			"0.022": 0.0,
			"0.023": 0.0,
			"0.024": 0.0,
			"0.025": 0.0
		}
	}
}
