{
	 "smiles": "ClC(=O)C1=C(Cl)C=CS1", 
	 "Tm": 318.65, 
	 "num_atms": 11, 
	 "gaussian": { 
		 "optdone": 1, 
		 "sigma_profile": "yes", 
		 "theory": "DFT", 
		 "functional": "B3LYP", 
		 "basiset": "6-31G**", 
		 "properties": { 
			 "R2extent": 2074.2757, 
			 "electric_dipole_moment_norm": 4.7341968548, 
			 "electric_quadrupole_moment_norm": 5.52254270423, 
			 "total_energy": -1585.51550886, 
			 "HOMO_LUMO_gap": 0.17871, 
			 "cosmo_polarized_energy": -7.37, 
			 "cosmo_cavitation_energy": 21.07, 
			 "cosmo_dispersion_energy": -16.51, 
			 "cosmo_repulsion_energy": 1.31, 
			 "cosmo_total_nonelectrostatic_energy": 5.87, 
			 "SMD_solvation_energy": 4.09 
		},
		"coords": [
			{
				"x": -2.5336056269,
				"y": 1.5172089512,
				"z": 0.9176728806,
				"element": "Cl" 
			},
			{
				"x": -1.1909023793,
				"y": 1.205542148,
				"z": -0.3003374992,
				"element": "C" 
			},
			{
				"x": -1.4161054192,
				"y": 1.3269673538,
				"z": -1.4659732667,
				"element": "O" 
			},
			{
				"x": 0.0692470404,
				"y": 0.8242423759,
				"z": 0.3227385361,
				"element": "C" 
			},
			{
				"x": 1.2606995686,
				"y": 0.5266883939,
				"z": -0.3288571973,
				"element": "C" 
			},
			{
				"x": 1.4952969382,
				"y": 0.5488658638,
				"z": -2.0414415438,
				"element": "Cl" 
			},
			{
				"x": 2.3210673279,
				"y": 0.187311597,
				"z": 0.5514525402,
				"element": "C" 
			},
			{
				"x": 1.9271422592,
				"y": 0.2299255063,
				"z": 1.8631327125,
				"element": "C" 
			},
			{
				"x": 0.2767439361,
				"y": 0.6786180708,
				"z": 2.0531330042,
				"element": "S" 
			},
			{
				"x": 3.3159885687,
				"y": -0.0717239444,
				"z": 0.2129015534,
				"element": "H" 
			},
			{
				"x": 2.5296277863,
				"y": 0.0181536837,
				"z": 2.7363782798,
				"element": "H" 
			}
		],
		 "valence_orbital": [ 
			{
				"type": "occ",
				"energy": -0.32305,
				"method": "rhf"
			},
			{
				"type": "occ",
				"energy": -0.32223,
				"method": "rhf"
			},
			{
				"type": "occ",
				"energy": -0.29486,
				"method": "rhf"
			},
			{
				"type": "occ",
				"energy": -0.28176,
				"method": "rhf"
			},
			{
				"type": "occ",
				"energy": -0.26988,
				"method": "rhf"
			},
			{
				"type": "unocc",
				"energy": -0.09117,
				"method": "rhf"
			},
			{
				"type": "unocc",
				"energy": -0.02124,
				"method": "rhf"
			},
			{
				"type": "unocc",
				"energy": -0.00335,
				"method": "rhf"
			},
			{
				"type": "unocc",
				"energy": 0.02265,
				"method": "rhf"
			},
			{
				"type": "unocc",
				"energy": 0.03222,
				"method": "rhf"
			}
		],
		"cosmo_sigma_profile": { 
			"-0.025": 0.0,
			"-0.024": 0.0,
			"-0.023": 0.0,
			"-0.022": 0.0,
			"-0.021": 0.0,
			"-0.02": 0.0,
			"-0.019": 0.0,
			"-0.018": 0.0,
			"-0.017": 0.0,
			"-0.016": 0.0,
			"-0.015": 0.0,
			"-0.014": 0.0,
			"-0.013": 0.0,
			"-0.012": 0.0,
			"-0.011": 1.62933728033,
			"-0.01": 2.86366919468,
			"-0.009": 3.24317658175,
			"-0.008": 4.29165233718,
			"-0.007": 3.49617299711,
			"-0.006": 4.01870991744,
			"-0.005": 3.71732124402,
			"-0.004": 8.01823465991,
			"-0.003": 8.96717815423,
			"-0.002": 13.2172859785,
			"-0.001": 20.8051615451,
			"0.0": 19.0272865946,
			"0.001": 20.910630645,
			"0.002": 17.5845190749,
			"0.003": 13.6990347278,
			"0.004": 11.0273201023,
			"0.005": 5.96820092569,
			"0.006": 2.59497560659,
			"0.007": 3.37305557378,
			"0.008": 4.78415640453,
			"0.009": 3.73083243809,
			"0.01": 0.127286131462,
			"0.011": 0.0,
			"0.012": 0.0,
			"0.013": 0.0,
			"0.014": 0.0,
			"0.015": 0.0,
			"0.016": 0.0,
			"0.017": 0.0,
			"0.018": 0.0,
			"0.019": 0.0,
			"0.02": 0.0,
			"0.021": 0.0,
			"0.022": 0.0,
			"0.023": 0.0,
			"0.024": 0.0,
			"0.025": 0.0
		}
	}
}
