{
	 "smiles": "CC(C)CC(O)=O", 
	 "Tm": 242.05, 
	 "num_atms": 17, 
	 "gaussian": { 
		 "optdone": 1, 
		 "sigma_profile": "yes", 
		 "theory": "DFT", 
		 "functional": "B3LYP", 
		 "basiset": "6-31G**", 
		 "properties": { 
			 "R2extent": 1639.857, 
			 "electric_dipole_moment_norm": 3.97704040462, 
			 "electric_quadrupole_moment_norm": 15.0519066008, 
			 "total_energy": -347.027359545, 
			 "HOMO_LUMO_gap": 0.28105, 
			 "cosmo_polarized_energy": -12.89, 
			 "cosmo_cavitation_energy": 19.79, 
			 "cosmo_dispersion_energy": -14.37, 
			 "cosmo_repulsion_energy": 1.23, 
			 "cosmo_total_nonelectrostatic_energy": 6.65, 
			 "SMD_solvation_energy": 4.72 
		},
		"coords": [
			{
				"x": -0.1954124718,
				"y": 0.407857655,
				"z": -0.7966087513,
				"element": "C" 
			},
			{
				"x": 0.349097324,
				"y": -0.5736030846,
				"z": 0.2504262066,
				"element": "C" 
			},
			{
				"x": -0.2480915919,
				"y": -0.2970023584,
				"z": 1.6375113746,
				"element": "C" 
			},
			{
				"x": 0.0964818273,
				"y": -2.0239954919,
				"z": -0.1916946056,
				"element": "C" 
			},
			{
				"x": 0.8675780688,
				"y": -3.0639897104,
				"z": 0.6139329408,
				"element": "C" 
			},
			{
				"x": 0.5190102889,
				"y": -4.3587112025,
				"z": 0.3726003124,
				"element": "O" 
			},
			{
				"x": 1.7491861412,
				"y": -2.8189007054,
				"z": 1.3989758812,
				"element": "O" 
			},
			{
				"x": -1.2814227044,
				"y": 0.3033184957,
				"z": -0.9120749333,
				"element": "H" 
			},
			{
				"x": 0.261894063,
				"y": 0.2467100116,
				"z": -1.7793719366,
				"element": "H" 
			},
			{
				"x": 0.0052555987,
				"y": 1.4426208846,
				"z": -0.5008090248,
				"element": "H" 
			},
			{
				"x": 1.4364153423,
				"y": -0.4478116419,
				"z": 0.3195553591,
				"element": "H" 
			},
			{
				"x": -0.0338363234,
				"y": 0.7292167567,
				"z": 1.9535248011,
				"element": "H" 
			},
			{
				"x": -1.3388977726,
				"y": -0.4184572354,
				"z": 1.62641478,
				"element": "H" 
			},
			{
				"x": 0.1689219516,
				"y": -0.9735772528,
				"z": 2.3873114606,
				"element": "H" 
			},
			{
				"x": -0.9779201113,
				"y": -2.2557094141,
				"z": -0.1428501808,
				"element": "H" 
			},
			{
				"x": 0.3872585389,
				"y": -2.1559476008,
				"z": -1.2443143737,
				"element": "H" 
			},
			{
				"x": -0.2000181696,
				"y": -4.3947181056,
				"z": -0.2741293104,
				"element": "H" 
			}
		],
		 "valence_orbital": [ 
			{
				"type": "occ",
				"energy": -0.3381,
				"method": "rhf"
			},
			{
				"type": "occ",
				"energy": -0.3367,
				"method": "rhf"
			},
			{
				"type": "occ",
				"energy": -0.33115,
				"method": "rhf"
			},
			{
				"type": "occ",
				"energy": -0.31398,
				"method": "rhf"
			},
			{
				"type": "occ",
				"energy": -0.27056,
				"method": "rhf"
			},
			{
				"type": "unocc",
				"energy": 0.01049,
				"method": "rhf"
			},
			{
				"type": "unocc",
				"energy": 0.05499,
				"method": "rhf"
			},
			{
				"type": "unocc",
				"energy": 0.08131,
				"method": "rhf"
			},
			{
				"type": "unocc",
				"energy": 0.12476,
				"method": "rhf"
			},
			{
				"type": "unocc",
				"energy": 0.13778,
				"method": "rhf"
			}
		],
		"cosmo_sigma_profile": { 
			"-0.025": 0.0,
			"-0.024": 0.0,
			"-0.023": 0.0,
			"-0.022": 0.0,
			"-0.021": 0.0,
			"-0.02": 0.0,
			"-0.019": 0.340955106113,
			"-0.018": 1.13712334932,
			"-0.017": 1.12492428461,
			"-0.016": 0.812996012755,
			"-0.015": 1.27726930188,
			"-0.014": 0.725181017847,
			"-0.013": 0.826968928654,
			"-0.012": 1.36255435572,
			"-0.011": 1.36297598743,
			"-0.01": 0.830934442736,
			"-0.009": 1.37512377624,
			"-0.008": 1.79996323896,
			"-0.007": 3.06906902334,
			"-0.006": 3.12751503367,
			"-0.005": 4.45555429823,
			"-0.004": 5.4261841172,
			"-0.003": 13.5959889818,
			"-0.002": 17.9564324223,
			"-0.001": 16.9340931619,
			"0.0": 15.6366462356,
			"0.001": 16.5469855392,
			"0.002": 8.39895527876,
			"0.003": 2.41088987644,
			"0.004": 1.87464632405,
			"0.005": 2.43581344995,
			"0.006": 2.52149101155,
			"0.007": 2.76703098943,
			"0.008": 2.79711758474,
			"0.009": 2.6827201331,
			"0.01": 4.49330204507,
			"0.011": 5.36138234269,
			"0.012": 5.3689381813,
			"0.013": 2.34058607439,
			"0.014": 0.207726574903,
			"0.015": 0.0,
			"0.016": 0.0,
			"0.017": 0.0,
			"0.018": 0.0,
			"0.019": 0.0,
			"0.02": 0.0,
			"0.021": 0.0,
			"0.022": 0.0,
			"0.023": 0.0,
			"0.024": 0.0,
			"0.025": 0.0
		}
	}
}
