{
	 "smiles": "C[Si](C)(C)N=C=O", 
	 "Tm": 224.15, 
	 "num_atms": 16, 
	 "gaussian": { 
		 "optdone": 1, 
		 "sigma_profile": "yes", 
		 "theory": "DFT", 
		 "functional": "B3LYP", 
		 "basiset": "6-31G**", 
		 "properties": { 
			 "R2extent": 1329.7033, 
			 "electric_dipole_moment_norm": 3.16412388822, 
			 "electric_quadrupole_moment_norm": 9.15727442146, 
			 "total_energy": -577.407196179, 
			 "HOMO_LUMO_gap": 0.32766, 
			 "cosmo_polarized_energy": -3.98, 
			 "cosmo_cavitation_energy": 22.0, 
			 "cosmo_dispersion_energy": -13.13, 
			 "cosmo_repulsion_energy": 1.26, 
			 "cosmo_total_nonelectrostatic_energy": 10.14, 
			 "SMD_solvation_energy": 8.65 
		},
		"coords": [
			{
				"x": 0.7442605066,
				"y": -2.2196485761,
				"z": 0.9005951344,
				"element": "C" 
			},
			{
				"x": 0.4855838167,
				"y": -0.8616651678,
				"z": -0.3752599968,
				"element": "Si" 
			},
			{
				"x": 1.0384242765,
				"y": -1.4218107436,
				"z": -2.0838521004,
				"element": "C" 
			},
			{
				"x": 1.361084948,
				"y": 0.7232385755,
				"z": 0.1350868573,
				"element": "C" 
			},
			{
				"x": -1.220890621,
				"y": -0.524184429,
				"z": -0.45296486,
				"element": "N" 
			},
			{
				"x": -2.3951471348,
				"y": -0.2911032176,
				"z": -0.5031517487,
				"element": "C" 
			},
			{
				"x": -3.553765601,
				"y": -0.0616292983,
				"z": -0.5527732207,
				"element": "O" 
			},
			{
				"x": 0.4018963204,
				"y": -1.9053768764,
				"z": 1.891918433,
				"element": "H" 
			},
			{
				"x": 0.1989578411,
				"y": -3.1297556132,
				"z": 0.6303735854,
				"element": "H" 
			},
			{
				"x": 1.8063367711,
				"y": -2.4787403846,
				"z": 0.9811721939,
				"element": "H" 
			},
			{
				"x": 0.8577410761,
				"y": -0.6461057068,
				"z": -2.8350935437,
				"element": "H" 
			},
			{
				"x": 0.5049775263,
				"y": -2.3244472282,
				"z": -2.3991448795,
				"element": "H" 
			},
			{
				"x": 2.1107836922,
				"y": -1.6487172691,
				"z": -2.0896882286,
				"element": "H" 
			},
			{
				"x": 2.4447905941,
				"y": 0.5673780495,
				"z": 0.1891263939,
				"element": "H" 
			},
			{
				"x": 1.1759223076,
				"y": 1.5296125907,
				"z": -0.5819603934,
				"element": "H" 
			},
			{
				"x": 1.0242436801,
				"y": 1.0654552949,
				"z": 1.1190163739,
				"element": "H" 
			}
		],
		 "valence_orbital": [ 
			{
				"type": "occ",
				"energy": -0.38887,
				"method": "rhf"
			},
			{
				"type": "occ",
				"energy": -0.32548,
				"method": "rhf"
			},
			{
				"type": "occ",
				"energy": -0.32544,
				"method": "rhf"
			},
			{
				"type": "occ",
				"energy": -0.27974,
				"method": "rhf"
			},
			{
				"type": "occ",
				"energy": -0.27972,
				"method": "rhf"
			},
			{
				"type": "unocc",
				"energy": 0.04794,
				"method": "rhf"
			},
			{
				"type": "unocc",
				"energy": 0.048,
				"method": "rhf"
			},
			{
				"type": "unocc",
				"energy": 0.06798,
				"method": "rhf"
			},
			{
				"type": "unocc",
				"energy": 0.07588,
				"method": "rhf"
			},
			{
				"type": "unocc",
				"energy": 0.11178,
				"method": "rhf"
			}
		],
		"cosmo_sigma_profile": { 
			"-0.025": 0.0,
			"-0.024": 0.0,
			"-0.023": 0.0,
			"-0.022": 0.0,
			"-0.021": 0.0,
			"-0.02": 0.0,
			"-0.019": 0.0,
			"-0.018": 0.0,
			"-0.017": 0.0,
			"-0.016": 0.0,
			"-0.015": 0.0,
			"-0.014": 0.0,
			"-0.013": 0.0,
			"-0.012": 0.0,
			"-0.011": 0.0,
			"-0.01": 0.0,
			"-0.009": 0.0,
			"-0.008": 0.0,
			"-0.007": 0.0,
			"-0.006": 0.0,
			"-0.005": 1.72866710533,
			"-0.004": 16.1251808368,
			"-0.003": 19.5146117449,
			"-0.002": 21.3302287324,
			"-0.001": 25.5621245829,
			"0.0": 24.140642379,
			"0.001": 27.6830202761,
			"0.002": 12.9633087408,
			"0.003": 2.31553953582,
			"0.004": 2.38554453697,
			"0.005": 1.0602560674,
			"0.006": 2.1962317708,
			"0.007": 1.98890836925,
			"0.008": 4.86431789069,
			"0.009": 6.72971463489,
			"0.01": 0.0,
			"0.011": 0.0,
			"0.012": 0.0,
			"0.013": 0.0,
			"0.014": 0.0,
			"0.015": 0.0,
			"0.016": 0.0,
			"0.017": 0.0,
			"0.018": 0.0,
			"0.019": 0.0,
			"0.02": 0.0,
			"0.021": 0.0,
			"0.022": 0.0,
			"0.023": 0.0,
			"0.024": 0.0,
			"0.025": 0.0
		}
	}
}
