{
	 "smiles": "C1CC=CC=C1", 
	 "Tm": 184.15, 
	 "num_atms": 14, 
	 "gaussian": { 
		 "optdone": 1, 
		 "sigma_profile": "yes", 
		 "theory": "DFT", 
		 "functional": "B3LYP", 
		 "basiset": "6-31G**", 
		 "properties": { 
			 "R2extent": 877.8899, 
			 "electric_dipole_moment_norm": 0.392768939709, 
			 "electric_quadrupole_moment_norm": 2.95975875875, 
			 "total_energy": -233.426134602, 
			 "HOMO_LUMO_gap": 0.18805, 
			 "cosmo_polarized_energy": -2.12, 
			 "cosmo_cavitation_energy": 16.31, 
			 "cosmo_dispersion_energy": -12.56, 
			 "cosmo_repulsion_energy": 1.09, 
			 "cosmo_total_nonelectrostatic_energy": 4.84, 
			 "SMD_solvation_energy": 2.65 
		},
		"coords": [
			{
				"x": 0.1098621313,
				"y": 2.3612484817,
				"z": -0.5004489653,
				"element": "C" 
			},
			{
				"x": 1.0003898593,
				"y": 1.1742685547,
				"z": -0.090604653,
				"element": "C" 
			},
			{
				"x": 0.3792164122,
				"y": -0.1527282269,
				"z": -0.4644251809,
				"element": "C" 
			},
			{
				"x": -0.4252409626,
				"y": -0.2487966806,
				"z": -1.5359992559,
				"element": "C" 
			},
			{
				"x": -0.7498195723,
				"y": 0.9362408799,
				"z": -2.3380903188,
				"element": "C" 
			},
			{
				"x": -0.4870603707,
				"y": 2.1701740665,
				"z": -1.8765501266,
				"element": "C" 
			},
			{
				"x": -0.7147335906,
				"y": 2.4715198383,
				"z": 0.2236011837,
				"element": "H" 
			},
			{
				"x": 0.6820944599,
				"y": 3.2941100327,
				"z": -0.4494498606,
				"element": "H" 
			},
			{
				"x": 1.211323192,
				"y": 1.2175343057,
				"z": 0.9836022939,
				"element": "H" 
			},
			{
				"x": 1.9779568765,
				"y": 1.2545682851,
				"z": -0.594875884,
				"element": "H" 
			},
			{
				"x": 0.647783835,
				"y": -1.0355219974,
				"z": 0.11079626,
				"element": "H" 
			},
			{
				"x": -0.8343242769,
				"y": -1.2096852877,
				"z": -1.8382576535,
				"element": "H" 
			},
			{
				"x": -1.2248314431,
				"y": 0.7953545855,
				"z": -3.3058355227,
				"element": "H" 
			},
			{
				"x": -0.7579165501,
				"y": 3.0501131625,
				"z": -2.4550623163,
				"element": "H" 
			}
		],
		 "valence_orbital": [ 
			{
				"type": "occ",
				"energy": -0.36431,
				"method": "rhf"
			},
			{
				"type": "occ",
				"energy": -0.32777,
				"method": "rhf"
			},
			{
				"type": "occ",
				"energy": -0.3127,
				"method": "rhf"
			},
			{
				"type": "occ",
				"energy": -0.29967,
				"method": "rhf"
			},
			{
				"type": "occ",
				"energy": -0.20594,
				"method": "rhf"
			},
			{
				"type": "unocc",
				"energy": -0.01789,
				"method": "rhf"
			},
			{
				"type": "unocc",
				"energy": 0.08647,
				"method": "rhf"
			},
			{
				"type": "unocc",
				"energy": 0.09796,
				"method": "rhf"
			},
			{
				"type": "unocc",
				"energy": 0.14004,
				"method": "rhf"
			},
			{
				"type": "unocc",
				"energy": 0.14124,
				"method": "rhf"
			}
		],
		"cosmo_sigma_profile": { 
			"-0.025": 0.0,
			"-0.024": 0.0,
			"-0.023": 0.0,
			"-0.022": 0.0,
			"-0.021": 0.0,
			"-0.02": 0.0,
			"-0.019": 0.0,
			"-0.018": 0.0,
			"-0.017": 0.0,
			"-0.016": 0.0,
			"-0.015": 0.0,
			"-0.014": 0.0,
			"-0.013": 0.0,
			"-0.012": 0.0,
			"-0.011": 0.0,
			"-0.01": 0.0,
			"-0.009": 0.0,
			"-0.008": 0.0,
			"-0.007": 0.0,
			"-0.006": 0.0,
			"-0.005": 3.65547648719,
			"-0.004": 9.39337724833,
			"-0.003": 16.0525820983,
			"-0.002": 20.5012345772,
			"-0.001": 17.7473508848,
			"0.0": 17.7782382228,
			"0.001": 8.01073766799,
			"0.002": 6.36413797417,
			"0.003": 6.51117929935,
			"0.004": 5.38348260826,
			"0.005": 5.77022401954,
			"0.006": 6.8096821531,
			"0.007": 4.19794719655,
			"0.008": 0.287971400403,
			"0.009": 0.0,
			"0.01": 0.0,
			"0.011": 0.0,
			"0.012": 0.0,
			"0.013": 0.0,
			"0.014": 0.0,
			"0.015": 0.0,
			"0.016": 0.0,
			"0.017": 0.0,
			"0.018": 0.0,
			"0.019": 0.0,
			"0.02": 0.0,
			"0.021": 0.0,
			"0.022": 0.0,
			"0.023": 0.0,
			"0.024": 0.0,
			"0.025": 0.0
		}
	}
}
