{
	 "smiles": "CCOC(=O)C=CC1=CC=C2C=CC(=O)NC2=C1", 
	 "Tm": 483.15, 
	 "num_atms": 31, 
	 "gaussian": { 
		 "optdone": 1, 
		 "sigma_profile": "yes", 
		 "theory": "DFT", 
		 "functional": "B3LYP", 
		 "basiset": "6-31G**", 
		 "properties": { 
			 "R2extent": 8311.3155, 
			 "electric_dipole_moment_norm": 2.00676810319, 
			 "electric_quadrupole_moment_norm": 29.9594241423, 
			 "total_energy": -821.777766061, 
			 "HOMO_LUMO_gap": 0.1398, 
			 "cosmo_polarized_energy": -18.05, 
			 "cosmo_cavitation_energy": 36.57, 
			 "cosmo_dispersion_energy": -26.62, 
			 "cosmo_repulsion_energy": 2.05, 
			 "cosmo_total_nonelectrostatic_energy": 12.0, 
			 "SMD_solvation_energy": 7.88 
		},
		"coords": [
			{
				"x": 5.5976483247,
				"y": -1.5978961943,
				"z": 0.7514964499,
				"element": "C" 
			},
			{
				"x": 4.9473304629,
				"y": -0.6070306718,
				"z": -0.1953079994,
				"element": "C" 
			},
			{
				"x": 3.5316922587,
				"y": -0.5944161615,
				"z": 0.0924274614,
				"element": "O" 
			},
			{
				"x": 2.7856314039,
				"y": 0.2433646576,
				"z": -0.6654641323,
				"element": "C" 
			},
			{
				"x": 3.2481443254,
				"y": 0.9527684199,
				"z": -1.5400764353,
				"element": "O" 
			},
			{
				"x": 1.3602227329,
				"y": 0.1669405606,
				"z": -0.278544954,
				"element": "C" 
			},
			{
				"x": 0.4492603305,
				"y": 0.9255872812,
				"z": -0.9141643951,
				"element": "C" 
			},
			{
				"x": -0.9927898815,
				"y": 0.9859523727,
				"z": -0.673384591,
				"element": "C" 
			},
			{
				"x": -1.7678659309,
				"y": 1.865330832,
				"z": -1.4649348113,
				"element": "C" 
			},
			{
				"x": -3.1357719823,
				"y": 1.9633650341,
				"z": -1.2805484243,
				"element": "C" 
			},
			{
				"x": -3.7914562729,
				"y": 1.1931191984,
				"z": -0.3035788813,
				"element": "C" 
			},
			{
				"x": -5.2108077999,
				"y": 1.2511443064,
				"z": -0.0648969306,
				"element": "C" 
			},
			{
				"x": -5.8043113639,
				"y": 0.4912741509,
				"z": 0.887370248,
				"element": "C" 
			},
			{
				"x": -5.0372660145,
				"y": -0.4315552334,
				"z": 1.7275007716,
				"element": "C" 
			},
			{
				"x": -5.5048425334,
				"y": -1.1475080158,
				"z": 2.6052952439,
				"element": "O" 
			},
			{
				"x": -3.6656503737,
				"y": -0.4455758298,
				"z": 1.4510172216,
				"element": "N" 
			},
			{
				"x": -3.0164850322,
				"y": 0.3090173457,
				"z": 0.4928214886,
				"element": "C" 
			},
			{
				"x": -1.6338739604,
				"y": 0.2132067345,
				"z": 0.303080805,
				"element": "C" 
			},
			{
				"x": 6.6753580011,
				"y": -1.6372323185,
				"z": 0.5650114744,
				"element": "H" 
			},
			{
				"x": 5.4394557349,
				"y": -1.3052565063,
				"z": 1.7935182841,
				"element": "H" 
			},
			{
				"x": 5.1872997676,
				"y": -2.601890074,
				"z": 0.6097810629,
				"element": "H" 
			},
			{
				"x": 5.0923039557,
				"y": -0.8836050081,
				"z": -1.2446739998,
				"element": "H" 
			},
			{
				"x": 5.3430600577,
				"y": 0.4057619742,
				"z": -0.06756497,
				"element": "H" 
			},
			{
				"x": 1.1111462225,
				"y": -0.5188804039,
				"z": 0.524554873,
				"element": "H" 
			},
			{
				"x": 0.8292118636,
				"y": 1.5731145803,
				"z": -1.7026318726,
				"element": "H" 
			},
			{
				"x": -1.2755576277,
				"y": 2.4663946655,
				"z": -2.2231979547,
				"element": "H" 
			},
			{
				"x": -3.722933543,
				"y": 2.6417776324,
				"z": -1.893370761,
				"element": "H" 
			},
			{
				"x": -5.8045548188,
				"y": 1.9281589765,
				"z": -0.6746598574,
				"element": "H" 
			},
			{
				"x": -6.8709156801,
				"y": 0.5262239824,
				"z": 1.0761702974,
				"element": "H" 
			},
			{
				"x": -3.1318728452,
				"y": -1.0824077571,
				"z": 2.0299592962,
				"element": "H" 
			},
			{
				"x": -1.0633097817,
				"y": -0.4703485308,
				"z": 0.924695992,
				"element": "H" 
			}
		],
		 "valence_orbital": [ 
			{
				"type": "occ",
				"energy": -0.28401,
				"method": "rhf"
			},
			{
				"type": "occ",
				"energy": -0.27286,
				"method": "rhf"
			},
			{
				"type": "occ",
				"energy": -0.25654,
				"method": "rhf"
			},
			{
				"type": "occ",
				"energy": -0.24577,
				"method": "rhf"
			},
			{
				"type": "occ",
				"energy": -0.22536,
				"method": "rhf"
			},
			{
				"type": "unocc",
				"energy": -0.08556,
				"method": "rhf"
			},
			{
				"type": "unocc",
				"energy": -0.03496,
				"method": "rhf"
			},
			{
				"type": "unocc",
				"energy": -0.01271,
				"method": "rhf"
			},
			{
				"type": "unocc",
				"energy": 0.01872,
				"method": "rhf"
			},
			{
				"type": "unocc",
				"energy": 0.07697,
				"method": "rhf"
			}
		],
		"cosmo_sigma_profile": { 
			"-0.025": 0.0,
			"-0.024": 0.0,
			"-0.023": 0.0,
			"-0.022": 0.0,
			"-0.021": 0.0,
			"-0.02": 0.0,
			"-0.019": 0.0,
			"-0.018": 0.0,
			"-0.017": 0.0,
			"-0.016": 0.0358955377679,
			"-0.015": 1.05165636889,
			"-0.014": 1.68644110552,
			"-0.013": 1.38776270472,
			"-0.012": 0.895319361947,
			"-0.011": 1.04283451539,
			"-0.01": 1.39063112043,
			"-0.009": 2.51861814222,
			"-0.008": 6.17774676794,
			"-0.007": 12.1595551252,
			"-0.006": 12.3131935485,
			"-0.005": 14.323026451,
			"-0.004": 20.3420363535,
			"-0.003": 19.5994608535,
			"-0.002": 24.0943422716,
			"-0.001": 23.5042654265,
			"0.0": 28.7644339279,
			"0.001": 27.2820956038,
			"0.002": 24.8170719665,
			"0.003": 17.2233001252,
			"0.004": 6.92016867135,
			"0.005": 3.60681288723,
			"0.006": 4.36353979046,
			"0.007": 3.520869322,
			"0.008": 3.33527848724,
			"0.009": 4.16654350682,
			"0.01": 2.28845204299,
			"0.011": 3.6442233178,
			"0.012": 6.36593315821,
			"0.013": 5.57213648736,
			"0.014": 5.76656545721,
			"0.015": 1.58392833517,
			"0.016": 0.0166392442203,
			"0.017": 0.0,
			"0.018": 0.0,
			"0.019": 0.0,
			"0.02": 0.0,
			"0.021": 0.0,
			"0.022": 0.0,
			"0.023": 0.0,
			"0.024": 0.0,
			"0.025": 0.0
		}
	}
}
