{
	 "smiles": "OC(=O)C1=CN(N=C1C1=CC=CS1)C1=CC=CC=C1", 
	 "Tm": 471.15, 
	 "num_atms": 29, 
	 "gaussian": { 
		 "optdone": 1, 
		 "sigma_profile": "yes", 
		 "theory": "DFT", 
		 "functional": "B3LYP", 
		 "basiset": "6-31G**", 
		 "properties": { 
			 "R2extent": 6651.9169, 
			 "electric_dipole_moment_norm": 5.77169692032, 
			 "electric_quadrupole_moment_norm": 18.596312913, 
			 "total_energy": -1197.62909927, 
			 "HOMO_LUMO_gap": 0.16019, 
			 "cosmo_polarized_energy": -20.13, 
			 "cosmo_cavitation_energy": 35.67, 
			 "cosmo_dispersion_energy": -26.58, 
			 "cosmo_repulsion_energy": 1.97, 
			 "cosmo_total_nonelectrostatic_energy": 11.05, 
			 "SMD_solvation_energy": 6.61 
		},
		"coords": [
			{
				"x": 0.9779376311,
				"y": 2.6829211284,
				"z": -1.8027670132,
				"element": "O" 
			},
			{
				"x": 0.1673074333,
				"y": 2.3389249784,
				"z": -0.7588120428,
				"element": "C" 
			},
			{
				"x": -0.4178101097,
				"y": 3.2037494569,
				"z": -0.1480509303,
				"element": "O" 
			},
			{
				"x": 0.0538609204,
				"y": 0.8939924019,
				"z": -0.4902185758,
				"element": "C" 
			},
			{
				"x": 0.2342769294,
				"y": -0.1131129693,
				"z": -1.4278257885,
				"element": "C" 
			},
			{
				"x": -0.0098739486,
				"y": -1.2911439455,
				"z": -0.8054808831,
				"element": "N" 
			},
			{
				"x": -0.3506490934,
				"y": -1.1136459311,
				"z": 0.4950754918,
				"element": "N" 
			},
			{
				"x": -0.3238585178,
				"y": 0.2057099399,
				"z": 0.7138762784,
				"element": "C" 
			},
			{
				"x": -0.5925662302,
				"y": 0.6719241905,
				"z": 2.0721277987,
				"element": "C" 
			},
			{
				"x": -0.5921293694,
				"y": -0.1473788375,
				"z": 3.1841152567,
				"element": "C" 
			},
			{
				"x": -0.9175453459,
				"y": 0.5298636251,
				"z": 4.3875722449,
				"element": "C" 
			},
			{
				"x": -1.165448628,
				"y": 1.8621450926,
				"z": 4.1830770993,
				"element": "C" 
			},
			{
				"x": -1.0053462439,
				"y": 2.3140966469,
				"z": 2.5226021699,
				"element": "S" 
			},
			{
				"x": 0.0064420202,
				"y": -2.5984983454,
				"z": -1.3663706496,
				"element": "C" 
			},
			{
				"x": -0.7473205091,
				"y": -3.6104605068,
				"z": -0.7632838659,
				"element": "C" 
			},
			{
				"x": -0.7396261987,
				"y": -4.8885990339,
				"z": -1.3176742632,
				"element": "C" 
			},
			{
				"x": 0.0045369363,
				"y": -5.1612269307,
				"z": -2.4678265174,
				"element": "C" 
			},
			{
				"x": 0.7571451929,
				"y": -4.1451799904,
				"z": -3.0588535299,
				"element": "C" 
			},
			{
				"x": 0.7696810038,
				"y": -2.8644058213,
				"z": -2.5080230779,
				"element": "C" 
			},
			{
				"x": 1.5326793296,
				"y": 1.929728742,
				"z": -2.0480637881,
				"element": "H" 
			},
			{
				"x": 0.4350128213,
				"y": -0.0610943756,
				"z": -2.4875439377,
				"element": "H" 
			},
			{
				"x": -0.3576152034,
				"y": -1.2023728786,
				"z": 3.116168836,
				"element": "H" 
			},
			{
				"x": -0.9593111463,
				"y": 0.05082244,
				"z": 5.3591414117,
				"element": "H" 
			},
			{
				"x": -1.4265348619,
				"y": 2.613057512,
				"z": 4.9166930926,
				"element": "H" 
			},
			{
				"x": -1.3223027923,
				"y": -3.3803746527,
				"z": 0.1250331088,
				"element": "H" 
			},
			{
				"x": -1.32577489,
				"y": -5.6737100335,
				"z": -0.8496621165,
				"element": "H" 
			},
			{
				"x": 0.0026565899,
				"y": -6.1584150009,
				"z": -2.8967784193,
				"element": "H" 
			},
			{
				"x": 1.3506015694,
				"y": -4.3491564404,
				"z": -3.9448875439,
				"element": "H" 
			},
			{
				"x": 1.3869747111,
				"y": -2.0902604609,
				"z": -2.9516598458,
				"element": "H" 
			}
		],
		 "valence_orbital": [ 
			{
				"type": "occ",
				"energy": -0.27293,
				"method": "rhf"
			},
			{
				"type": "occ",
				"energy": -0.27155,
				"method": "rhf"
			},
			{
				"type": "occ",
				"energy": -0.25343,
				"method": "rhf"
			},
			{
				"type": "occ",
				"energy": -0.24332,
				"method": "rhf"
			},
			{
				"type": "occ",
				"energy": -0.21136,
				"method": "rhf"
			},
			{
				"type": "unocc",
				"energy": -0.05117,
				"method": "rhf"
			},
			{
				"type": "unocc",
				"energy": -0.03783,
				"method": "rhf"
			},
			{
				"type": "unocc",
				"energy": -0.02166,
				"method": "rhf"
			},
			{
				"type": "unocc",
				"energy": 0.00378,
				"method": "rhf"
			},
			{
				"type": "unocc",
				"energy": 0.02893,
				"method": "rhf"
			}
		],
		"cosmo_sigma_profile": { 
			"-0.025": 0.0,
			"-0.024": 0.0,
			"-0.023": 0.0,
			"-0.022": 0.0,
			"-0.021": 0.0,
			"-0.02": 0.0,
			"-0.019": 0.27239596548,
			"-0.018": 1.10963874921,
			"-0.017": 1.11653898261,
			"-0.016": 1.2251235323,
			"-0.015": 1.04473597588,
			"-0.014": 1.40849750029,
			"-0.013": 1.1789385899,
			"-0.012": 2.23941554698,
			"-0.011": 2.54217314476,
			"-0.01": 2.09338679142,
			"-0.009": 2.69749108911,
			"-0.008": 4.81219088459,
			"-0.007": 7.27579557763,
			"-0.006": 15.2469292305,
			"-0.005": 18.0143052163,
			"-0.004": 17.2461386721,
			"-0.003": 15.5277802796,
			"-0.002": 14.8586659679,
			"-0.001": 17.5765654597,
			"0.0": 17.968168151,
			"0.001": 19.3704311511,
			"0.002": 19.265751562,
			"0.003": 23.6727248271,
			"0.004": 28.2269731988,
			"0.005": 17.2639550512,
			"0.006": 7.52719081344,
			"0.007": 4.45577457348,
			"0.008": 5.26237426079,
			"0.009": 4.82542271956,
			"0.01": 5.12408726711,
			"0.011": 4.95107539431,
			"0.012": 2.96063003327,
			"0.013": 1.29352576855,
			"0.014": 0.00261863006597,
			"0.015": 0.0,
			"0.016": 0.0,
			"0.017": 0.0,
			"0.018": 0.0,
			"0.019": 0.0,
			"0.02": 0.0,
			"0.021": 0.0,
			"0.022": 0.0,
			"0.023": 0.0,
			"0.024": 0.0,
			"0.0": 0.0
		}
	}
}
