{
	 "smiles": "CC1=C(C=O)C=NN1C1=CC=CC=C1", 
	 "Tm": 349.65, 
	 "num_atms": 24, 
	 "gaussian": { 
		 "optdone": 1, 
		 "sigma_profile": "yes", 
		 "theory": "DFT", 
		 "functional": "B3LYP", 
		 "basiset": "6-31G**", 
		 "properties": { 
			 "R2extent": 3720.5514, 
			 "electric_dipole_moment_norm": 5.48359375684, 
			 "electric_quadrupole_moment_norm": 18.1317679621, 
			 "total_energy": -609.899174241, 
			 "HOMO_LUMO_gap": 0.19524, 
			 "cosmo_polarized_energy": -12.92, 
			 "cosmo_cavitation_energy": 28.46, 
			 "cosmo_dispersion_energy": -20.45, 
			 "cosmo_repulsion_energy": 1.59, 
			 "cosmo_total_nonelectrostatic_energy": 9.6, 
			 "SMD_solvation_energy": 5.39 
		},
		"coords": [
			{
				"x": 0.4878038053,
				"y": -0.7451231103,
				"z": -1.6572097457,
				"element": "C" 
			},
			{
				"x": 1.4492267825,
				"y": -0.8969733743,
				"z": -0.5199878896,
				"element": "C" 
			},
			{
				"x": 2.8109655123,
				"y": -1.2102542691,
				"z": -0.5369286757,
				"element": "C" 
			},
			{
				"x": 3.652423529,
				"y": -1.5146889537,
				"z": -1.6864178248,
				"element": "C" 
			},
			{
				"x": 4.8414049479,
				"y": -1.7809144191,
				"z": -1.6153641262,
				"element": "O" 
			},
			{
				"x": 3.2170525394,
				"y": -1.1499455674,
				"z": 0.8232064001,
				"element": "C" 
			},
			{
				"x": 2.2178595627,
				"y": -0.8333446189,
				"z": 1.6232963565,
				"element": "N" 
			},
			{
				"x": 1.131939093,
				"y": -0.6908880052,
				"z": 0.7929851565,
				"element": "N" 
			},
			{
				"x": -0.1121399444,
				"y": -0.3057184467,
				"z": 1.3726867309,
				"element": "C" 
			},
			{
				"x": -0.1106049472,
				"y": 0.6611369478,
				"z": 2.3844653473,
				"element": "C" 
			},
			{
				"x": -1.315036419,
				"y": 1.043204634,
				"z": 2.9702791063,
				"element": "C" 
			},
			{
				"x": -2.5195936532,
				"y": 0.4732660522,
				"z": 2.5495622202,
				"element": "C" 
			},
			{
				"x": -2.5122923901,
				"y": -0.4973863982,
				"z": 1.5476463056,
				"element": "C" 
			},
			{
				"x": -1.310211754,
				"y": -0.8987667743,
				"z": 0.9629332846,
				"element": "C" 
			},
			{
				"x": 1.0317736871,
				"y": -0.5069152054,
				"z": -2.5737473377,
				"element": "H" 
			},
			{
				"x": -0.0803133675,
				"y": -1.6637687558,
				"z": -1.8431078597,
				"element": "H" 
			},
			{
				"x": -0.2311089692,
				"y": 0.0561795841,
				"z": -1.4671440576,
				"element": "H" 
			},
			{
				"x": 3.1390573852,
				"y": -1.492296303,
				"z": -2.6736197916,
				"element": "H" 
			},
			{
				"x": 4.2059815002,
				"y": -1.3311546308,
				"z": 1.2210084392,
				"element": "H" 
			},
			{
				"x": 0.8329074693,
				"y": 1.0892424248,
				"z": 2.7015053736,
				"element": "H" 
			},
			{
				"x": -1.3122403495,
				"y": 1.7933472397,
				"z": 3.7553690028,
				"element": "H" 
			},
			{
				"x": -3.4562906218,
				"y": 0.7782070573,
				"z": 3.0060791803,
				"element": "H" 
			},
			{
				"x": -3.4412683054,
				"y": -0.9597824433,
				"z": 1.2278737164,
				"element": "H" 
			},
			{
				"x": -1.3028950927,
				"y": -1.6846626644,
				"z": 0.2165306882,
				"element": "H" 
			}
		],
		 "valence_orbital": [ 
			{
				"type": "occ",
				"energy": -0.29304,
				"method": "rhf"
			},
			{
				"type": "occ",
				"energy": -0.2681,
				"method": "rhf"
			},
			{
				"type": "occ",
				"energy": -0.25593,
				"method": "rhf"
			},
			{
				"type": "occ",
				"energy": -0.24556,
				"method": "rhf"
			},
			{
				"type": "occ",
				"energy": -0.24161,
				"method": "rhf"
			},
			{
				"type": "unocc",
				"energy": -0.04637,
				"method": "rhf"
			},
			{
				"type": "unocc",
				"energy": -0.02069,
				"method": "rhf"
			},
			{
				"type": "unocc",
				"energy": -0.01885,
				"method": "rhf"
			},
			{
				"type": "unocc",
				"energy": 0.01944,
				"method": "rhf"
			},
			{
				"type": "unocc",
				"energy": 0.07242,
				"method": "rhf"
			}
		],
		"cosmo_sigma_profile": { 
			"-0.025": 0.0,
			"-0.024": 0.0,
			"-0.023": 0.0,
			"-0.022": 0.0,
			"-0.021": 0.0,
			"-0.02": 0.0,
			"-0.019": 0.0,
			"-0.018": 0.0,
			"-0.017": 0.0,
			"-0.016": 0.0,
			"-0.015": 0.0,
			"-0.014": 0.0,
			"-0.013": 0.0,
			"-0.012": 0.0,
			"-0.011": 0.0,
			"-0.01": 0.0,
			"-0.009": 0.0895578757161,
			"-0.008": 3.2097451151,
			"-0.007": 8.98960652787,
			"-0.006": 17.2419056325,
			"-0.005": 20.4945615176,
			"-0.004": 20.5214018502,
			"-0.003": 17.3833143827,
			"-0.002": 18.2052803139,
			"-0.001": 13.7670255605,
			"0.0": 13.1913487465,
			"0.001": 14.0705711265,
			"0.002": 15.5100481135,
			"0.003": 13.5305582954,
			"0.004": 15.5236399045,
			"0.005": 6.93475407338,
			"0.006": 3.568138936,
			"0.007": 2.15542962388,
			"0.008": 3.70394956406,
			"0.009": 2.50739536168,
			"0.01": 3.25011938466,
			"0.011": 4.5752987528,
			"0.012": 5.64118665036,
			"0.013": 3.11836071388,
			"0.014": 1.21475168504,
			"0.015": 0.0197765356712,
			"0.016": 0.0,
			"0.017": 0.0,
			"0.018": 0.0,
			"0.019": 0.0,
			"0.02": 0.0,
			"0.021": 0.0,
			"0.022": 0.0,
			"0.023": 0.0,
			"0.024": 0.0,
			"0.025": 0.0
		}
	}
}
