{
	 "smiles": "OC(=O)COCCN1C(=O)C2=CC=CC=C2C1=O", 
	 "Tm": 401.15, 
	 "num_atms": 29, 
	 "gaussian": { 
		 "optdone": 1, 
		 "sigma_profile": "yes", 
		 "theory": "DFT", 
		 "functional": "B3LYP", 
		 "basiset": "6-31G**", 
		 "properties": { 
			 "R2extent": 6067.5491, 
			 "electric_dipole_moment_norm": 5.82876878423, 
			 "electric_quadrupole_moment_norm": 30.2554444558, 
			 "total_energy": -894.806132729, 
			 "HOMO_LUMO_gap": 0.17022, 
			 "cosmo_polarized_energy": -19.5, 
			 "cosmo_cavitation_energy": 34.26, 
			 "cosmo_dispersion_energy": -24.08, 
			 "cosmo_repulsion_energy": 1.86, 
			 "cosmo_total_nonelectrostatic_energy": 12.05, 
			 "SMD_solvation_energy": 8.21 
		},
		"coords": [
			{
				"x": 3.9027729448,
				"y": -2.6007239911,
				"z": 1.0911757109,
				"element": "O" 
			},
			{
				"x": 3.1045999575,
				"y": -2.3021979216,
				"z": 2.1304702205,
				"element": "C" 
			},
			{
				"x": 3.5198462662,
				"y": -1.895637728,
				"z": 3.1869941035,
				"element": "O" 
			},
			{
				"x": 1.6128597319,
				"y": -2.5323253485,
				"z": 1.8799047033,
				"element": "C" 
			},
			{
				"x": 1.427716954,
				"y": -2.9394199281,
				"z": 0.5262261539,
				"element": "O" 
			},
			{
				"x": 0.2310579282,
				"y": -3.6498650434,
				"z": 0.2442675296,
				"element": "C" 
			},
			{
				"x": -1.0238057705,
				"y": -2.7682635868,
				"z": 0.2643378505,
				"element": "C" 
			},
			{
				"x": -0.939383201,
				"y": -1.6548484629,
				"z": -0.6632706504,
				"element": "N" 
			},
			{
				"x": -0.5516300926,
				"y": -0.3558884622,
				"z": -0.2968302425,
				"element": "C" 
			},
			{
				"x": -0.2825096746,
				"y": 0.0045321931,
				"z": 0.8333096385,
				"element": "O" 
			},
			{
				"x": -0.5672341851,
				"y": 0.4380152861,
				"z": -1.5601840908,
				"element": "C" 
			},
			{
				"x": -0.2764717692,
				"y": 1.7766340321,
				"z": -1.7781977578,
				"element": "C" 
			},
			{
				"x": -0.378523604,
				"y": 2.2517157475,
				"z": -3.0928599057,
				"element": "C" 
			},
			{
				"x": -0.7604348251,
				"y": 1.4044757894,
				"z": -4.1409253717,
				"element": "C" 
			},
			{
				"x": -1.0527993089,
				"y": 0.0533219881,
				"z": -3.9098904828,
				"element": "C" 
			},
			{
				"x": -0.9482742331,
				"y": -0.4074804335,
				"z": -2.6057321264,
				"element": "C" 
			},
			{
				"x": -1.1837531558,
				"y": -1.7693669585,
				"z": -2.0428529857,
				"element": "C" 
			},
			{
				"x": -1.5157719245,
				"y": -2.7940373029,
				"z": -2.6062049128,
				"element": "O" 
			},
			{
				"x": 3.3227697364,
				"y": -2.9091331647,
				"z": 0.3692657886,
				"element": "H" 
			},
			{
				"x": 1.2723381813,
				"y": -3.3101803305,
				"z": 2.5785560093,
				"element": "H" 
			},
			{
				"x": 1.0733611467,
				"y": -1.6037482122,
				"z": 2.0967093727,
				"element": "H" 
			},
			{
				"x": 0.0961591486,
				"y": -4.4787719287,
				"z": 0.9563298102,
				"element": "H" 
			},
			{
				"x": 0.3617661039,
				"y": -4.0716093741,
				"z": -0.7555907026,
				"element": "H" 
			},
			{
				"x": -1.8862961103,
				"y": -3.3828297123,
				"z": -0.0113541997,
				"element": "H" 
			},
			{
				"x": -1.196325546,
				"y": -2.346336719,
				"z": 1.2575074809,
				"element": "H" 
			},
			{
				"x": 0.0189845713,
				"y": 2.4238467518,
				"z": -0.9588678333,
				"element": "H" 
			},
			{
				"x": -0.1576598536,
				"y": 3.2935226175,
				"z": -3.3045674193,
				"element": "H" 
			},
			{
				"x": -0.829847993,
				"y": 1.8029705009,
				"z": -5.1485955817,
				"element": "H" 
			},
			{
				"x": -1.3493114234,
				"y": -0.6116702973,
				"z": -4.7145301092,
				"element": "H" 
			}
		],
		 "valence_orbital": [ 
			{
				"type": "occ",
				"energy": -0.29078,
				"method": "rhf"
			},
			{
				"type": "occ",
				"energy": -0.28562,
				"method": "rhf"
			},
			{
				"type": "occ",
				"energy": -0.27893,
				"method": "rhf"
			},
			{
				"type": "occ",
				"energy": -0.27445,
				"method": "rhf"
			},
			{
				"type": "occ",
				"energy": -0.26175,
				"method": "rhf"
			},
			{
				"type": "unocc",
				"energy": -0.09153,
				"method": "rhf"
			},
			{
				"type": "unocc",
				"energy": -0.04893,
				"method": "rhf"
			},
			{
				"type": "unocc",
				"energy": 0.01849,
				"method": "rhf"
			},
			{
				"type": "unocc",
				"energy": 0.01994,
				"method": "rhf"
			},
			{
				"type": "unocc",
				"energy": 0.05707,
				"method": "rhf"
			}
		],
		"cosmo_sigma_profile": { 
			"-0.025": 0.0,
			"-0.024": 0.0,
			"-0.023": 0.0,
			"-0.022": 0.0,
			"-0.021": 0.0,
			"-0.02": 0.0,
			"-0.019": 0.0,
			"-0.018": 0.0,
			"-0.017": 0.0,
			"-0.016": 0.0,
			"-0.015": 0.0,
			"-0.014": 0.279242414767,
			"-0.013": 0.434062051233,
			"-0.012": 0.291532616583,
			"-0.011": 1.23436843766,
			"-0.01": 0.458320483707,
			"-0.009": 0.709769033041,
			"-0.008": 6.17720529713,
			"-0.007": 18.1041781005,
			"-0.006": 22.1933529872,
			"-0.005": 21.7797901313,
			"-0.004": 20.8988486695,
			"-0.003": 21.8216671314,
			"-0.002": 15.7044205564,
			"-0.001": 16.6441621218,
			"0.0": 16.4112008346,
			"0.001": 17.8612798353,
			"0.002": 18.3561674086,
			"0.003": 9.64220840735,
			"0.004": 5.43304252007,
			"0.005": 4.66406047056,
			"0.006": 5.61005988254,
			"0.007": 4.52006315452,
			"0.008": 6.03114808056,
			"0.009": 6.64854165542,
			"0.01": 9.91489622051,
			"0.011": 11.7098130223,
			"0.012": 7.88461478172,
			"0.013": 2.17793540704,
			"0.014": 0.0719360836333,
			"0.015": 0.0,
			"0.016": 0.0,
			"0.017": 0.0,
			"0.018": 0.0,
			"0.019": 0.0,
			"0.02": 0.0,
			"0.021": 0.0,
			"0.022": 0.0,
			"0.023": 0.0,
			"0.024": 0.0,
			"0.025": 0.0
		}
	}
}
