{
	 "smiles": "ClC1=CC=C(C=C1)C(N1CCNCC1)C1=CC=C(Cl)C=C1", 
	 "Tm": 381.15, 
	 "num_atms": 39, 
	 "gaussian": { 
		 "optdone": 1, 
		 "sigma_profile": "yes", 
		 "theory": "DFT", 
		 "functional": "B3LYP", 
		 "basiset": "6-31G**", 
		 "properties": { 
			 "R2extent": 10299.4037, 
			 "electric_dipole_moment_norm": 1.59390556182, 
			 "electric_quadrupole_moment_norm": 13.5014531536, 
			 "total_energy": -1688.52388262, 
			 "HOMO_LUMO_gap": 0.1919, 
			 "cosmo_polarized_energy": -9.9, 
			 "cosmo_cavitation_energy": 43.4, 
			 "cosmo_dispersion_energy": -30.43, 
			 "cosmo_repulsion_energy": 2.34, 
			 "cosmo_total_nonelectrostatic_energy": 15.32, 
			 "SMD_solvation_energy": 2.9 
		},
		"coords": [
			{
				"x": 2.0244832948,
				"y": -5.9145088024,
				"z": -0.7357133052,
				"element": "Cl" 
			},
			{
				"x": 1.6969109899,
				"y": -4.195449474,
				"z": -0.5684903233,
				"element": "C" 
			},
			{
				"x": 1.6808540606,
				"y": -3.6180341803,
				"z": 0.6986300137,
				"element": "C" 
			},
			{
				"x": 1.4186590201,
				"y": -2.2517929461,
				"z": 0.8155354671,
				"element": "C" 
			},
			{
				"x": 1.171725612,
				"y": -1.4507776935,
				"z": -0.3069839477,
				"element": "C" 
			},
			{
				"x": 1.1878008472,
				"y": -2.0668970379,
				"z": -1.5685040912,
				"element": "C" 
			},
			{
				"x": 1.4488836366,
				"y": -3.4290312625,
				"z": -1.7076248971,
				"element": "C" 
			},
			{
				"x": 0.968725717,
				"y": 0.058420247,
				"z": -0.1343135859,
				"element": "C" 
			},
			{
				"x": 2.1679919542,
				"y": 0.8622230573,
				"z": -0.428565567,
				"element": "N" 
			},
			{
				"x": 2.7130069288,
				"y": 0.782604854,
				"z": -1.7840957387,
				"element": "C" 
			},
			{
				"x": 3.5977278067,
				"y": 2.0357479543,
				"z": -2.03741442,
				"element": "C" 
			},
			{
				"x": 4.1823731478,
				"y": 2.5978115422,
				"z": -0.8120984404,
				"element": "N" 
			},
			{
				"x": 4.481990053,
				"y": 1.5309305135,
				"z": 0.1386373153,
				"element": "C" 
			},
			{
				"x": 3.2239554318,
				"y": 0.7345144831,
				"z": 0.5824915879,
				"element": "C" 
			},
			{
				"x": -0.2690588976,
				"y": 0.6164903898,
				"z": -0.8494739,
				"element": "C" 
			},
			{
				"x": -1.397320854,
				"y": -0.1787694759,
				"z": -1.0910177808,
				"element": "C" 
			},
			{
				"x": -2.5527790956,
				"y": 0.3557930456,
				"z": -1.6625265803,
				"element": "C" 
			},
			{
				"x": -2.5831097511,
				"y": 1.7073704138,
				"z": -1.9983882308,
				"element": "C" 
			},
			{
				"x": -4.0311763105,
				"y": 2.3895229099,
				"z": -2.7280562317,
				"element": "Cl" 
			},
			{
				"x": -1.4805281729,
				"y": 2.526188949,
				"z": -1.7603317053,
				"element": "C" 
			},
			{
				"x": -0.3366859156,
				"y": 1.975987617,
				"z": -1.1835105377,
				"element": "C" 
			},
			{
				"x": 1.866393583,
				"y": -4.2255159491,
				"z": 1.577583619,
				"element": "H" 
			},
			{
				"x": 1.4000414685,
				"y": -1.8043070843,
				"z": 1.8061892862,
				"element": "H" 
			},
			{
				"x": 0.9752540476,
				"y": -1.482528748,
				"z": -2.4579996309,
				"element": "H" 
			},
			{
				"x": 1.455712985,
				"y": -3.8943293572,
				"z": -2.6872361583,
				"element": "H" 
			},
			{
				"x": 0.7928090275,
				"y": 0.2175448517,
				"z": 0.9398459386,
				"element": "H" 
			},
			{
				"x": 3.2971711725,
				"y": -0.140937374,
				"z": -1.942224131,
				"element": "H" 
			},
			{
				"x": 1.8874175465,
				"y": 0.761390198,
				"z": -2.5011458052,
				"element": "H" 
			},
			{
				"x": 3.0089637561,
				"y": 2.8224483025,
				"z": -2.5198532645,
				"element": "H" 
			},
			{
				"x": 4.4058990566,
				"y": 1.7688008193,
				"z": -2.7313170544,
				"element": "H" 
			},
			{
				"x": 3.4975008125,
				"y": 3.2178955415,
				"z": -0.3871719706,
				"element": "H" 
			},
			{
				"x": 4.9841419683,
				"y": 1.9508010264,
				"z": 1.0162810714,
				"element": "H" 
			},
			{
				"x": 5.2023880351,
				"y": 0.8562144337,
				"z": -0.3393839294,
				"element": "H" 
			},
			{
				"x": 2.8309492681,
				"y": 1.1339176784,
				"z": 1.5274627474,
				"element": "H" 
			},
			{
				"x": 3.5066532893,
				"y": -0.3171969216,
				"z": 0.7700700729,
				"element": "H" 
			},
			{
				"x": -1.3832586432,
				"y": -1.2319459209,
				"z": -0.8310454009,
				"element": "H" 
			},
			{
				"x": -3.418680718,
				"y": -0.2708168714,
				"z": -1.8460665763,
				"element": "H" 
			},
			{
				"x": -1.5186396282,
				"y": 3.5787628558,
				"z": -2.0193594672,
				"element": "H" 
			},
			{
				"x": 0.5235534699,
				"y": 2.6043574152,
				"z": -0.9811144477,
				"element": "H" 
			}
		],
		 "valence_orbital": [ 
			{
				"type": "occ",
				"energy": -0.26287,
				"method": "rhf"
			},
			{
				"type": "occ",
				"energy": -0.25199,
				"method": "rhf"
			},
			{
				"type": "occ",
				"energy": -0.24193,
				"method": "rhf"
			},
			{
				"type": "occ",
				"energy": -0.22549,
				"method": "rhf"
			},
			{
				"type": "occ",
				"energy": -0.21743,
				"method": "rhf"
			},
			{
				"type": "unocc",
				"energy": -0.02553,
				"method": "rhf"
			},
			{
				"type": "unocc",
				"energy": -0.02047,
				"method": "rhf"
			},
			{
				"type": "unocc",
				"energy": -0.01636,
				"method": "rhf"
			},
			{
				"type": "unocc",
				"energy": -0.01119,
				"method": "rhf"
			},
			{
				"type": "unocc",
				"energy": 0.02624,
				"method": "rhf"
			}
		],
		"cosmo_sigma_profile": { 
			"-0.025": 0.0,
			"-0.024": 0.0,
			"-0.023": 0.0,
			"-0.022": 0.0,
			"-0.021": 0.0,
			"-0.02": 0.0,
			"-0.019": 0.0,
			"-0.018": 0.0,
			"-0.017": 0.0,
			"-0.016": 0.0,
			"-0.015": 0.0,
			"-0.014": 0.0,
			"-0.013": 0.0,
			"-0.012": 0.0,
			"-0.011": 0.0,
			"-0.01": 0.0,
			"-0.009": 0.736328537535,
			"-0.008": 1.30800813421,
			"-0.007": 6.3975740921,
			"-0.006": 14.3705036532,
			"-0.005": 18.4462625071,
			"-0.004": 23.156310899,
			"-0.003": 30.6197107539,
			"-0.002": 38.010491982,
			"-0.001": 34.794198676,
			"0.0": 26.547172776,
			"0.001": 26.805559961,
			"0.002": 31.5812575183,
			"0.003": 31.1297475914,
			"0.004": 33.0824077781,
			"0.005": 20.1476706208,
			"0.006": 1.81724664844,
			"0.007": 1.00818128348,
			"0.008": 0.932967543309,
			"0.009": 1.02326146733,
			"0.01": 0.763817395665,
			"0.011": 0.622269458685,
			"0.012": 0.431730989859,
			"0.013": 0.513254243119,
			"0.014": 0.516152071606,
			"0.015": 0.987876424273,
			"0.016": 0.466449185462,
			"0.017": 0.791652877457,
			"0.018": 0.317230406578,
			"0.019": 0.367106464099,
			"0.02": 0.0,
			"0.021": 0.0,
			"0.022": 0.0,
			"0.023": 0.0,
			"0.024": 0.0,
			"0.025": 0.0
		}
	}
}
