{
	 "smiles": "CCCCCCCCC=CCCCCCCCCN", 
	 "Tm": 519.15, 
	 "num_atms": 56, 
	 "gaussian": { 
		 "optdone": 1, 
		 "sigma_profile": "yes", 
		 "theory": "DFT", 
		 "functional": "B3LYP", 
		 "basiset": "6-31G**", 
		 "properties": { 
			 "R2extent": 8922.3318, 
			 "electric_dipole_moment_norm": 1.05868183606, 
			 "electric_quadrupole_moment_norm": 6.79727799637, 
			 "total_energy": -762.988985733, 
			 "HOMO_LUMO_gap": 0.25424, 
			 "cosmo_polarized_energy": -6.07, 
			 "cosmo_cavitation_energy": 55.06, 
			 "cosmo_dispersion_energy": -34.11, 
			 "cosmo_repulsion_energy": 2.8, 
			 "cosmo_total_nonelectrostatic_energy": 23.75, 
			 "SMD_solvation_energy": 6.02 
		},
		"coords": [
			{
				"x": 0.5063829753,
				"y": 5.041362511,
				"z": -2.4635179694,
				"element": "C" 
			},
			{
				"x": -0.0464472642,
				"y": 3.6278299753,
				"z": -2.6826234297,
				"element": "C" 
			},
			{
				"x": -1.1464601142,
				"y": 3.2124319465,
				"z": -1.6916097211,
				"element": "C" 
			},
			{
				"x": -0.6830232525,
				"y": 3.0786017518,
				"z": -0.2343166973,
				"element": "C" 
			},
			{
				"x": -1.7899552082,
				"y": 2.5924760183,
				"z": 0.7107723911,
				"element": "C" 
			},
			{
				"x": -1.3289251112,
				"y": 2.483117408,
				"z": 2.1714120834,
				"element": "C" 
			},
			{
				"x": -2.4035579952,
				"y": 2.0230822352,
				"z": 3.1744769205,
				"element": "C" 
			},
			{
				"x": -2.6690638457,
				"y": 0.502341952,
				"z": 3.2383789818,
				"element": "C" 
			},
			{
				"x": -3.3467915358,
				"y": -0.103942901,
				"z": 2.0384419203,
				"element": "C" 
			},
			{
				"x": -2.9196018091,
				"y": -1.1778244844,
				"z": 1.3654639463,
				"element": "C" 
			},
			{
				"x": -3.6364143878,
				"y": -1.811632339,
				"z": 0.2023271741,
				"element": "C" 
			},
			{
				"x": -2.9399035297,
				"y": -1.7013283671,
				"z": -1.1748993847,
				"element": "C" 
			},
			{
				"x": -1.550033684,
				"y": -2.3621662252,
				"z": -1.2888635963,
				"element": "C" 
			},
			{
				"x": -0.3645640957,
				"y": -1.4526955079,
				"z": -0.9297808052,
				"element": "C" 
			},
			{
				"x": 0.995256037,
				"y": -2.1517453806,
				"z": -1.051339709,
				"element": "C" 
			},
			{
				"x": 2.1850357082,
				"y": -1.2389448443,
				"z": -0.7266118258,
				"element": "C" 
			},
			{
				"x": 3.5419414664,
				"y": -1.9471942328,
				"z": -0.8365074916,
				"element": "C" 
			},
			{
				"x": 4.7483080095,
				"y": -1.0360409003,
				"z": -0.5852440783,
				"element": "C" 
			},
			{
				"x": 4.7678351417,
				"y": -0.5361725082,
				"z": 0.7954743903,
				"element": "N" 
			},
			{
				"x": 0.993837975,
				"y": 5.1435856293,
				"z": -1.4885576907,
				"element": "H" 
			},
			{
				"x": -0.2940979131,
				"y": 5.7890363377,
				"z": -2.5125968104,
				"element": "H" 
			},
			{
				"x": 1.2468567912,
				"y": 5.2983309502,
				"z": -3.2283740606,
				"element": "H" 
			},
			{
				"x": -0.4476991472,
				"y": 3.5580193341,
				"z": -3.7019325852,
				"element": "H" 
			},
			{
				"x": 0.7768650801,
				"y": 2.9016290384,
				"z": -2.6318695548,
				"element": "H" 
			},
			{
				"x": -1.9723206638,
				"y": 3.9367909364,
				"z": -1.7446459776,
				"element": "H" 
			},
			{
				"x": -1.5676667054,
				"y": 2.2506721641,
				"z": -2.0155783039,
				"element": "H" 
			},
			{
				"x": 0.163684868,
				"y": 2.3777665439,
				"z": -0.1899129858,
				"element": "H" 
			},
			{
				"x": -0.2992071043,
				"y": 4.0421390313,
				"z": 0.1273076963,
				"element": "H" 
			},
			{
				"x": -2.6423573881,
				"y": 3.2855165858,
				"z": 0.6566812323,
				"element": "H" 
			},
			{
				"x": -2.1625897221,
				"y": 1.6216989771,
				"z": 0.3652128275,
				"element": "H" 
			},
			{
				"x": -0.9568773742,
				"y": 3.4671476112,
				"z": 2.4888138037,
				"element": "H" 
			},
			{
				"x": -0.4658613042,
				"y": 1.8042522413,
				"z": 2.2330954243,
				"element": "H" 
			},
			{
				"x": -3.3463641872,
				"y": 2.5497252096,
				"z": 2.9686847835,
				"element": "H" 
			},
			{
				"x": -2.0981375647,
				"y": 2.3401476481,
				"z": 4.1796094758,
				"element": "H" 
			},
			{
				"x": -3.3040252146,
				"y": 0.3202591265,
				"z": 4.1190345935,
				"element": "H" 
			},
			{
				"x": -1.7246138855,
				"y": -0.023637785,
				"z": 3.43081012,
				"element": "H" 
			},
			{
				"x": -4.2829687436,
				"y": 0.3684130196,
				"z": 1.7308565764,
				"element": "H" 
			},
			{
				"x": -1.9920550184,
				"y": -1.6545568384,
				"z": 1.6855598916,
				"element": "H" 
			},
			{
				"x": -4.6372718259,
				"y": -1.3699813487,
				"z": 0.1174471854,
				"element": "H" 
			},
			{
				"x": -3.7882497963,
				"y": -2.8799658163,
				"z": 0.4179773499,
				"element": "H" 
			},
			{
				"x": -3.6123828317,
				"y": -2.1635159467,
				"z": -1.9086169245,
				"element": "H" 
			},
			{
				"x": -2.865135225,
				"y": -0.6427048245,
				"z": -1.4574579529,
				"element": "H" 
			},
			{
				"x": -1.5228541248,
				"y": -3.268236141,
				"z": -0.6661172481,
				"element": "H" 
			},
			{
				"x": -1.4074448214,
				"y": -2.7101131426,
				"z": -2.320717393,
				"element": "H" 
			},
			{
				"x": -0.4818542533,
				"y": -1.0615736623,
				"z": 0.0880804337,
				"element": "H" 
			},
			{
				"x": -0.3807869999,
				"y": -0.5747338487,
				"z": -1.5917126197,
				"element": "H" 
			},
			{
				"x": 1.0170877395,
				"y": -3.024186245,
				"z": -0.3827691321,
				"element": "H" 
			},
			{
				"x": 1.1110130192,
				"y": -2.5493203825,
				"z": -2.0700870297,
				"element": "H" 
			},
			{
				"x": 2.1702148307,
				"y": -0.3706672644,
				"z": -1.4025323396,
				"element": "H" 
			},
			{
				"x": 2.0590853748,
				"y": -0.8432157328,
				"z": 0.2904988112,
				"element": "H" 
			},
			{
				"x": 3.5794538046,
				"y": -2.7782403258,
				"z": -0.1210662689,
				"element": "H" 
			},
			{
				"x": 3.6399196135,
				"y": -2.3826182384,
				"z": -1.8405341663,
				"element": "H" 
			},
			{
				"x": 5.6653968741,
				"y": -1.6177950606,
				"z": -0.7365319239,
				"element": "H" 
			},
			{
				"x": 4.7571576108,
				"y": -0.235919092,
				"z": -1.3492159878,
				"element": "H" 
			},
			{
				"x": 4.0354065376,
				"y": 0.1576969625,
				"z": 0.9232157268,
				"element": "H" 
			},
			{
				"x": 5.643724191,
				"y": -0.0511017589,
				"z": 0.9733079241,
				"element": "H" 
			}
		],
		 "valence_orbital": [ 
			{
				"type": "occ",
				"energy": -0.30901,
				"method": "rhf"
			},
			{
				"type": "occ",
				"energy": -0.29571,
				"method": "rhf"
			},
			{
				"type": "occ",
				"energy": -0.29318,
				"method": "rhf"
			},
			{
				"type": "occ",
				"energy": -0.23202,
				"method": "rhf"
			},
			{
				"type": "occ",
				"energy": -0.22842,
				"method": "rhf"
			},
			{
				"type": "unocc",
				"energy": 0.02582,
				"method": "rhf"
			},
			{
				"type": "unocc",
				"energy": 0.06686,
				"method": "rhf"
			},
			{
				"type": "unocc",
				"energy": 0.08113,
				"method": "rhf"
			},
			{
				"type": "unocc",
				"energy": 0.08976,
				"method": "rhf"
			},
			{
				"type": "unocc",
				"energy": 0.0988,
				"method": "rhf"
			}
		],
		"cosmo_sigma_profile": { 
			"-0.025": 0.0,
			"-0.024": 0.0,
			"-0.023": 0.0,
			"-0.022": 0.0,
			"-0.021": 0.0,
			"-0.02": 0.0,
			"-0.019": 0.0,
			"-0.018": 0.0,
			"-0.017": 0.0,
			"-0.016": 0.0,
			"-0.015": 0.0,
			"-0.014": 0.0,
			"-0.013": 0.0,
			"-0.012": 0.0,
			"-0.011": 0.0,
			"-0.01": 0.232755264662,
			"-0.009": 1.52264859111,
			"-0.008": 2.91153010669,
			"-0.007": 2.34201467757,
			"-0.006": 3.06045903623,
			"-0.005": 2.76205322551,
			"-0.004": 3.62306303306,
			"-0.003": 14.4501642498,
			"-0.002": 53.112839003,
			"-0.001": 99.3855736397,
			"0.0": 97.2575511042,
			"0.001": 73.8859143962,
			"0.002": 36.7460912112,
			"0.003": 9.04067716209,
			"0.004": 4.67520862118,
			"0.005": 2.82452393072,
			"0.006": 2.37196336124,
			"0.007": 1.79595599312,
			"0.008": 0.945684419618,
			"0.009": 1.07948770458,
			"0.01": 0.450421120694,
			"0.011": 0.499155836242,
			"0.012": 0.557691862528,
			"0.013": 1.282424939,
			"0.014": 0.485791659009,
			"0.015": 0.461880834336,
			"0.016": 0.457587042744,
			"0.017": 0.454012127134,
			"0.018": 0.884390660143,
			"0.019": 0.512959141815,
			"0.02": 0.410218440563,
			"0.021": 0.110415152331,
			"0.022": 0.0,
			"0.023": 0.0,
			"0.024": 0.0,
			"0.025": 0.0
		}
	}
}
