{
	 "smiles": "COC1=CC=C(NC2=CC=C(OC)C=C2)C=C1", 
	 "Tm": 375.15, 
	 "num_atms": 32, 
	 "gaussian": { 
		 "optdone": 1, 
		 "sigma_profile": "yes", 
		 "theory": "DFT", 
		 "functional": "B3LYP", 
		 "basiset": "6-31G**", 
		 "properties": { 
			 "R2extent": 7165.0696, 
			 "electric_dipole_moment_norm": 2.37884601015, 
			 "electric_quadrupole_moment_norm": 18.2401269393, 
			 "total_energy": -747.702344571, 
			 "HOMO_LUMO_gap": 0.1683, 
			 "cosmo_polarized_energy": -11.79, 
			 "cosmo_cavitation_energy": 35.57, 
			 "cosmo_dispersion_energy": -26.22, 
			 "cosmo_repulsion_energy": 2.02, 
			 "cosmo_total_nonelectrostatic_energy": 11.37, 
			 "SMD_solvation_energy": 7.28 
		},
		"coords": [
			{
				"x": 1.7236977683,
				"y": 5.9726818759,
				"z": 1.4568945932,
				"element": "C" 
			},
			{
				"x": 0.5817220382,
				"y": 5.2935315746,
				"z": 0.9686821943,
				"element": "O" 
			},
			{
				"x": 0.672150303,
				"y": 3.938737058,
				"z": 0.7832979995,
				"element": "C" 
			},
			{
				"x": -0.4817737877,
				"y": 3.3063254111,
				"z": 0.3007927579,
				"element": "C" 
			},
			{
				"x": -0.5016076032,
				"y": 1.9372162358,
				"z": 0.0698829062,
				"element": "C" 
			},
			{
				"x": 0.6328340798,
				"y": 1.1468529717,
				"z": 0.3390297341,
				"element": "C" 
			},
			{
				"x": 0.6736388749,
				"y": -0.2321128695,
				"z": 0.0917514224,
				"element": "N" 
			},
			{
				"x": -0.384257737,
				"y": -1.1511639411,
				"z": 0.0687369959,
				"element": "C" 
			},
			{
				"x": -0.2492702805,
				"y": -2.3305170575,
				"z": -0.6767403655,
				"element": "C" 
			},
			{
				"x": -1.2492090792,
				"y": -3.3053666255,
				"z": -0.6891914354,
				"element": "C" 
			},
			{
				"x": -2.4287591528,
				"y": -3.1036714552,
				"z": 0.0338224791,
				"element": "C" 
			},
			{
				"x": -3.4813521314,
				"y": -3.9798998337,
				"z": 0.0815575036,
				"element": "O" 
			},
			{
				"x": -3.3772205549,
				"y": -5.180949944,
				"z": -0.6603034043,
				"element": "C" 
			},
			{
				"x": -2.5749547271,
				"y": -1.9266381554,
				"z": 0.7804843383,
				"element": "C" 
			},
			{
				"x": -1.5683520022,
				"y": -0.9705872986,
				"z": 0.8099478326,
				"element": "C" 
			},
			{
				"x": 1.7807099678,
				"y": 1.7887794077,
				"z": 0.8239197017,
				"element": "C" 
			},
			{
				"x": 1.8121043632,
				"y": 3.1690705508,
				"z": 1.0340971352,
				"element": "C" 
			},
			{
				"x": 1.4431000095,
				"y": 7.024756152,
				"z": 1.532351537,
				"element": "H" 
			},
			{
				"x": 2.0217267483,
				"y": 5.6087462811,
				"z": 2.4496242578,
				"element": "H" 
			},
			{
				"x": 2.5785227796,
				"y": 5.8777236085,
				"z": 0.7733706827,
				"element": "H" 
			},
			{
				"x": -1.3565602327,
				"y": 3.9146727105,
				"z": 0.0940846728,
				"element": "H" 
			},
			{
				"x": -1.395157322,
				"y": 1.4778865895,
				"z": -0.3373763948,
				"element": "H" 
			},
			{
				"x": 1.5875612601,
				"y": -0.6147413614,
				"z": -0.0942708126,
				"element": "H" 
			},
			{
				"x": 0.6537915067,
				"y": -2.4901854587,
				"z": -1.2611584071,
				"element": "H" 
			},
			{
				"x": -1.0981754091,
				"y": -4.2042236333,
				"z": -1.2754910796,
				"element": "H" 
			},
			{
				"x": -4.3071568427,
				"y": -5.7261085736,
				"z": -0.4891056557,
				"element": "H" 
			},
			{
				"x": -3.2672659195,
				"y": -4.9879831824,
				"z": -1.736158615,
				"element": "H" 
			},
			{
				"x": -2.5328575658,
				"y": -5.797479041,
				"z": -0.3228255041,
				"element": "H" 
			},
			{
				"x": -3.4875432765,
				"y": -1.786487853,
				"z": 1.3511047941,
				"element": "H" 
			},
			{
				"x": -1.6912295155,
				"y": -0.0854862572,
				"z": 1.4237662377,
				"element": "H" 
			},
			{
				"x": 2.6673812275,
				"y": 1.1989236292,
				"z": 1.0440040804,
				"element": "H" 
			},
			{
				"x": 2.7240622128,
				"y": 3.6225984846,
				"z": 1.4044178178,
				"element": "H" 
			}
		],
		 "valence_orbital": [ 
			{
				"type": "occ",
				"energy": -0.2727,
				"method": "rhf"
			},
			{
				"type": "occ",
				"energy": -0.24716,
				"method": "rhf"
			},
			{
				"type": "occ",
				"energy": -0.24454,
				"method": "rhf"
			},
			{
				"type": "occ",
				"energy": -0.21648,
				"method": "rhf"
			},
			{
				"type": "occ",
				"energy": -0.16828,
				"method": "rhf"
			},
			{
				"type": "unocc",
				"energy": 2e-05,
				"method": "rhf"
			},
			{
				"type": "unocc",
				"energy": 0.00456,
				"method": "rhf"
			},
			{
				"type": "unocc",
				"energy": 0.01035,
				"method": "rhf"
			},
			{
				"type": "unocc",
				"energy": 0.0466,
				"method": "rhf"
			},
			{
				"type": "unocc",
				"energy": 0.08989,
				"method": "rhf"
			}
		],
		"cosmo_sigma_profile": { 
			"-0.025": 0.0,
			"-0.024": 0.0,
			"-0.023": 0.0,
			"-0.022": 0.0,
			"-0.021": 0.0,
			"-0.02": 0.0,
			"-0.019": 0.0,
			"-0.018": 0.0,
			"-0.017": 0.0,
			"-0.016": 0.0,
			"-0.015": 0.0,
			"-0.014": 0.127258989244,
			"-0.013": 0.893836675711,
			"-0.012": 1.38024112681,
			"-0.011": 1.06493790093,
			"-0.01": 1.54419249088,
			"-0.009": 1.51467815769,
			"-0.008": 1.72290079524,
			"-0.007": 2.04770613924,
			"-0.006": 10.7542695492,
			"-0.005": 28.1879417852,
			"-0.004": 29.2935450352,
			"-0.003": 30.8518904071,
			"-0.002": 21.3075017496,
			"-0.001": 13.7380489775,
			"0.0": 13.5964344176,
			"0.001": 13.6664860939,
			"0.002": 11.4190062,
			"0.003": 15.5837170016,
			"0.004": 20.83651762,
			"0.005": 24.8159755264,
			"0.006": 22.1116291743,
			"0.007": 4.89103706275,
			"0.008": 2.96904444795,
			"0.009": 2.87994190209,
			"0.01": 2.86908254044,
			"0.011": 2.6420881475,
			"0.012": 0.0840408128398,
			"0.013": 0.0,
			"0.014": 0.0,
			"0.015": 0.0,
			"0.016": 0.0,
			"0.017": 0.0,
			"0.018": 0.0,
			"0.019": 0.0,
			"0.02": 0.0,
			"0.021": 0.0,
			"0.022": 0.0,
			"0.023": 0.0,
			"0.024": 0.0,
			"0.025": 0.0
		}
	}
}
