{
	 "smiles": "NS(=O)(=O)C1=CC=CS1", 
	 "Tm": 416.15, 
	 "num_atms": 14, 
	 "gaussian": { 
		 "optdone": 1, 
		 "sigma_profile": "yes", 
		 "theory": "DFT", 
		 "functional": "B3LYP", 
		 "basiset": "6-31G**", 
		 "properties": { 
			 "R2extent": 2572.3992, 
			 "electric_dipole_moment_norm": 3.84168753805, 
			 "electric_quadrupole_moment_norm": 20.5239802519, 
			 "total_energy": -1156.91995457, 
			 "HOMO_LUMO_gap": 0.20763, 
			 "cosmo_polarized_energy": -14.8, 
			 "cosmo_cavitation_energy": 21.33, 
			 "cosmo_dispersion_energy": -17.01, 
			 "cosmo_repulsion_energy": 1.3, 
			 "cosmo_total_nonelectrostatic_energy": 5.62, 
			 "SMD_solvation_energy": 3.37 
		},
		"coords": [
			{
				"x": 1.1942516544,
				"y": 0.4538573151,
				"z": -0.5219153607,
				"element": "N" 
			},
			{
				"x": 0.8467548188,
				"y": 1.6655291927,
				"z": 0.607128797,
				"element": "S" 
			},
			{
				"x": -0.1878129268,
				"y": 2.5547474839,
				"z": 0.0725497529,
				"element": "O" 
			},
			{
				"x": 2.1494233782,
				"y": 2.1626201807,
				"z": 1.0508469041,
				"element": "O" 
			},
			{
				"x": 0.090469184,
				"y": 0.7667434096,
				"z": 1.9289106296,
				"element": "C" 
			},
			{
				"x": -1.2334254688,
				"y": 0.852772584,
				"z": 2.2776680037,
				"element": "C" 
			},
			{
				"x": -1.5453568153,
				"y": 0.0379923117,
				"z": 3.4029851594,
				"element": "C" 
			},
			{
				"x": -0.4538697429,
				"y": -0.6397121772,
				"z": 3.8795387503,
				"element": "C" 
			},
			{
				"x": 0.9817545561,
				"y": -0.2990026173,
				"z": 2.9760267612,
				"element": "S" 
			},
			{
				"x": 0.4780940456,
				"y": 0.4226189537,
				"z": -1.2432796038,
				"element": "H" 
			},
			{
				"x": 2.1122368662,
				"y": 0.6395548549,
				"z": -0.9187296342,
				"element": "H" 
			},
			{
				"x": -1.9357963354,
				"y": 1.4824985612,
				"z": 1.7461011832,
				"element": "H" 
			},
			{
				"x": -2.5341786345,
				"y": -0.0375129592,
				"z": 3.8396598945,
				"element": "H" 
			},
			{
				"x": -0.4047445797,
				"y": -1.3181070936,
				"z": 4.7208087627,
				"element": "H" 
			}
		],
		 "valence_orbital": [ 
			{
				"type": "occ",
				"energy": -0.32096,
				"method": "rhf"
			},
			{
				"type": "occ",
				"energy": -0.30897,
				"method": "rhf"
			},
			{
				"type": "occ",
				"energy": -0.30009,
				"method": "rhf"
			},
			{
				"type": "occ",
				"energy": -0.27138,
				"method": "rhf"
			},
			{
				"type": "occ",
				"energy": -0.25556,
				"method": "rhf"
			},
			{
				"type": "unocc",
				"energy": -0.04793,
				"method": "rhf"
			},
			{
				"type": "unocc",
				"energy": 0.0133,
				"method": "rhf"
			},
			{
				"type": "unocc",
				"energy": 0.03875,
				"method": "rhf"
			},
			{
				"type": "unocc",
				"energy": 0.04985,
				"method": "rhf"
			},
			{
				"type": "unocc",
				"energy": 0.06073,
				"method": "rhf"
			}
		],
		"cosmo_sigma_profile": { 
			"-0.025": 0.0,
			"-0.024": 0.0,
			"-0.023": 0.0,
			"-0.022": 0.0,
			"-0.021": 0.0,
			"-0.02": 0.0,
			"-0.019": 0.0,
			"-0.018": 0.0,
			"-0.017": 0.0,
			"-0.016": 0.0,
			"-0.015": 1.54401772645,
			"-0.014": 2.58021364427,
			"-0.013": 2.78138513568,
			"-0.012": 2.67434751398,
			"-0.011": 2.80500929281,
			"-0.01": 2.24624021,
			"-0.009": 4.14482593254,
			"-0.008": 6.07075250581,
			"-0.007": 7.24986617466,
			"-0.006": 6.82405989885,
			"-0.005": 7.12516422548,
			"-0.004": 6.90622070049,
			"-0.003": 5.21911090977,
			"-0.002": 7.1436820153,
			"-0.001": 9.67126490834,
			"0.0": 10.4190706906,
			"0.001": 12.870983249,
			"0.002": 17.0289498817,
			"0.003": 12.5103902066,
			"0.004": 5.33206651988,
			"0.005": 3.29411932491,
			"0.006": 3.68934825844,
			"0.007": 4.39938097431,
			"0.008": 3.89909189395,
			"0.009": 4.087221163,
			"0.01": 9.37523407224,
			"0.011": 9.74635150398,
			"0.012": 1.34987082,
			"0.013": 0.0,
			"0.014": 0.0,
			"0.015": 0.0,
			"0.016": 0.0,
			"0.017": 0.0,
			"0.018": 0.0,
			"0.019": 0.0,
			"0.02": 0.0,
			"0.021": 0.0,
			"0.022": 0.0,
			"0.023": 0.0,
			"0.024": 0.0,
			"0.0": 0.0
		}
	}
}
