{
	 "smiles": "OC[C@@H](O)[C@H](O)[C@H](O)[C@@H](O)C=O", 
	 "Tm": 439.15, 
	 "num_atms": 24, 
	 "gaussian": { 
		 "optdone": 1, 
		 "sigma_profile": "yes", 
		 "theory": "DFT", 
		 "functional": "B3LYP", 
		 "basiset": "6-31G**", 
		 "properties": { 
			 "R2extent": 2177.6554, 
			 "electric_dipole_moment_norm": 2.219631974, 
			 "electric_quadrupole_moment_norm": 11.3369471032, 
			 "total_energy": -687.161178623, 
			 "HOMO_LUMO_gap": 0.2161, 
			 "cosmo_polarized_energy": -15.61, 
			 "cosmo_cavitation_energy": 25.41, 
			 "cosmo_dispersion_energy": -18.98, 
			 "cosmo_repulsion_energy": 1.53, 
			 "cosmo_total_nonelectrostatic_energy": 7.96, 
			 "SMD_solvation_energy": 4.94 
		},
		"coords": [
			{
				"x": -0.3495715803,
				"y": 2.4402734555,
				"z": 0.8077321712,
				"element": "O" 
			},
			{
				"x": -0.4591650099,
				"y": 1.3943608231,
				"z": -0.1642044531,
				"element": "C" 
			},
			{
				"x": 0.8017184905,
				"y": 0.5456367568,
				"z": 0.0089754159,
				"element": "C" 
			},
			{
				"x": 1.9337459093,
				"y": 1.42169236,
				"z": 0.0554782278,
				"element": "O" 
			},
			{
				"x": 0.7681967586,
				"y": -0.3302224099,
				"z": 1.2960942473,
				"element": "C" 
			},
			{
				"x": 2.0981322265,
				"y": -0.4640574862,
				"z": 1.7973685818,
				"element": "O" 
			},
			{
				"x": 0.3192329874,
				"y": -1.7964153197,
				"z": 1.0968221209,
				"element": "C" 
			},
			{
				"x": 1.272054628,
				"y": -2.4856301985,
				"z": 0.305045834,
				"element": "O" 
			},
			{
				"x": -1.0537715502,
				"y": -2.0677640867,
				"z": 0.4528222251,
				"element": "C" 
			},
			{
				"x": -2.0688044095,
				"y": -1.3455031003,
				"z": 1.1030717914,
				"element": "O" 
			},
			{
				"x": -1.1130207674,
				"y": -1.8479534808,
				"z": -1.0474122642,
				"element": "C" 
			},
			{
				"x": -2.0366738636,
				"y": -1.2316322039,
				"z": -1.5490106111,
				"element": "O" 
			},
			{
				"x": -1.0466185003,
				"y": 3.0875043384,
				"z": 0.6513317188,
				"element": "H" 
			},
			{
				"x": -1.3569446036,
				"y": 0.7927379958,
				"z": 0.0027857273,
				"element": "H" 
			},
			{
				"x": -0.4878804317,
				"y": 1.8067770741,
				"z": -1.1819134924,
				"element": "H" 
			},
			{
				"x": 0.9533783955,
				"y": -0.0978345167,
				"z": -0.8640592539,
				"element": "H" 
			},
			{
				"x": 1.6041668721,
				"y": 2.2260430841,
				"z": 0.4941146209,
				"element": "H" 
			},
			{
				"x": 0.1254329233,
				"y": 0.148768487,
				"z": 2.0458539518,
				"element": "H" 
			},
			{
				"x": 2.578509785,
				"y": 0.2890977526,
				"z": 1.4051063497,
				"element": "H" 
			},
			{
				"x": 0.2794855695,
				"y": -2.2234238031,
				"z": 2.111371362,
				"element": "H" 
			},
			{
				"x": 2.125658673,
				"y": -2.178537618,
				"z": 0.6560258371,
				"element": "H" 
			},
			{
				"x": -1.2083848892,
				"y": -3.1609300349,
				"z": 0.556620133,
				"element": "H" 
			},
			{
				"x": -2.7022337846,
				"y": -1.1074604932,
				"z": 0.4027417745,
				"element": "H" 
			},
			{
				"x": -0.3189438285,
				"y": -2.3179273757,
				"z": -1.6518620159,
				"element": "H" 
			}
		],
		 "valence_orbital": [ 
			{
				"type": "occ",
				"energy": -0.29818,
				"method": "rhf"
			},
			{
				"type": "occ",
				"energy": -0.29097,
				"method": "rhf"
			},
			{
				"type": "occ",
				"energy": -0.27875,
				"method": "rhf"
			},
			{
				"type": "occ",
				"energy": -0.26503,
				"method": "rhf"
			},
			{
				"type": "occ",
				"energy": -0.26154,
				"method": "rhf"
			},
			{
				"type": "unocc",
				"energy": -0.04544,
				"method": "rhf"
			},
			{
				"type": "unocc",
				"energy": 0.04711,
				"method": "rhf"
			},
			{
				"type": "unocc",
				"energy": 0.07268,
				"method": "rhf"
			},
			{
				"type": "unocc",
				"energy": 0.10212,
				"method": "rhf"
			},
			{
				"type": "unocc",
				"energy": 0.10517,
				"method": "rhf"
			}
		],
		"cosmo_sigma_profile": { 
			"-0.025": 0.0,
			"-0.024": 0.0,
			"-0.023": 0.0,
			"-0.022": 0.0,
			"-0.021": 0.0,
			"-0.02": 0.0,
			"-0.019": 0.0,
			"-0.018": 0.0,
			"-0.017": 0.602879483742,
			"-0.016": 1.2719185735,
			"-0.015": 1.06714784297,
			"-0.014": 0.640151953546,
			"-0.013": 0.822542258051,
			"-0.012": 1.68714041303,
			"-0.011": 2.34538211931,
			"-0.01": 2.40429213988,
			"-0.009": 2.71152245764,
			"-0.008": 5.99532361572,
			"-0.007": 11.9045708415,
			"-0.006": 10.9199257026,
			"-0.005": 15.1009170179,
			"-0.004": 13.2180514218,
			"-0.003": 11.8020953521,
			"-0.002": 10.8122189827,
			"-0.001": 9.96930248651,
			"0.0": 8.70167632867,
			"0.001": 8.56202112301,
			"0.002": 7.19668563063,
			"0.003": 8.29808048093,
			"0.004": 7.83323953731,
			"0.005": 6.1757734975,
			"0.006": 5.88391564964,
			"0.007": 5.38312355226,
			"0.008": 6.79416170382,
			"0.009": 6.04177383817,
			"0.01": 7.62570185491,
			"0.011": 5.98063210306,
			"0.012": 4.62279966058,
			"0.013": 3.69089453051,
			"0.014": 0.985495914917,
			"0.015": 0.00741232453866,
			"0.016": 0.0,
			"0.017": 0.0,
			"0.018": 0.0,
			"0.019": 0.0,
			"0.02": 0.0,
			"0.021": 0.0,
			"0.022": 0.0,
			"0.023": 0.0,
			"0.024": 0.0,
			"0.025": 0.0
		}
	}
}
