{
	 "smiles": "CCOC1=CC(=CC(OCC)=C1OCC)C1=C2C=C(OC)C(OC)=CC2=CC=N1", 
	 "Tm": 373.15, 
	 "num_atms": 56, 
	 "gaussian": { 
		 "optdone": 1, 
		 "sigma_profile": "yes", 
		 "theory": "DFT", 
		 "functional": "B3LYP", 
		 "basiset": "6-31G**", 
		 "properties": { 
			 "R2extent": 15536.3431, 
			 "electric_dipole_moment_norm": 3.10888562189, 
			 "electric_quadrupole_moment_norm": 10.4644379027, 
			 "total_energy": -1323.54799589, 
			 "HOMO_LUMO_gap": 0.15892, 
			 "cosmo_polarized_energy": -14.81, 
			 "cosmo_cavitation_energy": 58.82, 
			 "cosmo_dispersion_energy": -38.36, 
			 "cosmo_repulsion_energy": 2.99, 
			 "cosmo_total_nonelectrostatic_energy": 23.44, 
			 "SMD_solvation_energy": 10.89 
		},
		"coords": [
			{
				"x": 2.3807484486,
				"y": 1.9901245159,
				"z": -3.9214400636,
				"element": "C" 
			},
			{
				"x": 2.3523451305,
				"y": 1.6243148727,
				"z": -2.4485254958,
				"element": "C" 
			},
			{
				"x": 1.1342112987,
				"y": 0.8957213577,
				"z": -2.2053902754,
				"element": "O" 
			},
			{
				"x": 0.9319915695,
				"y": 0.4793242637,
				"z": -0.9108821627,
				"element": "C" 
			},
			{
				"x": -0.1246810637,
				"y": 1.0356264766,
				"z": -0.1869211412,
				"element": "C" 
			},
			{
				"x": -0.4203396281,
				"y": 0.5893237045,
				"z": 1.1091988795,
				"element": "C" 
			},
			{
				"x": 0.393065531,
				"y": -0.3962206796,
				"z": 1.6866210459,
				"element": "C" 
			},
			{
				"x": 1.4519882466,
				"y": -0.9555755632,
				"z": 0.9739784403,
				"element": "C" 
			},
			{
				"x": 2.1725959328,
				"y": -1.9832014029,
				"z": 1.5373341896,
				"element": "O" 
			},
			{
				"x": 3.5455400057,
				"y": -1.6903015658,
				"z": 1.8734399906,
				"element": "C" 
			},
			{
				"x": 3.6600029891,
				"y": -0.8569185939,
				"z": 3.1430664022,
				"element": "C" 
			},
			{
				"x": 1.7248236164,
				"y": -0.5298507447,
				"z": -0.340287652,
				"element": "C" 
			},
			{
				"x": 2.7628214892,
				"y": -1.0798993125,
				"z": -1.059313868,
				"element": "O" 
			},
			{
				"x": 2.4453112627,
				"y": -2.3427497872,
				"z": -1.6799580542,
				"element": "C" 
			},
			{
				"x": 3.6804254308,
				"y": -2.8221505569,
				"z": -2.4195950609,
				"element": "C" 
			},
			{
				"x": -1.5180152058,
				"y": 1.1896030399,
				"z": 1.9234688215,
				"element": "C" 
			},
			{
				"x": -2.8337800009,
				"y": 1.4270367736,
				"z": 1.3939342843,
				"element": "C" 
			},
			{
				"x": -3.2570348684,
				"y": 1.0072571352,
				"z": 0.1008082541,
				"element": "C" 
			},
			{
				"x": -4.5351710623,
				"y": 1.2635631289,
				"z": -0.3495881642,
				"element": "C" 
			},
			{
				"x": -5.0312657512,
				"y": 0.8646896908,
				"z": -1.5545518146,
				"element": "O" 
			},
			{
				"x": -4.1826105011,
				"y": 0.1097630751,
				"z": -2.4090604429,
				"element": "C" 
			},
			{
				"x": -5.460628817,
				"y": 1.9773953739,
				"z": 0.4851538919,
				"element": "C" 
			},
			{
				"x": -6.7483258491,
				"y": 2.2046866052,
				"z": 0.0818970574,
				"element": "O" 
			},
			{
				"x": -6.922689607,
				"y": 3.0954216661,
				"z": -1.0249032563,
				"element": "C" 
			},
			{
				"x": -5.0793964162,
				"y": 2.357800108,
				"z": 1.7482029934,
				"element": "C" 
			},
			{
				"x": -3.77861858,
				"y": 2.0792334524,
				"z": 2.2457010878,
				"element": "C" 
			},
			{
				"x": -3.3796565956,
				"y": 2.4085423891,
				"z": 3.5629686114,
				"element": "C" 
			},
			{
				"x": -2.1135830642,
				"y": 2.0686852324,
				"z": 3.9788128392,
				"element": "C" 
			},
			{
				"x": -1.1944275781,
				"y": 1.4785073041,
				"z": 3.178734461,
				"element": "N" 
			},
			{
				"x": 3.286812017,
				"y": 2.5597326134,
				"z": -4.1512342563,
				"element": "H" 
			},
			{
				"x": 2.3718469005,
				"y": 1.089213363,
				"z": -4.5420831816,
				"element": "H" 
			},
			{
				"x": 1.511544455,
				"y": 2.5988576197,
				"z": -4.1873787002,
				"element": "H" 
			},
			{
				"x": 2.3625734472,
				"y": 2.5261129656,
				"z": -1.819966229,
				"element": "H" 
			},
			{
				"x": 3.2130709916,
				"y": 1.004452379,
				"z": -2.1772215345,
				"element": "H" 
			},
			{
				"x": -0.6961413679,
				"y": 1.8300478928,
				"z": -0.6537228264,
				"element": "H" 
			},
			{
				"x": 0.2021112951,
				"y": -0.7343431606,
				"z": 2.6980706281,
				"element": "H" 
			},
			{
				"x": 4.0349615479,
				"y": -1.2000571156,
				"z": 1.0257170569,
				"element": "H" 
			},
			{
				"x": 4.0090446542,
				"y": -2.6717203611,
				"z": 2.012025552,
				"element": "H" 
			},
			{
				"x": 3.1814265021,
				"y": 0.1192664757,
				"z": 3.0205157345,
				"element": "H" 
			},
			{
				"x": 4.7147986279,
				"y": -0.6901460519,
				"z": 3.3882017355,
				"element": "H" 
			},
			{
				"x": 3.1857158881,
				"y": -1.3675617391,
				"z": 3.9864467921,
				"element": "H" 
			},
			{
				"x": 2.1433837364,
				"y": -3.0578151265,
				"z": -0.9055099212,
				"element": "H" 
			},
			{
				"x": 1.6030364467,
				"y": -2.1991386552,
				"z": -2.3693580167,
				"element": "H" 
			},
			{
				"x": 3.9801409437,
				"y": -2.0994302757,
				"z": -3.1842244474,
				"element": "H" 
			},
			{
				"x": 4.5172052807,
				"y": -2.9595907416,
				"z": -1.7285091225,
				"element": "H" 
			},
			{
				"x": 3.4770075916,
				"y": -3.7795436047,
				"z": -2.9096734494,
				"element": "H" 
			},
			{
				"x": -2.5659748682,
				"y": 0.4522591451,
				"z": -0.5173539825,
				"element": "H" 
			},
			{
				"x": -4.7734737892,
				"y": -0.1111803756,
				"z": -3.2989211644,
				"element": "H" 
			},
			{
				"x": -3.8727024989,
				"y": -0.8296325727,
				"z": -1.935124096,
				"element": "H" 
			},
			{
				"x": -3.2892915873,
				"y": 0.6784096178,
				"z": -2.6957712719,
				"element": "H" 
			},
			{
				"x": -6.5103915122,
				"y": 4.0861119464,
				"z": -0.7941047611,
				"element": "H" 
			},
			{
				"x": -8.0007313773,
				"y": 3.1813228861,
				"z": -1.1737076725,
				"element": "H" 
			},
			{
				"x": -6.4568617691,
				"y": 2.7054137911,
				"z": -1.9335777967,
				"element": "H" 
			},
			{
				"x": -5.8064978872,
				"y": 2.8647279191,
				"z": 2.3749339656,
				"element": "H" 
			},
			{
				"x": -4.0738580423,
				"y": 2.905173253,
				"z": 4.2347316174,
				"element": "H" 
			},
			{
				"x": -1.7859019891,
				"y": 2.2797059536,
				"z": 4.9945955501,
				"element": "H" 
			}
		],
		 "valence_orbital": [ 
			{
				"type": "occ",
				"energy": -0.24444,
				"method": "rhf"
			},
			{
				"type": "occ",
				"energy": -0.23238,
				"method": "rhf"
			},
			{
				"type": "occ",
				"energy": -0.22949,
				"method": "rhf"
			},
			{
				"type": "occ",
				"energy": -0.22476,
				"method": "rhf"
			},
			{
				"type": "occ",
				"energy": -0.20439,
				"method": "rhf"
			},
			{
				"type": "unocc",
				"energy": -0.04547,
				"method": "rhf"
			},
			{
				"type": "unocc",
				"energy": -0.01055,
				"method": "rhf"
			},
			{
				"type": "unocc",
				"energy": -0.00079,
				"method": "rhf"
			},
			{
				"type": "unocc",
				"energy": 0.00905,
				"method": "rhf"
			},
			{
				"type": "unocc",
				"energy": 0.04278,
				"method": "rhf"
			}
		],
		"cosmo_sigma_profile": { 
			"-0.025": 0.0,
			"-0.024": 0.0,
			"-0.023": 0.0,
			"-0.022": 0.0,
			"-0.021": 0.0,
			"-0.02": 0.0,
			"-0.019": 0.0,
			"-0.018": 0.0,
			"-0.017": 0.0,
			"-0.016": 0.0,
			"-0.015": 0.0,
			"-0.014": 0.0,
			"-0.013": 0.0,
			"-0.012": 0.0,
			"-0.011": 0.0,
			"-0.01": 0.0,
			"-0.009": 0.0,
			"-0.008": 0.0,
			"-0.007": 2.53096588479,
			"-0.006": 13.1571924958,
			"-0.005": 24.633774186,
			"-0.004": 38.9702634587,
			"-0.003": 59.9179647692,
			"-0.002": 52.9583510098,
			"-0.001": 46.4016274667,
			"0.0": 45.8733041768,
			"0.001": 40.4464941988,
			"0.002": 37.3760421495,
			"0.003": 33.0900082134,
			"0.004": 16.4418425736,
			"0.005": 10.2564585469,
			"0.006": 8.28408581116,
			"0.007": 6.3850074592,
			"0.008": 6.60827668677,
			"0.009": 6.14119633824,
			"0.01": 5.03425082731,
			"0.011": 5.03427798245,
			"0.012": 3.05809920579,
			"0.013": 0.749500197747,
			"0.014": 0.713420780758,
			"0.015": 0.505728916993,
			"0.016": 0.435595433653,
			"0.017": 0.0,
			"0.018": 0.0,
			"0.019": 0.0,
			"0.02": 0.0,
			"0.021": 0.0,
			"0.022": 0.0,
			"0.023": 0.0,
			"0.024": 0.0,
			"0.025": 0.0
		}
	}
}
