{
	 "smiles": "CC1=NON=C1C", 
	 "Tm": 266.15, 
	 "num_atms": 13, 
	 "gaussian": { 
		 "optdone": 1, 
		 "sigma_profile": "yes", 
		 "theory": "DFT", 
		 "functional": "B3LYP", 
		 "basiset": "6-31G**", 
		 "properties": { 
			 "R2extent": 857.4403, 
			 "electric_dipole_moment_norm": 4.20301379251, 
			 "electric_quadrupole_moment_norm": 5.10707679598, 
			 "total_energy": -340.69442678, 
			 "HOMO_LUMO_gap": 0.25701, 
			 "cosmo_polarized_energy": -8.52, 
			 "cosmo_cavitation_energy": 17.18, 
			 "cosmo_dispersion_energy": -12.71, 
			 "cosmo_repulsion_energy": 1.08, 
			 "cosmo_total_nonelectrostatic_energy": 5.56, 
			 "SMD_solvation_energy": 2.92 
		},
		"coords": [
			{
				"x": 0.8029413124,
				"y": 1.0149278151,
				"z": -0.5395962259,
				"element": "C" 
			},
			{
				"x": -0.0426580464,
				"y": 0.181370529,
				"z": 0.3678897723,
				"element": "C" 
			},
			{
				"x": 0.4562304463,
				"y": -0.7603219656,
				"z": 1.1260916958,
				"element": "N" 
			},
			{
				"x": -0.6085133634,
				"y": -1.2987607997,
				"z": 1.8070913285,
				"element": "O" 
			},
			{
				"x": -1.7841158187,
				"y": -0.6770589121,
				"z": 1.4624219875,
				"element": "N" 
			},
			{
				"x": -1.4624806082,
				"y": 0.2342564465,
				"z": 0.5811729626,
				"element": "C" 
			},
			{
				"x": -2.4741316091,
				"y": 1.1369934818,
				"z": -0.0473291701,
				"element": "C" 
			},
			{
				"x": 0.7255196909,
				"y": 2.0769875344,
				"z": -0.2830612311,
				"element": "H" 
			},
			{
				"x": 1.8488272811,
				"y": 0.7135540704,
				"z": -0.4599645139,
				"element": "H" 
			},
			{
				"x": 0.4866635502,
				"y": 0.9047057464,
				"z": -1.5824754906,
				"element": "H" 
			},
			{
				"x": -2.2476610809,
				"y": 2.1877527505,
				"z": 0.1633624633,
				"element": "H" 
			},
			{
				"x": -2.4867977234,
				"y": 1.015272505,
				"z": -1.1358145137,
				"element": "H" 
			},
			{
				"x": -3.4696240306,
				"y": 0.9118207984,
				"z": 0.3391109352,
				"element": "H" 
			}
		],
		 "valence_orbital": [ 
			{
				"type": "occ",
				"energy": -0.38879,
				"method": "rhf"
			},
			{
				"type": "occ",
				"energy": -0.33228,
				"method": "rhf"
			},
			{
				"type": "occ",
				"energy": -0.30684,
				"method": "rhf"
			},
			{
				"type": "occ",
				"energy": -0.3018,
				"method": "rhf"
			},
			{
				"type": "occ",
				"energy": -0.29159,
				"method": "rhf"
			},
			{
				"type": "unocc",
				"energy": -0.03458,
				"method": "rhf"
			},
			{
				"type": "unocc",
				"energy": 0.0409,
				"method": "rhf"
			},
			{
				"type": "unocc",
				"energy": 0.07384,
				"method": "rhf"
			},
			{
				"type": "unocc",
				"energy": 0.11679,
				"method": "rhf"
			},
			{
				"type": "unocc",
				"energy": 0.12334,
				"method": "rhf"
			}
		],
		"cosmo_sigma_profile": { 
			"-0.025": 0.0,
			"-0.024": 0.0,
			"-0.023": 0.0,
			"-0.022": 0.0,
			"-0.021": 0.0,
			"-0.02": 0.0,
			"-0.019": 0.0,
			"-0.018": 0.0,
			"-0.017": 0.0,
			"-0.016": 0.0,
			"-0.015": 0.0,
			"-0.014": 0.0,
			"-0.013": 0.0,
			"-0.012": 0.0,
			"-0.011": 0.0,
			"-0.01": 0.0,
			"-0.009": 0.0,
			"-0.008": 0.0,
			"-0.007": 1.70514053982,
			"-0.006": 13.8722955793,
			"-0.005": 12.1215059173,
			"-0.004": 13.5981640196,
			"-0.003": 14.3605789896,
			"-0.002": 18.1789805344,
			"-0.001": 10.6488462766,
			"0.0": 4.3330917065,
			"0.001": 3.87472506712,
			"0.002": 3.43280683548,
			"0.003": 2.98655308579,
			"0.004": 3.01098501635,
			"0.005": 3.57922851273,
			"0.006": 9.61003737818,
			"0.007": 7.68950234881,
			"0.008": 2.62791969806,
			"0.009": 2.85820088697,
			"0.01": 3.03321052422,
			"0.011": 1.82125639643,
			"0.012": 2.40615753246,
			"0.013": 0.854000105531,
			"0.014": 0.0,
			"0.015": 0.0,
			"0.016": 0.0,
			"0.017": 0.0,
			"0.018": 0.0,
			"0.019": 0.0,
			"0.02": 0.0,
			"0.021": 0.0,
			"0.022": 0.0,
			"0.023": 0.0,
			"0.024": 0.0,
			"0.025": 0.0
		}
	}
}
