{
	 "smiles": "COC1=CC=C(C=C1)C(=O)C1=NN(C2C1C(=O)N(C2=O)C1=C(Cl)C=CC(Cl)=C1)C1=CC=CC=C1", 
	 "Tm": 513.15, 
	 "num_atms": 51, 
	 "gaussian": { 
		 "optdone": 1, 
		 "sigma_profile": "yes", 
		 "theory": "DFT", 
		 "functional": "B3LYP", 
		 "basiset": "6-31G**", 
		 "properties": { 
			 "R2extent": 23063.664, 
			 "electric_dipole_moment_norm": 2.25229728278, 
			 "electric_quadrupole_moment_norm": 21.6557960433, 
			 "total_energy": -2348.41446992, 
			 "HOMO_LUMO_gap": 0.13659, 
			 "cosmo_polarized_energy": -23.48, 
			 "cosmo_cavitation_energy": 60.52, 
			 "cosmo_dispersion_energy": -40.63, 
			 "cosmo_repulsion_energy": 3.03, 
			 "cosmo_total_nonelectrostatic_energy": 22.92, 
			 "SMD_solvation_energy": 11.12 
		},
		"coords": [
			{
				"x": -6.1836270026,
				"y": 1.944938134,
				"z": -2.3783469272,
				"element": "C" 
			},
			{
				"x": -5.0876639655,
				"y": 1.0809437983,
				"z": -2.6486299316,
				"element": "O" 
			},
			{
				"x": -4.0837273708,
				"y": 0.9994051649,
				"z": -1.7373352799,
				"element": "C" 
			},
			{
				"x": -3.0260092594,
				"y": 0.1378135612,
				"z": -2.0720366996,
				"element": "C" 
			},
			{
				"x": -1.9524709011,
				"y": -0.0206686916,
				"z": -1.2097518786,
				"element": "C" 
			},
			{
				"x": -1.9048971463,
				"y": 0.6774053655,
				"z": 0.0130984262,
				"element": "C" 
			},
			{
				"x": -2.9629847031,
				"y": 1.5440839605,
				"z": 0.3280648821,
				"element": "C" 
			},
			{
				"x": -4.0479389079,
				"y": 1.7074870867,
				"z": -0.525760494,
				"element": "C" 
			},
			{
				"x": -0.7850694248,
				"y": 0.5976058841,
				"z": 0.9860867758,
				"element": "C" 
			},
			{
				"x": -0.6943584284,
				"y": 1.3797862101,
				"z": 1.933473562,
				"element": "O" 
			},
			{
				"x": 0.265219392,
				"y": -0.4472738245,
				"z": 0.8951393101,
				"element": "C" 
			},
			{
				"x": 0.1359203703,
				"y": -1.5969846986,
				"z": 0.3137186104,
				"element": "N" 
			},
			{
				"x": 1.2045639554,
				"y": -2.3877314562,
				"z": 0.5615147085,
				"element": "N" 
			},
			{
				"x": 2.1755984821,
				"y": -1.7353038591,
				"z": 1.4690613374,
				"element": "C" 
			},
			{
				"x": 1.5562800761,
				"y": -0.340925752,
				"z": 1.6887992299,
				"element": "C" 
			},
			{
				"x": 2.5499939041,
				"y": 0.6516247143,
				"z": 1.0712288881,
				"element": "C" 
			},
			{
				"x": 2.4737885367,
				"y": 1.8519653004,
				"z": 1.0309222854,
				"element": "O" 
			},
			{
				"x": 3.6260869635,
				"y": -0.100674923,
				"z": 0.5431215188,
				"element": "N" 
			},
			{
				"x": 3.5350820416,
				"y": -1.4714046537,
				"z": 0.7903329965,
				"element": "C" 
			},
			{
				"x": 4.3902170466,
				"y": -2.2870994966,
				"z": 0.5272583934,
				"element": "O" 
			},
			{
				"x": 4.737338634,
				"y": 0.498906811,
				"z": -0.1183745172,
				"element": "C" 
			},
			{
				"x": 4.612688175,
				"y": 1.0187398401,
				"z": -1.4141807923,
				"element": "C" 
			},
			{
				"x": 3.0978345792,
				"y": 0.9163066277,
				"z": -2.2757285281,
				"element": "Cl" 
			},
			{
				"x": 5.7115653931,
				"y": 1.6104829916,
				"z": -2.0369309341,
				"element": "C" 
			},
			{
				"x": 6.9397997151,
				"y": 1.6739965857,
				"z": -1.38320272,
				"element": "C" 
			},
			{
				"x": 7.0603701555,
				"y": 1.1410677378,
				"z": -0.1001441306,
				"element": "C" 
			},
			{
				"x": 8.6025734102,
				"y": 1.2105701148,
				"z": 0.7282086095,
				"element": "Cl" 
			},
			{
				"x": 5.9688340762,
				"y": 0.5584434842,
				"z": 0.5370150246,
				"element": "C" 
			},
			{
				"x": 1.095606421,
				"y": -3.7857098002,
				"z": 0.3758070533,
				"element": "C" 
			},
			{
				"x": -0.1151071064,
				"y": -4.3466804657,
				"z": -0.0636340999,
				"element": "C" 
			},
			{
				"x": -0.2118979648,
				"y": -5.7241247432,
				"z": -0.2376636709,
				"element": "C" 
			},
			{
				"x": 0.876194133,
				"y": -6.5593878924,
				"z": 0.0291291415,
				"element": "C" 
			},
			{
				"x": 2.0744540634,
				"y": -5.9946305949,
				"z": 0.4637778026,
				"element": "C" 
			},
			{
				"x": 2.1973688686,
				"y": -4.6148156288,
				"z": 0.6324560234,
				"element": "C" 
			},
			{
				"x": -5.8597254001,
				"y": 2.9885111645,
				"z": -2.2818547375,
				"element": "H" 
			},
			{
				"x": -6.716773396,
				"y": 1.646818382,
				"z": -1.4671337208,
				"element": "H" 
			},
			{
				"x": -6.8544416984,
				"y": 1.853845438,
				"z": -3.2335960132,
				"element": "H" 
			},
			{
				"x": -3.0708790397,
				"y": -0.3906278644,
				"z": -3.0184981628,
				"element": "H" 
			},
			{
				"x": -1.1457751416,
				"y": -0.6881352881,
				"z": -1.4846167437,
				"element": "H" 
			},
			{
				"x": -2.9139655212,
				"y": 2.0905834491,
				"z": 1.2638285454,
				"element": "H" 
			},
			{
				"x": -4.850371711,
				"y": 2.3802533985,
				"z": -0.2478482289,
				"element": "H" 
			},
			{
				"x": 2.331009326,
				"y": -2.3437702762,
				"z": 2.3659850161,
				"element": "H" 
			},
			{
				"x": 1.3629891266,
				"y": -0.0430629876,
				"z": 2.7220212208,
				"element": "H" 
			},
			{
				"x": 5.602879461,
				"y": 2.0149888667,
				"z": -3.0366874529,
				"element": "H" 
			},
			{
				"x": 7.7955545865,
				"y": 2.1303856301,
				"z": -1.8673918615,
				"element": "H" 
			},
			{
				"x": 6.0646264339,
				"y": 0.1504406953,
				"z": 1.5357886497,
				"element": "H" 
			},
			{
				"x": -0.9633657844,
				"y": -3.7017546523,
				"z": -0.2547464186,
				"element": "H" 
			},
			{
				"x": -1.1533379797,
				"y": -6.1475895666,
				"z": -0.5760268774,
				"element": "H" 
			},
			{
				"x": 0.7904079908,
				"y": -7.6332617344,
				"z": -0.1046850979,
				"element": "H" 
			},
			{
				"x": 2.9346222786,
				"y": -6.6267197381,
				"z": 0.6646154056,
				"element": "H" 
			},
			{
				"x": 3.1507202572,
				"y": -4.1870618091,
				"z": 0.9194525019,
				"element": "H" 
			}
		],
		 "valence_orbital": [ 
			{
				"type": "occ",
				"energy": -0.25553,
				"method": "rhf"
			},
			{
				"type": "occ",
				"energy": -0.25435,
				"method": "rhf"
			},
			{
				"type": "occ",
				"energy": -0.25284,
				"method": "rhf"
			},
			{
				"type": "occ",
				"energy": -0.22851,
				"method": "rhf"
			},
			{
				"type": "occ",
				"energy": -0.21002,
				"method": "rhf"
			},
			{
				"type": "unocc",
				"energy": -0.07343,
				"method": "rhf"
			},
			{
				"type": "unocc",
				"energy": -0.04393,
				"method": "rhf"
			},
			{
				"type": "unocc",
				"energy": -0.04269,
				"method": "rhf"
			},
			{
				"type": "unocc",
				"energy": -0.03514,
				"method": "rhf"
			},
			{
				"type": "unocc",
				"energy": -0.01612,
				"method": "rhf"
			}
		],
		"cosmo_sigma_profile": { 
			"-0.025": 0.0,
			"-0.024": 0.0,
			"-0.023": 0.0,
			"-0.022": 0.0,
			"-0.021": 0.0,
			"-0.02": 0.0,
			"-0.019": 0.0,
			"-0.018": 0.0,
			"-0.017": 0.0,
			"-0.016": 0.0,
			"-0.015": 0.0,
			"-0.014": 0.0,
			"-0.013": 0.0288991132499,
			"-0.012": 0.481868782615,
			"-0.011": 1.237495139,
			"-0.01": 4.1499086346,
			"-0.009": 11.007768637,
			"-0.008": 11.4535616177,
			"-0.007": 13.0475923935,
			"-0.006": 23.1763387819,
			"-0.005": 28.1282712207,
			"-0.004": 34.1682854501,
			"-0.003": 34.1157366335,
			"-0.002": 28.0628447755,
			"-0.001": 31.9965988669,
			"0.0": 41.5707576606,
			"0.001": 36.644750489,
			"0.002": 39.3768774408,
			"0.003": 43.9862478549,
			"0.004": 36.8758619345,
			"0.005": 19.9176131854,
			"0.006": 10.3866090231,
			"0.007": 5.85179358499,
			"0.008": 5.55914147637,
			"0.009": 9.01293585032,
			"0.01": 9.54112997241,
			"0.011": 6.64873724649,
			"0.012": 4.84740018368,
			"0.013": 0.272717407179,
			"0.014": 0.0,
			"0.015": 0.0,
			"0.016": 0.0,
			"0.017": 0.0,
			"0.018": 0.0,
			"0.019": 0.0,
			"0.02": 0.0,
			"0.021": 0.0,
			"0.022": 0.0,
			"0.023": 0.0,
			"0.024": 0.0,
			"0.025": 0.0
		}
	}
}
