{
	 "smiles": "COC1=CC=C(F)C(O)=C1F", 
	 "Tm": 348.15, 
	 "num_atms": 17, 
	 "gaussian": { 
		 "optdone": 1, 
		 "sigma_profile": "yes", 
		 "theory": "DFT", 
		 "functional": "B3LYP", 
		 "basiset": "6-31G**", 
		 "properties": { 
			 "R2extent": 1765.0111, 
			 "electric_dipole_moment_norm": 2.68090342982, 
			 "electric_quadrupole_moment_norm": 7.66764574495, 
			 "total_energy": -620.442325112, 
			 "HOMO_LUMO_gap": 0.21338, 
			 "cosmo_polarized_energy": -7.57, 
			 "cosmo_cavitation_energy": 21.98, 
			 "cosmo_dispersion_energy": -16.42, 
			 "cosmo_repulsion_energy": 1.28, 
			 "cosmo_total_nonelectrostatic_energy": 6.84, 
			 "SMD_solvation_energy": 5.86 
		},
		"coords": [
			{
				"x": -2.1147903379,
				"y": -1.4456869418,
				"z": -2.2178839422,
				"element": "C" 
			},
			{
				"x": -2.1468439774,
				"y": -0.4728739196,
				"z": -1.1748313285,
				"element": "O" 
			},
			{
				"x": -1.0286290744,
				"y": -0.1690958408,
				"z": -0.4607780392,
				"element": "C" 
			},
			{
				"x": -1.1855664755,
				"y": 0.8033285859,
				"z": 0.5386753074,
				"element": "C" 
			},
			{
				"x": -0.1146429673,
				"y": 1.1989271632,
				"z": 1.335652212,
				"element": "C" 
			},
			{
				"x": 1.1381764708,
				"y": 0.6306379923,
				"z": 1.1510604791,
				"element": "C" 
			},
			{
				"x": 2.1833252809,
				"y": 1.0039382781,
				"z": 1.9149762648,
				"element": "F" 
			},
			{
				"x": 1.3396404793,
				"y": -0.3398130157,
				"z": 0.1690848204,
				"element": "C" 
			},
			{
				"x": 2.5668855984,
				"y": -0.8927576845,
				"z": -0.007792376,
				"element": "O" 
			},
			{
				"x": 0.2476051169,
				"y": -0.7205299475,
				"z": -0.619031777,
				"element": "C" 
			},
			{
				"x": 0.5263213136,
				"y": -1.6770424587,
				"z": -1.5596289956,
				"element": "F" 
			},
			{
				"x": -1.8343459053,
				"y": -2.4345266616,
				"z": -1.842054859,
				"element": "H" 
			},
			{
				"x": -1.4285063136,
				"y": -1.1578177617,
				"z": -3.0202842786,
				"element": "H" 
			},
			{
				"x": -3.1337483631,
				"y": -1.4804753266,
				"z": -2.6065312439,
				"element": "H" 
			},
			{
				"x": -2.1707565419,
				"y": 1.2361022055,
				"z": 0.6684823665,
				"element": "H" 
			},
			{
				"x": -0.2393513514,
				"y": 1.9506706999,
				"z": 2.1070714747,
				"element": "H" 
			},
			{
				"x": 2.4955270479,
				"y": -1.5353853663,
				"z": -0.7284860849,
				"element": "H" 
			}
		],
		 "valence_orbital": [ 
			{
				"type": "occ",
				"energy": -0.36356,
				"method": "rhf"
			},
			{
				"type": "occ",
				"energy": -0.33623,
				"method": "rhf"
			},
			{
				"type": "occ",
				"energy": -0.30679,
				"method": "rhf"
			},
			{
				"type": "occ",
				"energy": -0.2389,
				"method": "rhf"
			},
			{
				"type": "occ",
				"energy": -0.21466,
				"method": "rhf"
			},
			{
				"type": "unocc",
				"energy": -0.00128,
				"method": "rhf"
			},
			{
				"type": "unocc",
				"energy": 0.01129,
				"method": "rhf"
			},
			{
				"type": "unocc",
				"energy": 0.0424,
				"method": "rhf"
			},
			{
				"type": "unocc",
				"energy": 0.09876,
				"method": "rhf"
			},
			{
				"type": "unocc",
				"energy": 0.11051,
				"method": "rhf"
			}
		],
		"cosmo_sigma_profile": { 
			"-0.025": 0.0,
			"-0.024": 0.0,
			"-0.023": 0.0,
			"-0.022": 0.0,
			"-0.021": 0.0,
			"-0.02": 0.0,
			"-0.019": 0.0,
			"-0.018": 0.0,
			"-0.017": 0.215512417551,
			"-0.016": 0.659215418693,
			"-0.015": 1.21939679141,
			"-0.014": 0.268660377096,
			"-0.013": 0.689527719895,
			"-0.012": 0.380103544624,
			"-0.011": 0.970806740044,
			"-0.01": 1.37424716958,
			"-0.009": 0.710003708833,
			"-0.008": 1.47474561413,
			"-0.007": 4.00746163122,
			"-0.006": 6.37183430297,
			"-0.005": 11.1345140771,
			"-0.004": 11.7004589743,
			"-0.003": 14.5755446262,
			"-0.002": 10.1809576457,
			"-0.001": 9.47027213804,
			"0.0": 12.6776488792,
			"0.001": 17.2361307087,
			"0.002": 14.138714835,
			"0.003": 15.7230366397,
			"0.004": 16.3776752178,
			"0.005": 6.51535142047,
			"0.006": 4.61985391121,
			"0.007": 2.99825001604,
			"0.008": 3.08536650666,
			"0.009": 3.87034461046,
			"0.01": 2.87824700677,
			"0.011": 0.442725036676,
			"0.012": 0.0,
			"0.013": 0.0,
			"0.014": 0.0,
			"0.015": 0.0,
			"0.016": 0.0,
			"0.017": 0.0,
			"0.018": 0.0,
			"0.019": 0.0,
			"0.02": 0.0,
			"0.021": 0.0,
			"0.022": 0.0,
			"0.023": 0.0,
			"0.024": 0.0,
			"0.025": 0.0
		}
	}
}
