{
	 "smiles": "COC1=C(C=C(C=C1)C(O)=O)S(Cl)(=O)=O", 
	 "Tm": 427.15, 
	 "num_atms": 22, 
	 "gaussian": { 
		 "optdone": 1, 
		 "sigma_profile": "yes", 
		 "theory": "DFT", 
		 "functional": "B3LYP", 
		 "basiset": "6-31G**", 
		 "properties": { 
			 "R2extent": 4660.6092, 
			 "electric_dipole_moment_norm": 7.5768955846, 
			 "electric_quadrupole_moment_norm": 12.404729197, 
			 "total_energy": -1543.50191161, 
			 "HOMO_LUMO_gap": 0.17861, 
			 "cosmo_polarized_energy": -17.61, 
			 "cosmo_cavitation_energy": 30.59, 
			 "cosmo_dispersion_energy": -22.45, 
			 "cosmo_repulsion_energy": 1.72, 
			 "cosmo_total_nonelectrostatic_energy": 9.86, 
			 "SMD_solvation_energy": 6.11 
		},
		"coords": [
			{
				"x": 1.366207352,
				"y": -2.6652899222,
				"z": 0.3230536108,
				"element": "C" 
			},
			{
				"x": 0.2879845574,
				"y": -1.8180778124,
				"z": 0.7177738517,
				"element": "O" 
			},
			{
				"x": -0.115759905,
				"y": -0.8368463028,
				"z": -0.1019837553,
				"element": "C" 
			},
			{
				"x": -1.1883426258,
				"y": -0.0260673371,
				"z": 0.3416009502,
				"element": "C" 
			},
			{
				"x": -1.6608164539,
				"y": 1.0323885206,
				"z": -0.4226315213,
				"element": "C" 
			},
			{
				"x": -1.0809197125,
				"y": 1.3049868176,
				"z": -1.6666497729,
				"element": "C" 
			},
			{
				"x": -0.0242838655,
				"y": 0.5048293022,
				"z": -2.1189522202,
				"element": "C" 
			},
			{
				"x": 0.4569007171,
				"y": -0.5508354104,
				"z": -1.3509820574,
				"element": "C" 
			},
			{
				"x": -1.622498374,
				"y": 2.441963372,
				"z": -2.4529490743,
				"element": "C" 
			},
			{
				"x": -0.9830639438,
				"y": 2.6127373831,
				"z": -3.6368335675,
				"element": "O" 
			},
			{
				"x": -2.5373234014,
				"y": 3.1557724274,
				"z": -2.0963265077,
				"element": "O" 
			},
			{
				"x": -2.0276264359,
				"y": -0.3586519579,
				"z": 1.8872981143,
				"element": "S" 
			},
			{
				"x": -0.5114412601,
				"y": 0.1180961123,
				"z": 3.3077297111,
				"element": "Cl" 
			},
			{
				"x": -2.3057104712,
				"y": -1.7801820929,
				"z": 2.0307374428,
				"element": "O" 
			},
			{
				"x": -3.070365945,
				"y": 0.6446239953,
				"z": 2.0626452332,
				"element": "O" 
			},
			{
				"x": 1.1229650648,
				"y": -3.2110406356,
				"z": -0.5951712178,
				"element": "H" 
			},
			{
				"x": 1.4956168527,
				"y": -3.370171919,
				"z": 1.143461847,
				"element": "H" 
			},
			{
				"x": 2.2887251249,
				"y": -2.09129085,
				"z": 0.1819975343,
				"element": "H" 
			},
			{
				"x": -2.4779433938,
				"y": 1.6473930792,
				"z": -0.0637025282,
				"element": "H" 
			},
			{
				"x": 0.4270064605,
				"y": 0.7148543729,
				"z": -3.0819982363,
				"element": "H" 
			},
			{
				"x": 1.2785951169,
				"y": -1.1506783487,
				"z": -1.7215760764,
				"element": "H" 
			},
			{
				"x": -1.4114054584,
				"y": 3.3728872061,
				"z": -4.0636417601,
				"element": "H" 
			}
		],
		 "valence_orbital": [ 
			{
				"type": "occ",
				"energy": -0.32798,
				"method": "rhf"
			},
			{
				"type": "occ",
				"energy": -0.3076,
				"method": "rhf"
			},
			{
				"type": "occ",
				"energy": -0.29558,
				"method": "rhf"
			},
			{
				"type": "occ",
				"energy": -0.29114,
				"method": "rhf"
			},
			{
				"type": "occ",
				"energy": -0.26349,
				"method": "rhf"
			},
			{
				"type": "unocc",
				"energy": -0.08488,
				"method": "rhf"
			},
			{
				"type": "unocc",
				"energy": -0.06373,
				"method": "rhf"
			},
			{
				"type": "unocc",
				"energy": -0.04656,
				"method": "rhf"
			},
			{
				"type": "unocc",
				"energy": 0.02654,
				"method": "rhf"
			},
			{
				"type": "unocc",
				"energy": 0.04865,
				"method": "rhf"
			}
		],
		"cosmo_sigma_profile": { 
			"-0.025": 0.0,
			"-0.024": 0.0,
			"-0.023": 0.0,
			"-0.022": 0.0,
			"-0.021": 0.0,
			"-0.02": 0.0,
			"-0.019": 0.303930817846,
			"-0.018": 0.885911710135,
			"-0.017": 0.829823784169,
			"-0.016": 1.15446296354,
			"-0.015": 0.532043926435,
			"-0.014": 0.493717882728,
			"-0.013": 0.409549280877,
			"-0.012": 1.00457440495,
			"-0.011": 0.920263336773,
			"-0.01": 0.69349858931,
			"-0.009": 2.16948765604,
			"-0.008": 6.06092348617,
			"-0.007": 13.4378627934,
			"-0.006": 11.8144401889,
			"-0.005": 11.9518754752,
			"-0.004": 14.0472479195,
			"-0.003": 14.2989363682,
			"-0.002": 18.1995005996,
			"-0.001": 23.6638834751,
			"0.0": 17.2149615366,
			"0.001": 12.9246162441,
			"0.002": 12.8004149793,
			"0.003": 14.1733192421,
			"0.004": 13.7079727468,
			"0.005": 8.45249102679,
			"0.006": 7.45642506769,
			"0.007": 8.16081664003,
			"0.008": 11.9348653254,
			"0.009": 8.3466968601,
			"0.01": 3.05024775957,
			"0.011": 4.53475265379,
			"0.012": 2.05883848187,
			"0.013": 0.0,
			"0.014": 0.0,
			"0.015": 0.0,
			"0.016": 0.0,
			"0.017": 0.0,
			"0.018": 0.0,
			"0.019": 0.0,
			"0.02": 0.0,
			"0.021": 0.0,
			"0.022": 0.0,
			"0.023": 0.0,
			"0.024": 0.0,
			"0.025": 0.0
		}
	}
}
