{
	 "smiles": "CCOC1=CC=C(I)C=C1", 
	 "Tm": 301.65, 
	 "num_atms": 19, 
	 "gaussian": { 
		 "optdone": 1, 
		 "sigma_profile": "no", 
		 "theory": "DFT", 
		 "functional": "B3LYP", 
		 "basiset": "6-31G**", 
		 "properties": { 
			 "R2extent": 2837.9466, 
			 "electric_dipole_moment_norm": 3.10284071779, 
			 "electric_quadrupole_moment_norm": 3.35511043186, 
			 "total_energy": -396.881024485, 
			 "HOMO_LUMO_gap": 0.18497, 
			 "cosmo_polarized_energy": -106238.1, 
			 "cosmo_cavitation_energy": 25.78, 
			 "cosmo_dispersion_energy": -20.6, 
			 "cosmo_repulsion_energy": 1.65, 
			 "cosmo_total_nonelectrostatic_energy": 6.83, 
			 "SMD_solvation_energy": 3.91 
		},
		"coords": [
			{
				"x": 0.1005379525,
				"y": 2.0413427672,
				"z": -3.6783412747,
				"element": "C" 
			},
			{
				"x": 0.0806462177,
				"y": 1.4053632731,
				"z": -2.2995874268,
				"element": "C" 
			},
			{
				"x": 1.3808076482,
				"y": 1.5691360312,
				"z": -1.7314345249,
				"element": "O" 
			},
			{
				"x": 1.6195395817,
				"y": 1.0774766104,
				"z": -0.4843504464,
				"element": "C" 
			},
			{
				"x": 2.9180779874,
				"y": 1.2741700363,
				"z": 0.0103613733,
				"element": "C" 
			},
			{
				"x": 3.2707376759,
				"y": 0.8124724348,
				"z": 1.2728682549,
				"element": "C" 
			},
			{
				"x": 2.3215772667,
				"y": 0.1462155854,
				"z": 2.0556036327,
				"element": "C" 
			},
			{
				"x": 2.8540108825,
				"y": -0.5607504694,
				"z": 3.9837559049,
				"element": "I" 
			},
			{
				"x": 1.0303101239,
				"y": -0.0547569249,
				"z": 1.5754783541,
				"element": "C" 
			},
			{
				"x": 0.6750539063,
				"y": 0.4097384581,
				"z": 0.3049761484,
				"element": "C" 
			},
			{
				"x": 0.3432329045,
				"y": 3.1052038193,
				"z": -3.6084029103,
				"element": "H" 
			},
			{
				"x": -0.8800593289,
				"y": 1.9388762863,
				"z": -4.1530844841,
				"element": "H" 
			},
			{
				"x": 0.846871477,
				"y": 1.5580793288,
				"z": -4.3147666329,
				"element": "H" 
			},
			{
				"x": -0.1660609438,
				"y": 0.3361464413,
				"z": -2.3641291702,
				"element": "H" 
			},
			{
				"x": -0.6704217538,
				"y": 1.8857183449,
				"z": -1.6566172744,
				"element": "H" 
			},
			{
				"x": 3.6383089993,
				"y": 1.7933385814,
				"z": -0.6133845847,
				"element": "H" 
			},
			{
				"x": 4.2777116284,
				"y": 0.9715197437,
				"z": 1.6422384467,
				"element": "H" 
			},
			{
				"x": 0.2915335569,
				"y": -0.5706243216,
				"z": 2.1788111176,
				"element": "H" 
			},
			{
				"x": -0.3348157825,
				"y": 0.2430339738,
				"z": -0.0496945031,
				"element": "H" 
			}
		],
		 "valence_orbital": [ 
			{
				"type": "occ",
				"energy": -0.33295,
				"method": "rhf"
			},
			{
				"type": "occ",
				"energy": -0.27288,
				"method": "rhf"
			},
			{
				"type": "occ",
				"energy": -0.26327,
				"method": "rhf"
			},
			{
				"type": "occ",
				"energy": -0.26163,
				"method": "rhf"
			},
			{
				"type": "occ",
				"energy": -0.21789,
				"method": "rhf"
			},
			{
				"type": "unocc",
				"energy": -0.03292,
				"method": "rhf"
			},
			{
				"type": "unocc",
				"energy": -0.0126,
				"method": "rhf"
			},
			{
				"type": "unocc",
				"energy": -0.00175,
				"method": "rhf"
			},
			{
				"type": "unocc",
				"energy": 0.04596,
				"method": "rhf"
			},
			{
				"type": "unocc",
				"energy": 0.05455,
				"method": "rhf"
			}
		],
		"cosmo_sigma_profile": { 
			"0.0": 0.0,
			"0.0": 0.0,
			"0.0": 0.0,
			"0.0": 0.0,
			"0.0": 0.0,
			"0.0": 0.0,
			"0.0": 0.0,
			"0.0": 0.0,
			"0.0": 0.0,
			"0.0": 0.0,
			"0.0": 0.0,
			"0.0": 0.0,
			"0.0": 0.0,
			"0.0": 0.0,
			"0.0": 0.0,
			"0.0": 0.0,
			"0.0": 0.0,
			"0.0": 0.0,
			"0.0": 0.0,
			"0.0": 0.0,
			"0.0": 0.0,
			"0.0": 0.0,
			"0.0": 0.0,
			"0.0": 0.0,
			"0.0": 0.0,
			"0.0": 0.0,
			"0.0": 0.0,
			"0.0": 0.0,
			"0.0": 0.0,
			"0.0": 0.0,
			"0.0": 0.0,
			"0.0": 0.0,
			"0.0": 0.0,
			"0.0": 0.0,
			"0.0": 0.0,
			"0.0": 0.0,
			"0.0": 0.0,
			"0.0": 0.0,
			"0.0": 0.0,
			"0.0": 0.0,
			"0.0": 0.0,
			"0.0": 0.0,
			"0.0": 0.0,
			"0.0": 0.0,
			"0.0": 0.0,
			"0.0": 0.0,
			"0.0": 0.0,
			"0.0": 0.0,
			"0.0": 0.0,
			"0.0": 0.0,
			"0.0": 0.0
		}
	}
}
