{
	 "smiles": "CN(C)C(=O)C1=NC(C)=C(C=C1)C(O)=O", 
	 "Tm": 410.15, 
	 "num_atms": 27, 
	 "gaussian": { 
		 "optdone": 1, 
		 "sigma_profile": "yes", 
		 "theory": "DFT", 
		 "functional": "B3LYP", 
		 "basiset": "6-31G**", 
		 "properties": { 
			 "R2extent": 4081.0869, 
			 "electric_dipole_moment_norm": 2.03596543684, 
			 "electric_quadrupole_moment_norm": 16.8289860226, 
			 "total_energy": -723.500183046, 
			 "HOMO_LUMO_gap": 0.16517, 
			 "cosmo_polarized_energy": -13.79, 
			 "cosmo_cavitation_energy": 30.98, 
			 "cosmo_dispersion_energy": -22.36, 
			 "cosmo_repulsion_energy": 1.74, 
			 "cosmo_total_nonelectrostatic_energy": 10.36, 
			 "SMD_solvation_energy": 6.56 
		},
		"coords": [
			{
				"x": -0.4100449634,
				"y": 1.3433372885,
				"z": 4.8589067359,
				"element": "C" 
			},
			{
				"x": 0.0607481515,
				"y": 1.1399100759,
				"z": 3.4941479307,
				"element": "N" 
			},
			{
				"x": 1.1852438141,
				"y": 1.9805572144,
				"z": 3.1038873321,
				"element": "C" 
			},
			{
				"x": -0.4922605292,
				"y": 0.1186766685,
				"z": 2.7721306391,
				"element": "C" 
			},
			{
				"x": -1.3029794717,
				"y": -0.6716694973,
				"z": 3.2602995578,
				"element": "O" 
			},
			{
				"x": -0.1431244087,
				"y": -0.0648036839,
				"z": 1.3057491815,
				"element": "C" 
			},
			{
				"x": 0.1200202041,
				"y": 1.0013156117,
				"z": 0.5385484099,
				"element": "N" 
			},
			{
				"x": 0.3291214861,
				"y": 0.8450412626,
				"z": -0.7793906433,
				"element": "C" 
			},
			{
				"x": 0.5944746807,
				"y": 2.116995104,
				"z": -1.5424715157,
				"element": "C" 
			},
			{
				"x": 0.293758563,
				"y": -0.4399995318,
				"z": -1.374064498,
				"element": "C" 
			},
			{
				"x": 0.0150797013,
				"y": -1.5468741059,
				"z": -0.5584236155,
				"element": "C" 
			},
			{
				"x": -0.2210707291,
				"y": -1.3647398847,
				"z": 0.7951042959,
				"element": "C" 
			},
			{
				"x": 0.5408787731,
				"y": -0.6312780168,
				"z": -2.827708169,
				"element": "C" 
			},
			{
				"x": 0.4532587832,
				"y": -1.9342460921,
				"z": -3.2027130412,
				"element": "O" 
			},
			{
				"x": 0.7975502932,
				"y": 0.2428727095,
				"z": -3.6330409027,
				"element": "O" 
			},
			{
				"x": -1.2938303573,
				"y": 0.7301592401,
				"z": 5.0227123757,
				"element": "H" 
			},
			{
				"x": 0.3631308915,
				"y": 1.0598876201,
				"z": 5.5851294557,
				"element": "H" 
			},
			{
				"x": -0.6538947741,
				"y": 2.4012266264,
				"z": 5.0115939991,
				"element": "H" 
			},
			{
				"x": 1.9594521261,
				"y": 1.9277020698,
				"z": 3.8800960561,
				"element": "H" 
			},
			{
				"x": 0.8725508599,
				"y": 3.0271326183,
				"z": 3.0023136313,
				"element": "H" 
			},
			{
				"x": 1.6046181917,
				"y": 1.6616214651,
				"z": 2.1555623652,
				"element": "H" 
			},
			{
				"x": 0.5489811645,
				"y": 2.9539886177,
				"z": -0.8443953909,
				"element": "H" 
			},
			{
				"x": 1.571927379,
				"y": 2.0923337849,
				"z": -2.0322064753,
				"element": "H" 
			},
			{
				"x": -0.1360952384,
				"y": 2.2615846922,
				"z": -2.3429870962,
				"element": "H" 
			},
			{
				"x": -0.0207012282,
				"y": -2.5363597164,
				"z": -0.9988124338,
				"element": "H" 
			},
			{
				"x": -0.4750027839,
				"y": -2.1846694348,
				"z": 1.455103784,
				"element": "H" 
			},
			{
				"x": 0.6291094209,
				"y": -1.9427027058,
				"z": -4.1577719686,
				"element": "H" 
			}
		],
		 "valence_orbital": [ 
			{
				"type": "occ",
				"energy": -0.28394,
				"method": "rhf"
			},
			{
				"type": "occ",
				"energy": -0.27671,
				"method": "rhf"
			},
			{
				"type": "occ",
				"energy": -0.26611,
				"method": "rhf"
			},
			{
				"type": "occ",
				"energy": -0.24595,
				"method": "rhf"
			},
			{
				"type": "occ",
				"energy": -0.23693,
				"method": "rhf"
			},
			{
				"type": "unocc",
				"energy": -0.07176,
				"method": "rhf"
			},
			{
				"type": "unocc",
				"energy": -0.02855,
				"method": "rhf"
			},
			{
				"type": "unocc",
				"energy": 0.01499,
				"method": "rhf"
			},
			{
				"type": "unocc",
				"energy": 0.06866,
				"method": "rhf"
			},
			{
				"type": "unocc",
				"energy": 0.07341,
				"method": "rhf"
			}
		],
		"cosmo_sigma_profile": { 
			"-0.025": 0.0,
			"-0.024": 0.0,
			"-0.023": 0.0,
			"-0.022": 0.0,
			"-0.021": 0.0,
			"-0.02": 0.0,
			"-0.019": 0.184750121402,
			"-0.018": 0.750870987897,
			"-0.017": 1.10855203375,
			"-0.016": 0.673206561381,
			"-0.015": 0.465733178476,
			"-0.014": 0.611045138623,
			"-0.013": 0.961212514554,
			"-0.012": 0.539861304896,
			"-0.011": 0.977205858202,
			"-0.01": 0.458523018471,
			"-0.009": 0.558159888005,
			"-0.008": 0.714962254597,
			"-0.007": 3.63629024162,
			"-0.006": 4.17397720968,
			"-0.005": 12.6082723776,
			"-0.004": 21.7803805419,
			"-0.003": 27.9351943115,
			"-0.002": 31.9722725048,
			"-0.001": 28.4360785115,
			"0.0": 23.8713996384,
			"0.001": 16.507573739,
			"0.002": 8.51701549796,
			"0.003": 6.32363300116,
			"0.004": 6.06461413792,
			"0.005": 6.89589293736,
			"0.006": 5.94057852807,
			"0.007": 5.10779046567,
			"0.008": 4.01949119363,
			"0.009": 3.88979373154,
			"0.01": 4.32715415046,
			"0.011": 5.44605076671,
			"0.012": 3.75269854579,
			"0.013": 4.01251469231,
			"0.014": 2.62084594618,
			"0.015": 0.0,
			"0.016": 0.0,
			"0.017": 0.0,
			"0.018": 0.0,
			"0.019": 0.0,
			"0.02": 0.0,
			"0.021": 0.0,
			"0.022": 0.0,
			"0.023": 0.0,
			"0.024": 0.0,
			"0.025": 0.0
		}
	}
}
