{
	 "smiles": "COC(=O)COC1=C(C)C=C(C=O)C=C1C", 
	 "Tm": 324.15, 
	 "num_atms": 30, 
	 "gaussian": { 
		 "optdone": 1, 
		 "sigma_profile": "yes", 
		 "theory": "DFT", 
		 "functional": "B3LYP", 
		 "basiset": "6-31G**", 
		 "properties": { 
			 "R2extent": 5049.4505, 
			 "electric_dipole_moment_norm": 3.79431799537, 
			 "electric_quadrupole_moment_norm": 20.47853167, 
			 "total_energy": -766.6025015, 
			 "HOMO_LUMO_gap": 0.18915, 
			 "cosmo_polarized_energy": -14.26, 
			 "cosmo_cavitation_energy": 34.75, 
			 "cosmo_dispersion_energy": -23.82, 
			 "cosmo_repulsion_energy": 1.87, 
			 "cosmo_total_nonelectrostatic_energy": 12.8, 
			 "SMD_solvation_energy": 8.9 
		},
		"coords": [
			{
				"x": 1.3632859536,
				"y": -4.2673335004,
				"z": 0.753222428,
				"element": "C" 
			},
			{
				"x": 0.8901348947,
				"y": -2.9316964197,
				"z": 0.4974781912,
				"element": "O" 
			},
			{
				"x": 0.3186445277,
				"y": -2.3214932011,
				"z": 1.545845914,
				"element": "C" 
			},
			{
				"x": 0.2041673733,
				"y": -2.8072411194,
				"z": 2.6499831153,
				"element": "O" 
			},
			{
				"x": -0.1334605876,
				"y": -0.9017605444,
				"z": 1.2374239671,
				"element": "C" 
			},
			{
				"x": -0.3491069267,
				"y": -0.7091286813,
				"z": -0.1526041196,
				"element": "O" 
			},
			{
				"x": -0.3300586655,
				"y": 0.6040365239,
				"z": -0.5900365631,
				"element": "C" 
			},
			{
				"x": 0.9013131194,
				"y": 1.1922456956,
				"z": -0.9278217287,
				"element": "C" 
			},
			{
				"x": 2.1957006826,
				"y": 0.4297972878,
				"z": -0.775943754,
				"element": "C" 
			},
			{
				"x": 0.8779626705,
				"y": 2.4990883148,
				"z": -1.422731424,
				"element": "C" 
			},
			{
				"x": -0.3255983865,
				"y": 3.1932023998,
				"z": -1.5795297442,
				"element": "C" 
			},
			{
				"x": -0.3151686226,
				"y": 4.5735032329,
				"z": -2.1082467127,
				"element": "C" 
			},
			{
				"x": -1.3060536477,
				"y": 5.2582980818,
				"z": -2.2833410792,
				"element": "O" 
			},
			{
				"x": -1.5380672897,
				"y": 2.5709976411,
				"z": -1.24975432,
				"element": "C" 
			},
			{
				"x": -1.5615394637,
				"y": 1.2706227367,
				"z": -0.7532084993,
				"element": "C" 
			},
			{
				"x": -2.8560984359,
				"y": 0.5749568666,
				"z": -0.410605703,
				"element": "C" 
			},
			{
				"x": 1.7706373684,
				"y": -4.6189857418,
				"z": -0.1939721226,
				"element": "H" 
			},
			{
				"x": 0.5410262051,
				"y": -4.9074383239,
				"z": 1.0810695068,
				"element": "H" 
			},
			{
				"x": 2.1350793992,
				"y": -4.2589343039,
				"z": 1.5267329043,
				"element": "H" 
			},
			{
				"x": -1.0446298364,
				"y": -0.7177886034,
				"z": 1.8191155209,
				"element": "H" 
			},
			{
				"x": 0.643229521,
				"y": -0.2240050181,
				"z": 1.6187947103,
				"element": "H" 
			},
			{
				"x": 2.9344146894,
				"y": 0.7722344409,
				"z": -1.5058895393,
				"element": "H" 
			},
			{
				"x": 2.6358733868,
				"y": 0.5750695415,
				"z": 0.2191240983,
				"element": "H" 
			},
			{
				"x": 2.0367939552,
				"y": -0.6426083631,
				"z": -0.9091562737,
				"element": "H" 
			},
			{
				"x": 1.8133631001,
				"y": 2.9818181218,
				"z": -1.7000481459,
				"element": "H" 
			},
			{
				"x": 0.698578697,
				"y": 4.9677922478,
				"z": -2.3469275322,
				"element": "H" 
			},
			{
				"x": -2.459587969,
				"y": 3.1269972023,
				"z": -1.3952281615,
				"element": "H" 
			},
			{
				"x": -2.8979703018,
				"y": -0.4223628704,
				"z": -0.8577200401,
				"element": "H" 
			},
			{
				"x": -2.9718085521,
				"y": 0.4447278754,
				"z": 0.6720252671,
				"element": "H" 
			},
			{
				"x": -3.7116568588,
				"y": 1.1543884801,
				"z": -0.7656501601,
				"element": "H" 
			}
		],
		 "valence_orbital": [ 
			{
				"type": "occ",
				"energy": -0.29183,
				"method": "rhf"
			},
			{
				"type": "occ",
				"energy": -0.28246,
				"method": "rhf"
			},
			{
				"type": "occ",
				"energy": -0.25329,
				"method": "rhf"
			},
			{
				"type": "occ",
				"energy": -0.25139,
				"method": "rhf"
			},
			{
				"type": "occ",
				"energy": -0.2479,
				"method": "rhf"
			},
			{
				"type": "unocc",
				"energy": -0.05875,
				"method": "rhf"
			},
			{
				"type": "unocc",
				"energy": -0.01215,
				"method": "rhf"
			},
			{
				"type": "unocc",
				"energy": -0.00268,
				"method": "rhf"
			},
			{
				"type": "unocc",
				"energy": 0.03831,
				"method": "rhf"
			},
			{
				"type": "unocc",
				"energy": 0.0698,
				"method": "rhf"
			}
		],
		"cosmo_sigma_profile": { 
			"-0.025": 0.0,
			"-0.024": 0.0,
			"-0.023": 0.0,
			"-0.022": 0.0,
			"-0.021": 0.0,
			"-0.02": 0.0,
			"-0.019": 0.0,
			"-0.018": 0.0,
			"-0.017": 0.0,
			"-0.016": 0.0,
			"-0.015": 0.0,
			"-0.014": 0.0,
			"-0.013": 0.0,
			"-0.012": 0.0,
			"-0.011": 0.0,
			"-0.01": 0.0,
			"-0.009": 0.0457114761084,
			"-0.008": 1.98945624836,
			"-0.007": 9.00497859044,
			"-0.006": 19.0239224103,
			"-0.005": 24.8580649161,
			"-0.004": 27.1435122703,
			"-0.003": 22.1274835604,
			"-0.002": 21.0663248808,
			"-0.001": 22.6774080699,
			"0.0": 24.4393924468,
			"0.001": 15.6659595945,
			"0.002": 16.1680632299,
			"0.003": 16.1177974545,
			"0.004": 8.32520681251,
			"0.005": 4.82486480444,
			"0.006": 4.39202741356,
			"0.007": 4.47314721533,
			"0.008": 3.37374973497,
			"0.009": 4.52317141376,
			"0.01": 5.88222535355,
			"0.011": 9.07771631833,
			"0.012": 8.12471360338,
			"0.013": 1.69709597807,
			"0.014": 0.0352925245745,
			"0.015": 0.0,
			"0.016": 0.0,
			"0.017": 0.0,
			"0.018": 0.0,
			"0.019": 0.0,
			"0.02": 0.0,
			"0.021": 0.0,
			"0.022": 0.0,
			"0.023": 0.0,
			"0.024": 0.0,
			"0.025": 0.0
		}
	}
}
