{
	 "smiles": "S=C1SC2=CC=CC=C2N1CSC1=NC2=C(S1)C=CC=C2", 
	 "Tm": 484.15, 
	 "num_atms": 31, 
	 "gaussian": { 
		 "optdone": 1, 
		 "sigma_profile": "yes", 
		 "theory": "DFT", 
		 "functional": "B3LYP", 
		 "basiset": "6-31G**", 
		 "properties": { 
			 "R2extent": 8051.1108, 
			 "electric_dipole_moment_norm": 3.02858418407, 
			 "electric_quadrupole_moment_norm": 27.3919614022, 
			 "total_energy": -2279.88568913, 
			 "HOMO_LUMO_gap": 0.15727, 
			 "cosmo_polarized_energy": -15.13, 
			 "cosmo_cavitation_energy": 41.65, 
			 "cosmo_dispersion_energy": -29.89, 
			 "cosmo_repulsion_energy": 2.1, 
			 "cosmo_total_nonelectrostatic_energy": 13.86, 
			 "SMD_solvation_energy": 3.13 
		},
		"coords": [
			{
				"x": -0.7474207421,
				"y": 3.3687844911,
				"z": 0.2203935752,
				"element": "S" 
			},
			{
				"x": -0.3258531592,
				"y": 2.1858498211,
				"z": 1.3025993984,
				"element": "C" 
			},
			{
				"x": -1.3985252924,
				"y": 1.6349559714,
				"z": 2.5983616414,
				"element": "S" 
			},
			{
				"x": -0.1932559321,
				"y": 0.5108766412,
				"z": 3.2135619941,
				"element": "C" 
			},
			{
				"x": -0.2792144963,
				"y": -0.3412334906,
				"z": 4.3121408529,
				"element": "C" 
			},
			{
				"x": 0.8209951219,
				"y": -1.1414241489,
				"z": 4.6231680414,
				"element": "C" 
			},
			{
				"x": 1.9823565374,
				"y": -1.0854067038,
				"z": 3.844738671,
				"element": "C" 
			},
			{
				"x": 2.0718511035,
				"y": -0.2347443539,
				"z": 2.7426607254,
				"element": "C" 
			},
			{
				"x": 0.9713114979,
				"y": 0.5675521579,
				"z": 2.431106116,
				"element": "C" 
			},
			{
				"x": 0.8701188533,
				"y": 1.4959632535,
				"z": 1.3842205459,
				"element": "N" 
			},
			{
				"x": 1.9285149753,
				"y": 1.7179827748,
				"z": 0.4267031169,
				"element": "C" 
			},
			{
				"x": 2.2616901177,
				"y": 0.3167093506,
				"z": -0.7468637,
				"element": "S" 
			},
			{
				"x": 0.7000560331,
				"y": 0.1694592873,
				"z": -1.5746089629,
				"element": "C" 
			},
			{
				"x": -0.3861076819,
				"y": -0.2574480926,
				"z": -1.0157648849,
				"element": "N" 
			},
			{
				"x": -1.4328711305,
				"y": -0.2798850084,
				"z": -1.9220544882,
				"element": "C" 
			},
			{
				"x": -1.1059188015,
				"y": 0.1254918925,
				"z": -3.2412798355,
				"element": "C" 
			},
			{
				"x": 0.5821940865,
				"y": 0.5801262486,
				"z": -3.299782916,
				"element": "S" 
			},
			{
				"x": -2.063460488,
				"y": 0.1221934475,
				"z": -4.260084157,
				"element": "C" 
			},
			{
				"x": -3.3560758904,
				"y": -0.2823224227,
				"z": -3.9412911973,
				"element": "C" 
			},
			{
				"x": -3.6933449466,
				"y": -0.6817110174,
				"z": -2.6346606328,
				"element": "C" 
			},
			{
				"x": -2.7432599699,
				"y": -0.6849999928,
				"z": -1.6230012882,
				"element": "C" 
			},
			{
				"x": -1.1819584771,
				"y": -0.3785369801,
				"z": 4.9132680033,
				"element": "H" 
			},
			{
				"x": 0.7721633358,
				"y": -1.812081367,
				"z": 5.4751348484,
				"element": "H" 
			},
			{
				"x": 2.8298545364,
				"y": -1.7155265578,
				"z": 4.0952258807,
				"element": "H" 
			},
			{
				"x": 2.9702609684,
				"y": -0.2142013789,
				"z": 2.1379515403,
				"element": "H" 
			},
			{
				"x": 1.6744701222,
				"y": 2.6139272248,
				"z": -0.1385759892,
				"element": "H" 
			},
			{
				"x": 2.8819628436,
				"y": 1.8575636643,
				"z": 0.9432758626,
				"element": "H" 
			},
			{
				"x": -1.8109925927,
				"y": 0.4314168628,
				"z": -5.2691084639,
				"element": "H" 
			},
			{
				"x": -4.1175279644,
				"y": -0.2871150256,
				"z": -4.7154815819,
				"element": "H" 
			},
			{
				"x": -4.7112852906,
				"y": -0.9905880307,
				"z": -2.4176500583,
				"element": "H" 
			},
			{
				"x": -2.9849272771,
				"y": -0.9904285181,
				"z": -0.6106026577,
				"element": "H" 
			}
		],
		 "valence_orbital": [ 
			{
				"type": "occ",
				"energy": -0.25278,
				"method": "rhf"
			},
			{
				"type": "occ",
				"energy": -0.24027,
				"method": "rhf"
			},
			{
				"type": "occ",
				"energy": -0.23809,
				"method": "rhf"
			},
			{
				"type": "occ",
				"energy": -0.22035,
				"method": "rhf"
			},
			{
				"type": "occ",
				"energy": -0.21234,
				"method": "rhf"
			},
			{
				"type": "unocc",
				"energy": -0.05507,
				"method": "rhf"
			},
			{
				"type": "unocc",
				"energy": -0.04553,
				"method": "rhf"
			},
			{
				"type": "unocc",
				"energy": -0.01915,
				"method": "rhf"
			},
			{
				"type": "unocc",
				"energy": -0.00914,
				"method": "rhf"
			},
			{
				"type": "unocc",
				"energy": -0.00791,
				"method": "rhf"
			}
		],
		"cosmo_sigma_profile": { 
			"-0.025": 0.0,
			"-0.024": 0.0,
			"-0.023": 0.0,
			"-0.022": 0.0,
			"-0.021": 0.0,
			"-0.02": 0.0,
			"-0.019": 0.0,
			"-0.018": 0.0,
			"-0.017": 0.0,
			"-0.016": 0.0,
			"-0.015": 0.0,
			"-0.014": 0.0,
			"-0.013": 0.0,
			"-0.012": 0.273940407285,
			"-0.011": 1.73547602371,
			"-0.01": 2.61365379678,
			"-0.009": 2.77856275436,
			"-0.008": 6.19239931808,
			"-0.007": 13.026968397,
			"-0.006": 21.1079043197,
			"-0.005": 21.6575830661,
			"-0.004": 18.8505545102,
			"-0.003": 17.0538210112,
			"-0.002": 17.6676178318,
			"-0.001": 20.5297904249,
			"0.0": 25.1894557136,
			"0.001": 28.8397388051,
			"0.002": 35.8525323797,
			"0.003": 37.6134757398,
			"0.004": 30.7943515779,
			"0.005": 12.8924230659,
			"0.006": 9.69634623341,
			"0.007": 7.38711554708,
			"0.008": 6.60687988699,
			"0.009": 3.40743196304,
			"0.01": 2.41626111827,
			"0.011": 0.770408822635,
			"0.012": 0.323649937391,
			"0.013": 0.0,
			"0.014": 0.0,
			"0.015": 0.0,
			"0.016": 0.0,
			"0.017": 0.0,
			"0.018": 0.0,
			"0.019": 0.0,
			"0.02": 0.0,
			"0.021": 0.0,
			"0.022": 0.0,
			"0.023": 0.0,
			"0.024": 0.0,
			"0.025": 0.0
		}
	}
}
