{
	 "smiles": "NC(=O)NCC=C", 
	 "Tm": 358.15, 
	 "num_atms": 15, 
	 "gaussian": { 
		 "optdone": 1, 
		 "sigma_profile": "yes", 
		 "theory": "DFT", 
		 "functional": "B3LYP", 
		 "basiset": "6-31G**", 
		 "properties": { 
			 "R2extent": 1024.0914, 
			 "electric_dipole_moment_norm": 3.99807554331, 
			 "electric_quadrupole_moment_norm": 10.0573821112, 
			 "total_energy": -341.973122804, 
			 "HOMO_LUMO_gap": 0.23483, 
			 "cosmo_polarized_energy": -13.08, 
			 "cosmo_cavitation_energy": 18.72, 
			 "cosmo_dispersion_energy": -13.69, 
			 "cosmo_repulsion_energy": 1.19, 
			 "cosmo_total_nonelectrostatic_energy": 6.22, 
			 "SMD_solvation_energy": 4.05 
		},
		"coords": [
			{
				"x": -0.6115145174,
				"y": 1.1311559626,
				"z": -1.9688299399,
				"element": "N" 
			},
			{
				"x": 0.561087774,
				"y": 1.1185680067,
				"z": -1.2305388567,
				"element": "C" 
			},
			{
				"x": 1.6174088038,
				"y": 1.57569097,
				"z": -1.6475044011,
				"element": "O" 
			},
			{
				"x": 0.4523775233,
				"y": 0.5715914247,
				"z": 0.0385616979,
				"element": "N" 
			},
			{
				"x": -0.8008895965,
				"y": 0.3618745063,
				"z": 0.758451009,
				"element": "C" 
			},
			{
				"x": -1.5294215747,
				"y": -0.8875961963,
				"z": 0.3228576721,
				"element": "C" 
			},
			{
				"x": -2.8146239699,
				"y": -0.924539947,
				"z": -0.0348090347,
				"element": "C" 
			},
			{
				"x": -0.4511998118,
				"y": 1.3539667178,
				"z": -2.9404652721,
				"element": "H" 
			},
			{
				"x": -1.2998078607,
				"y": 0.4100143573,
				"z": -1.7958023669,
				"element": "H" 
			},
			{
				"x": 1.2869976467,
				"y": 0.7349446557,
				"z": 0.5820332051,
				"element": "H" 
			},
			{
				"x": -1.4660244374,
				"y": 1.2315695934,
				"z": 0.6658731493,
				"element": "H" 
			},
			{
				"x": -0.5413741591,
				"y": 0.2681362091,
				"z": 1.8196216603,
				"element": "H" 
			},
			{
				"x": -0.9305270652,
				"y": -1.7977388751,
				"z": 0.3136767543,
				"element": "H" 
			},
			{
				"x": -3.4298751626,
				"y": -0.0270523601,
				"z": -0.0374373568,
				"element": "H" 
			},
			{
				"x": -3.3029135924,
				"y": -1.8512850251,
				"z": -0.3206879199,
				"element": "H" 
			}
		],
		 "valence_orbital": [ 
			{
				"type": "occ",
				"energy": -0.36603,
				"method": "rhf"
			},
			{
				"type": "occ",
				"energy": -0.28231,
				"method": "rhf"
			},
			{
				"type": "occ",
				"energy": -0.26492,
				"method": "rhf"
			},
			{
				"type": "occ",
				"energy": -0.25104,
				"method": "rhf"
			},
			{
				"type": "occ",
				"energy": -0.23905,
				"method": "rhf"
			},
			{
				"type": "unocc",
				"energy": -0.00422,
				"method": "rhf"
			},
			{
				"type": "unocc",
				"energy": 0.06275,
				"method": "rhf"
			},
			{
				"type": "unocc",
				"energy": 0.0836,
				"method": "rhf"
			},
			{
				"type": "unocc",
				"energy": 0.11328,
				"method": "rhf"
			},
			{
				"type": "unocc",
				"energy": 0.11536,
				"method": "rhf"
			}
		],
		"cosmo_sigma_profile": { 
			"-0.025": 0.0,
			"-0.024": 0.0,
			"-0.023": 0.0,
			"-0.022": 0.0,
			"-0.021": 0.0,
			"-0.02": 0.0,
			"-0.019": 0.0,
			"-0.018": 0.0,
			"-0.017": 0.0,
			"-0.016": 0.0,
			"-0.015": 0.0,
			"-0.014": 0.046075695762,
			"-0.013": 1.61961596076,
			"-0.012": 2.29802553972,
			"-0.011": 1.71436777034,
			"-0.01": 2.12111559745,
			"-0.009": 3.13708909171,
			"-0.008": 3.77530392648,
			"-0.007": 3.34797839307,
			"-0.006": 5.79331215159,
			"-0.005": 11.3517759138,
			"-0.004": 13.1917673098,
			"-0.003": 11.8466599983,
			"-0.002": 12.099720844,
			"-0.001": 10.6404290681,
			"0.0": 8.42692430392,
			"0.001": 8.15483436317,
			"0.002": 6.69945895508,
			"0.003": 4.58766219455,
			"0.004": 4.47162383593,
			"0.005": 4.03748352206,
			"0.006": 3.7397801602,
			"0.007": 2.7194453618,
			"0.008": 1.6507784289,
			"0.009": 1.86877640452,
			"0.01": 1.48654232902,
			"0.011": 1.56023089695,
			"0.012": 1.89084469141,
			"0.013": 1.74825667333,
			"0.014": 4.5411374575,
			"0.015": 5.83265779334,
			"0.016": 0.680838322376,
			"0.017": 0.0,
			"0.018": 0.0,
			"0.019": 0.0,
			"0.02": 0.0,
			"0.021": 0.0,
			"0.022": 0.0,
			"0.023": 0.0,
			"0.024": 0.0,
			"0.025": 0.0
		}
	}
}
