{
	 "smiles": "CCCOC(=O)C1=C(C)NC(=O)NC1C1=CC=CC=C1O", 
	 "Tm": 462.15, 
	 "num_atms": 39, 
	 "gaussian": { 
		 "optdone": 1, 
		 "sigma_profile": "yes", 
		 "theory": "DFT", 
		 "functional": "B3LYP", 
		 "basiset": "6-31G**", 
		 "properties": { 
			 "R2extent": 7268.9981, 
			 "electric_dipole_moment_norm": 2.70622991078, 
			 "electric_quadrupole_moment_norm": 25.9785711043, 
			 "total_energy": -992.883514626, 
			 "HOMO_LUMO_gap": 0.18463, 
			 "cosmo_polarized_energy": -21.15, 
			 "cosmo_cavitation_energy": 41.18, 
			 "cosmo_dispersion_energy": -27.98, 
			 "cosmo_repulsion_energy": 2.17, 
			 "cosmo_total_nonelectrostatic_energy": 15.37, 
			 "SMD_solvation_energy": 8.12 
		},
		"coords": [
			{
				"x": -0.7646833925,
				"y": -1.2787281068,
				"z": -3.0995445252,
				"element": "C" 
			},
			{
				"x": -0.8751299901,
				"y": 0.2250837678,
				"z": -2.8296010785,
				"element": "C" 
			},
			{
				"x": 0.2464599561,
				"y": 0.7787902759,
				"z": -1.9630372076,
				"element": "C" 
			},
			{
				"x": 0.0836493751,
				"y": 0.2762283384,
				"z": -0.6184892577,
				"element": "O" 
			},
			{
				"x": 1.1206354236,
				"y": 0.5367544182,
				"z": 0.2287542528,
				"element": "C" 
			},
			{
				"x": 2.1382767772,
				"y": 1.0964238672,
				"z": -0.1563808208,
				"element": "O" 
			},
			{
				"x": 0.8388925663,
				"y": 0.1021167925,
				"z": 1.5994380696,
				"element": "C" 
			},
			{
				"x": 1.7275368177,
				"y": 0.3797351197,
				"z": 2.5998276117,
				"element": "C" 
			},
			{
				"x": 3.0738253561,
				"y": 1.0340092887,
				"z": 2.4303145015,
				"element": "C" 
			},
			{
				"x": 1.4055759075,
				"y": 0.0690989241,
				"z": 3.9009794066,
				"element": "N" 
			},
			{
				"x": 0.1619176039,
				"y": -0.3932149777,
				"z": 4.3385373983,
				"element": "C" 
			},
			{
				"x": -0.0554055098,
				"y": -0.6002117845,
				"z": 5.5238133987,
				"element": "O" 
			},
			{
				"x": -0.7666331985,
				"y": -0.5094033108,
				"z": 3.3443066327,
				"element": "N" 
			},
			{
				"x": -0.4753383513,
				"y": -0.6073296036,
				"z": 1.9048519962,
				"element": "C" 
			},
			{
				"x": -0.5691920326,
				"y": -2.0561229256,
				"z": 1.4158109692,
				"element": "C" 
			},
			{
				"x": -1.5794916617,
				"y": -2.4183860846,
				"z": 0.5197399384,
				"element": "C" 
			},
			{
				"x": -1.7458315878,
				"y": -3.7329923641,
				"z": 0.0793363434,
				"element": "C" 
			},
			{
				"x": -0.8819933329,
				"y": -4.7220092225,
				"z": 0.5475297561,
				"element": "C" 
			},
			{
				"x": 0.131162052,
				"y": -4.3919118461,
				"z": 1.4467340778,
				"element": "C" 
			},
			{
				"x": 0.2874410626,
				"y": -3.0720920318,
				"z": 1.8816288261,
				"element": "C" 
			},
			{
				"x": 1.2626090194,
				"y": -2.7238522035,
				"z": 2.7729986237,
				"element": "O" 
			},
			{
				"x": -0.7761721545,
				"y": -1.8499851158,
				"z": -2.1677556048,
				"element": "H" 
			},
			{
				"x": 0.1682778051,
				"y": -1.5135614611,
				"z": -3.6246206397,
				"element": "H" 
			},
			{
				"x": -1.5939357165,
				"y": -1.6282213394,
				"z": -3.723134869,
				"element": "H" 
			},
			{
				"x": -1.8373935106,
				"y": 0.4602942067,
				"z": -2.3579349811,
				"element": "H" 
			},
			{
				"x": -0.8538895054,
				"y": 0.7756656942,
				"z": -3.7789670838,
				"element": "H" 
			},
			{
				"x": 1.2317630585,
				"y": 0.4850020719,
				"z": -2.3377483472,
				"element": "H" 
			},
			{
				"x": 0.2226595327,
				"y": 1.8739292264,
				"z": -1.9282790362,
				"element": "H" 
			},
			{
				"x": 3.5885103206,
				"y": 1.1056156546,
				"z": 3.3934916034,
				"element": "H" 
			},
			{
				"x": 3.6939659218,
				"y": 0.4740190327,
				"z": 1.7285130082,
				"element": "H" 
			},
			{
				"x": 2.9688248243,
				"y": 2.0344698797,
				"z": 2.0051469287,
				"element": "H" 
			},
			{
				"x": 2.0693256744,
				"y": 0.2294190826,
				"z": 4.6434751258,
				"element": "H" 
			},
			{
				"x": -1.6307508645,
				"y": -0.9254996077,
				"z": 3.6633733998,
				"element": "H" 
			},
			{
				"x": -1.2706484138,
				"y": -0.0658216786,
				"z": 1.3819821205,
				"element": "H" 
			},
			{
				"x": -2.2486538705,
				"y": -1.6419751545,
				"z": 0.1581609338,
				"element": "H" 
			},
			{
				"x": -2.5411654638,
				"y": -3.9795658825,
				"z": -0.6168168894,
				"element": "H" 
			},
			{
				"x": -0.9928786043,
				"y": -5.7513596219,
				"z": 0.2195034777,
				"element": "H" 
			},
			{
				"x": 0.8067454792,
				"y": -5.1602280761,
				"z": 1.8182822003,
				"element": "H" 
			},
			{
				"x": 1.7315326271,
				"y": -3.517983242,
				"z": 3.05977974,
				"element": "H" 
			}
		],
		 "valence_orbital": [ 
			{
				"type": "occ",
				"energy": -0.25796,
				"method": "rhf"
			},
			{
				"type": "occ",
				"energy": -0.25572,
				"method": "rhf"
			},
			{
				"type": "occ",
				"energy": -0.24559,
				"method": "rhf"
			},
			{
				"type": "occ",
				"energy": -0.22584,
				"method": "rhf"
			},
			{
				"type": "occ",
				"energy": -0.21541,
				"method": "rhf"
			},
			{
				"type": "unocc",
				"energy": -0.03078,
				"method": "rhf"
			},
			{
				"type": "unocc",
				"energy": -0.00482,
				"method": "rhf"
			},
			{
				"type": "unocc",
				"energy": 0.00516,
				"method": "rhf"
			},
			{
				"type": "unocc",
				"energy": 0.06034,
				"method": "rhf"
			},
			{
				"type": "unocc",
				"energy": 0.07002,
				"method": "rhf"
			}
		],
		"cosmo_sigma_profile": { 
			"-0.025": 0.0,
			"-0.024": 0.0,
			"-0.023": 0.0,
			"-0.022": 0.0,
			"-0.021": 0.0,
			"-0.02": 0.0,
			"-0.019": 0.0,
			"-0.018": 0.317850966933,
			"-0.017": 1.08615108813,
			"-0.016": 1.50267433335,
			"-0.015": 1.75840814939,
			"-0.014": 2.75299058626,
			"-0.013": 2.39171188183,
			"-0.012": 3.24472852326,
			"-0.011": 2.73355674744,
			"-0.01": 3.36986953717,
			"-0.009": 3.12642125656,
			"-0.008": 3.17634718444,
			"-0.007": 3.67076794354,
			"-0.006": 7.81466081179,
			"-0.005": 14.7549674565,
			"-0.004": 21.7539499117,
			"-0.003": 29.6978198373,
			"-0.002": 27.9933518533,
			"-0.001": 26.8920026648,
			"0.0": 27.8729182474,
			"0.001": 23.7593997298,
			"0.002": 21.3753882854,
			"0.003": 15.4295660981,
			"0.004": 15.9077160263,
			"0.005": 16.1523530761,
			"0.006": 9.7248717196,
			"0.007": 5.72473156897,
			"0.008": 3.73517958563,
			"0.009": 2.98876708677,
			"0.01": 3.0116509593,
			"0.011": 2.52155680051,
			"0.012": 3.963634404,
			"0.013": 7.7682420792,
			"0.014": 5.9027952152,
			"0.015": 0.34033096006,
			"0.016": 0.0,
			"0.017": 0.0,
			"0.018": 0.0,
			"0.019": 0.0,
			"0.02": 0.0,
			"0.021": 0.0,
			"0.022": 0.0,
			"0.023": 0.0,
			"0.024": 0.0,
			"0.025": 0.0
		}
	}
}
