{
	 "smiles": "COC(=O)C1=CC=C(CBr)S1", 
	 "Tm": 310.15, 
	 "num_atms": 18, 
	 "gaussian": { 
		 "optdone": 1, 
		 "sigma_profile": "yes", 
		 "theory": "DFT", 
		 "functional": "B3LYP", 
		 "basiset": "6-31G**", 
		 "properties": { 
			 "R2extent": 5110.5087, 
			 "electric_dipole_moment_norm": 1.77078770326, 
			 "electric_quadrupole_moment_norm": 14.0354042699, 
			 "total_energy": -3391.00188256, 
			 "HOMO_LUMO_gap": 0.17522, 
			 "cosmo_polarized_energy": -10.09, 
			 "cosmo_cavitation_energy": 26.91, 
			 "cosmo_dispersion_energy": -20.25, 
			 "cosmo_repulsion_energy": 1.61, 
			 "cosmo_total_nonelectrostatic_energy": 8.27, 
			 "SMD_solvation_energy": 4.73 
		},
		"coords": [
			{
				"x": 3.3179165857,
				"y": 0.1409164959,
				"z": -2.5502468431,
				"element": "C" 
			},
			{
				"x": 2.1138850764,
				"y": -0.3332212279,
				"z": -1.9264244875,
				"element": "O" 
			},
			{
				"x": 1.5486890756,
				"y": 0.5166703748,
				"z": -1.0387329593,
				"element": "C" 
			},
			{
				"x": 2.000960652,
				"y": 1.6098189351,
				"z": -0.760931871,
				"element": "O" 
			},
			{
				"x": 0.3210714057,
				"y": -0.043812441,
				"z": -0.4517344562,
				"element": "C" 
			},
			{
				"x": -0.4704218664,
				"y": 0.5889001112,
				"z": 0.4798846266,
				"element": "C" 
			},
			{
				"x": -1.5861692658,
				"y": -0.1903533994,
				"z": 0.8712532889,
				"element": "C" 
			},
			{
				"x": -1.6395187787,
				"y": -1.4152487114,
				"z": 0.2403058562,
				"element": "C" 
			},
			{
				"x": -2.6620584524,
				"y": -2.4693476413,
				"z": 0.4246817712,
				"element": "C" 
			},
			{
				"x": -4.1011470929,
				"y": -2.4223987191,
				"z": -0.9805012443,
				"element": "Br" 
			},
			{
				"x": -0.3051744106,
				"y": -1.616576369,
				"z": -0.8600969234,
				"element": "S" 
			},
			{
				"x": 4.0879982134,
				"y": 0.3354051043,
				"z": -1.799646965,
				"element": "H" 
			},
			{
				"x": 3.6316535828,
				"y": -0.6552599121,
				"z": -3.2247744827,
				"element": "H" 
			},
			{
				"x": 3.1248329459,
				"y": 1.0619897657,
				"z": -3.1056819652,
				"element": "H" 
			},
			{
				"x": -0.2347064799,
				"y": 1.577467568,
				"z": 0.8544377835,
				"element": "H" 
			},
			{
				"x": -2.3307930964,
				"y": 0.1322482528,
				"z": 1.5906751947,
				"element": "H" 
			},
			{
				"x": -3.1956365371,
				"y": -2.3418276938,
				"z": 1.3645723851,
				"element": "H" 
			},
			{
				"x": -2.262381557,
				"y": -3.4791704928,
				"z": 0.3566612915,
				"element": "H" 
			}
		],
		 "valence_orbital": [ 
			{
				"type": "occ",
				"energy": -0.28344,
				"method": "rhf"
			},
			{
				"type": "occ",
				"energy": -0.27982,
				"method": "rhf"
			},
			{
				"type": "occ",
				"energy": -0.27823,
				"method": "rhf"
			},
			{
				"type": "occ",
				"energy": -0.26699,
				"method": "rhf"
			},
			{
				"type": "occ",
				"energy": -0.24749,
				"method": "rhf"
			},
			{
				"type": "unocc",
				"energy": -0.07227,
				"method": "rhf"
			},
			{
				"type": "unocc",
				"energy": -0.01186,
				"method": "rhf"
			},
			{
				"type": "unocc",
				"energy": 0.01547,
				"method": "rhf"
			},
			{
				"type": "unocc",
				"energy": 0.0417,
				"method": "rhf"
			},
			{
				"type": "unocc",
				"energy": 0.07425,
				"method": "rhf"
			}
		],
		"cosmo_sigma_profile": { 
			"-0.025": 0.0,
			"-0.024": 0.0,
			"-0.023": 0.0,
			"-0.022": 0.0,
			"-0.021": 0.0,
			"-0.02": 0.0,
			"-0.019": 0.0,
			"-0.018": 0.0,
			"-0.017": 0.0,
			"-0.016": 0.0,
			"-0.015": 0.0,
			"-0.014": 0.0,
			"-0.013": 0.0,
			"-0.012": 0.0,
			"-0.011": 0.0,
			"-0.01": 0.0,
			"-0.009": 3.41607233368,
			"-0.008": 8.68882693236,
			"-0.007": 8.41609732376,
			"-0.006": 12.4156576989,
			"-0.005": 14.5697108129,
			"-0.004": 14.4656392437,
			"-0.003": 14.1012327197,
			"-0.002": 12.1400506484,
			"-0.001": 10.9192260657,
			"0.0": 13.7857092278,
			"0.001": 17.7723015757,
			"0.002": 23.3760060004,
			"0.003": 16.4222066004,
			"0.004": 9.80588474273,
			"0.005": 11.4510303635,
			"0.006": 13.9184399251,
			"0.007": 2.34126044647,
			"0.008": 1.62707983428,
			"0.009": 1.16521265709,
			"0.01": 2.1221361287,
			"0.011": 3.66306072953,
			"0.012": 3.79478677896,
			"0.013": 0.025614417222,
			"0.014": 0.0,
			"0.015": 0.0,
			"0.016": 0.0,
			"0.017": 0.0,
			"0.018": 0.0,
			"0.019": 0.0,
			"0.02": 0.0,
			"0.021": 0.0,
			"0.022": 0.0,
			"0.023": 0.0,
			"0.024": 0.0,
			"0.025": 0.0
		}
	}
}
