{
	 "smiles": "NC1=CC2=C(CCC2)C=C1", 
	 "Tm": 309.35, 
	 "num_atms": 21, 
	 "gaussian": { 
		 "optdone": 1, 
		 "sigma_profile": "yes", 
		 "theory": "DFT", 
		 "functional": "B3LYP", 
		 "basiset": "6-31G**", 
		 "properties": { 
			 "R2extent": 2738.721, 
			 "electric_dipole_moment_norm": 1.42054169245, 
			 "electric_quadrupole_moment_norm": 13.0008912502, 
			 "total_energy": -404.351954381, 
			 "HOMO_LUMO_gap": 0.19772, 
			 "cosmo_polarized_energy": -7.25, 
			 "cosmo_cavitation_energy": 23.1, 
			 "cosmo_dispersion_energy": -17.61, 
			 "cosmo_repulsion_energy": 1.44, 
			 "cosmo_total_nonelectrostatic_energy": 6.93, 
			 "SMD_solvation_energy": 3.2 
		},
		"coords": [
			{
				"x": 0.0134580607,
				"y": 3.0385124335,
				"z": -3.2751370783,
				"element": "N" 
			},
			{
				"x": -0.4467851781,
				"y": 1.8011421601,
				"z": -2.8050791065,
				"element": "C" 
			},
			{
				"x": 0.4541423618,
				"y": 0.8586522714,
				"z": -2.2765581276,
				"element": "C" 
			},
			{
				"x": -0.0151500365,
				"y": -0.3829471593,
				"z": -1.8612647014,
				"element": "C" 
			},
			{
				"x": -1.3730564804,
				"y": -0.7164605283,
				"z": -1.962304822,
				"element": "C" 
			},
			{
				"x": -1.6158353532,
				"y": -2.1260909772,
				"z": -1.4641512518,
				"element": "C" 
			},
			{
				"x": -0.331548585,
				"y": -2.4315740475,
				"z": -0.6508113177,
				"element": "C" 
			},
			{
				"x": 0.7693825838,
				"y": -1.5442117478,
				"z": -1.2855961583,
				"element": "C" 
			},
			{
				"x": -2.2683306618,
				"y": 0.212229321,
				"z": -2.4892472348,
				"element": "C" 
			},
			{
				"x": -1.8088166612,
				"y": 1.4626514108,
				"z": -2.9049784583,
				"element": "C" 
			},
			{
				"x": 0.8747396188,
				"y": 3.3551056821,
				"z": -2.8501086686,
				"element": "H" 
			},
			{
				"x": -0.6830322151,
				"y": 3.7716586099,
				"z": -3.2805781733,
				"element": "H" 
			},
			{
				"x": 1.509810299,
				"y": 1.110583613,
				"z": -2.1946547378,
				"element": "H" 
			},
			{
				"x": -2.5270787177,
				"y": -2.2259787139,
				"z": -0.8636862994,
				"element": "H" 
			},
			{
				"x": -1.7174886285,
				"y": -2.8247834351,
				"z": -2.3077776173,
				"element": "H" 
			},
			{
				"x": -0.4838506662,
				"y": -2.1248075812,
				"z": 0.39027058,
				"element": "H" 
			},
			{
				"x": -0.0717256112,
				"y": -3.4942620654,
				"z": -0.6443710938,
				"element": "H" 
			},
			{
				"x": 1.5353291997,
				"y": -1.2363627663,
				"z": -0.5651732923,
				"element": "H" 
			},
			{
				"x": 1.2915399488,
				"y": -2.0833882626,
				"z": -2.0893489223,
				"element": "H" 
			},
			{
				"x": -3.3269306894,
				"y": -0.022543181,
				"z": -2.5728890844,
				"element": "H" 
			},
			{
				"x": -2.5078725884,
				"y": 2.189874964,
				"z": -3.311554434,
				"element": "H" 
			}
		],
		 "valence_orbital": [ 
			{
				"type": "occ",
				"energy": -0.32969,
				"method": "rhf"
			},
			{
				"type": "occ",
				"energy": -0.31551,
				"method": "rhf"
			},
			{
				"type": "occ",
				"energy": -0.28337,
				"method": "rhf"
			},
			{
				"type": "occ",
				"energy": -0.23133,
				"method": "rhf"
			},
			{
				"type": "occ",
				"energy": -0.18895,
				"method": "rhf"
			},
			{
				"type": "unocc",
				"energy": 0.00877,
				"method": "rhf"
			},
			{
				"type": "unocc",
				"energy": 0.02867,
				"method": "rhf"
			},
			{
				"type": "unocc",
				"energy": 0.08707,
				"method": "rhf"
			},
			{
				"type": "unocc",
				"energy": 0.10588,
				"method": "rhf"
			},
			{
				"type": "unocc",
				"energy": 0.11818,
				"method": "rhf"
			}
		],
		"cosmo_sigma_profile": { 
			"-0.025": 0.0,
			"-0.024": 0.0,
			"-0.023": 0.0,
			"-0.022": 0.0,
			"-0.021": 0.0,
			"-0.02": 0.0,
			"-0.019": 0.0,
			"-0.018": 0.0,
			"-0.017": 0.0,
			"-0.016": 0.0,
			"-0.015": 0.0,
			"-0.014": 0.0,
			"-0.013": 0.0,
			"-0.012": 1.17624760303,
			"-0.011": 2.43140674015,
			"-0.01": 2.91523743204,
			"-0.009": 3.17780625968,
			"-0.008": 3.74344120492,
			"-0.007": 2.17602229531,
			"-0.006": 2.77979313406,
			"-0.005": 5.50005896524,
			"-0.004": 6.91080927823,
			"-0.003": 15.0439303723,
			"-0.002": 20.1847430926,
			"-0.001": 23.2819214535,
			"0.0": 20.3209459516,
			"0.001": 17.2448079995,
			"0.002": 8.51479118282,
			"0.003": 6.70933023253,
			"0.004": 6.50610130274,
			"0.005": 5.88647834544,
			"0.006": 7.09627796686,
			"0.007": 8.94109631193,
			"0.008": 5.31562173103,
			"0.009": 1.22300010849,
			"0.01": 0.653846829783,
			"0.011": 0.662421215548,
			"0.012": 0.793451056286,
			"0.013": 0.632085593955,
			"0.014": 0.845566781243,
			"0.015": 0.550559505731,
			"0.016": 0.128220015305,
			"0.017": 0.0,
			"0.018": 0.0,
			"0.019": 0.0,
			"0.02": 0.0,
			"0.021": 0.0,
			"0.022": 0.0,
			"0.023": 0.0,
			"0.024": 0.0,
			"0.025": 0.0
		}
	}
}
