{
	 "smiles": "COC1=C(Br)C=C(C=C1)C(C)=O", 
	 "Tm": 356.15, 
	 "num_atms": 21, 
	 "gaussian": { 
		 "optdone": 1, 
		 "sigma_profile": "yes", 
		 "theory": "DFT", 
		 "functional": "B3LYP", 
		 "basiset": "6-31G**", 
		 "properties": { 
			 "R2extent": 4627.6374, 
			 "electric_dipole_moment_norm": 2.3793592793, 
			 "electric_quadrupole_moment_norm": 16.1304278108, 
			 "total_energy": -3070.2243471, 
			 "HOMO_LUMO_gap": 0.17983, 
			 "cosmo_polarized_energy": -10.62, 
			 "cosmo_cavitation_energy": 27.44, 
			 "cosmo_dispersion_energy": -20.35, 
			 "cosmo_repulsion_energy": 1.63, 
			 "cosmo_total_nonelectrostatic_energy": 8.72, 
			 "SMD_solvation_energy": 5.16 
		},
		"coords": [
			{
				"x": -2.767728081,
				"y": -0.5045647351,
				"z": -2.9155605572,
				"element": "C" 
			},
			{
				"x": -2.6715629443,
				"y": 0.5809557097,
				"z": -2.0006788367,
				"element": "O" 
			},
			{
				"x": -1.7071256854,
				"y": 0.5515765376,
				"z": -1.0549510416,
				"element": "C" 
			},
			{
				"x": -1.6435654066,
				"y": 1.6447487077,
				"z": -0.1672465622,
				"element": "C" 
			},
			{
				"x": -2.8923579943,
				"y": 3.0740159322,
				"z": -0.3434734118,
				"element": "Br" 
			},
			{
				"x": -0.6843842285,
				"y": 1.6950650201,
				"z": 0.8331116336,
				"element": "C" 
			},
			{
				"x": 0.2469854827,
				"y": 0.654803689,
				"z": 0.9835757953,
				"element": "C" 
			},
			{
				"x": 0.1842100695,
				"y": -0.4316909711,
				"z": 0.1016942462,
				"element": "C" 
			},
			{
				"x": -0.7745128937,
				"y": -0.4876940513,
				"z": -0.9024485921,
				"element": "C" 
			},
			{
				"x": 1.3020603667,
				"y": 0.6563381117,
				"z": 2.0431903063,
				"element": "C" 
			},
			{
				"x": 1.3760418589,
				"y": 1.8317588784,
				"z": 3.0036497676,
				"element": "C" 
			},
			{
				"x": 2.0915622926,
				"y": -0.272872017,
				"z": 2.1347935849,
				"element": "O" 
			},
			{
				"x": -3.6036386666,
				"y": -0.2625435631,
				"z": -3.5723792637,
				"element": "H" 
			},
			{
				"x": -2.9736889112,
				"y": -1.4488136756,
				"z": -2.3975221919,
				"element": "H" 
			},
			{
				"x": -1.8539336532,
				"y": -0.6080615279,
				"z": -3.5127692442,
				"element": "H" 
			},
			{
				"x": -0.6716240751,
				"y": 2.5540715754,
				"z": 1.4932231201,
				"element": "H" 
			},
			{
				"x": 0.9064933369,
				"y": -1.2316989008,
				"z": 0.2233708363,
				"element": "H" 
			},
			{
				"x": -0.7994673268,
				"y": -1.34046613,
				"z": -1.5702251904,
				"element": "H" 
			},
			{
				"x": 1.5451484508,
				"y": 2.7709393892,
				"z": 2.4652749428,
				"element": "H" 
			},
			{
				"x": 0.4418738244,
				"y": 1.941065048,
				"z": 3.5656894652,
				"element": "H" 
			},
			{
				"x": 2.1980141841,
				"y": 1.661366973,
				"z": 3.6992811933,
				"element": "H" 
			}
		],
		 "valence_orbital": [ 
			{
				"type": "occ",
				"energy": -0.31364,
				"method": "rhf"
			},
			{
				"type": "occ",
				"energy": -0.28562,
				"method": "rhf"
			},
			{
				"type": "occ",
				"energy": -0.25852,
				"method": "rhf"
			},
			{
				"type": "occ",
				"energy": -0.24799,
				"method": "rhf"
			},
			{
				"type": "occ",
				"energy": -0.23264,
				"method": "rhf"
			},
			{
				"type": "unocc",
				"energy": -0.05281,
				"method": "rhf"
			},
			{
				"type": "unocc",
				"energy": -0.02048,
				"method": "rhf"
			},
			{
				"type": "unocc",
				"energy": 0.00542,
				"method": "rhf"
			},
			{
				"type": "unocc",
				"energy": 0.04129,
				"method": "rhf"
			},
			{
				"type": "unocc",
				"energy": 0.08874,
				"method": "rhf"
			}
		],
		"cosmo_sigma_profile": { 
			"-0.025": 0.0,
			"-0.024": 0.0,
			"-0.023": 0.0,
			"-0.022": 0.0,
			"-0.021": 0.0,
			"-0.02": 0.0,
			"-0.019": 0.0,
			"-0.018": 0.0,
			"-0.017": 0.0,
			"-0.016": 0.0,
			"-0.015": 0.0,
			"-0.014": 0.0,
			"-0.013": 0.0,
			"-0.012": 0.0,
			"-0.011": 0.0,
			"-0.01": 0.0,
			"-0.009": 0.0,
			"-0.008": 0.805181289431,
			"-0.007": 9.06289876835,
			"-0.006": 18.7041182703,
			"-0.005": 18.1232032343,
			"-0.004": 18.5015764696,
			"-0.003": 15.6222100803,
			"-0.002": 13.2273200753,
			"-0.001": 14.9699480837,
			"0.0": 14.2694452291,
			"0.001": 17.0031538194,
			"0.002": 20.3769040454,
			"0.003": 14.84488063,
			"0.004": 11.9676537244,
			"0.005": 8.08067240954,
			"0.006": 4.8086548157,
			"0.007": 3.30354671753,
			"0.008": 2.94525043788,
			"0.009": 3.82516784809,
			"0.01": 2.23311714569,
			"0.011": 3.07684461926,
			"0.012": 4.16123030032,
			"0.013": 1.90928740827,
			"0.014": 0.230388647182,
			"0.015": 0.0,
			"0.016": 0.0,
			"0.017": 0.0,
			"0.018": 0.0,
			"0.019": 0.0,
			"0.02": 0.0,
			"0.021": 0.0,
			"0.022": 0.0,
			"0.023": 0.0,
			"0.024": 0.0,
			"0.025": 0.0
		}
	}
}
