{
	 "smiles": "OC(=O)COC1=C(Br)C=C(C=O)C=C1", 
	 "Tm": 470.15, 
	 "num_atms": 21, 
	 "gaussian": { 
		 "optdone": 1, 
		 "sigma_profile": "yes", 
		 "theory": "DFT", 
		 "functional": "B3LYP", 
		 "basiset": "6-31G**", 
		 "properties": { 
			 "R2extent": 4461.7956, 
			 "electric_dipole_moment_norm": 2.53862329817, 
			 "electric_quadrupole_moment_norm": 13.6203053751, 
			 "total_energy": -3219.46101235, 
			 "HOMO_LUMO_gap": 0.17734, 
			 "cosmo_polarized_energy": -16.4, 
			 "cosmo_cavitation_energy": 29.17, 
			 "cosmo_dispersion_energy": -21.04, 
			 "cosmo_repulsion_energy": 1.69, 
			 "cosmo_total_nonelectrostatic_energy": 9.81, 
			 "SMD_solvation_energy": 6.53 
		},
		"coords": [
			{
				"x": 1.2551182331,
				"y": -0.3222059161,
				"z": -2.6721154002,
				"element": "O" 
			},
			{
				"x": 1.292318209,
				"y": 1.0065715588,
				"z": -2.4767272837,
				"element": "C" 
			},
			{
				"x": 1.0220694147,
				"y": 1.8304686955,
				"z": -3.3202986088,
				"element": "O" 
			},
			{
				"x": 1.7669443251,
				"y": 1.3891026232,
				"z": -1.0771862285,
				"element": "C" 
			},
			{
				"x": 1.6577253737,
				"y": 0.3739975013,
				"z": -0.0976571034,
				"element": "O" 
			},
			{
				"x": 0.4340939649,
				"y": 0.0511214962,
				"z": 0.3916491146,
				"element": "C" 
			},
			{
				"x": 0.3967865421,
				"y": -0.9317591931,
				"z": 1.400725402,
				"element": "C" 
			},
			{
				"x": 2.0149512156,
				"y": -1.7350857854,
				"z": 1.9999846328,
				"element": "Br" 
			},
			{
				"x": -0.8111662578,
				"y": -1.3161801587,
				"z": 1.9622986695,
				"element": "C" 
			},
			{
				"x": -2.0108592031,
				"y": -0.7311736875,
				"z": 1.5337210174,
				"element": "C" 
			},
			{
				"x": -3.2932432569,
				"y": -1.1473204335,
				"z": 2.1374743944,
				"element": "C" 
			},
			{
				"x": -4.3795620253,
				"y": -0.6955489039,
				"z": 1.8267738043,
				"element": "O" 
			},
			{
				"x": -1.9778238296,
				"y": 0.2453254963,
				"z": 0.5306579083,
				"element": "C" 
			},
			{
				"x": -0.771067498,
				"y": 0.6339754662,
				"z": -0.0365467181,
				"element": "C" 
			},
			{
				"x": 0.9610838577,
				"y": -0.4595411952,
				"z": -3.5890370313,
				"element": "H" 
			},
			{
				"x": 1.2516548945,
				"y": 2.3096467165,
				"z": -0.7844772666,
				"element": "H" 
			},
			{
				"x": 2.8364751275,
				"y": 1.6102024806,
				"z": -1.1443816848,
				"element": "H" 
			},
			{
				"x": -0.8208200026,
				"y": -2.0746465589,
				"z": 2.7392363373,
				"element": "H" 
			},
			{
				"x": -3.2024201199,
				"y": -1.9292646711,
				"z": 2.9240617103,
				"element": "H" 
			},
			{
				"x": -2.9135898518,
				"y": 0.6885773556,
				"z": 0.2061919319,
				"element": "H" 
			},
			{
				"x": -0.7693691128,
				"y": 1.387637113,
				"z": -0.8155475973,
				"element": "H" 
			}
		],
		 "valence_orbital": [ 
			{
				"type": "occ",
				"energy": -0.29943,
				"method": "rhf"
			},
			{
				"type": "occ",
				"energy": -0.29153,
				"method": "rhf"
			},
			{
				"type": "occ",
				"energy": -0.26777,
				"method": "rhf"
			},
			{
				"type": "occ",
				"energy": -0.25892,
				"method": "rhf"
			},
			{
				"type": "occ",
				"energy": -0.24298,
				"method": "rhf"
			},
			{
				"type": "unocc",
				"energy": -0.06564,
				"method": "rhf"
			},
			{
				"type": "unocc",
				"energy": -0.03241,
				"method": "rhf"
			},
			{
				"type": "unocc",
				"energy": -0.01464,
				"method": "rhf"
			},
			{
				"type": "unocc",
				"energy": -0.00148,
				"method": "rhf"
			},
			{
				"type": "unocc",
				"energy": 0.0348,
				"method": "rhf"
			}
		],
		"cosmo_sigma_profile": { 
			"-0.025": 0.0,
			"-0.024": 0.0,
			"-0.023": 0.0,
			"-0.022": 0.0,
			"-0.021": 0.0,
			"-0.02": 0.0,
			"-0.019": 0.680556811033,
			"-0.018": 1.02662951819,
			"-0.017": 0.929143456501,
			"-0.016": 0.821386811108,
			"-0.015": 0.990685872391,
			"-0.014": 0.626346957762,
			"-0.013": 0.364747064245,
			"-0.012": 0.761166642388,
			"-0.011": 0.955480187636,
			"-0.01": 3.06631840378,
			"-0.009": 5.98556651593,
			"-0.008": 10.3649811255,
			"-0.007": 11.5090826714,
			"-0.006": 12.3423957789,
			"-0.005": 10.2008342783,
			"-0.004": 10.0825608669,
			"-0.003": 10.2367720428,
			"-0.002": 11.7138532238,
			"-0.001": 11.3976751141,
			"0.0": 16.2170153475,
			"0.001": 22.0576519633,
			"0.002": 16.1102664744,
			"0.003": 12.9877386644,
			"0.004": 13.5647018633,
			"0.005": 7.82961613477,
			"0.006": 6.01450133812,
			"0.007": 6.03659077292,
			"0.008": 7.1436001379,
			"0.009": 4.56623986877,
			"0.01": 5.67019831302,
			"0.011": 9.51339696871,
			"0.012": 4.28748428503,
			"0.013": 0.78823248827,
			"0.014": 0.0,
			"0.015": 0.0,
			"0.016": 0.0,
			"0.017": 0.0,
			"0.018": 0.0,
			"0.019": 0.0,
			"0.02": 0.0,
			"0.021": 0.0,
			"0.022": 0.0,
			"0.023": 0.0,
			"0.024": 0.0,
			"0.025": 0.0
		}
	}
}
