{
	 "smiles": "BrC1=CC2=NSN=C2C=C1", 
	 "Tm": 332.65, 
	 "num_atms": 13, 
	 "gaussian": { 
		 "optdone": 1, 
		 "sigma_profile": "yes", 
		 "theory": "DFT", 
		 "functional": "B3LYP", 
		 "basiset": "6-31G**", 
		 "properties": { 
			 "R2extent": 4264.9064, 
			 "electric_dipole_moment_norm": 0.918105898031, 
			 "electric_quadrupole_moment_norm": 3.56014352239, 
			 "total_energy": -3309.51315764, 
			 "HOMO_LUMO_gap": 0.15191, 
			 "cosmo_polarized_energy": -5.26, 
			 "cosmo_cavitation_energy": 21.66, 
			 "cosmo_dispersion_energy": -17.56, 
			 "cosmo_repulsion_energy": 1.34, 
			 "cosmo_total_nonelectrostatic_energy": 5.44, 
			 "SMD_solvation_energy": -0.79 
		},
		"coords": [
			{
				"x": -2.950969389,
				"y": 3.3709639557,
				"z": 0.6099165988,
				"element": "Br" 
			},
			{
				"x": -1.5565908187,
				"y": 2.2095635118,
				"z": 0.0186458408,
				"element": "C" 
			},
			{
				"x": -0.3584930721,
				"y": 2.739167292,
				"z": -0.3785739254,
				"element": "C" 
			},
			{
				"x": 0.6474171762,
				"y": 1.8265458116,
				"z": -0.8106269562,
				"element": "C" 
			},
			{
				"x": 1.8754350379,
				"y": 2.1526004778,
				"z": -1.2336012865,
				"element": "N" 
			},
			{
				"x": 2.6207074297,
				"y": 0.7359368453,
				"z": -1.60718882,
				"element": "S" 
			},
			{
				"x": 1.4238612587,
				"y": -0.3318225023,
				"z": -1.2497783894,
				"element": "N" 
			},
			{
				"x": 0.3885199604,
				"y": 0.3994037839,
				"z": -0.8201298742,
				"element": "C" 
			},
			{
				"x": -0.8788989672,
				"y": -0.0956688675,
				"z": -0.3952466167,
				"element": "C" 
			},
			{
				"x": -1.8278765856,
				"y": 0.8022866475,
				"z": 0.0150607161,
				"element": "C" 
			},
			{
				"x": -0.1641739676,
				"y": 3.8042463005,
				"z": -0.3719334395,
				"element": "H" 
			},
			{
				"x": -1.0710078681,
				"y": -1.1627984432,
				"z": -0.4029699533,
				"element": "H" 
			},
			{
				"x": -2.8024301945,
				"y": 0.461375187,
				"z": 0.3446261055,
				"element": "H" 
			}
		],
		 "valence_orbital": [ 
			{
				"type": "occ",
				"energy": -0.31486,
				"method": "rhf"
			},
			{
				"type": "occ",
				"energy": -0.30875,
				"method": "rhf"
			},
			{
				"type": "occ",
				"energy": -0.29911,
				"method": "rhf"
			},
			{
				"type": "occ",
				"energy": -0.26788,
				"method": "rhf"
			},
			{
				"type": "occ",
				"energy": -0.24816,
				"method": "rhf"
			},
			{
				"type": "unocc",
				"energy": -0.09625,
				"method": "rhf"
			},
			{
				"type": "unocc",
				"energy": -0.00854,
				"method": "rhf"
			},
			{
				"type": "unocc",
				"energy": -0.00627,
				"method": "rhf"
			},
			{
				"type": "unocc",
				"energy": -0.005,
				"method": "rhf"
			},
			{
				"type": "unocc",
				"energy": 0.00792,
				"method": "rhf"
			}
		],
		"cosmo_sigma_profile": { 
			"-0.025": 0.0,
			"-0.024": 0.0,
			"-0.023": 0.0,
			"-0.022": 0.0,
			"-0.021": 0.0,
			"-0.02": 0.0,
			"-0.019": 0.0,
			"-0.018": 0.0,
			"-0.017": 0.0,
			"-0.016": 0.0,
			"-0.015": 0.0,
			"-0.014": 0.0,
			"-0.013": 0.0,
			"-0.012": 0.0,
			"-0.011": 0.0,
			"-0.01": 0.0,
			"-0.009": 0.476947085962,
			"-0.008": 4.12427730924,
			"-0.007": 5.43784462983,
			"-0.006": 4.80821486367,
			"-0.005": 7.8554919163,
			"-0.004": 11.7067950232,
			"-0.003": 13.6172386218,
			"-0.002": 17.9870778115,
			"-0.001": 20.4224210295,
			"0.0": 20.4469444999,
			"0.001": 20.3859910278,
			"0.002": 11.8346957016,
			"0.003": 12.3041440911,
			"0.004": 12.0261987719,
			"0.005": 1.95834671426,
			"0.006": 2.9457638184,
			"0.007": 2.43694906905,
			"0.008": 1.93491579402,
			"0.009": 2.31853484285,
			"0.01": 1.48701402774,
			"0.011": 2.18727641402,
			"0.012": 2.06279452256,
			"0.013": 0.856533850849,
			"0.014": 0.0,
			"0.015": 0.0,
			"0.016": 0.0,
			"0.017": 0.0,
			"0.018": 0.0,
			"0.019": 0.0,
			"0.02": 0.0,
			"0.021": 0.0,
			"0.022": 0.0,
			"0.023": 0.0,
			"0.024": 0.0,
			"0.025": 0.0
		}
	}
}
