{
	 "smiles": "CCOC(=O)C1=C(C)C2=C(S1)N=C(CN1CCOCC1)N=C2Cl", 
	 "Tm": 384.15, 
	 "num_atms": 41, 
	 "gaussian": { 
		 "optdone": 1, 
		 "sigma_profile": "yes", 
		 "theory": "DFT", 
		 "functional": "B3LYP", 
		 "basiset": "6-31G**", 
		 "properties": { 
			 "R2extent": 11797.2047, 
			 "electric_dipole_moment_norm": 3.77201973749, 
			 "electric_quadrupole_moment_norm": 19.2380934042, 
			 "total_energy": -1830.73624564, 
			 "HOMO_LUMO_gap": 0.1223, 
			 "cosmo_polarized_energy": -12.52, 
			 "cosmo_cavitation_energy": 46.31, 
			 "cosmo_dispersion_energy": -33.13, 
			 "cosmo_repulsion_energy": 2.51, 
			 "cosmo_total_nonelectrostatic_energy": 15.69, 
			 "SMD_solvation_energy": 3.53 
		},
		"coords": [
			{
				"x": 2.2234781306,
				"y": -6.5366823964,
				"z": -0.0408966552,
				"element": "C" 
			},
			{
				"x": 0.9504745089,
				"y": -6.5013540208,
				"z": 0.7896916843,
				"element": "C" 
			},
			{
				"x": 0.562017951,
				"y": -5.1367515519,
				"z": 1.1054114064,
				"element": "O" 
			},
			{
				"x": -0.1601493833,
				"y": -4.4901561437,
				"z": 0.1702279823,
				"element": "C" 
			},
			{
				"x": -0.4956270793,
				"y": -4.988002771,
				"z": -0.8902816326,
				"element": "O" 
			},
			{
				"x": -0.5341770332,
				"y": -3.1019347685,
				"z": 0.5284641713,
				"element": "C" 
			},
			{
				"x": -0.2842440887,
				"y": -2.316036397,
				"z": 1.6328177901,
				"element": "C" 
			},
			{
				"x": 0.5027020262,
				"y": -2.7279381715,
				"z": 2.8471599714,
				"element": "C" 
			},
			{
				"x": -0.8902000642,
				"y": -1.009538951,
				"z": 1.4684711008,
				"element": "C" 
			},
			{
				"x": -1.5778393968,
				"y": -0.8712592521,
				"z": 0.2311710952,
				"element": "C" 
			},
			{
				"x": -1.4912855963,
				"y": -2.3161233148,
				"z": -0.7302172845,
				"element": "S" 
			},
			{
				"x": -2.23065675,
				"y": 0.2183332371,
				"z": -0.1768071198,
				"element": "N" 
			},
			{
				"x": -2.2136020438,
				"y": 1.2473976859,
				"z": 0.6733869137,
				"element": "C" 
			},
			{
				"x": -2.883273387,
				"y": 2.5391595665,
				"z": 0.2388454386,
				"element": "C" 
			},
			{
				"x": -2.0049633669,
				"y": 3.4779743894,
				"z": -0.4527406247,
				"element": "N" 
			},
			{
				"x": -0.9937492469,
				"y": 4.1310678675,
				"z": 0.3798182083,
				"element": "C" 
			},
			{
				"x": -0.137233017,
				"y": 5.0350356146,
				"z": -0.4996685392,
				"element": "C" 
			},
			{
				"x": 0.5844820191,
				"y": 4.3112933731,
				"z": -1.498492932,
				"element": "O" 
			},
			{
				"x": 0.0160077039,
				"y": 3.0501875284,
				"z": -1.8370164599,
				"element": "C" 
			},
			{
				"x": -1.510865335,
				"y": 3.0615847492,
				"z": -1.7793976931,
				"element": "C" 
			},
			{
				"x": -1.5912791718,
				"y": 1.2474831865,
				"z": 1.8770723227,
				"element": "N" 
			},
			{
				"x": -0.9560914164,
				"y": 0.1611581306,
				"z": 2.2541415801,
				"element": "C" 
			},
			{
				"x": -0.1831005788,
				"y": 0.2589527986,
				"z": 3.8325383353,
				"element": "Cl" 
			},
			{
				"x": 2.532236659,
				"y": -7.5758273283,
				"z": -0.1953621045,
				"element": "H" 
			},
			{
				"x": 3.0364615741,
				"y": -6.0093424709,
				"z": 0.4665954819,
				"element": "H" 
			},
			{
				"x": 2.0582530787,
				"y": -6.0798141823,
				"z": -1.0193493453,
				"element": "H" 
			},
			{
				"x": 1.0930139142,
				"y": -6.9672838069,
				"z": 1.7671084469,
				"element": "H" 
			},
			{
				"x": 0.1223824605,
				"y": -6.9876595354,
				"z": 0.2700794949,
				"element": "H" 
			},
			{
				"x": 0.8666876014,
				"y": -3.7464512272,
				"z": 2.7492378717,
				"element": "H" 
			},
			{
				"x": -0.1153899,
				"y": -2.6565296012,
				"z": 3.7472323742,
				"element": "H" 
			},
			{
				"x": 1.3550130038,
				"y": -2.0585009966,
				"z": 2.9970317849,
				"element": "H" 
			},
			{
				"x": -3.2826489476,
				"y": 3.0376546648,
				"z": 1.1281986494,
				"element": "H" 
			},
			{
				"x": -3.7158019714,
				"y": 2.2856735897,
				"z": -0.424369623,
				"element": "H" 
			},
			{
				"x": -1.4990574991,
				"y": 4.7361013449,
				"z": 1.1439515693,
				"element": "H" 
			},
			{
				"x": -0.3394227706,
				"y": 3.426168533,
				"z": 0.9195289407,
				"element": "H" 
			},
			{
				"x": 0.6018680027,
				"y": 5.5645002707,
				"z": 0.111758925,
				"element": "H" 
			},
			{
				"x": -0.7827496609,
				"y": 5.7865605024,
				"z": -0.9794707311,
				"element": "H" 
			},
			{
				"x": 0.4052469823,
				"y": 2.2634908657,
				"z": -1.1705347903,
				"element": "H" 
			},
			{
				"x": 0.3552730709,
				"y": 2.817341437,
				"z": -2.8520347229,
				"element": "H" 
			},
			{
				"x": -1.8799581137,
				"y": 2.0605761271,
				"z": -2.0251706941,
				"element": "H" 
			},
			{
				"x": -1.8915328687,
				"y": 3.7505914249,
				"z": -2.5477305873,
				"element": "H" 
			}
		],
		 "valence_orbital": [ 
			{
				"type": "occ",
				"energy": -0.27732,
				"method": "rhf"
			},
			{
				"type": "occ",
				"energy": -0.27277,
				"method": "rhf"
			},
			{
				"type": "occ",
				"energy": -0.24881,
				"method": "rhf"
			},
			{
				"type": "occ",
				"energy": -0.24197,
				"method": "rhf"
			},
			{
				"type": "occ",
				"energy": -0.20478,
				"method": "rhf"
			},
			{
				"type": "unocc",
				"energy": -0.08248,
				"method": "rhf"
			},
			{
				"type": "unocc",
				"energy": -0.04899,
				"method": "rhf"
			},
			{
				"type": "unocc",
				"energy": -0.01583,
				"method": "rhf"
			},
			{
				"type": "unocc",
				"energy": 0.00233,
				"method": "rhf"
			},
			{
				"type": "unocc",
				"energy": 0.03055,
				"method": "rhf"
			}
		],
		"cosmo_sigma_profile": { 
			"-0.025": 0.0,
			"-0.024": 0.0,
			"-0.023": 0.0,
			"-0.022": 0.0,
			"-0.021": 0.0,
			"-0.02": 0.0,
			"-0.019": 0.0,
			"-0.018": 0.0,
			"-0.017": 0.0,
			"-0.016": 0.0,
			"-0.015": 0.0,
			"-0.014": 0.0,
			"-0.013": 0.0,
			"-0.012": 0.0,
			"-0.011": 0.0,
			"-0.01": 0.0,
			"-0.009": 0.0,
			"-0.008": 0.0,
			"-0.007": 0.222346297698,
			"-0.006": 2.84396881002,
			"-0.005": 19.5116438452,
			"-0.004": 39.4108432698,
			"-0.003": 53.2275269304,
			"-0.002": 49.5306438194,
			"-0.001": 46.027865513,
			"0.0": 37.038802399,
			"0.001": 24.588378863,
			"0.002": 18.5500723139,
			"0.003": 19.7529651988,
			"0.004": 11.2656137924,
			"0.005": 7.46613820493,
			"0.006": 6.32897971952,
			"0.007": 5.59800111287,
			"0.008": 5.72589501739,
			"0.009": 4.53296348635,
			"0.01": 5.51610653727,
			"0.011": 6.6975215835,
			"0.012": 2.73516619243,
			"0.013": 2.28523007983,
			"0.014": 1.60045252262,
			"0.015": 7.38606785552e-05,
			"0.016": 0.0,
			"0.017": 0.0,
			"0.018": 0.0,
			"0.019": 0.0,
			"0.02": 0.0,
			"0.021": 0.0,
			"0.022": 0.0,
			"0.023": 0.0,
			"0.024": 0.0,
			"0.025": 0.0
		}
	}
}
