{
	 "smiles": "NC1=C(C=CC=C1)C1=C2CCCC2=NN1", 
	 "Tm": 402.15, 
	 "num_atms": 28, 
	 "gaussian": { 
		 "optdone": 1, 
		 "sigma_profile": "yes", 
		 "theory": "DFT", 
		 "functional": "B3LYP", 
		 "basiset": "6-31G**", 
		 "properties": { 
			 "R2extent": 4837.219, 
			 "electric_dipole_moment_norm": 2.60018591258, 
			 "electric_quadrupole_moment_norm": 11.8473113372, 
			 "total_energy": -629.354754791, 
			 "HOMO_LUMO_gap": 0.17914, 
			 "cosmo_polarized_energy": -11.86, 
			 "cosmo_cavitation_energy": 30.14, 
			 "cosmo_dispersion_energy": -22.7, 
			 "cosmo_repulsion_energy": 1.78, 
			 "cosmo_total_nonelectrostatic_energy": 9.22, 
			 "SMD_solvation_energy": 3.21 
		},
		"coords": [
			{
				"x": -2.9202507888,
				"y": -2.1114450937,
				"z": -2.2042663779,
				"element": "N" 
			},
			{
				"x": -3.3722296739,
				"y": -1.6767118603,
				"z": -0.9406137081,
				"element": "C" 
			},
			{
				"x": -2.6725830401,
				"y": -0.6682266063,
				"z": -0.2290609677,
				"element": "C" 
			},
			{
				"x": -3.1648896127,
				"y": -0.2743593889,
				"z": 1.0265671518,
				"element": "C" 
			},
			{
				"x": -4.2923750126,
				"y": -0.8624626271,
				"z": 1.5927000032,
				"element": "C" 
			},
			{
				"x": -4.9538814408,
				"y": -1.8770418632,
				"z": 0.8991960438,
				"element": "C" 
			},
			{
				"x": -4.4989131408,
				"y": -2.2716220791,
				"z": -0.3563798997,
				"element": "C" 
			},
			{
				"x": -1.4569887334,
				"y": -0.0283129075,
				"z": -0.745703426,
				"element": "C" 
			},
			{
				"x": -0.8910403088,
				"y": 1.2200661025,
				"z": -0.5170673391,
				"element": "C" 
			},
			{
				"x": -1.0897628111,
				"y": 2.5196953991,
				"z": 0.2099347241,
				"element": "C" 
			},
			{
				"x": -0.0504700517,
				"y": 3.4494192345,
				"z": -0.504108755,
				"element": "C" 
			},
			{
				"x": 1.0469045327,
				"y": 2.5267736778,
				"z": -1.1241153837,
				"element": "C" 
			},
			{
				"x": 0.3001870311,
				"y": 1.2301520754,
				"z": -1.2627756714,
				"element": "C" 
			},
			{
				"x": 0.5162263958,
				"y": 0.0985129755,
				"z": -1.9245912568,
				"element": "N" 
			},
			{
				"x": -0.5723862318,
				"y": -0.6477555033,
				"z": -1.6057937268,
				"element": "N" 
			},
			{
				"x": -2.6370802585,
				"y": -1.350092359,
				"z": -2.812792635,
				"element": "H" 
			},
			{
				"x": -3.5942274292,
				"y": -2.7009820586,
				"z": -2.6779802637,
				"element": "H" 
			},
			{
				"x": -2.6275807769,
				"y": 0.4948788987,
				"z": 1.5722370137,
				"element": "H" 
			},
			{
				"x": -4.6414560105,
				"y": -0.5418688049,
				"z": 2.569178297,
				"element": "H" 
			},
			{
				"x": -5.8303427465,
				"y": -2.3552677374,
				"z": 1.3267396361,
				"element": "H" 
			},
			{
				"x": -5.0272303206,
				"y": -3.0475044641,
				"z": -0.9060903639,
				"element": "H" 
			},
			{
				"x": -0.8556089054,
				"y": 2.4232037042,
				"z": 1.2797908358,
				"element": "H" 
			},
			{
				"x": -2.1071720524,
				"y": 2.921255679,
				"z": 0.1461522266,
				"element": "H" 
			},
			{
				"x": -0.5587626514,
				"y": 3.9849818051,
				"z": -1.313201038,
				"element": "H" 
			},
			{
				"x": 0.3663899955,
				"y": 4.2025386255,
				"z": 0.1707952857,
				"element": "H" 
			},
			{
				"x": 1.903731797,
				"y": 2.4143743321,
				"z": -0.4464696015,
				"element": "H" 
			},
			{
				"x": 1.4355431411,
				"y": 2.9175880896,
				"z": -2.0694846791,
				"element": "H" 
			},
			{
				"x": -0.6412508951,
				"y": -1.6014872455,
				"z": -1.9303961243,
				"element": "H" 
			}
		],
		 "valence_orbital": [ 
			{
				"type": "occ",
				"energy": -0.27749,
				"method": "rhf"
			},
			{
				"type": "occ",
				"energy": -0.2674,
				"method": "rhf"
			},
			{
				"type": "occ",
				"energy": -0.23075,
				"method": "rhf"
			},
			{
				"type": "occ",
				"energy": -0.22517,
				"method": "rhf"
			},
			{
				"type": "occ",
				"energy": -0.20064,
				"method": "rhf"
			},
			{
				"type": "unocc",
				"energy": -0.0215,
				"method": "rhf"
			},
			{
				"type": "unocc",
				"energy": 0.00713,
				"method": "rhf"
			},
			{
				"type": "unocc",
				"energy": 0.04476,
				"method": "rhf"
			},
			{
				"type": "unocc",
				"energy": 0.07687,
				"method": "rhf"
			},
			{
				"type": "unocc",
				"energy": 0.09089,
				"method": "rhf"
			}
		],
		"cosmo_sigma_profile": { 
			"-0.025": 0.0,
			"-0.024": 0.0,
			"-0.023": 0.0,
			"-0.022": 0.0,
			"-0.021": 0.0,
			"-0.02": 0.0,
			"-0.019": 0.0,
			"-0.018": 0.0,
			"-0.017": 0.0,
			"-0.016": 0.0,
			"-0.015": 0.0,
			"-0.014": 0.0,
			"-0.013": 0.261743830615,
			"-0.012": 2.6843262866,
			"-0.011": 3.09394787195,
			"-0.01": 3.76180497326,
			"-0.009": 3.95117087005,
			"-0.008": 4.21100665345,
			"-0.007": 3.36227185532,
			"-0.006": 4.79903402634,
			"-0.005": 9.89064190663,
			"-0.004": 13.9875111483,
			"-0.003": 24.0180784055,
			"-0.002": 22.1742617888,
			"-0.001": 25.2291476572,
			"0.0": 19.6736328014,
			"0.001": 15.1948328094,
			"0.002": 10.613866306,
			"0.003": 12.3281028269,
			"0.004": 14.2171948342,
			"0.005": 15.59647247,
			"0.006": 10.7577162554,
			"0.007": 4.33671273573,
			"0.008": 2.3842416047,
			"0.009": 1.54772888434,
			"0.01": 1.96058864965,
			"0.011": 1.74371064638,
			"0.012": 1.58713896897,
			"0.013": 1.2366568002,
			"0.014": 1.22484079629,
			"0.015": 1.01883161198,
			"0.016": 1.17011642527,
			"0.017": 0.682054951235,
			"0.018": 0.0,
			"0.019": 0.0,
			"0.02": 0.0,
			"0.021": 0.0,
			"0.022": 0.0,
			"0.023": 0.0,
			"0.024": 0.0,
			"0.025": 0.0
		}
	}
}
