{
	 "smiles": "CC(C)(C)C(O)(CCC1=CC=C(Cl)C=C1)CN1C=NC=N1", 
	 "Tm": 378.15, 
	 "num_atms": 43, 
	 "gaussian": { 
		 "optdone": 1, 
		 "sigma_profile": "yes", 
		 "theory": "DFT", 
		 "functional": "B3LYP", 
		 "basiset": "6-31G**", 
		 "properties": { 
			 "R2extent": 8802.4468, 
			 "electric_dipole_moment_norm": 4.5431507349, 
			 "electric_quadrupole_moment_norm": 14.5536170033, 
			 "total_energy": -1322.62712037, 
			 "HOMO_LUMO_gap": 0.21919, 
			 "cosmo_polarized_energy": -13.78, 
			 "cosmo_cavitation_energy": 44.1, 
			 "cosmo_dispersion_energy": -30.09, 
			 "cosmo_repulsion_energy": 2.26, 
			 "cosmo_total_nonelectrostatic_energy": 16.26, 
			 "SMD_solvation_energy": 5.12 
		},
		"coords": [
			{
				"x": 0.3155560682,
				"y": 2.3522113377,
				"z": -2.1289835701,
				"element": "C" 
			},
			{
				"x": -1.0616929235,
				"y": 1.7637204452,
				"z": -1.7481321294,
				"element": "C" 
			},
			{
				"x": -1.6482645426,
				"y": 1.0286266601,
				"z": -2.9721498439,
				"element": "C" 
			},
			{
				"x": -1.9836697487,
				"y": 2.9536831267,
				"z": -1.3948470268,
				"element": "C" 
			},
			{
				"x": -0.8939239533,
				"y": 0.79709479,
				"z": -0.5045704058,
				"element": "C" 
			},
			{
				"x": -0.199801194,
				"y": 1.5563899485,
				"z": 0.4855489563,
				"element": "O" 
			},
			{
				"x": -0.1110181687,
				"y": -0.5012015245,
				"z": -0.8943186705,
				"element": "C" 
			},
			{
				"x": 0.75532055,
				"y": -1.1696169166,
				"z": 0.2138166766,
				"element": "C" 
			},
			{
				"x": 2.2485825138,
				"y": -0.9561923563,
				"z": 0.0477227544,
				"element": "C" 
			},
			{
				"x": 2.8256358537,
				"y": 0.3119295656,
				"z": 0.2186514917,
				"element": "C" 
			},
			{
				"x": 4.1971135079,
				"y": 0.5078437266,
				"z": 0.0626250174,
				"element": "C" 
			},
			{
				"x": 5.0077642124,
				"y": -0.5776314292,
				"z": -0.2692610143,
				"element": "C" 
			},
			{
				"x": 6.7417232141,
				"y": -0.3375581552,
				"z": -0.4678537508,
				"element": "Cl" 
			},
			{
				"x": 4.4661693057,
				"y": -1.848137605,
				"z": -0.4453551051,
				"element": "C" 
			},
			{
				"x": 3.0902820099,
				"y": -2.0245835143,
				"z": -0.2849023394,
				"element": "C" 
			},
			{
				"x": -2.2944583774,
				"y": 0.4219201358,
				"z": 0.0600753144,
				"element": "C" 
			},
			{
				"x": -2.2333961231,
				"y": -0.4571162333,
				"z": 1.223961325,
				"element": "N" 
			},
			{
				"x": -2.6768881185,
				"y": -1.7201378113,
				"z": 1.4001586427,
				"element": "C" 
			},
			{
				"x": -2.4127452484,
				"y": -2.143301697,
				"z": 2.6276534445,
				"element": "N" 
			},
			{
				"x": -1.7847390234,
				"y": -1.0739522453,
				"z": 3.1802453543,
				"element": "C" 
			},
			{
				"x": -1.6539387041,
				"y": -0.0235836853,
				"z": 2.3766684498,
				"element": "N" 
			},
			{
				"x": 1.0475537929,
				"y": 1.584508157,
				"z": -2.3946920029,
				"element": "H" 
			},
			{
				"x": 0.7276419538,
				"y": 2.9390141885,
				"z": -1.3059730545,
				"element": "H" 
			},
			{
				"x": 0.2018394385,
				"y": 3.0092686283,
				"z": -2.9977589432,
				"element": "H" 
			},
			{
				"x": -1.7737051584,
				"y": 1.7381331819,
				"z": -3.7967520827,
				"element": "H" 
			},
			{
				"x": -0.9967464242,
				"y": 0.227090042,
				"z": -3.331082781,
				"element": "H" 
			},
			{
				"x": -2.6359822526,
				"y": 0.5980986065,
				"z": -2.7717758777,
				"element": "H" 
			},
			{
				"x": -1.9241262019,
				"y": 3.712649792,
				"z": -2.1815177928,
				"element": "H" 
			},
			{
				"x": -1.6752167601,
				"y": 3.4163711124,
				"z": -0.4537421231,
				"element": "H" 
			},
			{
				"x": -3.0370382261,
				"y": 2.6642930714,
				"z": -1.3158042079,
				"element": "H" 
			},
			{
				"x": -0.4399380809,
				"y": 1.2143744059,
				"z": 1.3658518646,
				"element": "H" 
			},
			{
				"x": 0.5447443553,
				"y": -0.2798480125,
				"z": -1.7381417316,
				"element": "H" 
			},
			{
				"x": -0.8336571113,
				"y": -1.2340953933,
				"z": -1.2722253519,
				"element": "H" 
			},
			{
				"x": 0.454870297,
				"y": -0.8123055402,
				"z": 1.2017473618,
				"element": "H" 
			},
			{
				"x": 0.5594327256,
				"y": -2.2466255126,
				"z": 0.21098917,
				"element": "H" 
			},
			{
				"x": 2.1851125088,
				"y": 1.1514860669,
				"z": 0.4708859562,
				"element": "H" 
			},
			{
				"x": 4.6351933802,
				"y": 1.4907966987,
				"z": 0.1986968191,
				"element": "H" 
			},
			{
				"x": 5.1076982743,
				"y": -2.684259508,
				"z": -0.7014718452,
				"element": "H" 
			},
			{
				"x": 2.6687921044,
				"y": -3.017868967,
				"z": -0.4188922495,
				"element": "H" 
			},
			{
				"x": -2.8205064803,
				"y": 1.3254162455,
				"z": 0.3706966262,
				"element": "H" 
			},
			{
				"x": -2.8959175776,
				"y": -0.0911022477,
				"z": -0.6926547002,
				"element": "H" 
			},
			{
				"x": -3.1843575139,
				"y": -2.2777515331,
				"z": 0.624985589,
				"element": "H" 
			},
			{
				"x": -1.4168981537,
				"y": -1.0586500455,
				"z": 4.1968777864,
				"element": "H" 
			}
		],
		 "valence_orbital": [ 
			{
				"type": "occ",
				"energy": -0.29154,
				"method": "rhf"
			},
			{
				"type": "occ",
				"energy": -0.27925,
				"method": "rhf"
			},
			{
				"type": "occ",
				"energy": -0.27194,
				"method": "rhf"
			},
			{
				"type": "occ",
				"energy": -0.25375,
				"method": "rhf"
			},
			{
				"type": "occ",
				"energy": -0.23203,
				"method": "rhf"
			},
			{
				"type": "unocc",
				"energy": -0.01284,
				"method": "rhf"
			},
			{
				"type": "unocc",
				"energy": -0.00613,
				"method": "rhf"
			},
			{
				"type": "unocc",
				"energy": -0.0025,
				"method": "rhf"
			},
			{
				"type": "unocc",
				"energy": 0.03615,
				"method": "rhf"
			},
			{
				"type": "unocc",
				"energy": 0.03728,
				"method": "rhf"
			}
		],
		"cosmo_sigma_profile": { 
			"-0.025": 0.0,
			"-0.024": 0.0,
			"-0.023": 0.0,
			"-0.022": 0.0,
			"-0.021": 0.0,
			"-0.02": 0.0,
			"-0.019": 0.0,
			"-0.018": 0.0,
			"-0.017": 0.0,
			"-0.016": 0.0,
			"-0.015": 0.0,
			"-0.014": 0.0,
			"-0.013": 0.0,
			"-0.012": 0.0,
			"-0.011": 1.11216799487,
			"-0.01": 3.57532237421,
			"-0.009": 3.30722506134,
			"-0.008": 5.63033994709,
			"-0.007": 6.51261390615,
			"-0.006": 12.2216155489,
			"-0.005": 14.522088784,
			"-0.004": 21.6459099945,
			"-0.003": 25.0633527162,
			"-0.002": 32.9817450805,
			"-0.001": 32.7334393083,
			"0.0": 36.5477888028,
			"0.001": 37.544000172,
			"0.002": 29.1971045846,
			"0.003": 20.1290569618,
			"0.004": 22.7161963233,
			"0.005": 19.9268227797,
			"0.006": 5.26362550517,
			"0.007": 3.72348703252,
			"0.008": 3.07380000278,
			"0.009": 1.98544169189,
			"0.01": 2.65108347223,
			"0.011": 1.74473941108,
			"0.012": 1.04931275036,
			"0.013": 1.27573353604,
			"0.014": 0.904283922234,
			"0.015": 1.41303337459,
			"0.016": 0.8694789271,
			"0.017": 0.170844897758,
			"0.018": 0.0,
			"0.019": 0.0,
			"0.02": 0.0,
			"0.021": 0.0,
			"0.022": 0.0,
			"0.023": 0.0,
			"0.024": 0.0,
			"0.025": 0.0
		}
	}
}
