{
	 "smiles": "[O-][N+](=O)C1=CC(=C(C=CC2=C3OCOC3=CC=C2)C=C1C=CC1=CC=CC2=C1OCO2)[N+]([O-])=O", 
	 "Tm": 488.15, 
	 "num_atms": 50, 
	 "gaussian": { 
		 "optdone": 1, 
		 "sigma_profile": "yes", 
		 "theory": "DFT", 
		 "functional": "B3LYP", 
		 "basiset": "6-31G**", 
		 "properties": { 
			 "R2extent": 20915.1, 
			 "electric_dipole_moment_norm": 8.39346285391, 
			 "electric_quadrupole_moment_norm": 24.154633286, 
			 "total_energy": -1635.20956934, 
			 "HOMO_LUMO_gap": 0.10909, 
			 "cosmo_polarized_energy": -19.29, 
			 "cosmo_cavitation_energy": 57.41, 
			 "cosmo_dispersion_energy": -40.7, 
			 "cosmo_repulsion_energy": 3.01, 
			 "cosmo_total_nonelectrostatic_energy": 19.72, 
			 "SMD_solvation_energy": 14.84 
		},
		"coords": [
			{
				"x": 2.3020049354,
				"y": -3.359669958,
				"z": -3.2365229734,
				"element": "O" 
			},
			{
				"x": 1.8254438348,
				"y": -3.977473427,
				"z": -2.2818695336,
				"element": "N" 
			},
			{
				"x": 1.8075256867,
				"y": -5.2052157594,
				"z": -2.2004049347,
				"element": "O" 
			},
			{
				"x": 1.2582341578,
				"y": -3.2155645333,
				"z": -1.1575520563,
				"element": "C" 
			},
			{
				"x": 1.1035088819,
				"y": -3.9301761645,
				"z": 0.022583081,
				"element": "C" 
			},
			{
				"x": 0.5590121775,
				"y": -3.3324625593,
				"z": 1.1511684884,
				"element": "C" 
			},
			{
				"x": 0.1528962592,
				"y": -1.9707629345,
				"z": 1.1407451025,
				"element": "C" 
			},
			{
				"x": -0.3929658824,
				"y": -1.2466591387,
				"z": 2.2931758463,
				"element": "C" 
			},
			{
				"x": -0.2130998392,
				"y": 0.0784507903,
				"z": 2.4925281621,
				"element": "C" 
			},
			{
				"x": -0.7441718974,
				"y": 0.8580427146,
				"z": 3.6045348269,
				"element": "C" 
			},
			{
				"x": -0.4426126623,
				"y": 2.215075875,
				"z": 3.707383955,
				"element": "C" 
			},
			{
				"x": 0.3169136701,
				"y": 2.9666272804,
				"z": 2.8450952608,
				"element": "O" 
			},
			{
				"x": 0.4376048079,
				"y": 4.2593474782,
				"z": 3.4556030994,
				"element": "C" 
			},
			{
				"x": -0.4723331235,
				"y": 4.3106133479,
				"z": 4.5574744759,
				"element": "O" 
			},
			{
				"x": -0.9173434564,
				"y": 3.0223986477,
				"z": 4.738109283,
				"element": "C" 
			},
			{
				"x": -1.7279603699,
				"y": 2.5281461158,
				"z": 5.7381107847,
				"element": "C" 
			},
			{
				"x": -2.0494976997,
				"y": 1.1558520327,
				"z": 5.6636721614,
				"element": "C" 
			},
			{
				"x": -1.5777939165,
				"y": 0.3495104701,
				"z": 4.6376942979,
				"element": "C" 
			},
			{
				"x": 0.3210452183,
				"y": -1.2974971774,
				"z": -0.0811452755,
				"element": "C" 
			},
			{
				"x": 0.8554948682,
				"y": -1.856280233,
				"z": -1.254493117,
				"element": "C" 
			},
			{
				"x": 0.9420186041,
				"y": -1.0380948446,
				"z": -2.4682905464,
				"element": "C" 
			},
			{
				"x": 0.0742531872,
				"y": -0.0426816034,
				"z": -2.7584291257,
				"element": "C" 
			},
			{
				"x": 0.117359141,
				"y": 0.8160753473,
				"z": -3.9361188924,
				"element": "C" 
			},
			{
				"x": 1.1126450756,
				"y": 0.7674658766,
				"z": -4.9500320109,
				"element": "C" 
			},
			{
				"x": 1.0896292476,
				"y": 1.6226603271,
				"z": -6.0424684983,
				"element": "C" 
			},
			{
				"x": 0.0756041213,
				"y": 2.5904481433,
				"z": -6.2074888113,
				"element": "C" 
			},
			{
				"x": -0.8919746941,
				"y": 2.637208222,
				"z": -5.2261666163,
				"element": "C" 
			},
			{
				"x": -0.8711386831,
				"y": 1.7798353241,
				"z": -4.1288944233,
				"element": "C" 
			},
			{
				"x": -1.9331603822,
				"y": 2.0592518192,
				"z": -3.3047433949,
				"element": "O" 
			},
			{
				"x": -2.724923103,
				"y": 3.0309240176,
				"z": -4.0029097119,
				"element": "C" 
			},
			{
				"x": -1.9687410449,
				"y": 3.4863379861,
				"z": -5.1278739778,
				"element": "O" 
			},
			{
				"x": 0.475739778,
				"y": -4.1964817341,
				"z": 2.3398049115,
				"element": "N" 
			},
			{
				"x": -0.2759505306,
				"y": -3.8680986503,
				"z": 3.2602687388,
				"element": "O" 
			},
			{
				"x": 1.1577204478,
				"y": -5.2208038093,
				"z": 2.3445149434,
				"element": "O" 
			},
			{
				"x": 1.4110477197,
				"y": -4.9652722519,
				"z": 0.0633778232,
				"element": "H" 
			},
			{
				"x": -0.9315482682,
				"y": -1.8386394717,
				"z": 3.0182011258,
				"element": "H" 
			},
			{
				"x": 0.4022054512,
				"y": 0.6450507948,
				"z": 1.7975264104,
				"element": "H" 
			},
			{
				"x": 0.1742657271,
				"y": 5.030889484,
				"z": 2.7257851884,
				"element": "H" 
			},
			{
				"x": 1.4663401204,
				"y": 4.3962102186,
				"z": 3.8173874856,
				"element": "H" 
			},
			{
				"x": -2.0955179294,
				"y": 3.1631424248,
				"z": 6.5357751489,
				"element": "H" 
			},
			{
				"x": -2.6811434633,
				"y": 0.7224115828,
				"z": 6.4323610594,
				"element": "H" 
			},
			{
				"x": -1.8496602037,
				"y": -0.7001567798,
				"z": 4.6250249713,
				"element": "H" 
			},
			{
				"x": 0.01259995,
				"y": -0.2607525314,
				"z": -0.1219502897,
				"element": "H" 
			},
			{
				"x": 1.7300675773,
				"y": -1.2931108905,
				"z": -3.1611912624,
				"element": "H" 
			},
			{
				"x": -0.7635591135,
				"y": 0.1477118453,
				"z": -2.0917456773,
				"element": "H" 
			},
			{
				"x": 1.9109172739,
				"y": 0.0380540703,
				"z": -4.8687079483,
				"element": "H" 
			},
			{
				"x": 1.8696353482,
				"y": 1.5466093482,
				"z": -6.7931572701,
				"element": "H" 
			},
			{
				"x": 0.0540067414,
				"y": 3.262547837,
				"z": -7.0574305825,
				"element": "H" 
			},
			{
				"x": -3.6566330833,
				"y": 2.5610374359,
				"z": -4.3478849339,
				"element": "H" 
			},
			{
				"x": -2.935510663,
				"y": 3.8731175943,
				"z": -3.3368347679,
				"element": "H" 
			}
		],
		 "valence_orbital": [ 
			{
				"type": "occ",
				"energy": -0.28301,
				"method": "rhf"
			},
			{
				"type": "occ",
				"energy": -0.2326,
				"method": "rhf"
			},
			{
				"type": "occ",
				"energy": -0.23002,
				"method": "rhf"
			},
			{
				"type": "occ",
				"energy": -0.2205,
				"method": "rhf"
			},
			{
				"type": "occ",
				"energy": -0.21966,
				"method": "rhf"
			},
			{
				"type": "unocc",
				"energy": -0.11057,
				"method": "rhf"
			},
			{
				"type": "unocc",
				"energy": -0.08893,
				"method": "rhf"
			},
			{
				"type": "unocc",
				"energy": -0.06398,
				"method": "rhf"
			},
			{
				"type": "unocc",
				"energy": -0.04192,
				"method": "rhf"
			},
			{
				"type": "unocc",
				"energy": -0.01115,
				"method": "rhf"
			}
		],
		"cosmo_sigma_profile": { 
			"-0.025": 0.0,
			"-0.024": 0.0,
			"-0.023": 0.0,
			"-0.022": 0.0,
			"-0.021": 0.0,
			"-0.02": 0.0,
			"-0.019": 0.0,
			"-0.018": 0.0,
			"-0.017": 0.0,
			"-0.016": 0.0,
			"-0.015": 0.0,
			"-0.014": 0.0,
			"-0.013": 0.0,
			"-0.012": 0.0,
			"-0.011": 0.0,
			"-0.01": 0.0,
			"-0.009": 1.4236233224,
			"-0.008": 11.527710222,
			"-0.007": 25.9858559802,
			"-0.006": 29.6835583711,
			"-0.005": 28.3638567225,
			"-0.004": 27.9685264659,
			"-0.003": 24.9194186635,
			"-0.002": 34.3719153656,
			"-0.001": 34.177473442,
			"0.0": 35.1105018427,
			"0.001": 31.8192417312,
			"0.002": 37.7086881835,
			"0.003": 33.7706477082,
			"0.004": 25.0539518534,
			"0.005": 18.4231429066,
			"0.006": 11.8576263744,
			"0.007": 18.762174328,
			"0.008": 15.4295339071,
			"0.009": 12.1743884243,
			"0.01": 5.04373750173,
			"0.011": 0.0,
			"0.012": 0.0,
			"0.013": 0.0,
			"0.014": 0.0,
			"0.015": 0.0,
			"0.016": 0.0,
			"0.017": 0.0,
			"0.018": 0.0,
			"0.019": 0.0,
			"0.02": 0.0,
			"0.021": 0.0,
			"0.022": 0.0,
			"0.023": 0.0,
			"0.024": 0.0,
			"0.025": 0.0
		}
	}
}
