{
	 "smiles": "CC1=CC=NN1C1=NC=CC=C1", 
	 "Tm": 308.15, 
	 "num_atms": 21, 
	 "gaussian": { 
		 "optdone": 1, 
		 "sigma_profile": "yes", 
		 "theory": "DFT", 
		 "functional": "B3LYP", 
		 "basiset": "6-31G**", 
		 "properties": { 
			 "R2extent": 2440.8594, 
			 "electric_dipole_moment_norm": 1.33070602689, 
			 "electric_quadrupole_moment_norm": 9.37448312602, 
			 "total_energy": -512.619439759, 
			 "HOMO_LUMO_gap": 0.19751, 
			 "cosmo_polarized_energy": -6.51, 
			 "cosmo_cavitation_energy": 24.77, 
			 "cosmo_dispersion_energy": -18.49, 
			 "cosmo_repulsion_energy": 1.45, 
			 "cosmo_total_nonelectrostatic_energy": 7.73, 
			 "SMD_solvation_energy": 3.48 
		},
		"coords": [
			{
				"x": -1.7481436253,
				"y": 2.1260603304,
				"z": -1.2118773301,
				"element": "C" 
			},
			{
				"x": -2.0571277047,
				"y": 1.4312560469,
				"z": 0.0763361255,
				"element": "C" 
			},
			{
				"x": -2.8123914309,
				"y": 1.8954735826,
				"z": 1.1341663483,
				"element": "C" 
			},
			{
				"x": -2.7959326182,
				"y": 0.863210863,
				"z": 2.0994931121,
				"element": "C" 
			},
			{
				"x": -2.0882567622,
				"y": -0.1780593952,
				"z": 1.6946843258,
				"element": "N" 
			},
			{
				"x": -1.633107794,
				"y": 0.1677789386,
				"z": 0.4521807763,
				"element": "N" 
			},
			{
				"x": -0.8304340686,
				"y": -0.7676522972,
				"z": -0.2444339003,
				"element": "C" 
			},
			{
				"x": -0.3983777006,
				"y": -0.4093453679,
				"z": -1.4525999241,
				"element": "N" 
			},
			{
				"x": 0.3625514701,
				"y": -1.2817454535,
				"z": -2.1266752524,
				"element": "C" 
			},
			{
				"x": 0.722286535,
				"y": -2.5322598451,
				"z": -1.6350194089,
				"element": "C" 
			},
			{
				"x": 0.259119285,
				"y": -2.8903937641,
				"z": -0.3650464666,
				"element": "C" 
			},
			{
				"x": -0.5310186866,
				"y": -2.0035416704,
				"z": 0.3533174383,
				"element": "C" 
			},
			{
				"x": -2.1091588921,
				"y": 1.5630447242,
				"z": -2.0761344672,
				"element": "H" 
			},
			{
				"x": -0.6731057294,
				"y": 2.259133837,
				"z": -1.3562447204,
				"element": "H" 
			},
			{
				"x": -2.2295551087,
				"y": 3.1077259006,
				"z": -1.200743687,
				"element": "H" 
			},
			{
				"x": -3.3055881278,
				"y": 2.85484713,
				"z": 1.1903652538,
				"element": "H" 
			},
			{
				"x": -3.2715814036,
				"y": 0.8393624571,
				"z": 3.0714477596,
				"element": "H" 
			},
			{
				"x": 0.6969470974,
				"y": -0.9550045773,
				"z": -3.1095311304,
				"element": "H" 
			},
			{
				"x": 1.3415029767,
				"y": -3.2005834572,
				"z": -2.223748068,
				"element": "H" 
			},
			{
				"x": 0.5122666728,
				"y": -3.8558420941,
				"z": 0.063545685,
				"element": "H" 
			},
			{
				"x": -0.9151943841,
				"y": -2.2298658882,
				"z": 1.3383175306,
				"element": "H" 
			}
		],
		 "valence_orbital": [ 
			{
				"type": "occ",
				"energy": -0.285,
				"method": "rhf"
			},
			{
				"type": "occ",
				"energy": -0.28446,
				"method": "rhf"
			},
			{
				"type": "occ",
				"energy": -0.26528,
				"method": "rhf"
			},
			{
				"type": "occ",
				"energy": -0.23663,
				"method": "rhf"
			},
			{
				"type": "occ",
				"energy": -0.22779,
				"method": "rhf"
			},
			{
				"type": "unocc",
				"energy": -0.03028,
				"method": "rhf"
			},
			{
				"type": "unocc",
				"energy": -0.02259,
				"method": "rhf"
			},
			{
				"type": "unocc",
				"energy": 0.04104,
				"method": "rhf"
			},
			{
				"type": "unocc",
				"energy": 0.07872,
				"method": "rhf"
			},
			{
				"type": "unocc",
				"energy": 0.09747,
				"method": "rhf"
			}
		],
		"cosmo_sigma_profile": { 
			"-0.025": 0.0,
			"-0.024": 0.0,
			"-0.023": 0.0,
			"-0.022": 0.0,
			"-0.021": 0.0,
			"-0.02": 0.0,
			"-0.019": 0.0,
			"-0.018": 0.0,
			"-0.017": 0.0,
			"-0.016": 0.0,
			"-0.015": 0.0,
			"-0.014": 0.0,
			"-0.013": 0.0,
			"-0.012": 0.0,
			"-0.011": 0.0,
			"-0.01": 0.0,
			"-0.009": 0.0,
			"-0.008": 0.495819246771,
			"-0.007": 6.47779845996,
			"-0.006": 11.9147905301,
			"-0.005": 13.6054287561,
			"-0.004": 14.6886994596,
			"-0.003": 12.5086084805,
			"-0.002": 13.9001232353,
			"-0.001": 14.7670559472,
			"0.0": 19.2246827825,
			"0.001": 18.0773070886,
			"0.002": 20.6395658151,
			"0.003": 16.3164796476,
			"0.004": 10.6611399694,
			"0.005": 8.74189730973,
			"0.006": 4.34956610608,
			"0.007": 3.38645724852,
			"0.008": 3.12036003591,
			"0.009": 1.97674597249,
			"0.01": 1.38106938317,
			"0.011": 1.24234201824,
			"0.012": 1.34985402786,
			"0.013": 0.0238728712279,
			"0.014": 0.0,
			"0.015": 0.0,
			"0.016": 0.0,
			"0.017": 0.0,
			"0.018": 0.0,
			"0.019": 0.0,
			"0.02": 0.0,
			"0.021": 0.0,
			"0.022": 0.0,
			"0.023": 0.0,
			"0.024": 0.0,
			"0.025": 0.0
		}
	}
}
