{
	 "smiles": "NC1=CC=C(C=C1)C1=NC(=NN1)C1CC1", 
	 "Tm": 466.15, 
	 "num_atms": 27, 
	 "gaussian": { 
		 "optdone": 1, 
		 "sigma_profile": "yes", 
		 "theory": "DFT", 
		 "functional": "B3LYP", 
		 "basiset": "6-31G**", 
		 "properties": { 
			 "R2extent": 4613.5165, 
			 "electric_dipole_moment_norm": 4.60556556679, 
			 "electric_quadrupole_moment_norm": 12.0038132379, 
			 "total_energy": -645.386236419, 
			 "HOMO_LUMO_gap": 0.1749, 
			 "cosmo_polarized_energy": -17.85, 
			 "cosmo_cavitation_energy": 31.15, 
			 "cosmo_dispersion_energy": -23.01, 
			 "cosmo_repulsion_energy": 1.81, 
			 "cosmo_total_nonelectrostatic_energy": 9.94, 
			 "SMD_solvation_energy": 2.49 
		},
		"coords": [
			{
				"x": -4.3587197007,
				"y": -1.2294489231,
				"z": -1.689185566,
				"element": "N" 
			},
			{
				"x": -3.052198113,
				"y": -0.8329873031,
				"z": -1.4291548557,
				"element": "C" 
			},
			{
				"x": -1.9885250862,
				"y": -1.2827409688,
				"z": -2.2327696749,
				"element": "C" 
			},
			{
				"x": -0.6918957399,
				"y": -0.8410401279,
				"z": -2.0022159247,
				"element": "C" 
			},
			{
				"x": -0.4043589079,
				"y": 0.0634375557,
				"z": -0.967500144,
				"element": "C" 
			},
			{
				"x": -1.4690357563,
				"y": 0.5083895665,
				"z": -0.165103901,
				"element": "C" 
			},
			{
				"x": -2.7659817959,
				"y": 0.0715722735,
				"z": -0.3886285417,
				"element": "C" 
			},
			{
				"x": 0.9460649483,
				"y": 0.5512232871,
				"z": -0.6932840858,
				"element": "C" 
			},
			{
				"x": 1.3045221649,
				"y": 1.3310810506,
				"z": 0.3231521366,
				"element": "N" 
			},
			{
				"x": 2.6472534153,
				"y": 1.5079762788,
				"z": 0.1437467944,
				"element": "C" 
			},
			{
				"x": 3.1510769342,
				"y": 0.8891772124,
				"z": -0.9191261561,
				"element": "N" 
			},
			{
				"x": 2.0478335515,
				"y": 0.2820245529,
				"z": -1.440047653,
				"element": "N" 
			},
			{
				"x": 3.4843332068,
				"y": 2.3166773796,
				"z": 1.0502166164,
				"element": "C" 
			},
			{
				"x": 2.8993754898,
				"y": 3.5553428303,
				"z": 1.7016800602,
				"element": "C" 
			},
			{
				"x": 3.1736463267,
				"y": 2.3377237743,
				"z": 2.5349673767,
				"element": "C" 
			},
			{
				"x": -4.4665940182,
				"y": -2.0942113107,
				"z": -2.1997748527,
				"element": "H" 
			},
			{
				"x": -5.0063362443,
				"y": -1.1490858059,
				"z": -0.9182408779,
				"element": "H" 
			},
			{
				"x": -2.1856790027,
				"y": -1.9818142282,
				"z": -3.0414520646,
				"element": "H" 
			},
			{
				"x": 0.1018736799,
				"y": -1.2235405894,
				"z": -2.638954632,
				"element": "H" 
			},
			{
				"x": -1.2534437555,
				"y": 1.203292518,
				"z": 0.6392738797,
				"element": "H" 
			},
			{
				"x": -3.5742699436,
				"y": 0.433066538,
				"z": 0.2422414651,
				"element": "H" 
			},
			{
				"x": 2.1334265841,
				"y": -0.2540630361,
				"z": -2.2888050722,
				"element": "H" 
			},
			{
				"x": 4.5285283717,
				"y": 2.3508898026,
				"z": 0.7568259307,
				"element": "H" 
			},
			{
				"x": 1.8639323575,
				"y": 3.7817108722,
				"z": 1.4689924047,
				"element": "H" 
			},
			{
				"x": 3.5477326478,
				"y": 4.4197601265,
				"z": 1.8091177602,
				"element": "H" 
			},
			{
				"x": 2.3217470707,
				"y": 1.7492116824,
				"z": 2.8597110637,
				"element": "H" 
			},
			{
				"x": 4.013191315,
				"y": 2.3530749916,
				"z": 3.2235185137,
				"element": "H" 
			}
		],
		 "valence_orbital": [ 
			{
				"type": "occ",
				"energy": -0.27485,
				"method": "rhf"
			},
			{
				"type": "occ",
				"energy": -0.26155,
				"method": "rhf"
			},
			{
				"type": "occ",
				"energy": -0.25647,
				"method": "rhf"
			},
			{
				"type": "occ",
				"energy": -0.2385,
				"method": "rhf"
			},
			{
				"type": "occ",
				"energy": -0.19842,
				"method": "rhf"
			},
			{
				"type": "unocc",
				"energy": -0.02352,
				"method": "rhf"
			},
			{
				"type": "unocc",
				"energy": -0.00561,
				"method": "rhf"
			},
			{
				"type": "unocc",
				"energy": 0.04938,
				"method": "rhf"
			},
			{
				"type": "unocc",
				"energy": 0.06643,
				"method": "rhf"
			},
			{
				"type": "unocc",
				"energy": 0.0698,
				"method": "rhf"
			}
		],
		"cosmo_sigma_profile": { 
			"-0.025": 0.0,
			"-0.024": 0.0,
			"-0.023": 0.0,
			"-0.022": 0.0,
			"-0.021": 0.0,
			"-0.02": 0.0,
			"-0.019": 0.0,
			"-0.018": 0.0,
			"-0.017": 0.452652068641,
			"-0.016": 1.53973158536,
			"-0.015": 1.26408267844,
			"-0.014": 1.40975283676,
			"-0.013": 2.14400860814,
			"-0.012": 3.99709443617,
			"-0.011": 4.44396701949,
			"-0.01": 4.50434745684,
			"-0.009": 4.08171713586,
			"-0.008": 4.63954455106,
			"-0.007": 4.14330687084,
			"-0.006": 6.66543074635,
			"-0.005": 11.5766844519,
			"-0.004": 17.0304739394,
			"-0.003": 14.6771225837,
			"-0.002": 12.499850274,
			"-0.001": 14.0462846384,
			"0.0": 12.9603716995,
			"0.001": 16.3248100337,
			"0.002": 16.7990631377,
			"0.003": 18.6891743316,
			"0.004": 21.244489548,
			"0.005": 19.1819424488,
			"0.006": 8.04380607467,
			"0.007": 4.66041850881,
			"0.008": 4.04386122173,
			"0.009": 3.83927434956,
			"0.01": 3.57366469065,
			"0.011": 1.93514185715,
			"0.012": 2.14681809524,
			"0.013": 2.5358019003,
			"0.014": 1.22588899736,
			"0.015": 0.854495647739,
			"0.016": 0.594817093051,
			"0.017": 0.0,
			"0.018": 0.0,
			"0.019": 0.0,
			"0.02": 0.0,
			"0.021": 0.0,
			"0.022": 0.0,
			"0.023": 0.0,
			"0.024": 0.0,
			"0.025": 0.0
		}
	}
}
