{
	 "smiles": "CC(=O)NC1=C(C)C=C(Cl)C=C1Cl", 
	 "Tm": 448.15, 
	 "num_atms": 22, 
	 "gaussian": { 
		 "optdone": 1, 
		 "sigma_profile": "yes", 
		 "theory": "DFT", 
		 "functional": "B3LYP", 
		 "basiset": "6-31G**", 
		 "properties": { 
			 "R2extent": 3653.3634, 
			 "electric_dipole_moment_norm": 3.1586072722, 
			 "electric_quadrupole_moment_norm": 7.44495541827, 
			 "total_energy": -1398.76767665, 
			 "HOMO_LUMO_gap": 0.21082, 
			 "cosmo_polarized_energy": -10.58, 
			 "cosmo_cavitation_energy": 29.38, 
			 "cosmo_dispersion_energy": -21.25, 
			 "cosmo_repulsion_energy": 1.7, 
			 "cosmo_total_nonelectrostatic_energy": 9.83, 
			 "SMD_solvation_energy": 5.37 
		},
		"coords": [
			{
				"x": 1.0776221933,
				"y": -3.3759249725,
				"z": 1.3029898,
				"element": "C" 
			},
			{
				"x": 1.0954275973,
				"y": -2.1440943634,
				"z": 0.4114962236,
				"element": "C" 
			},
			{
				"x": 1.7377151812,
				"y": -2.0844973437,
				"z": -0.6227505362,
				"element": "O" 
			},
			{
				"x": 0.3081551428,
				"y": -1.0996601177,
				"z": 0.8791572804,
				"element": "N" 
			},
			{
				"x": -0.0063431852,
				"y": 0.0618759454,
				"z": 0.1332419368,
				"element": "C" 
			},
			{
				"x": 0.9944418485,
				"y": 0.9644374899,
				"z": -0.28790761,
				"element": "C" 
			},
			{
				"x": 2.4456439226,
				"y": 0.7468197699,
				"z": 0.0533082887,
				"element": "C" 
			},
			{
				"x": 0.6169771484,
				"y": 2.1001561624,
				"z": -1.0128614674,
				"element": "C" 
			},
			{
				"x": -0.7219582508,
				"y": 2.3603983266,
				"z": -1.2884321299,
				"element": "C" 
			},
			{
				"x": -1.1590521531,
				"y": 3.8027341407,
				"z": -2.1885388599,
				"element": "Cl" 
			},
			{
				"x": -1.7274248485,
				"y": 1.5051815427,
				"z": -0.8486798232,
				"element": "C" 
			},
			{
				"x": -1.349702027,
				"y": 0.3644050088,
				"z": -0.147757286,
				"element": "C" 
			},
			{
				"x": -2.6220054129,
				"y": -0.7211456839,
				"z": 0.4056242451,
				"element": "Cl" 
			},
			{
				"x": 0.9789067674,
				"y": -3.1278540877,
				"z": 2.363748761,
				"element": "H" 
			},
			{
				"x": 1.9993664572,
				"y": -3.9352360526,
				"z": 1.1410689674,
				"element": "H" 
			},
			{
				"x": 0.2353876157,
				"y": -4.0176268562,
				"z": 1.0205378887,
				"element": "H" 
			},
			{
				"x": -0.3536545564,
				"y": -1.3389013493,
				"z": 1.6058853896,
				"element": "H" 
			},
			{
				"x": 2.5560004836,
				"y": 0.4323279112,
				"z": 1.0962865101,
				"element": "H" 
			},
			{
				"x": 3.0175990097,
				"y": 1.6661351924,
				"z": -0.0937170784,
				"element": "H" 
			},
			{
				"x": 2.8718283991,
				"y": -0.0466334022,
				"z": -0.5664048315,
				"element": "H" 
			},
			{
				"x": 1.3774290873,
				"y": 2.7977965391,
				"z": -1.345885363,
				"element": "H" 
			},
			{
				"x": -2.7708604202,
				"y": 1.7100061999,
				"z": -1.0512103059,
				"element": "H" 
			}
		],
		 "valence_orbital": [ 
			{
				"type": "occ",
				"energy": -0.31773,
				"method": "rhf"
			},
			{
				"type": "occ",
				"energy": -0.29319,
				"method": "rhf"
			},
			{
				"type": "occ",
				"energy": -0.26296,
				"method": "rhf"
			},
			{
				"type": "occ",
				"energy": -0.25814,
				"method": "rhf"
			},
			{
				"type": "occ",
				"energy": -0.23848,
				"method": "rhf"
			},
			{
				"type": "unocc",
				"energy": -0.02766,
				"method": "rhf"
			},
			{
				"type": "unocc",
				"energy": -0.02231,
				"method": "rhf"
			},
			{
				"type": "unocc",
				"energy": 0.00181,
				"method": "rhf"
			},
			{
				"type": "unocc",
				"energy": 0.01644,
				"method": "rhf"
			},
			{
				"type": "unocc",
				"energy": 0.04471,
				"method": "rhf"
			}
		],
		"cosmo_sigma_profile": { 
			"-0.025": 0.0,
			"-0.024": 0.0,
			"-0.023": 0.0,
			"-0.022": 0.0,
			"-0.021": 0.0,
			"-0.02": 0.0,
			"-0.019": 0.0,
			"-0.018": 0.0,
			"-0.017": 0.0,
			"-0.016": 0.0,
			"-0.015": 0.0,
			"-0.014": 0.22327704439,
			"-0.013": 0.875210145664,
			"-0.012": 1.20743976288,
			"-0.011": 1.22210706014,
			"-0.01": 1.54385767389,
			"-0.009": 1.41046034684,
			"-0.008": 3.04100129706,
			"-0.007": 6.12454076985,
			"-0.006": 10.2095641622,
			"-0.005": 9.87886633604,
			"-0.004": 12.676831401,
			"-0.003": 14.329243267,
			"-0.002": 21.6080898883,
			"-0.001": 23.2882740119,
			"0.0": 23.9559107267,
			"0.001": 26.0115168433,
			"0.002": 23.3034038135,
			"0.003": 15.9388527149,
			"0.004": 18.2871858537,
			"0.005": 5.45645391921,
			"0.006": 1.93269554849,
			"0.007": 1.93331804745,
			"0.008": 1.31835839963,
			"0.009": 1.40130599547,
			"0.01": 2.56247034359,
			"0.011": 1.19520774845,
			"0.012": 2.83553710636,
			"0.013": 3.37496188385,
			"0.014": 1.29000885969,
			"0.015": 0.072851592587,
			"0.016": 0.0,
			"0.017": 0.0,
			"0.018": 0.0,
			"0.019": 0.0,
			"0.02": 0.0,
			"0.021": 0.0,
			"0.022": 0.0,
			"0.023": 0.0,
			"0.024": 0.0,
			"0.025": 0.0
		}
	}
}
