{
	 "smiles": "CC1=CC(Br)=NC=C1Br", 
	 "Tm": 311.15, 
	 "num_atms": 14, 
	 "gaussian": { 
		 "optdone": 1, 
		 "sigma_profile": "yes", 
		 "theory": "DFT", 
		 "functional": "B3LYP", 
		 "basiset": "6-31G**", 
		 "properties": { 
			 "R2extent": 3703.6299, 
			 "electric_dipole_moment_norm": 2.91918069328, 
			 "electric_quadrupole_moment_norm": 5.49043316688, 
			 "total_energy": -5429.21194729, 
			 "HOMO_LUMO_gap": 0.20672, 
			 "cosmo_polarized_energy": -5.98, 
			 "cosmo_cavitation_energy": 22.77, 
			 "cosmo_dispersion_energy": -17.73, 
			 "cosmo_repulsion_energy": 1.44, 
			 "cosmo_total_nonelectrostatic_energy": 6.49, 
			 "SMD_solvation_energy": 0.35 
		},
		"coords": [
			{
				"x": -1.1027601471,
				"y": -0.6496177638,
				"z": 1.7943436527,
				"element": "C" 
			},
			{
				"x": -0.5884767994,
				"y": 0.0686245154,
				"z": 0.5778928969,
				"element": "C" 
			},
			{
				"x": -0.7706747203,
				"y": -0.4597567401,
				"z": -0.7040115213,
				"element": "C" 
			},
			{
				"x": -0.2749462529,
				"y": 0.2442063081,
				"z": -1.8019147969,
				"element": "C" 
			},
			{
				"x": -0.535611848,
				"y": -0.4982119487,
				"z": -3.552983447,
				"element": "Br" 
			},
			{
				"x": 0.366571408,
				"y": 1.3945145741,
				"z": -1.7299779828,
				"element": "N" 
			},
			{
				"x": 0.5503066049,
				"y": 1.9157399309,
				"z": -0.5108225758,
				"element": "C" 
			},
			{
				"x": 0.0951740722,
				"y": 1.2933283764,
				"z": 0.648822722,
				"element": "C" 
			},
			{
				"x": 0.4215529668,
				"y": 2.1410157631,
				"z": 2.3263076919,
				"element": "Br" 
			},
			{
				"x": -1.6027151797,
				"y": -1.5799255017,
				"z": 1.5166260973,
				"element": "H" 
			},
			{
				"x": -1.8107472846,
				"y": -0.022666683,
				"z": 2.3463261395,
				"element": "H" 
			},
			{
				"x": -0.2844223929,
				"y": -0.8838502667,
				"z": 2.4831653777,
				"element": "H" 
			},
			{
				"x": -1.2888364621,
				"y": -1.4014468712,
				"z": -0.8426695064,
				"element": "H" 
			},
			{
				"x": 1.0790860351,
				"y": 2.8630463072,
				"z": -0.4562047477,
				"element": "H" 
			}
		],
		 "valence_orbital": [ 
			{
				"type": "occ",
				"energy": -0.30497,
				"method": "rhf"
			},
			{
				"type": "occ",
				"energy": -0.29314,
				"method": "rhf"
			},
			{
				"type": "occ",
				"energy": -0.29163,
				"method": "rhf"
			},
			{
				"type": "occ",
				"energy": -0.27843,
				"method": "rhf"
			},
			{
				"type": "occ",
				"energy": -0.25116,
				"method": "rhf"
			},
			{
				"type": "unocc",
				"energy": -0.04444,
				"method": "rhf"
			},
			{
				"type": "unocc",
				"energy": -0.03593,
				"method": "rhf"
			},
			{
				"type": "unocc",
				"energy": -0.00488,
				"method": "rhf"
			},
			{
				"type": "unocc",
				"energy": 0.00536,
				"method": "rhf"
			},
			{
				"type": "unocc",
				"energy": 0.09985,
				"method": "rhf"
			}
		],
		"cosmo_sigma_profile": { 
			"-0.025": 0.0,
			"-0.024": 0.0,
			"-0.023": 0.0,
			"-0.022": 0.0,
			"-0.021": 0.0,
			"-0.02": 0.0,
			"-0.019": 0.0,
			"-0.018": 0.0,
			"-0.017": 0.0,
			"-0.016": 0.0,
			"-0.015": 0.0,
			"-0.014": 0.0,
			"-0.013": 0.0,
			"-0.012": 0.0,
			"-0.011": 0.0,
			"-0.01": 0.0,
			"-0.009": 0.267561684124,
			"-0.008": 3.38200093364,
			"-0.007": 4.0358420494,
			"-0.006": 6.03149320329,
			"-0.005": 9.26876519633,
			"-0.004": 12.3296196437,
			"-0.003": 12.7656872539,
			"-0.002": 17.711853646,
			"-0.001": 24.3717672242,
			"0.0": 21.7071091957,
			"0.001": 13.7126524611,
			"0.002": 13.3588386616,
			"0.003": 15.5631072086,
			"0.004": 18.042552484,
			"0.005": 6.01947308197,
			"0.006": 2.38421762723,
			"0.007": 1.2316346948,
			"0.008": 1.47519895621,
			"0.009": 1.26241033454,
			"0.01": 1.00290340911,
			"0.011": 0.922674199755,
			"0.012": 1.19788979329,
			"0.013": 0.731110658477,
			"0.014": 0.418508993963,
			"0.015": 0.0,
			"0.016": 0.0,
			"0.017": 0.0,
			"0.018": 0.0,
			"0.019": 0.0,
			"0.02": 0.0,
			"0.021": 0.0,
			"0.022": 0.0,
			"0.023": 0.0,
			"0.024": 0.0,
			"0.025": 0.0
		}
	}
}
