{
	 "smiles": "OC1=CC(C=O)=C(I)C=C1", 
	 "Tm": 399.15, 
	 "num_atms": 15, 
	 "gaussian": { 
		 "optdone": 1, 
		 "sigma_profile": "no", 
		 "theory": "DFT", 
		 "functional": "B3LYP", 
		 "basiset": "6-31G**", 
		 "properties": { 
			 "R2extent": 2751.9981, 
			 "electric_dipole_moment_norm": 5.05059716469, 
			 "electric_quadrupole_moment_norm": 12.6290728848, 
			 "total_energy": -431.568156856, 
			 "HOMO_LUMO_gap": 0.16031, 
			 "cosmo_polarized_energy": -86219.95, 
			 "cosmo_cavitation_energy": 22.79, 
			 "cosmo_dispersion_energy": -18.26, 
			 "cosmo_repulsion_energy": 1.43, 
			 "cosmo_total_nonelectrostatic_energy": 5.97, 
			 "SMD_solvation_energy": 4.51 
		},
		"coords": [
			{
				"x": -2.8826514886,
				"y": 1.4244150582,
				"z": -0.8229483946,
				"element": "O" 
			},
			{
				"x": -1.9357344985,
				"y": 1.091301843,
				"z": 0.0976054747,
				"element": "C" 
			},
			{
				"x": -1.7240589296,
				"y": 1.9734597886,
				"z": 1.1565887583,
				"element": "C" 
			},
			{
				"x": -0.769724491,
				"y": 1.7108571013,
				"z": 2.1496945872,
				"element": "C" 
			},
			{
				"x": -0.6651685323,
				"y": 2.7506120858,
				"z": 3.2113233956,
				"element": "C" 
			},
			{
				"x": 0.0833012951,
				"y": 2.7405046003,
				"z": 4.1646155926,
				"element": "O" 
			},
			{
				"x": -0.0093050542,
				"y": 0.5270226031,
				"z": 2.0718884872,
				"element": "C" 
			},
			{
				"x": 1.471814132,
				"y": -0.0316612349,
				"z": 3.4789998108,
				"element": "I" 
			},
			{
				"x": -0.2230810775,
				"y": -0.3544558667,
				"z": 1.0106907534,
				"element": "C" 
			},
			{
				"x": -1.1760153839,
				"y": -0.0803373085,
				"z": 0.029590044,
				"element": "C" 
			},
			{
				"x": -2.9327187475,
				"y": 0.7370683107,
				"z": -1.5000350479,
				"element": "H" 
			},
			{
				"x": -2.3160282609,
				"y": 2.8831955105,
				"z": 1.2067082195,
				"element": "H" 
			},
			{
				"x": -1.3728108209,
				"y": 3.5950621356,
				"z": 3.0544275363,
				"element": "H" 
			},
			{
				"x": 0.357935348,
				"y": -1.2674553462,
				"z": 0.9435967417,
				"element": "H" 
			},
			{
				"x": -1.3229534902,
				"y": -0.7838892807,
				"z": -0.7869459587,
				"element": "H" 
			}
		],
		 "valence_orbital": [ 
			{
				"type": "occ",
				"energy": -0.28458,
				"method": "rhf"
			},
			{
				"type": "occ",
				"energy": -0.27987,
				"method": "rhf"
			},
			{
				"type": "occ",
				"energy": -0.27931,
				"method": "rhf"
			},
			{
				"type": "occ",
				"energy": -0.24132,
				"method": "rhf"
			},
			{
				"type": "occ",
				"energy": -0.23178,
				"method": "rhf"
			},
			{
				"type": "unocc",
				"energy": -0.07147,
				"method": "rhf"
			},
			{
				"type": "unocc",
				"energy": -0.03652,
				"method": "rhf"
			},
			{
				"type": "unocc",
				"energy": -0.02168,
				"method": "rhf"
			},
			{
				"type": "unocc",
				"energy": 0.03457,
				"method": "rhf"
			},
			{
				"type": "unocc",
				"energy": 0.04959,
				"method": "rhf"
			}
		],
		"cosmo_sigma_profile": { 
			"0.0": 0.0,
			"0.0": 0.0,
			"0.0": 0.0,
			"0.0": 0.0,
			"0.0": 0.0,
			"0.0": 0.0,
			"0.0": 0.0,
			"0.0": 0.0,
			"0.0": 0.0,
			"0.0": 0.0,
			"0.0": 0.0,
			"0.0": 0.0,
			"0.0": 0.0,
			"0.0": 0.0,
			"0.0": 0.0,
			"0.0": 0.0,
			"0.0": 0.0,
			"0.0": 0.0,
			"0.0": 0.0,
			"0.0": 0.0,
			"0.0": 0.0,
			"0.0": 0.0,
			"0.0": 0.0,
			"0.0": 0.0,
			"0.0": 0.0,
			"0.0": 0.0,
			"0.0": 0.0,
			"0.0": 0.0,
			"0.0": 0.0,
			"0.0": 0.0,
			"0.0": 0.0,
			"0.0": 0.0,
			"0.0": 0.0,
			"0.0": 0.0,
			"0.0": 0.0,
			"0.0": 0.0,
			"0.0": 0.0,
			"0.0": 0.0,
			"0.0": 0.0,
			"0.0": 0.0,
			"0.0": 0.0,
			"0.0": 0.0,
			"0.0": 0.0,
			"0.0": 0.0,
			"0.0": 0.0,
			"0.0": 0.0,
			"0.0": 0.0,
			"0.0": 0.0,
			"0.0": 0.0,
			"0.0": 0.0,
			"0.0": 0.0
		}
	}
}
