{
	 "smiles": "NC1=C(C2=NON=C2C(Cl)=C1)[N+]([O-])=O", 
	 "Tm": 549.15, 
	 "num_atms": 17, 
	 "gaussian": { 
		 "optdone": 1, 
		 "sigma_profile": "yes", 
		 "theory": "DFT", 
		 "functional": "B3LYP", 
		 "basiset": "6-31G**", 
		 "properties": { 
			 "R2extent": 3002.7604, 
			 "electric_dipole_moment_norm": 7.17323387671, 
			 "electric_quadrupole_moment_norm": 11.0769664958, 
			 "total_energy": -1135.11664531, 
			 "HOMO_LUMO_gap": 0.1397, 
			 "cosmo_polarized_energy": -21.01, 
			 "cosmo_cavitation_energy": 24.61, 
			 "cosmo_dispersion_energy": -18.97, 
			 "cosmo_repulsion_energy": 1.47, 
			 "cosmo_total_nonelectrostatic_energy": 7.11, 
			 "SMD_solvation_energy": 5.43 
		},
		"coords": [
			{
				"x": 2.0830271142,
				"y": -1.7501928656,
				"z": 0.5300068112,
				"element": "N" 
			},
			{
				"x": 1.0339401275,
				"y": -0.9123434904,
				"z": 0.6038375801,
				"element": "C" 
			},
			{
				"x": 0.2198150913,
				"y": -0.5858048325,
				"z": -0.5012239135,
				"element": "C" 
			},
			{
				"x": -0.8710752778,
				"y": 0.3225947658,
				"z": -0.291373532,
				"element": "C" 
			},
			{
				"x": -1.7868457404,
				"y": 0.8068529943,
				"z": -1.1145638236,
				"element": "N" 
			},
			{
				"x": -2.5622389806,
				"y": 1.6318693728,
				"z": -0.3226394312,
				"element": "O" 
			},
			{
				"x": -2.1554107289,
				"y": 1.6744911249,
				"z": 0.9692322177,
				"element": "N" 
			},
			{
				"x": -1.1130801337,
				"y": 0.8738514484,
				"z": 1.0135841717,
				"element": "C" 
			},
			{
				"x": -0.2752467712,
				"y": 0.5294263956,
				"z": 2.1212813785,
				"element": "C" 
			},
			{
				"x": -0.585388804,
				"y": 1.2061188543,
				"z": 3.6849543536,
				"element": "Cl" 
			},
			{
				"x": 0.7532665308,
				"y": -0.3312112866,
				"z": 1.9059991789,
				"element": "C" 
			},
			{
				"x": 0.4512173213,
				"y": -1.1291861317,
				"z": -1.804953525,
				"element": "N" 
			},
			{
				"x": 1.4084478508,
				"y": -1.9215542394,
				"z": -1.9688240509,
				"element": "O" 
			},
			{
				"x": -0.3031005978,
				"y": -0.7939393425,
				"z": -2.713334284,
				"element": "O" 
			},
			{
				"x": 2.63502021,
				"y": -1.9523644703,
				"z": 1.3471766209,
				"element": "H" 
			},
			{
				"x": 2.2854433921,
				"y": -2.1610946872,
				"z": -0.3764913101,
				"element": "H" 
			},
			{
				"x": 1.4024093963,
				"y": -0.6073136098,
				"z": 2.7302315579,
				"element": "H" 
			}
		],
		 "valence_orbital": [ 
			{
				"type": "occ",
				"energy": -0.31177,
				"method": "rhf"
			},
			{
				"type": "occ",
				"energy": -0.31085,
				"method": "rhf"
			},
			{
				"type": "occ",
				"energy": -0.29078,
				"method": "rhf"
			},
			{
				"type": "occ",
				"energy": -0.28993,
				"method": "rhf"
			},
			{
				"type": "occ",
				"energy": -0.25596,
				"method": "rhf"
			},
			{
				"type": "unocc",
				"energy": -0.11626,
				"method": "rhf"
			},
			{
				"type": "unocc",
				"energy": -0.07032,
				"method": "rhf"
			},
			{
				"type": "unocc",
				"energy": -0.01541,
				"method": "rhf"
			},
			{
				"type": "unocc",
				"energy": -0.00526,
				"method": "rhf"
			},
			{
				"type": "unocc",
				"energy": 0.00536,
				"method": "rhf"
			}
		],
		"cosmo_sigma_profile": { 
			"-0.025": 0.0,
			"-0.024": 0.0,
			"-0.023": 0.0,
			"-0.022": 0.0,
			"-0.021": 0.0,
			"-0.02": 0.0,
			"-0.019": 0.0,
			"-0.018": 0.0143046030619,
			"-0.017": 1.36987211812,
			"-0.016": 2.38138147343,
			"-0.015": 1.48934411184,
			"-0.014": 1.79353943028,
			"-0.013": 1.23565993075,
			"-0.012": 2.79670624511,
			"-0.011": 2.96579106937,
			"-0.01": 2.24033041097,
			"-0.009": 2.1912210039,
			"-0.008": 2.92240446829,
			"-0.007": 3.23425217794,
			"-0.006": 4.88160581722,
			"-0.005": 11.3596498378,
			"-0.004": 15.5329805633,
			"-0.003": 18.7806859543,
			"-0.002": 13.1541910021,
			"-0.001": 10.5219984102,
			"0.0": 9.90648330312,
			"0.001": 9.15442921024,
			"0.002": 14.0611148747,
			"0.003": 9.1557449445,
			"0.004": 8.57936168675,
			"0.005": 9.51822302365,
			"0.006": 6.64801996961,
			"0.007": 6.01084746233,
			"0.008": 6.43940265975,
			"0.009": 8.79071319013,
			"0.01": 7.34945334827,
			"0.011": 3.34363623524,
			"0.012": 1.93926717166,
			"0.013": 1.34182062224,
			"0.014": 0.508726511726,
			"0.015": 0.0,
			"0.016": 0.0,
			"0.017": 0.0,
			"0.018": 0.0,
			"0.019": 0.0,
			"0.02": 0.0,
			"0.021": 0.0,
			"0.022": 0.0,
			"0.023": 0.0,
			"0.024": 0.0,
			"0.025": 0.0
		}
	}
}
