{
	 "smiles": "CCCOCCO", 
	 "Tm": 203.15, 
	 "num_atms": 19, 
	 "gaussian": { 
		 "optdone": 1, 
		 "sigma_profile": "yes", 
		 "theory": "DFT", 
		 "functional": "B3LYP", 
		 "basiset": "6-31G**", 
		 "properties": { 
			 "R2extent": 1869.1593, 
			 "electric_dipole_moment_norm": 1.89382705916, 
			 "electric_quadrupole_moment_norm": 9.65500983065, 
			 "total_energy": -348.193654454, 
			 "HOMO_LUMO_gap": 0.32573, 
			 "cosmo_polarized_energy": -7.73, 
			 "cosmo_cavitation_energy": 21.56, 
			 "cosmo_dispersion_energy": -15.83, 
			 "cosmo_repulsion_energy": 1.4, 
			 "cosmo_total_nonelectrostatic_energy": 7.13, 
			 "SMD_solvation_energy": 3.84 
		},
		"coords": [
			{
				"x": -2.2324607687,
				"y": -0.0413790029,
				"z": -0.8550379187,
				"element": "C" 
			},
			{
				"x": -0.8217466806,
				"y": 0.5521699616,
				"z": -0.7961331901,
				"element": "C" 
			},
			{
				"x": 0.0453043343,
				"y": -0.0636840302,
				"z": 0.2958865504,
				"element": "C" 
			},
			{
				"x": 0.2178930916,
				"y": -1.4444558187,
				"z": 0.0204316349,
				"element": "O" 
			},
			{
				"x": 0.9856776079,
				"y": -2.1227936313,
				"z": 0.9914367355,
				"element": "C" 
			},
			{
				"x": 1.1163263259,
				"y": -3.5819186485,
				"z": 0.5606842843,
				"element": "C" 
			},
			{
				"x": 1.8894529893,
				"y": -4.3344489696,
				"z": 1.4836743166,
				"element": "O" 
			},
			{
				"x": -2.7722926247,
				"y": 0.1305762264,
				"z": 0.0835975625,
				"element": "H" 
			},
			{
				"x": -2.188417627,
				"y": -1.1206479196,
				"z": -1.022829074,
				"element": "H" 
			},
			{
				"x": -2.8177580875,
				"y": 0.407978705,
				"z": -1.6634859519,
				"element": "H" 
			},
			{
				"x": -0.3153439152,
				"y": 0.4123743864,
				"z": -1.7588658119,
				"element": "H" 
			},
			{
				"x": -0.8712174365,
				"y": 1.6342232377,
				"z": -0.6196277979,
				"element": "H" 
			},
			{
				"x": 1.0261308614,
				"y": 0.4392171898,
				"z": 0.3386555566,
				"element": "H" 
			},
			{
				"x": -0.4316609015,
				"y": 0.0684329003,
				"z": 1.2834434672,
				"element": "H" 
			},
			{
				"x": 0.5010617886,
				"y": -2.0664642312,
				"z": 1.9842558207,
				"element": "H" 
			},
			{
				"x": 1.9888285877,
				"y": -1.6779907696,
				"z": 1.0947716779,
				"element": "H" 
			},
			{
				"x": 1.640221826,
				"y": -3.6320225984,
				"z": -0.3981325774,
				"element": "H" 
			},
			{
				"x": 0.1131661713,
				"y": -4.0079796915,
				"z": 0.4101994926,
				"element": "H" 
			},
			{
				"x": 1.3816344577,
				"y": -4.4130872959,
				"z": 2.3013752225,
				"element": "H" 
			}
		],
		 "valence_orbital": [ 
			{
				"type": "occ",
				"energy": -0.33689,
				"method": "rhf"
			},
			{
				"type": "occ",
				"energy": -0.32265,
				"method": "rhf"
			},
			{
				"type": "occ",
				"energy": -0.31415,
				"method": "rhf"
			},
			{
				"type": "occ",
				"energy": -0.26885,
				"method": "rhf"
			},
			{
				"type": "occ",
				"energy": -0.25516,
				"method": "rhf"
			},
			{
				"type": "unocc",
				"energy": 0.07057,
				"method": "rhf"
			},
			{
				"type": "unocc",
				"energy": 0.08706,
				"method": "rhf"
			},
			{
				"type": "unocc",
				"energy": 0.11641,
				"method": "rhf"
			},
			{
				"type": "unocc",
				"energy": 0.13501,
				"method": "rhf"
			},
			{
				"type": "unocc",
				"energy": 0.13738,
				"method": "rhf"
			}
		],
		"cosmo_sigma_profile": { 
			"-0.025": 0.0,
			"-0.024": 0.0,
			"-0.023": 0.0,
			"-0.022": 0.0,
			"-0.021": 0.0,
			"-0.02": 0.0,
			"-0.019": 0.0,
			"-0.018": 0.0,
			"-0.017": 0.0,
			"-0.016": 0.323919555158,
			"-0.015": 1.13636031725,
			"-0.014": 1.00080645255,
			"-0.013": 0.847086073922,
			"-0.012": 1.33967895968,
			"-0.011": 0.632068870136,
			"-0.01": 1.03268993804,
			"-0.009": 0.487973323276,
			"-0.008": 0.766147030877,
			"-0.007": 1.66112946967,
			"-0.006": 1.81655327039,
			"-0.005": 1.86025045909,
			"-0.004": 5.83502562193,
			"-0.003": 22.2007412709,
			"-0.002": 28.451202824,
			"-0.001": 23.6402672202,
			"0.0": 17.0648556791,
			"0.001": 14.7805216209,
			"0.002": 7.68155524872,
			"0.003": 3.29916675129,
			"0.004": 4.0926718458,
			"0.005": 3.26444823614,
			"0.006": 2.54056149507,
			"0.007": 3.09322521394,
			"0.008": 4.13012640072,
			"0.009": 1.31635332563,
			"0.01": 2.49531380055,
			"0.011": 2.64947016051,
			"0.012": 2.1207359464,
			"0.013": 1.6247416203,
			"0.014": 2.40529746238,
			"0.015": 0.394965987469,
			"0.016": 0.0,
			"0.017": 0.0,
			"0.018": 0.0,
			"0.019": 0.0,
			"0.02": 0.0,
			"0.021": 0.0,
			"0.022": 0.0,
			"0.023": 0.0,
			"0.024": 0.0,
			"0.025": 0.0
		}
	}
}
