{
	 "smiles": "CC1=NC(=CS1)C1=CC(NC(=O)CCl)=CC=C1", 
	 "Tm": 319.15, 
	 "num_atms": 28, 
	 "gaussian": { 
		 "optdone": 1, 
		 "sigma_profile": "yes", 
		 "theory": "DFT", 
		 "functional": "B3LYP", 
		 "basiset": "6-31G**", 
		 "properties": { 
			 "R2extent": 6007.9827, 
			 "electric_dipole_moment_norm": 4.73841220453, 
			 "electric_quadrupole_moment_norm": 19.9696652451, 
			 "total_energy": -1507.02791567, 
			 "HOMO_LUMO_gap": 0.17509, 
			 "cosmo_polarized_energy": -15.9, 
			 "cosmo_cavitation_energy": 35.98, 
			 "cosmo_dispersion_energy": -25.78, 
			 "cosmo_repulsion_energy": 1.95, 
			 "cosmo_total_nonelectrostatic_energy": 12.15, 
			 "SMD_solvation_energy": 5.21 
		},
		"coords": [
			{
				"x": -1.2221410601,
				"y": 1.0318813572,
				"z": -3.9961399145,
				"element": "C" 
			},
			{
				"x": -1.1391239409,
				"y": -0.0848644665,
				"z": -3.0013500386,
				"element": "C" 
			},
			{
				"x": -0.5750467822,
				"y": 0.0101966952,
				"z": -1.8367259069,
				"element": "N" 
			},
			{
				"x": -0.6431115114,
				"y": -1.1711971766,
				"z": -1.1158999818,
				"element": "C" 
			},
			{
				"x": -1.2819437546,
				"y": -2.1962670951,
				"z": -1.7678649373,
				"element": "C" 
			},
			{
				"x": -1.8232002154,
				"y": -1.6804483563,
				"z": -3.3277897128,
				"element": "S" 
			},
			{
				"x": -0.0422873769,
				"y": -1.2195138892,
				"z": 0.2317464148,
				"element": "C" 
			},
			{
				"x": 0.7349595552,
				"y": -0.1354595549,
				"z": 0.6718614791,
				"element": "C" 
			},
			{
				"x": 1.3100782851,
				"y": -0.1462331466,
				"z": 1.9467652672,
				"element": "C" 
			},
			{
				"x": 2.1131844661,
				"y": 0.9197445279,
				"z": 2.4260707374,
				"element": "N" 
			},
			{
				"x": 1.9716488275,
				"y": 2.2904080878,
				"z": 2.3774861967,
				"element": "C" 
			},
			{
				"x": 2.78922267,
				"y": 3.0175734939,
				"z": 2.9194317141,
				"element": "O" 
			},
			{
				"x": 0.7487526088,
				"y": 2.8764900501,
				"z": 1.6786938043,
				"element": "C" 
			},
			{
				"x": 1.1779703209,
				"y": 3.4631928961,
				"z": 0.0179838107,
				"element": "Cl" 
			},
			{
				"x": 1.14568729,
				"y": -1.2656335945,
				"z": 2.7759876832,
				"element": "C" 
			},
			{
				"x": 0.3945042852,
				"y": -2.3509144029,
				"z": 2.3308697893,
				"element": "C" 
			},
			{
				"x": -0.2082269072,
				"y": -2.3288339848,
				"z": 1.0757516834,
				"element": "C" 
			},
			{
				"x": -2.2616965606,
				"y": 1.2851886797,
				"z": -4.2292910051,
				"element": "H" 
			},
			{
				"x": -0.7245287265,
				"y": 0.7697972418,
				"z": -4.9357453184,
				"element": "H" 
			},
			{
				"x": -0.7325232928,
				"y": 1.9095723183,
				"z": -3.5706744036,
				"element": "H" 
			},
			{
				"x": -1.4508774087,
				"y": -3.2099032188,
				"z": -1.4358462274,
				"element": "H" 
			},
			{
				"x": 0.8981684846,
				"y": 0.6934048076,
				"z": -0.0059363,
				"element": "H" 
			},
			{
				"x": 2.89326726,
				"y": 0.6598210182,
				"z": 3.0184439836,
				"element": "H" 
			},
			{
				"x": 0.4422266054,
				"y": 3.7530708844,
				"z": 2.2471765561,
				"element": "H" 
			},
			{
				"x": -0.0771920891,
				"y": 2.1754571261,
				"z": 1.5699529367,
				"element": "H" 
			},
			{
				"x": 1.5937787371,
				"y": -1.2735273148,
				"z": 3.7656341143,
				"element": "H" 
			},
			{
				"x": 0.2650042249,
				"y": -3.2140949475,
				"z": 2.9769719771,
				"element": "H" 
			},
			{
				"x": -0.8095539943,
				"y": -3.1743080358,
				"z": 0.7579355983,
				"element": "H" 
			}
		],
		 "valence_orbital": [ 
			{
				"type": "occ",
				"energy": -0.27807,
				"method": "rhf"
			},
			{
				"type": "occ",
				"energy": -0.27622,
				"method": "rhf"
			},
			{
				"type": "occ",
				"energy": -0.26056,
				"method": "rhf"
			},
			{
				"type": "occ",
				"energy": -0.23895,
				"method": "rhf"
			},
			{
				"type": "occ",
				"energy": -0.22253,
				"method": "rhf"
			},
			{
				"type": "unocc",
				"energy": -0.04744,
				"method": "rhf"
			},
			{
				"type": "unocc",
				"energy": -0.02785,
				"method": "rhf"
			},
			{
				"type": "unocc",
				"energy": -0.01669,
				"method": "rhf"
			},
			{
				"type": "unocc",
				"energy": 0.00012,
				"method": "rhf"
			},
			{
				"type": "unocc",
				"energy": 0.01196,
				"method": "rhf"
			}
		],
		"cosmo_sigma_profile": { 
			"-0.025": 0.0,
			"-0.024": 0.0,
			"-0.023": 0.0,
			"-0.022": 0.0,
			"-0.021": 0.0,
			"-0.02": 0.0,
			"-0.019": 0.0,
			"-0.018": 0.0,
			"-0.017": 0.0,
			"-0.016": 0.0,
			"-0.015": 0.317276607794,
			"-0.014": 1.14043258026,
			"-0.013": 0.90837423164,
			"-0.012": 1.44254865539,
			"-0.011": 1.29411822184,
			"-0.01": 1.34097549033,
			"-0.009": 4.28273418359,
			"-0.008": 6.72265881177,
			"-0.007": 10.0905043265,
			"-0.006": 16.661105098,
			"-0.005": 17.9935864201,
			"-0.004": 18.2277346295,
			"-0.003": 15.7918243796,
			"-0.002": 17.8369724886,
			"-0.001": 19.7082400685,
			"0.0": 17.7614743701,
			"0.001": 20.3931490939,
			"0.002": 25.393606293,
			"0.003": 28.7288423618,
			"0.004": 20.8237306226,
			"0.005": 13.0129009144,
			"0.006": 8.64934225204,
			"0.007": 3.52296986723,
			"0.008": 2.85022610921,
			"0.009": 3.07954501844,
			"0.01": 3.20549918317,
			"0.011": 2.21747401947,
			"0.012": 4.06451664323,
			"0.013": 4.55283092958,
			"0.014": 0.5491564163,
			"0.015": 0.0,
			"0.016": 0.0,
			"0.017": 0.0,
			"0.018": 0.0,
			"0.019": 0.0,
			"0.02": 0.0,
			"0.021": 0.0,
			"0.022": 0.0,
			"0.023": 0.0,
			"0.024": 0.0,
			"0.025": 0.0
		}
	}
}
