{
	 "smiles": "CC(=O)C1=CN=C2C=CC=CC2=N1", 
	 "Tm": 351.15, 
	 "num_atms": 21, 
	 "gaussian": { 
		 "optdone": 1, 
		 "sigma_profile": "yes", 
		 "theory": "DFT", 
		 "functional": "B3LYP", 
		 "basiset": "6-31G**", 
		 "properties": { 
			 "R2extent": 2872.8927, 
			 "electric_dipole_moment_norm": 3.68804879577, 
			 "electric_quadrupole_moment_norm": 8.96250454505, 
			 "total_energy": -570.613360985, 
			 "HOMO_LUMO_gap": 0.15183, 
			 "cosmo_polarized_energy": -8.71, 
			 "cosmo_cavitation_energy": 25.79, 
			 "cosmo_dispersion_energy": -19.04, 
			 "cosmo_repulsion_energy": 1.49, 
			 "cosmo_total_nonelectrostatic_energy": 8.24, 
			 "SMD_solvation_energy": 2.46 
		},
		"coords": [
			{
				"x": -1.9633928389,
				"y": 0.8406256442,
				"z": 3.4171463721,
				"element": "C" 
			},
			{
				"x": -2.6327945253,
				"y": -0.0208431308,
				"z": 2.3709187178,
				"element": "C" 
			},
			{
				"x": -3.7960149917,
				"y": -0.3800038538,
				"z": 2.4590302669,
				"element": "O" 
			},
			{
				"x": -1.8110271789,
				"y": -0.4424131842,
				"z": 1.1804895265,
				"element": "C" 
			},
			{
				"x": -2.4086915039,
				"y": -1.2568514522,
				"z": 0.1715508169,
				"element": "C" 
			},
			{
				"x": -1.7501512347,
				"y": -1.6604557764,
				"z": -0.8925260113,
				"element": "N" 
			},
			{
				"x": -0.4480197133,
				"y": -1.2603017791,
				"z": -0.9926858687,
				"element": "C" 
			},
			{
				"x": 0.3216904389,
				"y": -1.6589772516,
				"z": -2.1142208608,
				"element": "C" 
			},
			{
				"x": 1.6355779918,
				"y": -1.2597492191,
				"z": -2.2229697683,
				"element": "C" 
			},
			{
				"x": 2.2340615606,
				"y": -0.4499834786,
				"z": -1.2224004331,
				"element": "C" 
			},
			{
				"x": 1.5118397976,
				"y": -0.0472979259,
				"z": -0.1221668991,
				"element": "C" 
			},
			{
				"x": 0.1555245413,
				"y": -0.4434916238,
				"z": 0.0166964506,
				"element": "C" 
			},
			{
				"x": -0.5539975939,
				"y": -0.0424915525,
				"z": 1.1066031277,
				"element": "N" 
			},
			{
				"x": -2.6800546182,
				"y": 1.0602588531,
				"z": 4.2089656111,
				"element": "H" 
			},
			{
				"x": -1.0866153994,
				"y": 0.3301813349,
				"z": 3.8278461063,
				"element": "H" 
			},
			{
				"x": -1.5950543658,
				"y": 1.7686146216,
				"z": 2.9686773304,
				"element": "H" 
			},
			{
				"x": -3.4469563694,
				"y": -1.5569797651,
				"z": 0.2829389702,
				"element": "H" 
			},
			{
				"x": -0.1581028114,
				"y": -2.277728183,
				"z": -2.865469034,
				"element": "H" 
			},
			{
				"x": 2.2255248613,
				"y": -1.5650446222,
				"z": -3.0821271121,
				"element": "H" 
			},
			{
				"x": 3.2715947858,
				"y": -0.1487842024,
				"z": -1.3317687041,
				"element": "H" 
			},
			{
				"x": 1.9439591675,
				"y": 0.5716165469,
				"z": 0.6575713949,
				"element": "H" 
			}
		],
		 "valence_orbital": [ 
			{
				"type": "occ",
				"energy": -0.3178,
				"method": "rhf"
			},
			{
				"type": "occ",
				"energy": -0.27506,
				"method": "rhf"
			},
			{
				"type": "occ",
				"energy": -0.2677,
				"method": "rhf"
			},
			{
				"type": "occ",
				"energy": -0.2553,
				"method": "rhf"
			},
			{
				"type": "occ",
				"energy": -0.2428,
				"method": "rhf"
			},
			{
				"type": "unocc",
				"energy": -0.09097,
				"method": "rhf"
			},
			{
				"type": "unocc",
				"energy": -0.0522,
				"method": "rhf"
			},
			{
				"type": "unocc",
				"energy": -0.00361,
				"method": "rhf"
			},
			{
				"type": "unocc",
				"energy": 0.01021,
				"method": "rhf"
			},
			{
				"type": "unocc",
				"energy": 0.08823,
				"method": "rhf"
			}
		],
		"cosmo_sigma_profile": { 
			"-0.025": 0.0,
			"-0.024": 0.0,
			"-0.023": 0.0,
			"-0.022": 0.0,
			"-0.021": 0.0,
			"-0.02": 0.0,
			"-0.019": 0.0,
			"-0.018": 0.0,
			"-0.017": 0.0,
			"-0.016": 0.0,
			"-0.015": 0.0,
			"-0.014": 0.0,
			"-0.013": 0.0,
			"-0.012": 0.0,
			"-0.011": 0.0,
			"-0.01": 0.0,
			"-0.009": 0.0,
			"-0.008": 0.19754222219,
			"-0.007": 6.33728101085,
			"-0.006": 13.2727572896,
			"-0.005": 16.7873296369,
			"-0.004": 16.0007367478,
			"-0.003": 18.616284587,
			"-0.002": 17.9003265722,
			"-0.001": 18.739625,
			"0.0": 16.214452607,
			"0.001": 17.8759899236,
			"0.002": 16.5865440056,
			"0.003": 12.4589825595,
			"0.004": 3.81208181622,
			"0.005": 4.92921241717,
			"0.006": 3.30636877563,
			"0.007": 4.64226469424,
			"0.008": 3.70761890433,
			"0.009": 2.69372804318,
			"0.01": 4.13563085709,
			"0.011": 4.82822076328,
			"0.012": 2.76041902982,
			"0.013": 0.759471129042,
			"0.014": 0.699858616038,
			"0.015": 0.259683560604,
			"0.016": 0.0,
			"0.017": 0.0,
			"0.018": 0.0,
			"0.019": 0.0,
			"0.02": 0.0,
			"0.021": 0.0,
			"0.022": 0.0,
			"0.023": 0.0,
			"0.024": 0.0,
			"0.025": 0.0
		}
	}
}
