{
	 "smiles": "CC1=C(C)C=C(C=C1)C1=CN=C(CCC(O)=O)O1", 
	 "Tm": 433.15, 
	 "num_atms": 33, 
	 "gaussian": { 
		 "optdone": 1, 
		 "sigma_profile": "yes", 
		 "theory": "DFT", 
		 "functional": "B3LYP", 
		 "basiset": "6-31G**", 
		 "properties": { 
			 "R2extent": 6035.3354, 
			 "electric_dipole_moment_norm": 2.25416959877, 
			 "electric_quadrupole_moment_norm": 14.7899895412, 
			 "total_energy": -822.98319945, 
			 "HOMO_LUMO_gap": 0.17412, 
			 "cosmo_polarized_energy": -14.68, 
			 "cosmo_cavitation_energy": 37.59, 
			 "cosmo_dispersion_energy": -25.92, 
			 "cosmo_repulsion_energy": 2.01, 
			 "cosmo_total_nonelectrostatic_energy": 13.69, 
			 "SMD_solvation_energy": 5.79 
		},
		"coords": [
			{
				"x": -3.4428961106,
				"y": 2.1560649118,
				"z": -2.3942931584,
				"element": "C" 
			},
			{
				"x": -2.5653680676,
				"y": 1.2777847641,
				"z": -1.5361109595,
				"element": "C" 
			},
			{
				"x": -1.2465220693,
				"y": 0.9605760394,
				"z": -1.9286026995,
				"element": "C" 
			},
			{
				"x": -0.6771234948,
				"y": 1.491593795,
				"z": -3.2230328211,
				"element": "C" 
			},
			{
				"x": -0.4651972579,
				"y": 0.1441976935,
				"z": -1.1086549933,
				"element": "C" 
			},
			{
				"x": -0.954807127,
				"y": -0.3736893518,
				"z": 0.1023833734,
				"element": "C" 
			},
			{
				"x": -2.2655059131,
				"y": -0.0522474927,
				"z": 0.4859561285,
				"element": "C" 
			},
			{
				"x": -3.0483246799,
				"y": 0.7593808475,
				"z": -0.328174218,
				"element": "C" 
			},
			{
				"x": -0.1237150851,
				"y": -1.2276182229,
				"z": 0.9381837875,
				"element": "C" 
			},
			{
				"x": -0.3052121685,
				"y": -1.946371491,
				"z": 2.086312627,
				"element": "C" 
			},
			{
				"x": 0.8716023583,
				"y": -2.5940040047,
				"z": 2.4304297797,
				"element": "N" 
			},
			{
				"x": 1.7139507158,
				"y": -2.2619819828,
				"z": 1.4976445559,
				"element": "C" 
			},
			{
				"x": 3.1437519529,
				"y": -2.6643755471,
				"z": 1.3538804401,
				"element": "C" 
			},
			{
				"x": 4.12631816,
				"y": -1.4800395878,
				"z": 1.372003789,
				"element": "C" 
			},
			{
				"x": 4.1703000551,
				"y": -0.7258605813,
				"z": 0.0571041095,
				"element": "C" 
			},
			{
				"x": 4.6057424434,
				"y": 0.5441388399,
				"z": 0.2285301203,
				"element": "O" 
			},
			{
				"x": 3.8988708573,
				"y": -1.1840979539,
				"z": -1.0306847171,
				"element": "O" 
			},
			{
				"x": 1.185143104,
				"y": -1.4321365672,
				"z": 0.5558108385,
				"element": "O" 
			},
			{
				"x": -3.0002801163,
				"y": 3.1483281421,
				"z": -2.5460062148,
				"element": "H" 
			},
			{
				"x": -3.596022535,
				"y": 1.7258964652,
				"z": -3.3917822581,
				"element": "H" 
			},
			{
				"x": -4.4263786925,
				"y": 2.2966784691,
				"z": -1.9382044441,
				"element": "H" 
			},
			{
				"x": -0.6676544905,
				"y": 2.5883400981,
				"z": -3.2412921149,
				"element": "H" 
			},
			{
				"x": 0.3484935226,
				"y": 1.1454277614,
				"z": -3.3735764325,
				"element": "H" 
			},
			{
				"x": -1.269174619,
				"y": 1.168342741,
				"z": -4.0878572962,
				"element": "H" 
			},
			{
				"x": 0.5471318132,
				"y": -0.1030549766,
				"z": -1.4132813662,
				"element": "H" 
			},
			{
				"x": -2.671296404,
				"y": -0.4312890883,
				"z": 1.4191133267,
				"element": "H" 
			},
			{
				"x": -4.0621682628,
				"y": 1.0007641001,
				"z": -0.0185983382,
				"element": "H" 
			},
			{
				"x": -1.1984922134,
				"y": -2.0467732137,
				"z": 2.6850094531,
				"element": "H" 
			},
			{
				"x": 3.3610786336,
				"y": -3.3422841887,
				"z": 2.1816503789,
				"element": "H" 
			},
			{
				"x": 3.2816631382,
				"y": -3.213139023,
				"z": 0.415426755,
				"element": "H" 
			},
			{
				"x": 3.9101839306,
				"y": -0.7827225986,
				"z": 2.185942573,
				"element": "H" 
			},
			{
				"x": 5.1436149146,
				"y": -1.8543623571,
				"z": 1.5454326871,
				"element": "H" 
			},
			{
				"x": 4.6434937076,
				"y": 0.9395335609,
				"z": -0.6588626916,
				"element": "H" 
			}
		],
		 "valence_orbital": [ 
			{
				"type": "occ",
				"energy": -0.28054,
				"method": "rhf"
			},
			{
				"type": "occ",
				"energy": -0.28015,
				"method": "rhf"
			},
			{
				"type": "occ",
				"energy": -0.27186,
				"method": "rhf"
			},
			{
				"type": "occ",
				"energy": -0.24337,
				"method": "rhf"
			},
			{
				"type": "occ",
				"energy": -0.2053,
				"method": "rhf"
			},
			{
				"type": "unocc",
				"energy": -0.03118,
				"method": "rhf"
			},
			{
				"type": "unocc",
				"energy": 0.00219,
				"method": "rhf"
			},
			{
				"type": "unocc",
				"energy": 0.0058,
				"method": "rhf"
			},
			{
				"type": "unocc",
				"energy": 0.03111,
				"method": "rhf"
			},
			{
				"type": "unocc",
				"energy": 0.07535,
				"method": "rhf"
			}
		],
		"cosmo_sigma_profile": { 
			"-0.025": 0.0,
			"-0.024": 0.0,
			"-0.023": 0.0,
			"-0.022": 0.0,
			"-0.021": 0.0,
			"-0.02": 0.0,
			"-0.019": 0.0,
			"-0.018": 0.634631564508,
			"-0.017": 1.03223260115,
			"-0.016": 0.797588212023,
			"-0.015": 0.682963545833,
			"-0.014": 0.804734999918,
			"-0.013": 1.15619161644,
			"-0.012": 0.61410652487,
			"-0.011": 0.318749011043,
			"-0.01": 0.509607827754,
			"-0.009": 0.88090437237,
			"-0.008": 3.00054686127,
			"-0.007": 8.35366287389,
			"-0.006": 11.0093773791,
			"-0.005": 17.4498218105,
			"-0.004": 29.4190633595,
			"-0.003": 23.7669780833,
			"-0.002": 24.7013290298,
			"-0.001": 20.4475388835,
			"0.0": 27.3554040654,
			"0.001": 22.4398697144,
			"0.002": 19.6484583261,
			"0.003": 16.3732162818,
			"0.004": 13.3833692975,
			"0.005": 14.3933091714,
			"0.006": 8.51504814949,
			"0.007": 4.64244490299,
			"0.008": 3.60639265523,
			"0.009": 5.33072062292,
			"0.01": 3.5385644095,
			"0.011": 4.02527376802,
			"0.012": 4.95118407162,
			"0.013": 1.07036084444,
			"0.014": 1.04500320681,
			"0.015": 1.01657761822,
			"0.016": 0.666811882772,
			"0.017": 0.168143630508,
			"0.018": 0.0,
			"0.019": 0.0,
			"0.02": 0.0,
			"0.021": 0.0,
			"0.022": 0.0,
			"0.023": 0.0,
			"0.024": 0.0,
			"0.025": 0.0
		}
	}
}
