{
	 "smiles": "COC1=CC=C(C=C1)C1=C2C(=O)N(N(C)C2=CC(=C1)N1CCCC1)C1=CC=CC=C1", 
	 "Tm": 490.15, 
	 "num_atms": 55, 
	 "gaussian": { 
		 "optdone": 1, 
		 "sigma_profile": "yes", 
		 "theory": "DFT", 
		 "functional": "B3LYP", 
		 "basiset": "6-31G**", 
		 "properties": { 
			 "R2extent": 16214.8959, 
			 "electric_dipole_moment_norm": 5.61932486069, 
			 "electric_quadrupole_moment_norm": 15.542112368, 
			 "total_energy": -1282.41571216, 
			 "HOMO_LUMO_gap": 0.15991, 
			 "cosmo_polarized_energy": -18.91, 
			 "cosmo_cavitation_energy": 55.86, 
			 "cosmo_dispersion_energy": -39.6, 
			 "cosmo_repulsion_energy": 2.95, 
			 "cosmo_total_nonelectrostatic_energy": 19.21, 
			 "SMD_solvation_energy": 8.56 
		},
		"coords": [
			{
				"x": -6.8151687716,
				"y": 1.2952179546,
				"z": 2.5596666678,
				"element": "C" 
			},
			{
				"x": -5.8098077759,
				"y": 2.1743443834,
				"z": 2.0819774751,
				"element": "O" 
			},
			{
				"x": -4.6786538571,
				"y": 1.6294557814,
				"z": 1.5457252674,
				"element": "C" 
			},
			{
				"x": -4.442768274,
				"y": 0.256888266,
				"z": 1.4057844981,
				"element": "C" 
			},
			{
				"x": -3.2449107266,
				"y": -0.1899109821,
				"z": 0.8477034158,
				"element": "C" 
			},
			{
				"x": -2.2622635421,
				"y": 0.7064686926,
				"z": 0.4075329051,
				"element": "C" 
			},
			{
				"x": -2.5200628747,
				"y": 2.083069323,
				"z": 0.559553387,
				"element": "C" 
			},
			{
				"x": -3.7033450138,
				"y": 2.5424614756,
				"z": 1.1200884056,
				"element": "C" 
			},
			{
				"x": -1.0079666072,
				"y": 0.2530026712,
				"z": -0.2478822836,
				"element": "C" 
			},
			{
				"x": -0.2341639835,
				"y": -0.8506884948,
				"z": 0.1899574818,
				"element": "C" 
			},
			{
				"x": -0.3690190724,
				"y": -1.778885466,
				"z": 1.3156593111,
				"element": "C" 
			},
			{
				"x": -1.1995473571,
				"y": -1.8599239046,
				"z": 2.2119657816,
				"element": "O" 
			},
			{
				"x": 0.7440163321,
				"y": -2.6515649248,
				"z": 1.2005050338,
				"element": "N" 
			},
			{
				"x": 1.6091797083,
				"y": -2.2489889146,
				"z": 0.1421476844,
				"element": "N" 
			},
			{
				"x": 1.9997206786,
				"y": -3.3766435184,
				"z": -0.7169716238,
				"element": "C" 
			},
			{
				"x": 0.9493074555,
				"y": -1.1790129858,
				"z": -0.488265741,
				"element": "C" 
			},
			{
				"x": 1.3963166012,
				"y": -0.5053830548,
				"z": -1.6191684734,
				"element": "C" 
			},
			{
				"x": 0.6300011977,
				"y": 0.5872910656,
				"z": -2.0751877886,
				"element": "C" 
			},
			{
				"x": -0.5547928255,
				"y": 0.9421529404,
				"z": -1.3734161359,
				"element": "C" 
			},
			{
				"x": 1.0169747191,
				"y": 1.3000880332,
				"z": -3.1835561663,
				"element": "N" 
			},
			{
				"x": 0.3559674136,
				"y": 2.5225319757,
				"z": -3.6434694729,
				"element": "C" 
			},
			{
				"x": 1.329914443,
				"y": 3.0915143099,
				"z": -4.6860588555,
				"element": "C" 
			},
			{
				"x": 2.0129499741,
				"y": 1.8369674955,
				"z": -5.2527758454,
				"element": "C" 
			},
			{
				"x": 2.1557102591,
				"y": 0.9295778888,
				"z": -4.0221425059,
				"element": "C" 
			},
			{
				"x": 1.3082173462,
				"y": -3.3663892555,
				"z": 2.2869962122,
				"element": "C" 
			},
			{
				"x": 2.6948456007,
				"y": -3.3717931775,
				"z": 2.4999794282,
				"element": "C" 
			},
			{
				"x": 3.2319489259,
				"y": -4.1011925745,
				"z": 3.5604595064,
				"element": "C" 
			},
			{
				"x": 2.4006819587,
				"y": -4.8160248978,
				"z": 4.4234550285,
				"element": "C" 
			},
			{
				"x": 1.0199200398,
				"y": -4.7969113669,
				"z": 4.21336078,
				"element": "C" 
			},
			{
				"x": 0.4673891199,
				"y": -4.0882520393,
				"z": 3.1484683137,
				"element": "C" 
			},
			{
				"x": -7.610176396,
				"y": 1.9310307049,
				"z": 2.952930819,
				"element": "H" 
			},
			{
				"x": -6.4397585823,
				"y": 0.6480886068,
				"z": 3.362706697,
				"element": "H" 
			},
			{
				"x": -7.2212207328,
				"y": 0.6672534686,
				"z": 1.7558799803,
				"element": "H" 
			},
			{
				"x": -5.1761194993,
				"y": -0.4719723136,
				"z": 1.7296093712,
				"element": "H" 
			},
			{
				"x": -3.0744125715,
				"y": -1.2554575803,
				"z": 0.7638123313,
				"element": "H" 
			},
			{
				"x": -1.7656469635,
				"y": 2.8026985714,
				"z": 0.2557296203,
				"element": "H" 
			},
			{
				"x": -3.8920170348,
				"y": 3.6032154605,
				"z": 1.2497451254,
				"element": "H" 
			},
			{
				"x": 2.6922926751,
				"y": -3.0093701528,
				"z": -1.4760732854,
				"element": "H" 
			},
			{
				"x": 2.5172737673,
				"y": -4.1231291814,
				"z": -0.1125323155,
				"element": "H" 
			},
			{
				"x": 1.1320078256,
				"y": -3.8399364189,
				"z": -1.2051687756,
				"element": "H" 
			},
			{
				"x": 2.323893895,
				"y": -0.7822187511,
				"z": -2.1026884663,
				"element": "H" 
			},
			{
				"x": -1.1627101561,
				"y": 1.7545649058,
				"z": -1.7503456918,
				"element": "H" 
			},
			{
				"x": 0.1885262647,
				"y": 3.2168279355,
				"z": -2.8117722922,
				"element": "H" 
			},
			{
				"x": -0.6258046,
				"y": 2.3012652264,
				"z": -4.0903154949,
				"element": "H" 
			},
			{
				"x": 2.0692495613,
				"y": 3.7329548643,
				"z": -4.1934980559,
				"element": "H" 
			},
			{
				"x": 0.8224281214,
				"y": 3.6895225217,
				"z": -5.4474756884,
				"element": "H" 
			},
			{
				"x": 1.3651655954,
				"y": 1.3575906184,
				"z": -5.9952257661,
				"element": "H" 
			},
			{
				"x": 2.9735036742,
				"y": 2.0453617377,
				"z": -5.7311964502,
				"element": "H" 
			},
			{
				"x": 3.1100158174,
				"y": 1.1071655724,
				"z": -3.5006846888,
				"element": "H" 
			},
			{
				"x": 2.1196543521,
				"y": -0.1348814029,
				"z": -4.2849639396,
				"element": "H" 
			},
			{
				"x": 3.3354386367,
				"y": -2.7901289998,
				"z": 1.8470388903,
				"element": "H" 
			},
			{
				"x": 4.3073197018,
				"y": -4.0981425864,
				"z": 3.7159353069,
				"element": "H" 
			},
			{
				"x": 2.822547888,
				"y": -5.3798939911,
				"z": 5.2500651809,
				"element": "H" 
			},
			{
				"x": 0.3611963027,
				"y": -5.3468547579,
				"z": 4.8796245765,
				"element": "H" 
			},
			{
				"x": -0.6017386346,
				"y": -4.0673207578,
				"z": 2.9868713203,
				"element": "H" 
			}
		],
		 "valence_orbital": [ 
			{
				"type": "occ",
				"energy": -0.23444,
				"method": "rhf"
			},
			{
				"type": "occ",
				"energy": -0.2293,
				"method": "rhf"
			},
			{
				"type": "occ",
				"energy": -0.20378,
				"method": "rhf"
			},
			{
				"type": "occ",
				"energy": -0.19612,
				"method": "rhf"
			},
			{
				"type": "occ",
				"energy": -0.1891,
				"method": "rhf"
			},
			{
				"type": "unocc",
				"energy": -0.02919,
				"method": "rhf"
			},
			{
				"type": "unocc",
				"energy": -0.0001,
				"method": "rhf"
			},
			{
				"type": "unocc",
				"energy": 0.00832,
				"method": "rhf"
			},
			{
				"type": "unocc",
				"energy": 0.01129,
				"method": "rhf"
			},
			{
				"type": "unocc",
				"energy": 0.0181,
				"method": "rhf"
			}
		],
		"cosmo_sigma_profile": { 
			"-0.025": 0.0,
			"-0.024": 0.0,
			"-0.023": 0.0,
			"-0.022": 0.0,
			"-0.021": 0.0,
			"-0.02": 0.0,
			"-0.019": 0.0,
			"-0.018": 0.0,
			"-0.017": 0.0,
			"-0.016": 0.0,
			"-0.015": 0.0,
			"-0.014": 0.0,
			"-0.013": 0.0,
			"-0.012": 0.0,
			"-0.011": 0.0,
			"-0.01": 0.0,
			"-0.009": 0.0,
			"-0.008": 0.496956700072,
			"-0.007": 2.69287318045,
			"-0.006": 12.5347768709,
			"-0.005": 31.5724733695,
			"-0.004": 49.9717808239,
			"-0.003": 61.1781324592,
			"-0.002": 49.5716936328,
			"-0.001": 32.47269832,
			"0.0": 29.3965966857,
			"0.001": 22.0511558646,
			"0.002": 22.7753818851,
			"0.003": 28.5737488924,
			"0.004": 31.5490409014,
			"0.005": 29.3558962904,
			"0.006": 13.0466729379,
			"0.007": 5.15675331493,
			"0.008": 3.84157184415,
			"0.009": 3.17605385805,
			"0.01": 3.4224826346,
			"0.011": 2.65546840568,
			"0.012": 2.19289974367,
			"0.013": 3.33445044175,
			"0.014": 2.58047252472,
			"0.015": 0.0344305721691,
			"0.016": 0.0,
			"0.017": 0.0,
			"0.018": 0.0,
			"0.019": 0.0,
			"0.02": 0.0,
			"0.021": 0.0,
			"0.022": 0.0,
			"0.023": 0.0,
			"0.024": 0.0,
			"0.025": 0.0
		}
	}
}
