{
	 "smiles": "CC(=O)NC1=C(N)C=C(Br)C=C1", 
	 "Tm": 429.15, 
	 "num_atms": 21, 
	 "gaussian": { 
		 "optdone": 1, 
		 "sigma_profile": "yes", 
		 "theory": "DFT", 
		 "functional": "B3LYP", 
		 "basiset": "6-31G**", 
		 "properties": { 
			 "R2extent": 6265.5615, 
			 "electric_dipole_moment_norm": 2.09654365087, 
			 "electric_quadrupole_moment_norm": 19.8632201063, 
			 "total_energy": -3066.42742472, 
			 "HOMO_LUMO_gap": 0.19516, 
			 "cosmo_polarized_energy": -14.75, 
			 "cosmo_cavitation_energy": 27.62, 
			 "cosmo_dispersion_energy": -20.17, 
			 "cosmo_repulsion_energy": 1.63, 
			 "cosmo_total_nonelectrostatic_energy": 9.09, 
			 "SMD_solvation_energy": 4.72 
		},
		"coords": [
			{
				"x": 1.8090620609,
				"y": 0.8211465529,
				"z": 0.2875077932,
				"element": "C" 
			},
			{
				"x": 2.6359703358,
				"y": -0.3353019041,
				"z": 0.8208090736,
				"element": "C" 
			},
			{
				"x": 3.6862294347,
				"y": -0.1680434406,
				"z": 1.4221371692,
				"element": "O" 
			},
			{
				"x": 2.1465267127,
				"y": -1.6162137207,
				"z": 0.6194896489,
				"element": "N" 
			},
			{
				"x": 1.0336211135,
				"y": -2.0413496147,
				"z": -0.1583232428,
				"element": "C" 
			},
			{
				"x": 0.0268805615,
				"y": -2.8079231337,
				"z": 0.4772494536,
				"element": "C" 
			},
			{
				"x": 0.1564386401,
				"y": -3.1403782694,
				"z": 1.8183463686,
				"element": "N" 
			},
			{
				"x": -1.0620295311,
				"y": -3.2611018988,
				"z": -0.285351907,
				"element": "C" 
			},
			{
				"x": -1.1400755255,
				"y": -2.945383335,
				"z": -1.6370057993,
				"element": "C" 
			},
			{
				"x": -2.6432259376,
				"y": -3.5670661338,
				"z": -2.6424841087,
				"element": "Br" 
			},
			{
				"x": -0.1583879591,
				"y": -2.190498567,
				"z": -2.2759281497,
				"element": "C" 
			},
			{
				"x": 0.9322359433,
				"y": -1.7590299319,
				"z": -1.5216699592,
				"element": "C" 
			},
			{
				"x": 2.0376659828,
				"y": 1.6975664013,
				"z": 0.8949458131,
				"element": "H" 
			},
			{
				"x": 2.0965877355,
				"y": 1.0433629494,
				"z": -0.745461285,
				"element": "H" 
			},
			{
				"x": 0.7357176524,
				"y": 0.6195054688,
				"z": 0.2991059545,
				"element": "H" 
			},
			{
				"x": 2.7557623246,
				"y": -2.330746195,
				"z": 1.005108452,
				"element": "H" 
			},
			{
				"x": 0.7048210683,
				"y": -2.4887536211,
				"z": 2.3642770154,
				"element": "H" 
			},
			{
				"x": -0.6913111692,
				"y": -3.4346456315,
				"z": 2.2819045496,
				"element": "H" 
			},
			{
				"x": -1.8436713189,
				"y": -3.8495107862,
				"z": 0.1830785282,
				"element": "H" 
			},
			{
				"x": -0.23262112,
				"y": -1.9622251068,
				"z": -3.3318122583,
				"element": "H" 
			},
			{
				"x": 1.7291029954,
				"y": -1.1975100822,
				"z": -1.99912311,
				"element": "H" 
			}
		],
		 "valence_orbital": [ 
			{
				"type": "occ",
				"energy": -0.28953,
				"method": "rhf"
			},
			{
				"type": "occ",
				"energy": -0.27539,
				"method": "rhf"
			},
			{
				"type": "occ",
				"energy": -0.25331,
				"method": "rhf"
			},
			{
				"type": "occ",
				"energy": -0.24521,
				"method": "rhf"
			},
			{
				"type": "occ",
				"energy": -0.21849,
				"method": "rhf"
			},
			{
				"type": "unocc",
				"energy": -0.02333,
				"method": "rhf"
			},
			{
				"type": "unocc",
				"energy": -0.00648,
				"method": "rhf"
			},
			{
				"type": "unocc",
				"energy": 0.00382,
				"method": "rhf"
			},
			{
				"type": "unocc",
				"energy": 0.02555,
				"method": "rhf"
			},
			{
				"type": "unocc",
				"energy": 0.06839,
				"method": "rhf"
			}
		],
		"cosmo_sigma_profile": { 
			"-0.025": 0.0,
			"-0.024": 0.0,
			"-0.023": 0.0,
			"-0.022": 0.0,
			"-0.021": 0.0,
			"-0.02": 0.0,
			"-0.019": 0.0,
			"-0.018": 0.0,
			"-0.017": 0.0,
			"-0.016": 0.0,
			"-0.015": 0.0,
			"-0.014": 0.343574152296,
			"-0.013": 2.08902780599,
			"-0.012": 2.87519792937,
			"-0.011": 3.00083121365,
			"-0.01": 4.57989053612,
			"-0.009": 3.93115479808,
			"-0.008": 3.85633357988,
			"-0.007": 6.86875220533,
			"-0.006": 10.8695623417,
			"-0.005": 11.9421954912,
			"-0.004": 12.4411784938,
			"-0.003": 14.0816170178,
			"-0.002": 14.8950655432,
			"-0.001": 16.1452496358,
			"0.0": 11.9716624779,
			"0.001": 11.5688827725,
			"0.002": 13.6502801025,
			"0.003": 19.0480591981,
			"0.004": 21.3743781243,
			"0.005": 12.3601811132,
			"0.006": 1.50118104748,
			"0.007": 1.79587751101,
			"0.008": 2.50962694314,
			"0.009": 1.31812253233,
			"0.01": 1.41737236756,
			"0.011": 2.49067163986,
			"0.012": 3.13873330282,
			"0.013": 4.46113120794,
			"0.014": 4.93105154456,
			"0.015": 0.988899491467,
			"0.016": 0.0,
			"0.017": 0.0,
			"0.018": 0.0,
			"0.019": 0.0,
			"0.02": 0.0,
			"0.021": 0.0,
			"0.022": 0.0,
			"0.023": 0.0,
			"0.024": 0.0,
			"0.025": 0.0
		}
	}
}
