{
	 "smiles": "CC(=O)C1=CC=C(C=C1)N1C=NN=N1", 
	 "Tm": 448.15, 
	 "num_atms": 22, 
	 "gaussian": { 
		 "optdone": 1, 
		 "sigma_profile": "yes", 
		 "theory": "DFT", 
		 "functional": "B3LYP", 
		 "basiset": "6-31G**", 
		 "properties": { 
			 "R2extent": 3728.8364, 
			 "electric_dipole_moment_norm": 3.36878273268, 
			 "electric_quadrupole_moment_norm": 28.0194982021, 
			 "total_energy": -641.949632152, 
			 "HOMO_LUMO_gap": 0.17941, 
			 "cosmo_polarized_energy": -17.7, 
			 "cosmo_cavitation_energy": 27.33, 
			 "cosmo_dispersion_energy": -20.04, 
			 "cosmo_repulsion_energy": 1.53, 
			 "cosmo_total_nonelectrostatic_energy": 8.82, 
			 "SMD_solvation_energy": 4.14 
		},
		"coords": [
			{
				"x": 0.5721082032,
				"y": -1.9241707803,
				"z": 3.5293368685,
				"element": "C" 
			},
			{
				"x": -0.3105082549,
				"y": -2.256840469,
				"z": 2.3403428563,
				"element": "C" 
			},
			{
				"x": -1.0190088563,
				"y": -3.2516132559,
				"z": 2.3437477027,
				"element": "O" 
			},
			{
				"x": -0.3012010654,
				"y": -1.3403947576,
				"z": 1.1508688121,
				"element": "C" 
			},
			{
				"x": 0.4870680654,
				"y": -0.1830865101,
				"z": 1.0790791391,
				"element": "C" 
			},
			{
				"x": 0.4602872019,
				"y": 0.6346090723,
				"z": -0.0468972735,
				"element": "C" 
			},
			{
				"x": -0.3675619024,
				"y": 0.2920498425,
				"z": -1.1206824851,
				"element": "C" 
			},
			{
				"x": -1.1630078903,
				"y": -0.8599704007,
				"z": -1.0689902961,
				"element": "C" 
			},
			{
				"x": -1.1240567142,
				"y": -1.6644485419,
				"z": 0.0618944736,
				"element": "C" 
			},
			{
				"x": -0.3937033811,
				"y": 1.1283807047,
				"z": -2.2699974717,
				"element": "N" 
			},
			{
				"x": -1.0899910289,
				"y": 1.0356126221,
				"z": -3.4302624749,
				"element": "C" 
			},
			{
				"x": -0.7822959157,
				"y": 2.0528002601,
				"z": -4.2025978678,
				"element": "N" 
			},
			{
				"x": 0.1263797554,
				"y": 2.7882072089,
				"z": -3.497610424,
				"element": "N" 
			},
			{
				"x": 0.3689334525,
				"y": 2.2557414366,
				"z": -2.3498773234,
				"element": "N" 
			},
			{
				"x": 1.6273302506,
				"y": -1.885025413,
				"z": 3.2369290922,
				"element": "H" 
			},
			{
				"x": 0.4364143883,
				"y": -2.6926482323,
				"z": 4.2905070698,
				"element": "H" 
			},
			{
				"x": 0.3125087778,
				"y": -0.9464050121,
				"z": 3.9501760549,
				"element": "H" 
			},
			{
				"x": 1.1333705305,
				"y": 0.0937127603,
				"z": 1.9051266957,
				"element": "H" 
			},
			{
				"x": 1.0674417911,
				"y": 1.5290552857,
				"z": -0.1062583739,
				"element": "H" 
			},
			{
				"x": -1.8071275812,
				"y": -1.1314333745,
				"z": -1.8979459764,
				"element": "H" 
			},
			{
				"x": -1.7299923247,
				"y": -2.5616687624,
				"z": 0.1271087301,
				"element": "H" 
			},
			{
				"x": -1.7847875017,
				"y": 0.2483363164,
				"z": -3.6731975282,
				"element": "H" 
			}
		],
		 "valence_orbital": [ 
			{
				"type": "occ",
				"energy": -0.30771,
				"method": "rhf"
			},
			{
				"type": "occ",
				"energy": -0.29563,
				"method": "rhf"
			},
			{
				"type": "occ",
				"energy": -0.28763,
				"method": "rhf"
			},
			{
				"type": "occ",
				"energy": -0.26752,
				"method": "rhf"
			},
			{
				"type": "occ",
				"energy": -0.2638,
				"method": "rhf"
			},
			{
				"type": "unocc",
				"energy": -0.08439,
				"method": "rhf"
			},
			{
				"type": "unocc",
				"energy": -0.03733,
				"method": "rhf"
			},
			{
				"type": "unocc",
				"energy": -0.02807,
				"method": "rhf"
			},
			{
				"type": "unocc",
				"energy": 0.01051,
				"method": "rhf"
			},
			{
				"type": "unocc",
				"energy": 0.03827,
				"method": "rhf"
			}
		],
		"cosmo_sigma_profile": { 
			"-0.025": 0.0,
			"-0.024": 0.0,
			"-0.023": 0.0,
			"-0.022": 0.0,
			"-0.021": 0.0,
			"-0.02": 0.0,
			"-0.019": 0.0,
			"-0.018": 0.0,
			"-0.017": 0.0,
			"-0.016": 0.0,
			"-0.015": 0.0,
			"-0.014": 0.950511579517,
			"-0.013": 2.51831276066,
			"-0.012": 2.1500578775,
			"-0.011": 1.47103722883,
			"-0.01": 2.39443734557,
			"-0.009": 2.24120489158,
			"-0.008": 2.68883576552,
			"-0.007": 10.3269696592,
			"-0.006": 16.1524465535,
			"-0.005": 15.4060933043,
			"-0.004": 14.0441991488,
			"-0.003": 14.0291971607,
			"-0.002": 14.6223691531,
			"-0.001": 16.1336554339,
			"0.0": 14.2082510523,
			"0.001": 15.7258738382,
			"0.002": 14.9382333831,
			"0.003": 4.80487381587,
			"0.004": 4.49679363666,
			"0.005": 4.74336450475,
			"0.006": 5.30208661729,
			"0.007": 5.31868235452,
			"0.008": 6.83007026862,
			"0.009": 6.52961371647,
			"0.01": 5.78604492521,
			"0.011": 6.41470500062,
			"0.012": 5.73727819335,
			"0.013": 3.00976758375,
			"0.014": 1.34855990898,
			"0.015": 0.103656091674,
			"0.016": 0.0,
			"0.017": 0.0,
			"0.018": 0.0,
			"0.019": 0.0,
			"0.02": 0.0,
			"0.021": 0.0,
			"0.022": 0.0,
			"0.023": 0.0,
			"0.024": 0.0,
			"0.025": 0.0
		}
	}
}
