{
	 "smiles": "FC1=C2NC(=O)C(=O)C2=CC(Cl)=C1", 
	 "Tm": 493.15, 
	 "num_atms": 16, 
	 "gaussian": { 
		 "optdone": 1, 
		 "sigma_profile": "yes", 
		 "theory": "DFT", 
		 "functional": "B3LYP", 
		 "basiset": "6-31G**", 
		 "properties": { 
			 "R2extent": 3202.4418, 
			 "electric_dipole_moment_norm": 4.0842686371, 
			 "electric_quadrupole_moment_norm": 11.6590304515, 
			 "total_energy": -1071.87681671, 
			 "HOMO_LUMO_gap": 0.13437, 
			 "cosmo_polarized_energy": -13.52, 
			 "cosmo_cavitation_energy": 24.43, 
			 "cosmo_dispersion_energy": -17.92, 
			 "cosmo_repulsion_energy": 1.39, 
			 "cosmo_total_nonelectrostatic_energy": 7.91, 
			 "SMD_solvation_energy": 5.75 
		},
		"coords": [
			{
				"x": 1.320861655,
				"y": 0.5383968079,
				"z": 1.7380356859,
				"element": "F" 
			},
			{
				"x": 1.0837147257,
				"y": 0.3852640774,
				"z": 0.4203464629,
				"element": "C" 
			},
			{
				"x": 0.0677785873,
				"y": -0.4603925998,
				"z": 0.0004982949,
				"element": "C" 
			},
			{
				"x": -0.81050519,
				"y": -1.232533913,
				"z": 0.7647274719,
				"element": "N" 
			},
			{
				"x": -1.6890703197,
				"y": -1.9488749689,
				"z": -0.0375817774,
				"element": "C" 
			},
			{
				"x": -2.5622507736,
				"y": -2.7018550448,
				"z": 0.323129501,
				"element": "O" 
			},
			{
				"x": -1.2987723458,
				"y": -1.5628521968,
				"z": -1.5113600218,
				"element": "C" 
			},
			{
				"x": -1.8444699854,
				"y": -1.9908327688,
				"z": -2.5017092494,
				"element": "O" 
			},
			{
				"x": -0.172658514,
				"y": -0.6142692668,
				"z": -1.3755899971,
				"element": "C" 
			},
			{
				"x": 0.5801789334,
				"y": 0.0581283783,
				"z": -2.334291404,
				"element": "C" 
			},
			{
				"x": 1.5958624494,
				"y": 0.9023910622,
				"z": -1.8832686118,
				"element": "C" 
			},
			{
				"x": 2.5788704603,
				"y": 1.7771727903,
				"z": -3.040955185,
				"element": "Cl" 
			},
			{
				"x": 1.8522587154,
				"y": 1.0703150315,
				"z": -0.516382601,
				"element": "C" 
			},
			{
				"x": -0.8126544761,
				"y": -1.2709200462,
				"z": 1.773389155,
				"element": "H" 
			},
			{
				"x": 0.3784003085,
				"y": -0.074515122,
				"z": -3.3910059349,
				"element": "H" 
			},
			{
				"x": 2.6426557696,
				"y": 1.7275777795,
				"z": -0.1731817891,
				"element": "H" 
			}
		],
		 "valence_orbital": [ 
			{
				"type": "occ",
				"energy": -0.32512,
				"method": "rhf"
			},
			{
				"type": "occ",
				"energy": -0.32263,
				"method": "rhf"
			},
			{
				"type": "occ",
				"energy": -0.29133,
				"method": "rhf"
			},
			{
				"type": "occ",
				"energy": -0.26169,
				"method": "rhf"
			},
			{
				"type": "occ",
				"energy": -0.24821,
				"method": "rhf"
			},
			{
				"type": "unocc",
				"energy": -0.11384,
				"method": "rhf"
			},
			{
				"type": "unocc",
				"energy": -0.03494,
				"method": "rhf"
			},
			{
				"type": "unocc",
				"energy": -0.01367,
				"method": "rhf"
			},
			{
				"type": "unocc",
				"energy": 0.00575,
				"method": "rhf"
			},
			{
				"type": "unocc",
				"energy": 0.06333,
				"method": "rhf"
			}
		],
		"cosmo_sigma_profile": { 
			"-0.025": 0.0,
			"-0.024": 0.0,
			"-0.023": 0.0,
			"-0.022": 0.0,
			"-0.021": 0.0,
			"-0.02": 0.0,
			"-0.019": 0.0,
			"-0.018": 0.0691678350944,
			"-0.017": 0.914834381772,
			"-0.016": 0.639696974546,
			"-0.015": 1.40522499151,
			"-0.014": 1.0084519365,
			"-0.013": 0.403820470791,
			"-0.012": 1.18654933188,
			"-0.011": 1.11423747796,
			"-0.01": 2.17789728778,
			"-0.009": 4.75731394304,
			"-0.008": 4.41458548691,
			"-0.007": 6.41114179216,
			"-0.006": 6.66216046642,
			"-0.005": 6.72980046201,
			"-0.004": 8.94152499228,
			"-0.003": 13.3837027496,
			"-0.002": 20.7426910037,
			"-0.001": 16.2401972513,
			"0.0": 18.7541990794,
			"0.001": 9.51904295678,
			"0.002": 10.0524300758,
			"0.003": 17.4610192408,
			"0.004": 11.2491634508,
			"0.005": 3.60940271446,
			"0.006": 2.98128109933,
			"0.007": 2.43736649532,
			"0.008": 4.61589208066,
			"0.009": 6.3757653269,
			"0.01": 8.88158634426,
			"0.011": 6.141636731,
			"0.012": 1.06252753718,
			"0.013": 0.0,
			"0.014": 0.0,
			"0.015": 0.0,
			"0.016": 0.0,
			"0.017": 0.0,
			"0.018": 0.0,
			"0.019": 0.0,
			"0.02": 0.0,
			"0.021": 0.0,
			"0.022": 0.0,
			"0.023": 0.0,
			"0.024": 0.0,
			"0.025": 0.0
		}
	}
}
