{
	 "smiles": "CN1C2CCC1CC(O)C2", 
	 "Tm": 382.15, 
	 "num_atms": 25, 
	 "gaussian": { 
		 "optdone": 1, 
		 "sigma_profile": "yes", 
		 "theory": "DFT", 
		 "functional": "B3LYP", 
		 "basiset": "6-31G**", 
		 "properties": { 
			 "R2extent": 1471.3125, 
			 "electric_dipole_moment_norm": 1.2951355875, 
			 "electric_quadrupole_moment_norm": 8.87259138527, 
			 "total_energy": -443.853497238, 
			 "HOMO_LUMO_gap": 0.27704, 
			 "cosmo_polarized_energy": -7.3, 
			 "cosmo_cavitation_energy": 23.97, 
			 "cosmo_dispersion_energy": -18.32, 
			 "cosmo_repulsion_energy": 1.47, 
			 "cosmo_total_nonelectrostatic_energy": 7.12, 
			 "SMD_solvation_energy": 1.12 
		},
		"coords": [
			{
				"x": 0.1415028432,
				"y": 1.4018144089,
				"z": 1.6888636571,
				"element": "C" 
			},
			{
				"x": 0.4413440621,
				"y": 0.123988321,
				"z": 1.0703481988,
				"element": "N" 
			},
			{
				"x": 0.6209495812,
				"y": 0.0891361416,
				"z": -0.3883384958,
				"element": "C" 
			},
			{
				"x": 0.9881745472,
				"y": -1.4007750863,
				"z": -0.5980453436,
				"element": "C" 
			},
			{
				"x": 0.2390440379,
				"y": -2.1350416177,
				"z": 0.5559777061,
				"element": "C" 
			},
			{
				"x": -0.4842698863,
				"y": -0.9939967035,
				"z": 1.3133997859,
				"element": "C" 
			},
			{
				"x": -1.8955809278,
				"y": -0.7171351197,
				"z": 0.7415361575,
				"element": "C" 
			},
			{
				"x": -1.8465071961,
				"y": -0.4543517776,
				"z": -0.7685796982,
				"element": "C" 
			},
			{
				"x": -3.1106126134,
				"y": 0.0938490368,
				"z": -1.1432922976,
				"element": "O" 
			},
			{
				"x": -0.6779104448,
				"y": 0.4791243515,
				"z": -1.1373356136,
				"element": "C" 
			},
			{
				"x": -0.8056976614,
				"y": 1.8751897985,
				"z": 1.3782979458,
				"element": "H" 
			},
			{
				"x": 0.1040395487,
				"y": 1.2731673435,
				"z": 2.7763487751,
				"element": "H" 
			},
			{
				"x": 0.9510047935,
				"y": 2.1062497349,
				"z": 1.466981687,
				"element": "H" 
			},
			{
				"x": 1.4342768839,
				"y": 0.763287726,
				"z": -0.6813663557,
				"element": "H" 
			},
			{
				"x": 2.0685710924,
				"y": -1.5349283288,
				"z": -0.5014842947,
				"element": "H" 
			},
			{
				"x": 0.6991452712,
				"y": -1.7621532501,
				"z": -1.5899496813,
				"element": "H" 
			},
			{
				"x": -0.4588208519,
				"y": -2.8958392372,
				"z": 0.192915965,
				"element": "H" 
			},
			{
				"x": 0.9507737438,
				"y": -2.631453548,
				"z": 1.2204969308,
				"element": "H" 
			},
			{
				"x": -0.5553296666,
				"y": -1.1906269434,
				"z": 2.3894117055,
				"element": "H" 
			},
			{
				"x": -2.5698697365,
				"y": -1.5561508127,
				"z": 0.9491473662,
				"element": "H" 
			},
			{
				"x": -2.3318004982,
				"y": 0.1634958087,
				"z": 1.227626217,
				"element": "H" 
			},
			{
				"x": -1.7015685018,
				"y": -1.4170603497,
				"z": -1.2850862572,
				"element": "H" 
			},
			{
				"x": -3.0973648773,
				"y": 0.2358619685,
				"z": -2.0991342861,
				"element": "H" 
			},
			{
				"x": -0.9646730755,
				"y": 1.5051208709,
				"z": -0.8771840299,
				"element": "H" 
			},
			{
				"x": -0.5089204673,
				"y": 0.4622272639,
				"z": -2.2232557441,
				"element": "H" 
			}
		],
		 "valence_orbital": [ 
			{
				"type": "occ",
				"energy": -0.31918,
				"method": "rhf"
			},
			{
				"type": "occ",
				"energy": -0.30691,
				"method": "rhf"
			},
			{
				"type": "occ",
				"energy": -0.29881,
				"method": "rhf"
			},
			{
				"type": "occ",
				"energy": -0.25761,
				"method": "rhf"
			},
			{
				"type": "occ",
				"energy": -0.20081,
				"method": "rhf"
			},
			{
				"type": "unocc",
				"energy": 0.07623,
				"method": "rhf"
			},
			{
				"type": "unocc",
				"energy": 0.08015,
				"method": "rhf"
			},
			{
				"type": "unocc",
				"energy": 0.09756,
				"method": "rhf"
			},
			{
				"type": "unocc",
				"energy": 0.12072,
				"method": "rhf"
			},
			{
				"type": "unocc",
				"energy": 0.13268,
				"method": "rhf"
			}
		],
		"cosmo_sigma_profile": { 
			"-0.025": 0.0,
			"-0.024": 0.0,
			"-0.023": 0.0,
			"-0.022": 0.0,
			"-0.021": 0.0,
			"-0.02": 0.0,
			"-0.019": 0.0,
			"-0.018": 0.0,
			"-0.017": 0.0,
			"-0.016": 0.0200472680405,
			"-0.015": 0.54120372086,
			"-0.014": 1.05636304258,
			"-0.013": 0.789786338782,
			"-0.012": 0.579262335177,
			"-0.011": 0.868598079205,
			"-0.01": 1.02079796679,
			"-0.009": 0.966515353812,
			"-0.008": 0.482182994235,
			"-0.007": 1.04469889465,
			"-0.006": 1.2163562964,
			"-0.005": 1.31504210478,
			"-0.004": 3.13400191191,
			"-0.003": 23.1453448143,
			"-0.002": 36.1168746338,
			"-0.001": 32.5306358627,
			"0.0": 26.845353103,
			"0.001": 17.621277671,
			"0.002": 6.09770387252,
			"0.003": 2.42761217575,
			"0.004": 2.6573546426,
			"0.005": 2.72521210121,
			"0.006": 2.17931236325,
			"0.007": 1.55304913656,
			"0.008": 1.91449722331,
			"0.009": 2.18669975545,
			"0.01": 1.90983282762,
			"0.011": 2.15446728801,
			"0.012": 1.97196611166,
			"0.013": 1.75143454622,
			"0.014": 2.66847869729,
			"0.015": 1.64404587231,
			"0.016": 0.445284253539,
			"0.017": 0.103982703629,
			"0.018": 0.0,
			"0.019": 0.0,
			"0.02": 0.0,
			"0.021": 0.0,
			"0.022": 0.0,
			"0.023": 0.0,
			"0.024": 0.0,
			"0.025": 0.0
		}
	}
}
