{
	 "smiles": "CCCCCCCCCCCCCCCCCCCCCCC", 
	 "Tm": 321.45, 
	 "num_atms": 71, 
	 "gaussian": { 
		 "optdone": 1, 
		 "sigma_profile": "yes", 
		 "theory": "DFT", 
		 "functional": "B3LYP", 
		 "basiset": "6-31G**", 
		 "properties": { 
			 "R2extent": 20953.9403, 
			 "electric_dipole_moment_norm": 0.0588539718286, 
			 "electric_quadrupole_moment_norm": 0.752310201978, 
			 "total_energy": -905.446255164, 
			 "HOMO_LUMO_gap": 0.35817, 
			 "cosmo_polarized_energy": -1.46, 
			 "cosmo_cavitation_energy": 66.46, 
			 "cosmo_dispersion_energy": -43.68, 
			 "cosmo_repulsion_energy": 3.55, 
			 "cosmo_total_nonelectrostatic_energy": 26.33, 
			 "SMD_solvation_energy": 8.28 
		},
		"coords": [
			{
				"x": -5.1532058968,
				"y": 2.732086223,
				"z": -2.5680770517,
				"element": "C" 
			},
			{
				"x": -5.5409200415,
				"y": 1.3547955049,
				"z": -2.0164005803,
				"element": "C" 
			},
			{
				"x": -5.653125478,
				"y": 0.2506169489,
				"z": -3.0805808939,
				"element": "C" 
			},
			{
				"x": -4.3316260755,
				"y": -0.1114858235,
				"z": -3.7743265415,
				"element": "C" 
			},
			{
				"x": -4.4833742875,
				"y": -1.274438689,
				"z": -4.7650950253,
				"element": "C" 
			},
			{
				"x": -3.2468267936,
				"y": -1.6168344682,
				"z": -5.6160996224,
				"element": "C" 
			},
			{
				"x": -2.0122611417,
				"y": -2.1481833976,
				"z": -4.8539058957,
				"element": "C" 
			},
			{
				"x": -1.0200355052,
				"y": -1.0730566451,
				"z": -4.3802445732,
				"element": "C" 
			},
			{
				"x": 0.2689153849,
				"y": -1.6353619421,
				"z": -3.7536241308,
				"element": "C" 
			},
			{
				"x": 0.0990697438,
				"y": -2.4423360393,
				"z": -2.453023018,
				"element": "C" 
			},
			{
				"x": -0.4551964644,
				"y": -1.6341940435,
				"z": -1.2706758864,
				"element": "C" 
			},
			{
				"x": -0.6218516952,
				"y": -2.4406247052,
				"z": 0.0302638309,
				"element": "C" 
			},
			{
				"x": 0.6730338862,
				"y": -3.001783426,
				"z": 0.6485814949,
				"element": "C" 
			},
			{
				"x": 1.7334166582,
				"y": -1.9605663532,
				"z": 1.0481025971,
				"element": "C" 
			},
			{
				"x": 1.2877240394,
				"y": -0.9759872985,
				"z": 2.138609437,
				"element": "C" 
			},
			{
				"x": 2.4061912217,
				"y": -0.0175207275,
				"z": 2.5732061116,
				"element": "C" 
			},
			{
				"x": 2.0290541263,
				"y": 0.9380918441,
				"z": 3.7184138233,
				"element": "C" 
			},
			{
				"x": 0.949201666,
				"y": 1.967827993,
				"z": 3.3531098609,
				"element": "C" 
			},
			{
				"x": 0.6727158322,
				"y": 3.0516136596,
				"z": 4.411882249,
				"element": "C" 
			},
			{
				"x": 0.0689375187,
				"y": 2.5474852749,
				"z": 5.7438977463,
				"element": "C" 
			},
			{
				"x": 1.0762384597,
				"y": 2.2231377663,
				"z": 6.8655784029,
				"element": "C" 
			},
			{
				"x": 1.8067636482,
				"y": 3.4357239841,
				"z": 7.4712618434,
				"element": "C" 
			},
			{
				"x": 0.8994037196,
				"y": 4.407334313,
				"z": 8.2355580127,
				"element": "C" 
			},
			{
				"x": -4.1590865326,
				"y": 2.7241346661,
				"z": -3.026624621,
				"element": "H" 
			},
			{
				"x": -5.8665137275,
				"y": 3.0657928187,
				"z": -3.330997224,
				"element": "H" 
			},
			{
				"x": -5.1410469092,
				"y": 3.4857834984,
				"z": -1.7737171027,
				"element": "H" 
			},
			{
				"x": -6.5035671114,
				"y": 1.4389799262,
				"z": -1.4958092135,
				"element": "H" 
			},
			{
				"x": -4.8112639992,
				"y": 1.0481304557,
				"z": -1.2541140538,
				"element": "H" 
			},
			{
				"x": -6.3889093831,
				"y": 0.5537435191,
				"z": -3.8397362685,
				"element": "H" 
			},
			{
				"x": -6.0618242164,
				"y": -0.6536595848,
				"z": -2.6088085835,
				"element": "H" 
			},
			{
				"x": -3.934065026,
				"y": 0.7637238528,
				"z": -4.3051522043,
				"element": "H" 
			},
			{
				"x": -3.5899062371,
				"y": -0.3678759389,
				"z": -3.0063407722,
				"element": "H" 
			},
			{
				"x": -4.79653999,
				"y": -2.1739444061,
				"z": -4.2153225122,
				"element": "H" 
			},
			{
				"x": -5.3115003724,
				"y": -1.0401853781,
				"z": -5.4488424584,
				"element": "H" 
			},
			{
				"x": -2.9571583164,
				"y": -0.7379096662,
				"z": -6.2098187374,
				"element": "H" 
			},
			{
				"x": -3.5565904767,
				"y": -2.3768649299,
				"z": -6.3445809734,
				"element": "H" 
			},
			{
				"x": -2.3507105309,
				"y": -2.7552368463,
				"z": -4.0032784375,
				"element": "H" 
			},
			{
				"x": -1.4649312779,
				"y": -2.8383337512,
				"z": -5.5106852449,
				"element": "H" 
			},
			{
				"x": -1.5065067514,
				"y": -0.3866214666,
				"z": -3.6785373344,
				"element": "H" 
			},
			{
				"x": -0.7382071884,
				"y": -0.4589963509,
				"z": -5.2466103054,
				"element": "H" 
			},
			{
				"x": 0.9569178815,
				"y": -0.8007349957,
				"z": -3.5598896927,
				"element": "H" 
			},
			{
				"x": 0.7695551104,
				"y": -2.2719272325,
				"z": -4.4964258535,
				"element": "H" 
			},
			{
				"x": -0.5501567743,
				"y": -3.3103367012,
				"z": -2.6320435756,
				"element": "H" 
			},
			{
				"x": 1.0790680528,
				"y": -2.8557203433,
				"z": -2.1835520004,
				"element": "H" 
			},
			{
				"x": -1.4361683094,
				"y": -1.2218618252,
				"z": -1.5390949193,
				"element": "H" 
			},
			{
				"x": 0.1928337363,
				"y": -0.7646604117,
				"z": -1.0929840096,
				"element": "H" 
			},
			{
				"x": -1.1325167747,
				"y": -1.8109131505,
				"z": 0.7697841013,
				"element": "H" 
			},
			{
				"x": -1.3023408571,
				"y": -3.2814933195,
				"z": -0.1627001064,
				"element": "H" 
			},
			{
				"x": 0.4019061583,
				"y": -3.5863684624,
				"z": 1.5385229079,
				"element": "H" 
			},
			{
				"x": 1.1287289134,
				"y": -3.7172046149,
				"z": -0.0475026036,
				"element": "H" 
			},
			{
				"x": 2.0567296872,
				"y": -1.3965150096,
				"z": 0.1625072708,
				"element": "H" 
			},
			{
				"x": 2.6262304097,
				"y": -2.4955812952,
				"z": 1.3998959629,
				"element": "H" 
			},
			{
				"x": 0.9369706416,
				"y": -1.5416542429,
				"z": 3.014691347,
				"element": "H" 
			},
			{
				"x": 0.425014422,
				"y": -0.3989845127,
				"z": 1.7844453021,
				"element": "H" 
			},
			{
				"x": 3.2769900693,
				"y": -0.611599911,
				"z": 2.8828074288,
				"element": "H" 
			},
			{
				"x": 2.7362052256,
				"y": 0.5714231331,
				"z": 1.7050141984,
				"element": "H" 
			},
			{
				"x": 2.9327395397,
				"y": 1.4735075484,
				"z": 4.0409293055,
				"element": "H" 
			},
			{
				"x": 1.7023198922,
				"y": 0.3440137785,
				"z": 4.5820678075,
				"element": "H" 
			},
			{
				"x": 1.2479922254,
				"y": 2.4665340582,
				"z": 2.4198939608,
				"element": "H" 
			},
			{
				"x": 0.0060775054,
				"y": 1.4513303479,
				"z": 3.1295896848,
				"element": "H" 
			},
			{
				"x": -0.0194055511,
				"y": 3.7763327108,
				"z": 3.9651619226,
				"element": "H" 
			},
			{
				"x": 1.5977182042,
				"y": 3.6112848946,
				"z": 4.6063568794,
				"element": "H" 
			},
			{
				"x": -0.6403501527,
				"y": 3.294645914,
				"z": 6.1202713625,
				"element": "H" 
			},
			{
				"x": -0.534553808,
				"y": 1.6520382738,
				"z": 5.5419293022,
				"element": "H" 
			},
			{
				"x": 0.5418959322,
				"y": 1.7033738906,
				"z": 7.6732533435,
				"element": "H" 
			},
			{
				"x": 1.8241417414,
				"y": 1.5131869699,
				"z": 6.4938700012,
				"element": "H" 
			},
			{
				"x": 2.3428924123,
				"y": 3.981440516,
				"z": 6.6837698019,
				"element": "H" 
			},
			{
				"x": 2.5817159643,
				"y": 3.0638076086,
				"z": 8.1538712752,
				"element": "H" 
			},
			{
				"x": 1.4822305228,
				"y": 5.2156867045,
				"z": 8.6895998996,
				"element": "H" 
			},
			{
				"x": 0.3609430659,
				"y": 3.8936263654,
				"z": 9.0407372514,
				"element": "H" 
			},
			{
				"x": 0.1522604349,
				"y": 4.8714229434,
				"z": 7.5833863,
				"element": "H" 
			}
		],
		 "valence_orbital": [ 
			{
				"type": "occ",
				"energy": -0.29956,
				"method": "rhf"
			},
			{
				"type": "occ",
				"energy": -0.29867,
				"method": "rhf"
			},
			{
				"type": "occ",
				"energy": -0.29626,
				"method": "rhf"
			},
			{
				"type": "occ",
				"energy": -0.29347,
				"method": "rhf"
			},
			{
				"type": "occ",
				"energy": -0.28965,
				"method": "rhf"
			},
			{
				"type": "unocc",
				"energy": 0.06852,
				"method": "rhf"
			},
			{
				"type": "unocc",
				"energy": 0.08413,
				"method": "rhf"
			},
			{
				"type": "unocc",
				"energy": 0.08884,
				"method": "rhf"
			},
			{
				"type": "unocc",
				"energy": 0.09738,
				"method": "rhf"
			},
			{
				"type": "unocc",
				"energy": 0.1013,
				"method": "rhf"
			}
		],
		"cosmo_sigma_profile": { 
			"-0.025": 0.0,
			"-0.024": 0.0,
			"-0.023": 0.0,
			"-0.022": 0.0,
			"-0.021": 0.0,
			"-0.02": 0.0,
			"-0.019": 0.0,
			"-0.018": 0.0,
			"-0.017": 0.0,
			"-0.016": 0.0,
			"-0.015": 0.0,
			"-0.014": 0.0,
			"-0.013": 0.0,
			"-0.012": 0.0,
			"-0.011": 0.0,
			"-0.01": 0.0,
			"-0.009": 0.0,
			"-0.008": 0.0,
			"-0.007": 0.0,
			"-0.006": 0.0,
			"-0.005": 0.0,
			"-0.004": 0.0,
			"-0.003": 3.76641691453,
			"-0.002": 53.7717910947,
			"-0.001": 123.426404799,
			"0.0": 142.843301162,
			"0.001": 125.994152937,
			"0.002": 55.2625238394,
			"0.003": 1.24423368882,
			"0.004": 0.0,
			"0.005": 0.0,
			"0.006": 0.0,
			"0.007": 0.0,
			"0.008": 0.0,
			"0.009": 0.0,
			"0.01": 0.0,
			"0.011": 0.0,
			"0.012": 0.0,
			"0.013": 0.0,
			"0.014": 0.0,
			"0.015": 0.0,
			"0.016": 0.0,
			"0.017": 0.0,
			"0.018": 0.0,
			"0.019": 0.0,
			"0.02": 0.0,
			"0.021": 0.0,
			"0.022": 0.0,
			"0.023": 0.0,
			"0.024": 0.0,
			"0.025": 0.0
		}
	}
}
