{
	 "smiles": "COC(=O)C1=CC=C(OC2=CC=CN=C2)O1", 
	 "Tm": 351.65, 
	 "num_atms": 25, 
	 "gaussian": { 
		 "optdone": 1, 
		 "sigma_profile": "yes", 
		 "theory": "DFT", 
		 "functional": "B3LYP", 
		 "basiset": "6-31G**", 
		 "properties": { 
			 "R2extent": 6088.3286, 
			 "electric_dipole_moment_norm": 3.02123975381, 
			 "electric_quadrupole_moment_norm": 15.7723925005, 
			 "total_energy": -780.19791459, 
			 "HOMO_LUMO_gap": 0.17886, 
			 "cosmo_polarized_energy": -12.86, 
			 "cosmo_cavitation_energy": 31.39, 
			 "cosmo_dispersion_energy": -22.81, 
			 "cosmo_repulsion_energy": 1.78, 
			 "cosmo_total_nonelectrostatic_energy": 10.37, 
			 "SMD_solvation_energy": 6.66 
		},
		"coords": [
			{
				"x": -5.435613407,
				"y": -1.2224451056,
				"z": 0.9509426199,
				"element": "C" 
			},
			{
				"x": -4.0869013656,
				"y": -1.1094107148,
				"z": 0.4725846823,
				"element": "O" 
			},
			{
				"x": -3.769304869,
				"y": -1.9527692992,
				"z": -0.5333519459,
				"element": "C" 
			},
			{
				"x": -4.5386392066,
				"y": -2.7598805405,
				"z": -1.0228880752,
				"element": "O" 
			},
			{
				"x": -2.3890072943,
				"y": -1.7966522702,
				"z": -0.9818588958,
				"element": "C" 
			},
			{
				"x": -1.6969576137,
				"y": -2.4623338878,
				"z": -1.9567133735,
				"element": "C" 
			},
			{
				"x": -0.3777432275,
				"y": -1.9250268817,
				"z": -1.9785457707,
				"element": "C" 
			},
			{
				"x": -0.376184973,
				"y": -0.9584834073,
				"z": -1.0039978369,
				"element": "C" 
			},
			{
				"x": 0.5519880984,
				"y": -0.1264135716,
				"z": -0.4932449805,
				"element": "O" 
			},
			{
				"x": 1.692744687,
				"y": 0.1499393648,
				"z": -1.23493373,
				"element": "C" 
			},
			{
				"x": 2.9198410431,
				"y": 0.0832719213,
				"z": -0.5823794488,
				"element": "C" 
			},
			{
				"x": 4.0586994543,
				"y": 0.4364994589,
				"z": -1.303245473,
				"element": "C" 
			},
			{
				"x": 3.9144057812,
				"y": 0.8332432562,
				"z": -2.6338956732,
				"element": "C" 
			},
			{
				"x": 2.7316439993,
				"y": 0.9022498322,
				"z": -3.2583259753,
				"element": "N" 
			},
			{
				"x": 1.6379745946,
				"y": 0.5705217686,
				"z": -2.5668086857,
				"element": "C" 
			},
			{
				"x": -1.5648715487,
				"y": -0.8562580622,
				"z": -0.3904414112,
				"element": "O" 
			},
			{
				"x": -5.5256386956,
				"y": -0.4847545754,
				"z": 1.7481257886,
				"element": "H" 
			},
			{
				"x": -5.6267670366,
				"y": -2.2279167464,
				"z": 1.3347543577,
				"element": "H" 
			},
			{
				"x": -6.1488432658,
				"y": -1.0112636227,
				"z": 0.1499990899,
				"element": "H" 
			},
			{
				"x": -2.0999942708,
				"y": -3.2492679784,
				"z": -2.5769409643,
				"element": "H" 
			},
			{
				"x": 0.447358383,
				"y": -2.2088181705,
				"z": -2.6122943255,
				"element": "H" 
			},
			{
				"x": 2.9629712268,
				"y": -0.2316068053,
				"z": 0.4550069259,
				"element": "H" 
			},
			{
				"x": 5.0405326155,
				"y": 0.4026156605,
				"z": -0.8420464027,
				"element": "H" 
			},
			{
				"x": 4.7847493443,
				"y": 1.1135061223,
				"z": -3.2232216643,
				"element": "H" 
			},
			{
				"x": 0.6830575468,
				"y": 0.6395542548,
				"z": -3.0824788318,
				"element": "H" 
			}
		],
		 "valence_orbital": [ 
			{
				"type": "occ",
				"energy": -0.29346,
				"method": "rhf"
			},
			{
				"type": "occ",
				"energy": -0.27409,
				"method": "rhf"
			},
			{
				"type": "occ",
				"energy": -0.27315,
				"method": "rhf"
			},
			{
				"type": "occ",
				"energy": -0.27027,
				"method": "rhf"
			},
			{
				"type": "occ",
				"energy": -0.22178,
				"method": "rhf"
			},
			{
				"type": "unocc",
				"energy": -0.04292,
				"method": "rhf"
			},
			{
				"type": "unocc",
				"energy": -0.03529,
				"method": "rhf"
			},
			{
				"type": "unocc",
				"energy": -0.02368,
				"method": "rhf"
			},
			{
				"type": "unocc",
				"energy": 0.04904,
				"method": "rhf"
			},
			{
				"type": "unocc",
				"energy": 0.08137,
				"method": "rhf"
			}
		],
		"cosmo_sigma_profile": { 
			"-0.025": 0.0,
			"-0.024": 0.0,
			"-0.023": 0.0,
			"-0.022": 0.0,
			"-0.021": 0.0,
			"-0.02": 0.0,
			"-0.019": 0.0,
			"-0.018": 0.0,
			"-0.017": 0.0,
			"-0.016": 0.0,
			"-0.015": 0.0,
			"-0.014": 0.0,
			"-0.013": 0.0,
			"-0.012": 0.0,
			"-0.011": 0.0,
			"-0.01": 0.0,
			"-0.009": 0.964364393298,
			"-0.008": 6.13907826533,
			"-0.007": 11.7866469127,
			"-0.006": 16.6531164095,
			"-0.005": 18.2502284107,
			"-0.004": 18.0803450261,
			"-0.003": 21.2461478408,
			"-0.002": 16.2927102394,
			"-0.001": 19.648029073,
			"0.0": 20.6364389119,
			"0.001": 20.9067148531,
			"0.002": 18.270503838,
			"0.003": 10.4926471176,
			"0.004": 6.74275624331,
			"0.005": 7.43663935195,
			"0.006": 6.54335212106,
			"0.007": 5.79652646091,
			"0.008": 4.8466780649,
			"0.009": 3.93638693337,
			"0.01": 4.31213844274,
			"0.011": 3.39277309173,
			"0.012": 6.08283697701,
			"0.013": 2.01553855515,
			"0.014": 0.718790591915,
			"0.015": 0.988228129042,
			"0.016": 0.458490643477,
			"0.017": 0.0,
			"0.018": 0.0,
			"0.019": 0.0,
			"0.02": 0.0,
			"0.021": 0.0,
			"0.022": 0.0,
			"0.023": 0.0,
			"0.024": 0.0,
			"0.025": 0.0
		}
	}
}
