{
	 "smiles": "CCN1C(=O)N(CC)C(=O)N(CC)C1=O", 
	 "Tm": 370.0, 
	 "num_atms": 30, 
	 "gaussian": { 
		 "optdone": 1, 
		 "sigma_profile": "yes", 
		 "theory": "DFT", 
		 "functional": "B3LYP", 
		 "basiset": "6-31G**", 
		 "properties": { 
			 "R2extent": 3502.0832, 
			 "electric_dipole_moment_norm": 0.0860117433843, 
			 "electric_quadrupole_moment_norm": 3.61546710399, 
			 "total_energy": -742.02064164, 
			 "HOMO_LUMO_gap": 0.26339, 
			 "cosmo_polarized_energy": -10.87, 
			 "cosmo_cavitation_energy": 33.29, 
			 "cosmo_dispersion_energy": -22.82, 
			 "cosmo_repulsion_energy": 1.79, 
			 "cosmo_total_nonelectrostatic_energy": 12.26, 
			 "SMD_solvation_energy": 7.35 
		},
		"coords": [
			{
				"x": -3.8068741444,
				"y": 0.1229525892,
				"z": 0.5207525548,
				"element": "C" 
			},
			{
				"x": -2.7472128321,
				"y": 0.3283139525,
				"z": -0.5599363974,
				"element": "C" 
			},
			{
				"x": -1.4195278948,
				"y": -0.1768445023,
				"z": -0.1512160562,
				"element": "N" 
			},
			{
				"x": -1.1182425714,
				"y": -1.5091662672,
				"z": -0.4293336395,
				"element": "C" 
			},
			{
				"x": -1.9070659046,
				"y": -2.2517405446,
				"z": -0.9895253109,
				"element": "O" 
			},
			{
				"x": 0.1522560407,
				"y": -1.9303925679,
				"z": -0.0399515447,
				"element": "N" 
			},
			{
				"x": 0.5314495158,
				"y": -3.3298999476,
				"z": -0.3273011092,
				"element": "C" 
			},
			{
				"x": 0.1426732437,
				"y": -4.2824896821,
				"z": 0.8015880527,
				"element": "C" 
			},
			{
				"x": 1.0665948786,
				"y": -1.1403919353,
				"z": 0.6550763124,
				"element": "C" 
			},
			{
				"x": 2.1592183411,
				"y": -1.5592281965,
				"z": 0.9990697664,
				"element": "O" 
			},
			{
				"x": 0.6458556334,
				"y": 0.1586750793,
				"z": 0.9354180172,
				"element": "N" 
			},
			{
				"x": 1.58134634,
				"y": 1.0434207484,
				"z": 1.6614440077,
				"element": "C" 
			},
			{
				"x": 2.504376151,
				"y": 1.8130698735,
				"z": 0.7188201652,
				"element": "C" 
			},
			{
				"x": -0.5784370144,
				"y": 0.6945335019,
				"z": 0.5389849524,
				"element": "C" 
			},
			{
				"x": -0.8944648396,
				"y": 1.8468385315,
				"z": 0.7837561764,
				"element": "O" 
			},
			{
				"x": -3.9307207979,
				"y": -0.9398982615,
				"z": 0.7457810331,
				"element": "H" 
			},
			{
				"x": -4.7693423283,
				"y": 0.5118248641,
				"z": 0.1733709611,
				"element": "H" 
			},
			{
				"x": -3.5356892903,
				"y": 0.6554313665,
				"z": 1.4365143626,
				"element": "H" 
			},
			{
				"x": -2.6189121273,
				"y": 1.3876215685,
				"z": -0.7822561634,
				"element": "H" 
			},
			{
				"x": -3.0134405085,
				"y": -0.2059900679,
				"z": -1.4718462351,
				"element": "H" 
			},
			{
				"x": 0.0288338319,
				"y": -3.6015164774,
				"z": -1.2554871215,
				"element": "H" 
			},
			{
				"x": 1.6102440981,
				"y": -3.3312507667,
				"z": -0.4829155755,
				"element": "H" 
			},
			{
				"x": 0.4431412059,
				"y": -5.3030894511,
				"z": 0.5440340059,
				"element": "H" 
			},
			{
				"x": 0.6438175697,
				"y": -4.0054840887,
				"z": 1.7331568359,
				"element": "H" 
			},
			{
				"x": -0.9393141425,
				"y": -4.2761027,
				"z": 0.9593984995,
				"element": "H" 
			},
			{
				"x": 2.1556396534,
				"y": 0.4028106332,
				"z": 2.3306115137,
				"element": "H" 
			},
			{
				"x": 0.9675435006,
				"y": 1.7268286739,
				"z": 2.2481275391,
				"element": "H" 
			},
			{
				"x": 3.1763564842,
				"y": 2.452600832,
				"z": 1.2999377918,
				"element": "H" 
			},
			{
				"x": 1.926211773,
				"y": 2.4510126427,
				"z": 0.0446973613,
				"element": "H" 
			},
			{
				"x": 3.115786135,
				"y": 1.1259505998,
				"z": 0.1274292441,
				"element": "H" 
			}
		],
		 "valence_orbital": [ 
			{
				"type": "occ",
				"energy": -0.30802,
				"method": "rhf"
			},
			{
				"type": "occ",
				"energy": -0.29002,
				"method": "rhf"
			},
			{
				"type": "occ",
				"energy": -0.2788,
				"method": "rhf"
			},
			{
				"type": "occ",
				"energy": -0.27794,
				"method": "rhf"
			},
			{
				"type": "occ",
				"energy": -0.27024,
				"method": "rhf"
			},
			{
				"type": "unocc",
				"energy": -0.00685,
				"method": "rhf"
			},
			{
				"type": "unocc",
				"energy": -0.00676,
				"method": "rhf"
			},
			{
				"type": "unocc",
				"energy": 0.09046,
				"method": "rhf"
			},
			{
				"type": "unocc",
				"energy": 0.09788,
				"method": "rhf"
			},
			{
				"type": "unocc",
				"energy": 0.11658,
				"method": "rhf"
			}
		],
		"cosmo_sigma_profile": { 
			"-0.025": 0.0,
			"-0.024": 0.0,
			"-0.023": 0.0,
			"-0.022": 0.0,
			"-0.021": 0.0,
			"-0.02": 0.0,
			"-0.019": 0.0,
			"-0.018": 0.0,
			"-0.017": 0.0,
			"-0.016": 0.0,
			"-0.015": 0.0,
			"-0.014": 0.0,
			"-0.013": 0.0,
			"-0.012": 0.0,
			"-0.011": 0.0,
			"-0.01": 0.0151473106647,
			"-0.009": 0.860437038141,
			"-0.008": 1.25515705154,
			"-0.007": 1.99593413907,
			"-0.006": 2.39933386569,
			"-0.005": 13.4423109986,
			"-0.004": 27.9909889944,
			"-0.003": 48.0129733002,
			"-0.002": 30.8335098684,
			"-0.001": 25.4040912217,
			"0.0": 29.1097572498,
			"0.001": 14.9952687682,
			"0.002": 10.7914266525,
			"0.003": 6.28376135916,
			"0.004": 6.02583781539,
			"0.005": 4.94806908565,
			"0.006": 4.33236890213,
			"0.007": 4.05542816455,
			"0.008": 3.85198417975,
			"0.009": 4.95083294807,
			"0.01": 4.71634222683,
			"0.011": 8.95321415195,
			"0.012": 6.53571322769,
			"0.013": 0.0,
			"0.014": 0.0,
			"0.015": 0.0,
			"0.016": 0.0,
			"0.017": 0.0,
			"0.018": 0.0,
			"0.019": 0.0,
			"0.02": 0.0,
			"0.021": 0.0,
			"0.022": 0.0,
			"0.023": 0.0,
			"0.024": 0.0,
			"0.025": 0.0
		}
	}
}
