{
	 "smiles": "CC1=CC(NC(=O)CCl)=NO1", 
	 "Tm": 459.15, 
	 "num_atms": 18, 
	 "gaussian": { 
		 "optdone": 1, 
		 "sigma_profile": "yes", 
		 "theory": "DFT", 
		 "functional": "B3LYP", 
		 "basiset": "6-31G**", 
		 "properties": { 
			 "R2extent": 3682.4647, 
			 "electric_dipole_moment_norm": 6.77788866683, 
			 "electric_quadrupole_moment_norm": 12.8857751614, 
			 "total_energy": -952.960986472, 
			 "HOMO_LUMO_gap": 0.22701, 
			 "cosmo_polarized_energy": -15.84, 
			 "cosmo_cavitation_energy": 24.75, 
			 "cosmo_dispersion_energy": -18.58, 
			 "cosmo_repulsion_energy": 1.52, 
			 "cosmo_total_nonelectrostatic_energy": 7.7, 
			 "SMD_solvation_energy": 5.29 
		},
		"coords": [
			{
				"x": 1.489698265,
				"y": 1.6193190314,
				"z": 2.1119227113,
				"element": "C" 
			},
			{
				"x": 0.9135879794,
				"y": 0.8001052458,
				"z": 1.0102127739,
				"element": "C" 
			},
			{
				"x": -0.0068880494,
				"y": 1.0511314838,
				"z": 0.0386269059,
				"element": "C" 
			},
			{
				"x": -0.0853531097,
				"y": -0.1819940522,
				"z": -0.6785225176,
				"element": "C" 
			},
			{
				"x": -0.9080609152,
				"y": -0.4059143878,
				"z": -1.7735827854,
				"element": "N" 
			},
			{
				"x": -1.1075838001,
				"y": -1.5293069983,
				"z": -2.5796259262,
				"element": "C" 
			},
			{
				"x": -1.9016031469,
				"y": -1.465315199,
				"z": -3.4950811976,
				"element": "O" 
			},
			{
				"x": -0.285590849,
				"y": -2.7635470165,
				"z": -2.2228968996,
				"element": "C" 
			},
			{
				"x": -0.6268532908,
				"y": -4.1329335739,
				"z": -3.3235038156,
				"element": "Cl" 
			},
			{
				"x": 0.7208098299,
				"y": -1.0990796198,
				"z": -0.1801400542,
				"element": "N" 
			},
			{
				"x": 1.3576411873,
				"y": -0.4687095986,
				"z": 0.8986139065,
				"element": "O" 
			},
			{
				"x": 2.5759309904,
				"y": 1.7039769819,
				"z": 2.0048132306,
				"element": "H" 
			},
			{
				"x": 1.058139697,
				"y": 2.621802149,
				"z": 2.1035614932,
				"element": "H" 
			},
			{
				"x": 1.2876788737,
				"y": 1.158390096,
				"z": 3.0841733734,
				"element": "H" 
			},
			{
				"x": -0.5491159274,
				"y": 1.9658783476,
				"z": -0.1459227015,
				"element": "H" 
			},
			{
				"x": -1.4849314703,
				"y": 0.3707589263,
				"z": -2.0693775627,
				"element": "H" 
			},
			{
				"x": 0.7805038184,
				"y": -2.5363486894,
				"z": -2.2696277754,
				"element": "H" 
			},
			{
				"x": -0.4970100823,
				"y": -3.0779131263,
				"z": -1.1997431588,
				"element": "H" 
			}
		],
		 "valence_orbital": [ 
			{
				"type": "occ",
				"energy": -0.29436,
				"method": "rhf"
			},
			{
				"type": "occ",
				"energy": -0.29282,
				"method": "rhf"
			},
			{
				"type": "occ",
				"energy": -0.2768,
				"method": "rhf"
			},
			{
				"type": "occ",
				"energy": -0.27557,
				"method": "rhf"
			},
			{
				"type": "occ",
				"energy": -0.25659,
				"method": "rhf"
			},
			{
				"type": "unocc",
				"energy": -0.02958,
				"method": "rhf"
			},
			{
				"type": "unocc",
				"energy": 0.00416,
				"method": "rhf"
			},
			{
				"type": "unocc",
				"energy": 0.02428,
				"method": "rhf"
			},
			{
				"type": "unocc",
				"energy": 0.06996,
				"method": "rhf"
			},
			{
				"type": "unocc",
				"energy": 0.07293,
				"method": "rhf"
			}
		],
		"cosmo_sigma_profile": { 
			"-0.025": 0.0,
			"-0.024": 0.0,
			"-0.023": 0.0,
			"-0.022": 0.0,
			"-0.021": 0.0,
			"-0.02": 0.0,
			"-0.019": 0.0,
			"-0.018": 0.0,
			"-0.017": 0.0929185123167,
			"-0.016": 0.922832016171,
			"-0.015": 1.00429015871,
			"-0.014": 1.36856398754,
			"-0.013": 0.924956844315,
			"-0.012": 1.16757824761,
			"-0.011": 1.1627168433,
			"-0.01": 1.18956135499,
			"-0.009": 4.78919058215,
			"-0.008": 5.67458104004,
			"-0.007": 6.87105871855,
			"-0.006": 12.4081558564,
			"-0.005": 10.5068760421,
			"-0.004": 12.2489076001,
			"-0.003": 12.2872571508,
			"-0.002": 15.0111305597,
			"-0.001": 15.0964087337,
			"0.0": 11.157199658,
			"0.001": 10.7974873515,
			"0.002": 8.14507598744,
			"0.003": 8.52851685098,
			"0.004": 6.65807159868,
			"0.005": 10.0494271283,
			"0.006": 8.78548443306,
			"0.007": 5.55889757219,
			"0.008": 7.38098620238,
			"0.009": 4.54544150545,
			"0.01": 3.65455273392,
			"0.011": 4.79369898483,
			"0.012": 4.7553748257,
			"0.013": 1.81375142851,
			"0.014": 0.248599873533,
			"0.015": 0.0,
			"0.016": 0.0,
			"0.017": 0.0,
			"0.018": 0.0,
			"0.019": 0.0,
			"0.02": 0.0,
			"0.021": 0.0,
			"0.022": 0.0,
			"0.023": 0.0,
			"0.024": 0.0,
			"0.025": 0.0
		}
	}
}
