{
	 "smiles": "OC(=O)C=C1CCC1", 
	 "Tm": 363.15, 
	 "num_atms": 16, 
	 "gaussian": { 
		 "optdone": 1, 
		 "sigma_profile": "yes", 
		 "theory": "DFT", 
		 "functional": "B3LYP", 
		 "basiset": "6-31G**", 
		 "properties": { 
			 "R2extent": 2148.5769, 
			 "electric_dipole_moment_norm": 3.02185085502, 
			 "electric_quadrupole_moment_norm": 14.5988732689, 
			 "total_energy": -383.878749052, 
			 "HOMO_LUMO_gap": 0.22001, 
			 "cosmo_polarized_energy": -8.79, 
			 "cosmo_cavitation_energy": 19.74, 
			 "cosmo_dispersion_energy": -14.69, 
			 "cosmo_repulsion_energy": 1.26, 
			 "cosmo_total_nonelectrostatic_energy": 6.32, 
			 "SMD_solvation_energy": 4.43 
		},
		"coords": [
			{
				"x": 0.6196339812,
				"y": -2.6461892194,
				"z": 2.0157416272,
				"element": "O" 
			},
			{
				"x": 1.9106990354,
				"y": -2.3395353641,
				"z": 2.3293583564,
				"element": "C" 
			},
			{
				"x": 2.5460044367,
				"y": -2.99861809,
				"z": 3.130656131,
				"element": "O" 
			},
			{
				"x": 2.4369410116,
				"y": -1.1669932284,
				"z": 1.6140629594,
				"element": "C" 
			},
			{
				"x": 1.7570807166,
				"y": -0.4163548384,
				"z": 0.7377519304,
				"element": "C" 
			},
			{
				"x": 2.1339343728,
				"y": 0.8355244023,
				"z": -0.0369130823,
				"element": "C" 
			},
			{
				"x": 0.6219197778,
				"y": 1.0395853715,
				"z": -0.3622457999,
				"element": "C" 
			},
			{
				"x": 0.3299226648,
				"y": -0.3770753244,
				"z": 0.2200710532,
				"element": "C" 
			},
			{
				"x": 0.4078051968,
				"y": -3.4270681661,
				"z": 2.553233268,
				"element": "H" 
			},
			{
				"x": 3.4705557666,
				"y": -0.9343216059,
				"z": 1.8526721781,
				"element": "H" 
			},
			{
				"x": 2.7381029264,
				"y": 0.6122208564,
				"z": -0.924517157,
				"element": "H" 
			},
			{
				"x": 2.6415662215,
				"y": 1.6244292302,
				"z": 0.5275395873,
				"element": "H" 
			},
			{
				"x": 0.3710455788,
				"y": 1.1947708932,
				"z": -1.4139990583,
				"element": "H" 
			},
			{
				"x": 0.1682891311,
				"y": 1.8397253691,
				"z": 0.2278514927,
				"element": "H" 
			},
			{
				"x": -0.4553917905,
				"y": -0.4679698982,
				"z": 0.9743749699,
				"element": "H" 
			},
			{
				"x": 0.1420909722,
				"y": -1.1381303879,
				"z": -0.5459384562,
				"element": "H" 
			}
		],
		 "valence_orbital": [ 
			{
				"type": "occ",
				"energy": -0.33878,
				"method": "rhf"
			},
			{
				"type": "occ",
				"energy": -0.32111,
				"method": "rhf"
			},
			{
				"type": "occ",
				"energy": -0.31002,
				"method": "rhf"
			},
			{
				"type": "occ",
				"energy": -0.26529,
				"method": "rhf"
			},
			{
				"type": "occ",
				"energy": -0.25923,
				"method": "rhf"
			},
			{
				"type": "unocc",
				"energy": -0.03922,
				"method": "rhf"
			},
			{
				"type": "unocc",
				"energy": 0.07885,
				"method": "rhf"
			},
			{
				"type": "unocc",
				"energy": 0.08335,
				"method": "rhf"
			},
			{
				"type": "unocc",
				"energy": 0.09439,
				"method": "rhf"
			},
			{
				"type": "unocc",
				"energy": 0.12769,
				"method": "rhf"
			}
		],
		"cosmo_sigma_profile": { 
			"-0.025": 0.0,
			"-0.024": 0.0,
			"-0.023": 0.0,
			"-0.022": 0.0,
			"-0.021": 0.0,
			"-0.02": 0.0,
			"-0.019": 0.0,
			"-0.018": 0.0450782107198,
			"-0.017": 1.16205643838,
			"-0.016": 0.655434358049,
			"-0.015": 0.519774915776,
			"-0.014": 1.02982743813,
			"-0.013": 0.88302388841,
			"-0.012": 0.606634283255,
			"-0.011": 0.456314068142,
			"-0.01": 0.838231961153,
			"-0.009": 0.724328938371,
			"-0.008": 0.396326281678,
			"-0.007": 0.775763497168,
			"-0.006": 2.00435085937,
			"-0.005": 7.16185477047,
			"-0.004": 12.3333507912,
			"-0.003": 18.0285024157,
			"-0.002": 18.4219066902,
			"-0.001": 16.42243261,
			"0.0": 15.9831283918,
			"0.001": 12.8382796252,
			"0.002": 6.81134634452,
			"0.003": 6.70170985893,
			"0.004": 4.63907527935,
			"0.005": 3.00622652938,
			"0.006": 4.34010690382,
			"0.007": 2.53982282566,
			"0.008": 1.447283314,
			"0.009": 1.37533605988,
			"0.01": 1.69890948347,
			"0.011": 2.40498783535,
			"0.012": 4.7218219005,
			"0.013": 3.95357760401,
			"0.014": 0.513187372939,
			"0.015": 0.0,
			"0.016": 0.0,
			"0.017": 0.0,
			"0.018": 0.0,
			"0.019": 0.0,
			"0.02": 0.0,
			"0.021": 0.0,
			"0.022": 0.0,
			"0.023": 0.0,
			"0.024": 0.0,
			"0.025": 0.0
		}
	}
}
