{
	 "smiles": "CCOC(=O)C1=CC=C(O)C=C1", 
	 "Tm": 389.15, 
	 "num_atms": 22, 
	 "gaussian": { 
		 "optdone": 1, 
		 "sigma_profile": "yes", 
		 "theory": "DFT", 
		 "functional": "B3LYP", 
		 "basiset": "6-31G**", 
		 "properties": { 
			 "R2extent": 2896.3161, 
			 "electric_dipole_moment_norm": 3.20447351058, 
			 "electric_quadrupole_moment_norm": 9.07106055211, 
			 "total_energy": -574.673865646, 
			 "HOMO_LUMO_gap": 0.19805, 
			 "cosmo_polarized_energy": -11.95, 
			 "cosmo_cavitation_energy": 26.52, 
			 "cosmo_dispersion_energy": -19.38, 
			 "cosmo_repulsion_energy": 1.56, 
			 "cosmo_total_nonelectrostatic_energy": 8.7, 
			 "SMD_solvation_energy": 6.04 
		},
		"coords": [
			{
				"x": -1.799969893,
				"y": 0.539768276,
				"z": 3.534284695,
				"element": "C" 
			},
			{
				"x": -2.1226719902,
				"y": 1.3936102911,
				"z": 2.3167616614,
				"element": "C" 
			},
			{
				"x": -1.4472954952,
				"y": 0.9051397805,
				"z": 1.1356436963,
				"element": "O" 
			},
			{
				"x": -0.1757944437,
				"y": 1.3376003439,
				"z": 0.9458994828,
				"element": "C" 
			},
			{
				"x": 0.3918077549,
				"y": 2.1009892175,
				"z": 1.7063949253,
				"element": "O" 
			},
			{
				"x": 0.4324331255,
				"y": 0.7795554264,
				"z": -0.2878352563,
				"element": "C" 
			},
			{
				"x": 1.7485838459,
				"y": 1.1530762989,
				"z": -0.6050647012,
				"element": "C" 
			},
			{
				"x": 2.3714003762,
				"y": 0.6657230779,
				"z": -1.7445102914,
				"element": "C" 
			},
			{
				"x": 1.6784194958,
				"y": -0.2118484827,
				"z": -2.590462222,
				"element": "C" 
			},
			{
				"x": 2.3336995099,
				"y": -0.6620577759,
				"z": -3.6954299871,
				"element": "O" 
			},
			{
				"x": 0.3649562619,
				"y": -0.5925598579,
				"z": -2.2845695395,
				"element": "C" 
			},
			{
				"x": -0.2517417486,
				"y": -0.0982804536,
				"z": -1.139682825,
				"element": "C" 
			},
			{
				"x": -2.3822376978,
				"y": 0.8844913742,
				"z": 4.3955046958,
				"element": "H" 
			},
			{
				"x": -2.0465453262,
				"y": -0.5103009565,
				"z": 3.3509088594,
				"element": "H" 
			},
			{
				"x": -0.739178425,
				"y": 0.6164491799,
				"z": 3.784410441,
				"element": "H" 
			},
			{
				"x": -1.8367672799,
				"y": 2.4351810919,
				"z": 2.4811388015,
				"element": "H" 
			},
			{
				"x": -3.1846205064,
				"y": 1.3436511248,
				"z": 2.0631992421,
				"element": "H" 
			},
			{
				"x": 2.2667857062,
				"y": 1.8329982992,
				"z": 0.0626422208,
				"element": "H" 
			},
			{
				"x": 3.3873117787,
				"y": 0.9469012259,
				"z": -2.0005874973,
				"element": "H" 
			},
			{
				"x": 1.7542044096,
				"y": -1.2543219076,
				"z": -4.1925745714,
				"element": "H" 
			},
			{
				"x": -0.1702096506,
				"y": -1.2738581661,
				"z": -2.9427922277,
				"element": "H" 
			},
			{
				"x": -1.2674698078,
				"y": -0.3914074079,
				"z": -0.9008796025,
				"element": "H" 
			}
		],
		 "valence_orbital": [ 
			{
				"type": "occ",
				"energy": -0.33267,
				"method": "rhf"
			},
			{
				"type": "occ",
				"energy": -0.29212,
				"method": "rhf"
			},
			{
				"type": "occ",
				"energy": -0.26643,
				"method": "rhf"
			},
			{
				"type": "occ",
				"energy": -0.26029,
				"method": "rhf"
			},
			{
				"type": "occ",
				"energy": -0.23152,
				"method": "rhf"
			},
			{
				"type": "unocc",
				"energy": -0.03347,
				"method": "rhf"
			},
			{
				"type": "unocc",
				"energy": -0.00839,
				"method": "rhf"
			},
			{
				"type": "unocc",
				"energy": 0.06249,
				"method": "rhf"
			},
			{
				"type": "unocc",
				"energy": 0.06927,
				"method": "rhf"
			},
			{
				"type": "unocc",
				"energy": 0.09741,
				"method": "rhf"
			}
		],
		"cosmo_sigma_profile": { 
			"-0.025": 0.0,
			"-0.024": 0.0,
			"-0.023": 0.0,
			"-0.022": 0.0,
			"-0.021": 0.0,
			"-0.02": 0.0,
			"-0.019": 0.0315995102454,
			"-0.018": 1.04538175727,
			"-0.017": 1.10452700187,
			"-0.016": 1.281393279,
			"-0.015": 1.35235661028,
			"-0.014": 0.617735466586,
			"-0.013": 0.557149574771,
			"-0.012": 0.854315459122,
			"-0.011": 1.75506802116,
			"-0.01": 1.05063942532,
			"-0.009": 0.633075792074,
			"-0.008": 1.08859587317,
			"-0.007": 2.75880644776,
			"-0.006": 7.25506900312,
			"-0.005": 11.4275769781,
			"-0.004": 13.5509060222,
			"-0.003": 16.5985830537,
			"-0.002": 15.653825725,
			"-0.001": 17.0145903768,
			"0.0": 19.9528367549,
			"0.001": 15.3263042812,
			"0.002": 16.613253104,
			"0.003": 17.1070391627,
			"0.004": 14.9308730965,
			"0.005": 5.59483551973,
			"0.006": 4.7042433709,
			"0.007": 2.93692793272,
			"0.008": 3.35905774346,
			"0.009": 2.33307216308,
			"0.01": 3.83845683828,
			"0.011": 3.12657751666,
			"0.012": 3.9792113529,
			"0.013": 1.15027279328,
			"0.014": 0.0,
			"0.015": 0.0,
			"0.016": 0.0,
			"0.017": 0.0,
			"0.018": 0.0,
			"0.019": 0.0,
			"0.02": 0.0,
			"0.021": 0.0,
			"0.022": 0.0,
			"0.023": 0.0,
			"0.024": 0.0,
			"0.025": 0.0
		}
	}
}
