{
	 "smiles": "NC1=CC2=C(C=C1)N(CC2)C(=O)C1=CN=CC=C1", 
	 "Tm": 455.15, 
	 "num_atms": 31, 
	 "gaussian": { 
		 "optdone": 1, 
		 "sigma_profile": "yes", 
		 "theory": "DFT", 
		 "functional": "B3LYP", 
		 "basiset": "6-31G**", 
		 "properties": { 
			 "R2extent": 4933.4301, 
			 "electric_dipole_moment_norm": 5.90814178824, 
			 "electric_quadrupole_moment_norm": 13.6888219102, 
			 "total_energy": -780.810594027, 
			 "HOMO_LUMO_gap": 0.14592, 
			 "cosmo_polarized_energy": -17.35, 
			 "cosmo_cavitation_energy": 34.52, 
			 "cosmo_dispersion_energy": -24.75, 
			 "cosmo_repulsion_energy": 1.91, 
			 "cosmo_total_nonelectrostatic_energy": 11.67, 
			 "SMD_solvation_energy": 4.19 
		},
		"coords": [
			{
				"x": -0.6891395899,
				"y": -4.1196491464,
				"z": 2.7811136682,
				"element": "N" 
			},
			{
				"x": -0.133718031,
				"y": -3.16012362,
				"z": 1.9267289002,
				"element": "C" 
			},
			{
				"x": 0.7735534997,
				"y": -3.5377515355,
				"z": 0.9177864991,
				"element": "C" 
			},
			{
				"x": 1.264974234,
				"y": -2.5828592379,
				"z": 0.0416467094,
				"element": "C" 
			},
			{
				"x": 0.864620688,
				"y": -1.2409634551,
				"z": 0.1334794859,
				"element": "C" 
			},
			{
				"x": -0.0064376425,
				"y": -0.8432030747,
				"z": 1.1474411036,
				"element": "C" 
			},
			{
				"x": -0.5033163933,
				"y": -1.808666781,
				"z": 2.0261961883,
				"element": "C" 
			},
			{
				"x": 1.5419125704,
				"y": -0.4789592761,
				"z": -0.8608999344,
				"element": "N" 
			},
			{
				"x": 2.6726568072,
				"y": -1.2812275461,
				"z": -1.3774484477,
				"element": "C" 
			},
			{
				"x": 2.2500690514,
				"y": -2.738144424,
				"z": -1.0960094546,
				"element": "C" 
			},
			{
				"x": 1.4707986477,
				"y": 0.8481593623,
				"z": -1.2161210363,
				"element": "C" 
			},
			{
				"x": 2.4023260069,
				"y": 1.3854320504,
				"z": -1.8144573894,
				"element": "O" 
			},
			{
				"x": 0.2122744518,
				"y": 1.6183267791,
				"z": -0.9457694413,
				"element": "C" 
			},
			{
				"x": 0.3239469773,
				"y": 2.972175488,
				"z": -0.5960263035,
				"element": "C" 
			},
			{
				"x": -0.7208530521,
				"y": 3.7855794404,
				"z": -0.4162269268,
				"element": "N" 
			},
			{
				"x": -1.941098307,
				"y": 3.2696192303,
				"z": -0.6177845321,
				"element": "C" 
			},
			{
				"x": -2.1677709908,
				"y": 1.945374622,
				"z": -0.9964939683,
				"element": "C" 
			},
			{
				"x": -1.0707784973,
				"y": 1.1021481869,
				"z": -1.1583868193,
				"element": "C" 
			},
			{
				"x": -0.1266780926,
				"y": -4.950388639,
				"z": 2.9074356221,
				"element": "H" 
			},
			{
				"x": -1.0152734099,
				"y": -3.7585166862,
				"z": 3.6675306908,
				"element": "H" 
			},
			{
				"x": 1.0906892022,
				"y": -4.5748885035,
				"z": 0.8345894914,
				"element": "H" 
			},
			{
				"x": -0.2943335402,
				"y": 0.1920052946,
				"z": 1.2766366298,
				"element": "H" 
			},
			{
				"x": -1.1858491676,
				"y": -1.5015128767,
				"z": 2.8145579397,
				"element": "H" 
			},
			{
				"x": 2.8323199629,
				"y": -1.0521491796,
				"z": -2.4313415912,
				"element": "H" 
			},
			{
				"x": 3.5886878511,
				"y": -1.0159930447,
				"z": -0.8354736217,
				"element": "H" 
			},
			{
				"x": 1.761970131,
				"y": -3.1821354999,
				"z": -1.973801302,
				"element": "H" 
			},
			{
				"x": 3.1045782211,
				"y": -3.3721132178,
				"z": -0.8430569223,
				"element": "H" 
			},
			{
				"x": 1.3129167457,
				"y": 3.4037486213,
				"z": -0.4617704641,
				"element": "H" 
			},
			{
				"x": -2.7782404045,
				"y": 3.9511345459,
				"z": -0.4758041546,
				"element": "H" 
			},
			{
				"x": -3.1787899944,
				"y": 1.5871068769,
				"z": -1.1630051681,
				"element": "H" 
			},
			{
				"x": -1.2051179354,
				"y": 0.065535246,
				"z": -1.4508654507,
				"element": "H" 
			}
		],
		 "valence_orbital": [ 
			{
				"type": "occ",
				"energy": -0.26449,
				"method": "rhf"
			},
			{
				"type": "occ",
				"energy": -0.25516,
				"method": "rhf"
			},
			{
				"type": "occ",
				"energy": -0.2499,
				"method": "rhf"
			},
			{
				"type": "occ",
				"energy": -0.24404,
				"method": "rhf"
			},
			{
				"type": "occ",
				"energy": -0.18891,
				"method": "rhf"
			},
			{
				"type": "unocc",
				"energy": -0.04299,
				"method": "rhf"
			},
			{
				"type": "unocc",
				"energy": -0.02288,
				"method": "rhf"
			},
			{
				"type": "unocc",
				"energy": -0.00608,
				"method": "rhf"
			},
			{
				"type": "unocc",
				"energy": 0.01158,
				"method": "rhf"
			},
			{
				"type": "unocc",
				"energy": 0.05429,
				"method": "rhf"
			}
		],
		"cosmo_sigma_profile": { 
			"-0.025": 0.0,
			"-0.024": 0.0,
			"-0.023": 0.0,
			"-0.022": 0.0,
			"-0.021": 0.0,
			"-0.02": 0.0,
			"-0.019": 0.0,
			"-0.018": 0.0,
			"-0.017": 0.0,
			"-0.016": 0.0,
			"-0.015": 0.0,
			"-0.014": 0.0,
			"-0.013": 0.103900475801,
			"-0.012": 2.284226042,
			"-0.011": 2.48622096926,
			"-0.01": 3.21523867388,
			"-0.009": 3.39197590898,
			"-0.008": 3.03813429506,
			"-0.007": 8.7040366329,
			"-0.006": 13.1451995119,
			"-0.005": 19.5324049094,
			"-0.004": 25.2291412179,
			"-0.003": 25.8806662055,
			"-0.002": 20.2967584845,
			"-0.001": 18.9712338381,
			"0.0": 17.7786899375,
			"0.001": 18.168352476,
			"0.002": 15.1854622072,
			"0.003": 9.93902356175,
			"0.004": 11.5069493219,
			"0.005": 10.9434030655,
			"0.006": 11.4088793833,
			"0.007": 4.69689821613,
			"0.008": 3.6554281734,
			"0.009": 2.75340499492,
			"0.01": 3.89811146133,
			"0.011": 3.28160351662,
			"0.012": 3.45515496084,
			"0.013": 6.13305910232,
			"0.014": 3.79739717612,
			"0.015": 1.38575130484,
			"0.016": 0.616848270623,
			"0.017": 0.111879442427,
			"0.018": 0.0,
			"0.019": 0.0,
			"0.02": 0.0,
			"0.021": 0.0,
			"0.022": 0.0,
			"0.023": 0.0,
			"0.024": 0.0,
			"0.025": 0.0
		}
	}
}
