{
	 "smiles": "COC1=CC=C(OC2=C(N)C=C(C=C2)C(F)(F)F)C=C1", 
	 "Tm": 347.15, 
	 "num_atms": 32, 
	 "gaussian": { 
		 "optdone": 1, 
		 "sigma_profile": "yes", 
		 "theory": "DFT", 
		 "functional": "B3LYP", 
		 "basiset": "6-31G**", 
		 "properties": { 
			 "R2extent": 9677.2305, 
			 "electric_dipole_moment_norm": 4.89936917674, 
			 "electric_quadrupole_moment_norm": 26.6555441526, 
			 "total_energy": -1045.43202965, 
			 "HOMO_LUMO_gap": 0.18638, 
			 "cosmo_polarized_energy": -11.31, 
			 "cosmo_cavitation_energy": 38.12, 
			 "cosmo_dispersion_energy": -26.89, 
			 "cosmo_repulsion_energy": 2.01, 
			 "cosmo_total_nonelectrostatic_energy": 13.24, 
			 "SMD_solvation_energy": 8.45 
		},
		"coords": [
			{
				"x": -3.753455775,
				"y": 4.0867055888,
				"z": -0.3756409873,
				"element": "C" 
			},
			{
				"x": -2.5711176709,
				"y": 3.543299283,
				"z": -0.9410389492,
				"element": "O" 
			},
			{
				"x": -1.8353529448,
				"y": 2.6753239482,
				"z": -0.1879050462,
				"element": "C" 
			},
			{
				"x": -2.1587906525,
				"y": 2.2765805063,
				"z": 1.1141177517,
				"element": "C" 
			},
			{
				"x": -1.3291936465,
				"y": 1.3760134261,
				"z": 1.7904742382,
				"element": "C" 
			},
			{
				"x": -0.1838787098,
				"y": 0.8845912155,
				"z": 1.1757085548,
				"element": "C" 
			},
			{
				"x": 0.6657138262,
				"y": 0.0615537403,
				"z": 1.9072386619,
				"element": "O" 
			},
			{
				"x": 0.8167762631,
				"y": -1.2647144141,
				"z": 1.5489281925,
				"element": "C" 
			},
			{
				"x": 1.9147970069,
				"y": -1.9121151156,
				"z": 2.1635019725,
				"element": "C" 
			},
			{
				"x": 2.6971826386,
				"y": -1.2125237364,
				"z": 3.074393606,
				"element": "N" 
			},
			{
				"x": 2.1370870333,
				"y": -3.2574489082,
				"z": 1.8590669404,
				"element": "C" 
			},
			{
				"x": 1.2937373737,
				"y": -3.941154338,
				"z": 0.9770603949,
				"element": "C" 
			},
			{
				"x": 0.2103248327,
				"y": -3.2930290009,
				"z": 0.38754876,
				"element": "C" 
			},
			{
				"x": -0.0250695147,
				"y": -1.9466858885,
				"z": 0.6781218673,
				"element": "C" 
			},
			{
				"x": 1.5337230435,
				"y": -5.4011248962,
				"z": 0.7227269384,
				"element": "C" 
			},
			{
				"x": 2.8551135957,
				"y": -5.7000229106,
				"z": 0.6964047816,
				"element": "F" 
			},
			{
				"x": 1.0054757705,
				"y": -5.8075315622,
				"z": -0.4538238269,
				"element": "F" 
			},
			{
				"x": 0.9850046788,
				"y": -6.1814673042,
				"z": 1.6860310513,
				"element": "F" 
			},
			{
				"x": 0.1483558865,
				"y": 1.2841271408,
				"z": -0.1234887463,
				"element": "C" 
			},
			{
				"x": -0.6763307061,
				"y": 2.1719253794,
				"z": -0.801376043,
				"element": "C" 
			},
			{
				"x": -4.4817514535,
				"y": 3.3033561411,
				"z": -0.1286372421,
				"element": "H" 
			},
			{
				"x": -3.5386038585,
				"y": 4.6735664356,
				"z": 0.526861494,
				"element": "H" 
			},
			{
				"x": -4.1777117134,
				"y": 4.7429150806,
				"z": -1.1369614283,
				"element": "H" 
			},
			{
				"x": -3.0450203351,
				"y": 2.6526816987,
				"z": 1.6106711637,
				"element": "H" 
			},
			{
				"x": -1.5650793175,
				"y": 1.059049686,
				"z": 2.8010340838,
				"element": "H" 
			},
			{
				"x": 2.6359360838,
				"y": -0.2073640548,
				"z": 2.9918627519,
				"element": "H" 
			},
			{
				"x": 3.6408743765,
				"y": -1.5525588118,
				"z": 3.1902428068,
				"element": "H" 
			},
			{
				"x": 2.9800736905,
				"y": -3.7724745549,
				"z": 2.3093442482,
				"element": "H" 
			},
			{
				"x": -0.4398303067,
				"y": -3.8247492716,
				"z": -0.2968985623,
				"element": "H" 
			},
			{
				"x": -0.8586246287,
				"y": -1.4252572487,
				"z": 0.2220567549,
				"element": "H" 
			},
			{
				"x": 1.0488876745,
				"y": 0.8993730447,
				"z": -0.5912116732,
				"element": "H" 
			},
			{
				"x": -0.4406525408,
				"y": 2.4986597015,
				"z": -1.80871451,
				"element": "H" 
			}
		],
		 "valence_orbital": [ 
			{
				"type": "occ",
				"energy": -0.31412,
				"method": "rhf"
			},
			{
				"type": "occ",
				"energy": -0.26449,
				"method": "rhf"
			},
			{
				"type": "occ",
				"energy": -0.24295,
				"method": "rhf"
			},
			{
				"type": "occ",
				"energy": -0.22287,
				"method": "rhf"
			},
			{
				"type": "occ",
				"energy": -0.20188,
				"method": "rhf"
			},
			{
				"type": "unocc",
				"energy": -0.0155,
				"method": "rhf"
			},
			{
				"type": "unocc",
				"energy": -0.00858,
				"method": "rhf"
			},
			{
				"type": "unocc",
				"energy": 0.00599,
				"method": "rhf"
			},
			{
				"type": "unocc",
				"energy": 0.00924,
				"method": "rhf"
			},
			{
				"type": "unocc",
				"energy": 0.07977,
				"method": "rhf"
			}
		],
		"cosmo_sigma_profile": { 
			"-0.025": 0.0,
			"-0.024": 0.0,
			"-0.023": 0.0,
			"-0.022": 0.0,
			"-0.021": 0.0,
			"-0.02": 0.0,
			"-0.019": 0.0,
			"-0.018": 0.0,
			"-0.017": 0.0,
			"-0.016": 0.0,
			"-0.015": 0.0,
			"-0.014": 0.0,
			"-0.013": 0.859725329179,
			"-0.012": 1.54758955078,
			"-0.011": 2.36154332594,
			"-0.01": 2.41458312968,
			"-0.009": 2.68491135268,
			"-0.008": 2.54129821386,
			"-0.007": 6.27539707401,
			"-0.006": 15.9539989184,
			"-0.005": 20.6572931105,
			"-0.004": 21.2300104106,
			"-0.003": 19.6682801912,
			"-0.002": 14.2538311436,
			"-0.001": 16.8969655197,
			"0.0": 17.3146505914,
			"0.001": 19.146901962,
			"0.002": 27.3612688575,
			"0.003": 53.434444086,
			"0.004": 33.848438339,
			"0.005": 10.5192382225,
			"0.006": 3.98788317517,
			"0.007": 2.77726129229,
			"0.008": 1.7422157367,
			"0.009": 2.07016332797,
			"0.01": 2.23680538446,
			"0.011": 1.19976006646,
			"0.012": 0.72981504119,
			"0.013": 0.531914716597,
			"0.014": 0.297672622683,
			"0.015": 0.0,
			"0.016": 0.0,
			"0.017": 0.0,
			"0.018": 0.0,
			"0.019": 0.0,
			"0.02": 0.0,
			"0.021": 0.0,
			"0.022": 0.0,
			"0.023": 0.0,
			"0.024": 0.0,
			"0.025": 0.0
		}
	}
}
