{
	 "smiles": "COC1=CC=C(NCC2=CC=CC=C2)C=C1", 
	 "Tm": 322.15, 
	 "num_atms": 31, 
	 "gaussian": { 
		 "optdone": 1, 
		 "sigma_profile": "yes", 
		 "theory": "DFT", 
		 "functional": "B3LYP", 
		 "basiset": "6-31G**", 
		 "properties": { 
			 "R2extent": 5107.5998, 
			 "electric_dipole_moment_norm": 1.23390406839, 
			 "electric_quadrupole_moment_norm": 11.5918445262, 
			 "total_energy": -672.489388583, 
			 "HOMO_LUMO_gap": 0.17304, 
			 "cosmo_polarized_energy": -10.3, 
			 "cosmo_cavitation_energy": 34.25, 
			 "cosmo_dispersion_energy": -24.49, 
			 "cosmo_repulsion_energy": 1.91, 
			 "cosmo_total_nonelectrostatic_energy": 11.68, 
			 "SMD_solvation_energy": 5.15 
		},
		"coords": [
			{
				"x": -4.269051051,
				"y": 0.7099885828,
				"z": -1.9555018306,
				"element": "C" 
			},
			{
				"x": -3.8051110854,
				"y": 0.7860674549,
				"z": -0.6209211232,
				"element": "O" 
			},
			{
				"x": -2.6820515524,
				"y": 0.070076909,
				"z": -0.2919965317,
				"element": "C" 
			},
			{
				"x": -1.947514865,
				"y": -0.7237690575,
				"z": -1.1763224158,
				"element": "C" 
			},
			{
				"x": -0.815068259,
				"y": -1.4146970331,
				"z": -0.7325205408,
				"element": "C" 
			},
			{
				"x": -0.3785540705,
				"y": -1.3226571322,
				"z": 0.5969543513,
				"element": "C" 
			},
			{
				"x": 0.7121714229,
				"y": -2.0597909769,
				"z": 1.0932962874,
				"element": "N" 
			},
			{
				"x": 1.933161721,
				"y": -2.260473765,
				"z": 0.3028626007,
				"element": "C" 
			},
			{
				"x": 2.8933043554,
				"y": -1.0819177054,
				"z": 0.3076709839,
				"element": "C" 
			},
			{
				"x": 2.641166825,
				"y": 0.0654685121,
				"z": -0.4603357357,
				"element": "C" 
			},
			{
				"x": 3.5077686896,
				"y": 1.15701283,
				"z": -0.4126970952,
				"element": "C" 
			},
			{
				"x": 4.6436634461,
				"y": 1.1194920766,
				"z": 0.4003684761,
				"element": "C" 
			},
			{
				"x": 4.9070221436,
				"y": -0.0169571733,
				"z": 1.1655315221,
				"element": "C" 
			},
			{
				"x": 4.0358481869,
				"y": -1.1074403502,
				"z": 1.1174990336,
				"element": "C" 
			},
			{
				"x": -1.1287733334,
				"y": -0.5122972485,
				"z": 1.4721699148,
				"element": "C" 
			},
			{
				"x": -2.2611103148,
				"y": 0.1640143121,
				"z": 1.0411557457,
				"element": "C" 
			},
			{
				"x": -5.1595285464,
				"y": 1.3393589113,
				"z": -2.0051478182,
				"element": "H" 
			},
			{
				"x": -4.5397448416,
				"y": -0.317142269,
				"z": -2.2361844509,
				"element": "H" 
			},
			{
				"x": -3.5237406898,
				"y": 1.0867208867,
				"z": -2.6695730662,
				"element": "H" 
			},
			{
				"x": -2.2448189595,
				"y": -0.8248364962,
				"z": -2.2137523363,
				"element": "H" 
			},
			{
				"x": -0.2849095057,
				"y": -2.0432650407,
				"z": -1.4406031581,
				"element": "H" 
			},
			{
				"x": 0.936632494,
				"y": -1.7916199302,
				"z": 2.0444188357,
				"element": "H" 
			},
			{
				"x": 1.6426414488,
				"y": -2.5140280707,
				"z": -0.719514027,
				"element": "H" 
			},
			{
				"x": 2.443667022,
				"y": -3.1433128723,
				"z": 0.7041006967,
				"element": "H" 
			},
			{
				"x": 1.7596859419,
				"y": 0.1030080619,
				"z": -1.0938494247,
				"element": "H" 
			},
			{
				"x": 3.2992484481,
				"y": 2.0372606759,
				"z": -1.0145205964,
				"element": "H" 
			},
			{
				"x": 5.3197480841,
				"y": 1.9691218683,
				"z": 0.4332162096,
				"element": "H" 
			},
			{
				"x": 5.7904512703,
				"y": -0.0573415339,
				"z": 1.7967757975,
				"element": "H" 
			},
			{
				"x": 4.2484647941,
				"y": -1.9932624569,
				"z": 1.7125204702,
				"element": "H" 
			},
			{
				"x": -0.8145685298,
				"y": -0.4161254466,
				"z": 2.5091842582,
				"element": "H" 
			},
			{
				"x": -2.8321006897,
				"y": 0.7850434769,
				"z": 1.7240149671,
				"element": "H" 
			}
		],
		 "valence_orbital": [ 
			{
				"type": "occ",
				"energy": -0.26284,
				"method": "rhf"
			},
			{
				"type": "occ",
				"energy": -0.24883,
				"method": "rhf"
			},
			{
				"type": "occ",
				"energy": -0.2446,
				"method": "rhf"
			},
			{
				"type": "occ",
				"energy": -0.242,
				"method": "rhf"
			},
			{
				"type": "occ",
				"energy": -0.17825,
				"method": "rhf"
			},
			{
				"type": "unocc",
				"energy": -0.00521,
				"method": "rhf"
			},
			{
				"type": "unocc",
				"energy": 0.00044,
				"method": "rhf"
			},
			{
				"type": "unocc",
				"energy": 0.00462,
				"method": "rhf"
			},
			{
				"type": "unocc",
				"energy": 0.03479,
				"method": "rhf"
			},
			{
				"type": "unocc",
				"energy": 0.09086,
				"method": "rhf"
			}
		],
		"cosmo_sigma_profile": { 
			"-0.025": 0.0,
			"-0.024": 0.0,
			"-0.023": 0.0,
			"-0.022": 0.0,
			"-0.021": 0.0,
			"-0.02": 0.0,
			"-0.019": 0.0,
			"-0.018": 0.0,
			"-0.017": 0.0,
			"-0.016": 0.0,
			"-0.015": 0.0,
			"-0.014": 0.0,
			"-0.013": 0.0,
			"-0.012": 0.317239849082,
			"-0.011": 0.872764781648,
			"-0.01": 1.26736900569,
			"-0.009": 1.62344585186,
			"-0.008": 1.33649959203,
			"-0.007": 2.66300965407,
			"-0.006": 9.34415664733,
			"-0.005": 27.8214647609,
			"-0.004": 30.0333385021,
			"-0.003": 29.6310143276,
			"-0.002": 21.2634859077,
			"-0.001": 16.2202621994,
			"0.0": 14.1066351943,
			"0.001": 13.631247494,
			"0.002": 11.4007038236,
			"0.003": 14.7628286973,
			"0.004": 18.6335523694,
			"0.005": 18.7947792148,
			"0.006": 20.2732693329,
			"0.007": 7.90503914606,
			"0.008": 1.87849041691,
			"0.009": 2.53073996063,
			"0.01": 1.99358203868,
			"0.011": 2.30998349059,
			"0.012": 0.741554906567,
			"0.013": 0.459059149452,
			"0.014": 0.332459632984,
			"0.015": 0.0115561544623,
			"0.016": 0.0,
			"0.017": 0.0,
			"0.018": 0.0,
			"0.019": 0.0,
			"0.02": 0.0,
			"0.021": 0.0,
			"0.022": 0.0,
			"0.023": 0.0,
			"0.024": 0.0,
			"0.025": 0.0
		}
	}
}
