{
	 "smiles": "OC(=O)C1=CC(NC(=O)C2=CC=CO2)=CC=C1", 
	 "Tm": 498.15, 
	 "num_atms": 26, 
	 "gaussian": { 
		 "optdone": 1, 
		 "sigma_profile": "yes", 
		 "theory": "DFT", 
		 "functional": "B3LYP", 
		 "basiset": "6-31G**", 
		 "properties": { 
			 "R2extent": 5858.1658, 
			 "electric_dipole_moment_norm": 6.33411300026, 
			 "electric_quadrupole_moment_norm": 29.3797817197, 
			 "total_energy": -818.348642163, 
			 "HOMO_LUMO_gap": 0.17627, 
			 "cosmo_polarized_energy": -21.36, 
			 "cosmo_cavitation_energy": 32.07, 
			 "cosmo_dispersion_energy": -23.56, 
			 "cosmo_repulsion_energy": 1.79, 
			 "cosmo_total_nonelectrostatic_energy": 10.31, 
			 "SMD_solvation_energy": 8.03 
		},
		"coords": [
			{
				"x": -4.1038524388,
				"y": 1.9746353383,
				"z": -1.9862024153,
				"element": "O" 
			},
			{
				"x": -4.1683096325,
				"y": 2.0469955478,
				"z": -0.6269435508,
				"element": "C" 
			},
			{
				"x": -5.2153290588,
				"y": 2.3096798944,
				"z": -0.085376052,
				"element": "O" 
			},
			{
				"x": -2.8933597143,
				"y": 1.7869693489,
				"z": 0.118350496,
				"element": "C" 
			},
			{
				"x": -1.8568848951,
				"y": 1.0190553741,
				"z": -0.4226193118,
				"element": "C" 
			},
			{
				"x": -0.6824995123,
				"y": 0.7814093845,
				"z": 0.3084146525,
				"element": "C" 
			},
			{
				"x": 0.3048858661,
				"y": -0.0161587596,
				"z": -0.2949994688,
				"element": "N" 
			},
			{
				"x": 1.5364192978,
				"y": -0.3852197622,
				"z": 0.2067200365,
				"element": "C" 
			},
			{
				"x": 1.9839374673,
				"y": -0.0538796166,
				"z": 1.2992235602,
				"element": "O" 
			},
			{
				"x": 2.318355029,
				"y": -1.2446970867,
				"z": -0.7007801694,
				"element": "C" 
			},
			{
				"x": 3.5582595787,
				"y": -1.7999724692,
				"z": -0.5539879643,
				"element": "C" 
			},
			{
				"x": 3.8132025898,
				"y": -2.5400103837,
				"z": -1.7485544749,
				"element": "C" 
			},
			{
				"x": 2.7120872977,
				"y": -2.3834310949,
				"z": -2.538072375,
				"element": "C" 
			},
			{
				"x": 1.7885447912,
				"y": -1.5974675161,
				"z": -1.9190750536,
				"element": "O" 
			},
			{
				"x": -0.5496083775,
				"y": 1.3343375778,
				"z": 1.5932382565,
				"element": "C" 
			},
			{
				"x": -1.5950396915,
				"y": 2.0897228711,
				"z": 2.1257036377,
				"element": "C" 
			},
			{
				"x": -2.7678951659,
				"y": 2.3127988252,
				"z": 1.4098383222,
				"element": "C" 
			},
			{
				"x": -3.1793492362,
				"y": 1.9515017508,
				"z": -2.2695689827,
				"element": "H" 
			},
			{
				"x": -1.9692787069,
				"y": 0.5533332665,
				"z": -1.4000818275,
				"element": "H" 
			},
			{
				"x": 0.0846768925,
				"y": -0.3772349506,
				"z": -1.2135545149,
				"element": "H" 
			},
			{
				"x": 4.1956244565,
				"y": -1.6833854149,
				"z": 0.3093984851,
				"element": "H" 
			},
			{
				"x": 4.6969669209,
				"y": -3.1127134998,
				"z": -1.9891639269,
				"element": "H" 
			},
			{
				"x": 2.441092844,
				"y": -2.7465754949,
				"z": -3.5174216921,
				"element": "H" 
			},
			{
				"x": 0.357994851,
				"y": 1.1571893806,
				"z": 2.1524097097,
				"element": "H" 
			},
			{
				"x": -1.4849756894,
				"y": 2.5060234964,
				"z": 3.122613754,
				"element": "H" 
			},
			{
				"x": -3.5890657634,
				"y": 2.8872939929,
				"z": 1.8229908697,
				"element": "H" 
			}
		],
		 "valence_orbital": [ 
			{
				"type": "occ",
				"energy": -0.27761,
				"method": "rhf"
			},
			{
				"type": "occ",
				"energy": -0.27323,
				"method": "rhf"
			},
			{
				"type": "occ",
				"energy": -0.26754,
				"method": "rhf"
			},
			{
				"type": "occ",
				"energy": -0.25556,
				"method": "rhf"
			},
			{
				"type": "occ",
				"energy": -0.23376,
				"method": "rhf"
			},
			{
				"type": "unocc",
				"energy": -0.05749,
				"method": "rhf"
			},
			{
				"type": "unocc",
				"energy": -0.04774,
				"method": "rhf"
			},
			{
				"type": "unocc",
				"energy": -0.0095,
				"method": "rhf"
			},
			{
				"type": "unocc",
				"energy": 0.03016,
				"method": "rhf"
			},
			{
				"type": "unocc",
				"energy": 0.05038,
				"method": "rhf"
			}
		],
		"cosmo_sigma_profile": { 
			"-0.025": 0.0,
			"-0.024": 0.0,
			"-0.023": 0.0,
			"-0.022": 0.0,
			"-0.021": 0.0,
			"-0.02": 0.0,
			"-0.019": 0.0576372030755,
			"-0.018": 0.915161416742,
			"-0.017": 1.29333893657,
			"-0.016": 0.758695308952,
			"-0.015": 0.924582280557,
			"-0.014": 3.07624830119,
			"-0.013": 2.23693385522,
			"-0.012": 2.53993218503,
			"-0.011": 1.81413420176,
			"-0.01": 3.48035506946,
			"-0.009": 3.87441858494,
			"-0.008": 6.48011294861,
			"-0.007": 7.6845886282,
			"-0.006": 10.9189166139,
			"-0.005": 11.3530760875,
			"-0.004": 13.8140056618,
			"-0.003": 14.5484627033,
			"-0.002": 13.0311204898,
			"-0.001": 15.0653589128,
			"0.0": 17.2069012702,
			"0.001": 22.9243450129,
			"0.002": 23.9045503549,
			"0.003": 23.474103039,
			"0.004": 10.250451282,
			"0.005": 4.24656560614,
			"0.006": 5.11992336977,
			"0.007": 3.13690109359,
			"0.008": 3.50571635419,
			"0.009": 6.22344025016,
			"0.01": 6.14784105049,
			"0.011": 7.61445726988,
			"0.012": 7.67021565258,
			"0.013": 3.32264528977,
			"0.014": 0.0500526851764,
			"0.015": 0.0,
			"0.016": 0.0,
			"0.017": 0.0,
			"0.018": 0.0,
			"0.019": 0.0,
			"0.02": 0.0,
			"0.021": 0.0,
			"0.022": 0.0,
			"0.023": 0.0,
			"0.024": 0.0,
			"0.025": 0.0
		}
	}
}
