{
	 "smiles": "OC1=CC=CC2=CC3=C(C(O)=CC=C3)C(O)=C12", 
	 "Tm": 451.65, 
	 "num_atms": 27, 
	 "gaussian": { 
		 "optdone": 1, 
		 "sigma_profile": "yes", 
		 "theory": "DFT", 
		 "functional": "B3LYP", 
		 "basiset": "6-31G**", 
		 "properties": { 
			 "R2extent": 4087.5285, 
			 "electric_dipole_moment_norm": 4.6085517953, 
			 "electric_quadrupole_moment_norm": 15.0300931634, 
			 "total_energy": -765.201963311, 
			 "HOMO_LUMO_gap": 0.12159, 
			 "cosmo_polarized_energy": -13.5, 
			 "cosmo_cavitation_energy": 29.77, 
			 "cosmo_dispersion_energy": -23.17, 
			 "cosmo_repulsion_energy": 1.72, 
			 "cosmo_total_nonelectrostatic_energy": 8.32, 
			 "SMD_solvation_energy": 5.11 
		},
		"coords": [
			{
				"x": -2.1375118928,
				"y": -0.1621755483,
				"z": -2.3823808396,
				"element": "O" 
			},
			{
				"x": -0.8070523436,
				"y": -0.4167430072,
				"z": -2.4021635842,
				"element": "C" 
			},
			{
				"x": -0.3118544352,
				"y": -1.0967313562,
				"z": -3.4970919153,
				"element": "C" 
			},
			{
				"x": 1.0634041255,
				"y": -1.4037681991,
				"z": -3.5990597638,
				"element": "C" 
			},
			{
				"x": 1.9460049905,
				"y": -1.0359010058,
				"z": -2.6146652855,
				"element": "C" 
			},
			{
				"x": 1.4882565435,
				"y": -0.3323579951,
				"z": -1.4631945242,
				"element": "C" 
			},
			{
				"x": 2.3766032836,
				"y": 0.0508556068,
				"z": -0.4481352061,
				"element": "C" 
			},
			{
				"x": 1.9533597232,
				"y": 0.7398130655,
				"z": 0.6880088071,
				"element": "C" 
			},
			{
				"x": 0.5535208923,
				"y": 1.075038518,
				"z": 0.833641355,
				"element": "C" 
			},
			{
				"x": 0.1704649182,
				"y": 1.784904461,
				"z": 2.0222242005,
				"element": "C" 
			},
			{
				"x": -1.1709265618,
				"y": 2.1012877096,
				"z": 2.1526438959,
				"element": "O" 
			},
			{
				"x": 1.0785293852,
				"y": 2.1369050953,
				"z": 2.9862581998,
				"element": "C" 
			},
			{
				"x": 2.4510773755,
				"y": 1.7988299237,
				"z": 2.8261936951,
				"element": "C" 
			},
			{
				"x": 2.8738418546,
				"y": 1.1236454856,
				"z": 1.7154457703,
				"element": "C" 
			},
			{
				"x": -0.3451072433,
				"y": 0.6906211719,
				"z": -0.1870111152,
				"element": "C" 
			},
			{
				"x": -1.681363598,
				"y": 0.9810198812,
				"z": -0.1026920917,
				"element": "O" 
			},
			{
				"x": 0.0840866836,
				"y": -0.0080790526,
				"z": -1.3391333775,
				"element": "C" 
			},
			{
				"x": -2.3489986435,
				"y": 0.3175988469,
				"z": -1.5626985663,
				"element": "H" 
			},
			{
				"x": -1.0103761115,
				"y": -1.3868874541,
				"z": -4.2743363043,
				"element": "H" 
			},
			{
				"x": 1.4183355065,
				"y": -1.9400868038,
				"z": -4.4748084637,
				"element": "H" 
			},
			{
				"x": 3.0029180952,
				"y": -1.271852452,
				"z": -2.6929564929,
				"element": "H" 
			},
			{
				"x": 3.4291943489,
				"y": -0.1977650405,
				"z": -0.551284122,
				"element": "H" 
			},
			{
				"x": -1.324620511,
				"y": 2.5743842464,
				"z": 2.9799980527,
				"element": "H" 
			},
			{
				"x": 0.7476966221,
				"y": 2.674239834,
				"z": 3.8720928303,
				"element": "H" 
			},
			{
				"x": 3.1572191659,
				"y": 2.0852506305,
				"z": 3.5995178419,
				"element": "H" 
			},
			{
				"x": 3.9207082048,
				"y": 0.8638868815,
				"z": 1.5898024963,
				"element": "H" 
			},
			{
				"x": -1.8629103785,
				"y": 1.4605665568,
				"z": 0.7269845078,
				"element": "H" 
			}
		],
		 "valence_orbital": [ 
			{
				"type": "occ",
				"energy": -0.28882,
				"method": "rhf"
			},
			{
				"type": "occ",
				"energy": -0.26506,
				"method": "rhf"
			},
			{
				"type": "occ",
				"energy": -0.24134,
				"method": "rhf"
			},
			{
				"type": "occ",
				"energy": -0.2257,
				"method": "rhf"
			},
			{
				"type": "occ",
				"energy": -0.17253,
				"method": "rhf"
			},
			{
				"type": "unocc",
				"energy": -0.05094,
				"method": "rhf"
			},
			{
				"type": "unocc",
				"energy": -0.01499,
				"method": "rhf"
			},
			{
				"type": "unocc",
				"energy": 0.01916,
				"method": "rhf"
			},
			{
				"type": "unocc",
				"energy": 0.04248,
				"method": "rhf"
			},
			{
				"type": "unocc",
				"energy": 0.0597,
				"method": "rhf"
			}
		],
		"cosmo_sigma_profile": { 
			"-0.025": 0.0,
			"-0.024": 0.0,
			"-0.023": 0.0,
			"-0.022": 0.0,
			"-0.021": 0.0,
			"-0.02": 0.0223487101351,
			"-0.019": 0.712340324583,
			"-0.018": 1.53927490277,
			"-0.017": 0.696599771634,
			"-0.016": 0.871383983067,
			"-0.015": 1.28433468526,
			"-0.014": 0.855683109746,
			"-0.013": 0.787359352433,
			"-0.012": 0.949374532945,
			"-0.011": 1.25281431596,
			"-0.01": 1.12589068836,
			"-0.009": 1.68164077698,
			"-0.008": 2.11187309879,
			"-0.007": 3.14619799667,
			"-0.006": 9.1237071452,
			"-0.005": 16.2120387803,
			"-0.004": 15.9502107216,
			"-0.003": 15.0381025829,
			"-0.002": 14.3070116724,
			"-0.001": 12.9377828613,
			"0.0": 12.9768435408,
			"0.001": 16.5911079884,
			"0.002": 20.5650032051,
			"0.003": 23.2489288594,
			"0.004": 24.4103763296,
			"0.005": 22.6558598541,
			"0.006": 8.44163986319,
			"0.007": 1.83020601154,
			"0.008": 1.56913259153,
			"0.009": 1.15169862971,
			"0.01": 1.50580158442,
			"0.011": 1.92284245582,
			"0.012": 1.58124413195,
			"0.013": 0.0547942824928,
			"0.014": 0.0,
			"0.015": 0.0,
			"0.016": 0.0,
			"0.017": 0.0,
			"0.018": 0.0,
			"0.019": 0.0,
			"0.02": 0.0,
			"0.021": 0.0,
			"0.022": 0.0,
			"0.023": 0.0,
			"0.024": 0.0,
			"0.025": 0.0
		}
	}
}
