{
	 "smiles": "CC(=O)O[Si](OC(C)=O)(OC(C)=O)OC(C)=O", 
	 "Tm": 383.15, 
	 "num_atms": 29, 
	 "gaussian": { 
		 "optdone": 1, 
		 "sigma_profile": "yes", 
		 "theory": "DFT", 
		 "functional": "B3LYP", 
		 "basiset": "6-31G**", 
		 "properties": { 
			 "R2extent": 4843.106, 
			 "electric_dipole_moment_norm": 0.00155884572681, 
			 "electric_quadrupole_moment_norm": 2.58936531026, 
			 "total_energy": -1203.61252314, 
			 "HOMO_LUMO_gap": 0.26392, 
			 "cosmo_polarized_energy": -16.73, 
			 "cosmo_cavitation_energy": 37.68, 
			 "cosmo_dispersion_energy": -23.01, 
			 "cosmo_repulsion_energy": 1.98, 
			 "cosmo_total_nonelectrostatic_energy": 16.64, 
			 "SMD_solvation_energy": 10.8 
		},
		"coords": [
			{
				"x": -2.5287116894,
				"y": -0.6401852659,
				"z": 4.0931816039,
				"element": "C" 
			},
			{
				"x": -1.4074224437,
				"y": -0.263959545,
				"z": 3.1642249259,
				"element": "C" 
			},
			{
				"x": -0.4747810402,
				"y": 0.4577213539,
				"z": 3.4273504668,
				"element": "O" 
			},
			{
				"x": -1.5626617476,
				"y": -0.8429456516,
				"z": 1.9344645443,
				"element": "O" 
			},
			{
				"x": -0.579225565,
				"y": -0.524222911,
				"z": 0.6309206,
				"element": "Si" 
			},
			{
				"x": -0.1891647085,
				"y": 1.0795940062,
				"z": 0.4225557472,
				"element": "O" 
			},
			{
				"x": -1.0843611718,
				"y": 2.1049601714,
				"z": 0.560004632,
				"element": "C" 
			},
			{
				"x": -0.4065299838,
				"y": 3.4431028821,
				"z": 0.4517031071,
				"element": "C" 
			},
			{
				"x": -2.2625541036,
				"y": 1.9153148498,
				"z": 0.7490675227,
				"element": "O" 
			},
			{
				"x": -1.4985612255,
				"y": -1.1331811707,
				"z": -0.6148515812,
				"element": "O" 
			},
			{
				"x": -1.0079663019,
				"y": -1.3967784382,
				"z": -1.8644363364,
				"element": "C" 
			},
			{
				"x": -2.0394928199,
				"y": -2.0688290657,
				"z": -2.728220482,
				"element": "C" 
			},
			{
				"x": 0.1204339571,
				"y": -1.1133761628,
				"z": -2.190412451,
				"element": "O" 
			},
			{
				"x": 0.933464336,
				"y": -1.2002271453,
				"z": 0.7813337029,
				"element": "O" 
			},
			{
				"x": 1.1835057756,
				"y": -2.5401461266,
				"z": 0.6641785936,
				"element": "C" 
			},
			{
				"x": 2.6588985785,
				"y": -2.8286354664,
				"z": 0.7065636396,
				"element": "C" 
			},
			{
				"x": 0.300570561,
				"y": -3.3553399424,
				"z": 0.5387402123,
				"element": "O" 
			},
			{
				"x": -2.3445732934,
				"y": -0.2203740794,
				"z": 5.0813445584,
				"element": "H" 
			},
			{
				"x": -2.6187277741,
				"y": -1.7285579859,
				"z": 4.1503265918,
				"element": "H" 
			},
			{
				"x": -3.4712756267,
				"y": -0.2555822043,
				"z": 3.691502253,
				"element": "H" 
			},
			{
				"x": -1.1504679458,
				"y": 4.2374287049,
				"z": 0.4987737996,
				"element": "H" 
			},
			{
				"x": 0.1581813128,
				"y": 3.5024562429,
				"z": -0.4829203161,
				"element": "H" 
			},
			{
				"x": 0.3092828827,
				"y": 3.549833328,
				"z": 1.2726135179,
				"element": "H" 
			},
			{
				"x": -1.644422071,
				"y": -2.2061203571,
				"z": -3.734046082,
				"element": "H" 
			},
			{
				"x": -2.9539493342,
				"y": -1.4696544711,
				"z": -2.7546341762,
				"element": "H" 
			},
			{
				"x": -2.2972317145,
				"y": -3.0381583902,
				"z": -2.2904408784,
				"element": "H" 
			},
			{
				"x": 2.8244468848,
				"y": -3.9049142314,
				"z": 0.6777455538,
				"element": "H" 
			},
			{
				"x": 3.142296621,
				"y": -2.3512129265,
				"z": -0.1513814271,
				"element": "H" 
			},
			{
				"x": 3.099099651,
				"y": -2.3977100017,
				"z": 1.6101481576,
				"element": "H" 
			}
		],
		 "valence_orbital": [ 
			{
				"type": "occ",
				"energy": -0.32817,
				"method": "rhf"
			},
			{
				"type": "occ",
				"energy": -0.29257,
				"method": "rhf"
			},
			{
				"type": "occ",
				"energy": -0.28626,
				"method": "rhf"
			},
			{
				"type": "occ",
				"energy": -0.28199,
				"method": "rhf"
			},
			{
				"type": "occ",
				"energy": -0.28144,
				"method": "rhf"
			},
			{
				"type": "unocc",
				"energy": -0.01752,
				"method": "rhf"
			},
			{
				"type": "unocc",
				"energy": -0.00721,
				"method": "rhf"
			},
			{
				"type": "unocc",
				"energy": -0.00247,
				"method": "rhf"
			},
			{
				"type": "unocc",
				"energy": -0.00017,
				"method": "rhf"
			},
			{
				"type": "unocc",
				"energy": 0.06595,
				"method": "rhf"
			}
		],
		"cosmo_sigma_profile": { 
			"-0.025": 0.0,
			"-0.024": 0.0,
			"-0.023": 0.0,
			"-0.022": 0.0,
			"-0.021": 0.0,
			"-0.02": 0.0,
			"-0.019": 0.0,
			"-0.018": 0.0,
			"-0.017": 0.0,
			"-0.016": 0.0,
			"-0.015": 0.0,
			"-0.014": 0.0,
			"-0.013": 0.0,
			"-0.012": 0.0,
			"-0.011": 0.0,
			"-0.01": 0.0,
			"-0.009": 0.0,
			"-0.008": 2.15996300904,
			"-0.007": 17.0729033322,
			"-0.006": 25.6814139257,
			"-0.005": 28.5685334588,
			"-0.004": 27.5074429247,
			"-0.003": 33.1239471479,
			"-0.002": 24.9554091167,
			"-0.001": 12.5181287091,
			"0.0": 10.7792835622,
			"0.001": 8.51900483522,
			"0.002": 8.28405178984,
			"0.003": 8.61568066861,
			"0.004": 7.25045126961,
			"0.005": 8.98412475533,
			"0.006": 16.1657633565,
			"0.007": 12.4800422896,
			"0.008": 8.06854638499,
			"0.009": 8.44006470356,
			"0.01": 14.0912516552,
			"0.011": 8.88613436194,
			"0.012": 1.24036750211,
			"0.013": 0.0,
			"0.014": 0.0,
			"0.015": 0.0,
			"0.016": 0.0,
			"0.017": 0.0,
			"0.018": 0.0,
			"0.019": 0.0,
			"0.02": 0.0,
			"0.021": 0.0,
			"0.022": 0.0,
			"0.023": 0.0,
			"0.024": 0.0,
			"0.025": 0.0
		}
	}
}
