{
	 "smiles": "NNC(=O)C1=C2NC=CC2=CC=C1", 
	 "Tm": 451.15, 
	 "num_atms": 22, 
	 "gaussian": { 
		 "optdone": 1, 
		 "sigma_profile": "yes", 
		 "theory": "DFT", 
		 "functional": "B3LYP", 
		 "basiset": "6-31G**", 
		 "properties": { 
			 "R2extent": 2323.4059, 
			 "electric_dipole_moment_norm": 5.17675487637, 
			 "electric_quadrupole_moment_norm": 21.3405136035, 
			 "total_energy": -587.838590034, 
			 "HOMO_LUMO_gap": 0.16419, 
			 "cosmo_polarized_energy": -17.78, 
			 "cosmo_cavitation_energy": 25.54, 
			 "cosmo_dispersion_energy": -19.37, 
			 "cosmo_repulsion_energy": 1.53, 
			 "cosmo_total_nonelectrostatic_energy": 7.69, 
			 "SMD_solvation_energy": 5.46 
		},
		"coords": [
			{
				"x": 1.6407013115,
				"y": -0.4186429449,
				"z": -2.9256115409,
				"element": "N" 
			},
			{
				"x": 0.363910594,
				"y": -1.0189380968,
				"z": -2.9862622372,
				"element": "N" 
			},
			{
				"x": -0.4046847872,
				"y": -1.4075210142,
				"z": -1.8844158378,
				"element": "C" 
			},
			{
				"x": -1.2072538355,
				"y": -2.3127048731,
				"z": -2.1016379135,
				"element": "O" 
			},
			{
				"x": -0.3306805432,
				"y": -0.7544089554,
				"z": -0.5382005377,
				"element": "C" 
			},
			{
				"x": 0.278816562,
				"y": 0.4647326783,
				"z": -0.1538057117,
				"element": "C" 
			},
			{
				"x": 1.0373166124,
				"y": 1.3632610622,
				"z": -0.8624812036,
				"element": "N" 
			},
			{
				"x": 1.4059227953,
				"y": 2.4088277833,
				"z": -0.0378932943,
				"element": "C" 
			},
			{
				"x": 0.8628442014,
				"y": 2.2320546788,
				"z": 1.2056314014,
				"element": "C" 
			},
			{
				"x": 0.1377741489,
				"y": 0.9926173676,
				"z": 1.169637715,
				"element": "C" 
			},
			{
				"x": -0.6036732365,
				"y": 0.287101555,
				"z": 2.1254587537,
				"element": "C" 
			},
			{
				"x": -1.1866230453,
				"y": -0.9228140193,
				"z": 1.7644544265,
				"element": "C" 
			},
			{
				"x": -1.0567859195,
				"y": -1.4207872722,
				"z": 0.4624524224,
				"element": "C" 
			},
			{
				"x": 1.7954375097,
				"y": 0.068010351,
				"z": -3.8048076578,
				"element": "H" 
			},
			{
				"x": 2.3749345424,
				"y": -1.1201300922,
				"z": -2.8196280416,
				"element": "H" 
			},
			{
				"x": 0.2119612541,
				"y": -1.6906525449,
				"z": -3.7342646851,
				"element": "H" 
			},
			{
				"x": 1.457999427,
				"y": 1.0878200731,
				"z": -1.7462655297,
				"element": "H" 
			},
			{
				"x": 2.0274507884,
				"y": 3.2080217504,
				"z": -0.4168428792,
				"element": "H" 
			},
			{
				"x": 0.9583101757,
				"y": 2.9012574289,
				"z": 2.0487852345,
				"element": "H" 
			},
			{
				"x": -0.7169147651,
				"y": 0.6802923864,
				"z": 3.1322674523,
				"element": "H" 
			},
			{
				"x": -1.7614336354,
				"y": -1.4873865843,
				"z": 2.4923686386,
				"element": "H" 
			},
			{
				"x": -1.543530155,
				"y": -2.3477107176,
				"z": 0.1834610258,
				"element": "H" 
			}
		],
		 "valence_orbital": [ 
			{
				"type": "occ",
				"energy": -0.26985,
				"method": "rhf"
			},
			{
				"type": "occ",
				"energy": -0.26486,
				"method": "rhf"
			},
			{
				"type": "occ",
				"energy": -0.24922,
				"method": "rhf"
			},
			{
				"type": "occ",
				"energy": -0.21589,
				"method": "rhf"
			},
			{
				"type": "occ",
				"energy": -0.19925,
				"method": "rhf"
			},
			{
				"type": "unocc",
				"energy": -0.03506,
				"method": "rhf"
			},
			{
				"type": "unocc",
				"energy": 0.02964,
				"method": "rhf"
			},
			{
				"type": "unocc",
				"energy": 0.03956,
				"method": "rhf"
			},
			{
				"type": "unocc",
				"energy": 0.05375,
				"method": "rhf"
			},
			{
				"type": "unocc",
				"energy": 0.09074,
				"method": "rhf"
			}
		],
		"cosmo_sigma_profile": { 
			"-0.025": 0.0,
			"-0.024": 0.0,
			"-0.023": 0.0,
			"-0.022": 0.0,
			"-0.021": 0.0,
			"-0.02": 0.0,
			"-0.019": 0.0,
			"-0.018": 0.0,
			"-0.017": 0.0,
			"-0.016": 0.0,
			"-0.015": 0.0,
			"-0.014": 0.0514004852832,
			"-0.013": 3.19565433508,
			"-0.012": 5.96204626686,
			"-0.011": 6.74048290801,
			"-0.01": 4.64844388204,
			"-0.009": 3.68649877972,
			"-0.008": 4.19677659395,
			"-0.007": 5.55318121641,
			"-0.006": 7.07647540847,
			"-0.005": 8.41849577193,
			"-0.004": 11.0267257135,
			"-0.003": 12.2367697564,
			"-0.002": 9.74250921867,
			"-0.001": 8.3204794614,
			"0.0": 8.96882304834,
			"0.001": 10.9781510685,
			"0.002": 10.7990912806,
			"0.003": 12.869204669,
			"0.004": 15.7225654015,
			"0.005": 17.8252966418,
			"0.006": 15.0149905811,
			"0.007": 4.37835033225,
			"0.008": 2.01830638196,
			"0.009": 1.55476366309,
			"0.01": 2.0362178757,
			"0.011": 0.923427745304,
			"0.012": 2.28979915989,
			"0.013": 4.48856407033,
			"0.014": 3.10594356099,
			"0.015": 0.000810486772495,
			"0.016": 0.0,
			"0.017": 0.0,
			"0.018": 0.0,
			"0.019": 0.0,
			"0.02": 0.0,
			"0.021": 0.0,
			"0.022": 0.0,
			"0.023": 0.0,
			"0.024": 0.0,
			"0.025": 0.0
		}
	}
}
