{
	 "smiles": "NC1=CC=C(C=C1)S(=O)(=O)NCC1=CC=CO1", 
	 "Tm": 454.15, 
	 "num_atms": 29, 
	 "gaussian": { 
		 "optdone": 1, 
		 "sigma_profile": "yes", 
		 "theory": "DFT", 
		 "functional": "B3LYP", 
		 "basiset": "6-31G**", 
		 "properties": { 
			 "R2extent": 4867.9488, 
			 "electric_dipole_moment_norm": 8.04558070061, 
			 "electric_quadrupole_moment_norm": 16.2783839726, 
			 "total_energy": -1159.66815192, 
			 "HOMO_LUMO_gap": 0.20007, 
			 "cosmo_polarized_energy": -22.69, 
			 "cosmo_cavitation_energy": 35.04, 
			 "cosmo_dispersion_energy": -24.14, 
			 "cosmo_repulsion_energy": 1.86, 
			 "cosmo_total_nonelectrostatic_energy": 12.76, 
			 "SMD_solvation_energy": 5.31 
		},
		"coords": [
			{
				"x": 1.7673258833,
				"y": 1.7957737321,
				"z": -3.6108489878,
				"element": "N" 
			},
			{
				"x": 1.4343570614,
				"y": 1.6781435159,
				"z": -2.2715920716,
				"element": "C" 
			},
			{
				"x": 1.2304084006,
				"y": 2.8262783975,
				"z": -1.4798664133,
				"element": "C" 
			},
			{
				"x": 0.9497619733,
				"y": 2.7100133261,
				"z": -0.1255338606,
				"element": "C" 
			},
			{
				"x": 0.8596582125,
				"y": 1.4438495335,
				"z": 0.4631534747,
				"element": "C" 
			},
			{
				"x": 1.0693568843,
				"y": 0.295678777,
				"z": -0.306308596,
				"element": "C" 
			},
			{
				"x": 1.3545630435,
				"y": 0.4115276943,
				"z": -1.6602672009,
				"element": "C" 
			},
			{
				"x": 0.4901824954,
				"y": 1.3021790871,
				"z": 2.2053224907,
				"element": "S" 
			},
			{
				"x": 0.8914308964,
				"y": -0.0422505077,
				"z": 2.6316553505,
				"element": "O" 
			},
			{
				"x": 0.9853541489,
				"y": 2.5218788581,
				"z": 2.8464605813,
				"element": "O" 
			},
			{
				"x": -1.1774161534,
				"y": 1.3586218464,
				"z": 2.4329551474,
				"element": "N" 
			},
			{
				"x": -2.0352113703,
				"y": 0.2082330125,
				"z": 2.1260735223,
				"element": "C" 
			},
			{
				"x": -2.5345637966,
				"y": 0.1172040901,
				"z": 0.7196378388,
				"element": "C" 
			},
			{
				"x": -2.4889946662,
				"y": -0.8479876493,
				"z": -0.242249713,
				"element": "C" 
			},
			{
				"x": -3.2106389805,
				"y": -0.3358535108,
				"z": -1.372125241,
				"element": "C" 
			},
			{
				"x": -3.6390933866,
				"y": 0.9044101292,
				"z": -1.0150290677,
				"element": "C" 
			},
			{
				"x": -3.2422231559,
				"y": 1.1968003319,
				"z": 0.2582576302,
				"element": "O" 
			},
			{
				"x": 1.6134520057,
				"y": 0.9840066376,
				"z": -4.1904750247,
				"element": "H" 
			},
			{
				"x": 1.5277396989,
				"y": 2.6649809342,
				"z": -4.0643783794,
				"element": "H" 
			},
			{
				"x": 1.3111578327,
				"y": 3.8107083413,
				"z": -1.9333754038,
				"element": "H" 
			},
			{
				"x": 0.8232591935,
				"y": 3.5979997532,
				"z": 0.4848683745,
				"element": "H" 
			},
			{
				"x": 1.0286773384,
				"y": -0.6793919156,
				"z": 0.1659470718,
				"element": "H" 
			},
			{
				"x": 1.5302238913,
				"y": -0.4813748055,
				"z": -2.2545218058,
				"element": "H" 
			},
			{
				"x": -1.5620955053,
				"y": 2.2676386488,
				"z": 2.1966011576,
				"element": "H" 
			},
			{
				"x": -2.8841503034,
				"y": 0.2630877381,
				"z": 2.8194773051,
				"element": "H" 
			},
			{
				"x": -1.4748470356,
				"y": -0.6943862879,
				"z": 2.3769732293,
				"element": "H" 
			},
			{
				"x": -2.0018313826,
				"y": -1.8088618346,
				"z": -0.1569971846,
				"element": "H" 
			},
			{
				"x": -3.3816123937,
				"y": -0.8278120135,
				"z": -2.3188425441,
				"element": "H" 
			},
			{
				"x": -4.2064308301,
				"y": 1.6716041401,
				"z": -1.5186716798,
				"element": "H" 
			}
		],
		 "valence_orbital": [ 
			{
				"type": "occ",
				"energy": -0.28442,
				"method": "rhf"
			},
			{
				"type": "occ",
				"energy": -0.27419,
				"method": "rhf"
			},
			{
				"type": "occ",
				"energy": -0.26335,
				"method": "rhf"
			},
			{
				"type": "occ",
				"energy": -0.22954,
				"method": "rhf"
			},
			{
				"type": "occ",
				"energy": -0.21787,
				"method": "rhf"
			},
			{
				"type": "unocc",
				"energy": -0.0178,
				"method": "rhf"
			},
			{
				"type": "unocc",
				"energy": -0.01313,
				"method": "rhf"
			},
			{
				"type": "unocc",
				"energy": 0.00465,
				"method": "rhf"
			},
			{
				"type": "unocc",
				"energy": 0.06006,
				"method": "rhf"
			},
			{
				"type": "unocc",
				"energy": 0.06517,
				"method": "rhf"
			}
		],
		"cosmo_sigma_profile": { 
			"-0.025": 0.0,
			"-0.024": 0.0,
			"-0.023": 0.0,
			"-0.022": 0.0,
			"-0.021": 0.0,
			"-0.02": 0.0,
			"-0.019": 0.0,
			"-0.018": 0.0,
			"-0.017": 0.0,
			"-0.016": 0.0,
			"-0.015": 0.124336706152,
			"-0.014": 0.847972576045,
			"-0.013": 3.03205043843,
			"-0.012": 4.04492087092,
			"-0.011": 4.12995059674,
			"-0.01": 4.15126147214,
			"-0.009": 5.70297498306,
			"-0.008": 6.6391306349,
			"-0.007": 10.7887883286,
			"-0.006": 18.0195961759,
			"-0.005": 17.950654503,
			"-0.004": 16.1705245199,
			"-0.003": 16.7311682956,
			"-0.002": 14.3389851169,
			"-0.001": 12.1391113456,
			"0.0": 12.145916187,
			"0.001": 11.4883102711,
			"0.002": 14.138495577,
			"0.003": 18.5387687377,
			"0.004": 23.2092848235,
			"0.005": 14.8977441551,
			"0.006": 10.0936397874,
			"0.007": 6.24431770424,
			"0.008": 4.54839695907,
			"0.009": 4.79389345694,
			"0.01": 6.45277086926,
			"0.011": 9.06950193059,
			"0.012": 8.26000590373,
			"0.013": 0.636428711333,
			"0.014": 0.0,
			"0.015": 0.0,
			"0.016": 0.0,
			"0.017": 0.0,
			"0.018": 0.0,
			"0.019": 0.0,
			"0.02": 0.0,
			"0.021": 0.0,
			"0.022": 0.0,
			"0.023": 0.0,
			"0.024": 0.0,
			"0.025": 0.0
		}
	}
}
