{
	 "smiles": "NC(=O)C1=CC(N)=C(F)C=C1", 
	 "Tm": 411.15, 
	 "num_atms": 18, 
	 "gaussian": { 
		 "optdone": 1, 
		 "sigma_profile": "yes", 
		 "theory": "DFT", 
		 "functional": "B3LYP", 
		 "basiset": "6-31G**", 
		 "properties": { 
			 "R2extent": 2044.2802, 
			 "electric_dipole_moment_norm": 1.89650284735, 
			 "electric_quadrupole_moment_norm": 20.0689280735, 
			 "total_energy": -555.546796533, 
			 "HOMO_LUMO_gap": 0.183, 
			 "cosmo_polarized_energy": -15.53, 
			 "cosmo_cavitation_energy": 22.85, 
			 "cosmo_dispersion_energy": -17.0, 
			 "cosmo_repulsion_energy": 1.35, 
			 "cosmo_total_nonelectrostatic_energy": 7.21, 
			 "SMD_solvation_energy": 5.12 
		},
		"coords": [
			{
				"x": -3.7205451958,
				"y": -1.3751911294,
				"z": 0.011453268,
				"element": "N" 
			},
			{
				"x": -2.4803829588,
				"y": -1.5236147358,
				"z": -0.5655961321,
				"element": "C" 
			},
			{
				"x": -2.2321074405,
				"y": -2.4534527696,
				"z": -1.3243973266,
				"element": "O" 
			},
			{
				"x": -1.4626764101,
				"y": -0.470901293,
				"z": -0.2309761504,
				"element": "C" 
			},
			{
				"x": -0.1247275109,
				"y": -0.783936898,
				"z": -0.4966852782,
				"element": "C" 
			},
			{
				"x": 0.9027447719,
				"y": 0.1246948632,
				"z": -0.221285979,
				"element": "C" 
			},
			{
				"x": 2.2476759828,
				"y": -0.1684737527,
				"z": -0.406354827,
				"element": "N" 
			},
			{
				"x": 0.5255143564,
				"y": 1.3657003007,
				"z": 0.3185227428,
				"element": "C" 
			},
			{
				"x": 1.5166746143,
				"y": 2.2593170222,
				"z": 0.5680772322,
				"element": "F" 
			},
			{
				"x": -0.7902775286,
				"y": 1.7067641347,
				"z": 0.5751208863,
				"element": "C" 
			},
			{
				"x": -1.7994243424,
				"y": 0.780939209,
				"z": 0.3020565376,
				"element": "C" 
			},
			{
				"x": -4.3505190055,
				"y": -2.1532360284,
				"z": -0.121414354,
				"element": "H" 
			},
			{
				"x": -3.822190487,
				"y": -0.8477174631,
				"z": 0.8643703139,
				"element": "H" 
			},
			{
				"x": 0.0989000142,
				"y": -1.7555420166,
				"z": -0.9258862515,
				"element": "H" 
			},
			{
				"x": 2.8523142983,
				"y": 0.6386705007,
				"z": -0.4631127395,
				"element": "H" 
			},
			{
				"x": 2.4473922919,
				"y": -0.8684231246,
				"z": -1.1063082643,
				"element": "H" 
			},
			{
				"x": -1.009949548,
				"y": 2.6924005652,
				"z": 0.971347257,
				"element": "H" 
			},
			{
				"x": -2.835115902,
				"y": 1.0605026155,
				"z": 0.462269065,
				"element": "H" 
			}
		],
		 "valence_orbital": [ 
			{
				"type": "occ",
				"energy": -0.31847,
				"method": "rhf"
			},
			{
				"type": "occ",
				"energy": -0.27033,
				"method": "rhf"
			},
			{
				"type": "occ",
				"energy": -0.25448,
				"method": "rhf"
			},
			{
				"type": "occ",
				"energy": -0.24462,
				"method": "rhf"
			},
			{
				"type": "occ",
				"energy": -0.21244,
				"method": "rhf"
			},
			{
				"type": "unocc",
				"energy": -0.02944,
				"method": "rhf"
			},
			{
				"type": "unocc",
				"energy": -0.00189,
				"method": "rhf"
			},
			{
				"type": "unocc",
				"energy": 0.06424,
				"method": "rhf"
			},
			{
				"type": "unocc",
				"energy": 0.07916,
				"method": "rhf"
			},
			{
				"type": "unocc",
				"energy": 0.0825,
				"method": "rhf"
			}
		],
		"cosmo_sigma_profile": { 
			"-0.025": 0.0,
			"-0.024": 0.0,
			"-0.023": 0.0,
			"-0.022": 0.0,
			"-0.021": 0.0,
			"-0.02": 0.0,
			"-0.019": 0.0,
			"-0.018": 0.0,
			"-0.017": 0.0,
			"-0.016": 0.0,
			"-0.015": 0.0390000009177,
			"-0.014": 1.18947739408,
			"-0.013": 3.67237719235,
			"-0.012": 4.23776765895,
			"-0.011": 4.48666257382,
			"-0.01": 5.08534824028,
			"-0.009": 5.62546137517,
			"-0.008": 5.02166897473,
			"-0.007": 6.77021623971,
			"-0.006": 5.56600907946,
			"-0.005": 8.15714218561,
			"-0.004": 6.05307926155,
			"-0.003": 6.53431546686,
			"-0.002": 6.32035274548,
			"-0.001": 7.38887595716,
			"0.0": 9.07192753497,
			"0.001": 14.6827706778,
			"0.002": 12.9942718462,
			"0.003": 14.8308217582,
			"0.004": 19.3752503786,
			"0.005": 7.49883560475,
			"0.006": 2.9051412617,
			"0.007": 2.38076257683,
			"0.008": 3.01075246632,
			"0.009": 2.63207641482,
			"0.01": 1.51608798018,
			"0.011": 2.16414168008,
			"0.012": 2.93301840504,
			"0.013": 4.8450022826,
			"0.014": 4.47646925827,
			"0.015": 0.428978815548,
			"0.016": 0.0,
			"0.017": 0.0,
			"0.018": 0.0,
			"0.019": 0.0,
			"0.02": 0.0,
			"0.021": 0.0,
			"0.022": 0.0,
			"0.023": 0.0,
			"0.024": 0.0,
			"0.025": 0.0
		}
	}
}
