{
	 "smiles": "CCN1C(=O)C(C)=NC2=C1C=CC(=C2)C(O)=O", 
	 "Tm": 478.15, 
	 "num_atms": 29, 
	 "gaussian": { 
		 "optdone": 1, 
		 "sigma_profile": "yes", 
		 "theory": "DFT", 
		 "functional": "B3LYP", 
		 "basiset": "6-31G**", 
		 "properties": { 
			 "R2extent": 5038.9175, 
			 "electric_dipole_moment_norm": 3.25378844119, 
			 "electric_quadrupole_moment_norm": 34.1645727822, 
			 "total_energy": -799.72329156, 
			 "HOMO_LUMO_gap": 0.16167, 
			 "cosmo_polarized_energy": -18.86, 
			 "cosmo_cavitation_energy": 32.92, 
			 "cosmo_dispersion_energy": -23.91, 
			 "cosmo_repulsion_energy": 1.82, 
			 "cosmo_total_nonelectrostatic_energy": 10.84, 
			 "SMD_solvation_energy": 5.8 
		},
		"coords": [
			{
				"x": -0.0027739614,
				"y": -3.0201217347,
				"z": 1.3308295574,
				"element": "C" 
			},
			{
				"x": -0.5901046067,
				"y": -1.6753715635,
				"z": 1.7633941927,
				"element": "C" 
			},
			{
				"x": -0.1053116595,
				"y": -0.5515931654,
				"z": 0.9411587478,
				"element": "N" 
			},
			{
				"x": 1.0181404172,
				"y": 0.1307852645,
				"z": 1.4175575046,
				"element": "C" 
			},
			{
				"x": 1.5803157319,
				"y": -0.1941043069,
				"z": 2.4593601302,
				"element": "O" 
			},
			{
				"x": 1.4771698398,
				"y": 1.2747133076,
				"z": 0.5845927945,
				"element": "C" 
			},
			{
				"x": 2.6631743309,
				"y": 2.0306481151,
				"z": 1.1011360692,
				"element": "C" 
			},
			{
				"x": 0.9125638165,
				"y": 1.6216818163,
				"z": -0.5276592284,
				"element": "N" 
			},
			{
				"x": -0.1798432021,
				"y": 0.8984028837,
				"z": -0.9766276583,
				"element": "C" 
			},
			{
				"x": -0.7059172144,
				"y": -0.2094603052,
				"z": -0.2628232304,
				"element": "C" 
			},
			{
				"x": -1.8026405714,
				"y": -0.9124071988,
				"z": -0.8038973787,
				"element": "C" 
			},
			{
				"x": -2.3623395015,
				"y": -0.512502633,
				"z": -2.0047770772,
				"element": "C" 
			},
			{
				"x": -1.8679618988,
				"y": 0.6031394347,
				"z": -2.7078435135,
				"element": "C" 
			},
			{
				"x": -0.7723317267,
				"y": 1.2857320117,
				"z": -2.1878289505,
				"element": "C" 
			},
			{
				"x": -2.5311384949,
				"y": 0.9566842155,
				"z": -4.0024169954,
				"element": "C" 
			},
			{
				"x": -2.2789646643,
				"y": 2.1921315435,
				"z": -4.5093264723,
				"element": "O" 
			},
			{
				"x": -3.2650317538,
				"y": 0.1997849141,
				"z": -4.5950405393,
				"element": "O" 
			},
			{
				"x": 1.0854254501,
				"y": -3.0057342644,
				"z": 1.4322453205,
				"element": "H" 
			},
			{
				"x": -0.3942461623,
				"y": -3.8180022844,
				"z": 1.9694789296,
				"element": "H" 
			},
			{
				"x": -0.2522273292,
				"y": -3.259544375,
				"z": 0.2928876993,
				"element": "H" 
			},
			{
				"x": -1.6818250807,
				"y": -1.6783479713,
				"z": 1.7252001474,
				"element": "H" 
			},
			{
				"x": -0.286081301,
				"y": -1.4481011121,
				"z": 2.7853090522,
				"element": "H" 
			},
			{
				"x": 2.903981109,
				"y": 2.8482936641,
				"z": 0.4210916251,
				"element": "H" 
			},
			{
				"x": 3.5262692647,
				"y": 1.3643805342,
				"z": 1.2046840263,
				"element": "H" 
			},
			{
				"x": 2.4605917988,
				"y": 2.4233791565,
				"z": 2.1032422986,
				"element": "H" 
			},
			{
				"x": -2.2087869744,
				"y": -1.7767613401,
				"z": -0.2940607668,
				"element": "H" 
			},
			{
				"x": -3.1975384222,
				"y": -1.0564380565,
				"z": -2.4320107262,
				"element": "H" 
			},
			{
				"x": -0.3000609004,
				"y": 2.1213646985,
				"z": -2.6973106373,
				"element": "H" 
			},
			{
				"x": -1.8056063331,
				"y": 2.7334687514,
				"z": -3.8628449211,
				"element": "H" 
			}
		],
		 "valence_orbital": [ 
			{
				"type": "occ",
				"energy": -0.31198,
				"method": "rhf"
			},
			{
				"type": "occ",
				"energy": -0.27651,
				"method": "rhf"
			},
			{
				"type": "occ",
				"energy": -0.26817,
				"method": "rhf"
			},
			{
				"type": "occ",
				"energy": -0.25781,
				"method": "rhf"
			},
			{
				"type": "occ",
				"energy": -0.23942,
				"method": "rhf"
			},
			{
				"type": "unocc",
				"energy": -0.07775,
				"method": "rhf"
			},
			{
				"type": "unocc",
				"energy": -0.05454,
				"method": "rhf"
			},
			{
				"type": "unocc",
				"energy": -0.01443,
				"method": "rhf"
			},
			{
				"type": "unocc",
				"energy": 0.03116,
				"method": "rhf"
			},
			{
				"type": "unocc",
				"energy": 0.05672,
				"method": "rhf"
			}
		],
		"cosmo_sigma_profile": { 
			"-0.025": 0.0,
			"-0.024": 0.0,
			"-0.023": 0.0,
			"-0.022": 0.0,
			"-0.021": 0.0,
			"-0.02": 0.0,
			"-0.019": 0.336929667498,
			"-0.018": 1.28611708665,
			"-0.017": 1.01652595683,
			"-0.016": 1.16249449247,
			"-0.015": 0.546943242489,
			"-0.014": 0.504499086496,
			"-0.013": 1.74591135335,
			"-0.012": 1.22380536972,
			"-0.011": 0.796819155987,
			"-0.01": 0.646448154232,
			"-0.009": 2.49118163478,
			"-0.008": 3.79565428621,
			"-0.007": 4.97344662241,
			"-0.006": 8.30237804441,
			"-0.005": 15.4361376256,
			"-0.004": 24.3149319159,
			"-0.003": 25.6396460858,
			"-0.002": 25.123389908,
			"-0.001": 23.1163642751,
			"0.0": 22.5982895737,
			"0.001": 18.5191977445,
			"0.002": 12.0270956809,
			"0.003": 6.55553456216,
			"0.004": 5.318366028,
			"0.005": 5.85142805985,
			"0.006": 6.1511786943,
			"0.007": 3.41536104751,
			"0.008": 4.42252396659,
			"0.009": 6.30274304286,
			"0.01": 6.96668993031,
			"0.011": 7.93253506271,
			"0.012": 8.82911932517,
			"0.013": 4.90748359546,
			"0.014": 0.103572624105,
			"0.015": 0.0,
			"0.016": 0.0,
			"0.017": 0.0,
			"0.018": 0.0,
			"0.019": 0.0,
			"0.02": 0.0,
			"0.021": 0.0,
			"0.022": 0.0,
			"0.023": 0.0,
			"0.024": 0.0,
			"0.025": 0.0
		}
	}
}
