{
	 "smiles": "O=C1N2CCCCC2CC2=CC=CC=C12", 
	 "Tm": 370.15, 
	 "num_atms": 30, 
	 "gaussian": { 
		 "optdone": 1, 
		 "sigma_profile": "yes", 
		 "theory": "DFT", 
		 "functional": "B3LYP", 
		 "basiset": "6-31G**", 
		 "properties": { 
			 "R2extent": 4322.0117, 
			 "electric_dipole_moment_norm": 3.90454061574, 
			 "electric_quadrupole_moment_norm": 18.2917629995, 
			 "total_energy": -634.434387845, 
			 "HOMO_LUMO_gap": 0.19816, 
			 "cosmo_polarized_energy": -10.46, 
			 "cosmo_cavitation_energy": 30.45, 
			 "cosmo_dispersion_energy": -22.8, 
			 "cosmo_repulsion_energy": 1.75, 
			 "cosmo_total_nonelectrostatic_energy": 9.4, 
			 "SMD_solvation_energy": 4.08 
		},
		"coords": [
			{
				"x": -3.0923840388,
				"y": -1.1231214391,
				"z": 2.5277196574,
				"element": "O" 
			},
			{
				"x": -2.2340564666,
				"y": -0.7169122649,
				"z": 1.7432479518,
				"element": "C" 
			},
			{
				"x": -1.3583172344,
				"y": -1.5643297818,
				"z": 1.1042868569,
				"element": "N" 
			},
			{
				"x": -1.3904619049,
				"y": -2.9925075902,
				"z": 1.452418927,
				"element": "C" 
			},
			{
				"x": 0.0283912028,
				"y": -3.5294190953,
				"z": 1.650450034,
				"element": "C" 
			},
			{
				"x": 0.8826179755,
				"y": -3.3714960292,
				"z": 0.3702576434,
				"element": "C" 
			},
			{
				"x": 0.3879705665,
				"y": -2.1945588094,
				"z": -0.4985844409,
				"element": "C" 
			},
			{
				"x": -0.1988612849,
				"y": -1.0554346465,
				"z": 0.3426455693,
				"element": "C" 
			},
			{
				"x": -0.6260619353,
				"y": 0.1411189142,
				"z": -0.5089313283,
				"element": "C" 
			},
			{
				"x": -1.3256600663,
				"y": 1.179426812,
				"z": 0.3336057613,
				"element": "C" 
			},
			{
				"x": -1.2533900454,
				"y": 2.5479376424,
				"z": 0.0586453327,
				"element": "C" 
			},
			{
				"x": -1.9405192482,
				"y": 3.46699258,
				"z": 0.8528976267,
				"element": "C" 
			},
			{
				"x": -2.7140805031,
				"y": 3.0248237458,
				"z": 1.9301957895,
				"element": "C" 
			},
			{
				"x": -2.7963110723,
				"y": 1.6631435118,
				"z": 2.2089005706,
				"element": "C" 
			},
			{
				"x": -2.1001981613,
				"y": 0.7406077088,
				"z": 1.4197260275,
				"element": "C" 
			},
			{
				"x": -1.9048601214,
				"y": -3.5587580031,
				"z": 0.6626091223,
				"element": "H" 
			},
			{
				"x": -1.9914824143,
				"y": -3.0842932115,
				"z": 2.3581382413,
				"element": "H" 
			},
			{
				"x": 0.49031605,
				"y": -2.9835345789,
				"z": 2.4815518963,
				"element": "H" 
			},
			{
				"x": -0.0196683603,
				"y": -4.579580311,
				"z": 1.957197147,
				"element": "H" 
			},
			{
				"x": 0.8512876561,
				"y": -4.2910934705,
				"z": -0.2244963924,
				"element": "H" 
			},
			{
				"x": 1.9319769295,
				"y": -3.2196792517,
				"z": 0.6468191319,
				"element": "H" 
			},
			{
				"x": 1.2042728755,
				"y": -1.7993694075,
				"z": -1.1130021021,
				"element": "H" 
			},
			{
				"x": -0.3890991887,
				"y": -2.5361620827,
				"z": -1.193724283,
				"element": "H" 
			},
			{
				"x": 0.5748773166,
				"y": -0.7082973209,
				"z": 1.0491389994,
				"element": "H" 
			},
			{
				"x": -1.3003006268,
				"y": -0.2119801664,
				"z": -1.3032834662,
				"element": "H" 
			},
			{
				"x": 0.252768339,
				"y": 0.5705945772,
				"z": -1.0024386678,
				"element": "H" 
			},
			{
				"x": -0.654697244,
				"y": 2.8948842431,
				"z": -0.7801287633,
				"element": "H" 
			},
			{
				"x": -1.8711038207,
				"y": 4.5285323148,
				"z": 0.6320162823,
				"element": "H" 
			},
			{
				"x": -3.2501879081,
				"y": 3.7404761666,
				"z": 2.5465900563,
				"element": "H" 
			},
			{
				"x": -3.3955772659,
				"y": 1.283189244,
				"z": 3.0294308191,
				"element": "H" 
			}
		],
		 "valence_orbital": [ 
			{
				"type": "occ",
				"energy": -0.31649,
				"method": "rhf"
			},
			{
				"type": "occ",
				"energy": -0.25038,
				"method": "rhf"
			},
			{
				"type": "occ",
				"energy": -0.2468,
				"method": "rhf"
			},
			{
				"type": "occ",
				"energy": -0.23863,
				"method": "rhf"
			},
			{
				"type": "occ",
				"energy": -0.2284,
				"method": "rhf"
			},
			{
				"type": "unocc",
				"energy": -0.03024,
				"method": "rhf"
			},
			{
				"type": "unocc",
				"energy": -0.00214,
				"method": "rhf"
			},
			{
				"type": "unocc",
				"energy": 0.06547,
				"method": "rhf"
			},
			{
				"type": "unocc",
				"energy": 0.07619,
				"method": "rhf"
			},
			{
				"type": "unocc",
				"energy": 0.09936,
				"method": "rhf"
			}
		],
		"cosmo_sigma_profile": { 
			"-0.025": 0.0,
			"-0.024": 0.0,
			"-0.023": 0.0,
			"-0.022": 0.0,
			"-0.021": 0.0,
			"-0.02": 0.0,
			"-0.019": 0.0,
			"-0.018": 0.0,
			"-0.017": 0.0,
			"-0.016": 0.0,
			"-0.015": 0.0,
			"-0.014": 0.0,
			"-0.013": 0.0,
			"-0.012": 0.0,
			"-0.011": 0.0,
			"-0.01": 0.0,
			"-0.009": 0.0,
			"-0.008": 0.0,
			"-0.007": 0.118881188192,
			"-0.006": 4.26379614203,
			"-0.005": 10.3406485024,
			"-0.004": 24.6289082948,
			"-0.003": 37.5001874184,
			"-0.002": 36.3249395386,
			"-0.001": 27.9603938183,
			"0.0": 20.6861743583,
			"0.001": 13.1858393777,
			"0.002": 10.3216239801,
			"0.003": 10.944344087,
			"0.004": 11.3217317617,
			"0.005": 11.0297990306,
			"0.006": 1.83880515089,
			"0.007": 1.86973610351,
			"0.008": 1.60820468223,
			"0.009": 1.83035573834,
			"0.01": 1.57649285185,
			"0.011": 1.12559776899,
			"0.012": 2.03738602274,
			"0.013": 2.12417323028,
			"0.014": 5.12039397931,
			"0.015": 1.23975945858,
			"0.016": 0.0,
			"0.017": 0.0,
			"0.018": 0.0,
			"0.019": 0.0,
			"0.02": 0.0,
			"0.021": 0.0,
			"0.022": 0.0,
			"0.023": 0.0,
			"0.024": 0.0,
			"0.025": 0.0
		}
	}
}
