{
	 "smiles": "CN(C)C(N)=S", 
	 "Tm": 418.15, 
	 "num_atms": 14, 
	 "gaussian": { 
		 "optdone": 1, 
		 "sigma_profile": "yes", 
		 "theory": "DFT", 
		 "functional": "B3LYP", 
		 "basiset": "6-31G**", 
		 "properties": { 
			 "R2extent": 975.0029, 
			 "electric_dipole_moment_norm": 5.58406125145, 
			 "electric_quadrupole_moment_norm": 9.31466488018, 
			 "total_energy": -626.839537404, 
			 "HOMO_LUMO_gap": 0.20044, 
			 "cosmo_polarized_energy": -16.47, 
			 "cosmo_cavitation_energy": 18.27, 
			 "cosmo_dispersion_energy": -14.27, 
			 "cosmo_repulsion_energy": 1.18, 
			 "cosmo_total_nonelectrostatic_energy": 5.17, 
			 "SMD_solvation_energy": 2.55 
		},
		"coords": [
			{
				"x": 0.1079908188,
				"y": 0.1199006904,
				"z": -1.990577576,
				"element": "C" 
			},
			{
				"x": 0.4892140646,
				"y": 0.6799517654,
				"z": -0.6986799176,
				"element": "N" 
			},
			{
				"x": 0.058353039,
				"y": 2.0481808162,
				"z": -0.4377521079,
				"element": "C" 
			},
			{
				"x": 1.2008682808,
				"y": -0.0396871663,
				"z": 0.2120052868,
				"element": "C" 
			},
			{
				"x": 1.6181875385,
				"y": -1.2785783228,
				"z": -0.2174654813,
				"element": "N" 
			},
			{
				"x": 1.5372594301,
				"y": 0.4534211409,
				"z": 1.7919423448,
				"element": "S" 
			},
			{
				"x": -0.1930726681,
				"y": -0.9258000833,
				"z": -1.8834840912,
				"element": "H" 
			},
			{
				"x": 0.916890966,
				"y": 0.1863417738,
				"z": -2.733430104,
				"element": "H" 
			},
			{
				"x": -0.7458088155,
				"y": 0.6786775745,
				"z": -2.3789065817,
				"element": "H" 
			},
			{
				"x": -1.0354216316,
				"y": 2.1015661142,
				"z": -0.3756910926,
				"element": "H" 
			},
			{
				"x": 0.4845210474,
				"y": 2.3774115113,
				"z": 0.5080319071,
				"element": "H" 
			},
			{
				"x": 0.3974817671,
				"y": 2.7063548636,
				"z": -1.2462918952,
				"element": "H" 
			},
			{
				"x": 1.8374816105,
				"y": -1.4245221039,
				"z": -1.1932912157,
				"element": "H" 
			},
			{
				"x": 2.2312545524,
				"y": -1.7413185741,
				"z": 0.4369905244,
				"element": "H" 
			}
		],
		 "valence_orbital": [ 
			{
				"type": "occ",
				"energy": -0.37452,
				"method": "rhf"
			},
			{
				"type": "occ",
				"energy": -0.35046,
				"method": "rhf"
			},
			{
				"type": "occ",
				"energy": -0.26287,
				"method": "rhf"
			},
			{
				"type": "occ",
				"energy": -0.20568,
				"method": "rhf"
			},
			{
				"type": "occ",
				"energy": -0.19595,
				"method": "rhf"
			},
			{
				"type": "unocc",
				"energy": 0.00449,
				"method": "rhf"
			},
			{
				"type": "unocc",
				"energy": 0.06223,
				"method": "rhf"
			},
			{
				"type": "unocc",
				"energy": 0.09377,
				"method": "rhf"
			},
			{
				"type": "unocc",
				"energy": 0.1073,
				"method": "rhf"
			},
			{
				"type": "unocc",
				"energy": 0.12435,
				"method": "rhf"
			}
		],
		"cosmo_sigma_profile": { 
			"-0.025": 0.0,
			"-0.024": 0.0,
			"-0.023": 0.0,
			"-0.022": 0.0,
			"-0.021": 0.0,
			"-0.02": 0.0,
			"-0.019": 0.0,
			"-0.018": 0.0,
			"-0.017": 0.0,
			"-0.016": 0.0,
			"-0.015": 0.0182555446979,
			"-0.014": 1.49459963915,
			"-0.013": 1.4700143743,
			"-0.012": 3.02548777498,
			"-0.011": 2.38443840322,
			"-0.01": 2.82719447401,
			"-0.009": 2.15173527153,
			"-0.008": 2.3017113127,
			"-0.007": 2.44994845507,
			"-0.006": 8.18898766396,
			"-0.005": 14.3650223974,
			"-0.004": 12.3919809122,
			"-0.003": 14.3741878309,
			"-0.002": 11.5609759643,
			"-0.001": 5.67710363194,
			"0.0": 4.99008047909,
			"0.001": 4.20911283393,
			"0.002": 3.32669722561,
			"0.003": 2.3148915535,
			"0.004": 3.06672391457,
			"0.005": 4.16124717201,
			"0.006": 5.55244809401,
			"0.007": 4.40363360336,
			"0.008": 4.2464691268,
			"0.009": 3.61120621177,
			"0.01": 4.94567134305,
			"0.011": 6.50517099202,
			"0.012": 7.10434280927,
			"0.013": 2.96641660262,
			"0.014": 0.0,
			"0.015": 0.0,
			"0.016": 0.0,
			"0.017": 0.0,
			"0.018": 0.0,
			"0.019": 0.0,
			"0.02": 0.0,
			"0.021": 0.0,
			"0.022": 0.0,
			"0.023": 0.0,
			"0.024": 0.0,
			"0.025": 0.0
		}
	}
}
