{
	 "smiles": "CCOC(=O)C1CCN(CC1)C1=NC=NC2=C1SC=C2", 
	 "Tm": 338.15, 
	 "num_atms": 37, 
	 "gaussian": { 
		 "optdone": 1, 
		 "sigma_profile": "yes", 
		 "theory": "DFT", 
		 "functional": "B3LYP", 
		 "basiset": "6-31G**", 
		 "properties": { 
			 "R2extent": 6925.7865, 
			 "electric_dipole_moment_norm": 3.51252209957, 
			 "electric_quadrupole_moment_norm": 12.8453199563, 
			 "total_energy": -1256.63957353, 
			 "HOMO_LUMO_gap": 0.17565, 
			 "cosmo_polarized_energy": -14.35, 
			 "cosmo_cavitation_energy": 39.97, 
			 "cosmo_dispersion_energy": -28.58, 
			 "cosmo_repulsion_energy": 2.16, 
			 "cosmo_total_nonelectrostatic_energy": 13.56, 
			 "SMD_solvation_energy": 4.51 
		},
		"coords": [
			{
				"x": -0.0701997295,
				"y": 4.5511903161,
				"z": 3.0853954655,
				"element": "C" 
			},
			{
				"x": -0.3100481432,
				"y": 3.671670894,
				"z": 1.8679825278,
				"element": "C" 
			},
			{
				"x": -0.7322904993,
				"y": 2.3392856155,
				"z": 2.2548949496,
				"element": "O" 
			},
			{
				"x": 0.2473531584,
				"y": 1.4548372171,
				"z": 2.5474153796,
				"element": "C" 
			},
			{
				"x": 1.4293361692,
				"y": 1.722632923,
				"z": 2.4993627488,
				"element": "O" 
			},
			{
				"x": -0.3314362586,
				"y": 0.111917047,
				"z": 3.0031623179,
				"element": "C" 
			},
			{
				"x": 0.7236622483,
				"y": -1.0152673256,
				"z": 2.8959903403,
				"element": "C" 
			},
			{
				"x": 0.4866817267,
				"y": -1.8628107537,
				"z": 1.6313526019,
				"element": "C" 
			},
			{
				"x": -0.0007090722,
				"y": -1.0323388125,
				"z": 0.5324070197,
				"element": "N" 
			},
			{
				"x": -1.3490586173,
				"y": -0.4802485161,
				"z": 0.7448238008,
				"element": "C" 
			},
			{
				"x": -1.6144805241,
				"y": -0.2871003443,
				"z": 2.2490133684,
				"element": "C" 
			},
			{
				"x": 0.5273014977,
				"y": -1.0030529378,
				"z": -0.7321256329,
				"element": "C" 
			},
			{
				"x": -0.2907546761,
				"y": -0.5557146017,
				"z": -1.7025334566,
				"element": "N" 
			},
			{
				"x": 0.1699232954,
				"y": -0.4853297251,
				"z": -2.9596673973,
				"element": "C" 
			},
			{
				"x": 1.3691016836,
				"y": -0.8169331412,
				"z": -3.4135569751,
				"element": "N" 
			},
			{
				"x": 2.2194743247,
				"y": -1.24624877,
				"z": -2.4510430599,
				"element": "C" 
			},
			{
				"x": 1.8588685729,
				"y": -1.3603599302,
				"z": -1.0904657756,
				"element": "C" 
			},
			{
				"x": 3.2430441621,
				"y": -1.8591430504,
				"z": -0.1280610426,
				"element": "S" 
			},
			{
				"x": 4.2496090083,
				"y": -1.9381382076,
				"z": -1.5517814462,
				"element": "C" 
			},
			{
				"x": 3.594059112,
				"y": -1.5985835185,
				"z": -2.6901508387,
				"element": "C" 
			},
			{
				"x": 0.171193273,
				"y": 5.5699957096,
				"z": 2.7645051188,
				"element": "H" 
			},
			{
				"x": 0.7676105375,
				"y": 4.171280787,
				"z": 3.6750747867,
				"element": "H" 
			},
			{
				"x": -0.961395031,
				"y": 4.5935598791,
				"z": 3.7186673802,
				"element": "H" 
			},
			{
				"x": -1.1330385209,
				"y": 4.0485453277,
				"z": 1.2563267583,
				"element": "H" 
			},
			{
				"x": 0.5906812492,
				"y": 3.5894974894,
				"z": 1.2556562358,
				"element": "H" 
			},
			{
				"x": -0.5863401351,
				"y": 0.2713052384,
				"z": 4.059625513,
				"element": "H" 
			},
			{
				"x": 1.7188131957,
				"y": -0.5649648601,
				"z": 2.8727806533,
				"element": "H" 
			},
			{
				"x": 0.6727062395,
				"y": -1.6686403966,
				"z": 3.7735812738,
				"element": "H" 
			},
			{
				"x": 1.3928549018,
				"y": -2.3894683436,
				"z": 1.3387876105,
				"element": "H" 
			},
			{
				"x": -0.2612500188,
				"y": -2.6446015002,
				"z": 1.8317257179,
				"element": "H" 
			},
			{
				"x": -2.1129870117,
				"y": -1.1299666003,
				"z": 0.2954570183,
				"element": "H" 
			},
			{
				"x": -1.4056182861,
				"y": 0.4751044808,
				"z": 0.2211433244,
				"element": "H" 
			},
			{
				"x": -2.3926279701,
				"y": 0.4683369253,
				"z": 2.3753498857,
				"element": "H" 
			},
			{
				"x": -1.9945113828,
				"y": -1.2129854699,
				"z": 2.6959644287,
				"element": "H" 
			},
			{
				"x": -0.542702589,
				"y": -0.1142802326,
				"z": -3.695232773,
				"element": "H" 
			},
			{
				"x": 5.2838994993,
				"y": -2.2356598173,
				"z": -1.4420356653,
				"element": "H" 
			},
			{
				"x": 4.0371746111,
				"y": -1.5747229946,
				"z": -3.6777921625,
				"element": "H" 
			}
		],
		 "valence_orbital": [ 
			{
				"type": "occ",
				"energy": -0.27163,
				"method": "rhf"
			},
			{
				"type": "occ",
				"energy": -0.26073,
				"method": "rhf"
			},
			{
				"type": "occ",
				"energy": -0.24405,
				"method": "rhf"
			},
			{
				"type": "occ",
				"energy": -0.24218,
				"method": "rhf"
			},
			{
				"type": "occ",
				"energy": -0.20931,
				"method": "rhf"
			},
			{
				"type": "unocc",
				"energy": -0.03366,
				"method": "rhf"
			},
			{
				"type": "unocc",
				"energy": -0.00437,
				"method": "rhf"
			},
			{
				"type": "unocc",
				"energy": 0.0102,
				"method": "rhf"
			},
			{
				"type": "unocc",
				"energy": 0.02247,
				"method": "rhf"
			},
			{
				"type": "unocc",
				"energy": 0.04906,
				"method": "rhf"
			}
		],
		"cosmo_sigma_profile": { 
			"-0.025": 0.0,
			"-0.024": 0.0,
			"-0.023": 0.0,
			"-0.022": 0.0,
			"-0.021": 0.0,
			"-0.02": 0.0,
			"-0.019": 0.0,
			"-0.018": 0.0,
			"-0.017": 0.0,
			"-0.016": 0.0,
			"-0.015": 0.0,
			"-0.014": 0.0,
			"-0.013": 0.0,
			"-0.012": 0.0,
			"-0.011": 0.0,
			"-0.01": 0.445181572898,
			"-0.009": 2.12458397694,
			"-0.008": 2.17521588523,
			"-0.007": 4.85652889146,
			"-0.006": 10.1151536783,
			"-0.005": 16.8944339889,
			"-0.004": 34.6569922263,
			"-0.003": 38.291133878,
			"-0.002": 32.554743851,
			"-0.001": 25.6792234929,
			"0.0": 27.7175314679,
			"0.001": 25.6148558243,
			"0.002": 22.5569031685,
			"0.003": 17.6556905248,
			"0.004": 11.8966351259,
			"0.005": 7.79027221902,
			"0.006": 5.73807553036,
			"0.007": 5.16899656014,
			"0.008": 4.43574349237,
			"0.009": 4.4996013489,
			"0.01": 3.16233034148,
			"0.011": 3.62248811488,
			"0.012": 5.72776680036,
			"0.013": 1.85918892076,
			"0.014": 0.704292059114,
			"0.015": 1.23506018938,
			"0.016": 0.726239861308,
			"0.017": 0.268772075632,
			"0.018": 0.0,
			"0.019": 0.0,
			"0.02": 0.0,
			"0.021": 0.0,
			"0.022": 0.0,
			"0.023": 0.0,
			"0.024": 0.0,
			"0.025": 0.0
		}
	}
}
