{
	 "smiles": "CC(O[Si](C)(C)C)=N[Si](C)(C)C", 
	 "Tm": 297.15, 
	 "num_atms": 33, 
	 "gaussian": { 
		 "optdone": 1, 
		 "sigma_profile": "yes", 
		 "theory": "DFT", 
		 "functional": "B3LYP", 
		 "basiset": "6-31G**", 
		 "properties": { 
			 "R2extent": 3807.407, 
			 "electric_dipole_moment_norm": 0.523237775777, 
			 "electric_quadrupole_moment_norm": 3.71450715573, 
			 "total_energy": -1026.62797041, 
			 "HOMO_LUMO_gap": 0.23955, 
			 "cosmo_polarized_energy": -4.97, 
			 "cosmo_cavitation_energy": 39.14, 
			 "cosmo_dispersion_energy": -20.94, 
			 "cosmo_repulsion_energy": 1.93, 
			 "cosmo_total_nonelectrostatic_energy": 20.13, 
			 "SMD_solvation_energy": 9.88 
		},
		"coords": [
			{
				"x": -0.5447912615,
				"y": -1.845576037,
				"z": -1.5518224731,
				"element": "C" 
			},
			{
				"x": -0.3112062687,
				"y": -0.5711682099,
				"z": -0.766140071,
				"element": "C" 
			},
			{
				"x": -1.1019338614,
				"y": -0.571254843,
				"z": 0.3373115631,
				"element": "O" 
			},
			{
				"x": -1.1488318404,
				"y": 0.6878296739,
				"z": 1.5076261345,
				"element": "Si" 
			},
			{
				"x": 0.521468209,
				"y": 0.876773817,
				"z": 2.3512751169,
				"element": "C" 
			},
			{
				"x": -2.4258154042,
				"y": 0.031385165,
				"z": 2.7250009873,
				"element": "C" 
			},
			{
				"x": -1.7480781949,
				"y": 2.2941110157,
				"z": 0.734229031,
				"element": "C" 
			},
			{
				"x": 0.4741733386,
				"y": 0.3924626598,
				"z": -1.0217051973,
				"element": "N" 
			},
			{
				"x": 1.5972860494,
				"y": 0.6827051181,
				"z": -2.3332375929,
				"element": "Si" 
			},
			{
				"x": 2.386355878,
				"y": 2.3611056319,
				"z": -1.9928390276,
				"element": "C" 
			},
			{
				"x": 2.9559927985,
				"y": -0.6368088944,
				"z": -2.3766715369,
				"element": "C" 
			},
			{
				"x": 0.7042417901,
				"y": 0.7532528729,
				"z": -4.0027457957,
				"element": "C" 
			},
			{
				"x": 0.0719895493,
				"y": -1.8919254837,
				"z": -2.449092664,
				"element": "H" 
			},
			{
				"x": -0.3280199239,
				"y": -2.7116183561,
				"z": -0.9184031935,
				"element": "H" 
			},
			{
				"x": -1.6001693197,
				"y": -1.913762187,
				"z": -1.8343988851,
				"element": "H" 
			},
			{
				"x": 0.4507677373,
				"y": 1.5813964183,
				"z": 3.1883412787,
				"element": "H" 
			},
			{
				"x": 1.2736000302,
				"y": 1.2462005224,
				"z": 1.6504775649,
				"element": "H" 
			},
			{
				"x": 0.8695618943,
				"y": -0.0807294705,
				"z": 2.753661602,
				"element": "H" 
			},
			{
				"x": -3.3943709806,
				"y": -0.1251574504,
				"z": 2.2387257362,
				"element": "H" 
			},
			{
				"x": -2.1101767992,
				"y": -0.9252945798,
				"z": 3.1542013602,
				"element": "H" 
			},
			{
				"x": -2.5775824619,
				"y": 0.7342100797,
				"z": 3.5521756608,
				"element": "H" 
			},
			{
				"x": -2.7003412747,
				"y": 2.1484046105,
				"z": 0.2128371035,
				"element": "H" 
			},
			{
				"x": -1.9068373282,
				"y": 3.0560420743,
				"z": 1.5065104511,
				"element": "H" 
			},
			{
				"x": -1.0202289591,
				"y": 2.6768771804,
				"z": 0.0151448393,
				"element": "H" 
			},
			{
				"x": 2.9112400757,
				"y": 2.3602950676,
				"z": -1.0314193639,
				"element": "H" 
			},
			{
				"x": 3.1106952586,
				"y": 2.6316592962,
				"z": -2.7695638007,
				"element": "H" 
			},
			{
				"x": 1.6278025183,
				"y": 3.1503371416,
				"z": -1.9532016624,
				"element": "H" 
			},
			{
				"x": 3.7115119415,
				"y": -0.3903921233,
				"z": -3.1318913437,
				"element": "H" 
			},
			{
				"x": 2.5651307503,
				"y": -1.6318563524,
				"z": -2.6145846295,
				"element": "H" 
			},
			{
				"x": 3.4660923369,
				"y": -0.704196109,
				"z": -1.4095765464,
				"element": "H" 
			},
			{
				"x": 0.2586684077,
				"y": -0.2079540821,
				"z": -4.280274075,
				"element": "H" 
			},
			{
				"x": -0.0992599554,
				"y": 1.4976495476,
				"z": -3.9850431576,
				"element": "H" 
			},
			{
				"x": 1.3992652701,
				"y": 1.0369962857,
				"z": -4.8017074134,
				"element": "H" 
			}
		],
		 "valence_orbital": [ 
			{
				"type": "occ",
				"energy": -0.29641,
				"method": "rhf"
			},
			{
				"type": "occ",
				"energy": -0.29099,
				"method": "rhf"
			},
			{
				"type": "occ",
				"energy": -0.2876,
				"method": "rhf"
			},
			{
				"type": "occ",
				"energy": -0.25527,
				"method": "rhf"
			},
			{
				"type": "occ",
				"energy": -0.23064,
				"method": "rhf"
			},
			{
				"type": "unocc",
				"energy": 0.00891,
				"method": "rhf"
			},
			{
				"type": "unocc",
				"energy": 0.06898,
				"method": "rhf"
			},
			{
				"type": "unocc",
				"energy": 0.07648,
				"method": "rhf"
			},
			{
				"type": "unocc",
				"energy": 0.08792,
				"method": "rhf"
			},
			{
				"type": "unocc",
				"energy": 0.10724,
				"method": "rhf"
			}
		],
		"cosmo_sigma_profile": { 
			"-0.025": 0.0,
			"-0.024": 0.0,
			"-0.023": 0.0,
			"-0.022": 0.0,
			"-0.021": 0.0,
			"-0.02": 0.0,
			"-0.019": 0.0,
			"-0.018": 0.0,
			"-0.017": 0.0,
			"-0.016": 0.0,
			"-0.015": 0.0,
			"-0.014": 0.0,
			"-0.013": 0.0,
			"-0.012": 0.0,
			"-0.011": 0.0,
			"-0.01": 0.0,
			"-0.009": 0.0,
			"-0.008": 0.0,
			"-0.007": 0.0,
			"-0.006": 0.237341182893,
			"-0.005": 2.76928428447,
			"-0.004": 13.3346616156,
			"-0.003": 35.4916674983,
			"-0.002": 46.9489382826,
			"-0.001": 44.7056912041,
			"0.0": 39.4120745862,
			"0.001": 43.5166331469,
			"0.002": 31.5128670445,
			"0.003": 15.4880281679,
			"0.004": 6.42824631085,
			"0.005": 4.71518164995,
			"0.006": 3.9514201791,
			"0.007": 4.05108289357,
			"0.008": 1.89766807504,
			"0.009": 1.62711859597,
			"0.01": 1.45623671161,
			"0.011": 0.704162941173,
			"0.012": 0.0661208911957,
			"0.013": 0.0,
			"0.014": 0.0,
			"0.015": 0.0,
			"0.016": 0.0,
			"0.017": 0.0,
			"0.018": 0.0,
			"0.019": 0.0,
			"0.02": 0.0,
			"0.021": 0.0,
			"0.022": 0.0,
			"0.023": 0.0,
			"0.024": 0.0,
			"0.025": 0.0
		}
	}
}
