{
	 "smiles": "CN1CC(=O)N(CC(=O)NC2=CC=CC=C2)C1=O", 
	 "Tm": 553.15, 
	 "num_atms": 31, 
	 "gaussian": { 
		 "optdone": 1, 
		 "sigma_profile": "yes", 
		 "theory": "DFT", 
		 "functional": "B3LYP", 
		 "basiset": "6-31G**", 
		 "properties": { 
			 "R2extent": 4548.3408, 
			 "electric_dipole_moment_norm": 5.54256897566, 
			 "electric_quadrupole_moment_norm": 20.1351985525, 
			 "total_energy": -855.083088094, 
			 "HOMO_LUMO_gap": 0.21183, 
			 "cosmo_polarized_energy": -20.81, 
			 "cosmo_cavitation_energy": 34.93, 
			 "cosmo_dispersion_energy": -23.18, 
			 "cosmo_repulsion_energy": 1.8, 
			 "cosmo_total_nonelectrostatic_energy": 13.54, 
			 "SMD_solvation_energy": 7.49 
		},
		"coords": [
			{
				"x": -2.045324959,
				"y": 2.1379536844,
				"z": 0.9510089235,
				"element": "C" 
			},
			{
				"x": -0.770179423,
				"y": 1.4803240666,
				"z": 1.1330801538,
				"element": "N" 
			},
			{
				"x": 0.3614577853,
				"y": 1.6245273946,
				"z": 0.2404023306,
				"element": "C" 
			},
			{
				"x": 1.3908314757,
				"y": 0.6595765311,
				"z": 0.8275378543,
				"element": "C" 
			},
			{
				"x": 2.5308483411,
				"y": 0.4743106618,
				"z": 0.4508470864,
				"element": "O" 
			},
			{
				"x": 0.7561769315,
				"y": 0.0271494008,
				"z": 1.8779303972,
				"element": "N" 
			},
			{
				"x": 1.3880029023,
				"y": -0.9499621157,
				"z": 2.7427443586,
				"element": "C" 
			},
			{
				"x": 0.6497365808,
				"y": -2.2803051639,
				"z": 2.9497809031,
				"element": "C" 
			},
			{
				"x": 0.6940151657,
				"y": -2.8095088084,
				"z": 4.0490778816,
				"element": "O" 
			},
			{
				"x": -0.0460520449,
				"y": -2.8723711839,
				"z": 1.9184613257,
				"element": "N" 
			},
			{
				"x": -0.1307966778,
				"y": -2.581835143,
				"z": 0.5333048226,
				"element": "C" 
			},
			{
				"x": 1.0120806191,
				"y": -2.3566119847,
				"z": -0.2444601327,
				"element": "C" 
			},
			{
				"x": 0.8865750606,
				"y": -2.0993923265,
				"z": -1.6101766124,
				"element": "C" 
			},
			{
				"x": -0.3693500104,
				"y": -2.1059817866,
				"z": -2.2204328771,
				"element": "C" 
			},
			{
				"x": -1.5068769311,
				"y": -2.3619264843,
				"z": -1.4505364384,
				"element": "C" 
			},
			{
				"x": -1.3922214419,
				"y": -2.5893145177,
				"z": -0.0800774718,
				"element": "C" 
			},
			{
				"x": -0.5573795643,
				"y": 0.5173954232,
				"z": 2.0856010339,
				"element": "C" 
			},
			{
				"x": -1.3165101338,
				"y": 0.1311241339,
				"z": 2.953611774,
				"element": "O" 
			},
			{
				"x": -2.5011936813,
				"y": 1.8652140105,
				"z": -0.0093191168,
				"element": "H" 
			},
			{
				"x": -2.7022034915,
				"y": 1.8178214895,
				"z": 1.760961866,
				"element": "H" 
			},
			{
				"x": -1.9336251578,
				"y": 3.2276858728,
				"z": 0.9893813533,
				"element": "H" 
			},
			{
				"x": 0.7634046493,
				"y": 2.645152712,
				"z": 0.2206137164,
				"element": "H" 
			},
			{
				"x": 0.1278029653,
				"y": 1.3263681392,
				"z": -0.7908301517,
				"element": "H" 
			},
			{
				"x": 2.3845229602,
				"y": -1.1276390484,
				"z": 2.3272780102,
				"element": "H" 
			},
			{
				"x": 1.507166021,
				"y": -0.5486169983,
				"z": 3.7516401416,
				"element": "H" 
			},
			{
				"x": -0.6013075996,
				"y": -3.6495950039,
				"z": 2.2557062573,
				"element": "H" 
			},
			{
				"x": 1.9945724722,
				"y": -2.3808725836,
				"z": 0.2134018107,
				"element": "H" 
			},
			{
				"x": 1.7799447338,
				"y": -1.9118643507,
				"z": -2.1981599894,
				"element": "H" 
			},
			{
				"x": -0.4601976053,
				"y": -1.9227891767,
				"z": -3.2868461525,
				"element": "H" 
			},
			{
				"x": -2.4888142722,
				"y": -2.374944119,
				"z": -1.914820109,
				"element": "H" 
			},
			{
				"x": -2.27610567,
				"y": -2.761872725,
				"z": 0.5272870509,
				"element": "H" 
			}
		],
		 "valence_orbital": [ 
			{
				"type": "occ",
				"energy": -0.26921,
				"method": "rhf"
			},
			{
				"type": "occ",
				"energy": -0.26327,
				"method": "rhf"
			},
			{
				"type": "occ",
				"energy": -0.25928,
				"method": "rhf"
			},
			{
				"type": "occ",
				"energy": -0.2504,
				"method": "rhf"
			},
			{
				"type": "occ",
				"energy": -0.23339,
				"method": "rhf"
			},
			{
				"type": "unocc",
				"energy": -0.02156,
				"method": "rhf"
			},
			{
				"type": "unocc",
				"energy": -0.01742,
				"method": "rhf"
			},
			{
				"type": "unocc",
				"energy": -0.01024,
				"method": "rhf"
			},
			{
				"type": "unocc",
				"energy": 0.02746,
				"method": "rhf"
			},
			{
				"type": "unocc",
				"energy": 0.05437,
				"method": "rhf"
			}
		],
		"cosmo_sigma_profile": { 
			"-0.025": 0.0,
			"-0.024": 0.0,
			"-0.023": 0.0,
			"-0.022": 0.0,
			"-0.021": 0.0,
			"-0.02": 0.0,
			"-0.019": 0.0,
			"-0.018": 0.0,
			"-0.017": 0.0,
			"-0.016": 0.0,
			"-0.015": 0.304888055705,
			"-0.014": 0.895444049159,
			"-0.013": 0.927003224142,
			"-0.012": 1.08278098424,
			"-0.011": 1.04128057509,
			"-0.01": 1.2576066626,
			"-0.009": 1.89307313478,
			"-0.008": 6.05138586869,
			"-0.007": 12.4137528796,
			"-0.006": 20.11179136,
			"-0.005": 26.0805287037,
			"-0.004": 25.341034288,
			"-0.003": 21.871329226,
			"-0.002": 19.556053258,
			"-0.001": 13.962970152,
			"0.0": 14.0720266106,
			"0.001": 14.9000069294,
			"0.002": 13.7797585661,
			"0.003": 11.3047793917,
			"0.004": 9.79095819987,
			"0.005": 9.22820477179,
			"0.006": 4.15979512369,
			"0.007": 4.37282017988,
			"0.008": 5.58298350172,
			"0.009": 3.97935582287,
			"0.01": 4.34685291487,
			"0.011": 7.51858721043,
			"0.012": 11.4405128107,
			"0.013": 8.49907090402,
			"0.014": 1.36605646668,
			"0.015": 0.0,
			"0.016": 0.0,
			"0.017": 0.0,
			"0.018": 0.0,
			"0.019": 0.0,
			"0.02": 0.0,
			"0.021": 0.0,
			"0.022": 0.0,
			"0.023": 0.0,
			"0.024": 0.0,
			"0.025": 0.0
		}
	}
}
