{
	 "smiles": "CC(=O)NC1=CC2=C(C=C1)C(=O)CC2", 
	 "Tm": 445.15, 
	 "num_atms": 25, 
	 "gaussian": { 
		 "optdone": 1, 
		 "sigma_profile": "yes", 
		 "theory": "DFT", 
		 "functional": "B3LYP", 
		 "basiset": "6-31G**", 
		 "properties": { 
			 "R2extent": 4548.5903, 
			 "electric_dipole_moment_norm": 1.43962446839, 
			 "electric_quadrupole_moment_norm": 30.3223704006, 
			 "total_energy": -631.024984408, 
			 "HOMO_LUMO_gap": 0.17494, 
			 "cosmo_polarized_energy": -16.33, 
			 "cosmo_cavitation_energy": 28.79, 
			 "cosmo_dispersion_energy": -21.26, 
			 "cosmo_repulsion_energy": 1.67, 
			 "cosmo_total_nonelectrostatic_energy": 9.19, 
			 "SMD_solvation_energy": 5.91 
		},
		"coords": [
			{
				"x": -0.5625133172,
				"y": 2.4795716776,
				"z": 3.4185286685,
				"element": "C" 
			},
			{
				"x": -0.9505949487,
				"y": 2.5716630012,
				"z": 1.9594396252,
				"element": "C" 
			},
			{
				"x": -1.3320637114,
				"y": 3.619594903,
				"z": 1.4601013158,
				"element": "O" 
			},
			{
				"x": -0.8813777718,
				"y": 1.4481498722,
				"z": 1.1384060986,
				"element": "N" 
			},
			{
				"x": -0.5161856571,
				"y": 0.1028242304,
				"z": 1.2816153916,
				"element": "C" 
			},
			{
				"x": -0.6135662949,
				"y": -0.6880439548,
				"z": 0.1166303678,
				"element": "C" 
			},
			{
				"x": -0.2731952828,
				"y": -2.031988084,
				"z": 0.1615199794,
				"element": "C" 
			},
			{
				"x": 0.1665027565,
				"y": -2.6047940944,
				"z": 1.3597589645,
				"element": "C" 
			},
			{
				"x": 0.2683686437,
				"y": -1.8366195852,
				"z": 2.5206393262,
				"element": "C" 
			},
			{
				"x": -0.0701879969,
				"y": -0.4895903321,
				"z": 2.4861983907,
				"element": "C" 
			},
			{
				"x": 0.4701057711,
				"y": -4.0375075354,
				"z": 1.1705678244,
				"element": "C" 
			},
			{
				"x": 0.8720959311,
				"y": -4.8211935992,
				"z": 2.0114746348,
				"element": "O" 
			},
			{
				"x": 0.1822444936,
				"y": -4.3694041869,
				"z": -0.3060183826,
				"element": "C" 
			},
			{
				"x": -0.3036227358,
				"y": -3.0533881239,
				"z": -0.9613382742,
				"element": "C" 
			},
			{
				"x": -1.1928289093,
				"y": 1.7649591532,
				"z": 3.9565556793,
				"element": "H" 
			},
			{
				"x": -0.6964681071,
				"y": 3.471148821,
				"z": 3.8497297952,
				"element": "H" 
			},
			{
				"x": 0.4813738679,
				"y": 2.1734908826,
				"z": 3.5370399823,
				"element": "H" 
			},
			{
				"x": -1.178367815,
				"y": 1.7065149493,
				"z": 0.2043203969,
				"element": "H" 
			},
			{
				"x": -0.9566232716,
				"y": -0.2323172704,
				"z": -0.8099124092,
				"element": "H" 
			},
			{
				"x": 0.6114327527,
				"y": -2.296983053,
				"z": 3.4425414734,
				"element": "H" 
			},
			{
				"x": 0.0134181657,
				"y": 0.0919458179,
				"z": 3.3913171083,
				"element": "H" 
			},
			{
				"x": -0.5634097323,
				"y": -5.1694765097,
				"z": -0.3525351079,
				"element": "H" 
			},
			{
				"x": 1.0934660685,
				"y": -4.7640227723,
				"z": -0.7666952323,
				"element": "H" 
			},
			{
				"x": -1.3137344471,
				"y": -3.1483769434,
				"z": -1.3758433696,
				"element": "H" 
			},
			{
				"x": 0.3432315483,
				"y": -2.7427572636,
				"z": -1.7897422471,
				"element": "H" 
			}
		],
		 "valence_orbital": [ 
			{
				"type": "occ",
				"energy": -0.30977,
				"method": "rhf"
			},
			{
				"type": "occ",
				"energy": -0.26761,
				"method": "rhf"
			},
			{
				"type": "occ",
				"energy": -0.26574,
				"method": "rhf"
			},
			{
				"type": "occ",
				"energy": -0.24049,
				"method": "rhf"
			},
			{
				"type": "occ",
				"energy": -0.23182,
				"method": "rhf"
			},
			{
				"type": "unocc",
				"energy": -0.05688,
				"method": "rhf"
			},
			{
				"type": "unocc",
				"energy": -0.02167,
				"method": "rhf"
			},
			{
				"type": "unocc",
				"energy": 0.00903,
				"method": "rhf"
			},
			{
				"type": "unocc",
				"energy": 0.05493,
				"method": "rhf"
			},
			{
				"type": "unocc",
				"energy": 0.07503,
				"method": "rhf"
			}
		],
		"cosmo_sigma_profile": { 
			"-0.025": 0.0,
			"-0.024": 0.0,
			"-0.023": 0.0,
			"-0.022": 0.0,
			"-0.021": 0.0,
			"-0.02": 0.0,
			"-0.019": 0.0,
			"-0.018": 0.0,
			"-0.017": 0.0,
			"-0.016": 0.0,
			"-0.015": 0.237539339085,
			"-0.014": 0.854831443569,
			"-0.013": 1.63061262437,
			"-0.012": 0.742025840176,
			"-0.011": 0.770748869948,
			"-0.01": 1.23793810079,
			"-0.009": 1.72446228928,
			"-0.008": 1.3775543667,
			"-0.007": 8.3642804934,
			"-0.006": 12.7926756472,
			"-0.005": 20.1449040274,
			"-0.004": 22.7125860913,
			"-0.003": 20.4269487326,
			"-0.002": 19.8288256827,
			"-0.001": 17.1048060683,
			"0.0": 12.4747134366,
			"0.001": 11.5507272291,
			"0.002": 12.0467159551,
			"0.003": 14.4108843635,
			"0.004": 7.56472079082,
			"0.005": 2.2631417433,
			"0.006": 2.93763742148,
			"0.007": 3.41011351965,
			"0.008": 2.0353135585,
			"0.009": 2.91353329619,
			"0.01": 2.98260619646,
			"0.011": 4.87335864684,
			"0.012": 7.94704734099,
			"0.013": 9.07569261465,
			"0.014": 2.44208261594,
			"0.015": 0.0169314910008,
			"0.016": 0.0,
			"0.017": 0.0,
			"0.018": 0.0,
			"0.019": 0.0,
			"0.02": 0.0,
			"0.021": 0.0,
			"0.022": 0.0,
			"0.023": 0.0,
			"0.024": 0.0,
			"0.025": 0.0
		}
	}
}
