{
	 "smiles": "C[C@H]1CC11[C@@H](OC(C)=O)C(=O)C2=C([C@H](OC(C)=O)[C@@H](O)[C@H]3C(C)(C)CCC[C@]23C)C1=O", 
	 "Tm": 445.15, 
	 "num_atms": 63, 
	 "gaussian": { 
		 "optdone": 1, 
		 "sigma_profile": "yes", 
		 "theory": "DFT", 
		 "functional": "B3LYP", 
		 "basiset": "6-31G**", 
		 "properties": { 
			 "R2extent": 13144.0186, 
			 "electric_dipole_moment_norm": 2.40491281547, 
			 "electric_quadrupole_moment_norm": 18.2520772015, 
			 "total_energy": -1460.39993939, 
			 "HOMO_LUMO_gap": 0.159, 
			 "cosmo_polarized_energy": -19.25, 
			 "cosmo_cavitation_energy": 58.74, 
			 "cosmo_dispersion_energy": -37.47, 
			 "cosmo_repulsion_energy": 2.79, 
			 "cosmo_total_nonelectrostatic_energy": 24.06, 
			 "SMD_solvation_energy": 12.34 
		},
		"coords": [
			{
				"x": 2.4868563025,
				"y": 1.5933354296,
				"z": -2.898470794,
				"element": "C" 
			},
			{
				"x": 2.6188670397,
				"y": 1.3772987878,
				"z": -1.4056310732,
				"element": "C" 
			},
			{
				"x": 2.6390530584,
				"y": 2.4947001225,
				"z": -0.4047657008,
				"element": "C" 
			},
			{
				"x": 1.4685187157,
				"y": 1.5403089028,
				"z": -0.3906864336,
				"element": "C" 
			},
			{
				"x": 0.0544522058,
				"y": 1.9916823185,
				"z": -0.72171969,
				"element": "C" 
			},
			{
				"x": 0.0375101987,
				"y": 2.9601996448,
				"z": -1.7636197625,
				"element": "O" 
			},
			{
				"x": -1.0995059078,
				"y": 3.7138112001,
				"z": -1.8519162003,
				"element": "C" 
			},
			{
				"x": -1.0567810802,
				"y": 4.5947729719,
				"z": -3.0728862091,
				"element": "C" 
			},
			{
				"x": -1.9970871396,
				"y": 3.6577003529,
				"z": -1.0446003772,
				"element": "O" 
			},
			{
				"x": -0.7901160317,
				"y": 0.7706444003,
				"z": -1.0974203484,
				"element": "C" 
			},
			{
				"x": -1.3833964009,
				"y": 0.7278773435,
				"z": -2.1579069461,
				"element": "O" 
			},
			{
				"x": -0.8280599784,
				"y": -0.3070430541,
				"z": -0.0407300012,
				"element": "C" 
			},
			{
				"x": 0.2327789572,
				"y": -0.3751019082,
				"z": 0.8073869247,
				"element": "C" 
			},
			{
				"x": 0.3006434272,
				"y": -1.3388349437,
				"z": 1.962467514,
				"element": "C" 
			},
			{
				"x": 1.2341017631,
				"y": -2.3853569646,
				"z": 1.5813648064,
				"element": "O" 
			},
			{
				"x": 1.9646000939,
				"y": -2.9235470775,
				"z": 2.59227808,
				"element": "C" 
			},
			{
				"x": 3.0091161883,
				"y": -3.8678433112,
				"z": 2.0518930335,
				"element": "C" 
			},
			{
				"x": 1.7921838673,
				"y": -2.6568809017,
				"z": 3.7615032501,
				"element": "O" 
			},
			{
				"x": -1.0517550341,
				"y": -1.9607390729,
				"z": 2.3327681508,
				"element": "C" 
			},
			{
				"x": -1.8215449238,
				"y": -1.0369388172,
				"z": 3.1020522325,
				"element": "O" 
			},
			{
				"x": -1.7864374614,
				"y": -2.3797346752,
				"z": 1.0549912758,
				"element": "C" 
			},
			{
				"x": -2.9251704463,
				"y": -3.4437898359,
				"z": 1.2486119927,
				"element": "C" 
			},
			{
				"x": -2.3495532169,
				"y": -4.6711210423,
				"z": 1.9940670038,
				"element": "C" 
			},
			{
				"x": -4.1502609827,
				"y": -2.959393132,
				"z": 2.0562980361,
				"element": "C" 
			},
			{
				"x": -3.3517397021,
				"y": -3.928275423,
				"z": -0.1609298303,
				"element": "C" 
			},
			{
				"x": -3.6631331852,
				"y": -2.7961018846,
				"z": -1.1421189875,
				"element": "C" 
			},
			{
				"x": -2.5006764306,
				"y": -1.8024493297,
				"z": -1.2789408688,
				"element": "C" 
			},
			{
				"x": -2.0914260068,
				"y": -1.1761430023,
				"z": 0.0910721374,
				"element": "C" 
			},
			{
				"x": -3.1983033311,
				"y": -0.1834202696,
				"z": 0.5575396671,
				"element": "C" 
			},
			{
				"x": 1.4588785122,
				"y": 0.4780325788,
				"z": 0.6649245627,
				"element": "C" 
			},
			{
				"x": 2.4347578952,
				"y": 0.2708525849,
				"z": 1.3766098427,
				"element": "O" 
			},
			{
				"x": 2.0028006392,
				"y": 0.7379434532,
				"z": -3.3819351078,
				"element": "H" 
			},
			{
				"x": 3.485146394,
				"y": 1.7011400422,
				"z": -3.3379063431,
				"element": "H" 
			},
			{
				"x": 1.9074870417,
				"y": 2.4851714795,
				"z": -3.1349504145,
				"element": "H" 
			},
			{
				"x": 3.2599151955,
				"y": 0.5388245698,
				"z": -1.1387727925,
				"element": "H" 
			},
			{
				"x": 2.4258290099,
				"y": 3.4934265548,
				"z": -0.7739490698,
				"element": "H" 
			},
			{
				"x": 3.324175123,
				"y": 2.4307762383,
				"z": 0.4344063675,
				"element": "H" 
			},
			{
				"x": -0.4006203947,
				"y": 2.4342205817,
				"z": 0.1733751768,
				"element": "H" 
			},
			{
				"x": -1.879438315,
				"y": 5.3079781005,
				"z": -3.0341373785,
				"element": "H" 
			},
			{
				"x": -1.1565701616,
				"y": 3.9694036877,
				"z": -3.9657003303,
				"element": "H" 
			},
			{
				"x": -0.0999517856,
				"y": 5.1190156482,
				"z": -3.1402013429,
				"element": "H" 
			},
			{
				"x": 0.7208913247,
				"y": -0.8308383067,
				"z": 2.8344142906,
				"element": "H" 
			},
			{
				"x": 3.4261988129,
				"y": -4.4565535855,
				"z": 2.8684945773,
				"element": "H" 
			},
			{
				"x": 2.5837470099,
				"y": -4.5205164353,
				"z": 1.2856816297,
				"element": "H" 
			},
			{
				"x": 3.8062966392,
				"y": -3.2822533914,
				"z": 1.5824206683,
				"element": "H" 
			},
			{
				"x": -0.8299382214,
				"y": -2.8492202427,
				"z": 2.9330079298,
				"element": "H" 
			},
			{
				"x": -1.3869505888,
				"y": -0.9370878403,
				"z": 3.9597099667,
				"element": "H" 
			},
			{
				"x": -1.0092209796,
				"y": -2.943172553,
				"z": 0.5157296871,
				"element": "H" 
			},
			{
				"x": -3.0531790276,
				"y": -5.5077718437,
				"z": 1.922772434,
				"element": "H" 
			},
			{
				"x": -2.1911288805,
				"y": -4.4771512108,
				"z": 3.059510851,
				"element": "H" 
			},
			{
				"x": -1.3976017788,
				"y": -5.0012846587,
				"z": 1.5618921326,
				"element": "H" 
			},
			{
				"x": -3.8423492579,
				"y": -2.4525645135,
				"z": 2.9735727866,
				"element": "H" 
			},
			{
				"x": -4.7877454982,
				"y": -2.2725761438,
				"z": 1.4973826867,
				"element": "H" 
			},
			{
				"x": -4.7702689009,
				"y": -3.8215758125,
				"z": 2.3283498182,
				"element": "H" 
			},
			{
				"x": -2.5355783858,
				"y": -4.5358987325,
				"z": -0.5784322796,
				"element": "H" 
			},
			{
				"x": -4.2154046621,
				"y": -4.5988485817,
				"z": -0.0640605471,
				"element": "H" 
			},
			{
				"x": -3.8829602234,
				"y": -3.2171649982,
				"z": -2.1306938355,
				"element": "H" 
			},
			{
				"x": -4.5744234491,
				"y": -2.2685692598,
				"z": -0.8364747729,
				"element": "H" 
			},
			{
				"x": -1.631282614,
				"y": -2.3250043723,
				"z": -1.7015419427,
				"element": "H" 
			},
			{
				"x": -2.762536583,
				"y": -1.0162758773,
				"z": -1.9850184299,
				"element": "H" 
			},
			{
				"x": -3.2427003465,
				"y": 0.6705053751,
				"z": -0.1253661393,
				"element": "H" 
			},
			{
				"x": -3.0017526963,
				"y": 0.1778628981,
				"z": 1.5661044144,
				"element": "H" 
			},
			{
				"x": -4.1835554047,
				"y": -0.648042262,
				"z": 0.5483300218,
				"element": "H" 
			}
		],
		 "valence_orbital": [ 
			{
				"type": "occ",
				"energy": -0.2821,
				"method": "rhf"
			},
			{
				"type": "occ",
				"energy": -0.2736,
				"method": "rhf"
			},
			{
				"type": "occ",
				"energy": -0.26821,
				"method": "rhf"
			},
			{
				"type": "occ",
				"energy": -0.25709,
				"method": "rhf"
			},
			{
				"type": "occ",
				"energy": -0.24769,
				"method": "rhf"
			},
			{
				"type": "unocc",
				"energy": -0.08869,
				"method": "rhf"
			},
			{
				"type": "unocc",
				"energy": -0.01901,
				"method": "rhf"
			},
			{
				"type": "unocc",
				"energy": 0.00415,
				"method": "rhf"
			},
			{
				"type": "unocc",
				"energy": 0.00964,
				"method": "rhf"
			},
			{
				"type": "unocc",
				"energy": 0.04761,
				"method": "rhf"
			}
		],
		"cosmo_sigma_profile": { 
			"-0.025": 0.0,
			"-0.024": 0.0,
			"-0.023": 0.0,
			"-0.022": 0.0,
			"-0.021": 0.0,
			"-0.02": 0.0,
			"-0.019": 0.0,
			"-0.018": 0.0,
			"-0.017": 0.0112660761642,
			"-0.016": 0.546671494811,
			"-0.015": 0.909441642172,
			"-0.014": 0.987534710291,
			"-0.013": 0.709964975894,
			"-0.012": 1.0369253387,
			"-0.011": 1.00401628224,
			"-0.01": 0.759233600199,
			"-0.009": 1.96330903602,
			"-0.008": 3.16515365216,
			"-0.007": 5.5959748099,
			"-0.006": 13.8041494157,
			"-0.005": 20.5485369492,
			"-0.004": 29.2175412728,
			"-0.003": 46.724878097,
			"-0.002": 60.2522351792,
			"-0.001": 51.4054266939,
			"0.0": 52.1515085026,
			"0.001": 45.8109923353,
			"0.002": 23.6759235493,
			"0.003": 12.694441646,
			"0.004": 10.1772180888,
			"0.005": 11.5743954498,
			"0.006": 12.1558455737,
			"0.007": 9.34891452315,
			"0.008": 9.16012047626,
			"0.009": 7.09787103414,
			"0.01": 9.20701837093,
			"0.011": 9.08470671507,
			"0.012": 5.68283850236,
			"0.013": 0.962066541305,
			"0.014": 0.0,
			"0.015": 0.0,
			"0.016": 0.0,
			"0.017": 0.0,
			"0.018": 0.0,
			"0.019": 0.0,
			"0.02": 0.0,
			"0.021": 0.0,
			"0.022": 0.0,
			"0.023": 0.0,
			"0.024": 0.0,
			"0.025": 0.0
		}
	}
}
