{
	 "smiles": "O=C(NC1=C(NC(=O)C2=CC=CC=C2)C=CC=C1)C1=CC=CC=C1", 
	 "Tm": 575.15, 
	 "num_atms": 40, 
	 "gaussian": { 
		 "optdone": 1, 
		 "sigma_profile": "yes", 
		 "theory": "DFT", 
		 "functional": "B3LYP", 
		 "basiset": "6-31G**", 
		 "properties": { 
			 "R2extent": 8099.8179, 
			 "electric_dipole_moment_norm": 5.08495901753, 
			 "electric_quadrupole_moment_norm": 19.6289608683, 
			 "total_energy": -1031.74710165, 
			 "HOMO_LUMO_gap": 0.18483, 
			 "cosmo_polarized_energy": -19.16, 
			 "cosmo_cavitation_energy": 44.35, 
			 "cosmo_dispersion_energy": -29.35, 
			 "cosmo_repulsion_energy": 2.26, 
			 "cosmo_total_nonelectrostatic_energy": 17.26, 
			 "SMD_solvation_energy": 8.54 
		},
		"coords": [
			{
				"x": -0.6559210339,
				"y": -1.9005155698,
				"z": -1.0609262511,
				"element": "O" 
			},
			{
				"x": 0.2641046138,
				"y": -1.1162873139,
				"z": -0.8621639814,
				"element": "C" 
			},
			{
				"x": 0.0431364033,
				"y": 0.0203271294,
				"z": -0.0937820249,
				"element": "N" 
			},
			{
				"x": 0.7091765576,
				"y": 1.2694411022,
				"z": -0.1520178965,
				"element": "C" 
			},
			{
				"x": 0.941403217,
				"y": 2.0101270444,
				"z": 1.028931772,
				"element": "C" 
			},
			{
				"x": 0.593458067,
				"y": 1.5236541446,
				"z": 2.3200404758,
				"element": "N" 
			},
			{
				"x": -0.5839857475,
				"y": 0.9921233524,
				"z": 2.8173907959,
				"element": "C" 
			},
			{
				"x": -0.565464887,
				"y": 0.3448998204,
				"z": 3.8575699296,
				"element": "O" 
			},
			{
				"x": -1.8737234948,
				"y": 1.2687152408,
				"z": 2.0991306262,
				"element": "C" 
			},
			{
				"x": -2.8909042258,
				"y": 0.308519084,
				"z": 2.2225375745,
				"element": "C" 
			},
			{
				"x": -4.1332658881,
				"y": 0.5191915795,
				"z": 1.6292128234,
				"element": "C" 
			},
			{
				"x": -4.3824828671,
				"y": 1.704009997,
				"z": 0.9314369695,
				"element": "C" 
			},
			{
				"x": -3.3854323661,
				"y": 2.6758776656,
				"z": 0.8287053987,
				"element": "C" 
			},
			{
				"x": -2.1328686791,
				"y": 2.4605575294,
				"z": 1.4045239824,
				"element": "C" 
			},
			{
				"x": 1.620628702,
				"y": 3.2335895172,
				"z": 0.9494644732,
				"element": "C" 
			},
			{
				"x": 2.0746359953,
				"y": 3.7280234296,
				"z": -0.2705577541,
				"element": "C" 
			},
			{
				"x": 1.8233785199,
				"y": 3.0088937725,
				"z": -1.4404207363,
				"element": "C" 
			},
			{
				"x": 1.1319128638,
				"y": 1.8022309473,
				"z": -1.3789487023,
				"element": "C" 
			},
			{
				"x": 1.6474599773,
				"y": -1.4000561193,
				"z": -1.3691113013,
				"element": "C" 
			},
			{
				"x": 2.8099200386,
				"y": -1.0175086804,
				"z": -0.6849485724,
				"element": "C" 
			},
			{
				"x": 4.0630239419,
				"y": -1.3900601359,
				"z": -1.1703567061,
				"element": "C" 
			},
			{
				"x": 4.1663957597,
				"y": -2.1365388361,
				"z": -2.3461303404,
				"element": "C" 
			},
			{
				"x": 3.0108239509,
				"y": -2.5284081987,
				"z": -3.0269266233,
				"element": "C" 
			},
			{
				"x": 1.7575250194,
				"y": -2.1735217944,
				"z": -2.5332805251,
				"element": "C" 
			},
			{
				"x": -0.8963437174,
				"y": 0.0231147072,
				"z": 0.2907650775,
				"element": "H" 
			},
			{
				"x": 1.3607919225,
				"y": 1.3717736174,
				"z": 2.9646149359,
				"element": "H" 
			},
			{
				"x": -2.6863904484,
				"y": -0.591536246,
				"z": 2.7924075122,
				"element": "H" 
			},
			{
				"x": -4.9085827396,
				"y": -0.2359448272,
				"z": 1.7164260249,
				"element": "H" 
			},
			{
				"x": -5.353187239,
				"y": 1.8715197855,
				"z": 0.4737456789,
				"element": "H" 
			},
			{
				"x": -3.5824470864,
				"y": 3.6049264645,
				"z": 0.3019575208,
				"element": "H" 
			},
			{
				"x": -1.3682667174,
				"y": 3.2254476915,
				"z": 1.3284894104,
				"element": "H" 
			},
			{
				"x": 1.7897810737,
				"y": 3.7881816541,
				"z": 1.8680036791,
				"element": "H" 
			},
			{
				"x": 2.6064765076,
				"y": 4.6736564858,
				"z": -0.3078472269,
				"element": "H" 
			},
			{
				"x": 2.1522957088,
				"y": 3.3911067891,
				"z": -2.4018553008,
				"element": "H" 
			},
			{
				"x": 0.9236938951,
				"y": 1.2459985258,
				"z": -2.2864961594,
				"element": "H" 
			},
			{
				"x": 2.7351252858,
				"y": -0.4473795544,
				"z": 0.2345183055,
				"element": "H" 
			},
			{
				"x": 4.9587185607,
				"y": -1.100399558,
				"z": -0.6286310301,
				"element": "H" 
			},
			{
				"x": 5.1441458079,
				"y": -2.4194533461,
				"z": -2.7257410736,
				"element": "H" 
			},
			{
				"x": 3.087373214,
				"y": -3.1181613543,
				"z": -3.9357680594,
				"element": "H" 
			},
			{
				"x": 0.8476815339,
				"y": -2.4936355428,
				"z": -3.029962701,
				"element": "H" 
			}
		],
		 "valence_orbital": [ 
			{
				"type": "occ",
				"energy": -0.25914,
				"method": "rhf"
			},
			{
				"type": "occ",
				"energy": -0.24995,
				"method": "rhf"
			},
			{
				"type": "occ",
				"energy": -0.24854,
				"method": "rhf"
			},
			{
				"type": "occ",
				"energy": -0.24633,
				"method": "rhf"
			},
			{
				"type": "occ",
				"energy": -0.23177,
				"method": "rhf"
			},
			{
				"type": "unocc",
				"energy": -0.04694,
				"method": "rhf"
			},
			{
				"type": "unocc",
				"energy": -0.03752,
				"method": "rhf"
			},
			{
				"type": "unocc",
				"energy": -0.0227,
				"method": "rhf"
			},
			{
				"type": "unocc",
				"energy": -0.01599,
				"method": "rhf"
			},
			{
				"type": "unocc",
				"energy": -0.0085,
				"method": "rhf"
			}
		],
		"cosmo_sigma_profile": { 
			"-0.025": 0.0,
			"-0.024": 0.0,
			"-0.023": 0.0,
			"-0.022": 0.0,
			"-0.021": 0.0,
			"-0.02": 0.0,
			"-0.019": 0.0,
			"-0.018": 0.0,
			"-0.017": 0.0,
			"-0.016": 0.0,
			"-0.015": 0.115355527265,
			"-0.014": 0.769631705609,
			"-0.013": 0.872022125528,
			"-0.012": 1.45721444291,
			"-0.011": 0.422890265839,
			"-0.01": 0.920020751741,
			"-0.009": 1.32830186706,
			"-0.008": 0.704051092821,
			"-0.007": 6.5191396263,
			"-0.006": 27.0350513331,
			"-0.005": 32.2630762927,
			"-0.004": 34.0240841802,
			"-0.003": 24.6475277545,
			"-0.002": 25.0462397692,
			"-0.001": 23.8702961212,
			"0.0": 21.2515825626,
			"0.001": 25.9588627529,
			"0.002": 25.0156914055,
			"0.003": 27.6519459869,
			"0.004": 29.6412742498,
			"0.005": 8.85170102293,
			"0.006": 2.68106000047,
			"0.007": 3.25152803956,
			"0.008": 2.78120445321,
			"0.009": 2.62789294729,
			"0.01": 3.40245818551,
			"0.011": 3.51951772918,
			"0.012": 5.8181075817,
			"0.013": 10.3524832994,
			"0.014": 2.84269431134,
			"0.015": 0.0,
			"0.016": 0.0,
			"0.017": 0.0,
			"0.018": 0.0,
			"0.019": 0.0,
			"0.02": 0.0,
			"0.021": 0.0,
			"0.022": 0.0,
			"0.023": 0.0,
			"0.024": 0.0,
			"0.025": 0.0
		}
	}
}
