{
	 "smiles": "BrC1=NC(Br)=C(Br)N1", 
	 "Tm": 483.15, 
	 "num_atms": 9, 
	 "gaussian": { 
		 "optdone": 1, 
		 "sigma_profile": "yes", 
		 "theory": "DFT", 
		 "functional": "B3LYP", 
		 "basiset": "6-31G**", 
		 "properties": { 
			 "R2extent": 5999.3834, 
			 "electric_dipole_moment_norm": 3.59706589459, 
			 "electric_quadrupole_moment_norm": 7.6215864569, 
			 "total_energy": -7938.60851585, 
			 "HOMO_LUMO_gap": 0.2021, 
			 "cosmo_polarized_energy": -10.33, 
			 "cosmo_cavitation_energy": 21.21, 
			 "cosmo_dispersion_energy": -17.18, 
			 "cosmo_repulsion_energy": 1.45, 
			 "cosmo_total_nonelectrostatic_energy": 5.48, 
			 "SMD_solvation_energy": -1.62 
		},
		"coords": [
			{
				"x": 0.5168673059,
				"y": 1.7860730971,
				"z": -0.824079208,
				"element": "Br" 
			},
			{
				"x": -0.575676782,
				"y": 0.9574896035,
				"z": 0.4574826602,
				"element": "C" 
			},
			{
				"x": -0.1788080901,
				"y": 0.1453703176,
				"z": 1.4019748502,
				"element": "N" 
			},
			{
				"x": -1.3208269227,
				"y": -0.1955993535,
				"z": 2.0759403904,
				"element": "C" 
			},
			{
				"x": -1.3012679338,
				"y": -1.3600107391,
				"z": 3.5463981592,
				"element": "Br" 
			},
			{
				"x": -2.4179155532,
				"y": 0.4222933892,
				"z": 1.526138827,
				"element": "C" 
			},
			{
				"x": -4.2335732854,
				"y": 0.3903764606,
				"z": 1.9518809718,
				"element": "Br" 
			},
			{
				"x": -1.9224489506,
				"y": 1.1703167617,
				"z": 0.4734312184,
				"element": "N" 
			},
			{
				"x": -2.4567497881,
				"y": 1.7542904628,
				"z": -0.1530678692,
				"element": "H" 
			}
		],
		 "valence_orbital": [ 
			{
				"type": "occ",
				"energy": -0.31867,
				"method": "rhf"
			},
			{
				"type": "occ",
				"energy": -0.30342,
				"method": "rhf"
			},
			{
				"type": "occ",
				"energy": -0.29471,
				"method": "rhf"
			},
			{
				"type": "occ",
				"energy": -0.28897,
				"method": "rhf"
			},
			{
				"type": "occ",
				"energy": -0.23288,
				"method": "rhf"
			},
			{
				"type": "unocc",
				"energy": -0.03078,
				"method": "rhf"
			},
			{
				"type": "unocc",
				"energy": -0.00965,
				"method": "rhf"
			},
			{
				"type": "unocc",
				"energy": 0.00558,
				"method": "rhf"
			},
			{
				"type": "unocc",
				"energy": 0.02234,
				"method": "rhf"
			},
			{
				"type": "unocc",
				"energy": 0.0313,
				"method": "rhf"
			}
		],
		"cosmo_sigma_profile": { 
			"-0.025": 0.0,
			"-0.024": 0.0,
			"-0.023": 0.0,
			"-0.022": 0.0,
			"-0.021": 0.0,
			"-0.02": 0.0,
			"-0.019": 0.129059782897,
			"-0.018": 1.21353464137,
			"-0.017": 1.37781003015,
			"-0.016": 1.06597068958,
			"-0.015": 1.0480232011,
			"-0.014": 0.927236545396,
			"-0.013": 1.61056801576,
			"-0.012": 0.778904888524,
			"-0.011": 1.11938161745,
			"-0.01": 2.12592474229,
			"-0.009": 0.840279548167,
			"-0.008": 0.8004631785,
			"-0.007": 2.6571195513,
			"-0.006": 4.24976127899,
			"-0.005": 5.71192419441,
			"-0.004": 6.1526648775,
			"-0.003": 8.41933677352,
			"-0.002": 11.7903661628,
			"-0.001": 12.0960952213,
			"0.0": 19.3401164961,
			"0.001": 17.9363955299,
			"0.002": 25.1565400187,
			"0.003": 27.0641358983,
			"0.004": 13.4415366191,
			"0.005": 3.30393163796,
			"0.006": 1.94229852953,
			"0.007": 1.50754249584,
			"0.008": 1.68225800992,
			"0.009": 1.12389760359,
			"0.01": 0.944260664884,
			"0.011": 0.945538077508,
			"0.012": 1.26794473609,
			"0.013": 1.01326932273,
			"0.014": 0.659775554288,
			"0.015": 0.140710024509,
			"0.016": 0.0,
			"0.017": 0.0,
			"0.018": 0.0,
			"0.019": 0.0,
			"0.02": 0.0,
			"0.021": 0.0,
			"0.022": 0.0,
			"0.023": 0.0,
			"0.024": 0.0,
			"0.025": 0.0
		}
	}
}
