{
	 "smiles": "CC1=C(OC(=C(C)C1=O)C1=CC=CC=C1)C1=CC=CC=C1", 
	 "Tm": 417.15, 
	 "num_atms": 37, 
	 "gaussian": { 
		 "optdone": 1, 
		 "sigma_profile": "yes", 
		 "theory": "DFT", 
		 "functional": "B3LYP", 
		 "basiset": "6-31G**", 
		 "properties": { 
			 "R2extent": 6951.7431, 
			 "electric_dipole_moment_norm": 4.35627843578, 
			 "electric_quadrupole_moment_norm": 18.6268680295, 
			 "total_energy": -884.114454207, 
			 "HOMO_LUMO_gap": 0.17407, 
			 "cosmo_polarized_energy": -11.84, 
			 "cosmo_cavitation_energy": 40.23, 
			 "cosmo_dispersion_energy": -28.36, 
			 "cosmo_repulsion_energy": 2.15, 
			 "cosmo_total_nonelectrostatic_energy": 14.02, 
			 "SMD_solvation_energy": 7.34 
		},
		"coords": [
			{
				"x": 0.8005174536,
				"y": 0.2283198242,
				"z": 3.6003832717,
				"element": "C" 
			},
			{
				"x": 0.021206276,
				"y": -0.0178748364,
				"z": 2.3374096206,
				"element": "C" 
			},
			{
				"x": 0.5707080105,
				"y": -0.2775729899,
				"z": 1.1197145983,
				"element": "C" 
			},
			{
				"x": -0.207004031,
				"y": -0.3982811763,
				"z": 0.0002211878,
				"element": "O" 
			},
			{
				"x": -1.5712730453,
				"y": -0.30203114,
				"z": 0.0468266754,
				"element": "C" 
			},
			{
				"x": -2.226865502,
				"y": -0.1161319278,
				"z": 1.2248840926,
				"element": "C" 
			},
			{
				"x": -3.7224428983,
				"y": -0.0972011919,
				"z": 1.3858871488,
				"element": "C" 
			},
			{
				"x": -1.443806247,
				"y": 0.0589214858,
				"z": 2.4590452875,
				"element": "C" 
			},
			{
				"x": -1.9921098069,
				"y": 0.2614511567,
				"z": 3.5491378805,
				"element": "O" 
			},
			{
				"x": -2.1437337036,
				"y": -0.4638113529,
				"z": -1.3082021628,
				"element": "C" 
			},
			{
				"x": -3.2432780345,
				"y": 0.2977525228,
				"z": -1.7361764189,
				"element": "C" 
			},
			{
				"x": -3.7592233427,
				"y": 0.1359925919,
				"z": -3.0216289732,
				"element": "C" 
			},
			{
				"x": -3.1839059324,
				"y": -0.7832996737,
				"z": -3.900032764,
				"element": "C" 
			},
			{
				"x": -2.0802437552,
				"y": -1.5347030761,
				"z": -3.4891860876,
				"element": "C" 
			},
			{
				"x": -1.5596407914,
				"y": -1.3735051195,
				"z": -2.2075203048,
				"element": "C" 
			},
			{
				"x": 2.0004011535,
				"y": -0.4327718238,
				"z": 0.7706161547,
				"element": "C" 
			},
			{
				"x": 2.4807104192,
				"y": 0.0829712594,
				"z": -0.4462576158,
				"element": "C" 
			},
			{
				"x": 3.8215387118,
				"y": -0.0591412653,
				"z": -0.79506317,
				"element": "C" 
			},
			{
				"x": 4.7032751202,
				"y": -0.7280718271,
				"z": 0.0573072822,
				"element": "C" 
			},
			{
				"x": 4.2325924038,
				"y": -1.2601918046,
				"z": 1.2585559263,
				"element": "C" 
			},
			{
				"x": 2.8915460819,
				"y": -1.1168785435,
				"z": 1.613243142,
				"element": "C" 
			},
			{
				"x": 0.8514596092,
				"y": -0.6738732805,
				"z": 4.2223677581,
				"element": "H" 
			},
			{
				"x": 0.2695726169,
				"y": 0.9758607516,
				"z": 4.1946949494,
				"element": "H" 
			},
			{
				"x": 1.8187138693,
				"y": 0.5677517381,
				"z": 3.4029371138,
				"element": "H" 
			},
			{
				"x": -4.1079072358,
				"y": 0.9288996194,
				"z": 1.4300032651,
				"element": "H" 
			},
			{
				"x": -4.2356990294,
				"y": -0.6229202553,
				"z": 0.5789788603,
				"element": "H" 
			},
			{
				"x": -3.9732612291,
				"y": -0.5560388634,
				"z": 2.3453038475,
				"element": "H" 
			},
			{
				"x": -3.6788496247,
				"y": 1.0354180262,
				"z": -1.0718634623,
				"element": "H" 
			},
			{
				"x": -4.6061833639,
				"y": 0.7372358303,
				"z": -3.3389673575,
				"element": "H" 
			},
			{
				"x": -3.5881079238,
				"y": -0.9090379766,
				"z": -4.9002528001,
				"element": "H" 
			},
			{
				"x": -1.6239196439,
				"y": -2.2486950649,
				"z": -4.1686696167,
				"element": "H" 
			},
			{
				"x": -0.699327668,
				"y": -1.9535618212,
				"z": -1.8915641521,
				"element": "H" 
			},
			{
				"x": 1.7959368055,
				"y": 0.597891002,
				"z": -1.1113682416,
				"element": "H" 
			},
			{
				"x": 4.1792165673,
				"y": 0.3535732027,
				"z": -1.7339168363,
				"element": "H" 
			},
			{
				"x": 5.7483996544,
				"y": -0.8393191933,
				"z": -0.2164946542,
				"element": "H" 
			},
			{
				"x": 4.9072867929,
				"y": -1.797394254,
				"z": 1.9186619695,
				"element": "H" 
			},
			{
				"x": 2.5297012629,
				"y": -1.5593305528,
				"z": 2.5343845857,
				"element": "H" 
			}
		],
		 "valence_orbital": [ 
			{
				"type": "occ",
				"energy": -0.26049,
				"method": "rhf"
			},
			{
				"type": "occ",
				"energy": -0.26037,
				"method": "rhf"
			},
			{
				"type": "occ",
				"energy": -0.23488,
				"method": "rhf"
			},
			{
				"type": "occ",
				"energy": -0.23092,
				"method": "rhf"
			},
			{
				"type": "occ",
				"energy": -0.22377,
				"method": "rhf"
			},
			{
				"type": "unocc",
				"energy": -0.0497,
				"method": "rhf"
			},
			{
				"type": "unocc",
				"energy": -0.03965,
				"method": "rhf"
			},
			{
				"type": "unocc",
				"energy": -0.01098,
				"method": "rhf"
			},
			{
				"type": "unocc",
				"energy": -0.0106,
				"method": "rhf"
			},
			{
				"type": "unocc",
				"energy": 0.01345,
				"method": "rhf"
			}
		],
		"cosmo_sigma_profile": { 
			"-0.025": 0.0,
			"-0.024": 0.0,
			"-0.023": 0.0,
			"-0.022": 0.0,
			"-0.021": 0.0,
			"-0.02": 0.0,
			"-0.019": 0.0,
			"-0.018": 0.0,
			"-0.017": 0.0,
			"-0.016": 0.0,
			"-0.015": 0.0,
			"-0.014": 0.0,
			"-0.013": 0.0,
			"-0.012": 0.0,
			"-0.011": 0.0,
			"-0.01": 0.0,
			"-0.009": 0.0,
			"-0.008": 0.0,
			"-0.007": 1.23426597896,
			"-0.006": 16.8389732867,
			"-0.005": 25.1841164595,
			"-0.004": 28.8006806565,
			"-0.003": 25.2059496355,
			"-0.002": 29.0497378043,
			"-0.001": 31.5301582949,
			"0.0": 37.6828830539,
			"0.001": 28.2312480742,
			"0.002": 19.2335071063,
			"0.003": 22.7596422573,
			"0.004": 23.5539742358,
			"0.005": 12.4390318486,
			"0.006": 1.62882734965,
			"0.007": 1.43004949008,
			"0.008": 1.99697996603,
			"0.009": 1.53165142241,
			"0.01": 1.17176292159,
			"0.011": 1.73939971018,
			"0.012": 1.76689903848,
			"0.013": 2.49775430819,
			"0.014": 4.85505429675,
			"0.015": 1.62414889427,
			"0.016": 0.0,
			"0.017": 0.0,
			"0.018": 0.0,
			"0.019": 0.0,
			"0.02": 0.0,
			"0.021": 0.0,
			"0.022": 0.0,
			"0.023": 0.0,
			"0.024": 0.0,
			"0.025": 0.0
		}
	}
}
