{
	 "smiles": "CN1C=CN=C1C(O)=O", 
	 "Tm": 378.15, 
	 "num_atms": 15, 
	 "gaussian": { 
		 "optdone": 1, 
		 "sigma_profile": "yes", 
		 "theory": "DFT", 
		 "functional": "B3LYP", 
		 "basiset": "6-31G**", 
		 "properties": { 
			 "R2extent": 1244.6394, 
			 "electric_dipole_moment_norm": 4.72068997711, 
			 "electric_quadrupole_moment_norm": 8.77624740934, 
			 "total_energy": -454.10894375, 
			 "HOMO_LUMO_gap": 0.20781, 
			 "cosmo_polarized_energy": -11.96, 
			 "cosmo_cavitation_energy": 19.35, 
			 "cosmo_dispersion_energy": -14.54, 
			 "cosmo_repulsion_energy": 1.18, 
			 "cosmo_total_nonelectrostatic_energy": 5.99, 
			 "SMD_solvation_energy": 4.06 
		},
		"coords": [
			{
				"x": 1.3261696129,
				"y": -2.3990342801,
				"z": -0.6884169654,
				"element": "C" 
			},
			{
				"x": 1.0945993327,
				"y": -1.5350831098,
				"z": 0.4682613377,
				"element": "N" 
			},
			{
				"x": 1.6714245422,
				"y": -1.6617404559,
				"z": 1.7069833902,
				"element": "C" 
			},
			{
				"x": 1.165574973,
				"y": -0.6361413102,
				"z": 2.4802874132,
				"element": "C" 
			},
			{
				"x": 0.294224046,
				"y": 0.1136890401,
				"z": 1.745852556,
				"element": "N" 
			},
			{
				"x": 0.2695712783,
				"y": -0.446756235,
				"z": 0.5421488014,
				"element": "C" 
			},
			{
				"x": -0.5632518599,
				"y": 0.0718590333,
				"z": -0.5631609141,
				"element": "C" 
			},
			{
				"x": -1.2770487207,
				"y": 1.1558046713,
				"z": -0.2112443284,
				"element": "O" 
			},
			{
				"x": -0.6078860092,
				"y": -0.4165633926,
				"z": -1.6735721306,
				"element": "O" 
			},
			{
				"x": 2.0420488563,
				"y": -3.1702950163,
				"z": -0.4013133755,
				"element": "H" 
			},
			{
				"x": 0.3910516463,
				"y": -2.859919622,
				"z": -1.0090233583,
				"element": "H" 
			},
			{
				"x": 1.7206750124,
				"y": -1.8166826871,
				"z": -1.5220051474,
				"element": "H" 
			},
			{
				"x": 2.3746779578,
				"y": -2.4512608787,
				"z": 1.9253247386,
				"element": "H" 
			},
			{
				"x": 1.3870896807,
				"y": -0.4103425097,
				"z": 3.5137226538,
				"element": "H" 
			},
			{
				"x": -1.0664203489,
				"y": 1.3470667527,
				"z": 0.7242553288,
				"element": "H" 
			}
		],
		 "valence_orbital": [ 
			{
				"type": "occ",
				"energy": -0.31178,
				"method": "rhf"
			},
			{
				"type": "occ",
				"energy": -0.30323,
				"method": "rhf"
			},
			{
				"type": "occ",
				"energy": -0.29488,
				"method": "rhf"
			},
			{
				"type": "occ",
				"energy": -0.27421,
				"method": "rhf"
			},
			{
				"type": "occ",
				"energy": -0.24884,
				"method": "rhf"
			},
			{
				"type": "unocc",
				"energy": -0.04103,
				"method": "rhf"
			},
			{
				"type": "unocc",
				"energy": 0.03758,
				"method": "rhf"
			},
			{
				"type": "unocc",
				"energy": 0.08507,
				"method": "rhf"
			},
			{
				"type": "unocc",
				"energy": 0.09469,
				"method": "rhf"
			},
			{
				"type": "unocc",
				"energy": 0.11115,
				"method": "rhf"
			}
		],
		"cosmo_sigma_profile": { 
			"-0.025": 0.0,
			"-0.024": 0.0,
			"-0.023": 0.0,
			"-0.022": 0.0,
			"-0.021": 0.0,
			"-0.02": 0.0,
			"-0.019": 0.0,
			"-0.018": 0.0,
			"-0.017": 0.0,
			"-0.016": 0.0,
			"-0.015": 0.0,
			"-0.014": 0.369422518036,
			"-0.013": 0.676986552782,
			"-0.012": 0.166530541182,
			"-0.011": 0.365056019191,
			"-0.01": 2.32601303543,
			"-0.009": 4.04986051596,
			"-0.008": 3.87703284607,
			"-0.007": 6.80849878338,
			"-0.006": 9.67438309981,
			"-0.005": 10.507530039,
			"-0.004": 13.8573382375,
			"-0.003": 15.2395934425,
			"-0.002": 8.39578202607,
			"-0.001": 7.70185847313,
			"0.0": 6.67491447277,
			"0.001": 6.39753372046,
			"0.002": 7.09060946125,
			"0.003": 8.0972700355,
			"0.004": 5.14620592264,
			"0.005": 4.65465228269,
			"0.006": 3.02413376082,
			"0.007": 4.16243669942,
			"0.008": 4.12363766851,
			"0.009": 5.43591650972,
			"0.01": 5.95174463662,
			"0.011": 4.8355484676,
			"0.012": 3.63077770876,
			"0.013": 1.44695807681,
			"0.014": 0.0570721754037,
			"0.015": 0.0,
			"0.016": 0.0,
			"0.017": 0.0,
			"0.018": 0.0,
			"0.019": 0.0,
			"0.02": 0.0,
			"0.021": 0.0,
			"0.022": 0.0,
			"0.023": 0.0,
			"0.024": 0.0,
			"0.025": 0.0
		}
	}
}
