{
	 "smiles": "CCCCCCCCCCCCCCCCCC(=O)OC(C)C", 
	 "Tm": 301.15, 
	 "num_atms": 65, 
	 "gaussian": { 
		 "optdone": 1, 
		 "sigma_profile": "yes", 
		 "theory": "DFT", 
		 "functional": "B3LYP", 
		 "basiset": "6-31G**", 
		 "properties": { 
			 "R2extent": 13523.1196, 
			 "electric_dipole_moment_norm": 2.14436672703, 
			 "electric_quadrupole_moment_norm": 16.6474240085, 
			 "total_energy": -976.065782364, 
			 "HOMO_LUMO_gap": 0.27777, 
			 "cosmo_polarized_energy": -6.89, 
			 "cosmo_cavitation_energy": 62.79, 
			 "cosmo_dispersion_energy": -38.14, 
			 "cosmo_repulsion_energy": 3.05, 
			 "cosmo_total_nonelectrostatic_energy": 27.71, 
			 "SMD_solvation_energy": 9.46 
		},
		"coords": [
			{
				"x": -2.0231143797,
				"y": -3.0332569887,
				"z": -2.9906707617,
				"element": "C" 
			},
			{
				"x": -1.4256038313,
				"y": -4.4224157225,
				"z": -2.7352493777,
				"element": "C" 
			},
			{
				"x": -0.0646923114,
				"y": -4.4101355005,
				"z": -2.019418775,
				"element": "C" 
			},
			{
				"x": -0.1005757909,
				"y": -3.8817900511,
				"z": -0.5782758704,
				"element": "C" 
			},
			{
				"x": 1.2672908817,
				"y": -3.9463867139,
				"z": 0.1168313566,
				"element": "C" 
			},
			{
				"x": 1.2678221893,
				"y": -3.4960713061,
				"z": 1.5871762051,
				"element": "C" 
			},
			{
				"x": 0.958518933,
				"y": -2.0075902343,
				"z": 1.8063071466,
				"element": "C" 
			},
			{
				"x": 1.0393458565,
				"y": -1.5957353396,
				"z": 3.2828295526,
				"element": "C" 
			},
			{
				"x": 0.8558497613,
				"y": -0.0966944347,
				"z": 3.5826662739,
				"element": "C" 
			},
			{
				"x": -0.5278081145,
				"y": 0.5003919186,
				"z": 3.237558441,
				"element": "C" 
			},
			{
				"x": -0.6362957859,
				"y": 1.1250296129,
				"z": 1.8359427148,
				"element": "C" 
			},
			{
				"x": -2.0274796251,
				"y": 1.7121306989,
				"z": 1.5249060365,
				"element": "C" 
			},
			{
				"x": -2.3839646004,
				"y": 3.0271562796,
				"z": 2.2587214329,
				"element": "C" 
			},
			{
				"x": -2.1352404242,
				"y": 4.34578926,
				"z": 1.4986005409,
				"element": "C" 
			},
			{
				"x": -0.6686969106,
				"y": 4.7248967922,
				"z": 1.19438349,
				"element": "C" 
			},
			{
				"x": -0.0724079406,
				"y": 4.1769248427,
				"z": -0.1158783259,
				"element": "C" 
			},
			{
				"x": -0.686770491,
				"y": 4.8133277591,
				"z": -1.3791113074,
				"element": "C" 
			},
			{
				"x": -0.0712210524,
				"y": 4.2833941538,
				"z": -2.6582951609,
				"element": "C" 
			},
			{
				"x": 0.5809177186,
				"y": 4.9391889883,
				"z": -3.4440276658,
				"element": "O" 
			},
			{
				"x": -0.3333027618,
				"y": 2.9633536855,
				"z": -2.810363739,
				"element": "O" 
			},
			{
				"x": 0.2228543059,
				"y": 2.3041791358,
				"z": -3.9855155526,
				"element": "C" 
			},
			{
				"x": 0.4035029705,
				"y": 0.8420916187,
				"z": -3.6017257161,
				"element": "C" 
			},
			{
				"x": -0.71179137,
				"y": 2.5126914959,
				"z": -5.1728700687,
				"element": "C" 
			},
			{
				"x": -2.2383125477,
				"y": -2.5022761655,
				"z": -2.0576782828,
				"element": "H" 
			},
			{
				"x": -1.3350683231,
				"y": -2.4104584716,
				"z": -3.5749848096,
				"element": "H" 
			},
			{
				"x": -2.9617194053,
				"y": -3.1044005999,
				"z": -3.5502764921,
				"element": "H" 
			},
			{
				"x": -2.1356537177,
				"y": -5.0228184241,
				"z": -2.1498470051,
				"element": "H" 
			},
			{
				"x": -1.3116486935,
				"y": -4.9414219203,
				"z": -3.6956488713,
				"element": "H" 
			},
			{
				"x": 0.3382184949,
				"y": -5.4322246504,
				"z": -2.009743809,
				"element": "H" 
			},
			{
				"x": 0.646375966,
				"y": -3.8111312189,
				"z": -2.6070083309,
				"element": "H" 
			},
			{
				"x": -0.8285189148,
				"y": -4.4674934659,
				"z": 0.0026215934,
				"element": "H" 
			},
			{
				"x": -0.4679933925,
				"y": -2.8486031287,
				"z": -0.5737944568,
				"element": "H" 
			},
			{
				"x": 1.9891889159,
				"y": -3.3384304225,
				"z": -0.447638978,
				"element": "H" 
			},
			{
				"x": 1.6388283158,
				"y": -4.9790033939,
				"z": 0.0652295287,
				"element": "H" 
			},
			{
				"x": 2.2518743482,
				"y": -3.7177478852,
				"z": 2.0225066314,
				"element": "H" 
			},
			{
				"x": 0.5453025212,
				"y": -4.1030466878,
				"z": 2.1518985859,
				"element": "H" 
			},
			{
				"x": -0.0400763216,
				"y": -1.7795086376,
				"z": 1.4159384444,
				"element": "H" 
			},
			{
				"x": 1.6644204916,
				"y": -1.4021375953,
				"z": 1.2188702249,
				"element": "H" 
			},
			{
				"x": 2.0161668887,
				"y": -1.9071256285,
				"z": 3.6788637346,
				"element": "H" 
			},
			{
				"x": 0.2908035427,
				"y": -2.1647281714,
				"z": 3.853153243,
				"element": "H" 
			},
			{
				"x": 1.6389585914,
				"y": 0.4772654888,
				"z": 3.0669941245,
				"element": "H" 
			},
			{
				"x": 1.0429296762,
				"y": 0.045315122,
				"z": 4.654430305,
				"element": "H" 
			},
			{
				"x": -1.299110709,
				"y": -0.275416943,
				"z": 3.3500246447,
				"element": "H" 
			},
			{
				"x": -0.7735665157,
				"y": 1.2690454809,
				"z": 3.9809001354,
				"element": "H" 
			},
			{
				"x": -0.3967473253,
				"y": 0.3692639959,
				"z": 1.0790724451,
				"element": "H" 
			},
			{
				"x": 0.133079947,
				"y": 1.9015923239,
				"z": 1.7373387406,
				"element": "H" 
			},
			{
				"x": -2.126174188,
				"y": 1.8668154898,
				"z": 0.442848319,
				"element": "H" 
			},
			{
				"x": -2.7748623867,
				"y": 0.9485613777,
				"z": 1.7790333311,
				"element": "H" 
			},
			{
				"x": -3.451013297,
				"y": 3.0060746311,
				"z": 2.5133359469,
				"element": "H" 
			},
			{
				"x": -1.8567444347,
				"y": 3.0694972228,
				"z": 3.2214660744,
				"element": "H" 
			},
			{
				"x": -2.5718715994,
				"y": 5.1501998251,
				"z": 2.1040980049,
				"element": "H" 
			},
			{
				"x": -2.719172979,
				"y": 4.3351014292,
				"z": 0.5679905253,
				"element": "H" 
			},
			{
				"x": -0.0364498439,
				"y": 4.4054938636,
				"z": 2.0331142673,
				"element": "H" 
			},
			{
				"x": -0.5871179599,
				"y": 5.8197784473,
				"z": 1.1652213843,
				"element": "H" 
			},
			{
				"x": 1.0069757654,
				"y": 4.3752660934,
				"z": -0.1196492495,
				"element": "H" 
			},
			{
				"x": -0.1884691044,
				"y": 3.0916609205,
				"z": -0.175945694,
				"element": "H" 
			},
			{
				"x": -1.7638624575,
				"y": 4.6130956529,
				"z": -1.4137705936,
				"element": "H" 
			},
			{
				"x": -0.5416052742,
				"y": 5.8969065638,
				"z": -1.3761775625,
				"element": "H" 
			},
			{
				"x": 1.1891773504,
				"y": 2.7721486823,
				"z": -4.1950061946,
				"element": "H" 
			},
			{
				"x": -0.5591816491,
				"y": 0.3816739953,
				"z": -3.3568640572,
				"element": "H" 
			},
			{
				"x": 1.0617165824,
				"y": 0.7460696886,
				"z": -2.7336290746,
				"element": "H" 
			},
			{
				"x": 0.8478870928,
				"y": 0.2876615478,
				"z": -4.4343119787,
				"element": "H" 
			},
			{
				"x": -0.803761602,
				"y": 3.576399814,
				"z": -5.4041781485,
				"element": "H" 
			},
			{
				"x": -0.3171420525,
				"y": 2.0030297692,
				"z": -6.0580168256,
				"element": "H" 
			},
			{
				"x": -1.7056970232,
				"y": 2.1071860341,
				"z": -4.9568006899,
				"element": "H" 
			}
		],
		 "valence_orbital": [ 
			{
				"type": "occ",
				"energy": -0.30345,
				"method": "rhf"
			},
			{
				"type": "occ",
				"energy": -0.29651,
				"method": "rhf"
			},
			{
				"type": "occ",
				"energy": -0.29263,
				"method": "rhf"
			},
			{
				"type": "occ",
				"energy": -0.28997,
				"method": "rhf"
			},
			{
				"type": "occ",
				"energy": -0.25979,
				"method": "rhf"
			},
			{
				"type": "unocc",
				"energy": 0.01798,
				"method": "rhf"
			},
			{
				"type": "unocc",
				"energy": 0.07345,
				"method": "rhf"
			},
			{
				"type": "unocc",
				"energy": 0.08404,
				"method": "rhf"
			},
			{
				"type": "unocc",
				"energy": 0.08796,
				"method": "rhf"
			},
			{
				"type": "unocc",
				"energy": 0.0974,
				"method": "rhf"
			}
		],
		"cosmo_sigma_profile": { 
			"-0.025": 0.0,
			"-0.024": 0.0,
			"-0.023": 0.0,
			"-0.022": 0.0,
			"-0.021": 0.0,
			"-0.02": 0.0,
			"-0.019": 0.0,
			"-0.018": 0.0,
			"-0.017": 0.0,
			"-0.016": 0.0,
			"-0.015": 0.0,
			"-0.014": 0.0,
			"-0.013": 0.0,
			"-0.012": 0.0,
			"-0.011": 0.0,
			"-0.01": 0.0,
			"-0.009": 0.0,
			"-0.008": 0.0,
			"-0.007": 0.0,
			"-0.006": 0.0823782757747,
			"-0.005": 3.09147533226,
			"-0.004": 15.1121102206,
			"-0.003": 26.1202528301,
			"-0.002": 64.5760619615,
			"-0.001": 108.825257268,
			"0.0": 112.74797276,
			"0.001": 85.6199830007,
			"0.002": 33.6081086931,
			"0.003": 4.45549504224,
			"0.004": 3.87391774093,
			"0.005": 2.94647333539,
			"0.006": 2.43379350965,
			"0.007": 2.86656163378,
			"0.008": 2.08714739823,
			"0.009": 2.27046293064,
			"0.01": 1.1652472691,
			"0.011": 2.16979542317,
			"0.012": 4.23117975012,
			"0.013": 2.58445848075,
			"0.014": 0.267593621953,
			"0.015": 0.0,
			"0.016": 0.0,
			"0.017": 0.0,
			"0.018": 0.0,
			"0.019": 0.0,
			"0.02": 0.0,
			"0.021": 0.0,
			"0.022": 0.0,
			"0.023": 0.0,
			"0.024": 0.0,
			"0.025": 0.0
		}
	}
}
