{
	 "smiles": "CC[C@@]1(O)C(=O)OCC2=C1C=C1N(CC3=CC4=C(C=CC=C4)N=C13)C2=O", 
	 "Tm": 549.15, 
	 "num_atms": 42, 
	 "gaussian": { 
		 "optdone": 1, 
		 "sigma_profile": "yes", 
		 "theory": "DFT", 
		 "functional": "B3LYP", 
		 "basiset": "6-31G**", 
		 "properties": { 
			 "R2extent": 11299.1607, 
			 "electric_dipole_moment_norm": 6.58531639559, 
			 "electric_quadrupole_moment_norm": 20.6874438481, 
			 "total_energy": -1182.20453225, 
			 "HOMO_LUMO_gap": 0.13524, 
			 "cosmo_polarized_energy": -19.44, 
			 "cosmo_cavitation_energy": 44.57, 
			 "cosmo_dispersion_energy": -32.29, 
			 "cosmo_repulsion_energy": 2.36, 
			 "cosmo_total_nonelectrostatic_energy": 14.64, 
			 "SMD_solvation_energy": 6.23 
		},
		"coords": [
			{
				"x": -1.1476650254,
				"y": -0.0656204259,
				"z": -4.6669534903,
				"element": "C" 
			},
			{
				"x": -0.3704716187,
				"y": 1.1255061207,
				"z": -4.1016203931,
				"element": "C" 
			},
			{
				"x": -1.0045507144,
				"y": 1.9068220374,
				"z": -2.9086865712,
				"element": "C" 
			},
			{
				"x": -0.1304446712,
				"y": 2.9704243245,
				"z": -2.573716679,
				"element": "O" 
			},
			{
				"x": -2.3386361595,
				"y": 2.5297811325,
				"z": -3.361802557,
				"element": "C" 
			},
			{
				"x": -2.3386067458,
				"y": 3.6200910951,
				"z": -3.895858231,
				"element": "O" 
			},
			{
				"x": -3.4861992204,
				"y": 1.8591194722,
				"z": -3.1984475038,
				"element": "O" 
			},
			{
				"x": -3.5661854314,
				"y": 0.6357207636,
				"z": -2.4318499079,
				"element": "C" 
			},
			{
				"x": -2.4116916515,
				"y": 0.4140173347,
				"z": -1.503783919,
				"element": "C" 
			},
			{
				"x": -1.1978136327,
				"y": 1.0292365385,
				"z": -1.6888172122,
				"element": "C" 
			},
			{
				"x": -0.129045112,
				"y": 0.839397158,
				"z": -0.7682449101,
				"element": "C" 
			},
			{
				"x": -0.3480797602,
				"y": 0.0032780017,
				"z": 0.2903748661,
				"element": "C" 
			},
			{
				"x": -1.5624196722,
				"y": -0.6281473143,
				"z": 0.4605979765,
				"element": "N" 
			},
			{
				"x": -1.6131641862,
				"y": -1.4837226861,
				"z": 1.6564502191,
				"element": "C" 
			},
			{
				"x": -0.2336922097,
				"y": -1.3024033301,
				"z": 2.2312075462,
				"element": "C" 
			},
			{
				"x": 0.3703259624,
				"y": -1.8235692682,
				"z": 3.3441938474,
				"element": "C" 
			},
			{
				"x": 1.7148906037,
				"y": -1.4454632715,
				"z": 3.614857741,
				"element": "C" 
			},
			{
				"x": 2.3686644021,
				"y": -0.539045536,
				"z": 2.7084790971,
				"element": "C" 
			},
			{
				"x": 3.7108517431,
				"y": -0.1548179067,
				"z": 2.9695064149,
				"element": "C" 
			},
			{
				"x": 4.3758886817,
				"y": -0.641787011,
				"z": 4.0718781936,
				"element": "C" 
			},
			{
				"x": 3.7326760956,
				"y": -1.5348782314,
				"z": 4.9648163682,
				"element": "C" 
			},
			{
				"x": 2.4317678645,
				"y": -1.9273695804,
				"z": 4.7407675608,
				"element": "C" 
			},
			{
				"x": 1.7529886217,
				"y": -0.0283580017,
				"z": 1.601810009,
				"element": "N" 
			},
			{
				"x": 0.5114066286,
				"y": -0.4111953127,
				"z": 1.4028919719,
				"element": "C" 
			},
			{
				"x": -2.6618802421,
				"y": -0.4829070816,
				"z": -0.3861263255,
				"element": "C" 
			},
			{
				"x": -3.7189792115,
				"y": -1.0791573616,
				"z": -0.1626745207,
				"element": "O" 
			},
			{
				"x": -2.1204030501,
				"y": 0.2342577419,
				"z": -5.0705749433,
				"element": "H" 
			},
			{
				"x": -0.583954483,
				"y": -0.5216942385,
				"z": -5.4862894434,
				"element": "H" 
			},
			{
				"x": -1.3116742982,
				"y": -0.8401158603,
				"z": -3.9113316841,
				"element": "H" 
			},
			{
				"x": -0.2023405678,
				"y": 1.8708301615,
				"z": -4.8874133649,
				"element": "H" 
			},
			{
				"x": 0.6175576035,
				"y": 0.8047952925,
				"z": -3.7537290972,
				"element": "H" 
			},
			{
				"x": -0.4421194352,
				"y": 3.7271883951,
				"z": -3.0997799326,
				"element": "H" 
			},
			{
				"x": -3.6820245675,
				"y": -0.1917234281,
				"z": -3.1414248181,
				"element": "H" 
			},
			{
				"x": -4.4953186511,
				"y": 0.6999967588,
				"z": -1.8603208383,
				"element": "H" 
			},
			{
				"x": 0.8172594035,
				"y": 1.3491711715,
				"z": -0.8840364975,
				"element": "H" 
			},
			{
				"x": -2.4197302809,
				"y": -1.1484165316,
				"z": 2.3183425387,
				"element": "H" 
			},
			{
				"x": -1.8421264995,
				"y": -2.5155319824,
				"z": 1.3666206011,
				"element": "H" 
			},
			{
				"x": -0.1422434103,
				"y": -2.5077025459,
				"z": 4.0163615092,
				"element": "H" 
			},
			{
				"x": 4.1811075963,
				"y": 0.5301381589,
				"z": 2.271782214,
				"element": "H" 
			},
			{
				"x": 5.4018757814,
				"y": -0.3416339113,
				"z": 4.2630661983,
				"element": "H" 
			},
			{
				"x": 4.2717453013,
				"y": -1.9095226437,
				"z": 5.8297670238,
				"element": "H" 
			},
			{
				"x": 1.9356542189,
				"y": -2.6118881981,
				"z": 5.4240109433,
				"element": "H" 
			}
		],
		 "valence_orbital": [ 
			{
				"type": "occ",
				"energy": -0.26822,
				"method": "rhf"
			},
			{
				"type": "occ",
				"energy": -0.26691,
				"method": "rhf"
			},
			{
				"type": "occ",
				"energy": -0.25905,
				"method": "rhf"
			},
			{
				"type": "occ",
				"energy": -0.24692,
				"method": "rhf"
			},
			{
				"type": "occ",
				"energy": -0.21844,
				"method": "rhf"
			},
			{
				"type": "unocc",
				"energy": -0.0832,
				"method": "rhf"
			},
			{
				"type": "unocc",
				"energy": -0.05158,
				"method": "rhf"
			},
			{
				"type": "unocc",
				"energy": -0.02236,
				"method": "rhf"
			},
			{
				"type": "unocc",
				"energy": -0.00258,
				"method": "rhf"
			},
			{
				"type": "unocc",
				"energy": 0.00314,
				"method": "rhf"
			}
		],
		"cosmo_sigma_profile": { 
			"-0.025": 0.0,
			"-0.024": 0.0,
			"-0.023": 0.0,
			"-0.022": 0.0,
			"-0.021": 0.0,
			"-0.02": 0.0,
			"-0.019": 0.0,
			"-0.018": 0.0,
			"-0.017": 0.0,
			"-0.016": 0.0,
			"-0.015": 0.0,
			"-0.014": 0.0,
			"-0.013": 0.0,
			"-0.012": 0.240518712059,
			"-0.011": 0.706782836865,
			"-0.01": 0.567047633052,
			"-0.009": 0.649766153482,
			"-0.008": 6.16574453129,
			"-0.007": 14.5531861629,
			"-0.006": 22.3770480124,
			"-0.005": 24.5890512032,
			"-0.004": 30.1253362199,
			"-0.003": 30.3039661317,
			"-0.002": 31.8761600484,
			"-0.001": 28.2962854541,
			"0.0": 26.7134290353,
			"0.001": 25.3257913504,
			"0.002": 20.0793102393,
			"0.003": 17.372329796,
			"0.004": 14.181884798,
			"0.005": 7.33674369994,
			"0.006": 6.57967221806,
			"0.007": 6.86929666975,
			"0.008": 5.61162415856,
			"0.009": 5.93850809358,
			"0.01": 8.46619856641,
			"0.011": 6.93395035849,
			"0.012": 5.00602037953,
			"0.013": 4.47874306388,
			"0.014": 4.11026878188,
			"0.015": 0.015577834601,
			"0.016": 0.0,
			"0.017": 0.0,
			"0.018": 0.0,
			"0.019": 0.0,
			"0.02": 0.0,
			"0.021": 0.0,
			"0.022": 0.0,
			"0.023": 0.0,
			"0.024": 0.0,
			"0.025": 0.0
		}
	}
}
