{
	 "smiles": "C=CC=CC=C", 
	 "Tm": 261.15, 
	 "num_atms": 14, 
	 "gaussian": { 
		 "optdone": 1, 
		 "sigma_profile": "yes", 
		 "theory": "DFT", 
		 "functional": "B3LYP", 
		 "basiset": "6-31G**", 
		 "properties": { 
			 "R2extent": 1018.6059, 
			 "electric_dipole_moment_norm": 0.065355106916, 
			 "electric_quadrupole_moment_norm": 3.79433523295, 
			 "total_energy": -233.394719001, 
			 "HOMO_LUMO_gap": 0.16546, 
			 "cosmo_polarized_energy": -3.07, 
			 "cosmo_cavitation_energy": 18.24, 
			 "cosmo_dispersion_energy": -12.75, 
			 "cosmo_repulsion_energy": 1.09, 
			 "cosmo_total_nonelectrostatic_energy": 6.59, 
			 "SMD_solvation_energy": 4.74 
		},
		"coords": [
			{
				"x": -3.0346495694,
				"y": 1.0252027057,
				"z": -2.1467840865,
				"element": "C" 
			},
			{
				"x": -2.7646685786,
				"y": -0.0463311437,
				"z": -1.3859664241,
				"element": "C" 
			},
			{
				"x": -1.546953932,
				"y": -0.2701781023,
				"z": -0.6061394422,
				"element": "C" 
			},
			{
				"x": -0.332285861,
				"y": 0.25574823,
				"z": -0.8731764769,
				"element": "C" 
			},
			{
				"x": 0.8736682932,
				"y": 0.0736625674,
				"z": -0.0647286857,
				"element": "C" 
			},
			{
				"x": 0.9159366048,
				"y": -0.1908209024,
				"z": 1.2498730447,
				"element": "C" 
			},
			{
				"x": -3.9571985933,
				"y": 1.0959939469,
				"z": -2.7141133394,
				"element": "H" 
			},
			{
				"x": -2.3511317761,
				"y": 1.8668187646,
				"z": -2.2174362451,
				"element": "H" 
			},
			{
				"x": -3.5185708964,
				"y": -0.8302022367,
				"z": -1.3137812056,
				"element": "H" 
			},
			{
				"x": -1.6402896504,
				"y": -0.9510294832,
				"z": 0.2392067861,
				"element": "H" 
			},
			{
				"x": -0.2118543282,
				"y": 0.8404817742,
				"z": -1.7844707057,
				"element": "H" 
			},
			{
				"x": 1.8174160983,
				"y": 0.1847444036,
				"z": -0.5986132674,
				"element": "H" 
			},
			{
				"x": 0.0139214447,
				"y": -0.2581553444,
				"z": 1.8518163192,
				"element": "H" 
			},
			{
				"x": 1.8596607444,
				"y": -0.3366351796,
				"z": 1.7657137285,
				"element": "H" 
			}
		],
		 "valence_orbital": [ 
			{
				"type": "occ",
				"energy": -0.35899,
				"method": "rhf"
			},
			{
				"type": "occ",
				"energy": -0.34401,
				"method": "rhf"
			},
			{
				"type": "occ",
				"energy": -0.32151,
				"method": "rhf"
			},
			{
				"type": "occ",
				"energy": -0.27857,
				"method": "rhf"
			},
			{
				"type": "occ",
				"energy": -0.21265,
				"method": "rhf"
			},
			{
				"type": "unocc",
				"energy": -0.04719,
				"method": "rhf"
			},
			{
				"type": "unocc",
				"energy": 0.03792,
				"method": "rhf"
			},
			{
				"type": "unocc",
				"energy": 0.09768,
				"method": "rhf"
			},
			{
				"type": "unocc",
				"energy": 0.11173,
				"method": "rhf"
			},
			{
				"type": "unocc",
				"energy": 0.11439,
				"method": "rhf"
			}
		],
		"cosmo_sigma_profile": { 
			"-0.025": 0.0,
			"-0.024": 0.0,
			"-0.023": 0.0,
			"-0.022": 0.0,
			"-0.021": 0.0,
			"-0.02": 0.0,
			"-0.019": 0.0,
			"-0.018": 0.0,
			"-0.017": 0.0,
			"-0.016": 0.0,
			"-0.015": 0.0,
			"-0.014": 0.0,
			"-0.013": 0.0,
			"-0.012": 0.0,
			"-0.011": 0.0,
			"-0.01": 0.0,
			"-0.009": 0.0,
			"-0.008": 0.0,
			"-0.007": 0.0,
			"-0.006": 0.892972716137,
			"-0.005": 13.9127755927,
			"-0.004": 17.7577828049,
			"-0.003": 14.2276338745,
			"-0.002": 12.9551566594,
			"-0.001": 12.7442920877,
			"0.0": 11.1462554678,
			"0.001": 10.2688289812,
			"0.002": 8.42031690795,
			"0.003": 10.2385306969,
			"0.004": 9.43711410735,
			"0.005": 11.4500953983,
			"0.006": 9.33713982768,
			"0.007": 2.46741232745,
			"0.008": 0.0,
			"0.009": 0.0,
			"0.01": 0.0,
			"0.011": 0.0,
			"0.012": 0.0,
			"0.013": 0.0,
			"0.014": 0.0,
			"0.015": 0.0,
			"0.016": 0.0,
			"0.017": 0.0,
			"0.018": 0.0,
			"0.019": 0.0,
			"0.02": 0.0,
			"0.021": 0.0,
			"0.022": 0.0,
			"0.023": 0.0,
			"0.024": 0.0,
			"0.025": 0.0
		}
	}
}
