{
	 "smiles": "NC(=O)C1=C(N)C=CC=N1", 
	 "Tm": 450.15, 
	 "num_atms": 17, 
	 "gaussian": { 
		 "optdone": 1, 
		 "sigma_profile": "yes", 
		 "theory": "DFT", 
		 "functional": "B3LYP", 
		 "basiset": "6-31G**", 
		 "properties": { 
			 "R2extent": 1512.1624, 
			 "electric_dipole_moment_norm": 2.06081363544, 
			 "electric_quadrupole_moment_norm": 11.2301467364, 
			 "total_energy": -472.366035425, 
			 "HOMO_LUMO_gap": 0.16716, 
			 "cosmo_polarized_energy": -11.75, 
			 "cosmo_cavitation_energy": 20.84, 
			 "cosmo_dispersion_energy": -16.18, 
			 "cosmo_repulsion_energy": 1.32, 
			 "cosmo_total_nonelectrostatic_energy": 5.98, 
			 "SMD_solvation_energy": 3.45 
		},
		"coords": [
			{
				"x": -2.4877167919,
				"y": -2.1815084949,
				"z": -0.0722942902,
				"element": "N" 
			},
			{
				"x": -1.2607216156,
				"y": -1.7563137491,
				"z": -0.4571107314,
				"element": "C" 
			},
			{
				"x": -0.4360969938,
				"y": -2.5041373581,
				"z": -1.0024456394,
				"element": "O" 
			},
			{
				"x": -0.9828955065,
				"y": -0.3131916542,
				"z": -0.1637586791,
				"element": "C" 
			},
			{
				"x": 0.2564518239,
				"y": 0.2841494752,
				"z": -0.5294801257,
				"element": "C" 
			},
			{
				"x": 1.2151117208,
				"y": -0.3985589341,
				"z": -1.2150266434,
				"element": "N" 
			},
			{
				"x": 0.4295422213,
				"y": 1.6408286244,
				"z": -0.1691332003,
				"element": "C" 
			},
			{
				"x": -0.5818511294,
				"y": 2.3160419999,
				"z": 0.4889364631,
				"element": "C" 
			},
			{
				"x": -1.7721307174,
				"y": 1.6391349414,
				"z": 0.7921912864,
				"element": "C" 
			},
			{
				"x": -1.9545825465,
				"y": 0.3620243547,
				"z": 0.4730741932,
				"element": "N" 
			},
			{
				"x": -3.104224343,
				"y": -1.5295035995,
				"z": 0.3899756806,
				"element": "H" 
			},
			{
				"x": -2.7342761255,
				"y": -3.1468004934,
				"z": -0.2161258169,
				"element": "H" 
			},
			{
				"x": 1.0585012295,
				"y": -1.3960250996,
				"z": -1.3288205666,
				"element": "H" 
			},
			{
				"x": 2.143236692,
				"y": -0.0138272295,
				"z": -1.2802265948,
				"element": "H" 
			},
			{
				"x": 1.3610529212,
				"y": 2.1416595421,
				"z": -0.4212096412,
				"element": "H" 
			},
			{
				"x": -0.4589044174,
				"y": 3.3581383521,
				"z": 0.7684276094,
				"element": "H" 
			},
			{
				"x": -2.5881964215,
				"y": 2.1408893227,
				"z": 1.3064266964,
				"element": "H" 
			}
		],
		 "valence_orbital": [ 
			{
				"type": "occ",
				"energy": -0.27712,
				"method": "rhf"
			},
			{
				"type": "occ",
				"energy": -0.27381,
				"method": "rhf"
			},
			{
				"type": "occ",
				"energy": -0.25977,
				"method": "rhf"
			},
			{
				"type": "occ",
				"energy": -0.24396,
				"method": "rhf"
			},
			{
				"type": "occ",
				"energy": -0.20895,
				"method": "rhf"
			},
			{
				"type": "unocc",
				"energy": -0.04179,
				"method": "rhf"
			},
			{
				"type": "unocc",
				"energy": 0.00157,
				"method": "rhf"
			},
			{
				"type": "unocc",
				"energy": 0.06852,
				"method": "rhf"
			},
			{
				"type": "unocc",
				"energy": 0.09,
				"method": "rhf"
			},
			{
				"type": "unocc",
				"energy": 0.10293,
				"method": "rhf"
			}
		],
		"cosmo_sigma_profile": { 
			"-0.025": 0.0,
			"-0.024": 0.0,
			"-0.023": 0.0,
			"-0.022": 0.0,
			"-0.021": 0.0,
			"-0.02": 0.0,
			"-0.019": 0.0,
			"-0.018": 0.0,
			"-0.017": 0.0,
			"-0.016": 0.0,
			"-0.015": 0.0,
			"-0.014": 0.923322279658,
			"-0.013": 2.48952243158,
			"-0.012": 2.94904653651,
			"-0.011": 2.8759857064,
			"-0.01": 2.92444517843,
			"-0.009": 3.73063602347,
			"-0.008": 3.72589695391,
			"-0.007": 7.21725959069,
			"-0.006": 6.92712322989,
			"-0.005": 9.38826361007,
			"-0.004": 7.04467813884,
			"-0.003": 6.47169527921,
			"-0.002": 6.78054152412,
			"-0.001": 6.78760480763,
			"0.0": 7.70583892523,
			"0.001": 10.820805775,
			"0.002": 17.0840875281,
			"0.003": 19.1335081715,
			"0.004": 9.8876019731,
			"0.005": 5.85535697845,
			"0.006": 4.55698704705,
			"0.007": 3.97271956129,
			"0.008": 3.90407777812,
			"0.009": 2.71568824845,
			"0.01": 1.58256998528,
			"0.011": 1.97260541548,
			"0.012": 1.91440471321,
			"0.013": 2.15507557088,
			"0.014": 2.01576440119,
			"0.015": 0.710487483277,
			"0.016": 0.0,
			"0.017": 0.0,
			"0.018": 0.0,
			"0.019": 0.0,
			"0.02": 0.0,
			"0.021": 0.0,
			"0.022": 0.0,
			"0.023": 0.0,
			"0.024": 0.0,
			"0.025": 0.0
		}
	}
}
