{
	 "smiles": "COC1=C(C=C(C=C1)[N+]([O-])=O)C(C)N", 
	 "Tm": 336.15, 
	 "num_atms": 26, 
	 "gaussian": { 
		 "optdone": 1, 
		 "sigma_profile": "yes", 
		 "theory": "DFT", 
		 "functional": "B3LYP", 
		 "basiset": "6-31G**", 
		 "properties": { 
			 "R2extent": 3487.8121, 
			 "electric_dipole_moment_norm": 6.85016003974, 
			 "electric_quadrupole_moment_norm": 20.4530101051, 
			 "total_energy": -685.254997739, 
			 "HOMO_LUMO_gap": 0.15892, 
			 "cosmo_polarized_energy": -14.08, 
			 "cosmo_cavitation_energy": 29.63, 
			 "cosmo_dispersion_energy": -21.19, 
			 "cosmo_repulsion_energy": 1.68, 
			 "cosmo_total_nonelectrostatic_energy": 10.12, 
			 "SMD_solvation_energy": 7.0 
		},
		"coords": [
			{
				"x": 3.8245462305,
				"y": 0.5088529967,
				"z": -0.6185957907,
				"element": "C" 
			},
			{
				"x": 2.4225623564,
				"y": 0.3703548067,
				"z": -0.8250321644,
				"element": "O" 
			},
			{
				"x": 1.6051047302,
				"y": 0.2109290341,
				"z": 0.2540450893,
				"element": "C" 
			},
			{
				"x": 0.2209384446,
				"y": 0.0922991413,
				"z": -0.0256009736,
				"element": "C" 
			},
			{
				"x": -0.6436193188,
				"y": -0.0798354248,
				"z": 1.0486011413,
				"element": "C" 
			},
			{
				"x": -0.1580964401,
				"y": -0.1343389023,
				"z": 2.3575768321,
				"element": "C" 
			},
			{
				"x": 1.1985123606,
				"y": -0.0127379905,
				"z": 2.6319289691,
				"element": "C" 
			},
			{
				"x": 2.0826120896,
				"y": 0.1616303307,
				"z": 1.57167559,
				"element": "C" 
			},
			{
				"x": -1.098234441,
				"y": -0.3201660865,
				"z": 3.4626841688,
				"element": "N" 
			},
			{
				"x": -2.2944895868,
				"y": -0.4302191535,
				"z": 3.1875014622,
				"element": "O" 
			},
			{
				"x": -0.6395015914,
				"y": -0.3577960444,
				"z": 4.6063677507,
				"element": "O" 
			},
			{
				"x": -0.3320615132,
				"y": 0.1314726471,
				"z": -1.4471638053,
				"element": "C" 
			},
			{
				"x": 0.0492684662,
				"y": -1.1345725493,
				"z": -2.2444797998,
				"element": "C" 
			},
			{
				"x": 0.0204399929,
				"y": 1.4014562643,
				"z": -2.1011585568,
				"element": "N" 
			},
			{
				"x": 4.247716939,
				"y": -0.3803053564,
				"z": -0.1367930341,
				"element": "H" 
			},
			{
				"x": 4.0543506786,
				"y": 1.395472914,
				"z": -0.0163212265,
				"element": "H" 
			},
			{
				"x": 4.2615940124,
				"y": 0.6231601921,
				"z": -1.6111519352,
				"element": "H" 
			},
			{
				"x": -1.7109334138,
				"y": -0.1714263408,
				"z": 0.8864115769,
				"element": "H" 
			},
			{
				"x": 1.5450641824,
				"y": -0.0547508961,
				"z": 3.6566930856,
				"element": "H" 
			},
			{
				"x": 3.1406568658,
				"y": 0.2578018417,
				"z": 1.779824553,
				"element": "H" 
			},
			{
				"x": -1.4238851753,
				"y": 0.1370984417,
				"z": -1.3449240527,
				"element": "H" 
			},
			{
				"x": 1.1325860384,
				"y": -1.2021029585,
				"z": -2.3768275008,
				"element": "H" 
			},
			{
				"x": -0.4165730647,
				"y": -1.1053998824,
				"z": -3.2361459103,
				"element": "H" 
			},
			{
				"x": -0.2930116252,
				"y": -2.0445753061,
				"z": -1.7392227864,
				"element": "H" 
			},
			{
				"x": -0.4505149843,
				"y": 1.4502593742,
				"z": -3.0019835398,
				"element": "H" 
			},
			{
				"x": 1.019267767,
				"y": 1.4116389069,
				"z": -2.2908091426,
				"element": "H" 
			}
		],
		 "valence_orbital": [ 
			{
				"type": "occ",
				"energy": -0.29729,
				"method": "rhf"
			},
			{
				"type": "occ",
				"energy": -0.27991,
				"method": "rhf"
			},
			{
				"type": "occ",
				"energy": -0.27066,
				"method": "rhf"
			},
			{
				"type": "occ",
				"energy": -0.24532,
				"method": "rhf"
			},
			{
				"type": "occ",
				"energy": -0.23615,
				"method": "rhf"
			},
			{
				"type": "unocc",
				"energy": -0.07723,
				"method": "rhf"
			},
			{
				"type": "unocc",
				"energy": -0.02155,
				"method": "rhf"
			},
			{
				"type": "unocc",
				"energy": 0.01438,
				"method": "rhf"
			},
			{
				"type": "unocc",
				"energy": 0.0724,
				"method": "rhf"
			},
			{
				"type": "unocc",
				"energy": 0.07777,
				"method": "rhf"
			}
		],
		"cosmo_sigma_profile": { 
			"-0.025": 0.0,
			"-0.024": 0.0,
			"-0.023": 0.0,
			"-0.022": 0.0,
			"-0.021": 0.0,
			"-0.02": 0.0,
			"-0.019": 0.0,
			"-0.018": 0.0,
			"-0.017": 0.0,
			"-0.016": 0.0,
			"-0.015": 0.0,
			"-0.014": 0.0,
			"-0.013": 0.0,
			"-0.012": 0.0,
			"-0.011": 0.0,
			"-0.01": 0.411472398385,
			"-0.009": 1.29036432598,
			"-0.008": 3.47090637657,
			"-0.007": 9.68747651821,
			"-0.006": 16.7067727595,
			"-0.005": 16.7094586419,
			"-0.004": 19.1259541699,
			"-0.003": 17.3627605436,
			"-0.002": 16.5173218332,
			"-0.001": 18.4199264963,
			"0.0": 20.5064780888,
			"0.001": 23.3192593257,
			"0.002": 16.0655121957,
			"0.003": 7.74280126574,
			"0.004": 4.32208915578,
			"0.005": 2.91767403648,
			"0.006": 4.59832752464,
			"0.007": 4.76496339642,
			"0.008": 11.4571622659,
			"0.009": 6.80156016391,
			"0.01": 4.45553883701,
			"0.011": 2.17280931133,
			"0.012": 0.633251077254,
			"0.013": 0.700565558137,
			"0.014": 0.515011317716,
			"0.015": 0.591660341589,
			"0.016": 0.744216150959,
			"0.017": 0.750872438264,
			"0.018": 0.539315970885,
			"0.019": 0.452665704434,
			"0.02": 0.311903623877,
			"0.021": 0.0,
			"0.022": 0.0,
			"0.023": 0.0,
			"0.024": 0.0,
			"0.025": 0.0
		}
	}
}
