{
	 "smiles": "C[N+](C)(C)CC(O)CC([O-])=O", 
	 "Tm": 483.15, 
	 "num_atms": 26, 
	 "gaussian": { 
		 "optdone": 1, 
		 "sigma_profile": "yes", 
		 "theory": "DFT", 
		 "functional": "B3LYP", 
		 "basiset": "6-31G**", 
		 "properties": { 
			 "R2extent": 2513.03, 
			 "electric_dipole_moment_norm": 10.8795614595, 
			 "electric_quadrupole_moment_norm": 20.7163885789, 
			 "total_energy": -556.161142064, 
			 "HOMO_LUMO_gap": 0.20841, 
			 "cosmo_polarized_energy": -33.81, 
			 "cosmo_cavitation_energy": 25.17, 
			 "cosmo_dispersion_energy": -18.75, 
			 "cosmo_repulsion_energy": 1.44, 
			 "cosmo_total_nonelectrostatic_energy": 7.86, 
			 "SMD_solvation_energy": 6.42 
		},
		"coords": [
			{
				"x": 0.9352051838,
				"y": -0.9894161216,
				"z": -2.002235456,
				"element": "C" 
			},
			{
				"x": 0.6467907008,
				"y": -0.17209901,
				"z": -0.7760484231,
				"element": "N" 
			},
			{
				"x": -0.5797651052,
				"y": 0.665955361,
				"z": -1.0177735798,
				"element": "C" 
			},
			{
				"x": 0.4047656276,
				"y": -1.1327685503,
				"z": 0.3729029672,
				"element": "C" 
			},
			{
				"x": 1.8712214024,
				"y": 0.7095536972,
				"z": -0.5213947273,
				"element": "C" 
			},
			{
				"x": 1.8129851358,
				"y": 1.7388533305,
				"z": 0.6790368382,
				"element": "C" 
			},
			{
				"x": 0.6094635672,
				"y": 1.7214431968,
				"z": 1.4131022508,
				"element": "O" 
			},
			{
				"x": 3.0095839634,
				"y": 1.4257498921,
				"z": 1.607503886,
				"element": "C" 
			},
			{
				"x": 2.6918930643,
				"y": 0.0242157751,
				"z": 2.1865802106,
				"element": "C" 
			},
			{
				"x": 3.2923905481,
				"y": -0.9603494079,
				"z": 1.7045632283,
				"element": "O" 
			},
			{
				"x": 1.685513909,
				"y": 0.0225621466,
				"z": 2.9738134166,
				"element": "O" 
			},
			{
				"x": 0.0736504848,
				"y": -1.6251564485,
				"z": -2.2127078024,
				"element": "H" 
			},
			{
				"x": 1.8144417879,
				"y": -1.6061442362,
				"z": -1.8147625062,
				"element": "H" 
			},
			{
				"x": 1.1191586468,
				"y": -0.322867786,
				"z": -2.8458387342,
				"element": "H" 
			},
			{
				"x": -0.3963471964,
				"y": 1.3073193388,
				"z": -1.8822315648,
				"element": "H" 
			},
			{
				"x": -0.7459673174,
				"y": 1.2609520075,
				"z": -0.1209779759,
				"element": "H" 
			},
			{
				"x": -1.4199787233,
				"y": -0.0004588968,
				"z": -1.2212441307,
				"element": "H" 
			},
			{
				"x": 1.3425934588,
				"y": -1.642530537,
				"z": 0.6043336074,
				"element": "H" 
			},
			{
				"x": -0.3777936486,
				"y": -1.8272715426,
				"z": 0.0620806802,
				"element": "H" 
			},
			{
				"x": 0.1111199081,
				"y": -0.5659754848,
				"z": 1.2496886326,
				"element": "H" 
			},
			{
				"x": 2.0379978822,
				"y": 1.238859316,
				"z": -1.4638288038,
				"element": "H" 
			},
			{
				"x": 2.6859263235,
				"y": 0.0021193855,
				"z": -0.3489304239,
				"element": "H" 
			},
			{
				"x": 1.9170669672,
				"y": 2.7379798721,
				"z": 0.2349744781,
				"element": "H" 
			},
			{
				"x": 0.8342862554,
				"y": 1.1498238359,
				"z": 2.2252700835,
				"element": "H" 
			},
			{
				"x": 3.9498483101,
				"y": 1.428623663,
				"z": 1.0481267065,
				"element": "H" 
			},
			{
				"x": 3.0472488636,
				"y": 2.1884272036,
				"z": 2.3908971421,
				"element": "H" 
			}
		],
		 "valence_orbital": [ 
			{
				"type": "occ",
				"energy": -0.31094,
				"method": "rhf"
			},
			{
				"type": "occ",
				"energy": -0.25915,
				"method": "rhf"
			},
			{
				"type": "occ",
				"energy": -0.20992,
				"method": "rhf"
			},
			{
				"type": "occ",
				"energy": -0.19558,
				"method": "rhf"
			},
			{
				"type": "occ",
				"energy": -0.18888,
				"method": "rhf"
			},
			{
				"type": "unocc",
				"energy": 0.01953,
				"method": "rhf"
			},
			{
				"type": "unocc",
				"energy": 0.06136,
				"method": "rhf"
			},
			{
				"type": "unocc",
				"energy": 0.06893,
				"method": "rhf"
			},
			{
				"type": "unocc",
				"energy": 0.07175,
				"method": "rhf"
			},
			{
				"type": "unocc",
				"energy": 0.08725,
				"method": "rhf"
			}
		],
		"cosmo_sigma_profile": { 
			"-0.025": 0.0,
			"-0.024": 0.0,
			"-0.023": 0.0,
			"-0.022": 0.0,
			"-0.021": 0.0,
			"-0.02": 0.0,
			"-0.019": 0.0,
			"-0.018": 0.0,
			"-0.017": 0.0,
			"-0.016": 0.0,
			"-0.015": 0.0,
			"-0.014": 0.0,
			"-0.013": 0.00282028555424,
			"-0.012": 0.622853600922,
			"-0.011": 2.10990837065,
			"-0.01": 2.95856446044,
			"-0.009": 6.01302335339,
			"-0.008": 13.300217723,
			"-0.007": 14.1829963755,
			"-0.006": 14.4774484342,
			"-0.005": 18.396333232,
			"-0.004": 20.1791984336,
			"-0.003": 15.5691036166,
			"-0.002": 7.84344219152,
			"-0.001": 8.20469186203,
			"0.0": 5.95958339484,
			"0.001": 4.19610686243,
			"0.002": 4.24043459838,
			"0.003": 4.79525005118,
			"0.004": 3.05106975692,
			"0.005": 2.81435256303,
			"0.006": 2.53081518174,
			"0.007": 3.67052846458,
			"0.008": 2.84217706919,
			"0.009": 2.10952564536,
			"0.01": 2.25024037356,
			"0.011": 3.45535503822,
			"0.012": 3.56811899232,
			"0.013": 2.34541924777,
			"0.014": 3.93839734225,
			"0.015": 4.46116797944,
			"0.016": 6.75948156304,
			"0.017": 4.53810639621,
			"0.018": 2.8503819439,
			"0.019": 1.07065186331,
			"0.02": 0.0,
			"0.021": 0.0,
			"0.022": 0.0,
			"0.023": 0.0,
			"0.024": 0.0,
			"0.025": 0.0
		}
	}
}
