{
	 "smiles": "CC=CC1=CC=CC=C1C(O)=O", 
	 "Tm": 356.65, 
	 "num_atms": 22, 
	 "gaussian": { 
		 "optdone": 1, 
		 "sigma_profile": "yes", 
		 "theory": "DFT", 
		 "functional": "B3LYP", 
		 "basiset": "6-31G**", 
		 "properties": { 
			 "R2extent": 2631.0791, 
			 "electric_dipole_moment_norm": 2.28737182155, 
			 "electric_quadrupole_moment_norm": 10.9165806895, 
			 "total_energy": -537.542760564, 
			 "HOMO_LUMO_gap": 0.1766, 
			 "cosmo_polarized_energy": -9.14, 
			 "cosmo_cavitation_energy": 26.16, 
			 "cosmo_dispersion_energy": -19.1, 
			 "cosmo_repulsion_energy": 1.54, 
			 "cosmo_total_nonelectrostatic_energy": 8.6, 
			 "SMD_solvation_energy": 5.91 
		},
		"coords": [
			{
				"x": 1.728171566,
				"y": -1.3554748478,
				"z": 2.4209421342,
				"element": "C" 
			},
			{
				"x": 1.1866802316,
				"y": -0.4670704133,
				"z": 1.3407776844,
				"element": "C" 
			},
			{
				"x": 0.577007221,
				"y": -0.906286058,
				"z": 0.2296115187,
				"element": "C" 
			},
			{
				"x": 0.0769247548,
				"y": -0.0323832899,
				"z": -0.8510759986,
				"element": "C" 
			},
			{
				"x": 0.7985845404,
				"y": 1.1383067596,
				"z": -1.1578008139,
				"element": "C" 
			},
			{
				"x": 0.406620742,
				"y": 2.0079246481,
				"z": -2.1695538664,
				"element": "C" 
			},
			{
				"x": -0.7238836089,
				"y": 1.7214674807,
				"z": -2.9380079282,
				"element": "C" 
			},
			{
				"x": -1.4456582426,
				"y": 0.5657659161,
				"z": -2.6712776102,
				"element": "C" 
			},
			{
				"x": -1.0720466182,
				"y": -0.3124633269,
				"z": -1.6392800226,
				"element": "C" 
			},
			{
				"x": -1.9918087545,
				"y": -1.4771127251,
				"z": -1.4732370151,
				"element": "C" 
			},
			{
				"x": -1.7836432563,
				"y": -2.2291945444,
				"z": -0.3635334216,
				"element": "O" 
			},
			{
				"x": -2.8904885248,
				"y": -1.7498187676,
				"z": -2.2478230614,
				"element": "O" 
			},
			{
				"x": 1.2496596113,
				"y": -1.1439212481,
				"z": 3.3858054849,
				"element": "H" 
			},
			{
				"x": 1.5739198723,
				"y": -2.4132168599,
				"z": 2.1885594024,
				"element": "H" 
			},
			{
				"x": 2.8041466467,
				"y": -1.1918981155,
				"z": 2.5656211363,
				"element": "H" 
			},
			{
				"x": 1.2901492346,
				"y": 0.6053777605,
				"z": 1.5059682034,
				"element": "H" 
			},
			{
				"x": 0.4239041192,
				"y": -1.9733003047,
				"z": 0.1101754472,
				"element": "H" 
			},
			{
				"x": 1.7067543457,
				"y": 1.3442349032,
				"z": -0.6010137646,
				"element": "H" 
			},
			{
				"x": 0.9948214055,
				"y": 2.8991615559,
				"z": -2.3701026584,
				"element": "H" 
			},
			{
				"x": -1.0322864729,
				"y": 2.3861659567,
				"z": -3.7390121594,
				"element": "H" 
			},
			{
				"x": -2.3263284863,
				"y": 0.3121341581,
				"z": -3.2505233801,
				"element": "H" 
			},
			{
				"x": -2.4633003267,
				"y": -2.9232986375,
				"z": -0.400619311,
				"element": "H" 
			}
		],
		 "valence_orbital": [ 
			{
				"type": "occ",
				"energy": -0.31546,
				"method": "rhf"
			},
			{
				"type": "occ",
				"energy": -0.28633,
				"method": "rhf"
			},
			{
				"type": "occ",
				"energy": -0.27443,
				"method": "rhf"
			},
			{
				"type": "occ",
				"energy": -0.25746,
				"method": "rhf"
			},
			{
				"type": "occ",
				"energy": -0.22679,
				"method": "rhf"
			},
			{
				"type": "unocc",
				"energy": -0.05019,
				"method": "rhf"
			},
			{
				"type": "unocc",
				"energy": -0.0201,
				"method": "rhf"
			},
			{
				"type": "unocc",
				"energy": 0.04634,
				"method": "rhf"
			},
			{
				"type": "unocc",
				"energy": 0.05776,
				"method": "rhf"
			},
			{
				"type": "unocc",
				"energy": 0.08309,
				"method": "rhf"
			}
		],
		"cosmo_sigma_profile": { 
			"-0.025": 0.0,
			"-0.024": 0.0,
			"-0.023": 0.0,
			"-0.022": 0.0,
			"-0.021": 0.0,
			"-0.02": 0.0,
			"-0.019": 0.0,
			"-0.018": 0.53974530045,
			"-0.017": 0.871084864103,
			"-0.016": 0.945138031674,
			"-0.015": 1.01681282497,
			"-0.014": 0.524353946083,
			"-0.013": 0.255494145375,
			"-0.012": 0.384905798862,
			"-0.011": 1.24223485318,
			"-0.01": 0.674934579426,
			"-0.009": 0.440292559669,
			"-0.008": 0.636623209136,
			"-0.007": 1.64851745472,
			"-0.006": 6.51575648342,
			"-0.005": 11.6496500209,
			"-0.004": 16.9641016279,
			"-0.003": 17.4332109058,
			"-0.002": 19.6364727491,
			"-0.001": 16.7449197475,
			"0.0": 19.6244830784,
			"0.001": 15.2762598554,
			"0.002": 14.9077363434,
			"0.003": 17.8636835826,
			"0.004": 15.4055719304,
			"0.005": 6.09602001494,
			"0.006": 3.35865450004,
			"0.007": 3.14488975842,
			"0.008": 2.45519459911,
			"0.009": 2.040522793,
			"0.01": 2.21258372162,
			"0.011": 3.02330758162,
			"0.012": 4.5696220741,
			"0.013": 0.297091417745,
			"0.014": 0.0,
			"0.015": 0.0,
			"0.016": 0.0,
			"0.017": 0.0,
			"0.018": 0.0,
			"0.019": 0.0,
			"0.02": 0.0,
			"0.021": 0.0,
			"0.022": 0.0,
			"0.023": 0.0,
			"0.024": 0.0,
			"0.025": 0.0
		}
	}
}
