{
	 "smiles": "CNC(C)CC1=CC=C(O)C=C1", 
	 "Tm": 434.15, 
	 "num_atms": 27, 
	 "gaussian": { 
		 "optdone": 1, 
		 "sigma_profile": "yes", 
		 "theory": "DFT", 
		 "functional": "B3LYP", 
		 "basiset": "6-31G**", 
		 "properties": { 
			 "R2extent": 3443.5769, 
			 "electric_dipole_moment_norm": 1.41368963001, 
			 "electric_quadrupole_moment_norm": 13.0685982366, 
			 "total_energy": -520.076872428, 
			 "HOMO_LUMO_gap": 0.2014, 
			 "cosmo_polarized_energy": -10.52, 
			 "cosmo_cavitation_energy": 29.33, 
			 "cosmo_dispersion_energy": -20.79, 
			 "cosmo_repulsion_energy": 1.67, 
			 "cosmo_total_nonelectrostatic_energy": 10.21, 
			 "SMD_solvation_energy": 3.62 
		},
		"coords": [
			{
				"x": -1.2915678741,
				"y": -1.9965696727,
				"z": -2.8800972204,
				"element": "C" 
			},
			{
				"x": 0.1422914296,
				"y": -1.8058160677,
				"z": -3.0510623034,
				"element": "N" 
			},
			{
				"x": 0.7861601679,
				"y": -0.863054288,
				"z": -2.1321586232,
				"element": "C" 
			},
			{
				"x": 2.1993806997,
				"y": -0.5688186156,
				"z": -2.642092943,
				"element": "C" 
			},
			{
				"x": 0.7957808662,
				"y": -1.3321396002,
				"z": -0.6464041534,
				"element": "C" 
			},
			{
				"x": 1.2390968502,
				"y": -0.2779286579,
				"z": 0.3442804089,
				"element": "C" 
			},
			{
				"x": 2.5268718925,
				"y": -0.2815692787,
				"z": 0.9013016551,
				"element": "C" 
			},
			{
				"x": 2.9417521887,
				"y": 0.7015380265,
				"z": 1.7963267145,
				"element": "C" 
			},
			{
				"x": 2.0621084144,
				"y": 1.7266005572,
				"z": 2.1575205573,
				"element": "C" 
			},
			{
				"x": 2.5142763511,
				"y": 2.6686965749,
				"z": 3.0408056452,
				"element": "O" 
			},
			{
				"x": 0.7720674488,
				"y": 1.7506845328,
				"z": 1.6178840253,
				"element": "C" 
			},
			{
				"x": 0.3734328392,
				"y": 0.7564741296,
				"z": 0.724762164,
				"element": "C" 
			},
			{
				"x": -1.6541124444,
				"y": -2.6962760903,
				"z": -3.6399580037,
				"element": "H" 
			},
			{
				"x": -1.613137779,
				"y": -2.3790320213,
				"z": -1.8951266809,
				"element": "H" 
			},
			{
				"x": -1.8044587282,
				"y": -1.0414590114,
				"z": -3.0433940727,
				"element": "H" 
			},
			{
				"x": 0.6230225503,
				"y": -2.7018940518,
				"z": -3.01253159,
				"element": "H" 
			},
			{
				"x": 0.2000775646,
				"y": 0.0660220857,
				"z": -2.1819536123,
				"element": "H" 
			},
			{
				"x": 2.7029387953,
				"y": 0.1719363907,
				"z": -2.0152983892,
				"element": "H" 
			},
			{
				"x": 2.8094088375,
				"y": -1.4816337426,
				"z": -2.6352030904,
				"element": "H" 
			},
			{
				"x": 2.1606243769,
				"y": -0.1995528385,
				"z": -3.6700886772,
				"element": "H" 
			},
			{
				"x": 1.4480556522,
				"y": -2.2124779103,
				"z": -0.5685834948,
				"element": "H" 
			},
			{
				"x": -0.2139710949,
				"y": -1.6676980043,
				"z": -0.3820893427,
				"element": "H" 
			},
			{
				"x": 3.2200889627,
				"y": -1.0747870573,
				"z": 0.6321545604,
				"element": "H" 
			},
			{
				"x": 3.9381728064,
				"y": 0.6890700327,
				"z": 2.2259401396,
				"element": "H" 
			},
			{
				"x": 1.8114540944,
				"y": 3.3111695903,
				"z": 3.2022690974,
				"element": "H" 
			},
			{
				"x": 0.0785930601,
				"y": 2.5409120238,
				"z": 1.8998065847,
				"element": "H" 
			},
			{
				"x": -0.6364079284,
				"y": 0.7856029644,
				"z": 0.321790645,
				"element": "H" 
			}
		],
		 "valence_orbital": [ 
			{
				"type": "occ",
				"energy": -0.32425,
				"method": "rhf"
			},
			{
				"type": "occ",
				"energy": -0.31841,
				"method": "rhf"
			},
			{
				"type": "occ",
				"energy": -0.24827,
				"method": "rhf"
			},
			{
				"type": "occ",
				"energy": -0.22454,
				"method": "rhf"
			},
			{
				"type": "occ",
				"energy": -0.20171,
				"method": "rhf"
			},
			{
				"type": "unocc",
				"energy": -0.00031,
				"method": "rhf"
			},
			{
				"type": "unocc",
				"energy": 0.01629,
				"method": "rhf"
			},
			{
				"type": "unocc",
				"energy": 0.07255,
				"method": "rhf"
			},
			{
				"type": "unocc",
				"energy": 0.08817,
				"method": "rhf"
			},
			{
				"type": "unocc",
				"energy": 0.10008,
				"method": "rhf"
			}
		],
		"cosmo_sigma_profile": { 
			"-0.025": 0.0,
			"-0.024": 0.0,
			"-0.023": 0.0,
			"-0.022": 0.0,
			"-0.021": 0.0,
			"-0.02": 0.0,
			"-0.019": 0.0,
			"-0.018": 0.0848906452817,
			"-0.017": 0.953232598903,
			"-0.016": 1.31708246323,
			"-0.015": 0.638394232434,
			"-0.014": 1.41086211677,
			"-0.013": 1.16036323481,
			"-0.012": 0.30726183456,
			"-0.011": 0.834050642633,
			"-0.01": 1.57948223572,
			"-0.009": 2.1824036369,
			"-0.008": 2.13240179392,
			"-0.007": 2.51251467241,
			"-0.006": 4.09237698893,
			"-0.005": 7.81323067748,
			"-0.004": 12.3773018677,
			"-0.003": 24.8543648596,
			"-0.002": 24.8987032827,
			"-0.001": 21.320509628,
			"0.0": 25.0478439076,
			"0.001": 20.3188919341,
			"0.002": 13.1569089122,
			"0.003": 8.72620042204,
			"0.004": 11.6254321301,
			"0.005": 11.6384784092,
			"0.006": 10.8361200799,
			"0.007": 2.80260887223,
			"0.008": 2.17510395526,
			"0.009": 2.6002473431,
			"0.01": 2.58737206508,
			"0.011": 2.00911719262,
			"0.012": 1.96519422719,
			"0.013": 0.485838694287,
			"0.014": 0.895684300335,
			"0.015": 0.545119125957,
			"0.016": 0.467078048742,
			"0.017": 0.417344410141,
			"0.018": 0.331655659972,
			"0.019": 0.0,
			"0.02": 0.0,
			"0.021": 0.0,
			"0.022": 0.0,
			"0.023": 0.0,
			"0.024": 0.0,
			"0.025": 0.0
		}
	}
}
