{
	 "smiles": "CC1=CC(C(=O)NN)=C(C)N1C1=CC=C(F)C=C1", 
	 "Tm": 434.15, 
	 "num_atms": 32, 
	 "gaussian": { 
		 "optdone": 1, 
		 "sigma_profile": "yes", 
		 "theory": "DFT", 
		 "functional": "B3LYP", 
		 "basiset": "6-31G**", 
		 "properties": { 
			 "R2extent": 6559.5771, 
			 "electric_dipole_moment_norm": 4.52041014511, 
			 "electric_quadrupole_moment_norm": 14.2489130375, 
			 "total_energy": -843.114844963, 
			 "HOMO_LUMO_gap": 0.17362, 
			 "cosmo_polarized_energy": -15.95, 
			 "cosmo_cavitation_energy": 36.33, 
			 "cosmo_dispersion_energy": -24.91, 
			 "cosmo_repulsion_energy": 1.92, 
			 "cosmo_total_nonelectrostatic_energy": 13.34, 
			 "SMD_solvation_energy": 7.87 
		},
		"coords": [
			{
				"x": 1.0525345115,
				"y": -0.7766059391,
				"z": -1.5596746863,
				"element": "C" 
			},
			{
				"x": 0.2113248866,
				"y": -0.4827927366,
				"z": -0.3594140199,
				"element": "C" 
			},
			{
				"x": -1.1508448851,
				"y": -0.4938498456,
				"z": -0.2032587093,
				"element": "C" 
			},
			{
				"x": -1.4574920488,
				"y": -0.0902118944,
				"z": 1.1410849244,
				"element": "C" 
			},
			{
				"x": -2.7700826628,
				"y": 0.1088804215,
				"z": 1.7936393427,
				"element": "C" 
			},
			{
				"x": -2.9336995738,
				"y": 0.8545281593,
				"z": 2.7613870547,
				"element": "O" 
			},
			{
				"x": -3.8739532469,
				"y": -0.5608390201,
				"z": 1.28691978,
				"element": "N" 
			},
			{
				"x": -3.8634350945,
				"y": -1.771831746,
				"z": 0.5595683236,
				"element": "N" 
			},
			{
				"x": -0.2448426833,
				"y": 0.1618705051,
				"z": 1.7778150859,
				"element": "C" 
			},
			{
				"x": 0.0553505639,
				"y": 0.5849797884,
				"z": 3.1797873329,
				"element": "C" 
			},
			{
				"x": 0.7609814572,
				"y": -0.0904472185,
				"z": 0.862483101,
				"element": "N" 
			},
			{
				"x": 2.1618251998,
				"y": 0.0367450149,
				"z": 1.1238717052,
				"element": "C" 
			},
			{
				"x": 2.764332345,
				"y": 1.2994868305,
				"z": 1.1087768842,
				"element": "C" 
			},
			{
				"x": 4.1292680384,
				"y": 1.429687555,
				"z": 1.3605935361,
				"element": "C" 
			},
			{
				"x": 4.8737494023,
				"y": 0.2831479854,
				"z": 1.6179152964,
				"element": "C" 
			},
			{
				"x": 6.1936109163,
				"y": 0.4029615323,
				"z": 1.8578284707,
				"element": "F" 
			},
			{
				"x": 4.2988064619,
				"y": -0.9833285456,
				"z": 1.635148799,
				"element": "C" 
			},
			{
				"x": 2.9315324715,
				"y": -1.1011356978,
				"z": 1.3890861142,
				"element": "C" 
			},
			{
				"x": 0.404303475,
				"y": -1.0191997792,
				"z": -2.4050922265,
				"element": "H" 
			},
			{
				"x": 1.7288632151,
				"y": -1.6254050543,
				"z": -1.4027928516,
				"element": "H" 
			},
			{
				"x": 1.6743706076,
				"y": 0.079253834,
				"z": -1.8485347206,
				"element": "H" 
			},
			{
				"x": -1.8509957392,
				"y": -0.7177776,
				"z": -0.9942003907,
				"element": "H" 
			},
			{
				"x": -4.6787333968,
				"y": -0.4653192724,
				"z": 1.894874998,
				"element": "H" 
			},
			{
				"x": -3.8070679793,
				"y": -1.5649765475,
				"z": -0.4340094058,
				"element": "H" 
			},
			{
				"x": -3.0381505158,
				"y": -2.3142258326,
				"z": 0.8055801503,
				"element": "H" 
			},
			{
				"x": 0.7382038856,
				"y": -0.1158203702,
				"z": 3.6745231721,
				"element": "H" 
			},
			{
				"x": 0.5292789569,
				"y": 1.573302634,
				"z": 3.2108459628,
				"element": "H" 
			},
			{
				"x": -0.8781883073,
				"y": 0.6487351473,
				"z": 3.7364103755,
				"element": "H" 
			},
			{
				"x": 2.1593469392,
				"y": 2.1751209404,
				"z": 0.8970349451,
				"element": "H" 
			},
			{
				"x": 4.6187643398,
				"y": 2.3972603738,
				"z": 1.3558387862,
				"element": "H" 
			},
			{
				"x": 4.9163887618,
				"y": -1.8499794681,
				"z": 1.8433700617,
				"element": "H" 
			},
			{
				"x": 2.4533496983,
				"y": -2.075214154,
				"z": 1.4062928079,
				"element": "H" 
			}
		],
		 "valence_orbital": [ 
			{
				"type": "occ",
				"energy": -0.26466,
				"method": "rhf"
			},
			{
				"type": "occ",
				"energy": -0.24612,
				"method": "rhf"
			},
			{
				"type": "occ",
				"energy": -0.23592,
				"method": "rhf"
			},
			{
				"type": "occ",
				"energy": -0.2309,
				"method": "rhf"
			},
			{
				"type": "occ",
				"energy": -0.20508,
				"method": "rhf"
			},
			{
				"type": "unocc",
				"energy": -0.03146,
				"method": "rhf"
			},
			{
				"type": "unocc",
				"energy": -0.02263,
				"method": "rhf"
			},
			{
				"type": "unocc",
				"energy": 0.00048,
				"method": "rhf"
			},
			{
				"type": "unocc",
				"energy": 0.0384,
				"method": "rhf"
			},
			{
				"type": "unocc",
				"energy": 0.06902,
				"method": "rhf"
			}
		],
		"cosmo_sigma_profile": { 
			"-0.025": 0.0,
			"-0.024": 0.0,
			"-0.023": 0.0,
			"-0.022": 0.0,
			"-0.021": 0.0,
			"-0.02": 0.0,
			"-0.019": 0.0,
			"-0.018": 0.0,
			"-0.017": 0.0,
			"-0.016": 0.0,
			"-0.015": 0.0,
			"-0.014": 0.0,
			"-0.013": 0.122877590152,
			"-0.012": 1.23561735314,
			"-0.011": 2.27988774906,
			"-0.01": 4.07259715175,
			"-0.009": 3.6370666396,
			"-0.008": 5.38070921534,
			"-0.007": 11.3757624457,
			"-0.006": 10.0455151072,
			"-0.005": 13.5703096603,
			"-0.004": 19.7195572215,
			"-0.003": 20.8698580631,
			"-0.002": 22.8726548548,
			"-0.001": 23.6204316861,
			"0.0": 28.9454994828,
			"0.001": 23.4098210688,
			"0.002": 21.6550527411,
			"0.003": 16.3794382326,
			"0.004": 15.0259126147,
			"0.005": 9.75830990643,
			"0.006": 6.49050847719,
			"0.007": 4.96956118893,
			"0.008": 2.58418229119,
			"0.009": 2.74758305674,
			"0.01": 1.78179667062,
			"0.011": 1.79384895325,
			"0.012": 2.74080979085,
			"0.013": 3.20806340441,
			"0.014": 5.01587985172,
			"0.015": 2.38260474482,
			"0.016": 0.53797639248,
			"0.017": 0.133236518626,
			"0.018": 0.0,
			"0.019": 0.0,
			"0.02": 0.0,
			"0.021": 0.0,
			"0.022": 0.0,
			"0.023": 0.0,
			"0.024": 0.0,
			"0.025": 0.0
		}
	}
}
