{
	 "smiles": "COC1=CC(=CC(OC)=C1)C#N", 
	 "Tm": 361.15, 
	 "num_atms": 21, 
	 "gaussian": { 
		 "optdone": 1, 
		 "sigma_profile": "yes", 
		 "theory": "DFT", 
		 "functional": "B3LYP", 
		 "basiset": "6-31G**", 
		 "properties": { 
			 "R2extent": 3399.7875, 
			 "electric_dipole_moment_norm": 5.42744057729, 
			 "electric_quadrupole_moment_norm": 22.8221149027, 
			 "total_energy": -553.539860291, 
			 "HOMO_LUMO_gap": 0.1876, 
			 "cosmo_polarized_energy": -11.13, 
			 "cosmo_cavitation_energy": 26.27, 
			 "cosmo_dispersion_energy": -18.77, 
			 "cosmo_repulsion_energy": 1.5, 
			 "cosmo_total_nonelectrostatic_energy": 9.0, 
			 "SMD_solvation_energy": 7.58 
		},
		"coords": [
			{
				"x": 0.9674225485,
				"y": 1.7298792446,
				"z": -0.1203745297,
				"element": "C" 
			},
			{
				"x": 0.3969547494,
				"y": 0.6310498236,
				"z": -0.8191162017,
				"element": "O" 
			},
			{
				"x": 0.3768745185,
				"y": -0.5837068776,
				"z": -0.2061393937,
				"element": "C" 
			},
			{
				"x": 0.8806388189,
				"y": -0.8313840973,
				"z": 1.0703986808,
				"element": "C" 
			},
			{
				"x": 0.7930372774,
				"y": -2.1418157752,
				"z": 1.5822808944,
				"element": "C" 
			},
			{
				"x": 0.2207490174,
				"y": -3.1787935353,
				"z": 0.8470031681,
				"element": "C" 
			},
			{
				"x": -0.2803071227,
				"y": -2.9063327189,
				"z": -0.4366862432,
				"element": "C" 
			},
			{
				"x": -0.822173125,
				"y": -3.9698375544,
				"z": -1.0881174998,
				"element": "O" 
			},
			{
				"x": -1.3495844036,
				"y": -3.7669772426,
				"z": -2.3919000058,
				"element": "C" 
			},
			{
				"x": -0.2037437999,
				"y": -1.6172984691,
				"z": -0.9621536321,
				"element": "C" 
			},
			{
				"x": 1.308452745,
				"y": -2.4090466705,
				"z": 2.895657446,
				"element": "C" 
			},
			{
				"x": 1.7284825224,
				"y": -2.6165249463,
				"z": 3.9603389668,
				"element": "N" 
			},
			{
				"x": 0.4275486476,
				"y": 1.9384099593,
				"z": 0.8115826873,
				"element": "H" 
			},
			{
				"x": 2.0265809786,
				"y": 1.5564742099,
				"z": 0.1067969548,
				"element": "H" 
			},
			{
				"x": 0.878011744,
				"y": 2.5876074144,
				"z": -0.788060638,
				"element": "H" 
			},
			{
				"x": 1.3316754684,
				"y": -0.0539944069,
				"z": 1.6715202648,
				"element": "H" 
			},
			{
				"x": 0.1550905602,
				"y": -4.1844373739,
				"z": 1.2435284368,
				"element": "H" 
			},
			{
				"x": -2.1739935446,
				"y": -3.0430381127,
				"z": -2.3847505828,
				"element": "H" 
			},
			{
				"x": -1.725478599,
				"y": -4.7378962948,
				"z": -2.716627204,
				"element": "H" 
			},
			{
				"x": -0.5758144544,
				"y": -3.4256460112,
				"z": -3.0908733598,
				"element": "H" 
			},
			{
				"x": -0.5790245469,
				"y": -1.3702905652,
				"z": -1.9468082091,
				"element": "H" 
			}
		],
		 "valence_orbital": [ 
			{
				"type": "occ",
				"energy": -0.34575,
				"method": "rhf"
			},
			{
				"type": "occ",
				"energy": -0.32599,
				"method": "rhf"
			},
			{
				"type": "occ",
				"energy": -0.30065,
				"method": "rhf"
			},
			{
				"type": "occ",
				"energy": -0.24675,
				"method": "rhf"
			},
			{
				"type": "occ",
				"energy": -0.23139,
				"method": "rhf"
			},
			{
				"type": "unocc",
				"energy": -0.04379,
				"method": "rhf"
			},
			{
				"type": "unocc",
				"energy": 0.00083,
				"method": "rhf"
			},
			{
				"type": "unocc",
				"energy": 0.04245,
				"method": "rhf"
			},
			{
				"type": "unocc",
				"energy": 0.08047,
				"method": "rhf"
			},
			{
				"type": "unocc",
				"energy": 0.09094,
				"method": "rhf"
			}
		],
		"cosmo_sigma_profile": { 
			"-0.025": 0.0,
			"-0.024": 0.0,
			"-0.023": 0.0,
			"-0.022": 0.0,
			"-0.021": 0.0,
			"-0.02": 0.0,
			"-0.019": 0.0,
			"-0.018": 0.0,
			"-0.017": 0.0,
			"-0.016": 0.0,
			"-0.015": 0.0,
			"-0.014": 0.0,
			"-0.013": 0.0,
			"-0.012": 0.0,
			"-0.011": 0.0,
			"-0.01": 0.0,
			"-0.009": 0.0,
			"-0.008": 2.20724921164,
			"-0.007": 7.64784764573,
			"-0.006": 17.9815949668,
			"-0.005": 19.3770526014,
			"-0.004": 20.8175539844,
			"-0.003": 16.6626326449,
			"-0.002": 10.8975864057,
			"-0.001": 12.6720340924,
			"0.0": 10.7713312293,
			"0.001": 13.0157575245,
			"0.002": 22.3212514369,
			"0.003": 10.5237224379,
			"0.004": 5.81726933816,
			"0.005": 5.85888986778,
			"0.006": 4.19389688668,
			"0.007": 5.97765444329,
			"0.008": 6.34198941952,
			"0.009": 6.1201960493,
			"0.01": 4.3536490732,
			"0.011": 2.95488275303,
			"0.012": 2.36989301833,
			"0.013": 1.54952136603,
			"0.014": 0.051054277998,
			"0.015": 0.0,
			"0.016": 0.0,
			"0.017": 0.0,
			"0.018": 0.0,
			"0.019": 0.0,
			"0.02": 0.0,
			"0.021": 0.0,
			"0.022": 0.0,
			"0.023": 0.0,
			"0.024": 0.0,
			"0.025": 0.0
		}
	}
}
