{
	 "smiles": "NNC1=CC(=C(C=C1)C#N)C(F)(F)F", 
	 "Tm": 393.15, 
	 "num_atms": 20, 
	 "gaussian": { 
		 "optdone": 1, 
		 "sigma_profile": "yes", 
		 "theory": "DFT", 
		 "functional": "B3LYP", 
		 "basiset": "6-31G**", 
		 "properties": { 
			 "R2extent": 3808.0009, 
			 "electric_dipole_moment_norm": 9.25628680087, 
			 "electric_quadrupole_moment_norm": 10.5763000695, 
			 "total_energy": -772.195980814, 
			 "HOMO_LUMO_gap": 0.18094, 
			 "cosmo_polarized_energy": -17.95, 
			 "cosmo_cavitation_energy": 26.91, 
			 "cosmo_dispersion_energy": -18.82, 
			 "cosmo_repulsion_energy": 1.45, 
			 "cosmo_total_nonelectrostatic_energy": 9.54, 
			 "SMD_solvation_energy": 7.48 
		},
		"coords": [
			{
				"x": 2.9072482692,
				"y": -1.6006548986,
				"z": 0.7286674684,
				"element": "N" 
			},
			{
				"x": 2.3765885104,
				"y": -0.3502781528,
				"z": 1.0752931071,
				"element": "N" 
			},
			{
				"x": 1.3984830931,
				"y": 0.2112857396,
				"z": 0.2725464002,
				"element": "C" 
			},
			{
				"x": 0.6733966825,
				"y": 1.3184585791,
				"z": 0.7571470221,
				"element": "C" 
			},
			{
				"x": -0.283878555,
				"y": 1.9419510086,
				"z": -0.0273586695,
				"element": "C" 
			},
			{
				"x": -0.5528627048,
				"y": 1.4727212149,
				"z": -1.3324753602,
				"element": "C" 
			},
			{
				"x": 0.1733332685,
				"y": 0.365965777,
				"z": -1.8053408074,
				"element": "C" 
			},
			{
				"x": 1.1326246486,
				"y": -0.2612644928,
				"z": -1.0241120015,
				"element": "C" 
			},
			{
				"x": -1.5325374848,
				"y": 2.076549746,
				"z": -2.1819937447,
				"element": "C" 
			},
			{
				"x": -2.3182105526,
				"y": 2.5316121307,
				"z": -2.909884103,
				"element": "N" 
			},
			{
				"x": -1.0436197471,
				"y": 3.1247593297,
				"z": 0.527323215,
				"element": "C" 
			},
			{
				"x": -0.6523917794,
				"y": 3.4278917876,
				"z": 1.7860834442,
				"element": "F" 
			},
			{
				"x": -2.369813841,
				"y": 2.8834417073,
				"z": 0.5681135916,
				"element": "F" 
			},
			{
				"x": -0.8585261285,
				"y": 4.2273204566,
				"z": -0.2259436881,
				"element": "F" 
			},
			{
				"x": 3.9136534627,
				"y": -1.5882383017,
				"z": 0.8595608729,
				"element": "H" 
			},
			{
				"x": 2.5043072568,
				"y": -2.3470222226,
				"z": 1.2927333074,
				"element": "H" 
			},
			{
				"x": 2.3307467057,
				"y": -0.1106188712,
				"z": 2.0594647453,
				"element": "H" 
			},
			{
				"x": 0.8646292805,
				"y": 1.6953721482,
				"z": 1.7560511887,
				"element": "H" 
			},
			{
				"x": -0.0289014228,
				"y": -0.0016540914,
				"z": -2.805904841,
				"element": "H" 
			},
			{
				"x": 1.6856310382,
				"y": -1.1147985944,
				"z": -1.3949711476,
				"element": "H" 
			}
		],
		 "valence_orbital": [ 
			{
				"type": "occ",
				"energy": -0.32026,
				"method": "rhf"
			},
			{
				"type": "occ",
				"energy": -0.30996,
				"method": "rhf"
			},
			{
				"type": "occ",
				"energy": -0.29484,
				"method": "rhf"
			},
			{
				"type": "occ",
				"energy": -0.2805,
				"method": "rhf"
			},
			{
				"type": "occ",
				"energy": -0.22594,
				"method": "rhf"
			},
			{
				"type": "unocc",
				"energy": -0.045,
				"method": "rhf"
			},
			{
				"type": "unocc",
				"energy": -0.02957,
				"method": "rhf"
			},
			{
				"type": "unocc",
				"energy": 0.04287,
				"method": "rhf"
			},
			{
				"type": "unocc",
				"energy": 0.04802,
				"method": "rhf"
			},
			{
				"type": "unocc",
				"energy": 0.07057,
				"method": "rhf"
			}
		],
		"cosmo_sigma_profile": { 
			"-0.025": 0.0,
			"-0.024": 0.0,
			"-0.023": 0.0,
			"-0.022": 0.0,
			"-0.021": 0.0,
			"-0.02": 0.0,
			"-0.019": 0.0,
			"-0.018": 0.0,
			"-0.017": 0.0,
			"-0.016": 0.0,
			"-0.015": 0.0807257602551,
			"-0.014": 1.64381698359,
			"-0.013": 1.57360475084,
			"-0.012": 4.53073093796,
			"-0.011": 5.57902813779,
			"-0.01": 5.50100545697,
			"-0.009": 5.04939460162,
			"-0.008": 5.25882103477,
			"-0.007": 5.62857198218,
			"-0.006": 5.49124791151,
			"-0.005": 6.27154277227,
			"-0.004": 5.31179788506,
			"-0.003": 7.36283757703,
			"-0.002": 9.39369745259,
			"-0.001": 10.9323291881,
			"0.0": 16.6389691947,
			"0.001": 19.980372295,
			"0.002": 35.0785063558,
			"0.003": 24.4209789307,
			"0.004": 7.17725714461,
			"0.005": 4.44458837464,
			"0.006": 4.5294037713,
			"0.007": 3.36746092841,
			"0.008": 4.54712708959,
			"0.009": 3.34710027374,
			"0.01": 4.00288905853,
			"0.011": 3.59567390101,
			"0.012": 3.04229063106,
			"0.013": 1.82792818126,
			"0.014": 0.372759421109,
			"0.015": 0.0,
			"0.016": 0.0,
			"0.017": 0.0,
			"0.018": 0.0,
			"0.019": 0.0,
			"0.02": 0.0,
			"0.021": 0.0,
			"0.022": 0.0,
			"0.023": 0.0,
			"0.024": 0.0,
			"0.025": 0.0
		}
	}
}
