{
	 "smiles": "COC1=CC=C(C=C1)N1N=C(SC1=N)C(=O)C1=CC=CC2=C1C=CC=C2", 
	 "Tm": 348.15, 
	 "num_atms": 41, 
	 "gaussian": { 
		 "optdone": 1, 
		 "sigma_profile": "yes", 
		 "theory": "DFT", 
		 "functional": "B3LYP", 
		 "basiset": "6-31G**", 
		 "properties": { 
			 "R2extent": 13898.9321, 
			 "electric_dipole_moment_norm": 1.86557832588, 
			 "electric_quadrupole_moment_norm": 26.684160287, 
			 "total_energy": -1484.00630669, 
			 "HOMO_LUMO_gap": 0.12351, 
			 "cosmo_polarized_energy": -16.77, 
			 "cosmo_cavitation_energy": 47.47, 
			 "cosmo_dispersion_energy": -33.96, 
			 "cosmo_repulsion_energy": 2.51, 
			 "cosmo_total_nonelectrostatic_energy": 16.01, 
			 "SMD_solvation_energy": 7.61 
		},
		"coords": [
			{
				"x": 5.1851727021,
				"y": 0.6770345938,
				"z": -5.0854723832,
				"element": "C" 
			},
			{
				"x": 5.3369049579,
				"y": 0.1700917032,
				"z": -3.7690490642,
				"element": "O" 
			},
			{
				"x": 4.2396244582,
				"y": 0.1380294498,
				"z": -2.9595251378,
				"element": "C" 
			},
			{
				"x": 2.9607203725,
				"y": 0.5706847988,
				"z": -3.3306516065,
				"element": "C" 
			},
			{
				"x": 1.9095510918,
				"y": 0.4978107955,
				"z": -2.4175426282,
				"element": "C" 
			},
			{
				"x": 2.1194761574,
				"y": -0.0131769646,
				"z": -1.1340151667,
				"element": "C" 
			},
			{
				"x": 3.3981227891,
				"y": -0.4522151238,
				"z": -0.7606996058,
				"element": "C" 
			},
			{
				"x": 4.444725782,
				"y": -0.3700385642,
				"z": -1.6693298611,
				"element": "C" 
			},
			{
				"x": 1.0008058983,
				"y": -0.1024604725,
				"z": -0.2404907245,
				"element": "N" 
			},
			{
				"x": -0.2260186819,
				"y": -0.170458806,
				"z": -0.7962202302,
				"element": "N" 
			},
			{
				"x": -1.1830880986,
				"y": -0.1850998466,
				"z": 0.0744255131,
				"element": "C" 
			},
			{
				"x": -0.6364285056,
				"y": -0.0993161429,
				"z": 1.7584823016,
				"element": "S" 
			},
			{
				"x": 1.063434679,
				"y": -0.0259759555,
				"z": 1.1697500798,
				"element": "C" 
			},
			{
				"x": 2.1445632442,
				"y": 0.0703134594,
				"z": 1.8325942397,
				"element": "N" 
			},
			{
				"x": -2.6178165792,
				"y": -0.1727964509,
				"z": -0.3539914895,
				"element": "C" 
			},
			{
				"x": -2.9114563919,
				"y": 0.2249835228,
				"z": -1.4697620024,
				"element": "O" 
			},
			{
				"x": -3.6691525814,
				"y": -0.5516721301,
				"z": 0.6487835242,
				"element": "C" 
			},
			{
				"x": -4.6926082673,
				"y": 0.361553319,
				"z": 0.8403167763,
				"element": "C" 
			},
			{
				"x": -5.7141021581,
				"y": 0.125025127,
				"z": 1.7844016012,
				"element": "C" 
			},
			{
				"x": -5.7187956319,
				"y": -1.0425571591,
				"z": 2.5132148682,
				"element": "C" 
			},
			{
				"x": -4.7202135347,
				"y": -2.0324029106,
				"z": 2.3137665448,
				"element": "C" 
			},
			{
				"x": -3.6738097443,
				"y": -1.7977858174,
				"z": 1.3591293356,
				"element": "C" 
			},
			{
				"x": -2.7292854018,
				"y": -2.8365860045,
				"z": 1.1272479196,
				"element": "C" 
			},
			{
				"x": -2.792255567,
				"y": -4.0214445888,
				"z": 1.8261880844,
				"element": "C" 
			},
			{
				"x": -3.8048613449,
				"y": -4.2364522032,
				"z": 2.7911471953,
				"element": "C" 
			},
			{
				"x": -4.7491887069,
				"y": -3.2636823833,
				"z": 3.0233292539,
				"element": "C" 
			},
			{
				"x": 4.8591407257,
				"y": 1.7251845087,
				"z": -5.0812779705,
				"element": "H" 
			},
			{
				"x": 4.4707439578,
				"y": 0.0822743397,
				"z": -5.6692489787,
				"element": "H" 
			},
			{
				"x": 6.1703127055,
				"y": 0.6103404623,
				"z": -5.5496657192,
				"element": "H" 
			},
			{
				"x": 2.7679873625,
				"y": 0.9698550987,
				"z": -4.3190639816,
				"element": "H" 
			},
			{
				"x": 0.9183370532,
				"y": 0.826305918,
				"z": -2.7054093941,
				"element": "H" 
			},
			{
				"x": 3.5700394545,
				"y": -0.8318238623,
				"z": 0.2361517277,
				"element": "H" 
			},
			{
				"x": 5.4406135998,
				"y": -0.7020894487,
				"z": -1.3956761162,
				"element": "H" 
			},
			{
				"x": 1.9805231022,
				"y": 0.1259821003,
				"z": 2.8347446058,
				"element": "H" 
			},
			{
				"x": -4.688633254,
				"y": 1.2797210759,
				"z": 0.2614950033,
				"element": "H" 
			},
			{
				"x": -6.4907777897,
				"y": 0.8689933826,
				"z": 1.9325367476,
				"element": "H" 
			},
			{
				"x": -6.4993727261,
				"y": -1.2314878977,
				"z": 3.24566368,
				"element": "H" 
			},
			{
				"x": -1.9591953086,
				"y": -2.7008839477,
				"z": 0.3753231345,
				"element": "H" 
			},
			{
				"x": -2.0620851196,
				"y": -4.8010970834,
				"z": 1.6304512872,
				"element": "H" 
			},
			{
				"x": -3.840126213,
				"y": -5.1749449472,
				"z": 3.3363268013,
				"element": "H" 
			},
			{
				"x": -5.5429284874,
				"y": -3.4267349442,
				"z": 3.7477218354,
				"element": "H" 
			}
		],
		 "valence_orbital": [ 
			{
				"type": "occ",
				"energy": -0.25443,
				"method": "rhf"
			},
			{
				"type": "occ",
				"energy": -0.25188,
				"method": "rhf"
			},
			{
				"type": "occ",
				"energy": -0.24049,
				"method": "rhf"
			},
			{
				"type": "occ",
				"energy": -0.22604,
				"method": "rhf"
			},
			{
				"type": "occ",
				"energy": -0.20238,
				"method": "rhf"
			},
			{
				"type": "unocc",
				"energy": -0.07887,
				"method": "rhf"
			},
			{
				"type": "unocc",
				"energy": -0.0487,
				"method": "rhf"
			},
			{
				"type": "unocc",
				"energy": -0.02184,
				"method": "rhf"
			},
			{
				"type": "unocc",
				"energy": -0.0109,
				"method": "rhf"
			},
			{
				"type": "unocc",
				"energy": -0.0021,
				"method": "rhf"
			}
		],
		"cosmo_sigma_profile": { 
			"-0.025": 0.0,
			"-0.024": 0.0,
			"-0.023": 0.0,
			"-0.022": 0.0,
			"-0.021": 0.0,
			"-0.02": 0.0,
			"-0.019": 0.0,
			"-0.018": 0.0,
			"-0.017": 0.0,
			"-0.016": 0.0,
			"-0.015": 0.0,
			"-0.014": 0.0114943049659,
			"-0.013": 0.931333895516,
			"-0.012": 1.5465124533,
			"-0.011": 1.73916679031,
			"-0.01": 0.91848794487,
			"-0.009": 0.707266196462,
			"-0.008": 1.2625977753,
			"-0.007": 9.35406749931,
			"-0.006": 26.0317740592,
			"-0.005": 32.6556809619,
			"-0.004": 32.9251241373,
			"-0.003": 27.1077547453,
			"-0.002": 23.9991866558,
			"-0.001": 24.6052359373,
			"0.0": 24.3054759615,
			"0.001": 24.9955995906,
			"0.002": 29.0411755424,
			"0.003": 37.655765255,
			"0.004": 32.2116705506,
			"0.005": 11.739109561,
			"0.006": 6.00564828433,
			"0.007": 5.95107957206,
			"0.008": 4.53445294534,
			"0.009": 5.4528205719,
			"0.01": 6.29197246251,
			"0.011": 6.74330257637,
			"0.012": 3.5288262425,
			"0.013": 1.46154225978,
			"0.014": 0.0118461362164,
			"0.015": 0.0,
			"0.016": 0.0,
			"0.017": 0.0,
			"0.018": 0.0,
			"0.019": 0.0,
			"0.02": 0.0,
			"0.021": 0.0,
			"0.022": 0.0,
			"0.023": 0.0,
			"0.024": 0.0,
			"0.025": 0.0
		}
	}
}
