{
	 "smiles": "NC1=C(N=C2C=CC=CN12)C1=CN=CC=C1", 
	 "Tm": 453.15, 
	 "num_atms": 26, 
	 "gaussian": { 
		 "optdone": 1, 
		 "sigma_profile": "yes", 
		 "theory": "DFT", 
		 "functional": "B3LYP", 
		 "basiset": "6-31G**", 
		 "properties": { 
			 "R2extent": 4549.928, 
			 "electric_dipole_moment_norm": 3.63411172365, 
			 "electric_quadrupole_moment_norm": 13.424464307, 
			 "total_energy": -682.301965895, 
			 "HOMO_LUMO_gap": 0.14961, 
			 "cosmo_polarized_energy": -15.53, 
			 "cosmo_cavitation_energy": 30.13, 
			 "cosmo_dispersion_energy": -22.51, 
			 "cosmo_repulsion_energy": 1.71, 
			 "cosmo_total_nonelectrostatic_energy": 9.33, 
			 "SMD_solvation_energy": 2.18 
		},
		"coords": [
			{
				"x": -0.2476310517,
				"y": -2.7455233575,
				"z": -0.8776695822,
				"element": "N" 
			},
			{
				"x": 0.0074460491,
				"y": -1.4117808741,
				"z": -0.5295673556,
				"element": "C" 
			},
			{
				"x": 1.0103144891,
				"y": -0.4864519622,
				"z": -0.8256060842,
				"element": "C" 
			},
			{
				"x": 0.7860969513,
				"y": 0.7057581383,
				"z": -0.1780626266,
				"element": "N" 
			},
			{
				"x": -0.3354511944,
				"y": 0.5436201719,
				"z": 0.5061674933,
				"element": "C" 
			},
			{
				"x": -1.0433001366,
				"y": 1.420057574,
				"z": 1.3621149805,
				"element": "C" 
			},
			{
				"x": -2.2107277159,
				"y": 0.9999037432,
				"z": 1.952398796,
				"element": "C" 
			},
			{
				"x": -2.7195364916,
				"y": -0.3091940799,
				"z": 1.7000143553,
				"element": "C" 
			},
			{
				"x": -2.0452708644,
				"y": -1.1680573898,
				"z": 0.8800901756,
				"element": "C" 
			},
			{
				"x": -0.8662193328,
				"y": -0.7498399,
				"z": 0.3050795005,
				"element": "N" 
			},
			{
				"x": 2.1959488368,
				"y": -0.6718679079,
				"z": -1.667640923,
				"element": "C" 
			},
			{
				"x": 2.2228358769,
				"y": -1.5463815287,
				"z": -2.7676826303,
				"element": "C" 
			},
			{
				"x": 3.2962870856,
				"y": -1.7694056503,
				"z": -3.5325630883,
				"element": "N" 
			},
			{
				"x": 4.4110709516,
				"y": -1.0892088507,
				"z": -3.2415398007,
				"element": "C" 
			},
			{
				"x": 4.4895968028,
				"y": -0.1570668123,
				"z": -2.2030923859,
				"element": "C" 
			},
			{
				"x": 3.3705525397,
				"y": 0.0532822162,
				"z": -1.406369536,
				"element": "C" 
			},
			{
				"x": 0.4143705202,
				"y": -3.0855777491,
				"z": -1.5636436548,
				"element": "H" 
			},
			{
				"x": -0.2181339377,
				"y": -3.3662733534,
				"z": -0.0702919345,
				"element": "H" 
			},
			{
				"x": -0.6339562524,
				"y": 2.4105420712,
				"z": 1.5243215058,
				"element": "H" 
			},
			{
				"x": -2.7578882547,
				"y": 1.6656086858,
				"z": 2.6116036466,
				"element": "H" 
			},
			{
				"x": -3.6517294841,
				"y": -0.6335506871,
				"z": 2.1482320815,
				"element": "H" 
			},
			{
				"x": -2.3798749998,
				"y": -2.1638110964,
				"z": 0.6179442008,
				"element": "H" 
			},
			{
				"x": 1.314634414,
				"y": -2.0622595033,
				"z": -3.0789591761,
				"element": "H" 
			},
			{
				"x": 5.2752858472,
				"y": -1.2887876265,
				"z": -3.8726837812,
				"element": "H" 
			},
			{
				"x": 5.412808894,
				"y": 0.3857047851,
				"z": -2.0238769588,
				"element": "H" 
			},
			{
				"x": 3.3780704578,
				"y": 0.7641609435,
				"z": -0.5868172175,
				"element": "H" 
			}
		],
		 "valence_orbital": [ 
			{
				"type": "occ",
				"energy": -0.26924,
				"method": "rhf"
			},
			{
				"type": "occ",
				"energy": -0.26831,
				"method": "rhf"
			},
			{
				"type": "occ",
				"energy": -0.25057,
				"method": "rhf"
			},
			{
				"type": "occ",
				"energy": -0.22676,
				"method": "rhf"
			},
			{
				"type": "occ",
				"energy": -0.19186,
				"method": "rhf"
			},
			{
				"type": "unocc",
				"energy": -0.04225,
				"method": "rhf"
			},
			{
				"type": "unocc",
				"energy": -0.01815,
				"method": "rhf"
			},
			{
				"type": "unocc",
				"energy": -0.0097,
				"method": "rhf"
			},
			{
				"type": "unocc",
				"energy": 0.01044,
				"method": "rhf"
			},
			{
				"type": "unocc",
				"energy": 0.0662,
				"method": "rhf"
			}
		],
		"cosmo_sigma_profile": { 
			"-0.025": 0.0,
			"-0.024": 0.0,
			"-0.023": 0.0,
			"-0.022": 0.0,
			"-0.021": 0.0,
			"-0.02": 0.0,
			"-0.019": 0.0,
			"-0.018": 0.0,
			"-0.017": 0.0,
			"-0.016": 0.0,
			"-0.015": 0.0,
			"-0.014": 0.0,
			"-0.013": 1.10899324473,
			"-0.012": 2.65393862432,
			"-0.011": 4.05032266886,
			"-0.01": 2.59279289817,
			"-0.009": 3.48740143506,
			"-0.008": 4.91417288612,
			"-0.007": 9.00135684814,
			"-0.006": 15.2259206108,
			"-0.005": 16.8837955837,
			"-0.004": 15.61882354,
			"-0.003": 9.64166008297,
			"-0.002": 11.8065216245,
			"-0.001": 10.8517812601,
			"0.0": 16.0898374699,
			"0.001": 17.9122047622,
			"0.002": 24.748796744,
			"0.003": 26.1287786726,
			"0.004": 12.4101810242,
			"0.005": 5.5447236703,
			"0.006": 4.50526578879,
			"0.007": 3.72861067112,
			"0.008": 3.70583213664,
			"0.009": 3.32011848849,
			"0.01": 2.72724472764,
			"0.011": 2.96763412312,
			"0.012": 2.70292799968,
			"0.013": 2.43911341087,
			"0.014": 1.84714140933,
			"0.015": 1.96996661441,
			"0.016": 1.48146409953,
			"0.017": 0.589642284735,
			"0.018": 0.0,
			"0.019": 0.0,
			"0.02": 0.0,
			"0.021": 0.0,
			"0.022": 0.0,
			"0.023": 0.0,
			"0.024": 0.0,
			"0.025": 0.0
		}
	}
}
