{
	 "smiles": "CC(=O)N1CCN(CC1)C(=O)CCC(O)=O", 
	 "Tm": 386.15, 
	 "num_atms": 32, 
	 "gaussian": { 
		 "optdone": 1, 
		 "sigma_profile": "yes", 
		 "theory": "DFT", 
		 "functional": "B3LYP", 
		 "basiset": "6-31G**", 
		 "properties": { 
			 "R2extent": 5287.4562, 
			 "electric_dipole_moment_norm": 1.29139219837, 
			 "electric_quadrupole_moment_norm": 27.0085259611, 
			 "total_energy": -801.150153493, 
			 "HOMO_LUMO_gap": 0.25448, 
			 "cosmo_polarized_energy": -22.72, 
			 "cosmo_cavitation_energy": 34.48, 
			 "cosmo_dispersion_energy": -24.5, 
			 "cosmo_repulsion_energy": 1.94, 
			 "cosmo_total_nonelectrostatic_energy": 11.92, 
			 "SMD_solvation_energy": 6.58 
		},
		"coords": [
			{
				"x": 2.9820005576,
				"y": 3.5827832246,
				"z": 0.1157709647,
				"element": "C" 
			},
			{
				"x": 1.4958295504,
				"y": 3.6309047575,
				"z": 0.4348331581,
				"element": "C" 
			},
			{
				"x": 0.826944689,
				"y": 4.639884136,
				"z": 0.2339746151,
				"element": "O" 
			},
			{
				"x": 0.945518071,
				"y": 2.4857824446,
				"z": 0.9676672009,
				"element": "N" 
			},
			{
				"x": 1.6968449566,
				"y": 1.2427375502,
				"z": 1.1846015228,
				"element": "C" 
			},
			{
				"x": 0.8362469251,
				"y": 0.2315090248,
				"z": 1.9409843715,
				"element": "C" 
			},
			{
				"x": -0.4310903359,
				"y": 0.0011932858,
				"z": 1.2477722772,
				"element": "N" 
			},
			{
				"x": -1.1265372536,
				"y": 1.1784635114,
				"z": 0.7085782269,
				"element": "C" 
			},
			{
				"x": -0.4888231359,
				"y": 2.4588332792,
				"z": 1.2462542793,
				"element": "C" 
			},
			{
				"x": -0.8477736462,
				"y": -1.2903692414,
				"z": 1.044831938,
				"element": "C" 
			},
			{
				"x": -0.2221232447,
				"y": -2.255276875,
				"z": 1.4786684168,
				"element": "O" 
			},
			{
				"x": -2.1513925682,
				"y": -1.4761055932,
				"z": 0.2665392777,
				"element": "C" 
			},
			{
				"x": -2.3700337643,
				"y": -2.9443443632,
				"z": -0.0827596277,
				"element": "C" 
			},
			{
				"x": -1.3852722675,
				"y": -3.4177183331,
				"z": -1.1309319568,
				"element": "C" 
			},
			{
				"x": -1.3700373151,
				"y": -4.7659490257,
				"z": -1.2308788892,
				"element": "O" 
			},
			{
				"x": -0.7063667251,
				"y": -2.7015911674,
				"z": -1.8354919238,
				"element": "O" 
			},
			{
				"x": 3.2285107571,
				"y": 2.7627761993,
				"z": -0.5667100596,
				"element": "H" 
			},
			{
				"x": 3.2522498946,
				"y": 4.5312100355,
				"z": -0.3470221534,
				"element": "H" 
			},
			{
				"x": 3.5803475954,
				"y": 3.4463208352,
				"z": 1.0233962228,
				"element": "H" 
			},
			{
				"x": 2.6040295051,
				"y": 1.437508132,
				"z": 1.7685047376,
				"element": "H" 
			},
			{
				"x": 2.0077007808,
				"y": 0.8029069244,
				"z": 0.2269274913,
				"element": "H" 
			},
			{
				"x": 0.6576144341,
				"y": 0.5815840473,
				"z": 2.9664501992,
				"element": "H" 
			},
			{
				"x": 1.3469271153,
				"y": -0.7295572117,
				"z": 2.0055631893,
				"element": "H" 
			},
			{
				"x": -1.0791787178,
				"y": 1.1861592384,
				"z": -0.3887287208,
				"element": "H" 
			},
			{
				"x": -2.1846394832,
				"y": 1.1646458419,
				"z": 0.9952344849,
				"element": "H" 
			},
			{
				"x": -0.925787288,
				"y": 3.3334826347,
				"z": 0.7634397818,
				"element": "H" 
			},
			{
				"x": -0.6771622238,
				"y": 2.5486886235,
				"z": 2.3247422645,
				"element": "H" 
			},
			{
				"x": -2.9863582852,
				"y": -1.1060165498,
				"z": 0.8749921961,
				"element": "H" 
			},
			{
				"x": -2.1311606658,
				"y": -0.8772289955,
				"z": -0.6487406634,
				"element": "H" 
			},
			{
				"x": -3.379308879,
				"y": -3.0995045763,
				"z": -0.4834685863,
				"element": "H" 
			},
			{
				"x": -2.2670958908,
				"y": -3.5794053299,
				"z": 0.7995298782,
				"element": "H" 
			},
			{
				"x": -0.728423142,
				"y": -4.9775064639,
				"z": -1.9296241137,
				"element": "H" 
			}
		],
		 "valence_orbital": [ 
			{
				"type": "occ",
				"energy": -0.27458,
				"method": "rhf"
			},
			{
				"type": "occ",
				"energy": -0.25589,
				"method": "rhf"
			},
			{
				"type": "occ",
				"energy": -0.24738,
				"method": "rhf"
			},
			{
				"type": "occ",
				"energy": -0.24331,
				"method": "rhf"
			},
			{
				"type": "occ",
				"energy": -0.23995,
				"method": "rhf"
			},
			{
				"type": "unocc",
				"energy": 0.01453,
				"method": "rhf"
			},
			{
				"type": "unocc",
				"energy": 0.02254,
				"method": "rhf"
			},
			{
				"type": "unocc",
				"energy": 0.0277,
				"method": "rhf"
			},
			{
				"type": "unocc",
				"energy": 0.06624,
				"method": "rhf"
			},
			{
				"type": "unocc",
				"energy": 0.08116,
				"method": "rhf"
			}
		],
		"cosmo_sigma_profile": { 
			"-0.025": 0.0,
			"-0.024": 0.0,
			"-0.023": 0.0,
			"-0.022": 0.0,
			"-0.021": 0.0,
			"-0.02": 0.0,
			"-0.019": 0.0,
			"-0.018": 0.510839206381,
			"-0.017": 1.33788749668,
			"-0.016": 0.723167245041,
			"-0.015": 0.479363637948,
			"-0.014": 0.65762725018,
			"-0.013": 0.861956504451,
			"-0.012": 0.843542607586,
			"-0.011": 0.541963894903,
			"-0.01": 0.546050419749,
			"-0.009": 0.475474897907,
			"-0.008": 0.960471487273,
			"-0.007": 5.16604236326,
			"-0.006": 20.7105102976,
			"-0.005": 36.9612688872,
			"-0.004": 33.7274223688,
			"-0.003": 28.2000749242,
			"-0.002": 17.5137565571,
			"-0.001": 13.8899332727,
			"0.0": 11.7367564658,
			"0.001": 7.85549042865,
			"0.002": 8.18672987953,
			"0.003": 5.37985889262,
			"0.004": 4.88746200733,
			"0.005": 6.78437625986,
			"0.006": 5.9752243173,
			"0.007": 5.62380947035,
			"0.008": 7.05801387,
			"0.009": 5.71385271325,
			"0.01": 6.39360898743,
			"0.011": 5.8462415884,
			"0.012": 7.98160375976,
			"0.013": 5.81769997358,
			"0.014": 7.97183341333,
			"0.015": 1.80590160148,
			"0.016": 0.103105004386,
			"0.017": 0.0,
			"0.018": 0.0,
			"0.019": 0.0,
			"0.02": 0.0,
			"0.021": 0.0,
			"0.022": 0.0,
			"0.023": 0.0,
			"0.024": 0.0,
			"0.025": 0.0
		}
	}
}
