{
	 "smiles": "CC(C)C1=CC(=CC=C1)C1=CC=C(O1)C(O)=O", 
	 "Tm": 358.15, 
	 "num_atms": 31, 
	 "gaussian": { 
		 "optdone": 1, 
		 "sigma_profile": "yes", 
		 "theory": "DFT", 
		 "functional": "B3LYP", 
		 "basiset": "6-31G**", 
		 "properties": { 
			 "R2extent": 6253.2719, 
			 "electric_dipole_moment_norm": 5.90337562671, 
			 "electric_quadrupole_moment_norm": 32.9958766195, 
			 "total_energy": -767.609529381, 
			 "HOMO_LUMO_gap": 0.1604, 
			 "cosmo_polarized_energy": -13.75, 
			 "cosmo_cavitation_energy": 35.39, 
			 "cosmo_dispersion_energy": -24.69, 
			 "cosmo_repulsion_energy": 1.92, 
			 "cosmo_total_nonelectrostatic_energy": 12.62, 
			 "SMD_solvation_energy": 7.66 
		},
		"coords": [
			{
				"x": -0.5638193943,
				"y": 3.6707519175,
				"z": 2.438485182,
				"element": "C" 
			},
			{
				"x": 0.6635545567,
				"y": 3.0277359341,
				"z": 1.765507431,
				"element": "C" 
			},
			{
				"x": 1.0050697342,
				"y": 3.7356388584,
				"z": 0.440825773,
				"element": "C" 
			},
			{
				"x": 0.4847285362,
				"y": 1.5263161346,
				"z": 1.5771106804,
				"element": "C" 
			},
			{
				"x": -0.5297507578,
				"y": 1.0169030653,
				"z": 0.7581619652,
				"element": "C" 
			},
			{
				"x": -0.7045944221,
				"y": -0.3644744999,
				"z": 0.5776142781,
				"element": "C" 
			},
			{
				"x": 0.1634205246,
				"y": -1.2533952373,
				"z": 1.2381295255,
				"element": "C" 
			},
			{
				"x": 1.173774331,
				"y": -0.7580449332,
				"z": 2.053477568,
				"element": "C" 
			},
			{
				"x": 1.3345071622,
				"y": 0.619578895,
				"z": 2.2226189764,
				"element": "C" 
			},
			{
				"x": -1.7654381897,
				"y": -0.8824439053,
				"z": -0.2785168728,
				"element": "C" 
			},
			{
				"x": -2.1600119778,
				"y": -2.1550496189,
				"z": -0.628863566,
				"element": "C" 
			},
			{
				"x": -3.2700323677,
				"y": -2.0240444312,
				"z": -1.5049169471,
				"element": "C" 
			},
			{
				"x": -3.4974619697,
				"y": -0.6829225336,
				"z": -1.6457143215,
				"element": "C" 
			},
			{
				"x": -2.5829268173,
				"y": 0.0234626647,
				"z": -0.899891866,
				"element": "O" 
			},
			{
				"x": -4.4993551758,
				"y": 0.0636178788,
				"z": -2.4180741594,
				"element": "C" 
			},
			{
				"x": -4.4268536449,
				"y": 1.4154627841,
				"z": -2.3208684944,
				"element": "O" 
			},
			{
				"x": -5.3386347214,
				"y": -0.479821878,
				"z": -3.0994048841,
				"element": "O" 
			},
			{
				"x": -0.7872529568,
				"y": 3.1927537537,
				"z": 3.3972192277,
				"element": "H" 
			},
			{
				"x": -0.3888311455,
				"y": 4.7364637646,
				"z": 2.6208110394,
				"element": "H" 
			},
			{
				"x": -1.4552092431,
				"y": 3.5848064038,
				"z": 1.8073242209,
				"element": "H" 
			},
			{
				"x": 1.5180324258,
				"y": 3.1642884908,
				"z": 2.441046772,
				"element": "H" 
			},
			{
				"x": 0.1830647808,
				"y": 3.6533683958,
				"z": -0.2787900537,
				"element": "H" 
			},
			{
				"x": 1.8975681031,
				"y": 3.3035265584,
				"z": -0.0220999582,
				"element": "H" 
			},
			{
				"x": 1.1906036163,
				"y": 4.8016162547,
				"z": 0.6106804804,
				"element": "H" 
			},
			{
				"x": -1.2006806526,
				"y": 1.6994949313,
				"z": 0.2476420017,
				"element": "H" 
			},
			{
				"x": 0.0461865548,
				"y": -2.3249950512,
				"z": 1.1125553041,
				"element": "H" 
			},
			{
				"x": 1.8418729796,
				"y": -1.4472451683,
				"z": 2.5616864008,
				"element": "H" 
			},
			{
				"x": 2.1286587245,
				"y": 0.9947235155,
				"z": 2.8630186605,
				"element": "H" 
			},
			{
				"x": -1.7063037341,
				"y": -3.0767919253,
				"z": -0.2963095992,
				"element": "H" 
			},
			{
				"x": -3.8408304589,
				"y": -2.8074966112,
				"z": -1.980516208,
				"element": "H" 
			},
			{
				"x": -3.6950544001,
				"y": 1.6600155923,
				"z": -1.7335485568,
				"element": "H" 
			}
		],
		 "valence_orbital": [ 
			{
				"type": "occ",
				"energy": -0.30302,
				"method": "rhf"
			},
			{
				"type": "occ",
				"energy": -0.28787,
				"method": "rhf"
			},
			{
				"type": "occ",
				"energy": -0.27418,
				"method": "rhf"
			},
			{
				"type": "occ",
				"energy": -0.25713,
				"method": "rhf"
			},
			{
				"type": "occ",
				"energy": -0.22379,
				"method": "rhf"
			},
			{
				"type": "unocc",
				"energy": -0.06339,
				"method": "rhf"
			},
			{
				"type": "unocc",
				"energy": -0.01576,
				"method": "rhf"
			},
			{
				"type": "unocc",
				"energy": -0.01028,
				"method": "rhf"
			},
			{
				"type": "unocc",
				"energy": 0.05886,
				"method": "rhf"
			},
			{
				"type": "unocc",
				"energy": 0.05952,
				"method": "rhf"
			}
		],
		"cosmo_sigma_profile": { 
			"-0.025": 0.0,
			"-0.024": 0.0,
			"-0.023": 0.0,
			"-0.022": 0.0,
			"-0.021": 0.0,
			"-0.02": 0.0,
			"-0.019": 0.0,
			"-0.018": 0.0,
			"-0.017": 0.0,
			"-0.016": 0.301395612869,
			"-0.015": 0.776170048926,
			"-0.014": 1.10412121014,
			"-0.013": 0.820880410014,
			"-0.012": 0.324487477927,
			"-0.011": 0.590196000483,
			"-0.01": 1.48344761377,
			"-0.009": 2.10837174721,
			"-0.008": 5.69803332918,
			"-0.007": 5.46502868693,
			"-0.006": 8.92748618228,
			"-0.005": 13.8329981172,
			"-0.004": 16.7096900005,
			"-0.003": 21.4853599672,
			"-0.002": 24.2586178086,
			"-0.001": 26.6791235215,
			"0.0": 29.9701067786,
			"0.001": 35.7455818388,
			"0.002": 20.8133340441,
			"0.003": 14.2326761063,
			"0.004": 10.9366691505,
			"0.005": 10.4798977827,
			"0.006": 2.17960778727,
			"0.007": 2.36824768911,
			"0.008": 3.23703336997,
			"0.009": 3.25152815149,
			"0.01": 4.83288896475,
			"0.011": 4.58715527876,
			"0.012": 5.95404029287,
			"0.013": 1.9507158518,
			"0.014": 0.105958672205,
			"0.015": 0.0,
			"0.016": 0.0,
			"0.017": 0.0,
			"0.018": 0.0,
			"0.019": 0.0,
			"0.02": 0.0,
			"0.021": 0.0,
			"0.022": 0.0,
			"0.023": 0.0,
			"0.024": 0.0,
			"0.025": 0.0
		}
	}
}
