{
	 "smiles": "CC(=O)NC1=CC=C(C)C(Cl)=C1", 
	 "Tm": 376.65, 
	 "num_atms": 22, 
	 "gaussian": { 
		 "optdone": 1, 
		 "sigma_profile": "yes", 
		 "theory": "DFT", 
		 "functional": "B3LYP", 
		 "basiset": "6-31G**", 
		 "properties": { 
			 "R2extent": 3672.2561, 
			 "electric_dipole_moment_norm": 2.46948289526, 
			 "electric_quadrupole_moment_norm": 17.1967311077, 
			 "total_energy": -939.17637151, 
			 "HOMO_LUMO_gap": 0.20159, 
			 "cosmo_polarized_energy": -11.07, 
			 "cosmo_cavitation_energy": 27.41, 
			 "cosmo_dispersion_energy": -20.09, 
			 "cosmo_repulsion_energy": 1.6, 
			 "cosmo_total_nonelectrostatic_energy": 8.91, 
			 "SMD_solvation_energy": 5.3 
		},
		"coords": [
			{
				"x": 0.5998067344,
				"y": -2.9712984264,
				"z": -3.6244327514,
				"element": "C" 
			},
			{
				"x": -0.1488508775,
				"y": -3.6213878236,
				"z": -2.4812070008,
				"element": "C" 
			},
			{
				"x": -0.5113361453,
				"y": -4.788134773,
				"z": -2.5294024204,
				"element": "O" 
			},
			{
				"x": -0.4423869014,
				"y": -2.8908976056,
				"z": -1.3360048307,
				"element": "N" 
			},
			{
				"x": -0.2201217903,
				"y": -1.5788490763,
				"z": -0.8841956971,
				"element": "C" 
			},
			{
				"x": -0.7119266312,
				"y": -1.2601816162,
				"z": 0.3945843048,
				"element": "C" 
			},
			{
				"x": -0.5414291714,
				"y": 0.0100726261,
				"z": 0.9278219852,
				"element": "C" 
			},
			{
				"x": 0.1202025251,
				"y": 1.0337717689,
				"z": 0.2347851592,
				"element": "C" 
			},
			{
				"x": 0.2942199231,
				"y": 2.4054341969,
				"z": 0.8322918353,
				"element": "C" 
			},
			{
				"x": 0.5996119728,
				"y": 0.6908047537,
				"z": -1.0345850726,
				"element": "C" 
			},
			{
				"x": 1.4484747524,
				"y": 1.9019545529,
				"z": -1.9957889188,
				"element": "Cl" 
			},
			{
				"x": 0.4461892489,
				"y": -0.5745104296,
				"z": -1.6009180405,
				"element": "C" 
			},
			{
				"x": 0.049585459,
				"y": -2.1163194276,
				"z": -4.0294857185,
				"element": "H" 
			},
			{
				"x": 1.5892194143,
				"y": -2.6246092181,
				"z": -3.3102965302,
				"element": "H" 
			},
			{
				"x": 0.7153266926,
				"y": -3.7239655735,
				"z": -4.4036783522,
				"element": "H" 
			},
			{
				"x": -0.9427286432,
				"y": -3.4815686693,
				"z": -0.6821687071,
				"element": "H" 
			},
			{
				"x": -1.2322694067,
				"y": -2.0198193438,
				"z": 0.9718882914,
				"element": "H" 
			},
			{
				"x": -0.9342409043,
				"y": 0.2214518626,
				"z": 1.9186284666,
				"element": "H" 
			},
			{
				"x": 1.3527211315,
				"y": 2.6722608447,
				"z": 0.9233805016,
				"element": "H" 
			},
			{
				"x": -0.1736665749,
				"y": 3.1764402935,
				"z": 0.210561676,
				"element": "H" 
			},
			{
				"x": -0.1554031917,
				"y": 2.4511212971,
				"z": 1.8274028317,
				"element": "H" 
			},
			{
				"x": 0.8502023841,
				"y": -0.7440702135,
				"z": -2.5859810115,
				"element": "H" 
			}
		],
		 "valence_orbital": [ 
			{
				"type": "occ",
				"energy": -0.3168,
				"method": "rhf"
			},
			{
				"type": "occ",
				"energy": -0.30288,
				"method": "rhf"
			},
			{
				"type": "occ",
				"energy": -0.26084,
				"method": "rhf"
			},
			{
				"type": "occ",
				"energy": -0.25704,
				"method": "rhf"
			},
			{
				"type": "occ",
				"energy": -0.22327,
				"method": "rhf"
			},
			{
				"type": "unocc",
				"energy": -0.02168,
				"method": "rhf"
			},
			{
				"type": "unocc",
				"energy": -0.02052,
				"method": "rhf"
			},
			{
				"type": "unocc",
				"energy": 0.02592,
				"method": "rhf"
			},
			{
				"type": "unocc",
				"energy": 0.03296,
				"method": "rhf"
			},
			{
				"type": "unocc",
				"energy": 0.07757,
				"method": "rhf"
			}
		],
		"cosmo_sigma_profile": { 
			"-0.025": 0.0,
			"-0.024": 0.0,
			"-0.023": 0.0,
			"-0.022": 0.0,
			"-0.021": 0.0,
			"-0.02": 0.0,
			"-0.019": 0.0,
			"-0.018": 0.0,
			"-0.017": 0.0,
			"-0.016": 0.0,
			"-0.015": 0.0103659222022,
			"-0.014": 1.10187509072,
			"-0.013": 1.17845152706,
			"-0.012": 0.922809355233,
			"-0.011": 1.12377846221,
			"-0.01": 1.45059803093,
			"-0.009": 0.980172730074,
			"-0.008": 1.85761592784,
			"-0.007": 6.86140513861,
			"-0.006": 12.2822444566,
			"-0.005": 13.4296896987,
			"-0.004": 13.7807555874,
			"-0.003": 13.9270255554,
			"-0.002": 17.5811502069,
			"-0.001": 19.9239519983,
			"0.0": 17.7568958609,
			"0.001": 14.8160950093,
			"0.002": 17.4731768553,
			"0.003": 18.0802415137,
			"0.004": 18.0833074789,
			"0.005": 8.4169574842,
			"0.006": 1.12981077656,
			"0.007": 1.38985068192,
			"0.008": 0.707590428484,
			"0.009": 1.47897455108,
			"0.01": 1.70096676304,
			"0.011": 1.94083587329,
			"0.012": 2.40618191057,
			"0.013": 5.51048959425,
			"0.014": 2.52659999745,
			"0.015": 0.0940755778676,
			"0.016": 0.0,
			"0.017": 0.0,
			"0.018": 0.0,
			"0.019": 0.0,
			"0.02": 0.0,
			"0.021": 0.0,
			"0.022": 0.0,
			"0.023": 0.0,
			"0.024": 0.0,
			"0.025": 0.0
		}
	}
}
