{
	 "smiles": "CCOC(=O)C1=CN=C(S1)N1CCNCC1", 
	 "Tm": 347.15, 
	 "num_atms": 31, 
	 "gaussian": { 
		 "optdone": 1, 
		 "sigma_profile": "yes", 
		 "theory": "DFT", 
		 "functional": "B3LYP", 
		 "basiset": "6-31G**", 
		 "properties": { 
			 "R2extent": 6410.9275, 
			 "electric_dipole_moment_norm": 3.76067471872, 
			 "electric_quadrupole_moment_norm": 10.2309200231, 
			 "total_energy": -1102.99085034, 
			 "HOMO_LUMO_gap": 0.16973, 
			 "cosmo_polarized_energy": -13.98, 
			 "cosmo_cavitation_energy": 35.0, 
			 "cosmo_dispersion_energy": -26.2, 
			 "cosmo_repulsion_energy": 2.02, 
			 "cosmo_total_nonelectrostatic_energy": 10.83, 
			 "SMD_solvation_energy": 2.21 
		},
		"coords": [
			{
				"x": -4.4939834337,
				"y": 1.841829242,
				"z": -3.9612640185,
				"element": "C" 
			},
			{
				"x": -3.2836021852,
				"y": 1.1097226529,
				"z": -4.5221202414,
				"element": "C" 
			},
			{
				"x": -2.315337347,
				"y": 0.8227383149,
				"z": -3.4882254633,
				"element": "O" 
			},
			{
				"x": -2.5145222235,
				"y": -0.3180249448,
				"z": -2.7749448782,
				"element": "C" 
			},
			{
				"x": -3.4373350919,
				"y": -1.0904898701,
				"z": -2.9675339962,
				"element": "O" 
			},
			{
				"x": -1.4860054588,
				"y": -0.5004612908,
				"z": -1.7579602977,
				"element": "C" 
			},
			{
				"x": -1.3963572523,
				"y": -1.5452963459,
				"z": -0.8726656154,
				"element": "C" 
			},
			{
				"x": -0.3597468609,
				"y": -1.5394461402,
				"z": 0.0075757372,
				"element": "N" 
			},
			{
				"x": 0.3986320653,
				"y": -0.4735328672,
				"z": -0.183594841,
				"element": "C" 
			},
			{
				"x": -0.1498779403,
				"y": 0.6122520294,
				"z": -1.4739816639,
				"element": "S" 
			},
			{
				"x": 1.5210555705,
				"y": -0.203600265,
				"z": 0.5264408318,
				"element": "N" 
			},
			{
				"x": 2.2764992219,
				"y": 1.0302076762,
				"z": 0.3108693645,
				"element": "C" 
			},
			{
				"x": 3.6075758772,
				"y": 0.9625431572,
				"z": 1.0876757645,
				"element": "C" 
			},
			{
				"x": 4.2428535319,
				"y": -0.346943082,
				"z": 1.0057993435,
				"element": "N" 
			},
			{
				"x": 3.4008376026,
				"y": -1.4144259887,
				"z": 1.5771275112,
				"element": "C" 
			},
			{
				"x": 1.904160498,
				"y": -1.0397944631,
				"z": 1.665209217,
				"element": "C" 
			},
			{
				"x": -5.0349802835,
				"y": 1.2026430438,
				"z": -3.2593849128,
				"element": "H" 
			},
			{
				"x": -5.1752562109,
				"y": 2.1133774691,
				"z": -4.7747917454,
				"element": "H" 
			},
			{
				"x": -4.1910120794,
				"y": 2.7581417365,
				"z": -3.4459067497,
				"element": "H" 
			},
			{
				"x": -3.5784279338,
				"y": 0.1715900018,
				"z": -4.9984740052,
				"element": "H" 
			},
			{
				"x": -2.7395836961,
				"y": 1.7271045336,
				"z": -5.2413156746,
				"element": "H" 
			},
			{
				"x": -2.1136142345,
				"y": -2.3581039377,
				"z": -0.8544477587,
				"element": "H" 
			},
			{
				"x": 2.485842118,
				"y": 1.1288876738,
				"z": -0.7636711209,
				"element": "H" 
			},
			{
				"x": 1.6887297868,
				"y": 1.9133780428,
				"z": 0.6094149935,
				"element": "H" 
			},
			{
				"x": 4.2868517835,
				"y": 1.7266716632,
				"z": 0.697363519,
				"element": "H" 
			},
			{
				"x": 3.4431094767,
				"y": 1.2031552698,
				"z": 2.1444430145,
				"element": "H" 
			},
			{
				"x": 4.437629839,
				"y": -0.557612265,
				"z": 0.0313771608,
				"element": "H" 
			},
			{
				"x": 3.5236058586,
				"y": -2.3139833326,
				"z": 0.9662607452,
				"element": "H" 
			},
			{
				"x": 3.7506602862,
				"y": -1.6640665338,
				"z": 2.5883448312,
				"element": "H" 
			},
			{
				"x": 1.270148084,
				"y": -1.9258225854,
				"z": 1.6571878021,
				"element": "H" 
			},
			{
				"x": 1.6987506312,
				"y": -0.4963385948,
				"z": 2.5980931468,
				"element": "H" 
			}
		],
		 "valence_orbital": [ 
			{
				"type": "occ",
				"energy": -0.27604,
				"method": "rhf"
			},
			{
				"type": "occ",
				"energy": -0.27537,
				"method": "rhf"
			},
			{
				"type": "occ",
				"energy": -0.26412,
				"method": "rhf"
			},
			{
				"type": "occ",
				"energy": -0.23467,
				"method": "rhf"
			},
			{
				"type": "occ",
				"energy": -0.20468,
				"method": "rhf"
			},
			{
				"type": "unocc",
				"energy": -0.03495,
				"method": "rhf"
			},
			{
				"type": "unocc",
				"energy": 0.01889,
				"method": "rhf"
			},
			{
				"type": "unocc",
				"energy": 0.03618,
				"method": "rhf"
			},
			{
				"type": "unocc",
				"energy": 0.06272,
				"method": "rhf"
			},
			{
				"type": "unocc",
				"energy": 0.08458,
				"method": "rhf"
			}
		],
		"cosmo_sigma_profile": { 
			"-0.025": 0.0,
			"-0.024": 0.0,
			"-0.023": 0.0,
			"-0.022": 0.0,
			"-0.021": 0.0,
			"-0.02": 0.0,
			"-0.019": 0.0,
			"-0.018": 0.0,
			"-0.017": 0.0,
			"-0.016": 0.0,
			"-0.015": 0.0,
			"-0.014": 0.0,
			"-0.013": 0.0,
			"-0.012": 0.0,
			"-0.011": 0.242848428844,
			"-0.01": 1.40604387553,
			"-0.009": 1.69587691233,
			"-0.008": 2.3939805569,
			"-0.007": 3.09258617461,
			"-0.006": 8.02712817257,
			"-0.005": 25.4400319392,
			"-0.004": 32.1497280079,
			"-0.003": 31.3227210212,
			"-0.002": 22.9959781844,
			"-0.001": 20.3246341522,
			"0.0": 22.6856344173,
			"0.001": 17.9300643046,
			"0.002": 17.0059066152,
			"0.003": 14.3493727254,
			"0.004": 12.1590124569,
			"0.005": 7.57751798552,
			"0.006": 6.412264998,
			"0.007": 3.92653816095,
			"0.008": 3.9749738394,
			"0.009": 3.23990737082,
			"0.01": 3.88364995121,
			"0.011": 3.34598007688,
			"0.012": 6.28440189538,
			"0.013": 3.33869471926,
			"0.014": 0.0310465483202,
			"0.015": 0.220693719675,
			"0.016": 1.1827463503,
			"0.017": 0.364559640118,
			"0.018": 0.271243069906,
			"0.019": 0.0,
			"0.02": 0.0,
			"0.021": 0.0,
			"0.022": 0.0,
			"0.023": 0.0,
			"0.024": 0.0,
			"0.025": 0.0
		}
	}
}
