{
	 "smiles": "CC(=S)NC1=CC=CC=C1", 
	 "Tm": 350.65, 
	 "num_atms": 19, 
	 "gaussian": { 
		 "optdone": 1, 
		 "sigma_profile": "yes", 
		 "theory": "DFT", 
		 "functional": "B3LYP", 
		 "basiset": "6-31G**", 
		 "properties": { 
			 "R2extent": 2456.9454, 
			 "electric_dipole_moment_norm": 4.95532343748, 
			 "electric_quadrupole_moment_norm": 16.5310125776, 
			 "total_energy": -763.221177441, 
			 "HOMO_LUMO_gap": 0.15953, 
			 "cosmo_polarized_energy": -12.55, 
			 "cosmo_cavitation_energy": 24.3, 
			 "cosmo_dispersion_energy": -18.27, 
			 "cosmo_repulsion_energy": 1.44, 
			 "cosmo_total_nonelectrostatic_energy": 7.47, 
			 "SMD_solvation_energy": 3.28 
		},
		"coords": [
			{
				"x": -1.5472892793,
				"y": 1.5561513414,
				"z": -1.756624909,
				"element": "C" 
			},
			{
				"x": -0.7698846711,
				"y": 2.2766948586,
				"z": -0.6805805124,
				"element": "C" 
			},
			{
				"x": -1.2141543747,
				"y": 3.7908336807,
				"z": -0.1394755296,
				"element": "S" 
			},
			{
				"x": 0.330510859,
				"y": 1.6684708147,
				"z": -0.1617812241,
				"element": "N" 
			},
			{
				"x": 0.9046945843,
				"y": 0.3943505695,
				"z": -0.4089709696,
				"element": "C" 
			},
			{
				"x": 2.3039393705,
				"y": 0.3070344243,
				"z": -0.4653179031,
				"element": "C" 
			},
			{
				"x": 2.922683493,
				"y": -0.9256591751,
				"z": -0.6586293281,
				"element": "C" 
			},
			{
				"x": 2.1557972393,
				"y": -2.0835562164,
				"z": -0.8071364892,
				"element": "C" 
			},
			{
				"x": 0.764475553,
				"y": -1.9985381983,
				"z": -0.7415274324,
				"element": "C" 
			},
			{
				"x": 0.1358492096,
				"y": -0.77128165,
				"z": -0.5299312198,
				"element": "C" 
			},
			{
				"x": -2.0410705897,
				"y": 2.2969359209,
				"z": -2.3842955158,
				"element": "H" 
			},
			{
				"x": -0.9123277905,
				"y": 0.9106922436,
				"z": -2.3701383274,
				"element": "H" 
			},
			{
				"x": -2.3298639483,
				"y": 0.9340634186,
				"z": -1.3077976985,
				"element": "H" 
			},
			{
				"x": 0.8421923909,
				"y": 2.2646926823,
				"z": 0.4797597283,
				"element": "H" 
			},
			{
				"x": 2.8989680463,
				"y": 1.2110174608,
				"z": -0.368432736,
				"element": "H" 
			},
			{
				"x": 4.0064531344,
				"y": -0.978760313,
				"z": -0.7018540697,
				"element": "H" 
			},
			{
				"x": 2.6383805109,
				"y": -3.043215199,
				"z": -0.9637691845,
				"element": "H" 
			},
			{
				"x": 0.1590886074,
				"y": -2.8952091975,
				"z": -0.8358848875,
				"element": "H" 
			},
			{
				"x": -0.942042345,
				"y": -0.7247174661,
				"z": -0.4329117916,
				"element": "H" 
			}
		],
		 "valence_orbital": [ 
			{
				"type": "occ",
				"energy": -0.34486,
				"method": "rhf"
			},
			{
				"type": "occ",
				"energy": -0.2732,
				"method": "rhf"
			},
			{
				"type": "occ",
				"energy": -0.2697,
				"method": "rhf"
			},
			{
				"type": "occ",
				"energy": -0.21913,
				"method": "rhf"
			},
			{
				"type": "occ",
				"energy": -0.20704,
				"method": "rhf"
			},
			{
				"type": "unocc",
				"energy": -0.04751,
				"method": "rhf"
			},
			{
				"type": "unocc",
				"energy": -0.02062,
				"method": "rhf"
			},
			{
				"type": "unocc",
				"energy": 7e-05,
				"method": "rhf"
			},
			{
				"type": "unocc",
				"energy": 0.06871,
				"method": "rhf"
			},
			{
				"type": "unocc",
				"energy": 0.0834,
				"method": "rhf"
			}
		],
		"cosmo_sigma_profile": { 
			"-0.025": 0.0,
			"-0.024": 0.0,
			"-0.023": 0.0,
			"-0.022": 0.0,
			"-0.021": 0.0,
			"-0.02": 0.0,
			"-0.019": 0.0,
			"-0.018": 0.0,
			"-0.017": 0.0,
			"-0.016": 0.0,
			"-0.015": 0.182195427238,
			"-0.014": 0.974508062435,
			"-0.013": 1.33686814473,
			"-0.012": 0.718328541317,
			"-0.011": 1.24389155526,
			"-0.01": 1.17338396882,
			"-0.009": 1.31430632045,
			"-0.008": 3.43016235236,
			"-0.007": 6.26395701691,
			"-0.006": 11.1724875936,
			"-0.005": 16.2969857452,
			"-0.004": 16.0542746184,
			"-0.003": 14.6090318435,
			"-0.002": 14.4459643727,
			"-0.001": 13.4624740039,
			"0.0": 10.276288086,
			"0.001": 9.88793666761,
			"0.002": 8.55018221221,
			"0.003": 10.9453912066,
			"0.004": 12.5996423608,
			"0.005": 8.90883324558,
			"0.006": 4.67836164617,
			"0.007": 3.94915337649,
			"0.008": 4.40112480243,
			"0.009": 7.36187314153,
			"0.01": 5.07889306558,
			"0.011": 4.24640393748,
			"0.012": 2.5312833189,
			"0.013": 0.498169879929,
			"0.014": 0.0,
			"0.015": 0.0,
			"0.016": 0.0,
			"0.017": 0.0,
			"0.018": 0.0,
			"0.019": 0.0,
			"0.02": 0.0,
			"0.021": 0.0,
			"0.022": 0.0,
			"0.023": 0.0,
			"0.024": 0.0,
			"0.025": 0.0
		}
	}
}
