{
	 "smiles": "CCC(N)(CO)CO", 
	 "Tm": 310.65, 
	 "num_atms": 21, 
	 "gaussian": { 
		 "optdone": 1, 
		 "sigma_profile": "yes", 
		 "theory": "DFT", 
		 "functional": "B3LYP", 
		 "basiset": "6-31G**", 
		 "properties": { 
			 "R2extent": 1165.6092, 
			 "electric_dipole_moment_norm": 1.32717823219, 
			 "electric_quadrupole_moment_norm": 7.78214114303, 
			 "total_energy": -403.547644843, 
			 "HOMO_LUMO_gap": 0.28929, 
			 "cosmo_polarized_energy": -12.57, 
			 "cosmo_cavitation_energy": 22.14, 
			 "cosmo_dispersion_energy": -16.12, 
			 "cosmo_repulsion_energy": 1.34, 
			 "cosmo_total_nonelectrostatic_energy": 7.36, 
			 "SMD_solvation_energy": 3.21 
		},
		"coords": [
			{
				"x": 1.3126467583,
				"y": 1.4061622547,
				"z": 2.0959988556,
				"element": "C" 
			},
			{
				"x": 0.5138148569,
				"y": 0.3182447012,
				"z": 1.3698544602,
				"element": "C" 
			},
			{
				"x": 0.2410024833,
				"y": 0.5849011627,
				"z": -0.1307753206,
				"element": "C" 
			},
			{
				"x": 1.5357324861,
				"y": 0.7061114259,
				"z": -0.8204354624,
				"element": "N" 
			},
			{
				"x": -0.6051577279,
				"y": -0.5713024882,
				"z": -0.7158555161,
				"element": "C" 
			},
			{
				"x": 0.0832511858,
				"y": -1.8211315923,
				"z": -0.6823343618,
				"element": "O" 
			},
			{
				"x": -0.5172930725,
				"y": 1.9102919526,
				"z": -0.3394115857,
				"element": "C" 
			},
			{
				"x": -1.7632385254,
				"y": 1.9683999758,
				"z": 0.3439540118,
				"element": "O" 
			},
			{
				"x": 0.7480069218,
				"y": 2.3412659481,
				"z": 2.191997213,
				"element": "H" 
			},
			{
				"x": 2.2312107954,
				"y": 1.628936737,
				"z": 1.548248325,
				"element": "H" 
			},
			{
				"x": 1.5760694536,
				"y": 1.0838877328,
				"z": 3.1085192881,
				"element": "H" 
			},
			{
				"x": 1.0648016945,
				"y": -0.6283377451,
				"z": 1.4434225994,
				"element": "H" 
			},
			{
				"x": -0.4468726934,
				"y": 0.1511227692,
				"z": 1.8758768876,
				"element": "H" 
			},
			{
				"x": 1.9330016653,
				"y": -0.2305067337,
				"z": -0.8888661718,
				"element": "H" 
			},
			{
				"x": 1.3804997913,
				"y": 1.0040526315,
				"z": -1.7833425739,
				"element": "H" 
			},
			{
				"x": -1.5785328696,
				"y": -0.6288198954,
				"z": -0.210849124,
				"element": "H" 
			},
			{
				"x": -0.7962992018,
				"y": -0.3660722397,
				"z": -1.7761213803,
				"element": "H" 
			},
			{
				"x": -0.006682104,
				"y": -2.1876204285,
				"z": 0.2054787833,
				"element": "H" 
			},
			{
				"x": 0.1400926127,
				"y": 2.7475544008,
				"z": -0.0692233371,
				"element": "H" 
			},
			{
				"x": -0.7580345311,
				"y": 2.0218023013,
				"z": -1.4043655385,
				"element": "H" 
			},
			{
				"x": -1.5805199792,
				"y": 2.1116571292,
				"z": 1.2808299482,
				"element": "H" 
			}
		],
		 "valence_orbital": [ 
			{
				"type": "occ",
				"energy": -0.32564,
				"method": "rhf"
			},
			{
				"type": "occ",
				"energy": -0.31969,
				"method": "rhf"
			},
			{
				"type": "occ",
				"energy": -0.28477,
				"method": "rhf"
			},
			{
				"type": "occ",
				"energy": -0.26476,
				"method": "rhf"
			},
			{
				"type": "occ",
				"energy": -0.23197,
				"method": "rhf"
			},
			{
				"type": "unocc",
				"energy": 0.05732,
				"method": "rhf"
			},
			{
				"type": "unocc",
				"energy": 0.0653,
				"method": "rhf"
			},
			{
				"type": "unocc",
				"energy": 0.09305,
				"method": "rhf"
			},
			{
				"type": "unocc",
				"energy": 0.12722,
				"method": "rhf"
			},
			{
				"type": "unocc",
				"energy": 0.12786,
				"method": "rhf"
			}
		],
		"cosmo_sigma_profile": { 
			"-0.025": 0.0,
			"-0.024": 0.0,
			"-0.023": 0.0,
			"-0.022": 0.0,
			"-0.021": 0.0,
			"-0.02": 0.0,
			"-0.019": 0.0,
			"-0.018": 0.0,
			"-0.017": 0.0,
			"-0.016": 0.0,
			"-0.015": 0.467313117956,
			"-0.014": 1.75665677935,
			"-0.013": 1.72586426514,
			"-0.012": 0.998593183268,
			"-0.011": 2.45667859634,
			"-0.01": 3.032616055,
			"-0.009": 3.23789799516,
			"-0.008": 3.6171606871,
			"-0.007": 5.41479530056,
			"-0.006": 6.5257112066,
			"-0.005": 7.4486246455,
			"-0.004": 9.59879880478,
			"-0.003": 13.0478249689,
			"-0.002": 13.6816829956,
			"-0.001": 15.4028375312,
			"0.0": 14.2187061197,
			"0.001": 12.2624915123,
			"0.002": 9.7864589402,
			"0.003": 5.43096966973,
			"0.004": 3.71926267494,
			"0.005": 3.38462663466,
			"0.006": 3.38683521423,
			"0.007": 3.56472353108,
			"0.008": 2.9043459785,
			"0.009": 3.27416129374,
			"0.01": 3.06339870486,
			"0.011": 2.70953849409,
			"0.012": 3.65735536691,
			"0.013": 3.81161239004,
			"0.014": 3.53401845961,
			"0.015": 1.26845595778,
			"0.016": 0.371565404423,
			"0.017": 0.460184545508,
			"0.018": 0.0840797982149,
			"0.019": 0.0,
			"0.02": 0.0,
			"0.021": 0.0,
			"0.022": 0.0,
			"0.023": 0.0,
			"0.024": 0.0,
			"0.025": 0.0
		}
	}
}
