{
	 "smiles": "CCOC(=O)N1CCN(CC1)C(=O)OCC", 
	 "Tm": 320.15, 
	 "num_atms": 34, 
	 "gaussian": { 
		 "optdone": 1, 
		 "sigma_profile": "yes", 
		 "theory": "DFT", 
		 "functional": "B3LYP", 
		 "basiset": "6-31G**", 
		 "properties": { 
			 "R2extent": 6066.9023, 
			 "electric_dipole_moment_norm": 3.51297563043, 
			 "electric_quadrupole_moment_norm": 7.94304057147, 
			 "total_energy": -802.357016813, 
			 "HOMO_LUMO_gap": 0.28778, 
			 "cosmo_polarized_energy": -13.66, 
			 "cosmo_cavitation_energy": 36.2, 
			 "cosmo_dispersion_energy": -26.13, 
			 "cosmo_repulsion_energy": 2.11, 
			 "cosmo_total_nonelectrostatic_energy": 12.18, 
			 "SMD_solvation_energy": 7.02 
		},
		"coords": [
			{
				"x": -1.3348322961,
				"y": 4.1086282726,
				"z": 3.673599315,
				"element": "C" 
			},
			{
				"x": -0.9201595354,
				"y": 2.6755730607,
				"z": 3.9501425745,
				"element": "C" 
			},
			{
				"x": -0.578988531,
				"y": 2.074206894,
				"z": 2.683808447,
				"element": "O" 
			},
			{
				"x": -0.1721049003,
				"y": 0.7774180066,
				"z": 2.755514677,
				"element": "C" 
			},
			{
				"x": -0.0725886875,
				"y": 0.1505927653,
				"z": 3.7987335983,
				"element": "O" 
			},
			{
				"x": 0.1066649014,
				"y": 0.2740593909,
				"z": 1.5156575157,
				"element": "N" 
			},
			{
				"x": 0.6404342858,
				"y": -1.0876173228,
				"z": 1.4232417714,
				"element": "C" 
			},
			{
				"x": 1.6129382993,
				"y": -1.1960977079,
				"z": 0.2530315687,
				"element": "C" 
			},
			{
				"x": 0.9500500284,
				"y": -0.8096290097,
				"z": -0.995672376,
				"element": "N" 
			},
			{
				"x": -0.1512141017,
				"y": 0.1540306041,
				"z": -0.9249920713,
				"element": "C" 
			},
			{
				"x": 0.0186452949,
				"y": 1.0675948563,
				"z": 0.2878436295,
				"element": "C" 
			},
			{
				"x": 1.3198320993,
				"y": -1.4422682871,
				"z": -2.1484792863,
				"element": "C" 
			},
			{
				"x": 2.2167949207,
				"y": -2.2683587855,
				"z": -2.2278281942,
				"element": "O" 
			},
			{
				"x": 0.5618428201,
				"y": -1.029837858,
				"z": -3.2021137142,
				"element": "O" 
			},
			{
				"x": 0.878107475,
				"y": -1.6392341153,
				"z": -4.4732447781,
				"element": "C" 
			},
			{
				"x": 0.1743758236,
				"y": -2.9773709081,
				"z": -4.6407576738,
				"element": "C" 
			},
			{
				"x": -1.6019172604,
				"y": 4.6051322437,
				"z": 4.6116536215,
				"element": "H" 
			},
			{
				"x": -0.5190778039,
				"y": 4.6694183186,
				"z": 3.2080094625,
				"element": "H" 
			},
			{
				"x": -2.2017464662,
				"y": 4.1445711048,
				"z": 3.0071913968,
				"element": "H" 
			},
			{
				"x": -0.0533460022,
				"y": 2.6213686185,
				"z": 4.6159638632,
				"element": "H" 
			},
			{
				"x": -1.7261351874,
				"y": 2.0986616792,
				"z": 4.4147435886,
				"element": "H" 
			},
			{
				"x": -0.1741501154,
				"y": -1.8148682667,
				"z": 1.2998410112,
				"element": "H" 
			},
			{
				"x": 1.1450651872,
				"y": -1.3205672796,
				"z": 2.3626551218,
				"element": "H" 
			},
			{
				"x": 2.4909973188,
				"y": -0.5615884938,
				"z": 0.4373156905,
				"element": "H" 
			},
			{
				"x": 1.9696393432,
				"y": -2.2220305081,
				"z": 0.1458981897,
				"element": "H" 
			},
			{
				"x": -1.1202893554,
				"y": -0.3617408806,
				"z": -0.8664337732,
				"element": "H" 
			},
			{
				"x": -0.1586327439,
				"y": 0.7590735407,
				"z": -1.8330755433,
				"element": "H" 
			},
			{
				"x": 0.9146525211,
				"y": 1.6913836889,
				"z": 0.1578561819,
				"element": "H" 
			},
			{
				"x": -0.8385828977,
				"y": 1.7395561745,
				"z": 0.354937067,
				"element": "H" 
			},
			{
				"x": 0.5363723892,
				"y": -0.9119609163,
				"z": -5.2143664581,
				"element": "H" 
			},
			{
				"x": 1.9616831851,
				"y": -1.7544211553,
				"z": -4.5505361364,
				"element": "H" 
			},
			{
				"x": 0.5429312219,
				"y": -3.6941684251,
				"z": -3.9031698008,
				"element": "H" 
			},
			{
				"x": -0.9078203906,
				"y": -2.8671310091,
				"z": -4.5218755882,
				"element": "H" 
			},
			{
				"x": 0.3710591602,
				"y": -3.3797782906,
				"z": -5.6402928978,
				"element": "H" 
			}
		],
		 "valence_orbital": [ 
			{
				"type": "occ",
				"energy": -0.29035,
				"method": "rhf"
			},
			{
				"type": "occ",
				"energy": -0.2692,
				"method": "rhf"
			},
			{
				"type": "occ",
				"energy": -0.26611,
				"method": "rhf"
			},
			{
				"type": "occ",
				"energy": -0.24373,
				"method": "rhf"
			},
			{
				"type": "occ",
				"energy": -0.23715,
				"method": "rhf"
			},
			{
				"type": "unocc",
				"energy": 0.05063,
				"method": "rhf"
			},
			{
				"type": "unocc",
				"energy": 0.05682,
				"method": "rhf"
			},
			{
				"type": "unocc",
				"energy": 0.07762,
				"method": "rhf"
			},
			{
				"type": "unocc",
				"energy": 0.10208,
				"method": "rhf"
			},
			{
				"type": "unocc",
				"energy": 0.11068,
				"method": "rhf"
			}
		],
		"cosmo_sigma_profile": { 
			"-0.025": 0.0,
			"-0.024": 0.0,
			"-0.023": 0.0,
			"-0.022": 0.0,
			"-0.021": 0.0,
			"-0.02": 0.0,
			"-0.019": 0.0,
			"-0.018": 0.0,
			"-0.017": 0.0,
			"-0.016": 0.0,
			"-0.015": 0.0,
			"-0.014": 0.0,
			"-0.013": 0.0,
			"-0.012": 0.0,
			"-0.011": 0.0,
			"-0.01": 0.0,
			"-0.009": 0.0,
			"-0.008": 0.0,
			"-0.007": 0.0,
			"-0.006": 3.68018155498,
			"-0.005": 26.4532523372,
			"-0.004": 41.3113232382,
			"-0.003": 36.7095953221,
			"-0.002": 29.741675694,
			"-0.001": 29.1748037725,
			"0.0": 27.7464311802,
			"0.001": 18.2907733761,
			"0.002": 8.0417818903,
			"0.003": 7.1797212754,
			"0.004": 7.65201964785,
			"0.005": 7.10739563883,
			"0.006": 5.88453037752,
			"0.007": 5.40950369699,
			"0.008": 3.66570539468,
			"0.009": 1.95129626936,
			"0.01": 2.03133591833,
			"0.011": 3.47281022747,
			"0.012": 4.19720518769,
			"0.013": 7.73912492311,
			"0.014": 5.15585764918,
			"0.015": 0.0,
			"0.016": 0.0,
			"0.017": 0.0,
			"0.018": 0.0,
			"0.019": 0.0,
			"0.02": 0.0,
			"0.021": 0.0,
			"0.022": 0.0,
			"0.023": 0.0,
			"0.024": 0.0,
			"0.025": 0.0
		}
	}
}
