{
	 "smiles": "CC(C)(C)OC(=O)OC(=O)OC(C)(C)C", 
	 "Tm": 295.65, 
	 "num_atms": 33, 
	 "gaussian": { 
		 "optdone": 1, 
		 "sigma_profile": "yes", 
		 "theory": "DFT", 
		 "functional": "B3LYP", 
		 "basiset": "6-31G**", 
		 "properties": { 
			 "R2extent": 5464.8224, 
			 "electric_dipole_moment_norm": 1.55273158981, 
			 "electric_quadrupole_moment_norm": 21.1865443551, 
			 "total_energy": -768.085460242, 
			 "HOMO_LUMO_gap": 0.2903, 
			 "cosmo_polarized_energy": -10.34, 
			 "cosmo_cavitation_energy": 35.6, 
			 "cosmo_dispersion_energy": -24.88, 
			 "cosmo_repulsion_energy": 1.99, 
			 "cosmo_total_nonelectrostatic_energy": 12.71, 
			 "SMD_solvation_energy": 9.15 
		},
		"coords": [
			{
				"x": 2.585984967,
				"y": -0.3926859074,
				"z": 2.619173177,
				"element": "C" 
			},
			{
				"x": 1.1038259484,
				"y": -0.5548801764,
				"z": 2.2788489986,
				"element": "C" 
			},
			{
				"x": 0.2447677493,
				"y": 0.436132126,
				"z": 3.0685242001,
				"element": "C" 
			},
			{
				"x": 0.6495408539,
				"y": -2.0049545753,
				"z": 2.4637563327,
				"element": "C" 
			},
			{
				"x": 1.0735741676,
				"y": -0.2053555129,
				"z": 0.8377352481,
				"element": "O" 
			},
			{
				"x": -0.0731165934,
				"y": -0.2146846954,
				"z": 0.1686171296,
				"element": "C" 
			},
			{
				"x": -1.1776823022,
				"y": -0.5034682686,
				"z": 0.5491576711,
				"element": "O" 
			},
			{
				"x": 0.220595569,
				"y": 0.2564139729,
				"z": -1.0962237631,
				"element": "O" 
			},
			{
				"x": -0.5504783549,
				"y": -0.1878666556,
				"z": -2.152566037,
				"element": "C" 
			},
			{
				"x": -1.0550634,
				"y": -1.278541445,
				"z": -2.2171238687,
				"element": "O" 
			},
			{
				"x": -0.5415032674,
				"y": 0.7913750925,
				"z": -3.0490852476,
				"element": "O" 
			},
			{
				"x": -1.1921249491,
				"y": 0.6057420013,
				"z": -4.3690424254,
				"element": "C" 
			},
			{
				"x": -0.5172552792,
				"y": -0.5451719059,
				"z": -5.1197600684,
				"element": "C" 
			},
			{
				"x": -2.6933620715,
				"y": 0.3801433309,
				"z": -4.1727130887,
				"element": "C" 
			},
			{
				"x": -0.9196500614,
				"y": 1.9455712366,
				"z": -5.0542759954,
				"element": "C" 
			},
			{
				"x": 3.1975481123,
				"y": -1.0652577859,
				"z": 2.0113642375,
				"element": "H" 
			},
			{
				"x": 2.7535280869,
				"y": -0.6283365862,
				"z": 3.6741155325,
				"element": "H" 
			},
			{
				"x": 2.9149634316,
				"y": 0.6339062138,
				"z": 2.4354033437,
				"element": "H" 
			},
			{
				"x": 0.3640341766,
				"y": 0.2452333228,
				"z": 4.1396345076,
				"element": "H" 
			},
			{
				"x": -0.8109167252,
				"y": 0.3373790991,
				"z": 2.8133242195,
				"element": "H" 
			},
			{
				"x": 0.5659130546,
				"y": 1.463130833,
				"z": 2.8690831513,
				"element": "H" 
			},
			{
				"x": 0.7799632183,
				"y": -2.2949026888,
				"z": 3.5111452057,
				"element": "H" 
			},
			{
				"x": 1.2555004577,
				"y": -2.6757516686,
				"z": 1.8471816952,
				"element": "H" 
			},
			{
				"x": -0.4000640458,
				"y": -2.1284969713,
				"z": 2.1949809951,
				"element": "H" 
			},
			{
				"x": -0.6922410216,
				"y": -1.499888554,
				"z": -4.6225400173,
				"element": "H" 
			},
			{
				"x": 0.5609854187,
				"y": -0.3728827072,
				"z": -5.1929236951,
				"element": "H" 
			},
			{
				"x": -0.9216051923,
				"y": -0.6014501791,
				"z": -6.1352796057,
				"element": "H" 
			},
			{
				"x": -3.1291260653,
				"y": 1.1988443915,
				"z": -3.5920619767,
				"element": "H" 
			},
			{
				"x": -2.8881999845,
				"y": -0.5615399154,
				"z": -3.6584911445,
				"element": "H" 
			},
			{
				"x": -3.1869988714,
				"y": 0.3553225946,
				"z": -5.149341386,
				"element": "H" 
			},
			{
				"x": -1.3575587496,
				"y": 1.9468281711,
				"z": -6.0566533462,
				"element": "H" 
			},
			{
				"x": -1.3581565311,
				"y": 2.7679952248,
				"z": -4.4823282667,
				"element": "H" 
			},
			{
				"x": 0.155778254,
				"y": 2.1223985881,
				"z": -5.1441357126,
				"element": "H" 
			}
		],
		 "valence_orbital": [ 
			{
				"type": "occ",
				"energy": -0.32418,
				"method": "rhf"
			},
			{
				"type": "occ",
				"energy": -0.30758,
				"method": "rhf"
			},
			{
				"type": "occ",
				"energy": -0.30395,
				"method": "rhf"
			},
			{
				"type": "occ",
				"energy": -0.28601,
				"method": "rhf"
			},
			{
				"type": "occ",
				"energy": -0.28139,
				"method": "rhf"
			},
			{
				"type": "unocc",
				"energy": 0.00891,
				"method": "rhf"
			},
			{
				"type": "unocc",
				"energy": 0.04789,
				"method": "rhf"
			},
			{
				"type": "unocc",
				"energy": 0.07536,
				"method": "rhf"
			},
			{
				"type": "unocc",
				"energy": 0.08366,
				"method": "rhf"
			},
			{
				"type": "unocc",
				"energy": 0.08987,
				"method": "rhf"
			}
		],
		"cosmo_sigma_profile": { 
			"-0.025": 0.0,
			"-0.024": 0.0,
			"-0.023": 0.0,
			"-0.022": 0.0,
			"-0.021": 0.0,
			"-0.02": 0.0,
			"-0.019": 0.0,
			"-0.018": 0.0,
			"-0.017": 0.0,
			"-0.016": 0.0,
			"-0.015": 0.0,
			"-0.014": 0.0,
			"-0.013": 0.0,
			"-0.012": 0.0,
			"-0.011": 0.0,
			"-0.01": 0.0,
			"-0.009": 0.0,
			"-0.008": 0.0,
			"-0.007": 0.0,
			"-0.006": 0.30150345852,
			"-0.005": 12.1530455507,
			"-0.004": 32.8311020545,
			"-0.003": 34.1945096683,
			"-0.002": 37.3364361652,
			"-0.001": 39.8787838096,
			"0.0": 45.7092864383,
			"0.001": 14.2354728902,
			"0.002": 6.39821922368,
			"0.003": 6.10979737642,
			"0.004": 6.34975953447,
			"0.005": 5.06698380674,
			"0.006": 5.60974136772,
			"0.007": 7.124369576,
			"0.008": 6.34742054694,
			"0.009": 5.336551303,
			"0.01": 5.12897256485,
			"0.011": 5.62510292993,
			"0.012": 1.71447133982,
			"0.013": 0.0046774780466,
			"0.014": 0.0,
			"0.015": 0.0,
			"0.016": 0.0,
			"0.017": 0.0,
			"0.018": 0.0,
			"0.019": 0.0,
			"0.02": 0.0,
			"0.021": 0.0,
			"0.022": 0.0,
			"0.023": 0.0,
			"0.024": 0.0,
			"0.025": 0.0
		}
	}
}
