{
	 "smiles": "ClCCC(=O)N(CC#N)CC#N", 
	 "Tm": 336.15, 
	 "num_atms": 20, 
	 "gaussian": { 
		 "optdone": 1, 
		 "sigma_profile": "yes", 
		 "theory": "DFT", 
		 "functional": "B3LYP", 
		 "basiset": "6-31G**", 
		 "properties": { 
			 "R2extent": 3461.7785, 
			 "electric_dipole_moment_norm": 3.33577300936, 
			 "electric_quadrupole_moment_norm": 23.0977427915, 
			 "total_energy": -971.196743844, 
			 "HOMO_LUMO_gap": 0.27194, 
			 "cosmo_polarized_energy": -22.95, 
			 "cosmo_cavitation_energy": 28.11, 
			 "cosmo_dispersion_energy": -18.5, 
			 "cosmo_repulsion_energy": 1.52, 
			 "cosmo_total_nonelectrostatic_energy": 11.12, 
			 "SMD_solvation_energy": 7.68 
		},
		"coords": [
			{
				"x": -2.0202354212,
				"y": -3.2960931978,
				"z": -1.2056614485,
				"element": "Cl" 
			},
			{
				"x": -2.1266373629,
				"y": -1.6562447541,
				"z": -1.9714466836,
				"element": "C" 
			},
			{
				"x": -2.1973341806,
				"y": -0.554628164,
				"z": -0.9222749365,
				"element": "C" 
			},
			{
				"x": -0.8288355363,
				"y": -0.2825856153,
				"z": -0.2944433527,
				"element": "C" 
			},
			{
				"x": 0.2035731256,
				"y": -0.6681041342,
				"z": -0.8186178703,
				"element": "O" 
			},
			{
				"x": -0.8003908949,
				"y": 0.4570461071,
				"z": 0.8816344947,
				"element": "N" 
			},
			{
				"x": -1.9747913853,
				"y": 0.9648968053,
				"z": 1.5772035681,
				"element": "C" 
			},
			{
				"x": -2.4345493683,
				"y": 0.0755012515,
				"z": 2.6632179955,
				"element": "C" 
			},
			{
				"x": -2.7768156407,
				"y": -0.6312424543,
				"z": 3.5171902419,
				"element": "N" 
			},
			{
				"x": 0.4933385411,
				"y": 0.6478548486,
				"z": 1.5349773091,
				"element": "C" 
			},
			{
				"x": 0.8328488593,
				"y": 2.0733545283,
				"z": 1.6683970456,
				"element": "C" 
			},
			{
				"x": 1.0611788419,
				"y": 3.2046150096,
				"z": 1.7894499521,
				"element": "N" 
			},
			{
				"x": -3.0250488773,
				"y": -1.6620974686,
				"z": -2.5884999636,
				"element": "H" 
			},
			{
				"x": -1.2391506866,
				"y": -1.5438688764,
				"z": -2.5922075798,
				"element": "H" 
			},
			{
				"x": -2.9477136831,
				"y": -0.8102382087,
				"z": -0.1691625262,
				"element": "H" 
			},
			{
				"x": -2.532934516,
				"y": 0.3701066845,
				"z": -1.414467848,
				"element": "H" 
			},
			{
				"x": -2.7955008288,
				"y": 1.1270170196,
				"z": 0.8766819592,
				"element": "H" 
			},
			{
				"x": -1.7374681055,
				"y": 1.946203542,
				"z": 2.0050515098,
				"element": "H" 
			},
			{
				"x": 0.4959389232,
				"y": 0.1872977444,
				"z": 2.5312852466,
				"element": "H" 
			},
			{
				"x": 1.238728196,
				"y": 0.1417093323,
				"z": 0.9165928867,
				"element": "H" 
			}
		],
		 "valence_orbital": [ 
			{
				"type": "occ",
				"energy": -0.34804,
				"method": "rhf"
			},
			{
				"type": "occ",
				"energy": -0.30756,
				"method": "rhf"
			},
			{
				"type": "occ",
				"energy": -0.30365,
				"method": "rhf"
			},
			{
				"type": "occ",
				"energy": -0.29461,
				"method": "rhf"
			},
			{
				"type": "occ",
				"energy": -0.29284,
				"method": "rhf"
			},
			{
				"type": "unocc",
				"energy": -0.0209,
				"method": "rhf"
			},
			{
				"type": "unocc",
				"energy": -0.01395,
				"method": "rhf"
			},
			{
				"type": "unocc",
				"energy": 0.00213,
				"method": "rhf"
			},
			{
				"type": "unocc",
				"energy": 0.01173,
				"method": "rhf"
			},
			{
				"type": "unocc",
				"energy": 0.01777,
				"method": "rhf"
			}
		],
		"cosmo_sigma_profile": { 
			"-0.025": 0.0,
			"-0.024": 0.0,
			"-0.023": 0.0,
			"-0.022": 0.0,
			"-0.021": 0.0,
			"-0.02": 0.0,
			"-0.019": 0.0,
			"-0.018": 0.0,
			"-0.017": 0.0,
			"-0.016": 0.0,
			"-0.015": 0.0,
			"-0.014": 0.0,
			"-0.013": 0.0,
			"-0.012": 1.75909594785,
			"-0.011": 6.86229102047,
			"-0.01": 8.26623464111,
			"-0.009": 11.1323388878,
			"-0.008": 12.506085489,
			"-0.007": 14.4983379063,
			"-0.006": 13.3735583444,
			"-0.005": 12.6288239898,
			"-0.004": 8.54494886244,
			"-0.003": 8.28046536316,
			"-0.002": 6.09340326211,
			"-0.001": 7.7111402729,
			"0.0": 7.09989844231,
			"0.001": 7.12868447855,
			"0.002": 7.55391493665,
			"0.003": 8.02199106666,
			"0.004": 9.78281061803,
			"0.005": 12.1539877165,
			"0.006": 13.0166312954,
			"0.007": 12.4613621465,
			"0.008": 8.23819103367,
			"0.009": 8.6310803921,
			"0.01": 7.17153861091,
			"0.011": 8.10866297084,
			"0.012": 6.12317064391,
			"0.013": 0.619984052831,
			"0.014": 0.0,
			"0.015": 0.0,
			"0.016": 0.0,
			"0.017": 0.0,
			"0.018": 0.0,
			"0.019": 0.0,
			"0.02": 0.0,
			"0.021": 0.0,
			"0.022": 0.0,
			"0.023": 0.0,
			"0.024": 0.0,
			"0.025": 0.0
		}
	}
}
