{
	 "smiles": "OCCCCCCCCCCCCCCC(O)=O", 
	 "Tm": 371.15, 
	 "num_atms": 48, 
	 "gaussian": { 
		 "optdone": 1, 
		 "sigma_profile": "yes", 
		 "theory": "DFT", 
		 "functional": "B3LYP", 
		 "basiset": "6-31G**", 
		 "properties": { 
			 "R2extent": 11137.3334, 
			 "electric_dipole_moment_norm": 2.12071621157, 
			 "electric_quadrupole_moment_norm": 14.5937084447, 
			 "total_energy": -815.38871885, 
			 "HOMO_LUMO_gap": 0.26807, 
			 "cosmo_polarized_energy": -13.4, 
			 "cosmo_cavitation_energy": 48.21, 
			 "cosmo_dispersion_energy": -32.4, 
			 "cosmo_repulsion_energy": 2.65, 
			 "cosmo_total_nonelectrostatic_energy": 18.46, 
			 "SMD_solvation_energy": 7.47 
		},
		"coords": [
			{
				"x": 5.398899314,
				"y": -1.1795527854,
				"z": 4.3008834022,
				"element": "O" 
			},
			{
				"x": 4.3374577862,
				"y": -0.9727608428,
				"z": 3.3745098167,
				"element": "C" 
			},
			{
				"x": 4.8079299881,
				"y": -0.2575030685,
				"z": 2.1052725339,
				"element": "C" 
			},
			{
				"x": 3.8024244805,
				"y": -0.1892359071,
				"z": 0.9409229915,
				"element": "C" 
			},
			{
				"x": 2.5389695111,
				"y": 0.6692464243,
				"z": 1.1635958364,
				"element": "C" 
			},
			{
				"x": 1.3508933313,
				"y": -0.0518690759,
				"z": 1.8196881467,
				"element": "C" 
			},
			{
				"x": 0.1150598796,
				"y": 0.8479777805,
				"z": 1.9627935798,
				"element": "C" 
			},
			{
				"x": -1.0785763848,
				"y": 0.1932238455,
				"z": 2.680258874,
				"element": "C" 
			},
			{
				"x": -1.6840555861,
				"y": -1.0426330361,
				"z": 1.9874611845,
				"element": "C" 
			},
			{
				"x": -2.2342225423,
				"y": -0.8136064821,
				"z": 0.5685049485,
				"element": "C" 
			},
			{
				"x": -3.4104791316,
				"y": 0.1722668756,
				"z": 0.4970810398,
				"element": "C" 
			},
			{
				"x": -4.0607650712,
				"y": 0.2858399735,
				"z": -0.8926041708,
				"element": "C" 
			},
			{
				"x": -3.1548925061,
				"y": 0.9132325982,
				"z": -1.9634690343,
				"element": "C" 
			},
			{
				"x": -3.8395459403,
				"y": 1.1464215627,
				"z": -3.3212481448,
				"element": "C" 
			},
			{
				"x": -4.2282097713,
				"y": -0.1294714569,
				"z": -4.0779029641,
				"element": "C" 
			},
			{
				"x": -3.0383893161,
				"y": -0.9091777189,
				"z": -4.597550342,
				"element": "C" 
			},
			{
				"x": -3.4047228264,
				"y": -2.1369059085,
				"z": -5.0433936461,
				"element": "O" 
			},
			{
				"x": -1.8919954969,
				"y": -0.518429388,
				"z": -4.6501530868,
				"element": "O" 
			},
			{
				"x": 5.7347271091,
				"y": -0.3107485372,
				"z": 4.5570039646,
				"element": "H" 
			},
			{
				"x": 3.5082539534,
				"y": -0.4265117071,
				"z": 3.8491803547,
				"element": "H" 
			},
			{
				"x": 3.9639445532,
				"y": -1.9726931136,
				"z": 3.1262206839,
				"element": "H" 
			},
			{
				"x": 5.1206738696,
				"y": 0.764804669,
				"z": 2.3684840571,
				"element": "H" 
			},
			{
				"x": 5.7117952758,
				"y": -0.7769335368,
				"z": 1.7634669013,
				"element": "H" 
			},
			{
				"x": 3.5046446554,
				"y": -1.2084877793,
				"z": 0.6564024462,
				"element": "H" 
			},
			{
				"x": 4.3438644793,
				"y": 0.2116358113,
				"z": 0.0754786516,
				"element": "H" 
			},
			{
				"x": 2.8016214652,
				"y": 1.5596984458,
				"z": 1.7532245639,
				"element": "H" 
			},
			{
				"x": 2.2016505581,
				"y": 1.04916272,
				"z": 0.1900237742,
				"element": "H" 
			},
			{
				"x": 1.1028048914,
				"y": -0.935211241,
				"z": 1.2163951529,
				"element": "H" 
			},
			{
				"x": 1.6309961681,
				"y": -0.4320200072,
				"z": 2.810486693,
				"element": "H" 
			},
			{
				"x": -0.1920774157,
				"y": 1.2000776952,
				"z": 0.9685381536,
				"element": "H" 
			},
			{
				"x": 0.3991519844,
				"y": 1.7505578371,
				"z": 2.5212477566,
				"element": "H" 
			},
			{
				"x": -1.8605111878,
				"y": 0.9501159498,
				"z": 2.8211636096,
				"element": "H" 
			},
			{
				"x": -0.7641274483,
				"y": -0.0999965928,
				"z": 3.691331575,
				"element": "H" 
			},
			{
				"x": -2.4941605407,
				"y": -1.4287246082,
				"z": 2.6214575126,
				"element": "H" 
			},
			{
				"x": -0.9324662021,
				"y": -1.8411440523,
				"z": 1.9477078691,
				"element": "H" 
			},
			{
				"x": -1.4246793471,
				"y": -0.4782957782,
				"z": -0.0914137001,
				"element": "H" 
			},
			{
				"x": -2.5642134919,
				"y": -1.7817199842,
				"z": 0.1663660271,
				"element": "H" 
			},
			{
				"x": -4.1758700173,
				"y": -0.1426180435,
				"z": 1.2200086232,
				"element": "H" 
			},
			{
				"x": -3.0836782644,
				"y": 1.1705684477,
				"z": 0.8180423253,
				"element": "H" 
			},
			{
				"x": -4.974587981,
				"y": 0.8903103616,
				"z": -0.8062582936,
				"element": "H" 
			},
			{
				"x": -4.3879062687,
				"y": -0.7140111849,
				"z": -1.2106986398,
				"element": "H" 
			},
			{
				"x": -2.261223797,
				"y": 0.299471682,
				"z": -2.1204671927,
				"element": "H" 
			},
			{
				"x": -2.795895503,
				"y": 1.8825136885,
				"z": -1.5915244905,
				"element": "H" 
			},
			{
				"x": -3.1708636851,
				"y": 1.7321046908,
				"z": -3.9607935257,
				"element": "H" 
			},
			{
				"x": -4.7457364269,
				"y": 1.7476340702,
				"z": -3.1733623005,
				"element": "H" 
			},
			{
				"x": -4.8438990387,
				"y": 0.1162598697,
				"z": -4.9535114386,
				"element": "H" 
			},
			{
				"x": -4.8424067275,
				"y": -0.8042129619,
				"z": -3.4723058601,
				"element": "H" 
			},
			{
				"x": -2.5934053374,
				"y": -2.5524502007,
				"z": -5.381146219,
				"element": "H" 
			}
		],
		 "valence_orbital": [ 
			{
				"type": "occ",
				"energy": -0.30491,
				"method": "rhf"
			},
			{
				"type": "occ",
				"energy": -0.30137,
				"method": "rhf"
			},
			{
				"type": "occ",
				"energy": -0.2968,
				"method": "rhf"
			},
			{
				"type": "occ",
				"energy": -0.27404,
				"method": "rhf"
			},
			{
				"type": "occ",
				"energy": -0.25798,
				"method": "rhf"
			},
			{
				"type": "unocc",
				"energy": 0.01009,
				"method": "rhf"
			},
			{
				"type": "unocc",
				"energy": 0.07603,
				"method": "rhf"
			},
			{
				"type": "unocc",
				"energy": 0.07956,
				"method": "rhf"
			},
			{
				"type": "unocc",
				"energy": 0.08195,
				"method": "rhf"
			},
			{
				"type": "unocc",
				"energy": 0.08873,
				"method": "rhf"
			}
		],
		"cosmo_sigma_profile": { 
			"-0.025": 0.0,
			"-0.024": 0.0,
			"-0.023": 0.0,
			"-0.022": 0.0,
			"-0.021": 0.0,
			"-0.02": 0.0,
			"-0.019": 0.0,
			"-0.018": 0.340457282,
			"-0.017": 0.833220576942,
			"-0.016": 0.890366537048,
			"-0.015": 1.55626128607,
			"-0.014": 1.8990591681,
			"-0.013": 0.866148020532,
			"-0.012": 1.71397705666,
			"-0.011": 2.10431891635,
			"-0.01": 1.62386081232,
			"-0.009": 1.51564877353,
			"-0.008": 1.29141279048,
			"-0.007": 1.91292833888,
			"-0.006": 4.23463471601,
			"-0.005": 6.06532611371,
			"-0.004": 8.77405812195,
			"-0.003": 17.6028091938,
			"-0.002": 50.1538465117,
			"-0.001": 78.3164241698,
			"0.0": 69.5714776784,
			"0.001": 49.4430887561,
			"0.002": 17.4766250948,
			"0.003": 5.40076797179,
			"0.004": 4.54958940899,
			"0.005": 3.75218845811,
			"0.006": 4.09413583773,
			"0.007": 4.45238940262,
			"0.008": 3.71050658943,
			"0.009": 3.98865458569,
			"0.01": 4.59497777865,
			"0.011": 3.70318717826,
			"0.012": 6.27671667902,
			"0.013": 2.68450355571,
			"0.014": 2.06372308423,
			"0.015": 1.89285653668,
			"0.016": 0.0,
			"0.017": 0.0,
			"0.018": 0.0,
			"0.019": 0.0,
			"0.02": 0.0,
			"0.021": 0.0,
			"0.022": 0.0,
			"0.023": 0.0,
			"0.024": 0.0,
			"0.025": 0.0
		}
	}
}
