{
	 "smiles": "OCCC1=CC=C(C=C1)[N+]([O-])=O", 
	 "Tm": 336.15, 
	 "num_atms": 21, 
	 "gaussian": { 
		 "optdone": 1, 
		 "sigma_profile": "yes", 
		 "theory": "DFT", 
		 "functional": "B3LYP", 
		 "basiset": "6-31G**", 
		 "properties": { 
			 "R2extent": 3143.6549, 
			 "electric_dipole_moment_norm": 6.11801678733, 
			 "electric_quadrupole_moment_norm": 17.1195933769, 
			 "total_energy": -590.593012377, 
			 "HOMO_LUMO_gap": 0.18455, 
			 "cosmo_polarized_energy": -11.75, 
			 "cosmo_cavitation_energy": 25.48, 
			 "cosmo_dispersion_energy": -18.7, 
			 "cosmo_repulsion_energy": 1.51, 
			 "cosmo_total_nonelectrostatic_energy": 8.29, 
			 "SMD_solvation_energy": 6.68 
		},
		"coords": [
			{
				"x": 0.7374459641,
				"y": -1.3278662411,
				"z": 2.5170447586,
				"element": "O" 
			},
			{
				"x": -0.3713604399,
				"y": -0.4466812445,
				"z": 2.3955299587,
				"element": "C" 
			},
			{
				"x": -1.1642621077,
				"y": -0.8412011537,
				"z": 1.1444065335,
				"element": "C" 
			},
			{
				"x": -0.4523768448,
				"y": -0.5451903713,
				"z": -0.1574288037,
				"element": "C" 
			},
			{
				"x": 0.6864416298,
				"y": -1.2754516743,
				"z": -0.5391507343,
				"element": "C" 
			},
			{
				"x": 1.3491550686,
				"y": -0.9954787807,
				"z": -1.7296063275,
				"element": "C" 
			},
			{
				"x": 0.8633433208,
				"y": 0.0253497362,
				"z": -2.5461587151,
				"element": "C" 
			},
			{
				"x": -0.2625934657,
				"y": 0.7685776809,
				"z": -2.2007765386,
				"element": "C" 
			},
			{
				"x": -0.9117510428,
				"y": 0.4745690087,
				"z": -1.0045283645,
				"element": "C" 
			},
			{
				"x": 1.5565437659,
				"y": 0.3247433441,
				"z": -3.8067076915,
				"element": "N" 
			},
			{
				"x": 1.1050185839,
				"y": 1.2312719476,
				"z": -4.5074323583,
				"element": "O" 
			},
			{
				"x": 2.5488352466,
				"y": -0.3476115327,
				"z": -4.08832106,
				"element": "O" 
			},
			{
				"x": 1.3252198312,
				"y": -0.9890510969,
				"z": 3.2029830936,
				"element": "H" 
			},
			{
				"x": -1.0335404373,
				"y": -0.5213482868,
				"z": 3.2725285648,
				"element": "H" 
			},
			{
				"x": -0.0459328742,
				"y": 0.6014809259,
				"z": 2.3112218839,
				"element": "H" 
			},
			{
				"x": -1.3845086613,
				"y": -1.9129882674,
				"z": 1.2189538706,
				"element": "H" 
			},
			{
				"x": -2.1241795177,
				"y": -0.3138790025,
				"z": 1.1679910334,
				"element": "H" 
			},
			{
				"x": 1.0567389223,
				"y": -2.0562928154,
				"z": 0.1150448847,
				"element": "H" 
			},
			{
				"x": 2.2274305725,
				"y": -1.549243062,
				"z": -2.0370930489,
				"element": "H" 
			},
			{
				"x": -0.6093831539,
				"y": 1.5513577065,
				"z": -2.8636246881,
				"element": "H" 
			},
			{
				"x": -1.7934843604,
				"y": 1.0454331793,
				"z": -0.7260762512,
				"element": "H" 
			}
		],
		 "valence_orbital": [ 
			{
				"type": "occ",
				"energy": -0.30019,
				"method": "rhf"
			},
			{
				"type": "occ",
				"energy": -0.28435,
				"method": "rhf"
			},
			{
				"type": "occ",
				"energy": -0.28343,
				"method": "rhf"
			},
			{
				"type": "occ",
				"energy": -0.26966,
				"method": "rhf"
			},
			{
				"type": "occ",
				"energy": -0.26649,
				"method": "rhf"
			},
			{
				"type": "unocc",
				"energy": -0.08194,
				"method": "rhf"
			},
			{
				"type": "unocc",
				"energy": -0.0202,
				"method": "rhf"
			},
			{
				"type": "unocc",
				"energy": 0.00669,
				"method": "rhf"
			},
			{
				"type": "unocc",
				"energy": 0.06215,
				"method": "rhf"
			},
			{
				"type": "unocc",
				"energy": 0.08941,
				"method": "rhf"
			}
		],
		"cosmo_sigma_profile": { 
			"-0.025": 0.0,
			"-0.024": 0.0,
			"-0.023": 0.0,
			"-0.022": 0.0,
			"-0.021": 0.0,
			"-0.02": 0.0,
			"-0.019": 0.0,
			"-0.018": 0.0,
			"-0.017": 0.0,
			"-0.016": 0.672061013574,
			"-0.015": 1.16281272142,
			"-0.014": 0.903542824409,
			"-0.013": 0.903424358564,
			"-0.012": 0.650523807328,
			"-0.011": 0.753435985251,
			"-0.01": 0.800988814786,
			"-0.009": 1.20886950005,
			"-0.008": 1.11692977349,
			"-0.007": 4.2235459083,
			"-0.006": 8.94197733289,
			"-0.005": 13.0058671914,
			"-0.004": 18.1193842582,
			"-0.003": 20.6618608464,
			"-0.002": 16.3089073992,
			"-0.001": 15.0519686043,
			"0.0": 13.8233994917,
			"0.001": 11.7414433766,
			"0.002": 14.39466103,
			"0.003": 9.99246842955,
			"0.004": 4.72534296175,
			"0.005": 4.40937633591,
			"0.006": 6.01977161828,
			"0.007": 7.58473667771,
			"0.008": 11.0029658332,
			"0.009": 6.18806162866,
			"0.01": 4.37316217883,
			"0.011": 1.26462672721,
			"0.012": 0.786991946141,
			"0.013": 0.544980089199,
			"0.014": 0.616116408642,
			"0.015": 0.00538537206901,
			"0.016": 0.0,
			"0.017": 0.0,
			"0.018": 0.0,
			"0.019": 0.0,
			"0.02": 0.0,
			"0.021": 0.0,
			"0.022": 0.0,
			"0.023": 0.0,
			"0.024": 0.0,
			"0.025": 0.0
		}
	}
}
