{
	 "smiles": "O=C(OC1=C2N=CC=CC2=CC=C1)C1=CC=CC=C1", 
	 "Tm": 392.15, 
	 "num_atms": 30, 
	 "gaussian": { 
		 "optdone": 1, 
		 "sigma_profile": "yes", 
		 "theory": "DFT", 
		 "functional": "B3LYP", 
		 "basiset": "6-31G**", 
		 "properties": { 
			 "R2extent": 5943.4333, 
			 "electric_dipole_moment_norm": 1.83822597904, 
			 "electric_quadrupole_moment_norm": 19.570983076, 
			 "total_energy": -821.545418687, 
			 "HOMO_LUMO_gap": 0.17437, 
			 "cosmo_polarized_energy": -13.17, 
			 "cosmo_cavitation_energy": 35.29, 
			 "cosmo_dispersion_energy": -25.25, 
			 "cosmo_repulsion_energy": 1.93, 
			 "cosmo_total_nonelectrostatic_energy": 11.97, 
			 "SMD_solvation_energy": 5.71 
		},
		"coords": [
			{
				"x": -0.8254305557,
				"y": 1.3472355646,
				"z": 0.4224690106,
				"element": "O" 
			},
			{
				"x": 0.3502039477,
				"y": 1.1591834493,
				"z": 0.6296470849,
				"element": "C" 
			},
			{
				"x": 1.2915496675,
				"y": 1.1047172527,
				"z": -0.3726912087,
				"element": "O" 
			},
			{
				"x": 0.841082571,
				"y": 1.0590507294,
				"z": -1.6829035622,
				"element": "C" 
			},
			{
				"x": 0.2484228519,
				"y": -0.1408136205,
				"z": -2.176074051,
				"element": "C" 
			},
			{
				"x": 0.0821497004,
				"y": -1.1918533987,
				"z": -1.3283140492,
				"element": "N" 
			},
			{
				"x": -0.4738568961,
				"y": -2.2848363425,
				"z": -1.8103704943,
				"element": "C" 
			},
			{
				"x": -0.9044555349,
				"y": -2.4323048734,
				"z": -3.1529538516,
				"element": "C" 
			},
			{
				"x": -0.7322431148,
				"y": -1.3801316836,
				"z": -4.0205132829,
				"element": "C" 
			},
			{
				"x": -0.1376633457,
				"y": -0.1794206351,
				"z": -3.5537402222,
				"element": "C" 
			},
			{
				"x": 0.0869412288,
				"y": 0.951318066,
				"z": -4.3827610312,
				"element": "C" 
			},
			{
				"x": 0.6744249846,
				"y": 2.083307239,
				"z": -3.866220325,
				"element": "C" 
			},
			{
				"x": 1.0536650589,
				"y": 2.1401720057,
				"z": -2.5034525067,
				"element": "C" 
			},
			{
				"x": 0.9715377442,
				"y": 1.0042533101,
				"z": 1.9721582119,
				"element": "C" 
			},
			{
				"x": 0.1384670738,
				"y": 1.1416165952,
				"z": 3.0913334273,
				"element": "C" 
			},
			{
				"x": 0.6643647647,
				"y": 1.0063007372,
				"z": 4.373366355,
				"element": "C" 
			},
			{
				"x": 2.0241517607,
				"y": 0.7316973926,
				"z": 4.5444943711,
				"element": "C" 
			},
			{
				"x": 2.8564106181,
				"y": 0.5916620292,
				"z": 3.4311989767,
				"element": "C" 
			},
			{
				"x": 2.3346753077,
				"y": 0.7270875164,
				"z": 2.1456063942,
				"element": "C" 
			},
			{
				"x": -0.5970229237,
				"y": -3.1121687431,
				"z": -1.1123717472,
				"element": "H" 
			},
			{
				"x": -1.3567220179,
				"y": -3.3643824182,
				"z": -3.4765146607,
				"element": "H" 
			},
			{
				"x": -1.0438450815,
				"y": -1.4508327863,
				"z": -5.059567199,
				"element": "H" 
			},
			{
				"x": -0.2093624519,
				"y": 0.9067847201,
				"z": -5.4272320076,
				"element": "H" 
			},
			{
				"x": 0.8482490618,
				"y": 2.9474832597,
				"z": -4.4999734561,
				"element": "H" 
			},
			{
				"x": 1.5132995569,
				"y": 3.0320096407,
				"z": -2.0908817655,
				"element": "H" 
			},
			{
				"x": -0.9135469684,
				"y": 1.3522631035,
				"z": 2.9314544231,
				"element": "H" 
			},
			{
				"x": 0.0171225454,
				"y": 1.1137097703,
				"z": 5.2388000872,
				"element": "H" 
			},
			{
				"x": 2.434530527,
				"y": 0.6255681078,
				"z": 5.5448378292,
				"element": "H" 
			},
			{
				"x": 3.9122052351,
				"y": 0.3751423963,
				"z": 3.565092665,
				"element": "H" 
			},
			{
				"x": 2.9719946845,
				"y": 0.6155816155,
				"z": 1.276276585,
				"element": "H" 
			}
		],
		 "valence_orbital": [ 
			{
				"type": "occ",
				"energy": -0.25708,
				"method": "rhf"
			},
			{
				"type": "occ",
				"energy": -0.25624,
				"method": "rhf"
			},
			{
				"type": "occ",
				"energy": -0.25495,
				"method": "rhf"
			},
			{
				"type": "occ",
				"energy": -0.254,
				"method": "rhf"
			},
			{
				"type": "occ",
				"energy": -0.22971,
				"method": "rhf"
			},
			{
				"type": "unocc",
				"energy": -0.05534,
				"method": "rhf"
			},
			{
				"type": "unocc",
				"energy": -0.04178,
				"method": "rhf"
			},
			{
				"type": "unocc",
				"energy": -0.01913,
				"method": "rhf"
			},
			{
				"type": "unocc",
				"energy": -0.00402,
				"method": "rhf"
			},
			{
				"type": "unocc",
				"energy": 0.02066,
				"method": "rhf"
			}
		],
		"cosmo_sigma_profile": { 
			"-0.025": 0.0,
			"-0.024": 0.0,
			"-0.023": 0.0,
			"-0.022": 0.0,
			"-0.021": 0.0,
			"-0.02": 0.0,
			"-0.019": 0.0,
			"-0.018": 0.0,
			"-0.017": 0.0,
			"-0.016": 0.0,
			"-0.015": 0.0,
			"-0.014": 0.0,
			"-0.013": 0.0,
			"-0.012": 0.0,
			"-0.011": 0.0,
			"-0.01": 0.0,
			"-0.009": 0.0,
			"-0.008": 1.08722503471,
			"-0.007": 12.8966260236,
			"-0.006": 22.1872091432,
			"-0.005": 24.7219989341,
			"-0.004": 19.0433038996,
			"-0.003": 16.5772463856,
			"-0.002": 15.5698705804,
			"-0.001": 15.954545626,
			"0.0": 17.6486063042,
			"0.001": 28.7122448543,
			"0.002": 32.8734043257,
			"0.003": 25.6084241695,
			"0.004": 18.5284751496,
			"0.005": 5.44168574062,
			"0.006": 2.60893010425,
			"0.007": 3.35520373622,
			"0.008": 3.27434426256,
			"0.009": 5.06468877999,
			"0.01": 5.19749142127,
			"0.011": 5.72460913069,
			"0.012": 2.51103501993,
			"0.013": 0.223183442995,
			"0.014": 0.0,
			"0.015": 0.0,
			"0.016": 0.0,
			"0.017": 0.0,
			"0.018": 0.0,
			"0.019": 0.0,
			"0.02": 0.0,
			"0.021": 0.0,
			"0.022": 0.0,
			"0.023": 0.0,
			"0.024": 0.0,
			"0.025": 0.0
		}
	}
}
