{
	 "smiles": "CCC(C)(O)C#C", 
	 "Tm": 303.65, 
	 "num_atms": 17, 
	 "gaussian": { 
		 "optdone": 1, 
		 "sigma_profile": "yes", 
		 "theory": "DFT", 
		 "functional": "B3LYP", 
		 "basiset": "6-31G**", 
		 "properties": { 
			 "R2extent": 873.5541, 
			 "electric_dipole_moment_norm": 1.27001218104, 
			 "electric_quadrupole_moment_norm": 3.37504587673, 
			 "total_energy": -309.816626535, 
			 "HOMO_LUMO_gap": 0.30109, 
			 "cosmo_polarized_energy": -6.84, 
			 "cosmo_cavitation_energy": 20.35, 
			 "cosmo_dispersion_energy": -14.03, 
			 "cosmo_repulsion_energy": 1.19, 
			 "cosmo_total_nonelectrostatic_energy": 7.51, 
			 "SMD_solvation_energy": 5.22 
		},
		"coords": [
			{
				"x": -0.8175139465,
				"y": -0.3380840324,
				"z": 2.3380071296,
				"element": "C" 
			},
			{
				"x": -1.4474328688,
				"y": 0.4204686043,
				"z": 1.1685822674,
				"element": "C" 
			},
			{
				"x": -0.4793901449,
				"y": 0.7045659578,
				"z": -0.0007423223,
				"element": "C" 
			},
			{
				"x": -1.1921091456,
				"y": 1.4919204814,
				"z": -1.1169205784,
				"element": "C" 
			},
			{
				"x": 0.5771437796,
				"y": 1.501753749,
				"z": 0.555673859,
				"element": "O" 
			},
			{
				"x": 0.0715254703,
				"y": -0.5501769283,
				"z": -0.5559043229,
				"element": "C" 
			},
			{
				"x": 0.5405900873,
				"y": -1.5530817385,
				"z": -1.0405493577,
				"element": "C" 
			},
			{
				"x": -1.5448876416,
				"y": -0.4721594222,
				"z": 3.1449174506,
				"element": "H" 
			},
			{
				"x": 0.0399555978,
				"y": 0.2113701782,
				"z": 2.7338314706,
				"element": "H" 
			},
			{
				"x": -0.4717652506,
				"y": -1.3282441637,
				"z": 2.0255963166,
				"element": "H" 
			},
			{
				"x": -1.817409255,
				"y": 1.3947811408,
				"z": 1.5097053162,
				"element": "H" 
			},
			{
				"x": -2.307452546,
				"y": -0.1309794882,
				"z": 0.7718653741,
				"element": "H" 
			},
			{
				"x": -0.4969399394,
				"y": 1.716327137,
				"z": -1.9322512456,
				"element": "H" 
			},
			{
				"x": -1.5684722341,
				"y": 2.4344861931,
				"z": -0.7092437743,
				"element": "H" 
			},
			{
				"x": -2.0280304784,
				"y": 0.9220127894,
				"z": -1.533313856,
				"element": "H" 
			},
			{
				"x": 1.2756830651,
				"y": 1.5674966715,
				"z": -0.1090802208,
				"element": "H" 
			},
			{
				"x": 0.9518054508,
				"y": -2.4434571292,
				"z": -1.4570735061,
				"element": "H" 
			}
		],
		 "valence_orbital": [ 
			{
				"type": "occ",
				"energy": -0.33736,
				"method": "rhf"
			},
			{
				"type": "occ",
				"energy": -0.32981,
				"method": "rhf"
			},
			{
				"type": "occ",
				"energy": -0.28635,
				"method": "rhf"
			},
			{
				"type": "occ",
				"energy": -0.2691,
				"method": "rhf"
			},
			{
				"type": "occ",
				"energy": -0.26322,
				"method": "rhf"
			},
			{
				"type": "unocc",
				"energy": 0.03787,
				"method": "rhf"
			},
			{
				"type": "unocc",
				"energy": 0.05301,
				"method": "rhf"
			},
			{
				"type": "unocc",
				"energy": 0.08135,
				"method": "rhf"
			},
			{
				"type": "unocc",
				"energy": 0.12275,
				"method": "rhf"
			},
			{
				"type": "unocc",
				"energy": 0.13093,
				"method": "rhf"
			}
		],
		"cosmo_sigma_profile": { 
			"-0.025": 0.0,
			"-0.024": 0.0,
			"-0.023": 0.0,
			"-0.022": 0.0,
			"-0.021": 0.0,
			"-0.02": 0.0,
			"-0.019": 0.0,
			"-0.018": 0.0,
			"-0.017": 0.0,
			"-0.016": 0.219930785239,
			"-0.015": 0.715262782977,
			"-0.014": 1.05490351687,
			"-0.013": 0.698712441852,
			"-0.012": 1.09114796099,
			"-0.011": 1.9283265258,
			"-0.01": 1.56564041734,
			"-0.009": 1.63979963538,
			"-0.008": 2.91873594858,
			"-0.007": 1.99846775765,
			"-0.006": 1.84768671308,
			"-0.005": 2.8073324223,
			"-0.004": 8.80720867709,
			"-0.003": 13.4336864733,
			"-0.002": 14.9840993966,
			"-0.001": 17.3335041333,
			"0.0": 20.1630669546,
			"0.001": 15.0728837503,
			"0.002": 9.2765687967,
			"0.003": 6.66357452008,
			"0.004": 6.29686816479,
			"0.005": 6.9361372349,
			"0.006": 8.30451178016,
			"0.007": 4.73014231799,
			"0.008": 2.25389274053,
			"0.009": 0.983037624444,
			"0.01": 1.54968344087,
			"0.011": 1.67458772648,
			"0.012": 0.839968242367,
			"0.013": 1.22924438105,
			"0.014": 0.381027116498,
			"0.015": 0.0,
			"0.016": 0.0,
			"0.017": 0.0,
			"0.018": 0.0,
			"0.019": 0.0,
			"0.02": 0.0,
			"0.021": 0.0,
			"0.022": 0.0,
			"0.023": 0.0,
			"0.024": 0.0,
			"0.025": 0.0
		}
	}
}
