{
	 "smiles": "CCOC(=O)C(C=CC1=CC(C=CC(C(=O)OCC)C(=O)OCC)=CC=C1)C(=O)OCC", 
	 "Tm": 374.15, 
	 "num_atms": 62, 
	 "gaussian": { 
		 "optdone": 1, 
		 "sigma_profile": "yes", 
		 "theory": "DFT", 
		 "functional": "B3LYP", 
		 "basiset": "6-31G**", 
		 "properties": { 
			 "R2extent": 22650.9489, 
			 "electric_dipole_moment_norm": 4.3556622206, 
			 "electric_quadrupole_moment_norm": 19.7765841252, 
			 "total_energy": -1534.45383693, 
			 "HOMO_LUMO_gap": 0.17799, 
			 "cosmo_polarized_energy": -23.75, 
			 "cosmo_cavitation_energy": 69.75, 
			 "cosmo_dispersion_energy": -43.89, 
			 "cosmo_repulsion_energy": 3.55, 
			 "cosmo_total_nonelectrostatic_energy": 29.4, 
			 "SMD_solvation_energy": 15.94 
		},
		"coords": [
			{
				"x": 7.2741780475,
				"y": -3.1239703483,
				"z": -1.3426940526,
				"element": "C" 
			},
			{
				"x": 5.9906499854,
				"y": -3.1759239864,
				"z": -0.5370314475,
				"element": "C" 
			},
			{
				"x": 5.7827680193,
				"y": -1.8593054056,
				"z": 0.0335079355,
				"element": "O" 
			},
			{
				"x": 4.6846014834,
				"y": -1.7207132124,
				"z": 0.7959014252,
				"element": "C" 
			},
			{
				"x": 3.8926902315,
				"y": -2.6071053671,
				"z": 1.0289853196,
				"element": "O" 
			},
			{
				"x": 4.5445692279,
				"y": -0.276914113,
				"z": 1.3013956411,
				"element": "C" 
			},
			{
				"x": 3.4693852701,
				"y": 0.4223180918,
				"z": 0.5077505065,
				"element": "C" 
			},
			{
				"x": 3.7041650835,
				"y": 1.4959843956,
				"z": -0.2597737481,
				"element": "C" 
			},
			{
				"x": 2.7222789019,
				"y": 2.2433894002,
				"z": -1.0621926287,
				"element": "C" 
			},
			{
				"x": 1.3376336324,
				"y": 2.0653941865,
				"z": -0.9284578434,
				"element": "C" 
			},
			{
				"x": 0.4227153154,
				"y": 2.7869136118,
				"z": -1.7097189745,
				"element": "C" 
			},
			{
				"x": -1.0354177596,
				"y": 2.6331435559,
				"z": -1.5841802159,
				"element": "C" 
			},
			{
				"x": -1.7005584904,
				"y": 1.8852238959,
				"z": -0.6929729488,
				"element": "C" 
			},
			{
				"x": -3.2042685614,
				"y": 1.7763658604,
				"z": -0.6635519693,
				"element": "C" 
			},
			{
				"x": -3.6250502377,
				"y": 0.4276792847,
				"z": -1.2641598774,
				"element": "C" 
			},
			{
				"x": -3.6013108531,
				"y": -0.6231226441,
				"z": -0.6617112208,
				"element": "O" 
			},
			{
				"x": -3.9795794432,
				"y": 0.5700746992,
				"z": -2.5548193335,
				"element": "O" 
			},
			{
				"x": -4.317911928,
				"y": -0.6475854282,
				"z": -3.2689689427,
				"element": "C" 
			},
			{
				"x": -3.0738083865,
				"y": -1.3242803668,
				"z": -3.8227629688,
				"element": "C" 
			},
			{
				"x": -3.7479411016,
				"y": 1.8625059016,
				"z": 0.7645863772,
				"element": "C" 
			},
			{
				"x": -3.0757771442,
				"y": 1.884504838,
				"z": 1.7699231464,
				"element": "O" 
			},
			{
				"x": -5.0932347459,
				"y": 1.9149654443,
				"z": 0.7461450484,
				"element": "O" 
			},
			{
				"x": -5.7429504345,
				"y": 1.9468525888,
				"z": 2.0406728722,
				"element": "C" 
			},
			{
				"x": -7.2396571819,
				"y": 1.9726038408,
				"z": 1.7983042056,
				"element": "C" 
			},
			{
				"x": 0.9245650448,
				"y": 3.7060859352,
				"z": -2.6497021098,
				"element": "C" 
			},
			{
				"x": 2.2962331395,
				"y": 3.9027931141,
				"z": -2.789865515,
				"element": "C" 
			},
			{
				"x": 3.1893081184,
				"y": 3.1826376211,
				"z": -2.0006624634,
				"element": "C" 
			},
			{
				"x": 4.277074966,
				"y": -0.3425856693,
				"z": 2.8115003698,
				"element": "C" 
			},
			{
				"x": 5.160003057,
				"y": -0.4510075288,
				"z": 3.633932817,
				"element": "O" 
			},
			{
				"x": 2.9693740723,
				"y": -0.2881419684,
				"z": 3.0995311035,
				"element": "O" 
			},
			{
				"x": 2.6207089218,
				"y": -0.4099454326,
				"z": 4.5012105306,
				"element": "C" 
			},
			{
				"x": 1.1088977805,
				"y": -0.3505243394,
				"z": 4.5996895344,
				"element": "C" 
			},
			{
				"x": 7.2027559732,
				"y": -2.3851313653,
				"z": -2.1460121,
				"element": "H" 
			},
			{
				"x": 7.468892271,
				"y": -4.1029306607,
				"z": -1.7916136484,
				"element": "H" 
			},
			{
				"x": 8.1244111029,
				"y": -2.8616446192,
				"z": -0.7067690265,
				"element": "H" 
			},
			{
				"x": 5.123666819,
				"y": -3.4302804064,
				"z": -1.1546472191,
				"element": "H" 
			},
			{
				"x": 6.0419752597,
				"y": -3.9048780827,
				"z": 0.2773218818,
				"element": "H" 
			},
			{
				"x": 5.5071302758,
				"y": 0.2229087912,
				"z": 1.1763713373,
				"element": "H" 
			},
			{
				"x": 2.477869202,
				"y": -0.0127349324,
				"z": 0.5886857805,
				"element": "H" 
			},
			{
				"x": 4.7261867342,
				"y": 1.8705033268,
				"z": -0.3218386228,
				"element": "H" 
			},
			{
				"x": 0.9657169301,
				"y": 1.3599535405,
				"z": -0.19324534,
				"element": "H" 
			},
			{
				"x": -1.6165641291,
				"y": 3.2103247635,
				"z": -2.3038549787,
				"element": "H" 
			},
			{
				"x": -1.1865995645,
				"y": 1.2993728835,
				"z": 0.0630830632,
				"element": "H" 
			},
			{
				"x": -3.6636359056,
				"y": 2.5675407368,
				"z": -1.2627260548,
				"element": "H" 
			},
			{
				"x": -4.9848626648,
				"y": -0.3137304925,
				"z": -4.0670958177,
				"element": "H" 
			},
			{
				"x": -4.8621452434,
				"y": -1.3099293096,
				"z": -2.5918581149,
				"element": "H" 
			},
			{
				"x": -3.3616579009,
				"y": -2.1953292973,
				"z": -4.4207650608,
				"element": "H" 
			},
			{
				"x": -2.4273564903,
				"y": -1.6656143653,
				"z": -3.0106503912,
				"element": "H" 
			},
			{
				"x": -2.5087494273,
				"y": -0.639624989,
				"z": -4.4618135013,
				"element": "H" 
			},
			{
				"x": -5.3970950795,
				"y": 2.8314728583,
				"z": 2.5845456764,
				"element": "H" 
			},
			{
				"x": -5.4311323599,
				"y": 1.0652909595,
				"z": 2.6087627518,
				"element": "H" 
			},
			{
				"x": -7.5615635207,
				"y": 1.0831280924,
				"z": 1.2494089084,
				"element": "H" 
			},
			{
				"x": -7.5286284908,
				"y": 2.856975074,
				"z": 1.2230893329,
				"element": "H" 
			},
			{
				"x": -7.7691485324,
				"y": 1.9968684521,
				"z": 2.7558208518,
				"element": "H" 
			},
			{
				"x": 0.2290682095,
				"y": 4.2731851024,
				"z": -3.2629727115,
				"element": "H" 
			},
			{
				"x": 2.6698241694,
				"y": 4.6206263571,
				"z": -3.514435732,
				"element": "H" 
			},
			{
				"x": 4.2594143651,
				"y": 3.3374473778,
				"z": -2.1112916099,
				"element": "H" 
			},
			{
				"x": 3.1053758295,
				"y": 0.4016287304,
				"z": 5.0527868245,
				"element": "H" 
			},
			{
				"x": 3.0240767997,
				"y": -1.3548341425,
				"z": 4.877507334,
				"element": "H" 
			},
			{
				"x": 0.6487856403,
				"y": -1.1668213337,
				"z": 4.0360531905,
				"element": "H" 
			},
			{
				"x": 0.7257740106,
				"y": 0.59668029,
				"z": 4.2097956328,
				"element": "H" 
			},
			{
				"x": 0.8035816866,
				"y": -0.4398337955,
				"z": 5.6469467907,
				"element": "H" 
			}
		],
		 "valence_orbital": [ 
			{
				"type": "occ",
				"energy": -0.27429,
				"method": "rhf"
			},
			{
				"type": "occ",
				"energy": -0.2714,
				"method": "rhf"
			},
			{
				"type": "occ",
				"energy": -0.26923,
				"method": "rhf"
			},
			{
				"type": "occ",
				"energy": -0.22882,
				"method": "rhf"
			},
			{
				"type": "occ",
				"energy": -0.2184,
				"method": "rhf"
			},
			{
				"type": "unocc",
				"energy": -0.04041,
				"method": "rhf"
			},
			{
				"type": "unocc",
				"energy": -0.0369,
				"method": "rhf"
			},
			{
				"type": "unocc",
				"energy": 0.00153,
				"method": "rhf"
			},
			{
				"type": "unocc",
				"energy": 0.00339,
				"method": "rhf"
			},
			{
				"type": "unocc",
				"energy": 0.01556,
				"method": "rhf"
			}
		],
		"cosmo_sigma_profile": { 
			"-0.025": 0.0,
			"-0.024": 0.0,
			"-0.023": 0.0,
			"-0.022": 0.0,
			"-0.021": 0.0,
			"-0.02": 0.0,
			"-0.019": 0.0,
			"-0.018": 0.0,
			"-0.017": 0.0,
			"-0.016": 0.0,
			"-0.015": 0.0,
			"-0.014": 0.0,
			"-0.013": 0.0,
			"-0.012": 0.0,
			"-0.011": 0.0,
			"-0.01": 0.0,
			"-0.009": 0.0,
			"-0.008": 3.80378037015,
			"-0.007": 9.99322092344,
			"-0.006": 24.219350227,
			"-0.005": 40.5651267231,
			"-0.004": 64.8237248575,
			"-0.003": 57.0309119803,
			"-0.002": 51.3175583203,
			"-0.001": 45.7189900822,
			"0.0": 47.9526778653,
			"0.001": 28.9527803647,
			"0.002": 25.8970516132,
			"0.003": 28.0376388175,
			"0.004": 30.6554863555,
			"0.005": 22.3887208368,
			"0.006": 9.9944154935,
			"0.007": 9.37409291989,
			"0.008": 8.22853947217,
			"0.009": 6.83834084215,
			"0.01": 8.57773886237,
			"0.011": 16.5343790777,
			"0.012": 8.67567298424,
			"0.013": 0.164234501063,
			"0.014": 0.0,
			"0.015": 0.0,
			"0.016": 0.0,
			"0.017": 0.0,
			"0.018": 0.0,
			"0.019": 0.0,
			"0.02": 0.0,
			"0.021": 0.0,
			"0.022": 0.0,
			"0.023": 0.0,
			"0.024": 0.0,
			"0.025": 0.0
		}
	}
}
