{
	 "smiles": "COC1=C(N)C2=C(C(N)=C1)C(=O)C1=C(C=CC=C1)C2=O", 
	 "Tm": 515.15, 
	 "num_atms": 32, 
	 "gaussian": { 
		 "optdone": 1, 
		 "sigma_profile": "yes", 
		 "theory": "DFT", 
		 "functional": "B3LYP", 
		 "basiset": "6-31G**", 
		 "properties": { 
			 "R2extent": 6322.1238, 
			 "electric_dipole_moment_norm": 5.01376890173, 
			 "electric_quadrupole_moment_norm": 23.7538477727, 
			 "total_energy": -914.033889646, 
			 "HOMO_LUMO_gap": 0.09747, 
			 "cosmo_polarized_energy": -16.78, 
			 "cosmo_cavitation_energy": 34.79, 
			 "cosmo_dispersion_energy": -26.63, 
			 "cosmo_repulsion_energy": 1.97, 
			 "cosmo_total_nonelectrostatic_energy": 10.13, 
			 "SMD_solvation_energy": 6.61 
		},
		"coords": [
			{
				"x": 0.5742955231,
				"y": -3.995356186,
				"z": -1.4019097635,
				"element": "C" 
			},
			{
				"x": 0.9833545152,
				"y": -2.6446545739,
				"z": -1.2346813368,
				"element": "O" 
			},
			{
				"x": 0.1962089703,
				"y": -1.8114064864,
				"z": -0.4994477254,
				"element": "C" 
			},
			{
				"x": 0.7113189212,
				"y": -0.4698259001,
				"z": -0.4038706617,
				"element": "C" 
			},
			{
				"x": 1.8739666298,
				"y": -0.19339526,
				"z": -1.0422899471,
				"element": "N" 
			},
			{
				"x": -0.02278923,
				"y": 0.4736568059,
				"z": 0.3443943024,
				"element": "C" 
			},
			{
				"x": -1.2611018612,
				"y": 0.0993894346,
				"z": 0.9870084232,
				"element": "C" 
			},
			{
				"x": -1.7395031414,
				"y": -1.227482361,
				"z": 0.8583795354,
				"element": "C" 
			},
			{
				"x": -2.9124561558,
				"y": -1.6321476028,
				"z": 1.4147474947,
				"element": "N" 
			},
			{
				"x": -0.979812254,
				"y": -2.170207394,
				"z": 0.1069275334,
				"element": "C" 
			},
			{
				"x": -2.0161368879,
				"y": 1.0635478261,
				"z": 1.7778028997,
				"element": "C" 
			},
			{
				"x": -3.0877310248,
				"y": 0.7842254168,
				"z": 2.357832783,
				"element": "O" 
			},
			{
				"x": -1.4771345023,
				"y": 2.4442832525,
				"z": 1.8985672709,
				"element": "C" 
			},
			{
				"x": -0.2761402048,
				"y": 2.8143527269,
				"z": 1.2686650131,
				"element": "C" 
			},
			{
				"x": 0.203439086,
				"y": 4.1256937991,
				"z": 1.4002666276,
				"element": "C" 
			},
			{
				"x": -0.5046330153,
				"y": 5.0574656318,
				"z": 2.1507560244,
				"element": "C" 
			},
			{
				"x": -1.7021793671,
				"y": 4.6885533148,
				"z": 2.7791799117,
				"element": "C" 
			},
			{
				"x": -2.1848106038,
				"y": 3.3906201777,
				"z": 2.65332819,
				"element": "C" 
			},
			{
				"x": 0.4998902905,
				"y": 1.8370150708,
				"z": 0.4632487143,
				"element": "C" 
			},
			{
				"x": 1.5623421548,
				"y": 2.2051480144,
				"z": -0.0772127329,
				"element": "O" 
			},
			{
				"x": 1.3413508694,
				"y": -4.4693710072,
				"z": -2.0152491323,
				"element": "H" 
			},
			{
				"x": 0.5074356682,
				"y": -4.51287385,
				"z": -0.4372083081,
				"element": "H" 
			},
			{
				"x": -0.3928978975,
				"y": -4.0570826068,
				"z": -1.9152712082,
				"element": "H" 
			},
			{
				"x": 2.3500085301,
				"y": -0.9314177324,
				"z": -1.5315012604,
				"element": "H" 
			},
			{
				"x": 2.2323429885,
				"y": 0.7514121214,
				"z": -0.9495707405,
				"element": "H" 
			},
			{
				"x": -3.1578673855,
				"y": -2.6077419747,
				"z": 1.4170587732,
				"element": "H" 
			},
			{
				"x": -3.3901269668,
				"y": -0.9520602471,
				"z": 2.0019963431,
				"element": "H" 
			},
			{
				"x": -1.3593544712,
				"y": -3.1821502569,
				"z": 0.0198458515,
				"element": "H" 
			},
			{
				"x": 1.1324809215,
				"y": 4.3822845064,
				"z": 0.9031595039,
				"element": "H" 
			},
			{
				"x": -0.1293235621,
				"y": 6.072092363,
				"z": 2.2500359076,
				"element": "H" 
			},
			{
				"x": -2.2544717798,
				"y": 5.4177586397,
				"z": 3.3652872953,
				"element": "H" 
			},
			{
				"x": -3.1083647573,
				"y": 3.0774743374,
				"z": 3.1276244185,
				"element": "H" 
			}
		],
		 "valence_orbital": [ 
			{
				"type": "occ",
				"energy": -0.24741,
				"method": "rhf"
			},
			{
				"type": "occ",
				"energy": -0.24726,
				"method": "rhf"
			},
			{
				"type": "occ",
				"energy": -0.24202,
				"method": "rhf"
			},
			{
				"type": "occ",
				"energy": -0.23758,
				"method": "rhf"
			},
			{
				"type": "occ",
				"energy": -0.1768,
				"method": "rhf"
			},
			{
				"type": "unocc",
				"energy": -0.07933,
				"method": "rhf"
			},
			{
				"type": "unocc",
				"energy": -0.0303,
				"method": "rhf"
			},
			{
				"type": "unocc",
				"energy": -0.00293,
				"method": "rhf"
			},
			{
				"type": "unocc",
				"energy": 0.02271,
				"method": "rhf"
			},
			{
				"type": "unocc",
				"energy": 0.07395,
				"method": "rhf"
			}
		],
		"cosmo_sigma_profile": { 
			"-0.025": 0.0,
			"-0.024": 0.0,
			"-0.023": 0.0,
			"-0.022": 0.0,
			"-0.021": 0.0,
			"-0.02": 0.0,
			"-0.019": 0.0,
			"-0.018": 0.0,
			"-0.017": 0.0,
			"-0.016": 0.0,
			"-0.015": 0.0,
			"-0.014": 0.891710711386,
			"-0.013": 1.53452135193,
			"-0.012": 2.5468546641,
			"-0.011": 2.16902202481,
			"-0.01": 2.48459257004,
			"-0.009": 2.32721326024,
			"-0.008": 5.06682922785,
			"-0.007": 8.21436833695,
			"-0.006": 16.2934473288,
			"-0.005": 17.870860624,
			"-0.004": 20.0686273134,
			"-0.003": 13.9727800249,
			"-0.002": 10.270199475,
			"-0.001": 13.2329796325,
			"0.0": 18.0882176765,
			"0.001": 23.5561657572,
			"0.002": 28.8184432394,
			"0.003": 33.9075149021,
			"0.004": 20.5177531627,
			"0.005": 8.1620528558,
			"0.006": 4.84717129889,
			"0.007": 4.32199431219,
			"0.008": 3.64993555805,
			"0.009": 2.88253709354,
			"0.01": 3.21041996517,
			"0.011": 3.66297002567,
			"0.012": 4.36168399281,
			"0.013": 2.07787044606,
			"0.014": 0.00285519128138,
			"0.015": 0.0,
			"0.016": 0.0,
			"0.017": 0.0,
			"0.018": 0.0,
			"0.019": 0.0,
			"0.02": 0.0,
			"0.021": 0.0,
			"0.022": 0.0,
			"0.023": 0.0,
			"0.024": 0.0,
			"0.025": 0.0
		}
	}
}
