{
	 "smiles": "OC1=CC=NC(S)=N1", 
	 "Tm": 573.15, 
	 "num_atms": 12, 
	 "gaussian": { 
		 "optdone": 1, 
		 "sigma_profile": "yes", 
		 "theory": "DFT", 
		 "functional": "B3LYP", 
		 "basiset": "6-31G**", 
		 "properties": { 
			 "R2extent": 1942.1753, 
			 "electric_dipole_moment_norm": 2.3065127227, 
			 "electric_quadrupole_moment_norm": 11.4931104902, 
			 "total_energy": -737.750762138, 
			 "HOMO_LUMO_gap": 0.20473, 
			 "cosmo_polarized_energy": -9.5, 
			 "cosmo_cavitation_energy": 18.42, 
			 "cosmo_dispersion_energy": -14.64, 
			 "cosmo_repulsion_energy": 1.18, 
			 "cosmo_total_nonelectrostatic_energy": 4.96, 
			 "SMD_solvation_energy": 0.61 
		},
		"coords": [
			{
				"x": -1.6224056011,
				"y": -0.0474290829,
				"z": -0.7670472604,
				"element": "O" 
			},
			{
				"x": -0.2885180907,
				"y": -0.1524535528,
				"z": -0.8768338177,
				"element": "C" 
			},
			{
				"x": 0.5322247006,
				"y": 0.8243363571,
				"z": -0.2966335531,
				"element": "C" 
			},
			{
				"x": 1.8945225809,
				"y": 0.6292738004,
				"z": -0.4633752638,
				"element": "C" 
			},
			{
				"x": 2.4185100757,
				"y": -0.4127874774,
				"z": -1.1291325917,
				"element": "N" 
			},
			{
				"x": 1.5314522622,
				"y": -1.2705615784,
				"z": -1.6333776231,
				"element": "C" 
			},
			{
				"x": 2.2454209031,
				"y": -2.6427327042,
				"z": -2.5096556889,
				"element": "S" 
			},
			{
				"x": 0.195796337,
				"y": -1.1994762365,
				"z": -1.5443161959,
				"element": "N" 
			},
			{
				"x": -1.9994749098,
				"y": -0.8129943812,
				"z": -1.2307283195,
				"element": "H" 
			},
			{
				"x": 0.1163126192,
				"y": 1.666486112,
				"z": 0.2410887444,
				"element": "H" 
			},
			{
				"x": 2.6089735535,
				"y": 1.3365800627,
				"z": -0.0472054757,
				"element": "H" 
			},
			{
				"x": 1.0658855694,
				"y": -3.2120413187,
				"z": -2.8232829546,
				"element": "H" 
			}
		],
		 "valence_orbital": [ 
			{
				"type": "occ",
				"energy": -0.32087,
				"method": "rhf"
			},
			{
				"type": "occ",
				"energy": -0.31484,
				"method": "rhf"
			},
			{
				"type": "occ",
				"energy": -0.28602,
				"method": "rhf"
			},
			{
				"type": "occ",
				"energy": -0.26901,
				"method": "rhf"
			},
			{
				"type": "occ",
				"energy": -0.24186,
				"method": "rhf"
			},
			{
				"type": "unocc",
				"energy": -0.03713,
				"method": "rhf"
			},
			{
				"type": "unocc",
				"energy": -0.02124,
				"method": "rhf"
			},
			{
				"type": "unocc",
				"energy": 0.01978,
				"method": "rhf"
			},
			{
				"type": "unocc",
				"energy": 0.07278,
				"method": "rhf"
			},
			{
				"type": "unocc",
				"energy": 0.08065,
				"method": "rhf"
			}
		],
		"cosmo_sigma_profile": { 
			"-0.025": 0.0,
			"-0.024": 0.0,
			"-0.023": 0.0,
			"-0.022": 0.0,
			"-0.021": 0.0,
			"-0.02": 0.0,
			"-0.019": 0.0,
			"-0.018": 0.41226067816,
			"-0.017": 1.04072934308,
			"-0.016": 0.893664935498,
			"-0.015": 0.385244010477,
			"-0.014": 0.916815548457,
			"-0.013": 0.452397794408,
			"-0.012": 0.817108452352,
			"-0.011": 1.66715209885,
			"-0.01": 2.61454064077,
			"-0.009": 1.77785168013,
			"-0.008": 4.65141789925,
			"-0.007": 6.58346461365,
			"-0.006": 6.29235584134,
			"-0.005": 5.46525830894,
			"-0.004": 4.48970363477,
			"-0.003": 5.48146137465,
			"-0.002": 9.00669007508,
			"-0.001": 11.5710998555,
			"0.0": 12.7047834523,
			"0.001": 12.0773917702,
			"0.002": 9.83342248984,
			"0.003": 8.89307814655,
			"0.004": 8.5793018921,
			"0.005": 7.89583221376,
			"0.006": 7.30808020131,
			"0.007": 5.90233138264,
			"0.008": 4.07658265615,
			"0.009": 3.71501539988,
			"0.01": 1.21255059632,
			"0.011": 1.36136719793,
			"0.012": 0.747675555969,
			"0.013": 0.769514060442,
			"0.014": 0.811240986518,
			"0.015": 0.17779176379,
			"0.016": 0.0,
			"0.017": 0.0,
			"0.018": 0.0,
			"0.019": 0.0,
			"0.02": 0.0,
			"0.021": 0.0,
			"0.022": 0.0,
			"0.023": 0.0,
			"0.024": 0.0,
			"0.025": 0.0
		}
	}
}
