{
	 "smiles": "CCCCC(CC)COP(O)(=O)OCC(CC)CCCC", 
	 "Tm": 223.15, 
	 "num_atms": 56, 
	 "gaussian": { 
		 "optdone": 1, 
		 "sigma_profile": "yes", 
		 "theory": "DFT", 
		 "functional": "B3LYP", 
		 "basiset": "6-31G**", 
		 "properties": { 
			 "R2extent": 9794.7704, 
			 "electric_dipole_moment_norm": 0.822504589653, 
			 "electric_quadrupole_moment_norm": 8.21543744118, 
			 "total_energy": -1273.17289019, 
			 "HOMO_LUMO_gap": 0.32021, 
			 "cosmo_polarized_energy": -13.27, 
			 "cosmo_cavitation_energy": 56.47, 
			 "cosmo_dispersion_energy": -35.17, 
			 "cosmo_repulsion_energy": 2.81, 
			 "cosmo_total_nonelectrostatic_energy": 24.1, 
			 "SMD_solvation_energy": 10.5 
		},
		"coords": [
			{
				"x": -0.1065593952,
				"y": 5.0277874475,
				"z": -1.4034258326,
				"element": "C" 
			},
			{
				"x": 1.0801366863,
				"y": 4.2961235415,
				"z": -0.7673397858,
				"element": "C" 
			},
			{
				"x": 1.0484996347,
				"y": 2.781432377,
				"z": -1.0172234755,
				"element": "C" 
			},
			{
				"x": 2.2751100956,
				"y": 2.012929926,
				"z": -0.4952586019,
				"element": "C" 
			},
			{
				"x": 2.5410946034,
				"y": 2.0708569059,
				"z": 1.0253899087,
				"element": "C" 
			},
			{
				"x": 3.8013126665,
				"y": 1.2533598753,
				"z": 1.3804537475,
				"element": "C" 
			},
			{
				"x": 4.2955860672,
				"y": 1.4124678311,
				"z": 2.8227717263,
				"element": "C" 
			},
			{
				"x": 1.3221136981,
				"y": 1.656126935,
				"z": 1.8484967225,
				"element": "C" 
			},
			{
				"x": 0.9879754901,
				"y": 0.2711346874,
				"z": 1.5541140102,
				"element": "O" 
			},
			{
				"x": -0.5377541651,
				"y": -0.2069762913,
				"z": 1.6836577531,
				"element": "P" 
			},
			{
				"x": -0.713181424,
				"y": -0.4855568364,
				"z": 3.2653629362,
				"element": "O" 
			},
			{
				"x": -1.5586332667,
				"y": 0.7026151565,
				"z": 1.1060544357,
				"element": "O" 
			},
			{
				"x": -0.4541132427,
				"y": -1.6984295108,
				"z": 1.1090832356,
				"element": "O" 
			},
			{
				"x": -0.3150154729,
				"y": -1.9255218446,
				"z": -0.3189845558,
				"element": "C" 
			},
			{
				"x": -1.6403152801,
				"y": -1.8909479005,
				"z": -1.0900686272,
				"element": "C" 
			},
			{
				"x": -2.6126027166,
				"y": -3.0177825128,
				"z": -0.6769916192,
				"element": "C" 
			},
			{
				"x": -3.2698542919,
				"y": -2.8749206733,
				"z": 0.7027159152,
				"element": "C" 
			},
			{
				"x": -1.3126446376,
				"y": -1.9558585081,
				"z": -2.602211678,
				"element": "C" 
			},
			{
				"x": -2.455433544,
				"y": -1.4925109276,
				"z": -3.5187015847,
				"element": "C" 
			},
			{
				"x": -2.148927145,
				"y": -1.6110553585,
				"z": -5.0215848424,
				"element": "C" 
			},
			{
				"x": -1.0222528262,
				"y": -0.6972260329,
				"z": -5.5190092611,
				"element": "C" 
			},
			{
				"x": -0.0654304534,
				"y": 6.1047364091,
				"z": -1.2094217919,
				"element": "H" 
			},
			{
				"x": -1.0578353987,
				"y": 4.6533294016,
				"z": -1.0090856723,
				"element": "H" 
			},
			{
				"x": -0.1218219885,
				"y": 4.8855752434,
				"z": -2.4901581056,
				"element": "H" 
			},
			{
				"x": 2.0203183169,
				"y": 4.7085301908,
				"z": -1.1599591927,
				"element": "H" 
			},
			{
				"x": 1.0887865107,
				"y": 4.4998039914,
				"z": 0.3115760469,
				"element": "H" 
			},
			{
				"x": 0.9815896357,
				"y": 2.6094393578,
				"z": -2.1003810743,
				"element": "H" 
			},
			{
				"x": 0.1275314484,
				"y": 2.358853736,
				"z": -0.5949504656,
				"element": "H" 
			},
			{
				"x": 3.1729056807,
				"y": 2.3881652778,
				"z": -1.0050757771,
				"element": "H" 
			},
			{
				"x": 2.1814376237,
				"y": 0.9592113135,
				"z": -0.7864995762,
				"element": "H" 
			},
			{
				"x": 2.7308425992,
				"y": 3.1175167936,
				"z": 1.3081821902,
				"element": "H" 
			},
			{
				"x": 4.602978295,
				"y": 1.5553540346,
				"z": 0.6945299687,
				"element": "H" 
			},
			{
				"x": 3.6037580503,
				"y": 0.1945472756,
				"z": 1.1740052581,
				"element": "H" 
			},
			{
				"x": 5.2339557195,
				"y": 0.8687533738,
				"z": 2.9724497487,
				"element": "H" 
			},
			{
				"x": 4.480996365,
				"y": 2.4648583995,
				"z": 3.068508965,
				"element": "H" 
			},
			{
				"x": 3.5777004554,
				"y": 1.0206609459,
				"z": 3.5505396396,
				"element": "H" 
			},
			{
				"x": 0.4590368302,
				"y": 2.2860418107,
				"z": 1.6168495837,
				"element": "H" 
			},
			{
				"x": 1.5241412693,
				"y": 1.7262491008,
				"z": 2.9217214163,
				"element": "H" 
			},
			{
				"x": -1.6301326383,
				"y": -0.3195949822,
				"z": 3.5258777396,
				"element": "H" 
			},
			{
				"x": 0.1541516655,
				"y": -2.9117103343,
				"z": -0.3956851583,
				"element": "H" 
			},
			{
				"x": 0.3861554541,
				"y": -1.188437756,
				"z": -0.7255651083,
				"element": "H" 
			},
			{
				"x": -2.1088077731,
				"y": -0.9201233938,
				"z": -0.8812252932,
				"element": "H" 
			},
			{
				"x": -2.0810393321,
				"y": -3.9790101545,
				"z": -0.7358726772,
				"element": "H" 
			},
			{
				"x": -3.4087307167,
				"y": -3.0730587493,
				"z": -1.4286143979,
				"element": "H" 
			},
			{
				"x": -3.7613579233,
				"y": -1.9004573862,
				"z": 0.8011742248,
				"element": "H" 
			},
			{
				"x": -2.5419792133,
				"y": -2.9645241646,
				"z": 1.511736088,
				"element": "H" 
			},
			{
				"x": -4.0319786606,
				"y": -3.6488834181,
				"z": 0.8450050887,
				"element": "H" 
			},
			{
				"x": -1.0256604527,
				"y": -2.9842725691,
				"z": -2.8683945133,
				"element": "H" 
			},
			{
				"x": -0.430542151,
				"y": -1.3341634036,
				"z": -2.8019940716,
				"element": "H" 
			},
			{
				"x": -3.3598133906,
				"y": -2.074699585,
				"z": -3.3043488876,
				"element": "H" 
			},
			{
				"x": -2.7021246126,
				"y": -0.4483611088,
				"z": -3.2802778946,
				"element": "H" 
			},
			{
				"x": -1.9045756661,
				"y": -2.6557289668,
				"z": -5.2590628797,
				"element": "H" 
			},
			{
				"x": -3.0644580294,
				"y": -1.3809284587,
				"z": -5.5812678731,
				"element": "H" 
			},
			{
				"x": -1.238187117,
				"y": 0.3534101891,
				"z": -5.2921347246,
				"element": "H" 
			},
			{
				"x": -0.8967407141,
				"y": -0.7831594364,
				"z": -6.6034083345,
				"element": "H" 
			},
			{
				"x": -0.0596112216,
				"y": -0.9436712643,
				"z": -5.059273015,
				"element": "H" 
			}
		],
		 "valence_orbital": [ 
			{
				"type": "occ",
				"energy": -0.30564,
				"method": "rhf"
			},
			{
				"type": "occ",
				"energy": -0.30137,
				"method": "rhf"
			},
			{
				"type": "occ",
				"energy": -0.29671,
				"method": "rhf"
			},
			{
				"type": "occ",
				"energy": -0.28556,
				"method": "rhf"
			},
			{
				"type": "occ",
				"energy": -0.27765,
				"method": "rhf"
			},
			{
				"type": "unocc",
				"energy": 0.04256,
				"method": "rhf"
			},
			{
				"type": "unocc",
				"energy": 0.06963,
				"method": "rhf"
			},
			{
				"type": "unocc",
				"energy": 0.08355,
				"method": "rhf"
			},
			{
				"type": "unocc",
				"energy": 0.09184,
				"method": "rhf"
			},
			{
				"type": "unocc",
				"energy": 0.10003,
				"method": "rhf"
			}
		],
		"cosmo_sigma_profile": { 
			"-0.025": 0.0,
			"-0.024": 0.0,
			"-0.023": 0.0,
			"-0.022": 0.0,
			"-0.021": 0.0,
			"-0.02": 0.0883094852334,
			"-0.019": 0.697392277523,
			"-0.018": 0.980012517731,
			"-0.017": 0.970650903966,
			"-0.016": 0.71895048986,
			"-0.015": 0.91803995192,
			"-0.014": 0.403950062089,
			"-0.013": 0.154657938677,
			"-0.012": 1.05095599136,
			"-0.011": 0.995216985794,
			"-0.01": 0.794365748162,
			"-0.009": 0.60132231396,
			"-0.008": 0.479545154882,
			"-0.007": 0.655536357934,
			"-0.006": 1.51155035549,
			"-0.005": 6.234826792,
			"-0.004": 16.3924761596,
			"-0.003": 31.759625134,
			"-0.002": 61.4874514869,
			"-0.001": 70.0621520171,
			"0.0": 79.8207778959,
			"0.001": 68.4663009175,
			"0.002": 30.6895472723,
			"0.003": 8.80421765097,
			"0.004": 6.9500439428,
			"0.005": 6.14048897399,
			"0.006": 6.31881674788,
			"0.007": 4.34470023401,
			"0.008": 5.15894882349,
			"0.009": 3.85866446673,
			"0.01": 3.53447340049,
			"0.011": 2.75513238985,
			"0.012": 1.12830637931,
			"0.013": 1.75235805405,
			"0.014": 3.3613099224,
			"0.015": 1.09852657114,
			"0.016": 0.0,
			"0.017": 0.0,
			"0.018": 0.0,
			"0.019": 0.0,
			"0.02": 0.0,
			"0.021": 0.0,
			"0.022": 0.0,
			"0.023": 0.0,
			"0.024": 0.0,
			"0.025": 0.0
		}
	}
}
