{
	 "smiles": "CN(C)C1=CC=C(C=C1)C1NN2C(S1)=NN=C2C1=CC(=CC=C1)[N+]([O-])=O", 
	 "Tm": 471.15, 
	 "num_atms": 42, 
	 "gaussian": { 
		 "optdone": 1, 
		 "sigma_profile": "yes", 
		 "theory": "DFT", 
		 "functional": "B3LYP", 
		 "basiset": "6-31G**", 
		 "properties": { 
			 "R2extent": 13496.59, 
			 "electric_dipole_moment_norm": 4.13581594005, 
			 "electric_quadrupole_moment_norm": 39.5921830232, 
			 "total_energy": -1534.42018892, 
			 "HOMO_LUMO_gap": 0.1069, 
			 "cosmo_polarized_energy": -24.42, 
			 "cosmo_cavitation_energy": 48.01, 
			 "cosmo_dispersion_energy": -33.7, 
			 "cosmo_repulsion_energy": 2.46, 
			 "cosmo_total_nonelectrostatic_energy": 16.77, 
			 "SMD_solvation_energy": 7.35 
		},
		"coords": [
			{
				"x": 3.7539634446,
				"y": 1.2453944161,
				"z": 1.0652404216,
				"element": "C" 
			},
			{
				"x": 3.2590944456,
				"y": 0.0116189518,
				"z": 1.6532358461,
				"element": "N" 
			},
			{
				"x": 4.2120789198,
				"y": -0.9070156988,
				"z": 2.2536305256,
				"element": "C" 
			},
			{
				"x": 1.9842612293,
				"y": -0.4295777342,
				"z": 1.3424194042,
				"element": "C" 
			},
			{
				"x": 1.5239128509,
				"y": -1.7043308421,
				"z": 1.7538205209,
				"element": "C" 
			},
			{
				"x": 0.2389426425,
				"y": -2.1316564847,
				"z": 1.4522228983,
				"element": "C" 
			},
			{
				"x": -0.6539597783,
				"y": -1.32785517,
				"z": 0.7311179244,
				"element": "C" 
			},
			{
				"x": -0.2054053044,
				"y": -0.06777227,
				"z": 0.320768159,
				"element": "C" 
			},
			{
				"x": 1.0822378178,
				"y": 0.3729146478,
				"z": 0.6079894374,
				"element": "C" 
			},
			{
				"x": -2.0663613839,
				"y": -1.7929423245,
				"z": 0.4736770227,
				"element": "C" 
			},
			{
				"x": -2.8026557542,
				"y": -0.9360015659,
				"z": -0.4619952518,
				"element": "N" 
			},
			{
				"x": -2.5060864465,
				"y": -1.4354862461,
				"z": -1.7445922378,
				"element": "N" 
			},
			{
				"x": -2.1681123537,
				"y": -2.7576118649,
				"z": -1.8603835976,
				"element": "C" 
			},
			{
				"x": -2.1249971292,
				"y": -3.5640952461,
				"z": -0.301989747,
				"element": "S" 
			},
			{
				"x": -1.9391461815,
				"y": -3.0728240999,
				"z": -3.1111445917,
				"element": "N" 
			},
			{
				"x": -2.148169036,
				"y": -1.9169220979,
				"z": -3.8430298529,
				"element": "N" 
			},
			{
				"x": -2.4733864958,
				"y": -0.9293721004,
				"z": -3.0248180192,
				"element": "C" 
			},
			{
				"x": -2.7442867855,
				"y": 0.4463261971,
				"z": -3.4427242896,
				"element": "C" 
			},
			{
				"x": -3.0770634837,
				"y": 1.4569657498,
				"z": -2.5320345514,
				"element": "C" 
			},
			{
				"x": -3.3159475722,
				"y": 2.7415994843,
				"z": -3.0134641606,
				"element": "C" 
			},
			{
				"x": -3.2401322526,
				"y": 3.0646202785,
				"z": -4.3653292776,
				"element": "C" 
			},
			{
				"x": -2.9087985249,
				"y": 2.0500631823,
				"z": -5.2648013515,
				"element": "C" 
			},
			{
				"x": -2.6632290687,
				"y": 0.7563806438,
				"z": -4.8144808451,
				"element": "C" 
			},
			{
				"x": -3.6649224439,
				"y": 3.7984503718,
				"z": -2.0478386468,
				"element": "N" 
			},
			{
				"x": -3.8620058546,
				"y": 4.9304265244,
				"z": -2.4872610915,
				"element": "O" 
			},
			{
				"x": -3.7385073784,
				"y": 3.485949941,
				"z": -0.8594029512,
				"element": "O" 
			},
			{
				"x": 4.7601873545,
				"y": 1.4409926692,
				"z": 1.4382229943,
				"element": "H" 
			},
			{
				"x": 3.1260069733,
				"y": 2.0982457993,
				"z": 1.3483933889,
				"element": "H" 
			},
			{
				"x": 3.7969190997,
				"y": 1.2056991983,
				"z": -0.0338169314,
				"element": "H" 
			},
			{
				"x": 3.8463425224,
				"y": -1.2847214183,
				"z": 3.215692949,
				"element": "H" 
			},
			{
				"x": 4.4327993213,
				"y": -1.7726958436,
				"z": 1.6106961558,
				"element": "H" 
			},
			{
				"x": 5.1469438048,
				"y": -0.3781738604,
				"z": 2.4438923979,
				"element": "H" 
			},
			{
				"x": 2.1750639531,
				"y": -2.3717771803,
				"z": 2.3039842389,
				"element": "H" 
			},
			{
				"x": -0.0653010327,
				"y": -3.1244216363,
				"z": 1.7735598067,
				"element": "H" 
			},
			{
				"x": -0.8725965062,
				"y": 0.5864649637,
				"z": -0.2288645232,
				"element": "H" 
			},
			{
				"x": 1.380504788,
				"y": 1.3525021872,
				"z": 0.2563215966,
				"element": "H" 
			},
			{
				"x": -2.6511006533,
				"y": -1.8626788807,
				"z": 1.39439407,
				"element": "H" 
			},
			{
				"x": -3.8050103683,
				"y": -1.0697346029,
				"z": -0.3147442397,
				"element": "H" 
			},
			{
				"x": -3.1467221326,
				"y": 1.2683577668,
				"z": -1.4688718198,
				"element": "H" 
			},
			{
				"x": -3.4373082068,
				"y": 4.0796150673,
				"z": -4.6857319189,
				"element": "H" 
			},
			{
				"x": -2.8424712493,
				"y": 2.2725833306,
				"z": -6.3249449709,
				"element": "H" 
			},
			{
				"x": -2.4038757907,
				"y": -0.0368042029,
				"z": -5.5069148907,
				"element": "H" 
			}
		],
		 "valence_orbital": [ 
			{
				"type": "occ",
				"energy": -0.27574,
				"method": "rhf"
			},
			{
				"type": "occ",
				"energy": -0.25884,
				"method": "rhf"
			},
			{
				"type": "occ",
				"energy": -0.25508,
				"method": "rhf"
			},
			{
				"type": "occ",
				"energy": -0.22598,
				"method": "rhf"
			},
			{
				"type": "occ",
				"energy": -0.19865,
				"method": "rhf"
			},
			{
				"type": "unocc",
				"energy": -0.09175,
				"method": "rhf"
			},
			{
				"type": "unocc",
				"energy": -0.05309,
				"method": "rhf"
			},
			{
				"type": "unocc",
				"energy": -0.02797,
				"method": "rhf"
			},
			{
				"type": "unocc",
				"energy": -0.00766,
				"method": "rhf"
			},
			{
				"type": "unocc",
				"energy": -0.00532,
				"method": "rhf"
			}
		],
		"cosmo_sigma_profile": { 
			"-0.025": 0.0,
			"-0.024": 0.0,
			"-0.023": 0.0,
			"-0.022": 0.0,
			"-0.021": 0.0,
			"-0.02": 0.0,
			"-0.019": 0.0,
			"-0.018": 0.0,
			"-0.017": 0.0,
			"-0.016": 0.575997884176,
			"-0.015": 2.11433415179,
			"-0.014": 2.20300568662,
			"-0.013": 1.33116434733,
			"-0.012": 2.03622130067,
			"-0.011": 1.81657841284,
			"-0.01": 2.72201860489,
			"-0.009": 4.42500709606,
			"-0.008": 5.75364784898,
			"-0.007": 9.43812578778,
			"-0.006": 14.5851026266,
			"-0.005": 20.5810225112,
			"-0.004": 30.2411371359,
			"-0.003": 30.2928901894,
			"-0.002": 35.1191836384,
			"-0.001": 34.7697250999,
			"0.0": 32.0756711973,
			"0.001": 25.6966204488,
			"0.002": 18.3657276384,
			"0.003": 15.7547371168,
			"0.004": 14.8038484653,
			"0.005": 17.4275569736,
			"0.006": 17.573752219,
			"0.007": 12.8165661695,
			"0.008": 9.20322460063,
			"0.009": 6.08761659221,
			"0.01": 4.49999721176,
			"0.011": 2.18576144201,
			"0.012": 2.9695181873,
			"0.013": 3.57259560023,
			"0.014": 2.9107512837,
			"0.015": 1.82494229421,
			"0.016": 0.775443729723,
			"0.017": 0.0380472010065,
			"0.018": 0.0,
			"0.019": 0.0,
			"0.02": 0.0,
			"0.021": 0.0,
			"0.022": 0.0,
			"0.023": 0.0,
			"0.024": 0.0,
			"0.025": 0.0
		}
	}
}
