{
	 "smiles": "COC1=C(C)C=C(C=C1)C#N", 
	 "Tm": 323.15, 
	 "num_atms": 20, 
	 "gaussian": { 
		 "optdone": 1, 
		 "sigma_profile": "yes", 
		 "theory": "DFT", 
		 "functional": "B3LYP", 
		 "basiset": "6-31G**", 
		 "properties": { 
			 "R2extent": 2319.7081, 
			 "electric_dipole_moment_norm": 6.06804813017, 
			 "electric_quadrupole_moment_norm": 20.3243088773, 
			 "total_energy": -478.338755969, 
			 "HOMO_LUMO_gap": 0.19734, 
			 "cosmo_polarized_energy": -10.58, 
			 "cosmo_cavitation_energy": 24.83, 
			 "cosmo_dispersion_energy": -17.61, 
			 "cosmo_repulsion_energy": 1.42, 
			 "cosmo_total_nonelectrostatic_energy": 8.64, 
			 "SMD_solvation_energy": 6.56 
		},
		"coords": [
			{
				"x": 1.9610270792,
				"y": 0.1463480503,
				"z": -1.7176610633,
				"element": "C" 
			},
			{
				"x": 1.0055446986,
				"y": 0.6740416706,
				"z": -0.8069018251,
				"element": "O" 
			},
			{
				"x": 0.1486736283,
				"y": -0.1813568877,
				"z": -0.1868947192,
				"element": "C" 
			},
			{
				"x": -0.7677398891,
				"y": 0.4288008999,
				"z": 0.701720869,
				"element": "C" 
			},
			{
				"x": -0.7411456035,
				"y": 1.922185734,
				"z": 0.8995949997,
				"element": "C" 
			},
			{
				"x": -1.6733521569,
				"y": -0.3852652926,
				"z": 1.3701251847,
				"element": "C" 
			},
			{
				"x": -1.690894258,
				"y": -1.7810545653,
				"z": 1.1788504274,
				"element": "C" 
			},
			{
				"x": -0.774822431,
				"y": -2.3640736859,
				"z": 0.2946059862,
				"element": "C" 
			},
			{
				"x": 0.142346158,
				"y": -1.5672281847,
				"z": -0.3864202267,
				"element": "C" 
			},
			{
				"x": -2.6367605144,
				"y": -2.5931716696,
				"z": 1.8827396213,
				"element": "C" 
			},
			{
				"x": -3.4059153693,
				"y": -3.2531955883,
				"z": 2.4552107144,
				"element": "N" 
			},
			{
				"x": 2.527894894,
				"y": 1.0024719353,
				"z": -2.0852321581,
				"element": "H" 
			},
			{
				"x": 1.4757505161,
				"y": -0.3568417703,
				"z": -2.562958746,
				"element": "H" 
			},
			{
				"x": 2.6439798622,
				"y": -0.5548926316,
				"z": -1.2226213207,
				"element": "H" 
			},
			{
				"x": -0.9116759371,
				"y": 2.4490704945,
				"z": -0.0453546867,
				"element": "H" 
			},
			{
				"x": 0.2345973783,
				"y": 2.2543410413,
				"z": 1.2700136078,
				"element": "H" 
			},
			{
				"x": -1.5071994586,
				"y": 2.2343469801,
				"z": 1.6133800696,
				"element": "H" 
			},
			{
				"x": -2.3851081467,
				"y": 0.0629756593,
				"z": 2.0565482766,
				"element": "H" 
			},
			{
				"x": -0.7809835522,
				"y": -3.4379209709,
				"z": 0.1410831907,
				"element": "H" 
			},
			{
				"x": 0.844583102,
				"y": -2.0325812184,
				"z": -1.0670282015,
				"element": "H" 
			}
		],
		 "valence_orbital": [ 
			{
				"type": "occ",
				"energy": -0.34346,
				"method": "rhf"
			},
			{
				"type": "occ",
				"energy": -0.31999,
				"method": "rhf"
			},
			{
				"type": "occ",
				"energy": -0.31558,
				"method": "rhf"
			},
			{
				"type": "occ",
				"energy": -0.26547,
				"method": "rhf"
			},
			{
				"type": "occ",
				"energy": -0.23286,
				"method": "rhf"
			},
			{
				"type": "unocc",
				"energy": -0.03552,
				"method": "rhf"
			},
			{
				"type": "unocc",
				"energy": -0.0168,
				"method": "rhf"
			},
			{
				"type": "unocc",
				"energy": 0.04561,
				"method": "rhf"
			},
			{
				"type": "unocc",
				"energy": 0.0802,
				"method": "rhf"
			},
			{
				"type": "unocc",
				"energy": 0.08609,
				"method": "rhf"
			}
		],
		"cosmo_sigma_profile": { 
			"-0.025": 0.0,
			"-0.024": 0.0,
			"-0.023": 0.0,
			"-0.022": 0.0,
			"-0.021": 0.0,
			"-0.02": 0.0,
			"-0.019": 0.0,
			"-0.018": 0.0,
			"-0.017": 0.0,
			"-0.016": 0.0,
			"-0.015": 0.0,
			"-0.014": 0.0,
			"-0.013": 0.0,
			"-0.012": 0.0,
			"-0.011": 0.0,
			"-0.01": 0.0,
			"-0.009": 0.0,
			"-0.008": 1.12745876771,
			"-0.007": 7.811703099,
			"-0.006": 14.9049642564,
			"-0.005": 15.2764640583,
			"-0.004": 17.4131579042,
			"-0.003": 16.4749834796,
			"-0.002": 11.1765037559,
			"-0.001": 14.9614905052,
			"0.0": 20.416521479,
			"0.001": 13.4651765357,
			"0.002": 14.455996328,
			"0.003": 13.9591846825,
			"0.004": 5.32104591749,
			"0.005": 3.15937276272,
			"0.006": 4.71096975329,
			"0.007": 3.64969142198,
			"0.008": 4.48306346035,
			"0.009": 3.74329115802,
			"0.01": 3.52790812078,
			"0.011": 3.18253735316,
			"0.012": 2.49827962082,
			"0.013": 2.29014982254,
			"0.014": 0.656829696524,
			"0.015": 0.0,
			"0.016": 0.0,
			"0.017": 0.0,
			"0.018": 0.0,
			"0.019": 0.0,
			"0.02": 0.0,
			"0.021": 0.0,
			"0.022": 0.0,
			"0.023": 0.0,
			"0.024": 0.0,
			"0.025": 0.0
		}
	}
}
