{
	 "smiles": "CC(C)N1C(=O)CNC1=O", 
	 "Tm": 357.15, 
	 "num_atms": 20, 
	 "gaussian": { 
		 "optdone": 1, 
		 "sigma_profile": "yes", 
		 "theory": "DFT", 
		 "functional": "B3LYP", 
		 "basiset": "6-31G**", 
		 "properties": { 
			 "R2extent": 2853.2721, 
			 "electric_dipole_moment_norm": 1.90331996522, 
			 "electric_quadrupole_moment_norm": 19.7424217076, 
			 "total_energy": -494.665124794, 
			 "HOMO_LUMO_gap": 0.25376, 
			 "cosmo_polarized_energy": -13.26, 
			 "cosmo_cavitation_energy": 22.96, 
			 "cosmo_dispersion_energy": -16.77, 
			 "cosmo_repulsion_energy": 1.39, 
			 "cosmo_total_nonelectrostatic_energy": 7.58, 
			 "SMD_solvation_energy": 4.86 
		},
		"coords": [
			{
				"x": -1.2489069804,
				"y": 0.027095301,
				"z": 1.5306211391,
				"element": "C" 
			},
			{
				"x": -0.0203940494,
				"y": 0.5254671315,
				"z": 0.7599385506,
				"element": "C" 
			},
			{
				"x": -0.3826790573,
				"y": 1.4928733702,
				"z": -0.3730760239,
				"element": "C" 
			},
			{
				"x": 0.9647673117,
				"y": 1.1316654435,
				"z": 1.6745894369,
				"element": "N" 
			},
			{
				"x": 2.2304829615,
				"y": 0.6140515596,
				"z": 1.8802009469,
				"element": "C" 
			},
			{
				"x": 2.7082368815,
				"y": -0.3748395042,
				"z": 1.3613836917,
				"element": "O" 
			},
			{
				"x": 2.9135269978,
				"y": 1.5347803923,
				"z": 2.8976198793,
				"element": "C" 
			},
			{
				"x": 1.9169273835,
				"y": 2.5652181147,
				"z": 3.0969750693,
				"element": "N" 
			},
			{
				"x": 0.7385103428,
				"y": 2.2978158899,
				"z": 2.4416746611,
				"element": "C" 
			},
			{
				"x": -0.2972081533,
				"y": 2.9339076744,
				"z": 2.4950100998,
				"element": "O" 
			},
			{
				"x": -0.9580366674,
				"y": -0.6848583889,
				"z": 2.3090823003,
				"element": "H" 
			},
			{
				"x": -1.7776088489,
				"y": 0.8616494278,
				"z": 1.9968226101,
				"element": "H" 
			},
			{
				"x": -1.9337570554,
				"y": -0.4813646431,
				"z": 0.8447549383,
				"element": "H" 
			},
			{
				"x": 0.5149431852,
				"y": -0.3330424512,
				"z": 0.3429825674,
				"element": "H" 
			},
			{
				"x": -1.0583016018,
				"y": 0.9986420333,
				"z": -1.0781522387,
				"element": "H" 
			},
			{
				"x": -0.8804931419,
				"y": 2.3819087479,
				"z": 0.0210816613,
				"element": "H" 
			},
			{
				"x": 0.5117841244,
				"y": 1.8038852389,
				"z": -0.921348293,
				"element": "H" 
			},
			{
				"x": 3.8536804827,
				"y": 1.9150850274,
				"z": 2.482450204,
				"element": "H" 
			},
			{
				"x": 3.1439250717,
				"y": 0.9663521432,
				"z": 3.8075870391,
				"element": "H" 
			},
			{
				"x": 1.9287008131,
				"y": 3.2466074918,
				"z": 3.8389017605,
				"element": "H" 
			}
		],
		 "valence_orbital": [ 
			{
				"type": "occ",
				"energy": -0.34667,
				"method": "rhf"
			},
			{
				"type": "occ",
				"energy": -0.28398,
				"method": "rhf"
			},
			{
				"type": "occ",
				"energy": -0.27632,
				"method": "rhf"
			},
			{
				"type": "occ",
				"energy": -0.26601,
				"method": "rhf"
			},
			{
				"type": "occ",
				"energy": -0.26223,
				"method": "rhf"
			},
			{
				"type": "unocc",
				"energy": -0.00847,
				"method": "rhf"
			},
			{
				"type": "unocc",
				"energy": 0.05791,
				"method": "rhf"
			},
			{
				"type": "unocc",
				"energy": 0.07921,
				"method": "rhf"
			},
			{
				"type": "unocc",
				"energy": 0.09717,
				"method": "rhf"
			},
			{
				"type": "unocc",
				"energy": 0.11133,
				"method": "rhf"
			}
		],
		"cosmo_sigma_profile": { 
			"-0.025": 0.0,
			"-0.024": 0.0,
			"-0.023": 0.0,
			"-0.022": 0.0,
			"-0.021": 0.0,
			"-0.02": 0.0,
			"-0.019": 0.0,
			"-0.018": 0.0,
			"-0.017": 0.0,
			"-0.016": 0.0982359682748,
			"-0.015": 1.44117656246,
			"-0.014": 1.10367695135,
			"-0.013": 1.05936973886,
			"-0.012": 1.3192186688,
			"-0.011": 0.906701971002,
			"-0.01": 1.03765856525,
			"-0.009": 0.755030011427,
			"-0.008": 4.48809811109,
			"-0.007": 7.40484469541,
			"-0.006": 6.75218472564,
			"-0.005": 7.79075608561,
			"-0.004": 14.0762733933,
			"-0.003": 17.5861847475,
			"-0.002": 18.0253907296,
			"-0.001": 16.0082577341,
			"0.0": 17.880936828,
			"0.001": 11.4936748399,
			"0.002": 4.79093381999,
			"0.003": 4.69921967422,
			"0.004": 3.9500504499,
			"0.005": 3.25604945889,
			"0.006": 3.46513243962,
			"0.007": 2.94024383838,
			"0.008": 2.50234576207,
			"0.009": 2.48435194972,
			"0.01": 3.40224165971,
			"0.011": 4.36297762344,
			"0.012": 8.33373447708,
			"0.013": 6.03717393556,
			"0.014": 0.86199414785,
			"0.015": 0.0,
			"0.016": 0.0,
			"0.017": 0.0,
			"0.018": 0.0,
			"0.019": 0.0,
			"0.02": 0.0,
			"0.021": 0.0,
			"0.022": 0.0,
			"0.023": 0.0,
			"0.024": 0.0,
			"0.025": 0.0
		}
	}
}
