{
	 "smiles": "NC1=C(O)C=CC(Br)=N1", 
	 "Tm": 427.15, 
	 "num_atms": 14, 
	 "gaussian": { 
		 "optdone": 1, 
		 "sigma_profile": "yes", 
		 "theory": "DFT", 
		 "functional": "B3LYP", 
		 "basiset": "6-31G**", 
		 "properties": { 
			 "R2extent": 4305.9198, 
			 "electric_dipole_moment_norm": 4.45127250795, 
			 "electric_quadrupole_moment_norm": 13.7275669476, 
			 "total_energy": -2949.67570807, 
			 "HOMO_LUMO_gap": 0.18772, 
			 "cosmo_polarized_energy": -13.78, 
			 "cosmo_cavitation_energy": 20.75, 
			 "cosmo_dispersion_energy": -16.29, 
			 "cosmo_repulsion_energy": 1.36, 
			 "cosmo_total_nonelectrostatic_energy": 5.81, 
			 "SMD_solvation_energy": 1.36 
		},
		"coords": [
			{
				"x": 1.3742914524,
				"y": 0.2489120865,
				"z": -1.6337491725,
				"element": "N" 
			},
			{
				"x": 1.4247400463,
				"y": 0.240247072,
				"z": -0.2614742698,
				"element": "C" 
			},
			{
				"x": 0.2282086659,
				"y": 0.3559974341,
				"z": 0.491917196,
				"element": "C" 
			},
			{
				"x": -0.9247445052,
				"y": 0.5339681913,
				"z": -0.2292705834,
				"element": "O" 
			},
			{
				"x": 0.3064038499,
				"y": 0.2926506012,
				"z": 1.8718082026,
				"element": "C" 
			},
			{
				"x": 1.5533504547,
				"y": 0.1163235829,
				"z": 2.4906544407,
				"element": "C" 
			},
			{
				"x": 2.6543767931,
				"y": 0.0235232317,
				"z": 1.652178061,
				"element": "C" 
			},
			{
				"x": 4.3967445815,
				"y": -0.2047209814,
				"z": 2.4413191774,
				"element": "Br" 
			},
			{
				"x": 2.6120442244,
				"y": 0.085213159,
				"z": 0.3306055892,
				"element": "N" 
			},
			{
				"x": 0.5558280283,
				"y": 0.6553794759,
				"z": -2.0599906698,
				"element": "H" 
			},
			{
				"x": 2.2568454057,
				"y": 0.4039533263,
				"z": -2.0976947134,
				"element": "H" 
			},
			{
				"x": -1.6739066007,
				"y": 0.6189879296,
				"z": 0.3742642232,
				"element": "H" 
			},
			{
				"x": -0.5948776151,
				"y": 0.3794686748,
				"z": 2.4750130113,
				"element": "H" 
			},
			{
				"x": 1.6523952188,
				"y": 0.0609962162,
				"z": 3.5665195076,
				"element": "H" 
			}
		],
		 "valence_orbital": [ 
			{
				"type": "occ",
				"energy": -0.28747,
				"method": "rhf"
			},
			{
				"type": "occ",
				"energy": -0.27797,
				"method": "rhf"
			},
			{
				"type": "occ",
				"energy": -0.26747,
				"method": "rhf"
			},
			{
				"type": "occ",
				"energy": -0.26039,
				"method": "rhf"
			},
			{
				"type": "occ",
				"energy": -0.2053,
				"method": "rhf"
			},
			{
				"type": "unocc",
				"energy": -0.01758,
				"method": "rhf"
			},
			{
				"type": "unocc",
				"energy": 0.00512,
				"method": "rhf"
			},
			{
				"type": "unocc",
				"energy": 0.019,
				"method": "rhf"
			},
			{
				"type": "unocc",
				"energy": 0.05434,
				"method": "rhf"
			},
			{
				"type": "unocc",
				"energy": 0.09588,
				"method": "rhf"
			}
		],
		"cosmo_sigma_profile": { 
			"-0.025": 0.0,
			"-0.024": 0.0,
			"-0.023": 0.0,
			"-0.022": 0.0,
			"-0.021": 0.0,
			"-0.02": 0.0,
			"-0.019": 0.27369220174,
			"-0.018": 1.15411772018,
			"-0.017": 1.14342406371,
			"-0.016": 1.44438064777,
			"-0.015": 0.919900122082,
			"-0.014": 0.78611642271,
			"-0.013": 1.59474728652,
			"-0.012": 3.56797371605,
			"-0.011": 2.64107709256,
			"-0.01": 3.26538769339,
			"-0.009": 3.47307086391,
			"-0.008": 3.76063200608,
			"-0.007": 4.81070240322,
			"-0.006": 4.74997841671,
			"-0.005": 4.69345409993,
			"-0.004": 5.18198125623,
			"-0.003": 6.72240258658,
			"-0.002": 6.2844551226,
			"-0.001": 5.93477184273,
			"0.0": 9.12514766329,
			"0.001": 13.1549107828,
			"0.002": 16.3968255798,
			"0.003": 14.6302723399,
			"0.004": 13.293343902,
			"0.005": 14.2826623294,
			"0.006": 7.70719654931,
			"0.007": 5.45040568133,
			"0.008": 3.49191262495,
			"0.009": 2.95722054282,
			"0.01": 2.00492426324,
			"0.011": 1.84506484475,
			"0.012": 1.21217178258,
			"0.013": 0.507361974606,
			"0.014": 0.454987108445,
			"0.015": 0.0,
			"0.016": 0.0,
			"0.017": 0.0,
			"0.018": 0.0,
			"0.019": 0.0,
			"0.02": 0.0,
			"0.021": 0.0,
			"0.022": 0.0,
			"0.023": 0.0,
			"0.024": 0.0,
			"0.025": 0.0
		}
	}
}
