{
	 "smiles": "CC1=NC2=C(C3=C(CCCC3)S2)C(Cl)=N1", 
	 "Tm": 367.65, 
	 "num_atms": 26, 
	 "gaussian": { 
		 "optdone": 1, 
		 "sigma_profile": "yes", 
		 "theory": "DFT", 
		 "functional": "B3LYP", 
		 "basiset": "6-31G**", 
		 "properties": { 
			 "R2extent": 4065.734, 
			 "electric_dipole_moment_norm": 2.87760560189, 
			 "electric_quadrupole_moment_norm": 8.37978870497, 
			 "total_energy": -1393.70969627, 
			 "HOMO_LUMO_gap": 0.18134, 
			 "cosmo_polarized_energy": -6.37, 
			 "cosmo_cavitation_energy": 31.31, 
			 "cosmo_dispersion_energy": -24.16, 
			 "cosmo_repulsion_energy": 1.85, 
			 "cosmo_total_nonelectrostatic_energy": 8.99, 
			 "SMD_solvation_energy": 0.79 
		},
		"coords": [
			{
				"x": 3.891004088,
				"y": 1.013640276,
				"z": 2.1495493486,
				"element": "C" 
			},
			{
				"x": 2.6095091598,
				"y": 0.7289520908,
				"z": 1.4187956811,
				"element": "C" 
			},
			{
				"x": 2.6722253835,
				"y": 0.4359302784,
				"z": 0.1178617803,
				"element": "N" 
			},
			{
				"x": 1.5002153211,
				"y": 0.2021230618,
				"z": -0.4677842062,
				"element": "C" 
			},
			{
				"x": 0.2286845876,
				"y": 0.2431873519,
				"z": 0.1631222973,
				"element": "C" 
			},
			{
				"x": -0.8571115356,
				"y": -0.0495525778,
				"z": -0.7500308833,
				"element": "C" 
			},
			{
				"x": -0.3956632319,
				"y": -0.3199616057,
				"z": -2.0081153929,
				"element": "C" 
			},
			{
				"x": -1.2477647072,
				"y": -0.6790955154,
				"z": -3.1946210864,
				"element": "C" 
			},
			{
				"x": -2.6602334663,
				"y": -1.0837221664,
				"z": -2.7398467898,
				"element": "C" 
			},
			{
				"x": -3.1995268272,
				"y": -0.0932751022,
				"z": -1.7009387584,
				"element": "C" 
			},
			{
				"x": -2.3355789,
				"y": -0.0738800501,
				"z": -0.428024371,
				"element": "C" 
			},
			{
				"x": 1.3562167433,
				"y": -0.213341046,
				"z": -2.1618762798,
				"element": "S" 
			},
			{
				"x": 0.3304649651,
				"y": 0.5499261874,
				"z": 1.5327816716,
				"element": "C" 
			},
			{
				"x": -1.1068805769,
				"y": 0.623610709,
				"z": 2.5548315819,
				"element": "Cl" 
			},
			{
				"x": 1.4690546703,
				"y": 0.7873029921,
				"z": 2.1428726167,
				"element": "N" 
			},
			{
				"x": 4.7391179952,
				"y": 0.9306408866,
				"z": 1.4693994341,
				"element": "H" 
			},
			{
				"x": 4.0175201141,
				"y": 0.3123890969,
				"z": 2.9807155791,
				"element": "H" 
			},
			{
				"x": 3.8655431968,
				"y": 2.0193860697,
				"z": 2.5815973043,
				"element": "H" 
			},
			{
				"x": -1.3059808768,
				"y": 0.1806178899,
				"z": -3.8777367018,
				"element": "H" 
			},
			{
				"x": -0.781290544,
				"y": -1.4903283686,
				"z": -3.7664449249,
				"element": "H" 
			},
			{
				"x": -3.3251011684,
				"y": -1.135137626,
				"z": -3.6087437838,
				"element": "H" 
			},
			{
				"x": -2.6268716168,
				"y": -2.0902375646,
				"z": -2.3034269956,
				"element": "H" 
			},
			{
				"x": -3.2193609754,
				"y": 0.9123300449,
				"z": -2.1416181815,
				"element": "H" 
			},
			{
				"x": -4.2329834336,
				"y": -0.340121512,
				"z": -1.4352316943,
				"element": "H" 
			},
			{
				"x": -2.5990799447,
				"y": 0.792215847,
				"z": 0.1856320602,
				"element": "H" 
			},
			{
				"x": -2.5585284203,
				"y": -0.9536996475,
				"z": 0.1908806945,
				"element": "H" 
			}
		],
		 "valence_orbital": [ 
			{
				"type": "occ",
				"energy": -0.30891,
				"method": "rhf"
			},
			{
				"type": "occ",
				"energy": -0.30065,
				"method": "rhf"
			},
			{
				"type": "occ",
				"energy": -0.26411,
				"method": "rhf"
			},
			{
				"type": "occ",
				"energy": -0.26127,
				"method": "rhf"
			},
			{
				"type": "occ",
				"energy": -0.22801,
				"method": "rhf"
			},
			{
				"type": "unocc",
				"energy": -0.04667,
				"method": "rhf"
			},
			{
				"type": "unocc",
				"energy": -0.03516,
				"method": "rhf"
			},
			{
				"type": "unocc",
				"energy": 0.00533,
				"method": "rhf"
			},
			{
				"type": "unocc",
				"energy": 0.0272,
				"method": "rhf"
			},
			{
				"type": "unocc",
				"energy": 0.03983,
				"method": "rhf"
			}
		],
		"cosmo_sigma_profile": { 
			"-0.025": 0.0,
			"-0.024": 0.0,
			"-0.023": 0.0,
			"-0.022": 0.0,
			"-0.021": 0.0,
			"-0.02": 0.0,
			"-0.019": 0.0,
			"-0.018": 0.0,
			"-0.017": 0.0,
			"-0.016": 0.0,
			"-0.015": 0.0,
			"-0.014": 0.0,
			"-0.013": 0.0,
			"-0.012": 0.0,
			"-0.011": 0.0,
			"-0.01": 0.0,
			"-0.009": 0.0,
			"-0.008": 0.0,
			"-0.007": 0.0,
			"-0.006": 1.08712169459,
			"-0.005": 8.10962872626,
			"-0.004": 15.5760130399,
			"-0.003": 31.4266509006,
			"-0.002": 40.4380524841,
			"-0.001": 39.2891360502,
			"0.0": 29.2625470301,
			"0.001": 23.0233320848,
			"0.002": 17.8285689581,
			"0.003": 12.934079351,
			"0.004": 11.6263393577,
			"0.005": 5.06493742464,
			"0.006": 2.93041942861,
			"0.007": 2.70542365329,
			"0.008": 2.68500357207,
			"0.009": 2.04617539546,
			"0.01": 1.40650057254,
			"0.011": 2.11807841891,
			"0.012": 1.2724495995,
			"0.013": 1.69440914658,
			"0.014": 0.16988692292,
			"0.015": 0.0,
			"0.016": 0.0,
			"0.017": 0.0,
			"0.018": 0.0,
			"0.019": 0.0,
			"0.02": 0.0,
			"0.021": 0.0,
			"0.022": 0.0,
			"0.023": 0.0,
			"0.024": 0.0,
			"0.025": 0.0
		}
	}
}
