{
	 "smiles": "CS(=O)(=O)C1=C(F)C(=CC(Br)=C1)C(O)=O", 
	 "Tm": 483.15, 
	 "num_atms": 21, 
	 "gaussian": { 
		 "optdone": 1, 
		 "sigma_profile": "yes", 
		 "theory": "DFT", 
		 "functional": "B3LYP", 
		 "basiset": "6-31G**", 
		 "properties": { 
			 "R2extent": 6505.83, 
			 "electric_dipole_moment_norm": 2.9449775517, 
			 "electric_quadrupole_moment_norm": 25.2327566915, 
			 "total_energy": -3678.71668181, 
			 "HOMO_LUMO_gap": 0.19085, 
			 "cosmo_polarized_energy": -23.16, 
			 "cosmo_cavitation_energy": 30.4, 
			 "cosmo_dispersion_energy": -22.64, 
			 "cosmo_repulsion_energy": 1.72, 
			 "cosmo_total_nonelectrostatic_energy": 9.49, 
			 "SMD_solvation_energy": 5.38 
		},
		"coords": [
			{
				"x": -2.0773674702,
				"y": 2.2091322235,
				"z": -1.2577062017,
				"element": "C" 
			},
			{
				"x": -1.5254220265,
				"y": 0.546522623,
				"z": -1.6831263974,
				"element": "S" 
			},
			{
				"x": -1.530681729,
				"y": 0.419090359,
				"z": -3.1474868986,
				"element": "O" 
			},
			{
				"x": -2.2446377013,
				"y": -0.414834459,
				"z": -0.8412875726,
				"element": "O" 
			},
			{
				"x": 0.2220396345,
				"y": 0.5342707899,
				"z": -1.189648435,
				"element": "C" 
			},
			{
				"x": 0.6130698142,
				"y": 0.739736655,
				"z": 0.1325684709,
				"element": "C" 
			},
			{
				"x": -0.3168888037,
				"y": 1.0265741946,
				"z": 1.0506503202,
				"element": "F" 
			},
			{
				"x": 1.9561222676,
				"y": 0.6417869706,
				"z": 0.5118851152,
				"element": "C" 
			},
			{
				"x": 2.9039344459,
				"y": 0.3301081052,
				"z": -0.4734252299,
				"element": "C" 
			},
			{
				"x": 2.5129349406,
				"y": 0.1341750457,
				"z": -1.7963526239,
				"element": "C" 
			},
			{
				"x": 3.8267677662,
				"y": -0.2648609179,
				"z": -3.114193688,
				"element": "Br" 
			},
			{
				"x": 1.1730255066,
				"y": 0.2333255861,
				"z": -2.1643028585,
				"element": "C" 
			},
			{
				"x": 2.3755070153,
				"y": 0.9424715387,
				"z": 1.9264327487,
				"element": "C" 
			},
			{
				"x": 3.3774895032,
				"y": 0.1664013796,
				"z": 2.413659594,
				"element": "O" 
			},
			{
				"x": 1.8986773029,
				"y": 1.8276834406,
				"z": 2.5876539885,
				"element": "O" 
			},
			{
				"x": -3.1363923762,
				"y": 2.2484408788,
				"z": -1.5210980555,
				"element": "H" 
			},
			{
				"x": -1.5112436755,
				"y": 2.9323213386,
				"z": -1.8462656762,
				"element": "H" 
			},
			{
				"x": -1.9424106397,
				"y": 2.3634101557,
				"z": -0.1873770443,
				"element": "H" 
			},
			{
				"x": 3.9556451686,
				"y": 0.2768566085,
				"z": -0.2126838297,
				"element": "H" 
			},
			{
				"x": 0.8467301696,
				"y": 0.0818645531,
				"z": -3.1868799384,
				"element": "H" 
			},
			{
				"x": 3.530800887,
				"y": -0.5948770692,
				"z": 1.8357842119,
				"element": "H" 
			}
		],
		 "valence_orbital": [ 
			{
				"type": "occ",
				"energy": -0.31794,
				"method": "rhf"
			},
			{
				"type": "occ",
				"energy": -0.31153,
				"method": "rhf"
			},
			{
				"type": "occ",
				"energy": -0.3037,
				"method": "rhf"
			},
			{
				"type": "occ",
				"energy": -0.29501,
				"method": "rhf"
			},
			{
				"type": "occ",
				"energy": -0.27447,
				"method": "rhf"
			},
			{
				"type": "unocc",
				"energy": -0.08362,
				"method": "rhf"
			},
			{
				"type": "unocc",
				"energy": -0.06376,
				"method": "rhf"
			},
			{
				"type": "unocc",
				"energy": -0.0268,
				"method": "rhf"
			},
			{
				"type": "unocc",
				"energy": 0.00346,
				"method": "rhf"
			},
			{
				"type": "unocc",
				"energy": 0.03916,
				"method": "rhf"
			}
		],
		"cosmo_sigma_profile": { 
			"-0.025": 0.0,
			"-0.024": 0.0,
			"-0.023": 0.0,
			"-0.022": 0.0,
			"-0.021": 0.0,
			"-0.02": 0.230194891956,
			"-0.019": 1.32734810325,
			"-0.018": 0.792599822419,
			"-0.017": 0.840006678767,
			"-0.016": 1.25217056987,
			"-0.015": 1.01935393023,
			"-0.014": 1.61839062048,
			"-0.013": 1.0530789639,
			"-0.012": 1.0012579181,
			"-0.011": 1.46520542435,
			"-0.01": 3.58215780351,
			"-0.009": 6.87407835554,
			"-0.008": 8.28731913937,
			"-0.007": 10.7100971354,
			"-0.006": 11.3363149617,
			"-0.005": 13.7234056539,
			"-0.004": 15.1769729809,
			"-0.003": 15.7489617041,
			"-0.002": 15.3836396402,
			"-0.001": 15.3174671237,
			"0.0": 9.7135248423,
			"0.001": 9.60202860678,
			"0.002": 14.303881905,
			"0.003": 14.9585723184,
			"0.004": 10.1397986383,
			"0.005": 4.19892029523,
			"0.006": 4.52446985843,
			"0.007": 6.22174403521,
			"0.008": 8.00605837473,
			"0.009": 8.66215622219,
			"0.01": 14.387567232,
			"0.011": 13.4244155281,
			"0.012": 2.86564081963,
			"0.013": 0.0,
			"0.014": 0.0,
			"0.015": 0.0,
			"0.016": 0.0,
			"0.017": 0.0,
			"0.018": 0.0,
			"0.019": 0.0,
			"0.02": 0.0,
			"0.021": 0.0,
			"0.022": 0.0,
			"0.023": 0.0,
			"0.024": 0.0,
			"0.025": 0.0
		}
	}
}
