{
	 "smiles": "CCCCCCC(O)CC=CCCCCCCCC(O)=O", 
	 "Tm": 278.65, 
	 "num_atms": 55, 
	 "gaussian": { 
		 "optdone": 1, 
		 "sigma_profile": "yes", 
		 "theory": "DFT", 
		 "functional": "B3LYP", 
		 "basiset": "6-31G**", 
		 "properties": { 
			 "R2extent": 10827.7488, 
			 "electric_dipole_moment_norm": 2.37636926844, 
			 "electric_quadrupole_moment_norm": 12.3201506618, 
			 "total_energy": -932.112439432, 
			 "HOMO_LUMO_gap": 0.24414, 
			 "cosmo_polarized_energy": -13.89, 
			 "cosmo_cavitation_energy": 55.34, 
			 "cosmo_dispersion_energy": -33.38, 
			 "cosmo_repulsion_energy": 2.65, 
			 "cosmo_total_nonelectrostatic_energy": 24.61, 
			 "SMD_solvation_energy": 8.77 
		},
		"coords": [
			{
				"x": -0.7271256011,
				"y": 1.2934743357,
				"z": 3.7163333503,
				"element": "C" 
			},
			{
				"x": -0.5950409854,
				"y": -0.2240920846,
				"z": 3.88399612,
				"element": "C" 
			},
			{
				"x": 0.5510407358,
				"y": -0.8261581592,
				"z": 3.0604253673,
				"element": "C" 
			},
			{
				"x": 0.6238813299,
				"y": -2.3579556321,
				"z": 3.1394455196,
				"element": "C" 
			},
			{
				"x": 1.8667214859,
				"y": -2.9826487101,
				"z": 2.4794220638,
				"element": "C" 
			},
			{
				"x": 2.0702697965,
				"y": -2.6518122976,
				"z": 0.9910762902,
				"element": "C" 
			},
			{
				"x": 0.9954048352,
				"y": -3.2091908614,
				"z": 0.0556928228,
				"element": "C" 
			},
			{
				"x": 1.107634108,
				"y": -4.6324724077,
				"z": 0.1253200383,
				"element": "O" 
			},
			{
				"x": 1.1559434553,
				"y": -2.7193709598,
				"z": -1.4026427777,
				"element": "C" 
			},
			{
				"x": 0.8693224551,
				"y": -1.252527889,
				"z": -1.5790378365,
				"element": "C" 
			},
			{
				"x": -0.1291584193,
				"y": -0.7516512656,
				"z": -2.3132824751,
				"element": "C" 
			},
			{
				"x": -0.4835068412,
				"y": 0.7058348972,
				"z": -2.4788123919,
				"element": "C" 
			},
			{
				"x": 0.2425081691,
				"y": 1.6804482863,
				"z": -1.5449135594,
				"element": "C" 
			},
			{
				"x": -0.2017042451,
				"y": 3.139012206,
				"z": -1.7275283207,
				"element": "C" 
			},
			{
				"x": 0.3285547907,
				"y": 4.0965937082,
				"z": -0.6466028947,
				"element": "C" 
			},
			{
				"x": 1.8574380992,
				"y": 4.2417289161,
				"z": -0.619687082,
				"element": "C" 
			},
			{
				"x": 2.3845506494,
				"y": 5.2359139179,
				"z": 0.4297408707,
				"element": "C" 
			},
			{
				"x": 2.1698818134,
				"y": 4.8123519312,
				"z": 1.8885087149,
				"element": "C" 
			},
			{
				"x": 3.003229079,
				"y": 3.6173655978,
				"z": 2.3013781153,
				"element": "C" 
			},
			{
				"x": 2.6267693959,
				"y": 3.1428765531,
				"z": 3.5173791282,
				"element": "O" 
			},
			{
				"x": 3.915601918,
				"y": 3.1256853449,
				"z": 1.6733838944,
				"element": "O" 
			},
			{
				"x": 0.203257887,
				"y": 1.8099958402,
				"z": 3.9778609259,
				"element": "H" 
			},
			{
				"x": -0.9634856055,
				"y": 1.5534775246,
				"z": 2.6774243736,
				"element": "H" 
			},
			{
				"x": -1.5247880135,
				"y": 1.6991410863,
				"z": 4.347670293,
				"element": "H" 
			},
			{
				"x": -1.5393158688,
				"y": -0.7065398652,
				"z": 3.5961762678,
				"element": "H" 
			},
			{
				"x": -0.4437278084,
				"y": -0.467014638,
				"z": 4.9446749072,
				"element": "H" 
			},
			{
				"x": 0.4364385293,
				"y": -0.512619348,
				"z": 2.0139955606,
				"element": "H" 
			},
			{
				"x": 1.5046862634,
				"y": -0.395335659,
				"z": 3.4012228127,
				"element": "H" 
			},
			{
				"x": -0.2883084454,
				"y": -2.7826545453,
				"z": 2.6987318848,
				"element": "H" 
			},
			{
				"x": 0.6092960148,
				"y": -2.6614045696,
				"z": 4.1952929139,
				"element": "H" 
			},
			{
				"x": 1.8217466909,
				"y": -4.0714446387,
				"z": 2.5905423902,
				"element": "H" 
			},
			{
				"x": 2.7587305068,
				"y": -2.6496619082,
				"z": 3.0273406151,
				"element": "H" 
			},
			{
				"x": 3.0319169602,
				"y": -3.0657666674,
				"z": 0.6612282175,
				"element": "H" 
			},
			{
				"x": 2.1358457298,
				"y": -1.5669988032,
				"z": 0.8570832444,
				"element": "H" 
			},
			{
				"x": -0.0002367515,
				"y": -2.8920832386,
				"z": 0.4069517424,
				"element": "H" 
			},
			{
				"x": 0.3796507718,
				"y": -5.0137227135,
				"z": -0.3819104861,
				"element": "H" 
			},
			{
				"x": 0.475579951,
				"y": -3.3015767694,
				"z": -2.0392767297,
				"element": "H" 
			},
			{
				"x": 2.1779118255,
				"y": -2.961269324,
				"z": -1.727268485,
				"element": "H" 
			},
			{
				"x": 1.5257102635,
				"y": -0.5691090803,
				"z": -1.043318506,
				"element": "H" 
			},
			{
				"x": -0.7697293953,
				"y": -1.4478042054,
				"z": -2.8588222671,
				"element": "H" 
			},
			{
				"x": -0.3107024198,
				"y": 0.9997300059,
				"z": -3.5262821696,
				"element": "H" 
			},
			{
				"x": -1.5691535153,
				"y": 0.8135756721,
				"z": -2.3338901938,
				"element": "H" 
			},
			{
				"x": 1.3244281297,
				"y": 1.6010401702,
				"z": -1.7029656232,
				"element": "H" 
			},
			{
				"x": 0.061314578,
				"y": 1.3751537424,
				"z": -0.5046916027,
				"element": "H" 
			},
			{
				"x": 0.1094785909,
				"y": 3.495978906,
				"z": -2.7196208452,
				"element": "H" 
			},
			{
				"x": -1.2994785788,
				"y": 3.1807210617,
				"z": -1.7209204737,
				"element": "H" 
			},
			{
				"x": -0.0338385785,
				"y": 3.7478233426,
				"z": 0.3305671371,
				"element": "H" 
			},
			{
				"x": -0.1201442261,
				"y": 5.0880176345,
				"z": -0.7993079742,
				"element": "H" 
			},
			{
				"x": 2.1955076597,
				"y": 4.5758265493,
				"z": -1.6099467608,
				"element": "H" 
			},
			{
				"x": 2.332777123,
				"y": 3.2699341704,
				"z": -0.4494694444,
				"element": "H" 
			},
			{
				"x": 1.9045632944,
				"y": 6.2118536455,
				"z": 0.282577508,
				"element": "H" 
			},
			{
				"x": 3.4579510971,
				"y": 5.3835510314,
				"z": 0.2708686294,
				"element": "H" 
			},
			{
				"x": 2.4413364006,
				"y": 5.6302948595,
				"z": 2.5691490913,
				"element": "H" 
			},
			{
				"x": 1.1206438741,
				"y": 4.5895151522,
				"z": 2.1091562447,
				"element": "H" 
			},
			{
				"x": 3.2212210408,
				"y": 2.3985701518,
				"z": 3.7113818438,
				"element": "H" 
			}
		],
		 "valence_orbital": [ 
			{
				"type": "occ",
				"energy": -0.30346,
				"method": "rhf"
			},
			{
				"type": "occ",
				"energy": -0.29777,
				"method": "rhf"
			},
			{
				"type": "occ",
				"energy": -0.27533,
				"method": "rhf"
			},
			{
				"type": "occ",
				"energy": -0.2649,
				"method": "rhf"
			},
			{
				"type": "occ",
				"energy": -0.236,
				"method": "rhf"
			},
			{
				"type": "unocc",
				"energy": 0.00814,
				"method": "rhf"
			},
			{
				"type": "unocc",
				"energy": 0.02613,
				"method": "rhf"
			},
			{
				"type": "unocc",
				"energy": 0.05971,
				"method": "rhf"
			},
			{
				"type": "unocc",
				"energy": 0.07306,
				"method": "rhf"
			},
			{
				"type": "unocc",
				"energy": 0.07785,
				"method": "rhf"
			}
		],
		"cosmo_sigma_profile": { 
			"-0.025": 0.0,
			"-0.024": 0.0,
			"-0.023": 0.0,
			"-0.022": 0.0,
			"-0.021": 0.0,
			"-0.02": 0.0,
			"-0.019": 0.0,
			"-0.018": 0.146273962347,
			"-0.017": 0.868376199763,
			"-0.016": 0.798462490273,
			"-0.015": 1.13964126386,
			"-0.014": 1.53285508503,
			"-0.013": 2.06230473783,
			"-0.012": 1.53914954325,
			"-0.011": 1.30255618935,
			"-0.01": 1.39674005017,
			"-0.009": 1.90747591313,
			"-0.008": 1.99847777734,
			"-0.007": 1.90205674553,
			"-0.006": 4.41668529304,
			"-0.005": 5.85436744987,
			"-0.004": 11.1531680173,
			"-0.003": 26.9050660148,
			"-0.002": 59.1822205239,
			"-0.001": 78.3090850184,
			"0.0": 75.2398345239,
			"0.001": 55.0275082378,
			"0.002": 28.0011985409,
			"0.003": 10.58978727,
			"0.004": 9.3890673573,
			"0.005": 6.69439674162,
			"0.006": 5.94557444222,
			"0.007": 5.77057004913,
			"0.008": 4.73823438145,
			"0.009": 3.4730678129,
			"0.01": 3.70666123849,
			"0.011": 4.64118969953,
			"0.012": 5.87983569304,
			"0.013": 1.86766770719,
			"0.014": 1.38900463717,
			"0.015": 0.435795695187,
			"0.016": 0.0,
			"0.017": 0.0,
			"0.018": 0.0,
			"0.019": 0.0,
			"0.02": 0.0,
			"0.021": 0.0,
			"0.022": 0.0,
			"0.023": 0.0,
			"0.024": 0.0,
			"0.025": 0.0
		}
	}
}
