{
	 "smiles": "COC1=CC=C2N=CC=C(C(=O)C3CC4CCN3CC4C=C)C2=C1", 
	 "Tm": 381.15, 
	 "num_atms": 46, 
	 "gaussian": { 
		 "optdone": 1, 
		 "sigma_profile": "yes", 
		 "theory": "DFT", 
		 "functional": "B3LYP", 
		 "basiset": "6-31G**", 
		 "properties": { 
			 "R2extent": 10662.8583, 
			 "electric_dipole_moment_norm": 2.23302591342, 
			 "electric_quadrupole_moment_norm": 14.2672827069, 
			 "total_energy": -1035.28953202, 
			 "HOMO_LUMO_gap": 0.1316, 
			 "cosmo_polarized_energy": -14.37, 
			 "cosmo_cavitation_energy": 45.92, 
			 "cosmo_dispersion_energy": -32.46, 
			 "cosmo_repulsion_energy": 2.42, 
			 "cosmo_total_nonelectrostatic_energy": 15.87, 
			 "SMD_solvation_energy": 4.28 
		},
		"coords": [
			{
				"x": 3.9952140814,
				"y": 3.0915904623,
				"z": -0.1186811577,
				"element": "C" 
			},
			{
				"x": 4.9699484559,
				"y": 2.0785334238,
				"z": 0.0961498492,
				"element": "O" 
			},
			{
				"x": 4.5723163392,
				"y": 0.7802518642,
				"z": 0.0328308643,
				"element": "C" 
			},
			{
				"x": 5.6144162524,
				"y": -0.1648467377,
				"z": 0.242265543,
				"element": "C" 
			},
			{
				"x": 5.3370566765,
				"y": -1.5032515635,
				"z": 0.1937859194,
				"element": "C" 
			},
			{
				"x": 4.0158199418,
				"y": -1.9708543551,
				"z": -0.0601679531,
				"element": "C" 
			},
			{
				"x": 3.8354872147,
				"y": -3.3178040004,
				"z": -0.095031728,
				"element": "N" 
			},
			{
				"x": 2.6173304492,
				"y": -3.7676478899,
				"z": -0.322945795,
				"element": "C" 
			},
			{
				"x": 1.5017576912,
				"y": -2.9287652645,
				"z": -0.5163585007,
				"element": "C" 
			},
			{
				"x": 1.6398975245,
				"y": -1.5477718195,
				"z": -0.4926890321,
				"element": "C" 
			},
			{
				"x": 0.4368258942,
				"y": -0.6654044531,
				"z": -0.7160539154,
				"element": "C" 
			},
			{
				"x": 0.5533337859,
				"y": 0.5088100658,
				"z": -1.0333604101,
				"element": "O" 
			},
			{
				"x": -0.9524997849,
				"y": -1.2806462804,
				"z": -0.4888929998,
				"element": "C" 
			},
			{
				"x": -1.1714573933,
				"y": -1.681609347,
				"z": 1.0160699869,
				"element": "C" 
			},
			{
				"x": -2.621087604,
				"y": -1.3090498775,
				"z": 1.3907869142,
				"element": "C" 
			},
			{
				"x": -2.7420607409,
				"y": 0.2272130642,
				"z": 1.360777953,
				"element": "C" 
			},
			{
				"x": -2.279905082,
				"y": 0.7173757383,
				"z": -0.0459962977,
				"element": "C" 
			},
			{
				"x": -2.0432744268,
				"y": -0.4169975706,
				"z": -0.9638240326,
				"element": "N" 
			},
			{
				"x": -3.2679899207,
				"y": -1.2290526676,
				"z": -1.0256145039,
				"element": "C" 
			},
			{
				"x": -3.5746238927,
				"y": -1.9480831646,
				"z": 0.3393595984,
				"element": "C" 
			},
			{
				"x": -5.0291597876,
				"y": -1.8754732805,
				"z": 0.7092984462,
				"element": "C" 
			},
			{
				"x": -5.8262748922,
				"y": -2.9285123146,
				"z": 0.8985494028,
				"element": "C" 
			},
			{
				"x": 2.9595795301,
				"y": -1.0160777789,
				"z": -0.2665354728,
				"element": "C" 
			},
			{
				"x": 3.2755948659,
				"y": 0.3685896273,
				"z": -0.2162168106,
				"element": "C" 
			},
			{
				"x": 4.5256051522,
				"y": 4.0407377675,
				"z": -0.0310686856,
				"element": "H" 
			},
			{
				"x": 3.1985468402,
				"y": 3.0474518016,
				"z": 0.6339934228,
				"element": "H" 
			},
			{
				"x": 3.5479881155,
				"y": 3.0122147418,
				"z": -1.1167368872,
				"element": "H" 
			},
			{
				"x": 6.6153609365,
				"y": 0.207752986,
				"z": 0.4336878825,
				"element": "H" 
			},
			{
				"x": 6.1070889525,
				"y": -2.2519285419,
				"z": 0.3460564429,
				"element": "H" 
			},
			{
				"x": 2.4915100931,
				"y": -4.8487922189,
				"z": -0.355732807,
				"element": "H" 
			},
			{
				"x": 0.5396132875,
				"y": -3.3934636586,
				"z": -0.6946323689,
				"element": "H" 
			},
			{
				"x": -1.0078621132,
				"y": -2.1859966096,
				"z": -1.1038144668,
				"element": "H" 
			},
			{
				"x": -0.4742108407,
				"y": -1.148712816,
				"z": 1.6742703407,
				"element": "H" 
			},
			{
				"x": -0.9884751169,
				"y": -2.7512243544,
				"z": 1.1634575,
				"element": "H" 
			},
			{
				"x": -2.8580441777,
				"y": -1.6948743272,
				"z": 2.3878110098,
				"element": "H" 
			},
			{
				"x": -2.1174399929,
				"y": 0.6599519116,
				"z": 2.1510803973,
				"element": "H" 
			},
			{
				"x": -3.7710554306,
				"y": 0.5358908981,
				"z": 1.5745699457,
				"element": "H" 
			},
			{
				"x": -3.0387220076,
				"y": 1.3564673855,
				"z": -0.5097287281,
				"element": "H" 
			},
			{
				"x": -1.3605777839,
				"y": 1.2998387617,
				"z": 0.0079269676,
				"element": "H" 
			},
			{
				"x": -4.0923640375,
				"y": -0.5608597057,
				"z": -1.2986734381,
				"element": "H" 
			},
			{
				"x": -3.1737756331,
				"y": -1.9649897578,
				"z": -1.8322360309,
				"element": "H" 
			},
			{
				"x": -3.3073808177,
				"y": -3.0100750661,
				"z": 0.254978127,
				"element": "H" 
			},
			{
				"x": -5.4512779168,
				"y": -0.8743372302,
				"z": 0.8104591677,
				"element": "H" 
			},
			{
				"x": -6.8751398366,
				"y": -2.8135094674,
				"z": 1.1557689,
				"element": "H" 
			},
			{
				"x": -5.4579743268,
				"y": -3.9475819582,
				"z": 0.8020038039,
				"element": "H" 
			},
			{
				"x": 2.4873414765,
				"y": 1.0803235774,
				"z": -0.4005463633,
				"element": "H" 
			}
		],
		 "valence_orbital": [ 
			{
				"type": "occ",
				"energy": -0.26012,
				"method": "rhf"
			},
			{
				"type": "occ",
				"energy": -0.24637,
				"method": "rhf"
			},
			{
				"type": "occ",
				"energy": -0.2433,
				"method": "rhf"
			},
			{
				"type": "occ",
				"energy": -0.21986,
				"method": "rhf"
			},
			{
				"type": "occ",
				"energy": -0.20924,
				"method": "rhf"
			},
			{
				"type": "unocc",
				"energy": -0.07764,
				"method": "rhf"
			},
			{
				"type": "unocc",
				"energy": -0.01823,
				"method": "rhf"
			},
			{
				"type": "unocc",
				"energy": -0.0074,
				"method": "rhf"
			},
			{
				"type": "unocc",
				"energy": 0.01551,
				"method": "rhf"
			},
			{
				"type": "unocc",
				"energy": 0.0382,
				"method": "rhf"
			}
		],
		"cosmo_sigma_profile": { 
			"-0.025": 0.0,
			"-0.024": 0.0,
			"-0.023": 0.0,
			"-0.022": 0.0,
			"-0.021": 0.0,
			"-0.02": 0.0,
			"-0.019": 0.0,
			"-0.018": 0.0,
			"-0.017": 0.0,
			"-0.016": 0.0,
			"-0.015": 0.0,
			"-0.014": 0.0,
			"-0.013": 0.0,
			"-0.012": 0.0,
			"-0.011": 0.0,
			"-0.01": 0.0677103789579,
			"-0.009": 1.48963720262,
			"-0.008": 2.82842152798,
			"-0.007": 6.17868753215,
			"-0.006": 13.0356287855,
			"-0.005": 19.8573027381,
			"-0.004": 35.6942673343,
			"-0.003": 41.2145384964,
			"-0.002": 34.3846505536,
			"-0.001": 32.7501894859,
			"0.0": 35.5284827625,
			"0.001": 29.1356561401,
			"0.002": 25.5405217477,
			"0.003": 20.9628876968,
			"0.004": 14.8642866681,
			"0.005": 8.76731881008,
			"0.006": 7.65673749353,
			"0.007": 6.59643454764,
			"0.008": 4.82180384887,
			"0.009": 5.09355519751,
			"0.01": 3.7976408029,
			"0.011": 2.94581901494,
			"0.012": 2.55221808217,
			"0.013": 2.06231171214,
			"0.014": 1.44798869868,
			"0.015": 1.97102836865,
			"0.016": 0.671269587339,
			"0.017": 0.667908772858,
			"0.018": 0.0391408151191,
			"0.019": 0.0,
			"0.02": 0.0,
			"0.021": 0.0,
			"0.022": 0.0,
			"0.023": 0.0,
			"0.024": 0.0,
			"0.025": 0.0
		}
	}
}
