{
	 "smiles": "COC1=CC=C(CNC2=CC=C(C3=NON=C23)[N+]([O-])=O)C=C1", 
	 "Tm": 451.15, 
	 "num_atms": 34, 
	 "gaussian": { 
		 "optdone": 1, 
		 "sigma_profile": "yes", 
		 "theory": "DFT", 
		 "functional": "B3LYP", 
		 "basiset": "6-31G**", 
		 "properties": { 
			 "R2extent": 9314.4511, 
			 "electric_dipole_moment_norm": 9.43681652783, 
			 "electric_quadrupole_moment_norm": 41.5213834177, 
			 "total_energy": -1060.41507937, 
			 "HOMO_LUMO_gap": 0.12861, 
			 "cosmo_polarized_energy": -22.81, 
			 "cosmo_cavitation_energy": 39.96, 
			 "cosmo_dispersion_energy": -28.54, 
			 "cosmo_repulsion_energy": 2.16, 
			 "cosmo_total_nonelectrostatic_energy": 13.59, 
			 "SMD_solvation_energy": 8.89 
		},
		"coords": [
			{
				"x": 0.9919639426,
				"y": 2.9670454482,
				"z": 5.2426866869,
				"element": "C" 
			},
			{
				"x": 0.0000150866,
				"y": 3.4192980909,
				"z": 4.332428449,
				"element": "O" 
			},
			{
				"x": 0.0526782316,
				"y": 2.9775779805,
				"z": 3.0453529584,
				"element": "C" 
			},
			{
				"x": -0.9608675737,
				"y": 3.4481547152,
				"z": 2.1969718024,
				"element": "C" 
			},
			{
				"x": -0.9964915726,
				"y": 3.0485424517,
				"z": 0.8670907644,
				"element": "C" 
			},
			{
				"x": -0.0271450715,
				"y": 2.1800499564,
				"z": 0.3442621445,
				"element": "C" 
			},
			{
				"x": -0.0571155023,
				"y": 1.8058136998,
				"z": -1.1298489908,
				"element": "C" 
			},
			{
				"x": 0.3417517244,
				"y": 0.4354296117,
				"z": -1.4253925378,
				"element": "N" 
			},
			{
				"x": -0.4061272702,
				"y": -0.6619601326,
				"z": -1.1514192129,
				"element": "C" 
			},
			{
				"x": -1.6219460326,
				"y": -0.6767475251,
				"z": -0.4726946194,
				"element": "C" 
			},
			{
				"x": -2.3248114166,
				"y": -1.8841586172,
				"z": -0.2520452449,
				"element": "C" 
			},
			{
				"x": -1.8811164544,
				"y": -3.1203928725,
				"z": -0.6737459896,
				"element": "C" 
			},
			{
				"x": -0.6348393212,
				"y": -3.1764219977,
				"z": -1.3725649876,
				"element": "C" 
			},
			{
				"x": 0.0722848872,
				"y": -4.1622014156,
				"z": -1.9032643048,
				"element": "N" 
			},
			{
				"x": 1.1828931164,
				"y": -3.5474017395,
				"z": -2.4346206864,
				"element": "O" 
			},
			{
				"x": 1.1881739717,
				"y": -2.2007628146,
				"z": -2.2498856393,
				"element": "N" 
			},
			{
				"x": 0.0750565475,
				"y": -1.9482113747,
				"z": -1.5951893944,
				"element": "C" 
			},
			{
				"x": -2.6649908645,
				"y": -4.3044196384,
				"z": -0.4041273552,
				"element": "N" 
			},
			{
				"x": -3.7317230559,
				"y": -4.1666474642,
				"z": 0.2054185676,
				"element": "O" 
			},
			{
				"x": -2.2150456676,
				"y": -5.3798538303,
				"z": -0.8024576471,
				"element": "O" 
			},
			{
				"x": 0.9769786337,
				"y": 1.7195626933,
				"z": 1.1978714619,
				"element": "C" 
			},
			{
				"x": 1.0251375075,
				"y": 2.1053524496,
				"z": 2.539134024,
				"element": "C" 
			},
			{
				"x": 0.7572767048,
				"y": 3.4350534378,
				"z": 6.1996042385,
				"element": "H" 
			},
			{
				"x": 1.9982530447,
				"y": 3.2725722304,
				"z": 4.9289370956,
				"element": "H" 
			},
			{
				"x": 0.9668864165,
				"y": 1.8761122247,
				"z": 5.3587170149,
				"element": "H" 
			},
			{
				"x": -1.7108961185,
				"y": 4.116790466,
				"z": 2.6062010074,
				"element": "H" 
			},
			{
				"x": -1.7920304556,
				"y": 3.4188346236,
				"z": 0.2240699606,
				"element": "H" 
			},
			{
				"x": -1.0632393657,
				"y": 1.9871593715,
				"z": -1.531608732,
				"element": "H" 
			},
			{
				"x": 0.6228055337,
				"y": 2.4495236777,
				"z": -1.6990537821,
				"element": "H" 
			},
			{
				"x": 1.1801090051,
				"y": 0.2821831812,
				"z": -1.9661840499,
				"element": "H" 
			},
			{
				"x": -2.0364404871,
				"y": 0.2439216893,
				"z": -0.0827213922,
				"element": "H" 
			},
			{
				"x": -3.2689215318,
				"y": -1.8576073259,
				"z": 0.2801369495,
				"element": "H" 
			},
			{
				"x": 1.7330580612,
				"y": 1.0374276225,
				"z": 0.8188878499,
				"element": "H" 
			},
			{
				"x": 1.8156253467,
				"y": 1.7223811264,
				"z": 3.173353591,
				"element": "H" 
			}
		],
		 "valence_orbital": [ 
			{
				"type": "occ",
				"energy": -0.29167,
				"method": "rhf"
			},
			{
				"type": "occ",
				"energy": -0.27502,
				"method": "rhf"
			},
			{
				"type": "occ",
				"energy": -0.26934,
				"method": "rhf"
			},
			{
				"type": "occ",
				"energy": -0.23356,
				"method": "rhf"
			},
			{
				"type": "occ",
				"energy": -0.23132,
				"method": "rhf"
			},
			{
				"type": "unocc",
				"energy": -0.10271,
				"method": "rhf"
			},
			{
				"type": "unocc",
				"energy": -0.05716,
				"method": "rhf"
			},
			{
				"type": "unocc",
				"energy": -0.02204,
				"method": "rhf"
			},
			{
				"type": "unocc",
				"energy": -0.01162,
				"method": "rhf"
			},
			{
				"type": "unocc",
				"energy": -0.00227,
				"method": "rhf"
			}
		],
		"cosmo_sigma_profile": { 
			"-0.025": 0.0,
			"-0.024": 0.0,
			"-0.023": 0.0,
			"-0.022": 0.0,
			"-0.021": 0.0,
			"-0.02": 0.0,
			"-0.019": 0.0,
			"-0.018": 0.0,
			"-0.017": 0.0,
			"-0.016": 0.206158295112,
			"-0.015": 1.01319603982,
			"-0.014": 1.04948882049,
			"-0.013": 1.12696774139,
			"-0.012": 0.676509547918,
			"-0.011": 1.04272366276,
			"-0.01": 1.45081156309,
			"-0.009": 1.95804690813,
			"-0.008": 3.29825212209,
			"-0.007": 8.40420856797,
			"-0.006": 20.1813837662,
			"-0.005": 29.8641244424,
			"-0.004": 30.4167608518,
			"-0.003": 27.9858327938,
			"-0.002": 22.3453574081,
			"-0.001": 18.9091649069,
			"0.0": 15.3701279738,
			"0.001": 13.2618158259,
			"0.002": 14.3948888803,
			"0.003": 15.2892156667,
			"0.004": 18.9069901158,
			"0.005": 19.8211098464,
			"0.006": 8.55121140008,
			"0.007": 6.24187225791,
			"0.008": 10.9343880566,
			"0.009": 11.5672313938,
			"0.01": 7.86806859871,
			"0.011": 4.88637064945,
			"0.012": 1.83554956404,
			"0.013": 1.44381183444,
			"0.014": 0.0630747140088,
			"0.015": 0.0,
			"0.016": 0.0,
			"0.017": 0.0,
			"0.018": 0.0,
			"0.019": 0.0,
			"0.02": 0.0,
			"0.021": 0.0,
			"0.022": 0.0,
			"0.023": 0.0,
			"0.024": 0.0,
			"0.025": 0.0
		}
	}
}
