{
	 "smiles": "NC1=CC(=CC(F)=C1)N1CCOCC1", 
	 "Tm": 365.15, 
	 "num_atms": 27, 
	 "gaussian": { 
		 "optdone": 1, 
		 "sigma_profile": "yes", 
		 "theory": "DFT", 
		 "functional": "B3LYP", 
		 "basiset": "6-31G**", 
		 "properties": { 
			 "R2extent": 3453.8092, 
			 "electric_dipole_moment_norm": 2.58416840396, 
			 "electric_quadrupole_moment_norm": 13.8251782621, 
			 "total_energy": -673.443068349, 
			 "HOMO_LUMO_gap": 0.20966, 
			 "cosmo_polarized_energy": -12.08, 
			 "cosmo_cavitation_energy": 29.26, 
			 "cosmo_dispersion_energy": -21.85, 
			 "cosmo_repulsion_energy": 1.69, 
			 "cosmo_total_nonelectrostatic_energy": 9.1, 
			 "SMD_solvation_energy": 3.9 
		},
		"coords": [
			{
				"x": 1.9222201732,
				"y": 1.3160966837,
				"z": -3.0790481484,
				"element": "N" 
			},
			{
				"x": 0.903571207,
				"y": 1.237957974,
				"z": -2.1282031186,
				"element": "C" 
			},
			{
				"x": 1.0076841951,
				"y": 0.3437863533,
				"z": -1.0548490553,
				"element": "C" 
			},
			{
				"x": -0.0334860034,
				"y": 0.1971783298,
				"z": -0.1192483981,
				"element": "C" 
			},
			{
				"x": -1.1990693505,
				"y": 0.9699188582,
				"z": -0.2759594014,
				"element": "C" 
			},
			{
				"x": -1.2757161582,
				"y": 1.8392944365,
				"z": -1.3573297461,
				"element": "C" 
			},
			{
				"x": -2.3984675338,
				"y": 2.5813084335,
				"z": -1.4931212057,
				"element": "F" 
			},
			{
				"x": -0.2642755773,
				"y": 2.0057986362,
				"z": -2.2866176437,
				"element": "C" 
			},
			{
				"x": 0.0945351103,
				"y": -0.7402873961,
				"z": 0.9270974103,
				"element": "N" 
			},
			{
				"x": 1.3419356337,
				"y": -0.7379246346,
				"z": 1.7019891644,
				"element": "C" 
			},
			{
				"x": 1.4638854954,
				"y": -2.0313292175,
				"z": 2.5033548943,
				"element": "C" 
			},
			{
				"x": 0.3413253513,
				"y": -2.2208487863,
				"z": 3.3516965403,
				"element": "O" 
			},
			{
				"x": -0.8540792127,
				"y": -2.2660665371,
				"z": 2.5870211972,
				"element": "C" 
			},
			{
				"x": -1.0636394554,
				"y": -0.982102568,
				"z": 1.7841534747,
				"element": "C" 
			},
			{
				"x": 1.9507958286,
				"y": 2.1766762604,
				"z": -3.6076831948,
				"element": "H" 
			},
			{
				"x": 2.8382570454,
				"y": 1.0427355493,
				"z": -2.7518283148,
				"element": "H" 
			},
			{
				"x": 1.8921348092,
				"y": -0.2805110567,
				"z": -0.9828180059,
				"element": "H" 
			},
			{
				"x": -2.0236729051,
				"y": 0.9381243254,
				"z": 0.422249011,
				"element": "H" 
			},
			{
				"x": -0.3884914714,
				"y": 2.6996548521,
				"z": -3.110683252,
				"element": "H" 
			},
			{
				"x": 2.1992541599,
				"y": -0.6476793746,
				"z": 1.0330645087,
				"element": "H" 
			},
			{
				"x": 1.3670396841,
				"y": 0.1206747075,
				"z": 2.3961359081,
				"element": "H" 
			},
			{
				"x": 1.5670749342,
				"y": -2.8837340911,
				"z": 1.8116971858,
				"element": "H" 
			},
			{
				"x": 2.3450077172,
				"y": -1.9952514676,
				"z": 3.1509073371,
				"element": "H" 
			},
			{
				"x": -1.6754534553,
				"y": -2.4065067496,
				"z": 3.2957193808,
				"element": "H" 
			},
			{
				"x": -0.8315809783,
				"y": -3.125916008,
				"z": 1.8976648366,
				"element": "H" 
			},
			{
				"x": -1.9539285231,
				"y": -1.100481327,
				"z": 1.1598519764,
				"element": "H" 
			},
			{
				"x": -1.2431607203,
				"y": -0.1428661854,
				"z": 2.4800866592,
				"element": "H" 
			}
		],
		 "valence_orbital": [ 
			{
				"type": "occ",
				"energy": -0.31021,
				"method": "rhf"
			},
			{
				"type": "occ",
				"energy": -0.26755,
				"method": "rhf"
			},
			{
				"type": "occ",
				"energy": -0.25152,
				"method": "rhf"
			},
			{
				"type": "occ",
				"energy": -0.20596,
				"method": "rhf"
			},
			{
				"type": "occ",
				"energy": -0.19646,
				"method": "rhf"
			},
			{
				"type": "unocc",
				"energy": 0.0132,
				"method": "rhf"
			},
			{
				"type": "unocc",
				"energy": 0.02163,
				"method": "rhf"
			},
			{
				"type": "unocc",
				"energy": 0.07923,
				"method": "rhf"
			},
			{
				"type": "unocc",
				"energy": 0.09322,
				"method": "rhf"
			},
			{
				"type": "unocc",
				"energy": 0.10677,
				"method": "rhf"
			}
		],
		"cosmo_sigma_profile": { 
			"-0.025": 0.0,
			"-0.024": 0.0,
			"-0.023": 0.0,
			"-0.022": 0.0,
			"-0.021": 0.0,
			"-0.02": 0.0,
			"-0.019": 0.0,
			"-0.018": 0.0,
			"-0.017": 0.0,
			"-0.016": 0.0,
			"-0.015": 0.0,
			"-0.014": 0.0,
			"-0.013": 0.321232611836,
			"-0.012": 2.39139821597,
			"-0.011": 3.07525637032,
			"-0.01": 2.35346281464,
			"-0.009": 3.0940646883,
			"-0.008": 3.03167087391,
			"-0.007": 4.64713092935,
			"-0.006": 8.92259053591,
			"-0.005": 16.0759824706,
			"-0.004": 18.482640562,
			"-0.003": 27.4607616061,
			"-0.002": 18.5086246207,
			"-0.001": 12.1112006441,
			"0.0": 9.11257576706,
			"0.001": 8.37830201203,
			"0.002": 10.95572943,
			"0.003": 12.4553641947,
			"0.004": 14.5460366492,
			"0.005": 20.0343960644,
			"0.006": 13.4193504604,
			"0.007": 4.63990980437,
			"0.008": 2.86862699992,
			"0.009": 2.64097706117,
			"0.01": 2.2350819126,
			"0.011": 2.29185287025,
			"0.012": 2.12391908324,
			"0.013": 2.7551296797,
			"0.014": 0.774829145944,
			"0.015": 0.262810522319,
			"0.016": 0.0,
			"0.017": 0.0,
			"0.018": 0.0,
			"0.019": 0.0,
			"0.02": 0.0,
			"0.021": 0.0,
			"0.022": 0.0,
			"0.023": 0.0,
			"0.024": 0.0,
			"0.025": 0.0
		}
	}
}
