{
	 "smiles": "COC1=CC=C(C=C1)C1=NN2C(=C1)N=C(C=C2C(F)(F)F)C1=CC=CS1", 
	 "Tm": 474.15, 
	 "num_atms": 38, 
	 "gaussian": { 
		 "optdone": 1, 
		 "sigma_profile": "yes", 
		 "theory": "DFT", 
		 "functional": "B3LYP", 
		 "basiset": "6-31G**", 
		 "properties": { 
			 "R2extent": 15410.7724, 
			 "electric_dipole_moment_norm": 3.25579374347, 
			 "electric_quadrupole_moment_norm": 26.2263725197, 
			 "total_energy": -1630.29590071, 
			 "HOMO_LUMO_gap": 0.12907, 
			 "cosmo_polarized_energy": -12.68, 
			 "cosmo_cavitation_energy": 46.33, 
			 "cosmo_dispersion_energy": -33.54, 
			 "cosmo_repulsion_energy": 2.38, 
			 "cosmo_total_nonelectrostatic_energy": 15.16, 
			 "SMD_solvation_energy": 7.6 
		},
		"coords": [
			{
				"x": -5.5725939655,
				"y": -1.8267261369,
				"z": -4.3768130345,
				"element": "C" 
			},
			{
				"x": -5.2397111486,
				"y": -0.5874731793,
				"z": -3.7707845,
				"element": "O" 
			},
			{
				"x": -4.1561929622,
				"y": -0.5405869719,
				"z": -2.9458992362,
				"element": "C" 
			},
			{
				"x": -3.8764719903,
				"y": 0.7124436214,
				"z": -2.3758884555,
				"element": "C" 
			},
			{
				"x": -2.7966367064,
				"y": 0.8667531433,
				"z": -1.5226733287,
				"element": "C" 
			},
			{
				"x": -1.9589688857,
				"y": -0.2219710348,
				"z": -1.2084645455,
				"element": "C" 
			},
			{
				"x": -2.2501022111,
				"y": -1.4647187995,
				"z": -1.7841058753,
				"element": "C" 
			},
			{
				"x": -3.3346609406,
				"y": -1.6340222917,
				"z": -2.6452179707,
				"element": "C" 
			},
			{
				"x": -0.8174245366,
				"y": -0.0460438255,
				"z": -0.3026497894,
				"element": "C" 
			},
			{
				"x": -0.5758291136,
				"y": 1.1732173982,
				"z": 0.2326891834,
				"element": "N" 
			},
			{
				"x": 0.5141905541,
				"y": 0.9963936916,
				"z": 0.9973533643,
				"element": "N" 
			},
			{
				"x": 0.9936454885,
				"y": -0.3339599775,
				"z": 0.9694558796,
				"element": "C" 
			},
			{
				"x": 0.1233410692,
				"y": -1.0084388229,
				"z": 0.1218612097,
				"element": "C" 
			},
			{
				"x": 2.0751924087,
				"y": -0.712968927,
				"z": 1.6689544673,
				"element": "N" 
			},
			{
				"x": 2.7018004327,
				"y": 0.1992945798,
				"z": 2.4033215597,
				"element": "C" 
			},
			{
				"x": 2.2536552435,
				"y": 1.5594950535,
				"z": 2.4632480892,
				"element": "C" 
			},
			{
				"x": 1.1509773259,
				"y": 1.9380396278,
				"z": 1.7478296898,
				"element": "C" 
			},
			{
				"x": 0.6049591615,
				"y": 3.3485848432,
				"z": 1.7490271151,
				"element": "C" 
			},
			{
				"x": 0.6157153966,
				"y": 3.8810806901,
				"z": 0.516562839,
				"element": "F" 
			},
			{
				"x": 1.3618677578,
				"y": 4.1348680312,
				"z": 2.5437204868,
				"element": "F" 
			},
			{
				"x": -0.654063387,
				"y": 3.3881018976,
				"z": 2.2136934171,
				"element": "F" 
			},
			{
				"x": 3.8757883162,
				"y": -0.2482971372,
				"z": 3.1522650322,
				"element": "C" 
			},
			{
				"x": 4.403505803,
				"y": -1.5211886101,
				"z": 3.1764799254,
				"element": "C" 
			},
			{
				"x": 5.5525252335,
				"y": -1.6384322215,
				"z": 4.0033715858,
				"element": "C" 
			},
			{
				"x": 5.8962816891,
				"y": -0.456227645,
				"z": 4.6058529522,
				"element": "C" 
			},
			{
				"x": 4.8168435501,
				"y": 0.8234331477,
				"z": 4.1699794489,
				"element": "S" 
			},
			{
				"x": -5.8077277946,
				"y": -2.5936376203,
				"z": -3.6276339833,
				"element": "H" 
			},
			{
				"x": -6.4580562332,
				"y": -1.6364344557,
				"z": -4.9851225677,
				"element": "H" 
			},
			{
				"x": -4.7634529408,
				"y": -2.1921940449,
				"z": -5.022129283,
				"element": "H" 
			},
			{
				"x": -4.5243489419,
				"y": 1.5477040413,
				"z": -2.6208665204,
				"element": "H" 
			},
			{
				"x": -2.5830775376,
				"y": 1.8352773346,
				"z": -1.0841046579,
				"element": "H" 
			},
			{
				"x": -1.6250138527,
				"y": -2.3244669033,
				"z": -1.5630213778,
				"element": "H" 
			},
			{
				"x": -3.5269267111,
				"y": -2.6117242546,
				"z": -3.0704988531,
				"element": "H" 
			},
			{
				"x": 0.185413901,
				"y": -2.0531290153,
				"z": -0.1356124864,
				"element": "H" 
			},
			{
				"x": 2.7663165555,
				"y": 2.2996143049,
				"z": 3.062133525,
				"element": "H" 
			},
			{
				"x": 3.9609494361,
				"y": -2.3299495121,
				"z": 2.6089694976,
				"element": "H" 
			},
			{
				"x": 6.1029388719,
				"y": -2.5610901191,
				"z": 4.1467579432,
				"element": "H" 
			},
			{
				"x": 6.7184516644,
				"y": -0.2586199,
				"z": 5.2796592541,
				"element": "H" 
			}
		],
		 "valence_orbital": [ 
			{
				"type": "occ",
				"energy": -0.26353,
				"method": "rhf"
			},
			{
				"type": "occ",
				"energy": -0.2524,
				"method": "rhf"
			},
			{
				"type": "occ",
				"energy": -0.25217,
				"method": "rhf"
			},
			{
				"type": "occ",
				"energy": -0.21776,
				"method": "rhf"
			},
			{
				"type": "occ",
				"energy": -0.20723,
				"method": "rhf"
			},
			{
				"type": "unocc",
				"energy": -0.07816,
				"method": "rhf"
			},
			{
				"type": "unocc",
				"energy": -0.04288,
				"method": "rhf"
			},
			{
				"type": "unocc",
				"energy": -0.00925,
				"method": "rhf"
			},
			{
				"type": "unocc",
				"energy": -0.00194,
				"method": "rhf"
			},
			{
				"type": "unocc",
				"energy": 0.0177,
				"method": "rhf"
			}
		],
		"cosmo_sigma_profile": { 
			"-0.025": 0.0,
			"-0.024": 0.0,
			"-0.023": 0.0,
			"-0.022": 0.0,
			"-0.021": 0.0,
			"-0.02": 0.0,
			"-0.019": 0.0,
			"-0.018": 0.0,
			"-0.017": 0.0,
			"-0.016": 0.0,
			"-0.015": 0.0,
			"-0.014": 0.0,
			"-0.013": 0.0,
			"-0.012": 0.0,
			"-0.011": 0.0,
			"-0.01": 0.163151347959,
			"-0.009": 2.17432687179,
			"-0.008": 5.67916511454,
			"-0.007": 8.90493967097,
			"-0.006": 17.7998536488,
			"-0.005": 27.16396898,
			"-0.004": 29.1296897059,
			"-0.003": 27.5871967317,
			"-0.002": 23.3292550456,
			"-0.001": 21.2239327531,
			"0.0": 21.7197049689,
			"0.001": 30.7889961021,
			"0.002": 49.0465525392,
			"0.003": 42.1303244488,
			"0.004": 30.1897544055,
			"0.005": 14.7879028156,
			"0.006": 6.16302664474,
			"0.007": 5.69493181695,
			"0.008": 4.34246129898,
			"0.009": 4.67221503583,
			"0.01": 2.99675763776,
			"0.011": 0.412221767228,
			"0.012": 0.0,
			"0.013": 0.0,
			"0.014": 0.0,
			"0.015": 0.0,
			"0.016": 0.0,
			"0.017": 0.0,
			"0.018": 0.0,
			"0.019": 0.0,
			"0.02": 0.0,
			"0.021": 0.0,
			"0.022": 0.0,
			"0.023": 0.0,
			"0.024": 0.0,
			"0.025": 0.0
		}
	}
}
