{
	 "smiles": "CC(C)S(=O)(=O)C1=CN=C(N=C1N)N1CCCCC1", 
	 "Tm": 429.15, 
	 "num_atms": 39, 
	 "gaussian": { 
		 "optdone": 1, 
		 "sigma_profile": "yes", 
		 "theory": "DFT", 
		 "functional": "B3LYP", 
		 "basiset": "6-31G**", 
		 "properties": { 
			 "R2extent": 8142.1368, 
			 "electric_dipole_moment_norm": 5.05999204545, 
			 "electric_quadrupole_moment_norm": 23.4639318824, 
			 "total_energy": -1236.96116835, 
			 "HOMO_LUMO_gap": 0.19278, 
			 "cosmo_polarized_energy": -15.25, 
			 "cosmo_cavitation_energy": 40.05, 
			 "cosmo_dispersion_energy": -29.43, 
			 "cosmo_repulsion_energy": 2.23, 
			 "cosmo_total_nonelectrostatic_energy": 12.86, 
			 "SMD_solvation_energy": 3.03 
		},
		"coords": [
			{
				"x": 2.1987382319,
				"y": 0.3704761779,
				"z": -4.8614204898,
				"element": "C" 
			},
			{
				"x": 3.35133427,
				"y": 0.2264016448,
				"z": -3.8682540924,
				"element": "C" 
			},
			{
				"x": 3.5303730158,
				"y": -1.1939865202,
				"z": -3.3338334909,
				"element": "C" 
			},
			{
				"x": 3.1975568251,
				"y": 1.4499670048,
				"z": -2.4978495801,
				"element": "S" 
			},
			{
				"x": 4.3663348777,
				"y": 1.2308145386,
				"z": -1.6084849982,
				"element": "O" 
			},
			{
				"x": 2.9922341599,
				"y": 2.7650863839,
				"z": -3.1302276545,
				"element": "O" 
			},
			{
				"x": 1.7342988598,
				"y": 1.0459250997,
				"z": -1.582557221,
				"element": "C" 
			},
			{
				"x": 0.5197311958,
				"y": 1.6372034892,
				"z": -1.9413948636,
				"element": "C" 
			},
			{
				"x": -0.6308629909,
				"y": 1.4054361524,
				"z": -1.3263783993,
				"element": "N" 
			},
			{
				"x": -0.5713340913,
				"y": 0.5404637402,
				"z": -0.2768943936,
				"element": "C" 
			},
			{
				"x": 0.5479042449,
				"y": -0.0407684099,
				"z": 0.1977538001,
				"element": "N" 
			},
			{
				"x": 1.7032149826,
				"y": 0.2017754033,
				"z": -0.4307640402,
				"element": "C" 
			},
			{
				"x": 2.8119873502,
				"y": -0.3960011373,
				"z": 0.0696345982,
				"element": "N" 
			},
			{
				"x": -1.7436227349,
				"y": 0.2563721997,
				"z": 0.3546251712,
				"element": "N" 
			},
			{
				"x": -3.0203651203,
				"y": 0.8438927595,
				"z": -0.0570568085,
				"element": "C" 
			},
			{
				"x": -3.6810344019,
				"y": 1.5826825942,
				"z": 1.1154226222,
				"element": "C" 
			},
			{
				"x": -3.8115685244,
				"y": 0.6714304415,
				"z": 2.344806786,
				"element": "C" 
			},
			{
				"x": -2.4535307294,
				"y": 0.0537682629,
				"z": 2.7096316575,
				"element": "C" 
			},
			{
				"x": -1.8213140857,
				"y": -0.6502994344,
				"z": 1.5003674625,
				"element": "C" 
			},
			{
				"x": 1.2483899285,
				"y": 0.0637036255,
				"z": -4.412876585,
				"element": "H" 
			},
			{
				"x": 2.3838225098,
				"y": -0.2769019706,
				"z": -5.7246363272,
				"element": "H" 
			},
			{
				"x": 2.1069997215,
				"y": 1.3996089992,
				"z": -5.2144759197,
				"element": "H" 
			},
			{
				"x": 4.2849018068,
				"y": 0.5715530857,
				"z": -4.3300469914,
				"element": "H" 
			},
			{
				"x": 2.6286312954,
				"y": -1.5439362945,
				"z": -2.8220765062,
				"element": "H" 
			},
			{
				"x": 4.371670418,
				"y": -1.2566318698,
				"z": -2.641027317,
				"element": "H" 
			},
			{
				"x": 3.7233673227,
				"y": -1.871039012,
				"z": -4.1722564546,
				"element": "H" 
			},
			{
				"x": 0.5008343327,
				"y": 2.345500236,
				"z": -2.7671230881,
				"element": "H" 
			},
			{
				"x": 3.7126593662,
				"y": -0.0189001959,
				"z": -0.2033943957,
				"element": "H" 
			},
			{
				"x": 2.7040427822,
				"y": -0.8354167917,
				"z": 0.9711501028,
				"element": "H" 
			},
			{
				"x": -2.833159273,
				"y": 1.5078234423,
				"z": -0.8984420363,
				"element": "H" 
			},
			{
				"x": -3.6806064882,
				"y": 0.0318634954,
				"z": -0.399615635,
				"element": "H" 
			},
			{
				"x": -3.0729758935,
				"y": 2.4611344808,
				"z": 1.3663027859,
				"element": "H" 
			},
			{
				"x": -4.6641876838,
				"y": 1.9505527121,
				"z": 0.7990709025,
				"element": "H" 
			},
			{
				"x": -4.5271723012,
				"y": -0.1337485748,
				"z": 2.1240791078,
				"element": "H" 
			},
			{
				"x": -4.2203705907,
				"y": 1.2290814797,
				"z": 3.1950111272,
				"element": "H" 
			},
			{
				"x": -2.5622358316,
				"y": -0.6671489092,
				"z": 3.5285888348,
				"element": "H" 
			},
			{
				"x": -1.7700196196,
				"y": 0.8385350783,
				"z": 3.0580850409,
				"element": "H" 
			},
			{
				"x": -2.4379608302,
				"y": -1.5172413639,
				"z": 1.2158408772,
				"element": "H" 
			},
			{
				"x": -0.8174063073,
				"y": -1.0069320435,
				"z": 1.7215164118,
				"element": "H" 
			}
		],
		 "valence_orbital": [ 
			{
				"type": "occ",
				"energy": -0.29175,
				"method": "rhf"
			},
			{
				"type": "occ",
				"energy": -0.27225,
				"method": "rhf"
			},
			{
				"type": "occ",
				"energy": -0.24809,
				"method": "rhf"
			},
			{
				"type": "occ",
				"energy": -0.24679,
				"method": "rhf"
			},
			{
				"type": "occ",
				"energy": -0.21734,
				"method": "rhf"
			},
			{
				"type": "unocc",
				"energy": -0.02456,
				"method": "rhf"
			},
			{
				"type": "unocc",
				"energy": -0.00755,
				"method": "rhf"
			},
			{
				"type": "unocc",
				"energy": 0.07529,
				"method": "rhf"
			},
			{
				"type": "unocc",
				"energy": 0.07815,
				"method": "rhf"
			},
			{
				"type": "unocc",
				"energy": 0.08534,
				"method": "rhf"
			}
		],
		"cosmo_sigma_profile": { 
			"-0.025": 0.0,
			"-0.024": 0.0,
			"-0.023": 0.0,
			"-0.022": 0.0,
			"-0.021": 0.0,
			"-0.02": 0.0,
			"-0.019": 0.0,
			"-0.018": 0.0,
			"-0.017": 0.0,
			"-0.016": 0.0,
			"-0.015": 0.0,
			"-0.014": 0.354386764636,
			"-0.013": 1.2202617214,
			"-0.012": 0.973142461439,
			"-0.011": 0.741350587857,
			"-0.01": 1.58237197563,
			"-0.009": 2.06531199683,
			"-0.008": 2.16570707614,
			"-0.007": 3.60472870339,
			"-0.006": 4.83677168648,
			"-0.005": 10.6954432654,
			"-0.004": 22.2334487396,
			"-0.003": 39.3544161005,
			"-0.002": 44.0828653154,
			"-0.001": 46.2200111069,
			"0.0": 35.5538883346,
			"0.001": 20.4861264062,
			"0.002": 9.61778406545,
			"0.003": 7.84900240538,
			"0.004": 9.24341983258,
			"0.005": 6.40980630507,
			"0.006": 5.70385354255,
			"0.007": 5.91280630226,
			"0.008": 5.25836008041,
			"0.009": 5.98321064827,
			"0.01": 4.85273443198,
			"0.011": 7.01661614337,
			"0.012": 7.39293106944,
			"0.013": 2.02447068577,
			"0.014": 0.0,
			"0.015": 0.0,
			"0.016": 0.0,
			"0.017": 0.0,
			"0.018": 0.0,
			"0.019": 0.0,
			"0.02": 0.0,
			"0.021": 0.0,
			"0.022": 0.0,
			"0.023": 0.0,
			"0.024": 0.0,
			"0.025": 0.0
		}
	}
}
