{
	 "smiles": "COC(=O)C1=C(N)SC2=C1CCCCC2", 
	 "Tm": 369.15, 
	 "num_atms": 30, 
	 "gaussian": { 
		 "optdone": 1, 
		 "sigma_profile": "yes", 
		 "theory": "DFT", 
		 "functional": "B3LYP", 
		 "basiset": "6-31G**", 
		 "properties": { 
			 "R2extent": 3923.8642, 
			 "electric_dipole_moment_norm": 0.763988619025, 
			 "electric_quadrupole_moment_norm": 9.2858632582, 
			 "total_energy": -1031.61489884, 
			 "HOMO_LUMO_gap": 0.17414, 
			 "cosmo_polarized_energy": -8.56, 
			 "cosmo_cavitation_energy": 32.26, 
			 "cosmo_dispersion_energy": -24.55, 
			 "cosmo_repulsion_energy": 1.88, 
			 "cosmo_total_nonelectrostatic_energy": 9.6, 
			 "SMD_solvation_energy": 5.45 
		},
		"coords": [
			{
				"x": -3.5560642949,
				"y": -1.457837422,
				"z": -1.038749773,
				"element": "C" 
			},
			{
				"x": -2.1935098049,
				"y": -1.1307491536,
				"z": -0.733058828,
				"element": "O" 
			},
			{
				"x": -1.8217864466,
				"y": 0.1403650493,
				"z": -1.0281519586,
				"element": "C" 
			},
			{
				"x": -2.6252249705,
				"y": 0.9280846237,
				"z": -1.5319161501,
				"element": "O" 
			},
			{
				"x": -0.4326057441,
				"y": 0.4597042373,
				"z": -0.7198337584,
				"element": "C" 
			},
			{
				"x": 0.053056481,
				"y": 1.7109689114,
				"z": -1.1121318185,
				"element": "C" 
			},
			{
				"x": -0.6133312844,
				"y": 2.684427858,
				"z": -1.784938771,
				"element": "N" 
			},
			{
				"x": 1.7341971586,
				"y": 1.8932368344,
				"z": -0.6979216208,
				"element": "S" 
			},
			{
				"x": 1.7928785664,
				"y": 0.2794019461,
				"z": 0.0316495867,
				"element": "C" 
			},
			{
				"x": 0.5835139369,
				"y": -0.3495460812,
				"z": -0.0463179335,
				"element": "C" 
			},
			{
				"x": 0.3037876525,
				"y": -1.719322141,
				"z": 0.5487450501,
				"element": "C" 
			},
			{
				"x": 1.2162158251,
				"y": -2.1219933894,
				"z": 1.7198484926,
				"element": "C" 
			},
			{
				"x": 2.6278899378,
				"y": -2.5974899904,
				"z": 1.3411740417,
				"element": "C" 
			},
			{
				"x": 3.3690938207,
				"y": -1.6922279961,
				"z": 0.3410449574,
				"element": "C" 
			},
			{
				"x": 3.1285219618,
				"y": -0.1875895728,
				"z": 0.5623556848,
				"element": "C" 
			},
			{
				"x": -4.2454915096,
				"y": -0.8165327627,
				"z": -0.4836789935,
				"element": "H" 
			},
			{
				"x": -3.7531000812,
				"y": -1.33977261,
				"z": -2.1072491506,
				"element": "H" 
			},
			{
				"x": -3.6794050641,
				"y": -2.4994235203,
				"z": -0.7405367813,
				"element": "H" 
			},
			{
				"x": -0.2510863256,
				"y": 3.6240179406,
				"z": -1.7905764226,
				"element": "H" 
			},
			{
				"x": -1.6148512334,
				"y": 2.528961882,
				"z": -1.8594068665,
				"element": "H" 
			},
			{
				"x": -0.7288389324,
				"y": -1.7227240691,
				"z": 0.901366466,
				"element": "H" 
			},
			{
				"x": 0.3349973723,
				"y": -2.4859377703,
				"z": -0.2392066961,
				"element": "H" 
			},
			{
				"x": 1.284531689,
				"y": -1.2732843078,
				"z": 2.4116825772,
				"element": "H" 
			},
			{
				"x": 0.7243916946,
				"y": -2.925687453,
				"z": 2.2815832497,
				"element": "H" 
			},
			{
				"x": 2.573840584,
				"y": -3.611395202,
				"z": 0.9237704805,
				"element": "H" 
			},
			{
				"x": 3.2182650751,
				"y": -2.6808446577,
				"z": 2.2631785133,
				"element": "H" 
			},
			{
				"x": 3.0665054718,
				"y": -1.9360836117,
				"z": -0.6838817185,
				"element": "H" 
			},
			{
				"x": 4.4444218725,
				"y": -1.899493423,
				"z": 0.4018800465,
				"element": "H" 
			},
			{
				"x": 3.240489222,
				"y": 0.0576731729,
				"z": 1.6290422527,
				"element": "H" 
			},
			{
				"x": 3.9184973696,
				"y": 0.3731926784,
				"z": 0.0484358416,
				"element": "H" 
			}
		],
		 "valence_orbital": [ 
			{
				"type": "occ",
				"energy": -0.29217,
				"method": "rhf"
			},
			{
				"type": "occ",
				"energy": -0.29047,
				"method": "rhf"
			},
			{
				"type": "occ",
				"energy": -0.26716,
				"method": "rhf"
			},
			{
				"type": "occ",
				"energy": -0.23999,
				"method": "rhf"
			},
			{
				"type": "occ",
				"energy": -0.18635,
				"method": "rhf"
			},
			{
				"type": "unocc",
				"energy": -0.01221,
				"method": "rhf"
			},
			{
				"type": "unocc",
				"energy": 0.01261,
				"method": "rhf"
			},
			{
				"type": "unocc",
				"energy": 0.02532,
				"method": "rhf"
			},
			{
				"type": "unocc",
				"energy": 0.08728,
				"method": "rhf"
			},
			{
				"type": "unocc",
				"energy": 0.09967,
				"method": "rhf"
			}
		],
		"cosmo_sigma_profile": { 
			"-0.025": 0.0,
			"-0.024": 0.0,
			"-0.023": 0.0,
			"-0.022": 0.0,
			"-0.021": 0.0,
			"-0.02": 0.0,
			"-0.019": 0.0,
			"-0.018": 0.0,
			"-0.017": 0.0,
			"-0.016": 0.0,
			"-0.015": 0.351098978424,
			"-0.014": 1.18744429842,
			"-0.013": 1.49647507758,
			"-0.012": 1.16191330262,
			"-0.011": 0.958914999073,
			"-0.01": 1.17989520516,
			"-0.009": 2.54604570395,
			"-0.008": 1.78811918303,
			"-0.007": 1.93779948088,
			"-0.006": 3.7538126739,
			"-0.005": 7.80608921923,
			"-0.004": 10.9455309742,
			"-0.003": 19.4229641266,
			"-0.002": 31.6142201803,
			"-0.001": 36.6143259992,
			"0.0": 29.5238254859,
			"0.001": 22.9095536212,
			"0.002": 17.4180608372,
			"0.003": 14.9616577453,
			"0.004": 14.9317773931,
			"0.005": 12.9485668704,
			"0.006": 5.69526985408,
			"0.007": 3.12909402959,
			"0.008": 2.15679977685,
			"0.009": 2.23816772358,
			"0.01": 1.50580206357,
			"0.011": 1.51370630052,
			"0.012": 2.15063633869,
			"0.013": 0.991745775367,
			"0.014": 0.0,
			"0.015": 0.0,
			"0.016": 0.0,
			"0.017": 0.0,
			"0.018": 0.0,
			"0.019": 0.0,
			"0.02": 0.0,
			"0.021": 0.0,
			"0.022": 0.0,
			"0.023": 0.0,
			"0.024": 0.0,
			"0.025": 0.0
		}
	}
}
