{
	 "smiles": "OCCN(CC1=CC=C(OC2=CC=C(C=C2)N(=O)=O)C=C1)C(=O)C(Cl)Cl", 
	 "Tm": 409.15, 
	 "num_atms": 42, 
	 "gaussian": { 
		 "optdone": 1, 
		 "sigma_profile": "yes", 
		 "theory": "DFT", 
		 "functional": "B3LYP", 
		 "basiset": "6-31G**", 
		 "properties": { 
			 "R2extent": 18763.205, 
			 "electric_dipole_moment_norm": 3.58933903943, 
			 "electric_quadrupole_moment_norm": 52.7002650365, 
			 "total_energy": -2063.34134179, 
			 "HOMO_LUMO_gap": 0.16186, 
			 "cosmo_polarized_energy": -23.45, 
			 "cosmo_cavitation_energy": 50.44, 
			 "cosmo_dispersion_energy": -34.27, 
			 "cosmo_repulsion_energy": 2.62, 
			 "cosmo_total_nonelectrostatic_energy": 18.79, 
			 "SMD_solvation_energy": 10.58 
		},
		"coords": [
			{
				"x": 2.1121308889,
				"y": -3.8207995709,
				"z": 0.4031260293,
				"element": "O" 
			},
			{
				"x": 1.3818497779,
				"y": -3.6758412168,
				"z": -0.8073318943,
				"element": "C" 
			},
			{
				"x": 0.0942849154,
				"y": -4.4905745231,
				"z": -0.6816194131,
				"element": "C" 
			},
			{
				"x": -0.8644621699,
				"y": -3.9740836029,
				"z": 0.2973639294,
				"element": "N" 
			},
			{
				"x": -1.8899429964,
				"y": -3.0268947348,
				"z": -0.1779658106,
				"element": "C" 
			},
			{
				"x": -1.4337930704,
				"y": -1.5818836817,
				"z": -0.2807851764,
				"element": "C" 
			},
			{
				"x": -1.3576478069,
				"y": -0.940145623,
				"z": -1.5230116433,
				"element": "C" 
			},
			{
				"x": -0.9683470265,
				"y": 0.3968906231,
				"z": -1.6236296554,
				"element": "C" 
			},
			{
				"x": -0.640386972,
				"y": 1.0941332546,
				"z": -0.4615738377,
				"element": "C" 
			},
			{
				"x": -0.3325474094,
				"y": 2.4497877402,
				"z": -0.5034889425,
				"element": "O" 
			},
			{
				"x": 0.7833309968,
				"y": 2.8979248228,
				"z": -1.1518080645,
				"element": "C" 
			},
			{
				"x": 1.8400824034,
				"y": 2.068270716,
				"z": -1.5534894948,
				"element": "C" 
			},
			{
				"x": 2.9497506907,
				"y": 2.6270548972,
				"z": -2.1779631897,
				"element": "C" 
			},
			{
				"x": 2.9950175057,
				"y": 4.0034430885,
				"z": -2.392823479,
				"element": "C" 
			},
			{
				"x": 1.9506519677,
				"y": 4.8395841209,
				"z": -1.9908040211,
				"element": "C" 
			},
			{
				"x": 0.8428031538,
				"y": 4.2833599172,
				"z": -1.3695763065,
				"element": "C" 
			},
			{
				"x": 4.1644089222,
				"y": 4.5847368577,
				"z": -3.0531317035,
				"element": "N" 
			},
			{
				"x": 5.0666805669,
				"y": 3.8198442065,
				"z": -3.3994443331,
				"element": "O" 
			},
			{
				"x": 4.1781845016,
				"y": 5.8046251238,
				"z": -3.2241958454,
				"element": "O" 
			},
			{
				"x": -0.7106765649,
				"y": 0.4779317145,
				"z": 0.7880866722,
				"element": "C" 
			},
			{
				"x": -1.1123016049,
				"y": -0.8533395783,
				"z": 0.8753979906,
				"element": "C" 
			},
			{
				"x": -0.8792101362,
				"y": -4.2767078035,
				"z": 1.636015541,
				"element": "C" 
			},
			{
				"x": -1.6406533369,
				"y": -3.7398787277,
				"z": 2.4260499598,
				"element": "O" 
			},
			{
				"x": 0.1062641257,
				"y": -5.3759778274,
				"z": 2.1073951243,
				"element": "C" 
			},
			{
				"x": 0.408518999,
				"y": -5.2477795188,
				"z": 3.8566126937,
				"element": "Cl" 
			},
			{
				"x": -0.5842823034,
				"y": -7.0012685374,
				"z": 1.679983287,
				"element": "Cl" 
			},
			{
				"x": 2.8408481239,
				"y": -3.1893746828,
				"z": 0.415393147,
				"element": "H" 
			},
			{
				"x": 1.9502133547,
				"y": -4.064801448,
				"z": -1.6671883919,
				"element": "H" 
			},
			{
				"x": 1.1379221543,
				"y": -2.6242617758,
				"z": -1.0063303385,
				"element": "H" 
			},
			{
				"x": -0.4042937205,
				"y": -4.5043584388,
				"z": -1.656337953,
				"element": "H" 
			},
			{
				"x": 0.3430738168,
				"y": -5.5294089585,
				"z": -0.4513969359,
				"element": "H" 
			},
			{
				"x": -2.2328172248,
				"y": -3.3765239409,
				"z": -1.157426817,
				"element": "H" 
			},
			{
				"x": -2.7247009254,
				"y": -3.0992159585,
				"z": 0.5218076346,
				"element": "H" 
			},
			{
				"x": -1.622322732,
				"y": -1.4832723859,
				"z": -2.4271070388,
				"element": "H" 
			},
			{
				"x": -0.9290308063,
				"y": 0.8966871111,
				"z": -2.586035269,
				"element": "H" 
			},
			{
				"x": 1.7933718913,
				"y": 1.0010648181,
				"z": -1.3749013839,
				"element": "H" 
			},
			{
				"x": 3.7836991529,
				"y": 2.014879346,
				"z": -2.4979513598,
				"element": "H" 
			},
			{
				"x": 2.0223177657,
				"y": 5.9043770785,
				"z": -2.1736010304,
				"element": "H" 
			},
			{
				"x": 0.011442433,
				"y": 4.8985745212,
				"z": -1.0437686448,
				"element": "H" 
			},
			{
				"x": -0.4679532769,
				"y": 1.0523662081,
				"z": 1.6760011652,
				"element": "H" 
			},
			{
				"x": -1.1880149095,
				"y": -1.3373450169,
				"z": 1.8440254596,
				"element": "H" 
			},
			{
				"x": 1.0724368845,
				"y": -5.3004986134,
				"z": 1.6193293401,
				"element": "H" 
			}
		],
		 "valence_orbital": [ 
			{
				"type": "occ",
				"energy": -0.27839,
				"method": "rhf"
			},
			{
				"type": "occ",
				"energy": -0.27688,
				"method": "rhf"
			},
			{
				"type": "occ",
				"energy": -0.26754,
				"method": "rhf"
			},
			{
				"type": "occ",
				"energy": -0.26308,
				"method": "rhf"
			},
			{
				"type": "occ",
				"energy": -0.24829,
				"method": "rhf"
			},
			{
				"type": "unocc",
				"energy": -0.08643,
				"method": "rhf"
			},
			{
				"type": "unocc",
				"energy": -0.03815,
				"method": "rhf"
			},
			{
				"type": "unocc",
				"energy": -0.03446,
				"method": "rhf"
			},
			{
				"type": "unocc",
				"energy": -0.02736,
				"method": "rhf"
			},
			{
				"type": "unocc",
				"energy": -0.02463,
				"method": "rhf"
			}
		],
		"cosmo_sigma_profile": { 
			"-0.025": 0.0,
			"-0.024": 0.0,
			"-0.023": 0.0,
			"-0.022": 0.0,
			"-0.021": 0.0,
			"-0.02": 0.0,
			"-0.019": 0.0,
			"-0.018": 0.0,
			"-0.017": 0.141369572104,
			"-0.016": 1.18430880983,
			"-0.015": 0.920712612621,
			"-0.014": 1.22522618743,
			"-0.013": 1.01698078948,
			"-0.012": 0.891072190432,
			"-0.011": 0.250765902051,
			"-0.01": 0.566599054826,
			"-0.009": 1.30387209808,
			"-0.008": 6.04354400933,
			"-0.007": 17.4580327653,
			"-0.006": 21.5702179148,
			"-0.005": 24.9532899244,
			"-0.004": 26.3672604099,
			"-0.003": 26.6007548145,
			"-0.002": 28.2014682357,
			"-0.001": 28.9126707597,
			"0.0": 31.6568784969,
			"0.001": 37.0576587099,
			"0.002": 32.9157537284,
			"0.003": 26.3041179644,
			"0.004": 28.657555971,
			"0.005": 11.9873006997,
			"0.006": 7.16999702472,
			"0.007": 9.01330691667,
			"0.008": 12.5580781124,
			"0.009": 7.11289731554,
			"0.01": 5.89546891083,
			"0.011": 3.08487742381,
			"0.012": 3.21568766404,
			"0.013": 2.24025471667,
			"0.014": 0.34936707238,
			"0.015": 0.0,
			"0.016": 0.0,
			"0.017": 0.0,
			"0.018": 0.0,
			"0.019": 0.0,
			"0.02": 0.0,
			"0.021": 0.0,
			"0.022": 0.0,
			"0.023": 0.0,
			"0.024": 0.0,
			"0.025": 0.0
		}
	}
}
