{
	 "smiles": "CC1=CC=C(O1)C(=O)NN", 
	 "Tm": 333.15, 
	 "num_atms": 18, 
	 "gaussian": { 
		 "optdone": 1, 
		 "sigma_profile": "yes", 
		 "theory": "DFT", 
		 "functional": "B3LYP", 
		 "basiset": "6-31G**", 
		 "properties": { 
			 "R2extent": 2324.5866, 
			 "electric_dipole_moment_norm": 4.4185175953, 
			 "electric_quadrupole_moment_norm": 12.6733476884, 
			 "total_energy": -493.369376116, 
			 "HOMO_LUMO_gap": 0.19832, 
			 "cosmo_polarized_energy": -13.27, 
			 "cosmo_cavitation_energy": 22.6, 
			 "cosmo_dispersion_energy": -16.47, 
			 "cosmo_repulsion_energy": 1.36, 
			 "cosmo_total_nonelectrostatic_energy": 7.5, 
			 "SMD_solvation_energy": 5.76 
		},
		"coords": [
			{
				"x": 1.1787422444,
				"y": 0.8179096845,
				"z": 0.5251748705,
				"element": "C" 
			},
			{
				"x": 0.1252309033,
				"y": -0.2121401961,
				"z": 0.7341220226,
				"element": "C" 
			},
			{
				"x": -0.217134321,
				"y": -1.0091340196,
				"z": 1.7917296857,
				"element": "C" 
			},
			{
				"x": -1.3285282352,
				"y": -1.796235619,
				"z": 1.3713264511,
				"element": "C" 
			},
			{
				"x": -1.6007613307,
				"y": -1.4345764366,
				"z": 0.0810816765,
				"element": "C" 
			},
			{
				"x": -0.7099940648,
				"y": -0.4594101565,
				"z": -0.3188828222,
				"element": "O" 
			},
			{
				"x": -2.6659008461,
				"y": -1.9668929282,
				"z": -0.7933643628,
				"element": "C" 
			},
			{
				"x": -3.4235813089,
				"y": -2.8332470516,
				"z": -0.3602096416,
				"element": "O" 
			},
			{
				"x": -2.8064602429,
				"y": -1.4957977495,
				"z": -2.0753961103,
				"element": "N" 
			},
			{
				"x": -2.0554448574,
				"y": -0.5314721971,
				"z": -2.7695988045,
				"element": "N" 
			},
			{
				"x": 1.7785260234,
				"y": 0.9237034281,
				"z": 1.43166601,
				"element": "H" 
			},
			{
				"x": 1.8479786494,
				"y": 0.5454432337,
				"z": -0.2990743919,
				"element": "H" 
			},
			{
				"x": 0.7425876022,
				"y": 1.7947996829,
				"z": 0.2864982184,
				"element": "H" 
			},
			{
				"x": 0.2713993286,
				"y": -1.0269173117,
				"z": 2.7554802259,
				"element": "H" 
			},
			{
				"x": -1.8745027586,
				"y": -2.5403823783,
				"z": 1.9309200453,
				"element": "H" 
			},
			{
				"x": -3.5606065819,
				"y": -1.9222264684,
				"z": -2.5966823572,
				"element": "H" 
			},
			{
				"x": -2.0918375456,
				"y": 0.3513073905,
				"z": -2.2658947006,
				"element": "H" 
			},
			{
				"x": -1.0792126581,
				"y": -0.8159309069,
				"z": -2.7931960148,
				"element": "H" 
			}
		],
		 "valence_orbital": [ 
			{
				"type": "occ",
				"energy": -0.28821,
				"method": "rhf"
			},
			{
				"type": "occ",
				"energy": -0.2835,
				"method": "rhf"
			},
			{
				"type": "occ",
				"energy": -0.25117,
				"method": "rhf"
			},
			{
				"type": "occ",
				"energy": -0.24543,
				"method": "rhf"
			},
			{
				"type": "occ",
				"energy": -0.2298,
				"method": "rhf"
			},
			{
				"type": "unocc",
				"energy": -0.03148,
				"method": "rhf"
			},
			{
				"type": "unocc",
				"energy": 0.04366,
				"method": "rhf"
			},
			{
				"type": "unocc",
				"energy": 0.07786,
				"method": "rhf"
			},
			{
				"type": "unocc",
				"energy": 0.10393,
				"method": "rhf"
			},
			{
				"type": "unocc",
				"energy": 0.11039,
				"method": "rhf"
			}
		],
		"cosmo_sigma_profile": { 
			"-0.025": 0.0,
			"-0.024": 0.0,
			"-0.023": 0.0,
			"-0.022": 0.0,
			"-0.021": 0.0,
			"-0.02": 0.0,
			"-0.019": 0.0,
			"-0.018": 0.0,
			"-0.017": 0.0,
			"-0.016": 0.0,
			"-0.015": 0.0,
			"-0.014": 0.194901952698,
			"-0.013": 0.829045399452,
			"-0.012": 1.18392572877,
			"-0.011": 2.14052961421,
			"-0.01": 2.95708262142,
			"-0.009": 2.53823559103,
			"-0.008": 3.476673703,
			"-0.007": 6.23736881496,
			"-0.006": 8.80905097166,
			"-0.005": 13.6354787287,
			"-0.004": 11.8128946509,
			"-0.003": 12.2945320256,
			"-0.002": 13.7520476837,
			"-0.001": 14.2446816803,
			"0.0": 10.9686998287,
			"0.001": 13.8381222825,
			"0.002": 11.3961628646,
			"0.003": 9.34099583896,
			"0.004": 8.33414521625,
			"0.005": 3.6786654666,
			"0.006": 2.35786955486,
			"0.007": 2.06341924669,
			"0.008": 1.88179529789,
			"0.009": 2.46219410123,
			"0.01": 1.86487075374,
			"0.011": 1.85681103769,
			"0.012": 2.60583459742,
			"0.013": 3.81183241593,
			"0.014": 6.8679669911,
			"0.015": 1.16225603265,
			"0.016": 0.470011136225,
			"0.017": 0.0127015356298,
			"0.018": 0.0,
			"0.019": 0.0,
			"0.02": 0.0,
			"0.021": 0.0,
			"0.022": 0.0,
			"0.023": 0.0,
			"0.024": 0.0,
			"0.025": 0.0
		}
	}
}
