{
	 "smiles": "ClC1=CC=CC(Cl)=C1CSC#N", 
	 "Tm": 313.65, 
	 "num_atms": 17, 
	 "gaussian": { 
		 "optdone": 1, 
		 "sigma_profile": "yes", 
		 "theory": "DFT", 
		 "functional": "B3LYP", 
		 "basiset": "6-31G**", 
		 "properties": { 
			 "R2extent": 3837.9541, 
			 "electric_dipole_moment_norm": 4.51156559744, 
			 "electric_quadrupole_moment_norm": 15.7413410328, 
			 "total_energy": -1681.15637432, 
			 "HOMO_LUMO_gap": 0.20493, 
			 "cosmo_polarized_energy": -10.11, 
			 "cosmo_cavitation_energy": 27.28, 
			 "cosmo_dispersion_energy": -19.57, 
			 "cosmo_repulsion_energy": 1.51, 
			 "cosmo_total_nonelectrostatic_energy": 9.22, 
			 "SMD_solvation_energy": 5.59 
		},
		"coords": [
			{
				"x": -2.7441062891,
				"y": -1.2666188964,
				"z": -1.4878664581,
				"element": "Cl" 
			},
			{
				"x": -1.3432489694,
				"y": -0.3673106441,
				"z": -0.9203112464,
				"element": "C" 
			},
			{
				"x": -1.5546231404,
				"y": 0.6123398482,
				"z": 0.0456178053,
				"element": "C" 
			},
			{
				"x": -0.4696375643,
				"y": 1.3537229225,
				"z": 0.5086242451,
				"element": "C" 
			},
			{
				"x": 0.8059898631,
				"y": 1.1239298605,
				"z": 0.0013612693,
				"element": "C" 
			},
			{
				"x": 0.9924954973,
				"y": 0.1369903547,
				"z": -0.9659074689,
				"element": "C" 
			},
			{
				"x": 2.6210642394,
				"y": -0.0778623687,
				"z": -1.5898983014,
				"element": "Cl" 
			},
			{
				"x": -0.0701070968,
				"y": -0.6488279177,
				"z": -1.452658318,
				"element": "C" 
			},
			{
				"x": 0.1314640758,
				"y": -1.7148092143,
				"z": -2.4898309954,
				"element": "C" 
			},
			{
				"x": 0.0644422346,
				"y": -3.4669667861,
				"z": -1.8381423149,
				"element": "S" 
			},
			{
				"x": 1.5010012457,
				"y": -3.5419754375,
				"z": -0.9327086815,
				"element": "C" 
			},
			{
				"x": 2.4660760582,
				"y": -3.6648385313,
				"z": -0.2890517063,
				"element": "N" 
			},
			{
				"x": -2.5551329982,
				"y": 0.7868242309,
				"z": 0.4235693896,
				"element": "H" 
			},
			{
				"x": -0.6208683725,
				"y": 2.1182063176,
				"z": 1.2640160912,
				"element": "H" 
			},
			{
				"x": 1.6563390744,
				"y": 1.700492412,
				"z": 0.3458454272,
				"element": "H" 
			},
			{
				"x": 1.0756082558,
				"y": -1.5955087862,
				"z": -3.016425356,
				"element": "H" 
			},
			{
				"x": -0.6820561136,
				"y": -1.7171873641,
				"z": -3.2180333808,
				"element": "H" 
			}
		],
		 "valence_orbital": [ 
			{
				"type": "occ",
				"energy": -0.33156,
				"method": "rhf"
			},
			{
				"type": "occ",
				"energy": -0.32564,
				"method": "rhf"
			},
			{
				"type": "occ",
				"energy": -0.27438,
				"method": "rhf"
			},
			{
				"type": "occ",
				"energy": -0.26444,
				"method": "rhf"
			},
			{
				"type": "occ",
				"energy": -0.26213,
				"method": "rhf"
			},
			{
				"type": "unocc",
				"energy": -0.0572,
				"method": "rhf"
			},
			{
				"type": "unocc",
				"energy": -0.03736,
				"method": "rhf"
			},
			{
				"type": "unocc",
				"energy": -0.01539,
				"method": "rhf"
			},
			{
				"type": "unocc",
				"energy": -0.00689,
				"method": "rhf"
			},
			{
				"type": "unocc",
				"energy": 0.03793,
				"method": "rhf"
			}
		],
		"cosmo_sigma_profile": { 
			"-0.025": 0.0,
			"-0.024": 0.0,
			"-0.023": 0.0,
			"-0.022": 0.0,
			"-0.021": 0.0,
			"-0.02": 0.0,
			"-0.019": 0.0,
			"-0.018": 0.0,
			"-0.017": 0.0,
			"-0.016": 0.0,
			"-0.015": 0.0,
			"-0.014": 0.0,
			"-0.013": 0.0,
			"-0.012": 0.0,
			"-0.011": 0.0,
			"-0.01": 0.304911813084,
			"-0.009": 1.98245340915,
			"-0.008": 7.66520459453,
			"-0.007": 9.74983784782,
			"-0.006": 11.6701111592,
			"-0.005": 10.6040805903,
			"-0.004": 10.2474832527,
			"-0.003": 11.5374594623,
			"-0.002": 12.2185467335,
			"-0.001": 17.5038598778,
			"0.0": 28.0478997159,
			"0.001": 25.8783654312,
			"0.002": 21.892789869,
			"0.003": 17.175560648,
			"0.004": 14.5756781367,
			"0.005": 4.72325046814,
			"0.006": 3.57594386577,
			"0.007": 2.64472638734,
			"0.008": 3.57748387467,
			"0.009": 2.81135881719,
			"0.01": 3.19850440772,
			"0.011": 2.49564148891,
			"0.012": 2.25574594349,
			"0.013": 0.503242970585,
			"0.014": 0.0,
			"0.015": 0.0,
			"0.016": 0.0,
			"0.017": 0.0,
			"0.018": 0.0,
			"0.019": 0.0,
			"0.02": 0.0,
			"0.021": 0.0,
			"0.022": 0.0,
			"0.023": 0.0,
			"0.024": 0.0,
			"0.025": 0.0
		}
	}
}
