{
	 "smiles": "N#CC1=CC=CC2=CC=CC=C12", 
	 "Tm": 309.95, 
	 "num_atms": 19, 
	 "gaussian": { 
		 "optdone": 1, 
		 "sigma_profile": "yes", 
		 "theory": "DFT", 
		 "functional": "B3LYP", 
		 "basiset": "6-31G**", 
		 "properties": { 
			 "R2extent": 2741.5934, 
			 "electric_dipole_moment_norm": 4.53943304169, 
			 "electric_quadrupole_moment_norm": 20.5031957648, 
			 "total_energy": -478.136478893, 
			 "HOMO_LUMO_gap": 0.16344, 
			 "cosmo_polarized_energy": -8.83, 
			 "cosmo_cavitation_energy": 23.92, 
			 "cosmo_dispersion_energy": -17.29, 
			 "cosmo_repulsion_energy": 1.34, 
			 "cosmo_total_nonelectrostatic_energy": 7.98, 
			 "SMD_solvation_energy": 5.09 
		},
		"coords": [
			{
				"x": -2.6718755069,
				"y": -3.2359613936,
				"z": 3.0052480566,
				"element": "N" 
			},
			{
				"x": -2.5075662669,
				"y": -2.6032139261,
				"z": 2.042232755,
				"element": "C" 
			},
			{
				"x": -2.2974736456,
				"y": -1.8236052899,
				"z": 0.8581871287,
				"element": "C" 
			},
			{
				"x": -3.3773105804,
				"y": -1.5245302526,
				"z": 0.0406005241,
				"element": "C" 
			},
			{
				"x": -3.1951568684,
				"y": -0.7587863874,
				"z": -1.1297721656,
				"element": "C" 
			},
			{
				"x": -1.9412636922,
				"y": -0.3013992643,
				"z": -1.4701577204,
				"element": "C" 
			},
			{
				"x": -0.8103513913,
				"y": -0.5863455701,
				"z": -0.6592562951,
				"element": "C" 
			},
			{
				"x": 0.4892443218,
				"y": -0.1212879496,
				"z": -0.9976730563,
				"element": "C" 
			},
			{
				"x": 1.5710836934,
				"y": -0.4091230067,
				"z": -0.1975793981,
				"element": "C" 
			},
			{
				"x": 1.4007423159,
				"y": -1.1769681317,
				"z": 0.9797675646,
				"element": "C" 
			},
			{
				"x": 0.1555397981,
				"y": -1.6439416843,
				"z": 1.3383051433,
				"element": "C" 
			},
			{
				"x": -0.9782097089,
				"y": -1.3627436681,
				"z": 0.5326017716,
				"element": "C" 
			},
			{
				"x": -4.3649187454,
				"y": -1.8847160892,
				"z": 0.3086454213,
				"element": "H" 
			},
			{
				"x": -4.0509235474,
				"y": -0.5339171342,
				"z": -1.758291158,
				"element": "H" 
			},
			{
				"x": -1.7995112751,
				"y": 0.2887431491,
				"z": -2.3717215062,
				"element": "H" 
			},
			{
				"x": 0.6124173908,
				"y": 0.4674520629,
				"z": -1.9027611554,
				"element": "H" 
			},
			{
				"x": 2.5594820645,
				"y": -0.0484470765,
				"z": -0.4661500045,
				"element": "H" 
			},
			{
				"x": 2.2605501129,
				"y": -1.3989065042,
				"z": 1.6047566346,
				"element": "H" 
			},
			{
				"x": 0.0270015311,
				"y": -2.2325018833,
				"z": 2.2414174601,
				"element": "H" 
			}
		],
		 "valence_orbital": [ 
			{
				"type": "occ",
				"energy": -0.33626,
				"method": "rhf"
			},
			{
				"type": "occ",
				"energy": -0.32823,
				"method": "rhf"
			},
			{
				"type": "occ",
				"energy": -0.29209,
				"method": "rhf"
			},
			{
				"type": "occ",
				"energy": -0.26259,
				"method": "rhf"
			},
			{
				"type": "occ",
				"energy": -0.23318,
				"method": "rhf"
			},
			{
				"type": "unocc",
				"energy": -0.06974,
				"method": "rhf"
			},
			{
				"type": "unocc",
				"energy": -0.02691,
				"method": "rhf"
			},
			{
				"type": "unocc",
				"energy": -0.00471,
				"method": "rhf"
			},
			{
				"type": "unocc",
				"energy": 0.03642,
				"method": "rhf"
			},
			{
				"type": "unocc",
				"energy": 0.06765,
				"method": "rhf"
			}
		],
		"cosmo_sigma_profile": { 
			"-0.025": 0.0,
			"-0.024": 0.0,
			"-0.023": 0.0,
			"-0.022": 0.0,
			"-0.021": 0.0,
			"-0.02": 0.0,
			"-0.019": 0.0,
			"-0.018": 0.0,
			"-0.017": 0.0,
			"-0.016": 0.0,
			"-0.015": 0.0,
			"-0.014": 0.0,
			"-0.013": 0.0,
			"-0.012": 0.0,
			"-0.011": 0.0,
			"-0.01": 0.0,
			"-0.009": 0.0175633497817,
			"-0.008": 2.06011359465,
			"-0.007": 8.99351940129,
			"-0.006": 15.6598678899,
			"-0.005": 14.2296102732,
			"-0.004": 13.1367294285,
			"-0.003": 10.2826597564,
			"-0.002": 11.8748542854,
			"-0.001": 15.1452719339,
			"0.0": 12.8754722778,
			"0.001": 17.4394348123,
			"0.002": 21.714049965,
			"0.003": 16.447574577,
			"0.004": 10.1726077114,
			"0.005": 2.67584274504,
			"0.006": 2.72620846245,
			"0.007": 2.01476995608,
			"0.008": 2.95571596732,
			"0.009": 3.5690371831,
			"0.01": 2.83318197393,
			"0.011": 3.04081126051,
			"0.012": 2.55238564492,
			"0.013": 1.54022279421,
			"0.014": 0.117664971866,
			"0.015": 0.0,
			"0.016": 0.0,
			"0.017": 0.0,
			"0.018": 0.0,
			"0.019": 0.0,
			"0.02": 0.0,
			"0.021": 0.0,
			"0.022": 0.0,
			"0.023": 0.0,
			"0.024": 0.0,
			"0.025": 0.0
		}
	}
}
