{
	 "smiles": "CC1=NC2=CC(O)=NN2C(C)=C1CCC(O)=O", 
	 "Tm": 576.15, 
	 "num_atms": 30, 
	 "gaussian": { 
		 "optdone": 1, 
		 "sigma_profile": "yes", 
		 "theory": "DFT", 
		 "functional": "B3LYP", 
		 "basiset": "6-31G**", 
		 "properties": { 
			 "R2extent": 4604.3104, 
			 "electric_dipole_moment_norm": 3.57001580109, 
			 "electric_quadrupole_moment_norm": 10.7787998307, 
			 "total_energy": -816.939993589, 
			 "HOMO_LUMO_gap": 0.17371, 
			 "cosmo_polarized_energy": -17.07, 
			 "cosmo_cavitation_energy": 33.16, 
			 "cosmo_dispersion_energy": -24.15, 
			 "cosmo_repulsion_energy": 1.88, 
			 "cosmo_total_nonelectrostatic_energy": 10.89, 
			 "SMD_solvation_energy": 4.99 
		},
		"coords": [
			{
				"x": -2.0736989086,
				"y": -2.3254932147,
				"z": -1.4118115785,
				"element": "C" 
			},
			{
				"x": -1.250602033,
				"y": -1.383824991,
				"z": -0.5634464244,
				"element": "C" 
			},
			{
				"x": -0.88590072,
				"y": -1.8622969227,
				"z": 0.614949543,
				"element": "N" 
			},
			{
				"x": -0.191127022,
				"y": -1.0534456125,
				"z": 1.4342801948,
				"element": "C" 
			},
			{
				"x": 0.3355188693,
				"y": -1.222536994,
				"z": 2.7130634001,
				"element": "C" 
			},
			{
				"x": 0.9213762389,
				"y": 0.0181444899,
				"z": 3.0031354841,
				"element": "C" 
			},
			{
				"x": 1.5603259936,
				"y": 0.3345491462,
				"z": 4.1463095508,
				"element": "O" 
			},
			{
				"x": 0.8032459898,
				"y": 0.927367355,
				"z": 2.0257090925,
				"element": "N" 
			},
			{
				"x": 0.1195522623,
				"y": 0.2610834283,
				"z": 1.0567078422,
				"element": "N" 
			},
			{
				"x": -0.2344151331,
				"y": 0.782732974,
				"z": -0.155263789,
				"element": "C" 
			},
			{
				"x": 0.1615500696,
				"y": 2.2108673053,
				"z": -0.3763639989,
				"element": "C" 
			},
			{
				"x": -0.9329224604,
				"y": -0.0539754536,
				"z": -1.0165337406,
				"element": "C" 
			},
			{
				"x": -1.3943872675,
				"y": 0.4045237755,
				"z": -2.3885231178,
				"element": "C" 
			},
			{
				"x": -0.5302792325,
				"y": -0.095790256,
				"z": -3.5654553205,
				"element": "C" 
			},
			{
				"x": 0.7301584243,
				"y": 0.7126954587,
				"z": -3.7916950458,
				"element": "C" 
			},
			{
				"x": 1.6847866026,
				"y": -0.0161495279,
				"z": -4.4120721123,
				"element": "O" 
			},
			{
				"x": 0.8869015153,
				"y": 1.8825069583,
				"z": -3.5103046274,
				"element": "O" 
			},
			{
				"x": -1.6147426059,
				"y": -2.5245295444,
				"z": -2.3859079317,
				"element": "H" 
			},
			{
				"x": -3.0740942253,
				"y": -1.9197384535,
				"z": -1.6055742538,
				"element": "H" 
			},
			{
				"x": -2.180737302,
				"y": -3.2698420984,
				"z": -0.8774515365,
				"element": "H" 
			},
			{
				"x": 0.2916841627,
				"y": -2.105288688,
				"z": 3.3287426209,
				"element": "H" 
			},
			{
				"x": 1.8548746398,
				"y": 1.2537310232,
				"z": 4.0604283068,
				"element": "H" 
			},
			{
				"x": 1.2038165793,
				"y": 2.3496461101,
				"z": -0.0761559033,
				"element": "H" 
			},
			{
				"x": 0.0509528276,
				"y": 2.511950949,
				"z": -1.4146686005,
				"element": "H" 
			},
			{
				"x": -0.4333755322,
				"y": 2.8648066401,
				"z": 0.2720381669,
				"element": "H" 
			},
			{
				"x": -2.4171213189,
				"y": 0.0510043638,
				"z": -2.5522083009,
				"element": "H" 
			},
			{
				"x": -1.4402777263,
				"y": 1.4939996788,
				"z": -2.438561451,
				"element": "H" 
			},
			{
				"x": -1.1024694174,
				"y": -0.0206665064,
				"z": -4.500460721,
				"element": "H" 
			},
			{
				"x": -0.2557203675,
				"y": -1.1478807315,
				"z": -3.4593911553,
				"element": "H" 
			},
			{
				"x": 2.4348270978,
				"y": 0.5846493384,
				"z": -4.5611145929,
				"element": "H" 
			}
		],
		 "valence_orbital": [ 
			{
				"type": "occ",
				"energy": -0.29146,
				"method": "rhf"
			},
			{
				"type": "occ",
				"energy": -0.28807,
				"method": "rhf"
			},
			{
				"type": "occ",
				"energy": -0.25709,
				"method": "rhf"
			},
			{
				"type": "occ",
				"energy": -0.22695,
				"method": "rhf"
			},
			{
				"type": "occ",
				"energy": -0.20868,
				"method": "rhf"
			},
			{
				"type": "unocc",
				"energy": -0.03497,
				"method": "rhf"
			},
			{
				"type": "unocc",
				"energy": -0.00333,
				"method": "rhf"
			},
			{
				"type": "unocc",
				"energy": -0.00096,
				"method": "rhf"
			},
			{
				"type": "unocc",
				"energy": 0.07028,
				"method": "rhf"
			},
			{
				"type": "unocc",
				"energy": 0.07976,
				"method": "rhf"
			}
		],
		"cosmo_sigma_profile": { 
			"-0.025": 0.0,
			"-0.024": 0.0,
			"-0.023": 0.0,
			"-0.022": 0.0,
			"-0.021": 0.0,
			"-0.02": 0.0,
			"-0.019": 0.0374164891471,
			"-0.018": 1.07709857757,
			"-0.017": 1.74652333636,
			"-0.016": 1.72093851411,
			"-0.015": 1.31708818546,
			"-0.014": 1.16855962368,
			"-0.013": 1.44676117161,
			"-0.012": 1.27588589844,
			"-0.011": 1.76827422832,
			"-0.01": 2.04785673498,
			"-0.009": 0.72552565423,
			"-0.008": 0.886678261307,
			"-0.007": 7.1768003446,
			"-0.006": 11.1042544404,
			"-0.005": 15.9165942091,
			"-0.004": 17.6925180104,
			"-0.003": 21.4955352406,
			"-0.002": 24.1566541168,
			"-0.001": 23.4512653828,
			"0.0": 19.764179663,
			"0.001": 11.8180975916,
			"0.002": 12.0707580331,
			"0.003": 11.8860944574,
			"0.004": 12.8086919924,
			"0.005": 10.8158858635,
			"0.006": 7.81792115186,
			"0.007": 7.00450081584,
			"0.008": 6.73671473713,
			"0.009": 6.76424199792,
			"0.01": 7.40272117042,
			"0.011": 6.35171254715,
			"0.012": 2.95998823769,
			"0.013": 0.850822186734,
			"0.014": 1.00377532259,
			"0.015": 0.598049323556,
			"0.016": 0.0204770672193,
			"0.017": 0.0,
			"0.018": 0.0,
			"0.019": 0.0,
			"0.02": 0.0,
			"0.021": 0.0,
			"0.022": 0.0,
			"0.023": 0.0,
			"0.024": 0.0,
			"0.025": 0.0
		}
	}
}
