{
	 "smiles": "OC(=O)C1CC2CCCCC2N1C(=O)OCC1C2=C(C=CC=C2)C2=C1C=CC=C2", 
	 "Tm": 443.15, 
	 "num_atms": 54, 
	 "gaussian": { 
		 "optdone": 1, 
		 "sigma_profile": "yes", 
		 "theory": "DFT", 
		 "functional": "B3LYP", 
		 "basiset": "6-31G**", 
		 "properties": { 
			 "R2extent": 13055.7877, 
			 "electric_dipole_moment_norm": 3.94724743207, 
			 "electric_quadrupole_moment_norm": 20.5422730437, 
			 "total_energy": -1285.32832583, 
			 "HOMO_LUMO_gap": 0.18436, 
			 "cosmo_polarized_energy": -17.83, 
			 "cosmo_cavitation_energy": 54.53, 
			 "cosmo_dispersion_energy": -36.12, 
			 "cosmo_repulsion_energy": 2.7, 
			 "cosmo_total_nonelectrostatic_energy": 21.11, 
			 "SMD_solvation_energy": 8.62 
		},
		"coords": [
			{
				"x": -3.475331378,
				"y": 0.6681070261,
				"z": 0.6359341873,
				"element": "O" 
			},
			{
				"x": -3.6702231566,
				"y": 0.5915324331,
				"z": 1.9753805295,
				"element": "C" 
			},
			{
				"x": -4.4244656081,
				"y": 1.3192544617,
				"z": 2.5770242132,
				"element": "O" 
			},
			{
				"x": -2.9312674761,
				"y": -0.5824458772,
				"z": 2.607507251,
				"element": "C" 
			},
			{
				"x": -3.7235443886,
				"y": -1.9016002244,
				"z": 2.3919816609,
				"element": "C" 
			},
			{
				"x": -2.6214462908,
				"y": -2.9578492328,
				"z": 2.2750397494,
				"element": "C" 
			},
			{
				"x": -2.956768258,
				"y": -4.3103467212,
				"z": 1.629188877,
				"element": "C" 
			},
			{
				"x": -1.6745463432,
				"y": -4.9654926445,
				"z": 1.0432097888,
				"element": "C" 
			},
			{
				"x": -0.4034167802,
				"y": -4.5034224796,
				"z": 1.780039052,
				"element": "C" 
			},
			{
				"x": -0.1746190552,
				"y": -2.9692465804,
				"z": 1.670991144,
				"element": "C" 
			},
			{
				"x": -1.5180206589,
				"y": -2.2384861867,
				"z": 1.4863901028,
				"element": "C" 
			},
			{
				"x": -1.6209704919,
				"y": -0.8655338524,
				"z": 2.0080568112,
				"element": "N" 
			},
			{
				"x": -0.7689996611,
				"y": 0.1760027407,
				"z": 1.7940098832,
				"element": "C" 
			},
			{
				"x": -0.9286145828,
				"y": 1.2942097911,
				"z": 2.2625066411,
				"element": "O" 
			},
			{
				"x": 0.2701860734,
				"y": -0.1760116728,
				"z": 0.9909146416,
				"element": "O" 
			},
			{
				"x": 1.2446882287,
				"y": 0.8556231594,
				"z": 0.7435014247,
				"element": "C" 
			},
			{
				"x": 0.7867358869,
				"y": 1.8742432504,
				"z": -0.3176214481,
				"element": "C" 
			},
			{
				"x": 1.8900490182,
				"y": 2.885356365,
				"z": -0.5874642264,
				"element": "C" 
			},
			{
				"x": 2.2849781615,
				"y": 2.8297570681,
				"z": -1.9404806155,
				"element": "C" 
			},
			{
				"x": 3.3021084074,
				"y": 3.6609262423,
				"z": -2.414461905,
				"element": "C" 
			},
			{
				"x": 3.9201944658,
				"y": 4.5443855844,
				"z": -1.5261578935,
				"element": "C" 
			},
			{
				"x": 3.5264870888,
				"y": 4.6005934763,
				"z": -0.1848603058,
				"element": "C" 
			},
			{
				"x": 2.506674206,
				"y": 3.7685377151,
				"z": 0.2927126792,
				"element": "C" 
			},
			{
				"x": 1.4535937601,
				"y": 1.8331028063,
				"z": -2.6287074993,
				"element": "C" 
			},
			{
				"x": 0.553561077,
				"y": 1.2755943008,
				"z": -1.6952712993,
				"element": "C" 
			},
			{
				"x": -0.3818345648,
				"y": 0.327817141,
				"z": -2.1001141488,
				"element": "C" 
			},
			{
				"x": -0.401831867,
				"y": -0.0749052253,
				"z": -3.4407943107,
				"element": "C" 
			},
			{
				"x": 0.4998080449,
				"y": 0.4675399143,
				"z": -4.3629578467,
				"element": "C" 
			},
			{
				"x": 1.4316519388,
				"y": 1.4287672095,
				"z": -3.9652409159,
				"element": "C" 
			},
			{
				"x": -3.9981325129,
				"y": 1.4289450123,
				"z": 0.3328261494,
				"element": "H" 
			},
			{
				"x": -2.8332094077,
				"y": -0.3380115226,
				"z": 3.6692450407,
				"element": "H" 
			},
			{
				"x": -4.4322372157,
				"y": -2.0814323392,
				"z": 3.2036474411,
				"element": "H" 
			},
			{
				"x": -4.2882816508,
				"y": -1.8469164856,
				"z": 1.4540803406,
				"element": "H" 
			},
			{
				"x": -2.2207888842,
				"y": -3.1355634324,
				"z": 3.2832155627,
				"element": "H" 
			},
			{
				"x": -3.4169625904,
				"y": -4.968582614,
				"z": 2.3747446165,
				"element": "H" 
			},
			{
				"x": -3.699656013,
				"y": -4.1738032551,
				"z": 0.8333413665,
				"element": "H" 
			},
			{
				"x": -1.7574450842,
				"y": -6.0567367924,
				"z": 1.0831638783,
				"element": "H" 
			},
			{
				"x": -1.5823119721,
				"y": -4.7068146145,
				"z": -0.0190834529,
				"element": "H" 
			},
			{
				"x": 0.4702320469,
				"y": -5.0335337161,
				"z": 1.3865599547,
				"element": "H" 
			},
			{
				"x": -0.4824687759,
				"y": -4.7930587941,
				"z": 2.8353767882,
				"element": "H" 
			},
			{
				"x": 0.3159492437,
				"y": -2.5994491039,
				"z": 2.5779304857,
				"element": "H" 
			},
			{
				"x": 0.489545318,
				"y": -2.7353318727,
				"z": 0.8362325422,
				"element": "H" 
			},
			{
				"x": -1.782866488,
				"y": -2.2386928644,
				"z": 0.4175548138,
				"element": "H" 
			},
			{
				"x": 2.1327215098,
				"y": 0.3209097293,
				"z": 0.4004632647,
				"element": "H" 
			},
			{
				"x": 1.4634832019,
				"y": 1.3714859203,
				"z": 1.6813449505,
				"element": "H" 
			},
			{
				"x": -0.1165508995,
				"y": 2.3610215884,
				"z": 0.0692354056,
				"element": "H" 
			},
			{
				"x": 3.60959787,
				"y": 3.6266454812,
				"z": -3.4560776624,
				"element": "H" 
			},
			{
				"x": 4.712286014,
				"y": 5.1975786656,
				"z": -1.8813224032,
				"element": "H" 
			},
			{
				"x": 4.0134059453,
				"y": 5.2978327947,
				"z": 0.490813104,
				"element": "H" 
			},
			{
				"x": 2.199182018,
				"y": 3.8236861797,
				"z": 1.33378928,
				"element": "H" 
			},
			{
				"x": -1.0930924419,
				"y": -0.0841851165,
				"z": -1.391447282,
				"element": "H" 
			},
			{
				"x": -1.1278057983,
				"y": -0.8132354648,
				"z": -3.7697055694,
				"element": "H" 
			},
			{
				"x": 0.4691659074,
				"y": 0.1441789412,
				"z": -5.3997064991,
				"element": "H" 
			},
			{
				"x": 2.1211248633,
				"y": 1.8564536871,
				"z": -4.688078338,
				"element": "H" 
			}
		],
		 "valence_orbital": [ 
			{
				"type": "occ",
				"energy": -0.27111,
				"method": "rhf"
			},
			{
				"type": "occ",
				"energy": -0.24773,
				"method": "rhf"
			},
			{
				"type": "occ",
				"energy": -0.24269,
				"method": "rhf"
			},
			{
				"type": "occ",
				"energy": -0.24015,
				"method": "rhf"
			},
			{
				"type": "occ",
				"energy": -0.21292,
				"method": "rhf"
			},
			{
				"type": "unocc",
				"energy": -0.02856,
				"method": "rhf"
			},
			{
				"type": "unocc",
				"energy": -0.0091,
				"method": "rhf"
			},
			{
				"type": "unocc",
				"energy": 0.00888,
				"method": "rhf"
			},
			{
				"type": "unocc",
				"energy": 0.01028,
				"method": "rhf"
			},
			{
				"type": "unocc",
				"energy": 0.0423,
				"method": "rhf"
			}
		],
		"cosmo_sigma_profile": { 
			"-0.025": 0.0,
			"-0.024": 0.0,
			"-0.023": 0.0,
			"-0.022": 0.0,
			"-0.021": 0.0,
			"-0.02": 0.0,
			"-0.019": 0.0253405960652,
			"-0.018": 0.892563879919,
			"-0.017": 0.906634679638,
			"-0.016": 0.72892367849,
			"-0.015": 1.00213659274,
			"-0.014": 0.74845611257,
			"-0.013": 0.611429134972,
			"-0.012": 0.432835511809,
			"-0.011": 0.546680837881,
			"-0.01": 0.934220367071,
			"-0.009": 0.748194896748,
			"-0.008": 0.302396668196,
			"-0.007": 1.05675767,
			"-0.006": 12.5566879635,
			"-0.005": 26.3744009374,
			"-0.004": 34.8589995912,
			"-0.003": 49.3780927775,
			"-0.002": 48.2753230737,
			"-0.001": 45.6623915809,
			"0.0": 34.7558017844,
			"0.001": 31.1612207628,
			"0.002": 21.8893908332,
			"0.003": 23.3714546444,
			"0.004": 23.34241575,
			"0.005": 23.2346311074,
			"0.006": 14.2581942142,
			"0.007": 4.18001676151,
			"0.008": 3.95485901688,
			"0.009": 3.00026928258,
			"0.01": 4.06659894037,
			"0.011": 5.7466888211,
			"0.012": 6.65807456062,
			"0.013": 3.20676249756,
			"0.014": 0.00306222763758,
			"0.015": 0.0,
			"0.016": 0.0,
			"0.017": 0.0,
			"0.018": 0.0,
			"0.019": 0.0,
			"0.02": 0.0,
			"0.021": 0.0,
			"0.022": 0.0,
			"0.023": 0.0,
			"0.024": 0.0,
			"0.025": 0.0
		}
	}
}
