{
	 "smiles": "CC1=CC(C)=C(C(C)=C1)S(=O)(=O)N1CCC(CC1)C(O)=O", 
	 "Tm": 455.15, 
	 "num_atms": 42, 
	 "gaussian": { 
		 "optdone": 1, 
		 "sigma_profile": "yes", 
		 "theory": "DFT", 
		 "functional": "B3LYP", 
		 "basiset": "6-31G**", 
		 "properties": { 
			 "R2extent": 7935.794, 
			 "electric_dipole_moment_norm": 4.60764963403, 
			 "electric_quadrupole_moment_norm": 17.7978192173, 
			 "total_energy": -1338.05548826, 
			 "HOMO_LUMO_gap": 0.21372, 
			 "cosmo_polarized_energy": -18.08, 
			 "cosmo_cavitation_energy": 43.56, 
			 "cosmo_dispersion_energy": -30.38, 
			 "cosmo_repulsion_energy": 2.27, 
			 "cosmo_total_nonelectrostatic_energy": 15.44, 
			 "SMD_solvation_energy": 7.37 
		},
		"coords": [
			{
				"x": -2.6258243369,
				"y": 4.1262864965,
				"z": -2.2675374586,
				"element": "C" 
			},
			{
				"x": -1.8852269334,
				"y": 3.1519542756,
				"z": -1.3845595881,
				"element": "C" 
			},
			{
				"x": -2.4472411926,
				"y": 2.679266944,
				"z": -0.2005802572,
				"element": "C" 
			},
			{
				"x": -1.7806582296,
				"y": 1.794436275,
				"z": 0.6597892184,
				"element": "C" 
			},
			{
				"x": -2.5217093962,
				"y": 1.3844464251,
				"z": 1.9164714049,
				"element": "C" 
			},
			{
				"x": -0.4835196343,
				"y": 1.3714989081,
				"z": 0.2818680921,
				"element": "C" 
			},
			{
				"x": 0.124784169,
				"y": 1.8352671449,
				"z": -0.913797441,
				"element": "C" 
			},
			{
				"x": 1.5086739602,
				"y": 1.4391657389,
				"z": -1.3768295113,
				"element": "C" 
			},
			{
				"x": -0.6023039087,
				"y": 2.7135497476,
				"z": -1.72041715,
				"element": "C" 
			},
			{
				"x": 0.4812027692,
				"y": 0.2686235263,
				"z": 1.3467413719,
				"element": "S" 
			},
			{
				"x": -0.2822608175,
				"y": -0.046224474,
				"z": 2.5630563067,
				"element": "O" 
			},
			{
				"x": 1.8446368963,
				"y": 0.7921673856,
				"z": 1.4896829942,
				"element": "O" 
			},
			{
				"x": 0.6066544306,
				"y": -1.1303540814,
				"z": 0.3661983714,
				"element": "N" 
			},
			{
				"x": 1.769013581,
				"y": -1.9841393983,
				"z": 0.6989604032,
				"element": "C" 
			},
			{
				"x": 1.9579821131,
				"y": -3.034087669,
				"z": -0.3979585801,
				"element": "C" 
			},
			{
				"x": 0.6846943113,
				"y": -3.8667376636,
				"z": -0.5910375762,
				"element": "C" 
			},
			{
				"x": -0.5278029737,
				"y": -2.9423562261,
				"z": -0.8434162573,
				"element": "C" 
			},
			{
				"x": -0.6505389694,
				"y": -1.89435245,
				"z": 0.2659638114,
				"element": "C" 
			},
			{
				"x": 0.842114322,
				"y": -4.8782626844,
				"z": -1.7104977489,
				"element": "C" 
			},
			{
				"x": -0.2190206527,
				"y": -5.7215674439,
				"z": -1.7743705529,
				"element": "O" 
			},
			{
				"x": 1.7768701918,
				"y": -4.9534169032,
				"z": -2.4774671913,
				"element": "O" 
			},
			{
				"x": -2.2610665706,
				"y": 5.1490870157,
				"z": -2.1125146772,
				"element": "H" 
			},
			{
				"x": -3.698576504,
				"y": 4.1240639495,
				"z": -2.0561170931,
				"element": "H" 
			},
			{
				"x": -2.4851425869,
				"y": 3.8911896723,
				"z": -3.3272693547,
				"element": "H" 
			},
			{
				"x": -3.4453986774,
				"y": 3.0075887513,
				"z": 0.0772377503,
				"element": "H" 
			},
			{
				"x": -1.9897514122,
				"y": 1.689541687,
				"z": 2.8197235397,
				"element": "H" 
			},
			{
				"x": -2.6466689394,
				"y": 0.3022175396,
				"z": 1.9923338926,
				"element": "H" 
			},
			{
				"x": -3.5106981653,
				"y": 1.8496327709,
				"z": 1.9183640486,
				"element": "H" 
			},
			{
				"x": 2.2727199618,
				"y": 1.7719930232,
				"z": -0.6711692465,
				"element": "H" 
			},
			{
				"x": 1.6019960667,
				"y": 0.3530518115,
				"z": -1.4574881955,
				"element": "H" 
			},
			{
				"x": 1.7128448436,
				"y": 1.8806521999,
				"z": -2.3550954499,
				"element": "H" 
			},
			{
				"x": -0.1440980419,
				"y": 3.0664582494,
				"z": -2.6410210349,
				"element": "H" 
			},
			{
				"x": 2.6477861952,
				"y": -1.3431205467,
				"z": 0.7767239287,
				"element": "H" 
			},
			{
				"x": 1.6237503015,
				"y": -2.4774051175,
				"z": 1.6740881054,
				"element": "H" 
			},
			{
				"x": 2.8009465989,
				"y": -3.6816854571,
				"z": -0.1362372884,
				"element": "H" 
			},
			{
				"x": 2.2156581948,
				"y": -2.5436746913,
				"z": -1.3422264579,
				"element": "H" 
			},
			{
				"x": 0.4779652594,
				"y": -4.4401801383,
				"z": 0.3243039374,
				"element": "H" 
			},
			{
				"x": -1.449044784,
				"y": -3.5302599326,
				"z": -0.8926611297,
				"element": "H" 
			},
			{
				"x": -0.4040054923,
				"y": -2.4329781257,
				"z": -1.8064839023,
				"element": "H" 
			},
			{
				"x": -1.4619762252,
				"y": -1.2007735229,
				"z": 0.0276362107,
				"element": "H" 
			},
			{
				"x": -0.8930947112,
				"y": -2.3777240695,
				"z": 1.2249572953,
				"element": "H" 
			},
			{
				"x": -0.043265011,
				"y": -6.3210389424,
				"z": -2.5191475402,
				"element": "H" 
			}
		],
		 "valence_orbital": [ 
			{
				"type": "occ",
				"energy": -0.28975,
				"method": "rhf"
			},
			{
				"type": "occ",
				"energy": -0.27911,
				"method": "rhf"
			},
			{
				"type": "occ",
				"energy": -0.25953,
				"method": "rhf"
			},
			{
				"type": "occ",
				"energy": -0.24825,
				"method": "rhf"
			},
			{
				"type": "occ",
				"energy": -0.24745,
				"method": "rhf"
			},
			{
				"type": "unocc",
				"energy": -0.03373,
				"method": "rhf"
			},
			{
				"type": "unocc",
				"energy": -0.00838,
				"method": "rhf"
			},
			{
				"type": "unocc",
				"energy": 0.00152,
				"method": "rhf"
			},
			{
				"type": "unocc",
				"energy": 0.06205,
				"method": "rhf"
			},
			{
				"type": "unocc",
				"energy": 0.07179,
				"method": "rhf"
			}
		],
		"cosmo_sigma_profile": { 
			"-0.025": 0.0,
			"-0.024": 0.0,
			"-0.023": 0.0,
			"-0.022": 0.0,
			"-0.021": 0.0,
			"-0.02": 0.0,
			"-0.019": 0.0,
			"-0.018": 0.692709454398,
			"-0.017": 0.850600681962,
			"-0.016": 0.707787119943,
			"-0.015": 1.03942665669,
			"-0.014": 1.00792996813,
			"-0.013": 0.477876463973,
			"-0.012": 0.213647251177,
			"-0.011": 0.532115788485,
			"-0.01": 1.45140431363,
			"-0.009": 0.508911088797,
			"-0.008": 0.675344106395,
			"-0.007": 0.411454572362,
			"-0.006": 8.54550622212,
			"-0.005": 24.9244219366,
			"-0.004": 40.632874156,
			"-0.003": 35.3914982733,
			"-0.002": 35.3463247682,
			"-0.001": 33.1820529599,
			"0.0": 32.5196932104,
			"0.001": 19.3669131971,
			"0.002": 15.9552189534,
			"0.003": 16.4097745624,
			"0.004": 15.1446978392,
			"0.005": 6.1747399714,
			"0.006": 5.66389678431,
			"0.007": 4.84870731392,
			"0.008": 5.41178053244,
			"0.009": 6.01134649573,
			"0.01": 7.61117499521,
			"0.011": 8.90335199957,
			"0.012": 9.66809114295,
			"0.013": 0.746727588908,
			"0.014": 0.0,
			"0.015": 0.0,
			"0.016": 0.0,
			"0.017": 0.0,
			"0.018": 0.0,
			"0.019": 0.0,
			"0.02": 0.0,
			"0.021": 0.0,
			"0.022": 0.0,
			"0.023": 0.0,
			"0.024": 0.0,
			"0.025": 0.0
		}
	}
}
