{
	 "smiles": "NC1=NC=C(S1)C=NO", 
	 "Tm": 485.15, 
	 "num_atms": 14, 
	 "gaussian": { 
		 "optdone": 1, 
		 "sigma_profile": "yes", 
		 "theory": "DFT", 
		 "functional": "B3LYP", 
		 "basiset": "6-31G**", 
		 "properties": { 
			 "R2extent": 1594.2674, 
			 "electric_dipole_moment_norm": 2.33006331459, 
			 "electric_quadrupole_moment_norm": 10.7058591481, 
			 "total_energy": -793.036361532, 
			 "HOMO_LUMO_gap": 0.16435, 
			 "cosmo_polarized_energy": -14.53, 
			 "cosmo_cavitation_energy": 20.36, 
			 "cosmo_dispersion_energy": -15.99, 
			 "cosmo_repulsion_energy": 1.28, 
			 "cosmo_total_nonelectrostatic_energy": 5.65, 
			 "SMD_solvation_energy": 1.9 
		},
		"coords": [
			{
				"x": -2.3415025804,
				"y": 0.4648392576,
				"z": 2.5471859387,
				"element": "N" 
			},
			{
				"x": -1.5210446458,
				"y": 0.2502134088,
				"z": 1.4712654456,
				"element": "C" 
			},
			{
				"x": -1.721928694,
				"y": -0.71489764,
				"z": 0.6044189525,
				"element": "N" 
			},
			{
				"x": -0.790457123,
				"y": -0.6467378275,
				"z": -0.3908589516,
				"element": "C" 
			},
			{
				"x": 0.152203921,
				"y": 0.353736604,
				"z": -0.3237305181,
				"element": "C" 
			},
			{
				"x": -0.163882325,
				"y": 1.3180644364,
				"z": 1.1219079831,
				"element": "S" 
			},
			{
				"x": 1.2113891545,
				"y": 0.5628730175,
				"z": -1.2795205823,
				"element": "C" 
			},
			{
				"x": 2.1436801509,
				"y": 1.4502118984,
				"z": -1.3264003328,
				"element": "N" 
			},
			{
				"x": 2.0633836338,
				"y": 2.3328038468,
				"z": -0.2330678296,
				"element": "O" 
			},
			{
				"x": -1.9576265104,
				"y": 0.9373970288,
				"z": 3.3516586471,
				"element": "H" 
			},
			{
				"x": -2.9555626511,
				"y": -0.3106163697,
				"z": 2.7561758193,
				"element": "H" 
			},
			{
				"x": -0.820618667,
				"y": -1.3814935707,
				"z": -1.1892800519,
				"element": "H" 
			},
			{
				"x": 1.2420884439,
				"y": -0.1397415267,
				"z": -2.1111310817,
				"element": "H" 
			},
			{
				"x": 2.7983778926,
				"y": 2.9377474362,
				"z": -0.3952234385,
				"element": "H" 
			}
		],
		 "valence_orbital": [ 
			{
				"type": "occ",
				"energy": -0.28162,
				"method": "rhf"
			},
			{
				"type": "occ",
				"energy": -0.27616,
				"method": "rhf"
			},
			{
				"type": "occ",
				"energy": -0.27503,
				"method": "rhf"
			},
			{
				"type": "occ",
				"energy": -0.26866,
				"method": "rhf"
			},
			{
				"type": "occ",
				"energy": -0.20241,
				"method": "rhf"
			},
			{
				"type": "unocc",
				"energy": -0.03806,
				"method": "rhf"
			},
			{
				"type": "unocc",
				"energy": 0.01623,
				"method": "rhf"
			},
			{
				"type": "unocc",
				"energy": 0.03454,
				"method": "rhf"
			},
			{
				"type": "unocc",
				"energy": 0.0652,
				"method": "rhf"
			},
			{
				"type": "unocc",
				"energy": 0.08381,
				"method": "rhf"
			}
		],
		"cosmo_sigma_profile": { 
			"-0.025": 0.0,
			"-0.024": 0.0,
			"-0.023": 0.0,
			"-0.022": 0.0,
			"-0.021": 0.0,
			"-0.02": 0.0,
			"-0.019": 0.0,
			"-0.018": 0.115125162469,
			"-0.017": 1.19470032633,
			"-0.016": 0.596881436101,
			"-0.015": 2.62579672961,
			"-0.014": 2.82155940263,
			"-0.013": 3.66247814226,
			"-0.012": 3.35054571678,
			"-0.011": 2.56676629704,
			"-0.01": 2.83115244664,
			"-0.009": 2.99705501034,
			"-0.008": 7.17173058017,
			"-0.007": 6.17226444165,
			"-0.006": 5.43776079951,
			"-0.005": 4.0805284787,
			"-0.004": 4.58047306363,
			"-0.003": 4.60917251001,
			"-0.002": 4.8463376149,
			"-0.001": 4.84452410828,
			"0.0": 7.04341095119,
			"0.001": 9.48740073578,
			"0.002": 14.0380156892,
			"0.003": 13.8758742211,
			"0.004": 10.5612007783,
			"0.005": 9.49089712948,
			"0.006": 8.15388609685,
			"0.007": 5.57104102431,
			"0.008": 6.6066439918,
			"0.009": 3.75045171943,
			"0.01": 2.72343962738,
			"0.011": 2.26236979493,
			"0.012": 2.02878325752,
			"0.013": 2.00524718517,
			"0.014": 1.28212873579,
			"0.015": 0.924553411655,
			"0.016": 0.0777764989661,
			"0.017": 0.0,
			"0.018": 0.0,
			"0.019": 0.0,
			"0.02": 0.0,
			"0.021": 0.0,
			"0.022": 0.0,
			"0.023": 0.0,
			"0.024": 0.0,
			"0.025": 0.0
		}
	}
}
