{
	 "smiles": "OC1=C(F)C=C(F)C=C1", 
	 "Tm": 295.65, 
	 "num_atms": 13, 
	 "gaussian": { 
		 "optdone": 1, 
		 "sigma_profile": "yes", 
		 "theory": "DFT", 
		 "functional": "B3LYP", 
		 "basiset": "6-31G**", 
		 "properties": { 
			 "R2extent": 2022.2043, 
			 "electric_dipole_moment_norm": 2.59359661474, 
			 "electric_quadrupole_moment_norm": 11.7865118589, 
			 "total_energy": -505.926596523, 
			 "HOMO_LUMO_gap": 0.20969, 
			 "cosmo_polarized_energy": -8.73, 
			 "cosmo_cavitation_energy": 18.47, 
			 "cosmo_dispersion_energy": -13.61, 
			 "cosmo_repulsion_energy": 1.07, 
			 "cosmo_total_nonelectrostatic_energy": 5.93, 
			 "SMD_solvation_energy": 4.66 
		},
		"coords": [
			{
				"x": -1.89768015,
				"y": 3.9721779209,
				"z": -0.8188210474,
				"element": "O" 
			},
			{
				"x": -1.3708409454,
				"y": 2.7368684594,
				"z": -0.5793715875,
				"element": "C" 
			},
			{
				"x": -0.845427684,
				"y": 2.0353126984,
				"z": -1.6744976401,
				"element": "C" 
			},
			{
				"x": -0.8891961286,
				"y": 2.6124577708,
				"z": -2.8878241052,
				"element": "F" 
			},
			{
				"x": -0.2874901357,
				"y": 0.7735374186,
				"z": -1.5374002689,
				"element": "C" 
			},
			{
				"x": -0.2558365795,
				"y": 0.2006972381,
				"z": -0.2686457383,
				"element": "C" 
			},
			{
				"x": 0.285356464,
				"y": -1.0275237534,
				"z": -0.1247989072,
				"element": "F" 
			},
			{
				"x": -0.7637157887,
				"y": 0.857802663,
				"z": 0.8427665698,
				"element": "C" 
			},
			{
				"x": -1.3207246108,
				"y": 2.1290627239,
				"z": 0.6766746972,
				"element": "C" 
			},
			{
				"x": -2.220772906,
				"y": 4.3410667547,
				"z": 0.0130877437,
				"element": "H" 
			},
			{
				"x": 0.1110192477,
				"y": 0.2542758795,
				"z": -2.4005347315,
				"element": "H" 
			},
			{
				"x": -0.7233115099,
				"y": 0.3833603836,
				"z": 1.8163447398,
				"element": "H" 
			},
			{
				"x": -1.7228792733,
				"y": 2.6567038425,
				"z": 1.5384202756,
				"element": "H" 
			}
		],
		 "valence_orbital": [ 
			{
				"type": "occ",
				"energy": -0.37011,
				"method": "rhf"
			},
			{
				"type": "occ",
				"energy": -0.36326,
				"method": "rhf"
			},
			{
				"type": "occ",
				"energy": -0.3331,
				"method": "rhf"
			},
			{
				"type": "occ",
				"energy": -0.26133,
				"method": "rhf"
			},
			{
				"type": "occ",
				"energy": -0.22394,
				"method": "rhf"
			},
			{
				"type": "unocc",
				"energy": -0.01425,
				"method": "rhf"
			},
			{
				"type": "unocc",
				"energy": 0.00949,
				"method": "rhf"
			},
			{
				"type": "unocc",
				"energy": 0.05837,
				"method": "rhf"
			},
			{
				"type": "unocc",
				"energy": 0.07314,
				"method": "rhf"
			},
			{
				"type": "unocc",
				"energy": 0.13901,
				"method": "rhf"
			}
		],
		"cosmo_sigma_profile": { 
			"-0.025": 0.0,
			"-0.024": 0.0,
			"-0.023": 0.0,
			"-0.022": 0.0,
			"-0.021": 0.0,
			"-0.02": 0.0,
			"-0.019": 0.0628167246591,
			"-0.018": 1.19104963327,
			"-0.017": 1.059312449,
			"-0.016": 1.40104046342,
			"-0.015": 0.937683534662,
			"-0.014": 0.780478681456,
			"-0.013": 0.941715293161,
			"-0.012": 0.759968817712,
			"-0.011": 0.900906820922,
			"-0.01": 1.43716876769,
			"-0.009": 1.94594559342,
			"-0.008": 3.26953485867,
			"-0.007": 4.50272983203,
			"-0.006": 5.98158142637,
			"-0.005": 5.66342783964,
			"-0.004": 4.21441430926,
			"-0.003": 3.80994795025,
			"-0.002": 4.07568109785,
			"-0.001": 6.33951659133,
			"0.0": 9.72646838424,
			"0.001": 16.8194293948,
			"0.002": 17.9918131669,
			"0.003": 14.1498450292,
			"0.004": 21.717281469,
			"0.005": 7.48931496728,
			"0.006": 1.87315974008,
			"0.007": 2.31654678756,
			"0.008": 1.79940348106,
			"0.009": 1.47710560481,
			"0.01": 2.44307943224,
			"0.011": 1.34416078711,
			"0.012": 0.0,
			"0.013": 0.0,
			"0.014": 0.0,
			"0.015": 0.0,
			"0.016": 0.0,
			"0.017": 0.0,
			"0.018": 0.0,
			"0.019": 0.0,
			"0.02": 0.0,
			"0.021": 0.0,
			"0.022": 0.0,
			"0.023": 0.0,
			"0.024": 0.0,
			"0.025": 0.0
		}
	}
}
