{
	 "smiles": "OC1=C(OCC2=CC=C(F)C=C2)C=CC=C1", 
	 "Tm": 329.15, 
	 "num_atms": 27, 
	 "gaussian": { 
		 "optdone": 1, 
		 "sigma_profile": "yes", 
		 "theory": "DFT", 
		 "functional": "B3LYP", 
		 "basiset": "6-31G**", 
		 "properties": { 
			 "R2extent": 5789.5126, 
			 "electric_dipole_moment_norm": 3.48497446476, 
			 "electric_quadrupole_moment_norm": 10.6783499634, 
			 "total_energy": -752.274197271, 
			 "HOMO_LUMO_gap": 0.21239, 
			 "cosmo_polarized_energy": -11.51, 
			 "cosmo_cavitation_energy": 32.06, 
			 "cosmo_dispersion_energy": -23.11, 
			 "cosmo_repulsion_energy": 1.77, 
			 "cosmo_total_nonelectrostatic_energy": 10.72, 
			 "SMD_solvation_energy": 6.34 
		},
		"coords": [
			{
				"x": 2.0154679724,
				"y": -1.1243791677,
				"z": -0.0087088308,
				"element": "O" 
			},
			{
				"x": 1.9924931437,
				"y": -0.2261403729,
				"z": -1.0415626649,
				"element": "C" 
			},
			{
				"x": 1.1791417872,
				"y": 0.9156588768,
				"z": -0.8986956902,
				"element": "C" 
			},
			{
				"x": 0.4671897444,
				"y": 1.1552485485,
				"z": 0.2529311555,
				"element": "O" 
			},
			{
				"x": -0.5957172081,
				"y": 0.2359985917,
				"z": 0.5460676568,
				"element": "C" 
			},
			{
				"x": -1.4002836274,
				"y": 0.764483403,
				"z": 1.7095057926,
				"element": "C" 
			},
			{
				"x": -1.5653815902,
				"y": 2.1399393545,
				"z": 1.9139614045,
				"element": "C" 
			},
			{
				"x": -2.349302313,
				"y": 2.6177631925,
				"z": 2.9635244282,
				"element": "C" 
			},
			{
				"x": -2.9748033348,
				"y": 1.702742293,
				"z": 3.8028031561,
				"element": "C" 
			},
			{
				"x": -3.7373526685,
				"y": 2.159380642,
				"z": 4.8202328296,
				"element": "F" 
			},
			{
				"x": -2.8320336616,
				"y": 0.3314261248,
				"z": 3.6294666778,
				"element": "C" 
			},
			{
				"x": -2.0350116865,
				"y": -0.128484033,
				"z": 2.5807516532,
				"element": "C" 
			},
			{
				"x": 1.1480869762,
				"y": 1.863866692,
				"z": -1.9203137183,
				"element": "C" 
			},
			{
				"x": 1.9087477751,
				"y": 1.6973353433,
				"z": -3.0799124068,
				"element": "C" 
			},
			{
				"x": 2.7019557955,
				"y": 0.5603011138,
				"z": -3.2240627025,
				"element": "C" 
			},
			{
				"x": 2.7408758021,
				"y": -0.3971565571,
				"z": -2.2082940876,
				"element": "C" 
			},
			{
				"x": 2.6220635827,
				"y": -1.8417811306,
				"z": -0.2331943729,
				"element": "H" 
			},
			{
				"x": -0.1899835365,
				"y": -0.7540428569,
				"z": 0.7793206394,
				"element": "H" 
			},
			{
				"x": -1.2321151309,
				"y": 0.1360394192,
				"z": -0.3470435591,
				"element": "H" 
			},
			{
				"x": -1.0601965409,
				"y": 2.8363156906,
				"z": 1.2540001169,
				"element": "H" 
			},
			{
				"x": -2.4798993788,
				"y": 3.6803923022,
				"z": 3.1383974045,
				"element": "H" 
			},
			{
				"x": -3.3273131508,
				"y": -0.3509271725,
				"z": 4.3117620007,
				"element": "H" 
			},
			{
				"x": -1.9047410893,
				"y": -1.1990611785,
				"z": 2.4435906846,
				"element": "H" 
			},
			{
				"x": 0.5205060332,
				"y": 2.7382215375,
				"z": -1.7787929124,
				"element": "H" 
			},
			{
				"x": 1.8745881498,
				"y": 2.4479186855,
				"z": -3.8631721955,
				"element": "H" 
			},
			{
				"x": 3.295452423,
				"y": 0.4127014378,
				"z": -4.1211563834,
				"element": "H" 
			},
			{
				"x": 3.3652657318,
				"y": -1.2826607795,
				"z": -2.3135060759,
				"element": "H" 
			}
		],
		 "valence_orbital": [ 
			{
				"type": "occ",
				"energy": -0.28108,
				"method": "rhf"
			},
			{
				"type": "occ",
				"energy": -0.25524,
				"method": "rhf"
			},
			{
				"type": "occ",
				"energy": -0.24424,
				"method": "rhf"
			},
			{
				"type": "occ",
				"energy": -0.23329,
				"method": "rhf"
			},
			{
				"type": "occ",
				"energy": -0.21932,
				"method": "rhf"
			},
			{
				"type": "unocc",
				"energy": -0.00693,
				"method": "rhf"
			},
			{
				"type": "unocc",
				"energy": -0.00037,
				"method": "rhf"
			},
			{
				"type": "unocc",
				"energy": 0.00392,
				"method": "rhf"
			},
			{
				"type": "unocc",
				"energy": 0.01023,
				"method": "rhf"
			},
			{
				"type": "unocc",
				"energy": 0.06193,
				"method": "rhf"
			}
		],
		"cosmo_sigma_profile": { 
			"-0.025": 0.0,
			"-0.024": 0.0,
			"-0.023": 0.0,
			"-0.022": 0.0,
			"-0.021": 0.0,
			"-0.02": 0.0,
			"-0.019": 0.0,
			"-0.018": 0.521916101344,
			"-0.017": 1.31678829978,
			"-0.016": 0.878181284288,
			"-0.015": 0.885546307053,
			"-0.014": 1.18638877764,
			"-0.013": 1.09571047805,
			"-0.012": 0.814043118232,
			"-0.011": 0.776107718602,
			"-0.01": 1.1354863082,
			"-0.009": 1.18719140181,
			"-0.008": 1.60110245066,
			"-0.007": 4.78817242753,
			"-0.006": 11.6267379454,
			"-0.005": 17.8140901981,
			"-0.004": 19.4749457566,
			"-0.003": 16.6579789683,
			"-0.002": 13.9931643368,
			"-0.001": 13.1326536761,
			"0.0": 15.7325141976,
			"0.001": 18.9176135275,
			"0.002": 19.6656778316,
			"0.003": 22.5678078536,
			"0.004": 29.5154979838,
			"0.005": 20.3083805381,
			"0.006": 9.30907682926,
			"0.007": 2.46687527294,
			"0.008": 2.21334848051,
			"0.009": 2.46087766372,
			"0.01": 2.58698213151,
			"0.011": 1.62110929701,
			"0.012": 0.12097009418,
			"0.013": 0.0,
			"0.014": 0.0,
			"0.015": 0.0,
			"0.016": 0.0,
			"0.017": 0.0,
			"0.018": 0.0,
			"0.019": 0.0,
			"0.02": 0.0,
			"0.021": 0.0,
			"0.022": 0.0,
			"0.023": 0.0,
			"0.024": 0.0,
			"0.025": 0.0
		}
	}
}
