{
	 "smiles": "OC(=O)CCCN1C2=CC=CC=C2N=C1C(F)(F)F", 
	 "Tm": 417.15, 
	 "num_atms": 30, 
	 "gaussian": { 
		 "optdone": 1, 
		 "sigma_profile": "yes", 
		 "theory": "DFT", 
		 "functional": "B3LYP", 
		 "basiset": "6-31G**", 
		 "properties": { 
			 "R2extent": 5829.4893, 
			 "electric_dipole_moment_norm": 4.92126036804, 
			 "electric_quadrupole_moment_norm": 23.0328163623, 
			 "total_energy": -1023.40550452, 
			 "HOMO_LUMO_gap": 0.19713, 
			 "cosmo_polarized_energy": -19.18, 
			 "cosmo_cavitation_energy": 35.23, 
			 "cosmo_dispersion_energy": -24.59, 
			 "cosmo_repulsion_energy": 1.82, 
			 "cosmo_total_nonelectrostatic_energy": 12.46, 
			 "SMD_solvation_energy": 5.66 
		},
		"coords": [
			{
				"x": -0.5433343596,
				"y": 0.6382543054,
				"z": -5.0970627267,
				"element": "O" 
			},
			{
				"x": -0.2977322683,
				"y": 0.4198113698,
				"z": -3.7808862218,
				"element": "C" 
			},
			{
				"x": 0.7944601694,
				"y": 0.6619320342,
				"z": -3.3260204428,
				"element": "O" 
			},
			{
				"x": -1.470002441,
				"y": -0.1375035228,
				"z": -2.9777178593,
				"element": "C" 
			},
			{
				"x": -1.1414833125,
				"y": -0.3450181802,
				"z": -1.4968956465,
				"element": "C" 
			},
			{
				"x": -0.979130275,
				"y": 0.9809841368,
				"z": -0.7380274721,
				"element": "C" 
			},
			{
				"x": -0.4864361228,
				"y": 0.7850795218,
				"z": 0.622452607,
				"element": "N" 
			},
			{
				"x": 0.8406496129,
				"y": 0.5919039109,
				"z": 0.9769500428,
				"element": "C" 
			},
			{
				"x": 2.0161370063,
				"y": 0.5677002311,
				"z": 0.2177979416,
				"element": "C" 
			},
			{
				"x": 3.197234505,
				"y": 0.3541056478,
				"z": 0.9211650942,
				"element": "C" 
			},
			{
				"x": 3.2085906367,
				"y": 0.1698609427,
				"z": 2.3215389743,
				"element": "C" 
			},
			{
				"x": 2.0354740355,
				"y": 0.1904095732,
				"z": 3.0650709438,
				"element": "C" 
			},
			{
				"x": 0.8308397299,
				"y": 0.4032140091,
				"z": 2.3792577938,
				"element": "C" 
			},
			{
				"x": -0.4654299254,
				"y": 0.4680091981,
				"z": 2.8636969129,
				"element": "N" 
			},
			{
				"x": -1.1983012796,
				"y": 0.6870760844,
				"z": 1.8014544357,
				"element": "C" 
			},
			{
				"x": -2.691636498,
				"y": 0.8274350142,
				"z": 1.837324901,
				"element": "C" 
			},
			{
				"x": -3.2885908809,
				"y": -0.0907347369,
				"z": 1.0284416039,
				"element": "F" 
			},
			{
				"x": -3.1748910909,
				"y": 0.6713036868,
				"z": 3.0675176169,
				"element": "F" 
			},
			{
				"x": -3.0848972806,
				"y": 2.0439582784,
				"z": 1.3777859856,
				"element": "F" 
			},
			{
				"x": -1.4535776584,
				"y": 0.3935636161,
				"z": -5.3177643601,
				"element": "H" 
			},
			{
				"x": -2.3304421557,
				"y": 0.535911656,
				"z": -3.1015468076,
				"element": "H" 
			},
			{
				"x": -1.7657140716,
				"y": -1.0916384225,
				"z": -3.4338639652,
				"element": "H" 
			},
			{
				"x": -0.2139649862,
				"y": -0.9190626072,
				"z": -1.4159095201,
				"element": "H" 
			},
			{
				"x": -1.93593748,
				"y": -0.9284954445,
				"z": -1.0229808753,
				"element": "H" 
			},
			{
				"x": -1.9287069816,
				"y": 1.5175959662,
				"z": -0.6839290181,
				"element": "H" 
			},
			{
				"x": -0.2621343619,
				"y": 1.6228857233,
				"z": -1.2546993682,
				"element": "H" 
			},
			{
				"x": 2.0081869581,
				"y": 0.6958101804,
				"z": -0.8602330319,
				"element": "H" 
			},
			{
				"x": 4.136797963,
				"y": 0.3256504696,
				"z": 0.3773382527,
				"element": "H" 
			},
			{
				"x": 4.1577886746,
				"y": 0.0066346267,
				"z": 2.8230706857,
				"element": "H" 
			},
			{
				"x": 2.0346841386,
				"y": 0.0477627314,
				"z": 4.1406735239,
				"element": "H" 
			}
		],
		 "valence_orbital": [ 
			{
				"type": "occ",
				"energy": -0.30308,
				"method": "rhf"
			},
			{
				"type": "occ",
				"energy": -0.29168,
				"method": "rhf"
			},
			{
				"type": "occ",
				"energy": -0.28056,
				"method": "rhf"
			},
			{
				"type": "occ",
				"energy": -0.23368,
				"method": "rhf"
			},
			{
				"type": "occ",
				"energy": -0.22791,
				"method": "rhf"
			},
			{
				"type": "unocc",
				"energy": -0.03078,
				"method": "rhf"
			},
			{
				"type": "unocc",
				"energy": -0.00983,
				"method": "rhf"
			},
			{
				"type": "unocc",
				"energy": 0.01608,
				"method": "rhf"
			},
			{
				"type": "unocc",
				"energy": 0.03678,
				"method": "rhf"
			},
			{
				"type": "unocc",
				"energy": 0.03863,
				"method": "rhf"
			}
		],
		"cosmo_sigma_profile": { 
			"-0.025": 0.0,
			"-0.024": 0.0,
			"-0.023": 0.0,
			"-0.022": 0.0,
			"-0.021": 0.0,
			"-0.02": 0.0322979331133,
			"-0.019": 0.91638548576,
			"-0.018": 1.18190279588,
			"-0.017": 0.901690565701,
			"-0.016": 1.28256411285,
			"-0.015": 1.39367575833,
			"-0.014": 0.996744184523,
			"-0.013": 0.601767296071,
			"-0.012": 1.07002417127,
			"-0.011": 1.71375241986,
			"-0.01": 1.41341229021,
			"-0.009": 1.56429313268,
			"-0.008": 2.92194904092,
			"-0.007": 8.59344950813,
			"-0.006": 10.8772073642,
			"-0.005": 14.8572998626,
			"-0.004": 18.5696465396,
			"-0.003": 22.2826117455,
			"-0.002": 21.4453304591,
			"-0.001": 17.1194248031,
			"0.0": 16.6499596633,
			"0.001": 20.9695927903,
			"0.002": 32.8974578674,
			"0.003": 18.9905856347,
			"0.004": 14.1374274843,
			"0.005": 11.9812387096,
			"0.006": 4.97170267006,
			"0.007": 4.2095167316,
			"0.008": 4.19238685407,
			"0.009": 4.77899597631,
			"0.01": 5.34455809136,
			"0.011": 4.9099422536,
			"0.012": 3.05519579021,
			"0.013": 2.35993362427,
			"0.014": 0.751480857879,
			"0.015": 0.98716110991,
			"0.016": 0.179518677812,
			"0.017": 0.0,
			"0.018": 0.0,
			"0.019": 0.0,
			"0.02": 0.0,
			"0.021": 0.0,
			"0.022": 0.0,
			"0.023": 0.0,
			"0.024": 0.0,
			"0.025": 0.0
		}
	}
}
