{
	 "smiles": "CC(=O)CN1C(CCl)=NC2=C(C=CC=C2)C1=O", 
	 "Tm": 441.15, 
	 "num_atms": 28, 
	 "gaussian": { 
		 "optdone": 1, 
		 "sigma_profile": "yes", 
		 "theory": "DFT", 
		 "functional": "B3LYP", 
		 "basiset": "6-31G**", 
		 "properties": { 
			 "R2extent": 4697.5986, 
			 "electric_dipole_moment_norm": 3.32557119004, 
			 "electric_quadrupole_moment_norm": 3.55228071667, 
			 "total_energy": -1184.07662376, 
			 "HOMO_LUMO_gap": 0.17673, 
			 "cosmo_polarized_energy": -13.11, 
			 "cosmo_cavitation_energy": 33.44, 
			 "cosmo_dispersion_energy": -23.74, 
			 "cosmo_repulsion_energy": 1.82, 
			 "cosmo_total_nonelectrostatic_energy": 11.53, 
			 "SMD_solvation_energy": 4.98 
		},
		"coords": [
			{
				"x": 1.7968194063,
				"y": -2.296798492,
				"z": -2.0986164812,
				"element": "C" 
			},
			{
				"x": 0.3185006473,
				"y": -2.4544648352,
				"z": -2.3797692331,
				"element": "C" 
			},
			{
				"x": -0.1980426475,
				"y": -3.5313200656,
				"z": -2.6093347487,
				"element": "O" 
			},
			{
				"x": -0.5443889926,
				"y": -1.1810496611,
				"z": -2.3851941333,
				"element": "C" 
			},
			{
				"x": -0.4121553309,
				"y": -0.3777127007,
				"z": -1.1597043945,
				"element": "N" 
			},
			{
				"x": -1.1173324744,
				"y": -0.6846513733,
				"z": -0.0016173747,
				"element": "C" 
			},
			{
				"x": -2.0755368175,
				"y": -1.8475408425,
				"z": -0.0177162437,
				"element": "C" 
			},
			{
				"x": -3.6595265486,
				"y": -1.3910738037,
				"z": -0.8029285159,
				"element": "Cl" 
			},
			{
				"x": -1.0191569839,
				"y": -0.0275480436,
				"z": 1.1097918944,
				"element": "N" 
			},
			{
				"x": -0.1730904161,
				"y": 1.0673826453,
				"z": 1.1551755941,
				"element": "C" 
			},
			{
				"x": 0.573668423,
				"y": 1.482860452,
				"z": 0.0310457276,
				"element": "C" 
			},
			{
				"x": 1.4151436897,
				"y": 2.6047299236,
				"z": 0.1098621519,
				"element": "C" 
			},
			{
				"x": 1.5125143322,
				"y": 3.3089425575,
				"z": 1.2999020808,
				"element": "C" 
			},
			{
				"x": 0.7727640191,
				"y": 2.8974496002,
				"z": 2.4245524914,
				"element": "C" 
			},
			{
				"x": -0.0598969323,
				"y": 1.7912780552,
				"z": 2.3583706522,
				"element": "C" 
			},
			{
				"x": 0.4773789778,
				"y": 0.723747869,
				"z": -1.2150143948,
				"element": "C" 
			},
			{
				"x": 1.1029894707,
				"y": 0.969421287,
				"z": -2.2414723308,
				"element": "O" 
			},
			{
				"x": 1.949402805,
				"y": -2.0729436589,
				"z": -1.0357946823,
				"element": "H" 
			},
			{
				"x": 2.3139137611,
				"y": -3.226325519,
				"z": -2.3396742198,
				"element": "H" 
			},
			{
				"x": 2.2134285341,
				"y": -1.4545675197,
				"z": -2.6583620441,
				"element": "H" 
			},
			{
				"x": -0.206669799,
				"y": -0.5368575469,
				"z": -3.2019550387,
				"element": "H" 
			},
			{
				"x": -1.5849611484,
				"y": -1.4581695891,
				"z": -2.5474664111,
				"element": "H" 
			},
			{
				"x": -2.3040097384,
				"y": -2.1021215509,
				"z": 1.0139280525,
				"element": "H" 
			},
			{
				"x": -1.7075542401,
				"y": -2.7177565593,
				"z": -0.5602095901,
				"element": "H" 
			},
			{
				"x": 1.9741211739,
				"y": 2.8939357288,
				"z": -0.7736194343,
				"element": "H" 
			},
			{
				"x": 2.1598135261,
				"y": 4.1778744861,
				"z": 1.3667752872,
				"element": "H" 
			},
			{
				"x": 0.8547915567,
				"y": 3.4537024259,
				"z": 3.3538657233,
				"element": "H" 
			},
			{
				"x": -0.6404282533,
				"y": 1.4599767309,
				"z": 3.2127796157,
				"element": "H" 
			}
		],
		 "valence_orbital": [ 
			{
				"type": "occ",
				"energy": -0.28732,
				"method": "rhf"
			},
			{
				"type": "occ",
				"energy": -0.27981,
				"method": "rhf"
			},
			{
				"type": "occ",
				"energy": -0.27258,
				"method": "rhf"
			},
			{
				"type": "occ",
				"energy": -0.26293,
				"method": "rhf"
			},
			{
				"type": "occ",
				"energy": -0.24083,
				"method": "rhf"
			},
			{
				"type": "unocc",
				"energy": -0.0641,
				"method": "rhf"
			},
			{
				"type": "unocc",
				"energy": -0.05555,
				"method": "rhf"
			},
			{
				"type": "unocc",
				"energy": -0.03423,
				"method": "rhf"
			},
			{
				"type": "unocc",
				"energy": 0.00412,
				"method": "rhf"
			},
			{
				"type": "unocc",
				"energy": 0.03104,
				"method": "rhf"
			}
		],
		"cosmo_sigma_profile": { 
			"-0.025": 0.0,
			"-0.024": 0.0,
			"-0.023": 0.0,
			"-0.022": 0.0,
			"-0.021": 0.0,
			"-0.02": 0.0,
			"-0.019": 0.0,
			"-0.018": 0.0,
			"-0.017": 0.0,
			"-0.016": 0.0,
			"-0.015": 0.0,
			"-0.014": 0.0,
			"-0.013": 0.0,
			"-0.012": 0.0,
			"-0.011": 0.114384404252,
			"-0.01": 0.694908733448,
			"-0.009": 2.23306910804,
			"-0.008": 5.45294786957,
			"-0.007": 11.849530528,
			"-0.006": 18.0934766458,
			"-0.005": 20.6291386345,
			"-0.004": 20.3825958529,
			"-0.003": 18.4318554744,
			"-0.002": 18.7628353108,
			"-0.001": 18.290640008,
			"0.0": 15.684173246,
			"0.001": 18.177934786,
			"0.002": 20.546894178,
			"0.003": 21.6986353995,
			"0.004": 11.3893754902,
			"0.005": 12.1919920037,
			"0.006": 5.61391013324,
			"0.007": 3.28038840703,
			"0.008": 3.94802352433,
			"0.009": 3.99763544063,
			"0.01": 4.91422700704,
			"0.011": 6.96578216396,
			"0.012": 5.33031904921,
			"0.013": 1.06974998358,
			"0.014": 0.0,
			"0.015": 0.0,
			"0.016": 0.0,
			"0.017": 0.0,
			"0.018": 0.0,
			"0.019": 0.0,
			"0.02": 0.0,
			"0.021": 0.0,
			"0.022": 0.0,
			"0.023": 0.0,
			"0.024": 0.0,
			"0.025": 0.0
		}
	}
}
