{
	 "smiles": "N#CC1=C(N=CN1)C#N", 
	 "Tm": 448.15, 
	 "num_atms": 11, 
	 "gaussian": { 
		 "optdone": 1, 
		 "sigma_profile": "yes", 
		 "theory": "DFT", 
		 "functional": "B3LYP", 
		 "basiset": "6-31G**", 
		 "properties": { 
			 "R2extent": 1250.6505, 
			 "electric_dipole_moment_norm": 7.12044772609, 
			 "electric_quadrupole_moment_norm": 11.8631533278, 
			 "total_energy": -410.69001233, 
			 "HOMO_LUMO_gap": 0.19698, 
			 "cosmo_polarized_energy": -20.75, 
			 "cosmo_cavitation_energy": 18.68, 
			 "cosmo_dispersion_energy": -12.64, 
			 "cosmo_repulsion_energy": 1.06, 
			 "cosmo_total_nonelectrostatic_energy": 7.1, 
			 "SMD_solvation_energy": 4.86 
		},
		"coords": [
			{
				"x": 1.7013811059,
				"y": -1.246895521,
				"z": 0.5024861451,
				"element": "N" 
			},
			{
				"x": 0.6328329911,
				"y": -0.8074589866,
				"z": 0.3610640637,
				"element": "C" 
			},
			{
				"x": -0.6683049461,
				"y": -0.2794884884,
				"z": 0.2016828017,
				"element": "C" 
			},
			{
				"x": -1.2594119292,
				"y": 0.4617549787,
				"z": -0.8196598295,
				"element": "C" 
			},
			{
				"x": -2.5668228268,
				"y": 0.745854922,
				"z": -0.5133285135,
				"element": "N" 
			},
			{
				"x": -2.7763673716,
				"y": 0.1959000563,
				"z": 0.6626790611,
				"element": "C" 
			},
			{
				"x": -1.6667853869,
				"y": -0.4350715288,
				"z": 1.1410485976,
				"element": "N" 
			},
			{
				"x": -0.6396937251,
				"y": 0.8891696616,
				"z": -2.0286686268,
				"element": "C" 
			},
			{
				"x": -0.1212953374,
				"y": 1.2314251048,
				"z": -3.0110905124,
				"element": "N" 
			},
			{
				"x": -3.7071914858,
				"y": 0.2232457892,
				"z": 1.2117610245,
				"element": "H" 
			},
			{
				"x": -1.573341088,
				"y": -0.9298359878,
				"z": 2.0173257885,
				"element": "H" 
			}
		],
		 "valence_orbital": [ 
			{
				"type": "occ",
				"energy": -0.37232,
				"method": "rhf"
			},
			{
				"type": "occ",
				"energy": -0.35042,
				"method": "rhf"
			},
			{
				"type": "occ",
				"energy": -0.32675,
				"method": "rhf"
			},
			{
				"type": "occ",
				"energy": -0.32258,
				"method": "rhf"
			},
			{
				"type": "occ",
				"energy": -0.2771,
				"method": "rhf"
			},
			{
				"type": "unocc",
				"energy": -0.08012,
				"method": "rhf"
			},
			{
				"type": "unocc",
				"energy": -0.01726,
				"method": "rhf"
			},
			{
				"type": "unocc",
				"energy": -0.01575,
				"method": "rhf"
			},
			{
				"type": "unocc",
				"energy": 0.01202,
				"method": "rhf"
			},
			{
				"type": "unocc",
				"energy": 0.03872,
				"method": "rhf"
			}
		],
		"cosmo_sigma_profile": { 
			"-0.025": 0.0,
			"-0.024": 0.0,
			"-0.023": 0.0,
			"-0.022": 0.0,
			"-0.021": 0.0,
			"-0.02": 0.318095962998,
			"-0.019": 2.5009114062,
			"-0.018": 1.57637281739,
			"-0.017": 1.46107887677,
			"-0.016": 1.69520929255,
			"-0.015": 1.20151215607,
			"-0.014": 1.34847231762,
			"-0.013": 1.33088462653,
			"-0.012": 2.90634662166,
			"-0.011": 3.6308891633,
			"-0.01": 2.28476366765,
			"-0.009": 2.48287765263,
			"-0.008": 2.24081986824,
			"-0.007": 2.55951254246,
			"-0.006": 3.21496677651,
			"-0.005": 5.40724000004,
			"-0.004": 11.4813818477,
			"-0.003": 11.1914034104,
			"-0.002": 7.20503904655,
			"-0.001": 5.12322075027,
			"0.0": 7.05727323237,
			"0.001": 6.10738901166,
			"0.002": 6.01061602691,
			"0.003": 6.07611360102,
			"0.004": 6.71647768676,
			"0.005": 6.58612488148,
			"0.006": 6.42495349743,
			"0.007": 7.31277763736,
			"0.008": 7.20535610973,
			"0.009": 6.9162112519,
			"0.01": 6.42470967942,
			"0.011": 5.24619995153,
			"0.012": 2.84174397549,
			"0.013": 1.04056431306,
			"0.014": 0.679588807793,
			"0.015": 0.0290999434795,
			"0.016": 0.0,
			"0.017": 0.0,
			"0.018": 0.0,
			"0.019": 0.0,
			"0.02": 0.0,
			"0.021": 0.0,
			"0.022": 0.0,
			"0.023": 0.0,
			"0.024": 0.0,
			"0.025": 0.0
		}
	}
}
