{
	 "smiles": "CC1=CC2=C(C=C1C(=C)C1=CC=C(C=C1)C(O)=O)C(C)(C)CCC2(C)C", 
	 "Tm": 503.65, 
	 "num_atms": 54, 
	 "gaussian": { 
		 "optdone": 1, 
		 "sigma_profile": "yes", 
		 "theory": "DFT", 
		 "functional": "B3LYP", 
		 "basiset": "6-31G**", 
		 "properties": { 
			 "R2extent": 12107.9359, 
			 "electric_dipole_moment_norm": 5.01835948991, 
			 "electric_quadrupole_moment_norm": 40.0778659517, 
			 "total_energy": -1081.90870448, 
			 "HOMO_LUMO_gap": 0.16433, 
			 "cosmo_polarized_energy": -15.47, 
			 "cosmo_cavitation_energy": 52.89, 
			 "cosmo_dispersion_energy": -34.83, 
			 "cosmo_repulsion_energy": 2.62, 
			 "cosmo_total_nonelectrostatic_energy": 20.68, 
			 "SMD_solvation_energy": 10.12 
		},
		"coords": [
			{
				"x": -0.4110874,
				"y": -3.5063622692,
				"z": 0.4382596656,
				"element": "C" 
			},
			{
				"x": -0.0360469018,
				"y": -2.0754509718,
				"z": 0.7573851217,
				"element": "C" 
			},
			{
				"x": 1.127146639,
				"y": -1.8299694726,
				"z": 1.4910065402,
				"element": "C" 
			},
			{
				"x": 1.5842825999,
				"y": -0.550727912,
				"z": 1.8396337068,
				"element": "C" 
			},
			{
				"x": 0.8484766807,
				"y": 0.5647523544,
				"z": 1.3825016762,
				"element": "C" 
			},
			{
				"x": -0.3189907464,
				"y": 0.3215544469,
				"z": 0.6478788781,
				"element": "C" 
			},
			{
				"x": -0.7923333096,
				"y": -0.9596510984,
				"z": 0.3378295438,
				"element": "C" 
			},
			{
				"x": -2.0773823973,
				"y": -1.0780218974,
				"z": -0.4184593781,
				"element": "C" 
			},
			{
				"x": -3.0900545571,
				"y": -1.8402593051,
				"z": 0.0313934836,
				"element": "C" 
			},
			{
				"x": -2.2113635114,
				"y": -0.315680065,
				"z": -1.6919561932,
				"element": "C" 
			},
			{
				"x": -3.4424376888,
				"y": 0.2400146535,
				"z": -2.0820259764,
				"element": "C" 
			},
			{
				"x": -3.5746406113,
				"y": 0.9092179439,
				"z": -3.2950949088,
				"element": "C" 
			},
			{
				"x": -2.4749910169,
				"y": 1.0522527527,
				"z": -4.153778451,
				"element": "C" 
			},
			{
				"x": -1.2353812384,
				"y": 0.5334614618,
				"z": -3.7551759073,
				"element": "C" 
			},
			{
				"x": -1.1066791651,
				"y": -0.139577158,
				"z": -2.546437812,
				"element": "C" 
			},
			{
				"x": -2.5434177656,
				"y": 1.7747586072,
				"z": -5.463620453,
				"element": "C" 
			},
			{
				"x": -3.7781163758,
				"y": 1.9195347395,
				"z": -6.0192326542,
				"element": "O" 
			},
			{
				"x": -1.5727086514,
				"y": 2.2189885104,
				"z": -6.0309832275,
				"element": "O" 
			},
			{
				"x": 1.2512602284,
				"y": 2.0210314684,
				"z": 1.6752792751,
				"element": "C" 
			},
			{
				"x": 1.157743174,
				"y": 2.8959247622,
				"z": 0.4047963217,
				"element": "C" 
			},
			{
				"x": 0.2982251852,
				"y": 2.6065322066,
				"z": 2.7460767368,
				"element": "C" 
			},
			{
				"x": 2.7117123877,
				"y": 2.0798980152,
				"z": 2.1761452637,
				"element": "C" 
			},
			{
				"x": 3.0237782512,
				"y": 1.0088738165,
				"z": 3.2165403007,
				"element": "C" 
			},
			{
				"x": 2.8792176462,
				"y": -0.4258822909,
				"z": 2.6615134552,
				"element": "C" 
			},
			{
				"x": 4.0897843575,
				"y": -0.7713513887,
				"z": 1.7597674148,
				"element": "C" 
			},
			{
				"x": 2.8727102163,
				"y": -1.3939556361,
				"z": 3.866348121,
				"element": "C" 
			},
			{
				"x": 0.4821816348,
				"y": -4.1376333323,
				"z": 0.4131584734,
				"element": "H" 
			},
			{
				"x": -0.9213703976,
				"y": -3.5917492503,
				"z": -0.5241608965,
				"element": "H" 
			},
			{
				"x": -1.0834728267,
				"y": -3.9317516759,
				"z": 1.1932117048,
				"element": "H" 
			},
			{
				"x": 1.7097052294,
				"y": -2.6925268493,
				"z": 1.8027131318,
				"element": "H" 
			},
			{
				"x": -0.9034467418,
				"y": 1.1678422733,
				"z": 0.3009630548,
				"element": "H" 
			},
			{
				"x": -4.0100815486,
				"y": -1.9608909202,
				"z": -0.5318258014,
				"element": "H" 
			},
			{
				"x": -3.020719383,
				"y": -2.3727037002,
				"z": 0.9736065075,
				"element": "H" 
			},
			{
				"x": -4.293499663,
				"y": 0.1715558242,
				"z": -1.4121903824,
				"element": "H" 
			},
			{
				"x": -4.5329809539,
				"y": 1.3636372893,
				"z": -3.5369619532,
				"element": "H" 
			},
			{
				"x": -0.3839896928,
				"y": 0.6687654881,
				"z": -4.4135750029,
				"element": "H" 
			},
			{
				"x": -0.1422097979,
				"y": -0.5420791552,
				"z": -2.2548834172,
				"element": "H" 
			},
			{
				"x": -4.4220472218,
				"y": 1.3777940249,
				"z": -5.5427154756,
				"element": "H" 
			},
			{
				"x": 1.5442262532,
				"y": 3.8992859714,
				"z": 0.6170461099,
				"element": "H" 
			},
			{
				"x": 1.7503129084,
				"y": 2.4715605272,
				"z": -0.4120677027,
				"element": "H" 
			},
			{
				"x": 0.1303514071,
				"y": 3.0141893797,
				"z": 0.0489852851,
				"element": "H" 
			},
			{
				"x": 0.5517962607,
				"y": 3.6526164938,
				"z": 2.9544849998,
				"element": "H" 
			},
			{
				"x": -0.7409682928,
				"y": 2.5733832813,
				"z": 2.4039379461,
				"element": "H" 
			},
			{
				"x": 0.3498843939,
				"y": 2.0500827568,
				"z": 3.6866661444,
				"element": "H" 
			},
			{
				"x": 2.9062757513,
				"y": 3.0782503176,
				"z": 2.5871292087,
				"element": "H" 
			},
			{
				"x": 3.3879787659,
				"y": 1.9672461677,
				"z": 1.3193040616,
				"element": "H" 
			},
			{
				"x": 2.3538989027,
				"y": 1.1276420505,
				"z": 4.0776128503,
				"element": "H" 
			},
			{
				"x": 4.042023627,
				"y": 1.1387078101,
				"z": 3.6036883429,
				"element": "H" 
			},
			{
				"x": 4.170278221,
				"y": -0.0910116901,
				"z": 0.9068941205,
				"element": "H" 
			},
			{
				"x": 4.0032246081,
				"y": -1.7867491688,
				"z": 1.3604457054,
				"element": "H" 
			},
			{
				"x": 5.0229789017,
				"y": -0.7121328484,
				"z": 2.3321416117,
				"element": "H" 
			},
			{
				"x": 2.9001363188,
				"y": -2.4441683309,
				"z": 3.5621280699,
				"element": "H" 
			},
			{
				"x": 3.7554754763,
				"y": -1.2139409306,
				"z": 4.4905455933,
				"element": "H" 
			},
			{
				"x": 1.9833518302,
				"y": -1.2455280777,
				"z": 4.4873271666,
				"element": "H" 
			}
		],
		 "valence_orbital": [ 
			{
				"type": "occ",
				"energy": -0.27158,
				"method": "rhf"
			},
			{
				"type": "occ",
				"energy": -0.26784,
				"method": "rhf"
			},
			{
				"type": "occ",
				"energy": -0.25256,
				"method": "rhf"
			},
			{
				"type": "occ",
				"energy": -0.2337,
				"method": "rhf"
			},
			{
				"type": "occ",
				"energy": -0.22369,
				"method": "rhf"
			},
			{
				"type": "unocc",
				"energy": -0.05936,
				"method": "rhf"
			},
			{
				"type": "unocc",
				"energy": -0.02345,
				"method": "rhf"
			},
			{
				"type": "unocc",
				"energy": -0.0155,
				"method": "rhf"
			},
			{
				"type": "unocc",
				"energy": 0.00045,
				"method": "rhf"
			},
			{
				"type": "unocc",
				"energy": 0.02542,
				"method": "rhf"
			}
		],
		"cosmo_sigma_profile": { 
			"-0.025": 0.0,
			"-0.024": 0.0,
			"-0.023": 0.0,
			"-0.022": 0.0,
			"-0.021": 0.0,
			"-0.02": 0.0,
			"-0.019": 0.131632566734,
			"-0.018": 0.793371160996,
			"-0.017": 0.987565421012,
			"-0.016": 0.677616056995,
			"-0.015": 1.03252920234,
			"-0.014": 0.619524080534,
			"-0.013": 1.2125135495,
			"-0.012": 1.68378628199,
			"-0.011": 1.08604723851,
			"-0.01": 0.959127708634,
			"-0.009": 0.942245451998,
			"-0.008": 2.13718249927,
			"-0.007": 2.5003829148,
			"-0.006": 6.70677871742,
			"-0.005": 14.0425636062,
			"-0.004": 19.7378051783,
			"-0.003": 32.3426833016,
			"-0.002": 56.4583257721,
			"-0.001": 47.7582105752,
			"0.0": 49.9778191933,
			"0.001": 56.5315871452,
			"0.002": 36.0285298596,
			"0.003": 25.4271969314,
			"0.004": 11.7858246574,
			"0.005": 8.55281914709,
			"0.006": 7.33512423072,
			"0.007": 4.09913402513,
			"0.008": 2.37129882308,
			"0.009": 3.72266956907,
			"0.01": 4.31371508849,
			"0.011": 5.34818137383,
			"0.012": 5.31047762906,
			"0.013": 1.82131890167,
			"0.014": 0.0991259299897,
			"0.015": 0.0,
			"0.016": 0.0,
			"0.017": 0.0,
			"0.018": 0.0,
			"0.019": 0.0,
			"0.02": 0.0,
			"0.021": 0.0,
			"0.022": 0.0,
			"0.023": 0.0,
			"0.024": 0.0,
			"0.025": 0.0
		}
	}
}
