{
	 "smiles": "CC1CN=C(N1)C(O)(C1=NCC(C)N1)C1=NC(C)CN1", 
	 "Tm": 452.15, 
	 "num_atms": 42, 
	 "gaussian": { 
		 "optdone": 1, 
		 "sigma_profile": "yes", 
		 "theory": "DFT", 
		 "functional": "B3LYP", 
		 "basiset": "6-31G**", 
		 "properties": { 
			 "R2extent": 5861.6413, 
			 "electric_dipole_moment_norm": 2.5106620123, 
			 "electric_quadrupole_moment_norm": 9.63252933658, 
			 "total_energy": -912.355256566, 
			 "HOMO_LUMO_gap": 0.20086, 
			 "cosmo_polarized_energy": -18.63, 
			 "cosmo_cavitation_energy": 42.26, 
			 "cosmo_dispersion_energy": -28.82, 
			 "cosmo_repulsion_energy": 2.28, 
			 "cosmo_total_nonelectrostatic_energy": 15.73, 
			 "SMD_solvation_energy": -3.4 
		},
		"coords": [
			{
				"x": 3.3367024031,
				"y": 2.0903972738,
				"z": 1.1332934528,
				"element": "C" 
			},
			{
				"x": 2.1987868219,
				"y": 1.6402803096,
				"z": 2.0550009931,
				"element": "C" 
			},
			{
				"x": 2.2832373869,
				"y": 0.1327188469,
				"z": 2.443587409,
				"element": "C" 
			},
			{
				"x": 1.336853389,
				"y": -0.5721577422,
				"z": 1.562402857,
				"element": "N" 
			},
			{
				"x": 0.6301420679,
				"y": 0.3494795211,
				"z": 1.0178708617,
				"element": "C" 
			},
			{
				"x": 0.8859481681,
				"y": 1.6633186029,
				"z": 1.3784660903,
				"element": "N" 
			},
			{
				"x": -0.4858664136,
				"y": 0.0536347597,
				"z": 0.0204590464,
				"element": "C" 
			},
			{
				"x": -1.6629751547,
				"y": 0.7286405228,
				"z": 0.5084640551,
				"element": "O" 
			},
			{
				"x": -0.7745784255,
				"y": -1.4462247093,
				"z": -0.0080727272,
				"element": "C" 
			},
			{
				"x": -0.4550997028,
				"y": -2.2528726376,
				"z": -0.9613928082,
				"element": "N" 
			},
			{
				"x": -0.9290673921,
				"y": -3.5823582492,
				"z": -0.5350747532,
				"element": "C" 
			},
			{
				"x": -1.9005483996,
				"y": -3.3330259503,
				"z": 0.6599098213,
				"element": "C" 
			},
			{
				"x": -3.3812664846,
				"y": -3.3737751423,
				"z": 0.2672287026,
				"element": "C" 
			},
			{
				"x": -1.458819509,
				"y": -1.988143901,
				"z": 1.0523337513,
				"element": "N" 
			},
			{
				"x": -0.1406183578,
				"y": 0.6384472302,
				"z": -1.355178499,
				"element": "C" 
			},
			{
				"x": 0.4828808323,
				"y": 1.7555350698,
				"z": -1.4902295688,
				"element": "N" 
			},
			{
				"x": 0.4733845295,
				"y": 2.0720248574,
				"z": -2.9342056149,
				"element": "C" 
			},
			{
				"x": 1.8347180523,
				"y": 2.5586910856,
				"z": -3.4229028925,
				"element": "C" 
			},
			{
				"x": -0.0316230037,
				"y": 0.7702914896,
				"z": -3.6234619853,
				"element": "C" 
			},
			{
				"x": -0.6632079177,
				"y": 0.0613586856,
				"z": -2.5008111734,
				"element": "N" 
			},
			{
				"x": 3.3870453263,
				"y": 1.4530749784,
				"z": 0.2447317618,
				"element": "H" 
			},
			{
				"x": 3.1947548541,
				"y": 3.1246231329,
				"z": 0.8012838399,
				"element": "H" 
			},
			{
				"x": 4.2980001873,
				"y": 2.0340519624,
				"z": 1.6564245863,
				"element": "H" 
			},
			{
				"x": 2.171362137,
				"y": 2.2802535511,
				"z": 2.9440864945,
				"element": "H" 
			},
			{
				"x": 3.2949020094,
				"y": -0.2737117185,
				"z": 2.330240602,
				"element": "H" 
			},
			{
				"x": 1.9828445046,
				"y": -0.0280761845,
				"z": 3.4876932781,
				"element": "H" 
			},
			{
				"x": 0.7587240255,
				"y": 2.3271656884,
				"z": 0.6175562773,
				"element": "H" 
			},
			{
				"x": -2.2964877022,
				"y": 0.7516236115,
				"z": -0.2235276879,
				"element": "H" 
			},
			{
				"x": -1.4134716049,
				"y": -4.1100365539,
				"z": -1.3641321574,
				"element": "H" 
			},
			{
				"x": -0.0650376272,
				"y": -4.1808200209,
				"z": -0.220084984,
				"element": "H" 
			},
			{
				"x": -1.7158481697,
				"y": -4.0425506278,
				"z": 1.473522926,
				"element": "H" 
			},
			{
				"x": -3.6721720398,
				"y": -4.387331567,
				"z": -0.0296574074,
				"element": "H" 
			},
			{
				"x": -4.023995015,
				"y": -3.0735398528,
				"z": 1.1023779217,
				"element": "H" 
			},
			{
				"x": -3.5768932765,
				"y": -2.7020382058,
				"z": -0.5758553453,
				"element": "H" 
			},
			{
				"x": -2.0379344075,
				"y": -1.3775889134,
				"z": 1.6119711923,
				"element": "H" 
			},
			{
				"x": -0.2635752083,
				"y": 2.8754022905,
				"z": -3.0860898172,
				"element": "H" 
			},
			{
				"x": 2.1434218111,
				"y": 3.4523486325,
				"z": -2.8731229158,
				"element": "H" 
			},
			{
				"x": 2.5954292726,
				"y": 1.7858189672,
				"z": -3.271281181,
				"element": "H" 
			},
			{
				"x": 1.802302325,
				"y": 2.8061742874,
				"z": -4.4897691225,
				"element": "H" 
			},
			{
				"x": -0.7436548493,
				"y": 0.9617750841,
				"z": -4.431278459,
				"element": "H" 
			},
			{
				"x": 0.8065929623,
				"y": 0.1874571111,
				"z": -4.0335876559,
				"element": "H" 
			},
			{
				"x": -0.6484924047,
				"y": -0.9600355759,
				"z": -2.4793891649,
				"element": "H" 
			}
		],
		 "valence_orbital": [ 
			{
				"type": "occ",
				"energy": -0.26509,
				"method": "rhf"
			},
			{
				"type": "occ",
				"energy": -0.24643,
				"method": "rhf"
			},
			{
				"type": "occ",
				"energy": -0.22021,
				"method": "rhf"
			},
			{
				"type": "occ",
				"energy": -0.21729,
				"method": "rhf"
			},
			{
				"type": "occ",
				"energy": -0.20126,
				"method": "rhf"
			},
			{
				"type": "unocc",
				"energy": -0.0004,
				"method": "rhf"
			},
			{
				"type": "unocc",
				"energy": 0.02542,
				"method": "rhf"
			},
			{
				"type": "unocc",
				"energy": 0.04366,
				"method": "rhf"
			},
			{
				"type": "unocc",
				"energy": 0.07921,
				"method": "rhf"
			},
			{
				"type": "unocc",
				"energy": 0.09691,
				"method": "rhf"
			}
		],
		"cosmo_sigma_profile": { 
			"-0.025": 0.0,
			"-0.024": 0.0,
			"-0.023": 0.0,
			"-0.022": 0.0,
			"-0.021": 0.0,
			"-0.02": 0.0,
			"-0.019": 0.0,
			"-0.018": 0.0,
			"-0.017": 0.0559016239651,
			"-0.016": 0.56535742885,
			"-0.015": 0.844103232436,
			"-0.014": 0.790390540774,
			"-0.013": 0.57569639824,
			"-0.012": 1.26858643807,
			"-0.011": 1.36463023434,
			"-0.01": 1.02222160527,
			"-0.009": 2.50357956213,
			"-0.008": 2.28817952587,
			"-0.007": 2.97069459716,
			"-0.006": 3.32250611589,
			"-0.005": 7.05216143223,
			"-0.004": 33.1708977514,
			"-0.003": 54.1377318131,
			"-0.002": 44.2646901029,
			"-0.001": 35.1891316265,
			"0.0": 29.5313658366,
			"0.001": 22.5876251405,
			"0.002": 11.669148657,
			"0.003": 9.77746917505,
			"0.004": 7.97040861359,
			"0.005": 7.20158156745,
			"0.006": 7.71018125984,
			"0.007": 7.52988290394,
			"0.008": 6.17944588882,
			"0.009": 4.606303972,
			"0.01": 4.30498328476,
			"0.011": 4.01571786548,
			"0.012": 3.86911359471,
			"0.013": 3.36187372661,
			"0.014": 2.69150080169,
			"0.015": 1.67335785406,
			"0.016": 1.49540074188,
			"0.017": 1.22695719479,
			"0.018": 0.356745140091,
			"0.019": 0.0,
			"0.02": 0.0,
			"0.021": 0.0,
			"0.022": 0.0,
			"0.023": 0.0,
			"0.024": 0.0,
			"0.025": 0.0
		}
	}
}
