{
	 "smiles": "CSC1=NC(=O)N(CCO)C2=C1CCC2", 
	 "Tm": 467.15, 
	 "num_atms": 29, 
	 "gaussian": { 
		 "optdone": 1, 
		 "sigma_profile": "yes", 
		 "theory": "DFT", 
		 "functional": "B3LYP", 
		 "basiset": "6-31G**", 
		 "properties": { 
			 "R2extent": 4127.6772, 
			 "electric_dipole_moment_norm": 4.10439304892, 
			 "electric_quadrupole_moment_norm": 12.6384536803, 
			 "total_energy": -1047.64878374, 
			 "HOMO_LUMO_gap": 0.1757, 
			 "cosmo_polarized_energy": -18.68, 
			 "cosmo_cavitation_energy": 32.8, 
			 "cosmo_dispersion_energy": -24.32, 
			 "cosmo_repulsion_energy": 1.89, 
			 "cosmo_total_nonelectrostatic_energy": 10.37, 
			 "SMD_solvation_energy": 4.68 
		},
		"coords": [
			{
				"x": 3.1319547638,
				"y": -2.5219198516,
				"z": -1.8357032335,
				"element": "C" 
			},
			{
				"x": 1.4113209859,
				"y": -2.1147376578,
				"z": -2.2830046113,
				"element": "S" 
			},
			{
				"x": 0.947288159,
				"y": -1.0682848957,
				"z": -0.928040476,
				"element": "C" 
			},
			{
				"x": 1.825510828,
				"y": -0.8138172421,
				"z": 0.0136177257,
				"element": "N" 
			},
			{
				"x": 1.5106678491,
				"y": 0.0144840943,
				"z": 1.0691228682,
				"element": "C" 
			},
			{
				"x": 2.2924966033,
				"y": 0.3156815193,
				"z": 1.960620256,
				"element": "O" 
			},
			{
				"x": 0.1769833962,
				"y": 0.5540424119,
				"z": 1.1126418315,
				"element": "N" 
			},
			{
				"x": -0.140723077,
				"y": 1.431009447,
				"z": 2.2441255474,
				"element": "C" 
			},
			{
				"x": 0.4078947087,
				"y": 2.8465026243,
				"z": 2.053088167,
				"element": "C" 
			},
			{
				"x": -0.0819048138,
				"y": 3.6139256606,
				"z": 3.1434918488,
				"element": "O" 
			},
			{
				"x": -0.7134336927,
				"y": 0.2617319437,
				"z": 0.1282841827,
				"element": "C" 
			},
			{
				"x": -0.3765593617,
				"y": -0.5487575012,
				"z": -0.9238206815,
				"element": "C" 
			},
			{
				"x": -1.5102822999,
				"y": -0.6800101484,
				"z": -1.9106682868,
				"element": "C" 
			},
			{
				"x": -2.7200032972,
				"y": -0.1106167583,
				"z": -1.1180891452,
				"element": "C" 
			},
			{
				"x": -2.1262569187,
				"y": 0.780026822,
				"z": 0.0065402479,
				"element": "C" 
			},
			{
				"x": 3.5056995977,
				"y": -3.1618757412,
				"z": -2.6374953588,
				"element": "H" 
			},
			{
				"x": 3.7280151712,
				"y": -1.6125898035,
				"z": -1.7623796817,
				"element": "H" 
			},
			{
				"x": 3.1604965023,
				"y": -3.0486931615,
				"z": -0.8820764449,
				"element": "H" 
			},
			{
				"x": 0.3046398898,
				"y": 0.9962669625,
				"z": 3.1398265512,
				"element": "H" 
			},
			{
				"x": -1.2236273876,
				"y": 1.4767877279,
				"z": 2.3706149872,
				"element": "H" 
			},
			{
				"x": 1.5028009702,
				"y": 2.7976759247,
				"z": 2.0346401358,
				"element": "H" 
			},
			{
				"x": 0.0631238079,
				"y": 3.2516644375,
				"z": 1.0870375888,
				"element": "H" 
			},
			{
				"x": 0.4723314954,
				"y": 4.397425379,
				"z": 3.2357096159,
				"element": "H" 
			},
			{
				"x": -1.6828123474,
				"y": -1.7124733105,
				"z": -2.2334874428,
				"element": "H" 
			},
			{
				"x": -1.3113153563,
				"y": -0.0966001936,
				"z": -2.8203328139,
				"element": "H" 
			},
			{
				"x": -3.4187488639,
				"y": 0.4389163386,
				"z": -1.7535153435,
				"element": "H" 
			},
			{
				"x": -3.2748355773,
				"y": -0.9364020656,
				"z": -0.6621503399,
				"element": "H" 
			},
			{
				"x": -2.1123017936,
				"y": 1.8431926899,
				"z": -0.269868679,
				"element": "H" 
			},
			{
				"x": -2.6943199413,
				"y": 0.7059443476,
				"z": 0.9391709849,
				"element": "H" 
			}
		],
		 "valence_orbital": [ 
			{
				"type": "occ",
				"energy": -0.27503,
				"method": "rhf"
			},
			{
				"type": "occ",
				"energy": -0.26388,
				"method": "rhf"
			},
			{
				"type": "occ",
				"energy": -0.25055,
				"method": "rhf"
			},
			{
				"type": "occ",
				"energy": -0.23862,
				"method": "rhf"
			},
			{
				"type": "occ",
				"energy": -0.21803,
				"method": "rhf"
			},
			{
				"type": "unocc",
				"energy": -0.04233,
				"method": "rhf"
			},
			{
				"type": "unocc",
				"energy": 0.01585,
				"method": "rhf"
			},
			{
				"type": "unocc",
				"energy": 0.03241,
				"method": "rhf"
			},
			{
				"type": "unocc",
				"energy": 0.06841,
				"method": "rhf"
			},
			{
				"type": "unocc",
				"energy": 0.07284,
				"method": "rhf"
			}
		],
		"cosmo_sigma_profile": { 
			"-0.025": 0.0,
			"-0.024": 0.0,
			"-0.023": 0.0,
			"-0.022": 0.0,
			"-0.021": 0.0,
			"-0.02": 0.0,
			"-0.019": 0.0,
			"-0.018": 0.0,
			"-0.017": 0.0159957162075,
			"-0.016": 0.931538060756,
			"-0.015": 1.10046583667,
			"-0.014": 0.832239442745,
			"-0.013": 1.06016370484,
			"-0.012": 1.06840065873,
			"-0.011": 0.196498682969,
			"-0.01": 1.03269039359,
			"-0.009": 0.771353021633,
			"-0.008": 2.01254486292,
			"-0.007": 5.22111954159,
			"-0.006": 10.1957332139,
			"-0.005": 16.2507275864,
			"-0.004": 25.6809262627,
			"-0.003": 34.8262253978,
			"-0.002": 32.2395135626,
			"-0.001": 23.8877983873,
			"0.0": 15.9990200521,
			"0.001": 11.0699497666,
			"0.002": 9.91348559155,
			"0.003": 7.04812434922,
			"0.004": 7.52310718983,
			"0.005": 7.26307510125,
			"0.006": 5.70431124389,
			"0.007": 5.71536990968,
			"0.008": 3.95439329901,
			"0.009": 3.14885758808,
			"0.01": 2.90311956809,
			"0.011": 2.96588487212,
			"0.012": 3.39405355813,
			"0.013": 5.47072240288,
			"0.014": 5.48169339255,
			"0.015": 2.69898482039,
			"0.016": 2.06661052522,
			"0.017": 0.0829547430401,
			"0.018": 0.0,
			"0.019": 0.0,
			"0.02": 0.0,
			"0.021": 0.0,
			"0.022": 0.0,
			"0.023": 0.0,
			"0.024": 0.0,
			"0.025": 0.0
		}
	}
}
