{
	 "smiles": "OC(=O)C1(CCC1)C#N", 
	 "Tm": 338.15, 
	 "num_atms": 16, 
	 "gaussian": { 
		 "optdone": 1, 
		 "sigma_profile": "yes", 
		 "theory": "DFT", 
		 "functional": "B3LYP", 
		 "basiset": "6-31G**", 
		 "properties": { 
			 "R2extent": 1720.6031, 
			 "electric_dipole_moment_norm": 2.61683950788, 
			 "electric_quadrupole_moment_norm": 17.9145124195, 
			 "total_energy": -438.021561225, 
			 "HOMO_LUMO_gap": 0.27052, 
			 "cosmo_polarized_energy": -12.76, 
			 "cosmo_cavitation_energy": 20.59, 
			 "cosmo_dispersion_energy": -14.52, 
			 "cosmo_repulsion_energy": 1.22, 
			 "cosmo_total_nonelectrostatic_energy": 7.29, 
			 "SMD_solvation_energy": 5.94 
		},
		"coords": [
			{
				"x": 2.4408484042,
				"y": -2.2434206923,
				"z": -1.5790626505,
				"element": "O" 
			},
			{
				"x": 1.4515653747,
				"y": -1.3335357644,
				"z": -1.5437852991,
				"element": "C" 
			},
			{
				"x": 0.6049963663,
				"y": -1.2309078838,
				"z": -2.4039569549,
				"element": "O" 
			},
			{
				"x": 1.4888201284,
				"y": -0.4329754214,
				"z": -0.314186313,
				"element": "C" 
			},
			{
				"x": 0.1082600349,
				"y": -0.2970460059,
				"z": 0.4375606567,
				"element": "C" 
			},
			{
				"x": 0.2978895066,
				"y": 1.2378853579,
				"z": 0.4835668455,
				"element": "C" 
			},
			{
				"x": 1.364490539,
				"y": 1.1079912214,
				"z": -0.6297975867,
				"element": "C" 
			},
			{
				"x": 2.5903180581,
				"y": -0.7225534157,
				"z": 0.6010423524,
				"element": "C" 
			},
			{
				"x": 3.4447797535,
				"y": -0.9056791318,
				"z": 1.3656788994,
				"element": "N" 
			},
			{
				"x": 2.3199044409,
				"y": -2.7562572018,
				"z": -2.3967076396,
				"element": "H" 
			},
			{
				"x": 0.0229188501,
				"y": -0.8409012219,
				"z": 1.3800574276,
				"element": "H" 
			},
			{
				"x": -0.6929216556,
				"y": -0.5951046867,
				"z": -0.2416077618,
				"element": "H" 
			},
			{
				"x": 0.7328364863,
				"y": 1.5682897318,
				"z": 1.4303969451,
				"element": "H" 
			},
			{
				"x": -0.5773708784,
				"y": 1.8524736909,
				"z": 0.2624711927,
				"element": "H" 
			},
			{
				"x": 0.9383380501,
				"y": 1.229343028,
				"z": -1.6276285414,
				"element": "H" 
			},
			{
				"x": 2.2845265409,
				"y": 1.6885983956,
				"z": -0.5415415723,
				"element": "H" 
			}
		],
		 "valence_orbital": [ 
			{
				"type": "occ",
				"energy": -0.3463,
				"method": "rhf"
			},
			{
				"type": "occ",
				"energy": -0.33795,
				"method": "rhf"
			},
			{
				"type": "occ",
				"energy": -0.3322,
				"method": "rhf"
			},
			{
				"type": "occ",
				"energy": -0.31342,
				"method": "rhf"
			},
			{
				"type": "occ",
				"energy": -0.29192,
				"method": "rhf"
			},
			{
				"type": "unocc",
				"energy": -0.0214,
				"method": "rhf"
			},
			{
				"type": "unocc",
				"energy": 0.02515,
				"method": "rhf"
			},
			{
				"type": "unocc",
				"energy": 0.03406,
				"method": "rhf"
			},
			{
				"type": "unocc",
				"energy": 0.05973,
				"method": "rhf"
			},
			{
				"type": "unocc",
				"energy": 0.07937,
				"method": "rhf"
			}
		],
		"cosmo_sigma_profile": { 
			"-0.025": 0.0,
			"-0.024": 0.0,
			"-0.023": 0.0,
			"-0.022": 0.0,
			"-0.021": 0.0,
			"-0.02": 0.000943960241998,
			"-0.019": 0.844423907516,
			"-0.018": 1.11787371557,
			"-0.017": 0.714274853118,
			"-0.016": 0.777453152412,
			"-0.015": 0.986926124217,
			"-0.014": 0.54296400585,
			"-0.013": 0.359766852429,
			"-0.012": 1.38430122592,
			"-0.011": 0.82551843144,
			"-0.01": 0.399682122286,
			"-0.009": 0.709973196303,
			"-0.008": 0.670478179713,
			"-0.007": 1.02836349378,
			"-0.006": 7.07097274601,
			"-0.005": 13.4292850362,
			"-0.004": 20.5478185379,
			"-0.003": 19.3579706889,
			"-0.002": 14.1880548419,
			"-0.001": 12.0497415815,
			"0.0": 6.90275818186,
			"0.001": 3.21018322923,
			"0.002": 4.40059166509,
			"0.003": 3.32081135595,
			"0.004": 3.7039669787,
			"0.005": 4.16141929696,
			"0.006": 4.58276624402,
			"0.007": 5.73295600202,
			"0.008": 7.6130474687,
			"0.009": 5.46266268738,
			"0.01": 5.84348171269,
			"0.011": 7.22755141819,
			"0.012": 2.64078154082,
			"0.013": 1.47316149555,
			"0.014": 0.0626919976036,
			"0.015": 0.0,
			"0.016": 0.0,
			"0.017": 0.0,
			"0.018": 0.0,
			"0.019": 0.0,
			"0.02": 0.0,
			"0.021": 0.0,
			"0.022": 0.0,
			"0.023": 0.0,
			"0.024": 0.0,
			"0.025": 0.0
		}
	}
}
