{
	 "smiles": "CCCCCCCCCCCCCCCC(=O)CC", 
	 "Tm": 324.15, 
	 "num_atms": 55, 
	 "gaussian": { 
		 "optdone": 1, 
		 "sigma_profile": "yes", 
		 "theory": "DFT", 
		 "functional": "B3LYP", 
		 "basiset": "6-31G**", 
		 "properties": { 
			 "R2extent": 12910.2446, 
			 "electric_dipole_moment_norm": 2.48477317476, 
			 "electric_quadrupole_moment_norm": 13.1257139307, 
			 "total_energy": -782.886161119, 
			 "HOMO_LUMO_gap": 0.23372, 
			 "cosmo_polarized_energy": -7.25, 
			 "cosmo_cavitation_energy": 53.67, 
			 "cosmo_dispersion_energy": -36.22, 
			 "cosmo_repulsion_energy": 2.94, 
			 "cosmo_total_nonelectrostatic_energy": 20.39, 
			 "SMD_solvation_energy": 7.7 
		},
		"coords": [
			{
				"x": -1.9481037865,
				"y": -6.4776683321,
				"z": 1.3443055151,
				"element": "C" 
			},
			{
				"x": -2.2846093595,
				"y": -5.1764267846,
				"z": 2.0795297411,
				"element": "C" 
			},
			{
				"x": -1.0432209454,
				"y": -4.3780912302,
				"z": 2.4989180709,
				"element": "C" 
			},
			{
				"x": -1.3814811201,
				"y": -3.0751619154,
				"z": 3.2370862126,
				"element": "C" 
			},
			{
				"x": -0.164778323,
				"y": -2.2852977077,
				"z": 3.7482609079,
				"element": "C" 
			},
			{
				"x": 0.7414980549,
				"y": -1.719039988,
				"z": 2.6440462532,
				"element": "C" 
			},
			{
				"x": 1.9142968472,
				"y": -0.8721465274,
				"z": 3.1768572334,
				"element": "C" 
			},
			{
				"x": 1.5465195518,
				"y": 0.5176624954,
				"z": 3.7481150459,
				"element": "C" 
			},
			{
				"x": 1.6528931525,
				"y": 1.6904782988,
				"z": 2.7559019693,
				"element": "C" 
			},
			{
				"x": 0.6701903868,
				"y": 1.6538754553,
				"z": 1.5760320494,
				"element": "C" 
			},
			{
				"x": 0.6803728485,
				"y": 2.9252202583,
				"z": 0.7077447741,
				"element": "C" 
			},
			{
				"x": 2.0053341617,
				"y": 3.2344478159,
				"z": -0.0149049726,
				"element": "C" 
			},
			{
				"x": 2.4962976452,
				"y": 2.1555562238,
				"z": -0.9988666567,
				"element": "C" 
			},
			{
				"x": 1.5463803269,
				"y": 1.8203197646,
				"z": -2.1609091258,
				"element": "C" 
			},
			{
				"x": 1.2883987295,
				"y": 2.9899029769,
				"z": -3.1139979895,
				"element": "C" 
			},
			{
				"x": 0.4000226662,
				"y": 2.6328595511,
				"z": -4.3016723382,
				"element": "C" 
			},
			{
				"x": -0.124158381,
				"y": 1.539124615,
				"z": -4.4069824876,
				"element": "O" 
			},
			{
				"x": 0.199847876,
				"y": 3.7204995431,
				"z": -5.3534652752,
				"element": "C" 
			},
			{
				"x": -0.772882691,
				"y": 3.3273612457,
				"z": -6.4632195291,
				"element": "C" 
			},
			{
				"x": -1.3423641336,
				"y": -7.1419928772,
				"z": 1.9714569754,
				"element": "H" 
			},
			{
				"x": -2.8536118237,
				"y": -7.0239178866,
				"z": 1.0600578873,
				"element": "H" 
			},
			{
				"x": -1.3785538008,
				"y": -6.2797869033,
				"z": 0.4289677697,
				"element": "H" 
			},
			{
				"x": -2.8860678752,
				"y": -5.4037522748,
				"z": 2.9704642265,
				"element": "H" 
			},
			{
				"x": -2.9187732396,
				"y": -4.5479568501,
				"z": 1.4393261298,
				"element": "H" 
			},
			{
				"x": -0.4107681565,
				"y": -5.0053763492,
				"z": 3.1443566418,
				"element": "H" 
			},
			{
				"x": -0.4426962427,
				"y": -4.1599773454,
				"z": 1.6058682816,
				"element": "H" 
			},
			{
				"x": -1.9802419619,
				"y": -2.4304164907,
				"z": 2.5774848429,
				"element": "H" 
			},
			{
				"x": -2.028937965,
				"y": -3.314970272,
				"z": 4.0917750175,
				"element": "H" 
			},
			{
				"x": 0.4345816246,
				"y": -2.9295960248,
				"z": 4.4081196238,
				"element": "H" 
			},
			{
				"x": -0.5263649199,
				"y": -1.4631026483,
				"z": 4.3792997833,
				"element": "H" 
			},
			{
				"x": 0.1331446329,
				"y": -1.1273501814,
				"z": 1.9480885926,
				"element": "H" 
			},
			{
				"x": 1.1540756114,
				"y": -2.5481767416,
				"z": 2.0559105205,
				"element": "H" 
			},
			{
				"x": 2.4230197401,
				"y": -1.4569952687,
				"z": 3.954855399,
				"element": "H" 
			},
			{
				"x": 2.6562236467,
				"y": -0.7395633037,
				"z": 2.3775776359,
				"element": "H" 
			},
			{
				"x": 2.2119325149,
				"y": 0.7397399884,
				"z": 4.5916341573,
				"element": "H" 
			},
			{
				"x": 0.5333251728,
				"y": 0.4932153141,
				"z": 4.1716362207,
				"element": "H" 
			},
			{
				"x": 1.4961591019,
				"y": 2.6272910941,
				"z": 3.3096708291,
				"element": "H" 
			},
			{
				"x": 2.683720615,
				"y": 1.7337633292,
				"z": 2.3784714655,
				"element": "H" 
			},
			{
				"x": -0.3469686924,
				"y": 1.5129898127,
				"z": 1.9666826019,
				"element": "H" 
			},
			{
				"x": 0.8728709007,
				"y": 0.7782559103,
				"z": 0.9473902756,
				"element": "H" 
			},
			{
				"x": -0.1282376759,
				"y": 2.8507162314,
				"z": -0.0308722028,
				"element": "H" 
			},
			{
				"x": 0.425743221,
				"y": 3.7859926549,
				"z": 1.3413866282,
				"element": "H" 
			},
			{
				"x": 2.7941643447,
				"y": 3.406183842,
				"z": 0.7280312022,
				"element": "H" 
			},
			{
				"x": 1.8938527598,
				"y": 4.1898053375,
				"z": -0.5446063457,
				"element": "H" 
			},
			{
				"x": 3.463037354,
				"y": 2.4780669939,
				"z": -1.410157958,
				"element": "H" 
			},
			{
				"x": 2.705119331,
				"y": 1.2304323612,
				"z": -0.4469860322,
				"element": "H" 
			},
			{
				"x": 1.9660720879,
				"y": 0.9884466949,
				"z": -2.7376436065,
				"element": "H" 
			},
			{
				"x": 0.5867275128,
				"y": 1.4525317106,
				"z": -1.7821204472,
				"element": "H" 
			},
			{
				"x": 0.8113986712,
				"y": 3.8324927777,
				"z": -2.5930117554,
				"element": "H" 
			},
			{
				"x": 2.2344378269,
				"y": 3.3970130484,
				"z": -3.5009399894,
				"element": "H" 
			},
			{
				"x": -0.1287351634,
				"y": 4.6357244327,
				"z": -4.84117047,
				"element": "H" 
			},
			{
				"x": 1.1888086022,
				"y": 3.9669821562,
				"z": -5.7664840337,
				"element": "H" 
			},
			{
				"x": -0.4320865901,
				"y": 2.425348312,
				"z": -6.9777244627,
				"element": "H" 
			},
			{
				"x": -0.8685851602,
				"y": 4.1321621705,
				"z": -7.198084124,
				"element": "H" 
			},
			{
				"x": -1.7643395121,
				"y": 3.1118014869,
				"z": -6.0557906786,
				"element": "H" 
			}
		],
		 "valence_orbital": [ 
			{
				"type": "occ",
				"energy": -0.30342,
				"method": "rhf"
			},
			{
				"type": "occ",
				"energy": -0.29953,
				"method": "rhf"
			},
			{
				"type": "occ",
				"energy": -0.29564,
				"method": "rhf"
			},
			{
				"type": "occ",
				"energy": -0.29522,
				"method": "rhf"
			},
			{
				"type": "occ",
				"energy": -0.24112,
				"method": "rhf"
			},
			{
				"type": "unocc",
				"energy": -0.0074,
				"method": "rhf"
			},
			{
				"type": "unocc",
				"energy": 0.07087,
				"method": "rhf"
			},
			{
				"type": "unocc",
				"energy": 0.08431,
				"method": "rhf"
			},
			{
				"type": "unocc",
				"energy": 0.09368,
				"method": "rhf"
			},
			{
				"type": "unocc",
				"energy": 0.10179,
				"method": "rhf"
			}
		],
		"cosmo_sigma_profile": { 
			"-0.025": 0.0,
			"-0.024": 0.0,
			"-0.023": 0.0,
			"-0.022": 0.0,
			"-0.021": 0.0,
			"-0.02": 0.0,
			"-0.019": 0.0,
			"-0.018": 0.0,
			"-0.017": 0.0,
			"-0.016": 0.0,
			"-0.015": 0.0,
			"-0.014": 0.0,
			"-0.013": 0.0,
			"-0.012": 0.0,
			"-0.011": 0.0,
			"-0.01": 0.0,
			"-0.009": 0.0,
			"-0.008": 0.0,
			"-0.007": 0.000809316723956,
			"-0.006": 2.66913095304,
			"-0.005": 9.82943114188,
			"-0.004": 10.2001476673,
			"-0.003": 17.0317776241,
			"-0.002": 54.7024302384,
			"-0.001": 91.5308372709,
			"0.0": 89.6339908267,
			"0.001": 75.7579290882,
			"0.002": 34.3237299565,
			"0.003": 2.37264761226,
			"0.004": 1.78071399575,
			"0.005": 2.09702016601,
			"0.006": 1.80507110229,
			"0.007": 1.63168968396,
			"0.008": 1.93136871906,
			"0.009": 1.63219854319,
			"0.01": 2.24968984701,
			"0.011": 2.58897014465,
			"0.012": 3.41233398898,
			"0.013": 3.31036606302,
			"0.014": 0.191425757038,
			"0.015": 0.0,
			"0.016": 0.0,
			"0.017": 0.0,
			"0.018": 0.0,
			"0.019": 0.0,
			"0.02": 0.0,
			"0.021": 0.0,
			"0.022": 0.0,
			"0.023": 0.0,
			"0.024": 0.0,
			"0.025": 0.0
		}
	}
}
