{
	 "smiles": "ClS(=O)(=O)CC1=CC2=C(C=CC=C2)C=C1", 
	 "Tm": 371.15, 
	 "num_atms": 24, 
	 "gaussian": { 
		 "optdone": 1, 
		 "sigma_profile": "yes", 
		 "theory": "DFT", 
		 "functional": "B3LYP", 
		 "basiset": "6-31G**", 
		 "properties": { 
			 "R2extent": 8051.9092, 
			 "electric_dipole_moment_norm": 5.1966890642, 
			 "electric_quadrupole_moment_norm": 30.0001782858, 
			 "total_energy": -1433.37378278, 
			 "HOMO_LUMO_gap": 0.14433, 
			 "cosmo_polarized_energy": -12.37, 
			 "cosmo_cavitation_energy": 31.74, 
			 "cosmo_dispersion_energy": -23.3, 
			 "cosmo_repulsion_energy": 1.76, 
			 "cosmo_total_nonelectrostatic_energy": 10.2, 
			 "SMD_solvation_energy": 3.56 
		},
		"coords": [
			{
				"x": 1.8768761365,
				"y": -3.9020040314,
				"z": 5.3511861512,
				"element": "Cl" 
			},
			{
				"x": 1.5967812213,
				"y": -1.9852208309,
				"z": 4.4218121362,
				"element": "S" 
			},
			{
				"x": 0.5039916982,
				"y": -1.3275123022,
				"z": 5.1283900313,
				"element": "O" 
			},
			{
				"x": 2.9149524007,
				"y": -1.3746857135,
				"z": 4.3035305847,
				"element": "O" 
			},
			{
				"x": 1.0167650073,
				"y": -2.5600958543,
				"z": 2.7676109285,
				"element": "C" 
			},
			{
				"x": 0.7287121511,
				"y": -1.3930453007,
				"z": 1.8721240758,
				"element": "C" 
			},
			{
				"x": 1.6926429639,
				"y": -0.930842745,
				"z": 0.9961861533,
				"element": "C" 
			},
			{
				"x": 1.4394860177,
				"y": 0.1720851198,
				"z": 0.1414172699,
				"element": "C" 
			},
			{
				"x": 0.1615595203,
				"y": 0.818348183,
				"z": 0.2044507178,
				"element": "C" 
			},
			{
				"x": -0.0917112459,
				"y": 1.9218613433,
				"z": -0.652575818,
				"element": "C" 
			},
			{
				"x": 0.8726325238,
				"y": 2.3671846829,
				"z": -1.5290129811,
				"element": "C" 
			},
			{
				"x": 2.1364835064,
				"y": 1.7293125425,
				"z": -1.5901239999,
				"element": "C" 
			},
			{
				"x": 2.4131320161,
				"y": 0.6561259008,
				"z": -0.7739922036,
				"element": "C" 
			},
			{
				"x": -0.8069178345,
				"y": 0.3310870043,
				"z": 1.1242393226,
				"element": "C" 
			},
			{
				"x": -0.5341714218,
				"y": -0.7410047115,
				"z": 1.9387446883,
				"element": "C" 
			},
			{
				"x": 0.1366852912,
				"y": -3.16812701,
				"z": 2.9879523443,
				"element": "H" 
			},
			{
				"x": 1.8242134115,
				"y": -3.1968053123,
				"z": 2.4018156312,
				"element": "H" 
			},
			{
				"x": 2.6653017993,
				"y": -1.414470074,
				"z": 0.9521729473,
				"element": "H" 
			},
			{
				"x": -1.0607791793,
				"y": 2.4113284729,
				"z": -0.6039267295,
				"element": "H" 
			},
			{
				"x": 0.6677260863,
				"y": 3.2131570566,
				"z": -2.1784631353,
				"element": "H" 
			},
			{
				"x": 2.8876854417,
				"y": 2.0926402446,
				"z": -2.2850112226,
				"element": "H" 
			},
			{
				"x": 3.3819200638,
				"y": 0.1655365861,
				"z": -0.8167386072,
				"element": "H" 
			},
			{
				"x": -1.7745371302,
				"y": 0.822682887,
				"z": 1.1759252531,
				"element": "H" 
			},
			{
				"x": -1.2799304454,
				"y": -1.0966361379,
				"z": 2.6432864619,
				"element": "H" 
			}
		],
		 "valence_orbital": [ 
			{
				"type": "occ",
				"energy": -0.32569,
				"method": "rhf"
			},
			{
				"type": "occ",
				"energy": -0.31201,
				"method": "rhf"
			},
			{
				"type": "occ",
				"energy": -0.30007,
				"method": "rhf"
			},
			{
				"type": "occ",
				"energy": -0.25915,
				"method": "rhf"
			},
			{
				"type": "occ",
				"energy": -0.23261,
				"method": "rhf"
			},
			{
				"type": "unocc",
				"energy": -0.08828,
				"method": "rhf"
			},
			{
				"type": "unocc",
				"energy": -0.05327,
				"method": "rhf"
			},
			{
				"type": "unocc",
				"energy": -0.02645,
				"method": "rhf"
			},
			{
				"type": "unocc",
				"energy": 0.01445,
				"method": "rhf"
			},
			{
				"type": "unocc",
				"energy": 0.03664,
				"method": "rhf"
			}
		],
		"cosmo_sigma_profile": { 
			"-0.025": 0.0,
			"-0.024": 0.0,
			"-0.023": 0.0,
			"-0.022": 0.0,
			"-0.021": 0.0,
			"-0.02": 0.0,
			"-0.019": 0.0,
			"-0.018": 0.0,
			"-0.017": 0.0,
			"-0.016": 0.0,
			"-0.015": 0.0,
			"-0.014": 0.0,
			"-0.013": 0.0,
			"-0.012": 0.0,
			"-0.011": 0.608837619287,
			"-0.01": 4.44116137254,
			"-0.009": 4.98981188398,
			"-0.008": 4.99152039419,
			"-0.007": 9.09130679026,
			"-0.006": 18.2337569213,
			"-0.005": 15.5732374179,
			"-0.004": 15.2722919067,
			"-0.003": 11.9439561589,
			"-0.002": 11.0803525092,
			"-0.001": 12.4713511205,
			"0.0": 14.5253099427,
			"0.001": 15.4935363726,
			"0.002": 22.6399017781,
			"0.003": 34.820790974,
			"0.004": 26.9974527812,
			"0.005": 7.81927577404,
			"0.006": 3.26132733551,
			"0.007": 4.36870567057,
			"0.008": 10.6292491726,
			"0.009": 7.3677543032,
			"0.01": 0.289186559629,
			"0.011": 0.0,
			"0.012": 0.0,
			"0.013": 0.0,
			"0.014": 0.0,
			"0.015": 0.0,
			"0.016": 0.0,
			"0.017": 0.0,
			"0.018": 0.0,
			"0.019": 0.0,
			"0.02": 0.0,
			"0.021": 0.0,
			"0.022": 0.0,
			"0.023": 0.0,
			"0.024": 0.0,
			"0.025": 0.0
		}
	}
}
