{
	 "smiles": "OC(=O)CSCC1=CC=C(Cl)S1", 
	 "Tm": 340.15, 
	 "num_atms": 19, 
	 "gaussian": { 
		 "optdone": 1, 
		 "sigma_profile": "yes", 
		 "theory": "DFT", 
		 "functional": "B3LYP", 
		 "basiset": "6-31G**", 
		 "properties": { 
			 "R2extent": 5467.187, 
			 "electric_dipole_moment_norm": 3.57288120429, 
			 "electric_quadrupole_moment_norm": 15.5775127957, 
			 "total_energy": -1677.96553252, 
			 "HOMO_LUMO_gap": 0.19427, 
			 "cosmo_polarized_energy": -15.12, 
			 "cosmo_cavitation_energy": 28.63, 
			 "cosmo_dispersion_energy": -20.67, 
			 "cosmo_repulsion_energy": 1.59, 
			 "cosmo_total_nonelectrostatic_energy": 9.56, 
			 "SMD_solvation_energy": 4.71 
		},
		"coords": [
			{
				"x": -2.4965535406,
				"y": 2.8590529421,
				"z": -0.1050136342,
				"element": "O" 
			},
			{
				"x": -3.2816537524,
				"y": 1.7752619584,
				"z": 0.1195028267,
				"element": "C" 
			},
			{
				"x": -3.9221962618,
				"y": 1.6232240355,
				"z": 1.1307798442,
				"element": "O" 
			},
			{
				"x": -3.2732453858,
				"y": 0.8546077465,
				"z": -1.0944091825,
				"element": "C" 
			},
			{
				"x": -3.3733970143,
				"y": -0.9291474499,
				"z": -0.7315250138,
				"element": "S" 
			},
			{
				"x": -1.6236393301,
				"y": -1.2785211913,
				"z": -0.2386745833,
				"element": "C" 
			},
			{
				"x": -1.1277365672,
				"y": -0.5887663248,
				"z": 0.9908999607,
				"element": "C" 
			},
			{
				"x": -0.2022240646,
				"y": 0.4218714461,
				"z": 1.060044872,
				"element": "C" 
			},
			{
				"x": 0.0717214882,
				"y": 0.8681701144,
				"z": 2.3879440627,
				"element": "C" 
			},
			{
				"x": -0.6614984479,
				"y": 0.1789708061,
				"z": 3.3121420149,
				"element": "C" 
			},
			{
				"x": -0.6344491199,
				"y": 0.3967668953,
				"z": 5.0297224486,
				"element": "Cl" 
			},
			{
				"x": -1.7010172802,
				"y": -1.0160241218,
				"z": 2.5880254388,
				"element": "S" 
			},
			{
				"x": -2.577145504,
				"y": 3.4161211628,
				"z": 0.6879860623,
				"element": "H" 
			},
			{
				"x": -4.1758673461,
				"y": 1.0775347855,
				"z": -1.6738515212,
				"element": "H" 
			},
			{
				"x": -2.4136072182,
				"y": 1.075527926,
				"z": -1.7315379314,
				"element": "H" 
			},
			{
				"x": -0.9673036337,
				"y": -1.0244645504,
				"z": -1.0769648595,
				"element": "H" 
			},
			{
				"x": -1.6058278917,
				"y": -2.3675882834,
				"z": -0.129809462,
				"element": "H" 
			},
			{
				"x": 0.2797634035,
				"y": 0.8357303688,
				"z": 0.1807006999,
				"element": "H" 
			},
			{
				"x": 0.7745774669,
				"y": 1.6507717341,
				"z": 2.6448379573,
				"element": "H" 
			}
		],
		 "valence_orbital": [ 
			{
				"type": "occ",
				"energy": -0.32064,
				"method": "rhf"
			},
			{
				"type": "occ",
				"energy": -0.28165,
				"method": "rhf"
			},
			{
				"type": "occ",
				"energy": -0.2626,
				"method": "rhf"
			},
			{
				"type": "occ",
				"energy": -0.24028,
				"method": "rhf"
			},
			{
				"type": "occ",
				"energy": -0.22777,
				"method": "rhf"
			},
			{
				"type": "unocc",
				"energy": -0.0335,
				"method": "rhf"
			},
			{
				"type": "unocc",
				"energy": -0.00363,
				"method": "rhf"
			},
			{
				"type": "unocc",
				"energy": 0.01038,
				"method": "rhf"
			},
			{
				"type": "unocc",
				"energy": 0.02625,
				"method": "rhf"
			},
			{
				"type": "unocc",
				"energy": 0.03647,
				"method": "rhf"
			}
		],
		"cosmo_sigma_profile": { 
			"-0.025": 0.0,
			"-0.024": 0.0,
			"-0.023": 0.0,
			"-0.022": 0.0,
			"-0.021": 0.0,
			"-0.02": 0.0,
			"-0.019": 0.0101456186947,
			"-0.018": 0.825915705335,
			"-0.017": 0.784371421888,
			"-0.016": 0.7988296009,
			"-0.015": 1.19571481828,
			"-0.014": 0.56392528222,
			"-0.013": 0.183810600932,
			"-0.012": 0.657747961533,
			"-0.011": 0.588736271869,
			"-0.01": 1.11422116298,
			"-0.009": 3.03430717956,
			"-0.008": 8.60256909106,
			"-0.007": 15.4334579713,
			"-0.006": 11.0914775883,
			"-0.005": 11.6693398556,
			"-0.004": 10.8700168836,
			"-0.003": 10.2562744687,
			"-0.002": 10.4838336327,
			"-0.001": 13.0429552205,
			"0.0": 13.4241306989,
			"0.001": 18.437035917,
			"0.002": 21.353903174,
			"0.003": 23.0632948397,
			"0.004": 16.0688185957,
			"0.005": 6.51696468906,
			"0.006": 5.59252418441,
			"0.007": 4.59622862655,
			"0.008": 5.56071688464,
			"0.009": 5.01581293284,
			"0.01": 3.39436227694,
			"0.011": 4.56592804729,
			"0.012": 3.62818434881,
			"0.013": 1.54334263063,
			"0.014": 0.167335116712,
			"0.015": 0.0,
			"0.016": 0.0,
			"0.017": 0.0,
			"0.018": 0.0,
			"0.019": 0.0,
			"0.02": 0.0,
			"0.021": 0.0,
			"0.022": 0.0,
			"0.023": 0.0,
			"0.024": 0.0,
			"0.025": 0.0
		}
	}
}
