{
	 "smiles": "COC=C(C(=O)OC)C1=CC=CC=C1COC1=CC=CC(=N1)C(F)(F)F", 
	 "Tm": 348.15, 
	 "num_atms": 42, 
	 "gaussian": { 
		 "optdone": 1, 
		 "sigma_profile": "yes", 
		 "theory": "DFT", 
		 "functional": "B3LYP", 
		 "basiset": "6-31G**", 
		 "properties": { 
			 "R2extent": 10495.3489, 
			 "electric_dipole_moment_norm": 2.31135998711, 
			 "electric_quadrupole_moment_norm": 16.4814729912, 
			 "total_energy": -1350.70824912, 
			 "HOMO_LUMO_gap": 0.17922, 
			 "cosmo_polarized_energy": -15.82, 
			 "cosmo_cavitation_energy": 48.46, 
			 "cosmo_dispersion_energy": -30.6, 
			 "cosmo_repulsion_energy": 2.3, 
			 "cosmo_total_nonelectrostatic_energy": 20.16, 
			 "SMD_solvation_energy": 11.42 
		},
		"coords": [
			{
				"x": 3.3501958696,
				"y": -1.0528754053,
				"z": -1.1472700159,
				"element": "C" 
			},
			{
				"x": 2.3523733242,
				"y": -1.2252468,
				"z": -0.1329492325,
				"element": "O" 
			},
			{
				"x": 1.5867345699,
				"y": -0.15040647,
				"z": 0.1234091757,
				"element": "C" 
			},
			{
				"x": 0.5147837775,
				"y": -0.1999966224,
				"z": 0.9466553562,
				"element": "C" 
			},
			{
				"x": -0.2258034953,
				"y": 1.0514596357,
				"z": 1.2325851054,
				"element": "C" 
			},
			{
				"x": -1.1367830588,
				"y": 1.1534989869,
				"z": 2.0315926683,
				"element": "O" 
			},
			{
				"x": 0.2190592097,
				"y": 2.1134242229,
				"z": 0.5008120749,
				"element": "O" 
			},
			{
				"x": -0.4582764537,
				"y": 3.349815102,
				"z": 0.7573663123,
				"element": "C" 
			},
			{
				"x": 0.0611769661,
				"y": -1.4413932375,
				"z": 1.6400220962,
				"element": "C" 
			},
			{
				"x": 0.0791932399,
				"y": -1.4823033099,
				"z": 3.0407087153,
				"element": "C" 
			},
			{
				"x": -0.323620063,
				"y": -2.6206989306,
				"z": 3.7372213316,
				"element": "C" 
			},
			{
				"x": -0.764831104,
				"y": -3.7423227851,
				"z": 3.0369573169,
				"element": "C" 
			},
			{
				"x": -0.8089616936,
				"y": -3.706002635,
				"z": 1.6438353376,
				"element": "C" 
			},
			{
				"x": -0.4044801959,
				"y": -2.5712273654,
				"z": 0.9324494501,
				"element": "C" 
			},
			{
				"x": -0.4797138214,
				"y": -2.5882006774,
				"z": -0.5721580994,
				"element": "C" 
			},
			{
				"x": -1.4846855985,
				"y": -1.6337398506,
				"z": -1.0012834411,
				"element": "O" 
			},
			{
				"x": -1.3626174406,
				"y": -1.0590782488,
				"z": -2.2087983763,
				"element": "C" 
			},
			{
				"x": -2.3952162392,
				"y": -0.1685084976,
				"z": -2.5823366516,
				"element": "C" 
			},
			{
				"x": -2.3102519857,
				"y": 0.4441219205,
				"z": -3.817131032,
				"element": "C" 
			},
			{
				"x": -1.214782874,
				"y": 0.1721135967,
				"z": -4.6542417498,
				"element": "C" 
			},
			{
				"x": -0.2616982029,
				"y": -0.7142757543,
				"z": -4.1803756912,
				"element": "C" 
			},
			{
				"x": -0.3205661925,
				"y": -1.3272260442,
				"z": -2.9871277754,
				"element": "N" 
			},
			{
				"x": 0.964599247,
				"y": -1.0561078823,
				"z": -4.998342345,
				"element": "C" 
			},
			{
				"x": 0.9155185909,
				"y": -0.5032278833,
				"z": -6.2290486291,
				"element": "F" 
			},
			{
				"x": 2.0956888105,
				"y": -0.5952769332,
				"z": -4.4044716579,
				"element": "F" 
			},
			{
				"x": 1.1125325451,
				"y": -2.3836115161,
				"z": -5.1501719101,
				"element": "F" 
			},
			{
				"x": 3.9810587115,
				"y": -0.1832340747,
				"z": -0.9289126245,
				"element": "H" 
			},
			{
				"x": 2.8851440257,
				"y": -0.9413805688,
				"z": -2.1307058756,
				"element": "H" 
			},
			{
				"x": 3.9614926543,
				"y": -1.9556086047,
				"z": -1.1296112429,
				"element": "H" 
			},
			{
				"x": 1.8771660649,
				"y": 0.7796261513,
				"z": -0.3583090993,
				"element": "H" 
			},
			{
				"x": 0.0110456369,
				"y": 4.0844760754,
				"z": 0.1020689652,
				"element": "H" 
			},
			{
				"x": -0.3469577233,
				"y": 3.6455418642,
				"z": 1.803999581,
				"element": "H" 
			},
			{
				"x": -1.5245029816,
				"y": 3.2632736206,
				"z": 0.5322962389,
				"element": "H" 
			},
			{
				"x": 0.4133858259,
				"y": -0.6060026667,
				"z": 3.586011464,
				"element": "H" 
			},
			{
				"x": -0.293376287,
				"y": -2.6281857139,
				"z": 4.8230041135,
				"element": "H" 
			},
			{
				"x": -1.0831112964,
				"y": -4.6342422399,
				"z": 3.5688408108,
				"element": "H" 
			},
			{
				"x": -1.1705581065,
				"y": -4.5710271349,
				"z": 1.0934233692,
				"element": "H" 
			},
			{
				"x": 0.4743665917,
				"y": -2.3391449721,
				"z": -1.033546984,
				"element": "H" 
			},
			{
				"x": -0.7825059365,
				"y": -3.5776898295,
				"z": -0.9316609743,
				"element": "H" 
			},
			{
				"x": -3.2166562999,
				"y": 0.0067685795,
				"z": -1.8974518946,
				"element": "H" 
			},
			{
				"x": -3.0862224285,
				"y": 1.1318594442,
				"z": -4.1396118646,
				"element": "H" 
			},
			{
				"x": -1.1145361825,
				"y": 0.6288634543,
				"z": -5.6301423161,
				"element": "H" 
			}
		],
		 "valence_orbital": [ 
			{
				"type": "occ",
				"energy": -0.26441,
				"method": "rhf"
			},
			{
				"type": "occ",
				"energy": -0.25572,
				"method": "rhf"
			},
			{
				"type": "occ",
				"energy": -0.24435,
				"method": "rhf"
			},
			{
				"type": "occ",
				"energy": -0.23765,
				"method": "rhf"
			},
			{
				"type": "occ",
				"energy": -0.2225,
				"method": "rhf"
			},
			{
				"type": "unocc",
				"energy": -0.04328,
				"method": "rhf"
			},
			{
				"type": "unocc",
				"energy": -0.02808,
				"method": "rhf"
			},
			{
				"type": "unocc",
				"energy": -0.01261,
				"method": "rhf"
			},
			{
				"type": "unocc",
				"energy": -0.00249,
				"method": "rhf"
			},
			{
				"type": "unocc",
				"energy": 0.00628,
				"method": "rhf"
			}
		],
		"cosmo_sigma_profile": { 
			"-0.025": 0.0,
			"-0.024": 0.0,
			"-0.023": 0.0,
			"-0.022": 0.0,
			"-0.021": 0.0,
			"-0.02": 0.0,
			"-0.019": 0.0,
			"-0.018": 0.0,
			"-0.017": 0.0,
			"-0.016": 0.0,
			"-0.015": 0.0,
			"-0.014": 0.0,
			"-0.013": 0.0,
			"-0.012": 0.0,
			"-0.011": 0.0,
			"-0.01": 0.0,
			"-0.009": 0.217639164492,
			"-0.008": 4.37718836278,
			"-0.007": 11.6447154772,
			"-0.006": 23.3779027111,
			"-0.005": 24.8692279274,
			"-0.004": 30.9078816642,
			"-0.003": 30.8648596244,
			"-0.002": 26.2990878069,
			"-0.001": 26.23169514,
			"0.0": 32.8367457477,
			"0.001": 35.6609183422,
			"0.002": 38.3356369687,
			"0.003": 32.8843661218,
			"0.004": 14.1776718504,
			"0.005": 15.8081901726,
			"0.006": 11.21687418,
			"0.007": 6.4500180798,
			"0.008": 5.7310261644,
			"0.009": 4.33819236547,
			"0.01": 1.81336375964,
			"0.011": 2.35495198517,
			"0.012": 4.17433156079,
			"0.013": 3.09582862199,
			"0.014": 0.0845079750292,
			"0.015": 0.0,
			"0.016": 0.0,
			"0.017": 0.0,
			"0.018": 0.0,
			"0.019": 0.0,
			"0.02": 0.0,
			"0.021": 0.0,
			"0.022": 0.0,
			"0.023": 0.0,
			"0.024": 0.0,
			"0.025": 0.0
		}
	}
}
