{
	 "smiles": "CC(Cl)C(=O)NC12CC3CC(CC(C3)C1)C2", 
	 "Tm": 377.15, 
	 "num_atms": 36, 
	 "gaussian": { 
		 "optdone": 1, 
		 "sigma_profile": "yes", 
		 "theory": "DFT", 
		 "functional": "B3LYP", 
		 "basiset": "6-31G**", 
		 "properties": { 
			 "R2extent": 4466.0997, 
			 "electric_dipole_moment_norm": 4.96230169579, 
			 "electric_quadrupole_moment_norm": 14.1240983673, 
			 "total_energy": -1097.6516394, 
			 "HOMO_LUMO_gap": 0.23291, 
			 "cosmo_polarized_energy": -11.62, 
			 "cosmo_cavitation_energy": 34.64, 
			 "cosmo_dispersion_energy": -25.23, 
			 "cosmo_repulsion_energy": 1.94, 
			 "cosmo_total_nonelectrostatic_energy": 11.35, 
			 "SMD_solvation_energy": 4.48 
		},
		"coords": [
			{
				"x": -3.440566506,
				"y": 1.0586678359,
				"z": -2.1630513758,
				"element": "C" 
			},
			{
				"x": -2.6688246379,
				"y": 0.0233773517,
				"z": -1.3618288775,
				"element": "C" 
			},
			{
				"x": -3.7428702918,
				"y": -1.427564605,
				"z": -1.0217571744,
				"element": "Cl" 
			},
			{
				"x": -1.4425308194,
				"y": -0.4793370046,
				"z": -2.1411494052,
				"element": "C" 
			},
			{
				"x": -1.518147628,
				"y": -0.6361484434,
				"z": -3.3541134523,
				"element": "O" 
			},
			{
				"x": -0.2769514352,
				"y": -0.749838827,
				"z": -1.4758760547,
				"element": "N" 
			},
			{
				"x": 0.2011500082,
				"y": -0.5785592882,
				"z": -0.0883075823,
				"element": "C" 
			},
			{
				"x": 1.6493934836,
				"y": -1.1312866645,
				"z": -0.0781095611,
				"element": "C" 
			},
			{
				"x": 2.2792189707,
				"y": -1.0031849203,
				"z": 1.3223003389,
				"element": "C" 
			},
			{
				"x": 2.3113553271,
				"y": 0.4820972304,
				"z": 1.7352579291,
				"element": "C" 
			},
			{
				"x": 0.8736827746,
				"y": 1.0390905807,
				"z": 1.7490542796,
				"element": "C" 
			},
			{
				"x": 0.0197210435,
				"y": 0.2388835973,
				"z": 2.7547855672,
				"element": "C" 
			},
			{
				"x": -0.0028540749,
				"y": -1.2494327972,
				"z": 2.3475907661,
				"element": "C" 
			},
			{
				"x": 1.4359823942,
				"y": -1.8020295161,
				"z": 2.3361623241,
				"element": "C" 
			},
			{
				"x": -0.6241251662,
				"y": -1.3901063249,
				"z": 0.9405557308,
				"element": "C" 
			},
			{
				"x": 0.2595888441,
				"y": 0.9112100813,
				"z": 0.3378318905,
				"element": "C" 
			},
			{
				"x": -3.6802082957,
				"y": 0.6601581154,
				"z": -3.1494711803,
				"element": "H" 
			},
			{
				"x": -2.8174130563,
				"y": 1.9506118258,
				"z": -2.296152049,
				"element": "H" 
			},
			{
				"x": -4.3567971544,
				"y": 1.3457825833,
				"z": -1.6426931925,
				"element": "H" 
			},
			{
				"x": -2.406887289,
				"y": 0.4009245098,
				"z": -0.3759922088,
				"element": "H" 
			},
			{
				"x": 0.4229658591,
				"y": -1.0700150198,
				"z": -2.1352079392,
				"element": "H" 
			},
			{
				"x": 2.2506817668,
				"y": -0.5789378245,
				"z": -0.8132923359,
				"element": "H" 
			},
			{
				"x": 1.6332435918,
				"y": -2.1828826165,
				"z": -0.3929382604,
				"element": "H" 
			},
			{
				"x": 3.300433133,
				"y": -1.4021924923,
				"z": 1.2905870826,
				"element": "H" 
			},
			{
				"x": 2.766333546,
				"y": 0.5865488906,
				"z": 2.728359799,
				"element": "H" 
			},
			{
				"x": 2.933289388,
				"y": 1.0571564979,
				"z": 1.0369697241,
				"element": "H" 
			},
			{
				"x": 0.8900328131,
				"y": 2.0976282262,
				"z": 2.0365370109,
				"element": "H" 
			},
			{
				"x": 0.4321154445,
				"y": 0.3462667896,
				"z": 3.7660709067,
				"element": "H" 
			},
			{
				"x": -1.0026697908,
				"y": 0.6380176567,
				"z": 2.7846793006,
				"element": "H" 
			},
			{
				"x": -0.6114920535,
				"y": -1.8178446658,
				"z": 3.0612566462,
				"element": "H" 
			},
			{
				"x": 1.4300110608,
				"y": -2.8666190881,
				"z": 2.0692122352,
				"element": "H" 
			},
			{
				"x": 1.8796764283,
				"y": -1.7258866161,
				"z": 3.3370118989,
				"element": "H" 
			},
			{
				"x": -1.6641604764,
				"y": -1.0517658455,
				"z": 0.9642387562,
				"element": "H" 
			},
			{
				"x": -0.6464756756,
				"y": -2.4411970381,
				"z": 0.6294447115,
				"element": "H" 
			},
			{
				"x": -0.7434645001,
				"y": 1.3536323988,
				"z": 0.3335943727,
				"element": "H" 
			},
			{
				"x": 0.8552629737,
				"y": 1.4693754266,
				"z": -0.3951606212,
				"element": "H" 
			}
		],
		 "valence_orbital": [ 
			{
				"type": "occ",
				"energy": -0.29563,
				"method": "rhf"
			},
			{
				"type": "occ",
				"energy": -0.29375,
				"method": "rhf"
			},
			{
				"type": "occ",
				"energy": -0.29207,
				"method": "rhf"
			},
			{
				"type": "occ",
				"energy": -0.25012,
				"method": "rhf"
			},
			{
				"type": "occ",
				"energy": -0.24748,
				"method": "rhf"
			},
			{
				"type": "unocc",
				"energy": -0.01457,
				"method": "rhf"
			},
			{
				"type": "unocc",
				"energy": 0.05022,
				"method": "rhf"
			},
			{
				"type": "unocc",
				"energy": 0.06671,
				"method": "rhf"
			},
			{
				"type": "unocc",
				"energy": 0.08869,
				"method": "rhf"
			},
			{
				"type": "unocc",
				"energy": 0.09853,
				"method": "rhf"
			}
		],
		"cosmo_sigma_profile": { 
			"-0.025": 0.0,
			"-0.024": 0.0,
			"-0.023": 0.0,
			"-0.022": 0.0,
			"-0.021": 0.0,
			"-0.02": 0.0,
			"-0.019": 0.0,
			"-0.018": 0.0,
			"-0.017": 0.0,
			"-0.016": 0.0,
			"-0.015": 0.0,
			"-0.014": 0.0,
			"-0.013": 0.051284401008,
			"-0.012": 0.657489484905,
			"-0.011": 0.660371882381,
			"-0.01": 0.910700802902,
			"-0.009": 1.16427981229,
			"-0.008": 2.51071727735,
			"-0.007": 3.63409160593,
			"-0.006": 5.18813554939,
			"-0.005": 8.2616014586,
			"-0.004": 10.6934414798,
			"-0.003": 23.5484475264,
			"-0.002": 46.0243060705,
			"-0.001": 44.4318680052,
			"0.0": 38.8367716358,
			"0.001": 20.9420779453,
			"0.002": 9.28478441935,
			"0.003": 8.12808120128,
			"0.004": 7.70368695318,
			"0.005": 8.53195336813,
			"0.006": 8.27077314282,
			"0.007": 2.94242967675,
			"0.008": 1.61879393285,
			"0.009": 1.79730875305,
			"0.01": 2.00295486476,
			"0.011": 1.11918391863,
			"0.012": 2.18550007929,
			"0.013": 4.70164084839,
			"0.014": 3.34681814923,
			"0.015": 0.0937002005233,
			"0.016": 0.0,
			"0.017": 0.0,
			"0.018": 0.0,
			"0.019": 0.0,
			"0.02": 0.0,
			"0.021": 0.0,
			"0.022": 0.0,
			"0.023": 0.0,
			"0.024": 0.0,
			"0.025": 0.0
		}
	}
}
