{
	 "smiles": "CCCCCCCCOC1=C(OCCCCCCCC)C=CC=C1", 
	 "Tm": 296.65, 
	 "num_atms": 62, 
	 "gaussian": { 
		 "optdone": 1, 
		 "sigma_profile": "yes", 
		 "theory": "DFT", 
		 "functional": "B3LYP", 
		 "basiset": "6-31G**", 
		 "properties": { 
			 "R2extent": 14459.8041, 
			 "electric_dipole_moment_norm": 1.90917534554, 
			 "electric_quadrupole_moment_norm": 11.556758549, 
			 "total_energy": -1011.71478114, 
			 "HOMO_LUMO_gap": 0.21659, 
			 "cosmo_polarized_energy": -7.63, 
			 "cosmo_cavitation_energy": 61.05, 
			 "cosmo_dispersion_energy": -39.48, 
			 "cosmo_repulsion_energy": 3.18, 
			 "cosmo_total_nonelectrostatic_energy": 24.75, 
			 "SMD_solvation_energy": 8.88 
		},
		"coords": [
			{
				"x": 7.3535413183,
				"y": 0.6207883714,
				"z": -2.7409560329,
				"element": "C" 
			},
			{
				"x": 5.8379093301,
				"y": 0.7727649128,
				"z": -2.5744680807,
				"element": "C" 
			},
			{
				"x": 5.2782427272,
				"y": -0.0581562178,
				"z": -1.4108632377,
				"element": "C" 
			},
			{
				"x": 3.7503354351,
				"y": 0.0049722222,
				"z": -1.2480828325,
				"element": "C" 
			},
			{
				"x": 3.2115930176,
				"y": 1.3846626568,
				"z": -0.8392546489,
				"element": "C" 
			},
			{
				"x": 1.7050374328,
				"y": 1.4132306609,
				"z": -0.5305405545,
				"element": "C" 
			},
			{
				"x": 0.8013838355,
				"y": 1.132377926,
				"z": -1.7401428005,
				"element": "C" 
			},
			{
				"x": -0.6803784734,
				"y": 1.263274818,
				"z": -1.3920727568,
				"element": "C" 
			},
			{
				"x": -1.5308917333,
				"y": 1.0445352831,
				"z": -2.5308854154,
				"element": "O" 
			},
			{
				"x": -1.7788045625,
				"y": -0.2615851296,
				"z": -2.878038182,
				"element": "C" 
			},
			{
				"x": -2.6430402311,
				"y": -1.0718824455,
				"z": -2.1029343923,
				"element": "C" 
			},
			{
				"x": -3.146859293,
				"y": -0.5076218671,
				"z": -0.9635569939,
				"element": "O" 
			},
			{
				"x": -4.2348338678,
				"y": -1.1678153779,
				"z": -0.3114307224,
				"element": "C" 
			},
			{
				"x": -4.762639487,
				"y": -0.2820788703,
				"z": 0.8153280219,
				"element": "C" 
			},
			{
				"x": -3.9741460117,
				"y": -0.3249021071,
				"z": 2.1350989217,
				"element": "C" 
			},
			{
				"x": -2.5459333362,
				"y": 0.2352196367,
				"z": 2.0674741936,
				"element": "C" 
			},
			{
				"x": -1.8393063857,
				"y": 0.3347598604,
				"z": 3.4303926256,
				"element": "C" 
			},
			{
				"x": -1.5388090728,
				"y": -1.0169288301,
				"z": 4.0961046403,
				"element": "C" 
			},
			{
				"x": -0.8138324208,
				"y": -0.9136948195,
				"z": 5.4491657004,
				"element": "C" 
			},
			{
				"x": 0.6142605292,
				"y": -0.3606844694,
				"z": 5.3683662681,
				"element": "C" 
			},
			{
				"x": -2.9355589768,
				"y": -2.3685527498,
				"z": -2.5387404414,
				"element": "C" 
			},
			{
				"x": -2.3883685457,
				"y": -2.8566232176,
				"z": -3.7303779562,
				"element": "C" 
			},
			{
				"x": -1.5476666278,
				"y": -2.0571138132,
				"z": -4.4983805031,
				"element": "C" 
			},
			{
				"x": -1.2457442266,
				"y": -0.7633432507,
				"z": -4.0631717842,
				"element": "C" 
			},
			{
				"x": 7.727873882,
				"y": 1.2200301575,
				"z": -3.5775323607,
				"element": "H" 
			},
			{
				"x": 7.6288217508,
				"y": -0.4232699441,
				"z": -2.9299566009,
				"element": "H" 
			},
			{
				"x": 7.8853482373,
				"y": 0.9424318297,
				"z": -1.838017433,
				"element": "H" 
			},
			{
				"x": 5.3351425857,
				"y": 0.472604432,
				"z": -3.5044189501,
				"element": "H" 
			},
			{
				"x": 5.5962930787,
				"y": 1.8328269303,
				"z": -2.4272921416,
				"element": "H" 
			},
			{
				"x": 5.7568374357,
				"y": 0.2634121661,
				"z": -0.4742558409,
				"element": "H" 
			},
			{
				"x": 5.5739856647,
				"y": -1.1063437809,
				"z": -1.5557589391,
				"element": "H" 
			},
			{
				"x": 3.2789355205,
				"y": -0.3185060589,
				"z": -2.1856089463,
				"element": "H" 
			},
			{
				"x": 3.4464505851,
				"y": -0.7279730833,
				"z": -0.4877065456,
				"element": "H" 
			},
			{
				"x": 3.7579799718,
				"y": 1.7239750926,
				"z": 0.0517475323,
				"element": "H" 
			},
			{
				"x": 3.4264920442,
				"y": 2.1200989089,
				"z": -1.6256046338,
				"element": "H" 
			},
			{
				"x": 1.4857558307,
				"y": 0.6866637275,
				"z": 0.2651259649,
				"element": "H" 
			},
			{
				"x": 1.4504862311,
				"y": 2.3994701782,
				"z": -0.1182902571,
				"element": "H" 
			},
			{
				"x": 1.0360669044,
				"y": 1.8319480832,
				"z": -2.5531290572,
				"element": "H" 
			},
			{
				"x": 0.9854514447,
				"y": 0.1237270441,
				"z": -2.1280501233,
				"element": "H" 
			},
			{
				"x": -0.9075083025,
				"y": 2.282223676,
				"z": -1.0609560657,
				"element": "H" 
			},
			{
				"x": -0.9542693777,
				"y": 0.5804069553,
				"z": -0.5810063089,
				"element": "H" 
			},
			{
				"x": -5.0266184638,
				"y": -1.3576812996,
				"z": -1.0491941327,
				"element": "H" 
			},
			{
				"x": -3.9078534283,
				"y": -2.140572287,
				"z": 0.0858725616,
				"element": "H" 
			},
			{
				"x": -5.7921440092,
				"y": -0.6036599546,
				"z": 1.0186007897,
				"element": "H" 
			},
			{
				"x": -4.8270711597,
				"y": 0.7456903839,
				"z": 0.4372903721,
				"element": "H" 
			},
			{
				"x": -4.5398200745,
				"y": 0.242930941,
				"z": 2.8869015596,
				"element": "H" 
			},
			{
				"x": -3.9540508241,
				"y": -1.3622315989,
				"z": 2.4954538156,
				"element": "H" 
			},
			{
				"x": -1.9419860828,
				"y": -0.3788023753,
				"z": 1.3883285244,
				"element": "H" 
			},
			{
				"x": -2.583577208,
				"y": 1.2341272115,
				"z": 1.6136477184,
				"element": "H" 
			},
			{
				"x": -0.9014308269,
				"y": 0.8863974647,
				"z": 3.2906102397,
				"element": "H" 
			},
			{
				"x": -2.4502437353,
				"y": 0.9440467042,
				"z": 4.1129395453,
				"element": "H" 
			},
			{
				"x": -0.9364074345,
				"y": -1.6303275418,
				"z": 3.4097042269,
				"element": "H" 
			},
			{
				"x": -2.4769981723,
				"y": -1.5651661133,
				"z": 4.2483153118,
				"element": "H" 
			},
			{
				"x": -0.7812835877,
				"y": -1.9113836721,
				"z": 5.9055592438,
				"element": "H" 
			},
			{
				"x": -1.4093978067,
				"y": -0.2898635671,
				"z": 6.1300712017,
				"element": "H" 
			},
			{
				"x": 1.2341417301,
				"y": -0.9676756629,
				"z": 4.6979370627,
				"element": "H" 
			},
			{
				"x": 0.6358735654,
				"y": 0.6687933814,
				"z": 4.9966367335,
				"element": "H" 
			},
			{
				"x": 1.0927462953,
				"y": -0.3620064444,
				"z": 6.353370453,
				"element": "H" 
			},
			{
				"x": -3.5943169248,
				"y": -3.0031293446,
				"z": -1.9579208578,
				"element": "H" 
			},
			{
				"x": -2.6320376794,
				"y": -3.8651662681,
				"z": -4.0513809122,
				"element": "H" 
			},
			{
				"x": -1.126737592,
				"y": -2.4300042796,
				"z": -5.4270237159,
				"element": "H" 
			},
			{
				"x": -0.6041204414,
				"y": -0.1079451745,
				"z": -4.6436420708,
				"element": "H" 
			}
		],
		 "valence_orbital": [ 
			{
				"type": "occ",
				"energy": -0.30276,
				"method": "rhf"
			},
			{
				"type": "occ",
				"energy": -0.30236,
				"method": "rhf"
			},
			{
				"type": "occ",
				"energy": -0.2636,
				"method": "rhf"
			},
			{
				"type": "occ",
				"energy": -0.2345,
				"method": "rhf"
			},
			{
				"type": "occ",
				"energy": -0.20821,
				"method": "rhf"
			},
			{
				"type": "unocc",
				"energy": 0.00838,
				"method": "rhf"
			},
			{
				"type": "unocc",
				"energy": 0.01635,
				"method": "rhf"
			},
			{
				"type": "unocc",
				"energy": 0.08261,
				"method": "rhf"
			},
			{
				"type": "unocc",
				"energy": 0.08816,
				"method": "rhf"
			},
			{
				"type": "unocc",
				"energy": 0.09124,
				"method": "rhf"
			}
		],
		"cosmo_sigma_profile": { 
			"-0.025": 0.0,
			"-0.024": 0.0,
			"-0.023": 0.0,
			"-0.022": 0.0,
			"-0.021": 0.0,
			"-0.02": 0.0,
			"-0.019": 0.0,
			"-0.018": 0.0,
			"-0.017": 0.0,
			"-0.016": 0.0,
			"-0.015": 0.0,
			"-0.014": 0.0,
			"-0.013": 0.0,
			"-0.012": 0.0,
			"-0.011": 0.0,
			"-0.01": 0.0,
			"-0.009": 0.0,
			"-0.008": 0.0,
			"-0.007": 0.164316602174,
			"-0.006": 3.84465350017,
			"-0.005": 9.88205917563,
			"-0.004": 18.564273712,
			"-0.003": 28.3454389804,
			"-0.002": 65.0466707448,
			"-0.001": 90.332425651,
			"0.0": 93.2964812318,
			"0.001": 74.142290612,
			"0.002": 34.4402429306,
			"0.003": 9.46278104614,
			"0.004": 10.6210821745,
			"0.005": 10.2641402582,
			"0.006": 9.1218917879,
			"0.007": 3.29262122479,
			"0.008": 2.313318175,
			"0.009": 1.14792782402,
			"0.01": 1.79279694533,
			"0.011": 2.13745102091,
			"0.012": 2.71291899549,
			"0.013": 0.445367189981,
			"0.014": 0.0,
			"0.015": 0.0,
			"0.016": 0.0,
			"0.017": 0.0,
			"0.018": 0.0,
			"0.019": 0.0,
			"0.02": 0.0,
			"0.021": 0.0,
			"0.022": 0.0,
			"0.023": 0.0,
			"0.024": 0.0,
			"0.025": 0.0
		}
	}
}
