{
	 "smiles": "CC=CC=C", 
	 "Tm": 132.15, 
	 "num_atms": 13, 
	 "gaussian": { 
		 "optdone": 1, 
		 "sigma_profile": "yes", 
		 "theory": "DFT", 
		 "functional": "B3LYP", 
		 "basiset": "6-31G**", 
		 "properties": { 
			 "R2extent": 1121.2693, 
			 "electric_dipole_moment_norm": 0.538563227486, 
			 "electric_quadrupole_moment_norm": 3.22884310241, 
			 "total_energy": -195.317753233, 
			 "HOMO_LUMO_gap": 0.20122, 
			 "cosmo_polarized_energy": -2.46, 
			 "cosmo_cavitation_energy": 16.39, 
			 "cosmo_dispersion_energy": -11.86, 
			 "cosmo_repulsion_energy": 1.05, 
			 "cosmo_total_nonelectrostatic_energy": 5.58, 
			 "SMD_solvation_energy": 4.01 
		},
		"coords": [
			{
				"x": 0.0958148547,
				"y": -0.9286047459,
				"z": -2.2265439614,
				"element": "C" 
			},
			{
				"x": 0.354440034,
				"y": -0.2685464617,
				"z": -0.9033355337,
				"element": "C" 
			},
			{
				"x": 1.4389739293,
				"y": 0.4368977302,
				"z": -0.53171839,
				"element": "C" 
			},
			{
				"x": 2.6191257867,
				"y": 0.7226126047,
				"z": -1.3369540962,
				"element": "C" 
			},
			{
				"x": 3.6667593905,
				"y": 1.4361391711,
				"z": -0.8979068937,
				"element": "C" 
			},
			{
				"x": -0.8199943867,
				"y": -0.5334488232,
				"z": -2.6848339276,
				"element": "H" 
			},
			{
				"x": 0.9113302941,
				"y": -0.7939123128,
				"z": -2.940292888,
				"element": "H" 
			},
			{
				"x": -0.0628049331,
				"y": -2.0070928599,
				"z": -2.0977531019,
				"element": "H" 
			},
			{
				"x": -0.4410639078,
				"y": -0.3843667593,
				"z": -0.1679233086,
				"element": "H" 
			},
			{
				"x": 1.4553143643,
				"y": 0.8474891121,
				"z": 0.4776705137,
				"element": "H" 
			},
			{
				"x": 2.6442508804,
				"y": 0.3309773365,
				"z": -2.3519626886,
				"element": "H" 
			},
			{
				"x": 4.5300869107,
				"y": 1.6294888469,
				"z": -1.526261796,
				"element": "H" 
			},
			{
				"x": 3.6911667828,
				"y": 1.8494671614,
				"z": 0.1076160719,
				"element": "H" 
			}
		],
		 "valence_orbital": [ 
			{
				"type": "occ",
				"energy": -0.37763,
				"method": "rhf"
			},
			{
				"type": "occ",
				"energy": -0.3669,
				"method": "rhf"
			},
			{
				"type": "occ",
				"energy": -0.3294,
				"method": "rhf"
			},
			{
				"type": "occ",
				"energy": -0.30939,
				"method": "rhf"
			},
			{
				"type": "occ",
				"energy": -0.21849,
				"method": "rhf"
			},
			{
				"type": "unocc",
				"energy": -0.01727,
				"method": "rhf"
			},
			{
				"type": "unocc",
				"energy": 0.08965,
				"method": "rhf"
			},
			{
				"type": "unocc",
				"energy": 0.10487,
				"method": "rhf"
			},
			{
				"type": "unocc",
				"energy": 0.11119,
				"method": "rhf"
			},
			{
				"type": "unocc",
				"energy": 0.13491,
				"method": "rhf"
			}
		],
		"cosmo_sigma_profile": { 
			"-0.025": 0.0,
			"-0.024": 0.0,
			"-0.023": 0.0,
			"-0.022": 0.0,
			"-0.021": 0.0,
			"-0.02": 0.0,
			"-0.019": 0.0,
			"-0.018": 0.0,
			"-0.017": 0.0,
			"-0.016": 0.0,
			"-0.015": 0.0,
			"-0.014": 0.0,
			"-0.013": 0.0,
			"-0.012": 0.0,
			"-0.011": 0.0,
			"-0.01": 0.0,
			"-0.009": 0.0,
			"-0.008": 0.0,
			"-0.007": 0.0,
			"-0.006": 1.01648780908,
			"-0.005": 6.0310026062,
			"-0.004": 14.0828097379,
			"-0.003": 13.902986089,
			"-0.002": 15.9601482887,
			"-0.001": 14.8422907233,
			"0.0": 15.189754846,
			"0.001": 9.15851591469,
			"0.002": 7.56783003361,
			"0.003": 6.31698923853,
			"0.004": 6.301879396,
			"0.005": 7.49331754715,
			"0.006": 8.21503222577,
			"0.007": 3.35266602697,
			"0.008": 0.145430211053,
			"0.009": 0.0,
			"0.01": 0.0,
			"0.011": 0.0,
			"0.012": 0.0,
			"0.013": 0.0,
			"0.014": 0.0,
			"0.015": 0.0,
			"0.016": 0.0,
			"0.017": 0.0,
			"0.018": 0.0,
			"0.019": 0.0,
			"0.02": 0.0,
			"0.021": 0.0,
			"0.022": 0.0,
			"0.023": 0.0,
			"0.024": 0.0,
			"0.025": 0.0
		}
	}
}
