{
	 "smiles": "CN(C)C1=CC=C(C=C1)C1NC2=NC(=NN2C(N)=C1C#N)C(F)(F)F", 
	 "Tm": 437.15, 
	 "num_atms": 39, 
	 "gaussian": { 
		 "optdone": 1, 
		 "sigma_profile": "yes", 
		 "theory": "DFT", 
		 "functional": "B3LYP", 
		 "basiset": "6-31G**", 
		 "properties": { 
			 "R2extent": 12784.6133, 
			 "electric_dipole_moment_norm": 4.6080460295, 
			 "electric_quadrupole_moment_norm": 39.153375097, 
			 "total_energy": -1262.77589954, 
			 "HOMO_LUMO_gap": 0.15034, 
			 "cosmo_polarized_energy": -21.13, 
			 "cosmo_cavitation_energy": 45.55, 
			 "cosmo_dispersion_energy": -31.07, 
			 "cosmo_repulsion_energy": 2.31, 
			 "cosmo_total_nonelectrostatic_energy": 16.79, 
			 "SMD_solvation_energy": 6.1 
		},
		"coords": [
			{
				"x": -0.4294186267,
				"y": 2.2434188004,
				"z": 4.4856376037,
				"element": "C" 
			},
			{
				"x": 0.0341722581,
				"y": 1.054931243,
				"z": 3.7893098643,
				"element": "N" 
			},
			{
				"x": 0.3059005846,
				"y": -0.1447090331,
				"z": 4.5641410703,
				"element": "C" 
			},
			{
				"x": -0.1205584821,
				"y": 0.963920676,
				"z": 2.4162075299,
				"element": "C" 
			},
			{
				"x": -0.5582369784,
				"y": 2.0670598993,
				"z": 1.6476433436,
				"element": "C" 
			},
			{
				"x": -0.6835703231,
				"y": 1.9673846438,
				"z": 0.2657130724,
				"element": "C" 
			},
			{
				"x": -0.3953757526,
				"y": 0.7820259018,
				"z": -0.4177950121,
				"element": "C" 
			},
			{
				"x": 0.0200492033,
				"y": -0.3191449395,
				"z": 0.3428891793,
				"element": "C" 
			},
			{
				"x": 0.1557552479,
				"y": -0.2401825278,
				"z": 1.7218927578,
				"element": "C" 
			},
			{
				"x": -0.5056336396,
				"y": 0.7263412057,
				"z": -1.9344362005,
				"element": "C" 
			},
			{
				"x": 0.8274333838,
				"y": 0.7644557567,
				"z": -2.5938020177,
				"element": "N" 
			},
			{
				"x": 1.4265137739,
				"y": -0.3615943404,
				"z": -3.0378482052,
				"element": "C" 
			},
			{
				"x": 2.6849891347,
				"y": -0.5776914152,
				"z": -3.3889091721,
				"element": "N" 
			},
			{
				"x": 2.6374921202,
				"y": -1.8686267384,
				"z": -3.8329785765,
				"element": "C" 
			},
			{
				"x": 1.469652442,
				"y": -2.4806058439,
				"z": -3.7852112832,
				"element": "N" 
			},
			{
				"x": 0.6818990938,
				"y": -1.4894791915,
				"z": -3.2509861611,
				"element": "N" 
			},
			{
				"x": -0.6923895987,
				"y": -1.5649446319,
				"z": -3.0432987521,
				"element": "C" 
			},
			{
				"x": -1.274181549,
				"y": -2.7213379138,
				"z": -3.4348003348,
				"element": "N" 
			},
			{
				"x": -1.2936110059,
				"y": -0.4745878924,
				"z": -2.4647540588,
				"element": "C" 
			},
			{
				"x": -2.6965727488,
				"y": -0.4982175234,
				"z": -2.2898188248,
				"element": "C" 
			},
			{
				"x": -3.8574011101,
				"y": -0.5503219343,
				"z": -2.1727516632,
				"element": "N" 
			},
			{
				"x": 3.8689987535,
				"y": -2.5640238282,
				"z": -4.3425326,
				"element": "C" 
			},
			{
				"x": 4.4105347428,
				"y": -1.8861169712,
				"z": -5.3725549078,
				"element": "F" 
			},
			{
				"x": 4.8054233698,
				"y": -2.649367532,
				"z": -3.3772350104,
				"element": "F" 
			},
			{
				"x": 3.5868993896,
				"y": -3.8085723982,
				"z": -4.7619791972,
				"element": "F" 
			},
			{
				"x": -1.5130660834,
				"y": 2.4046244132,
				"z": 4.3790756686,
				"element": "H" 
			},
			{
				"x": 0.0833916099,
				"y": 3.1408078624,
				"z": 4.1201016132,
				"element": "H" 
			},
			{
				"x": -0.2027735221,
				"y": 2.1467037565,
				"z": 5.5482542144,
				"element": "H" 
			},
			{
				"x": 1.2421110138,
				"y": -0.6179230688,
				"z": 4.2459655073,
				"element": "H" 
			},
			{
				"x": -0.4969475028,
				"y": -0.8936034006,
				"z": 4.4865116728,
				"element": "H" 
			},
			{
				"x": 0.4170123621,
				"y": 0.1264525707,
				"z": 5.6148601836,
				"element": "H" 
			},
			{
				"x": -0.8099091158,
				"y": 3.0050173696,
				"z": 2.1263594982,
				"element": "H" 
			},
			{
				"x": -1.027147577,
				"y": 2.8371000591,
				"z": -0.2910819202,
				"element": "H" 
			},
			{
				"x": 0.2294856949,
				"y": -1.2671062855,
				"z": -0.145983236,
				"element": "H" 
			},
			{
				"x": 0.4700347128,
				"y": -1.1235898741,
				"z": 2.2633618158,
				"element": "H" 
			},
			{
				"x": -1.0268063438,
				"y": 1.6353452498,
				"z": -2.2567481094,
				"element": "H" 
			},
			{
				"x": 1.455909807,
				"y": 1.4998682613,
				"z": -2.3000703707,
				"element": "H" 
			},
			{
				"x": -2.2790238686,
				"y": -2.7956772967,
				"z": -3.4123277383,
				"element": "H" 
			},
			{
				"x": -0.73353487,
				"y": -3.3592330886,
				"z": -3.9994212431,
				"element": "H" 
			}
		],
		 "valence_orbital": [ 
			{
				"type": "occ",
				"energy": -0.29474,
				"method": "rhf"
			},
			{
				"type": "occ",
				"energy": -0.2573,
				"method": "rhf"
			},
			{
				"type": "occ",
				"energy": -0.25102,
				"method": "rhf"
			},
			{
				"type": "occ",
				"energy": -0.21831,
				"method": "rhf"
			},
			{
				"type": "occ",
				"energy": -0.19964,
				"method": "rhf"
			},
			{
				"type": "unocc",
				"energy": -0.0493,
				"method": "rhf"
			},
			{
				"type": "unocc",
				"energy": -0.00863,
				"method": "rhf"
			},
			{
				"type": "unocc",
				"energy": 0.00216,
				"method": "rhf"
			},
			{
				"type": "unocc",
				"energy": 0.01746,
				"method": "rhf"
			},
			{
				"type": "unocc",
				"energy": 0.02568,
				"method": "rhf"
			}
		],
		"cosmo_sigma_profile": { 
			"-0.025": 0.0,
			"-0.024": 0.0,
			"-0.023": 0.0,
			"-0.022": 0.0,
			"-0.021": 0.0,
			"-0.02": 0.0,
			"-0.019": 0.0,
			"-0.018": 0.0,
			"-0.017": 0.0,
			"-0.016": 0.342662679668,
			"-0.015": 2.06504521782,
			"-0.014": 2.57330635518,
			"-0.013": 2.97909952314,
			"-0.012": 2.60881481115,
			"-0.011": 2.80647583389,
			"-0.01": 2.5152488167,
			"-0.009": 3.15191229471,
			"-0.008": 3.51112943918,
			"-0.007": 8.19718106405,
			"-0.006": 12.1075250649,
			"-0.005": 20.1291411804,
			"-0.004": 24.0858363396,
			"-0.003": 29.9282249919,
			"-0.002": 31.0530290784,
			"-0.001": 27.5754199051,
			"0.0": 19.5905583057,
			"0.001": 22.2146252765,
			"0.002": 39.7672253213,
			"0.003": 28.2879674155,
			"0.004": 14.651461064,
			"0.005": 13.886187759,
			"0.006": 14.7591300385,
			"0.007": 7.32019239269,
			"0.008": 5.37271352142,
			"0.009": 4.9110624599,
			"0.01": 4.18821797862,
			"0.011": 4.24197071329,
			"0.012": 3.78769823738,
			"0.013": 3.48261095738,
			"0.014": 2.05571072062,
			"0.015": 0.196888648534,
			"0.016": 0.0,
			"0.017": 0.0,
			"0.018": 0.0,
			"0.019": 0.0,
			"0.02": 0.0,
			"0.021": 0.0,
			"0.022": 0.0,
			"0.023": 0.0,
			"0.024": 0.0,
			"0.025": 0.0
		}
	}
}
