{
	 "smiles": "COCCOC1=CC2=C(NC=C2)C=C1", 
	 "Tm": 335.15, 
	 "num_atms": 27, 
	 "gaussian": { 
		 "optdone": 1, 
		 "sigma_profile": "yes", 
		 "theory": "DFT", 
		 "functional": "B3LYP", 
		 "basiset": "6-31G**", 
		 "properties": { 
			 "R2extent": 4556.8049, 
			 "electric_dipole_moment_norm": 1.98555582143, 
			 "electric_quadrupole_moment_norm": 16.9286250511, 
			 "total_energy": -632.174543567, 
			 "HOMO_LUMO_gap": 0.18932, 
			 "cosmo_polarized_energy": -12.61, 
			 "cosmo_cavitation_energy": 30.22, 
			 "cosmo_dispersion_energy": -22.37, 
			 "cosmo_repulsion_energy": 1.78, 
			 "cosmo_total_nonelectrostatic_energy": 9.63, 
			 "SMD_solvation_energy": 5.91 
		},
		"coords": [
			{
				"x": -0.2273704495,
				"y": -2.6790290093,
				"z": 2.2197334639,
				"element": "C" 
			},
			{
				"x": -0.4633420794,
				"y": -1.7092415821,
				"z": 1.2214075691,
				"element": "O" 
			},
			{
				"x": -1.7822855057,
				"y": -1.1998517761,
				"z": 1.244240814,
				"element": "C" 
			},
			{
				"x": -1.923811049,
				"y": -0.0737114213,
				"z": 0.2334800552,
				"element": "C" 
			},
			{
				"x": -1.3463349874,
				"y": 1.1440533724,
				"z": 0.6962232446,
				"element": "O" 
			},
			{
				"x": -0.2239735825,
				"y": 1.6424754736,
				"z": 0.0633626988,
				"element": "C" 
			},
			{
				"x": -0.1866108723,
				"y": 3.0171720273,
				"z": -0.1404306318,
				"element": "C" 
			},
			{
				"x": 0.9532226156,
				"y": 3.5863488653,
				"z": -0.7333206925,
				"element": "C" 
			},
			{
				"x": 2.0244151958,
				"y": 2.7360795544,
				"z": -1.125697631,
				"element": "C" 
			},
			{
				"x": 2.9999102006,
				"y": 3.5387671496,
				"z": -1.6897217106,
				"element": "N" 
			},
			{
				"x": 2.5769468033,
				"y": 4.8539837157,
				"z": -1.6619542661,
				"element": "C" 
			},
			{
				"x": 1.3339717202,
				"y": 4.9261143718,
				"z": -1.0882778357,
				"element": "C" 
			},
			{
				"x": 1.984411004,
				"y": 1.3543752718,
				"z": -0.9203154742,
				"element": "C" 
			},
			{
				"x": 0.8559190925,
				"y": 0.8125360727,
				"z": -0.3149810312,
				"element": "C" 
			},
			{
				"x": -0.3765073606,
				"y": -2.2682285486,
				"z": 3.2302587324,
				"element": "H" 
			},
			{
				"x": 0.8110685346,
				"y": -3.003386454,
				"z": 2.1197456016,
				"element": "H" 
			},
			{
				"x": -0.8859510549,
				"y": -3.5545427184,
				"z": 2.1028092777,
				"element": "H" 
			},
			{
				"x": -2.0375157241,
				"y": -0.8172202966,
				"z": 2.2456151803,
				"element": "H" 
			},
			{
				"x": -2.5061401274,
				"y": -1.9966219344,
				"z": 0.9962292101,
				"element": "H" 
			},
			{
				"x": -1.4924643471,
				"y": -0.3762491888,
				"z": -0.7275439775,
				"element": "H" 
			},
			{
				"x": -2.994566818,
				"y": 0.1179915557,
				"z": 0.0831485349,
				"element": "H" 
			},
			{
				"x": -1.0354415981,
				"y": 3.621235465,
				"z": 0.1634424766,
				"element": "H" 
			},
			{
				"x": 3.8820044132,
				"y": 3.2182599761,
				"z": -2.0526820751,
				"element": "H" 
			},
			{
				"x": 3.204973191,
				"y": 5.639332325,
				"z": -2.058253562,
				"element": "H" 
			},
			{
				"x": 0.7571017668,
				"y": 5.8272436037,
				"z": -0.9364249311,
				"element": "H" 
			},
			{
				"x": 2.8145286841,
				"y": 0.7148932673,
				"z": -1.2084691248,
				"element": "H" 
			},
			{
				"x": 0.8066423342,
				"y": -0.2472791378,
				"z": -0.0938239155,
				"element": "H" 
			}
		],
		 "valence_orbital": [ 
			{
				"type": "occ",
				"energy": -0.2724,
				"method": "rhf"
			},
			{
				"type": "occ",
				"energy": -0.26366,
				"method": "rhf"
			},
			{
				"type": "occ",
				"energy": -0.2586,
				"method": "rhf"
			},
			{
				"type": "occ",
				"energy": -0.19742,
				"method": "rhf"
			},
			{
				"type": "occ",
				"energy": -0.18828,
				"method": "rhf"
			},
			{
				"type": "unocc",
				"energy": 0.00104,
				"method": "rhf"
			},
			{
				"type": "unocc",
				"energy": 0.04645,
				"method": "rhf"
			},
			{
				"type": "unocc",
				"energy": 0.08012,
				"method": "rhf"
			},
			{
				"type": "unocc",
				"energy": 0.08589,
				"method": "rhf"
			},
			{
				"type": "unocc",
				"energy": 0.09152,
				"method": "rhf"
			}
		],
		"cosmo_sigma_profile": { 
			"-0.025": 0.0,
			"-0.024": 0.0,
			"-0.023": 0.0,
			"-0.022": 0.0,
			"-0.021": 0.0,
			"-0.02": 0.0,
			"-0.019": 0.0,
			"-0.018": 0.0,
			"-0.017": 0.0,
			"-0.016": 0.145313534221,
			"-0.015": 1.52242042452,
			"-0.014": 1.1796681479,
			"-0.013": 1.5425980133,
			"-0.012": 0.995594078614,
			"-0.011": 1.33020393523,
			"-0.01": 1.14960129831,
			"-0.009": 1.43488018356,
			"-0.008": 2.58825701213,
			"-0.007": 3.83904938387,
			"-0.006": 5.68022710349,
			"-0.005": 13.9489254761,
			"-0.004": 26.227198331,
			"-0.003": 26.4721011652,
			"-0.002": 24.2547934453,
			"-0.001": 13.9486241354,
			"0.0": 11.0663710313,
			"0.001": 9.54602710848,
			"0.002": 10.0098763213,
			"0.003": 9.82300622253,
			"0.004": 10.1885080481,
			"0.005": 16.6422593385,
			"0.006": 21.0581780572,
			"0.007": 13.4692243772,
			"0.008": 4.4647196787,
			"0.009": 2.61702303063,
			"0.01": 1.25851841668,
			"0.011": 2.01669821835,
			"0.012": 1.06182848262,
			"0.013": 0.0372090022486,
			"0.014": 0.0,
			"0.015": 0.0,
			"0.016": 0.0,
			"0.017": 0.0,
			"0.018": 0.0,
			"0.019": 0.0,
			"0.02": 0.0,
			"0.021": 0.0,
			"0.022": 0.0,
			"0.023": 0.0,
			"0.024": 0.0,
			"0.025": 0.0
		}
	}
}
