{
	 "smiles": "OC1=C(C=CC=C1C#N)[N+]([O-])=O", 
	 "Tm": 404.15, 
	 "num_atms": 16, 
	 "gaussian": { 
		 "optdone": 1, 
		 "sigma_profile": "yes", 
		 "theory": "DFT", 
		 "functional": "B3LYP", 
		 "basiset": "6-31G**", 
		 "properties": { 
			 "R2extent": 2430.0218, 
			 "electric_dipole_moment_norm": 4.10535895994, 
			 "electric_quadrupole_moment_norm": 16.0419620564, 
			 "total_energy": -604.197274525, 
			 "HOMO_LUMO_gap": 0.17196, 
			 "cosmo_polarized_energy": -14.95, 
			 "cosmo_cavitation_energy": 22.59, 
			 "cosmo_dispersion_energy": -16.28, 
			 "cosmo_repulsion_energy": 1.29, 
			 "cosmo_total_nonelectrostatic_energy": 7.6, 
			 "SMD_solvation_energy": 7.84 
		},
		"coords": [
			{
				"x": 1.4253352404,
				"y": -1.8784971984,
				"z": 1.5361459434,
				"element": "O" 
			},
			{
				"x": 0.8456098116,
				"y": -0.7353065856,
				"z": 1.1515465809,
				"element": "C" 
			},
			{
				"x": 1.5335345047,
				"y": 0.2100539819,
				"z": 0.3628825339,
				"element": "C" 
			},
			{
				"x": 0.9095624997,
				"y": 1.3838489102,
				"z": -0.0608407471,
				"element": "C" 
			},
			{
				"x": -0.4054442177,
				"y": 1.6672047153,
				"z": 0.2960236326,
				"element": "C" 
			},
			{
				"x": -1.1107856714,
				"y": 0.7561420927,
				"z": 1.0754192551,
				"element": "C" 
			},
			{
				"x": -0.4994021538,
				"y": -0.4327024309,
				"z": 1.4950863179,
				"element": "C" 
			},
			{
				"x": -1.2025120108,
				"y": -1.3962978837,
				"z": 2.2828546243,
				"element": "C" 
			},
			{
				"x": -1.7075494785,
				"y": -2.2287445851,
				"z": 2.9221417088,
				"element": "N" 
			},
			{
				"x": 2.9331336446,
				"y": 0.0114284714,
				"z": -0.0475332015,
				"element": "N" 
			},
			{
				"x": 3.6093090374,
				"y": -0.8038993223,
				"z": 0.569282675,
				"element": "O" 
			},
			{
				"x": 3.3387937549,
				"y": 0.7014601999,
				"z": -0.9848896122,
				"element": "O" 
			},
			{
				"x": 0.7905419731,
				"y": -2.4158020898,
				"z": 2.0394495824,
				"element": "H" 
			},
			{
				"x": 1.4877537369,
				"y": 2.0611325866,
				"z": -0.6771951674,
				"element": "H" 
			},
			{
				"x": -0.8735852943,
				"y": 2.5879405937,
				"z": -0.0324656932,
				"element": "H" 
			},
			{
				"x": -2.1382953767,
				"y": 0.9473385439,
				"z": 1.3657915671,
				"element": "H" 
			}
		],
		 "valence_orbital": [ 
			{
				"type": "occ",
				"energy": -0.31559,
				"method": "rhf"
			},
			{
				"type": "occ",
				"energy": -0.31424,
				"method": "rhf"
			},
			{
				"type": "occ",
				"energy": -0.30489,
				"method": "rhf"
			},
			{
				"type": "occ",
				"energy": -0.29217,
				"method": "rhf"
			},
			{
				"type": "occ",
				"energy": -0.27264,
				"method": "rhf"
			},
			{
				"type": "unocc",
				"energy": -0.10068,
				"method": "rhf"
			},
			{
				"type": "unocc",
				"energy": -0.06701,
				"method": "rhf"
			},
			{
				"type": "unocc",
				"energy": -0.02272,
				"method": "rhf"
			},
			{
				"type": "unocc",
				"energy": -0.00546,
				"method": "rhf"
			},
			{
				"type": "unocc",
				"energy": 0.05471,
				"method": "rhf"
			}
		],
		"cosmo_sigma_profile": { 
			"-0.025": 0.0,
			"-0.024": 0.0,
			"-0.023": 0.0,
			"-0.022": 0.0,
			"-0.021": 0.0,
			"-0.02": 0.0,
			"-0.019": 0.0,
			"-0.018": 0.0,
			"-0.017": 0.600477618676,
			"-0.016": 0.442915292509,
			"-0.015": 0.849839971483,
			"-0.014": 0.687146042847,
			"-0.013": 1.49062497447,
			"-0.012": 1.07355687879,
			"-0.011": 1.13103705951,
			"-0.01": 1.62241809745,
			"-0.009": 4.42610861812,
			"-0.008": 8.61960913664,
			"-0.007": 9.08928645444,
			"-0.006": 8.76554416542,
			"-0.005": 7.83038222027,
			"-0.004": 10.0163987719,
			"-0.003": 15.4440764513,
			"-0.002": 12.373497096,
			"-0.001": 12.4486060112,
			"0.0": 9.49330957642,
			"0.001": 7.76560256524,
			"0.002": 4.95497754577,
			"0.003": 5.1311650478,
			"0.004": 5.14404035578,
			"0.005": 4.6122860792,
			"0.006": 6.62505920063,
			"0.007": 10.4988534992,
			"0.008": 12.1407230539,
			"0.009": 8.65923350993,
			"0.01": 5.98968079903,
			"0.011": 3.53475873628,
			"0.012": 1.8751724435,
			"0.013": 0.0211366383342,
			"0.014": 0.0,
			"0.015": 0.0,
			"0.016": 0.0,
			"0.017": 0.0,
			"0.018": 0.0,
			"0.019": 0.0,
			"0.02": 0.0,
			"0.021": 0.0,
			"0.022": 0.0,
			"0.023": 0.0,
			"0.024": 0.0,
			"0.025": 0.0
		}
	}
}
