{
	 "smiles": "CCOC(=O)C1=CSC(=N1)C1=C(F)C=C(F)C=C1", 
	 "Tm": 324.15, 
	 "num_atms": 27, 
	 "gaussian": { 
		 "optdone": 1, 
		 "sigma_profile": "yes", 
		 "theory": "DFT", 
		 "functional": "B3LYP", 
		 "basiset": "6-31G**", 
		 "properties": { 
			 "R2extent": 7880.1548, 
			 "electric_dipole_moment_norm": 3.50670124333, 
			 "electric_quadrupole_moment_norm": 12.9052431391, 
			 "total_energy": -1265.76016878, 
			 "HOMO_LUMO_gap": 0.17367, 
			 "cosmo_polarized_energy": -13.71, 
			 "cosmo_cavitation_energy": 35.23, 
			 "cosmo_dispersion_energy": -25.6, 
			 "cosmo_repulsion_energy": 1.9, 
			 "cosmo_total_nonelectrostatic_energy": 11.53, 
			 "SMD_solvation_energy": 6.84 
		},
		"coords": [
			{
				"x": -4.231506141,
				"y": -2.4679910199,
				"z": 0.6101448108,
				"element": "C" 
			},
			{
				"x": -4.0406934712,
				"y": -1.3550750273,
				"z": 1.6298147032,
				"element": "C" 
			},
			{
				"x": -3.2381362235,
				"y": -0.2775589145,
				"z": 1.09154196,
				"element": "O" 
			},
			{
				"x": -1.8934777608,
				"y": -0.4282627637,
				"z": 1.1856621012,
				"element": "C" 
			},
			{
				"x": -1.3440149673,
				"y": -1.3839189625,
				"z": 1.6864118287,
				"element": "O" 
			},
			{
				"x": -1.1915993686,
				"y": 0.7440055585,
				"z": 0.5949941381,
				"element": "C" 
			},
			{
				"x": -1.8140399016,
				"y": 1.8340392555,
				"z": 0.0393261622,
				"element": "C" 
			},
			{
				"x": -0.6435019751,
				"y": 2.9601072353,
				"z": -0.5297828819,
				"element": "S" 
			},
			{
				"x": 0.6382364761,
				"y": 1.8649036095,
				"z": 0.052123212,
				"element": "C" 
			},
			{
				"x": 0.1817926879,
				"y": 0.774258946,
				"z": 0.5938693954,
				"element": "N" 
			},
			{
				"x": 2.0538131716,
				"y": 2.2211515445,
				"z": -0.1019846741,
				"element": "C" 
			},
			{
				"x": 3.0532199455,
				"y": 1.2380304413,
				"z": -0.2229982085,
				"element": "C" 
			},
			{
				"x": 2.7234907186,
				"y": -0.0576001087,
				"z": -0.219923369,
				"element": "F" 
			},
			{
				"x": 4.3971120635,
				"y": 1.5584991283,
				"z": -0.3727878951,
				"element": "C" 
			},
			{
				"x": 4.7524801815,
				"y": 2.9009340613,
				"z": -0.4053427756,
				"element": "C" 
			},
			{
				"x": 6.0498648354,
				"y": 3.2223211089,
				"z": -0.5476357004,
				"element": "F" 
			},
			{
				"x": 3.8088431108,
				"y": 3.9173676828,
				"z": -0.2940712838,
				"element": "C" 
			},
			{
				"x": 2.4725066754,
				"y": 3.5635030379,
				"z": -0.1418026173,
				"element": "C" 
			},
			{
				"x": -3.2750338859,
				"y": -2.9412411782,
				"z": 0.3757461059,
				"element": "H" 
			},
			{
				"x": -4.6719186437,
				"y": -2.0803475039,
				"z": -0.3132903885,
				"element": "H" 
			},
			{
				"x": -4.9023560679,
				"y": -3.2322654545,
				"z": 1.0165888707,
				"element": "H" 
			},
			{
				"x": -4.9906241349,
				"y": -0.8817085653,
				"z": 1.889876926,
				"element": "H" 
			},
			{
				"x": -3.5615418591,
				"y": -1.7306031086,
				"z": 2.5370660422,
				"element": "H" 
			},
			{
				"x": -2.8745662559,
				"y": 2.0110840047,
				"z": -0.056438275,
				"element": "H" 
			},
			{
				"x": 5.1397879698,
				"y": 0.7759039586,
				"z": -0.4675586023,
				"element": "H" 
			},
			{
				"x": 4.1250922629,
				"y": 4.9535890881,
				"z": -0.315613598,
				"element": "H" 
			},
			{
				"x": 1.7307705573,
				"y": 4.3480739458,
				"z": -0.0293359867,
				"element": "H" 
			}
		],
		 "valence_orbital": [ 
			{
				"type": "occ",
				"energy": -0.28496,
				"method": "rhf"
			},
			{
				"type": "occ",
				"energy": -0.28085,
				"method": "rhf"
			},
			{
				"type": "occ",
				"energy": -0.27162,
				"method": "rhf"
			},
			{
				"type": "occ",
				"energy": -0.26842,
				"method": "rhf"
			},
			{
				"type": "occ",
				"energy": -0.23586,
				"method": "rhf"
			},
			{
				"type": "unocc",
				"energy": -0.06219,
				"method": "rhf"
			},
			{
				"type": "unocc",
				"energy": -0.03328,
				"method": "rhf"
			},
			{
				"type": "unocc",
				"energy": -0.02338,
				"method": "rhf"
			},
			{
				"type": "unocc",
				"energy": 0.00845,
				"method": "rhf"
			},
			{
				"type": "unocc",
				"energy": 0.02542,
				"method": "rhf"
			}
		],
		"cosmo_sigma_profile": { 
			"-0.025": 0.0,
			"-0.024": 0.0,
			"-0.023": 0.0,
			"-0.022": 0.0,
			"-0.021": 0.0,
			"-0.02": 0.0,
			"-0.019": 0.0,
			"-0.018": 0.0,
			"-0.017": 0.0,
			"-0.016": 0.0,
			"-0.015": 0.0,
			"-0.014": 0.0,
			"-0.013": 0.0,
			"-0.012": 0.0,
			"-0.011": 0.139990679142,
			"-0.01": 1.46936736184,
			"-0.009": 2.66137285713,
			"-0.008": 5.8808418346,
			"-0.007": 7.49874694512,
			"-0.006": 9.12308772992,
			"-0.005": 11.5831898485,
			"-0.004": 18.2981007034,
			"-0.003": 19.995749234,
			"-0.002": 25.6907208602,
			"-0.001": 33.74769646,
			"0.0": 42.1662475063,
			"0.001": 27.3539865983,
			"0.002": 15.7118719198,
			"0.003": 16.3513228857,
			"0.004": 14.9189639243,
			"0.005": 5.10860406125,
			"0.006": 4.26458358828,
			"0.007": 1.91265399326,
			"0.008": 2.27566495775,
			"0.009": 2.8339044806,
			"0.01": 2.78884952244,
			"0.011": 4.6268613258,
			"0.012": 3.9944984574,
			"0.013": 1.93982037412,
			"0.014": 2.0259954305,
			"0.015": 0.976883276467,
			"0.016": 0.0,
			"0.017": 0.0,
			"0.018": 0.0,
			"0.019": 0.0,
			"0.02": 0.0,
			"0.021": 0.0,
			"0.022": 0.0,
			"0.023": 0.0,
			"0.024": 0.0,
			"0.025": 0.0
		}
	}
}
