{
	 "smiles": "CC(C)C1CCC(C)CC1OC(=O)C(C(C)C(C(C)=O)C(OC1CC(C)CCC1C(C)C)=N/NC(N)=O)C(C)=O", 
	 "Tm": 473.15, 
	 "num_atms": 93, 
	 "gaussian": { 
		 "optdone": 1, 
		 "sigma_profile": "yes", 
		 "theory": "DFT", 
		 "functional": "B3LYP", 
		 "basiset": "6-31G**", 
		 "properties": { 
			 "R2extent": 22068.6443, 
			 "electric_dipole_moment_norm": 6.21220158961, 
			 "electric_quadrupole_moment_norm": 32.7230563171, 
			 "total_energy": -1828.87959552, 
			 "HOMO_LUMO_gap": 0.17123, 
			 "cosmo_polarized_energy": -25.44, 
			 "cosmo_cavitation_energy": 83.16, 
			 "cosmo_dispersion_energy": -47.06, 
			 "cosmo_repulsion_energy": 3.54, 
			 "cosmo_total_nonelectrostatic_energy": 39.63, 
			 "SMD_solvation_energy": 14.92 
		},
		"coords": [
			{
				"x": 0.6614172881,
				"y": -6.7448397526,
				"z": -0.1668553255,
				"element": "C" 
			},
			{
				"x": 1.0262014966,
				"y": -5.2930260198,
				"z": 0.1878395775,
				"element": "C" 
			},
			{
				"x": 0.6470867532,
				"y": -5.0264898476,
				"z": 1.6553011726,
				"element": "C" 
			},
			{
				"x": 0.3800821114,
				"y": -4.2585236916,
				"z": -0.7772261981,
				"element": "C" 
			},
			{
				"x": 0.4503076383,
				"y": -4.6851767863,
				"z": -2.2643547042,
				"element": "C" 
			},
			{
				"x": 0.2287172722,
				"y": -3.4998207829,
				"z": -3.2128900333,
				"element": "C" 
			},
			{
				"x": 1.3708242939,
				"y": -2.4551015864,
				"z": -3.09731626,
				"element": "C" 
			},
			{
				"x": 2.4455888871,
				"y": -2.6473335297,
				"z": -4.1755585107,
				"element": "C" 
			},
			{
				"x": 2.0058231708,
				"y": -2.5018292352,
				"z": -1.6868973626,
				"element": "C" 
			},
			{
				"x": 1.0042030548,
				"y": -2.8434564159,
				"z": -0.58810101,
				"element": "C" 
			},
			{
				"x": -0.0451580291,
				"y": -1.8219483037,
				"z": -0.6655370237,
				"element": "O" 
			},
			{
				"x": -0.6345967333,
				"y": -1.3901795494,
				"z": 0.4667350034,
				"element": "C" 
			},
			{
				"x": -0.300062594,
				"y": -1.7202782907,
				"z": 1.5865475609,
				"element": "O" 
			},
			{
				"x": -1.848658859,
				"y": -0.5515200121,
				"z": 0.078421721,
				"element": "C" 
			},
			{
				"x": -2.4322361256,
				"y": 0.4954338645,
				"z": 1.0916399225,
				"element": "C" 
			},
			{
				"x": -2.2279268329,
				"y": 0.2191321445,
				"z": 2.5897513771,
				"element": "C" 
			},
			{
				"x": -2.073906971,
				"y": 1.9713901558,
				"z": 0.7421203251,
				"element": "C" 
			},
			{
				"x": -2.4227312432,
				"y": 2.3697336865,
				"z": -0.7129551084,
				"element": "C" 
			},
			{
				"x": -3.7931617658,
				"y": 2.0020604275,
				"z": -1.2445258081,
				"element": "C" 
			},
			{
				"x": -1.6356041539,
				"y": 3.0111730043,
				"z": -1.3858124138,
				"element": "O" 
			},
			{
				"x": -0.6971290396,
				"y": 2.491124851,
				"z": 1.1183251967,
				"element": "C" 
			},
			{
				"x": 0.3019193714,
				"y": 1.5812394634,
				"z": 1.1163836934,
				"element": "O" 
			},
			{
				"x": 1.6740628227,
				"y": 2.1065264324,
				"z": 1.1785475844,
				"element": "C" 
			},
			{
				"x": 2.13754756,
				"y": 2.3923649435,
				"z": 2.6191983832,
				"element": "C" 
			},
			{
				"x": 2.6151527619,
				"y": 1.1918978268,
				"z": 3.4652862565,
				"element": "C" 
			},
			{
				"x": 1.4676102449,
				"y": 0.3734898132,
				"z": 4.0775242559,
				"element": "C" 
			},
			{
				"x": 3.574801655,
				"y": 0.3162762799,
				"z": 2.6349887053,
				"element": "C" 
			},
			{
				"x": 2.9483828397,
				"y": -0.0861796619,
				"z": 1.2926238073,
				"element": "C" 
			},
			{
				"x": 2.5837134544,
				"y": 1.1257530906,
				"z": 0.407501401,
				"element": "C" 
			},
			{
				"x": 3.8044770781,
				"y": 1.8912360029,
				"z": -0.1987116452,
				"element": "C" 
			},
			{
				"x": 3.3706668567,
				"y": 2.7882366675,
				"z": -1.3732383877,
				"element": "C" 
			},
			{
				"x": 4.9285714244,
				"y": 0.9570655841,
				"z": -0.6762278939,
				"element": "C" 
			},
			{
				"x": -0.4432692252,
				"y": 3.7168324243,
				"z": 1.4092595579,
				"element": "N" 
			},
			{
				"x": -1.5090345037,
				"y": 4.6179446205,
				"z": 1.2797151368,
				"element": "N" 
			},
			{
				"x": -1.3430200226,
				"y": 5.9014430139,
				"z": 1.827000726,
				"element": "C" 
			},
			{
				"x": -0.4054288571,
				"y": 5.9783539342,
				"z": 2.8229699672,
				"element": "N" 
			},
			{
				"x": -2.0575640222,
				"y": 6.8251679962,
				"z": 1.4644575708,
				"element": "O" 
			},
			{
				"x": -2.9764406823,
				"y": -1.5338786007,
				"z": -0.3396353636,
				"element": "C" 
			},
			{
				"x": -3.4111819692,
				"y": -2.6003783667,
				"z": 0.6454210643,
				"element": "C" 
			},
			{
				"x": -3.5286476465,
				"y": -1.3983222915,
				"z": -1.4147913204,
				"element": "O" 
			},
			{
				"x": -0.4255484601,
				"y": -6.89182203,
				"z": -0.1430636755,
				"element": "H" 
			},
			{
				"x": 1.1002615632,
				"y": -7.4338160852,
				"z": 0.5624601495,
				"element": "H" 
			},
			{
				"x": 1.0184933298,
				"y": -7.041669392,
				"z": -1.1561819494,
				"element": "H" 
			},
			{
				"x": 2.1191042171,
				"y": -5.1935113278,
				"z": 0.0895831728,
				"element": "H" 
			},
			{
				"x": 0.8193207025,
				"y": -3.9934819038,
				"z": 1.9656053827,
				"element": "H" 
			},
			{
				"x": -0.4178504924,
				"y": -5.2381702178,
				"z": 1.8148228816,
				"element": "H" 
			},
			{
				"x": 1.2135390857,
				"y": -5.6826789127,
				"z": 2.3246846911,
				"element": "H" 
			},
			{
				"x": -0.6817756602,
				"y": -4.1760875875,
				"z": -0.5058830781,
				"element": "H" 
			},
			{
				"x": 1.4301207902,
				"y": -5.1369867911,
				"z": -2.4731662905,
				"element": "H" 
			},
			{
				"x": -0.2900312885,
				"y": -5.4677648096,
				"z": -2.4569371607,
				"element": "H" 
			},
			{
				"x": -0.7300835653,
				"y": -3.0264437114,
				"z": -2.9723368313,
				"element": "H" 
			},
			{
				"x": 0.1500497148,
				"y": -3.8544653335,
				"z": -4.2471687037,
				"element": "H" 
			},
			{
				"x": 0.9330928668,
				"y": -1.459613863,
				"z": -3.2320336677,
				"element": "H" 
			},
			{
				"x": 3.2670338102,
				"y": -1.9318376678,
				"z": -4.0539657524,
				"element": "H" 
			},
			{
				"x": 2.8768583089,
				"y": -3.6551638783,
				"z": -4.1304886269,
				"element": "H" 
			},
			{
				"x": 2.0279484769,
				"y": -2.5087247256,
				"z": -5.1783762079,
				"element": "H" 
			},
			{
				"x": 2.7888618453,
				"y": -3.2714113599,
				"z": -1.6555397394,
				"element": "H" 
			},
			{
				"x": 2.4995593983,
				"y": -1.5516528101,
				"z": -1.4595194087,
				"element": "H" 
			},
			{
				"x": 1.4660808024,
				"y": -2.7559687463,
				"z": 0.3951727949,
				"element": "H" 
			},
			{
				"x": -1.580772993,
				"y": -0.0457577354,
				"z": -0.8509681985,
				"element": "H" 
			},
			{
				"x": -3.5171257843,
				"y": 0.4598428095,
				"z": 0.9276038164,
				"element": "H" 
			},
			{
				"x": -2.8398905966,
				"y": 0.9208340245,
				"z": 3.1670197595,
				"element": "H" 
			},
			{
				"x": -1.1884608868,
				"y": 0.3381280309,
				"z": 2.8870513398,
				"element": "H" 
			},
			{
				"x": -2.529323289,
				"y": -0.7950312899,
				"z": 2.8596687864,
				"element": "H" 
			},
			{
				"x": -2.7622061725,
				"y": 2.5871355517,
				"z": 1.343708421,
				"element": "H" 
			},
			{
				"x": -4.5708965305,
				"y": 2.1221273493,
				"z": -0.483243492,
				"element": "H" 
			},
			{
				"x": -4.0126015345,
				"y": 2.6359430514,
				"z": -2.10508374,
				"element": "H" 
			},
			{
				"x": -3.8047770904,
				"y": 0.9549584469,
				"z": -1.569808978,
				"element": "H" 
			},
			{
				"x": 1.63035151,
				"y": 3.06413501,
				"z": 0.6582631526,
				"element": "H" 
			},
			{
				"x": 1.3448701073,
				"y": 2.9372483926,
				"z": 3.1397541014,
				"element": "H" 
			},
			{
				"x": 2.9766154921,
				"y": 3.0955873273,
				"z": 2.5253275728,
				"element": "H" 
			},
			{
				"x": 3.185120886,
				"y": 1.6142354053,
				"z": 4.3045030179,
				"element": "H" 
			},
			{
				"x": 0.8803241848,
				"y": -0.1551845933,
				"z": 3.3231976402,
				"element": "H" 
			},
			{
				"x": 0.786656528,
				"y": 1.0198963156,
				"z": 4.6427917751,
				"element": "H" 
			},
			{
				"x": 1.8620422272,
				"y": -0.3773164782,
				"z": 4.7718141339,
				"element": "H" 
			},
			{
				"x": 4.5099318405,
				"y": 0.8658976916,
				"z": 2.4612657235,
				"element": "H" 
			},
			{
				"x": 3.8463631046,
				"y": -0.5809872165,
				"z": 3.2047379273,
				"element": "H" 
			},
			{
				"x": 2.0352782648,
				"y": -0.6575162239,
				"z": 1.4858019206,
				"element": "H" 
			},
			{
				"x": 3.6175696669,
				"y": -0.7610261356,
				"z": 0.7499335047,
				"element": "H" 
			},
			{
				"x": 1.9924020142,
				"y": 0.7567794296,
				"z": -0.4416933181,
				"element": "H" 
			},
			{
				"x": 4.2304370092,
				"y": 2.5400167657,
				"z": 0.5799947845,
				"element": "H" 
			},
			{
				"x": 3.0016862656,
				"y": 2.1778831114,
				"z": -2.206322411,
				"element": "H" 
			},
			{
				"x": 2.5766563155,
				"y": 3.491351868,
				"z": -1.1069193735,
				"element": "H" 
			},
			{
				"x": 4.2170853281,
				"y": 3.3762293259,
				"z": -1.7435301335,
				"element": "H" 
			},
			{
				"x": 5.3908403139,
				"y": 0.3991073286,
				"z": 0.1423851252,
				"element": "H" 
			},
			{
				"x": 4.5555888529,
				"y": 0.2318202523,
				"z": -1.4101920121,
				"element": "H" 
			},
			{
				"x": 5.7188019293,
				"y": 1.5373277995,
				"z": -1.1642209909,
				"element": "H" 
			},
			{
				"x": -1.9052335456,
				"y": 4.682171001,
				"z": 0.3462559978,
				"element": "H" 
			},
			{
				"x": 0.3138873029,
				"y": 5.2694050096,
				"z": 2.8358947712,
				"element": "H" 
			},
			{
				"x": -0.1613704293,
				"y": 6.9162064781,
				"z": 3.099118834,
				"element": "H" 
			},
			{
				"x": -4.0863867633,
				"y": -3.296977621,
				"z": 0.1470533012,
				"element": "H" 
			},
			{
				"x": -3.9444277885,
				"y": -2.1276278376,
				"z": 1.4791039445,
				"element": "H" 
			},
			{
				"x": -2.5595699446,
				"y": -3.1295649941,
				"z": 1.080839718,
				"element": "H" 
			}
		],
		 "valence_orbital": [ 
			{
				"type": "occ",
				"energy": -0.26323,
				"method": "rhf"
			},
			{
				"type": "occ",
				"energy": -0.25923,
				"method": "rhf"
			},
			{
				"type": "occ",
				"energy": -0.2587,
				"method": "rhf"
			},
			{
				"type": "occ",
				"energy": -0.24538,
				"method": "rhf"
			},
			{
				"type": "occ",
				"energy": -0.2157,
				"method": "rhf"
			},
			{
				"type": "unocc",
				"energy": -0.04447,
				"method": "rhf"
			},
			{
				"type": "unocc",
				"energy": -0.03141,
				"method": "rhf"
			},
			{
				"type": "unocc",
				"energy": 0.0041,
				"method": "rhf"
			},
			{
				"type": "unocc",
				"energy": 0.0064,
				"method": "rhf"
			},
			{
				"type": "unocc",
				"energy": 0.0497,
				"method": "rhf"
			}
		],
		"cosmo_sigma_profile": { 
			"-0.025": 0.0,
			"-0.024": 0.0,
			"-0.023": 0.0,
			"-0.022": 0.0,
			"-0.021": 0.0,
			"-0.02": 0.0,
			"-0.019": 0.0,
			"-0.018": 0.0,
			"-0.017": 0.0,
			"-0.016": 0.0,
			"-0.015": 0.0,
			"-0.014": 0.410059516517,
			"-0.013": 1.34448204133,
			"-0.012": 0.522220864333,
			"-0.011": 1.45449166518,
			"-0.01": 2.28715975142,
			"-0.009": 4.23428395801,
			"-0.008": 7.39378000691,
			"-0.007": 10.6483127407,
			"-0.006": 13.0744747146,
			"-0.005": 15.6618593673,
			"-0.004": 23.0748136606,
			"-0.003": 49.2804198574,
			"-0.002": 101.304952699,
			"-0.001": 102.376610502,
			"0.0": 88.0259250514,
			"0.001": 73.8118327316,
			"0.002": 42.979708444,
			"0.003": 15.5885569012,
			"0.004": 11.8080738748,
			"0.005": 12.9865182537,
			"0.006": 10.2192066212,
			"0.007": 8.08161093147,
			"0.008": 7.14649518365,
			"0.009": 6.27068851494,
			"0.01": 7.62991619528,
			"0.011": 8.23651731548,
			"0.012": 3.80103495262,
			"0.013": 2.75147592607,
			"0.014": 6.89135537996,
			"0.015": 2.56769580874,
			"0.016": 0.0,
			"0.017": 0.0,
			"0.018": 0.0,
			"0.019": 0.0,
			"0.02": 0.0,
			"0.021": 0.0,
			"0.022": 0.0,
			"0.023": 0.0,
			"0.024": 0.0,
			"0.025": 0.0
		}
	}
}
