{
	 "smiles": "COC1=C(OCC2=CC=CS2)C=CC(C=O)=C1", 
	 "Tm": 353.15, 
	 "num_atms": 29, 
	 "gaussian": { 
		 "optdone": 1, 
		 "sigma_profile": "yes", 
		 "theory": "DFT", 
		 "functional": "B3LYP", 
		 "basiset": "6-31G**", 
		 "properties": { 
			 "R2extent": 6607.9589, 
			 "electric_dipole_moment_norm": 3.21643722463, 
			 "electric_quadrupole_moment_norm": 15.4437946192, 
			 "total_energy": -1126.42238817, 
			 "HOMO_LUMO_gap": 0.16822, 
			 "cosmo_polarized_energy": -12.31, 
			 "cosmo_cavitation_energy": 35.69, 
			 "cosmo_dispersion_energy": -25.61, 
			 "cosmo_repulsion_energy": 1.94, 
			 "cosmo_total_nonelectrostatic_energy": 12.02, 
			 "SMD_solvation_energy": 7.97 
		},
		"coords": [
			{
				"x": 3.1321137406,
				"y": -1.0096316467,
				"z": -2.2173416516,
				"element": "C" 
			},
			{
				"x": 1.7900745951,
				"y": -0.910143265,
				"z": -1.7576171442,
				"element": "O" 
			},
			{
				"x": 1.4801359897,
				"y": 0.1106869025,
				"z": -0.9052726636,
				"element": "C" 
			},
			{
				"x": 0.1260538235,
				"y": 0.1843974469,
				"z": -0.4792200156,
				"element": "C" 
			},
			{
				"x": -0.8382325979,
				"y": -0.6850048872,
				"z": -0.8978182858,
				"element": "O" 
			},
			{
				"x": -0.594659772,
				"y": -2.1071146658,
				"z": -0.7957924039,
				"element": "C" 
			},
			{
				"x": -1.9060781413,
				"y": -2.8206173174,
				"z": -0.793165645,
				"element": "C" 
			},
			{
				"x": -2.3434575405,
				"y": -3.7660422088,
				"z": -1.6837850251,
				"element": "C" 
			},
			{
				"x": -3.6377192729,
				"y": -4.2830801757,
				"z": -1.3735203273,
				"element": "C" 
			},
			{
				"x": -4.1724620549,
				"y": -3.7161767572,
				"z": -0.2500059535,
				"element": "C" 
			},
			{
				"x": -3.1029634341,
				"y": -2.5437998512,
				"z": 0.4487459729,
				"element": "S" 
			},
			{
				"x": -0.2805322463,
				"y": 1.2316037468,
				"z": 0.3498373098,
				"element": "C" 
			},
			{
				"x": 0.627703715,
				"y": 2.1970212277,
				"z": 0.7771989826,
				"element": "C" 
			},
			{
				"x": 1.9653047594,
				"y": 2.1106518528,
				"z": 0.3825100408,
				"element": "C" 
			},
			{
				"x": 2.9429935672,
				"y": 3.1170533862,
				"z": 0.8366564481,
				"element": "C" 
			},
			{
				"x": 4.1255994451,
				"y": 3.119882757,
				"z": 0.5425876557,
				"element": "O" 
			},
			{
				"x": 2.3858044107,
				"y": 1.0658898549,
				"z": -0.4584722168,
				"element": "C" 
			},
			{
				"x": 3.4306605216,
				"y": -0.1147938634,
				"z": -2.7765465404,
				"element": "H" 
			},
			{
				"x": 3.1579446016,
				"y": -1.8756363351,
				"z": -2.879998613,
				"element": "H" 
			},
			{
				"x": 3.8319639202,
				"y": -1.1650540839,
				"z": -1.3871484547,
				"element": "H" 
			},
			{
				"x": 0.0048150801,
				"y": -2.4520458604,
				"z": -1.6413324727,
				"element": "H" 
			},
			{
				"x": -0.0286248961,
				"y": -2.3011847628,
				"z": 0.1245771513,
				"element": "H" 
			},
			{
				"x": -1.7535108573,
				"y": -4.0825571614,
				"z": -2.5374195908,
				"element": "H" 
			},
			{
				"x": -4.1473811818,
				"y": -5.0352889406,
				"z": -1.9646333096,
				"element": "H" 
			},
			{
				"x": -5.1363682147,
				"y": -3.9046755543,
				"z": 0.202311239,
				"element": "H" 
			},
			{
				"x": -1.3244031252,
				"y": 1.2618224412,
				"z": 0.6436425918,
				"element": "H" 
			},
			{
				"x": 0.3026193264,
				"y": 3.0072031063,
				"z": 1.4245816831,
				"element": "H" 
			},
			{
				"x": 2.5176905381,
				"y": 3.90907929,
				"z": 1.4927858747,
				"element": "H" 
			},
			{
				"x": 3.4284153006,
				"y": 1.0490553243,
				"z": -0.7525446362,
				"element": "H" 
			}
		],
		 "valence_orbital": [ 
			{
				"type": "occ",
				"energy": -0.25269,
				"method": "rhf"
			},
			{
				"type": "occ",
				"energy": -0.25048,
				"method": "rhf"
			},
			{
				"type": "occ",
				"energy": -0.25002,
				"method": "rhf"
			},
			{
				"type": "occ",
				"energy": -0.23684,
				"method": "rhf"
			},
			{
				"type": "occ",
				"energy": -0.22444,
				"method": "rhf"
			},
			{
				"type": "unocc",
				"energy": -0.05622,
				"method": "rhf"
			},
			{
				"type": "unocc",
				"energy": -0.02043,
				"method": "rhf"
			},
			{
				"type": "unocc",
				"energy": -0.00206,
				"method": "rhf"
			},
			{
				"type": "unocc",
				"energy": 0.03052,
				"method": "rhf"
			},
			{
				"type": "unocc",
				"energy": 0.04724,
				"method": "rhf"
			}
		],
		"cosmo_sigma_profile": { 
			"-0.025": 0.0,
			"-0.024": 0.0,
			"-0.023": 0.0,
			"-0.022": 0.0,
			"-0.021": 0.0,
			"-0.02": 0.0,
			"-0.019": 0.0,
			"-0.018": 0.0,
			"-0.017": 0.0,
			"-0.016": 0.0,
			"-0.015": 0.0,
			"-0.014": 0.0,
			"-0.013": 0.0,
			"-0.012": 0.0,
			"-0.011": 0.0,
			"-0.01": 0.0,
			"-0.009": 0.320641215271,
			"-0.008": 2.25433595518,
			"-0.007": 8.91515406179,
			"-0.006": 24.9075278278,
			"-0.005": 24.4590537303,
			"-0.004": 25.6617217895,
			"-0.003": 21.100777466,
			"-0.002": 15.6859346476,
			"-0.001": 16.6704133087,
			"0.0": 15.8115418259,
			"0.001": 18.3420902727,
			"0.002": 23.4651730994,
			"0.003": 24.7536680674,
			"0.004": 18.7231779748,
			"0.005": 15.8457211693,
			"0.006": 6.65148880237,
			"0.007": 3.65462236958,
			"0.008": 4.17667228403,
			"0.009": 3.48972546857,
			"0.01": 3.59164531025,
			"0.011": 3.63006527048,
			"0.012": 4.17530639131,
			"0.013": 1.25343883588,
			"0.014": 0.0793321428262,
			"0.015": 0.0,
			"0.016": 0.0,
			"0.017": 0.0,
			"0.018": 0.0,
			"0.019": 0.0,
			"0.02": 0.0,
			"0.021": 0.0,
			"0.022": 0.0,
			"0.023": 0.0,
			"0.024": 0.0,
			"0.025": 0.0
		}
	}
}
