{
	 "smiles": "COC1=CC=CC=C1OC(C)=O", 
	 "Tm": 304.65, 
	 "num_atms": 22, 
	 "gaussian": { 
		 "optdone": 1, 
		 "sigma_profile": "yes", 
		 "theory": "DFT", 
		 "functional": "B3LYP", 
		 "basiset": "6-31G**", 
		 "properties": { 
			 "R2extent": 2472.2689, 
			 "electric_dipole_moment_norm": 1.84661873975, 
			 "electric_quadrupole_moment_norm": 13.1786612355, 
			 "total_energy": -574.649398154, 
			 "HOMO_LUMO_gap": 0.21657, 
			 "cosmo_polarized_energy": -10.53, 
			 "cosmo_cavitation_energy": 26.39, 
			 "cosmo_dispersion_energy": -18.77, 
			 "cosmo_repulsion_energy": 1.53, 
			 "cosmo_total_nonelectrostatic_energy": 9.15, 
			 "SMD_solvation_energy": 6.65 
		},
		"coords": [
			{
				"x": -0.9568292339,
				"y": 1.3438119995,
				"z": 2.7049657316,
				"element": "C" 
			},
			{
				"x": -0.407656523,
				"y": 0.8075818011,
				"z": 1.5111974147,
				"element": "O" 
			},
			{
				"x": 0.4257810998,
				"y": 1.5955680199,
				"z": 0.7791995808,
				"element": "C" 
			},
			{
				"x": 0.8688705525,
				"y": 2.8686759974,
				"z": 1.1502606127,
				"element": "C" 
			},
			{
				"x": 1.7463201174,
				"y": 3.5761140137,
				"z": 0.3213054217,
				"element": "C" 
			},
			{
				"x": 2.1901022611,
				"y": 3.0271874266,
				"z": -0.8782505642,
				"element": "C" 
			},
			{
				"x": 1.7438785451,
				"y": 1.7574196433,
				"z": -1.2583329173,
				"element": "C" 
			},
			{
				"x": 0.8725823916,
				"y": 1.0547530714,
				"z": -0.4412583446,
				"element": "C" 
			},
			{
				"x": 0.4979684149,
				"y": -0.2392820177,
				"z": -0.7977843829,
				"element": "O" 
			},
			{
				"x": -0.8032802972,
				"y": -0.4473697576,
				"z": -1.1884251805,
				"element": "C" 
			},
			{
				"x": -1.0418675478,
				"y": -1.9222428692,
				"z": -1.3935734504,
				"element": "C" 
			},
			{
				"x": -1.6097010546,
				"y": 0.4345377093,
				"z": -1.3378187427,
				"element": "O" 
			},
			{
				"x": -0.1767067538,
				"y": 1.5699245814,
				"z": 3.4432782625,
				"element": "H" 
			},
			{
				"x": -1.5404521406,
				"y": 2.2512220274,
				"z": 2.5064557753,
				"element": "H" 
			},
			{
				"x": -1.6158352453,
				"y": 0.5721289142,
				"z": 3.1052559124,
				"element": "H" 
			},
			{
				"x": 0.5378469069,
				"y": 3.3124359891,
				"z": 2.0816621788,
				"element": "H" 
			},
			{
				"x": 2.0814198557,
				"y": 4.5627820827,
				"z": 0.6271716896,
				"element": "H" 
			},
			{
				"x": 2.8718856384,
				"y": 3.5769048799,
				"z": -1.5189648068,
				"element": "H" 
			},
			{
				"x": 2.0659152621,
				"y": 1.2984350848,
				"z": -2.1874761074,
				"element": "H" 
			},
			{
				"x": -0.2660253522,
				"y": -2.3509803834,
				"z": -2.0333799205,
				"element": "H" 
			},
			{
				"x": -2.0257152436,
				"y": -2.072171077,
				"z": -1.836935911,
				"element": "H" 
			},
			{
				"x": -0.9907016533,
				"y": -2.4350371366,
				"z": -0.4279522517,
				"element": "H" 
			}
		],
		 "valence_orbital": [ 
			{
				"type": "occ",
				"energy": -0.32132,
				"method": "rhf"
			},
			{
				"type": "occ",
				"energy": -0.30472,
				"method": "rhf"
			},
			{
				"type": "occ",
				"energy": -0.26964,
				"method": "rhf"
			},
			{
				"type": "occ",
				"energy": -0.24665,
				"method": "rhf"
			},
			{
				"type": "occ",
				"energy": -0.21894,
				"method": "rhf"
			},
			{
				"type": "unocc",
				"energy": -0.00237,
				"method": "rhf"
			},
			{
				"type": "unocc",
				"energy": 0.01044,
				"method": "rhf"
			},
			{
				"type": "unocc",
				"energy": 0.01879,
				"method": "rhf"
			},
			{
				"type": "unocc",
				"energy": 0.0835,
				"method": "rhf"
			},
			{
				"type": "unocc",
				"energy": 0.1024,
				"method": "rhf"
			}
		],
		"cosmo_sigma_profile": { 
			"-0.025": 0.0,
			"-0.024": 0.0,
			"-0.023": 0.0,
			"-0.022": 0.0,
			"-0.021": 0.0,
			"-0.02": 0.0,
			"-0.019": 0.0,
			"-0.018": 0.0,
			"-0.017": 0.0,
			"-0.016": 0.0,
			"-0.015": 0.0,
			"-0.014": 0.0,
			"-0.013": 0.0,
			"-0.012": 0.0,
			"-0.011": 0.0,
			"-0.01": 0.0,
			"-0.009": 0.0,
			"-0.008": 0.0,
			"-0.007": 3.94235190495,
			"-0.006": 17.4074621543,
			"-0.005": 21.889656062,
			"-0.004": 23.4509615122,
			"-0.003": 20.9010115128,
			"-0.002": 17.0160884576,
			"-0.001": 12.0184388023,
			"0.0": 8.0616350359,
			"0.001": 8.30669360023,
			"0.002": 10.8844184695,
			"0.003": 10.9154659624,
			"0.004": 10.7662361739,
			"0.005": 13.926792031,
			"0.006": 6.01043547888,
			"0.007": 3.95980174084,
			"0.008": 4.40188878828,
			"0.009": 4.05708104237,
			"0.01": 3.2543169189,
			"0.011": 4.7150038737,
			"0.012": 3.82404313654,
			"0.013": 0.256918106631,
			"0.014": 0.0,
			"0.015": 0.0,
			"0.016": 0.0,
			"0.017": 0.0,
			"0.018": 0.0,
			"0.019": 0.0,
			"0.02": 0.0,
			"0.021": 0.0,
			"0.022": 0.0,
			"0.023": 0.0,
			"0.024": 0.0,
			"0.025": 0.0
		}
	}
}
