{
	 "smiles": "FC1=CC=C(C=C1)C1=NNC(=O)C2=C1C=CC=C2", 
	 "Tm": 544.15, 
	 "num_atms": 27, 
	 "gaussian": { 
		 "optdone": 1, 
		 "sigma_profile": "yes", 
		 "theory": "DFT", 
		 "functional": "B3LYP", 
		 "basiset": "6-31G**", 
		 "properties": { 
			 "R2extent": 5667.4894, 
			 "electric_dipole_moment_norm": 2.68611881718, 
			 "electric_quadrupole_moment_norm": 14.4305628355, 
			 "total_energy": -823.476944649, 
			 "HOMO_LUMO_gap": 0.16705, 
			 "cosmo_polarized_energy": -12.53, 
			 "cosmo_cavitation_energy": 32.15, 
			 "cosmo_dispersion_energy": -23.5, 
			 "cosmo_repulsion_energy": 1.76, 
			 "cosmo_total_nonelectrostatic_energy": 10.4, 
			 "SMD_solvation_energy": 5.64 
		},
		"coords": [
			{
				"x": -2.2939657164,
				"y": 5.3419597209,
				"z": -1.0941401872,
				"element": "F" 
			},
			{
				"x": -1.7051765628,
				"y": 4.283565991,
				"z": -0.5018603957,
				"element": "C" 
			},
			{
				"x": -0.5728864803,
				"y": 4.4894963296,
				"z": 0.2791198447,
				"element": "C" 
			},
			{
				"x": 0.0318629251,
				"y": 3.3905432687,
				"z": 0.8839133348,
				"element": "C" 
			},
			{
				"x": -0.4804732364,
				"y": 2.0946718812,
				"z": 0.7107508049,
				"element": "C" 
			},
			{
				"x": -1.6322828143,
				"y": 1.9273292018,
				"z": -0.0754653622,
				"element": "C" 
			},
			{
				"x": -2.2494311919,
				"y": 3.0180226856,
				"z": -0.6867686167,
				"element": "C" 
			},
			{
				"x": 0.1617535638,
				"y": 0.9485609854,
				"z": 1.412388723,
				"element": "C" 
			},
			{
				"x": 0.4338103245,
				"y": 1.1559262007,
				"z": 2.6725619903,
				"element": "N" 
			},
			{
				"x": 1.0059698772,
				"y": 0.1543967882,
				"z": 3.376409362,
				"element": "N" 
			},
			{
				"x": 1.3081871383,
				"y": -1.1353295117,
				"z": 2.9609987717,
				"element": "C" 
			},
			{
				"x": 1.7704739391,
				"y": -1.9595886824,
				"z": 3.7425499228,
				"element": "O" 
			},
			{
				"x": 1.0376830573,
				"y": -1.354490847,
				"z": 1.5314752633,
				"element": "C" 
			},
			{
				"x": 0.4857759604,
				"y": -0.3129977432,
				"z": 0.7476147933,
				"element": "C" 
			},
			{
				"x": 0.3206630676,
				"y": -0.5380659292,
				"z": -0.6356607802,
				"element": "C" 
			},
			{
				"x": 0.6567753982,
				"y": -1.7634441717,
				"z": -1.1941032084,
				"element": "C" 
			},
			{
				"x": 1.171884782,
				"y": -2.7988912828,
				"z": -0.3977664302,
				"element": "C" 
			},
			{
				"x": 1.3686001106,
				"y": -2.5904597909,
				"z": 0.9590288911,
				"element": "C" 
			},
			{
				"x": -0.18103157,
				"y": 5.4934325108,
				"z": 0.4012114334,
				"element": "H" 
			},
			{
				"x": 0.9117396537,
				"y": 3.5290467985,
				"z": 1.5028396593,
				"element": "H" 
			},
			{
				"x": -2.0681384416,
				"y": 0.9403098486,
				"z": -0.1923261504,
				"element": "H" 
			},
			{
				"x": -3.1442964019,
				"y": 2.9011461769,
				"z": -1.2882309871,
				"element": "H" 
			},
			{
				"x": 1.1758131341,
				"y": 0.3640975012,
				"z": 4.3522846517,
				"element": "H" 
			},
			{
				"x": -0.0572166543,
				"y": 0.2564828211,
				"z": -1.2677742429,
				"element": "H" 
			},
			{
				"x": 0.5247374935,
				"y": -1.9181421481,
				"z": -2.2610434783,
				"element": "H" 
			},
			{
				"x": 1.4276360001,
				"y": -3.7536727348,
				"z": -0.8471351465,
				"element": "H" 
			},
			{
				"x": 1.7855326445,
				"y": -3.3559058686,
				"z": 1.6047275395,
				"element": "H" 
			}
		],
		 "valence_orbital": [ 
			{
				"type": "occ",
				"energy": -0.27039,
				"method": "rhf"
			},
			{
				"type": "occ",
				"energy": -0.26826,
				"method": "rhf"
			},
			{
				"type": "occ",
				"energy": -0.25911,
				"method": "rhf"
			},
			{
				"type": "occ",
				"energy": -0.25342,
				"method": "rhf"
			},
			{
				"type": "occ",
				"energy": -0.22576,
				"method": "rhf"
			},
			{
				"type": "unocc",
				"energy": -0.05871,
				"method": "rhf"
			},
			{
				"type": "unocc",
				"energy": -0.04745,
				"method": "rhf"
			},
			{
				"type": "unocc",
				"energy": -0.0198,
				"method": "rhf"
			},
			{
				"type": "unocc",
				"energy": -0.01559,
				"method": "rhf"
			},
			{
				"type": "unocc",
				"energy": 0.03693,
				"method": "rhf"
			}
		],
		"cosmo_sigma_profile": { 
			"-0.025": 0.0,
			"-0.024": 0.0,
			"-0.023": 0.0,
			"-0.022": 0.0,
			"-0.021": 0.0,
			"-0.02": 0.0,
			"-0.019": 0.0,
			"-0.018": 0.0,
			"-0.017": 0.0,
			"-0.016": 0.506816142793,
			"-0.015": 1.27768423637,
			"-0.014": 0.90683290233,
			"-0.013": 0.548592418341,
			"-0.012": 0.901152704813,
			"-0.011": 0.951721079403,
			"-0.01": 0.952004707913,
			"-0.009": 0.530132845214,
			"-0.008": 1.49969776115,
			"-0.007": 9.36560811403,
			"-0.006": 15.2514598824,
			"-0.005": 18.43699071,
			"-0.004": 15.5606239346,
			"-0.003": 15.1127781493,
			"-0.002": 15.6965329696,
			"-0.001": 19.399110023,
			"0.0": 22.1870141396,
			"0.001": 24.0579222612,
			"0.002": 25.5153584134,
			"0.003": 22.962611002,
			"0.004": 17.3704891236,
			"0.005": 5.05272560634,
			"0.006": 2.35213583016,
			"0.007": 2.82407890229,
			"0.008": 2.05037868616,
			"0.009": 2.39603923145,
			"0.01": 2.28580298436,
			"0.011": 2.56466953471,
			"0.012": 2.86619051919,
			"0.013": 6.29145355193,
			"0.014": 1.71878298444,
			"0.015": 0.0,
			"0.016": 0.0,
			"0.017": 0.0,
			"0.018": 0.0,
			"0.019": 0.0,
			"0.02": 0.0,
			"0.021": 0.0,
			"0.022": 0.0,
			"0.023": 0.0,
			"0.024": 0.0,
			"0.025": 0.0
		}
	}
}
