{
	 "smiles": "CN(C)P(=O)(N(C)C)N(C)C", 
	 "Tm": 280.35, 
	 "num_atms": 29, 
	 "gaussian": { 
		 "optdone": 1, 
		 "sigma_profile": "yes", 
		 "theory": "DFT", 
		 "functional": "B3LYP", 
		 "basiset": "6-31G**", 
		 "properties": { 
			 "R2extent": 2749.1706, 
			 "electric_dipole_moment_norm": 3.62966461949, 
			 "electric_quadrupole_moment_norm": 17.4226363002, 
			 "total_energy": -820.352336936, 
			 "HOMO_LUMO_gap": 0.27916, 
			 "cosmo_polarized_energy": -10.91, 
			 "cosmo_cavitation_energy": 30.29, 
			 "cosmo_dispersion_energy": -20.75, 
			 "cosmo_repulsion_energy": 1.61, 
			 "cosmo_total_nonelectrostatic_energy": 11.15, 
			 "SMD_solvation_energy": 7.43 
		},
		"coords": [
			{
				"x": -1.3521304981,
				"y": 0.3217930245,
				"z": -0.4323210064,
				"element": "C" 
			},
			{
				"x": -1.179340151,
				"y": -1.0920403367,
				"z": -0.1246070326,
				"element": "N" 
			},
			{
				"x": -2.2285570502,
				"y": -1.65153502,
				"z": 0.7250498513,
				"element": "C" 
			},
			{
				"x": 0.3208684057,
				"y": -1.8773159729,
				"z": -0.1760026311,
				"element": "P" 
			},
			{
				"x": 0.1684885229,
				"y": -3.3068293187,
				"z": 0.2313393401,
				"element": "O" 
			},
			{
				"x": 0.8439687932,
				"y": -1.4937082694,
				"z": -1.7419771074,
				"element": "N" 
			},
			{
				"x": 2.2354562029,
				"y": -1.7970321694,
				"z": -2.0935827958,
				"element": "C" 
			},
			{
				"x": -0.0678629938,
				"y": -1.7754343171,
				"z": -2.8561300271,
				"element": "C" 
			},
			{
				"x": 1.5106345921,
				"y": -1.1254265475,
				"z": 0.76713942,
				"element": "N" 
			},
			{
				"x": 1.8549863171,
				"y": 0.284762681,
				"z": 0.6397565462,
				"element": "C" 
			},
			{
				"x": 1.8349531052,
				"y": -1.7049743561,
				"z": 2.0689290048,
				"element": "C" 
			},
			{
				"x": -0.5901427415,
				"y": 0.652980402,
				"z": -1.1394863315,
				"element": "H" 
			},
			{
				"x": -2.3349998568,
				"y": 0.4808769917,
				"z": -0.8952138643,
				"element": "H" 
			},
			{
				"x": -1.301581158,
				"y": 0.9591196792,
				"z": 0.4646134306,
				"element": "H" 
			},
			{
				"x": -2.2841787973,
				"y": -1.1459421431,
				"z": 1.7020660572,
				"element": "H" 
			},
			{
				"x": -2.0347406331,
				"y": -2.7117538318,
				"z": 0.8855984175,
				"element": "H" 
			},
			{
				"x": -3.2027755312,
				"y": -1.5371271,
				"z": 0.2319149891,
				"element": "H" 
			},
			{
				"x": 2.3630600381,
				"y": -2.8472316061,
				"z": -2.3948908584,
				"element": "H" 
			},
			{
				"x": 2.8896291957,
				"y": -1.5998578212,
				"z": -1.2447783246,
				"element": "H" 
			},
			{
				"x": 2.543063539,
				"y": -1.1615683712,
				"z": -2.9326279229,
				"element": "H" 
			},
			{
				"x": -0.0069958989,
				"y": -2.8245954468,
				"z": -3.1809497418,
				"element": "H" 
			},
			{
				"x": -1.0960323811,
				"y": -1.564228788,
				"z": -2.5635413206,
				"element": "H" 
			},
			{
				"x": 0.1953860182,
				"y": -1.1383656624,
				"z": -3.7089381724,
				"element": "H" 
			},
			{
				"x": 1.2876569373,
				"y": 0.9232857799,
				"z": 1.3352332906,
				"element": "H" 
			},
			{
				"x": 1.672749223,
				"y": 0.6299855675,
				"z": -0.3790627688,
				"element": "H" 
			},
			{
				"x": 2.9217754447,
				"y": 0.4249663408,
				"z": 0.8584470482,
				"element": "H" 
			},
			{
				"x": 1.3052697079,
				"y": -1.1988264297,
				"z": 2.8914588738,
				"element": "H" 
			},
			{
				"x": 1.5643213618,
				"y": -2.7604808198,
				"z": 2.0702889534,
				"element": "H" 
			},
			{
				"x": 2.9127702861,
				"y": -1.6118961386,
				"z": 2.2559746831,
				"element": "H" 
			}
		],
		 "valence_orbital": [ 
			{
				"type": "occ",
				"energy": -0.287,
				"method": "rhf"
			},
			{
				"type": "occ",
				"energy": -0.26561,
				"method": "rhf"
			},
			{
				"type": "occ",
				"energy": -0.24539,
				"method": "rhf"
			},
			{
				"type": "occ",
				"energy": -0.22873,
				"method": "rhf"
			},
			{
				"type": "occ",
				"energy": -0.21196,
				"method": "rhf"
			},
			{
				"type": "unocc",
				"energy": 0.0672,
				"method": "rhf"
			},
			{
				"type": "unocc",
				"energy": 0.08744,
				"method": "rhf"
			},
			{
				"type": "unocc",
				"energy": 0.10152,
				"method": "rhf"
			},
			{
				"type": "unocc",
				"energy": 0.11281,
				"method": "rhf"
			},
			{
				"type": "unocc",
				"energy": 0.11594,
				"method": "rhf"
			}
		],
		"cosmo_sigma_profile": { 
			"-0.025": 0.0,
			"-0.024": 0.0,
			"-0.023": 0.0,
			"-0.022": 0.0,
			"-0.021": 0.0,
			"-0.02": 0.0,
			"-0.019": 0.0,
			"-0.018": 0.0,
			"-0.017": 0.0,
			"-0.016": 0.0,
			"-0.015": 0.0,
			"-0.014": 0.0,
			"-0.013": 0.0,
			"-0.012": 0.0,
			"-0.011": 0.0,
			"-0.01": 0.0,
			"-0.009": 0.0,
			"-0.008": 0.0,
			"-0.007": 0.0,
			"-0.006": 0.0,
			"-0.005": 0.595711267316,
			"-0.004": 15.7502048223,
			"-0.003": 37.9909602255,
			"-0.002": 45.4916247666,
			"-0.001": 58.3836672441,
			"0.0": 25.9887354677,
			"0.001": 7.64974540312,
			"0.002": 4.67489286994,
			"0.003": 6.0442970231,
			"0.004": 5.23303822592,
			"0.005": 2.71294076683,
			"0.006": 2.06561306534,
			"0.007": 2.40389402378,
			"0.008": 1.23478555009,
			"0.009": 2.03463291562,
			"0.01": 0.708982920867,
			"0.011": 1.4012109354,
			"0.012": 1.27146431065,
			"0.013": 1.0096274872,
			"0.014": 1.85579597768,
			"0.015": 1.7636032451,
			"0.016": 3.67300451047,
			"0.017": 2.51823857259,
			"0.018": 0.03305770871,
			"0.019": 0.0,
			"0.02": 0.0,
			"0.021": 0.0,
			"0.022": 0.0,
			"0.023": 0.0,
			"0.024": 0.0,
			"0.025": 0.0
		}
	}
}
