{
	 "smiles": "CC(C)(C)Cl", 
	 "Tm": 247.65, 
	 "num_atms": 14, 
	 "gaussian": { 
		 "optdone": 1, 
		 "sigma_profile": "yes", 
		 "theory": "DFT", 
		 "functional": "B3LYP", 
		 "basiset": "6-31G**", 
		 "properties": { 
			 "R2extent": 707.5177, 
			 "electric_dipole_moment_norm": 2.44381626355, 
			 "electric_quadrupole_moment_norm": 3.76372339047, 
			 "total_energy": -618.065814153, 
			 "HOMO_LUMO_gap": 0.30553, 
			 "cosmo_polarized_energy": -4.09, 
			 "cosmo_cavitation_energy": 17.64, 
			 "cosmo_dispersion_energy": -12.94, 
			 "cosmo_repulsion_energy": 1.12, 
			 "cosmo_total_nonelectrostatic_energy": 5.82, 
			 "SMD_solvation_energy": 3.03 
		},
		"coords": [
			{
				"x": 1.1192199373,
				"y": -1.438663392,
				"z": 0.2161205885,
				"element": "C" 
			},
			{
				"x": -0.07931949,
				"y": -0.5492257208,
				"z": -0.1137720091,
				"element": "C" 
			},
			{
				"x": -1.0835972199,
				"y": -0.4995753069,
				"z": 1.0375154964,
				"element": "C" 
			},
			{
				"x": 0.3547526906,
				"y": 0.850146906,
				"z": -0.5494211877,
				"element": "C" 
			},
			{
				"x": -0.9522528937,
				"y": -1.3264925002,
				"z": -1.5660205486,
				"element": "Cl" 
			},
			{
				"x": 1.6616729901,
				"y": -1.0135205357,
				"z": 1.0691312317,
				"element": "H" 
			},
			{
				"x": 0.7990488429,
				"y": -2.4493599031,
				"z": 0.4816156678,
				"element": "H" 
			},
			{
				"x": 1.8070631584,
				"y": -1.5036801285,
				"z": -0.6307301706,
				"element": "H" 
			},
			{
				"x": -0.6064363631,
				"y": -0.046709376,
				"z": 1.9149328008,
				"element": "H" 
			},
			{
				"x": -1.9573799796,
				"y": 0.1013061057,
				"z": 0.7730257377,
				"element": "H" 
			},
			{
				"x": -1.4216310153,
				"y": -1.5026963729,
				"z": 1.3095399727,
				"element": "H" 
			},
			{
				"x": -0.5073454717,
				"y": 1.4619558353,
				"z": -0.8268764616,
				"element": "H" 
			},
			{
				"x": 0.8744129756,
				"y": 1.3429888286,
				"z": 0.2810558104,
				"element": "H" 
			},
			{
				"x": 1.0364918385,
				"y": 0.8039255606,
				"z": -1.4024169285,
				"element": "H" 
			}
		],
		 "valence_orbital": [ 
			{
				"type": "occ",
				"energy": -0.35436,
				"method": "rhf"
			},
			{
				"type": "occ",
				"energy": -0.35436,
				"method": "rhf"
			},
			{
				"type": "occ",
				"energy": -0.34621,
				"method": "rhf"
			},
			{
				"type": "occ",
				"energy": -0.28541,
				"method": "rhf"
			},
			{
				"type": "occ",
				"energy": -0.28541,
				"method": "rhf"
			},
			{
				"type": "unocc",
				"energy": 0.02012,
				"method": "rhf"
			},
			{
				"type": "unocc",
				"energy": 0.07874,
				"method": "rhf"
			},
			{
				"type": "unocc",
				"energy": 0.1426,
				"method": "rhf"
			},
			{
				"type": "unocc",
				"energy": 0.1426,
				"method": "rhf"
			},
			{
				"type": "unocc",
				"energy": 0.14323,
				"method": "rhf"
			}
		],
		"cosmo_sigma_profile": { 
			"-0.025": 0.0,
			"-0.024": 0.0,
			"-0.023": 0.0,
			"-0.022": 0.0,
			"-0.021": 0.0,
			"-0.02": 0.0,
			"-0.019": 0.0,
			"-0.018": 0.0,
			"-0.017": 0.0,
			"-0.016": 0.0,
			"-0.015": 0.0,
			"-0.014": 0.0,
			"-0.013": 0.0,
			"-0.012": 0.0,
			"-0.011": 0.0,
			"-0.01": 0.0,
			"-0.009": 0.0,
			"-0.008": 0.0,
			"-0.007": 0.0,
			"-0.006": 0.241578843441,
			"-0.005": 5.70980770821,
			"-0.004": 16.2740135159,
			"-0.003": 18.3873115615,
			"-0.002": 16.186978833,
			"-0.001": 17.7023505579,
			"0.0": 20.9380149764,
			"0.001": 6.60554838175,
			"0.002": 4.35908277964,
			"0.003": 4.71524979236,
			"0.004": 3.25280942794,
			"0.005": 5.49673109891,
			"0.006": 5.63759714052,
			"0.007": 9.40952684535,
			"0.008": 3.83370615917,
			"0.009": 0.0,
			"0.01": 0.0,
			"0.011": 0.0,
			"0.012": 0.0,
			"0.013": 0.0,
			"0.014": 0.0,
			"0.015": 0.0,
			"0.016": 0.0,
			"0.017": 0.0,
			"0.018": 0.0,
			"0.019": 0.0,
			"0.02": 0.0,
			"0.021": 0.0,
			"0.022": 0.0,
			"0.023": 0.0,
			"0.024": 0.0,
			"0.025": 0.0
		}
	}
}
