{
	 "smiles": "N=C1N(C(=O)C2=CC=CC=C12)C1=NNC2=C1C=CC=N2", 
	 "Tm": 527.15, 
	 "num_atms": 29, 
	 "gaussian": { 
		 "optdone": 1, 
		 "sigma_profile": "yes", 
		 "theory": "DFT", 
		 "functional": "B3LYP", 
		 "basiset": "6-31G**", 
		 "properties": { 
			 "R2extent": 7012.5657, 
			 "electric_dipole_moment_norm": 1.24473181851, 
			 "electric_quadrupole_moment_norm": 13.8418807389, 
			 "total_energy": -887.89499321, 
			 "HOMO_LUMO_gap": 0.15507, 
			 "cosmo_polarized_energy": -12.97, 
			 "cosmo_cavitation_energy": 33.72, 
			 "cosmo_dispersion_energy": -25.48, 
			 "cosmo_repulsion_energy": 1.87, 
			 "cosmo_total_nonelectrostatic_energy": 10.1, 
			 "SMD_solvation_energy": 2.82 
		},
		"coords": [
			{
				"x": -1.6993927703,
				"y": 0.8205497102,
				"z": -0.5386859899,
				"element": "N" 
			},
			{
				"x": -0.7567673185,
				"y": 0.3878017299,
				"z": -1.2679054098,
				"element": "C" 
			},
			{
				"x": 0.1781801536,
				"y": -0.6981094304,
				"z": -1.0487748626,
				"element": "N" 
			},
			{
				"x": 1.0634583557,
				"y": -0.8166952796,
				"z": -2.147549191,
				"element": "C" 
			},
			{
				"x": 1.9618640761,
				"y": -1.6287673343,
				"z": -2.2680992184,
				"element": "O" 
			},
			{
				"x": 0.6771120252,
				"y": 0.2397935338,
				"z": -3.1087905199,
				"element": "C" 
			},
			{
				"x": 1.2322327753,
				"y": 0.5488041682,
				"z": -4.3461117863,
				"element": "C" 
			},
			{
				"x": 0.6651368118,
				"y": 1.6103597915,
				"z": -5.0560874109,
				"element": "C" 
			},
			{
				"x": -0.42092477,
				"y": 2.328640583,
				"z": -4.5312902503,
				"element": "C" 
			},
			{
				"x": -0.9701541391,
				"y": 2.0081242066,
				"z": -3.285762586,
				"element": "C" 
			},
			{
				"x": -0.3991819606,
				"y": 0.9505371848,
				"z": -2.586999675,
				"element": "C" 
			},
			{
				"x": 0.1882548385,
				"y": -1.5105608888,
				"z": 0.1034780655,
				"element": "C" 
			},
			{
				"x": -0.7154622679,
				"y": -1.2624445808,
				"z": 1.0434887496,
				"element": "N" 
			},
			{
				"x": -0.5098116015,
				"y": -2.1592026517,
				"z": 2.0364636157,
				"element": "N" 
			},
			{
				"x": 0.5221242156,
				"y": -2.9984154488,
				"z": 1.7614059922,
				"element": "C" 
			},
			{
				"x": 1.0324522544,
				"y": -2.6211631681,
				"z": 0.487448402,
				"element": "C" 
			},
			{
				"x": 2.1212654885,
				"y": -3.3785570732,
				"z": 0.012837157,
				"element": "C" 
			},
			{
				"x": 2.5859675726,
				"y": -4.4057564041,
				"z": 0.8212482128,
				"element": "C" 
			},
			{
				"x": 1.9795461062,
				"y": -4.6678446229,
				"z": 2.067771736,
				"element": "C" 
			},
			{
				"x": 0.9504724062,
				"y": -3.9820378113,
				"z": 2.5594074145,
				"element": "N" 
			},
			{
				"x": -1.7689541362,
				"y": 0.2852549069,
				"z": 0.3287178857,
				"element": "H" 
			},
			{
				"x": 2.0717429229,
				"y": -0.0184237068,
				"z": -4.7346550284,
				"element": "H" 
			},
			{
				"x": 1.067427914,
				"y": 1.8855934177,
				"z": -6.0264019485,
				"element": "H" 
			},
			{
				"x": -0.8413200319,
				"y": 3.1490773386,
				"z": -5.1055677274,
				"element": "H" 
			},
			{
				"x": -1.8090040725,
				"y": 2.5554415894,
				"z": -2.8695549994,
				"element": "H" 
			},
			{
				"x": -1.0933455537,
				"y": -2.1482164324,
				"z": 2.8577393826,
				"element": "H" 
			},
			{
				"x": 2.5686201697,
				"y": -3.1585758594,
				"z": -0.9450946618,
				"element": "H" 
			},
			{
				"x": 3.4222656242,
				"y": -5.0174770654,
				"z": 0.4997724394,
				"element": "H" 
			},
			{
				"x": 2.3545949118,
				"y": -5.4770304028,
				"z": 2.6917522126,
				"element": "H" 
			}
		],
		 "valence_orbital": [ 
			{
				"type": "occ",
				"energy": -0.27202,
				"method": "rhf"
			},
			{
				"type": "occ",
				"energy": -0.26234,
				"method": "rhf"
			},
			{
				"type": "occ",
				"energy": -0.26122,
				"method": "rhf"
			},
			{
				"type": "occ",
				"energy": -0.25766,
				"method": "rhf"
			},
			{
				"type": "occ",
				"energy": -0.22572,
				"method": "rhf"
			},
			{
				"type": "unocc",
				"energy": -0.07065,
				"method": "rhf"
			},
			{
				"type": "unocc",
				"energy": -0.05188,
				"method": "rhf"
			},
			{
				"type": "unocc",
				"energy": -0.03461,
				"method": "rhf"
			},
			{
				"type": "unocc",
				"energy": 0.00651,
				"method": "rhf"
			},
			{
				"type": "unocc",
				"energy": 0.03278,
				"method": "rhf"
			}
		],
		"cosmo_sigma_profile": { 
			"-0.025": 0.0,
			"-0.024": 0.0,
			"-0.023": 0.0,
			"-0.022": 0.0,
			"-0.021": 0.0,
			"-0.02": 0.0,
			"-0.019": 0.0,
			"-0.018": 0.0287943453847,
			"-0.017": 1.17143114615,
			"-0.016": 1.20299236245,
			"-0.015": 1.45792287209,
			"-0.014": 0.717747826166,
			"-0.013": 0.323213071137,
			"-0.012": 1.09860196302,
			"-0.011": 1.15222753757,
			"-0.01": 0.52783011852,
			"-0.009": 0.424723908606,
			"-0.008": 1.64426982109,
			"-0.007": 10.0503228835,
			"-0.006": 13.3423079521,
			"-0.005": 17.1715804908,
			"-0.004": 15.6829383293,
			"-0.003": 14.4984506385,
			"-0.002": 16.1062633433,
			"-0.001": 20.9172465914,
			"0.0": 28.9501439983,
			"0.001": 31.0865128303,
			"0.002": 29.923041025,
			"0.003": 19.5377086146,
			"0.004": 7.91089322973,
			"0.005": 6.15922057055,
			"0.006": 5.60471239375,
			"0.007": 4.524327835,
			"0.008": 3.07789209278,
			"0.009": 3.79936398426,
			"0.01": 4.43845885032,
			"0.011": 3.37926451221,
			"0.012": 2.31701854482,
			"0.013": 2.10312665116,
			"0.014": 1.50177100982,
			"0.015": 1.58186206368,
			"0.016": 0.0809301546206,
			"0.017": 0.0,
			"0.018": 0.0,
			"0.019": 0.0,
			"0.02": 0.0,
			"0.021": 0.0,
			"0.022": 0.0,
			"0.023": 0.0,
			"0.024": 0.0,
			"0.025": 0.0
		}
	}
}
