{
	 "smiles": "CCCCCCCOC(=O)CCCCC", 
	 "Tm": 238.75, 
	 "num_atms": 41, 
	 "gaussian": { 
		 "optdone": 1, 
		 "sigma_profile": "yes", 
		 "theory": "DFT", 
		 "functional": "B3LYP", 
		 "basiset": "6-31G**", 
		 "properties": { 
			 "R2extent": 7268.7122, 
			 "electric_dipole_moment_norm": 1.80835205367, 
			 "electric_quadrupole_moment_norm": 11.8378626546, 
			 "total_energy": -661.548442224, 
			 "HOMO_LUMO_gap": 0.28329, 
			 "cosmo_polarized_energy": -6.55, 
			 "cosmo_cavitation_energy": 41.8, 
			 "cosmo_dispersion_energy": -28.63, 
			 "cosmo_repulsion_energy": 2.37, 
			 "cosmo_total_nonelectrostatic_energy": 15.54, 
			 "SMD_solvation_energy": 7.03 
		},
		"coords": [
			{
				"x": -0.9204363088,
				"y": 3.8357382005,
				"z": 1.0293673679,
				"element": "C" 
			},
			{
				"x": -0.304863733,
				"y": 2.5573694311,
				"z": 1.60822004,
				"element": "C" 
			},
			{
				"x": 1.151132366,
				"y": 2.745963253,
				"z": 2.0566288933,
				"element": "C" 
			},
			{
				"x": 1.7803254249,
				"y": 1.5159949587,
				"z": 2.7350684607,
				"element": "C" 
			},
			{
				"x": 1.8977556703,
				"y": 0.2518353755,
				"z": 1.8659609816,
				"element": "C" 
			},
			{
				"x": 2.8261580728,
				"y": 0.4028160402,
				"z": 0.6527999916,
				"element": "C" 
			},
			{
				"x": 2.9788665173,
				"y": -0.873428306,
				"z": -0.1609929005,
				"element": "C" 
			},
			{
				"x": 1.6891334812,
				"y": -1.1932783403,
				"z": -0.7332767066,
				"element": "O" 
			},
			{
				"x": 1.6315345207,
				"y": -2.3264601056,
				"z": -1.4703721238,
				"element": "C" 
			},
			{
				"x": 2.5842765453,
				"y": -3.0546997935,
				"z": -1.6514490717,
				"element": "O" 
			},
			{
				"x": 0.237486746,
				"y": -2.536185383,
				"z": -2.0306000428,
				"element": "C" 
			},
			{
				"x": 0.0843387788,
				"y": -3.876169465,
				"z": -2.758493283,
				"element": "C" 
			},
			{
				"x": -1.2854068184,
				"y": -4.0920719988,
				"z": -3.4353502974,
				"element": "C" 
			},
			{
				"x": -2.3850681695,
				"y": -4.7296422341,
				"z": -2.5664428171,
				"element": "C" 
			},
			{
				"x": -2.8569107181,
				"y": -3.9061790055,
				"z": -1.3621278868,
				"element": "C" 
			},
			{
				"x": -1.957756217,
				"y": 3.676136591,
				"z": 0.7171251656,
				"element": "H" 
			},
			{
				"x": -0.3603125129,
				"y": 4.183890852,
				"z": 0.1537799271,
				"element": "H" 
			},
			{
				"x": -0.9157226341,
				"y": 4.6471573628,
				"z": 1.7662831958,
				"element": "H" 
			},
			{
				"x": -0.9039758028,
				"y": 2.2170778988,
				"z": 2.4643570446,
				"element": "H" 
			},
			{
				"x": -0.3647814933,
				"y": 1.757878376,
				"z": 0.8590537143,
				"element": "H" 
			},
			{
				"x": 1.1959396502,
				"y": 3.5872310321,
				"z": 2.7618121026,
				"element": "H" 
			},
			{
				"x": 1.7577407932,
				"y": 3.0524009962,
				"z": 1.1934541642,
				"element": "H" 
			},
			{
				"x": 1.1905567086,
				"y": 1.2694646843,
				"z": 3.62841137,
				"element": "H" 
			},
			{
				"x": 2.7803781588,
				"y": 1.7881697119,
				"z": 3.1001662735,
				"element": "H" 
			},
			{
				"x": 0.907444201,
				"y": -0.06454142,
				"z": 1.520199125,
				"element": "H" 
			},
			{
				"x": 2.2739182238,
				"y": -0.5675230306,
				"z": 2.4938875805,
				"element": "H" 
			},
			{
				"x": 2.4682637127,
				"y": 1.1983945696,
				"z": -0.0113255112,
				"element": "H" 
			},
			{
				"x": 3.8282539134,
				"y": 0.7036295191,
				"z": 0.9879770328,
				"element": "H" 
			},
			{
				"x": 3.3101059489,
				"y": -1.7153920745,
				"z": 0.4567599401,
				"element": "H" 
			},
			{
				"x": 3.7045331308,
				"y": -0.7546954145,
				"z": -0.9722413259,
				"element": "H" 
			},
			{
				"x": 0.0319709429,
				"y": -1.7009419842,
				"z": -2.7140115291,
				"element": "H" 
			},
			{
				"x": -0.4758279382,
				"y": -2.4189831133,
				"z": -1.2088497974,
				"element": "H" 
			},
			{
				"x": 0.2897037942,
				"y": -4.6966065074,
				"z": -2.0596276128,
				"element": "H" 
			},
			{
				"x": 0.8764290556,
				"y": -3.9332998279,
				"z": -3.5122770461,
				"element": "H" 
			},
			{
				"x": -1.6495887513,
				"y": -3.1377702928,
				"z": -3.8428758425,
				"element": "H" 
			},
			{
				"x": -1.1366406742,
				"y": -4.7465283966,
				"z": -4.3031092803,
				"element": "H" 
			},
			{
				"x": -2.0338440335,
				"y": -5.7100900959,
				"z": -2.2167037698,
				"element": "H" 
			},
			{
				"x": -3.249435218,
				"y": -4.9336942102,
				"z": -3.2117776014,
				"element": "H" 
			},
			{
				"x": -2.0727306243,
				"y": -3.7981380072,
				"z": -0.60608081,
				"element": "H" 
			},
			{
				"x": -3.7110683203,
				"y": -4.3865742213,
				"z": -0.873064121,
				"element": "H" 
			},
			{
				"x": -3.1719763897,
				"y": -2.9004556246,
				"z": -1.664262994,
				"element": "H" 
			}
		],
		 "valence_orbital": [ 
			{
				"type": "occ",
				"energy": -0.31435,
				"method": "rhf"
			},
			{
				"type": "occ",
				"energy": -0.31171,
				"method": "rhf"
			},
			{
				"type": "occ",
				"energy": -0.3089,
				"method": "rhf"
			},
			{
				"type": "occ",
				"energy": -0.29191,
				"method": "rhf"
			},
			{
				"type": "occ",
				"energy": -0.26456,
				"method": "rhf"
			},
			{
				"type": "unocc",
				"energy": 0.01873,
				"method": "rhf"
			},
			{
				"type": "unocc",
				"energy": 0.08092,
				"method": "rhf"
			},
			{
				"type": "unocc",
				"energy": 0.08488,
				"method": "rhf"
			},
			{
				"type": "unocc",
				"energy": 0.10617,
				"method": "rhf"
			},
			{
				"type": "unocc",
				"energy": 0.1115,
				"method": "rhf"
			}
		],
		"cosmo_sigma_profile": { 
			"-0.025": 0.0,
			"-0.024": 0.0,
			"-0.023": 0.0,
			"-0.022": 0.0,
			"-0.021": 0.0,
			"-0.02": 0.0,
			"-0.019": 0.0,
			"-0.018": 0.0,
			"-0.017": 0.0,
			"-0.016": 0.0,
			"-0.015": 0.0,
			"-0.014": 0.0,
			"-0.013": 0.0,
			"-0.012": 0.0,
			"-0.011": 0.0,
			"-0.01": 0.0,
			"-0.009": 0.0,
			"-0.008": 0.0,
			"-0.007": 0.0,
			"-0.006": 0.508390762958,
			"-0.005": 6.17327122215,
			"-0.004": 12.4382687486,
			"-0.003": 25.9566925099,
			"-0.002": 53.0841111478,
			"-0.001": 62.4799227088,
			"0.0": 59.5218152938,
			"0.001": 47.5824637094,
			"0.002": 21.480490481,
			"0.003": 4.56221110593,
			"0.004": 3.51077344379,
			"0.005": 3.55605112227,
			"0.006": 3.31302955013,
			"0.007": 2.11390890771,
			"0.008": 2.58833332321,
			"0.009": 1.8061237962,
			"0.01": 1.84903507545,
			"0.011": 2.15395354583,
			"0.012": 4.40585039784,
			"0.013": 2.30619986439,
			"0.014": 0.0459542188548,
			"0.015": 0.0,
			"0.016": 0.0,
			"0.017": 0.0,
			"0.018": 0.0,
			"0.019": 0.0,
			"0.02": 0.0,
			"0.021": 0.0,
			"0.022": 0.0,
			"0.023": 0.0,
			"0.024": 0.0,
			"0.025": 0.0
		}
	}
}
