{
	 "smiles": "OC(=O)C1CCC1", 
	 "Tm": 271.15, 
	 "num_atms": 15, 
	 "gaussian": { 
		 "optdone": 1, 
		 "sigma_profile": "yes", 
		 "theory": "DFT", 
		 "functional": "B3LYP", 
		 "basiset": "6-31G**", 
		 "properties": { 
			 "R2extent": 845.6404, 
			 "electric_dipole_moment_norm": 4.19107254292, 
			 "electric_quadrupole_moment_norm": 9.15541563448, 
			 "total_energy": -345.781700665, 
			 "HOMO_LUMO_gap": 0.27566, 
			 "cosmo_polarized_energy": -12.4, 
			 "cosmo_cavitation_energy": 17.95, 
			 "cosmo_dispersion_energy": -13.38, 
			 "cosmo_repulsion_energy": 1.15, 
			 "cosmo_total_nonelectrostatic_energy": 5.72, 
			 "SMD_solvation_energy": 3.91 
		},
		"coords": [
			{
				"x": 1.3402319737,
				"y": -1.2999065016,
				"z": 1.4775455047,
				"element": "O" 
			},
			{
				"x": 0.8107989552,
				"y": -0.0434535012,
				"z": 1.4527488772,
				"element": "C" 
			},
			{
				"x": 1.3426489452,
				"y": 0.8433895879,
				"z": 2.0732880345,
				"element": "O" 
			},
			{
				"x": -0.4316264093,
				"y": 0.1051935958,
				"z": 0.5898595459,
				"element": "C" 
			},
			{
				"x": -0.9177090519,
				"y": 1.5678271038,
				"z": 0.4417279249,
				"element": "C" 
			},
			{
				"x": -0.2251122879,
				"y": 1.6384533386,
				"z": -0.9470126334,
				"element": "C" 
			},
			{
				"x": -0.1125694465,
				"y": 0.0902203627,
				"z": -0.9470035113,
				"element": "C" 
			},
			{
				"x": 0.8095753961,
				"y": -1.8913674193,
				"z": 0.9247999808,
				"element": "H" 
			},
			{
				"x": -1.176200312,
				"y": -0.6293434997,
				"z": 0.922212547,
				"element": "H" 
			},
			{
				"x": -0.5602532959,
				"y": 2.2531126921,
				"z": 1.2120955641,
				"element": "H" 
			},
			{
				"x": -2.0071808584,
				"y": 1.6284938841,
				"z": 0.3727791227,
				"element": "H" 
			},
			{
				"x": 0.7548074716,
				"y": 2.1193772843,
				"z": -0.8874811829,
				"element": "H" 
			},
			{
				"x": -0.7880111329,
				"y": 2.091161654,
				"z": -1.7672879504,
				"element": "H" 
			},
			{
				"x": -0.9147010793,
				"y": -0.3891423098,
				"z": -1.515328972,
				"element": "H" 
			},
			{
				"x": 0.8422011325,
				"y": -0.3478162718,
				"z": -1.2548428517,
				"element": "H" 
			}
		],
		 "valence_orbital": [ 
			{
				"type": "occ",
				"energy": -0.33563,
				"method": "rhf"
			},
			{
				"type": "occ",
				"energy": -0.31993,
				"method": "rhf"
			},
			{
				"type": "occ",
				"energy": -0.31881,
				"method": "rhf"
			},
			{
				"type": "occ",
				"energy": -0.31133,
				"method": "rhf"
			},
			{
				"type": "occ",
				"energy": -0.26734,
				"method": "rhf"
			},
			{
				"type": "unocc",
				"energy": 0.00832,
				"method": "rhf"
			},
			{
				"type": "unocc",
				"energy": 0.05364,
				"method": "rhf"
			},
			{
				"type": "unocc",
				"energy": 0.08454,
				"method": "rhf"
			},
			{
				"type": "unocc",
				"energy": 0.09805,
				"method": "rhf"
			},
			{
				"type": "unocc",
				"energy": 0.12707,
				"method": "rhf"
			}
		],
		"cosmo_sigma_profile": { 
			"-0.025": 0.0,
			"-0.024": 0.0,
			"-0.023": 0.0,
			"-0.022": 0.0,
			"-0.021": 0.0,
			"-0.02": 0.0,
			"-0.019": 0.0324351298767,
			"-0.018": 0.884931478172,
			"-0.017": 0.892217717194,
			"-0.016": 1.16103905739,
			"-0.015": 0.979649926008,
			"-0.014": 0.394367053842,
			"-0.013": 0.76670368983,
			"-0.012": 1.44822730152,
			"-0.011": 1.39396946873,
			"-0.01": 1.3202537524,
			"-0.009": 0.740325300458,
			"-0.008": 1.02432843742,
			"-0.007": 2.53769636929,
			"-0.006": 3.00997468894,
			"-0.005": 4.01468655816,
			"-0.004": 10.6919789653,
			"-0.003": 16.4616236712,
			"-0.002": 14.8155865872,
			"-0.001": 13.5591789856,
			"0.0": 13.0927475448,
			"0.001": 12.1065392152,
			"0.002": 4.10645195269,
			"0.003": 1.70844831851,
			"0.004": 1.85763483407,
			"0.005": 2.45105457752,
			"0.006": 2.82437694003,
			"0.007": 2.46619595284,
			"0.008": 1.90674307213,
			"0.009": 3.6458204119,
			"0.01": 4.26994952827,
			"0.011": 5.58750745416,
			"0.012": 5.9566525087,
			"0.013": 2.01749068072,
			"0.014": 0.157874716016,
			"0.015": 0.0,
			"0.016": 0.0,
			"0.017": 0.0,
			"0.018": 0.0,
			"0.019": 0.0,
			"0.02": 0.0,
			"0.021": 0.0,
			"0.022": 0.0,
			"0.023": 0.0,
			"0.024": 0.0,
			"0.025": 0.0
		}
	}
}
