{
	 "smiles": "CC1=CC=C(C)N1CC1=C(Cl)C=CC=C1", 
	 "Tm": 361.15, 
	 "num_atms": 29, 
	 "gaussian": { 
		 "optdone": 1, 
		 "sigma_profile": "yes", 
		 "theory": "DFT", 
		 "functional": "B3LYP", 
		 "basiset": "6-31G**", 
		 "properties": { 
			 "R2extent": 3679.9245, 
			 "electric_dipole_moment_norm": 3.15244407722, 
			 "electric_quadrupole_moment_norm": 9.40756779354, 
			 "total_energy": -1018.76293074, 
			 "HOMO_LUMO_gap": 0.15919, 
			 "cosmo_polarized_energy": -8.28, 
			 "cosmo_cavitation_energy": 32.54, 
			 "cosmo_dispersion_energy": -22.88, 
			 "cosmo_repulsion_energy": 1.76, 
			 "cosmo_total_nonelectrostatic_energy": 11.43, 
			 "SMD_solvation_energy": 5.27 
		},
		"coords": [
			{
				"x": 1.5112203716,
				"y": -2.3306740184,
				"z": -0.1819297662,
				"element": "C" 
			},
			{
				"x": 0.9145495197,
				"y": -1.583997759,
				"z": -1.3332071274,
				"element": "C" 
			},
			{
				"x": 1.2552090435,
				"y": -1.6349681983,
				"z": -2.6664019435,
				"element": "C" 
			},
			{
				"x": 0.3628353694,
				"y": -0.7872215029,
				"z": -3.3784404642,
				"element": "C" 
			},
			{
				"x": -0.5103929773,
				"y": -0.2298661227,
				"z": -2.470764281,
				"element": "C" 
			},
			{
				"x": -1.6576745686,
				"y": 0.6963568781,
				"z": -2.7227862975,
				"element": "C" 
			},
			{
				"x": -0.1611803051,
				"y": -0.7072844155,
				"z": -1.2096639502,
				"element": "N" 
			},
			{
				"x": -0.8836352961,
				"y": -0.4542611985,
				"z": 0.0322646761,
				"element": "C" 
			},
			{
				"x": -1.0360471518,
				"y": 1.0024508803,
				"z": 0.4460393322,
				"element": "C" 
			},
			{
				"x": 0.0387333519,
				"y": 1.8393159677,
				"z": 0.7840472515,
				"element": "C" 
			},
			{
				"x": 1.6934576492,
				"y": 1.2445561367,
				"z": 0.7369553768,
				"element": "Cl" 
			},
			{
				"x": -0.1560356376,
				"y": 3.1602156484,
				"z": 1.1897802705,
				"element": "C" 
			},
			{
				"x": -1.4491218205,
				"y": 3.6726765249,
				"z": 1.281718127,
				"element": "C" 
			},
			{
				"x": -2.5393322026,
				"y": 2.8603632575,
				"z": 0.9721531543,
				"element": "C" 
			},
			{
				"x": -2.3236772822,
				"y": 1.5464485132,
				"z": 0.5607855644,
				"element": "C" 
			},
			{
				"x": 2.3476229516,
				"y": -2.9311768204,
				"z": -0.5485588361,
				"element": "H" 
			},
			{
				"x": 0.8014173057,
				"y": -3.0224303531,
				"z": 0.2918502017,
				"element": "H" 
			},
			{
				"x": 1.8997550325,
				"y": -1.6692317901,
				"z": 0.6012054164,
				"element": "H" 
			},
			{
				"x": 2.0616571863,
				"y": -2.226392422,
				"z": -3.0786131549,
				"element": "H" 
			},
			{
				"x": 0.3518336745,
				"y": -0.5995960479,
				"z": -4.4438368713,
				"element": "H" 
			},
			{
				"x": -1.7734403428,
				"y": 0.8263805295,
				"z": -3.8019713193,
				"element": "H" 
			},
			{
				"x": -2.6091189225,
				"y": 0.3047467443,
				"z": -2.3389156042,
				"element": "H" 
			},
			{
				"x": -1.5170082358,
				"y": 1.6889688651,
				"z": -2.2803961277,
				"element": "H" 
			},
			{
				"x": -0.357891019,
				"y": -0.9958044648,
				"z": 0.8220098249,
				"element": "H" 
			},
			{
				"x": -1.8887336656,
				"y": -0.8898351242,
				"z": -0.0322386192,
				"element": "H" 
			},
			{
				"x": 0.7041523266,
				"y": 3.7722436677,
				"z": 1.4376403586,
				"element": "H" 
			},
			{
				"x": -1.598033151,
				"y": 4.7002970328,
				"z": 1.5991097368,
				"element": "H" 
			},
			{
				"x": -3.5513935611,
				"y": 3.2460723811,
				"z": 1.0463013225,
				"element": "H" 
			},
			{
				"x": -3.1738276428,
				"y": 0.9162472106,
				"z": 0.3131637492,
				"element": "H" 
			}
		],
		 "valence_orbital": [ 
			{
				"type": "occ",
				"energy": -0.31217,
				"method": "rhf"
			},
			{
				"type": "occ",
				"energy": -0.26451,
				"method": "rhf"
			},
			{
				"type": "occ",
				"energy": -0.25028,
				"method": "rhf"
			},
			{
				"type": "occ",
				"energy": -0.21818,
				"method": "rhf"
			},
			{
				"type": "occ",
				"energy": -0.1811,
				"method": "rhf"
			},
			{
				"type": "unocc",
				"energy": -0.02191,
				"method": "rhf"
			},
			{
				"type": "unocc",
				"energy": -0.01795,
				"method": "rhf"
			},
			{
				"type": "unocc",
				"energy": 0.02753,
				"method": "rhf"
			},
			{
				"type": "unocc",
				"energy": 0.04982,
				"method": "rhf"
			},
			{
				"type": "unocc",
				"energy": 0.08493,
				"method": "rhf"
			}
		],
		"cosmo_sigma_profile": { 
			"-0.025": 0.0,
			"-0.024": 0.0,
			"-0.023": 0.0,
			"-0.022": 0.0,
			"-0.021": 0.0,
			"-0.02": 0.0,
			"-0.019": 0.0,
			"-0.018": 0.0,
			"-0.017": 0.0,
			"-0.016": 0.0,
			"-0.015": 0.0,
			"-0.014": 0.0,
			"-0.013": 0.0,
			"-0.012": 0.0,
			"-0.011": 0.0,
			"-0.01": 0.0,
			"-0.009": 0.0,
			"-0.008": 0.0528198017982,
			"-0.007": 4.75060849011,
			"-0.006": 12.5791776307,
			"-0.005": 15.851937872,
			"-0.004": 22.8811269189,
			"-0.003": 21.0524580414,
			"-0.002": 23.9415228808,
			"-0.001": 23.2182801223,
			"0.0": 25.5435236634,
			"0.001": 22.5669413697,
			"0.002": 19.431960253,
			"0.003": 17.6928954939,
			"0.004": 17.6381032638,
			"0.005": 10.4813159564,
			"0.006": 4.72839767643,
			"0.007": 4.77827104105,
			"0.008": 5.45766185219,
			"0.009": 4.51017819937,
			"0.01": 2.76561915991,
			"0.011": 0.178254399777,
			"0.012": 0.0,
			"0.013": 0.0,
			"0.014": 0.0,
			"0.015": 0.0,
			"0.016": 0.0,
			"0.017": 0.0,
			"0.018": 0.0,
			"0.019": 0.0,
			"0.02": 0.0,
			"0.021": 0.0,
			"0.022": 0.0,
			"0.023": 0.0,
			"0.024": 0.0,
			"0.025": 0.0
		}
	}
}
