{
	 "smiles": "OC(=O)C1=C(N2CCOCC2)C(=CC=C1)[N+]([O-])=O", 
	 "Tm": 470.15, 
	 "num_atms": 30, 
	 "gaussian": { 
		 "optdone": 1, 
		 "sigma_profile": "yes", 
		 "theory": "DFT", 
		 "functional": "B3LYP", 
		 "basiset": "6-31G**", 
		 "properties": { 
			 "R2extent": 5177.6427, 
			 "electric_dipole_moment_norm": 5.99925148498, 
			 "electric_quadrupole_moment_norm": 30.9601836753, 
			 "total_energy": -911.879597624, 
			 "HOMO_LUMO_gap": 0.12486, 
			 "cosmo_polarized_energy": -19.66, 
			 "cosmo_cavitation_energy": 33.05, 
			 "cosmo_dispersion_energy": -23.41, 
			 "cosmo_repulsion_energy": 1.79, 
			 "cosmo_total_nonelectrostatic_energy": 11.43, 
			 "SMD_solvation_energy": 8.52 
		},
		"coords": [
			{
				"x": 2.5849990486,
				"y": -4.102233912,
				"z": 0.1490544424,
				"element": "O" 
			},
			{
				"x": 1.8467707026,
				"y": -3.1245936588,
				"z": -0.4419643603,
				"element": "C" 
			},
			{
				"x": 0.7203356476,
				"y": -3.3609711147,
				"z": -0.8048142419,
				"element": "O" 
			},
			{
				"x": 2.5607015635,
				"y": -1.8109797096,
				"z": -0.6177406443,
				"element": "C" 
			},
			{
				"x": 1.9098582926,
				"y": -0.5756021588,
				"z": -0.3580236257,
				"element": "C" 
			},
			{
				"x": 0.5636469839,
				"y": -0.4527549378,
				"z": 0.0316284784,
				"element": "N" 
			},
			{
				"x": 0.2057960867,
				"y": -0.7230393323,
				"z": 1.4220968094,
				"element": "C" 
			},
			{
				"x": -1.1587230701,
				"y": -0.0992911638,
				"z": 1.7093558944,
				"element": "C" 
			},
			{
				"x": -2.1817670092,
				"y": -0.5122847551,
				"z": 0.800840749,
				"element": "O" 
			},
			{
				"x": -1.723575379,
				"y": -1.263242385,
				"z": -0.3168390088,
				"element": "C" 
			},
			{
				"x": -0.4962655142,
				"y": -0.6400634974,
				"z": -0.9774926624,
				"element": "C" 
			},
			{
				"x": 2.6991780841,
				"y": 0.5801102246,
				"z": -0.5254654115,
				"element": "C" 
			},
			{
				"x": 4.0078766742,
				"y": 0.5592594623,
				"z": -1.0028236498,
				"element": "C" 
			},
			{
				"x": 4.6105905964,
				"y": -0.6646287245,
				"z": -1.2699655931,
				"element": "C" 
			},
			{
				"x": 3.8930287107,
				"y": -1.8398513503,
				"z": -1.0589546232,
				"element": "C" 
			},
			{
				"x": 2.1528452597,
				"y": 1.9096280577,
				"z": -0.1993259634,
				"element": "N" 
			},
			{
				"x": 1.5899208619,
				"y": 2.0485922045,
				"z": 0.8816795377,
				"element": "O" 
			},
			{
				"x": 2.3425848347,
				"y": 2.8019721125,
				"z": -1.0249579945,
				"element": "O" 
			},
			{
				"x": 3.404201356,
				"y": -3.7312213063,
				"z": 0.5068994811,
				"element": "H" 
			},
			{
				"x": 0.9439631157,
				"y": -0.2443799227,
				"z": 2.0727934586,
				"element": "H" 
			},
			{
				"x": 0.1925796252,
				"y": -1.8008151908,
				"z": 1.6583474488,
				"element": "H" 
			},
			{
				"x": -1.0590625908,
				"y": 0.9928482453,
				"z": 1.6539122711,
				"element": "H" 
			},
			{
				"x": -1.4760888289,
				"y": -0.3646860183,
				"z": 2.7263846739,
				"element": "H" 
			},
			{
				"x": -2.5535933779,
				"y": -1.2847055976,
				"z": -1.0294099401,
				"element": "H" 
			},
			{
				"x": -1.4953741867,
				"y": -2.2998261279,
				"z": -0.0343097062,
				"element": "H" 
			},
			{
				"x": -0.1586138679,
				"y": -1.303623104,
				"z": -1.7795633572,
				"element": "H" 
			},
			{
				"x": -0.767320317,
				"y": 0.3309164585,
				"z": -1.4173433237,
				"element": "H" 
			},
			{
				"x": 4.5295141428,
				"y": 1.4971182623,
				"z": -1.1554382594,
				"element": "H" 
			},
			{
				"x": 5.6301716199,
				"y": -0.7027737332,
				"z": -1.6387221068,
				"element": "H" 
			},
			{
				"x": 4.3610209348,
				"y": -2.7961773267,
				"z": -1.2773387722,
				"element": "H" 
			}
		],
		 "valence_orbital": [ 
			{
				"type": "occ",
				"energy": -0.2954,
				"method": "rhf"
			},
			{
				"type": "occ",
				"energy": -0.28397,
				"method": "rhf"
			},
			{
				"type": "occ",
				"energy": -0.28278,
				"method": "rhf"
			},
			{
				"type": "occ",
				"energy": -0.24099,
				"method": "rhf"
			},
			{
				"type": "occ",
				"energy": -0.21607,
				"method": "rhf"
			},
			{
				"type": "unocc",
				"energy": -0.09121,
				"method": "rhf"
			},
			{
				"type": "unocc",
				"energy": -0.06834,
				"method": "rhf"
			},
			{
				"type": "unocc",
				"energy": -0.03609,
				"method": "rhf"
			},
			{
				"type": "unocc",
				"energy": 0.01195,
				"method": "rhf"
			},
			{
				"type": "unocc",
				"energy": 0.05385,
				"method": "rhf"
			}
		],
		"cosmo_sigma_profile": { 
			"-0.025": 0.0,
			"-0.024": 0.0,
			"-0.023": 0.0,
			"-0.022": 0.0,
			"-0.021": 0.0,
			"-0.02": 0.0,
			"-0.019": 0.410617612948,
			"-0.018": 0.632665856157,
			"-0.017": 1.12854257257,
			"-0.016": 1.14723533753,
			"-0.015": 0.820034157608,
			"-0.014": 0.998234462081,
			"-0.013": 1.01287236342,
			"-0.012": 1.11168970667,
			"-0.011": 1.39970510999,
			"-0.01": 1.06625420421,
			"-0.009": 2.68014096305,
			"-0.008": 7.52919516304,
			"-0.007": 9.3282326474,
			"-0.006": 8.37073178828,
			"-0.005": 10.882668786,
			"-0.004": 18.2528195807,
			"-0.003": 26.226611751,
			"-0.002": 25.4122612168,
			"-0.001": 22.0585405851,
			"0.0": 18.0193855488,
			"0.001": 13.8173850194,
			"0.002": 10.1736520754,
			"0.003": 7.15012955399,
			"0.004": 9.14708147621,
			"0.005": 7.35601679259,
			"0.006": 7.97859710891,
			"0.007": 11.6906332276,
			"0.008": 10.8123482109,
			"0.009": 7.9034505431,
			"0.01": 7.41375555962,
			"0.011": 3.83825523989,
			"0.012": 2.79323457748,
			"0.013": 2.2737469281,
			"0.014": 0.91785584848,
			"0.015": 0.0,
			"0.016": 0.0,
			"0.017": 0.0,
			"0.018": 0.0,
			"0.019": 0.0,
			"0.02": 0.0,
			"0.021": 0.0,
			"0.022": 0.0,
			"0.023": 0.0,
			"0.024": 0.0,
			"0.025": 0.0
		}
	}
}
