{
	 "smiles": "CC(C)(C)C1=NNC(N)=C1", 
	 "Tm": 334.15, 
	 "num_atms": 23, 
	 "gaussian": { 
		 "optdone": 1, 
		 "sigma_profile": "yes", 
		 "theory": "DFT", 
		 "functional": "B3LYP", 
		 "basiset": "6-31G**", 
		 "properties": { 
			 "R2extent": 2030.1749, 
			 "electric_dipole_moment_norm": 3.24973443069, 
			 "electric_quadrupole_moment_norm": 13.4735008784, 
			 "total_energy": -438.82467707, 
			 "HOMO_LUMO_gap": 0.23941, 
			 "cosmo_polarized_energy": -12.97, 
			 "cosmo_cavitation_energy": 25.18, 
			 "cosmo_dispersion_energy": -18.21, 
			 "cosmo_repulsion_energy": 1.5, 
			 "cosmo_total_nonelectrostatic_energy": 8.47, 
			 "SMD_solvation_energy": 3.79 
		},
		"coords": [
			{
				"x": -0.1839296842,
				"y": -2.0203120572,
				"z": -1.2898947664,
				"element": "C" 
			},
			{
				"x": 0.4714534917,
				"y": -1.1199175595,
				"z": -0.2275409941,
				"element": "C" 
			},
			{
				"x": -0.4463244216,
				"y": -1.0394421114,
				"z": 1.0131385601,
				"element": "C" 
			},
			{
				"x": 1.8336543672,
				"y": -1.7213050908,
				"z": 0.1841332756,
				"element": "C" 
			},
			{
				"x": 0.6897010216,
				"y": 0.282645769,
				"z": -0.7785763076,
				"element": "C" 
			},
			{
				"x": 1.2881541759,
				"y": 1.2041122968,
				"z": -0.0240580942,
				"element": "N" 
			},
			{
				"x": 1.308693621,
				"y": 2.3215359481,
				"z": -0.8023996228,
				"element": "N" 
			},
			{
				"x": 0.7383396989,
				"y": 2.1321460206,
				"z": -2.0207234182,
				"element": "C" 
			},
			{
				"x": 0.7209399657,
				"y": 3.1524267419,
				"z": -2.9808976465,
				"element": "N" 
			},
			{
				"x": 0.3174977152,
				"y": 0.812379251,
				"z": -2.04436707,
				"element": "C" 
			},
			{
				"x": -1.1652552105,
				"y": -1.6376777302,
				"z": -1.5911525831,
				"element": "H" 
			},
			{
				"x": -0.3292590998,
				"y": -3.0299474161,
				"z": -0.8912664907,
				"element": "H" 
			},
			{
				"x": 0.4399665627,
				"y": -2.1017941213,
				"z": -2.1865497255,
				"element": "H" 
			},
			{
				"x": -0.0056396337,
				"y": -0.390851915,
				"z": 1.77477845,
				"element": "H" 
			},
			{
				"x": -0.5979524314,
				"y": -2.0350319732,
				"z": 1.4465612422,
				"element": "H" 
			},
			{
				"x": -1.42779335,
				"y": -0.630538545,
				"z": 0.7492981137,
				"element": "H" 
			},
			{
				"x": 1.6992437656,
				"y": -2.7201452625,
				"z": 0.6156139518,
				"element": "H" 
			},
			{
				"x": 2.3269686429,
				"y": -1.0849657221,
				"z": 0.9232592336,
				"element": "H" 
			},
			{
				"x": 2.4999137228,
				"y": -1.8109704933,
				"z": -0.6806554295,
				"element": "H" 
			},
			{
				"x": 1.799687632,
				"y": 3.1407125498,
				"z": -0.4810063241,
				"element": "H" 
			},
			{
				"x": 0.2785667259,
				"y": 2.8459341262,
				"z": -3.8383788815,
				"element": "H" 
			},
			{
				"x": 0.2645349671,
				"y": 3.9994652937,
				"z": -2.6565690536,
				"element": "H" 
			},
			{
				"x": -0.197262245,
				"y": 0.3164420004,
				"z": -2.8529464194,
				"element": "H" 
			}
		],
		 "valence_orbital": [ 
			{
				"type": "occ",
				"energy": -0.31615,
				"method": "rhf"
			},
			{
				"type": "occ",
				"energy": -0.30737,
				"method": "rhf"
			},
			{
				"type": "occ",
				"energy": -0.26711,
				"method": "rhf"
			},
			{
				"type": "occ",
				"energy": -0.2354,
				"method": "rhf"
			},
			{
				"type": "occ",
				"energy": -0.20301,
				"method": "rhf"
			},
			{
				"type": "unocc",
				"energy": 0.0364,
				"method": "rhf"
			},
			{
				"type": "unocc",
				"energy": 0.06911,
				"method": "rhf"
			},
			{
				"type": "unocc",
				"energy": 0.08847,
				"method": "rhf"
			},
			{
				"type": "unocc",
				"energy": 0.09762,
				"method": "rhf"
			},
			{
				"type": "unocc",
				"energy": 0.10482,
				"method": "rhf"
			}
		],
		"cosmo_sigma_profile": { 
			"-0.025": 0.0,
			"-0.024": 0.0,
			"-0.023": 0.0,
			"-0.022": 0.0,
			"-0.021": 0.0,
			"-0.02": 0.0,
			"-0.019": 0.0,
			"-0.018": 0.0,
			"-0.017": 0.0,
			"-0.016": 0.388100127359,
			"-0.015": 1.38824659735,
			"-0.014": 1.02058936436,
			"-0.013": 2.58106896522,
			"-0.012": 4.69949278375,
			"-0.011": 3.59645866184,
			"-0.01": 3.51320182323,
			"-0.009": 3.68040040397,
			"-0.008": 2.78945075145,
			"-0.007": 2.85375213584,
			"-0.006": 2.63900224709,
			"-0.005": 3.26940939264,
			"-0.004": 3.55360417416,
			"-0.003": 8.30194527741,
			"-0.002": 22.0509476127,
			"-0.001": 20.6044977424,
			"0.0": 18.9777305632,
			"0.001": 23.7717488108,
			"0.002": 17.6491020286,
			"0.003": 5.472210251,
			"0.004": 4.8613541722,
			"0.005": 5.64394436265,
			"0.006": 6.91685967445,
			"0.007": 6.7662153442,
			"0.008": 4.18558941429,
			"0.009": 2.55545265525,
			"0.01": 2.61653010967,
			"0.011": 1.68459709082,
			"0.012": 2.05944694013,
			"0.013": 1.42111188277,
			"0.014": 1.91396863919,
			"0.015": 1.09070363157,
			"0.016": 0.703624430828,
			"0.017": 0.319262291644,
			"0.018": 0.0,
			"0.019": 0.0,
			"0.02": 0.0,
			"0.021": 0.0,
			"0.022": 0.0,
			"0.023": 0.0,
			"0.024": 0.0,
			"0.025": 0.0
		}
	}
}
