{
	 "smiles": "COC1=C(OC(F)F)C(CO)=CC=C1", 
	 "Tm": 351.15, 
	 "num_atms": 24, 
	 "gaussian": { 
		 "optdone": 1, 
		 "sigma_profile": "yes", 
		 "theory": "DFT", 
		 "functional": "B3LYP", 
		 "basiset": "6-31G**", 
		 "properties": { 
			 "R2extent": 2858.6121, 
			 "electric_dipole_moment_norm": 3.43146325203, 
			 "electric_quadrupole_moment_norm": 6.81639107666, 
			 "total_energy": -774.30176531, 
			 "HOMO_LUMO_gap": 0.23048, 
			 "cosmo_polarized_energy": -8.82, 
			 "cosmo_cavitation_energy": 28.06, 
			 "cosmo_dispersion_energy": -19.92, 
			 "cosmo_repulsion_energy": 1.54, 
			 "cosmo_total_nonelectrostatic_energy": 9.68, 
			 "SMD_solvation_energy": 6.4 
		},
		"coords": [
			{
				"x": -2.148761441,
				"y": 1.2916940392,
				"z": -1.0831988864,
				"element": "C" 
			},
			{
				"x": -0.9541249758,
				"y": 0.5549895901,
				"z": -1.3839821141,
				"element": "O" 
			},
			{
				"x": -0.6654001389,
				"y": -0.4649692726,
				"z": -0.5033572819,
				"element": "C" 
			},
			{
				"x": -0.1153804995,
				"y": -0.1888957489,
				"z": 0.7575005233,
				"element": "C" 
			},
			{
				"x": 0.0447510895,
				"y": 1.1422044881,
				"z": 1.1599258907,
				"element": "O" 
			},
			{
				"x": 1.0030976911,
				"y": 1.8708300929,
				"z": 0.4993903288,
				"element": "C" 
			},
			{
				"x": 0.6972476139,
				"y": 3.1685481142,
				"z": 0.6673398604,
				"element": "F" 
			},
			{
				"x": 2.2319788918,
				"y": 1.6677200201,
				"z": 1.0909879758,
				"element": "F" 
			},
			{
				"x": 0.2102707997,
				"y": -1.2088619259,
				"z": 1.6577620029,
				"element": "C" 
			},
			{
				"x": 0.8175245777,
				"y": -0.8863703411,
				"z": 3.0120984698,
				"element": "C" 
			},
			{
				"x": 2.2194070409,
				"y": -0.6659842153,
				"z": 2.9549219126,
				"element": "O" 
			},
			{
				"x": -0.0055265798,
				"y": -2.5313325092,
				"z": 1.2505782185,
				"element": "C" 
			},
			{
				"x": -0.5278479107,
				"y": -2.8234619075,
				"z": -0.0091605631,
				"element": "C" 
			},
			{
				"x": -0.8610294583,
				"y": -1.7916353286,
				"z": -0.8871063523,
				"element": "C" 
			},
			{
				"x": -2.2583534797,
				"y": 2.0310950742,
				"z": -1.8785635104,
				"element": "H" 
			},
			{
				"x": -3.021863466,
				"y": 0.6284454754,
				"z": -1.0791976218,
				"element": "H" 
			},
			{
				"x": -2.0710123968,
				"y": 1.8010298778,
				"z": -0.1171992909,
				"element": "H" 
			},
			{
				"x": 1.0903081001,
				"y": 1.6270916079,
				"z": -0.5613020212,
				"element": "H" 
			},
			{
				"x": 0.2938634969,
				"y": -0.0283883808,
				"z": 3.4552374508,
				"element": "H" 
			},
			{
				"x": 0.673653263,
				"y": -1.7425420008,
				"z": 3.677572982,
				"element": "H" 
			},
			{
				"x": 2.3647154104,
				"y": 0.1478279001,
				"z": 2.4523189887,
				"element": "H" 
			},
			{
				"x": 0.249489564,
				"y": -3.3367802156,
				"z": 1.9334097464,
				"element": "H" 
			},
			{
				"x": -0.6812385816,
				"y": -3.8559737371,
				"z": -0.3079042776,
				"element": "H" 
			},
			{
				"x": -1.271168611,
				"y": -1.9897806965,
				"z": -1.8720724309,
				"element": "H" 
			}
		],
		 "valence_orbital": [ 
			{
				"type": "occ",
				"energy": -0.32712,
				"method": "rhf"
			},
			{
				"type": "occ",
				"energy": -0.29008,
				"method": "rhf"
			},
			{
				"type": "occ",
				"energy": -0.26515,
				"method": "rhf"
			},
			{
				"type": "occ",
				"energy": -0.25401,
				"method": "rhf"
			},
			{
				"type": "occ",
				"energy": -0.24936,
				"method": "rhf"
			},
			{
				"type": "unocc",
				"energy": -0.01888,
				"method": "rhf"
			},
			{
				"type": "unocc",
				"energy": -0.01261,
				"method": "rhf"
			},
			{
				"type": "unocc",
				"energy": 0.07351,
				"method": "rhf"
			},
			{
				"type": "unocc",
				"energy": 0.10024,
				"method": "rhf"
			},
			{
				"type": "unocc",
				"energy": 0.11078,
				"method": "rhf"
			}
		],
		"cosmo_sigma_profile": { 
			"-0.025": 0.0,
			"-0.024": 0.0,
			"-0.023": 0.0,
			"-0.022": 0.0,
			"-0.021": 0.0,
			"-0.02": 0.0,
			"-0.019": 0.0,
			"-0.018": 0.0,
			"-0.017": 0.0,
			"-0.016": 0.0,
			"-0.015": 0.0,
			"-0.014": 0.0,
			"-0.013": 0.0,
			"-0.012": 0.0,
			"-0.011": 0.0,
			"-0.01": 0.864489960995,
			"-0.009": 1.67184074253,
			"-0.008": 0.912085989491,
			"-0.007": 4.14266956589,
			"-0.006": 11.5315124291,
			"-0.005": 15.8773147992,
			"-0.004": 21.3791477044,
			"-0.003": 21.6310023993,
			"-0.002": 21.312817188,
			"-0.001": 14.3812305728,
			"0.0": 13.3206761687,
			"0.001": 13.1683684338,
			"0.002": 15.0401417398,
			"0.003": 25.2903986147,
			"0.004": 17.0680102454,
			"0.005": 3.89836755407,
			"0.006": 3.74343222474,
			"0.007": 2.97213826817,
			"0.008": 2.44678318825,
			"0.009": 1.42421248269,
			"0.01": 2.73284170564,
			"0.011": 2.35375013693,
			"0.012": 1.19583451562,
			"0.013": 1.51037848693,
			"0.014": 2.69713481922,
			"0.015": 0.404231918635,
			"0.016": 0.0,
			"0.017": 0.0,
			"0.018": 0.0,
			"0.019": 0.0,
			"0.02": 0.0,
			"0.021": 0.0,
			"0.022": 0.0,
			"0.023": 0.0,
			"0.024": 0.0,
			"0.025": 0.0
		}
	}
}
