{
	 "smiles": "CNCC(O)COC1=CC=C(C=C1)[N+]([O-])=O", 
	 "Tm": 416.15, 
	 "num_atms": 30, 
	 "gaussian": { 
		 "optdone": 1, 
		 "sigma_profile": "yes", 
		 "theory": "DFT", 
		 "functional": "B3LYP", 
		 "basiset": "6-31G**", 
		 "properties": { 
			 "R2extent": 5730.5683, 
			 "electric_dipole_moment_norm": 4.75953627363, 
			 "electric_quadrupole_moment_norm": 28.9711140934, 
			 "total_energy": -799.76963068, 
			 "HOMO_LUMO_gap": 0.14835, 
			 "cosmo_polarized_energy": -17.96, 
			 "cosmo_cavitation_energy": 34.39, 
			 "cosmo_dispersion_energy": -24.26, 
			 "cosmo_repulsion_energy": 1.92, 
			 "cosmo_total_nonelectrostatic_energy": 12.05, 
			 "SMD_solvation_energy": 7.15 
		},
		"coords": [
			{
				"x": -1.3217948013,
				"y": -4.5456788943,
				"z": -0.0369335402,
				"element": "C" 
			},
			{
				"x": -0.7963683022,
				"y": -3.2043448042,
				"z": -0.2612748383,
				"element": "N" 
			},
			{
				"x": -0.8082015809,
				"y": -2.8129329135,
				"z": -1.6620551784,
				"element": "C" 
			},
			{
				"x": -0.2587381286,
				"y": -1.3991817417,
				"z": -1.8713177189,
				"element": "C" 
			},
			{
				"x": -0.1093528104,
				"y": -1.2559086982,
				"z": -3.2806638879,
				"element": "O" 
			},
			{
				"x": 1.0920236042,
				"y": -1.1722822421,
				"z": -1.1565979885,
				"element": "C" 
			},
			{
				"x": 0.9315214371,
				"y": -0.7035562441,
				"z": 0.1882134507,
				"element": "O" 
			},
			{
				"x": 0.6945034494,
				"y": 0.6061033459,
				"z": 0.432374307,
				"element": "C" 
			},
			{
				"x": 0.553031974,
				"y": 0.9452224576,
				"z": 1.7928927555,
				"element": "C" 
			},
			{
				"x": 0.315837059,
				"y": 2.2554487356,
				"z": 2.169624528,
				"element": "C" 
			},
			{
				"x": 0.2178075016,
				"y": 3.2410930291,
				"z": 1.1819334802,
				"element": "C" 
			},
			{
				"x": 0.3548507183,
				"y": 2.9277937458,
				"z": -0.1676272618,
				"element": "C" 
			},
			{
				"x": 0.5921594953,
				"y": 1.6099755939,
				"z": -0.5471277165,
				"element": "C" 
			},
			{
				"x": -0.0352900604,
				"y": 4.6260175477,
				"z": 1.5724564391,
				"element": "N" 
			},
			{
				"x": -0.1184351055,
				"y": 5.4700138987,
				"z": 0.677429448,
				"element": "O" 
			},
			{
				"x": -0.1516066215,
				"y": 4.8704033275,
				"z": 2.7749636019,
				"element": "O" 
			},
			{
				"x": -0.6657744563,
				"y": -5.2793138997,
				"z": -0.5192264877,
				"element": "H" 
			},
			{
				"x": -2.3425721698,
				"y": -4.7072028667,
				"z": -0.4286978579,
				"element": "H" 
			},
			{
				"x": -1.3287143025,
				"y": -4.7615275935,
				"z": 1.0354459683,
				"element": "H" 
			},
			{
				"x": -1.3235954033,
				"y": -2.5336090706,
				"z": 0.2916851232,
				"element": "H" 
			},
			{
				"x": -0.1567302215,
				"y": -3.501011059,
				"z": -2.2179539315,
				"element": "H" 
			},
			{
				"x": -1.8029387547,
				"y": -2.8705440407,
				"z": -2.1407417589,
				"element": "H" 
			},
			{
				"x": -0.9805656025,
				"y": -0.6662282293,
				"z": -1.4764700009,
				"element": "H" 
			},
			{
				"x": -0.0668547092,
				"y": -0.3159656968,
				"z": -3.496247142,
				"element": "H" 
			},
			{
				"x": 1.6349509427,
				"y": -2.1136045092,
				"z": -1.0579699747,
				"element": "H" 
			},
			{
				"x": 1.7092499354,
				"y": -0.4759019487,
				"z": -1.7360719028,
				"element": "H" 
			},
			{
				"x": 0.6394522198,
				"y": 0.1546045784,
				"z": 2.5301667991,
				"element": "H" 
			},
			{
				"x": 0.2062658775,
				"y": 2.5346498262,
				"z": 3.2100707262,
				"element": "H" 
			},
			{
				"x": 0.2724998533,
				"y": 3.7175884776,
				"z": -0.9039971631,
				"element": "H" 
			},
			{
				"x": 0.697478963,
				"y": 1.3783798884,
				"z": -1.5994822771,
				"element": "H" 
			}
		],
		 "valence_orbital": [ 
			{
				"type": "occ",
				"energy": -0.29256,
				"method": "rhf"
			},
			{
				"type": "occ",
				"energy": -0.28321,
				"method": "rhf"
			},
			{
				"type": "occ",
				"energy": -0.28026,
				"method": "rhf"
			},
			{
				"type": "occ",
				"energy": -0.24704,
				"method": "rhf"
			},
			{
				"type": "occ",
				"energy": -0.22888,
				"method": "rhf"
			},
			{
				"type": "unocc",
				"energy": -0.08053,
				"method": "rhf"
			},
			{
				"type": "unocc",
				"energy": -0.02926,
				"method": "rhf"
			},
			{
				"type": "unocc",
				"energy": 0.01232,
				"method": "rhf"
			},
			{
				"type": "unocc",
				"energy": 0.03442,
				"method": "rhf"
			},
			{
				"type": "unocc",
				"energy": 0.07512,
				"method": "rhf"
			}
		],
		"cosmo_sigma_profile": { 
			"-0.025": 0.0,
			"-0.024": 0.0,
			"-0.023": 0.0,
			"-0.022": 0.0,
			"-0.021": 0.0,
			"-0.02": 0.0,
			"-0.019": 0.0,
			"-0.018": 0.0,
			"-0.017": 0.0,
			"-0.016": 0.247064927026,
			"-0.015": 0.859697699143,
			"-0.014": 2.03710328768,
			"-0.013": 2.23819434398,
			"-0.012": 1.71318605547,
			"-0.011": 1.12546600004,
			"-0.01": 2.02918052787,
			"-0.009": 2.63717897186,
			"-0.008": 4.3634904462,
			"-0.007": 8.56142655986,
			"-0.006": 10.6312519425,
			"-0.005": 14.0156624407,
			"-0.004": 17.3585838756,
			"-0.003": 20.3511436152,
			"-0.002": 24.1918845819,
			"-0.001": 26.9645422258,
			"0.0": 24.8106294761,
			"0.001": 20.1237192971,
			"0.002": 16.6676076204,
			"0.003": 8.51031051716,
			"0.004": 4.61278819114,
			"0.005": 4.93772665183,
			"0.006": 7.19968613202,
			"0.007": 7.21396201691,
			"0.008": 11.9837135079,
			"0.009": 7.53529810368,
			"0.01": 6.50499794299,
			"0.011": 4.07825624143,
			"0.012": 2.02882091799,
			"0.013": 2.60494849673,
			"0.014": 1.28619757707,
			"0.015": 0.970555550895,
			"0.016": 0.260080574801,
			"0.017": 0.0,
			"0.018": 0.0,
			"0.019": 0.0,
			"0.02": 0.0,
			"0.021": 0.0,
			"0.022": 0.0,
			"0.023": 0.0,
			"0.024": 0.0,
			"0.025": 0.0
		}
	}
}
