{
	 "smiles": "CC(C)NC(=O)NC1=C(C=CC=C1)C(O)=O", 
	 "Tm": 452.15, 
	 "num_atms": 30, 
	 "gaussian": { 
		 "optdone": 1, 
		 "sigma_profile": "yes", 
		 "theory": "DFT", 
		 "functional": "B3LYP", 
		 "basiset": "6-31G**", 
		 "properties": { 
			 "R2extent": 4019.8688, 
			 "electric_dipole_moment_norm": 2.96882577798, 
			 "electric_quadrupole_moment_norm": 10.6471491076, 
			 "total_energy": -762.842958604, 
			 "HOMO_LUMO_gap": 0.16535, 
			 "cosmo_polarized_energy": -13.44, 
			 "cosmo_cavitation_energy": 32.36, 
			 "cosmo_dispersion_energy": -23.57, 
			 "cosmo_repulsion_energy": 1.82, 
			 "cosmo_total_nonelectrostatic_energy": 10.61, 
			 "SMD_solvation_energy": 6.9 
		},
		"coords": [
			{
				"x": -2.8359675787,
				"y": -0.7417737243,
				"z": 0.9557845885,
				"element": "C" 
			},
			{
				"x": -2.1498244053,
				"y": -1.9268036096,
				"z": 0.2546256092,
				"element": "C" 
			},
			{
				"x": -1.0725357071,
				"y": -2.5961271013,
				"z": 1.1254385951,
				"element": "C" 
			},
			{
				"x": -1.6813176635,
				"y": -1.6058268675,
				"z": -1.1049133993,
				"element": "N" 
			},
			{
				"x": -0.7293487788,
				"y": -0.746471574,
				"z": -1.6056657987,
				"element": "C" 
			},
			{
				"x": -0.5406626858,
				"y": -0.6799015803,
				"z": -2.8184104911,
				"element": "O" 
			},
			{
				"x": -0.031902393,
				"y": 0.0046826133,
				"z": -0.6623323577,
				"element": "N" 
			},
			{
				"x": 0.9726072137,
				"y": 0.9399051393,
				"z": -0.8988883799,
				"element": "C" 
			},
			{
				"x": 1.5719409632,
				"y": 1.6166808943,
				"z": 0.2083918678,
				"element": "C" 
			},
			{
				"x": 2.5889940518,
				"y": 2.5647718431,
				"z": -0.0227214898,
				"element": "C" 
			},
			{
				"x": 3.024310756,
				"y": 2.8581269057,
				"z": -1.3035369617,
				"element": "C" 
			},
			{
				"x": 2.4335901523,
				"y": 2.1918745354,
				"z": -2.3838799993,
				"element": "C" 
			},
			{
				"x": 1.4294795141,
				"y": 1.2520797284,
				"z": -2.1964088416,
				"element": "C" 
			},
			{
				"x": 1.1534168938,
				"y": 1.3489655527,
				"z": 1.5921089063,
				"element": "C" 
			},
			{
				"x": 1.8177113892,
				"y": 2.0722915909,
				"z": 2.5221370942,
				"element": "O" 
			},
			{
				"x": 0.2842345916,
				"y": 0.5526120875,
				"z": 1.9490035785,
				"element": "O" 
			},
			{
				"x": -2.1318666902,
				"y": 0.0463590954,
				"z": 1.2333021639,
				"element": "H" 
			},
			{
				"x": -3.3155858767,
				"y": -1.0863953628,
				"z": 1.8778449666,
				"element": "H" 
			},
			{
				"x": -3.6045574188,
				"y": -0.3087888158,
				"z": 0.3091392812,
				"element": "H" 
			},
			{
				"x": -2.9253576942,
				"y": -2.680543089,
				"z": 0.0774306923,
				"element": "H" 
			},
			{
				"x": -1.5249505285,
				"y": -2.9685716378,
				"z": 2.0504270334,
				"element": "H" 
			},
			{
				"x": -0.2753739591,
				"y": -1.9056050576,
				"z": 1.4112787629,
				"element": "H" 
			},
			{
				"x": -0.6253818213,
				"y": -3.4423641229,
				"z": 0.5960169836,
				"element": "H" 
			},
			{
				"x": -2.1241457134,
				"y": -2.0983628391,
				"z": -1.8661460204,
				"element": "H" 
			},
			{
				"x": -0.2486429014,
				"y": -0.1093460652,
				"z": 0.3234693354,
				"element": "H" 
			},
			{
				"x": 3.0279360665,
				"y": 3.0647779766,
				"z": 0.8320924485,
				"element": "H" 
			},
			{
				"x": 3.8084743616,
				"y": 3.5908475413,
				"z": -1.4635274284,
				"element": "H" 
			},
			{
				"x": 2.761323745,
				"y": 2.4079417694,
				"z": -3.397205149,
				"element": "H" 
			},
			{
				"x": 0.977016857,
				"y": 0.7410418392,
				"z": -3.0328382446,
				"element": "H" 
			},
			{
				"x": 1.4468852597,
				"y": 1.799522335,
				"z": 3.3771826541,
				"element": "H" 
			}
		],
		 "valence_orbital": [ 
			{
				"type": "occ",
				"energy": -0.29213,
				"method": "rhf"
			},
			{
				"type": "occ",
				"energy": -0.2594,
				"method": "rhf"
			},
			{
				"type": "occ",
				"energy": -0.25116,
				"method": "rhf"
			},
			{
				"type": "occ",
				"energy": -0.24404,
				"method": "rhf"
			},
			{
				"type": "occ",
				"energy": -0.21755,
				"method": "rhf"
			},
			{
				"type": "unocc",
				"energy": -0.0522,
				"method": "rhf"
			},
			{
				"type": "unocc",
				"energy": -0.00119,
				"method": "rhf"
			},
			{
				"type": "unocc",
				"energy": 0.05313,
				"method": "rhf"
			},
			{
				"type": "unocc",
				"energy": 0.0696,
				"method": "rhf"
			},
			{
				"type": "unocc",
				"energy": 0.07266,
				"method": "rhf"
			}
		],
		"cosmo_sigma_profile": { 
			"-0.025": 0.0,
			"-0.024": 0.0,
			"-0.023": 0.0,
			"-0.022": 0.0,
			"-0.021": 0.0,
			"-0.02": 0.0,
			"-0.019": 0.147743564133,
			"-0.018": 0.918806909826,
			"-0.017": 0.610312258219,
			"-0.016": 0.923691883227,
			"-0.015": 0.821968771949,
			"-0.014": 0.446080922631,
			"-0.013": 1.30112994078,
			"-0.012": 2.60913239427,
			"-0.011": 2.06150357774,
			"-0.01": 1.12585996898,
			"-0.009": 2.18098015383,
			"-0.008": 1.21242212696,
			"-0.007": 2.46439018426,
			"-0.006": 7.2942405379,
			"-0.005": 10.3259162506,
			"-0.004": 16.3441865043,
			"-0.003": 19.0693450419,
			"-0.002": 23.1624268743,
			"-0.001": 21.8405657929,
			"0.0": 28.4552172806,
			"0.001": 26.8091723358,
			"0.002": 17.8900920563,
			"0.003": 18.344643781,
			"0.004": 16.0888140952,
			"0.005": 6.51752027282,
			"0.006": 5.58302498565,
			"0.007": 4.216065185,
			"0.008": 2.1334931515,
			"0.009": 2.639253539,
			"0.01": 2.87848204028,
			"0.011": 1.70707773443,
			"0.012": 2.22412139901,
			"0.013": 2.80357679073,
			"0.014": 3.24335055874,
			"0.015": 0.407930656201,
			"0.016": 0.0,
			"0.017": 0.0,
			"0.018": 0.0,
			"0.019": 0.0,
			"0.02": 0.0,
			"0.021": 0.0,
			"0.022": 0.0,
			"0.023": 0.0,
			"0.024": 0.0,
			"0.025": 0.0
		}
	}
}
