{
	 "smiles": "OCC1=CN(N=C1C1=CC=CS1)C1=CC=CC=C1", 
	 "Tm": 389.15, 
	 "num_atms": 30, 
	 "gaussian": { 
		 "optdone": 1, 
		 "sigma_profile": "yes", 
		 "theory": "DFT", 
		 "functional": "B3LYP", 
		 "basiset": "6-31G**", 
		 "properties": { 
			 "R2extent": 6603.6223, 
			 "electric_dipole_moment_norm": 1.8265912159, 
			 "electric_quadrupole_moment_norm": 15.0759986376, 
			 "total_energy": -1123.59416531, 
			 "HOMO_LUMO_gap": 0.16457, 
			 "cosmo_polarized_energy": -12.34, 
			 "cosmo_cavitation_energy": 35.44, 
			 "cosmo_dispersion_energy": -26.45, 
			 "cosmo_repulsion_energy": 1.96, 
			 "cosmo_total_nonelectrostatic_energy": 10.96, 
			 "SMD_solvation_energy": 5.49 
		},
		"coords": [
			{
				"x": -1.0599344607,
				"y": 0.7982935947,
				"z": -3.8582032344,
				"element": "O" 
			},
			{
				"x": -0.3323682931,
				"y": 1.3177629416,
				"z": -2.7465497583,
				"element": "C" 
			},
			{
				"x": -0.4151831098,
				"y": 0.4742873425,
				"z": -1.5043478766,
				"element": "C" 
			},
			{
				"x": -1.2426659887,
				"y": 0.7020128064,
				"z": -0.4257587848,
				"element": "C" 
			},
			{
				"x": -1.0204160661,
				"y": -0.2885814673,
				"z": 0.4865352292,
				"element": "N" 
			},
			{
				"x": -0.0808282379,
				"y": -1.161830941,
				"z": 0.0560309324,
				"element": "N" 
			},
			{
				"x": 0.2968927281,
				"y": -0.7169819352,
				"z": -1.1480686356,
				"element": "C" 
			},
			{
				"x": 1.3116298539,
				"y": -1.4693942847,
				"z": -1.8798965097,
				"element": "C" 
			},
			{
				"x": 2.0055251429,
				"y": -2.5725693372,
				"z": -1.4373148696,
				"element": "C" 
			},
			{
				"x": 2.9078148916,
				"y": -3.1023720099,
				"z": -2.402817949,
				"element": "C" 
			},
			{
				"x": 2.8997695588,
				"y": -2.4084759812,
				"z": -3.5814579037,
				"element": "C" 
			},
			{
				"x": 1.7877568168,
				"y": -1.0790765855,
				"z": -3.5219497726,
				"element": "S" 
			},
			{
				"x": -1.6260365298,
				"y": -0.4600220144,
				"z": 1.7589510942,
				"element": "C" 
			},
			{
				"x": -0.9768013871,
				"y": -1.2295712924,
				"z": 2.7310801939,
				"element": "C" 
			},
			{
				"x": -1.5657611246,
				"y": -1.3913659985,
				"z": 3.9829907308,
				"element": "C" 
			},
			{
				"x": -2.7904951766,
				"y": -0.7877398846,
				"z": 4.2777150444,
				"element": "C" 
			},
			{
				"x": -3.4329105663,
				"y": -0.0258335611,
				"z": 3.3007324446,
				"element": "C" 
			},
			{
				"x": -2.8617216241,
				"y": 0.134723769,
				"z": 2.0389218316,
				"element": "C" 
			},
			{
				"x": -0.675920874,
				"y": -0.0573415157,
				"z": -4.0933699585,
				"element": "H" 
			},
			{
				"x": 0.7210306533,
				"y": 1.4918784375,
				"z": -3.0113920127,
				"element": "H" 
			},
			{
				"x": -0.7746638817,
				"y": 2.2977629555,
				"z": -2.5447401513,
				"element": "H" 
			},
			{
				"x": -1.9373062106,
				"y": 1.5068554298,
				"z": -0.2408912068,
				"element": "H" 
			},
			{
				"x": 1.8559721635,
				"y": -2.9814656468,
				"z": -0.4459437814,
				"element": "H" 
			},
			{
				"x": 3.5388922076,
				"y": -3.966093451,
				"z": -2.2264773071,
				"element": "H" 
			},
			{
				"x": 3.4834941983,
				"y": -2.5816051412,
				"z": -4.4744721572,
				"element": "H" 
			},
			{
				"x": -0.0260656639,
				"y": -1.6876241004,
				"z": 2.4886445625,
				"element": "H" 
			},
			{
				"x": -1.058632489,
				"y": -1.9889405331,
				"z": 4.7348160437,
				"element": "H" 
			},
			{
				"x": -3.2421872214,
				"y": -0.9143467919,
				"z": 5.2567622219,
				"element": "H" 
			},
			{
				"x": -4.3920174497,
				"y": 0.4374652485,
				"z": 3.5122462938,
				"element": "H" 
			},
			{
				"x": -3.3868618597,
				"y": 0.6983899478,
				"z": 1.2754252465,
				"element": "H" 
			}
		],
		 "valence_orbital": [ 
			{
				"type": "occ",
				"energy": -0.26237,
				"method": "rhf"
			},
			{
				"type": "occ",
				"energy": -0.25995,
				"method": "rhf"
			},
			{
				"type": "occ",
				"energy": -0.25446,
				"method": "rhf"
			},
			{
				"type": "occ",
				"energy": -0.24161,
				"method": "rhf"
			},
			{
				"type": "occ",
				"energy": -0.20657,
				"method": "rhf"
			},
			{
				"type": "unocc",
				"energy": -0.042,
				"method": "rhf"
			},
			{
				"type": "unocc",
				"energy": -0.01727,
				"method": "rhf"
			},
			{
				"type": "unocc",
				"energy": -0.01004,
				"method": "rhf"
			},
			{
				"type": "unocc",
				"energy": 0.02219,
				"method": "rhf"
			},
			{
				"type": "unocc",
				"energy": 0.03347,
				"method": "rhf"
			}
		],
		"cosmo_sigma_profile": { 
			"-0.025": 0.0,
			"-0.024": 0.0,
			"-0.023": 0.0,
			"-0.022": 0.0,
			"-0.021": 0.0,
			"-0.02": 0.0,
			"-0.019": 0.0,
			"-0.018": 0.0,
			"-0.017": 0.0,
			"-0.016": 0.0,
			"-0.015": 0.0,
			"-0.014": 0.0,
			"-0.013": 0.0,
			"-0.012": 0.114066688595,
			"-0.011": 0.545564702011,
			"-0.01": 2.9713033478,
			"-0.009": 4.02554188968,
			"-0.008": 5.62153767027,
			"-0.007": 8.30890548298,
			"-0.006": 16.1562158613,
			"-0.005": 19.4026007678,
			"-0.004": 20.8725687678,
			"-0.003": 18.8582118513,
			"-0.002": 18.72192028,
			"-0.001": 16.8118463493,
			"0.0": 17.9911290933,
			"0.001": 19.1208638037,
			"0.002": 20.2762945175,
			"0.003": 27.0033238444,
			"0.004": 26.9999875149,
			"0.005": 19.1905078917,
			"0.006": 4.34603615877,
			"0.007": 3.38779930552,
			"0.008": 2.97328942106,
			"0.009": 2.93277117344,
			"0.01": 1.49538399836,
			"0.011": 2.12031102002,
			"0.012": 1.50190026885,
			"0.013": 1.84505510317,
			"0.014": 2.50049194142,
			"0.015": 0.26192895104,
			"0.016": 0.0,
			"0.017": 0.0,
			"0.018": 0.0,
			"0.019": 0.0,
			"0.02": 0.0,
			"0.021": 0.0,
			"0.022": 0.0,
			"0.023": 0.0,
			"0.024": 0.0,
			"0.025": 0.0
		}
	}
}
