{
	 "smiles": "CC1=CC(NN=C2C(=O)N(N=C2C(F)(F)F)C2=CC=CC=C2)=CC=C1", 
	 "Tm": 434.15, 
	 "num_atms": 38, 
	 "gaussian": { 
		 "optdone": 1, 
		 "sigma_profile": "yes", 
		 "theory": "DFT", 
		 "functional": "B3LYP", 
		 "basiset": "6-31G**", 
		 "properties": { 
			 "R2extent": 12882.6442, 
			 "electric_dipole_moment_norm": 3.82659860712, 
			 "electric_quadrupole_moment_norm": 19.3313015558, 
			 "total_energy": -1249.36215358, 
			 "HOMO_LUMO_gap": 0.11818, 
			 "cosmo_polarized_energy": -10.05, 
			 "cosmo_cavitation_energy": 45.16, 
			 "cosmo_dispersion_energy": -31.65, 
			 "cosmo_repulsion_energy": 2.32, 
			 "cosmo_total_nonelectrostatic_energy": 15.83, 
			 "SMD_solvation_energy": 8.02 
		},
		"coords": [
			{
				"x": -3.8891208725,
				"y": -3.6269771751,
				"z": 3.7659062571,
				"element": "C" 
			},
			{
				"x": -2.5792710723,
				"y": -2.898830748,
				"z": 3.5755491088,
				"element": "C" 
			},
			{
				"x": -2.2168701052,
				"y": -2.4022641756,
				"z": 2.3231492193,
				"element": "C" 
			},
			{
				"x": -0.9941938196,
				"y": -1.7375131154,
				"z": 2.1572774419,
				"element": "C" 
			},
			{
				"x": -0.6013012381,
				"y": -1.2256744494,
				"z": 0.9086944608,
				"element": "N" 
			},
			{
				"x": -1.3505138454,
				"y": -1.3457417353,
				"z": -0.153262852,
				"element": "N" 
			},
			{
				"x": -0.8945475398,
				"y": -0.8323135319,
				"z": -1.2769300809,
				"element": "C" 
			},
			{
				"x": 0.3757384242,
				"y": -0.1289759373,
				"z": -1.4835191523,
				"element": "C" 
			},
			{
				"x": 1.2479057604,
				"y": 0.1068175281,
				"z": -0.6328871337,
				"element": "O" 
			},
			{
				"x": 0.3605140388,
				"y": 0.1998817436,
				"z": -2.8352962631,
				"element": "N" 
			},
			{
				"x": -0.796994298,
				"y": -0.2380060701,
				"z": -3.4623445662,
				"element": "N" 
			},
			{
				"x": -1.5280709406,
				"y": -0.8362378519,
				"z": -2.5666275427,
				"element": "C" 
			},
			{
				"x": -2.8584813794,
				"y": -1.4317294116,
				"z": -2.920669854,
				"element": "C" 
			},
			{
				"x": -3.1563481539,
				"y": -1.2578278499,
				"z": -4.2155530541,
				"element": "F" 
			},
			{
				"x": -2.8718838979,
				"y": -2.7569105834,
				"z": -2.6598907245,
				"element": "F" 
			},
			{
				"x": -3.8421736506,
				"y": -0.8721300706,
				"z": -2.1834679413,
				"element": "F" 
			},
			{
				"x": 1.3380669484,
				"y": 0.8934625042,
				"z": -3.6024817052,
				"element": "C" 
			},
			{
				"x": 2.5211050111,
				"y": 1.3498777884,
				"z": -3.0040976717,
				"element": "C" 
			},
			{
				"x": 3.4596080382,
				"y": 2.0266063052,
				"z": -3.7832107848,
				"element": "C" 
			},
			{
				"x": 3.2365157014,
				"y": 2.2530227838,
				"z": -5.1414782873,
				"element": "C" 
			},
			{
				"x": 2.0543618763,
				"y": 1.7932314741,
				"z": -5.7248948927,
				"element": "C" 
			},
			{
				"x": 1.103113396,
				"y": 1.1151521154,
				"z": -4.9662546745,
				"element": "C" 
			},
			{
				"x": -0.1222057326,
				"y": -1.56053043,
				"z": 3.2369100538,
				"element": "C" 
			},
			{
				"x": -0.487096511,
				"y": -2.0565027959,
				"z": 4.4873160902,
				"element": "C" 
			},
			{
				"x": -1.7012956339,
				"y": -2.7182489602,
				"z": 4.6582800596,
				"element": "C" 
			},
			{
				"x": -4.5046539153,
				"y": -3.587142357,
				"z": 2.8637950776,
				"element": "H" 
			},
			{
				"x": -3.7212228197,
				"y": -4.6824622958,
				"z": 4.0099587009,
				"element": "H" 
			},
			{
				"x": -4.4670194725,
				"y": -3.1941164704,
				"z": 4.5896239002,
				"element": "H" 
			},
			{
				"x": -2.8715341531,
				"y": -2.5225930454,
				"z": 1.4675456772,
				"element": "H" 
			},
			{
				"x": 0.2997084978,
				"y": -0.7387707571,
				"z": 0.8081162899,
				"element": "H" 
			},
			{
				"x": 2.6955767295,
				"y": 1.1753154897,
				"z": -1.9514399432,
				"element": "H" 
			},
			{
				"x": 4.3746077558,
				"y": 2.3784059989,
				"z": -3.3153931129,
				"element": "H" 
			},
			{
				"x": 3.973924869,
				"y": 2.7809530351,
				"z": -5.7384965899,
				"element": "H" 
			},
			{
				"x": 1.8655249435,
				"y": 1.9614365205,
				"z": -6.7812079652,
				"element": "H" 
			},
			{
				"x": 0.1850885369,
				"y": 0.7566432323,
				"z": -5.4135006919,
				"element": "H" 
			},
			{
				"x": 0.8228600871,
				"y": -1.0427536226,
				"z": 3.0982971704,
				"element": "H" 
			},
			{
				"x": 0.1824498887,
				"y": -1.9225570471,
				"z": 5.3315316746,
				"element": "H" 
			},
			{
				"x": -1.9749714516,
				"y": -3.0990960323,
				"z": 5.638554302,
				"element": "H" 
			}
		],
		 "valence_orbital": [ 
			{
				"type": "occ",
				"energy": -0.26568,
				"method": "rhf"
			},
			{
				"type": "occ",
				"energy": -0.26179,
				"method": "rhf"
			},
			{
				"type": "occ",
				"energy": -0.25131,
				"method": "rhf"
			},
			{
				"type": "occ",
				"energy": -0.2302,
				"method": "rhf"
			},
			{
				"type": "occ",
				"energy": -0.2202,
				"method": "rhf"
			},
			{
				"type": "unocc",
				"energy": -0.10202,
				"method": "rhf"
			},
			{
				"type": "unocc",
				"energy": -0.02298,
				"method": "rhf"
			},
			{
				"type": "unocc",
				"energy": -0.01566,
				"method": "rhf"
			},
			{
				"type": "unocc",
				"energy": -0.00274,
				"method": "rhf"
			},
			{
				"type": "unocc",
				"energy": 0.00011,
				"method": "rhf"
			}
		],
		"cosmo_sigma_profile": { 
			"-0.025": 0.0,
			"-0.024": 0.0,
			"-0.023": 0.0,
			"-0.022": 0.0,
			"-0.021": 0.0,
			"-0.02": 0.0,
			"-0.019": 0.0,
			"-0.018": 0.0,
			"-0.017": 0.0,
			"-0.016": 0.0,
			"-0.015": 0.0,
			"-0.014": 0.0,
			"-0.013": 0.115188531998,
			"-0.012": 0.691781500508,
			"-0.011": 0.863881994082,
			"-0.01": 1.5556093895,
			"-0.009": 1.46484449601,
			"-0.008": 1.88310475323,
			"-0.007": 2.63216524848,
			"-0.006": 13.4634519374,
			"-0.005": 21.5401999138,
			"-0.004": 30.5948819709,
			"-0.003": 26.9067590883,
			"-0.002": 27.5424523502,
			"-0.001": 28.5734333094,
			"0.0": 30.2232111568,
			"0.001": 29.1897984146,
			"0.002": 47.1469181702,
			"0.003": 39.4322359523,
			"0.004": 28.2123997047,
			"0.005": 16.4145425616,
			"0.006": 4.28987078476,
			"0.007": 2.95717127854,
			"0.008": 2.73448584009,
			"0.009": 2.23078305815,
			"0.01": 2.37937394995,
			"0.011": 0.710339342523,
			"0.012": 0.0,
			"0.013": 0.0,
			"0.014": 0.0,
			"0.015": 0.0,
			"0.016": 0.0,
			"0.017": 0.0,
			"0.018": 0.0,
			"0.019": 0.0,
			"0.02": 0.0,
			"0.021": 0.0,
			"0.022": 0.0,
			"0.023": 0.0,
			"0.024": 0.0,
			"0.025": 0.0
		}
	}
}
