{
	 "smiles": "FC1=CC(F)=C(OC2=NN=C(Cl)C=C2)C=C1", 
	 "Tm": 387.15, 
	 "num_atms": 21, 
	 "gaussian": { 
		 "optdone": 1, 
		 "sigma_profile": "yes", 
		 "theory": "DFT", 
		 "functional": "B3LYP", 
		 "basiset": "6-31G**", 
		 "properties": { 
			 "R2extent": 5421.9401, 
			 "electric_dipole_moment_norm": 3.91474817964, 
			 "electric_quadrupole_moment_norm": 11.3281586606, 
			 "total_energy": -1228.60559554, 
			 "HOMO_LUMO_gap": 0.17287, 
			 "cosmo_polarized_energy": -11.6, 
			 "cosmo_cavitation_energy": 29.87, 
			 "cosmo_dispersion_energy": -21.57, 
			 "cosmo_repulsion_energy": 1.64, 
			 "cosmo_total_nonelectrostatic_energy": 9.94, 
			 "SMD_solvation_energy": 4.63 
		},
		"coords": [
			{
				"x": 3.5937393955,
				"y": -2.2035858256,
				"z": 2.0695172922,
				"element": "F" 
			},
			{
				"x": 2.7723554615,
				"y": -1.2660675509,
				"z": 1.5604197675,
				"element": "C" 
			},
			{
				"x": 2.9070461142,
				"y": -0.9248507284,
				"z": 0.217246863,
				"element": "C" 
			},
			{
				"x": 2.0585452654,
				"y": 0.0465540237,
				"z": -0.2924525745,
				"element": "C" 
			},
			{
				"x": 2.16571872,
				"y": 0.4161396028,
				"z": -1.5781771139,
				"element": "F" 
			},
			{
				"x": 1.0895751709,
				"y": 0.6569975074,
				"z": 0.5070211003,
				"element": "C" 
			},
			{
				"x": 0.3084573155,
				"y": 1.6956392519,
				"z": 0.0111599187,
				"element": "O" 
			},
			{
				"x": -0.5957787174,
				"y": 1.4420146244,
				"z": -0.9727719912,
				"element": "C" 
			},
			{
				"x": -0.8222047463,
				"y": 0.1916153877,
				"z": -1.339613744,
				"element": "N" 
			},
			{
				"x": -1.725835198,
				"y": -0.0615448242,
				"z": -2.2955388291,
				"element": "N" 
			},
			{
				"x": -2.3732333366,
				"y": 0.9448100277,
				"z": -2.8479157712,
				"element": "C" 
			},
			{
				"x": -3.5403217473,
				"y": 0.5357328051,
				"z": -4.0875239768,
				"element": "Cl" 
			},
			{
				"x": -2.1827248227,
				"y": 2.2967567056,
				"z": -2.5042467247,
				"element": "C" 
			},
			{
				"x": -1.2539309775,
				"y": 2.5576054291,
				"z": -1.5246425785,
				"element": "C" 
			},
			{
				"x": 0.9793268371,
				"y": 0.2968969454,
				"z": 1.8451076044,
				"element": "C" 
			},
			{
				"x": 1.8271098338,
				"y": -0.6710454215,
				"z": 2.3872429727,
				"element": "C" 
			},
			{
				"x": 3.650474769,
				"y": -1.3972369148,
				"z": -0.4129912901,
				"element": "H" 
			},
			{
				"x": -2.7446930748,
				"y": 3.0821868534,
				"z": -2.9958590715,
				"element": "H" 
			},
			{
				"x": -1.0221689614,
				"y": 3.5593476969,
				"z": -1.1809073845,
				"element": "H" 
			},
			{
				"x": 0.2269944764,
				"y": 0.7841299169,
				"z": 2.455636063,
				"element": "H" 
			},
			{
				"x": 1.7587482228,
				"y": -0.9662955128,
				"z": 3.4275894681,
				"element": "H" 
			}
		],
		 "valence_orbital": [ 
			{
				"type": "occ",
				"energy": -0.32074,
				"method": "rhf"
			},
			{
				"type": "occ",
				"energy": -0.27153,
				"method": "rhf"
			},
			{
				"type": "occ",
				"energy": -0.26797,
				"method": "rhf"
			},
			{
				"type": "occ",
				"energy": -0.25991,
				"method": "rhf"
			},
			{
				"type": "occ",
				"energy": -0.24129,
				"method": "rhf"
			},
			{
				"type": "unocc",
				"energy": -0.06842,
				"method": "rhf"
			},
			{
				"type": "unocc",
				"energy": -0.03272,
				"method": "rhf"
			},
			{
				"type": "unocc",
				"energy": -0.01973,
				"method": "rhf"
			},
			{
				"type": "unocc",
				"energy": -0.00607,
				"method": "rhf"
			},
			{
				"type": "unocc",
				"energy": 0.02241,
				"method": "rhf"
			}
		],
		"cosmo_sigma_profile": { 
			"-0.025": 0.0,
			"-0.024": 0.0,
			"-0.023": 0.0,
			"-0.022": 0.0,
			"-0.021": 0.0,
			"-0.02": 0.0,
			"-0.019": 0.0,
			"-0.018": 0.0,
			"-0.017": 0.0,
			"-0.016": 0.0,
			"-0.015": 0.0,
			"-0.014": 0.0,
			"-0.013": 0.0,
			"-0.012": 0.0,
			"-0.011": 0.00602741208854,
			"-0.01": 3.09081816639,
			"-0.009": 6.26488570577,
			"-0.008": 8.8680131266,
			"-0.007": 7.82481248717,
			"-0.006": 8.24655681313,
			"-0.005": 8.51623897961,
			"-0.004": 10.3986699479,
			"-0.003": 16.1179851663,
			"-0.002": 18.081403113,
			"-0.001": 18.8633784642,
			"0.0": 22.5078799532,
			"0.001": 22.0246690255,
			"0.002": 19.4241280665,
			"0.003": 25.6032567155,
			"0.004": 21.631355308,
			"0.005": 5.32222202931,
			"0.006": 4.19048782854,
			"0.007": 3.51171215535,
			"0.008": 2.10766398651,
			"0.009": 2.27015098624,
			"0.01": 2.08930734679,
			"0.011": 3.36471658543,
			"0.012": 2.20616952811,
			"0.013": 1.45192488641,
			"0.014": 0.576391986494,
			"0.015": 0.0,
			"0.016": 0.0,
			"0.017": 0.0,
			"0.018": 0.0,
			"0.019": 0.0,
			"0.02": 0.0,
			"0.021": 0.0,
			"0.022": 0.0,
			"0.023": 0.0,
			"0.024": 0.0,
			"0.025": 0.0
		}
	}
}
