{
	 "smiles": "OC(=O)C1=C(Cl)C(Cl)=CC=C1Cl", 
	 "Tm": 398.15, 
	 "num_atms": 15, 
	 "gaussian": { 
		 "optdone": 1, 
		 "sigma_profile": "yes", 
		 "theory": "DFT", 
		 "functional": "B3LYP", 
		 "basiset": "6-31G**", 
		 "properties": { 
			 "R2extent": 3581.792, 
			 "electric_dipole_moment_norm": 4.62322132501, 
			 "electric_quadrupole_moment_norm": 6.54582562096, 
			 "total_energy": -1799.56647351, 
			 "HOMO_LUMO_gap": 0.20893, 
			 "cosmo_polarized_energy": -13.55, 
			 "cosmo_cavitation_energy": 26.04, 
			 "cosmo_dispersion_energy": -18.77, 
			 "cosmo_repulsion_energy": 1.51, 
			 "cosmo_total_nonelectrostatic_energy": 8.78, 
			 "SMD_solvation_energy": 4.74 
		},
		"coords": [
			{
				"x": -1.5479338367,
				"y": 0.4622208286,
				"z": 2.6269014779,
				"element": "O" 
			},
			{
				"x": -1.599556241,
				"y": -0.014529342,
				"z": 1.3636832762,
				"element": "C" 
			},
			{
				"x": -2.3533523744,
				"y": -0.8964826266,
				"z": 1.0531138859,
				"element": "O" 
			},
			{
				"x": -0.6372985599,
				"y": 0.6309532067,
				"z": 0.3812307527,
				"element": "C" 
			},
			{
				"x": -0.9477697297,
				"y": 1.861175152,
				"z": -0.2220410543,
				"element": "C" 
			},
			{
				"x": -2.4107774711,
				"y": 2.6870439721,
				"z": 0.2498211891,
				"element": "Cl" 
			},
			{
				"x": -0.0943881694,
				"y": 2.413877127,
				"z": -1.1873268231,
				"element": "C" 
			},
			{
				"x": -0.4547072484,
				"y": 3.9356549631,
				"z": -1.9555094563,
				"element": "Cl" 
			},
			{
				"x": 1.0724515834,
				"y": 1.7379065402,
				"z": -1.5473454007,
				"element": "C" 
			},
			{
				"x": 1.3956913671,
				"y": 0.5230831258,
				"z": -0.9532042331,
				"element": "C" 
			},
			{
				"x": 0.5412408923,
				"y": -0.0242485173,
				"z": 0.0022096886,
				"element": "C" 
			},
			{
				"x": 0.975074816,
				"y": -1.5456515966,
				"z": 0.7492435749,
				"element": "Cl" 
			},
			{
				"x": -0.8914147223,
				"y": 1.1711396662,
				"z": 2.693023732,
				"element": "H" 
			},
			{
				"x": 1.725683316,
				"y": 2.1726044328,
				"z": -2.2953329886,
				"element": "H" 
			},
			{
				"x": 2.304056378,
				"y": 0.0001530678,
				"z": -1.2286676213,
				"element": "H" 
			}
		],
		 "valence_orbital": [ 
			{
				"type": "occ",
				"energy": -0.32924,
				"method": "rhf"
			},
			{
				"type": "occ",
				"energy": -0.32819,
				"method": "rhf"
			},
			{
				"type": "occ",
				"energy": -0.30077,
				"method": "rhf"
			},
			{
				"type": "occ",
				"energy": -0.27921,
				"method": "rhf"
			},
			{
				"type": "occ",
				"energy": -0.26565,
				"method": "rhf"
			},
			{
				"type": "unocc",
				"energy": -0.05672,
				"method": "rhf"
			},
			{
				"type": "unocc",
				"energy": -0.05044,
				"method": "rhf"
			},
			{
				"type": "unocc",
				"energy": -0.02505,
				"method": "rhf"
			},
			{
				"type": "unocc",
				"energy": -0.00939,
				"method": "rhf"
			},
			{
				"type": "unocc",
				"energy": 0.01712,
				"method": "rhf"
			}
		],
		"cosmo_sigma_profile": { 
			"-0.025": 0.0,
			"-0.024": 0.0,
			"-0.023": 0.0,
			"-0.022": 0.0,
			"-0.021": 0.0,
			"-0.02": 0.0,
			"-0.019": 0.0847477497186,
			"-0.018": 1.14869226078,
			"-0.017": 0.624612909385,
			"-0.016": 0.668210651682,
			"-0.015": 0.778595289472,
			"-0.014": 0.842474732562,
			"-0.013": 1.18124496859,
			"-0.012": 1.28295207705,
			"-0.011": 0.609904003984,
			"-0.01": 1.00334144362,
			"-0.009": 6.48146894816,
			"-0.008": 7.11440120492,
			"-0.007": 4.87834451285,
			"-0.006": 4.12027773556,
			"-0.005": 4.86446055094,
			"-0.004": 7.10698110165,
			"-0.003": 9.32572913528,
			"-0.002": 16.8996863401,
			"-0.001": 23.4372268271,
			"0.0": 20.7630404346,
			"0.001": 19.0963558719,
			"0.002": 21.0593257988,
			"0.003": 23.1968695653,
			"0.004": 10.9782810897,
			"0.005": 3.39545861178,
			"0.006": 3.25389003088,
			"0.007": 2.77584063103,
			"0.008": 4.43810465917,
			"0.009": 4.88969744638,
			"0.01": 5.5036532694,
			"0.011": 4.05425949543,
			"0.012": 0.583315933198,
			"0.013": 0.0,
			"0.014": 0.0,
			"0.015": 0.0,
			"0.016": 0.0,
			"0.017": 0.0,
			"0.018": 0.0,
			"0.019": 0.0,
			"0.02": 0.0,
			"0.021": 0.0,
			"0.022": 0.0,
			"0.023": 0.0,
			"0.024": 0.0,
			"0.025": 0.0
		}
	}
}
