{
	 "smiles": "C(OC1=CC=CC=C1)C1=NC2=C(N1)C=CC=C2", 
	 "Tm": 437.15, 
	 "num_atms": 29, 
	 "gaussian": { 
		 "optdone": 1, 
		 "sigma_profile": "yes", 
		 "theory": "DFT", 
		 "functional": "B3LYP", 
		 "basiset": "6-31G**", 
		 "properties": { 
			 "R2extent": 5100.8095, 
			 "electric_dipole_moment_norm": 2.15279650919, 
			 "electric_quadrupole_moment_norm": 3.8500156649, 
			 "total_energy": -725.452885657, 
			 "HOMO_LUMO_gap": 0.20511, 
			 "cosmo_polarized_energy": -12.65, 
			 "cosmo_cavitation_energy": 33.23, 
			 "cosmo_dispersion_energy": -24.13, 
			 "cosmo_repulsion_energy": 1.87, 
			 "cosmo_total_nonelectrostatic_energy": 10.96, 
			 "SMD_solvation_energy": 3.37 
		},
		"coords": [
			{
				"x": 0.719137366,
				"y": -1.1754349155,
				"z": -1.7410310068,
				"element": "C" 
			},
			{
				"x": 1.628518434,
				"y": -0.4805907067,
				"z": -0.8911155818,
				"element": "O" 
			},
			{
				"x": 1.5088508533,
				"y": 0.8867535721,
				"z": -0.7709838156,
				"element": "C" 
			},
			{
				"x": 2.5346089543,
				"y": 1.5127945133,
				"z": -0.0506904705,
				"element": "C" 
			},
			{
				"x": 2.512648407,
				"y": 2.8922001239,
				"z": 0.1295898358,
				"element": "C" 
			},
			{
				"x": 1.4736084315,
				"y": 3.6605928543,
				"z": -0.4053629744,
				"element": "C" 
			},
			{
				"x": 0.4567346421,
				"y": 3.0289716673,
				"z": -1.1183208065,
				"element": "C" 
			},
			{
				"x": 0.4610962354,
				"y": 1.6428955713,
				"z": -1.3071393435,
				"element": "C" 
			},
			{
				"x": -0.6220941831,
				"y": -1.3840112224,
				"z": -1.1001479607,
				"element": "C" 
			},
			{
				"x": -1.7696217292,
				"y": -1.4070883668,
				"z": -1.7328603979,
				"element": "N" 
			},
			{
				"x": -2.7118490295,
				"y": -1.6827236123,
				"z": -0.7480976936,
				"element": "C" 
			},
			{
				"x": -2.0810474786,
				"y": -1.8155621284,
				"z": 0.5141755367,
				"element": "C" 
			},
			{
				"x": -0.7346074746,
				"y": -1.6306163084,
				"z": 0.2491778024,
				"element": "N" 
			},
			{
				"x": -2.7933621957,
				"y": -2.0777118237,
				"z": 1.6858784745,
				"element": "C" 
			},
			{
				"x": -4.1741572562,
				"y": -2.2118148642,
				"z": 1.5615978617,
				"element": "C" 
			},
			{
				"x": -4.8183719588,
				"y": -2.0868318557,
				"z": 0.3139566795,
				"element": "C" 
			},
			{
				"x": -4.1017566839,
				"y": -1.8221919782,
				"z": -0.8487774345,
				"element": "C" 
			},
			{
				"x": 0.5816806657,
				"y": -0.6709845297,
				"z": -2.7029240531,
				"element": "H" 
			},
			{
				"x": 1.2023440251,
				"y": -2.1402326993,
				"z": -1.9299816664,
				"element": "H" 
			},
			{
				"x": 3.3368687136,
				"y": 0.9012225938,
				"z": 0.3496753142,
				"element": "H" 
			},
			{
				"x": 3.3135036817,
				"y": 3.3697501301,
				"z": 0.6870422493,
				"element": "H" 
			},
			{
				"x": 1.4585053736,
				"y": 4.7368658695,
				"z": -0.2648022392,
				"element": "H" 
			},
			{
				"x": -0.3599525462,
				"y": 3.6120992695,
				"z": -1.5342517591,
				"element": "H" 
			},
			{
				"x": -0.3532345288,
				"y": 1.1733626848,
				"z": -1.8464018231,
				"element": "H" 
			},
			{
				"x": 0.0257157801,
				"y": -1.5805996134,
				"z": 0.9099945035,
				"element": "H" 
			},
			{
				"x": -2.3006936463,
				"y": -2.1752939789,
				"z": 2.6485817917,
				"element": "H" 
			},
			{
				"x": -4.7679979804,
				"y": -2.4183129689,
				"z": 2.4470845583,
				"element": "H" 
			},
			{
				"x": -5.8972853178,
				"y": -2.19988006,
				"z": 0.2641042297,
				"element": "H" 
			},
			{
				"x": -4.5921895539,
				"y": -1.7232272174,
				"z": -1.8117698104,
				"element": "H" 
			}
		],
		 "valence_orbital": [ 
			{
				"type": "occ",
				"energy": -0.27393,
				"method": "rhf"
			},
			{
				"type": "occ",
				"energy": -0.25236,
				"method": "rhf"
			},
			{
				"type": "occ",
				"energy": -0.22742,
				"method": "rhf"
			},
			{
				"type": "occ",
				"energy": -0.22568,
				"method": "rhf"
			},
			{
				"type": "occ",
				"energy": -0.22336,
				"method": "rhf"
			},
			{
				"type": "unocc",
				"energy": -0.01825,
				"method": "rhf"
			},
			{
				"type": "unocc",
				"energy": -0.00254,
				"method": "rhf"
			},
			{
				"type": "unocc",
				"energy": 0.00968,
				"method": "rhf"
			},
			{
				"type": "unocc",
				"energy": 0.02175,
				"method": "rhf"
			},
			{
				"type": "unocc",
				"energy": 0.04774,
				"method": "rhf"
			}
		],
		"cosmo_sigma_profile": { 
			"-0.025": 0.0,
			"-0.024": 0.0,
			"-0.023": 0.0,
			"-0.022": 0.0,
			"-0.021": 0.0,
			"-0.02": 0.0,
			"-0.019": 0.0,
			"-0.018": 0.0,
			"-0.017": 0.0,
			"-0.016": 0.599612871305,
			"-0.015": 0.924890932317,
			"-0.014": 1.20247181812,
			"-0.013": 1.35661389942,
			"-0.012": 0.629089682665,
			"-0.011": 0.926073922919,
			"-0.01": 0.901868609942,
			"-0.009": 1.25581916713,
			"-0.008": 2.78020279625,
			"-0.007": 5.75620443833,
			"-0.006": 15.0623608799,
			"-0.005": 22.0321304667,
			"-0.004": 22.3688839345,
			"-0.003": 20.3621015111,
			"-0.002": 14.4880809655,
			"-0.001": 15.0607442573,
			"0.0": 13.8553064031,
			"0.001": 17.6652324604,
			"0.002": 18.2527089946,
			"0.003": 17.2604494496,
			"0.004": 20.4826692319,
			"0.005": 21.8796964819,
			"0.006": 16.5535572689,
			"0.007": 3.41100219257,
			"0.008": 1.9160935202,
			"0.009": 2.41743610285,
			"0.01": 1.10484931949,
			"0.011": 0.412240940071,
			"0.012": 1.15861491736,
			"0.013": 1.06079604309,
			"0.014": 0.811925344214,
			"0.015": 0.774182200604,
			"0.016": 0.862242018469,
			"0.017": 0.684746577529,
			"0.018": 0.124975890791,
			"0.019": 0.0,
			"0.02": 0.0,
			"0.021": 0.0,
			"0.022": 0.0,
			"0.023": 0.0,
			"0.024": 0.0,
			"0.025": 0.0
		}
	}
}
