{
	 "smiles": "NNC(=O)CN1CCCC2=C1C=CC=C2", 
	 "Tm": 381.15, 
	 "num_atms": 30, 
	 "gaussian": { 
		 "optdone": 1, 
		 "sigma_profile": "yes", 
		 "theory": "DFT", 
		 "functional": "B3LYP", 
		 "basiset": "6-31G**", 
		 "properties": { 
			 "R2extent": 3891.631, 
			 "electric_dipole_moment_norm": 2.38648470768, 
			 "electric_quadrupole_moment_norm": 14.2937540153, 
			 "total_energy": -667.666695676, 
			 "HOMO_LUMO_gap": 0.19774, 
			 "cosmo_polarized_energy": -14.21, 
			 "cosmo_cavitation_energy": 31.5, 
			 "cosmo_dispersion_energy": -22.54, 
			 "cosmo_repulsion_energy": 1.76, 
			 "cosmo_total_nonelectrostatic_energy": 10.72, 
			 "SMD_solvation_energy": 5.94 
		},
		"coords": [
			{
				"x": -3.8728287861,
				"y": 0.2822996786,
				"z": 0.8866546222,
				"element": "N" 
			},
			{
				"x": -3.9478901687,
				"y": -0.956649497,
				"z": 1.5509851143,
				"element": "N" 
			},
			{
				"x": -2.9040315286,
				"y": -1.7515917877,
				"z": 1.942041291,
				"element": "C" 
			},
			{
				"x": -3.0882695756,
				"y": -2.8610811351,
				"z": 2.4256719758,
				"element": "O" 
			},
			{
				"x": -1.5003308972,
				"y": -1.1663537418,
				"z": 1.7400523718,
				"element": "C" 
			},
			{
				"x": -1.1730121963,
				"y": -1.0145120318,
				"z": 0.3216956106,
				"element": "N" 
			},
			{
				"x": -1.254851979,
				"y": -2.2686285158,
				"z": -0.4414117013,
				"element": "C" 
			},
			{
				"x": -1.3005854461,
				"y": -1.969285576,
				"z": -1.9358816202,
				"element": "C" 
			},
			{
				"x": -0.0125962861,
				"y": -1.2595148325,
				"z": -2.3565785539,
				"element": "C" 
			},
			{
				"x": 0.4076111712,
				"y": -0.1878153194,
				"z": -1.3665051767,
				"element": "C" 
			},
			{
				"x": -0.1334746665,
				"y": -0.1254252278,
				"z": -0.0559796936,
				"element": "C" 
			},
			{
				"x": 0.3560187019,
				"y": 0.8653850412,
				"z": 0.8182468766,
				"element": "C" 
			},
			{
				"x": 1.3223808919,
				"y": 1.7818337991,
				"z": 0.4087428062,
				"element": "C" 
			},
			{
				"x": 1.8393438033,
				"y": 1.733889406,
				"z": -0.8835683446,
				"element": "C" 
			},
			{
				"x": 1.3738366364,
				"y": 0.7460479742,
				"z": -1.7489735781,
				"element": "C" 
			},
			{
				"x": -3.6163852046,
				"y": 1.0105720774,
				"z": 1.5507642199,
				"element": "H" 
			},
			{
				"x": -3.1401642744,
				"y": 0.2245386603,
				"z": 0.1811806426,
				"element": "H" 
			},
			{
				"x": -4.866731732,
				"y": -1.37862899,
				"z": 1.5920358952,
				"element": "H" 
			},
			{
				"x": -0.8026245931,
				"y": -1.829167649,
				"z": 2.2705806658,
				"element": "H" 
			},
			{
				"x": -1.476717548,
				"y": -0.187630855,
				"z": 2.2229490078,
				"element": "H" 
			},
			{
				"x": -0.3954797645,
				"y": -2.9217038167,
				"z": -0.2101657169,
				"element": "H" 
			},
			{
				"x": -2.1532369458,
				"y": -2.8042591894,
				"z": -0.1273574349,
				"element": "H" 
			},
			{
				"x": -2.1728290354,
				"y": -1.3377815278,
				"z": -2.1426819055,
				"element": "H" 
			},
			{
				"x": -1.4320471381,
				"y": -2.8994035524,
				"z": -2.4986703843,
				"element": "H" 
			},
			{
				"x": -0.1224430618,
				"y": -0.81989501,
				"z": -3.3547388148,
				"element": "H" 
			},
			{
				"x": 0.7945917892,
				"y": -2.001024395,
				"z": -2.4409598687,
				"element": "H" 
			},
			{
				"x": -0.002947898,
				"y": 0.9294642887,
				"z": 1.8377757216,
				"element": "H" 
			},
			{
				"x": 1.6724028561,
				"y": 2.5302835188,
				"z": 1.1141581125,
				"element": "H" 
			},
			{
				"x": 2.5912828118,
				"y": 2.4451517209,
				"z": -1.2104882652,
				"element": "H" 
			},
			{
				"x": 1.7711100643,
				"y": 0.686686485,
				"z": -2.7601738751,
				"element": "H" 
			}
		],
		 "valence_orbital": [ 
			{
				"type": "occ",
				"energy": -0.28776,
				"method": "rhf"
			},
			{
				"type": "occ",
				"energy": -0.2551,
				"method": "rhf"
			},
			{
				"type": "occ",
				"energy": -0.24422,
				"method": "rhf"
			},
			{
				"type": "occ",
				"energy": -0.24221,
				"method": "rhf"
			},
			{
				"type": "occ",
				"energy": -0.2007,
				"method": "rhf"
			},
			{
				"type": "unocc",
				"energy": -0.00296,
				"method": "rhf"
			},
			{
				"type": "unocc",
				"energy": 0.00912,
				"method": "rhf"
			},
			{
				"type": "unocc",
				"energy": 0.01535,
				"method": "rhf"
			},
			{
				"type": "unocc",
				"energy": 0.06823,
				"method": "rhf"
			},
			{
				"type": "unocc",
				"energy": 0.08996,
				"method": "rhf"
			}
		],
		"cosmo_sigma_profile": { 
			"-0.025": 0.0,
			"-0.024": 0.0,
			"-0.023": 0.0,
			"-0.022": 0.0,
			"-0.021": 0.0,
			"-0.02": 0.0,
			"-0.019": 0.0,
			"-0.018": 0.0,
			"-0.017": 0.0,
			"-0.016": 0.0,
			"-0.015": 0.0,
			"-0.014": 0.313282118097,
			"-0.013": 0.752715640772,
			"-0.012": 1.32188753933,
			"-0.011": 2.86567131516,
			"-0.01": 2.70284868625,
			"-0.009": 2.99140412923,
			"-0.008": 4.71082217498,
			"-0.007": 5.39283921219,
			"-0.006": 4.892084225,
			"-0.005": 9.61439076092,
			"-0.004": 19.7077429966,
			"-0.003": 35.1848280104,
			"-0.002": 30.9691439712,
			"-0.001": 21.7823749386,
			"0.0": 15.8293642855,
			"0.001": 10.7501388,
			"0.002": 10.0043867292,
			"0.003": 8.45171968851,
			"0.004": 9.46669632425,
			"0.005": 8.74794247951,
			"0.006": 8.64133249317,
			"0.007": 8.11265909661,
			"0.008": 3.47546253884,
			"0.009": 1.51677690282,
			"0.01": 2.22032228045,
			"0.011": 2.17738268299,
			"0.012": 2.44129180582,
			"0.013": 4.72986060083,
			"0.014": 5.18854709034,
			"0.015": 1.58810822224,
			"0.016": 0.596368499138,
			"0.017": 0.112653907099,
			"0.018": 0.0,
			"0.019": 0.0,
			"0.02": 0.0,
			"0.021": 0.0,
			"0.022": 0.0,
			"0.023": 0.0,
			"0.024": 0.0,
			"0.025": 0.0
		}
	}
}
