{
	 "smiles": "CC(C)(C)OC(=O)N1CCC(CC1)C(O)=O", 
	 "Tm": 423.15, 
	 "num_atms": 35, 
	 "gaussian": { 
		 "optdone": 1, 
		 "sigma_profile": "yes", 
		 "theory": "DFT", 
		 "functional": "B3LYP", 
		 "basiset": "6-31G**", 
		 "properties": { 
			 "R2extent": 5339.724, 
			 "electric_dipole_moment_norm": 2.33653851884, 
			 "electric_quadrupole_moment_norm": 30.2243965678, 
			 "total_energy": -786.31544591, 
			 "HOMO_LUMO_gap": 0.23893, 
			 "cosmo_polarized_energy": -18.69, 
			 "cosmo_cavitation_energy": 35.83, 
			 "cosmo_dispersion_energy": -25.14, 
			 "cosmo_repulsion_energy": 1.97, 
			 "cosmo_total_nonelectrostatic_energy": 12.67, 
			 "SMD_solvation_energy": 7.1 
		},
		"coords": [
			{
				"x": -0.0123521518,
				"y": -1.9202148979,
				"z": 3.1359817143,
				"element": "C" 
			},
			{
				"x": -1.306881335,
				"y": -1.1838091894,
				"z": 2.7745689732,
				"element": "C" 
			},
			{
				"x": -1.8509542389,
				"y": -0.3567521334,
				"z": 3.9444040365,
				"element": "C" 
			},
			{
				"x": -2.3652710107,
				"y": -2.1664025024,
				"z": 2.2658502946,
				"element": "C" 
			},
			{
				"x": -1.0852046509,
				"y": -0.3206813734,
				"z": 1.6042040598,
				"element": "O" 
			},
			{
				"x": -0.2050907752,
				"y": 0.7091912817,
				"z": 1.6555849957,
				"element": "C" 
			},
			{
				"x": 0.4886750384,
				"y": 1.0089145767,
				"z": 2.6194315735,
				"element": "O" 
			},
			{
				"x": -0.1916166652,
				"y": 1.3885279982,
				"z": 0.4654882179,
				"element": "N" 
			},
			{
				"x": -0.9977901773,
				"y": 0.9847207938,
				"z": -0.6968909208,
				"element": "C" 
			},
			{
				"x": -1.0783644339,
				"y": 2.1343283928,
				"z": -1.7026421975,
				"element": "C" 
			},
			{
				"x": 0.3107941336,
				"y": 2.5770542253,
				"z": -2.2076524209,
				"element": "C" 
			},
			{
				"x": 1.3975081802,
				"y": 2.4095123845,
				"z": -1.0997448454,
				"element": "C" 
			},
			{
				"x": 0.7786451281,
				"y": 2.4701678201,
				"z": 0.2990827105,
				"element": "C" 
			},
			{
				"x": 0.712765194,
				"y": 1.822096216,
				"z": -3.4771651598,
				"element": "C" 
			},
			{
				"x": 1.9301370026,
				"y": 2.1528786239,
				"z": -3.9884665428,
				"element": "O" 
			},
			{
				"x": 0.0435853839,
				"y": 0.9820960279,
				"z": -4.025773716,
				"element": "O" 
			},
			{
				"x": -0.211729,
				"y": -2.6444942913,
				"z": 3.9325792205,
				"element": "H" 
			},
			{
				"x": 0.3675321507,
				"y": -2.467563646,
				"z": 2.2673479911,
				"element": "H" 
			},
			{
				"x": 0.751325773,
				"y": -1.2207606153,
				"z": 3.4761778562,
				"element": "H" 
			},
			{
				"x": -2.1214689445,
				"y": -1.0226211125,
				"z": 4.7704156515,
				"element": "H" 
			},
			{
				"x": -1.1070678688,
				"y": 0.3585027241,
				"z": 4.2955605474,
				"element": "H" 
			},
			{
				"x": -2.7508206004,
				"y": 0.186731006,
				"z": 3.6387035357,
				"element": "H" 
			},
			{
				"x": -2.6216678519,
				"y": -2.882795433,
				"z": 3.051988763,
				"element": "H" 
			},
			{
				"x": -1.9928472446,
				"y": -2.7208203114,
				"z": 1.3995650192,
				"element": "H" 
			},
			{
				"x": -3.2755191721,
				"y": -1.6361705122,
				"z": 1.9706079459,
				"element": "H" 
			},
			{
				"x": -1.9978787736,
				"y": 0.7106472844,
				"z": -0.3561999714,
				"element": "H" 
			},
			{
				"x": -0.5690619086,
				"y": 0.0965530429,
				"z": -1.1808370141,
				"element": "H" 
			},
			{
				"x": -1.686508987,
				"y": 1.8184594322,
				"z": -2.5530465682,
				"element": "H" 
			},
			{
				"x": -1.5804093134,
				"y": 2.9861739057,
				"z": -1.2318332951,
				"element": "H" 
			},
			{
				"x": 0.2568465516,
				"y": 3.6397828767,
				"z": -2.4831915266,
				"element": "H" 
			},
			{
				"x": 1.9039097889,
				"y": 1.4434711519,
				"z": -1.2091105103,
				"element": "H" 
			},
			{
				"x": 2.1682894508,
				"y": 3.1854389797,
				"z": -1.1817927208,
				"element": "H" 
			},
			{
				"x": 1.538820139,
				"y": 2.3504736468,
				"z": 1.0720226952,
				"element": "H" 
			},
			{
				"x": 0.3050906613,
				"y": 3.450110437,
				"z": 0.4599784633,
				"element": "H" 
			},
			{
				"x": 2.3475805276,
				"y": 2.83865319,
				"z": -3.4482968554,
				"element": "H" 
			}
		],
		 "valence_orbital": [ 
			{
				"type": "occ",
				"energy": -0.3207,
				"method": "rhf"
			},
			{
				"type": "occ",
				"energy": -0.28501,
				"method": "rhf"
			},
			{
				"type": "occ",
				"energy": -0.2758,
				"method": "rhf"
			},
			{
				"type": "occ",
				"energy": -0.25834,
				"method": "rhf"
			},
			{
				"type": "occ",
				"energy": -0.23506,
				"method": "rhf"
			},
			{
				"type": "unocc",
				"energy": 0.00387,
				"method": "rhf"
			},
			{
				"type": "unocc",
				"energy": 0.0411,
				"method": "rhf"
			},
			{
				"type": "unocc",
				"energy": 0.05748,
				"method": "rhf"
			},
			{
				"type": "unocc",
				"energy": 0.07817,
				"method": "rhf"
			},
			{
				"type": "unocc",
				"energy": 0.08865,
				"method": "rhf"
			}
		],
		"cosmo_sigma_profile": { 
			"-0.025": 0.0,
			"-0.024": 0.0,
			"-0.023": 0.0,
			"-0.022": 0.0,
			"-0.021": 0.0,
			"-0.02": 0.0,
			"-0.019": 0.0,
			"-0.018": 0.724530534828,
			"-0.017": 1.13923807573,
			"-0.016": 1.41672394786,
			"-0.015": 1.11918744828,
			"-0.014": 0.607143563655,
			"-0.013": 0.681110869654,
			"-0.012": 1.29601189409,
			"-0.011": 1.65337551424,
			"-0.01": 0.817912411154,
			"-0.009": 1.33783121326,
			"-0.008": 1.82244239535,
			"-0.007": 3.03732520542,
			"-0.006": 5.41454782425,
			"-0.005": 11.1450897234,
			"-0.004": 29.0358303882,
			"-0.003": 33.0038384604,
			"-0.002": 28.2458355641,
			"-0.001": 25.0070515611,
			"0.0": 30.2503019679,
			"0.001": 24.673262055,
			"0.002": 10.9696410932,
			"0.003": 6.46557519101,
			"0.004": 7.05316298936,
			"0.005": 6.08013932659,
			"0.006": 5.28324373372,
			"0.007": 5.43272535376,
			"0.008": 4.6693291055,
			"0.009": 4.16808635854,
			"0.01": 5.96112127443,
			"0.011": 7.06451041231,
			"0.012": 6.17246275883,
			"0.013": 4.16220298233,
			"0.014": 2.19006897935,
			"0.015": 0.00139221124682,
			"0.016": 0.0,
			"0.017": 0.0,
			"0.018": 0.0,
			"0.019": 0.0,
			"0.02": 0.0,
			"0.021": 0.0,
			"0.022": 0.0,
			"0.023": 0.0,
			"0.024": 0.0,
			"0.025": 0.0
		}
	}
}
