{
	 "smiles": "FC1=C(C=C(I)C=C1)C(Cl)=O", 
	 "Tm": 302.15, 
	 "num_atms": 14, 
	 "gaussian": { 
		 "optdone": 1, 
		 "sigma_profile": "no", 
		 "theory": "DFT", 
		 "functional": "B3LYP", 
		 "basiset": "6-31G**", 
		 "properties": { 
			 "R2extent": 2485.2914, 
			 "electric_dipole_moment_norm": 3.79632567623, 
			 "electric_quadrupole_moment_norm": 10.6014029633, 
			 "total_energy": -915.186382286, 
			 "HOMO_LUMO_gap": 0.16683, 
			 "cosmo_polarized_energy": -94599.97, 
			 "cosmo_cavitation_energy": 24.6, 
			 "cosmo_dispersion_energy": -19.49, 
			 "cosmo_repulsion_energy": 1.52, 
			 "cosmo_total_nonelectrostatic_energy": 6.63, 
			 "SMD_solvation_energy": 4.39 
		},
		"coords": [
			{
				"x": -2.1065719298,
				"y": -1.3861181257,
				"z": -2.651350721,
				"element": "F" 
			},
			{
				"x": -1.0267428952,
				"y": -1.4136475185,
				"z": -1.8680485882,
				"element": "C" 
			},
			{
				"x": -0.8029641996,
				"y": -0.4029539842,
				"z": -0.9126254133,
				"element": "C" 
			},
			{
				"x": 0.3552111547,
				"y": -0.4922112441,
				"z": -0.1194986998,
				"element": "C" 
			},
			{
				"x": 1.2442738007,
				"y": -1.5488819502,
				"z": -0.2817569111,
				"element": "C" 
			},
			{
				"x": 2.9773210888,
				"y": -1.6543634837,
				"z": 0.9266560889,
				"element": "I" 
			},
			{
				"x": 1.0033305216,
				"y": -2.5426525906,
				"z": -1.2367484283,
				"element": "C" 
			},
			{
				"x": -0.1378096146,
				"y": -2.4702643192,
				"z": -2.0303910502,
				"element": "C" 
			},
			{
				"x": -1.7869196248,
				"y": 0.7000310182,
				"z": -0.7848482479,
				"element": "C" 
			},
			{
				"x": -1.3742758522,
				"y": 1.9505783205,
				"z": 0.4964018726,
				"element": "Cl" 
			},
			{
				"x": -2.7863613531,
				"y": 0.8430448701,
				"z": -1.41667215,
				"element": "O" 
			},
			{
				"x": 0.5408554415,
				"y": 0.2761862827,
				"z": 0.6184544354,
				"element": "H" 
			},
			{
				"x": 1.6962455159,
				"y": -3.3667158822,
				"z": -1.363613157,
				"element": "H" 
			},
			{
				"x": -0.3540920537,
				"y": -3.223731393,
				"z": -2.7795590304,
				"element": "H" 
			}
		],
		 "valence_orbital": [ 
			{
				"type": "occ",
				"energy": -0.3141,
				"method": "rhf"
			},
			{
				"type": "occ",
				"energy": -0.30091,
				"method": "rhf"
			},
			{
				"type": "occ",
				"energy": -0.29904,
				"method": "rhf"
			},
			{
				"type": "occ",
				"energy": -0.286,
				"method": "rhf"
			},
			{
				"type": "occ",
				"energy": -0.25886,
				"method": "rhf"
			},
			{
				"type": "unocc",
				"energy": -0.09203,
				"method": "rhf"
			},
			{
				"type": "unocc",
				"energy": -0.05749,
				"method": "rhf"
			},
			{
				"type": "unocc",
				"energy": -0.04096,
				"method": "rhf"
			},
			{
				"type": "unocc",
				"energy": 0.00653,
				"method": "rhf"
			},
			{
				"type": "unocc",
				"energy": 0.00709,
				"method": "rhf"
			}
		],
		"cosmo_sigma_profile": { 
			"0.0": 0.0,
			"0.0": 0.0,
			"0.0": 0.0,
			"0.0": 0.0,
			"0.0": 0.0,
			"0.0": 0.0,
			"0.0": 0.0,
			"0.0": 0.0,
			"0.0": 0.0,
			"0.0": 0.0,
			"0.0": 0.0,
			"0.0": 0.0,
			"0.0": 0.0,
			"0.0": 0.0,
			"0.0": 0.0,
			"0.0": 0.0,
			"0.0": 0.0,
			"0.0": 0.0,
			"0.0": 0.0,
			"0.0": 0.0,
			"0.0": 0.0,
			"0.0": 0.0,
			"0.0": 0.0,
			"0.0": 0.0,
			"0.0": 0.0,
			"0.0": 0.0,
			"0.0": 0.0,
			"0.0": 0.0,
			"0.0": 0.0,
			"0.0": 0.0,
			"0.0": 0.0,
			"0.0": 0.0,
			"0.0": 0.0,
			"0.0": 0.0,
			"0.0": 0.0,
			"0.0": 0.0,
			"0.0": 0.0,
			"0.0": 0.0,
			"0.0": 0.0,
			"0.0": 0.0,
			"0.0": 0.0,
			"0.0": 0.0,
			"0.0": 0.0,
			"0.0": 0.0,
			"0.0": 0.0,
			"0.0": 0.0,
			"0.0": 0.0,
			"0.0": 0.0,
			"0.0": 0.0,
			"0.0": 0.0,
			"0.0": 0.0
		}
	}
}
