{
	 "smiles": "O=C(NC1=NC=C(S1)N(=O)=O)C1=CC=CS1", 
	 "Tm": 529.15, 
	 "num_atms": 21, 
	 "gaussian": { 
		 "optdone": 1, 
		 "sigma_profile": "yes", 
		 "theory": "DFT", 
		 "functional": "B3LYP", 
		 "basiset": "6-31G**", 
		 "properties": { 
			 "R2extent": 6262.3695, 
			 "electric_dipole_moment_norm": 3.87383841429, 
			 "electric_quadrupole_moment_norm": 25.912407333, 
			 "total_energy": -1494.03483935, 
			 "HOMO_LUMO_gap": 0.15015, 
			 "cosmo_polarized_energy": -15.59, 
			 "cosmo_cavitation_energy": 30.73, 
			 "cosmo_dispersion_energy": -22.98, 
			 "cosmo_repulsion_energy": 1.7, 
			 "cosmo_total_nonelectrostatic_energy": 9.45, 
			 "SMD_solvation_energy": 6.6 
		},
		"coords": [
			{
				"x": 1.0760787638,
				"y": 3.9457214955,
				"z": 1.1086601093,
				"element": "O" 
			},
			{
				"x": 1.1146338605,
				"y": 2.7517594995,
				"z": 0.8622241858,
				"element": "C" 
			},
			{
				"x": 2.2918564618,
				"y": 2.0367514863,
				"z": 1.1754476776,
				"element": "N" 
			},
			{
				"x": 2.4979223212,
				"y": 0.7734817969,
				"z": 1.6869119363,
				"element": "C" 
			},
			{
				"x": 3.6993623391,
				"y": 0.4586252158,
				"z": 2.1309096095,
				"element": "N" 
			},
			{
				"x": 3.7051671766,
				"y": -0.7957401015,
				"z": 2.6571525253,
				"element": "C" 
			},
			{
				"x": 2.5026063185,
				"y": -1.4465013418,
				"z": 2.6255718601,
				"element": "C" 
			},
			{
				"x": 1.2601974552,
				"y": -0.4634146744,
				"z": 1.8824492656,
				"element": "S" 
			},
			{
				"x": 2.2159727682,
				"y": -2.7661308365,
				"z": 3.0776239696,
				"element": "N" 
			},
			{
				"x": 3.1401857543,
				"y": -3.407601132,
				"z": 3.5824730328,
				"element": "O" 
			},
			{
				"x": 1.0557747113,
				"y": -3.1694886753,
				"z": 2.9294102444,
				"element": "O" 
			},
			{
				"x": 0.0234377301,
				"y": 2.0337754272,
				"z": 0.1901144216,
				"element": "C" 
			},
			{
				"x": 0.0778374364,
				"y": 0.9876786987,
				"z": -0.7097626607,
				"element": "C" 
			},
			{
				"x": -1.1902156872,
				"y": 0.6679674516,
				"z": -1.2610368637,
				"element": "C" 
			},
			{
				"x": -2.1873370495,
				"y": 1.4804741201,
				"z": -0.7801023896,
				"element": "C" 
			},
			{
				"x": -1.5985666995,
				"y": 2.6609131731,
				"z": 0.3293042031,
				"element": "S" 
			},
			{
				"x": 3.0572822211,
				"y": 2.6623740799,
				"z": 1.4123093256,
				"element": "H" 
			},
			{
				"x": 4.61494866,
				"y": -1.2201765031,
				"z": 3.0624476489,
				"element": "H" 
			},
			{
				"x": 0.9983852608,
				"y": 0.4866375607,
				"z": -0.9838962769,
				"element": "H" 
			},
			{
				"x": -1.3557344313,
				"y": -0.1245984693,
				"z": -1.9808359471,
				"element": "H" 
			},
			{
				"x": -3.2419953713,
				"y": 1.4458917286,
				"z": -1.0181758777,
				"element": "H" 
			}
		],
		 "valence_orbital": [ 
			{
				"type": "occ",
				"energy": -0.30124,
				"method": "rhf"
			},
			{
				"type": "occ",
				"energy": -0.29214,
				"method": "rhf"
			},
			{
				"type": "occ",
				"energy": -0.28177,
				"method": "rhf"
			},
			{
				"type": "occ",
				"energy": -0.26732,
				"method": "rhf"
			},
			{
				"type": "occ",
				"energy": -0.25406,
				"method": "rhf"
			},
			{
				"type": "unocc",
				"energy": -0.10391,
				"method": "rhf"
			},
			{
				"type": "unocc",
				"energy": -0.07534,
				"method": "rhf"
			},
			{
				"type": "unocc",
				"energy": -0.02434,
				"method": "rhf"
			},
			{
				"type": "unocc",
				"energy": -0.01052,
				"method": "rhf"
			},
			{
				"type": "unocc",
				"energy": 0.00463,
				"method": "rhf"
			}
		],
		"cosmo_sigma_profile": { 
			"-0.025": 0.0,
			"-0.024": 0.0,
			"-0.023": 0.0,
			"-0.022": 0.0,
			"-0.021": 0.0,
			"-0.02": 0.0,
			"-0.019": 0.0,
			"-0.018": 0.0,
			"-0.017": 0.0,
			"-0.016": 0.603320934456,
			"-0.015": 0.732391964617,
			"-0.014": 0.664204023742,
			"-0.013": 0.878076653174,
			"-0.012": 0.577090180681,
			"-0.011": 1.08050141471,
			"-0.01": 3.28353136353,
			"-0.009": 5.05216791643,
			"-0.008": 7.71114198224,
			"-0.007": 9.82098070303,
			"-0.006": 10.9501098096,
			"-0.005": 13.9727632654,
			"-0.004": 15.6320427856,
			"-0.003": 15.9372032487,
			"-0.002": 15.5151091395,
			"-0.001": 17.5584033128,
			"0.0": 21.1135286745,
			"0.001": 21.917861169,
			"0.002": 16.56464425,
			"0.003": 10.8931533532,
			"0.004": 6.08925401092,
			"0.005": 5.65251213355,
			"0.006": 7.02535379825,
			"0.007": 9.16268905562,
			"0.008": 12.2111489315,
			"0.009": 7.21439177504,
			"0.01": 6.77747710359,
			"0.011": 5.87935945103,
			"0.012": 1.53410058739,
			"0.013": 0.0846831930754,
			"0.014": 0.0,
			"0.015": 0.0,
			"0.016": 0.0,
			"0.017": 0.0,
			"0.018": 0.0,
			"0.019": 0.0,
			"0.02": 0.0,
			"0.021": 0.0,
			"0.022": 0.0,
			"0.023": 0.0,
			"0.024": 0.0,
			"0.025": 0.0
		}
	}
}
