{
	 "smiles": "CC1=CC=CC=C1C[C@@]12C3=CC=CC=C3[C@@H](C3=C1C(Br)=CC=C3)C1=C(C)C=CC(C)=C21", 
	 "Tm": 532.75, 
	 "num_atms": 56, 
	 "gaussian": { 
		 "optdone": 1, 
		 "sigma_profile": "yes", 
		 "theory": "DFT", 
		 "functional": "B3LYP", 
		 "basiset": "6-31G**", 
		 "properties": { 
			 "R2extent": 12497.466, 
			 "electric_dipole_moment_norm": 1.59425509565, 
			 "electric_quadrupole_moment_norm": 13.5655170871, 
			 "total_energy": -3729.67141615, 
			 "HOMO_LUMO_gap": 0.1953, 
			 "cosmo_polarized_energy": -9.78, 
			 "cosmo_cavitation_energy": 55.31, 
			 "cosmo_dispersion_energy": -36.35, 
			 "cosmo_repulsion_energy": 2.67, 
			 "cosmo_total_nonelectrostatic_energy": 21.63, 
			 "SMD_solvation_energy": 7.68 
		},
		"coords": [
			{
				"x": 0.862317699,
				"y": -0.5186568425,
				"z": 4.1568385475,
				"element": "C" 
			},
			{
				"x": -0.4559350201,
				"y": 0.037031129,
				"z": 3.6680082045,
				"element": "C" 
			},
			{
				"x": -1.320834742,
				"y": 0.6536031449,
				"z": 4.5804032907,
				"element": "C" 
			},
			{
				"x": -2.5511329452,
				"y": 1.1751990205,
				"z": 4.1822720667,
				"element": "C" 
			},
			{
				"x": -2.9292516619,
				"y": 1.0809173032,
				"z": 2.8452779735,
				"element": "C" 
			},
			{
				"x": -2.0771682473,
				"y": 0.473018624,
				"z": 1.9221496667,
				"element": "C" 
			},
			{
				"x": -0.8379760487,
				"y": -0.0568223537,
				"z": 2.3068904481,
				"element": "C" 
			},
			{
				"x": 0.1310934504,
				"y": -0.7500125973,
				"z": 1.3508063759,
				"element": "C" 
			},
			{
				"x": -0.1674444581,
				"y": -0.7720345903,
				"z": -0.1598631369,
				"element": "C" 
			},
			{
				"x": -0.2249441708,
				"y": 0.6881627464,
				"z": -0.7055643044,
				"element": "C" 
			},
			{
				"x": 0.0760340543,
				"y": 1.8543983738,
				"z": 0.0017638667,
				"element": "C" 
			},
			{
				"x": 0.0225023047,
				"y": 3.0967301051,
				"z": -0.6409768445,
				"element": "C" 
			},
			{
				"x": -0.3202766698,
				"y": 3.1867636494,
				"z": -1.9892615177,
				"element": "C" 
			},
			{
				"x": -0.5903349817,
				"y": 2.0220050998,
				"z": -2.7129551571,
				"element": "C" 
			},
			{
				"x": -0.5302061631,
				"y": 0.7915297137,
				"z": -2.0670236733,
				"element": "C" 
			},
			{
				"x": -0.6904433598,
				"y": -0.5618620018,
				"z": -2.717431985,
				"element": "C" 
			},
			{
				"x": 0.6117588644,
				"y": -1.3097519963,
				"z": -2.4420066159,
				"element": "C" 
			},
			{
				"x": 0.9306277623,
				"y": -1.4454642159,
				"z": -1.0656619398,
				"element": "C" 
			},
			{
				"x": 2.1093120743,
				"y": -2.1394675955,
				"z": -0.7733769519,
				"element": "C" 
			},
			{
				"x": 2.7928248587,
				"y": -2.5172930459,
				"z": 0.9951746891,
				"element": "Br" 
			},
			{
				"x": 2.9309928959,
				"y": -2.6546025613,
				"z": -1.789688368,
				"element": "C" 
			},
			{
				"x": 2.5908782629,
				"y": -2.4928505647,
				"z": -3.1240002186,
				"element": "C" 
			},
			{
				"x": 1.4151921457,
				"y": -1.8139476492,
				"z": -3.4526092782,
				"element": "C" 
			},
			{
				"x": -1.7759750878,
				"y": -1.3187425009,
				"z": -1.9655307956,
				"element": "C" 
			},
			{
				"x": -2.9191701017,
				"y": -1.8364083507,
				"z": -2.5853982399,
				"element": "C" 
			},
			{
				"x": -3.2402081092,
				"y": -1.5775758305,
				"z": -4.0400187852,
				"element": "C" 
			},
			{
				"x": -3.7588851587,
				"y": -2.6327981804,
				"z": -1.8022483669,
				"element": "C" 
			},
			{
				"x": -3.4170570833,
				"y": -2.9421034146,
				"z": -0.4920289235,
				"element": "C" 
			},
			{
				"x": -2.2662717077,
				"y": -2.4356748205,
				"z": 0.1362990266,
				"element": "C" 
			},
			{
				"x": -1.9594046193,
				"y": -2.9886832772,
				"z": 1.5143438877,
				"element": "C" 
			},
			{
				"x": -1.4723167164,
				"y": -1.5295715314,
				"z": -0.6050719505,
				"element": "C" 
			},
			{
				"x": 0.9722880209,
				"y": -0.3664694348,
				"z": 5.2336969849,
				"element": "H" 
			},
			{
				"x": 1.7185272813,
				"y": -0.0418945258,
				"z": 3.6641888121,
				"element": "H" 
			},
			{
				"x": 0.9525242673,
				"y": -1.5937207169,
				"z": 3.960426468,
				"element": "H" 
			},
			{
				"x": -1.0195964498,
				"y": 0.7221977781,
				"z": 5.6229806646,
				"element": "H" 
			},
			{
				"x": -3.2045003508,
				"y": 1.6483201362,
				"z": 4.9098779834,
				"element": "H" 
			},
			{
				"x": -3.8833584875,
				"y": 1.4799534511,
				"z": 2.5129070839,
				"element": "H" 
			},
			{
				"x": -2.3885766665,
				"y": 0.4118814708,
				"z": 0.8866077236,
				"element": "H" 
			},
			{
				"x": 0.2835754544,
				"y": -1.768216392,
				"z": 1.7052256521,
				"element": "H" 
			},
			{
				"x": 1.1110750408,
				"y": -0.276765415,
				"z": 1.4696792169,
				"element": "H" 
			},
			{
				"x": 0.3387875461,
				"y": 1.8221255094,
				"z": 1.0514922509,
				"element": "H" 
			},
			{
				"x": 0.2502256529,
				"y": 3.9966513163,
				"z": -0.0770353461,
				"element": "H" 
			},
			{
				"x": -0.3631926617,
				"y": 4.1551302971,
				"z": -2.4795161234,
				"element": "H" 
			},
			{
				"x": -0.8286364024,
				"y": 2.0709835505,
				"z": -3.7724943985,
				"element": "H" 
			},
			{
				"x": -0.887162862,
				"y": -0.490206175,
				"z": -3.7874599206,
				"element": "H" 
			},
			{
				"x": 3.8354097143,
				"y": -3.1831565112,
				"z": -1.51288848,
				"element": "H" 
			},
			{
				"x": 3.2350011953,
				"y": -2.8957518139,
				"z": -3.8996339708,
				"element": "H" 
			},
			{
				"x": 1.1256639343,
				"y": -1.6788907104,
				"z": -4.4909617277,
				"element": "H" 
			},
			{
				"x": -2.497607636,
				"y": -2.0267120792,
				"z": -4.7108998932,
				"element": "H" 
			},
			{
				"x": -3.2775376171,
				"y": -0.5065976467,
				"z": -4.269531847,
				"element": "H" 
			},
			{
				"x": -4.212873848,
				"y": -2.0037901525,
				"z": -4.3000559039,
				"element": "H" 
			},
			{
				"x": -4.6652496685,
				"y": -3.0482962858,
				"z": -2.2355450971,
				"element": "H" 
			},
			{
				"x": -4.0540887553,
				"y": -3.6184665472,
				"z": 0.0716889162,
				"element": "H" 
			},
			{
				"x": -1.97308719,
				"y": -2.2304439576,
				"z": 2.2991961366,
				"element": "H" 
			},
			{
				"x": -2.7050927426,
				"y": -3.744078715,
				"z": 1.7756732556,
				"element": "H" 
			},
			{
				"x": -0.9828140892,
				"y": -3.4833214197,
				"z": 1.5394705686,
				"element": "H" 
			}
		],
		 "valence_orbital": [ 
			{
				"type": "occ",
				"energy": -0.23924,
				"method": "rhf"
			},
			{
				"type": "occ",
				"energy": -0.23406,
				"method": "rhf"
			},
			{
				"type": "occ",
				"energy": -0.22919,
				"method": "rhf"
			},
			{
				"type": "occ",
				"energy": -0.22543,
				"method": "rhf"
			},
			{
				"type": "occ",
				"energy": -0.2175,
				"method": "rhf"
			},
			{
				"type": "unocc",
				"energy": -0.0222,
				"method": "rhf"
			},
			{
				"type": "unocc",
				"energy": -0.01372,
				"method": "rhf"
			},
			{
				"type": "unocc",
				"energy": -0.00796,
				"method": "rhf"
			},
			{
				"type": "unocc",
				"energy": -0.00308,
				"method": "rhf"
			},
			{
				"type": "unocc",
				"energy": 0.00542,
				"method": "rhf"
			}
		],
		"cosmo_sigma_profile": { 
			"-0.025": 0.0,
			"-0.024": 0.0,
			"-0.023": 0.0,
			"-0.022": 0.0,
			"-0.021": 0.0,
			"-0.02": 0.0,
			"-0.019": 0.0,
			"-0.018": 0.0,
			"-0.017": 0.0,
			"-0.016": 0.0,
			"-0.015": 0.0,
			"-0.014": 0.0,
			"-0.013": 0.0,
			"-0.012": 0.0,
			"-0.011": 0.0,
			"-0.01": 0.0,
			"-0.009": 0.0,
			"-0.008": 0.0,
			"-0.007": 1.24254583403,
			"-0.006": 10.7132510842,
			"-0.005": 28.4483561024,
			"-0.004": 43.9068750114,
			"-0.003": 46.1819005564,
			"-0.002": 38.898274323,
			"-0.001": 36.8968317225,
			"0.0": 43.7330352986,
			"0.001": 37.2815199005,
			"0.002": 30.0376498339,
			"0.003": 35.9391514949,
			"0.004": 38.6583313622,
			"0.005": 28.8995283062,
			"0.006": 18.4260709976,
			"0.007": 3.72657464118,
			"0.008": 0.0,
			"0.009": 0.0,
			"0.01": 0.0,
			"0.011": 0.0,
			"0.012": 0.0,
			"0.013": 0.0,
			"0.014": 0.0,
			"0.015": 0.0,
			"0.016": 0.0,
			"0.017": 0.0,
			"0.018": 0.0,
			"0.019": 0.0,
			"0.02": 0.0,
			"0.021": 0.0,
			"0.022": 0.0,
			"0.023": 0.0,
			"0.024": 0.0,
			"0.025": 0.0
		}
	}
}
