{
	 "smiles": "OC(=O)C1=C(NC(=O)C2=C(I)C=CC=C2)C=CC=C1", 
	 "Tm": 478.15, 
	 "num_atms": 29, 
	 "gaussian": { 
		 "optdone": 1, 
		 "sigma_profile": "yes", 
		 "theory": "DFT", 
		 "functional": "B3LYP", 
		 "basiset": "6-31G**", 
		 "properties": { 
			 "R2extent": 5618.6945, 
			 "electric_dipole_moment_norm": 2.43723439373, 
			 "electric_quadrupole_moment_norm": 18.0644854319, 
			 "total_energy": -831.347429967, 
			 "HOMO_LUMO_gap": 0.18712, 
			 "cosmo_polarized_energy": -18.67, 
			 "cosmo_cavitation_energy": 37.43, 
			 "cosmo_dispersion_energy": -27.09, 
			 "cosmo_repulsion_energy": 2.04, 
			 "cosmo_total_nonelectrostatic_energy": 12.38, 
			 "SMD_solvation_energy": 6.82 
		},
		"coords": [
			{
				"x": 2.5925189153,
				"y": -0.5259908563,
				"z": 3.1537185405,
				"element": "O" 
			},
			{
				"x": 1.5914140608,
				"y": -0.7325508924,
				"z": 2.2640492907,
				"element": "C" 
			},
			{
				"x": 0.4308685839,
				"y": -0.5061244079,
				"z": 2.5401208395,
				"element": "O" 
			},
			{
				"x": 2.0866974892,
				"y": -1.3369393154,
				"z": 0.9922214565,
				"element": "C" 
			},
			{
				"x": 1.406460235,
				"y": -1.1719603987,
				"z": -0.2331458323,
				"element": "C" 
			},
			{
				"x": 0.3175467842,
				"y": -0.2847408841,
				"z": -0.3867169118,
				"element": "N" 
			},
			{
				"x": 0.2915402382,
				"y": 1.0238062249,
				"z": 0.0401965729,
				"element": "C" 
			},
			{
				"x": 1.1953784519,
				"y": 1.554824589,
				"z": 0.6639665681,
				"element": "O" 
			},
			{
				"x": -1.0079225343,
				"y": 1.7471816344,
				"z": -0.2285685338,
				"element": "C" 
			},
			{
				"x": -1.5271182254,
				"y": 2.0760484785,
				"z": -1.4867568827,
				"element": "C" 
			},
			{
				"x": -0.4943180337,
				"y": 1.6078761228,
				"z": -3.2938312794,
				"element": "I" 
			},
			{
				"x": -2.7299246299,
				"y": 2.7786021796,
				"z": -1.6080815143,
				"element": "C" 
			},
			{
				"x": -3.4286025437,
				"y": 3.1532905993,
				"z": -0.4610164253,
				"element": "C" 
			},
			{
				"x": -2.9221601349,
				"y": 2.8416457015,
				"z": 0.8020274504,
				"element": "C" 
			},
			{
				"x": -1.7182900716,
				"y": 2.1534994239,
				"z": 0.9129698104,
				"element": "C" 
			},
			{
				"x": 1.814616984,
				"y": -1.9080134099,
				"z": -1.3521042085,
				"element": "C" 
			},
			{
				"x": 2.8902064262,
				"y": -2.7889306834,
				"z": -1.2740604264,
				"element": "C" 
			},
			{
				"x": 3.5962158224,
				"y": -2.9228961986,
				"z": -0.0778697286,
				"element": "C" 
			},
			{
				"x": 3.1958258332,
				"y": -2.1950935062,
				"z": 1.0392844368,
				"element": "C" 
			},
			{
				"x": 2.1625532095,
				"y": -0.1755111126,
				"z": 3.9512930885,
				"element": "H" 
			},
			{
				"x": -0.4208275119,
				"y": -0.5783272622,
				"z": -1.0103821319,
				"element": "H" 
			},
			{
				"x": -3.1127732759,
				"y": 3.0363802724,
				"z": -2.5889771113,
				"element": "H" 
			},
			{
				"x": -4.36415235,
				"y": 3.6957066762,
				"z": -0.5607388044,
				"element": "H" 
			},
			{
				"x": -3.4608935818,
				"y": 3.1376015077,
				"z": 1.6968526765,
				"element": "H" 
			},
			{
				"x": -1.3034030653,
				"y": 1.9053483906,
				"z": 1.8847181435,
				"element": "H" 
			},
			{
				"x": 1.2909807578,
				"y": -1.7642613008,
				"z": -2.2929577233,
				"element": "H" 
			},
			{
				"x": 3.1869079615,
				"y": -3.3528414376,
				"z": -2.1534429892,
				"element": "H" 
			},
			{
				"x": 4.4484616657,
				"y": -3.5919505879,
				"z": -0.0135982346,
				"element": "H" 
			},
			{
				"x": 3.7256925396,
				"y": -2.3020795467,
				"z": 1.9787298634,
				"element": "H" 
			}
		],
		 "valence_orbital": [ 
			{
				"type": "occ",
				"energy": -0.27059,
				"method": "rhf"
			},
			{
				"type": "occ",
				"energy": -0.26205,
				"method": "rhf"
			},
			{
				"type": "occ",
				"energy": -0.2522,
				"method": "rhf"
			},
			{
				"type": "occ",
				"energy": -0.24711,
				"method": "rhf"
			},
			{
				"type": "occ",
				"energy": -0.23588,
				"method": "rhf"
			},
			{
				"type": "unocc",
				"energy": -0.04876,
				"method": "rhf"
			},
			{
				"type": "unocc",
				"energy": -0.04459,
				"method": "rhf"
			},
			{
				"type": "unocc",
				"energy": -0.02901,
				"method": "rhf"
			},
			{
				"type": "unocc",
				"energy": -0.02199,
				"method": "rhf"
			},
			{
				"type": "unocc",
				"energy": -0.01543,
				"method": "rhf"
			}
		],
		"cosmo_sigma_profile": { 
			"-0.025": 0.0,
			"-0.024": 0.0,
			"-0.023": 0.0,
			"-0.022": 0.0,
			"-0.021": 0.0,
			"-0.02": 0.0,
			"-0.019": 0.0238544506587,
			"-0.018": 0.649953759181,
			"-0.017": 0.943597538755,
			"-0.016": 0.711897186971,
			"-0.015": 1.09643845227,
			"-0.014": 1.4400300376,
			"-0.013": 1.55896786452,
			"-0.012": 2.42439928831,
			"-0.011": 1.5734548569,
			"-0.01": 2.21702292223,
			"-0.009": 1.79919875562,
			"-0.008": 1.80761108927,
			"-0.007": 11.0987428562,
			"-0.006": 19.9756144912,
			"-0.005": 20.3503361623,
			"-0.004": 16.1679722511,
			"-0.003": 16.0632615939,
			"-0.002": 14.7680768467,
			"-0.001": 17.0428399779,
			"0.0": 19.7331695713,
			"0.001": 25.0506173193,
			"0.002": 28.2736836318,
			"0.003": 35.2103706987,
			"0.004": 20.9341035383,
			"0.005": 6.64187980305,
			"0.006": 5.2891212667,
			"0.007": 5.31774238434,
			"0.008": 5.18274161868,
			"0.009": 4.53419786784,
			"0.01": 3.63468140233,
			"0.011": 5.04613567955,
			"0.012": 5.89956610491,
			"0.013": 2.29409860073,
			"0.014": 0.342760856007,
			"0.015": 0.0,
			"0.016": 0.0,
			"0.017": 0.0,
			"0.018": 0.0,
			"0.019": 0.0,
			"0.02": 0.0,
			"0.021": 0.0,
			"0.022": 0.0,
			"0.023": 0.0,
			"0.024": 0.0,
			"0.025": 0.0
		}
	}
}
