{
	 "smiles": "OC(=O)C1CC2=CC3=C(OCO3)C=C12", 
	 "Tm": 423.15, 
	 "num_atms": 22, 
	 "gaussian": { 
		 "optdone": 1, 
		 "sigma_profile": "yes", 
		 "theory": "DFT", 
		 "functional": "B3LYP", 
		 "basiset": "6-31G**", 
		 "properties": { 
			 "R2extent": 3297.8604, 
			 "electric_dipole_moment_norm": 1.41310298988, 
			 "electric_quadrupole_moment_norm": 9.10582630902, 
			 "total_energy": -686.729946911, 
			 "HOMO_LUMO_gap": 0.19147, 
			 "cosmo_polarized_energy": -11.31, 
			 "cosmo_cavitation_energy": 26.63, 
			 "cosmo_dispersion_energy": -19.93, 
			 "cosmo_repulsion_energy": 1.58, 
			 "cosmo_total_nonelectrostatic_energy": 8.28, 
			 "SMD_solvation_energy": 5.95 
		},
		"coords": [
			{
				"x": 3.187988606,
				"y": 2.0565715128,
				"z": -0.0529273647,
				"element": "O" 
			},
			{
				"x": 2.1904662994,
				"y": 1.8229183941,
				"z": 0.8364949994,
				"element": "C" 
			},
			{
				"x": 1.7916137451,
				"y": 2.6690070269,
				"z": 1.605620238,
				"element": "O" 
			},
			{
				"x": 1.664370203,
				"y": 0.4116164523,
				"z": 0.6969820407,
				"element": "C" 
			},
			{
				"x": 0.438385274,
				"y": 0.0405258079,
				"z": 1.610975195,
				"element": "C" 
			},
			{
				"x": -0.3436343787,
				"y": -0.1679379142,
				"z": 0.321563869,
				"element": "C" 
			},
			{
				"x": -1.5948398001,
				"y": -0.536214045,
				"z": -0.1841820228,
				"element": "C" 
			},
			{
				"x": -1.6497999404,
				"y": -0.5048598038,
				"z": -1.5715507086,
				"element": "C" 
			},
			{
				"x": -0.5646532021,
				"y": -0.1466384784,
				"z": -2.3855804964,
				"element": "C" 
			},
			{
				"x": -0.9365135507,
				"y": -0.2424387729,
				"z": -3.7077113892,
				"element": "O" 
			},
			{
				"x": -2.3462027758,
				"y": -0.4799432064,
				"z": -3.699303066,
				"element": "C" 
			},
			{
				"x": -2.7247635544,
				"y": -0.8319035509,
				"z": -2.365966248,
				"element": "O" 
			},
			{
				"x": 0.6807518989,
				"y": 0.2118131089,
				"z": -1.8883900085,
				"element": "C" 
			},
			{
				"x": 0.730326322,
				"y": 0.1784187455,
				"z": -0.4917209169,
				"element": "C" 
			},
			{
				"x": 3.4500660168,
				"y": 2.9843188979,
				"z": 0.0726316946,
				"element": "H" 
			},
			{
				"x": 2.5083406773,
				"y": -0.2861835328,
				"z": 0.7512368576,
				"element": "H" 
			},
			{
				"x": 0.5931958066,
				"y": -0.8481859635,
				"z": 2.2318321161,
				"element": "H" 
			},
			{
				"x": 0.110079319,
				"y": 0.8701222332,
				"z": 2.2425209973,
				"element": "H" 
			},
			{
				"x": -2.4515057342,
				"y": -0.8179094206,
				"z": 0.4178565063,
				"element": "H" 
			},
			{
				"x": -2.5812382035,
				"y": -1.3071095192,
				"z": -4.3757582332,
				"element": "H" 
			},
			{
				"x": -2.8763937869,
				"y": 0.4354305347,
				"z": -4.0028497861,
				"element": "H" 
			},
			{
				"x": 1.5085607585,
				"y": 0.4839814935,
				"z": -2.5329742737,
				"element": "H" 
			}
		],
		 "valence_orbital": [ 
			{
				"type": "occ",
				"energy": -0.31918,
				"method": "rhf"
			},
			{
				"type": "occ",
				"energy": -0.3113,
				"method": "rhf"
			},
			{
				"type": "occ",
				"energy": -0.27573,
				"method": "rhf"
			},
			{
				"type": "occ",
				"energy": -0.24838,
				"method": "rhf"
			},
			{
				"type": "occ",
				"energy": -0.20216,
				"method": "rhf"
			},
			{
				"type": "unocc",
				"energy": -0.01069,
				"method": "rhf"
			},
			{
				"type": "unocc",
				"energy": 0.00351,
				"method": "rhf"
			},
			{
				"type": "unocc",
				"energy": 0.0211,
				"method": "rhf"
			},
			{
				"type": "unocc",
				"energy": 0.07654,
				"method": "rhf"
			},
			{
				"type": "unocc",
				"energy": 0.10301,
				"method": "rhf"
			}
		],
		"cosmo_sigma_profile": { 
			"-0.025": 0.0,
			"-0.024": 0.0,
			"-0.023": 0.0,
			"-0.022": 0.0,
			"-0.021": 0.0,
			"-0.02": 0.0,
			"-0.019": 0.0850102921478,
			"-0.018": 0.667777472145,
			"-0.017": 0.915993724441,
			"-0.016": 1.03613458176,
			"-0.015": 0.563623638968,
			"-0.014": 0.700435531982,
			"-0.013": 0.542512210996,
			"-0.012": 0.775550022546,
			"-0.011": 0.800271701391,
			"-0.01": 0.818758288472,
			"-0.009": 0.391213448092,
			"-0.008": 3.26237717108,
			"-0.007": 10.6230699493,
			"-0.006": 13.3098949768,
			"-0.005": 12.8363790766,
			"-0.004": 11.4898530816,
			"-0.003": 12.2945213765,
			"-0.002": 13.4454464579,
			"-0.001": 16.2220976878,
			"0.0": 14.2582601744,
			"0.001": 13.0059666667,
			"0.002": 15.3294897028,
			"0.003": 16.1119172412,
			"0.004": 12.9509021978,
			"0.005": 7.11450841041,
			"0.006": 4.56814575714,
			"0.007": 5.38455866858,
			"0.008": 5.16491044274,
			"0.009": 6.24778041877,
			"0.01": 4.34129970772,
			"0.011": 4.47030864943,
			"0.012": 2.97992931375,
			"0.013": 0.00232963218791,
			"0.014": 0.0,
			"0.015": 0.0,
			"0.016": 0.0,
			"0.017": 0.0,
			"0.018": 0.0,
			"0.019": 0.0,
			"0.02": 0.0,
			"0.021": 0.0,
			"0.022": 0.0,
			"0.023": 0.0,
			"0.024": 0.0,
			"0.025": 0.0
		}
	}
}
