{
	 "smiles": "FC(F)(F)C1=C(Cl)C=CC(=C1)S(=O)(=O)NC1=CC=C(C=C1Cl)N(=O)=O", 
	 "Tm": 443.15, 
	 "num_atms": 32, 
	 "gaussian": { 
		 "optdone": 1, 
		 "sigma_profile": "yes", 
		 "theory": "DFT", 
		 "functional": "B3LYP", 
		 "basiset": "6-31G**", 
		 "properties": { 
			 "R2extent": 15198.738, 
			 "electric_dipole_moment_norm": 5.24670547391, 
			 "electric_quadrupole_moment_norm": 30.1351351679, 
			 "total_energy": -2527.91771911, 
			 "HOMO_LUMO_gap": 0.16533, 
			 "cosmo_polarized_energy": -17.3, 
			 "cosmo_cavitation_energy": 44.8, 
			 "cosmo_dispersion_energy": -31.64, 
			 "cosmo_repulsion_energy": 2.29, 
			 "cosmo_total_nonelectrostatic_energy": 15.44, 
			 "SMD_solvation_energy": 9.62 
		},
		"coords": [
			{
				"x": -2.7576049072,
				"y": -5.1999089439,
				"z": -1.0492983099,
				"element": "F" 
			},
			{
				"x": -2.125874101,
				"y": -4.1126242713,
				"z": -1.5286099727,
				"element": "C" 
			},
			{
				"x": -2.6447831115,
				"y": -3.8359785705,
				"z": -2.7403476718,
				"element": "F" 
			},
			{
				"x": -0.8313692714,
				"y": -4.4454558204,
				"z": -1.7118306513,
				"element": "F" 
			},
			{
				"x": -2.2540393871,
				"y": -2.9316871868,
				"z": -0.5871214477,
				"element": "C" 
			},
			{
				"x": -3.4991320926,
				"y": -2.388402058,
				"z": -0.2291660917,
				"element": "C" 
			},
			{
				"x": -4.9915185351,
				"y": -3.0386443025,
				"z": -0.8544481722,
				"element": "Cl" 
			},
			{
				"x": -3.5831704478,
				"y": -1.3037775055,
				"z": 0.6498190913,
				"element": "C" 
			},
			{
				"x": -2.4259923396,
				"y": -0.7436798594,
				"z": 1.1788664428,
				"element": "C" 
			},
			{
				"x": -1.1897931384,
				"y": -1.2780131339,
				"z": 0.8123396974,
				"element": "C" 
			},
			{
				"x": -1.094529915,
				"y": -2.3648402624,
				"z": -0.0522104334,
				"element": "C" 
			},
			{
				"x": 0.308969213,
				"y": -0.590168431,
				"z": 1.5108548808,
				"element": "S" 
			},
			{
				"x": 1.4213473426,
				"y": -1.4811481725,
				"z": 1.1790412738,
				"element": "O" 
			},
			{
				"x": 0.0579765929,
				"y": -0.1833430734,
				"z": 2.8929876969,
				"element": "O" 
			},
			{
				"x": 0.3872041779,
				"y": 0.8508648176,
				"z": 0.5711977677,
				"element": "N" 
			},
			{
				"x": 1.2957490417,
				"y": 1.8910830073,
				"z": 0.8490618499,
				"element": "C" 
			},
			{
				"x": 1.5509262816,
				"y": 2.3383567707,
				"z": 2.1586621448,
				"element": "C" 
			},
			{
				"x": 2.412383345,
				"y": 3.4018247694,
				"z": 2.3898341337,
				"element": "C" 
			},
			{
				"x": 3.0141295676,
				"y": 4.0412063858,
				"z": 1.3085808944,
				"element": "C" 
			},
			{
				"x": 2.7780618154,
				"y": 3.6381145025,
				"z": -0.0024040858,
				"element": "C" 
			},
			{
				"x": 1.9279343989,
				"y": 2.5642841682,
				"z": -0.220284977,
				"element": "C" 
			},
			{
				"x": 1.6322253991,
				"y": 2.0486711087,
				"z": -1.8755516216,
				"element": "Cl" 
			},
			{
				"x": 3.916612005,
				"y": 5.1731061836,
				"z": 1.5462379002,
				"element": "N" 
			},
			{
				"x": 4.1102809562,
				"y": 5.5087844865,
				"z": 2.7139508022,
				"element": "O" 
			},
			{
				"x": 4.4219392161,
				"y": 5.7155283779,
				"z": 0.5635196631,
				"element": "O" 
			},
			{
				"x": -4.5576753548,
				"y": -0.9106181452,
				"z": 0.9152229543,
				"element": "H" 
			},
			{
				"x": -2.4814208521,
				"y": 0.0895734313,
				"z": 1.8706343785,
				"element": "H" 
			},
			{
				"x": -0.1240267236,
				"y": -2.7761066533,
				"z": -0.3013495064,
				"element": "H" 
			},
			{
				"x": 0.3679167532,
				"y": 0.6093282207,
				"z": -0.4183220827,
				"element": "H" 
			},
			{
				"x": 1.0647732974,
				"y": 1.8405017358,
				"z": 2.987013893,
				"element": "H" 
			},
			{
				"x": 2.6165388105,
				"y": 3.7485569349,
				"z": 3.3947790261,
				"element": "H" 
			},
			{
				"x": 3.2589619632,
				"y": 4.1529114892,
				"z": -0.8236594664,
				"element": "H" 
			}
		],
		 "valence_orbital": [ 
			{
				"type": "occ",
				"energy": -0.31376,
				"method": "rhf"
			},
			{
				"type": "occ",
				"energy": -0.29774,
				"method": "rhf"
			},
			{
				"type": "occ",
				"energy": -0.29666,
				"method": "rhf"
			},
			{
				"type": "occ",
				"energy": -0.28571,
				"method": "rhf"
			},
			{
				"type": "occ",
				"energy": -0.26274,
				"method": "rhf"
			},
			{
				"type": "unocc",
				"energy": -0.09741,
				"method": "rhf"
			},
			{
				"type": "unocc",
				"energy": -0.08476,
				"method": "rhf"
			},
			{
				"type": "unocc",
				"energy": -0.06645,
				"method": "rhf"
			},
			{
				"type": "unocc",
				"energy": -0.04562,
				"method": "rhf"
			},
			{
				"type": "unocc",
				"energy": -0.01654,
				"method": "rhf"
			}
		],
		"cosmo_sigma_profile": { 
			"-0.025": 0.0,
			"-0.024": 0.0,
			"-0.023": 0.0,
			"-0.022": 0.0,
			"-0.021": 0.0,
			"-0.02": 0.0,
			"-0.019": 0.0,
			"-0.018": 0.0,
			"-0.017": 0.0,
			"-0.016": 0.0,
			"-0.015": 0.417902201859,
			"-0.014": 0.891608639535,
			"-0.013": 1.10596692813,
			"-0.012": 0.645260289771,
			"-0.011": 1.11172692738,
			"-0.01": 2.09629845985,
			"-0.009": 5.97498283191,
			"-0.008": 7.53946471035,
			"-0.007": 8.86540536743,
			"-0.006": 12.4822032978,
			"-0.005": 14.0687714673,
			"-0.004": 17.6168573683,
			"-0.003": 24.4600685483,
			"-0.002": 38.3251427963,
			"-0.001": 40.4298778876,
			"0.0": 31.234740721,
			"0.001": 25.7598459414,
			"0.002": 40.8446928035,
			"0.003": 29.6925654961,
			"0.004": 7.44695760213,
			"0.005": 6.7938662147,
			"0.006": 7.25275147272,
			"0.007": 10.9046837708,
			"0.008": 11.14378901,
			"0.009": 11.4637377429,
			"0.01": 7.73549081001,
			"0.011": 0.262934648861,
			"0.012": 0.0,
			"0.013": 0.0,
			"0.014": 0.0,
			"0.015": 0.0,
			"0.016": 0.0,
			"0.017": 0.0,
			"0.018": 0.0,
			"0.019": 0.0,
			"0.02": 0.0,
			"0.021": 0.0,
			"0.022": 0.0,
			"0.023": 0.0,
			"0.024": 0.0,
			"0.025": 0.0
		}
	}
}
