{
	 "smiles": "CCC1=CC=C(C=C1)C1=NN(C=C1C(O)=O)C1=CC=CC=C1", 
	 "Tm": 482.15, 
	 "num_atms": 38, 
	 "gaussian": { 
		 "optdone": 1, 
		 "sigma_profile": "yes", 
		 "theory": "DFT", 
		 "functional": "B3LYP", 
		 "basiset": "6-31G**", 
		 "properties": { 
			 "R2extent": 9617.5025, 
			 "electric_dipole_moment_norm": 5.22683670397, 
			 "electric_quadrupole_moment_norm": 25.3081540945, 
			 "total_energy": -955.513793378, 
			 "HOMO_LUMO_gap": 0.17031, 
			 "cosmo_polarized_energy": -19.75, 
			 "cosmo_cavitation_energy": 42.55, 
			 "cosmo_dispersion_energy": -30.34, 
			 "cosmo_repulsion_energy": 2.3, 
			 "cosmo_total_nonelectrostatic_energy": 14.52, 
			 "SMD_solvation_energy": 7.51 
		},
		"coords": [
			{
				"x": -0.3705778817,
				"y": -3.7814708997,
				"z": -4.7401291997,
				"element": "C" 
			},
			{
				"x": -0.9915840377,
				"y": -2.3785388231,
				"z": -4.6089886346,
				"element": "C" 
			},
			{
				"x": -0.7153105162,
				"y": -1.7379439616,
				"z": -3.2661734332,
				"element": "C" 
			},
			{
				"x": 0.4389075926,
				"y": -0.9702284035,
				"z": -3.0540406276,
				"element": "C" 
			},
			{
				"x": 0.7126144008,
				"y": -0.4090030352,
				"z": -1.8117276738,
				"element": "C" 
			},
			{
				"x": -0.1651773043,
				"y": -0.5946765402,
				"z": -0.7283984825,
				"element": "C" 
			},
			{
				"x": -1.3225029379,
				"y": -1.3599091017,
				"z": -0.9358293479,
				"element": "C" 
			},
			{
				"x": -1.58611152,
				"y": -1.9185479736,
				"z": -2.184704203,
				"element": "C" 
			},
			{
				"x": 0.1827211586,
				"y": -0.0077992284,
				"z": 0.5809499043,
				"element": "C" 
			},
			{
				"x": 1.4545772959,
				"y": 0.3255548509,
				"z": 0.8106316331,
				"element": "N" 
			},
			{
				"x": 1.4998116091,
				"y": 0.8386568183,
				"z": 2.0653519137,
				"element": "N" 
			},
			{
				"x": 0.2819582839,
				"y": 0.8130391213,
				"z": 2.6586399744,
				"element": "C" 
			},
			{
				"x": -0.6137092401,
				"y": 0.2756380506,
				"z": 1.7455664017,
				"element": "C" 
			},
			{
				"x": -2.0727591559,
				"y": 0.1769767819,
				"z": 1.9788092341,
				"element": "C" 
			},
			{
				"x": -2.4369871505,
				"y": 0.0308212612,
				"z": 3.2894705653,
				"element": "O" 
			},
			{
				"x": -2.9282114846,
				"y": 0.248965666,
				"z": 1.1289163464,
				"element": "O" 
			},
			{
				"x": 2.7328462064,
				"y": 1.2977580322,
				"z": 2.606361312,
				"element": "C" 
			},
			{
				"x": 3.9329944115,
				"y": 0.8095751684,
				"z": 2.0793702811,
				"element": "C" 
			},
			{
				"x": 5.1419961567,
				"y": 1.2491315694,
				"z": 2.6143498935,
				"element": "C" 
			},
			{
				"x": 5.162865562,
				"y": 2.1623518947,
				"z": 3.6709585158,
				"element": "C" 
			},
			{
				"x": 3.9596897188,
				"y": 2.6474887023,
				"z": 4.185657124,
				"element": "C" 
			},
			{
				"x": 2.7419925668,
				"y": 2.2262075737,
				"z": 3.6527004133,
				"element": "C" 
			},
			{
				"x": 0.716826354,
				"y": -3.7418427609,
				"z": -4.6186284437,
				"element": "H" 
			},
			{
				"x": -0.7646870142,
				"y": -4.4572808579,
				"z": -3.9742299871,
				"element": "H" 
			},
			{
				"x": -0.587515229,
				"y": -4.2161887083,
				"z": -5.7216468885,
				"element": "H" 
			},
			{
				"x": -2.0746681817,
				"y": -2.4478704032,
				"z": -4.7651521094,
				"element": "H" 
			},
			{
				"x": -0.6015886869,
				"y": -1.736174257,
				"z": -5.4077314872,
				"element": "H" 
			},
			{
				"x": 1.1286716413,
				"y": -0.8026930307,
				"z": -3.8781812399,
				"element": "H" 
			},
			{
				"x": 1.6073206269,
				"y": 0.186406145,
				"z": -1.6670215564,
				"element": "H" 
			},
			{
				"x": -2.0307046625,
				"y": -1.5078201017,
				"z": -0.1316017241,
				"element": "H" 
			},
			{
				"x": -2.4931434471,
				"y": -2.5026974764,
				"z": -2.3209381492,
				"element": "H" 
			},
			{
				"x": 0.1266776905,
				"y": 1.1955847044,
				"z": 3.6562270569,
				"element": "H" 
			},
			{
				"x": -1.6660298035,
				"y": -0.2233810637,
				"z": 3.8153124021,
				"element": "H" 
			},
			{
				"x": 3.898690136,
				"y": 0.0996399912,
				"z": 1.2623609165,
				"element": "H" 
			},
			{
				"x": 6.0730377807,
				"y": 0.8690910547,
				"z": 2.2046633841,
				"element": "H" 
			},
			{
				"x": 6.1083740158,
				"y": 2.4979914915,
				"z": 4.0854211821,
				"element": "H" 
			},
			{
				"x": 3.9636347389,
				"y": 3.3694904687,
				"z": 4.9965971506,
				"element": "H" 
			},
			{
				"x": 1.8137603066,
				"y": 2.6390972804,
				"z": 4.0334075827,
				"element": "H" 
			}
		],
		 "valence_orbital": [ 
			{
				"type": "occ",
				"energy": -0.2731,
				"method": "rhf"
			},
			{
				"type": "occ",
				"energy": -0.26966,
				"method": "rhf"
			},
			{
				"type": "occ",
				"energy": -0.25061,
				"method": "rhf"
			},
			{
				"type": "occ",
				"energy": -0.24173,
				"method": "rhf"
			},
			{
				"type": "occ",
				"energy": -0.21709,
				"method": "rhf"
			},
			{
				"type": "unocc",
				"energy": -0.04678,
				"method": "rhf"
			},
			{
				"type": "unocc",
				"energy": -0.03341,
				"method": "rhf"
			},
			{
				"type": "unocc",
				"energy": -0.01945,
				"method": "rhf"
			},
			{
				"type": "unocc",
				"energy": 0.0044,
				"method": "rhf"
			},
			{
				"type": "unocc",
				"energy": 0.0096,
				"method": "rhf"
			}
		],
		"cosmo_sigma_profile": { 
			"-0.025": 0.0,
			"-0.024": 0.0,
			"-0.023": 0.0,
			"-0.022": 0.0,
			"-0.021": 0.0,
			"-0.02": 0.0,
			"-0.019": 0.251088931497,
			"-0.018": 1.00313465857,
			"-0.017": 0.988109009014,
			"-0.016": 1.15804473054,
			"-0.015": 1.22164437584,
			"-0.014": 1.25315842831,
			"-0.013": 0.868215188333,
			"-0.012": 2.29453791057,
			"-0.011": 2.86194086396,
			"-0.01": 2.13345318136,
			"-0.009": 2.42511926396,
			"-0.008": 2.48002666913,
			"-0.007": 4.76298758679,
			"-0.006": 10.6729612516,
			"-0.005": 18.6486272265,
			"-0.004": 22.895812255,
			"-0.003": 26.8033955079,
			"-0.002": 26.5270074756,
			"-0.001": 28.7795753998,
			"0.0": 29.4820613327,
			"0.001": 27.8106777142,
			"0.002": 21.0622284956,
			"0.003": 22.9920819113,
			"0.004": 22.9112682711,
			"0.005": 17.9852841142,
			"0.006": 10.3255255343,
			"0.007": 4.42504284965,
			"0.008": 5.02636072794,
			"0.009": 4.14847952424,
			"0.01": 4.44459238004,
			"0.011": 5.8937189899,
			"0.012": 4.28073563601,
			"0.013": 1.40336975218,
			"0.014": 0.0355701784542,
			"0.015": 0.0,
			"0.016": 0.0,
			"0.017": 0.0,
			"0.018": 0.0,
			"0.019": 0.0,
			"0.02": 0.0,
			"0.021": 0.0,
			"0.022": 0.0,
			"0.023": 0.0,
			"0.024": 0.0,
			"0.025": 0.0
		}
	}
}
