{
	 "smiles": "ClCCS(=O)(=O)C1=C(Cl)C=CC(Cl)=C1", 
	 "Tm": 354.15, 
	 "num_atms": 21, 
	 "gaussian": { 
		 "optdone": 1, 
		 "sigma_profile": "yes", 
		 "theory": "DFT", 
		 "functional": "B3LYP", 
		 "basiset": "6-31G**", 
		 "properties": { 
			 "R2extent": 4653.2408, 
			 "electric_dipole_moment_norm": 3.22592361503, 
			 "electric_quadrupole_moment_norm": 17.6002323735, 
			 "total_energy": -2238.2098374, 
			 "HOMO_LUMO_gap": 0.20255, 
			 "cosmo_polarized_energy": -14.47, 
			 "cosmo_cavitation_energy": 31.33, 
			 "cosmo_dispersion_energy": -22.8, 
			 "cosmo_repulsion_energy": 1.76, 
			 "cosmo_total_nonelectrostatic_energy": 10.3, 
			 "SMD_solvation_energy": 3.8 
		},
		"coords": [
			{
				"x": 0.1551909117,
				"y": 0.0206505236,
				"z": -2.2848302156,
				"element": "Cl" 
			},
			{
				"x": -0.4806947723,
				"y": 1.6721622151,
				"z": -1.8915910322,
				"element": "C" 
			},
			{
				"x": -1.0731419363,
				"y": 1.7645551472,
				"z": -0.4970935174,
				"element": "C" 
			},
			{
				"x": 0.148822354,
				"y": 1.9437674053,
				"z": 0.8545146051,
				"element": "S" 
			},
			{
				"x": 1.2655619771,
				"y": 2.7376303498,
				"z": 0.3148595461,
				"element": "O" 
			},
			{
				"x": -0.592606676,
				"y": 2.3999119294,
				"z": 2.0354086279,
				"element": "O" 
			},
			{
				"x": 0.816853315,
				"y": 0.2886051246,
				"z": 1.1983650081,
				"element": "C" 
			},
			{
				"x": 0.0693498363,
				"y": -0.7753309671,
				"z": 1.721647546,
				"element": "C" 
			},
			{
				"x": -1.6523369373,
				"y": -0.6654659216,
				"z": 2.0167003432,
				"element": "Cl" 
			},
			{
				"x": 0.7008845916,
				"y": -1.9850711818,
				"z": 2.0145382709,
				"element": "C" 
			},
			{
				"x": 2.0688255723,
				"y": -2.1364100617,
				"z": 1.8013071684,
				"element": "C" 
			},
			{
				"x": 2.8052459757,
				"y": -1.069806945,
				"z": 1.2870355453,
				"element": "C" 
			},
			{
				"x": 4.5248500882,
				"y": -1.2537290226,
				"z": 1.0177646567,
				"element": "Cl" 
			},
			{
				"x": 2.1887851267,
				"y": 0.1401398311,
				"z": 0.9822369626,
				"element": "C" 
			},
			{
				"x": -1.2522321513,
				"y": 1.8865663429,
				"z": -2.6326136789,
				"element": "H" 
			},
			{
				"x": 0.346696103,
				"y": 2.3719831822,
				"z": -2.0108091176,
				"element": "H" 
			},
			{
				"x": -1.7378790684,
				"y": 0.9346658936,
				"z": -0.2520820796,
				"element": "H" 
			},
			{
				"x": -1.6393666096,
				"y": 2.6981318992,
				"z": -0.4008451874,
				"element": "H" 
			},
			{
				"x": 0.1163380203,
				"y": -2.8063451514,
				"z": 2.4136064782,
				"element": "H" 
			},
			{
				"x": 2.5573954411,
				"y": -3.0760774097,
				"z": 2.0331239218,
				"element": "H" 
			},
			{
				"x": 2.7515588385,
				"y": 0.974266817,
				"z": 0.5806561484,
				"element": "H" 
			}
		],
		 "valence_orbital": [ 
			{
				"type": "occ",
				"energy": -0.31311,
				"method": "rhf"
			},
			{
				"type": "occ",
				"energy": -0.31085,
				"method": "rhf"
			},
			{
				"type": "occ",
				"energy": -0.30013,
				"method": "rhf"
			},
			{
				"type": "occ",
				"energy": -0.29175,
				"method": "rhf"
			},
			{
				"type": "occ",
				"energy": -0.26381,
				"method": "rhf"
			},
			{
				"type": "unocc",
				"energy": -0.06126,
				"method": "rhf"
			},
			{
				"type": "unocc",
				"energy": -0.04303,
				"method": "rhf"
			},
			{
				"type": "unocc",
				"energy": -0.00814,
				"method": "rhf"
			},
			{
				"type": "unocc",
				"energy": 0.00773,
				"method": "rhf"
			},
			{
				"type": "unocc",
				"energy": 0.02028,
				"method": "rhf"
			}
		],
		"cosmo_sigma_profile": { 
			"-0.025": 0.0,
			"-0.024": 0.0,
			"-0.023": 0.0,
			"-0.022": 0.0,
			"-0.021": 0.0,
			"-0.02": 0.0,
			"-0.019": 0.0,
			"-0.018": 0.0,
			"-0.017": 0.0,
			"-0.016": 0.0,
			"-0.015": 0.0,
			"-0.014": 0.0,
			"-0.013": 0.0,
			"-0.012": 0.0,
			"-0.011": 0.364670479743,
			"-0.01": 3.26092991316,
			"-0.009": 8.62764109904,
			"-0.008": 9.72210963429,
			"-0.007": 12.3381741882,
			"-0.006": 11.7263361064,
			"-0.005": 9.69586240348,
			"-0.004": 9.82253440483,
			"-0.003": 11.0658951372,
			"-0.002": 16.4766458546,
			"-0.001": 23.4985431111,
			"0.0": 24.3291713289,
			"0.001": 19.9623654809,
			"0.002": 17.4266227109,
			"0.003": 20.6374777846,
			"0.004": 14.9099599003,
			"0.005": 8.38839873505,
			"0.006": 7.793995141,
			"0.007": 3.45012006356,
			"0.008": 3.60748928318,
			"0.009": 3.80516586921,
			"0.01": 7.40869098975,
			"0.011": 8.23699166123,
			"0.012": 0.984919610515,
			"0.013": 0.0,
			"0.014": 0.0,
			"0.015": 0.0,
			"0.016": 0.0,
			"0.017": 0.0,
			"0.018": 0.0,
			"0.019": 0.0,
			"0.02": 0.0,
			"0.021": 0.0,
			"0.022": 0.0,
			"0.023": 0.0,
			"0.024": 0.0,
			"0.025": 0.0
		}
	}
}
