{
	 "smiles": "COC(=O)C1=NN=C2N1C=CC=C2Cl", 
	 "Tm": 326.65, 
	 "num_atms": 20, 
	 "gaussian": { 
		 "optdone": 1, 
		 "sigma_profile": "yes", 
		 "theory": "DFT", 
		 "functional": "B3LYP", 
		 "basiset": "6-31G**", 
		 "properties": { 
			 "R2extent": 3845.9245, 
			 "electric_dipole_moment_norm": 7.76604857247, 
			 "electric_quadrupole_moment_norm": 17.6118773426, 
			 "total_energy": -1083.32584784, 
			 "HOMO_LUMO_gap": 0.17493, 
			 "cosmo_polarized_energy": -19.93, 
			 "cosmo_cavitation_energy": 27.22, 
			 "cosmo_dispersion_energy": -20.24, 
			 "cosmo_repulsion_energy": 1.57, 
			 "cosmo_total_nonelectrostatic_energy": 8.55, 
			 "SMD_solvation_energy": 4.48 
		},
		"coords": [
			{
				"x": 2.8787365469,
				"y": 2.9053430346,
				"z": -1.0875845127,
				"element": "C" 
			},
			{
				"x": 1.84150587,
				"y": 1.9105503401,
				"z": -0.9900493815,
				"element": "O" 
			},
			{
				"x": 1.8953527928,
				"y": 0.9387530237,
				"z": -1.9400343627,
				"element": "C" 
			},
			{
				"x": 2.735847838,
				"y": 0.891857866,
				"z": -2.8068171612,
				"element": "O" 
			},
			{
				"x": 0.8067430229,
				"y": -0.0442086353,
				"z": -1.7813157417,
				"element": "C" 
			},
			{
				"x": 0.6528065966,
				"y": -1.0847768919,
				"z": -2.5912021869,
				"element": "N" 
			},
			{
				"x": -0.4175861634,
				"y": -1.8028563493,
				"z": -2.2058076439,
				"element": "N" 
			},
			{
				"x": -0.9367293321,
				"y": -1.1963836218,
				"z": -1.1373114015,
				"element": "C" 
			},
			{
				"x": -0.1931499045,
				"y": -0.060255212,
				"z": -0.8167215298,
				"element": "N" 
			},
			{
				"x": -0.5124599504,
				"y": 0.7553176509,
				"z": 0.2490466743,
				"element": "C" 
			},
			{
				"x": -1.5960907933,
				"y": 0.4331798219,
				"z": 1.0130911397,
				"element": "C" 
			},
			{
				"x": -2.3877340765,
				"y": -0.7155373703,
				"z": 0.7279518927,
				"element": "C" 
			},
			{
				"x": -2.0624941556,
				"y": -1.520356694,
				"z": -0.3337114538,
				"element": "C" 
			},
			{
				"x": -2.985937526,
				"y": -2.9330890836,
				"z": -0.733582423,
				"element": "Cl" 
			},
			{
				"x": 2.8237772525,
				"y": 3.4199435748,
				"z": -2.0493969923,
				"element": "H" 
			},
			{
				"x": 3.8623914464,
				"y": 2.440963126,
				"z": -0.989137788,
				"element": "H" 
			},
			{
				"x": 2.6965603996,
				"y": 3.5998054955,
				"z": -0.2679022615,
				"element": "H" 
			},
			{
				"x": 0.129104089,
				"y": 1.6078846075,
				"z": 0.4077323206,
				"element": "H" 
			},
			{
				"x": -1.8525614056,
				"y": 1.0696283078,
				"z": 1.8519047264,
				"element": "H" 
			},
			{
				"x": -3.2450825473,
				"y": -0.9557629907,
				"z": 1.345948087,
				"element": "H" 
			}
		],
		 "valence_orbital": [ 
			{
				"type": "occ",
				"energy": -0.31845,
				"method": "rhf"
			},
			{
				"type": "occ",
				"energy": -0.29294,
				"method": "rhf"
			},
			{
				"type": "occ",
				"energy": -0.28907,
				"method": "rhf"
			},
			{
				"type": "occ",
				"energy": -0.26367,
				"method": "rhf"
			},
			{
				"type": "occ",
				"energy": -0.2416,
				"method": "rhf"
			},
			{
				"type": "unocc",
				"energy": -0.06667,
				"method": "rhf"
			},
			{
				"type": "unocc",
				"energy": -0.05933,
				"method": "rhf"
			},
			{
				"type": "unocc",
				"energy": 0.00028,
				"method": "rhf"
			},
			{
				"type": "unocc",
				"energy": 0.0144,
				"method": "rhf"
			},
			{
				"type": "unocc",
				"energy": 0.08056,
				"method": "rhf"
			}
		],
		"cosmo_sigma_profile": { 
			"-0.025": 0.0,
			"-0.024": 0.0,
			"-0.023": 0.0,
			"-0.022": 0.0,
			"-0.021": 0.0,
			"-0.02": 0.0,
			"-0.019": 0.0,
			"-0.018": 0.0,
			"-0.017": 0.0,
			"-0.016": 0.0,
			"-0.015": 0.0,
			"-0.014": 0.0,
			"-0.013": 0.0,
			"-0.012": 0.0,
			"-0.011": 0.0,
			"-0.01": 0.417794097997,
			"-0.009": 5.32370824556,
			"-0.008": 6.58014061691,
			"-0.007": 7.67926401344,
			"-0.006": 13.6861206269,
			"-0.005": 19.4753478778,
			"-0.004": 20.8437248784,
			"-0.003": 18.8279237841,
			"-0.002": 16.9539426112,
			"-0.001": 16.8542227823,
			"0.0": 15.160804747,
			"0.001": 10.1658250536,
			"0.002": 9.15985923492,
			"0.003": 10.5592964946,
			"0.004": 5.37506228409,
			"0.005": 3.85391543734,
			"0.006": 3.32454285027,
			"0.007": 2.76618028188,
			"0.008": 4.39954219438,
			"0.009": 3.77506648818,
			"0.01": 5.55764107946,
			"0.011": 8.04539744971,
			"0.012": 5.04457552582,
			"0.013": 3.59560777479,
			"0.014": 3.25215108437,
			"0.015": 1.44364762381,
			"0.016": 0.134897526962,
			"0.017": 0.0,
			"0.018": 0.0,
			"0.019": 0.0,
			"0.02": 0.0,
			"0.021": 0.0,
			"0.022": 0.0,
			"0.023": 0.0,
			"0.024": 0.0,
			"0.025": 0.0
		}
	}
}
