{
	 "smiles": "CCOCCOC(=O)C1=C(C=CC=C1)C(=O)OCCOCC", 
	 "Tm": 307.15, 
	 "num_atms": 44, 
	 "gaussian": { 
		 "optdone": 1, 
		 "sigma_profile": "yes", 
		 "theory": "DFT", 
		 "functional": "B3LYP", 
		 "basiset": "6-31G**", 
		 "properties": { 
			 "R2extent": 8552.3239, 
			 "electric_dipole_moment_norm": 1.02446534836, 
			 "electric_quadrupole_moment_norm": 25.4925014965, 
			 "total_energy": -1074.30155783, 
			 "HOMO_LUMO_gap": 0.19814, 
			 "cosmo_polarized_energy": -16.99, 
			 "cosmo_cavitation_energy": 47.92, 
			 "cosmo_dispersion_energy": -31.29, 
			 "cosmo_repulsion_energy": 2.46, 
			 "cosmo_total_nonelectrostatic_energy": 19.1, 
			 "SMD_solvation_energy": 9.72 
		},
		"coords": [
			{
				"x": -1.0979730931,
				"y": 4.5062619852,
				"z": 0.6094696075,
				"element": "C" 
			},
			{
				"x": -2.3209588442,
				"y": 3.6043369854,
				"z": 0.5884958416,
				"element": "C" 
			},
			{
				"x": -2.0871647913,
				"y": 2.5008987004,
				"z": 1.4560087043,
				"element": "O" 
			},
			{
				"x": -3.2195674793,
				"y": 1.6748292972,
				"z": 1.6610824633,
				"element": "C" 
			},
			{
				"x": -3.4543915157,
				"y": 0.6432634338,
				"z": 0.5665731816,
				"element": "C" 
			},
			{
				"x": -2.5129373692,
				"y": -0.4325484448,
				"z": 0.7510082839,
				"element": "O" 
			},
			{
				"x": -2.5629056187,
				"y": -1.4166907075,
				"z": -0.1722435958,
				"element": "C" 
			},
			{
				"x": -3.332096876,
				"y": -1.4100797591,
				"z": -1.1129454956,
				"element": "O" 
			},
			{
				"x": -1.6544333623,
				"y": -2.5605383071,
				"z": 0.155733474,
				"element": "C" 
			},
			{
				"x": -0.4689991717,
				"y": -2.4545002571,
				"z": 0.9102539402,
				"element": "C" 
			},
			{
				"x": 0.2116441175,
				"y": -3.6177686924,
				"z": 1.2853936528,
				"element": "C" 
			},
			{
				"x": -0.243629793,
				"y": -4.8724006393,
				"z": 0.8824546287,
				"element": "C" 
			},
			{
				"x": -1.3929152009,
				"y": -4.9753264596,
				"z": 0.0976481383,
				"element": "C" 
			},
			{
				"x": -2.0948250013,
				"y": -3.8249156362,
				"z": -0.2555881613,
				"element": "C" 
			},
			{
				"x": 0.1687038943,
				"y": -1.1550226027,
				"z": 1.3046013279,
				"element": "C" 
			},
			{
				"x": 0.6122727214,
				"y": -0.929710361,
				"z": 2.4128987792,
				"element": "O" 
			},
			{
				"x": 0.2686558487,
				"y": -0.319139596,
				"z": 0.2555841867,
				"element": "O" 
			},
			{
				"x": 0.8284347773,
				"y": 0.9850667286,
				"z": 0.5243030544,
				"element": "C" 
			},
			{
				"x": 2.3447798161,
				"y": 0.9709173075,
				"z": 0.5851014249,
				"element": "C" 
			},
			{
				"x": 2.8475169767,
				"y": 0.6540777617,
				"z": -0.6990203333,
				"element": "O" 
			},
			{
				"x": 4.2387957009,
				"y": 0.3726715894,
				"z": -0.7377243392,
				"element": "C" 
			},
			{
				"x": 5.1216973339,
				"y": 1.6139201688,
				"z": -0.6096066258,
				"element": "C" 
			},
			{
				"x": -0.8930950502,
				"y": 4.8483292811,
				"z": 1.62789795,
				"element": "H" 
			},
			{
				"x": -0.2151585001,
				"y": 3.9765744814,
				"z": 0.2409040055,
				"element": "H" 
			},
			{
				"x": -1.2624170692,
				"y": 5.38157411,
				"z": -0.0266769037,
				"element": "H" 
			},
			{
				"x": -2.5261570642,
				"y": 3.2633948467,
				"z": -0.4388089833,
				"element": "H" 
			},
			{
				"x": -3.2107889301,
				"y": 4.160062847,
				"z": 0.9284965447,
				"element": "H" 
			},
			{
				"x": -3.0611278254,
				"y": 1.1545273509,
				"z": 2.6110862986,
				"element": "H" 
			},
			{
				"x": -4.1292519451,
				"y": 2.2891642267,
				"z": 1.7578672994,
				"element": "H" 
			},
			{
				"x": -4.4694907581,
				"y": 0.2359879276,
				"z": 0.6363893548,
				"element": "H" 
			},
			{
				"x": -3.3370592761,
				"y": 1.0653309119,
				"z": -0.4355349495,
				"element": "H" 
			},
			{
				"x": 1.1105770448,
				"y": -3.5213184863,
				"z": 1.8852869892,
				"element": "H" 
			},
			{
				"x": 0.3016039138,
				"y": -5.7646899033,
				"z": 1.175489618,
				"element": "H" 
			},
			{
				"x": -1.7494006206,
				"y": -5.9480453587,
				"z": -0.2276145453,
				"element": "H" 
			},
			{
				"x": -3.0043747057,
				"y": -3.8830477035,
				"z": -0.8436533313,
				"element": "H" 
			},
			{
				"x": 0.4974844737,
				"y": 1.5991962371,
				"z": -0.315101022,
				"element": "H" 
			},
			{
				"x": 0.4070697316,
				"y": 1.3756455591,
				"z": 1.4523004739,
				"element": "H" 
			},
			{
				"x": 2.6739120357,
				"y": 1.9696743984,
				"z": 0.9181891372,
				"element": "H" 
			},
			{
				"x": 2.6851051573,
				"y": 0.2436676026,
				"z": 1.3358796865,
				"element": "H" 
			},
			{
				"x": 4.497926902,
				"y": -0.3604318593,
				"z": 0.0440868409,
				"element": "H" 
			},
			{
				"x": 4.4096565764,
				"y": -0.1071543286,
				"z": -1.7071847182,
				"element": "H" 
			},
			{
				"x": 4.8608496689,
				"y": 2.348416945,
				"z": -1.3777986258,
				"element": "H" 
			},
			{
				"x": 5.0183707289,
				"y": 2.0909495538,
				"z": 0.3701540216,
				"element": "H" 
			},
			{
				"x": 6.1754624417,
				"y": 1.342688865,
				"z": -0.7358372797,
				"element": "H" 
			}
		],
		 "valence_orbital": [ 
			{
				"type": "occ",
				"energy": -0.27538,
				"method": "rhf"
			},
			{
				"type": "occ",
				"energy": -0.26314,
				"method": "rhf"
			},
			{
				"type": "occ",
				"energy": -0.25952,
				"method": "rhf"
			},
			{
				"type": "occ",
				"energy": -0.25527,
				"method": "rhf"
			},
			{
				"type": "occ",
				"energy": -0.24896,
				"method": "rhf"
			},
			{
				"type": "unocc",
				"energy": -0.05082,
				"method": "rhf"
			},
			{
				"type": "unocc",
				"energy": -0.02236,
				"method": "rhf"
			},
			{
				"type": "unocc",
				"energy": 0.03355,
				"method": "rhf"
			},
			{
				"type": "unocc",
				"energy": 0.04858,
				"method": "rhf"
			},
			{
				"type": "unocc",
				"energy": 0.07706,
				"method": "rhf"
			}
		],
		"cosmo_sigma_profile": { 
			"-0.025": 0.0,
			"-0.024": 0.0,
			"-0.023": 0.0,
			"-0.022": 0.0,
			"-0.021": 0.0,
			"-0.02": 0.0,
			"-0.019": 0.0,
			"-0.018": 0.0,
			"-0.017": 0.0,
			"-0.016": 0.0,
			"-0.015": 0.0,
			"-0.014": 0.0,
			"-0.013": 0.0,
			"-0.012": 0.0,
			"-0.011": 0.0,
			"-0.01": 0.0,
			"-0.009": 0.0,
			"-0.008": 0.17355712926,
			"-0.007": 6.03212467,
			"-0.006": 18.1318141662,
			"-0.005": 29.2086797102,
			"-0.004": 36.134432732,
			"-0.003": 44.0801896704,
			"-0.002": 39.5723441115,
			"-0.001": 31.0648994368,
			"0.0": 28.4546309059,
			"0.001": 28.8982132611,
			"0.002": 26.9367492103,
			"0.003": 18.5282690006,
			"0.004": 11.2909735892,
			"0.005": 9.64540699821,
			"0.006": 6.76185902109,
			"0.007": 5.95798534599,
			"0.008": 5.02262349813,
			"0.009": 5.82255136546,
			"0.01": 6.99626162737,
			"0.011": 9.02124314111,
			"0.012": 7.45944969256,
			"0.013": 1.44164240784,
			"0.014": 0.0,
			"0.015": 0.0,
			"0.016": 0.0,
			"0.017": 0.0,
			"0.018": 0.0,
			"0.019": 0.0,
			"0.02": 0.0,
			"0.021": 0.0,
			"0.022": 0.0,
			"0.023": 0.0,
			"0.024": 0.0,
			"0.025": 0.0
		}
	}
}
