{
	 "smiles": "OC(=O)C1=C(O)C=CC=C1O", 
	 "Tm": 435.15, 
	 "num_atms": 17, 
	 "gaussian": { 
		 "optdone": 1, 
		 "sigma_profile": "yes", 
		 "theory": "DFT", 
		 "functional": "B3LYP", 
		 "basiset": "6-31G**", 
		 "properties": { 
			 "R2extent": 2110.9538, 
			 "electric_dipole_moment_norm": 7.03579143736, 
			 "electric_quadrupole_moment_norm": 18.0533971343, 
			 "total_energy": -571.251424017, 
			 "HOMO_LUMO_gap": 0.19656, 
			 "cosmo_polarized_energy": -24.3, 
			 "cosmo_cavitation_energy": 21.4, 
			 "cosmo_dispersion_energy": -16.48, 
			 "cosmo_repulsion_energy": 1.32, 
			 "cosmo_total_nonelectrostatic_energy": 6.24, 
			 "SMD_solvation_energy": 5.54 
		},
		"coords": [
			{
				"x": -1.0301616123,
				"y": 3.1730659724,
				"z": 0.2075128805,
				"element": "O" 
			},
			{
				"x": -0.8288405372,
				"y": 2.0671655616,
				"z": 0.9613740438,
				"element": "C" 
			},
			{
				"x": -1.5943981733,
				"y": 1.8077170456,
				"z": 1.8591103324,
				"element": "O" 
			},
			{
				"x": 0.3809802517,
				"y": 1.22091538,
				"z": 0.6384097653,
				"element": "C" 
			},
			{
				"x": 0.8893351244,
				"y": 0.3145776011,
				"z": 1.6048975945,
				"element": "C" 
			},
			{
				"x": 0.3112285313,
				"y": 0.2660378584,
				"z": 2.8256271884,
				"element": "O" 
			},
			{
				"x": 1.9913086279,
				"y": -0.504597623,
				"z": 1.3153321392,
				"element": "C" 
			},
			{
				"x": 2.6050666517,
				"y": -0.4448622574,
				"z": 0.0717086979,
				"element": "C" 
			},
			{
				"x": 2.1383531314,
				"y": 0.4358290164,
				"z": -0.8999081618,
				"element": "C" 
			},
			{
				"x": 1.0474635303,
				"y": 1.2532103955,
				"z": -0.6062847786,
				"element": "C" 
			},
			{
				"x": 0.5808884627,
				"y": 2.1321287034,
				"z": -1.5579783512,
				"element": "O" 
			},
			{
				"x": -0.4143071657,
				"y": 3.193544715,
				"z": -0.5443235495,
				"element": "H" 
			},
			{
				"x": 0.7919693454,
				"y": -0.372635115,
				"z": 3.3692894246,
				"element": "H" 
			},
			{
				"x": 2.3591344218,
				"y": -1.1875915463,
				"z": 2.0770852017,
				"element": "H" 
			},
			{
				"x": 3.4542994037,
				"y": -1.0859886381,
				"z": -0.1435726284,
				"element": "H" 
			},
			{
				"x": 2.6112769545,
				"y": 0.4902994792,
				"z": -1.8770480493,
				"element": "H" 
			},
			{
				"x": 1.1578030519,
				"y": 2.1155834512,
				"z": -2.3319317495,
				"element": "H" 
			}
		],
		 "valence_orbital": [ 
			{
				"type": "occ",
				"energy": -0.3352,
				"method": "rhf"
			},
			{
				"type": "occ",
				"energy": -0.29024,
				"method": "rhf"
			},
			{
				"type": "occ",
				"energy": -0.25603,
				"method": "rhf"
			},
			{
				"type": "occ",
				"energy": -0.24781,
				"method": "rhf"
			},
			{
				"type": "occ",
				"energy": -0.23584,
				"method": "rhf"
			},
			{
				"type": "unocc",
				"energy": -0.03928,
				"method": "rhf"
			},
			{
				"type": "unocc",
				"energy": -0.00129,
				"method": "rhf"
			},
			{
				"type": "unocc",
				"energy": 0.03941,
				"method": "rhf"
			},
			{
				"type": "unocc",
				"energy": 0.05856,
				"method": "rhf"
			},
			{
				"type": "unocc",
				"energy": 0.06641,
				"method": "rhf"
			}
		],
		"cosmo_sigma_profile": { 
			"-0.025": 0.0,
			"-0.024": 0.0,
			"-0.023": 0.0,
			"-0.022": 0.0,
			"-0.021": 0.0,
			"-0.02": 0.180966874128,
			"-0.019": 1.09376747903,
			"-0.018": 2.40292296452,
			"-0.017": 2.46062148734,
			"-0.016": 1.9574979131,
			"-0.015": 1.82759035487,
			"-0.014": 1.69936512207,
			"-0.013": 1.35849847394,
			"-0.012": 1.58102563826,
			"-0.011": 3.31845649313,
			"-0.01": 2.60843319467,
			"-0.009": 1.98149686558,
			"-0.008": 3.97655865029,
			"-0.007": 7.10615126207,
			"-0.006": 6.25018447041,
			"-0.005": 7.73651866412,
			"-0.004": 6.40926541018,
			"-0.003": 7.28969376881,
			"-0.002": 7.00671240946,
			"-0.001": 8.07120721667,
			"0.0": 9.6493688582,
			"0.001": 10.1144899065,
			"0.002": 13.4669526391,
			"0.003": 10.2191046893,
			"0.004": 9.53102254871,
			"0.005": 3.89454869906,
			"0.006": 3.47801938513,
			"0.007": 2.70425859326,
			"0.008": 3.25405247176,
			"0.009": 2.84029034361,
			"0.01": 3.27040274492,
			"0.011": 4.01400534733,
			"0.012": 6.44365326635,
			"0.013": 6.01113819124,
			"0.014": 2.61067232961,
			"0.015": 1.64630494838,
			"0.016": 1.13325135215,
			"0.017": 0.331518764773,
			"0.018": 0.0,
			"0.019": 0.0,
			"0.02": 0.0,
			"0.021": 0.0,
			"0.022": 0.0,
			"0.023": 0.0,
			"0.024": 0.0,
			"0.025": 0.0
		}
	}
}
