{
	 "smiles": "CC(C)[C@H](N)C(O)(C1=CC=CC=C1)C1=CC=CC=C1", 
	 "Tm": 365.15, 
	 "num_atms": 40, 
	 "gaussian": { 
		 "optdone": 1, 
		 "sigma_profile": "yes", 
		 "theory": "DFT", 
		 "functional": "B3LYP", 
		 "basiset": "6-31G**", 
		 "properties": { 
			 "R2extent": 5251.5288, 
			 "electric_dipole_moment_norm": 1.60555554871, 
			 "electric_quadrupole_moment_norm": 5.12062728286, 
			 "total_energy": -790.435234736, 
			 "HOMO_LUMO_gap": 0.22635, 
			 "cosmo_polarized_energy": -9.57, 
			 "cosmo_cavitation_energy": 38.83, 
			 "cosmo_dispersion_energy": -27.21, 
			 "cosmo_repulsion_energy": 2.09, 
			 "cosmo_total_nonelectrostatic_energy": 13.71, 
			 "SMD_solvation_energy": 5.95 
		},
		"coords": [
			{
				"x": -1.0601105434,
				"y": -2.2246010021,
				"z": -2.6339235162,
				"element": "C" 
			},
			{
				"x": 0.3045453341,
				"y": -1.7800960869,
				"z": -2.0798025407,
				"element": "C" 
			},
			{
				"x": 1.2852903531,
				"y": -1.6156228791,
				"z": -3.2582378244,
				"element": "C" 
			},
			{
				"x": 0.2794139049,
				"y": -0.4847247773,
				"z": -1.2144824719,
				"element": "C" 
			},
			{
				"x": 1.6168951606,
				"y": -0.3037769042,
				"z": -0.6289636004,
				"element": "N" 
			},
			{
				"x": -0.825908417,
				"y": -0.4006453007,
				"z": -0.0816092043,
				"element": "C" 
			},
			{
				"x": -2.0817459308,
				"y": -0.1269901342,
				"z": -0.7219797427,
				"element": "O" 
			},
			{
				"x": -0.9450349753,
				"y": -1.6617866162,
				"z": 0.7908542426,
				"element": "C" 
			},
			{
				"x": -2.2100455619,
				"y": -2.0515302106,
				"z": 1.2559588246,
				"element": "C" 
			},
			{
				"x": -2.3606222759,
				"y": -3.1782544198,
				"z": 2.0655781489,
				"element": "C" 
			},
			{
				"x": -1.2468501661,
				"y": -3.9348948499,
				"z": 2.4321394594,
				"element": "C" 
			},
			{
				"x": 0.0180076276,
				"y": -3.5490841071,
				"z": 1.9862320683,
				"element": "C" 
			},
			{
				"x": 0.1716787484,
				"y": -2.4220776701,
				"z": 1.1755650607,
				"element": "C" 
			},
			{
				"x": -0.5698966701,
				"y": 0.8590656393,
				"z": 0.7727433418,
				"element": "C" 
			},
			{
				"x": 0.0973716286,
				"y": 0.8149739036,
				"z": 2.0042200175,
				"element": "C" 
			},
			{
				"x": 0.3411526857,
				"y": 1.9853338046,
				"z": 2.727130857,
				"element": "C" 
			},
			{
				"x": -0.0811868861,
				"y": 3.2196726449,
				"z": 2.2342654718,
				"element": "C" 
			},
			{
				"x": -0.750284871,
				"y": 3.2743927347,
				"z": 1.0100313601,
				"element": "C" 
			},
			{
				"x": -0.9915424439,
				"y": 2.1068684857,
				"z": 0.2861645612,
				"element": "C" 
			},
			{
				"x": -1.5510291517,
				"y": -1.4270033149,
				"z": -3.2049246321,
				"element": "H" 
			},
			{
				"x": -0.9285565671,
				"y": -3.0713400782,
				"z": -3.3155474683,
				"element": "H" 
			},
			{
				"x": -1.7335173574,
				"y": -2.5755391595,
				"z": -1.8438745537,
				"element": "H" 
			},
			{
				"x": 0.6820767187,
				"y": -2.5867279025,
				"z": -1.44211815,
				"element": "H" 
			},
			{
				"x": 1.2790735944,
				"y": -2.5118940295,
				"z": -3.8872288573,
				"element": "H" 
			},
			{
				"x": 2.3189864169,
				"y": -1.4701016053,
				"z": -2.9308323892,
				"element": "H" 
			},
			{
				"x": 1.003944638,
				"y": -0.7656104197,
				"z": -3.892429042,
				"element": "H" 
			},
			{
				"x": -0.0015359031,
				"y": 0.3465282108,
				"z": -1.8864018648,
				"element": "H" 
			},
			{
				"x": 1.6396015323,
				"y": 0.5543879568,
				"z": -0.0854605715,
				"element": "H" 
			},
			{
				"x": 2.3053657536,
				"y": -0.1961417844,
				"z": -1.3669814475,
				"element": "H" 
			},
			{
				"x": -2.3090221594,
				"y": -0.8905178371,
				"z": -1.2652137886,
				"element": "H" 
			},
			{
				"x": -3.0755061177,
				"y": -1.457989602,
				"z": 0.9823419314,
				"element": "H" 
			},
			{
				"x": -3.3506977975,
				"y": -3.4612874473,
				"z": 2.4128182179,
				"element": "H" 
			},
			{
				"x": -1.3628038226,
				"y": -4.8126383778,
				"z": 3.0618107508,
				"element": "H" 
			},
			{
				"x": 0.8940771291,
				"y": -4.126583303,
				"z": 2.2692960545,
				"element": "H" 
			},
			{
				"x": 1.157185419,
				"y": -2.1170121222,
				"z": 0.8388696292,
				"element": "H" 
			},
			{
				"x": 0.4215028798,
				"y": -0.1374262401,
				"z": 2.4081660441,
				"element": "H" 
			},
			{
				"x": 0.8568147915,
				"y": 1.9261524523,
				"z": 3.6816591171,
				"element": "H" 
			},
			{
				"x": 0.1044856642,
				"y": 4.1287494303,
				"z": 2.7993696871,
				"element": "H" 
			},
			{
				"x": -1.0911881035,
				"y": 4.2287095783,
				"z": 0.6176583384,
				"element": "H" 
			},
			{
				"x": -1.5274842588,
				"y": 2.1516633405,
				"z": -0.6545615189,
				"element": "H" 
			}
		],
		 "valence_orbital": [ 
			{
				"type": "occ",
				"energy": -0.24565,
				"method": "rhf"
			},
			{
				"type": "occ",
				"energy": -0.24276,
				"method": "rhf"
			},
			{
				"type": "occ",
				"energy": -0.2418,
				"method": "rhf"
			},
			{
				"type": "occ",
				"energy": -0.23522,
				"method": "rhf"
			},
			{
				"type": "occ",
				"energy": -0.22984,
				"method": "rhf"
			},
			{
				"type": "unocc",
				"energy": -0.00349,
				"method": "rhf"
			},
			{
				"type": "unocc",
				"energy": 0.00227,
				"method": "rhf"
			},
			{
				"type": "unocc",
				"energy": 0.00426,
				"method": "rhf"
			},
			{
				"type": "unocc",
				"energy": 0.00942,
				"method": "rhf"
			},
			{
				"type": "unocc",
				"energy": 0.07967,
				"method": "rhf"
			}
		],
		"cosmo_sigma_profile": { 
			"-0.025": 0.0,
			"-0.024": 0.0,
			"-0.023": 0.0,
			"-0.022": 0.0,
			"-0.021": 0.0,
			"-0.02": 0.0,
			"-0.019": 0.0,
			"-0.018": 0.0,
			"-0.017": 0.0,
			"-0.016": 0.0,
			"-0.015": 0.0,
			"-0.014": 0.0,
			"-0.013": 0.0,
			"-0.012": 0.0,
			"-0.011": 0.681394683654,
			"-0.01": 0.775283482496,
			"-0.009": 2.14470161416,
			"-0.008": 2.76475092943,
			"-0.007": 3.57845248757,
			"-0.006": 7.64144100816,
			"-0.005": 16.6825789808,
			"-0.004": 20.5491737605,
			"-0.003": 33.3705309995,
			"-0.002": 31.0715933481,
			"-0.001": 31.1067184632,
			"0.0": 30.2048558899,
			"0.001": 27.1649955386,
			"0.002": 17.7414124956,
			"0.003": 16.4319617223,
			"0.004": 18.7201880133,
			"0.005": 16.6391532322,
			"0.006": 14.401900878,
			"0.007": 4.05168039727,
			"0.008": 1.69632938298,
			"0.009": 1.93517619137,
			"0.01": 1.75232105294,
			"0.011": 1.99931029104,
			"0.012": 1.52412829795,
			"0.013": 0.854954636464,
			"0.014": 0.0401899376002,
			"0.015": 0.0,
			"0.016": 0.0,
			"0.017": 0.0,
			"0.018": 0.0,
			"0.019": 0.0,
			"0.02": 0.0,
			"0.021": 0.0,
			"0.022": 0.0,
			"0.023": 0.0,
			"0.024": 0.0,
			"0.025": 0.0
		}
	}
}
