{
	 "smiles": "CC(=O)CCC1=C(C2=CC=C(C)O2)C2=C(O1)C(=CC=C2)[N+]([O-])=O", 
	 "Tm": 376.15, 
	 "num_atms": 38, 
	 "gaussian": { 
		 "optdone": 1, 
		 "sigma_profile": "yes", 
		 "theory": "DFT", 
		 "functional": "B3LYP", 
		 "basiset": "6-31G**", 
		 "properties": { 
			 "R2extent": 8875.9327, 
			 "electric_dipole_moment_norm": 4.88544399722, 
			 "electric_quadrupole_moment_norm": 27.805606457, 
			 "total_energy": -1087.60708968, 
			 "HOMO_LUMO_gap": 0.1181, 
			 "cosmo_polarized_energy": -15.26, 
			 "cosmo_cavitation_energy": 43.57, 
			 "cosmo_dispersion_energy": -30.11, 
			 "cosmo_repulsion_energy": 2.3, 
			 "cosmo_total_nonelectrostatic_energy": 15.76, 
			 "SMD_solvation_energy": 10.65 
		},
		"coords": [
			{
				"x": -2.5229756742,
				"y": -3.585331053,
				"z": -3.1094031543,
				"element": "C" 
			},
			{
				"x": -1.9097118332,
				"y": -2.2024995887,
				"z": -3.0315293312,
				"element": "C" 
			},
			{
				"x": -2.0791363522,
				"y": -1.3712605129,
				"z": -3.9053145127,
				"element": "O" 
			},
			{
				"x": -1.0956136281,
				"y": -1.880869729,
				"z": -1.7788045704,
				"element": "C" 
			},
			{
				"x": -0.0314765991,
				"y": -0.787818621,
				"z": -2.0218502209,
				"element": "C" 
			},
			{
				"x": 0.3490793499,
				"y": -0.0454886985,
				"z": -0.7923841053,
				"element": "C" 
			},
			{
				"x": -0.0951434365,
				"y": 1.1255686377,
				"z": -0.2357768397,
				"element": "C" 
			},
			{
				"x": -1.1230259436,
				"y": 2.0064159942,
				"z": -0.7528100582,
				"element": "C" 
			},
			{
				"x": -2.0800451875,
				"y": 1.9012651037,
				"z": -1.7306910917,
				"element": "C" 
			},
			{
				"x": -2.7816354539,
				"y": 3.1472713461,
				"z": -1.7493007999,
				"element": "C" 
			},
			{
				"x": -2.2240301563,
				"y": 3.9346518011,
				"z": -0.7850178401,
				"element": "C" 
			},
			{
				"x": -2.4893045569,
				"y": 5.3154881319,
				"z": -0.2992425369,
				"element": "C" 
			},
			{
				"x": -1.2102119316,
				"y": 3.2498215466,
				"z": -0.1691897529,
				"element": "O" 
			},
			{
				"x": 0.6732045817,
				"y": 1.2945618115,
				"z": 0.9874219694,
				"element": "C" 
			},
			{
				"x": 1.5203255524,
				"y": 0.1688163209,
				"z": 1.0594247303,
				"element": "C" 
			},
			{
				"x": 1.3215996415,
				"y": -0.6389592581,
				"z": -0.010087552,
				"element": "O" 
			},
			{
				"x": 2.4115611781,
				"y": -0.0013900719,
				"z": 2.1253553675,
				"element": "C" 
			},
			{
				"x": 2.44605614,
				"y": 0.9713697369,
				"z": 3.1250961019,
				"element": "C" 
			},
			{
				"x": 1.6069703836,
				"y": 2.0881638401,
				"z": 3.0587485114,
				"element": "C" 
			},
			{
				"x": 0.717592762,
				"y": 2.2628138216,
				"z": 1.9986270947,
				"element": "C" 
			},
			{
				"x": 3.2965563807,
				"y": -1.1593544035,
				"z": 2.2279502938,
				"element": "N" 
			},
			{
				"x": 4.0589918033,
				"y": -1.2130900711,
				"z": 3.1949826871,
				"element": "O" 
			},
			{
				"x": 3.2244620863,
				"y": -2.0110809655,
				"z": 1.3431005645,
				"element": "O" 
			},
			{
				"x": -1.7288149039,
				"y": -4.3320913774,
				"z": -3.2312370607,
				"element": "H" 
			},
			{
				"x": -3.0479929164,
				"y": -3.8316776769,
				"z": -2.1795084733,
				"element": "H" 
			},
			{
				"x": -3.2090700313,
				"y": -3.6446627645,
				"z": -3.9552372918,
				"element": "H" 
			},
			{
				"x": -0.6482551965,
				"y": -2.788615278,
				"z": -1.3607862255,
				"element": "H" 
			},
			{
				"x": -1.8247384837,
				"y": -1.5341221791,
				"z": -1.0318731922,
				"element": "H" 
			},
			{
				"x": -0.4212229766,
				"y": -0.0828565083,
				"z": -2.7603006228,
				"element": "H" 
			},
			{
				"x": 0.8664370516,
				"y": -1.2435558585,
				"z": -2.4527656731,
				"element": "H" 
			},
			{
				"x": -2.2748658368,
				"y": 1.0455868779,
				"z": -2.3609507195,
				"element": "H" 
			},
			{
				"x": -3.6016432131,
				"y": 3.4201565913,
				"z": -2.3981118444,
				"element": "H" 
			},
			{
				"x": -1.6090774726,
				"y": 5.9586238147,
				"z": -0.4149616945,
				"element": "H" 
			},
			{
				"x": -3.3110272024,
				"y": 5.7561644898,
				"z": -0.8681639822,
				"element": "H" 
			},
			{
				"x": -2.765304317,
				"y": 5.3235474243,
				"z": 0.7619026309,
				"element": "H" 
			},
			{
				"x": 3.1388322743,
				"y": 0.8307284259,
				"z": 3.9450965334,
				"element": "H" 
			},
			{
				"x": 1.6531215196,
				"y": 2.8298119196,
				"z": 3.8495189805,
				"element": "H" 
			},
			{
				"x": 0.0720325985,
				"y": 3.1308969799,
				"z": 1.9479736807,
				"element": "H" 
			}
		],
		 "valence_orbital": [ 
			{
				"type": "occ",
				"energy": -0.28185,
				"method": "rhf"
			},
			{
				"type": "occ",
				"energy": -0.26432,
				"method": "rhf"
			},
			{
				"type": "occ",
				"energy": -0.2631,
				"method": "rhf"
			},
			{
				"type": "occ",
				"energy": -0.24982,
				"method": "rhf"
			},
			{
				"type": "occ",
				"energy": -0.20181,
				"method": "rhf"
			},
			{
				"type": "unocc",
				"energy": -0.08371,
				"method": "rhf"
			},
			{
				"type": "unocc",
				"energy": -0.02927,
				"method": "rhf"
			},
			{
				"type": "unocc",
				"energy": -0.02597,
				"method": "rhf"
			},
			{
				"type": "unocc",
				"energy": -0.00794,
				"method": "rhf"
			},
			{
				"type": "unocc",
				"energy": 0.00765,
				"method": "rhf"
			}
		],
		"cosmo_sigma_profile": { 
			"-0.025": 0.0,
			"-0.024": 0.0,
			"-0.023": 0.0,
			"-0.022": 0.0,
			"-0.021": 0.0,
			"-0.02": 0.0,
			"-0.019": 0.0,
			"-0.018": 0.0,
			"-0.017": 0.0,
			"-0.016": 0.0,
			"-0.015": 0.0,
			"-0.014": 0.0,
			"-0.013": 0.0,
			"-0.012": 0.0,
			"-0.011": 0.0,
			"-0.01": 0.0,
			"-0.009": 0.0,
			"-0.008": 0.257797550317,
			"-0.007": 7.84080329358,
			"-0.006": 22.6385526557,
			"-0.005": 30.164950615,
			"-0.004": 28.1117149142,
			"-0.003": 27.5931237059,
			"-0.002": 30.68583592,
			"-0.001": 36.6550784485,
			"0.0": 26.5542228931,
			"0.001": 25.7510380416,
			"0.002": 25.4001005957,
			"0.003": 15.8022315288,
			"0.004": 11.2280533001,
			"0.005": 10.6677258736,
			"0.006": 8.33129584647,
			"0.007": 6.99908690777,
			"0.008": 10.7075216658,
			"0.009": 8.36452420987,
			"0.01": 6.81393019661,
			"0.011": 3.94041052365,
			"0.012": 2.71246005453,
			"0.013": 1.00907764859,
			"0.014": 0.0326190557085,
			"0.015": 0.0,
			"0.016": 0.0,
			"0.017": 0.0,
			"0.018": 0.0,
			"0.019": 0.0,
			"0.02": 0.0,
			"0.021": 0.0,
			"0.022": 0.0,
			"0.023": 0.0,
			"0.024": 0.0,
			"0.025": 0.0
		}
	}
}
