{
	 "smiles": "CCC1=C(C)N(N=C1C)C1=CC(=CC=C1)C(O)=O", 
	 "Tm": 423.15, 
	 "num_atms": 34, 
	 "gaussian": { 
		 "optdone": 1, 
		 "sigma_profile": "yes", 
		 "theory": "DFT", 
		 "functional": "B3LYP", 
		 "basiset": "6-31G**", 
		 "properties": { 
			 "R2extent": 6767.5048, 
			 "electric_dipole_moment_norm": 6.089400078, 
			 "electric_quadrupole_moment_norm": 25.2376867092, 
			 "total_energy": -803.097137818, 
			 "HOMO_LUMO_gap": 0.17479, 
			 "cosmo_polarized_energy": -16.01, 
			 "cosmo_cavitation_energy": 37.58, 
			 "cosmo_dispersion_energy": -26.31, 
			 "cosmo_repulsion_energy": 2.04, 
			 "cosmo_total_nonelectrostatic_energy": 13.31, 
			 "SMD_solvation_energy": 6.77 
		},
		"coords": [
			{
				"x": -0.9912427627,
				"y": -3.4966625968,
				"z": 1.7847886503,
				"element": "C" 
			},
			{
				"x": 0.4573670663,
				"y": -3.0483900308,
				"z": 1.5145292751,
				"element": "C" 
			},
			{
				"x": 0.5826345904,
				"y": -2.039364679,
				"z": 0.4061587847,
				"element": "C" 
			},
			{
				"x": 0.636913597,
				"y": -0.6600954337,
				"z": 0.5165392328,
				"element": "C" 
			},
			{
				"x": 0.5591701982,
				"y": 0.1918313863,
				"z": 1.7457815466,
				"element": "C" 
			},
			{
				"x": 0.726101898,
				"y": -0.1721588023,
				"z": -0.7716025023,
				"element": "N" 
			},
			{
				"x": 0.7107811677,
				"y": -1.1776146765,
				"z": -1.6967093143,
				"element": "N" 
			},
			{
				"x": 0.6311726151,
				"y": -2.3004400366,
				"z": -0.9937677298,
				"element": "C" 
			},
			{
				"x": 0.6179984862,
				"y": -3.6270444381,
				"z": -1.6899268327,
				"element": "C" 
			},
			{
				"x": 0.7575929889,
				"y": 1.16267881,
				"z": -1.2423023417,
				"element": "C" 
			},
			{
				"x": 0.1109694062,
				"y": 1.4603395587,
				"z": -2.4488734602,
				"element": "C" 
			},
			{
				"x": 0.1302078441,
				"y": 2.7621797783,
				"z": -2.9554592219,
				"element": "C" 
			},
			{
				"x": 0.7677267625,
				"y": 3.7836885752,
				"z": -2.2373163946,
				"element": "C" 
			},
			{
				"x": 1.4219200844,
				"y": 3.4814930424,
				"z": -1.047790485,
				"element": "C" 
			},
			{
				"x": 1.4349136078,
				"y": 2.17509467,
				"z": -0.5531561682,
				"element": "C" 
			},
			{
				"x": -0.5497432648,
				"y": 3.1324483161,
				"z": -4.2418176756,
				"element": "C" 
			},
			{
				"x": -0.7874767243,
				"y": 2.1236472647,
				"z": -5.1199105191,
				"element": "O" 
			},
			{
				"x": -0.8786238807,
				"y": 4.2633224449,
				"z": -4.5136156055,
				"element": "O" 
			},
			{
				"x": -1.4410833898,
				"y": -3.9409382231,
				"z": 0.8911501633,
				"element": "H" 
			},
			{
				"x": -1.0289177433,
				"y": -4.241423453,
				"z": 2.5868866061,
				"element": "H" 
			},
			{
				"x": -1.6171820615,
				"y": -2.6480199004,
				"z": 2.0793443481,
				"element": "H" 
			},
			{
				"x": 0.8871659649,
				"y": -2.6418662553,
				"z": 2.4375521282,
				"element": "H" 
			},
			{
				"x": 1.0635795321,
				"y": -3.9293518762,
				"z": 1.2684290789,
				"element": "H" 
			},
			{
				"x": 0.1098002124,
				"y": -0.3829561613,
				"z": 2.5588650643,
				"element": "H" 
			},
			{
				"x": 1.5443534322,
				"y": 0.5274663826,
				"z": 2.0919939891,
				"element": "H" 
			},
			{
				"x": -0.0559045432,
				"y": 1.0822552822,
				"z": 1.5857178037,
				"element": "H" 
			},
			{
				"x": -0.3179404168,
				"y": -4.1687145941,
				"z": -1.5111366687,
				"element": "H" 
			},
			{
				"x": 0.729436432,
				"y": -3.4815096328,
				"z": -2.7665329682,
				"element": "H" 
			},
			{
				"x": 1.4350615103,
				"y": -4.2697610793,
				"z": -1.3423434542,
				"element": "H" 
			},
			{
				"x": -0.4132381236,
				"y": 0.652059656,
				"z": -2.9463481098,
				"element": "H" 
			},
			{
				"x": 0.7456057332,
				"y": 4.7919872556,
				"z": -2.634918249,
				"element": "H" 
			},
			{
				"x": 1.9440396607,
				"y": 4.2614910642,
				"z": -0.5020869807,
				"element": "H" 
			},
			{
				"x": 1.9864210835,
				"y": 1.9453360931,
				"z": 0.3499155645,
				"element": "H" 
			},
			{
				"x": -0.3351809635,
				"y": 1.3169922885,
				"z": -4.8350375541,
				"element": "H" 
			}
		],
		 "valence_orbital": [ 
			{
				"type": "occ",
				"energy": -0.28651,
				"method": "rhf"
			},
			{
				"type": "occ",
				"energy": -0.27568,
				"method": "rhf"
			},
			{
				"type": "occ",
				"energy": -0.26726,
				"method": "rhf"
			},
			{
				"type": "occ",
				"energy": -0.23958,
				"method": "rhf"
			},
			{
				"type": "occ",
				"energy": -0.2263,
				"method": "rhf"
			},
			{
				"type": "unocc",
				"energy": -0.05151,
				"method": "rhf"
			},
			{
				"type": "unocc",
				"energy": -0.03163,
				"method": "rhf"
			},
			{
				"type": "unocc",
				"energy": 0.02091,
				"method": "rhf"
			},
			{
				"type": "unocc",
				"energy": 0.05108,
				"method": "rhf"
			},
			{
				"type": "unocc",
				"energy": 0.05462,
				"method": "rhf"
			}
		],
		"cosmo_sigma_profile": { 
			"-0.025": 0.0,
			"-0.024": 0.0,
			"-0.023": 0.0,
			"-0.022": 0.0,
			"-0.021": 0.0,
			"-0.02": 0.0,
			"-0.019": 0.167793375148,
			"-0.018": 0.627027930117,
			"-0.017": 0.833131370817,
			"-0.016": 1.13959718849,
			"-0.015": 1.1173154049,
			"-0.014": 0.635201372478,
			"-0.013": 0.638875170632,
			"-0.012": 1.22709625062,
			"-0.011": 1.0758773329,
			"-0.01": 1.03248407904,
			"-0.009": 1.38184426506,
			"-0.008": 1.82574911536,
			"-0.007": 5.44289128707,
			"-0.006": 8.62781246324,
			"-0.005": 12.3650464735,
			"-0.004": 20.3007146267,
			"-0.003": 30.6097228254,
			"-0.002": 30.510483342,
			"-0.001": 31.7612130709,
			"0.0": 30.7473747343,
			"0.001": 23.985422905,
			"0.002": 20.8847734407,
			"0.003": 14.7722389158,
			"0.004": 9.8102960856,
			"0.005": 7.20518777073,
			"0.006": 5.23496952006,
			"0.007": 3.60395808529,
			"0.008": 5.07599790971,
			"0.009": 4.40183147898,
			"0.01": 6.05020461971,
			"0.011": 6.04283639732,
			"0.012": 5.25232793585,
			"0.013": 2.17277302882,
			"0.014": 0.976201968062,
			"0.015": 0.210205794612,
			"0.016": 0.0,
			"0.017": 0.0,
			"0.018": 0.0,
			"0.019": 0.0,
			"0.02": 0.0,
			"0.021": 0.0,
			"0.022": 0.0,
			"0.023": 0.0,
			"0.024": 0.0,
			"0.025": 0.0
		}
	}
}
