{
	 "smiles": "BrCC1=CC=CC2=NON=C12", 
	 "Tm": 351.15, 
	 "num_atms": 16, 
	 "gaussian": { 
		 "optdone": 1, 
		 "sigma_profile": "yes", 
		 "theory": "DFT", 
		 "functional": "B3LYP", 
		 "basiset": "6-31G**", 
		 "properties": { 
			 "R2extent": 3154.9791, 
			 "electric_dipole_moment_norm": 4.52088663981, 
			 "electric_quadrupole_moment_norm": 7.52916536942, 
			 "total_energy": -3025.79451886, 
			 "HOMO_LUMO_gap": 0.15425, 
			 "cosmo_polarized_energy": -10.3, 
			 "cosmo_cavitation_energy": 23.29, 
			 "cosmo_dispersion_energy": -17.46, 
			 "cosmo_repulsion_energy": 1.4, 
			 "cosmo_total_nonelectrostatic_energy": 7.22, 
			 "SMD_solvation_energy": 2.09 
		},
		"coords": [
			{
				"x": -2.6221416249,
				"y": 0.7720265409,
				"z": -2.6011644634,
				"element": "Br" 
			},
			{
				"x": -1.5821441628,
				"y": 1.4919620011,
				"z": -1.0498071363,
				"element": "C" 
			},
			{
				"x": -0.2201963728,
				"y": 0.893959352,
				"z": -0.9756927886,
				"element": "C" 
			},
			{
				"x": 0.8947423923,
				"y": 1.4953353856,
				"z": -1.5073247649,
				"element": "C" 
			},
			{
				"x": 2.207646994,
				"y": 0.9143243069,
				"z": -1.4350079365,
				"element": "C" 
			},
			{
				"x": 2.444242025,
				"y": -0.2878510337,
				"z": -0.825111167,
				"element": "C" 
			},
			{
				"x": 1.3160234957,
				"y": -0.9441484979,
				"z": -0.251166687,
				"element": "C" 
			},
			{
				"x": 1.236059801,
				"y": -2.0876228952,
				"z": 0.4090364971,
				"element": "N" 
			},
			{
				"x": -0.0865198041,
				"y": -2.2078330708,
				"z": 0.7323380696,
				"element": "O" 
			},
			{
				"x": -0.8487387868,
				"y": -1.1628410395,
				"z": 0.289385201,
				"element": "N" 
			},
			{
				"x": 0.0049153167,
				"y": -0.3648524119,
				"z": -0.3270303462,
				"element": "C" 
			},
			{
				"x": -2.1905368459,
				"y": 1.2489844509,
				"z": -0.1810960299,
				"element": "H" 
			},
			{
				"x": -1.5519820022,
				"y": 2.5676575796,
				"z": -1.2097579775,
				"element": "H" 
			},
			{
				"x": 0.785853464,
				"y": 2.4509223001,
				"z": -2.0129293345,
				"element": "H" 
			},
			{
				"x": 3.0316420256,
				"y": 1.459477908,
				"z": -1.8847058337,
				"element": "H" 
			},
			{
				"x": 3.4321340853,
				"y": -0.7297008763,
				"z": -0.7681653022,
				"element": "H" 
			}
		],
		 "valence_orbital": [ 
			{
				"type": "occ",
				"energy": -0.32562,
				"method": "rhf"
			},
			{
				"type": "occ",
				"energy": -0.30165,
				"method": "rhf"
			},
			{
				"type": "occ",
				"energy": -0.28138,
				"method": "rhf"
			},
			{
				"type": "occ",
				"energy": -0.27735,
				"method": "rhf"
			},
			{
				"type": "occ",
				"energy": -0.25434,
				"method": "rhf"
			},
			{
				"type": "unocc",
				"energy": -0.10009,
				"method": "rhf"
			},
			{
				"type": "unocc",
				"energy": -0.03135,
				"method": "rhf"
			},
			{
				"type": "unocc",
				"energy": -0.00456,
				"method": "rhf"
			},
			{
				"type": "unocc",
				"energy": 0.02421,
				"method": "rhf"
			},
			{
				"type": "unocc",
				"energy": 0.07539,
				"method": "rhf"
			}
		],
		"cosmo_sigma_profile": { 
			"-0.025": 0.0,
			"-0.024": 0.0,
			"-0.023": 0.0,
			"-0.022": 0.0,
			"-0.021": 0.0,
			"-0.02": 0.0,
			"-0.019": 0.0,
			"-0.018": 0.0,
			"-0.017": 0.0,
			"-0.016": 0.0,
			"-0.015": 0.0,
			"-0.014": 0.0,
			"-0.013": 0.0,
			"-0.012": 0.0,
			"-0.011": 0.0,
			"-0.01": 0.00348085879692,
			"-0.009": 3.00113410531,
			"-0.008": 10.2207238376,
			"-0.007": 10.7763712326,
			"-0.006": 10.2028418072,
			"-0.005": 8.25561908132,
			"-0.004": 9.84945986834,
			"-0.003": 11.2738332584,
			"-0.002": 11.3523474787,
			"-0.001": 13.8192489927,
			"0.0": 13.9097761128,
			"0.001": 13.6745661126,
			"0.002": 10.1731229253,
			"0.003": 8.04391150747,
			"0.004": 12.0460671811,
			"0.005": 16.7468529408,
			"0.006": 14.9485655206,
			"0.007": 3.00225687192,
			"0.008": 2.60230125225,
			"0.009": 2.45451278005,
			"0.01": 2.43443625361,
			"0.011": 1.80726420082,
			"0.012": 0.519401034804,
			"0.013": 0.0,
			"0.014": 0.0,
			"0.015": 0.0,
			"0.016": 0.0,
			"0.017": 0.0,
			"0.018": 0.0,
			"0.019": 0.0,
			"0.02": 0.0,
			"0.021": 0.0,
			"0.022": 0.0,
			"0.023": 0.0,
			"0.024": 0.0,
			"0.025": 0.0
		}
	}
}
