{
	 "smiles": "CC(=O)C1=CC=C(NC(=O)C2=CC=C(C=C2)C#N)C=C1", 
	 "Tm": 502.15, 
	 "num_atms": 32, 
	 "gaussian": { 
		 "optdone": 1, 
		 "sigma_profile": "yes", 
		 "theory": "DFT", 
		 "functional": "B3LYP", 
		 "basiset": "6-31G**", 
		 "properties": { 
			 "R2extent": 8571.2769, 
			 "electric_dipole_moment_norm": 5.71662708422, 
			 "electric_quadrupole_moment_norm": 30.1659993017, 
			 "total_energy": -876.886580949, 
			 "HOMO_LUMO_gap": 0.16307, 
			 "cosmo_polarized_energy": -21.05, 
			 "cosmo_cavitation_energy": 38.64, 
			 "cosmo_dispersion_energy": -26.36, 
			 "cosmo_repulsion_energy": 2.02, 
			 "cosmo_total_nonelectrostatic_energy": 14.3, 
			 "SMD_solvation_energy": 9.23 
		},
		"coords": [
			{
				"x": -3.3683317136,
				"y": -3.7834326145,
				"z": 1.7015183665,
				"element": "C" 
			},
			{
				"x": -2.0948252967,
				"y": -3.355153839,
				"z": 0.9917661034,
				"element": "C" 
			},
			{
				"x": -1.4280939246,
				"y": -4.1657132558,
				"z": 0.3657275652,
				"element": "O" 
			},
			{
				"x": -1.6696929671,
				"y": -1.9214730637,
				"z": 1.0715032932,
				"element": "C" 
			},
			{
				"x": -2.3873137932,
				"y": -0.9446074333,
				"z": 1.7773271427,
				"element": "C" 
			},
			{
				"x": -1.9398027766,
				"y": 0.3716927884,
				"z": 1.823173225,
				"element": "C" 
			},
			{
				"x": -0.7668673371,
				"y": 0.746561902,
				"z": 1.149894425,
				"element": "C" 
			},
			{
				"x": -0.382487599,
				"y": 2.1045328886,
				"z": 1.1927476316,
				"element": "N" 
			},
			{
				"x": 0.847543733,
				"y": 2.7194071901,
				"z": 1.0100281775,
				"element": "C" 
			},
			{
				"x": 0.8930444911,
				"y": 3.8902545726,
				"z": 0.6553229289,
				"element": "O" 
			},
			{
				"x": 2.1069154434,
				"y": 1.9711324239,
				"z": 1.3397722488,
				"element": "C" 
			},
			{
				"x": 3.2662289463,
				"y": 2.324341074,
				"z": 0.6348323468,
				"element": "C" 
			},
			{
				"x": 4.4858152778,
				"y": 1.7329679455,
				"z": 0.9404920234,
				"element": "C" 
			},
			{
				"x": 4.5628261878,
				"y": 0.7949129162,
				"z": 1.9847419101,
				"element": "C" 
			},
			{
				"x": 3.4095765941,
				"y": 0.4595954856,
				"z": 2.7140028256,
				"element": "C" 
			},
			{
				"x": 2.1896796147,
				"y": 1.0423682026,
				"z": 2.387198081,
				"element": "C" 
			},
			{
				"x": 5.819657746,
				"y": 0.1860588648,
				"z": 2.3122133994,
				"element": "C" 
			},
			{
				"x": 6.8387493224,
				"y": -0.3079372433,
				"z": 2.5774074071,
				"element": "N" 
			},
			{
				"x": -0.0557535448,
				"y": -0.2207503825,
				"z": 0.4189984605,
				"element": "C" 
			},
			{
				"x": -0.5005565381,
				"y": -1.5352177786,
				"z": 0.3965092046,
				"element": "C" 
			},
			{
				"x": -4.236041724,
				"y": -3.2335082688,
				"z": 1.3204885769,
				"element": "H" 
			},
			{
				"x": -3.3044868456,
				"y": -3.5884544507,
				"z": 2.7778807918,
				"element": "H" 
			},
			{
				"x": -3.5165514956,
				"y": -4.8508126306,
				"z": 1.5364927877,
				"element": "H" 
			},
			{
				"x": -3.2979034389,
				"y": -1.2058724943,
				"z": 2.306466209,
				"element": "H" 
			},
			{
				"x": -2.491705777,
				"y": 1.1176331329,
				"z": 2.3882470043,
				"element": "H" 
			},
			{
				"x": -1.1355711278,
				"y": 2.7802167298,
				"z": 1.1302589027,
				"element": "H" 
			},
			{
				"x": 3.1937878254,
				"y": 3.0738505884,
				"z": -0.1455278985,
				"element": "H" 
			},
			{
				"x": 5.3810786229,
				"y": 1.9955647573,
				"z": 0.3873952629,
				"element": "H" 
			},
			{
				"x": 3.4783951242,
				"y": -0.251771429,
				"z": 3.5297998501,
				"element": "H" 
			},
			{
				"x": 1.3049974274,
				"y": 0.7832588053,
				"z": 2.9577908357,
				"element": "H" 
			},
			{
				"x": 0.8294920392,
				"y": 0.0620966266,
				"z": -0.1384436157,
				"element": "H" 
			},
			{
				"x": 0.0377975041,
				"y": -2.2923420104,
				"z": -0.1637254734,
				"element": "H" 
			}
		],
		 "valence_orbital": [ 
			{
				"type": "occ",
				"energy": -0.28627,
				"method": "rhf"
			},
			{
				"type": "occ",
				"energy": -0.27608,
				"method": "rhf"
			},
			{
				"type": "occ",
				"energy": -0.26924,
				"method": "rhf"
			},
			{
				"type": "occ",
				"energy": -0.2558,
				"method": "rhf"
			},
			{
				"type": "occ",
				"energy": -0.24598,
				"method": "rhf"
			},
			{
				"type": "unocc",
				"energy": -0.08291,
				"method": "rhf"
			},
			{
				"type": "unocc",
				"energy": -0.06259,
				"method": "rhf"
			},
			{
				"type": "unocc",
				"energy": -0.03849,
				"method": "rhf"
			},
			{
				"type": "unocc",
				"energy": -0.02321,
				"method": "rhf"
			},
			{
				"type": "unocc",
				"energy": 0.00231,
				"method": "rhf"
			}
		],
		"cosmo_sigma_profile": { 
			"-0.025": 0.0,
			"-0.024": 0.0,
			"-0.023": 0.0,
			"-0.022": 0.0,
			"-0.021": 0.0,
			"-0.02": 0.0,
			"-0.019": 0.0,
			"-0.018": 0.0,
			"-0.017": 0.0,
			"-0.016": 0.021444176962,
			"-0.015": 0.687274581477,
			"-0.014": 0.928388137472,
			"-0.013": 1.5560297842,
			"-0.012": 0.925043588859,
			"-0.011": 0.747310790077,
			"-0.01": 1.40034251311,
			"-0.009": 1.95631300574,
			"-0.008": 6.96528845729,
			"-0.007": 14.6054354456,
			"-0.006": 22.6255245502,
			"-0.005": 21.3692236003,
			"-0.004": 20.0349024082,
			"-0.003": 19.7041022615,
			"-0.002": 23.9170190411,
			"-0.001": 24.8430039996,
			"0.0": 23.7431696753,
			"0.001": 22.3762633184,
			"0.002": 17.5940528012,
			"0.003": 17.5353357852,
			"0.004": 6.61561478197,
			"0.005": 5.77143005662,
			"0.006": 5.72440890798,
			"0.007": 5.56170396247,
			"0.008": 6.25228941289,
			"0.009": 6.25092478821,
			"0.01": 6.84475925218,
			"0.011": 7.87899105628,
			"0.012": 11.1595229697,
			"0.013": 5.07933132695,
			"0.014": 0.272828701021,
			"0.015": 0.0,
			"0.016": 0.0,
			"0.017": 0.0,
			"0.018": 0.0,
			"0.019": 0.0,
			"0.02": 0.0,
			"0.021": 0.0,
			"0.022": 0.0,
			"0.023": 0.0,
			"0.024": 0.0,
			"0.025": 0.0
		}
	}
}
