{
	 "smiles": "CCNS(=O)(=O)C1=CC(C(O)=O)=C(Br)C=C1", 
	 "Tm": 472.15, 
	 "num_atms": 26, 
	 "gaussian": { 
		 "optdone": 1, 
		 "sigma_profile": "yes", 
		 "theory": "DFT", 
		 "functional": "B3LYP", 
		 "basiset": "6-31G**", 
		 "properties": { 
			 "R2extent": 6524.2319, 
			 "electric_dipole_moment_norm": 4.1741143372, 
			 "electric_quadrupole_moment_norm": 22.3942068846, 
			 "total_energy": -3674.1590608, 
			 "HOMO_LUMO_gap": 0.19422, 
			 "cosmo_polarized_energy": -19.27, 
			 "cosmo_cavitation_energy": 33.93, 
			 "cosmo_dispersion_energy": -25.1, 
			 "cosmo_repulsion_energy": 1.92, 
			 "cosmo_total_nonelectrostatic_energy": 10.75, 
			 "SMD_solvation_energy": 5.02 
		},
		"coords": [
			{
				"x": -1.8558947983,
				"y": 4.4139830372,
				"z": 2.456018879,
				"element": "C" 
			},
			{
				"x": -1.002982931,
				"y": 3.147174962,
				"z": 2.3856984574,
				"element": "C" 
			},
			{
				"x": -1.6933746997,
				"y": 1.974263857,
				"z": 1.8180661761,
				"element": "N" 
			},
			{
				"x": -1.8113710323,
				"y": 1.7940401233,
				"z": 0.1557029927,
				"element": "S" 
			},
			{
				"x": -1.5986164494,
				"y": 3.0706876897,
				"z": -0.5381403473,
				"element": "O" 
			},
			{
				"x": -3.0215908468,
				"y": 0.9979972601,
				"z": -0.0630961883,
				"element": "O" 
			},
			{
				"x": -0.3734417276,
				"y": 0.7794767886,
				"z": -0.2286385382,
				"element": "C" 
			},
			{
				"x": -0.1441483552,
				"y": -0.3986001985,
				"z": 0.4705916006,
				"element": "C" 
			},
			{
				"x": 0.930248175,
				"y": -1.2435819444,
				"z": 0.1488706157,
				"element": "C" 
			},
			{
				"x": 1.0219300253,
				"y": -2.4741950615,
				"z": 1.0406389631,
				"element": "C" 
			},
			{
				"x": 1.823717362,
				"y": -3.4911630987,
				"z": 0.6919811383,
				"element": "O" 
			},
			{
				"x": 0.3551672541,
				"y": -2.5468984679,
				"z": 2.0477324522,
				"element": "O" 
			},
			{
				"x": 1.7601937525,
				"y": -0.8393038995,
				"z": -0.9137022416,
				"element": "C" 
			},
			{
				"x": 3.2970065492,
				"y": -1.841255512,
				"z": -1.4975859687,
				"element": "Br" 
			},
			{
				"x": 1.534554686,
				"y": 0.3454294582,
				"z": -1.6155609722,
				"element": "C" 
			},
			{
				"x": 0.459987785,
				"y": 1.163126992,
				"z": -1.2778436141,
				"element": "C" 
			},
			{
				"x": -2.1620954239,
				"y": 4.728118325,
				"z": 1.4556557936,
				"element": "H" 
			},
			{
				"x": -1.2878105228,
				"y": 5.227339874,
				"z": 2.9196677876,
				"element": "H" 
			},
			{
				"x": -2.7542902122,
				"y": 4.2486482339,
				"z": 3.0614472754,
				"element": "H" 
			},
			{
				"x": -0.1064026578,
				"y": 3.3201065475,
				"z": 1.783683921,
				"element": "H" 
			},
			{
				"x": -0.6596753883,
				"y": 2.8519726286,
				"z": 3.3831981733,
				"element": "H" 
			},
			{
				"x": -2.6012011492,
				"y": 1.7641864802,
				"z": 2.2250654895,
				"element": "H" 
			},
			{
				"x": -0.7769741505,
				"y": -0.6927636356,
				"z": 1.2995667201,
				"element": "H" 
			},
			{
				"x": 2.3217919027,
				"y": -3.3036826008,
				"z": -0.1224680535,
				"element": "H" 
			},
			{
				"x": 2.2014596025,
				"y": 0.6255641048,
				"z": -2.4223646404,
				"element": "H" 
			},
			{
				"x": 0.2706132508,
				"y": 2.0878280567,
				"z": -1.8112858713,
				"element": "H" 
			}
		],
		 "valence_orbital": [ 
			{
				"type": "occ",
				"energy": -0.31042,
				"method": "rhf"
			},
			{
				"type": "occ",
				"energy": -0.29567,
				"method": "rhf"
			},
			{
				"type": "occ",
				"energy": -0.29153,
				"method": "rhf"
			},
			{
				"type": "occ",
				"energy": -0.285,
				"method": "rhf"
			},
			{
				"type": "occ",
				"energy": -0.27068,
				"method": "rhf"
			},
			{
				"type": "unocc",
				"energy": -0.07646,
				"method": "rhf"
			},
			{
				"type": "unocc",
				"energy": -0.05783,
				"method": "rhf"
			},
			{
				"type": "unocc",
				"energy": -0.03623,
				"method": "rhf"
			},
			{
				"type": "unocc",
				"energy": 0.02339,
				"method": "rhf"
			},
			{
				"type": "unocc",
				"energy": 0.05208,
				"method": "rhf"
			}
		],
		"cosmo_sigma_profile": { 
			"-0.025": 0.0,
			"-0.024": 0.0,
			"-0.023": 0.0,
			"-0.022": 0.0,
			"-0.021": 0.0,
			"-0.02": 0.0,
			"-0.019": 0.0,
			"-0.018": 0.0,
			"-0.017": 0.0,
			"-0.016": 0.0,
			"-0.015": 0.190456399581,
			"-0.014": 0.820893324539,
			"-0.013": 1.12064581038,
			"-0.012": 1.4465841558,
			"-0.011": 3.1930357113,
			"-0.01": 2.00799138665,
			"-0.009": 3.39461454096,
			"-0.008": 6.77953014856,
			"-0.007": 7.03030468032,
			"-0.006": 11.4635767487,
			"-0.005": 16.6002989483,
			"-0.004": 20.9610738019,
			"-0.003": 22.9636984589,
			"-0.002": 23.9572638465,
			"-0.001": 27.6415290362,
			"0.0": 25.8440216177,
			"0.001": 16.8464320705,
			"0.002": 10.9522313834,
			"0.003": 5.54256339423,
			"0.004": 4.8107600613,
			"0.005": 6.46958372353,
			"0.006": 4.49305446122,
			"0.007": 6.297295718,
			"0.008": 5.71394982488,
			"0.009": 7.34765924606,
			"0.01": 12.8832079016,
			"0.011": 12.5599031533,
			"0.012": 4.11099592693,
			"0.013": 0.447597252909,
			"0.014": 0.0,
			"0.015": 0.0,
			"0.016": 0.0,
			"0.017": 0.0,
			"0.018": 0.0,
			"0.019": 0.0,
			"0.02": 0.0,
			"0.021": 0.0,
			"0.022": 0.0,
			"0.023": 0.0,
			"0.024": 0.0,
			"0.025": 0.0
		}
	}
}
