{
	 "smiles": "CC1=NC(N)=CC=C1[N+]([O-])=O", 
	 "Tm": 460.15, 
	 "num_atms": 18, 
	 "gaussian": { 
		 "optdone": 1, 
		 "sigma_profile": "yes", 
		 "theory": "DFT", 
		 "functional": "B3LYP", 
		 "basiset": "6-31G**", 
		 "properties": { 
			 "R2extent": 2582.582, 
			 "electric_dipole_moment_norm": 6.17600372571, 
			 "electric_quadrupole_moment_norm": 14.940652306, 
			 "total_energy": -547.47326375, 
			 "HOMO_LUMO_gap": 0.16269, 
			 "cosmo_polarized_energy": -14.04, 
			 "cosmo_cavitation_energy": 22.58, 
			 "cosmo_dispersion_energy": -17.0, 
			 "cosmo_repulsion_energy": 1.37, 
			 "cosmo_total_nonelectrostatic_energy": 6.95, 
			 "SMD_solvation_energy": 4.89 
		},
		"coords": [
			{
				"x": 1.3147481035,
				"y": -1.4257478353,
				"z": 2.0204225888,
				"element": "C" 
			},
			{
				"x": 0.3727778769,
				"y": -0.2979460389,
				"z": 1.6904960169,
				"element": "C" 
			},
			{
				"x": -0.8880695569,
				"y": -0.6745482888,
				"z": 1.4415949931,
				"element": "N" 
			},
			{
				"x": -1.8238564294,
				"y": 0.2394788961,
				"z": 1.1326597969,
				"element": "C" 
			},
			{
				"x": -3.0673069004,
				"y": -0.2516708583,
				"z": 0.8628704395,
				"element": "N" 
			},
			{
				"x": -1.543329171,
				"y": 1.6237087817,
				"z": 1.0597974681,
				"element": "C" 
			},
			{
				"x": -0.2531994059,
				"y": 2.0256459088,
				"z": 1.3171561476,
				"element": "C" 
			},
			{
				"x": 0.7240798265,
				"y": 1.0696571959,
				"z": 1.6347800331,
				"element": "C" 
			},
			{
				"x": 2.0690409807,
				"y": 1.5597398131,
				"z": 1.8962038164,
				"element": "N" 
			},
			{
				"x": 2.9552368109,
				"y": 0.7457539757,
				"z": 2.172460178,
				"element": "O" 
			},
			{
				"x": 2.2580796018,
				"y": 2.7788530508,
				"z": 1.827273916,
				"element": "O" 
			},
			{
				"x": 1.7654177444,
				"y": -1.2924995813,
				"z": 3.0071619962,
				"element": "H" 
			},
			{
				"x": 0.7494908876,
				"y": -2.3580214082,
				"z": 1.9888365049,
				"element": "H" 
			},
			{
				"x": 2.1469167762,
				"y": -1.4673880026,
				"z": 1.3130634743,
				"element": "H" 
			},
			{
				"x": -3.2271381996,
				"y": -1.2246264681,
				"z": 1.0745506157,
				"element": "H" 
			},
			{
				"x": -3.8627370895,
				"y": 0.364410905,
				"z": 0.8343747319,
				"element": "H" 
			},
			{
				"x": -2.3178371198,
				"y": 2.3401609262,
				"z": 0.8060104827,
				"element": "H" 
			},
			{
				"x": 0.0370852641,
				"y": 3.0681390281,
				"z": 1.2815867998,
				"element": "H" 
			}
		],
		 "valence_orbital": [ 
			{
				"type": "occ",
				"energy": -0.29661,
				"method": "rhf"
			},
			{
				"type": "occ",
				"energy": -0.29434,
				"method": "rhf"
			},
			{
				"type": "occ",
				"energy": -0.27972,
				"method": "rhf"
			},
			{
				"type": "occ",
				"energy": -0.26987,
				"method": "rhf"
			},
			{
				"type": "occ",
				"energy": -0.23699,
				"method": "rhf"
			},
			{
				"type": "unocc",
				"energy": -0.0743,
				"method": "rhf"
			},
			{
				"type": "unocc",
				"energy": -0.03133,
				"method": "rhf"
			},
			{
				"type": "unocc",
				"energy": 0.01226,
				"method": "rhf"
			},
			{
				"type": "unocc",
				"energy": 0.0649,
				"method": "rhf"
			},
			{
				"type": "unocc",
				"energy": 0.09836,
				"method": "rhf"
			}
		],
		"cosmo_sigma_profile": { 
			"-0.025": 0.0,
			"-0.024": 0.0,
			"-0.023": 0.0,
			"-0.022": 0.0,
			"-0.021": 0.0,
			"-0.02": 0.0,
			"-0.019": 0.0,
			"-0.018": 0.0,
			"-0.017": 0.0,
			"-0.016": 0.0,
			"-0.015": 0.796817211362,
			"-0.014": 1.99024466474,
			"-0.013": 2.93103781428,
			"-0.012": 3.08227620707,
			"-0.011": 2.02692931352,
			"-0.01": 2.20361191123,
			"-0.009": 2.5051672917,
			"-0.008": 4.1614656143,
			"-0.007": 3.86991644491,
			"-0.006": 3.91000712541,
			"-0.005": 6.22245887937,
			"-0.004": 10.9105277456,
			"-0.003": 11.3118403628,
			"-0.002": 13.1102961804,
			"-0.001": 16.3628329207,
			"0.0": 18.6469858699,
			"0.001": 12.9400846138,
			"0.002": 8.99350625196,
			"0.003": 5.86915775952,
			"0.004": 5.97619871308,
			"0.005": 4.34198913611,
			"0.006": 5.29683325395,
			"0.007": 5.4460990981,
			"0.008": 8.0559353371,
			"0.009": 7.50787690009,
			"0.01": 5.7625730798,
			"0.011": 4.0178719546,
			"0.012": 1.2424753229,
			"0.013": 0.239791661691,
			"0.014": 0.0,
			"0.015": 0.0,
			"0.016": 0.0,
			"0.017": 0.0,
			"0.018": 0.0,
			"0.019": 0.0,
			"0.02": 0.0,
			"0.021": 0.0,
			"0.022": 0.0,
			"0.023": 0.0,
			"0.024": 0.0,
			"0.025": 0.0
		}
	}
}
