{
	 "smiles": "CC12CCC(=O)N1C(CO2)C1=CC=CC=C1", 
	 "Tm": 398.15, 
	 "num_atms": 31, 
	 "gaussian": { 
		 "optdone": 1, 
		 "sigma_profile": "yes", 
		 "theory": "DFT", 
		 "functional": "B3LYP", 
		 "basiset": "6-31G**", 
		 "properties": { 
			 "R2extent": 4163.7327, 
			 "electric_dipole_moment_norm": 1.97116524675, 
			 "electric_quadrupole_moment_norm": 11.9830201535, 
			 "total_energy": -709.62831585, 
			 "HOMO_LUMO_gap": 0.22604, 
			 "cosmo_polarized_energy": -13.85, 
			 "cosmo_cavitation_energy": 32.49, 
			 "cosmo_dispersion_energy": -23.08, 
			 "cosmo_repulsion_energy": 1.79, 
			 "cosmo_total_nonelectrostatic_energy": 11.2, 
			 "SMD_solvation_energy": 5.02 
		},
		"coords": [
			{
				"x": -0.0340479148,
				"y": -1.3098000728,
				"z": 2.1880019833,
				"element": "C" 
			},
			{
				"x": 0.3695372801,
				"y": -1.2193884497,
				"z": 0.7149936389,
				"element": "C" 
			},
			{
				"x": -0.5073110447,
				"y": -2.0978077448,
				"z": -0.2053773584,
				"element": "C" 
			},
			{
				"x": -1.5923105872,
				"y": -1.1222313506,
				"z": -0.6912405908,
				"element": "C" 
			},
			{
				"x": -0.8933883957,
				"y": 0.2466121081,
				"z": -0.6874153167,
				"element": "C" 
			},
			{
				"x": -1.2431085151,
				"y": 1.240567173,
				"z": -1.2953482528,
				"element": "O" 
			},
			{
				"x": 0.1960051432,
				"y": 0.1254779226,
				"z": 0.1547590023,
				"element": "N" 
			},
			{
				"x": 1.4820908486,
				"y": 0.8334732329,
				"z": 0.1900735989,
				"element": "C" 
			},
			{
				"x": 2.4294276845,
				"y": -0.3799919324,
				"z": 0.0090750455,
				"element": "C" 
			},
			{
				"x": 1.7757635385,
				"y": -1.4805921621,
				"z": 0.6377821782,
				"element": "O" 
			},
			{
				"x": 1.7092315899,
				"y": 1.9464357904,
				"z": -0.8100306886,
				"element": "C" 
			},
			{
				"x": 2.0667495867,
				"y": 3.2160695949,
				"z": -0.3437249876,
				"element": "C" 
			},
			{
				"x": 2.3591836726,
				"y": 4.2507607849,
				"z": -1.2342568511,
				"element": "C" 
			},
			{
				"x": 2.2961803834,
				"y": 4.0249375482,
				"z": -2.6085149887,
				"element": "C" 
			},
			{
				"x": 1.9389065619,
				"y": 2.7609974602,
				"z": -3.0851668929,
				"element": "C" 
			},
			{
				"x": 1.6506574989,
				"y": 1.7301675733,
				"z": -2.1940881559,
				"element": "C" 
			},
			{
				"x": 0.2380216824,
				"y": -2.2931847277,
				"z": 2.5825416408,
				"element": "H" 
			},
			{
				"x": -1.1131434275,
				"y": -1.1702609548,
				"z": 2.30781271,
				"element": "H" 
			},
			{
				"x": 0.4843215543,
				"y": -0.5474840428,
				"z": 2.7756495253,
				"element": "H" 
			},
			{
				"x": 0.1114581535,
				"y": -2.4357496281,
				"z": -1.0424415371,
				"element": "H" 
			},
			{
				"x": -0.8981479717,
				"y": -2.9804336453,
				"z": 0.3072492475,
				"element": "H" 
			},
			{
				"x": -2.4524039576,
				"y": -1.0878837756,
				"z": -0.0118508576,
				"element": "H" 
			},
			{
				"x": -1.9773810336,
				"y": -1.3298574767,
				"z": -1.6918235556,
				"element": "H" 
			},
			{
				"x": 1.6225164685,
				"y": 1.243894096,
				"z": 1.1983259508,
				"element": "H" 
			},
			{
				"x": 2.5867903013,
				"y": -0.5758973201,
				"z": -1.0605134547,
				"element": "H" 
			},
			{
				"x": 3.4033154919,
				"y": -0.2325123884,
				"z": 0.484920005,
				"element": "H" 
			},
			{
				"x": 2.1152414667,
				"y": 3.3975470031,
				"z": 0.7271172921,
				"element": "H" 
			},
			{
				"x": 2.6335292421,
				"y": 5.2299003264,
				"z": -0.8523982421,
				"element": "H" 
			},
			{
				"x": 2.5205825053,
				"y": 4.8272442938,
				"z": -3.3054762525,
				"element": "H" 
			},
			{
				"x": 1.87986353,
				"y": 2.5793371127,
				"z": -4.1543616128,
				"element": "H" 
			},
			{
				"x": 1.3604686637,
				"y": 0.7582536513,
				"z": -2.5806722228,
				"element": "H" 
			}
		],
		 "valence_orbital": [ 
			{
				"type": "occ",
				"energy": -0.26422,
				"method": "rhf"
			},
			{
				"type": "occ",
				"energy": -0.2538,
				"method": "rhf"
			},
			{
				"type": "occ",
				"energy": -0.24876,
				"method": "rhf"
			},
			{
				"type": "occ",
				"energy": -0.2447,
				"method": "rhf"
			},
			{
				"type": "occ",
				"energy": -0.23334,
				"method": "rhf"
			},
			{
				"type": "unocc",
				"energy": -0.0073,
				"method": "rhf"
			},
			{
				"type": "unocc",
				"energy": -6e-05,
				"method": "rhf"
			},
			{
				"type": "unocc",
				"energy": 0.02518,
				"method": "rhf"
			},
			{
				"type": "unocc",
				"energy": 0.07329,
				"method": "rhf"
			},
			{
				"type": "unocc",
				"energy": 0.08959,
				"method": "rhf"
			}
		],
		"cosmo_sigma_profile": { 
			"-0.025": 0.0,
			"-0.024": 0.0,
			"-0.023": 0.0,
			"-0.022": 0.0,
			"-0.021": 0.0,
			"-0.02": 0.0,
			"-0.019": 0.0,
			"-0.018": 0.0,
			"-0.017": 0.0,
			"-0.016": 0.0,
			"-0.015": 0.0,
			"-0.014": 0.0,
			"-0.013": 0.0,
			"-0.012": 0.0,
			"-0.011": 0.0,
			"-0.01": 0.0,
			"-0.009": 0.0,
			"-0.008": 4.60146176282e-05,
			"-0.007": 1.26139988892,
			"-0.006": 15.3394744515,
			"-0.005": 28.4015496052,
			"-0.004": 33.4787495767,
			"-0.003": 28.2784963688,
			"-0.002": 22.7615465326,
			"-0.001": 20.5488975956,
			"0.0": 16.8279666781,
			"0.001": 12.3594067373,
			"0.002": 9.90143703925,
			"0.003": 9.35113124115,
			"0.004": 9.86214014863,
			"0.005": 10.1595154255,
			"0.006": 6.6769240368,
			"0.007": 3.40267413686,
			"0.008": 2.85435737844,
			"0.009": 3.19512455254,
			"0.01": 3.67151077735,
			"0.011": 2.57086699713,
			"0.012": 3.78665623826,
			"0.013": 5.40634876072,
			"0.014": 4.91143675646,
			"0.015": 0.851930589505,
			"0.016": 0.0,
			"0.017": 0.0,
			"0.018": 0.0,
			"0.019": 0.0,
			"0.02": 0.0,
			"0.021": 0.0,
			"0.022": 0.0,
			"0.023": 0.0,
			"0.024": 0.0,
			"0.025": 0.0
		}
	}
}
