{
	 "smiles": "OC[C@H]1OC(O)C[C@@H](O)[C@@H]1O", 
	 "Tm": 422.65, 
	 "num_atms": 23, 
	 "gaussian": { 
		 "optdone": 1, 
		 "sigma_profile": "yes", 
		 "theory": "DFT", 
		 "functional": "B3LYP", 
		 "basiset": "6-31G**", 
		 "properties": { 
			 "R2extent": 2430.1242, 
			 "electric_dipole_moment_norm": 3.51036699791, 
			 "electric_quadrupole_moment_norm": 12.2783099444, 
			 "total_energy": -611.95255132, 
			 "HOMO_LUMO_gap": 0.31189, 
			 "cosmo_polarized_energy": -17.06, 
			 "cosmo_cavitation_energy": 24.48, 
			 "cosmo_dispersion_energy": -18.3, 
			 "cosmo_repulsion_energy": 1.48, 
			 "cosmo_total_nonelectrostatic_energy": 7.66, 
			 "SMD_solvation_energy": 3.74 
		},
		"coords": [
			{
				"x": -1.9020937056,
				"y": 2.7850254169,
				"z": 2.841967686,
				"element": "O" 
			},
			{
				"x": -0.9499738445,
				"y": 1.7650588016,
				"z": 2.6010632173,
				"element": "C" 
			},
			{
				"x": -1.5611133074,
				"y": 0.616517813,
				"z": 1.8016050698,
				"element": "C" 
			},
			{
				"x": -2.1553142992,
				"y": 1.1613847852,
				"z": 0.5929619193,
				"element": "O" 
			},
			{
				"x": -1.4714149293,
				"y": 0.9394071465,
				"z": -0.6261552631,
				"element": "C" 
			},
			{
				"x": -0.1973205546,
				"y": 1.5557628357,
				"z": -0.6511321028,
				"element": "O" 
			},
			{
				"x": -1.2528900424,
				"y": -0.556017991,
				"z": -0.9203866831,
				"element": "C" 
			},
			{
				"x": -1.1350100718,
				"y": -1.3824989517,
				"z": 0.3705540106,
				"element": "C" 
			},
			{
				"x": -0.3508256168,
				"y": -2.5670048473,
				"z": 0.2150128191,
				"element": "O" 
			},
			{
				"x": -0.5872993689,
				"y": -0.5308106125,
				"z": 1.5166397784,
				"element": "C" 
			},
			{
				"x": -0.4651308399,
				"y": -1.2986759919,
				"z": 2.7003482737,
				"element": "O" 
			},
			{
				"x": -2.3556806555,
				"y": 2.9228825461,
				"z": 1.9976264742,
				"element": "H" 
			},
			{
				"x": -0.0697769059,
				"y": 2.1489049788,
				"z": 2.0593957869,
				"element": "H" 
			},
			{
				"x": -0.6119082687,
				"y": 1.390744774,
				"z": 3.5722177458,
				"element": "H" 
			},
			{
				"x": -2.4008277191,
				"y": 0.2008696165,
				"z": 2.3698087482,
				"element": "H" 
			},
			{
				"x": -2.1311735813,
				"y": 1.3936411776,
				"z": -1.3764226037,
				"element": "H" 
			},
			{
				"x": -0.3260606273,
				"y": 2.5004475518,
				"z": -0.4867682917,
				"element": "H" 
			},
			{
				"x": -0.3334129063,
				"y": -0.6433305701,
				"z": -1.5094937348,
				"element": "H" 
			},
			{
				"x": -2.0702656327,
				"y": -0.9400252903,
				"z": -1.5364651648,
				"element": "H" 
			},
			{
				"x": -2.121244569,
				"y": -1.7490510271,
				"z": 0.6756484009,
				"element": "H" 
			},
			{
				"x": 0.5009900887,
				"y": -2.3076917287,
				"z": -0.1652473605,
				"element": "H" 
			},
			{
				"x": 0.3921756891,
				"y": -0.123502145,
				"z": 1.2131150219,
				"element": "H" 
			},
			{
				"x": -0.1483283316,
				"y": -2.1683382881,
				"z": 2.4104062522,
				"element": "H" 
			}
		],
		 "valence_orbital": [ 
			{
				"type": "occ",
				"energy": -0.31174,
				"method": "rhf"
			},
			{
				"type": "occ",
				"energy": -0.28908,
				"method": "rhf"
			},
			{
				"type": "occ",
				"energy": -0.28438,
				"method": "rhf"
			},
			{
				"type": "occ",
				"energy": -0.26551,
				"method": "rhf"
			},
			{
				"type": "occ",
				"energy": -0.2543,
				"method": "rhf"
			},
			{
				"type": "unocc",
				"energy": 0.05759,
				"method": "rhf"
			},
			{
				"type": "unocc",
				"energy": 0.06117,
				"method": "rhf"
			},
			{
				"type": "unocc",
				"energy": 0.0823,
				"method": "rhf"
			},
			{
				"type": "unocc",
				"energy": 0.09487,
				"method": "rhf"
			},
			{
				"type": "unocc",
				"energy": 0.11263,
				"method": "rhf"
			}
		],
		"cosmo_sigma_profile": { 
			"-0.025": 0.0,
			"-0.024": 0.0,
			"-0.023": 0.0,
			"-0.022": 0.0,
			"-0.021": 0.0,
			"-0.02": 0.0,
			"-0.019": 0.0,
			"-0.018": 0.0,
			"-0.017": 0.0,
			"-0.016": 0.938285571787,
			"-0.015": 2.17331322738,
			"-0.014": 1.61567474703,
			"-0.013": 1.70419227254,
			"-0.012": 3.51573814324,
			"-0.011": 2.7165424113,
			"-0.01": 3.25737198845,
			"-0.009": 3.55650764598,
			"-0.008": 3.48063805406,
			"-0.007": 4.95937340576,
			"-0.006": 7.34713667238,
			"-0.005": 12.7021676312,
			"-0.004": 15.2746832256,
			"-0.003": 14.3502813367,
			"-0.002": 14.4451599631,
			"-0.001": 11.678160329,
			"0.0": 7.08655385278,
			"0.001": 8.18757009296,
			"0.002": 6.49703329233,
			"0.003": 6.97234084196,
			"0.004": 5.92501499849,
			"0.005": 4.28679626375,
			"0.006": 5.61086942102,
			"0.007": 4.86351613574,
			"0.008": 4.04891770992,
			"0.009": 6.04887026777,
			"0.01": 4.73309848853,
			"0.011": 4.97487066723,
			"0.012": 6.06081031397,
			"0.013": 5.42914318196,
			"0.014": 3.16239681544,
			"0.015": 0.659105214555,
			"0.016": 0.0,
			"0.017": 0.0,
			"0.018": 0.0,
			"0.019": 0.0,
			"0.02": 0.0,
			"0.021": 0.0,
			"0.022": 0.0,
			"0.023": 0.0,
			"0.024": 0.0,
			"0.025": 0.0
		}
	}
}
