{
	 "smiles": "COC1=C(OC)C=C(CC2=NC3=C(C4=C(CCC4)S3)C(=O)N2)C=C1", 
	 "Tm": 511.15, 
	 "num_atms": 42, 
	 "gaussian": { 
		 "optdone": 1, 
		 "sigma_profile": "yes", 
		 "theory": "DFT", 
		 "functional": "B3LYP", 
		 "basiset": "6-31G**", 
		 "properties": { 
			 "R2extent": 12205.8675, 
			 "electric_dipole_moment_norm": 3.10342966088, 
			 "electric_quadrupole_moment_norm": 23.6300655407, 
			 "total_energy": -1430.12586875, 
			 "HOMO_LUMO_gap": 0.16625, 
			 "cosmo_polarized_energy": -17.08, 
			 "cosmo_cavitation_energy": 46.99, 
			 "cosmo_dispersion_energy": -33.58, 
			 "cosmo_repulsion_energy": 2.55, 
			 "cosmo_total_nonelectrostatic_energy": 15.96, 
			 "SMD_solvation_energy": 6.92 
		},
		"coords": [
			{
				"x": -3.1222126664,
				"y": 2.8401174342,
				"z": 4.8416753958,
				"element": "C" 
			},
			{
				"x": -3.2179519383,
				"y": 2.7388435292,
				"z": 3.4179875808,
				"element": "O" 
			},
			{
				"x": -2.0612344371,
				"y": 2.4258066047,
				"z": 2.7522605921,
				"element": "C" 
			},
			{
				"x": -1.4498832061,
				"y": 1.1529497983,
				"z": 2.8761097135,
				"element": "C" 
			},
			{
				"x": -2.0556656313,
				"y": 0.2800788565,
				"z": 3.7302041741,
				"element": "O" 
			},
			{
				"x": -1.517473405,
				"y": -1.0293913707,
				"z": 3.8488961503,
				"element": "C" 
			},
			{
				"x": -0.3040050076,
				"y": 0.8668128613,
				"z": 2.1332533743,
				"element": "C" 
			},
			{
				"x": 0.2442060297,
				"y": 1.8169846527,
				"z": 1.2542978886,
				"element": "C" 
			},
			{
				"x": 1.477356998,
				"y": 1.4656290386,
				"z": 0.4430751879,
				"element": "C" 
			},
			{
				"x": 1.2298201157,
				"y": 0.458803817,
				"z": -0.6607387,
				"element": "C" 
			},
			{
				"x": 2.0607054432,
				"y": -0.5339626926,
				"z": -0.8354387691,
				"element": "N" 
			},
			{
				"x": 1.7713301662,
				"y": -1.3501259945,
				"z": -1.8870809462,
				"element": "C" 
			},
			{
				"x": 0.6921855123,
				"y": -1.2307693164,
				"z": -2.7650602959,
				"element": "C" 
			},
			{
				"x": 0.6736817118,
				"y": -2.2685626314,
				"z": -3.7449783236,
				"element": "C" 
			},
			{
				"x": 1.7114892889,
				"y": -3.1423984193,
				"z": -3.6071878585,
				"element": "C" 
			},
			{
				"x": 1.7447927637,
				"y": -4.2059250214,
				"z": -4.6687292295,
				"element": "C" 
			},
			{
				"x": 0.324876541,
				"y": -4.0476255735,
				"z": -5.3006473705,
				"element": "C" 
			},
			{
				"x": -0.1794420172,
				"y": -2.6173302313,
				"z": -4.9364435393,
				"element": "C" 
			},
			{
				"x": 2.7719995908,
				"y": -2.7441746621,
				"z": -2.2780845338,
				"element": "S" 
			},
			{
				"x": -0.239866473,
				"y": -0.1388004032,
				"z": -2.5673007899,
				"element": "C" 
			},
			{
				"x": -1.2444077068,
				"y": 0.1234462084,
				"z": -3.2158061099,
				"element": "O" 
			},
			{
				"x": 0.139611084,
				"y": 0.6646356289,
				"z": -1.4647967359,
				"element": "N" 
			},
			{
				"x": -0.3743416839,
				"y": 3.060488532,
				"z": 1.125943064,
				"element": "C" 
			},
			{
				"x": -1.5162413296,
				"y": 3.3585128514,
				"z": 1.8783570371,
				"element": "C" 
			},
			{
				"x": -2.8521993291,
				"y": 1.8831051909,
				"z": 5.2965403088,
				"element": "H" 
			},
			{
				"x": -2.388567671,
				"y": 3.6041904751,
				"z": 5.1300240376,
				"element": "H" 
			},
			{
				"x": -4.1115836111,
				"y": 3.1439126951,
				"z": 5.1893414139,
				"element": "H" 
			},
			{
				"x": -0.4935605398,
				"y": -1.012498821,
				"z": 4.2433829839,
				"element": "H" 
			},
			{
				"x": -2.1648788929,
				"y": -1.5564369612,
				"z": 4.5509408704,
				"element": "H" 
			},
			{
				"x": -1.5237712747,
				"y": -1.5545804862,
				"z": 2.8859086125,
				"element": "H" 
			},
			{
				"x": 0.1729178586,
				"y": -0.1033001417,
				"z": 2.218937019,
				"element": "H" 
			},
			{
				"x": 1.8860055064,
				"y": 2.3783506257,
				"z": -0.0098038296,
				"element": "H" 
			},
			{
				"x": 2.2651468163,
				"y": 1.0421296007,
				"z": 1.0712459669,
				"element": "H" 
			},
			{
				"x": 2.5410726901,
				"y": -4.0098005465,
				"z": -5.4003355022,
				"element": "H" 
			},
			{
				"x": 1.9138179322,
				"y": -5.2158758835,
				"z": -4.2792404092,
				"element": "H" 
			},
			{
				"x": -0.3449465832,
				"y": -4.7884490902,
				"z": -4.8525628013,
				"element": "H" 
			},
			{
				"x": 0.3331728938,
				"y": -4.2270671012,
				"z": -6.3791678191,
				"element": "H" 
			},
			{
				"x": -1.2510873579,
				"y": -2.5894592361,
				"z": -4.7191925777,
				"element": "H" 
			},
			{
				"x": -0.0099467492,
				"y": -1.9039542323,
				"z": -5.7536661045,
				"element": "H" 
			},
			{
				"x": -0.4990924811,
				"y": 1.4216461715,
				"z": -1.2438624982,
				"element": "H" 
			},
			{
				"x": 0.0413202666,
				"y": 3.8101355007,
				"z": 0.4578127843,
				"element": "H" 
			},
			{
				"x": -2.008749217,
				"y": 4.3219087436,
				"z": 1.7944305882,
				"element": "H" 
			}
		],
		 "valence_orbital": [ 
			{
				"type": "occ",
				"energy": -0.25503,
				"method": "rhf"
			},
			{
				"type": "occ",
				"energy": -0.24934,
				"method": "rhf"
			},
			{
				"type": "occ",
				"energy": -0.24739,
				"method": "rhf"
			},
			{
				"type": "occ",
				"energy": -0.22308,
				"method": "rhf"
			},
			{
				"type": "occ",
				"energy": -0.20523,
				"method": "rhf"
			},
			{
				"type": "unocc",
				"energy": -0.03898,
				"method": "rhf"
			},
			{
				"type": "unocc",
				"energy": -0.01159,
				"method": "rhf"
			},
			{
				"type": "unocc",
				"energy": -0.00441,
				"method": "rhf"
			},
			{
				"type": "unocc",
				"energy": 0.0058,
				"method": "rhf"
			},
			{
				"type": "unocc",
				"energy": 0.02735,
				"method": "rhf"
			}
		],
		"cosmo_sigma_profile": { 
			"-0.025": 0.0,
			"-0.024": 0.0,
			"-0.023": 0.0,
			"-0.022": 0.0,
			"-0.021": 0.0,
			"-0.02": 0.0,
			"-0.019": 0.0,
			"-0.018": 0.0,
			"-0.017": 0.0,
			"-0.016": 0.0,
			"-0.015": 0.0,
			"-0.014": 0.0,
			"-0.013": 0.0414519344266,
			"-0.012": 0.735601154262,
			"-0.011": 0.829554416945,
			"-0.01": 1.97490414121,
			"-0.009": 1.59589096939,
			"-0.008": 1.22415331071,
			"-0.007": 5.4773410727,
			"-0.006": 15.184100125,
			"-0.005": 23.3727242442,
			"-0.004": 33.1137695947,
			"-0.003": 43.9269645812,
			"-0.002": 41.3601758028,
			"-0.001": 31.863146198,
			"0.0": 27.7393668124,
			"0.001": 24.8792052701,
			"0.002": 26.968116178,
			"0.003": 26.2622847208,
			"0.004": 17.1848095272,
			"0.005": 9.43460293343,
			"0.006": 5.02042456773,
			"0.007": 5.18773159239,
			"0.008": 4.59276084043,
			"0.009": 4.30585187097,
			"0.01": 5.42719975361,
			"0.011": 4.5602690361,
			"0.012": 4.5112337486,
			"0.013": 6.64839200044,
			"0.014": 1.89644437317,
			"0.015": 0.0,
			"0.016": 0.0,
			"0.017": 0.0,
			"0.018": 0.0,
			"0.019": 0.0,
			"0.02": 0.0,
			"0.021": 0.0,
			"0.022": 0.0,
			"0.023": 0.0,
			"0.024": 0.0,
			"0.025": 0.0
		}
	}
}
