{
	 "smiles": "CCN1C(C)=NC2=C1C=CC(=C2)S(=O)(=O)C(F)F", 
	 "Tm": 435.15, 
	 "num_atms": 30, 
	 "gaussian": { 
		 "optdone": 1, 
		 "sigma_profile": "yes", 
		 "theory": "DFT", 
		 "functional": "B3LYP", 
		 "basiset": "6-31G**", 
		 "properties": { 
			 "R2extent": 8657.3991, 
			 "electric_dipole_moment_norm": 8.04708615338, 
			 "electric_quadrupole_moment_norm": 22.3181179473, 
			 "total_energy": -1284.16083301, 
			 "HOMO_LUMO_gap": 0.20199, 
			 "cosmo_polarized_energy": -19.38, 
			 "cosmo_cavitation_energy": 36.13, 
			 "cosmo_dispersion_energy": -25.54, 
			 "cosmo_repulsion_energy": 1.89, 
			 "cosmo_total_nonelectrostatic_energy": 12.49, 
			 "SMD_solvation_energy": 4.17 
		},
		"coords": [
			{
				"x": 1.5772276108,
				"y": 1.752890352,
				"z": 1.4177667058,
				"element": "C" 
			},
			{
				"x": 1.6624753746,
				"y": 1.7040505596,
				"z": -0.1105994286,
				"element": "C" 
			},
			{
				"x": 0.6961055603,
				"y": 0.7883643977,
				"z": -0.7108152624,
				"element": "N" 
			},
			{
				"x": -0.5659909879,
				"y": 1.0936438185,
				"z": -1.2110049053,
				"element": "C" 
			},
			{
				"x": -1.0961025318,
				"y": 2.4893943466,
				"z": -1.2591147229,
				"element": "C" 
			},
			{
				"x": -1.2203311,
				"y": 0.0399858198,
				"z": -1.6386217597,
				"element": "N" 
			},
			{
				"x": -0.3704563882,
				"y": -1.0295272103,
				"z": -1.4141985425,
				"element": "C" 
			},
			{
				"x": 0.8404253426,
				"y": -0.5806704648,
				"z": -0.8265157118,
				"element": "C" 
			},
			{
				"x": 1.8883541075,
				"y": -1.4471773511,
				"z": -0.4983739639,
				"element": "C" 
			},
			{
				"x": 1.7016473118,
				"y": -2.7971422854,
				"z": -0.7707729053,
				"element": "C" 
			},
			{
				"x": 0.4979859982,
				"y": -3.2414263928,
				"z": -1.3558120619,
				"element": "C" 
			},
			{
				"x": -0.5528915044,
				"y": -2.3860352468,
				"z": -1.6869838021,
				"element": "C" 
			},
			{
				"x": 0.301697306,
				"y": -4.9856203222,
				"z": -1.6626157378,
				"element": "S" 
			},
			{
				"x": 1.6238677403,
				"y": -5.6227112343,
				"z": -1.7476534824,
				"element": "O" 
			},
			{
				"x": -0.7269025838,
				"y": -5.1960584036,
				"z": -2.6903819369,
				"element": "O" 
			},
			{
				"x": -0.4462260062,
				"y": -5.6180999305,
				"z": -0.0806078769,
				"element": "C" 
			},
			{
				"x": 0.3983588139,
				"y": -5.3493297778,
				"z": 0.9388643954,
				"element": "F" 
			},
			{
				"x": -1.6171760983,
				"y": -4.9825633097,
				"z": 0.13465237,
				"element": "F" 
			},
			{
				"x": 0.5931774111,
				"y": 2.1005063916,
				"z": 1.7458671697,
				"element": "H" 
			},
			{
				"x": 2.3327410732,
				"y": 2.4380475531,
				"z": 1.8146793199,
				"element": "H" 
			},
			{
				"x": 1.7489392359,
				"y": 0.7641554296,
				"z": 1.8524061873,
				"element": "H" 
			},
			{
				"x": 1.4936128521,
				"y": 2.6960157023,
				"z": -0.5373674377,
				"element": "H" 
			},
			{
				"x": 2.6614748437,
				"y": 1.3901541924,
				"z": -0.4307372108,
				"element": "H" 
			},
			{
				"x": -1.1433386078,
				"y": 2.9453140041,
				"z": -0.2638187735,
				"element": "H" 
			},
			{
				"x": -2.1028586988,
				"y": 2.4556974011,
				"z": -1.6758548881,
				"element": "H" 
			},
			{
				"x": -0.4791159981,
				"y": 3.1369970272,
				"z": -1.8929007225,
				"element": "H" 
			},
			{
				"x": 2.8138812681,
				"y": -1.094622362,
				"z": -0.0546817882,
				"element": "H" 
			},
			{
				"x": 2.4816065767,
				"y": -3.5182203609,
				"z": -0.5557924868,
				"element": "H" 
			},
			{
				"x": -1.4599089905,
				"y": -2.7565805734,
				"z": -2.1500296245,
				"element": "H" 
			},
			{
				"x": -0.6017789311,
				"y": -6.6979317703,
				"z": -0.1820811157,
				"element": "H" 
			}
		],
		 "valence_orbital": [ 
			{
				"type": "occ",
				"energy": -0.30131,
				"method": "rhf"
			},
			{
				"type": "occ",
				"energy": -0.28457,
				"method": "rhf"
			},
			{
				"type": "occ",
				"energy": -0.28134,
				"method": "rhf"
			},
			{
				"type": "occ",
				"energy": -0.24887,
				"method": "rhf"
			},
			{
				"type": "occ",
				"energy": -0.24025,
				"method": "rhf"
			},
			{
				"type": "unocc",
				"energy": -0.03826,
				"method": "rhf"
			},
			{
				"type": "unocc",
				"energy": -0.02259,
				"method": "rhf"
			},
			{
				"type": "unocc",
				"energy": 0.03484,
				"method": "rhf"
			},
			{
				"type": "unocc",
				"energy": 0.05739,
				"method": "rhf"
			},
			{
				"type": "unocc",
				"energy": 0.06635,
				"method": "rhf"
			}
		],
		"cosmo_sigma_profile": { 
			"-0.025": 0.0,
			"-0.024": 0.0,
			"-0.023": 0.0,
			"-0.022": 0.0,
			"-0.021": 0.0,
			"-0.02": 0.0,
			"-0.019": 0.0,
			"-0.018": 0.0,
			"-0.017": 0.0,
			"-0.016": 0.0,
			"-0.015": 0.0,
			"-0.014": 0.0,
			"-0.013": 1.00841693331,
			"-0.012": 3.00174434852,
			"-0.011": 2.17232389807,
			"-0.01": 1.07690359405,
			"-0.009": 1.04969758191,
			"-0.008": 3.65356144692,
			"-0.007": 9.97024514104,
			"-0.006": 16.4420392044,
			"-0.005": 20.0983543772,
			"-0.004": 22.3922659239,
			"-0.003": 20.5216662945,
			"-0.002": 20.0233384818,
			"-0.001": 22.8954466517,
			"0.0": 20.3812227574,
			"0.001": 19.7670884635,
			"0.002": 31.7778184513,
			"0.003": 18.114018754,
			"0.004": 5.85447205086,
			"0.005": 4.106132199,
			"0.006": 3.82808184905,
			"0.007": 5.2240984479,
			"0.008": 4.33519891082,
			"0.009": 5.14320649542,
			"0.01": 11.1881813717,
			"0.011": 8.33036463162,
			"0.012": 1.33179551698,
			"0.013": 0.585249169831,
			"0.014": 1.26211271338,
			"0.015": 0.731727532244,
			"0.016": 1.12769229677,
			"0.017": 0.415606242975,
			"0.018": 0.00373265003119,
			"0.019": 0.0,
			"0.02": 0.0,
			"0.021": 0.0,
			"0.022": 0.0,
			"0.023": 0.0,
			"0.024": 0.0,
			"0.025": 0.0
		}
	}
}
