{
	 "smiles": "CC1=CC=NC(NS(=O)(=O)C2=CC=C(N)C=C2)=N1", 
	 "Tm": 507.15, 
	 "num_atms": 30, 
	 "gaussian": { 
		 "optdone": 1, 
		 "sigma_profile": "yes", 
		 "theory": "DFT", 
		 "functional": "B3LYP", 
		 "basiset": "6-31G**", 
		 "properties": { 
			 "R2extent": 5572.6498, 
			 "electric_dipole_moment_norm": 6.52903161962, 
			 "electric_quadrupole_moment_norm": 33.1357393248, 
			 "total_energy": -1193.9918293, 
			 "HOMO_LUMO_gap": 0.18141, 
			 "cosmo_polarized_energy": -22.01, 
			 "cosmo_cavitation_energy": 36.06, 
			 "cosmo_dispersion_energy": -25.83, 
			 "cosmo_repulsion_energy": 1.96, 
			 "cosmo_total_nonelectrostatic_energy": 12.18, 
			 "SMD_solvation_energy": 3.62 
		},
		"coords": [
			{
				"x": -1.328871349,
				"y": 1.6911667267,
				"z": -2.2052209861,
				"element": "C" 
			},
			{
				"x": -1.6430009729,
				"y": 0.2735727141,
				"z": -1.810390741,
				"element": "C" 
			},
			{
				"x": -2.603489756,
				"y": -0.4946669612,
				"z": -2.4758206139,
				"element": "C" 
			},
			{
				"x": -2.804499122,
				"y": -1.7927772422,
				"z": -2.011057235,
				"element": "C" 
			},
			{
				"x": -2.1373941853,
				"y": -2.3052185591,
				"z": -0.9756722041,
				"element": "N" 
			},
			{
				"x": -1.2396554406,
				"y": -1.4785929392,
				"z": -0.4124049057,
				"element": "C" 
			},
			{
				"x": -0.522871591,
				"y": -2.0342995389,
				"z": 0.6389698164,
				"element": "N" 
			},
			{
				"x": 0.2700020684,
				"y": -1.1854876718,
				"z": 1.8968479095,
				"element": "S" 
			},
			{
				"x": -0.5112711601,
				"y": -0.0101736174,
				"z": 2.2730929999,
				"element": "O" 
			},
			{
				"x": 0.5410828565,
				"y": -2.2649325708,
				"z": 2.8511537982,
				"element": "O" 
			},
			{
				"x": 1.8058996932,
				"y": -0.6477005401,
				"z": 1.188789299,
				"element": "C" 
			},
			{
				"x": 2.907319145,
				"y": -1.5093135319,
				"z": 1.2098269072,
				"element": "C" 
			},
			{
				"x": 4.120851789,
				"y": -1.0863518203,
				"z": 0.6865822612,
				"element": "C" 
			},
			{
				"x": 4.2535683622,
				"y": 0.2050933624,
				"z": 0.1372434494,
				"element": "C" 
			},
			{
				"x": 5.4514287701,
				"y": 0.6104228426,
				"z": -0.426320219,
				"element": "N" 
			},
			{
				"x": 3.1328289096,
				"y": 1.0597749707,
				"z": 0.1316011518,
				"element": "C" 
			},
			{
				"x": 1.9174637145,
				"y": 0.6384337311,
				"z": 0.6527177263,
				"element": "C" 
			},
			{
				"x": -0.949166565,
				"y": -0.2269623297,
				"z": -0.7767713127,
				"element": "N" 
			},
			{
				"x": -1.8888884189,
				"y": 1.999782657,
				"z": -3.0909323617,
				"element": "H" 
			},
			{
				"x": -1.5709865565,
				"y": 2.3703553933,
				"z": -1.3809299145,
				"element": "H" 
			},
			{
				"x": -0.2579814674,
				"y": 1.7965859731,
				"z": -2.4051799777,
				"element": "H" 
			},
			{
				"x": -3.1654314629,
				"y": -0.100343038,
				"z": -3.3144701137,
				"element": "H" 
			},
			{
				"x": -3.5332887301,
				"y": -2.4493207063,
				"z": -2.4838561954,
				"element": "H" 
			},
			{
				"x": -0.8290848162,
				"y": -2.9540173986,
				"z": 0.9371060477,
				"element": "H" 
			},
			{
				"x": 2.8120532836,
				"y": -2.4947560251,
				"z": 1.6525436396,
				"element": "H" 
			},
			{
				"x": 4.9793983247,
				"y": -1.7523811577,
				"z": 0.7038359258,
				"element": "H" 
			},
			{
				"x": 6.280306429,
				"y": 0.1116524001,
				"z": -0.1379460208,
				"element": "H" 
			},
			{
				"x": 5.594796226,
				"y": 1.6051819682,
				"z": -0.5204268973,
				"element": "H" 
			},
			{
				"x": 3.2253655029,
				"y": 2.0595234188,
				"z": -0.2846442793,
				"element": "H" 
			},
			{
				"x": 1.0533165194,
				"y": 1.29114949,
				"z": 0.6502330461,
				"element": "H" 
			}
		],
		 "valence_orbital": [ 
			{
				"type": "occ",
				"energy": -0.29306,
				"method": "rhf"
			},
			{
				"type": "occ",
				"energy": -0.26414,
				"method": "rhf"
			},
			{
				"type": "occ",
				"energy": -0.25245,
				"method": "rhf"
			},
			{
				"type": "occ",
				"energy": -0.24495,
				"method": "rhf"
			},
			{
				"type": "occ",
				"energy": -0.21916,
				"method": "rhf"
			},
			{
				"type": "unocc",
				"energy": -0.03775,
				"method": "rhf"
			},
			{
				"type": "unocc",
				"energy": -0.02007,
				"method": "rhf"
			},
			{
				"type": "unocc",
				"energy": -0.01178,
				"method": "rhf"
			},
			{
				"type": "unocc",
				"energy": -0.00947,
				"method": "rhf"
			},
			{
				"type": "unocc",
				"energy": 0.06203,
				"method": "rhf"
			}
		],
		"cosmo_sigma_profile": { 
			"-0.025": 0.0,
			"-0.024": 0.0,
			"-0.023": 0.0,
			"-0.022": 0.0,
			"-0.021": 0.0,
			"-0.02": 0.0,
			"-0.019": 0.0,
			"-0.018": 0.0,
			"-0.017": 0.0,
			"-0.016": 0.0,
			"-0.015": 0.239452856978,
			"-0.014": 1.27284477955,
			"-0.013": 3.44379310034,
			"-0.012": 3.69538020168,
			"-0.011": 3.75047380173,
			"-0.01": 3.59179629823,
			"-0.009": 3.78098193373,
			"-0.008": 5.23975463669,
			"-0.007": 11.1501025526,
			"-0.006": 14.425907037,
			"-0.005": 17.2601563259,
			"-0.004": 14.7530427278,
			"-0.003": 16.0929106494,
			"-0.002": 18.2918697235,
			"-0.001": 23.0423144588,
			"0.0": 20.5103316039,
			"0.001": 17.5868351976,
			"0.002": 15.1875725346,
			"0.003": 17.4298106029,
			"0.004": 18.6538823451,
			"0.005": 8.0767584366,
			"0.006": 6.81773146167,
			"0.007": 5.53662026226,
			"0.008": 6.293629334,
			"0.009": 5.2862958949,
			"0.01": 10.3281554302,
			"0.011": 11.4470349421,
			"0.012": 3.42183801866,
			"0.013": 0.869487224892,
			"0.014": 0.334524684542,
			"0.015": 0.0,
			"0.016": 0.0,
			"0.017": 0.0,
			"0.018": 0.0,
			"0.019": 0.0,
			"0.02": 0.0,
			"0.021": 0.0,
			"0.022": 0.0,
			"0.023": 0.0,
			"0.024": 0.0,
			"0.025": 0.0
		}
	}
}
