{
	 "smiles": "CCC#CCCCCC(O)=O", 
	 "Tm": 287.15, 
	 "num_atms": 25, 
	 "gaussian": { 
		 "optdone": 1, 
		 "sigma_profile": "yes", 
		 "theory": "DFT", 
		 "functional": "B3LYP", 
		 "basiset": "6-31G**", 
		 "properties": { 
			 "R2extent": 3456.7739, 
			 "electric_dipole_moment_norm": 1.90863135781, 
			 "electric_quadrupole_moment_norm": 11.1769078072, 
			 "total_energy": -501.812223637, 
			 "HOMO_LUMO_gap": 0.25433, 
			 "cosmo_polarized_energy": -10.38, 
			 "cosmo_cavitation_energy": 29.58, 
			 "cosmo_dispersion_energy": -20.28, 
			 "cosmo_repulsion_energy": 1.75, 
			 "cosmo_total_nonelectrostatic_energy": 11.05, 
			 "SMD_solvation_energy": 6.27 
		},
		"coords": [
			{
				"x": 1.2577781801,
				"y": -3.7521575898,
				"z": 1.1856849605,
				"element": "C" 
			},
			{
				"x": 2.628347514,
				"y": -3.2760451217,
				"z": 0.6686259256,
				"element": "C" 
			},
			{
				"x": 2.6638765325,
				"y": -1.843651419,
				"z": 0.3636428855,
				"element": "C" 
			},
			{
				"x": 2.6831557417,
				"y": -0.6582423564,
				"z": 0.1181715911,
				"element": "C" 
			},
			{
				"x": 2.6903536186,
				"y": 0.776823643,
				"z": -0.1769531285,
				"element": "C" 
			},
			{
				"x": 1.2790273958,
				"y": 1.3990802054,
				"z": -0.2664275897,
				"element": "C" 
			},
			{
				"x": 0.4305559535,
				"y": 0.8181348452,
				"z": -1.4020781063,
				"element": "C" 
			},
			{
				"x": -0.9753297044,
				"y": 1.4456289791,
				"z": -1.4585766893,
				"element": "C" 
			},
			{
				"x": -1.8197829219,
				"y": 0.8982790654,
				"z": -2.5870967347,
				"element": "C" 
			},
			{
				"x": -2.0568665206,
				"y": -0.4311784946,
				"z": -2.4404565061,
				"element": "O" 
			},
			{
				"x": -2.2467164217,
				"y": 1.5299418896,
				"z": -3.5284696429,
				"element": "O" 
			},
			{
				"x": 0.9833662087,
				"y": -3.2244917355,
				"z": 2.1035958874,
				"element": "H" 
			},
			{
				"x": 0.4758580591,
				"y": -3.5661847507,
				"z": 0.4438380987,
				"element": "H" 
			},
			{
				"x": 1.2813855548,
				"y": -4.825388672,
				"z": 1.3994688929,
				"element": "H" 
			},
			{
				"x": 3.4006044118,
				"y": -3.5075292759,
				"z": 1.414375157,
				"element": "H" 
			},
			{
				"x": 2.8979195502,
				"y": -3.8464154621,
				"z": -0.2302871525,
				"element": "H" 
			},
			{
				"x": 3.222716892,
				"y": 0.9535318105,
				"z": -1.1221780135,
				"element": "H" 
			},
			{
				"x": 3.2642802137,
				"y": 1.3048999916,
				"z": 0.5958482902,
				"element": "H" 
			},
			{
				"x": 0.7640671334,
				"y": 1.251002102,
				"z": 0.6910509281,
				"element": "H" 
			},
			{
				"x": 1.389348316,
				"y": 2.4827087405,
				"z": -0.4021623409,
				"element": "H" 
			},
			{
				"x": 0.9400017611,
				"y": 0.9848785684,
				"z": -2.3605003528,
				"element": "H" 
			},
			{
				"x": 0.341706845,
				"y": -0.2653040343,
				"z": -1.2758301031,
				"element": "H" 
			},
			{
				"x": -0.9178429987,
				"y": 2.5281607171,
				"z": -1.5974550234,
				"element": "H" 
			},
			{
				"x": -1.4982257168,
				"y": 1.2495425378,
				"z": -0.514181348,
				"element": "H" 
			},
			{
				"x": -2.5879855978,
				"y": -0.6934241836,
				"z": -3.2110498851,
				"element": "H" 
			}
		],
		 "valence_orbital": [ 
			{
				"type": "occ",
				"energy": -0.33693,
				"method": "rhf"
			},
			{
				"type": "occ",
				"energy": -0.31401,
				"method": "rhf"
			},
			{
				"type": "occ",
				"energy": -0.26882,
				"method": "rhf"
			},
			{
				"type": "occ",
				"energy": -0.24549,
				"method": "rhf"
			},
			{
				"type": "occ",
				"energy": -0.24305,
				"method": "rhf"
			},
			{
				"type": "unocc",
				"energy": 0.01128,
				"method": "rhf"
			},
			{
				"type": "unocc",
				"energy": 0.05241,
				"method": "rhf"
			},
			{
				"type": "unocc",
				"energy": 0.06352,
				"method": "rhf"
			},
			{
				"type": "unocc",
				"energy": 0.07808,
				"method": "rhf"
			},
			{
				"type": "unocc",
				"energy": 0.09911,
				"method": "rhf"
			}
		],
		"cosmo_sigma_profile": { 
			"-0.025": 0.0,
			"-0.024": 0.0,
			"-0.023": 0.0,
			"-0.022": 0.0,
			"-0.021": 0.0,
			"-0.02": 0.0,
			"-0.019": 0.0,
			"-0.018": 0.312326651115,
			"-0.017": 1.05524280746,
			"-0.016": 0.711009029082,
			"-0.015": 0.782566428693,
			"-0.014": 1.05479047778,
			"-0.013": 0.418754389224,
			"-0.012": 0.912126258733,
			"-0.011": 0.448557405864,
			"-0.01": 0.734178032782,
			"-0.009": 0.725119467828,
			"-0.008": 0.269164972121,
			"-0.007": 0.758555920366,
			"-0.006": 2.37755151943,
			"-0.005": 9.90974741412,
			"-0.004": 20.9919643306,
			"-0.003": 30.2579934842,
			"-0.002": 33.4414324646,
			"-0.001": 26.0475441977,
			"0.0": 19.0536949771,
			"0.001": 14.799356821,
			"0.002": 7.99853483233,
			"0.003": 7.1410553392,
			"0.004": 8.01579194791,
			"0.005": 6.90851636694,
			"0.006": 6.61284623339,
			"0.007": 8.06078676178,
			"0.008": 5.7897390854,
			"0.009": 2.85972962216,
			"0.01": 2.954234677,
			"0.011": 2.92682673874,
			"0.012": 5.28460402,
			"0.013": 1.65804563604,
			"0.014": 0.0594207962948,
			"0.015": 0.0,
			"0.016": 0.0,
			"0.017": 0.0,
			"0.018": 0.0,
			"0.019": 0.0,
			"0.02": 0.0,
			"0.021": 0.0,
			"0.022": 0.0,
			"0.023": 0.0,
			"0.024": 0.0,
			"0.025": 0.0
		}
	}
}
