{
	 "smiles": "OCC(=O)N1CCOCC1", 
	 "Tm": 351.15, 
	 "num_atms": 21, 
	 "gaussian": { 
		 "optdone": 1, 
		 "sigma_profile": "yes", 
		 "theory": "DFT", 
		 "functional": "B3LYP", 
		 "basiset": "6-31G**", 
		 "properties": { 
			 "R2extent": 1858.5198, 
			 "electric_dipole_moment_norm": 3.38122735704, 
			 "electric_quadrupole_moment_norm": 11.354070582, 
			 "total_energy": -515.678522575, 
			 "HOMO_LUMO_gap": 0.25881, 
			 "cosmo_polarized_energy": -12.93, 
			 "cosmo_cavitation_energy": 22.81, 
			 "cosmo_dispersion_energy": -17.47, 
			 "cosmo_repulsion_energy": 1.43, 
			 "cosmo_total_nonelectrostatic_energy": 6.76, 
			 "SMD_solvation_energy": 3.99 
		},
		"coords": [
			{
				"x": -0.7749767108,
				"y": -1.0428393426,
				"z": 2.9289545889,
				"element": "O" 
			},
			{
				"x": -0.1870994727,
				"y": -0.3992697519,
				"z": 1.8366543434,
				"element": "C" 
			},
			{
				"x": -0.8923504725,
				"y": -0.8403165994,
				"z": 0.542989764,
				"element": "C" 
			},
			{
				"x": -1.8221343409,
				"y": -1.644774553,
				"z": 0.6358061718,
				"element": "O" 
			},
			{
				"x": -0.4742055299,
				"y": -0.3290008228,
				"z": -0.6476625894,
				"element": "N" 
			},
			{
				"x": -1.0968691115,
				"y": -0.7744603662,
				"z": -1.8971069393,
				"element": "C" 
			},
			{
				"x": -1.4297570814,
				"y": 0.4389333757,
				"z": -2.7632525586,
				"element": "C" 
			},
			{
				"x": -0.2786915195,
				"y": 1.2503380015,
				"z": -2.9755021421,
				"element": "O" 
			},
			{
				"x": 0.2423068878,
				"y": 1.7335338425,
				"z": -1.7481692318,
				"element": "C" 
			},
			{
				"x": 0.656302633,
				"y": 0.580371264,
				"z": -0.8273087027,
				"element": "C" 
			},
			{
				"x": -1.4786880179,
				"y": -1.5924889637,
				"z": 2.5330584067,
				"element": "H" 
			},
			{
				"x": -0.2619421475,
				"y": 0.6957619356,
				"z": 1.9398633777,
				"element": "H" 
			},
			{
				"x": 0.8860368108,
				"y": -0.6413328329,
				"z": 1.7664893756,
				"element": "H" 
			},
			{
				"x": -0.3992853985,
				"y": -1.4299023764,
				"z": -2.4370798628,
				"element": "H" 
			},
			{
				"x": -1.9894242765,
				"y": -1.3470982367,
				"z": -1.6424228305,
				"element": "H" 
			},
			{
				"x": -2.227336369,
				"y": 1.030010239,
				"z": -2.2848149472,
				"element": "H" 
			},
			{
				"x": -1.7741724617,
				"y": 0.1223398371,
				"z": -3.7515802841,
				"element": "H" 
			},
			{
				"x": 1.1096781621,
				"y": 2.3525294569,
				"z": -1.9950369384,
				"element": "H" 
			},
			{
				"x": -0.5045213214,
				"y": 2.361284633,
				"z": -1.2342621604,
				"element": "H" 
			},
			{
				"x": 0.988128151,
				"y": 0.9745841942,
				"z": 0.1341922314,
				"element": "H" 
			},
			{
				"x": 1.497001587,
				"y": 0.037797066,
				"z": -1.2831090721,
				"element": "H" 
			}
		],
		 "valence_orbital": [ 
			{
				"type": "occ",
				"energy": -0.32567,
				"method": "rhf"
			},
			{
				"type": "occ",
				"energy": -0.28572,
				"method": "rhf"
			},
			{
				"type": "occ",
				"energy": -0.27309,
				"method": "rhf"
			},
			{
				"type": "occ",
				"energy": -0.2637,
				"method": "rhf"
			},
			{
				"type": "occ",
				"energy": -0.24551,
				"method": "rhf"
			},
			{
				"type": "unocc",
				"energy": 0.0133,
				"method": "rhf"
			},
			{
				"type": "unocc",
				"energy": 0.07888,
				"method": "rhf"
			},
			{
				"type": "unocc",
				"energy": 0.09586,
				"method": "rhf"
			},
			{
				"type": "unocc",
				"energy": 0.10594,
				"method": "rhf"
			},
			{
				"type": "unocc",
				"energy": 0.11025,
				"method": "rhf"
			}
		],
		"cosmo_sigma_profile": { 
			"-0.025": 0.0,
			"-0.024": 0.0,
			"-0.023": 0.0,
			"-0.022": 0.0,
			"-0.021": 0.0,
			"-0.02": 0.0,
			"-0.019": 0.0,
			"-0.018": 0.0,
			"-0.017": 0.0,
			"-0.016": 0.0,
			"-0.015": 0.0,
			"-0.014": 0.0,
			"-0.013": 0.0,
			"-0.012": 0.0,
			"-0.011": 0.0,
			"-0.01": 0.0,
			"-0.009": 0.291220430716,
			"-0.008": 2.68652056575,
			"-0.007": 4.99929383549,
			"-0.006": 13.2928500126,
			"-0.005": 22.7849924465,
			"-0.004": 27.4922787365,
			"-0.003": 18.4957532364,
			"-0.002": 11.3332276775,
			"-0.001": 8.67575977216,
			"0.0": 7.78441317222,
			"0.001": 5.05036677475,
			"0.002": 5.71426662495,
			"0.003": 4.60567554645,
			"0.004": 4.5745889722,
			"0.005": 2.52504263247,
			"0.006": 3.96415638455,
			"0.007": 3.50666935581,
			"0.008": 4.00810850929,
			"0.009": 2.99773538229,
			"0.01": 4.07614649653,
			"0.011": 4.23251722573,
			"0.012": 6.19218906258,
			"0.013": 5.35810921833,
			"0.014": 2.58987559398,
			"0.015": 0.742974967277,
			"0.016": 0.0,
			"0.017": 0.0,
			"0.018": 0.0,
			"0.019": 0.0,
			"0.02": 0.0,
			"0.021": 0.0,
			"0.022": 0.0,
			"0.023": 0.0,
			"0.024": 0.0,
			"0.025": 0.0
		}
	}
}
