{
	 "smiles": "OC1=C(C=C(C=C1C1CCCCC1)[N+]([O-])=O)[N+]([O-])=O", 
	 "Tm": 380.15, 
	 "num_atms": 33, 
	 "gaussian": { 
		 "optdone": 1, 
		 "sigma_profile": "yes", 
		 "theory": "DFT", 
		 "functional": "B3LYP", 
		 "basiset": "6-31G**", 
		 "properties": { 
			 "R2extent": 6252.669, 
			 "electric_dipole_moment_norm": 4.58746975576, 
			 "electric_quadrupole_moment_norm": 12.7992905589, 
			 "total_energy": -951.153976901, 
			 "HOMO_LUMO_gap": 0.14989, 
			 "cosmo_polarized_energy": -10.74, 
			 "cosmo_cavitation_energy": 35.87, 
			 "cosmo_dispersion_energy": -26.06, 
			 "cosmo_repulsion_energy": 2.0, 
			 "cosmo_total_nonelectrostatic_energy": 11.8, 
			 "SMD_solvation_energy": 9.84 
		},
		"coords": [
			{
				"x": -2.2081418165,
				"y": -1.0723937178,
				"z": -1.5679146057,
				"element": "O" 
			},
			{
				"x": -0.9085377972,
				"y": -1.1962394362,
				"z": -1.3067801101,
				"element": "C" 
			},
			{
				"x": -0.0981828848,
				"y": -2.2088463704,
				"z": -1.8857376613,
				"element": "C" 
			},
			{
				"x": 1.2628932757,
				"y": -2.3178671283,
				"z": -1.5931090294,
				"element": "C" 
			},
			{
				"x": 1.8068718513,
				"y": -1.4013776149,
				"z": -0.7176820033,
				"element": "C" 
			},
			{
				"x": 1.0344752922,
				"y": -0.3857059493,
				"z": -0.1321953363,
				"element": "C" 
			},
			{
				"x": -0.3181112942,
				"y": -0.2633458341,
				"z": -0.4090333045,
				"element": "C" 
			},
			{
				"x": -1.1958948418,
				"y": 0.8032893522,
				"z": 0.218894125,
				"element": "C" 
			},
			{
				"x": -2.0294390864,
				"y": 0.2172937736,
				"z": 1.4017648922,
				"element": "C" 
			},
			{
				"x": -2.545648564,
				"y": 1.3194809934,
				"z": 2.3579508894,
				"element": "C" 
			},
			{
				"x": -2.7684521718,
				"y": 2.6439410645,
				"z": 1.6174563405,
				"element": "C" 
			},
			{
				"x": -1.4374721766,
				"y": 3.1876893765,
				"z": 1.0437853824,
				"element": "C" 
			},
			{
				"x": -0.4406781657,
				"y": 2.0580504996,
				"z": 0.6890890362,
				"element": "C" 
			},
			{
				"x": 3.2347704892,
				"y": -1.4909250831,
				"z": -0.3933726655,
				"element": "N" 
			},
			{
				"x": 3.6911905245,
				"y": -0.6578820609,
				"z": 0.3900088178,
				"element": "O" 
			},
			{
				"x": 3.8850403435,
				"y": -2.3909763715,
				"z": -0.922778632,
				"element": "O" 
			},
			{
				"x": -0.6651543841,
				"y": -3.1731944111,
				"z": -2.8105321119,
				"element": "N" 
			},
			{
				"x": 0.0567912854,
				"y": -4.0344914466,
				"z": -3.2903866104,
				"element": "O" 
			},
			{
				"x": -1.8859987808,
				"y": -3.0821622473,
				"z": -3.0827089903,
				"element": "O" 
			},
			{
				"x": -2.4350470245,
				"y": -1.7935141845,
				"z": -2.2104003396,
				"element": "H" 
			},
			{
				"x": 1.8642073958,
				"y": -3.0961234567,
				"z": -2.0422842028,
				"element": "H" 
			},
			{
				"x": 1.5282702742,
				"y": 0.3031358081,
				"z": 0.5410049004,
				"element": "H" 
			},
			{
				"x": -1.9039903752,
				"y": 1.1167949355,
				"z": -0.5575772898,
				"element": "H" 
			},
			{
				"x": -2.8664784458,
				"y": -0.3541403856,
				"z": 0.9882269007,
				"element": "H" 
			},
			{
				"x": -1.4107887889,
				"y": -0.4930947527,
				"z": 1.9628060172,
				"element": "H" 
			},
			{
				"x": -1.81990247,
				"y": 1.4819815419,
				"z": 3.1650706486,
				"element": "H" 
			},
			{
				"x": -3.4692994104,
				"y": 0.9848702836,
				"z": 2.8426485251,
				"element": "H" 
			},
			{
				"x": -3.4885233018,
				"y": 2.4813395329,
				"z": 0.8051410484,
				"element": "H" 
			},
			{
				"x": -3.223148887,
				"y": 3.3865545844,
				"z": 2.2818249154,
				"element": "H" 
			},
			{
				"x": -1.6433560366,
				"y": 3.7905004329,
				"z": 0.1516950464,
				"element": "H" 
			},
			{
				"x": -0.9654524086,
				"y": 3.8616345329,
				"z": 1.7676873108,
				"element": "H" 
			},
			{
				"x": 0.2599752812,
				"y": 2.40304428,
				"z": -0.0795216687,
				"element": "H" 
			},
			{
				"x": 0.1640131,
				"y": 1.8104794589,
				"z": 1.5711597651,
				"element": "H" 
			}
		],
		 "valence_orbital": [ 
			{
				"type": "occ",
				"energy": -0.31466,
				"method": "rhf"
			},
			{
				"type": "occ",
				"energy": -0.31146,
				"method": "rhf"
			},
			{
				"type": "occ",
				"energy": -0.29952,
				"method": "rhf"
			},
			{
				"type": "occ",
				"energy": -0.29825,
				"method": "rhf"
			},
			{
				"type": "occ",
				"energy": -0.2666,
				"method": "rhf"
			},
			{
				"type": "unocc",
				"energy": -0.11671,
				"method": "rhf"
			},
			{
				"type": "unocc",
				"energy": -0.09633,
				"method": "rhf"
			},
			{
				"type": "unocc",
				"energy": -0.02894,
				"method": "rhf"
			},
			{
				"type": "unocc",
				"energy": -0.00114,
				"method": "rhf"
			},
			{
				"type": "unocc",
				"energy": 0.06577,
				"method": "rhf"
			}
		],
		"cosmo_sigma_profile": { 
			"-0.025": 0.0,
			"-0.024": 0.0,
			"-0.023": 0.0,
			"-0.022": 0.0,
			"-0.021": 0.0,
			"-0.02": 0.0,
			"-0.019": 0.0,
			"-0.018": 0.0,
			"-0.017": 0.0,
			"-0.016": 0.0,
			"-0.015": 0.0,
			"-0.014": 0.0,
			"-0.013": 0.0,
			"-0.012": 0.0,
			"-0.011": 0.258699916309,
			"-0.01": 0.805532517578,
			"-0.009": 1.98216137648,
			"-0.008": 3.33370719911,
			"-0.007": 5.75583209804,
			"-0.006": 8.73438545098,
			"-0.005": 8.57047337505,
			"-0.004": 12.807900513,
			"-0.003": 29.0112692196,
			"-0.002": 47.1574511289,
			"-0.001": 38.7621858183,
			"0.0": 29.3077277184,
			"0.001": 22.1023214561,
			"0.002": 7.93544417816,
			"0.003": 5.20749304172,
			"0.004": 8.06149322739,
			"0.005": 8.54284645844,
			"0.006": 10.4556104001,
			"0.007": 14.5763145215,
			"0.008": 10.9713458921,
			"0.009": 6.37019877017,
			"0.01": 2.17731213658,
			"0.011": 0.0293853120767,
			"0.012": 0.0,
			"0.013": 0.0,
			"0.014": 0.0,
			"0.015": 0.0,
			"0.016": 0.0,
			"0.017": 0.0,
			"0.018": 0.0,
			"0.019": 0.0,
			"0.02": 0.0,
			"0.021": 0.0,
			"0.022": 0.0,
			"0.023": 0.0,
			"0.024": 0.0,
			"0.025": 0.0
		}
	}
}
