{
	 "smiles": "C1CC2CC1C=C2", 
	 "Tm": 318.65, 
	 "num_atms": 17, 
	 "gaussian": { 
		 "optdone": 1, 
		 "sigma_profile": "yes", 
		 "theory": "DFT", 
		 "functional": "B3LYP", 
		 "basiset": "6-31G**", 
		 "properties": { 
			 "R2extent": 867.7477, 
			 "electric_dipole_moment_norm": 0.239503277639, 
			 "electric_quadrupole_moment_norm": 1.4692524766, 
			 "total_energy": -272.737000586, 
			 "HOMO_LUMO_gap": 0.25615, 
			 "cosmo_polarized_energy": -1.24, 
			 "cosmo_cavitation_energy": 17.88, 
			 "cosmo_dispersion_energy": -14.03, 
			 "cosmo_repulsion_energy": 1.19, 
			 "cosmo_total_nonelectrostatic_energy": 5.04, 
			 "SMD_solvation_energy": 2.35 
		},
		"coords": [
			{
				"x": -0.2222828328,
				"y": 1.2778165201,
				"z": -1.3112629162,
				"element": "C" 
			},
			{
				"x": -1.5252581648,
				"y": 1.0674427014,
				"z": -0.4756280927,
				"element": "C" 
			},
			{
				"x": -0.9727801335,
				"y": 0.7839306339,
				"z": 0.9640358798,
				"element": "C" 
			},
			{
				"x": 0.2927023618,
				"y": -0.0389467182,
				"z": 0.6201088626,
				"element": "C" 
			},
			{
				"x": 0.9098669531,
				"y": 1.08813223,
				"z": -0.2434481785,
				"element": "C" 
			},
			{
				"x": 0.7878396224,
				"y": 2.2623055178,
				"z": 0.7193112378,
				"element": "C" 
			},
			{
				"x": -0.3298362598,
				"y": 2.0817306515,
				"z": 1.4361322368,
				"element": "C" 
			},
			{
				"x": -0.1754890164,
				"y": 2.2619722878,
				"z": -1.7852517074,
				"element": "H" 
			},
			{
				"x": -0.133600323,
				"y": 0.5250050757,
				"z": -2.1020425579,
				"element": "H" 
			},
			{
				"x": -2.0966337081,
				"y": 0.2082241865,
				"z": -0.8433278106,
				"element": "H" 
			},
			{
				"x": -2.1875176818,
				"y": 1.9371916624,
				"z": -0.49464344,
				"element": "H" 
			},
			{
				"x": -1.6978918898,
				"y": 0.3283893315,
				"z": 1.6421253583,
				"element": "H" 
			},
			{
				"x": 0.0782336244,
				"y": -0.9538740154,
				"z": 0.0552621963,
				"element": "H" 
			},
			{
				"x": 0.8958206207,
				"y": -0.2801721022,
				"z": 1.499720904,
				"element": "H" 
			},
			{
				"x": 1.9011654142,
				"y": 0.9098673743,
				"z": -0.6661352265,
				"element": "H" 
			},
			{
				"x": 1.4341580483,
				"y": 3.1341289109,
				"z": 0.7168500568,
				"element": "H" 
			},
			{
				"x": -0.7809966347,
				"y": 2.7762557522,
				"z": 2.1374931976,
				"element": "H" 
			}
		],
		 "valence_orbital": [ 
			{
				"type": "occ",
				"energy": -0.33708,
				"method": "rhf"
			},
			{
				"type": "occ",
				"energy": -0.32641,
				"method": "rhf"
			},
			{
				"type": "occ",
				"energy": -0.31737,
				"method": "rhf"
			},
			{
				"type": "occ",
				"energy": -0.2966,
				"method": "rhf"
			},
			{
				"type": "occ",
				"energy": -0.23151,
				"method": "rhf"
			},
			{
				"type": "unocc",
				"energy": 0.02464,
				"method": "rhf"
			},
			{
				"type": "unocc",
				"energy": 0.09718,
				"method": "rhf"
			},
			{
				"type": "unocc",
				"energy": 0.1238,
				"method": "rhf"
			},
			{
				"type": "unocc",
				"energy": 0.13811,
				"method": "rhf"
			},
			{
				"type": "unocc",
				"energy": 0.15967,
				"method": "rhf"
			}
		],
		"cosmo_sigma_profile": { 
			"-0.025": 0.0,
			"-0.024": 0.0,
			"-0.023": 0.0,
			"-0.022": 0.0,
			"-0.021": 0.0,
			"-0.02": 0.0,
			"-0.019": 0.0,
			"-0.018": 0.0,
			"-0.017": 0.0,
			"-0.016": 0.0,
			"-0.015": 0.0,
			"-0.014": 0.0,
			"-0.013": 0.0,
			"-0.012": 0.0,
			"-0.011": 0.0,
			"-0.01": 0.0,
			"-0.009": 0.0,
			"-0.008": 0.0,
			"-0.007": 0.0,
			"-0.006": 0.00666281143875,
			"-0.005": 2.22314547102,
			"-0.004": 3.79864623643,
			"-0.003": 9.66017090618,
			"-0.002": 20.3706960847,
			"-0.001": 23.3098744614,
			"0.0": 25.4301789699,
			"0.001": 25.362096938,
			"0.002": 14.3732165393,
			"0.003": 4.71623320566,
			"0.004": 3.59943947594,
			"0.005": 2.75824386938,
			"0.006": 2.00390334649,
			"0.007": 1.14045233009,
			"0.008": 0.512303313074,
			"0.009": 0.0,
			"0.01": 0.0,
			"0.011": 0.0,
			"0.012": 0.0,
			"0.013": 0.0,
			"0.014": 0.0,
			"0.015": 0.0,
			"0.016": 0.0,
			"0.017": 0.0,
			"0.018": 0.0,
			"0.019": 0.0,
			"0.02": 0.0,
			"0.021": 0.0,
			"0.022": 0.0,
			"0.023": 0.0,
			"0.024": 0.0,
			"0.025": 0.0
		}
	}
}
