{
	 "smiles": "CC1=C(C=CC=C1NCC(C)(C)C)C(O)=O", 
	 "Tm": 409.15, 
	 "num_atms": 35, 
	 "gaussian": { 
		 "optdone": 1, 
		 "sigma_profile": "yes", 
		 "theory": "DFT", 
		 "functional": "B3LYP", 
		 "basiset": "6-31G**", 
		 "properties": { 
			 "R2extent": 5648.577, 
			 "electric_dipole_moment_norm": 6.37616114367, 
			 "electric_quadrupole_moment_norm": 28.2227122332, 
			 "total_energy": -712.059821158, 
			 "HOMO_LUMO_gap": 0.17165, 
			 "cosmo_polarized_energy": -15.95, 
			 "cosmo_cavitation_energy": 36.06, 
			 "cosmo_dispersion_energy": -25.03, 
			 "cosmo_repulsion_energy": 1.94, 
			 "cosmo_total_nonelectrostatic_energy": 12.97, 
			 "SMD_solvation_energy": 6.92 
		},
		"coords": [
			{
				"x": 0.8728562103,
				"y": 2.7030466686,
				"z": 1.8217033829,
				"element": "C" 
			},
			{
				"x": 0.3566947429,
				"y": 1.3227513304,
				"z": 2.1748175668,
				"element": "C" 
			},
			{
				"x": -0.3434422371,
				"y": 1.0453114432,
				"z": 3.3648274405,
				"element": "C" 
			},
			{
				"x": -0.9192318533,
				"y": -0.2122532523,
				"z": 3.5969016173,
				"element": "C" 
			},
			{
				"x": -0.7603302685,
				"y": -1.2186639614,
				"z": 2.6530411206,
				"element": "C" 
			},
			{
				"x": -0.0519638802,
				"y": -0.982772236,
				"z": 1.4782820572,
				"element": "C" 
			},
			{
				"x": 0.5122815548,
				"y": 0.27948015,
				"z": 1.2167091332,
				"element": "C" 
			},
			{
				"x": 1.188097549,
				"y": 0.5513671308,
				"z": 0.0350181168,
				"element": "N" 
			},
			{
				"x": 1.6526876489,
				"y": -0.4261197695,
				"z": -0.9394353003,
				"element": "C" 
			},
			{
				"x": 0.8900452755,
				"y": -0.4274190817,
				"z": -2.2929116024,
				"element": "C" 
			},
			{
				"x": 0.9976897638,
				"y": 0.9627872057,
				"z": -2.9458341259,
				"element": "C" 
			},
			{
				"x": 1.5535014354,
				"y": -1.4786264994,
				"z": -3.2015519705,
				"element": "C" 
			},
			{
				"x": -0.591325546,
				"y": -0.7836961075,
				"z": -2.0790894388,
				"element": "C" 
			},
			{
				"x": -0.5362221915,
				"y": 2.0473008171,
				"z": 4.4704327841,
				"element": "C" 
			},
			{
				"x": 0.5637771013,
				"y": 2.7710081025,
				"z": 4.8351899253,
				"element": "O" 
			},
			{
				"x": -1.5748772842,
				"y": 2.2033233265,
				"z": 5.0650808109,
				"element": "O" 
			},
			{
				"x": 0.5767706107,
				"y": 3.4603020812,
				"z": 2.5468380445,
				"element": "H" 
			},
			{
				"x": 1.9704768576,
				"y": 2.7340176252,
				"z": 1.7449442428,
				"element": "H" 
			},
			{
				"x": 0.4787768923,
				"y": 3.0203413306,
				"z": 0.8477736207,
				"element": "H" 
			},
			{
				"x": -1.4774324429,
				"y": -0.3744367531,
				"z": 4.5115497902,
				"element": "H" 
			},
			{
				"x": -1.1953292092,
				"y": -2.1991524346,
				"z": 2.8238366464,
				"element": "H" 
			},
			{
				"x": 0.0380659668,
				"y": -1.7782106932,
				"z": 0.7487220004,
				"element": "H" 
			},
			{
				"x": 1.6730448369,
				"y": 1.4321633486,
				"z": 0.0099614,
				"element": "H" 
			},
			{
				"x": 1.618842397,
				"y": -1.4278089733,
				"z": -0.4991159562,
				"element": "H" 
			},
			{
				"x": 2.7125653444,
				"y": -0.2230935252,
				"z": -1.1460206352,
				"element": "H" 
			},
			{
				"x": 0.539229577,
				"y": 1.7301630448,
				"z": -2.3136443101,
				"element": "H" 
			},
			{
				"x": 2.0442773331,
				"y": 1.2422227138,
				"z": -3.1194162298,
				"element": "H" 
			},
			{
				"x": 0.4858107909,
				"y": 0.9794764236,
				"z": -3.9138858886,
				"element": "H" 
			},
			{
				"x": 1.0558751519,
				"y": -1.5200848179,
				"z": -4.1761940141,
				"element": "H" 
			},
			{
				"x": 1.499506178,
				"y": -2.4802538995,
				"z": -2.7590381971,
				"element": "H" 
			},
			{
				"x": 2.6104142278,
				"y": -1.2466726903,
				"z": -3.3782765108,
				"element": "H" 
			},
			{
				"x": -0.7044800418,
				"y": -1.7944865935,
				"z": -1.6706438217,
				"element": "H" 
			},
			{
				"x": -1.1373986309,
				"y": -0.7494302796,
				"z": -3.0282627125,
				"element": "H" 
			},
			{
				"x": -1.0712979359,
				"y": -0.0835716701,
				"z": -1.3888751449,
				"element": "H" 
			},
			{
				"x": 1.3378440751,
				"y": 2.4313904954,
				"z": 4.3641661585,
				"element": "H" 
			}
		],
		 "valence_orbital": [ 
			{
				"type": "occ",
				"energy": -0.30927,
				"method": "rhf"
			},
			{
				"type": "occ",
				"energy": -0.29721,
				"method": "rhf"
			},
			{
				"type": "occ",
				"energy": -0.26753,
				"method": "rhf"
			},
			{
				"type": "occ",
				"energy": -0.24868,
				"method": "rhf"
			},
			{
				"type": "occ",
				"energy": -0.20147,
				"method": "rhf"
			},
			{
				"type": "unocc",
				"energy": -0.02982,
				"method": "rhf"
			},
			{
				"type": "unocc",
				"energy": 0.00537,
				"method": "rhf"
			},
			{
				"type": "unocc",
				"energy": 0.04449,
				"method": "rhf"
			},
			{
				"type": "unocc",
				"energy": 0.05667,
				"method": "rhf"
			},
			{
				"type": "unocc",
				"energy": 0.07212,
				"method": "rhf"
			}
		],
		"cosmo_sigma_profile": { 
			"-0.025": 0.0,
			"-0.024": 0.0,
			"-0.023": 0.0,
			"-0.022": 0.0,
			"-0.021": 0.0,
			"-0.02": 0.0,
			"-0.019": 0.0,
			"-0.018": 0.318683324297,
			"-0.017": 0.40454801678,
			"-0.016": 0.782229338814,
			"-0.015": 0.823265904696,
			"-0.014": 0.898165738264,
			"-0.013": 0.622645583351,
			"-0.012": 0.958043213612,
			"-0.011": 1.93809280432,
			"-0.01": 1.94564960848,
			"-0.009": 2.54427484985,
			"-0.008": 2.38410440665,
			"-0.007": 2.53688946808,
			"-0.006": 7.31117850759,
			"-0.005": 12.6804883268,
			"-0.004": 16.3355491191,
			"-0.003": 26.3513993196,
			"-0.002": 33.3511570132,
			"-0.001": 29.1025870981,
			"0.0": 25.6150071338,
			"0.001": 27.0976800005,
			"0.002": 22.9764430541,
			"0.003": 10.2320439205,
			"0.004": 9.88208193301,
			"0.005": 9.69466759396,
			"0.006": 7.83555125244,
			"0.007": 2.74383573021,
			"0.008": 3.27488108094,
			"0.009": 3.14014780617,
			"0.01": 4.53047070766,
			"0.011": 5.58120027979,
			"0.012": 5.5022447467,
			"0.013": 2.26231899311,
			"0.014": 0.0585225236266,
			"0.015": 0.0,
			"0.016": 0.0,
			"0.017": 0.0,
			"0.018": 0.0,
			"0.019": 0.0,
			"0.02": 0.0,
			"0.021": 0.0,
			"0.022": 0.0,
			"0.023": 0.0,
			"0.024": 0.0,
			"0.025": 0.0
		}
	}
}
