{
	 "smiles": "OCC1=CN=C(S1)C1=CC=CC=C1", 
	 "Tm": 346.15, 
	 "num_atms": 22, 
	 "gaussian": { 
		 "optdone": 1, 
		 "sigma_profile": "yes", 
		 "theory": "DFT", 
		 "functional": "B3LYP", 
		 "basiset": "6-31G**", 
		 "properties": { 
			 "R2extent": 3748.9454, 
			 "electric_dipole_moment_norm": 1.9744103069, 
			 "electric_quadrupole_moment_norm": 9.93774584149, 
			 "total_energy": -914.634472698, 
			 "HOMO_LUMO_gap": 0.16615, 
			 "cosmo_polarized_energy": -10.76, 
			 "cosmo_cavitation_energy": 27.86, 
			 "cosmo_dispersion_energy": -21.09, 
			 "cosmo_repulsion_energy": 1.62, 
			 "cosmo_total_nonelectrostatic_energy": 8.38, 
			 "SMD_solvation_energy": 3.18 
		},
		"coords": [
			{
				"x": 0.1307283924,
				"y": -2.5916984073,
				"z": 4.0803069479,
				"element": "O" 
			},
			{
				"x": -0.2379509721,
				"y": -3.03935204,
				"z": 2.7794687398,
				"element": "C" 
			},
			{
				"x": -0.136754186,
				"y": -1.9800673828,
				"z": 1.7185849344,
				"element": "C" 
			},
			{
				"x": -1.1124342983,
				"y": -1.1410525294,
				"z": 1.2514992459,
				"element": "C" 
			},
			{
				"x": -0.7406902333,
				"y": -0.2161647034,
				"z": 0.3144022613,
				"element": "N" 
			},
			{
				"x": 0.533356407,
				"y": -0.299788813,
				"z": 0.0290347792,
				"element": "C" 
			},
			{
				"x": 1.3672463612,
				"y": -1.5794522456,
				"z": 0.9244073493,
				"element": "S" 
			},
			{
				"x": 1.2197365882,
				"y": 0.5650340322,
				"z": -0.9395974975,
				"element": "C" 
			},
			{
				"x": 0.4769414152,
				"y": 1.5493220491,
				"z": -1.6164206446,
				"element": "C" 
			},
			{
				"x": 1.0963288532,
				"y": 2.3860092594,
				"z": -2.5399589449,
				"element": "C" 
			},
			{
				"x": 2.4625698918,
				"y": 2.2573322183,
				"z": -2.8050572043,
				"element": "C" 
			},
			{
				"x": 3.207102192,
				"y": 1.2827984417,
				"z": -2.1373642796,
				"element": "C" 
			},
			{
				"x": 2.5919493922,
				"y": 0.442892675,
				"z": -1.2116280506,
				"element": "C" 
			},
			{
				"x": 1.0466537488,
				"y": -2.2862822965,
				"z": 4.0423843615,
				"element": "H" 
			},
			{
				"x": -1.2845486493,
				"y": -3.3477824493,
				"z": 2.8605590449,
				"element": "H" 
			},
			{
				"x": 0.3406822402,
				"y": -3.9278789826,
				"z": 2.4850454019,
				"element": "H" 
			},
			{
				"x": -2.1452781544,
				"y": -1.1743456239,
				"z": 1.5818737775,
				"element": "H" 
			},
			{
				"x": -0.5820687577,
				"y": 1.6384409025,
				"z": -1.4017637056,
				"element": "H" 
			},
			{
				"x": 0.5111412059,
				"y": 3.1419513441,
				"z": -3.0556327389,
				"element": "H" 
			},
			{
				"x": 2.9433841858,
				"y": 2.9115946728,
				"z": -3.5263545503,
				"element": "H" 
			},
			{
				"x": 4.2692533808,
				"y": 1.175774726,
				"z": -2.3368515739,
				"element": "H" 
			},
			{
				"x": 3.1850509963,
				"y": -0.3099848475,
				"z": -0.6995376533,
				"element": "H" 
			}
		],
		 "valence_orbital": [ 
			{
				"type": "occ",
				"energy": -0.28488,
				"method": "rhf"
			},
			{
				"type": "occ",
				"energy": -0.2806,
				"method": "rhf"
			},
			{
				"type": "occ",
				"energy": -0.27026,
				"method": "rhf"
			},
			{
				"type": "occ",
				"energy": -0.25748,
				"method": "rhf"
			},
			{
				"type": "occ",
				"energy": -0.22333,
				"method": "rhf"
			},
			{
				"type": "unocc",
				"energy": -0.05718,
				"method": "rhf"
			},
			{
				"type": "unocc",
				"energy": -0.00771,
				"method": "rhf"
			},
			{
				"type": "unocc",
				"energy": 0.00897,
				"method": "rhf"
			},
			{
				"type": "unocc",
				"energy": 0.01558,
				"method": "rhf"
			},
			{
				"type": "unocc",
				"energy": 0.05561,
				"method": "rhf"
			}
		],
		"cosmo_sigma_profile": { 
			"-0.025": 0.0,
			"-0.024": 0.0,
			"-0.023": 0.0,
			"-0.022": 0.0,
			"-0.021": 0.0,
			"-0.02": 0.0,
			"-0.019": 0.0,
			"-0.018": 0.0,
			"-0.017": 0.0,
			"-0.016": 0.0829488006676,
			"-0.015": 0.723218851151,
			"-0.014": 0.905119372001,
			"-0.013": 1.33338860051,
			"-0.012": 0.846367292763,
			"-0.011": 1.01803949889,
			"-0.01": 0.938923806175,
			"-0.009": 0.767144982546,
			"-0.008": 2.14727058401,
			"-0.007": 5.80512941079,
			"-0.006": 14.9975317151,
			"-0.005": 17.9632430634,
			"-0.004": 16.5506012498,
			"-0.003": 13.6612358562,
			"-0.002": 13.0117450367,
			"-0.001": 12.4682403115,
			"0.0": 13.5342996655,
			"0.001": 19.7480405199,
			"0.002": 19.3164361226,
			"0.003": 19.6262492635,
			"0.004": 15.3750858949,
			"0.005": 10.4952043378,
			"0.006": 4.10125055546,
			"0.007": 2.71295365183,
			"0.008": 2.21244823934,
			"0.009": 2.72928744904,
			"0.01": 2.53046385022,
			"0.011": 2.24916045046,
			"0.012": 2.57599207958,
			"0.013": 2.52253133526,
			"0.014": 2.01107018247,
			"0.015": 0.0309291527959,
			"0.016": 0.0,
			"0.017": 0.0,
			"0.018": 0.0,
			"0.019": 0.0,
			"0.02": 0.0,
			"0.021": 0.0,
			"0.022": 0.0,
			"0.023": 0.0,
			"0.024": 0.0,
			"0.025": 0.0
		}
	}
}
