{
	 "smiles": "CC1=CC=C(O)C(O)=C1", 
	 "Tm": 339.65, 
	 "num_atms": 17, 
	 "gaussian": { 
		 "optdone": 1, 
		 "sigma_profile": "yes", 
		 "theory": "DFT", 
		 "functional": "B3LYP", 
		 "basiset": "6-31G**", 
		 "properties": { 
			 "R2extent": 1387.7693, 
			 "electric_dipole_moment_norm": 2.63829004281, 
			 "electric_quadrupole_moment_norm": 6.51762621589, 
			 "total_energy": -422.011714461, 
			 "HOMO_LUMO_gap": 0.20852, 
			 "cosmo_polarized_energy": -9.79, 
			 "cosmo_cavitation_energy": 20.58, 
			 "cosmo_dispersion_energy": -15.61, 
			 "cosmo_repulsion_energy": 1.28, 
			 "cosmo_total_nonelectrostatic_energy": 6.26, 
			 "SMD_solvation_energy": 4.23 
		},
		"coords": [
			{
				"x": -3.0034369416,
				"y": -0.7942860232,
				"z": 1.2374262653,
				"element": "C" 
			},
			{
				"x": -1.7979310022,
				"y": 0.0178229975,
				"z": 0.8246298333,
				"element": "C" 
			},
			{
				"x": -1.9079935556,
				"y": 1.3680094308,
				"z": 0.4826795231,
				"element": "C" 
			},
			{
				"x": -0.7888186702,
				"y": 2.1160436168,
				"z": 0.1024852686,
				"element": "C" 
			},
			{
				"x": 0.4671415651,
				"y": 1.5216708633,
				"z": 0.0577200318,
				"element": "C" 
			},
			{
				"x": 1.5638693587,
				"y": 2.2439406067,
				"z": -0.3122757972,
				"element": "O" 
			},
			{
				"x": 0.5894150213,
				"y": 0.1629943514,
				"z": 0.3997810314,
				"element": "C" 
			},
			{
				"x": 1.8703283559,
				"y": -0.3402309534,
				"z": 0.3263510539,
				"element": "O" 
			},
			{
				"x": -0.5249106143,
				"y": -0.575459902,
				"z": 0.7766635022,
				"element": "C" 
			},
			{
				"x": -2.8971066614,
				"y": -1.1875243557,
				"z": 2.2556908308,
				"element": "H" 
			},
			{
				"x": -3.1575766844,
				"y": -1.6550049458,
				"z": 0.5756207242,
				"element": "H" 
			},
			{
				"x": -3.9141778777,
				"y": -0.1897515731,
				"z": 1.2106316701,
				"element": "H" 
			},
			{
				"x": -2.8816606006,
				"y": 1.8492018806,
				"z": 0.5118021146,
				"element": "H" 
			},
			{
				"x": -0.8761163952,
				"y": 3.1646573787,
				"z": -0.1629307605,
				"element": "H" 
			},
			{
				"x": 2.3272929054,
				"y": 1.6486882974,
				"z": -0.2770039228,
				"element": "H" 
			},
			{
				"x": 1.8688560069,
				"y": -1.2723092388,
				"z": 0.575551727,
				"element": "H" 
			},
			{
				"x": -0.4047742101,
				"y": -1.6264624312,
				"z": 1.0369769044,
				"element": "H" 
			}
		],
		 "valence_orbital": [ 
			{
				"type": "occ",
				"energy": -0.34974,
				"method": "rhf"
			},
			{
				"type": "occ",
				"energy": -0.33634,
				"method": "rhf"
			},
			{
				"type": "occ",
				"energy": -0.31121,
				"method": "rhf"
			},
			{
				"type": "occ",
				"energy": -0.2329,
				"method": "rhf"
			},
			{
				"type": "occ",
				"energy": -0.20098,
				"method": "rhf"
			},
			{
				"type": "unocc",
				"energy": 0.00754,
				"method": "rhf"
			},
			{
				"type": "unocc",
				"energy": 0.02477,
				"method": "rhf"
			},
			{
				"type": "unocc",
				"energy": 0.05604,
				"method": "rhf"
			},
			{
				"type": "unocc",
				"energy": 0.09564,
				"method": "rhf"
			},
			{
				"type": "unocc",
				"energy": 0.12368,
				"method": "rhf"
			}
		],
		"cosmo_sigma_profile": { 
			"-0.025": 0.0,
			"-0.024": 0.0,
			"-0.023": 0.0,
			"-0.022": 0.0,
			"-0.021": 0.0,
			"-0.02": 0.0,
			"-0.019": 0.0,
			"-0.018": 0.668688139752,
			"-0.017": 0.906173586883,
			"-0.016": 1.31327735211,
			"-0.015": 0.981803441401,
			"-0.014": 1.31014093554,
			"-0.013": 1.21851559566,
			"-0.012": 1.85494494025,
			"-0.011": 1.48420610219,
			"-0.01": 1.33468182584,
			"-0.009": 1.53576377021,
			"-0.008": 1.80606906108,
			"-0.007": 1.64617505543,
			"-0.006": 3.33937738289,
			"-0.005": 5.5608824446,
			"-0.004": 10.7987628638,
			"-0.003": 13.0109065687,
			"-0.002": 12.6541828575,
			"-0.001": 11.5755644002,
			"0.0": 13.1147825825,
			"0.001": 10.3961307125,
			"0.002": 9.19070793038,
			"0.003": 9.34299697029,
			"0.004": 10.4829427236,
			"0.005": 11.1812861307,
			"0.006": 11.2441079324,
			"0.007": 6.04031393901,
			"0.008": 2.1194346681,
			"0.009": 1.4550136065,
			"0.01": 1.53883530261,
			"0.011": 1.95978838157,
			"0.012": 1.68079798212,
			"0.013": 0.0296053708313,
			"0.014": 0.0,
			"0.015": 0.0,
			"0.016": 0.0,
			"0.017": 0.0,
			"0.018": 0.0,
			"0.019": 0.0,
			"0.02": 0.0,
			"0.021": 0.0,
			"0.022": 0.0,
			"0.023": 0.0,
			"0.024": 0.0,
			"0.025": 0.0
		}
	}
}
