{
	 "smiles": "ClC1=C(Cl)N=C(Br)N1", 
	 "Tm": 489.15, 
	 "num_atms": 9, 
	 "gaussian": { 
		 "optdone": 1, 
		 "sigma_profile": "yes", 
		 "theory": "DFT", 
		 "functional": "B3LYP", 
		 "basiset": "6-31G**", 
		 "properties": { 
			 "R2extent": 2490.8086, 
			 "electric_dipole_moment_norm": 3.71105268623, 
			 "electric_quadrupole_moment_norm": 1.57830308876, 
			 "total_energy": -3716.18676089, 
			 "HOMO_LUMO_gap": 0.21433, 
			 "cosmo_polarized_energy": -10.18, 
			 "cosmo_cavitation_energy": 20.17, 
			 "cosmo_dispersion_energy": -15.92, 
			 "cosmo_repulsion_energy": 1.35, 
			 "cosmo_total_nonelectrostatic_energy": 5.59, 
			 "SMD_solvation_energy": 0.03 
		},
		"coords": [
			{
				"x": 2.3714389209,
				"y": -1.9670266885,
				"z": -1.550252627,
				"element": "Cl" 
			},
			{
				"x": 1.0850651026,
				"y": -0.9439742687,
				"z": -1.0611885568,
				"element": "C" 
			},
			{
				"x": 0.3156892516,
				"y": -0.0294767994,
				"z": -1.7388131069,
				"element": "C" 
			},
			{
				"x": 0.4290331616,
				"y": 0.3871558384,
				"z": -3.4063981684,
				"element": "Cl" 
			},
			{
				"x": -0.6027454112,
				"y": 0.5499092556,
				"z": -0.9054013079,
				"element": "N" 
			},
			{
				"x": -0.3947399345,
				"y": -0.0040087355,
				"z": 0.26002888,
				"element": "C" 
			},
			{
				"x": -1.3352469183,
				"y": 0.3611712639,
				"z": 1.842479531,
				"element": "Br" 
			},
			{
				"x": 0.6148029995,
				"y": -0.9202342883,
				"z": 0.2398677545,
				"element": "N" 
			},
			{
				"x": 0.9556028279,
				"y": -1.4729155774,
				"z": 1.0129776015,
				"element": "H" 
			}
		],
		 "valence_orbital": [ 
			{
				"type": "occ",
				"energy": -0.32813,
				"method": "rhf"
			},
			{
				"type": "occ",
				"energy": -0.31904,
				"method": "rhf"
			},
			{
				"type": "occ",
				"energy": -0.30897,
				"method": "rhf"
			},
			{
				"type": "occ",
				"energy": -0.30077,
				"method": "rhf"
			},
			{
				"type": "occ",
				"energy": -0.23663,
				"method": "rhf"
			},
			{
				"type": "unocc",
				"energy": -0.0223,
				"method": "rhf"
			},
			{
				"type": "unocc",
				"energy": -0.00971,
				"method": "rhf"
			},
			{
				"type": "unocc",
				"energy": 0.02209,
				"method": "rhf"
			},
			{
				"type": "unocc",
				"energy": 0.03318,
				"method": "rhf"
			},
			{
				"type": "unocc",
				"energy": 0.04351,
				"method": "rhf"
			}
		],
		"cosmo_sigma_profile": { 
			"-0.025": 0.0,
			"-0.024": 0.0,
			"-0.023": 0.0,
			"-0.022": 0.0,
			"-0.021": 0.0,
			"-0.02": 0.0,
			"-0.019": 0.41636531147,
			"-0.018": 1.56202207299,
			"-0.017": 1.08022051756,
			"-0.016": 1.16283644736,
			"-0.015": 0.474440971353,
			"-0.014": 1.58185507995,
			"-0.013": 1.50581890141,
			"-0.012": 0.76774867786,
			"-0.011": 1.11512462708,
			"-0.01": 1.67483472027,
			"-0.009": 0.891616497445,
			"-0.008": 0.935145144426,
			"-0.007": 1.46998776181,
			"-0.006": 3.31280261587,
			"-0.005": 3.24154946222,
			"-0.004": 5.77803101593,
			"-0.003": 7.74089977349,
			"-0.002": 11.9781218746,
			"-0.001": 15.9110699275,
			"0.0": 16.521043427,
			"0.001": 17.2277661259,
			"0.002": 26.0105100479,
			"0.003": 24.2496279336,
			"0.004": 10.0739735418,
			"0.005": 3.0644126569,
			"0.006": 2.02631909935,
			"0.007": 1.53787422587,
			"0.008": 1.50509790294,
			"0.009": 1.15014453037,
			"0.01": 1.24097973595,
			"0.011": 0.97069497308,
			"0.012": 1.30961735128,
			"0.013": 0.791534573362,
			"0.014": 0.751650295158,
			"0.015": 0.0790844590006,
			"0.016": 0.0,
			"0.017": 0.0,
			"0.018": 0.0,
			"0.019": 0.0,
			"0.02": 0.0,
			"0.021": 0.0,
			"0.022": 0.0,
			"0.023": 0.0,
			"0.024": 0.0,
			"0.025": 0.0
		}
	}
}
