{
	 "smiles": "COC1=CC=C(CO)C=C1", 
	 "Tm": 298.15, 
	 "num_atms": 20, 
	 "gaussian": { 
		 "optdone": 1, 
		 "sigma_profile": "yes", 
		 "theory": "DFT", 
		 "functional": "B3LYP", 
		 "basiset": "6-31G**", 
		 "properties": { 
			 "R2extent": 2018.6865, 
			 "electric_dipole_moment_norm": 1.77224707363, 
			 "electric_quadrupole_moment_norm": 10.1840935542, 
			 "total_energy": -461.303098067, 
			 "HOMO_LUMO_gap": 0.21258, 
			 "cosmo_polarized_energy": -8.86, 
			 "cosmo_cavitation_energy": 23.4, 
			 "cosmo_dispersion_energy": -17.45, 
			 "cosmo_repulsion_energy": 1.43, 
			 "cosmo_total_nonelectrostatic_energy": 7.37, 
			 "SMD_solvation_energy": 4.85 
		},
		"coords": [
			{
				"x": -0.7826539462,
				"y": -3.3248620845,
				"z": 2.1158779635,
				"element": "C" 
			},
			{
				"x": -1.4972592596,
				"y": -2.3245007812,
				"z": 1.4092532714,
				"element": "O" 
			},
			{
				"x": -0.848985529,
				"y": -1.1613880125,
				"z": 1.1048156376,
				"element": "C" 
			},
			{
				"x": -1.6043265856,
				"y": -0.2082967557,
				"z": 0.4056329275,
				"element": "C" 
			},
			{
				"x": -1.0312450772,
				"y": 1.004715901,
				"z": 0.0440170934,
				"element": "C" 
			},
			{
				"x": 0.2981214679,
				"y": 1.3068452687,
				"z": 0.3737045758,
				"element": "C" 
			},
			{
				"x": 0.9113105716,
				"y": 2.6447019107,
				"z": 0.0111377723,
				"element": "C" 
			},
			{
				"x": 2.3016136995,
				"y": 2.5738822536,
				"z": -0.2809315932,
				"element": "O" 
			},
			{
				"x": 1.0394395033,
				"y": 0.3479361292,
				"z": 1.0684267035,
				"element": "C" 
			},
			{
				"x": 0.4826561273,
				"y": -0.8804274172,
				"z": 1.4337776767,
				"element": "C" 
			},
			{
				"x": -0.448633763,
				"y": -2.9679366543,
				"z": 3.0988555881,
				"element": "H" 
			},
			{
				"x": -1.4793005539,
				"y": -4.153337496,
				"z": 2.2538254,
				"element": "H" 
			},
			{
				"x": 0.0890937447,
				"y": -3.678241951,
				"z": 1.5496643344,
				"element": "H" 
			},
			{
				"x": -2.6316324755,
				"y": -0.4473901085,
				"z": 0.1503573778,
				"element": "H" 
			},
			{
				"x": -1.6266983123,
				"y": 1.7296501651,
				"z": -0.506760657,
				"element": "H" 
			},
			{
				"x": 0.346010885,
				"y": 3.0947127591,
				"z": -0.8210058824,
				"element": "H" 
			},
			{
				"x": 0.8367002534,
				"y": 3.3424415917,
				"z": 0.8543744047,
				"element": "H" 
			},
			{
				"x": 2.4125950345,
				"y": 1.9183187956,
				"z": -0.9827503368,
				"element": "H" 
			},
			{
				"x": 2.0732245298,
				"y": 0.5655126055,
				"z": 1.3202625524,
				"element": "H" 
			},
			{
				"x": 1.0893696853,
				"y": -1.6012361192,
				"z": 1.9693651904,
				"element": "H" 
			}
		],
		 "valence_orbital": [ 
			{
				"type": "occ",
				"energy": -0.32079,
				"method": "rhf"
			},
			{
				"type": "occ",
				"energy": -0.31356,
				"method": "rhf"
			},
			{
				"type": "occ",
				"energy": -0.2704,
				"method": "rhf"
			},
			{
				"type": "occ",
				"energy": -0.24991,
				"method": "rhf"
			},
			{
				"type": "occ",
				"energy": -0.21406,
				"method": "rhf"
			},
			{
				"type": "unocc",
				"energy": -0.00148,
				"method": "rhf"
			},
			{
				"type": "unocc",
				"energy": 0.00983,
				"method": "rhf"
			},
			{
				"type": "unocc",
				"energy": 0.09139,
				"method": "rhf"
			},
			{
				"type": "unocc",
				"energy": 0.09626,
				"method": "rhf"
			},
			{
				"type": "unocc",
				"energy": 0.10776,
				"method": "rhf"
			}
		],
		"cosmo_sigma_profile": { 
			"-0.025": 0.0,
			"-0.024": 0.0,
			"-0.023": 0.0,
			"-0.022": 0.0,
			"-0.021": 0.0,
			"-0.02": 0.0,
			"-0.019": 0.0,
			"-0.018": 0.0,
			"-0.017": 0.0,
			"-0.016": 0.128483523382,
			"-0.015": 0.651202435802,
			"-0.014": 0.833425872369,
			"-0.013": 1.00732515261,
			"-0.012": 0.511356768217,
			"-0.011": 0.921016406941,
			"-0.01": 0.438245061133,
			"-0.009": 0.496125253247,
			"-0.008": 0.812060213239,
			"-0.007": 1.56901337564,
			"-0.006": 6.469526948,
			"-0.005": 18.8805193798,
			"-0.004": 20.6346246441,
			"-0.003": 20.1117681382,
			"-0.002": 14.442072996,
			"-0.001": 11.0723425875,
			"0.0": 9.26058312389,
			"0.001": 9.10044365446,
			"0.002": 7.51489058164,
			"0.003": 10.1846056798,
			"0.004": 11.2949204976,
			"0.005": 10.9596668283,
			"0.006": 9.59397998982,
			"0.007": 2.96410819238,
			"0.008": 2.94225749309,
			"0.009": 2.12792277888,
			"0.01": 2.58952699052,
			"0.011": 1.97704042031,
			"0.012": 1.00819509659,
			"0.013": 1.86085669208,
			"0.014": 2.03966283677,
			"0.015": 0.358301248484,
			"0.016": 0.0,
			"0.017": 0.0,
			"0.018": 0.0,
			"0.019": 0.0,
			"0.02": 0.0,
			"0.021": 0.0,
			"0.022": 0.0,
			"0.023": 0.0,
			"0.024": 0.0,
			"0.025": 0.0
		}
	}
}
