{
	 "smiles": "CC1=NC2=CC=NN2C(C)=C1CCC(O)=O", 
	 "Tm": 497.15, 
	 "num_atms": 29, 
	 "gaussian": { 
		 "optdone": 1, 
		 "sigma_profile": "yes", 
		 "theory": "DFT", 
		 "functional": "B3LYP", 
		 "basiset": "6-31G**", 
		 "properties": { 
			 "R2extent": 4512.4813, 
			 "electric_dipole_moment_norm": 2.30436690004, 
			 "electric_quadrupole_moment_norm": 7.9973973929, 
			 "total_energy": -741.716149174, 
			 "HOMO_LUMO_gap": 0.17332, 
			 "cosmo_polarized_energy": -15.83, 
			 "cosmo_cavitation_energy": 32.75, 
			 "cosmo_dispersion_energy": -23.32, 
			 "cosmo_repulsion_energy": 1.81, 
			 "cosmo_total_nonelectrostatic_energy": 11.24, 
			 "SMD_solvation_energy": 4.65 
		},
		"coords": [
			{
				"x": -0.055976961,
				"y": -1.2923387032,
				"z": -2.2774365369,
				"element": "C" 
			},
			{
				"x": -0.0112201339,
				"y": -0.995634047,
				"z": -0.7973288649,
				"element": "C" 
			},
			{
				"x": -0.0821861325,
				"y": -2.0459699394,
				"z": 0.00015033,
				"element": "N" 
			},
			{
				"x": -0.0318915748,
				"y": -1.8316535838,
				"z": 1.3295148906,
				"element": "C" 
			},
			{
				"x": -0.0771989841,
				"y": -2.677493578,
				"z": 2.4377589923,
				"element": "C" 
			},
			{
				"x": 0.0224406486,
				"y": -1.8194306319,
				"z": 3.5402593146,
				"element": "C" 
			},
			{
				"x": 0.1243948013,
				"y": -0.5216914854,
				"z": 3.2062344993,
				"element": "N" 
			},
			{
				"x": 0.0910416418,
				"y": -0.5388772939,
				"z": 1.8527511343,
				"element": "N" 
			},
			{
				"x": 0.1632648801,
				"y": 0.5695986067,
				"z": 1.0498996268,
				"element": "C" 
			},
			{
				"x": 0.2854186628,
				"y": 1.8764725368,
				"z": 1.7711982221,
				"element": "C" 
			},
			{
				"x": 0.1157084958,
				"y": 0.3596698573,
				"z": -0.3159280795,
				"element": "C" 
			},
			{
				"x": 0.172241468,
				"y": 1.5190659706,
				"z": -1.2905599295,
				"element": "C" 
			},
			{
				"x": -1.2112956929,
				"y": 2.1173618563,
				"z": -1.5936186474,
				"element": "C" 
			},
			{
				"x": -1.1477534839,
				"y": 3.2394924463,
				"z": -2.6077163094,
				"element": "C" 
			},
			{
				"x": -2.3718009185,
				"y": 3.7734477676,
				"z": -2.8345111487,
				"element": "O" 
			},
			{
				"x": -0.1476149981,
				"y": 3.6347283274,
				"z": -3.1657135962,
				"element": "O" 
			},
			{
				"x": 0.8825330583,
				"y": -1.0146636855,
				"z": -2.7718460229,
				"element": "H" 
			},
			{
				"x": -0.8597370975,
				"y": -0.7470616315,
				"z": -2.7845949986,
				"element": "H" 
			},
			{
				"x": -0.2163101274,
				"y": -2.3620847899,
				"z": -2.4147058724,
				"element": "H" 
			},
			{
				"x": -0.1686714474,
				"y": -3.7518350217,
				"z": 2.4215658614,
				"element": "H" 
			},
			{
				"x": 0.025107483,
				"y": -2.0843716458,
				"z": 4.5897568118,
				"element": "H" 
			},
			{
				"x": -0.5693017482,
				"y": 2.0143740908,
				"z": 2.4413198051,
				"element": "H" 
			},
			{
				"x": 0.3434315855,
				"y": 2.7186879682,
				"z": 1.0837840599,
				"element": "H" 
			},
			{
				"x": 1.1734641393,
				"y": 1.8688415366,
				"z": 2.4113257057,
				"element": "H" 
			},
			{
				"x": 0.6270099302,
				"y": 1.1988425234,
				"z": -2.2303655996,
				"element": "H" 
			},
			{
				"x": 0.8248917643,
				"y": 2.3114334708,
				"z": -0.9155179434,
				"element": "H" 
			},
			{
				"x": -1.6864863202,
				"y": 2.5057513958,
				"z": -0.6849205094,
				"element": "H" 
			},
			{
				"x": -1.9013931446,
				"y": 1.3556901986,
				"z": -1.9766252809,
				"element": "H" 
			},
			{
				"x": -2.2437097939,
				"y": 4.4771474837,
				"z": -3.492929914,
				"element": "H" 
			}
		],
		 "valence_orbital": [ 
			{
				"type": "occ",
				"energy": -0.30469,
				"method": "rhf"
			},
			{
				"type": "occ",
				"energy": -0.28563,
				"method": "rhf"
			},
			{
				"type": "occ",
				"energy": -0.25771,
				"method": "rhf"
			},
			{
				"type": "occ",
				"energy": -0.24649,
				"method": "rhf"
			},
			{
				"type": "occ",
				"energy": -0.21433,
				"method": "rhf"
			},
			{
				"type": "unocc",
				"energy": -0.04101,
				"method": "rhf"
			},
			{
				"type": "unocc",
				"energy": -0.00575,
				"method": "rhf"
			},
			{
				"type": "unocc",
				"energy": 0.00076,
				"method": "rhf"
			},
			{
				"type": "unocc",
				"energy": 0.06604,
				"method": "rhf"
			},
			{
				"type": "unocc",
				"energy": 0.07414,
				"method": "rhf"
			}
		],
		"cosmo_sigma_profile": { 
			"-0.025": 0.0,
			"-0.024": 0.0,
			"-0.023": 0.0,
			"-0.022": 0.0,
			"-0.021": 0.0,
			"-0.02": 0.0,
			"-0.019": 0.0,
			"-0.018": 0.62458628722,
			"-0.017": 0.996010005432,
			"-0.016": 0.754920445789,
			"-0.015": 1.10958960984,
			"-0.014": 0.580565258661,
			"-0.013": 0.406344975329,
			"-0.012": 0.425242134028,
			"-0.011": 1.43600622168,
			"-0.01": 0.658819253034,
			"-0.009": 0.69990192592,
			"-0.008": 0.807067801357,
			"-0.007": 7.44555901224,
			"-0.006": 16.4135630238,
			"-0.005": 20.8462074529,
			"-0.004": 21.4924990333,
			"-0.003": 21.9465656242,
			"-0.002": 24.6209349579,
			"-0.001": 21.6736692096,
			"0.0": 18.2569335947,
			"0.001": 11.2659306082,
			"0.002": 10.2850902519,
			"0.003": 8.54117966801,
			"0.004": 12.7121608494,
			"0.005": 10.540300285,
			"0.006": 6.95045205758,
			"0.007": 4.66456255001,
			"0.008": 6.27476409769,
			"0.009": 5.98638655719,
			"0.01": 4.4485905354,
			"0.011": 5.41804761607,
			"0.012": 6.80990221222,
			"0.013": 2.04080559109,
			"0.014": 1.65500089933,
			"0.015": 0.78775768853,
			"0.016": 0.0194061895472,
			"0.017": 0.0,
			"0.018": 0.0,
			"0.019": 0.0,
			"0.02": 0.0,
			"0.021": 0.0,
			"0.022": 0.0,
			"0.023": 0.0,
			"0.024": 0.0,
			"0.025": 0.0
		}
	}
}
