{
	 "smiles": "CC1=CC=C(C=C1)C1=NNC(NN=C(C(=O)C2=CC=CS2)C(=O)C(F)(F)F)=C1", 
	 "Tm": 493.15, 
	 "num_atms": 41, 
	 "gaussian": { 
		 "optdone": 1, 
		 "sigma_profile": "yes", 
		 "theory": "DFT", 
		 "functional": "B3LYP", 
		 "basiset": "6-31G**", 
		 "properties": { 
			 "R2extent": 18597.6492, 
			 "electric_dipole_moment_norm": 5.44724448781, 
			 "electric_quadrupole_moment_norm": 24.9375807766, 
			 "total_energy": -1760.81041636, 
			 "HOMO_LUMO_gap": 0.09329, 
			 "cosmo_polarized_energy": -17.34, 
			 "cosmo_cavitation_energy": 50.71, 
			 "cosmo_dispersion_energy": -35.19, 
			 "cosmo_repulsion_energy": 2.55, 
			 "cosmo_total_nonelectrostatic_energy": 18.07, 
			 "SMD_solvation_energy": 9.17 
		},
		"coords": [
			{
				"x": 3.0259731605,
				"y": -1.9271008439,
				"z": 6.0418620441,
				"element": "C" 
			},
			{
				"x": 2.2505572439,
				"y": -1.3405223842,
				"z": 4.8861497856,
				"element": "C" 
			},
			{
				"x": 2.5806270748,
				"y": -0.0804213226,
				"z": 4.362775128,
				"element": "C" 
			},
			{
				"x": 1.885334752,
				"y": 0.4617527067,
				"z": 3.2883054132,
				"element": "C" 
			},
			{
				"x": 0.8226126131,
				"y": -0.2398019341,
				"z": 2.6927207697,
				"element": "C" 
			},
			{
				"x": 0.487423257,
				"y": -1.496361314,
				"z": 3.2148688138,
				"element": "C" 
			},
			{
				"x": 1.1907030217,
				"y": -2.0344536065,
				"z": 4.2922777528,
				"element": "C" 
			},
			{
				"x": 0.08784105,
				"y": 0.3407702853,
				"z": 1.5569930696,
				"element": "C" 
			},
			{
				"x": 0.3676831023,
				"y": 1.5776433426,
				"z": 1.1226763745,
				"element": "N" 
			},
			{
				"x": -0.4737208437,
				"y": 1.7896205384,
				"z": 0.0934950911,
				"element": "N" 
			},
			{
				"x": -1.276135552,
				"y": 0.7205247897,
				"z": -0.1525198898,
				"element": "C" 
			},
			{
				"x": -2.2745730917,
				"y": 0.7528184076,
				"z": -1.1623029263,
				"element": "N" 
			},
			{
				"x": -1.6857115405,
				"y": 0.6433421784,
				"z": -2.4972396247,
				"element": "N" 
			},
			{
				"x": -1.6583718357,
				"y": 1.7502479722,
				"z": -3.1249353029,
				"element": "C" 
			},
			{
				"x": -1.1022991064,
				"y": 1.8703378049,
				"z": -4.5179688469,
				"element": "C" 
			},
			{
				"x": -1.1773375905,
				"y": 2.9977018494,
				"z": -5.0100744569,
				"element": "O" 
			},
			{
				"x": -0.5181919902,
				"y": 0.7401420597,
				"z": -5.2303528866,
				"element": "C" 
			},
			{
				"x": -0.0176754182,
				"y": 0.8466209925,
				"z": -6.518039881,
				"element": "C" 
			},
			{
				"x": 0.5062081791,
				"y": -0.3668948716,
				"z": -7.0166044986,
				"element": "C" 
			},
			{
				"x": 0.4019360262,
				"y": -1.3896910608,
				"z": -6.1022880118,
				"element": "C" 
			},
			{
				"x": -0.3344621567,
				"y": -0.8941583219,
				"z": -4.6252065939,
				"element": "S" 
			},
			{
				"x": -2.1770607708,
				"y": 3.0822348894,
				"z": -2.58624442,
				"element": "C" 
			},
			{
				"x": -1.5926487207,
				"y": 3.7461045715,
				"z": -1.7636415079,
				"element": "O" 
			},
			{
				"x": -3.5472671052,
				"y": 3.5690138869,
				"z": -3.1264913361,
				"element": "C" 
			},
			{
				"x": -4.4160495616,
				"y": 3.6424594,
				"z": -2.1056893183,
				"element": "F" 
			},
			{
				"x": -3.4367354855,
				"y": 4.7762931096,
				"z": -3.6831659636,
				"element": "F" 
			},
			{
				"x": -4.0372026501,
				"y": 2.7060991425,
				"z": -4.036710759,
				"element": "F" 
			},
			{
				"x": -0.941412845,
				"y": -0.2487496812,
				"z": 0.7736343949,
				"element": "C" 
			},
			{
				"x": 2.5310524575,
				"y": -2.814621819,
				"z": 6.4464065128,
				"element": "H" 
			},
			{
				"x": 3.1387900382,
				"y": -1.2036647047,
				"z": 6.8568559469,
				"element": "H" 
			},
			{
				"x": 4.0366824398,
				"y": -2.2236812034,
				"z": 5.7349173627,
				"element": "H" 
			},
			{
				"x": 3.3974997811,
				"y": 0.484118821,
				"z": 4.806918121,
				"element": "H" 
			},
			{
				"x": 2.1526152798,
				"y": 1.4368718279,
				"z": 2.8954042451,
				"element": "H" 
			},
			{
				"x": -0.3346894294,
				"y": -2.0616416453,
				"z": 2.785416275,
				"element": "H" 
			},
			{
				"x": 0.9075869344,
				"y": -3.0104739069,
				"z": 4.6791699096,
				"element": "H" 
			},
			{
				"x": -0.4932903496,
				"y": 2.6812406947,
				"z": -0.3870490052,
				"element": "H" 
			},
			{
				"x": -2.8181977575,
				"y": -0.1016554031,
				"z": -1.0637383839,
				"element": "H" 
			},
			{
				"x": -0.0422500824,
				"y": 1.7857452902,
				"z": -7.057269812,
				"element": "H" 
			},
			{
				"x": 0.9415814228,
				"y": -0.4834303248,
				"z": -8.0018193706,
				"element": "H" 
			},
			{
				"x": 0.7226658226,
				"y": -2.4165372418,
				"z": -6.2212175438,
				"element": "H" 
			},
			{
				"x": -1.3682897735,
				"y": -1.2369429714,
				"z": 0.8549233295,
				"element": "H" 
			}
		],
		 "valence_orbital": [ 
			{
				"type": "occ",
				"energy": -0.27407,
				"method": "rhf"
			},
			{
				"type": "occ",
				"energy": -0.26349,
				"method": "rhf"
			},
			{
				"type": "occ",
				"energy": -0.24205,
				"method": "rhf"
			},
			{
				"type": "occ",
				"energy": -0.2332,
				"method": "rhf"
			},
			{
				"type": "occ",
				"energy": -0.20783,
				"method": "rhf"
			},
			{
				"type": "unocc",
				"energy": -0.11454,
				"method": "rhf"
			},
			{
				"type": "unocc",
				"energy": -0.08467,
				"method": "rhf"
			},
			{
				"type": "unocc",
				"energy": -0.04482,
				"method": "rhf"
			},
			{
				"type": "unocc",
				"energy": -0.0148,
				"method": "rhf"
			},
			{
				"type": "unocc",
				"energy": 0.00473,
				"method": "rhf"
			}
		],
		"cosmo_sigma_profile": { 
			"-0.025": 0.0,
			"-0.024": 0.0,
			"-0.023": 0.0,
			"-0.022": 0.0,
			"-0.021": 0.0,
			"-0.02": 0.0,
			"-0.019": 0.0,
			"-0.018": 0.0,
			"-0.017": 0.0,
			"-0.016": 0.0527290382674,
			"-0.015": 1.02550784871,
			"-0.014": 1.43989427892,
			"-0.013": 1.05427437377,
			"-0.012": 1.48166138692,
			"-0.011": 1.01970689312,
			"-0.01": 2.67707531298,
			"-0.009": 4.92410736435,
			"-0.008": 8.39409300166,
			"-0.007": 12.4420333151,
			"-0.006": 12.0920762843,
			"-0.005": 17.361937272,
			"-0.004": 24.3591321718,
			"-0.003": 26.380425507,
			"-0.002": 24.0094124668,
			"-0.001": 25.5347011033,
			"0.0": 36.1174886834,
			"0.001": 53.7426673044,
			"0.002": 46.0237934365,
			"0.003": 27.4935664761,
			"0.004": 26.7661488923,
			"0.005": 19.8355260782,
			"0.006": 15.1160430153,
			"0.007": 5.20248161802,
			"0.008": 3.87367185915,
			"0.009": 3.47024000646,
			"0.01": 3.58424822999,
			"0.011": 1.55347309072,
			"0.012": 0.806550256943,
			"0.013": 1.29481398419,
			"0.014": 0.640813528633,
			"0.015": 0.0639913617139,
			"0.016": 0.0,
			"0.017": 0.0,
			"0.018": 0.0,
			"0.019": 0.0,
			"0.02": 0.0,
			"0.021": 0.0,
			"0.022": 0.0,
			"0.023": 0.0,
			"0.024": 0.0,
			"0.025": 0.0
		}
	}
}
