{
	 "smiles": "COCCNC(=O)NC(=O)CCl", 
	 "Tm": 377.15, 
	 "num_atms": 23, 
	 "gaussian": { 
		 "optdone": 1, 
		 "sigma_profile": "yes", 
		 "theory": "DFT", 
		 "functional": "B3LYP", 
		 "basiset": "6-31G**", 
		 "properties": { 
			 "R2extent": 4111.0731, 
			 "electric_dipole_moment_norm": 4.70528712195, 
			 "electric_quadrupole_moment_norm": 23.6143695645, 
			 "total_energy": -1030.63892406, 
			 "HOMO_LUMO_gap": 0.23582, 
			 "cosmo_polarized_energy": -22.52, 
			 "cosmo_cavitation_energy": 29.31, 
			 "cosmo_dispersion_energy": -20.97, 
			 "cosmo_repulsion_energy": 1.73, 
			 "cosmo_total_nonelectrostatic_energy": 10.07, 
			 "SMD_solvation_energy": 6.04 
		},
		"coords": [
			{
				"x": -0.1084035243,
				"y": 2.9423096221,
				"z": 2.184342797,
				"element": "C" 
			},
			{
				"x": 0.06075237,
				"y": 2.8974313101,
				"z": 0.7778152518,
				"element": "O" 
			},
			{
				"x": 1.1410227098,
				"y": 2.1042464384,
				"z": 0.3418843205,
				"element": "C" 
			},
			{
				"x": 0.7764776255,
				"y": 0.6138308612,
				"z": 0.2650913282,
				"element": "C" 
			},
			{
				"x": 1.916484531,
				"y": -0.1391684747,
				"z": -0.2407248885,
				"element": "N" 
			},
			{
				"x": 2.0161357039,
				"y": -1.501555782,
				"z": -0.4263093678,
				"element": "C" 
			},
			{
				"x": 3.0730712168,
				"y": -2.062966822,
				"z": -0.6274841862,
				"element": "O" 
			},
			{
				"x": 0.7624824025,
				"y": -2.1590991902,
				"z": -0.3855208371,
				"element": "N" 
			},
			{
				"x": 0.5627563354,
				"y": -3.5201531223,
				"z": -0.489125075,
				"element": "C" 
			},
			{
				"x": 1.4120274537,
				"y": -4.3779106507,
				"z": -0.5880737679,
				"element": "O" 
			},
			{
				"x": -0.9001434346,
				"y": -3.9947667862,
				"z": -0.4765740421,
				"element": "C" 
			},
			{
				"x": -2.1920853821,
				"y": -2.7329213092,
				"z": -0.2569343113,
				"element": "Cl" 
			},
			{
				"x": 0.800211697,
				"y": 3.3065367264,
				"z": 2.6871071873,
				"element": "H" 
			},
			{
				"x": -0.3747091942,
				"y": 1.9652731782,
				"z": 2.6123813425,
				"element": "H" 
			},
			{
				"x": -0.9248995877,
				"y": 3.6402823204,
				"z": 2.3815425722,
				"element": "H" 
			},
			{
				"x": 1.4091482689,
				"y": 2.4568680821,
				"z": -0.6599299386,
				"element": "H" 
			},
			{
				"x": 2.0209029132,
				"y": 2.2379342606,
				"z": 0.994177886,
				"element": "H" 
			},
			{
				"x": -0.0821205744,
				"y": 0.5226007657,
				"z": -0.412474755,
				"element": "H" 
			},
			{
				"x": 0.4620418075,
				"y": 0.2533076747,
				"z": 1.2549669571,
				"element": "H" 
			},
			{
				"x": 2.8305806148,
				"y": 0.2897867089,
				"z": -0.1868790514,
				"element": "H" 
			},
			{
				"x": -0.075700844,
				"y": -1.5989021917,
				"z": -0.3033151067,
				"element": "H" 
			},
			{
				"x": -1.1017292975,
				"y": -4.4945964094,
				"z": -1.4243036001,
				"element": "H" 
			},
			{
				"x": -1.0141038116,
				"y": -4.7138672103,
				"z": 0.3342392852,
				"element": "H" 
			}
		],
		 "valence_orbital": [ 
			{
				"type": "occ",
				"energy": -0.29003,
				"method": "rhf"
			},
			{
				"type": "occ",
				"energy": -0.28764,
				"method": "rhf"
			},
			{
				"type": "occ",
				"energy": -0.27682,
				"method": "rhf"
			},
			{
				"type": "occ",
				"energy": -0.2634,
				"method": "rhf"
			},
			{
				"type": "occ",
				"energy": -0.25359,
				"method": "rhf"
			},
			{
				"type": "unocc",
				"energy": -0.01777,
				"method": "rhf"
			},
			{
				"type": "unocc",
				"energy": 0.00362,
				"method": "rhf"
			},
			{
				"type": "unocc",
				"energy": 0.06051,
				"method": "rhf"
			},
			{
				"type": "unocc",
				"energy": 0.06983,
				"method": "rhf"
			},
			{
				"type": "unocc",
				"energy": 0.07409,
				"method": "rhf"
			}
		],
		"cosmo_sigma_profile": { 
			"-0.025": 0.0,
			"-0.024": 0.0,
			"-0.023": 0.0,
			"-0.022": 0.0,
			"-0.021": 0.0,
			"-0.02": 0.0,
			"-0.019": 0.0,
			"-0.018": 0.0,
			"-0.017": 0.0,
			"-0.016": 0.0,
			"-0.015": 0.0489268311777,
			"-0.014": 0.581472390683,
			"-0.013": 1.18156668019,
			"-0.012": 1.25585438612,
			"-0.011": 1.30404520928,
			"-0.01": 3.66094920273,
			"-0.009": 7.86981566477,
			"-0.008": 6.32608721718,
			"-0.007": 8.91417085435,
			"-0.006": 13.6761617743,
			"-0.005": 20.3062711205,
			"-0.004": 20.463559422,
			"-0.003": 17.3107929223,
			"-0.002": 18.9926109052,
			"-0.001": 13.4163759305,
			"0.0": 8.67440364798,
			"0.001": 8.27357491003,
			"0.002": 7.77284498625,
			"0.003": 7.93567760943,
			"0.004": 9.11223137492,
			"0.005": 9.76311772515,
			"0.006": 4.43423495024,
			"0.007": 3.23110550057,
			"0.008": 3.45546023807,
			"0.009": 3.19130912583,
			"0.01": 3.34515500888,
			"0.011": 6.25666423567,
			"0.012": 7.44117958908,
			"0.013": 8.40435170334,
			"0.014": 2.57815608598,
			"0.015": 1.37713711314,
			"0.016": 1.52653484865,
			"0.017": 0.893017072782,
			"0.018": 0.173046802724,
			"0.019": 0.0,
			"0.02": 0.0,
			"0.021": 0.0,
			"0.022": 0.0,
			"0.023": 0.0,
			"0.024": 0.0,
			"0.025": 0.0
		}
	}
}
