{
	 "smiles": "CCCOC1=CC=C(C=C1)C(N)=S", 
	 "Tm": 416.15, 
	 "num_atms": 26, 
	 "gaussian": { 
		 "optdone": 1, 
		 "sigma_profile": "yes", 
		 "theory": "DFT", 
		 "functional": "B3LYP", 
		 "basiset": "6-31G**", 
		 "properties": { 
			 "R2extent": 5058.3658, 
			 "electric_dipole_moment_norm": 4.84576702907, 
			 "electric_quadrupole_moment_norm": 23.7677337977, 
			 "total_energy": -917.074326203, 
			 "HOMO_LUMO_gap": 0.14867, 
			 "cosmo_polarized_energy": -16.28, 
			 "cosmo_cavitation_energy": 31.09, 
			 "cosmo_dispersion_energy": -23.16, 
			 "cosmo_repulsion_energy": 1.82, 
			 "cosmo_total_nonelectrostatic_energy": 9.75, 
			 "SMD_solvation_energy": 4.6 
		},
		"coords": [
			{
				"x": -5.2463690021,
				"y": 0.140413386,
				"z": -0.7315488947,
				"element": "C" 
			},
			{
				"x": -4.9176722482,
				"y": -1.3094071017,
				"z": -0.3632352586,
				"element": "C" 
			},
			{
				"x": -3.433904388,
				"y": -1.6392892638,
				"z": -0.4587518127,
				"element": "C" 
			},
			{
				"x": -2.7410764037,
				"y": -0.8327866372,
				"z": 0.4992007014,
				"element": "O" 
			},
			{
				"x": -1.3917345184,
				"y": -0.940389745,
				"z": 0.6024740006,
				"element": "C" 
			},
			{
				"x": -0.7865590818,
				"y": -0.1317249922,
				"z": 1.5784263872,
				"element": "C" 
			},
			{
				"x": 0.5877584278,
				"y": -0.1652339082,
				"z": 1.7567133911,
				"element": "C" 
			},
			{
				"x": 1.4051123563,
				"y": -1.0093508022,
				"z": 0.9765423766,
				"element": "C" 
			},
			{
				"x": 0.7823711558,
				"y": -1.8237348273,
				"z": 0.0202991651,
				"element": "C" 
			},
			{
				"x": -0.5948327773,
				"y": -1.7919639408,
				"z": -0.1775848285,
				"element": "C" 
			},
			{
				"x": 2.8771823932,
				"y": -1.0509344485,
				"z": 1.1551275095,
				"element": "C" 
			},
			{
				"x": 3.4310642819,
				"y": 0.0762105852,
				"z": 1.6661972239,
				"element": "N" 
			},
			{
				"x": 3.823396596,
				"y": -2.3826664059,
				"z": 0.79662932,
				"element": "S" 
			},
			{
				"x": -4.9513450796,
				"y": 0.3626228443,
				"z": -1.7635177243,
				"element": "H" 
			},
			{
				"x": -6.319692437,
				"y": 0.3336293648,
				"z": -0.6423988606,
				"element": "H" 
			},
			{
				"x": -4.7193431943,
				"y": 0.837406706,
				"z": -0.0745791033,
				"element": "H" 
			},
			{
				"x": -5.4521983491,
				"y": -2.0002703495,
				"z": -1.027197886,
				"element": "H" 
			},
			{
				"x": -5.2568847152,
				"y": -1.5273333241,
				"z": 0.6563572446,
				"element": "H" 
			},
			{
				"x": -3.0525864003,
				"y": -1.4252659333,
				"z": -1.4677227587,
				"element": "H" 
			},
			{
				"x": -3.2556812708,
				"y": -2.7018454837,
				"z": -0.2444919326,
				"element": "H" 
			},
			{
				"x": -1.4190693613,
				"y": 0.5023565226,
				"z": 2.1907573005,
				"element": "H" 
			},
			{
				"x": 1.0244848382,
				"y": 0.4386727353,
				"z": 2.5467947081,
				"element": "H" 
			},
			{
				"x": 1.4014981671,
				"y": -2.4866476592,
				"z": -0.5743475199,
				"element": "H" 
			},
			{
				"x": -1.035694802,
				"y": -2.4293837976,
				"z": -0.9342366225,
				"element": "H" 
			},
			{
				"x": 4.4349690856,
				"y": 0.0993932651,
				"z": 1.7690970502,
				"element": "H" 
			},
			{
				"x": 2.9311067272,
				"y": 0.952823211,
				"z": 1.6570968236,
				"element": "H" 
			}
		],
		 "valence_orbital": [ 
			{
				"type": "occ",
				"energy": -0.31997,
				"method": "rhf"
			},
			{
				"type": "occ",
				"energy": -0.26262,
				"method": "rhf"
			},
			{
				"type": "occ",
				"energy": -0.23937,
				"method": "rhf"
			},
			{
				"type": "occ",
				"energy": -0.21759,
				"method": "rhf"
			},
			{
				"type": "occ",
				"energy": -0.19988,
				"method": "rhf"
			},
			{
				"type": "unocc",
				"energy": -0.05121,
				"method": "rhf"
			},
			{
				"type": "unocc",
				"energy": -0.01208,
				"method": "rhf"
			},
			{
				"type": "unocc",
				"energy": 0.0346,
				"method": "rhf"
			},
			{
				"type": "unocc",
				"energy": 0.07496,
				"method": "rhf"
			},
			{
				"type": "unocc",
				"energy": 0.08642,
				"method": "rhf"
			}
		],
		"cosmo_sigma_profile": { 
			"-0.025": 0.0,
			"-0.024": 0.0,
			"-0.023": 0.0,
			"-0.022": 0.0,
			"-0.021": 0.0,
			"-0.02": 0.0,
			"-0.019": 0.0,
			"-0.018": 0.0,
			"-0.017": 0.0,
			"-0.016": 0.0247274150693,
			"-0.015": 1.32005515757,
			"-0.014": 2.1614494048,
			"-0.013": 2.75784019305,
			"-0.012": 2.21847462828,
			"-0.011": 2.44775054435,
			"-0.01": 2.74531612425,
			"-0.009": 1.83378163669,
			"-0.008": 1.65340588944,
			"-0.007": 4.50035742529,
			"-0.006": 8.87134080739,
			"-0.005": 13.3274092373,
			"-0.004": 16.7999535183,
			"-0.003": 19.4850340428,
			"-0.002": 18.3807115202,
			"-0.001": 18.695419119,
			"0.0": 18.1620056459,
			"0.001": 20.3087119507,
			"0.002": 14.5095442976,
			"0.003": 16.3961707406,
			"0.004": 16.6447947472,
			"0.005": 7.30354223119,
			"0.006": 6.39455606014,
			"0.007": 5.55723045314,
			"0.008": 5.81147271207,
			"0.009": 7.93909829592,
			"0.01": 5.47644166439,
			"0.011": 3.72809322489,
			"0.012": 2.76609536296,
			"0.013": 0.143595696587,
			"0.014": 0.0,
			"0.015": 0.0,
			"0.016": 0.0,
			"0.017": 0.0,
			"0.018": 0.0,
			"0.019": 0.0,
			"0.02": 0.0,
			"0.021": 0.0,
			"0.022": 0.0,
			"0.023": 0.0,
			"0.024": 0.0,
			"0.025": 0.0
		}
	}
}
