{
	 "smiles": "CC1=CC(I)=C(C)C(C)=C1C", 
	 "Tm": 304.15, 
	 "num_atms": 24, 
	 "gaussian": { 
		 "optdone": 1, 
		 "sigma_profile": "no", 
		 "theory": "DFT", 
		 "functional": "B3LYP", 
		 "basiset": "6-31G**", 
		 "properties": { 
			 "R2extent": 2122.9858, 
			 "electric_dipole_moment_norm": 2.67517930053, 
			 "electric_quadrupole_moment_norm": 4.88399765254, 
			 "total_energy": -400.306608747, 
			 "HOMO_LUMO_gap": 0.19341, 
			 "cosmo_polarized_energy": -91099.1, 
			 "cosmo_cavitation_energy": 28.27, 
			 "cosmo_dispersion_energy": -22.13, 
			 "cosmo_repulsion_energy": 1.72, 
			 "cosmo_total_nonelectrostatic_energy": 7.87, 
			 "SMD_solvation_energy": 4.02 
		},
		"coords": [
			{
				"x": -2.2141594571,
				"y": -1.3786778115,
				"z": -2.322858702,
				"element": "C" 
			},
			{
				"x": -1.1745692143,
				"y": -0.7387061036,
				"z": -1.4273311607,
				"element": "C" 
			},
			{
				"x": -1.2835391946,
				"y": -0.9182102722,
				"z": -0.0477435479,
				"element": "C" 
			},
			{
				"x": -0.3511204147,
				"y": -0.354950356,
				"z": 0.8204974031,
				"element": "C" 
			},
			{
				"x": -0.6759711951,
				"y": -0.7299283662,
				"z": 2.9028307394,
				"element": "I" 
			},
			{
				"x": 0.7221083249,
				"y": 0.4125586158,
				"z": 0.3543850847,
				"element": "C" 
			},
			{
				"x": 1.7556949736,
				"y": 1.0351999515,
				"z": 1.2614874491,
				"element": "C" 
			},
			{
				"x": 0.8229765961,
				"y": 0.6045986581,
				"z": -1.047182209,
				"element": "C" 
			},
			{
				"x": 1.9711387269,
				"y": 1.4460012266,
				"z": -1.5668483246,
				"element": "C" 
			},
			{
				"x": -0.1067986332,
				"y": 0.0300440309,
				"z": -1.9365616244,
				"element": "C" 
			},
			{
				"x": 0.0389977812,
				"y": 0.2345689426,
				"z": -3.4318558368,
				"element": "C" 
			},
			{
				"x": -2.9594738555,
				"y": -1.9112391851,
				"z": -1.7266090599,
				"element": "H" 
			},
			{
				"x": -2.7467340319,
				"y": -0.6369935614,
				"z": -2.928938247,
				"element": "H" 
			},
			{
				"x": -1.7698915506,
				"y": -2.1029437976,
				"z": -3.0154668711,
				"element": "H" 
			},
			{
				"x": -2.1043140674,
				"y": -1.5059379631,
				"z": 0.3479776098,
				"element": "H" 
			},
			{
				"x": 2.7710520987,
				"y": 0.7802536993,
				"z": 0.9395490323,
				"element": "H" 
			},
			{
				"x": 1.6398222905,
				"y": 0.7057323257,
				"z": 2.293327216,
				"element": "H" 
			},
			{
				"x": 1.684308583,
				"y": 2.1300358914,
				"z": 1.2537412294,
				"element": "H" 
			},
			{
				"x": 2.9343626605,
				"y": 0.9380568591,
				"z": -1.4283141006,
				"element": "H" 
			},
			{
				"x": 2.0409023798,
				"y": 2.3989642762,
				"z": -1.0320659734,
				"element": "H" 
			},
			{
				"x": 1.8737175227,
				"y": 1.6742151007,
				"z": -2.627446949,
				"element": "H" 
			},
			{
				"x": 1.0250050049,
				"y": -0.0816583012,
				"z": -3.7891618708,
				"element": "H" 
			},
			{
				"x": -0.7035256799,
				"y": -0.3316018442,
				"z": -3.9938866828,
				"element": "H" 
			},
			{
				"x": -0.0801896484,
				"y": 1.2884179842,
				"z": -3.7110246038,
				"element": "H" 
			}
		],
		 "valence_orbital": [ 
			{
				"type": "occ",
				"energy": -0.32049,
				"method": "rhf"
			},
			{
				"type": "occ",
				"energy": -0.27611,
				"method": "rhf"
			},
			{
				"type": "occ",
				"energy": -0.25765,
				"method": "rhf"
			},
			{
				"type": "occ",
				"energy": -0.23507,
				"method": "rhf"
			},
			{
				"type": "occ",
				"energy": -0.22371,
				"method": "rhf"
			},
			{
				"type": "unocc",
				"energy": -0.0303,
				"method": "rhf"
			},
			{
				"type": "unocc",
				"energy": -0.00601,
				"method": "rhf"
			},
			{
				"type": "unocc",
				"energy": -0.00177,
				"method": "rhf"
			},
			{
				"type": "unocc",
				"energy": 0.04429,
				"method": "rhf"
			},
			{
				"type": "unocc",
				"energy": 0.05437,
				"method": "rhf"
			}
		],
		"cosmo_sigma_profile": { 
			"0.0": 0.0,
			"0.0": 0.0,
			"0.0": 0.0,
			"0.0": 0.0,
			"0.0": 0.0,
			"0.0": 0.0,
			"0.0": 0.0,
			"0.0": 0.0,
			"0.0": 0.0,
			"0.0": 0.0,
			"0.0": 0.0,
			"0.0": 0.0,
			"0.0": 0.0,
			"0.0": 0.0,
			"0.0": 0.0,
			"0.0": 0.0,
			"0.0": 0.0,
			"0.0": 0.0,
			"0.0": 0.0,
			"0.0": 0.0,
			"0.0": 0.0,
			"0.0": 0.0,
			"0.0": 0.0,
			"0.0": 0.0,
			"0.0": 0.0,
			"0.0": 0.0,
			"0.0": 0.0,
			"0.0": 0.0,
			"0.0": 0.0,
			"0.0": 0.0,
			"0.0": 0.0,
			"0.0": 0.0,
			"0.0": 0.0,
			"0.0": 0.0,
			"0.0": 0.0,
			"0.0": 0.0,
			"0.0": 0.0,
			"0.0": 0.0,
			"0.0": 0.0,
			"0.0": 0.0,
			"0.0": 0.0,
			"0.0": 0.0,
			"0.0": 0.0,
			"0.0": 0.0,
			"0.0": 0.0,
			"0.0": 0.0,
			"0.0": 0.0,
			"0.0": 0.0,
			"0.0": 0.0,
			"0.0": 0.0,
			"0.0": 0.0
		}
	}
}
