{
	 "smiles": "OCC1=CN=C(Cl)C=C1", 
	 "Tm": 321.15, 
	 "num_atms": 15, 
	 "gaussian": { 
		 "optdone": 1, 
		 "sigma_profile": "yes", 
		 "theory": "DFT", 
		 "functional": "B3LYP", 
		 "basiset": "6-31G**", 
		 "properties": { 
			 "R2extent": 1810.9767, 
			 "electric_dipole_moment_norm": 2.56037492762, 
			 "electric_quadrupole_moment_norm": 11.775649901, 
			 "total_energy": -822.40695065, 
			 "HOMO_LUMO_gap": 0.21751, 
			 "cosmo_polarized_energy": -10.5, 
			 "cosmo_cavitation_energy": 21.08, 
			 "cosmo_dispersion_energy": -15.9, 
			 "cosmo_repulsion_energy": 1.32, 
			 "cosmo_total_nonelectrostatic_energy": 6.5, 
			 "SMD_solvation_energy": 2.07 
		},
		"coords": [
			{
				"x": 3.5099895658,
				"y": -0.6882238013,
				"z": 1.5702977074,
				"element": "O" 
			},
			{
				"x": 2.25074766,
				"y": -1.3398425537,
				"z": 1.6502222787,
				"element": "C" 
			},
			{
				"x": 1.1244320029,
				"y": -0.5431886531,
				"z": 1.0247820659,
				"element": "C" 
			},
			{
				"x": -0.1727662831,
				"y": -0.5787026984,
				"z": 1.5393271938,
				"element": "C" 
			},
			{
				"x": -1.2099426512,
				"y": 0.0840691041,
				"z": 1.0069863105,
				"element": "N" 
			},
			{
				"x": -0.9713130786,
				"y": 0.8162961032,
				"z": -0.0642484721,
				"element": "C" 
			},
			{
				"x": -2.3415257751,
				"y": 1.6846534808,
				"z": -0.7546952973,
				"element": "Cl" 
			},
			{
				"x": 0.2810481131,
				"y": 0.950929793,
				"z": -0.6727836337,
				"element": "C" 
			},
			{
				"x": 1.3416083805,
				"y": 0.2521381741,
				"z": -0.1083486122,
				"element": "C" 
			},
			{
				"x": 3.4477305243,
				"y": 0.1356423928,
				"z": 2.0721301818,
				"element": "H" 
			},
			{
				"x": 2.3839507204,
				"y": -2.2848574287,
				"z": 1.1106370992,
				"element": "H" 
			},
			{
				"x": 1.9881597166,
				"y": -1.6013654749,
				"z": 2.6868605711,
				"element": "H" 
			},
			{
				"x": -0.396238768,
				"y": -1.1668448234,
				"z": 2.4286707321,
				"element": "H" 
			},
			{
				"x": 0.4076691998,
				"y": 1.5772363623,
				"z": -1.5478629589,
				"element": "H" 
			},
			{
				"x": 2.3403506727,
				"y": 0.3224600233,
				"z": -0.5284751662,
				"element": "H" 
			}
		],
		 "valence_orbital": [ 
			{
				"type": "occ",
				"energy": -0.31398,
				"method": "rhf"
			},
			{
				"type": "occ",
				"energy": -0.30377,
				"method": "rhf"
			},
			{
				"type": "occ",
				"energy": -0.29262,
				"method": "rhf"
			},
			{
				"type": "occ",
				"energy": -0.27412,
				"method": "rhf"
			},
			{
				"type": "occ",
				"energy": -0.25722,
				"method": "rhf"
			},
			{
				"type": "unocc",
				"energy": -0.03971,
				"method": "rhf"
			},
			{
				"type": "unocc",
				"energy": -0.02871,
				"method": "rhf"
			},
			{
				"type": "unocc",
				"energy": 0.03415,
				"method": "rhf"
			},
			{
				"type": "unocc",
				"energy": 0.07036,
				"method": "rhf"
			},
			{
				"type": "unocc",
				"energy": 0.10995,
				"method": "rhf"
			}
		],
		"cosmo_sigma_profile": { 
			"-0.025": 0.0,
			"-0.024": 0.0,
			"-0.023": 0.0,
			"-0.022": 0.0,
			"-0.021": 0.0,
			"-0.02": 0.0,
			"-0.019": 0.0,
			"-0.018": 0.0,
			"-0.017": 0.0,
			"-0.016": 0.586328909001,
			"-0.015": 0.955445653036,
			"-0.014": 0.986666520874,
			"-0.013": 1.16600227947,
			"-0.012": 0.664870109539,
			"-0.011": 0.689617456304,
			"-0.01": 1.13445404883,
			"-0.009": 0.826675522784,
			"-0.008": 2.59733342516,
			"-0.007": 7.57136417715,
			"-0.006": 10.5918114738,
			"-0.005": 11.0925000299,
			"-0.004": 9.19968573202,
			"-0.003": 9.99065990537,
			"-0.002": 9.67393621838,
			"-0.001": 8.86676480515,
			"0.0": 16.5919974185,
			"0.001": 17.0489528088,
			"0.002": 9.29567555012,
			"0.003": 8.09355019412,
			"0.004": 10.9471611383,
			"0.005": 8.0681552386,
			"0.006": 4.15469285984,
			"0.007": 3.84175253001,
			"0.008": 2.29352317736,
			"0.009": 1.38253504368,
			"0.01": 2.50197367291,
			"0.011": 2.25621327283,
			"0.012": 2.35596982776,
			"0.013": 2.60226666271,
			"0.014": 2.10445612905,
			"0.015": 0.306242901689,
			"0.016": 0.0,
			"0.017": 0.0,
			"0.018": 0.0,
			"0.019": 0.0,
			"0.02": 0.0,
			"0.021": 0.0,
			"0.022": 0.0,
			"0.023": 0.0,
			"0.024": 0.0,
			"0.025": 0.0
		}
	}
}
