{
	 "smiles": "CCOC(=O)C(=O)CC1=NC2=C(C=CC=C2)C=C1", 
	 "Tm": 404.15, 
	 "num_atms": 31, 
	 "gaussian": { 
		 "optdone": 1, 
		 "sigma_profile": "yes", 
		 "theory": "DFT", 
		 "functional": "B3LYP", 
		 "basiset": "6-31G**", 
		 "properties": { 
			 "R2extent": 5155.857, 
			 "electric_dipole_moment_norm": 4.02469929933, 
			 "electric_quadrupole_moment_norm": 18.9910441506, 
			 "total_energy": -821.75591707, 
			 "HOMO_LUMO_gap": 0.1613, 
			 "cosmo_polarized_energy": -14.22, 
			 "cosmo_cavitation_energy": 36.53, 
			 "cosmo_dispersion_energy": -24.71, 
			 "cosmo_repulsion_energy": 1.93, 
			 "cosmo_total_nonelectrostatic_energy": 13.74, 
			 "SMD_solvation_energy": 6.47 
		},
		"coords": [
			{
				"x": 3.8919266961,
				"y": 1.295078225,
				"z": 0.9799138875,
				"element": "C" 
			},
			{
				"x": 3.8025056927,
				"y": 0.4506034462,
				"z": -0.2757405795,
				"element": "C" 
			},
			{
				"x": 2.5588872743,
				"y": 0.792649487,
				"z": -0.9384331286,
				"element": "O" 
			},
			{
				"x": 2.2621250557,
				"y": 0.0909567866,
				"z": -2.0433532878,
				"element": "C" 
			},
			{
				"x": 2.9565315162,
				"y": -0.76415955,
				"z": -2.5385287359,
				"element": "O" 
			},
			{
				"x": 0.8885718073,
				"y": 0.5147171526,
				"z": -2.6259728898,
				"element": "C" 
			},
			{
				"x": 0.5922957127,
				"y": 0.1298727426,
				"z": -3.7349751969,
				"element": "O" 
			},
			{
				"x": -0.0460797328,
				"y": 1.3428508427,
				"z": -1.7539349188,
				"element": "C" 
			},
			{
				"x": -0.7593183366,
				"y": 0.4616929329,
				"z": -0.7363548326,
				"element": "C" 
			},
			{
				"x": -0.5500823604,
				"y": 0.7171450094,
				"z": 0.5406129686,
				"element": "N" 
			},
			{
				"x": -1.191465952,
				"y": -0.0517927721,
				"z": 1.4703909846,
				"element": "C" 
			},
			{
				"x": -2.0691073178,
				"y": -1.12337893,
				"z": 1.1107164962,
				"element": "C" 
			},
			{
				"x": -2.6978023963,
				"y": -1.8795092309,
				"z": 2.1337953469,
				"element": "C" 
			},
			{
				"x": -2.4675062493,
				"y": -1.5853092995,
				"z": 3.4594960378,
				"element": "C" 
			},
			{
				"x": -1.599677588,
				"y": -0.5232352255,
				"z": 3.8164094134,
				"element": "C" 
			},
			{
				"x": -0.9749175627,
				"y": 0.2276918523,
				"z": 2.8454211815,
				"element": "C" 
			},
			{
				"x": -2.2590260646,
				"y": -1.3687691467,
				"z": -0.2738222658,
				"element": "C" 
			},
			{
				"x": -1.61052416,
				"y": -0.584766489,
				"z": -1.1952143886,
				"element": "C" 
			},
			{
				"x": 4.8050233832,
				"y": 1.0464931876,
				"z": 1.5295726482,
				"element": "H" 
			},
			{
				"x": 3.0315031809,
				"y": 1.1107618567,
				"z": 1.6288560557,
				"element": "H" 
			},
			{
				"x": 3.9167368387,
				"y": 2.3607356886,
				"z": 0.7350310301,
				"element": "H" 
			},
			{
				"x": 3.7922968807,
				"y": -0.6214403758,
				"z": -0.0568135024,
				"element": "H" 
			},
			{
				"x": 4.6287613842,
				"y": 0.6396580477,
				"z": -0.9684627893,
				"element": "H" 
			},
			{
				"x": -0.7755437845,
				"y": 1.8063621457,
				"z": -2.4254625658,
				"element": "H" 
			},
			{
				"x": 0.5053784187,
				"y": 2.1092492253,
				"z": -1.2089604961,
				"element": "H" 
			},
			{
				"x": -3.3626866781,
				"y": -2.6927918206,
				"z": 1.8540828789,
				"element": "H" 
			},
			{
				"x": -2.9514925602,
				"y": -2.1672244709,
				"z": 4.2382741199,
				"element": "H" 
			},
			{
				"x": -1.4294877486,
				"y": -0.3029180918,
				"z": 4.8663106697,
				"element": "H" 
			},
			{
				"x": -0.308057572,
				"y": 1.0468088782,
				"z": 3.0945093804,
				"element": "H" 
			},
			{
				"x": -2.9158239429,
				"y": -2.1751639685,
				"z": -0.5904411647,
				"element": "H" 
			},
			{
				"x": -1.7311438344,
				"y": -0.7473681356,
				"z": -2.2616223567,
				"element": "H" 
			}
		],
		 "valence_orbital": [ 
			{
				"type": "occ",
				"energy": -0.29585,
				"method": "rhf"
			},
			{
				"type": "occ",
				"energy": -0.26614,
				"method": "rhf"
			},
			{
				"type": "occ",
				"energy": -0.25935,
				"method": "rhf"
			},
			{
				"type": "occ",
				"energy": -0.24847,
				"method": "rhf"
			},
			{
				"type": "occ",
				"energy": -0.23701,
				"method": "rhf"
			},
			{
				"type": "unocc",
				"energy": -0.07571,
				"method": "rhf"
			},
			{
				"type": "unocc",
				"energy": -0.05258,
				"method": "rhf"
			},
			{
				"type": "unocc",
				"energy": -0.02221,
				"method": "rhf"
			},
			{
				"type": "unocc",
				"energy": 0.01531,
				"method": "rhf"
			},
			{
				"type": "unocc",
				"energy": 0.05784,
				"method": "rhf"
			}
		],
		"cosmo_sigma_profile": { 
			"-0.025": 0.0,
			"-0.024": 0.0,
			"-0.023": 0.0,
			"-0.022": 0.0,
			"-0.021": 0.0,
			"-0.02": 0.0,
			"-0.019": 0.0,
			"-0.018": 0.0,
			"-0.017": 0.0,
			"-0.016": 0.0,
			"-0.015": 0.0,
			"-0.014": 0.0,
			"-0.013": 0.0,
			"-0.012": 0.0,
			"-0.011": 0.0,
			"-0.01": 0.0,
			"-0.009": 0.0250624848423,
			"-0.008": 1.24286865652,
			"-0.007": 8.27679005896,
			"-0.006": 19.6903212683,
			"-0.005": 28.1190233597,
			"-0.004": 30.8610436953,
			"-0.003": 23.2320085083,
			"-0.002": 20.8099967775,
			"-0.001": 19.8199138051,
			"0.0": 18.6616105126,
			"0.001": 18.7771965985,
			"0.002": 21.0195400665,
			"0.003": 18.1939978238,
			"0.004": 15.1387836614,
			"0.005": 7.16764038354,
			"0.006": 4.40107117783,
			"0.007": 4.67827057458,
			"0.008": 5.62489133105,
			"0.009": 5.94813742736,
			"0.01": 8.05451132141,
			"0.011": 6.73721675614,
			"0.012": 3.28767351584,
			"0.013": 1.24464536007,
			"0.014": 0.374639670202,
			"0.015": 0.0310716756358,
			"0.016": 0.0,
			"0.017": 0.0,
			"0.018": 0.0,
			"0.019": 0.0,
			"0.02": 0.0,
			"0.021": 0.0,
			"0.022": 0.0,
			"0.023": 0.0,
			"0.024": 0.0,
			"0.025": 0.0
		}
	}
}
