{
	 "smiles": "COC1=C(OC)C=C(C=CC)C=C1", 
	 "Tm": 291.15, 
	 "num_atms": 27, 
	 "gaussian": { 
		 "optdone": 1, 
		 "sigma_profile": "yes", 
		 "theory": "DFT", 
		 "functional": "B3LYP", 
		 "basiset": "6-31G**", 
		 "properties": { 
			 "R2extent": 3512.1391, 
			 "electric_dipole_moment_norm": 2.32356916187, 
			 "electric_quadrupole_moment_norm": 12.7844756932, 
			 "total_energy": -578.015024281, 
			 "HOMO_LUMO_gap": 0.17678, 
			 "cosmo_polarized_energy": -8.05, 
			 "cosmo_cavitation_energy": 30.36, 
			 "cosmo_dispersion_energy": -21.8, 
			 "cosmo_repulsion_energy": 1.75, 
			 "cosmo_total_nonelectrostatic_energy": 10.31, 
			 "SMD_solvation_energy": 7.0 
		},
		"coords": [
			{
				"x": -0.8838458351,
				"y": 1.5427170104,
				"z": -3.2663228987,
				"element": "C" 
			},
			{
				"x": -1.8926859288,
				"y": 0.8013419157,
				"z": -2.5767691947,
				"element": "O" 
			},
			{
				"x": -1.492279966,
				"y": 0.1582144535,
				"z": -1.4319308492,
				"element": "C" 
			},
			{
				"x": -1.123212899,
				"y": 0.8711803993,
				"z": -0.2648482514,
				"element": "C" 
			},
			{
				"x": -1.1490519997,
				"y": 2.234581721,
				"z": -0.3684716935,
				"element": "O" 
			},
			{
				"x": -0.833014569,
				"y": 3.0012788595,
				"z": 0.781774189,
				"element": "C" 
			},
			{
				"x": -0.7795148875,
				"y": 0.1746211665,
				"z": 0.8910990106,
				"element": "C" 
			},
			{
				"x": -0.8024868981,
				"y": -1.2353911077,
				"z": 0.9302411773,
				"element": "C" 
			},
			{
				"x": -0.4454555903,
				"y": -2.0057654288,
				"z": 2.1306321603,
				"element": "C" 
			},
			{
				"x": 0.0135896297,
				"y": -1.5432766716,
				"z": 3.3032533965,
				"element": "C" 
			},
			{
				"x": 0.3525362878,
				"y": -2.4059075166,
				"z": 4.4829341823,
				"element": "C" 
			},
			{
				"x": -1.1889825174,
				"y": -1.9234912527,
				"z": -0.2272927111,
				"element": "C" 
			},
			{
				"x": -1.5222048095,
				"y": -1.2311566678,
				"z": -1.3922828517,
				"element": "C" 
			},
			{
				"x": -0.0507306883,
				"y": 0.8904278457,
				"z": -3.5598708396,
				"element": "H" 
			},
			{
				"x": -1.3607223145,
				"y": 1.9405501114,
				"z": -4.1647147182,
				"element": "H" 
			},
			{
				"x": -0.5037927414,
				"y": 2.3685053396,
				"z": -2.6580670326,
				"element": "H" 
			},
			{
				"x": 0.1950527415,
				"y": 2.8203984467,
				"z": 1.1220235245,
				"element": "H" 
			},
			{
				"x": -1.5248724414,
				"y": 2.7932961116,
				"z": 1.6079517747,
				"element": "H" 
			},
			{
				"x": -0.9337057374,
				"y": 4.0461295927,
				"z": 0.4837845143,
				"element": "H" 
			},
			{
				"x": -0.5040366988,
				"y": 0.7239338171,
				"z": 1.7826383565,
				"element": "H" 
			},
			{
				"x": -0.5736526246,
				"y": -3.0839990028,
				"z": 2.0276901716,
				"element": "H" 
			},
			{
				"x": 0.1648559567,
				"y": -0.4728416692,
				"z": 3.4418641513,
				"element": "H" 
			},
			{
				"x": 0.1806176862,
				"y": -3.4652337867,
				"z": 4.2691664309,
				"element": "H" 
			},
			{
				"x": 1.4033665735,
				"y": -2.2853040144,
				"z": 4.7776648271,
				"element": "H" 
			},
			{
				"x": -0.2486661027,
				"y": -2.135744295,
				"z": 5.3611845552,
				"element": "H" 
			},
			{
				"x": -1.2205812698,
				"y": -3.0093876601,
				"z": -0.2193095362,
				"element": "H" 
			},
			{
				"x": -1.8221223561,
				"y": -1.7573777174,
				"z": -2.2930218451,
				"element": "H" 
			}
		],
		 "valence_orbital": [ 
			{
				"type": "occ",
				"energy": -0.32245,
				"method": "rhf"
			},
			{
				"type": "occ",
				"energy": -0.27611,
				"method": "rhf"
			},
			{
				"type": "occ",
				"energy": -0.26084,
				"method": "rhf"
			},
			{
				"type": "occ",
				"energy": -0.22771,
				"method": "rhf"
			},
			{
				"type": "occ",
				"energy": -0.19849,
				"method": "rhf"
			},
			{
				"type": "unocc",
				"energy": -0.02171,
				"method": "rhf"
			},
			{
				"type": "unocc",
				"energy": 0.01483,
				"method": "rhf"
			},
			{
				"type": "unocc",
				"energy": 0.07028,
				"method": "rhf"
			},
			{
				"type": "unocc",
				"energy": 0.08896,
				"method": "rhf"
			},
			{
				"type": "unocc",
				"energy": 0.09906,
				"method": "rhf"
			}
		],
		"cosmo_sigma_profile": { 
			"-0.025": 0.0,
			"-0.024": 0.0,
			"-0.023": 0.0,
			"-0.022": 0.0,
			"-0.021": 0.0,
			"-0.02": 0.0,
			"-0.019": 0.0,
			"-0.018": 0.0,
			"-0.017": 0.0,
			"-0.016": 0.0,
			"-0.015": 0.0,
			"-0.014": 0.0,
			"-0.013": 0.0,
			"-0.012": 0.0,
			"-0.011": 0.0,
			"-0.01": 0.0,
			"-0.009": 0.0,
			"-0.008": 0.0156888436081,
			"-0.007": 1.62407868457,
			"-0.006": 7.48500258509,
			"-0.005": 18.1388211049,
			"-0.004": 24.7593165027,
			"-0.003": 30.0153442513,
			"-0.002": 25.6060918793,
			"-0.001": 19.3202958211,
			"0.0": 18.7188937072,
			"0.001": 14.6309026775,
			"0.002": 12.4052363835,
			"0.003": 13.0686368652,
			"0.004": 14.0501322403,
			"0.005": 16.948583468,
			"0.006": 9.61610852175,
			"0.007": 3.27280186632,
			"0.008": 1.84135705157,
			"0.009": 2.38082318614,
			"0.01": 2.04915666189,
			"0.011": 2.52084762238,
			"0.012": 1.66868478894,
			"0.013": 0.0802620966996,
			"0.014": 0.0,
			"0.015": 0.0,
			"0.016": 0.0,
			"0.017": 0.0,
			"0.018": 0.0,
			"0.019": 0.0,
			"0.02": 0.0,
			"0.021": 0.0,
			"0.022": 0.0,
			"0.023": 0.0,
			"0.024": 0.0,
			"0.025": 0.0
		}
	}
}
