{
	 "smiles": "CCN1CCN(CC1)C1=C(N)C=C(Cl)C=C1", 
	 "Tm": 384.15, 
	 "num_atms": 34, 
	 "gaussian": { 
		 "optdone": 1, 
		 "sigma_profile": "yes", 
		 "theory": "DFT", 
		 "functional": "B3LYP", 
		 "basiset": "6-31G**", 
		 "properties": { 
			 "R2extent": 7207.1179, 
			 "electric_dipole_moment_norm": 3.55107553989, 
			 "electric_quadrupole_moment_norm": 15.8687618351, 
			 "total_energy": -1092.55455581, 
			 "HOMO_LUMO_gap": 0.19323, 
			 "cosmo_polarized_energy": -9.41, 
			 "cosmo_cavitation_energy": 36.22, 
			 "cosmo_dispersion_energy": -26.25, 
			 "cosmo_repulsion_energy": 2.05, 
			 "cosmo_total_nonelectrostatic_energy": 12.01, 
			 "SMD_solvation_energy": 2.56 
		},
		"coords": [
			{
				"x": 2.6777286104,
				"y": 2.5619224503,
				"z": -2.4599224267,
				"element": "C" 
			},
			{
				"x": 1.4026864457,
				"y": 1.7184067526,
				"z": -2.397080407,
				"element": "C" 
			},
			{
				"x": 1.3288932017,
				"y": 0.8954047543,
				"z": -1.1906200633,
				"element": "N" 
			},
			{
				"x": 0.313614164,
				"y": -0.1704953171,
				"z": -1.2485813123,
				"element": "C" 
			},
			{
				"x": -0.9857976435,
				"y": 0.1961312981,
				"z": -0.5190260961,
				"element": "C" 
			},
			{
				"x": -0.7469529793,
				"y": 0.5077487316,
				"z": 0.9053050242,
				"element": "N" 
			},
			{
				"x": 0.6550382887,
				"y": 0.8848472916,
				"z": 1.1884518962,
				"element": "C" 
			},
			{
				"x": 1.2227237643,
				"y": 1.7026559545,
				"z": 0.0336981828,
				"element": "C" 
			},
			{
				"x": -1.3085639812,
				"y": -0.3638983163,
				"z": 1.888101592,
				"element": "C" 
			},
			{
				"x": -1.8255537542,
				"y": 0.237052587,
				"z": 3.0651616061,
				"element": "C" 
			},
			{
				"x": -1.7380361158,
				"y": 1.618368299,
				"z": 3.2089742496,
				"element": "N" 
			},
			{
				"x": -2.3801238636,
				"y": -0.5716342309,
				"z": 4.0676425773,
				"element": "C" 
			},
			{
				"x": -2.4270390299,
				"y": -1.9517819158,
				"z": 3.8942375077,
				"element": "C" 
			},
			{
				"x": -3.1420309844,
				"y": -2.9432701861,
				"z": 5.1641694959,
				"element": "Cl" 
			},
			{
				"x": -1.9324481046,
				"y": -2.5642443064,
				"z": 2.7462004497,
				"element": "C" 
			},
			{
				"x": -1.3660708353,
				"y": -1.7539585984,
				"z": 1.7593797651,
				"element": "C" 
			},
			{
				"x": 3.5612790998,
				"y": 1.9240838584,
				"z": -2.3592584907,
				"element": "H" 
			},
			{
				"x": 2.7111486396,
				"y": 3.3176716805,
				"z": -1.6692571365,
				"element": "H" 
			},
			{
				"x": 2.7346517758,
				"y": 3.0882144004,
				"z": -3.418253154,
				"element": "H" 
			},
			{
				"x": 0.5224653197,
				"y": 2.3866897833,
				"z": -2.4998919432,
				"element": "H" 
			},
			{
				"x": 1.3881865415,
				"y": 1.0435071613,
				"z": -3.2602457709,
				"element": "H" 
			},
			{
				"x": 0.72460535,
				"y": -1.0903861725,
				"z": -0.8095257969,
				"element": "H" 
			},
			{
				"x": 0.0956510153,
				"y": -0.396649032,
				"z": -2.2972520577,
				"element": "H" 
			},
			{
				"x": -1.7136757327,
				"y": -0.6161516032,
				"z": -0.5985826119,
				"element": "H" 
			},
			{
				"x": -1.4370921843,
				"y": 1.0712756211,
				"z": -1.0085514611,
				"element": "H" 
			},
			{
				"x": 0.681001823,
				"y": 1.473996421,
				"z": 2.1107644153,
				"element": "H" 
			},
			{
				"x": 1.2882458921,
				"y": -0.0025999007,
				"z": 1.35195316,
				"element": "H" 
			},
			{
				"x": 2.2120914349,
				"y": 2.0798155179,
				"z": 0.3168078843,
				"element": "H" 
			},
			{
				"x": 0.5734187053,
				"y": 2.587807181,
				"z": -0.1174316598,
				"element": "H" 
			},
			{
				"x": -1.6787310734,
				"y": 2.0844024792,
				"z": 2.3093001064,
				"element": "H" 
			},
			{
				"x": -2.4192691293,
				"y": 2.0305415908,
				"z": 3.8318177553,
				"element": "H" 
			},
			{
				"x": -2.7822338103,
				"y": -0.1223548362,
				"z": 4.9699000557,
				"element": "H" 
			},
			{
				"x": -1.974963646,
				"y": -3.6408146259,
				"z": 2.631424129,
				"element": "H" 
			},
			{
				"x": -0.9610472039,
				"y": -2.2216047722,
				"z": 0.8665905354,
				"element": "H" 
			}
		],
		 "valence_orbital": [ 
			{
				"type": "occ",
				"energy": -0.29692,
				"method": "rhf"
			},
			{
				"type": "occ",
				"energy": -0.24837,
				"method": "rhf"
			},
			{
				"type": "occ",
				"energy": -0.22101,
				"method": "rhf"
			},
			{
				"type": "occ",
				"energy": -0.20618,
				"method": "rhf"
			},
			{
				"type": "occ",
				"energy": -0.1963,
				"method": "rhf"
			},
			{
				"type": "unocc",
				"energy": -0.00307,
				"method": "rhf"
			},
			{
				"type": "unocc",
				"energy": 0.01197,
				"method": "rhf"
			},
			{
				"type": "unocc",
				"energy": 0.03833,
				"method": "rhf"
			},
			{
				"type": "unocc",
				"energy": 0.07296,
				"method": "rhf"
			},
			{
				"type": "unocc",
				"energy": 0.09051,
				"method": "rhf"
			}
		],
		"cosmo_sigma_profile": { 
			"-0.025": 0.0,
			"-0.024": 0.0,
			"-0.023": 0.0,
			"-0.022": 0.0,
			"-0.021": 0.0,
			"-0.02": 0.0,
			"-0.019": 0.0,
			"-0.018": 0.0,
			"-0.017": 0.0,
			"-0.016": 0.0,
			"-0.015": 0.0,
			"-0.014": 0.0,
			"-0.013": 0.207040414244,
			"-0.012": 1.51888731261,
			"-0.011": 1.42256926165,
			"-0.01": 1.53071781235,
			"-0.009": 2.63603760372,
			"-0.008": 2.94260335548,
			"-0.007": 2.8541589777,
			"-0.006": 5.10544883182,
			"-0.005": 9.50360249202,
			"-0.004": 15.2098438935,
			"-0.003": 26.1044609359,
			"-0.002": 35.8799969307,
			"-0.001": 39.0411109347,
			"0.0": 26.6291029583,
			"0.001": 21.3639719519,
			"0.002": 17.4347753527,
			"0.003": 17.1136562712,
			"0.004": 18.9370885519,
			"0.005": 22.4136981647,
			"0.006": 6.52754799431,
			"0.007": 1.61320601704,
			"0.008": 2.54595408758,
			"0.009": 0.91560833271,
			"0.01": 0.916142455462,
			"0.011": 2.07688016937,
			"0.012": 0.538529448373,
			"0.013": 0.537607346975,
			"0.014": 0.730509263971,
			"0.015": 0.597312607163,
			"0.016": 0.304058476846,
			"0.017": 0.0329686071245,
			"0.018": 0.0,
			"0.019": 0.0,
			"0.02": 0.0,
			"0.021": 0.0,
			"0.022": 0.0,
			"0.023": 0.0,
			"0.024": 0.0,
			"0.025": 0.0
		}
	}
}
