{
	 "smiles": "NS(=O)(=O)C1=CC=CC=C1Br", 
	 "Tm": 465.15, 
	 "num_atms": 17, 
	 "gaussian": { 
		 "optdone": 1, 
		 "sigma_profile": "yes", 
		 "theory": "DFT", 
		 "functional": "B3LYP", 
		 "basiset": "6-31G**", 
		 "properties": { 
			 "R2extent": 3817.9122, 
			 "electric_dipole_moment_norm": 5.90787053091, 
			 "electric_quadrupole_moment_norm": 19.2803049229, 
			 "total_energy": -3406.96794736, 
			 "HOMO_LUMO_gap": 0.21597, 
			 "cosmo_polarized_energy": -16.73, 
			 "cosmo_cavitation_energy": 24.29, 
			 "cosmo_dispersion_energy": -19.1, 
			 "cosmo_repulsion_energy": 1.47, 
			 "cosmo_total_nonelectrostatic_energy": 6.66, 
			 "SMD_solvation_energy": 2.81 
		},
		"coords": [
			{
				"x": 1.9739434735,
				"y": 0.2626976894,
				"z": 3.5238801706,
				"element": "N" 
			},
			{
				"x": 1.0732385631,
				"y": 1.471990472,
				"z": 2.8006779601,
				"element": "S" 
			},
			{
				"x": 1.5882294911,
				"y": 2.7277313421,
				"z": 3.3443069565,
				"element": "O" 
			},
			{
				"x": -0.328218908,
				"y": 1.0876657765,
				"z": 2.9191280826,
				"element": "O" 
			},
			{
				"x": 1.5061816807,
				"y": 1.4777185207,
				"z": 1.0368052952,
				"element": "C" 
			},
			{
				"x": 2.0201609042,
				"y": 2.6761172172,
				"z": 0.5293088746,
				"element": "C" 
			},
			{
				"x": 2.3392377163,
				"y": 2.7945821276,
				"z": -0.8220533683,
				"element": "C" 
			},
			{
				"x": 2.1460747182,
				"y": 1.7104264063,
				"z": -1.6772550073,
				"element": "C" 
			},
			{
				"x": 1.6364401905,
				"y": 0.5093691872,
				"z": -1.1833450317,
				"element": "C" 
			},
			{
				"x": 1.3132913122,
				"y": 0.395395411,
				"z": 0.1683332863,
				"element": "C" 
			},
			{
				"x": 0.632360545,
				"y": -1.2933084454,
				"z": 0.758273526,
				"element": "Br" 
			},
			{
				"x": 2.9678807897,
				"y": 0.4682275215,
				"z": 3.5311245782,
				"element": "H" 
			},
			{
				"x": 1.7485111368,
				"y": -0.6626842216,
				"z": 3.1699187557,
				"element": "H" 
			},
			{
				"x": 2.1587475679,
				"y": 3.5045376644,
				"z": 1.21466208,
				"element": "H" 
			},
			{
				"x": 2.7350281118,
				"y": 3.730877941,
				"z": -1.2021140547,
				"element": "H" 
			},
			{
				"x": 2.390992151,
				"y": 1.7906383624,
				"z": -2.7319308435,
				"element": "H" 
			},
			{
				"x": 1.485800556,
				"y": -0.3396829721,
				"z": -1.8401212603,
				"element": "H" 
			}
		],
		 "valence_orbital": [ 
			{
				"type": "occ",
				"energy": -0.31741,
				"method": "rhf"
			},
			{
				"type": "occ",
				"energy": -0.30914,
				"method": "rhf"
			},
			{
				"type": "occ",
				"energy": -0.29619,
				"method": "rhf"
			},
			{
				"type": "occ",
				"energy": -0.28009,
				"method": "rhf"
			},
			{
				"type": "occ",
				"energy": -0.2667,
				"method": "rhf"
			},
			{
				"type": "unocc",
				"energy": -0.05073,
				"method": "rhf"
			},
			{
				"type": "unocc",
				"energy": -0.03574,
				"method": "rhf"
			},
			{
				"type": "unocc",
				"energy": -0.02037,
				"method": "rhf"
			},
			{
				"type": "unocc",
				"energy": 0.06072,
				"method": "rhf"
			},
			{
				"type": "unocc",
				"energy": 0.08018,
				"method": "rhf"
			}
		],
		"cosmo_sigma_profile": { 
			"-0.025": 0.0,
			"-0.024": 0.0,
			"-0.023": 0.0,
			"-0.022": 0.0,
			"-0.021": 0.0,
			"-0.02": 0.0,
			"-0.019": 0.0,
			"-0.018": 0.0,
			"-0.017": 0.0,
			"-0.016": 0.808048074828,
			"-0.015": 1.28652361419,
			"-0.014": 0.985063258331,
			"-0.013": 1.64320768788,
			"-0.012": 3.2502151988,
			"-0.011": 1.85353883773,
			"-0.01": 1.47441195724,
			"-0.009": 2.2342015808,
			"-0.008": 5.20640930873,
			"-0.007": 9.9736559168,
			"-0.006": 11.5334745572,
			"-0.005": 9.39832924628,
			"-0.004": 9.59435079794,
			"-0.003": 10.8105484697,
			"-0.002": 9.14466639471,
			"-0.001": 11.2315083884,
			"0.0": 14.3869631135,
			"0.001": 18.4986426698,
			"0.002": 16.5147630626,
			"0.003": 9.34164207151,
			"0.004": 4.33179504444,
			"0.005": 4.10052078813,
			"0.006": 4.1470720329,
			"0.007": 4.92710804534,
			"0.008": 4.56200952099,
			"0.009": 5.37758480771,
			"0.01": 9.1940267587,
			"0.011": 10.2884019066,
			"0.012": 1.79739043719,
			"0.013": 0.0,
			"0.014": 0.0,
			"0.015": 0.0,
			"0.016": 0.0,
			"0.017": 0.0,
			"0.018": 0.0,
			"0.019": 0.0,
			"0.02": 0.0,
			"0.021": 0.0,
			"0.022": 0.0,
			"0.023": 0.0,
			"0.024": 0.0,
			"0.025": 0.0
		}
	}
}
