{
	 "smiles": "ON=CC1=CSN=N1", 
	 "Tm": 410.15, 
	 "num_atms": 11, 
	 "gaussian": { 
		 "optdone": 1, 
		 "sigma_profile": "yes", 
		 "theory": "DFT", 
		 "functional": "B3LYP", 
		 "basiset": "6-31G**", 
		 "properties": { 
			 "R2extent": 1764.5175, 
			 "electric_dipole_moment_norm": 3.16078881768, 
			 "electric_quadrupole_moment_norm": 10.3475401323, 
			 "total_energy": -753.674869311, 
			 "HOMO_LUMO_gap": 0.17738, 
			 "cosmo_polarized_energy": -13.32, 
			 "cosmo_cavitation_energy": 18.39, 
			 "cosmo_dispersion_energy": -14.32, 
			 "cosmo_repulsion_energy": 1.15, 
			 "cosmo_total_nonelectrostatic_energy": 5.22, 
			 "SMD_solvation_energy": 2.0 
		},
		"coords": [
			{
				"x": 0.6713924025,
				"y": 1.6777126621,
				"z": 2.5904284096,
				"element": "O" 
			},
			{
				"x": 0.3669474898,
				"y": 0.7857304207,
				"z": 1.5637121269,
				"element": "N" 
			},
			{
				"x": 1.4277526594,
				"y": 0.4637054685,
				"z": 0.9196963463,
				"element": "C" 
			},
			{
				"x": 1.379119644,
				"y": -0.4604367378,
				"z": -0.2063401676,
				"element": "C" 
			},
			{
				"x": 2.4679472373,
				"y": -0.8596220208,
				"z": -0.9523801219,
				"element": "C" 
			},
			{
				"x": 1.9740935483,
				"y": -1.9407611777,
				"z": -2.1676147924,
				"element": "S" 
			},
			{
				"x": 0.2862450082,
				"y": -1.8182406715,
				"z": -1.6220128583,
				"element": "N" 
			},
			{
				"x": 0.1962092718,
				"y": -1.034746104,
				"z": -0.6365250462,
				"element": "N" 
			},
			{
				"x": -0.1938205019,
				"y": 1.8391646735,
				"z": 2.9910537903,
				"element": "H" 
			},
			{
				"x": 2.3996816039,
				"y": 0.8752068614,
				"z": 1.1991845364,
				"element": "H" 
			},
			{
				"x": 3.4953316369,
				"y": -0.5525133745,
				"z": -0.8147022229,
				"element": "H" 
			}
		],
		 "valence_orbital": [ 
			{
				"type": "occ",
				"energy": -0.32371,
				"method": "rhf"
			},
			{
				"type": "occ",
				"energy": -0.31398,
				"method": "rhf"
			},
			{
				"type": "occ",
				"energy": -0.29405,
				"method": "rhf"
			},
			{
				"type": "occ",
				"energy": -0.26596,
				"method": "rhf"
			},
			{
				"type": "occ",
				"energy": -0.24497,
				"method": "rhf"
			},
			{
				"type": "unocc",
				"energy": -0.06759,
				"method": "rhf"
			},
			{
				"type": "unocc",
				"energy": -0.04027,
				"method": "rhf"
			},
			{
				"type": "unocc",
				"energy": -0.02183,
				"method": "rhf"
			},
			{
				"type": "unocc",
				"energy": 0.06592,
				"method": "rhf"
			},
			{
				"type": "unocc",
				"energy": 0.07159,
				"method": "rhf"
			}
		],
		"cosmo_sigma_profile": { 
			"-0.025": 0.0,
			"-0.024": 0.0,
			"-0.023": 0.0,
			"-0.022": 0.0,
			"-0.021": 0.0,
			"-0.02": 0.0,
			"-0.019": 0.0,
			"-0.018": 0.520540190547,
			"-0.017": 1.16945456429,
			"-0.016": 1.04734697693,
			"-0.015": 0.544045555108,
			"-0.014": 0.948312640882,
			"-0.013": 0.631175064151,
			"-0.012": 2.03099818503,
			"-0.011": 3.86855534187,
			"-0.01": 3.74541983279,
			"-0.009": 3.78011832906,
			"-0.008": 3.78426620051,
			"-0.007": 3.74581928658,
			"-0.006": 2.93402060044,
			"-0.005": 4.2398263639,
			"-0.004": 6.0611391944,
			"-0.003": 8.15780750046,
			"-0.002": 11.0997785686,
			"-0.001": 16.9524765591,
			"0.0": 11.8916723455,
			"0.001": 8.37775249169,
			"0.002": 4.75895206791,
			"0.003": 5.30775605062,
			"0.004": 5.73260229327,
			"0.005": 4.29336059841,
			"0.006": 4.42401911987,
			"0.007": 5.42108160453,
			"0.008": 5.20497301804,
			"0.009": 5.94439436187,
			"0.01": 5.59745408962,
			"0.011": 3.19380354837,
			"0.012": 2.44775419416,
			"0.013": 2.07993734517,
			"0.014": 0.669195892337,
			"0.015": 0.0,
			"0.016": 0.0,
			"0.017": 0.0,
			"0.018": 0.0,
			"0.019": 0.0,
			"0.02": 0.0,
			"0.021": 0.0,
			"0.022": 0.0,
			"0.023": 0.0,
			"0.024": 0.0,
			"0.025": 0.0
		}
	}
}
