{
	 "smiles": "OC(=O)C1CCN(CC1)S(=O)(=O)C1=C(C=CC=C1)C(F)(F)F", 
	 "Tm": 401.15, 
	 "num_atms": 36, 
	 "gaussian": { 
		 "optdone": 1, 
		 "sigma_profile": "yes", 
		 "theory": "DFT", 
		 "functional": "B3LYP", 
		 "basiset": "6-31G**", 
		 "properties": { 
			 "R2extent": 8501.853, 
			 "electric_dipole_moment_norm": 4.10529697464, 
			 "electric_quadrupole_moment_norm": 31.3161586722, 
			 "total_energy": -1557.1162985, 
			 "HOMO_LUMO_gap": 0.19101, 
			 "cosmo_polarized_energy": -18.63, 
			 "cosmo_cavitation_energy": 39.61, 
			 "cosmo_dispersion_energy": -27.98, 
			 "cosmo_repulsion_energy": 2.02, 
			 "cosmo_total_nonelectrostatic_energy": 13.64, 
			 "SMD_solvation_energy": 7.56 
		},
		"coords": [
			{
				"x": 1.9713975955,
				"y": -2.1167828116,
				"z": 1.5291488427,
				"element": "O" 
			},
			{
				"x": 2.5195936498,
				"y": -2.3646994007,
				"z": 0.3101820233,
				"element": "C" 
			},
			{
				"x": 3.4286975082,
				"y": -3.1498983014,
				"z": 0.1587334301,
				"element": "O" 
			},
			{
				"x": 1.8731396639,
				"y": -1.536735841,
				"z": -0.7840912135,
				"element": "C" 
			},
			{
				"x": 0.3191131194,
				"y": -1.6562294218,
				"z": -0.7965921183,
				"element": "C" 
			},
			{
				"x": -0.3579325964,
				"y": -0.4451725078,
				"z": -0.152973546,
				"element": "C" 
			},
			{
				"x": 0.0247232992,
				"y": 0.7999711964,
				"z": -0.8568301843,
				"element": "N" 
			},
			{
				"x": 1.3830250338,
				"y": 0.8739618064,
				"z": -1.4337549017,
				"element": "C" 
			},
			{
				"x": 2.3090668355,
				"y": -0.0525928021,
				"z": -0.6461605689,
				"element": "C" 
			},
			{
				"x": -1.1421672101,
				"y": 1.7229873454,
				"z": -1.6035736151,
				"element": "S" 
			},
			{
				"x": -2.4525160535,
				"y": 1.3029654534,
				"z": -1.1033292746,
				"element": "O" 
			},
			{
				"x": -0.8917964127,
				"y": 1.765670558,
				"z": -3.0517476452,
				"element": "O" 
			},
			{
				"x": -0.793310733,
				"y": 3.4184979829,
				"z": -1.0196492609,
				"element": "C" 
			},
			{
				"x": -0.5761891209,
				"y": 3.8133860582,
				"z": 0.3179009828,
				"element": "C" 
			},
			{
				"x": -0.3930540073,
				"y": 5.1726491559,
				"z": 0.5938702331,
				"element": "C" 
			},
			{
				"x": -0.4343733992,
				"y": 6.130655826,
				"z": -0.4182778539,
				"element": "C" 
			},
			{
				"x": -0.6534405762,
				"y": 5.7356497985,
				"z": -1.7339539989,
				"element": "C" 
			},
			{
				"x": -0.8302522195,
				"y": 4.3840563009,
				"z": -2.0291796891,
				"element": "C" 
			},
			{
				"x": -0.4507792914,
				"y": 2.8631798562,
				"z": 1.493452942,
				"element": "C" 
			},
			{
				"x": -1.3686159218,
				"y": 1.8818431205,
				"z": 1.4843009941,
				"element": "F" 
			},
			{
				"x": -0.5962600443,
				"y": 3.5204899982,
				"z": 2.6667978836,
				"element": "F" 
			},
			{
				"x": 0.7741548247,
				"y": 2.2833010579,
				"z": 1.533867549,
				"element": "F" 
			},
			{
				"x": 2.4517808235,
				"y": -2.6765278635,
				"z": 2.1621103854,
				"element": "H" 
			},
			{
				"x": 2.2742827545,
				"y": -1.9371569517,
				"z": -1.7186472978,
				"element": "H" 
			},
			{
				"x": -0.0053718773,
				"y": -2.5643904806,
				"z": -0.2793534805,
				"element": "H" 
			},
			{
				"x": -0.0203492239,
				"y": -1.7434931959,
				"z": -1.8339762143,
				"element": "H" 
			},
			{
				"x": -1.443156272,
				"y": -0.5359141064,
				"z": -0.1910780517,
				"element": "H" 
			},
			{
				"x": -0.0692083383,
				"y": -0.3581388581,
				"z": 0.8989788784,
				"element": "H" 
			},
			{
				"x": 1.7428902465,
				"y": 1.9062361996,
				"z": -1.361060612,
				"element": "H" 
			},
			{
				"x": 1.3732245975,
				"y": 0.6011792369,
				"z": -2.4967600139,
				"element": "H" 
			},
			{
				"x": 2.2952139737,
				"y": 0.2484273258,
				"z": 0.4057185567,
				"element": "H" 
			},
			{
				"x": 3.3347294552,
				"y": 0.0702663141,
				"z": -1.007026761,
				"element": "H" 
			},
			{
				"x": -0.2215673505,
				"y": 5.4780347157,
				"z": 1.6186425169,
				"element": "H" 
			},
			{
				"x": -0.2936335412,
				"y": 7.1784498746,
				"z": -0.1720385207,
				"element": "H" 
			},
			{
				"x": -0.6860108863,
				"y": 6.4693336701,
				"z": -2.5333788501,
				"element": "H" 
			},
			{
				"x": -0.991648305,
				"y": 4.0563396909,
				"z": -3.0491715456,
				"element": "H" 
			}
		],
		 "valence_orbital": [ 
			{
				"type": "occ",
				"energy": -0.30217,
				"method": "rhf"
			},
			{
				"type": "occ",
				"energy": -0.28616,
				"method": "rhf"
			},
			{
				"type": "occ",
				"energy": -0.28085,
				"method": "rhf"
			},
			{
				"type": "occ",
				"energy": -0.27563,
				"method": "rhf"
			},
			{
				"type": "occ",
				"energy": -0.24751,
				"method": "rhf"
			},
			{
				"type": "unocc",
				"energy": -0.0565,
				"method": "rhf"
			},
			{
				"type": "unocc",
				"energy": -0.03606,
				"method": "rhf"
			},
			{
				"type": "unocc",
				"energy": 0.00188,
				"method": "rhf"
			},
			{
				"type": "unocc",
				"energy": 0.0507,
				"method": "rhf"
			},
			{
				"type": "unocc",
				"energy": 0.05833,
				"method": "rhf"
			}
		],
		"cosmo_sigma_profile": { 
			"-0.025": 0.0,
			"-0.024": 0.0,
			"-0.023": 0.0,
			"-0.022": 0.0,
			"-0.021": 0.0,
			"-0.02": 0.0,
			"-0.019": 0.0208340917279,
			"-0.018": 0.813176549643,
			"-0.017": 0.915357593819,
			"-0.016": 0.975840234771,
			"-0.015": 0.60357546013,
			"-0.014": 0.306489124824,
			"-0.013": 0.352188323085,
			"-0.012": 0.897307330153,
			"-0.011": 1.32588463823,
			"-0.01": 0.731821715213,
			"-0.009": 0.154289483478,
			"-0.008": 3.19645485613,
			"-0.007": 9.43867547263,
			"-0.006": 11.9347346929,
			"-0.005": 25.8674580742,
			"-0.004": 30.2484519382,
			"-0.003": 24.7242684555,
			"-0.002": 24.9977689829,
			"-0.001": 22.184406347,
			"0.0": 22.9314946891,
			"0.001": 24.8925846641,
			"0.002": 28.0059164365,
			"0.003": 15.9876194047,
			"0.004": 6.33948658004,
			"0.005": 6.39839714046,
			"0.006": 4.78878957975,
			"0.007": 5.44495325657,
			"0.008": 4.33572312354,
			"0.009": 6.271280223,
			"0.01": 9.98321540711,
			"0.011": 10.7846721993,
			"0.012": 6.91920417528,
			"0.013": 0.901908976994,
			"0.014": 0.0,
			"0.015": 0.0,
			"0.016": 0.0,
			"0.017": 0.0,
			"0.018": 0.0,
			"0.019": 0.0,
			"0.02": 0.0,
			"0.021": 0.0,
			"0.022": 0.0,
			"0.023": 0.0,
			"0.024": 0.0,
			"0.025": 0.0
		}
	}
}
