{
	 "smiles": "ClC1=CC(CBr)=C(OCC#N)C=C1", 
	 "Tm": 359.15, 
	 "num_atms": 20, 
	 "gaussian": { 
		 "optdone": 1, 
		 "sigma_profile": "yes", 
		 "theory": "DFT", 
		 "functional": "B3LYP", 
		 "basiset": "6-31G**", 
		 "properties": { 
			 "R2extent": 4727.2284, 
			 "electric_dipole_moment_norm": 4.63185648633, 
			 "electric_quadrupole_moment_norm": 15.7148486347, 
			 "total_energy": -3508.71245853, 
			 "HOMO_LUMO_gap": 0.19029, 
			 "cosmo_polarized_energy": -14.55, 
			 "cosmo_cavitation_energy": 29.72, 
			 "cosmo_dispersion_energy": -20.95, 
			 "cosmo_repulsion_energy": 1.7, 
			 "cosmo_total_nonelectrostatic_energy": 10.47, 
			 "SMD_solvation_energy": 5.25 
		},
		"coords": [
			{
				"x": -2.5078677382,
				"y": 4.1499617974,
				"z": -0.5190672354,
				"element": "Cl" 
			},
			{
				"x": -1.5553129014,
				"y": 2.8805168328,
				"z": 0.2316992625,
				"element": "C" 
			},
			{
				"x": -2.0916053434,
				"y": 1.5999316289,
				"z": 0.3553231182,
				"element": "C" 
			},
			{
				"x": -1.3542494257,
				"y": 0.5769876744,
				"z": 0.9558495476,
				"element": "C" 
			},
			{
				"x": -1.9358606647,
				"y": -0.7884823819,
				"z": 1.1064493312,
				"element": "C" 
			},
			{
				"x": -1.364038825,
				"y": -2.0228356719,
				"z": -0.3644840702,
				"element": "Br" 
			},
			{
				"x": -0.0564132369,
				"y": 0.8647116414,
				"z": 1.4272723924,
				"element": "C" 
			},
			{
				"x": 0.5983884441,
				"y": -0.194362937,
				"z": 2.009750949,
				"element": "O" 
			},
			{
				"x": 1.8387111007,
				"y": 0.025463035,
				"z": 2.652594347,
				"element": "C" 
			},
			{
				"x": 2.9638770316,
				"y": 0.2092890825,
				"z": 1.7153265576,
				"element": "C" 
			},
			{
				"x": 3.8598604904,
				"y": 0.3576972116,
				"z": 0.9937940518,
				"element": "N" 
			},
			{
				"x": 0.4782507058,
				"y": 2.1471047396,
				"z": 1.2959677915,
				"element": "C" 
			},
			{
				"x": -0.2739999193,
				"y": 3.159518505,
				"z": 0.6957299607,
				"element": "C" 
			},
			{
				"x": -3.0895480026,
				"y": 1.3935439895,
				"z": -0.0169875332,
				"element": "H" 
			},
			{
				"x": -1.6052239123,
				"y": -1.2860469157,
				"z": 2.0143809443,
				"element": "H" 
			},
			{
				"x": -3.0219759444,
				"y": -0.7779656888,
				"z": 1.0480094977,
				"element": "H" 
			},
			{
				"x": 1.7947996648,
				"y": 0.8868857999,
				"z": 3.3321484427,
				"element": "H" 
			},
			{
				"x": 2.0254603534,
				"y": -0.8717601319,
				"z": 3.2485952746,
				"element": "H" 
			},
			{
				"x": 1.4830059802,
				"y": 2.3757014534,
				"z": 1.6300525243,
				"element": "H" 
			},
			{
				"x": 0.141942143,
				"y": 4.154840336,
				"z": 0.5885948457,
				"element": "H" 
			}
		],
		 "valence_orbital": [ 
			{
				"type": "occ",
				"energy": -0.32134,
				"method": "rhf"
			},
			{
				"type": "occ",
				"energy": -0.28209,
				"method": "rhf"
			},
			{
				"type": "occ",
				"energy": -0.27288,
				"method": "rhf"
			},
			{
				"type": "occ",
				"energy": -0.26958,
				"method": "rhf"
			},
			{
				"type": "occ",
				"energy": -0.24241,
				"method": "rhf"
			},
			{
				"type": "unocc",
				"energy": -0.05212,
				"method": "rhf"
			},
			{
				"type": "unocc",
				"energy": -0.02104,
				"method": "rhf"
			},
			{
				"type": "unocc",
				"energy": -0.00925,
				"method": "rhf"
			},
			{
				"type": "unocc",
				"energy": 0.01031,
				"method": "rhf"
			},
			{
				"type": "unocc",
				"energy": 0.02077,
				"method": "rhf"
			}
		],
		"cosmo_sigma_profile": { 
			"-0.025": 0.0,
			"-0.024": 0.0,
			"-0.023": 0.0,
			"-0.022": 0.0,
			"-0.021": 0.0,
			"-0.02": 0.0,
			"-0.019": 0.0,
			"-0.018": 0.0,
			"-0.017": 0.0,
			"-0.016": 0.0,
			"-0.015": 0.0,
			"-0.014": 0.0,
			"-0.013": 0.0,
			"-0.012": 0.47325847955,
			"-0.011": 4.09649393665,
			"-0.01": 5.79665513312,
			"-0.009": 7.84209681606,
			"-0.008": 10.9709799104,
			"-0.007": 10.3997797567,
			"-0.006": 9.08506073854,
			"-0.005": 8.07590607683,
			"-0.004": 10.8027469439,
			"-0.003": 8.08860910733,
			"-0.002": 10.4650509927,
			"-0.001": 13.6172983336,
			"0.0": 16.4442596724,
			"0.001": 18.2987351122,
			"0.002": 25.0311732899,
			"0.003": 17.3551552333,
			"0.004": 17.1636652445,
			"0.005": 15.5361283906,
			"0.006": 14.7419112933,
			"0.007": 7.19385845327,
			"0.008": 3.33028042427,
			"0.009": 2.895916709,
			"0.01": 2.8399552255,
			"0.011": 2.26944742934,
			"0.012": 1.75479159952,
			"0.013": 0.167426692475,
			"0.014": 0.0,
			"0.015": 0.0,
			"0.016": 0.0,
			"0.017": 0.0,
			"0.018": 0.0,
			"0.019": 0.0,
			"0.02": 0.0,
			"0.021": 0.0,
			"0.022": 0.0,
			"0.023": 0.0,
			"0.024": 0.0,
			"0.025": 0.0
		}
	}
}
