{
	 "smiles": "CC(Cl)C(=O)N(C)C1CCS(=O)(=O)C1", 
	 "Tm": 380.15, 
	 "num_atms": 28, 
	 "gaussian": { 
		 "optdone": 1, 
		 "sigma_profile": "yes", 
		 "theory": "DFT", 
		 "functional": "B3LYP", 
		 "basiset": "6-31G**", 
		 "properties": { 
			 "R2extent": 4641.725, 
			 "electric_dipole_moment_norm": 6.9109409902, 
			 "electric_quadrupole_moment_norm": 9.82662429118, 
			 "total_energy": -1452.03814837, 
			 "HOMO_LUMO_gap": 0.23391, 
			 "cosmo_polarized_energy": -20.53, 
			 "cosmo_cavitation_energy": 32.28, 
			 "cosmo_dispersion_energy": -23.56, 
			 "cosmo_repulsion_energy": 1.82, 
			 "cosmo_total_nonelectrostatic_energy": 10.54, 
			 "SMD_solvation_energy": 4.48 
		},
		"coords": [
			{
				"x": -2.5189162372,
				"y": -1.107200487,
				"z": 3.5131667159,
				"element": "C" 
			},
			{
				"x": -2.6408020153,
				"y": -1.5661814195,
				"z": 2.0624612109,
				"element": "C" 
			},
			{
				"x": -2.5174271749,
				"y": -3.3936283534,
				"z": 1.9294629821,
				"element": "Cl" 
			},
			{
				"x": -1.7308311571,
				"y": -0.8152068111,
				"z": 1.0690620094,
				"element": "C" 
			},
			{
				"x": -2.2936737725,
				"y": -0.0167982614,
				"z": 0.3197028416,
				"element": "O" 
			},
			{
				"x": -0.374048784,
				"y": -0.9844959524,
				"z": 1.0573981767,
				"element": "N" 
			},
			{
				"x": 0.3932781228,
				"y": -1.8623818291,
				"z": 1.941813597,
				"element": "C" 
			},
			{
				"x": 0.4362429362,
				"y": -0.2188334527,
				"z": 0.0957027825,
				"element": "C" 
			},
			{
				"x": 0.4084532573,
				"y": 1.317338973,
				"z": 0.3074370532,
				"element": "C" 
			},
			{
				"x": 1.1632522023,
				"y": 1.9706452983,
				"z": -0.8652514503,
				"element": "C" 
			},
			{
				"x": 1.1292348382,
				"y": 0.7536906968,
				"z": -2.2514329376,
				"element": "S" 
			},
			{
				"x": 0.4340202032,
				"y": 1.3062666909,
				"z": -3.4222584594,
				"element": "O" 
			},
			{
				"x": 2.4799916926,
				"y": 0.1770318666,
				"z": -2.3791162439,
				"element": "O" 
			},
			{
				"x": 0.0857755889,
				"y": -0.4632329585,
				"z": -1.3812509009,
				"element": "C" 
			},
			{
				"x": -3.2962006431,
				"y": -1.5765407587,
				"z": 4.1205810571,
				"element": "H" 
			},
			{
				"x": -1.5483230107,
				"y": -1.3431735602,
				"z": 3.9539921786,
				"element": "H" 
			},
			{
				"x": -2.6614556808,
				"y": -0.0215741505,
				"z": 3.5498647472,
				"element": "H" 
			},
			{
				"x": -3.6398943133,
				"y": -1.3473476929,
				"z": 1.6908420118,
				"element": "H" 
			},
			{
				"x": -0.2585697592,
				"y": -2.4404542909,
				"z": 2.5878865338,
				"element": "H" 
			},
			{
				"x": 1.080125023,
				"y": -1.273050031,
				"z": 2.561070042,
				"element": "H" 
			},
			{
				"x": 0.9824514268,
				"y": -2.5708187323,
				"z": 1.3495506232,
				"element": "H" 
			},
			{
				"x": 1.4644951292,
				"y": -0.5633015703,
				"z": 0.2432063716,
				"element": "H" 
			},
			{
				"x": 0.8631017466,
				"y": 1.5845796034,
				"z": 1.2658412351,
				"element": "H" 
			},
			{
				"x": -0.6323060326,
				"y": 1.6423601036,
				"z": 0.3145353517,
				"element": "H" 
			},
			{
				"x": 0.7005275165,
				"y": 2.8918142035,
				"z": -1.2220255779,
				"element": "H" 
			},
			{
				"x": 2.2217837392,
				"y": 2.1432260208,
				"z": -0.6606379639,
				"element": "H" 
			},
			{
				"x": 0.3578420427,
				"y": -1.4543234568,
				"z": -1.7471599202,
				"element": "H" 
			},
			{
				"x": -0.9601268849,
				"y": -0.2359096883,
				"z": -1.5868440671,
				"element": "H" 
			}
		],
		 "valence_orbital": [ 
			{
				"type": "occ",
				"energy": -0.30552,
				"method": "rhf"
			},
			{
				"type": "occ",
				"energy": -0.29307,
				"method": "rhf"
			},
			{
				"type": "occ",
				"energy": -0.28559,
				"method": "rhf"
			},
			{
				"type": "occ",
				"energy": -0.27088,
				"method": "rhf"
			},
			{
				"type": "occ",
				"energy": -0.26283,
				"method": "rhf"
			},
			{
				"type": "unocc",
				"energy": -0.02892,
				"method": "rhf"
			},
			{
				"type": "unocc",
				"energy": 0.03033,
				"method": "rhf"
			},
			{
				"type": "unocc",
				"energy": 0.04561,
				"method": "rhf"
			},
			{
				"type": "unocc",
				"energy": 0.05984,
				"method": "rhf"
			},
			{
				"type": "unocc",
				"energy": 0.07236,
				"method": "rhf"
			}
		],
		"cosmo_sigma_profile": { 
			"-0.025": 0.0,
			"-0.024": 0.0,
			"-0.023": 0.0,
			"-0.022": 0.0,
			"-0.021": 0.0,
			"-0.02": 0.0,
			"-0.019": 0.0,
			"-0.018": 0.0,
			"-0.017": 0.0,
			"-0.016": 0.0,
			"-0.015": 0.0,
			"-0.014": 0.0,
			"-0.013": 0.0,
			"-0.012": 0.0,
			"-0.011": 0.0,
			"-0.01": 0.0,
			"-0.009": 0.370656250053,
			"-0.008": 5.35610473836,
			"-0.007": 15.0175643321,
			"-0.006": 22.7501621186,
			"-0.005": 26.79938305,
			"-0.004": 26.0458810451,
			"-0.003": 22.9832414777,
			"-0.002": 19.2799366467,
			"-0.001": 14.7043708225,
			"0.0": 9.18210062009,
			"0.001": 7.6262214776,
			"0.002": 7.6833890771,
			"0.003": 7.61177422631,
			"0.004": 9.01091385612,
			"0.005": 9.69556838373,
			"0.006": 8.27605080103,
			"0.007": 2.22945846491,
			"0.008": 3.16928649872,
			"0.009": 4.38346045967,
			"0.01": 5.19123400487,
			"0.011": 10.694453364,
			"0.012": 12.5662487932,
			"0.013": 4.51524861885,
			"0.014": 0.536674540668,
			"0.015": 0.0,
			"0.016": 0.0,
			"0.017": 0.0,
			"0.018": 0.0,
			"0.019": 0.0,
			"0.02": 0.0,
			"0.021": 0.0,
			"0.022": 0.0,
			"0.023": 0.0,
			"0.024": 0.0,
			"0.025": 0.0
		}
	}
}
