{
	 "smiles": "[O-][N+](=O)C1=CC=C(NN=C(C2=CC=CC=C2)C2=CC=CC=C2)C=C1", 
	 "Tm": 429.15, 
	 "num_atms": 39, 
	 "gaussian": { 
		 "optdone": 1, 
		 "sigma_profile": "yes", 
		 "theory": "DFT", 
		 "functional": "B3LYP", 
		 "basiset": "6-31G**", 
		 "properties": { 
			 "R2extent": 11525.0753, 
			 "electric_dipole_moment_norm": 8.72250330238, 
			 "electric_quadrupole_moment_norm": 33.3741625252, 
			 "total_energy": -1047.6452079, 
			 "HOMO_LUMO_gap": 0.13119, 
			 "cosmo_polarized_energy": -15.84, 
			 "cosmo_cavitation_energy": 44.92, 
			 "cosmo_dispersion_energy": -31.19, 
			 "cosmo_repulsion_energy": 2.36, 
			 "cosmo_total_nonelectrostatic_energy": 16.09, 
			 "SMD_solvation_energy": 9.2 
		},
		"coords": [
			{
				"x": -4.4029018266,
				"y": -3.642460855,
				"z": -4.1263611808,
				"element": "O" 
			},
			{
				"x": -3.8028039594,
				"y": -3.9877474636,
				"z": -3.1040349034,
				"element": "N" 
			},
			{
				"x": -3.795693616,
				"y": -5.1385139876,
				"z": -2.6578848045,
				"element": "O" 
			},
			{
				"x": -3.0552128453,
				"y": -2.9709868028,
				"z": -2.3779195631,
				"element": "C" 
			},
			{
				"x": -3.0417364946,
				"y": -1.6579690572,
				"z": -2.8557991835,
				"element": "C" 
			},
			{
				"x": -2.3297849038,
				"y": -0.6926874359,
				"z": -2.1639797726,
				"element": "C" 
			},
			{
				"x": -1.6255569907,
				"y": -1.029704995,
				"z": -0.9884114077,
				"element": "C" 
			},
			{
				"x": -0.9321640688,
				"y": -0.0361168628,
				"z": -0.3267705704,
				"element": "N" 
			},
			{
				"x": -0.1959748804,
				"y": -0.3025339353,
				"z": 0.7722336517,
				"element": "N" 
			},
			{
				"x": 0.432181016,
				"y": 0.6623032154,
				"z": 1.3717461726,
				"element": "C" 
			},
			{
				"x": 1.2778597351,
				"y": 0.3053302992,
				"z": 2.5344927308,
				"element": "C" 
			},
			{
				"x": 1.6365629053,
				"y": -1.0343888943,
				"z": 2.778988098,
				"element": "C" 
			},
			{
				"x": 2.4157300053,
				"y": -1.3700990657,
				"z": 3.8806245284,
				"element": "C" 
			},
			{
				"x": 2.8591655594,
				"y": -0.3788425453,
				"z": 4.7625268127,
				"element": "C" 
			},
			{
				"x": 2.5131649592,
				"y": 0.9519663952,
				"z": 4.5297193091,
				"element": "C" 
			},
			{
				"x": 1.7308419449,
				"y": 1.293026143,
				"z": 3.4260810721,
				"element": "C" 
			},
			{
				"x": 0.3436397735,
				"y": 2.0918714347,
				"z": 0.9286878833,
				"element": "C" 
			},
			{
				"x": 1.4666915652,
				"y": 2.7426156147,
				"z": 0.3927820628,
				"element": "C" 
			},
			{
				"x": 1.3795487662,
				"y": 4.0662446685,
				"z": -0.0385094128,
				"element": "C" 
			},
			{
				"x": 0.1712611919,
				"y": 4.7598617538,
				"z": 0.0625786989,
				"element": "C" 
			},
			{
				"x": -0.9510903521,
				"y": 4.1243252675,
				"z": 0.5965545471,
				"element": "C" 
			},
			{
				"x": -0.8674471645,
				"y": 2.7980737859,
				"z": 1.0250157219,
				"element": "C" 
			},
			{
				"x": -1.6520256074,
				"y": -2.3590420482,
				"z": -0.5188064225,
				"element": "C" 
			},
			{
				"x": -2.3641826064,
				"y": -3.3224187835,
				"z": -1.2148665791,
				"element": "C" 
			},
			{
				"x": -3.5869806465,
				"y": -1.4181899199,
				"z": -3.7599864051,
				"element": "H" 
			},
			{
				"x": -2.3103929254,
				"y": 0.3306949699,
				"z": -2.5291733246,
				"element": "H" 
			},
			{
				"x": -0.958543391,
				"y": 0.909484993,
				"z": -0.6975326234,
				"element": "H" 
			},
			{
				"x": 1.3001748895,
				"y": -1.8000245479,
				"z": 2.0891518359,
				"element": "H" 
			},
			{
				"x": 2.6859356305,
				"y": -2.408549113,
				"z": 4.0502821542,
				"element": "H" 
			},
			{
				"x": 3.4711098048,
				"y": -0.6436896475,
				"z": 5.6198448038,
				"element": "H" 
			},
			{
				"x": 2.8493086125,
				"y": 1.7299369929,
				"z": 5.209212439,
				"element": "H" 
			},
			{
				"x": 1.4624503559,
				"y": 2.331108206,
				"z": 3.2609922105,
				"element": "H" 
			},
			{
				"x": 2.4081033635,
				"y": 2.2061799973,
				"z": 0.3190481607,
				"element": "H" 
			},
			{
				"x": 2.2557894337,
				"y": 4.556551792,
				"z": -0.4525086812,
				"element": "H" 
			},
			{
				"x": 0.1058402872,
				"y": 5.7913674814,
				"z": -0.2707665834,
				"element": "H" 
			},
			{
				"x": -1.8913065576,
				"y": 4.6607183113,
				"z": 0.685335951,
				"element": "H" 
			},
			{
				"x": -1.7391155312,
				"y": 2.3087482744,
				"z": 1.4511496044,
				"element": "H" 
			},
			{
				"x": -1.1145890583,
				"y": -2.6086285481,
				"z": 0.3865663963,
				"element": "H" 
			},
			{
				"x": -2.3988563739,
				"y": -4.3494150873,
				"z": -0.8729034276,
				"element": "H" 
			}
		],
		 "valence_orbital": [ 
			{
				"type": "occ",
				"energy": -0.27198,
				"method": "rhf"
			},
			{
				"type": "occ",
				"energy": -0.27021,
				"method": "rhf"
			},
			{
				"type": "occ",
				"energy": -0.26,
				"method": "rhf"
			},
			{
				"type": "occ",
				"energy": -0.25674,
				"method": "rhf"
			},
			{
				"type": "occ",
				"energy": -0.20643,
				"method": "rhf"
			},
			{
				"type": "unocc",
				"energy": -0.07524,
				"method": "rhf"
			},
			{
				"type": "unocc",
				"energy": -0.04807,
				"method": "rhf"
			},
			{
				"type": "unocc",
				"energy": -0.02786,
				"method": "rhf"
			},
			{
				"type": "unocc",
				"energy": -0.02747,
				"method": "rhf"
			},
			{
				"type": "unocc",
				"energy": -0.01668,
				"method": "rhf"
			}
		],
		"cosmo_sigma_profile": { 
			"-0.025": 0.0,
			"-0.024": 0.0,
			"-0.023": 0.0,
			"-0.022": 0.0,
			"-0.021": 0.0,
			"-0.02": 0.0,
			"-0.019": 0.0,
			"-0.018": 0.0,
			"-0.017": 0.0,
			"-0.016": 0.0,
			"-0.015": 0.0,
			"-0.014": 0.387864669134,
			"-0.013": 1.3616483586,
			"-0.012": 0.597699495354,
			"-0.011": 1.01105437683,
			"-0.01": 1.5650085945,
			"-0.009": 1.15043855366,
			"-0.008": 2.29084330537,
			"-0.007": 6.19947354299,
			"-0.006": 19.6948120209,
			"-0.005": 28.0030025316,
			"-0.004": 30.4816687901,
			"-0.003": 25.353227875,
			"-0.002": 22.8268609816,
			"-0.001": 23.4838014792,
			"0.0": 27.9179475855,
			"0.001": 30.6898685397,
			"0.002": 35.2523301424,
			"0.003": 27.5180756797,
			"0.004": 22.8632089564,
			"0.005": 17.5390419031,
			"0.006": 6.9960915357,
			"0.007": 3.94284527656,
			"0.008": 7.87758006979,
			"0.009": 8.60776870236,
			"0.01": 4.16150537564,
			"0.011": 3.19473733935,
			"0.012": 0.246702125861,
			"0.013": 0.0,
			"0.014": 0.0,
			"0.015": 0.0,
			"0.016": 0.0,
			"0.017": 0.0,
			"0.018": 0.0,
			"0.019": 0.0,
			"0.02": 0.0,
			"0.021": 0.0,
			"0.022": 0.0,
			"0.023": 0.0,
			"0.024": 0.0,
			"0.025": 0.0
		}
	}
}
