{
	 "smiles": "C=CN1C(=O)C2=CC=CC=C2C1=O", 
	 "Tm": 359.15, 
	 "num_atms": 20, 
	 "gaussian": { 
		 "optdone": 1, 
		 "sigma_profile": "yes", 
		 "theory": "DFT", 
		 "functional": "B3LYP", 
		 "basiset": "6-31G**", 
		 "properties": { 
			 "R2extent": 2895.9325, 
			 "electric_dipole_moment_norm": 3.15926572007, 
			 "electric_quadrupole_moment_norm": 7.45219067926, 
			 "total_energy": -590.488990121, 
			 "HOMO_LUMO_gap": 0.15061, 
			 "cosmo_polarized_energy": -9.02, 
			 "cosmo_cavitation_energy": 25.17, 
			 "cosmo_dispersion_energy": -18.34, 
			 "cosmo_repulsion_energy": 1.4, 
			 "cosmo_total_nonelectrostatic_energy": 8.24, 
			 "SMD_solvation_energy": 6.62 
		},
		"coords": [
			{
				"x": 2.9242537345,
				"y": 3.9211967792,
				"z": 0.5480040837,
				"element": "C" 
			},
			{
				"x": 1.7849328389,
				"y": 3.3969453056,
				"z": 1.0044460505,
				"element": "C" 
			},
			{
				"x": 1.0305590968,
				"y": 2.3759342428,
				"z": 0.3939153482,
				"element": "N" 
			},
			{
				"x": 1.313018617,
				"y": 1.6972060545,
				"z": -0.8148412875,
				"element": "C" 
			},
			{
				"x": 2.2703193781,
				"y": 1.8884517307,
				"z": -1.5364158651,
				"element": "O" 
			},
			{
				"x": 0.2000999574,
				"y": 0.7208715956,
				"z": -0.9975704467,
				"element": "C" 
			},
			{
				"x": -0.0175484561,
				"y": -0.1955854153,
				"z": -2.0161489812,
				"element": "C" 
			},
			{
				"x": -1.1638031313,
				"y": -0.9967456662,
				"z": -1.9273117198,
				"element": "C" 
			},
			{
				"x": -2.0517377005,
				"y": -0.8732171569,
				"z": -0.8504224996,
				"element": "C" 
			},
			{
				"x": -1.8222697732,
				"y": 0.0557923956,
				"z": 0.1730242078,
				"element": "C" 
			},
			{
				"x": -0.684243072,
				"y": 0.8436738141,
				"z": 0.0746344513,
				"element": "C" 
			},
			{
				"x": -0.171241084,
				"y": 1.9030884998,
				"z": 0.9842924537,
				"element": "C" 
			},
			{
				"x": -0.6417586772,
				"y": 2.3148352271,
				"z": 2.0238651444,
				"element": "O" 
			},
			{
				"x": 3.3917287519,
				"y": 3.5961703516,
				"z": -0.3708845544,
				"element": "H" 
			},
			{
				"x": 3.3996511821,
				"y": 4.7063443814,
				"z": 1.1247426191,
				"element": "H" 
			},
			{
				"x": 1.3172022728,
				"y": 3.7244746562,
				"z": 1.9270121855,
				"element": "H" 
			},
			{
				"x": 0.6774160463,
				"y": -0.281984587,
				"z": -2.8450288873,
				"element": "H" 
			},
			{
				"x": -1.3694313612,
				"y": -1.726266461,
				"z": -2.7049110743,
				"element": "H" 
			},
			{
				"x": -2.9312345573,
				"y": -1.5087716355,
				"z": -0.8104804833,
				"element": "H" 
			},
			{
				"x": -2.5021140632,
				"y": 0.1611858876,
				"z": 1.0121792551,
				"element": "H" 
			}
		],
		 "valence_orbital": [ 
			{
				"type": "occ",
				"energy": -0.29193,
				"method": "rhf"
			},
			{
				"type": "occ",
				"energy": -0.28525,
				"method": "rhf"
			},
			{
				"type": "occ",
				"energy": -0.28209,
				"method": "rhf"
			},
			{
				"type": "occ",
				"energy": -0.27418,
				"method": "rhf"
			},
			{
				"type": "occ",
				"energy": -0.23749,
				"method": "rhf"
			},
			{
				"type": "unocc",
				"energy": -0.08688,
				"method": "rhf"
			},
			{
				"type": "unocc",
				"energy": -0.0504,
				"method": "rhf"
			},
			{
				"type": "unocc",
				"energy": 0.01425,
				"method": "rhf"
			},
			{
				"type": "unocc",
				"energy": 0.02444,
				"method": "rhf"
			},
			{
				"type": "unocc",
				"energy": 0.08357,
				"method": "rhf"
			}
		],
		"cosmo_sigma_profile": { 
			"-0.025": 0.0,
			"-0.024": 0.0,
			"-0.023": 0.0,
			"-0.022": 0.0,
			"-0.021": 0.0,
			"-0.02": 0.0,
			"-0.019": 0.0,
			"-0.018": 0.0,
			"-0.017": 0.0,
			"-0.016": 0.0,
			"-0.015": 0.0,
			"-0.014": 0.0,
			"-0.013": 0.0,
			"-0.012": 0.0,
			"-0.011": 0.0,
			"-0.01": 0.0,
			"-0.009": 0.0,
			"-0.008": 2.45575349067,
			"-0.007": 9.92264601282,
			"-0.006": 14.6747931267,
			"-0.005": 13.898301199,
			"-0.004": 13.2145642482,
			"-0.003": 12.9283912908,
			"-0.002": 15.174170006,
			"-0.001": 18.3627733264,
			"0.0": 17.4949422968,
			"0.001": 18.3513620151,
			"0.002": 17.608555141,
			"0.003": 7.94157426905,
			"0.004": 7.57829249797,
			"0.005": 6.09465654626,
			"0.006": 3.93025545408,
			"0.007": 2.99534754724,
			"0.008": 3.49550002462,
			"0.009": 4.49162134084,
			"0.01": 6.7440324372,
			"0.011": 5.71495080383,
			"0.012": 0.50804564437,
			"0.013": 0.0,
			"0.014": 0.0,
			"0.015": 0.0,
			"0.016": 0.0,
			"0.017": 0.0,
			"0.018": 0.0,
			"0.019": 0.0,
			"0.02": 0.0,
			"0.021": 0.0,
			"0.022": 0.0,
			"0.023": 0.0,
			"0.024": 0.0,
			"0.025": 0.0
		}
	}
}
