{
	 "smiles": "COC(=O)C1=CC=C(CNC2=CC3=NNC=C3C=C2)C=C1", 
	 "Tm": 426.15, 
	 "num_atms": 36, 
	 "gaussian": { 
		 "optdone": 1, 
		 "sigma_profile": "yes", 
		 "theory": "DFT", 
		 "functional": "B3LYP", 
		 "basiset": "6-31G**", 
		 "properties": { 
			 "R2extent": 10357.8088, 
			 "electric_dipole_moment_norm": 3.04878809037, 
			 "electric_quadrupole_moment_norm": 23.9744131248, 
			 "total_energy": -933.433247173, 
			 "HOMO_LUMO_gap": 0.14255, 
			 "cosmo_polarized_energy": -20.35, 
			 "cosmo_cavitation_energy": 40.72, 
			 "cosmo_dispersion_energy": -29.41, 
			 "cosmo_repulsion_energy": 2.25, 
			 "cosmo_total_nonelectrostatic_energy": 13.55, 
			 "SMD_solvation_energy": 7.01 
		},
		"coords": [
			{
				"x": -0.1375694664,
				"y": 5.1249215731,
				"z": -5.0567740397,
				"element": "C" 
			},
			{
				"x": 0.2751526159,
				"y": 4.0026616232,
				"z": -4.2638462321,
				"element": "O" 
			},
			{
				"x": -0.727637064,
				"y": 3.3425532774,
				"z": -3.6356602153,
				"element": "C" 
			},
			{
				"x": -1.8948120733,
				"y": 3.6706029902,
				"z": -3.7315388777,
				"element": "O" 
			},
			{
				"x": -0.2357211796,
				"y": 2.1902560014,
				"z": -2.8320846534,
				"element": "C" 
			},
			{
				"x": 1.1220965291,
				"y": 1.849563217,
				"z": -2.7534340279,
				"element": "C" 
			},
			{
				"x": 1.5210450347,
				"y": 0.7617509917,
				"z": -1.9819327597,
				"element": "C" 
			},
			{
				"x": 0.5812344624,
				"y": -0.0080399851,
				"z": -1.2824225211,
				"element": "C" 
			},
			{
				"x": 1.0449930966,
				"y": -1.2284101861,
				"z": -0.496183658,
				"element": "C" 
			},
			{
				"x": 0.1310913868,
				"y": -1.6716752035,
				"z": 0.545617942,
				"element": "N" 
			},
			{
				"x": 0.2010097713,
				"y": -1.1823362775,
				"z": 1.8571656435,
				"element": "C" 
			},
			{
				"x": -0.2754558807,
				"y": -1.9484605605,
				"z": 2.9083187842,
				"element": "C" 
			},
			{
				"x": -0.2313295981,
				"y": -1.4103988646,
				"z": 4.2164059604,
				"element": "C" 
			},
			{
				"x": -0.6430479487,
				"y": -1.9935835952,
				"z": 5.3619609942,
				"element": "N" 
			},
			{
				"x": -0.3657466848,
				"y": -1.0597954772,
				"z": 6.298796029,
				"element": "N" 
			},
			{
				"x": 0.1950045235,
				"y": 0.0794842629,
				"z": 5.8345047608,
				"element": "C" 
			},
			{
				"x": 0.3093262612,
				"y": -0.0980325952,
				"z": 4.4534299715,
				"element": "C" 
			},
			{
				"x": 0.7928132844,
				"y": 0.6667208427,
				"z": 3.3636437694,
				"element": "C" 
			},
			{
				"x": 0.7338659943,
				"y": 0.1319913377,
				"z": 2.0996849332,
				"element": "C" 
			},
			{
				"x": -0.7723753651,
				"y": 0.3394964981,
				"z": -1.361933796,
				"element": "C" 
			},
			{
				"x": -1.1777748255,
				"y": 1.4281381884,
				"z": -2.1285429306,
				"element": "C" 
			},
			{
				"x": -0.8226416237,
				"y": 4.8080794426,
				"z": -5.8473656635,
				"element": "H" 
			},
			{
				"x": -0.6404030289,
				"y": 5.8716518536,
				"z": -4.4368758984,
				"element": "H" 
			},
			{
				"x": 0.7769939629,
				"y": 5.5357553778,
				"z": -5.484779716,
				"element": "H" 
			},
			{
				"x": 1.8549173565,
				"y": 2.4407866162,
				"z": -3.2904969334,
				"element": "H" 
			},
			{
				"x": 2.5768186993,
				"y": 0.5069426087,
				"z": -1.9201395017,
				"element": "H" 
			},
			{
				"x": 1.1569014705,
				"y": -2.061683034,
				"z": -1.2012478693,
				"element": "H" 
			},
			{
				"x": 2.0513960249,
				"y": -1.0345595802,
				"z": -0.0947760179,
				"element": "H" 
			},
			{
				"x": -0.0857900785,
				"y": -2.6566631789,
				"z": 0.5054138575,
				"element": "H" 
			},
			{
				"x": -0.6774743833,
				"y": -2.9443674742,
				"z": 2.7447620826,
				"element": "H" 
			},
			{
				"x": -0.5921326172,
				"y": -1.2692009648,
				"z": 7.2595488101,
				"element": "H" 
			},
			{
				"x": 0.459252363,
				"y": 0.8969221018,
				"z": 6.4887915179,
				"element": "H" 
			},
			{
				"x": 1.1985457739,
				"y": 1.6627997998,
				"z": 3.5155054416,
				"element": "H" 
			},
			{
				"x": 1.0781695222,
				"y": 0.7218249043,
				"z": 1.2579793491,
				"element": "H" 
			},
			{
				"x": -1.4967714077,
				"y": -0.2473613306,
				"z": -0.8067599165,
				"element": "H" 
			},
			{
				"x": -2.2239449077,
				"y": 1.7076647991,
				"z": -2.1953346185,
				"element": "H" 
			}
		],
		 "valence_orbital": [ 
			{
				"type": "occ",
				"energy": -0.26909,
				"method": "rhf"
			},
			{
				"type": "occ",
				"energy": -0.2552,
				"method": "rhf"
			},
			{
				"type": "occ",
				"energy": -0.2484,
				"method": "rhf"
			},
			{
				"type": "occ",
				"energy": -0.21665,
				"method": "rhf"
			},
			{
				"type": "occ",
				"energy": -0.18432,
				"method": "rhf"
			},
			{
				"type": "unocc",
				"energy": -0.04177,
				"method": "rhf"
			},
			{
				"type": "unocc",
				"energy": -0.02571,
				"method": "rhf"
			},
			{
				"type": "unocc",
				"energy": -0.00532,
				"method": "rhf"
			},
			{
				"type": "unocc",
				"energy": 0.04636,
				"method": "rhf"
			},
			{
				"type": "unocc",
				"energy": 0.05469,
				"method": "rhf"
			}
		],
		"cosmo_sigma_profile": { 
			"-0.025": 0.0,
			"-0.024": 0.0,
			"-0.023": 0.0,
			"-0.022": 0.0,
			"-0.021": 0.0,
			"-0.02": 0.0,
			"-0.019": 0.0,
			"-0.018": 0.0,
			"-0.017": 0.595491061825,
			"-0.016": 1.73469968855,
			"-0.015": 1.28812569913,
			"-0.014": 1.20892230931,
			"-0.013": 2.04451795299,
			"-0.012": 1.86613747586,
			"-0.011": 2.27261428558,
			"-0.01": 2.60693432586,
			"-0.009": 4.73040871605,
			"-0.008": 4.38300174082,
			"-0.007": 5.23786743697,
			"-0.006": 17.0125250195,
			"-0.005": 21.6290021444,
			"-0.004": 26.1628245089,
			"-0.003": 26.168610066,
			"-0.002": 21.2424506524,
			"-0.001": 16.3414172084,
			"0.0": 16.2922980021,
			"0.001": 19.6903247531,
			"0.002": 20.0819076024,
			"0.003": 22.4218810012,
			"0.004": 25.1396235107,
			"0.005": 17.617665464,
			"0.006": 17.5635900023,
			"0.007": 4.53150030982,
			"0.008": 2.94718775292,
			"0.009": 3.39660301066,
			"0.01": 3.59784309904,
			"0.011": 3.23079137818,
			"0.012": 5.8417029891,
			"0.013": 1.99491097567,
			"0.014": 1.10630668263,
			"0.015": 1.44160717533,
			"0.016": 0.860942321481,
			"0.017": 0.820703682169,
			"0.018": 0.0282253979224,
			"0.019": 0.0,
			"0.02": 0.0,
			"0.021": 0.0,
			"0.022": 0.0,
			"0.023": 0.0,
			"0.024": 0.0,
			"0.025": 0.0
		}
	}
}
