{
	 "smiles": "CCOC(=O)C1=C(C)OC2=C1C(=O)NC(CCl)=N2", 
	 "Tm": 471.15, 
	 "num_atms": 29, 
	 "gaussian": { 
		 "optdone": 1, 
		 "sigma_profile": "yes", 
		 "theory": "DFT", 
		 "functional": "B3LYP", 
		 "basiset": "6-31G**", 
		 "properties": { 
			 "R2extent": 7386.998, 
			 "electric_dipole_moment_norm": 3.48879070596, 
			 "electric_quadrupole_moment_norm": 16.8687681631, 
			 "total_energy": -1296.42081603, 
			 "HOMO_LUMO_gap": 0.17159, 
			 "cosmo_polarized_energy": -20.03, 
			 "cosmo_cavitation_energy": 35.86, 
			 "cosmo_dispersion_energy": -26.0, 
			 "cosmo_repulsion_energy": 2.04, 
			 "cosmo_total_nonelectrostatic_energy": 11.89, 
			 "SMD_solvation_energy": 6.34 
		},
		"coords": [
			{
				"x": 1.6995635749,
				"y": 3.4695190105,
				"z": -2.4677860945,
				"element": "C" 
			},
			{
				"x": 1.6064571649,
				"y": 1.9700397511,
				"z": -2.7075879581,
				"element": "C" 
			},
			{
				"x": 1.4486863447,
				"y": 1.2381316034,
				"z": -1.4667118306,
				"element": "O" 
			},
			{
				"x": 0.1781659399,
				"y": 1.1395592382,
				"z": -0.9919367333,
				"element": "C" 
			},
			{
				"x": -0.7886946903,
				"y": 1.603832434,
				"z": -1.5545610217,
				"element": "O" 
			},
			{
				"x": 0.1224634231,
				"y": 0.4043947862,
				"z": 0.2917428953,
				"element": "C" 
			},
			{
				"x": 1.1197278842,
				"y": 0.262271692,
				"z": 1.2284860916,
				"element": "C" 
			},
			{
				"x": 2.5414331854,
				"y": 0.6861502076,
				"z": 1.3186251601,
				"element": "C" 
			},
			{
				"x": 0.6483492551,
				"y": -0.4068999761,
				"z": 2.3315707881,
				"element": "O" 
			},
			{
				"x": -0.6559001255,
				"y": -0.7029695796,
				"z": 2.098713745,
				"element": "C" 
			},
			{
				"x": -1.0465262648,
				"y": -0.2279198483,
				"z": 0.8600709339,
				"element": "C" 
			},
			{
				"x": -2.3947677449,
				"y": -0.5299666527,
				"z": 0.4129312409,
				"element": "C" 
			},
			{
				"x": -2.950046718,
				"y": -0.315241156,
				"z": -0.646708415,
				"element": "O" 
			},
			{
				"x": -3.1069525424,
				"y": -1.2102766175,
				"z": 1.4570365391,
				"element": "N" 
			},
			{
				"x": -2.5998109912,
				"y": -1.6065958092,
				"z": 2.6562935712,
				"element": "C" 
			},
			{
				"x": -3.5171085207,
				"y": -2.2651900439,
				"z": 3.6524345139,
				"element": "C" 
			},
			{
				"x": -4.6027444462,
				"y": -3.5138506136,
				"z": 2.907768275,
				"element": "Cl" 
			},
			{
				"x": -1.3648076149,
				"y": -1.3850067861,
				"z": 3.0239645399,
				"element": "N" 
			},
			{
				"x": 2.5193542325,
				"y": 3.7082461627,
				"z": -1.7832237222,
				"element": "H" 
			},
			{
				"x": 0.7646395233,
				"y": 3.8500561608,
				"z": -2.0499032114,
				"element": "H" 
			},
			{
				"x": 1.8857170832,
				"y": 3.9847967298,
				"z": -3.4160257836,
				"element": "H" 
			},
			{
				"x": 0.7670953696,
				"y": 1.7285213919,
				"z": -3.3633831558,
				"element": "H" 
			},
			{
				"x": 2.5295753216,
				"y": 1.5735209357,
				"z": -3.137035531,
				"element": "H" 
			},
			{
				"x": 3.1993086285,
				"y": -0.1891626623,
				"z": 1.370750766,
				"element": "H" 
			},
			{
				"x": 2.7068033544,
				"y": 1.2745412309,
				"z": 2.2276755928,
				"element": "H" 
			},
			{
				"x": 2.8129469468,
				"y": 1.274641856,
				"z": 0.4450610864,
				"element": "H" 
			},
			{
				"x": -4.0501629279,
				"y": -1.4842790634,
				"z": 1.2019037498,
				"element": "H" 
			},
			{
				"x": -4.1774052162,
				"y": -1.5299247816,
				"z": 4.1186041711,
				"element": "H" 
			},
			{
				"x": -2.9107594294,
				"y": -2.7502396004,
				"z": 4.4144297972,
				"element": "H" 
			}
		],
		 "valence_orbital": [ 
			{
				"type": "occ",
				"energy": -0.29913,
				"method": "rhf"
			},
			{
				"type": "occ",
				"energy": -0.29101,
				"method": "rhf"
			},
			{
				"type": "occ",
				"energy": -0.27754,
				"method": "rhf"
			},
			{
				"type": "occ",
				"energy": -0.25974,
				"method": "rhf"
			},
			{
				"type": "occ",
				"energy": -0.22691,
				"method": "rhf"
			},
			{
				"type": "unocc",
				"energy": -0.05532,
				"method": "rhf"
			},
			{
				"type": "unocc",
				"energy": -0.03436,
				"method": "rhf"
			},
			{
				"type": "unocc",
				"energy": -0.00304,
				"method": "rhf"
			},
			{
				"type": "unocc",
				"energy": 0.01345,
				"method": "rhf"
			},
			{
				"type": "unocc",
				"energy": 0.06953,
				"method": "rhf"
			}
		],
		"cosmo_sigma_profile": { 
			"-0.025": 0.0,
			"-0.024": 0.0,
			"-0.023": 0.0,
			"-0.022": 0.0,
			"-0.021": 0.0,
			"-0.02": 0.0,
			"-0.019": 0.0,
			"-0.018": 0.0,
			"-0.017": 0.0,
			"-0.016": 0.0,
			"-0.015": 0.428014448395,
			"-0.014": 0.670250153165,
			"-0.013": 0.686269926284,
			"-0.012": 0.759099105744,
			"-0.011": 1.34995766755,
			"-0.01": 4.32820157696,
			"-0.009": 4.92797956508,
			"-0.008": 4.78240718837,
			"-0.007": 4.77105210344,
			"-0.006": 11.154334409,
			"-0.005": 14.6465949814,
			"-0.004": 22.7514320397,
			"-0.003": 31.8249484482,
			"-0.002": 33.0589147618,
			"-0.001": 25.7628331276,
			"0.0": 22.8170805125,
			"0.001": 13.9194534866,
			"0.002": 12.0864382397,
			"0.003": 9.8438527106,
			"0.004": 11.0356155195,
			"0.005": 11.8024880146,
			"0.006": 6.46793859189,
			"0.007": 5.67876203674,
			"0.008": 3.33737433247,
			"0.009": 3.21276542093,
			"0.01": 3.42950159279,
			"0.011": 4.55089387752,
			"0.012": 7.49727380489,
			"0.013": 5.41699416061,
			"0.014": 2.35196749513,
			"0.015": 1.809841288,
			"0.016": 0.992436341824,
			"0.017": 0.0596978799236,
			"0.018": 0.0,
			"0.019": 0.0,
			"0.02": 0.0,
			"0.021": 0.0,
			"0.022": 0.0,
			"0.023": 0.0,
			"0.024": 0.0,
			"0.025": 0.0
		}
	}
}
