{
	 "smiles": "CC1=NC=C(C=O)N1C1=CC=C(Br)C=C1", 
	 "Tm": 384.15, 
	 "num_atms": 24, 
	 "gaussian": { 
		 "optdone": 1, 
		 "sigma_profile": "yes", 
		 "theory": "DFT", 
		 "functional": "B3LYP", 
		 "basiset": "6-31G**", 
		 "properties": { 
			 "R2extent": 8624.1969, 
			 "electric_dipole_moment_norm": 1.87867027975, 
			 "electric_quadrupole_moment_norm": 16.0818615878, 
			 "total_energy": -3180.71786778, 
			 "HOMO_LUMO_gap": 0.18632, 
			 "cosmo_polarized_energy": -13.09, 
			 "cosmo_cavitation_energy": 31.41, 
			 "cosmo_dispersion_energy": -22.1, 
			 "cosmo_repulsion_energy": 1.74, 
			 "cosmo_total_nonelectrostatic_energy": 11.05, 
			 "SMD_solvation_energy": 3.78 
		},
		"coords": [
			{
				"x": 1.1491072341,
				"y": -2.4008643533,
				"z": -1.2633610855,
				"element": "C" 
			},
			{
				"x": 1.0547876929,
				"y": -1.1711751294,
				"z": -0.4211994799,
				"element": "C" 
			},
			{
				"x": 2.0483023476,
				"y": -0.3082945329,
				"z": -0.2366074656,
				"element": "N" 
			},
			{
				"x": 1.5416484382,
				"y": 0.6647047032,
				"z": 0.5679231311,
				"element": "C" 
			},
			{
				"x": 0.2178820612,
				"y": 0.4158452465,
				"z": 0.8891062996,
				"element": "C" 
			},
			{
				"x": -0.6713715258,
				"y": 1.19451788,
				"z": 1.728651104,
				"element": "C" 
			},
			{
				"x": -1.8360773651,
				"y": 0.9326841601,
				"z": 1.9881213527,
				"element": "O" 
			},
			{
				"x": -0.0842277827,
				"y": -0.7863400651,
				"z": 0.2403840056,
				"element": "N" 
			},
			{
				"x": -1.3336578706,
				"y": -1.4905511103,
				"z": 0.2381631677,
				"element": "C" 
			},
			{
				"x": -1.4494671999,
				"y": -2.6923603698,
				"z": 0.9383213711,
				"element": "C" 
			},
			{
				"x": -2.6482996818,
				"y": -3.4046569711,
				"z": 0.9093620664,
				"element": "C" 
			},
			{
				"x": -3.7222257789,
				"y": -2.897939179,
				"z": 0.1801958805,
				"element": "C" 
			},
			{
				"x": -5.3653199328,
				"y": -3.8677908383,
				"z": 0.1354128433,
				"element": "Br" 
			},
			{
				"x": -3.6184061794,
				"y": -1.6940311076,
				"z": -0.5173510019,
				"element": "C" 
			},
			{
				"x": -2.4165322243,
				"y": -0.991250501,
				"z": -0.4887524547,
				"element": "C" 
			},
			{
				"x": 1.0997942453,
				"y": -3.3149082185,
				"z": -0.661938144,
				"element": "H" 
			},
			{
				"x": 2.1059350284,
				"y": -2.3815172181,
				"z": -1.785889438,
				"element": "H" 
			},
			{
				"x": 0.3390158863,
				"y": -2.4494343336,
				"z": -1.9981119285,
				"element": "H" 
			},
			{
				"x": 2.1408289957,
				"y": 1.5073872852,
				"z": 0.8890077124,
				"element": "H" 
			},
			{
				"x": -0.1788232155,
				"y": 2.1019149521,
				"z": 2.1409262484,
				"element": "H" 
			},
			{
				"x": -0.6083490901,
				"y": -3.0632498578,
				"z": 1.5151270465,
				"element": "H" 
			},
			{
				"x": -2.7470379721,
				"y": -4.3374358748,
				"z": 1.4520933076,
				"element": "H" 
			},
			{
				"x": -4.4652450302,
				"y": -1.3114578098,
				"z": -1.0748293186,
				"element": "H" 
			},
			{
				"x": -2.3193610806,
				"y": -0.0516967567,
				"z": -1.0217552203,
				"element": "H" 
			}
		],
		 "valence_orbital": [ 
			{
				"type": "occ",
				"energy": -0.28754,
				"method": "rhf"
			},
			{
				"type": "occ",
				"energy": -0.27861,
				"method": "rhf"
			},
			{
				"type": "occ",
				"energy": -0.25749,
				"method": "rhf"
			},
			{
				"type": "occ",
				"energy": -0.24648,
				"method": "rhf"
			},
			{
				"type": "occ",
				"energy": -0.24213,
				"method": "rhf"
			},
			{
				"type": "unocc",
				"energy": -0.05581,
				"method": "rhf"
			},
			{
				"type": "unocc",
				"energy": -0.0306,
				"method": "rhf"
			},
			{
				"type": "unocc",
				"energy": -0.02905,
				"method": "rhf"
			},
			{
				"type": "unocc",
				"energy": -0.0021,
				"method": "rhf"
			},
			{
				"type": "unocc",
				"energy": 0.0336,
				"method": "rhf"
			}
		],
		"cosmo_sigma_profile": { 
			"-0.025": 0.0,
			"-0.024": 0.0,
			"-0.023": 0.0,
			"-0.022": 0.0,
			"-0.021": 0.0,
			"-0.02": 0.0,
			"-0.019": 0.0,
			"-0.018": 0.0,
			"-0.017": 0.0,
			"-0.016": 0.0,
			"-0.015": 0.0,
			"-0.014": 0.0,
			"-0.013": 0.0,
			"-0.012": 0.0,
			"-0.011": 0.0,
			"-0.01": 0.0,
			"-0.009": 0.107775041814,
			"-0.008": 6.68307686792,
			"-0.007": 14.1385785562,
			"-0.006": 16.6959543348,
			"-0.005": 17.6591667069,
			"-0.004": 16.736042174,
			"-0.003": 18.6930664896,
			"-0.002": 20.8145721278,
			"-0.001": 19.6055255669,
			"0.0": 15.7962097227,
			"0.001": 19.502866827,
			"0.002": 20.3104428418,
			"0.003": 14.5815095801,
			"0.004": 16.0032295422,
			"0.005": 6.14079177345,
			"0.006": 3.72876062089,
			"0.007": 3.47363674596,
			"0.008": 2.99746709239,
			"0.009": 2.47092800049,
			"0.01": 3.50360714641,
			"0.011": 4.65574636437,
			"0.012": 4.86504136605,
			"0.013": 2.52013452005,
			"0.014": 1.31929232357,
			"0.015": 0.938450792468,
			"0.016": 0.974251502609,
			"0.017": 0.482076695461,
			"0.018": 0.0,
			"0.019": 0.0,
			"0.02": 0.0,
			"0.021": 0.0,
			"0.022": 0.0,
			"0.023": 0.0,
			"0.024": 0.0,
			"0.025": 0.0
		}
	}
}
