{
	 "smiles": "COC1=CC2=C(C=C1)N(C1CC1)C(C)=C2C(O)=O", 
	 "Tm": 473.15, 
	 "num_atms": 33, 
	 "gaussian": { 
		 "optdone": 1, 
		 "sigma_profile": "yes", 
		 "theory": "DFT", 
		 "functional": "B3LYP", 
		 "basiset": "6-31G**", 
		 "properties": { 
			 "R2extent": 5176.1598, 
			 "electric_dipole_moment_norm": 2.26498467544, 
			 "electric_quadrupole_moment_norm": 20.6537046948, 
			 "total_energy": -822.943971217, 
			 "HOMO_LUMO_gap": 0.17725, 
			 "cosmo_polarized_energy": -13.61, 
			 "cosmo_cavitation_energy": 35.44, 
			 "cosmo_dispersion_energy": -25.57, 
			 "cosmo_repulsion_energy": 1.96, 
			 "cosmo_total_nonelectrostatic_energy": 11.83, 
			 "SMD_solvation_energy": 7.08 
		},
		"coords": [
			{
				"x": 3.7891836105,
				"y": -1.8198826873,
				"z": 1.481639851,
				"element": "C" 
			},
			{
				"x": 3.3432288955,
				"y": -0.5321239394,
				"z": 1.8680127723,
				"element": "O" 
			},
			{
				"x": 2.0787705928,
				"y": -0.1537011625,
				"z": 1.4999217221,
				"element": "C" 
			},
			{
				"x": 1.2023773747,
				"y": -0.9534420027,
				"z": 0.7701717225,
				"element": "C" 
			},
			{
				"x": -0.0697709277,
				"y": -0.4395149108,
				"z": 0.4572363499,
				"element": "C" 
			},
			{
				"x": -0.4283198666,
				"y": 0.8537242492,
				"z": 0.8969170276,
				"element": "C" 
			},
			{
				"x": 0.4575000878,
				"y": 1.6610311103,
				"z": 1.6189428469,
				"element": "C" 
			},
			{
				"x": 1.7094151775,
				"y": 1.1453942249,
				"z": 1.9160009682,
				"element": "C" 
			},
			{
				"x": -1.7354198147,
				"y": 1.112156856,
				"z": 0.4663401571,
				"element": "N" 
			},
			{
				"x": -2.4204967656,
				"y": 2.3629381189,
				"z": 0.6456143633,
				"element": "C" 
			},
			{
				"x": -2.5696761339,
				"y": 2.9252241149,
				"z": 2.0399452222,
				"element": "C" 
			},
			{
				"x": -3.7735907677,
				"y": 2.3908809374,
				"z": 1.3150003273,
				"element": "C" 
			},
			{
				"x": -2.1911630271,
				"y": 0.0382165352,
				"z": -0.2667857566,
				"element": "C" 
			},
			{
				"x": -3.5359883283,
				"y": 0.0401886194,
				"z": -0.9188579749,
				"element": "C" 
			},
			{
				"x": -1.2049197078,
				"y": -0.9478231553,
				"z": -0.2838970894,
				"element": "C" 
			},
			{
				"x": -1.3424779996,
				"y": -2.2329251134,
				"z": -0.9565138063,
				"element": "C" 
			},
			{
				"x": -0.2286374718,
				"y": -3.0143940959,
				"z": -0.8391197417,
				"element": "O" 
			},
			{
				"x": -2.3141832396,
				"y": -2.639081933,
				"z": -1.5785742608,
				"element": "O" 
			},
			{
				"x": 4.8043571722,
				"y": -1.9185409645,
				"z": 1.8704135308,
				"element": "H" 
			},
			{
				"x": 3.1604207945,
				"y": -2.6127746267,
				"z": 1.9080399784,
				"element": "H" 
			},
			{
				"x": 3.8080561614,
				"y": -1.9330184974,
				"z": 0.3895531429,
				"element": "H" 
			},
			{
				"x": 1.4728247435,
				"y": -1.9441958065,
				"z": 0.4347441859,
				"element": "H" 
			},
			{
				"x": 0.1861357687,
				"y": 2.6628920929,
				"z": 1.9316267405,
				"element": "H" 
			},
			{
				"x": 2.4360552027,
				"y": 1.7282649281,
				"z": 2.4718229117,
				"element": "H" 
			},
			{
				"x": -2.2525182106,
				"y": 3.0822036548,
				"z": -0.1549026774,
				"element": "H" 
			},
			{
				"x": -2.459859737,
				"y": 3.9981128194,
				"z": 2.1620152986,
				"element": "H" 
			},
			{
				"x": -2.1772750336,
				"y": 2.3321912091,
				"z": 2.8588416065,
				"element": "H" 
			},
			{
				"x": -4.1807772701,
				"y": 1.4471845431,
				"z": 1.6606076812,
				"element": "H" 
			},
			{
				"x": -4.5102052752,
				"y": 3.0871522982,
				"z": 0.9269411636,
				"element": "H" 
			},
			{
				"x": -3.5894340995,
				"y": -0.7869532072,
				"z": -1.6246601454,
				"element": "H" 
			},
			{
				"x": -4.3400091761,
				"y": -0.0922477789,
				"z": -0.1851238559,
				"element": "H" 
			},
			{
				"x": -3.723805399,
				"y": 0.9856734858,
				"z": -1.4378392479,
				"element": "H" 
			},
			{
				"x": -0.4447973305,
				"y": -3.827909916,
				"z": -1.3235750141,
				"element": "H" 
			}
		],
		 "valence_orbital": [ 
			{
				"type": "occ",
				"energy": -0.28723,
				"method": "rhf"
			},
			{
				"type": "occ",
				"energy": -0.26948,
				"method": "rhf"
			},
			{
				"type": "occ",
				"energy": -0.25968,
				"method": "rhf"
			},
			{
				"type": "occ",
				"energy": -0.20523,
				"method": "rhf"
			},
			{
				"type": "occ",
				"energy": -0.19791,
				"method": "rhf"
			},
			{
				"type": "unocc",
				"energy": -0.02066,
				"method": "rhf"
			},
			{
				"type": "unocc",
				"energy": 0.00717,
				"method": "rhf"
			},
			{
				"type": "unocc",
				"energy": 0.03626,
				"method": "rhf"
			},
			{
				"type": "unocc",
				"energy": 0.08314,
				"method": "rhf"
			},
			{
				"type": "unocc",
				"energy": 0.08796,
				"method": "rhf"
			}
		],
		"cosmo_sigma_profile": { 
			"-0.025": 0.0,
			"-0.024": 0.0,
			"-0.023": 0.0,
			"-0.022": 0.0,
			"-0.021": 0.0,
			"-0.02": 0.0,
			"-0.019": 0.0,
			"-0.018": 0.0855833188353,
			"-0.017": 0.651388014081,
			"-0.016": 0.702393394497,
			"-0.015": 1.13006174248,
			"-0.014": 0.779844061947,
			"-0.013": 0.526486613197,
			"-0.012": 0.380754443353,
			"-0.011": 0.811513120767,
			"-0.01": 0.632261906595,
			"-0.009": 0.788276523942,
			"-0.008": 0.431550542322,
			"-0.007": 1.09660565473,
			"-0.006": 10.3816472686,
			"-0.005": 26.1479678102,
			"-0.004": 27.8280462117,
			"-0.003": 27.9055970108,
			"-0.002": 23.1414129006,
			"-0.001": 22.9351486845,
			"0.0": 18.9983100047,
			"0.001": 13.8945529129,
			"0.002": 15.05197512,
			"0.003": 14.7168042672,
			"0.004": 18.5182153857,
			"0.005": 19.1257106395,
			"0.006": 10.7855058287,
			"0.007": 5.22748034029,
			"0.008": 2.85945482452,
			"0.009": 2.95753069591,
			"0.01": 3.44883468282,
			"0.011": 2.94193207939,
			"0.012": 3.31077182252,
			"0.013": 2.79178600983,
			"0.014": 0.100351040853,
			"0.015": 0.0,
			"0.016": 0.0,
			"0.017": 0.0,
			"0.018": 0.0,
			"0.019": 0.0,
			"0.02": 0.0,
			"0.021": 0.0,
			"0.022": 0.0,
			"0.023": 0.0,
			"0.024": 0.0,
			"0.025": 0.0
		}
	}
}
