{
	 "smiles": "CC(C)(C)OC(=O)NC1=NC=C(C=O)C=C1", 
	 "Tm": 443.15, 
	 "num_atms": 30, 
	 "gaussian": { 
		 "optdone": 1, 
		 "sigma_profile": "yes", 
		 "theory": "DFT", 
		 "functional": "B3LYP", 
		 "basiset": "6-31G**", 
		 "properties": { 
			 "R2extent": 5031.2829, 
			 "electric_dipole_moment_norm": 2.46579150173, 
			 "electric_quadrupole_moment_norm": 25.306721734, 
			 "total_energy": -762.808179393, 
			 "HOMO_LUMO_gap": 0.17517, 
			 "cosmo_polarized_energy": -16.96, 
			 "cosmo_cavitation_energy": 34.37, 
			 "cosmo_dispersion_energy": -23.86, 
			 "cosmo_repulsion_energy": 1.86, 
			 "cosmo_total_nonelectrostatic_energy": 12.37, 
			 "SMD_solvation_energy": 7.19 
		},
		"coords": [
			{
				"x": -0.0695332391,
				"y": -0.3674662503,
				"z": -4.0870124616,
				"element": "C" 
			},
			{
				"x": 0.3758559348,
				"y": 0.7678608434,
				"z": -3.1608940667,
				"element": "C" 
			},
			{
				"x": -0.6356132907,
				"y": 1.9155615801,
				"z": -3.1723286548,
				"element": "C" 
			},
			{
				"x": 1.7842848533,
				"y": 1.2723115476,
				"z": -3.4877915395,
				"element": "C" 
			},
			{
				"x": 0.3184529922,
				"y": 0.3180595117,
				"z": -1.752260538,
				"element": "O" 
			},
			{
				"x": 1.0716611305,
				"y": -0.6885000233,
				"z": -1.3268872477,
				"element": "C" 
			},
			{
				"x": 1.8673081566,
				"y": -1.3517936552,
				"z": -1.9702786094,
				"element": "O" 
			},
			{
				"x": 0.8899906094,
				"y": -0.9806240401,
				"z": 0.0309340139,
				"element": "N" 
			},
			{
				"x": 0.0923645232,
				"y": -0.4517534052,
				"z": 1.0404346923,
				"element": "C" 
			},
			{
				"x": -0.7313081264,
				"y": 0.5713359915,
				"z": 0.7761872223,
				"element": "N" 
			},
			{
				"x": -1.4735737455,
				"y": 1.0404977414,
				"z": 1.77750182,
				"element": "C" 
			},
			{
				"x": -1.4494826876,
				"y": 0.5356731242,
				"z": 3.0850569597,
				"element": "C" 
			},
			{
				"x": -2.3023566614,
				"y": 1.1095461336,
				"z": 4.1400308752,
				"element": "C" 
			},
			{
				"x": -3.0751267959,
				"y": 2.0368649559,
				"z": 3.9810676705,
				"element": "O" 
			},
			{
				"x": -0.5808967881,
				"y": -0.5362075589,
				"z": 3.344682534,
				"element": "C" 
			},
			{
				"x": 0.199682475,
				"y": -1.040794033,
				"z": 2.3224146545,
				"element": "C" 
			},
			{
				"x": -1.0576275455,
				"y": -0.7336490247,
				"z": -3.7914889063,
				"element": "H" 
			},
			{
				"x": -0.1400389053,
				"y": 0.0075030453,
				"z": -5.1131070232,
				"element": "H" 
			},
			{
				"x": 0.6387562898,
				"y": -1.1961339039,
				"z": -4.0641184753,
				"element": "H" 
			},
			{
				"x": -1.6276335606,
				"y": 1.5570761504,
				"z": -2.8848851037,
				"element": "H" 
			},
			{
				"x": -0.337943482,
				"y": 2.6978747174,
				"z": -2.4690299094,
				"element": "H" 
			},
			{
				"x": -0.6962681069,
				"y": 2.3496152045,
				"z": -4.1747648899,
				"element": "H" 
			},
			{
				"x": 2.0858867021,
				"y": 2.0461416896,
				"z": -2.7750620364,
				"element": "H" 
			},
			{
				"x": 1.7882538112,
				"y": 1.7140480079,
				"z": -4.4894344208,
				"element": "H" 
			},
			{
				"x": 2.5108871369,
				"y": 0.4598062951,
				"z": -3.4597446805,
				"element": "H" 
			},
			{
				"x": 1.4870580641,
				"y": -1.7513045957,
				"z": 0.2965653659,
				"element": "H" 
			},
			{
				"x": -2.1370198842,
				"y": 1.8710832848,
				"z": 1.5467382633,
				"element": "H" 
			},
			{
				"x": -2.1927262396,
				"y": 0.6222951374,
				"z": 5.1358739134,
				"element": "H" 
			},
			{
				"x": -0.5245060545,
				"y": -0.9643453586,
				"z": 4.343012203,
				"element": "H" 
			},
			{
				"x": 0.8808124342,
				"y": -1.8692831126,
				"z": 2.4929883751,
				"element": "H" 
			}
		],
		 "valence_orbital": [ 
			{
				"type": "occ",
				"energy": -0.29665,
				"method": "rhf"
			},
			{
				"type": "occ",
				"energy": -0.27862,
				"method": "rhf"
			},
			{
				"type": "occ",
				"energy": -0.27442,
				"method": "rhf"
			},
			{
				"type": "occ",
				"energy": -0.25158,
				"method": "rhf"
			},
			{
				"type": "occ",
				"energy": -0.24185,
				"method": "rhf"
			},
			{
				"type": "unocc",
				"energy": -0.06668,
				"method": "rhf"
			},
			{
				"type": "unocc",
				"energy": -0.0364,
				"method": "rhf"
			},
			{
				"type": "unocc",
				"energy": 0.01884,
				"method": "rhf"
			},
			{
				"type": "unocc",
				"energy": 0.06342,
				"method": "rhf"
			},
			{
				"type": "unocc",
				"energy": 0.06694,
				"method": "rhf"
			}
		],
		"cosmo_sigma_profile": { 
			"-0.025": 0.0,
			"-0.024": 0.0,
			"-0.023": 0.0,
			"-0.022": 0.0,
			"-0.021": 0.0,
			"-0.02": 0.0,
			"-0.019": 0.0,
			"-0.018": 0.0,
			"-0.017": 0.0,
			"-0.016": 0.297881053379,
			"-0.015": 1.25029027453,
			"-0.014": 1.42655237261,
			"-0.013": 1.27122413293,
			"-0.012": 0.877498850835,
			"-0.011": 1.47960951156,
			"-0.01": 1.01549730524,
			"-0.009": 2.50576260283,
			"-0.008": 5.84735442555,
			"-0.007": 6.72139884089,
			"-0.006": 8.39463657098,
			"-0.005": 9.11282596725,
			"-0.004": 20.8350025588,
			"-0.003": 21.4972855725,
			"-0.002": 23.9308951943,
			"-0.001": 31.2974325569,
			"0.0": 42.125897261,
			"0.001": 21.6160830079,
			"0.002": 9.7122141327,
			"0.003": 6.04738825133,
			"0.004": 5.89648968473,
			"0.005": 5.30014876013,
			"0.006": 4.13687125368,
			"0.007": 5.22758977935,
			"0.008": 4.54573038242,
			"0.009": 4.01662183934,
			"0.01": 5.51173998312,
			"0.011": 6.59175181087,
			"0.012": 8.32213166629,
			"0.013": 3.82890561472,
			"0.014": 0.980932281939,
			"0.015": 0.311440234381,
			"0.016": 0.0,
			"0.017": 0.0,
			"0.018": 0.0,
			"0.019": 0.0,
			"0.02": 0.0,
			"0.021": 0.0,
			"0.022": 0.0,
			"0.023": 0.0,
			"0.024": 0.0,
			"0.025": 0.0
		}
	}
}
