{
	 "smiles": "ClC1=NC2=C(C=CC=C2)C(Cl)=N1", 
	 "Tm": 391.15, 
	 "num_atms": 16, 
	 "gaussian": { 
		 "optdone": 1, 
		 "sigma_profile": "yes", 
		 "theory": "DFT", 
		 "functional": "B3LYP", 
		 "basiset": "6-31G**", 
		 "properties": { 
			 "R2extent": 3617.7071, 
			 "electric_dipole_moment_norm": 4.6036556485, 
			 "electric_quadrupole_moment_norm": 6.54090059472, 
			 "total_energy": -1337.1536002, 
			 "HOMO_LUMO_gap": 0.17147, 
			 "cosmo_polarized_energy": -7.54, 
			 "cosmo_cavitation_energy": 24.35, 
			 "cosmo_dispersion_energy": -18.75, 
			 "cosmo_repulsion_energy": 1.49, 
			 "cosmo_total_nonelectrostatic_energy": 7.09, 
			 "SMD_solvation_energy": 0.59 
		},
		"coords": [
			{
				"x": 2.9336243968,
				"y": 1.5533978311,
				"z": -3.6558658969,
				"element": "Cl" 
			},
			{
				"x": 1.9499284641,
				"y": 1.2764014247,
				"z": -2.2354867833,
				"element": "C" 
			},
			{
				"x": 0.7051442978,
				"y": 1.6549111358,
				"z": -2.2901299415,
				"element": "N" 
			},
			{
				"x": -0.0406082331,
				"y": 1.4257562785,
				"z": -1.1681141357,
				"element": "C" 
			},
			{
				"x": 0.5174856329,
				"y": 0.8067020623,
				"z": -0.0060531545,
				"element": "C" 
			},
			{
				"x": -0.2930000932,
				"y": 0.589050404,
				"z": 1.1340341492,
				"element": "C" 
			},
			{
				"x": -1.615324528,
				"y": 0.9756408987,
				"z": 1.1158797184,
				"element": "C" 
			},
			{
				"x": -2.1708142865,
				"y": 1.5890228808,
				"z": -0.0337619079,
				"element": "C" 
			},
			{
				"x": -1.4035330945,
				"y": 1.8120593143,
				"z": -1.1560186141,
				"element": "C" 
			},
			{
				"x": 1.8941531247,
				"y": 0.4628032951,
				"z": -0.1360453353,
				"element": "C" 
			},
			{
				"x": 2.7261827468,
				"y": -0.3054464925,
				"z": 1.2044336635,
				"element": "Cl" 
			},
			{
				"x": 2.6021990328,
				"y": 0.6829317243,
				"z": -1.2079119141,
				"element": "N" 
			},
			{
				"x": 0.1384261487,
				"y": 0.1191154223,
				"z": 2.0103746522,
				"element": "H" 
			},
			{
				"x": -2.2391714173,
				"y": 0.8099988134,
				"z": 1.9885523218,
				"element": "H" 
			},
			{
				"x": -3.2154182796,
				"y": 1.8857501951,
				"z": -0.0261747339,
				"element": "H" 
			},
			{
				"x": -1.8055739124,
				"y": 2.279704812,
				"z": -2.0480120877,
				"element": "H" 
			}
		],
		 "valence_orbital": [ 
			{
				"type": "occ",
				"energy": -0.3215,
				"method": "rhf"
			},
			{
				"type": "occ",
				"energy": -0.3196,
				"method": "rhf"
			},
			{
				"type": "occ",
				"energy": -0.28687,
				"method": "rhf"
			},
			{
				"type": "occ",
				"energy": -0.27846,
				"method": "rhf"
			},
			{
				"type": "occ",
				"energy": -0.25845,
				"method": "rhf"
			},
			{
				"type": "unocc",
				"energy": -0.08698,
				"method": "rhf"
			},
			{
				"type": "unocc",
				"energy": -0.05099,
				"method": "rhf"
			},
			{
				"type": "unocc",
				"energy": -0.00624,
				"method": "rhf"
			},
			{
				"type": "unocc",
				"energy": 0.0108,
				"method": "rhf"
			},
			{
				"type": "unocc",
				"energy": 0.04219,
				"method": "rhf"
			}
		],
		"cosmo_sigma_profile": { 
			"-0.025": 0.0,
			"-0.024": 0.0,
			"-0.023": 0.0,
			"-0.022": 0.0,
			"-0.021": 0.0,
			"-0.02": 0.0,
			"-0.019": 0.0,
			"-0.018": 0.0,
			"-0.017": 0.0,
			"-0.016": 0.0,
			"-0.015": 0.0,
			"-0.014": 0.0,
			"-0.013": 0.0,
			"-0.012": 0.0,
			"-0.011": 0.0,
			"-0.01": 0.0,
			"-0.009": 0.0,
			"-0.008": 2.0885957498,
			"-0.007": 8.57055242884,
			"-0.006": 10.7470396541,
			"-0.005": 8.85627253707,
			"-0.004": 11.8172791436,
			"-0.003": 15.5925739574,
			"-0.002": 15.5240457169,
			"-0.001": 17.2896140063,
			"0.0": 19.5414371051,
			"0.001": 21.5478775914,
			"0.002": 20.2025074056,
			"0.003": 16.7647762292,
			"0.004": 10.7635296886,
			"0.005": 6.2593109931,
			"0.006": 3.90074044848,
			"0.007": 2.87365372655,
			"0.008": 2.70760411474,
			"0.009": 2.56689714796,
			"0.01": 1.30255396617,
			"0.011": 1.62459178115,
			"0.012": 1.50209889168,
			"0.013": 0.219205255354,
			"0.014": 0.0,
			"0.015": 0.0,
			"0.016": 0.0,
			"0.017": 0.0,
			"0.018": 0.0,
			"0.019": 0.0,
			"0.02": 0.0,
			"0.021": 0.0,
			"0.022": 0.0,
			"0.023": 0.0,
			"0.024": 0.0,
			"0.025": 0.0
		}
	}
}
