{
	 "smiles": "CC(=O)C1=CC=C(C=C1)S(C)=O", 
	 "Tm": 379.15, 
	 "num_atms": 22, 
	 "gaussian": { 
		 "optdone": 1, 
		 "sigma_profile": "yes", 
		 "theory": "DFT", 
		 "functional": "B3LYP", 
		 "basiset": "6-31G**", 
		 "properties": { 
			 "R2extent": 4011.0577, 
			 "electric_dipole_moment_norm": 1.67633673527, 
			 "electric_quadrupole_moment_norm": 29.1372612013, 
			 "total_energy": -897.571589746, 
			 "HOMO_LUMO_gap": 0.16408, 
			 "cosmo_polarized_energy": -15.42, 
			 "cosmo_cavitation_energy": 27.56, 
			 "cosmo_dispersion_energy": -20.35, 
			 "cosmo_repulsion_energy": 1.56, 
			 "cosmo_total_nonelectrostatic_energy": 8.78, 
			 "SMD_solvation_energy": 5.31 
		},
		"coords": [
			{
				"x": -2.6638707832,
				"y": -0.0609886093,
				"z": 3.1771871147,
				"element": "C" 
			},
			{
				"x": -1.706147066,
				"y": -0.6128522176,
				"z": 2.1360433458,
				"element": "C" 
			},
			{
				"x": -1.277148529,
				"y": -1.753085493,
				"z": 2.2251042218,
				"element": "O" 
			},
			{
				"x": -1.2931177617,
				"y": 0.2665367061,
				"z": 0.9905542418,
				"element": "C" 
			},
			{
				"x": -0.3941720382,
				"y": -0.2611712251,
				"z": 0.047993759,
				"element": "C" 
			},
			{
				"x": 0.0290903373,
				"y": 0.5050441477,
				"z": -1.0316283321,
				"element": "C" 
			},
			{
				"x": -0.4649472548,
				"y": 1.8053077534,
				"z": -1.1794240715,
				"element": "C" 
			},
			{
				"x": -1.3433279308,
				"y": 2.354919091,
				"z": -0.2497953586,
				"element": "C" 
			},
			{
				"x": -1.7595274239,
				"y": 1.579856372,
				"z": 0.8331524983,
				"element": "C" 
			},
			{
				"x": 0.1011654162,
				"y": 2.8777656795,
				"z": -2.544646393,
				"element": "S" 
			},
			{
				"x": -0.8648011465,
				"y": 2.0404160754,
				"z": -3.866614448,
				"element": "C" 
			},
			{
				"x": -0.5253217981,
				"y": 4.2366369907,
				"z": -2.3288665788,
				"element": "O" 
			},
			{
				"x": -2.8495117101,
				"y": -0.8332897227,
				"z": 3.923924026,
				"element": "H" 
			},
			{
				"x": -2.2445665119,
				"y": 0.8248704808,
				"z": 3.6668534589,
				"element": "H" 
			},
			{
				"x": -3.6134611215,
				"y": 0.2376975946,
				"z": 2.7194978693,
				"element": "H" 
			},
			{
				"x": -0.0385963886,
				"y": -1.2757607554,
				"z": 0.1928362376,
				"element": "H" 
			},
			{
				"x": 0.7378889353,
				"y": 0.0956786238,
				"z": -1.747395275,
				"element": "H" 
			},
			{
				"x": -1.6780487794,
				"y": 3.3786590699,
				"z": -0.3897371455,
				"element": "H" 
			},
			{
				"x": -2.4480240849,
				"y": 2.0076945,
				"z": 1.5546975854,
				"element": "H" 
			},
			{
				"x": -1.9273516192,
				"y": 2.1078835923,
				"z": -3.6239481012,
				"element": "H" 
			},
			{
				"x": -0.6560886712,
				"y": 2.5744665404,
				"z": -4.796027271,
				"element": "H" 
			},
			{
				"x": -0.5485140698,
				"y": 0.9981148056,
				"z": -3.9517613839,
				"element": "H" 
			}
		],
		 "valence_orbital": [ 
			{
				"type": "occ",
				"energy": -0.27802,
				"method": "rhf"
			},
			{
				"type": "occ",
				"energy": -0.27375,
				"method": "rhf"
			},
			{
				"type": "occ",
				"energy": -0.27121,
				"method": "rhf"
			},
			{
				"type": "occ",
				"energy": -0.25611,
				"method": "rhf"
			},
			{
				"type": "occ",
				"energy": -0.23292,
				"method": "rhf"
			},
			{
				"type": "unocc",
				"energy": -0.06884,
				"method": "rhf"
			},
			{
				"type": "unocc",
				"energy": -0.024,
				"method": "rhf"
			},
			{
				"type": "unocc",
				"energy": 0.01503,
				"method": "rhf"
			},
			{
				"type": "unocc",
				"energy": 0.03392,
				"method": "rhf"
			},
			{
				"type": "unocc",
				"energy": 0.04945,
				"method": "rhf"
			}
		],
		"cosmo_sigma_profile": { 
			"-0.025": 0.0,
			"-0.024": 0.0,
			"-0.023": 0.0,
			"-0.022": 0.0,
			"-0.021": 0.0,
			"-0.02": 0.0,
			"-0.019": 0.0,
			"-0.018": 0.0,
			"-0.017": 0.0,
			"-0.016": 0.0,
			"-0.015": 0.0,
			"-0.014": 0.0,
			"-0.013": 0.0,
			"-0.012": 0.0,
			"-0.011": 0.0272164730197,
			"-0.01": 0.508439308974,
			"-0.009": 1.39499106025,
			"-0.008": 3.97713008733,
			"-0.007": 11.1706074061,
			"-0.006": 17.6802336993,
			"-0.005": 18.829631563,
			"-0.004": 17.3922169731,
			"-0.003": 17.1199545726,
			"-0.002": 18.7427592757,
			"-0.001": 15.5506500082,
			"0.0": 14.2883969472,
			"0.001": 14.7349202321,
			"0.002": 16.1768434963,
			"0.003": 11.0856976037,
			"0.004": 2.36575066688,
			"0.005": 3.58257180315,
			"0.006": 3.67227085222,
			"0.007": 2.19457209295,
			"0.008": 2.29313042707,
			"0.009": 3.57805348689,
			"0.01": 3.08043921955,
			"0.011": 4.26202107601,
			"0.012": 4.88227797144,
			"0.013": 4.44455755662,
			"0.014": 3.82013350085,
			"0.015": 3.41376073357,
			"0.016": 0.393656692996,
			"0.017": 0.0,
			"0.018": 0.0,
			"0.019": 0.0,
			"0.02": 0.0,
			"0.021": 0.0,
			"0.022": 0.0,
			"0.023": 0.0,
			"0.024": 0.0,
			"0.025": 0.0
		}
	}
}
