{
	 "smiles": "COC1=CC=CC(CO)=C1OC", 
	 "Tm": 322.65, 
	 "num_atms": 24, 
	 "gaussian": { 
		 "optdone": 1, 
		 "sigma_profile": "yes", 
		 "theory": "DFT", 
		 "functional": "B3LYP", 
		 "basiset": "6-31G**", 
		 "properties": { 
			 "R2extent": 2317.7218, 
			 "electric_dipole_moment_norm": 2.10423542884, 
			 "electric_quadrupole_moment_norm": 14.1826013506, 
			 "total_energy": -575.818586833, 
			 "HOMO_LUMO_gap": 0.22811, 
			 "cosmo_polarized_energy": -8.64, 
			 "cosmo_cavitation_energy": 26.74, 
			 "cosmo_dispersion_energy": -19.2, 
			 "cosmo_repulsion_energy": 1.55, 
			 "cosmo_total_nonelectrostatic_energy": 9.08, 
			 "SMD_solvation_energy": 5.92 
		},
		"coords": [
			{
				"x": 0.3419623755,
				"y": 2.741787379,
				"z": -0.1233474001,
				"element": "C" 
			},
			{
				"x": 0.7185841886,
				"y": 1.8911558537,
				"z": 0.9663227518,
				"element": "O" 
			},
			{
				"x": 0.3885834686,
				"y": 0.5630244419,
				"z": 0.7982557323,
				"element": "C" 
			},
			{
				"x": -0.6232732204,
				"y": 0.0097459918,
				"z": 1.5854730674,
				"element": "C" 
			},
			{
				"x": -0.959177679,
				"y": -1.3360191505,
				"z": 1.4450566189,
				"element": "C" 
			},
			{
				"x": -0.2940759407,
				"y": -2.127694103,
				"z": 0.5074894392,
				"element": "C" 
			},
			{
				"x": 0.7368632108,
				"y": -1.6003503778,
				"z": -0.2767735233,
				"element": "C" 
			},
			{
				"x": 1.4951284288,
				"y": -2.4481709973,
				"z": -1.2827682156,
				"element": "C" 
			},
			{
				"x": 1.4756261918,
				"y": -1.9226874152,
				"z": -2.6000176295,
				"element": "O" 
			},
			{
				"x": 1.0793403176,
				"y": -0.2496526222,
				"z": -0.115464445,
				"element": "C" 
			},
			{
				"x": 2.0850759136,
				"y": 0.273808506,
				"z": -0.9166522396,
				"element": "O" 
			},
			{
				"x": 3.2774425387,
				"y": 0.6642068982,
				"z": -0.216415186,
				"element": "C" 
			},
			{
				"x": -0.7453989842,
				"y": 2.7284544025,
				"z": -0.2683085586,
				"element": "H" 
			},
			{
				"x": 0.6566838603,
				"y": 3.7503225404,
				"z": 0.152610059,
				"element": "H" 
			},
			{
				"x": 0.8357810828,
				"y": 2.4422084715,
				"z": -1.0533063405,
				"element": "H" 
			},
			{
				"x": -1.1338061736,
				"y": 0.6542498958,
				"z": 2.2939765023,
				"element": "H" 
			},
			{
				"x": -1.7509984786,
				"y": -1.7620228606,
				"z": 2.0538783705,
				"element": "H" 
			},
			{
				"x": -0.5692103057,
				"y": -3.1718799344,
				"z": 0.3852103967,
				"element": "H" 
			},
			{
				"x": 1.0391162481,
				"y": -3.4414346839,
				"z": -1.3359758716,
				"element": "H" 
			},
			{
				"x": 2.53074919,
				"y": -2.5904010642,
				"z": -0.9291930171,
				"element": "H" 
			},
			{
				"x": 1.8637781441,
				"y": -1.0378571695,
				"z": -2.531448805,
				"element": "H" 
			},
			{
				"x": 3.9679268076,
				"y": 1.0394707719,
				"z": -0.9742326445,
				"element": "H" 
			},
			{
				"x": 3.0605114649,
				"y": 1.4489985522,
				"z": 0.5128290046,
				"element": "H" 
			},
			{
				"x": 3.7270873503,
				"y": -0.1967633262,
				"z": 0.2922019338,
				"element": "H" 
			}
		],
		 "valence_orbital": [ 
			{
				"type": "occ",
				"energy": -0.30123,
				"method": "rhf"
			},
			{
				"type": "occ",
				"energy": -0.27115,
				"method": "rhf"
			},
			{
				"type": "occ",
				"energy": -0.25468,
				"method": "rhf"
			},
			{
				"type": "occ",
				"energy": -0.24141,
				"method": "rhf"
			},
			{
				"type": "occ",
				"energy": -0.23382,
				"method": "rhf"
			},
			{
				"type": "unocc",
				"energy": -0.00571,
				"method": "rhf"
			},
			{
				"type": "unocc",
				"energy": 0.00016,
				"method": "rhf"
			},
			{
				"type": "unocc",
				"energy": 0.07126,
				"method": "rhf"
			},
			{
				"type": "unocc",
				"energy": 0.10057,
				"method": "rhf"
			},
			{
				"type": "unocc",
				"energy": 0.11768,
				"method": "rhf"
			}
		],
		"cosmo_sigma_profile": { 
			"-0.025": 0.0,
			"-0.024": 0.0,
			"-0.023": 0.0,
			"-0.022": 0.0,
			"-0.021": 0.0,
			"-0.02": 0.0,
			"-0.019": 0.0,
			"-0.018": 0.0,
			"-0.017": 0.0,
			"-0.016": 0.0,
			"-0.015": 0.0,
			"-0.014": 0.0,
			"-0.013": 0.0,
			"-0.012": 0.0,
			"-0.011": 0.0,
			"-0.01": 0.0,
			"-0.009": 0.418347907459,
			"-0.008": 0.246257399055,
			"-0.007": 0.88650302748,
			"-0.006": 8.36656789045,
			"-0.005": 16.1159658107,
			"-0.004": 23.1571964593,
			"-0.003": 29.8996917907,
			"-0.002": 24.9776893279,
			"-0.001": 16.6826751553,
			"0.0": 13.288110582,
			"0.001": 10.3178939882,
			"0.002": 10.8486485745,
			"0.003": 10.8291244254,
			"0.004": 11.615658317,
			"0.005": 10.660772631,
			"0.006": 3.5144504762,
			"0.007": 2.55034132387,
			"0.008": 2.2198495464,
			"0.009": 2.31236241613,
			"0.01": 2.94126531758,
			"0.011": 2.04780561604,
			"0.012": 1.50528711386,
			"0.013": 1.76917532383,
			"0.014": 2.27124164556,
			"0.015": 1.64249784616,
			"0.016": 0.0,
			"0.017": 0.0,
			"0.018": 0.0,
			"0.019": 0.0,
			"0.02": 0.0,
			"0.021": 0.0,
			"0.022": 0.0,
			"0.023": 0.0,
			"0.024": 0.0,
			"0.025": 0.0
		}
	}
}
