{
	 "smiles": "NC1=CC(=C(F)C=C1)S(=O)(=O)NC1=CC=C(Br)C=C1", 
	 "Tm": 435.15, 
	 "num_atms": 29, 
	 "gaussian": { 
		 "optdone": 1, 
		 "sigma_profile": "yes", 
		 "theory": "DFT", 
		 "functional": "B3LYP", 
		 "basiset": "6-31G**", 
		 "properties": { 
			 "R2extent": 10651.8095, 
			 "electric_dipole_moment_norm": 6.16250536957, 
			 "electric_quadrupole_moment_norm": 16.1430766755, 
			 "total_energy": -3792.6067863, 
			 "HOMO_LUMO_gap": 0.17549, 
			 "cosmo_polarized_energy": -20.56, 
			 "cosmo_cavitation_energy": 37.48, 
			 "cosmo_dispersion_energy": -27.4, 
			 "cosmo_repulsion_energy": 2.07, 
			 "cosmo_total_nonelectrostatic_energy": 12.14, 
			 "SMD_solvation_energy": 4.68 
		},
		"coords": [
			{
				"x": -0.6767352574,
				"y": 3.4336945782,
				"z": -2.2620304802,
				"element": "N" 
			},
			{
				"x": -0.5445426565,
				"y": 2.1220315027,
				"z": -1.8079035649,
				"element": "C" 
			},
			{
				"x": 0.5979111271,
				"y": 1.7225951955,
				"z": -1.0968078446,
				"element": "C" 
			},
			{
				"x": 0.704576857,
				"y": 0.4245406232,
				"z": -0.5936756869,
				"element": "C" 
			},
			{
				"x": -0.3280955104,
				"y": -0.4909465327,
				"z": -0.8002759428,
				"element": "C" 
			},
			{
				"x": -0.2398788578,
				"y": -1.7446966402,
				"z": -0.3187563172,
				"element": "F" 
			},
			{
				"x": -1.4662791121,
				"y": -0.1116653885,
				"z": -1.5004210777,
				"element": "C" 
			},
			{
				"x": -1.5745331887,
				"y": 1.1830027613,
				"z": -1.9996427109,
				"element": "C" 
			},
			{
				"x": 2.2173920375,
				"y": -0.0199712073,
				"z": 0.2776935492,
				"element": "S" 
			},
			{
				"x": 3.0767857167,
				"y": 1.1638408678,
				"z": 0.2479275284,
				"element": "O" 
			},
			{
				"x": 2.6673561653,
				"y": -1.3212189372,
				"z": -0.2041347241,
				"element": "O" 
			},
			{
				"x": 1.8233575892,
				"y": -0.1842314878,
				"z": 1.916146952,
				"element": "N" 
			},
			{
				"x": 1.0264425167,
				"y": -1.2164574294,
				"z": 2.4802032369,
				"element": "C" 
			},
			{
				"x": 1.3342259792,
				"y": -2.5668998917,
				"z": 2.264565105,
				"element": "C" 
			},
			{
				"x": 0.5682279858,
				"y": -3.5587712322,
				"z": 2.8708686193,
				"element": "C" 
			},
			{
				"x": -0.4844951793,
				"y": -3.2045485137,
				"z": 3.7145930856,
				"element": "C" 
			},
			{
				"x": -1.5177557547,
				"y": -4.5714211209,
				"z": 4.5613517801,
				"element": "Br" 
			},
			{
				"x": -0.7898161282,
				"y": -1.866829689,
				"z": 3.9522479584,
				"element": "C" 
			},
			{
				"x": -0.0396424903,
				"y": -0.8752649142,
				"z": 3.3218979274,
				"element": "C" 
			},
			{
				"x": 0.1907745072,
				"y": 3.936651889,
				"z": -2.387909561,
				"element": "H" 
			},
			{
				"x": -1.3027269445,
				"y": 3.559567139,
				"z": -3.0452923464,
				"element": "H" 
			},
			{
				"x": 1.4217529066,
				"y": 2.4095475253,
				"z": -0.9344263942,
				"element": "H" 
			},
			{
				"x": -2.2561418872,
				"y": -0.8399374041,
				"z": -1.6495461963,
				"element": "H" 
			},
			{
				"x": -2.4698965788,
				"y": 1.4722419904,
				"z": -2.5430361874,
				"element": "H" 
			},
			{
				"x": 1.7085844855,
				"y": 0.7342155744,
				"z": 2.3317935881,
				"element": "H" 
			},
			{
				"x": 2.1638987674,
				"y": -2.8296672425,
				"z": 1.6203550016,
				"element": "H" 
			},
			{
				"x": 0.800493675,
				"y": -4.6036871333,
				"z": 2.7001775316,
				"element": "H" 
			},
			{
				"x": -1.6084421356,
				"y": -1.5993258908,
				"z": 4.6103614642,
				"element": "H" 
			},
			{
				"x": -0.2851986347,
				"y": 0.1702110087,
				"z": 3.4897757067,
				"element": "H" 
			}
		],
		 "valence_orbital": [ 
			{
				"type": "occ",
				"energy": -0.28629,
				"method": "rhf"
			},
			{
				"type": "occ",
				"energy": -0.27757,
				"method": "rhf"
			},
			{
				"type": "occ",
				"energy": -0.26608,
				"method": "rhf"
			},
			{
				"type": "occ",
				"energy": -0.22945,
				"method": "rhf"
			},
			{
				"type": "occ",
				"energy": -0.22116,
				"method": "rhf"
			},
			{
				"type": "unocc",
				"energy": -0.04567,
				"method": "rhf"
			},
			{
				"type": "unocc",
				"energy": -0.01734,
				"method": "rhf"
			},
			{
				"type": "unocc",
				"energy": -0.01652,
				"method": "rhf"
			},
			{
				"type": "unocc",
				"energy": -0.00532,
				"method": "rhf"
			},
			{
				"type": "unocc",
				"energy": 0.00766,
				"method": "rhf"
			}
		],
		"cosmo_sigma_profile": { 
			"-0.025": 0.0,
			"-0.024": 0.0,
			"-0.023": 0.0,
			"-0.022": 0.0,
			"-0.021": 0.0,
			"-0.02": 0.0,
			"-0.019": 0.0,
			"-0.018": 0.0,
			"-0.017": 0.0342518655475,
			"-0.016": 0.824882371526,
			"-0.015": 1.51768165537,
			"-0.014": 0.998077456005,
			"-0.013": 3.42910097808,
			"-0.012": 4.59765005343,
			"-0.011": 3.96676500891,
			"-0.01": 5.40716780736,
			"-0.009": 4.5331961717,
			"-0.008": 6.96272209049,
			"-0.007": 11.8830977936,
			"-0.006": 12.5834848875,
			"-0.005": 13.1640980643,
			"-0.004": 11.8642803033,
			"-0.003": 11.8507189193,
			"-0.002": 13.1778687186,
			"-0.001": 14.9625139723,
			"0.0": 20.2412219809,
			"0.001": 22.6452977699,
			"0.002": 28.9081707287,
			"0.003": 32.7214516865,
			"0.004": 26.0166189737,
			"0.005": 13.3023821624,
			"0.006": 5.66618121914,
			"0.007": 5.35015434659,
			"0.008": 4.48705157142,
			"0.009": 5.9014346193,
			"0.01": 8.61633977944,
			"0.011": 6.22343167766,
			"0.012": 1.13901795454,
			"0.013": 0.493366746037,
			"0.014": 0.299467070465,
			"0.015": 0.0,
			"0.016": 0.0,
			"0.017": 0.0,
			"0.018": 0.0,
			"0.019": 0.0,
			"0.02": 0.0,
			"0.021": 0.0,
			"0.022": 0.0,
			"0.023": 0.0,
			"0.024": 0.0,
			"0.025": 0.0
		}
	}
}
