{
	 "smiles": "CC(C)C(NC(=O)C1=CC=CC=C1)C1=NNN=N1", 
	 "Tm": 450.15, 
	 "num_atms": 33, 
	 "gaussian": { 
		 "optdone": 1, 
		 "sigma_profile": "yes", 
		 "theory": "DFT", 
		 "functional": "B3LYP", 
		 "basiset": "6-31G**", 
		 "properties": { 
			 "R2extent": 4521.186, 
			 "electric_dipole_moment_norm": 4.36426578705, 
			 "electric_quadrupole_moment_norm": 13.9723500178, 
			 "total_energy": -815.255102494, 
			 "HOMO_LUMO_gap": 0.20047, 
			 "cosmo_polarized_energy": -18.76, 
			 "cosmo_cavitation_energy": 35.61, 
			 "cosmo_dispersion_energy": -24.04, 
			 "cosmo_repulsion_energy": 1.85, 
			 "cosmo_total_nonelectrostatic_energy": 13.42, 
			 "SMD_solvation_energy": 3.78 
		},
		"coords": [
			{
				"x": 0.3067389088,
				"y": 2.2714043605,
				"z": 2.1966189092,
				"element": "C" 
			},
			{
				"x": 1.1571807405,
				"y": 3.0917021105,
				"z": 1.2150404956,
				"element": "C" 
			},
			{
				"x": 2.2772301019,
				"y": 3.8324068419,
				"z": 1.9633440333,
				"element": "C" 
			},
			{
				"x": 1.7491506507,
				"y": 2.2680457571,
				"z": 0.0314994251,
				"element": "C" 
			},
			{
				"x": 2.6126935805,
				"y": 1.14033537,
				"z": 0.451309983,
				"element": "N" 
			},
			{
				"x": 2.2696512328,
				"y": -0.0472055913,
				"z": 1.0941180859,
				"element": "C" 
			},
			{
				"x": 2.9411958069,
				"y": -0.4423495068,
				"z": 2.0415968365,
				"element": "O" 
			},
			{
				"x": 1.1618077133,
				"y": -0.8957118303,
				"z": 0.5454861828,
				"element": "C" 
			},
			{
				"x": 0.3123041058,
				"y": -1.5471800085,
				"z": 1.4504445868,
				"element": "C" 
			},
			{
				"x": -0.6700910883,
				"y": -2.4196215432,
				"z": 0.9878402317,
				"element": "C" 
			},
			{
				"x": -0.7872167723,
				"y": -2.6790928399,
				"z": -0.3808064635,
				"element": "C" 
			},
			{
				"x": 0.0815025186,
				"y": -2.0626260464,
				"z": -1.2831913244,
				"element": "C" 
			},
			{
				"x": 1.051737446,
				"y": -1.1702295383,
				"z": -0.8239586356,
				"element": "C" 
			},
			{
				"x": 0.7312512363,
				"y": 1.9078342528,
				"z": -1.0176526535,
				"element": "C" 
			},
			{
				"x": -0.5830878411,
				"y": 1.8205764325,
				"z": -0.8309739552,
				"element": "N" 
			},
			{
				"x": -0.9993285785,
				"y": 1.5376673302,
				"z": -2.0589841683,
				"element": "N" 
			},
			{
				"x": -0.0347163793,
				"y": 1.4592867318,
				"z": -2.9703721219,
				"element": "N" 
			},
			{
				"x": 1.0739445319,
				"y": 1.6999767928,
				"z": -2.3216370194,
				"element": "N" 
			},
			{
				"x": -0.1556359262,
				"y": 2.9406294504,
				"z": 2.9298923004,
				"element": "H" 
			},
			{
				"x": -0.4904882577,
				"y": 1.7248983219,
				"z": 1.6894336834,
				"element": "H" 
			},
			{
				"x": 0.9234150976,
				"y": 1.5585875045,
				"z": 2.7531511029,
				"element": "H" 
			},
			{
				"x": 0.5095572772,
				"y": 3.8469083988,
				"z": 0.749590622,
				"element": "H" 
			},
			{
				"x": 2.9511499532,
				"y": 3.1326129912,
				"z": 2.4706901016,
				"element": "H" 
			},
			{
				"x": 2.8750058993,
				"y": 4.4569040078,
				"z": 1.2894887674,
				"element": "H" 
			},
			{
				"x": 1.8545423575,
				"y": 4.4852986943,
				"z": 2.7332570746,
				"element": "H" 
			},
			{
				"x": 2.4406008247,
				"y": 2.933396782,
				"z": -0.4991941151,
				"element": "H" 
			},
			{
				"x": 3.4630392828,
				"y": 1.4851292333,
				"z": 0.8854999209,
				"element": "H" 
			},
			{
				"x": 0.4366223572,
				"y": -1.3643960782,
				"z": 2.5128505107,
				"element": "H" 
			},
			{
				"x": -1.3357323092,
				"y": -2.9079484385,
				"z": 1.6937390804,
				"element": "H" 
			},
			{
				"x": -1.5451722386,
				"y": -3.3697167016,
				"z": -0.740046076,
				"element": "H" 
			},
			{
				"x": 0.0115585755,
				"y": -2.2803999401,
				"z": -2.3451088837,
				"element": "H" 
			},
			{
				"x": 1.7336898658,
				"y": -0.6992361556,
				"z": -1.5230589794,
				"element": "H" 
			},
			{
				"x": -1.9736006734,
				"y": 1.3931128545,
				"z": -2.287507538,
				"element": "H" 
			}
		],
		 "valence_orbital": [ 
			{
				"type": "occ",
				"energy": -0.30145,
				"method": "rhf"
			},
			{
				"type": "occ",
				"energy": -0.26883,
				"method": "rhf"
			},
			{
				"type": "occ",
				"energy": -0.25441,
				"method": "rhf"
			},
			{
				"type": "occ",
				"energy": -0.25368,
				"method": "rhf"
			},
			{
				"type": "occ",
				"energy": -0.23837,
				"method": "rhf"
			},
			{
				"type": "unocc",
				"energy": -0.0379,
				"method": "rhf"
			},
			{
				"type": "unocc",
				"energy": -0.03066,
				"method": "rhf"
			},
			{
				"type": "unocc",
				"energy": -0.00574,
				"method": "rhf"
			},
			{
				"type": "unocc",
				"energy": 0.00982,
				"method": "rhf"
			},
			{
				"type": "unocc",
				"energy": 0.04213,
				"method": "rhf"
			}
		],
		"cosmo_sigma_profile": { 
			"-0.025": 0.0,
			"-0.024": 0.0,
			"-0.023": 0.0,
			"-0.022": 0.0,
			"-0.021": 0.0,
			"-0.02": 0.591261124318,
			"-0.019": 1.91676340705,
			"-0.018": 1.20483772556,
			"-0.017": 1.00768569646,
			"-0.016": 1.02560336481,
			"-0.015": 1.35726093222,
			"-0.014": 0.624017498401,
			"-0.013": 0.478576642985,
			"-0.012": 0.788388513551,
			"-0.011": 2.13384594082,
			"-0.01": 1.86622936103,
			"-0.009": 1.24313142118,
			"-0.008": 2.28116612999,
			"-0.007": 4.47777263359,
			"-0.006": 12.108908411,
			"-0.005": 13.4896971262,
			"-0.004": 20.5839832653,
			"-0.003": 23.1109036198,
			"-0.002": 23.8569366831,
			"-0.001": 22.3598227517,
			"0.0": 24.9516374038,
			"0.001": 24.4376231784,
			"0.002": 14.1021469445,
			"0.003": 13.6709865851,
			"0.004": 15.1091478791,
			"0.005": 10.2117642509,
			"0.006": 5.91539719594,
			"0.007": 5.18484331835,
			"0.008": 5.26831714914,
			"0.009": 5.0203746766,
			"0.01": 4.59161267161,
			"0.011": 3.78696132584,
			"0.012": 4.18116542185,
			"0.013": 5.77624863665,
			"0.014": 2.56766218255,
			"0.015": 0.0557507285326,
			"0.016": 0.0,
			"0.017": 0.0,
			"0.018": 0.0,
			"0.019": 0.0,
			"0.02": 0.0,
			"0.021": 0.0,
			"0.022": 0.0,
			"0.023": 0.0,
			"0.024": 0.0,
			"0.025": 0.0
		}
	}
}
