{
	 "smiles": "CC(=O)OCC1=C(C=C(Cl)C=C1)C#N", 
	 "Tm": 328.15, 
	 "num_atms": 22, 
	 "gaussian": { 
		 "optdone": 1, 
		 "sigma_profile": "yes", 
		 "theory": "DFT", 
		 "functional": "B3LYP", 
		 "basiset": "6-31G**", 
		 "properties": { 
			 "R2extent": 4266.675, 
			 "electric_dipole_moment_norm": 4.75801359603, 
			 "electric_quadrupole_moment_norm": 11.0031994088, 
			 "total_energy": -1051.27187876, 
			 "HOMO_LUMO_gap": 0.19754, 
			 "cosmo_polarized_energy": -12.61, 
			 "cosmo_cavitation_energy": 30.1, 
			 "cosmo_dispersion_energy": -20.87, 
			 "cosmo_repulsion_energy": 1.67, 
			 "cosmo_total_nonelectrostatic_energy": 10.91, 
			 "SMD_solvation_energy": 7.27 
		},
		"coords": [
			{
				"x": -3.8949448039,
				"y": 0.3982629563,
				"z": 0.1375314912,
				"element": "C" 
			},
			{
				"x": -2.6644370631,
				"y": 0.0580458778,
				"z": -0.6655324976,
				"element": "C" 
			},
			{
				"x": -2.4962288626,
				"y": 0.2916407994,
				"z": -1.8384448047,
				"element": "O" 
			},
			{
				"x": -1.7427286621,
				"y": -0.5720381124,
				"z": 0.1240435264,
				"element": "O" 
			},
			{
				"x": -0.5222807168,
				"y": -0.9810359789,
				"z": -0.5086604177,
				"element": "C" 
			},
			{
				"x": 0.62584037,
				"y": -0.0492681354,
				"z": -0.1812704131,
				"element": "C" 
			},
			{
				"x": 1.8743731315,
				"y": -0.2288528038,
				"z": -0.8152541783,
				"element": "C" 
			},
			{
				"x": 2.9624078695,
				"y": 0.6082867538,
				"z": -0.5237767948,
				"element": "C" 
			},
			{
				"x": 2.7998294964,
				"y": 1.6292234334,
				"z": 0.4067307951,
				"element": "C" 
			},
			{
				"x": 4.1516128809,
				"y": 2.6821171104,
				"z": 0.774839078,
				"element": "Cl" 
			},
			{
				"x": 1.5770520788,
				"y": 1.8217237154,
				"z": 1.0486441393,
				"element": "C" 
			},
			{
				"x": 0.504429601,
				"y": 0.980484724,
				"z": 0.7515564258,
				"element": "C" 
			},
			{
				"x": 2.0480812591,
				"y": -1.2853440834,
				"z": -1.7706157047,
				"element": "C" 
			},
			{
				"x": 2.1748629349,
				"y": -2.1510950453,
				"z": -2.5373641318,
				"element": "N" 
			},
			{
				"x": -3.6342926994,
				"y": 1.0693009054,
				"z": 0.9615323251,
				"element": "H" 
			},
			{
				"x": -4.6282465101,
				"y": 0.8760765807,
				"z": -0.5108938379,
				"element": "H" 
			},
			{
				"x": -4.3172474744,
				"y": -0.5093780088,
				"z": 0.5781217836,
				"element": "H" 
			},
			{
				"x": -0.6736262086,
				"y": -1.0360194489,
				"z": -1.5897583391,
				"element": "H" 
			},
			{
				"x": -0.3125294148,
				"y": -1.9880149427,
				"z": -0.133149587,
				"element": "H" 
			},
			{
				"x": 3.9130220027,
				"y": 0.4587890807,
				"z": -1.0216573947,
				"element": "H" 
			},
			{
				"x": 1.4665153588,
				"y": 2.619851083,
				"z": 1.7743441809,
				"element": "H" 
			},
			{
				"x": -0.4447645677,
				"y": 1.1236435393,
				"z": 1.254534356,
				"element": "H" 
			}
		],
		 "valence_orbital": [ 
			{
				"type": "occ",
				"energy": -0.32963,
				"method": "rhf"
			},
			{
				"type": "occ",
				"energy": -0.31837,
				"method": "rhf"
			},
			{
				"type": "occ",
				"energy": -0.28844,
				"method": "rhf"
			},
			{
				"type": "occ",
				"energy": -0.28282,
				"method": "rhf"
			},
			{
				"type": "occ",
				"energy": -0.2643,
				"method": "rhf"
			},
			{
				"type": "unocc",
				"energy": -0.06676,
				"method": "rhf"
			},
			{
				"type": "unocc",
				"energy": -0.03589,
				"method": "rhf"
			},
			{
				"type": "unocc",
				"energy": -0.00362,
				"method": "rhf"
			},
			{
				"type": "unocc",
				"energy": 0.00952,
				"method": "rhf"
			},
			{
				"type": "unocc",
				"energy": 0.02604,
				"method": "rhf"
			}
		],
		"cosmo_sigma_profile": { 
			"-0.025": 0.0,
			"-0.024": 0.0,
			"-0.023": 0.0,
			"-0.022": 0.0,
			"-0.021": 0.0,
			"-0.02": 0.0,
			"-0.019": 0.0,
			"-0.018": 0.0,
			"-0.017": 0.0,
			"-0.016": 0.0,
			"-0.015": 0.0,
			"-0.014": 0.0,
			"-0.013": 0.0,
			"-0.012": 0.0,
			"-0.011": 0.0,
			"-0.01": 0.270952789824,
			"-0.009": 2.26994812742,
			"-0.008": 5.842409073,
			"-0.007": 10.1859041224,
			"-0.006": 15.2029168782,
			"-0.005": 16.6021975806,
			"-0.004": 16.5862617044,
			"-0.003": 17.8242440394,
			"-0.002": 20.9222400037,
			"-0.001": 18.8947421199,
			"0.0": 23.314360031,
			"0.001": 18.5822464337,
			"0.002": 11.7177773502,
			"0.003": 10.9530268237,
			"0.004": 12.9981909624,
			"0.005": 5.80013505538,
			"0.006": 4.18998575654,
			"0.007": 4.79013662348,
			"0.008": 5.37347243349,
			"0.009": 4.56163950477,
			"0.01": 5.57483153785,
			"0.011": 6.63875308962,
			"0.012": 4.46875155686,
			"0.013": 0.839434768045,
			"0.014": 0.0,
			"0.015": 0.0,
			"0.016": 0.0,
			"0.017": 0.0,
			"0.018": 0.0,
			"0.019": 0.0,
			"0.02": 0.0,
			"0.021": 0.0,
			"0.022": 0.0,
			"0.023": 0.0,
			"0.024": 0.0,
			"0.025": 0.0
		}
	}
}
