{
	 "smiles": "CC1=CC=CC=C1N1C(=O)C2ON=C(C2C1=O)C(=O)C1=CC=CO1", 
	 "Tm": 477.15, 
	 "num_atms": 36, 
	 "gaussian": { 
		 "optdone": 1, 
		 "sigma_profile": "yes", 
		 "theory": "DFT", 
		 "functional": "B3LYP", 
		 "basiset": "6-31G**", 
		 "properties": { 
			 "R2extent": 9040.0074, 
			 "electric_dipole_moment_norm": 1.71203133441, 
			 "electric_quadrupole_moment_norm": 28.6814822197, 
			 "total_energy": -1140.58835164, 
			 "HOMO_LUMO_gap": 0.16043, 
			 "cosmo_polarized_energy": -21.96, 
			 "cosmo_cavitation_energy": 42.09, 
			 "cosmo_dispersion_energy": -28.58, 
			 "cosmo_repulsion_energy": 2.15, 
			 "cosmo_total_nonelectrostatic_energy": 15.66, 
			 "SMD_solvation_energy": 9.99 
		},
		"coords": [
			{
				"x": 1.2390928259,
				"y": 1.5219142686,
				"z": 0.3082513003,
				"element": "C" 
			},
			{
				"x": 0.1930937287,
				"y": 2.0803208017,
				"z": 1.2400729453,
				"element": "C" 
			},
			{
				"x": 0.5374817186,
				"y": 3.0256430889,
				"z": 2.2150919848,
				"element": "C" 
			},
			{
				"x": -0.4119256249,
				"y": 3.5649685913,
				"z": 3.0819057824,
				"element": "C" 
			},
			{
				"x": -1.7458919563,
				"y": 3.1672514097,
				"z": 2.9913830923,
				"element": "C" 
			},
			{
				"x": -2.115510442,
				"y": 2.2227923157,
				"z": 2.0372690952,
				"element": "C" 
			},
			{
				"x": -1.1542741396,
				"y": 1.6852899122,
				"z": 1.1788997034,
				"element": "C" 
			},
			{
				"x": -1.581179125,
				"y": 0.7202196818,
				"z": 0.2023994987,
				"element": "N" 
			},
			{
				"x": -2.5031233715,
				"y": 1.0190686862,
				"z": -0.8124091595,
				"element": "C" 
			},
			{
				"x": -3.0533539262,
				"y": 2.0796856769,
				"z": -0.9854075469,
				"element": "O" 
			},
			{
				"x": -2.67648756,
				"y": -0.24538112,
				"z": -1.662370676,
				"element": "C" 
			},
			{
				"x": -2.0099630356,
				"y": -0.0454027346,
				"z": -2.9505112524,
				"element": "O" 
			},
			{
				"x": -0.9981096869,
				"y": -0.9740049106,
				"z": -3.0988712894,
				"element": "N" 
			},
			{
				"x": -0.9022471881,
				"y": -1.7144607547,
				"z": -2.052995841,
				"element": "C" 
			},
			{
				"x": -1.8755689134,
				"y": -1.3364023,
				"z": -0.9592122907,
				"element": "C" 
			},
			{
				"x": -1.1827333087,
				"y": -0.6269674905,
				"z": 0.2220807333,
				"element": "C" 
			},
			{
				"x": -0.428368086,
				"y": -1.1217378842,
				"z": 1.023644996,
				"element": "O" 
			},
			{
				"x": -0.007833496,
				"y": -2.9085308636,
				"z": -1.9415322822,
				"element": "C" 
			},
			{
				"x": -0.2635221659,
				"y": -3.7375964729,
				"z": -1.0762282601,
				"element": "O" 
			},
			{
				"x": 1.1146985036,
				"y": -3.0439799653,
				"z": -2.8661144353,
				"element": "C" 
			},
			{
				"x": 1.6368504555,
				"y": -2.2682950573,
				"z": -3.8771365961,
				"element": "C" 
			},
			{
				"x": 2.7630287541,
				"y": -2.9713718241,
				"z": -4.385628164,
				"element": "C" 
			},
			{
				"x": 2.8490183405,
				"y": -4.1219130728,
				"z": -3.6495662993,
				"element": "C" 
			},
			{
				"x": 1.8654810024,
				"y": -4.1838557775,
				"z": -2.7289262358,
				"element": "O" 
			},
			{
				"x": 0.8871332851,
				"y": 1.5029851596,
				"z": -0.7287116635,
				"element": "H" 
			},
			{
				"x": 1.49981236,
				"y": 0.4951638199,
				"z": 0.5852647872,
				"element": "H" 
			},
			{
				"x": 2.1480995389,
				"y": 2.1272133816,
				"z": 0.3431896009,
				"element": "H" 
			},
			{
				"x": 1.5733384623,
				"y": 3.3461000563,
				"z": 2.2856768291,
				"element": "H" 
			},
			{
				"x": -0.1101433482,
				"y": 4.2990396125,
				"z": 3.823198973,
				"element": "H" 
			},
			{
				"x": -2.4939034065,
				"y": 3.5853714973,
				"z": 3.6575457923,
				"element": "H" 
			},
			{
				"x": -3.1472792386,
				"y": 1.8997778609,
				"z": 1.9496273512,
				"element": "H" 
			},
			{
				"x": -3.7321319642,
				"y": -0.4441588218,
				"z": -1.8583705436,
				"element": "H" 
			},
			{
				"x": -2.426057815,
				"y": -2.2025383439,
				"z": -0.58635254,
				"element": "H" 
			},
			{
				"x": 1.2418485069,
				"y": -1.3207855322,
				"z": -4.2091922327,
				"element": "H" 
			},
			{
				"x": 3.420564103,
				"y": -2.6673611313,
				"z": -5.1868650888,
				"element": "H" 
			},
			{
				"x": 3.5317662133,
				"y": -4.9581617637,
				"z": -3.6658000682,
				"element": "H" 
			}
		],
		 "valence_orbital": [ 
			{
				"type": "occ",
				"energy": -0.27246,
				"method": "rhf"
			},
			{
				"type": "occ",
				"energy": -0.26471,
				"method": "rhf"
			},
			{
				"type": "occ",
				"energy": -0.25658,
				"method": "rhf"
			},
			{
				"type": "occ",
				"energy": -0.25124,
				"method": "rhf"
			},
			{
				"type": "occ",
				"energy": -0.24867,
				"method": "rhf"
			},
			{
				"type": "unocc",
				"energy": -0.08824,
				"method": "rhf"
			},
			{
				"type": "unocc",
				"energy": -0.04621,
				"method": "rhf"
			},
			{
				"type": "unocc",
				"energy": -0.02905,
				"method": "rhf"
			},
			{
				"type": "unocc",
				"energy": -0.01451,
				"method": "rhf"
			},
			{
				"type": "unocc",
				"energy": -0.00889,
				"method": "rhf"
			}
		],
		"cosmo_sigma_profile": { 
			"-0.025": 0.0,
			"-0.024": 0.0,
			"-0.023": 0.0,
			"-0.022": 0.0,
			"-0.021": 0.0,
			"-0.02": 0.0,
			"-0.019": 0.0,
			"-0.018": 0.0,
			"-0.017": 0.0,
			"-0.016": 0.0,
			"-0.015": 0.0,
			"-0.014": 0.0,
			"-0.013": 0.00162187775399,
			"-0.012": 0.689946132535,
			"-0.011": 2.21635650464,
			"-0.01": 9.99020047399,
			"-0.009": 8.29867181799,
			"-0.008": 8.60172343747,
			"-0.007": 11.6325206649,
			"-0.006": 18.0178026056,
			"-0.005": 22.0649996494,
			"-0.004": 22.6157437012,
			"-0.003": 18.9449171014,
			"-0.002": 22.407725732,
			"-0.001": 21.608017902,
			"0.0": 24.1767783864,
			"0.001": 17.8294118277,
			"0.002": 20.1662734297,
			"0.003": 16.572997334,
			"0.004": 18.1187530282,
			"0.005": 11.5802989072,
			"0.006": 8.78009772324,
			"0.007": 9.98252726009,
			"0.008": 9.26393199564,
			"0.009": 8.53900259368,
			"0.01": 13.1255283013,
			"0.011": 10.8969957282,
			"0.012": 2.07296103831,
			"0.013": 0.307087298471,
			"0.014": 0.0,
			"0.015": 0.0,
			"0.016": 0.0,
			"0.017": 0.0,
			"0.018": 0.0,
			"0.019": 0.0,
			"0.02": 0.0,
			"0.021": 0.0,
			"0.022": 0.0,
			"0.023": 0.0,
			"0.024": 0.0,
			"0.025": 0.0
		}
	}
}
