{
	 "smiles": "OC1=CC2=C(C=C1)C1(OC(=O)C3=C1C=CC(=C3)N=C=S)C1=CC=C(O)C=C1O2", 
	 "Tm": 633.15, 
	 "num_atms": 39, 
	 "gaussian": { 
		 "optdone": 1, 
		 "sigma_profile": "yes", 
		 "theory": "DFT", 
		 "functional": "B3LYP", 
		 "basiset": "6-31G**", 
		 "properties": { 
			 "R2extent": 14028.721, 
			 "electric_dipole_moment_norm": 5.88098601087, 
			 "electric_quadrupole_moment_norm": 31.9197710972, 
			 "total_energy": -1635.92241227, 
			 "HOMO_LUMO_gap": 0.16304, 
			 "cosmo_polarized_energy": -24.78, 
			 "cosmo_cavitation_energy": 47.86, 
			 "cosmo_dispersion_energy": -33.72, 
			 "cosmo_repulsion_energy": 2.5, 
			 "cosmo_total_nonelectrostatic_energy": 16.64, 
			 "SMD_solvation_energy": 10.39 
		},
		"coords": [
			{
				"x": -5.1252040625,
				"y": -2.6609462239,
				"z": -0.3414651868,
				"element": "O" 
			},
			{
				"x": -3.9289883513,
				"y": -2.1233860571,
				"z": 0.0241391621,
				"element": "C" 
			},
			{
				"x": -2.8371498823,
				"y": -2.3684959125,
				"z": -0.8039063918,
				"element": "C" 
			},
			{
				"x": -1.5907234017,
				"y": -1.8385054723,
				"z": -0.4672507309,
				"element": "C" 
			},
			{
				"x": -1.4025999893,
				"y": -1.0541834454,
				"z": 0.6773702435,
				"element": "C" 
			},
			{
				"x": -2.5224931208,
				"y": -0.8258220947,
				"z": 1.490546433,
				"element": "C" 
			},
			{
				"x": -3.7714684477,
				"y": -1.3443348191,
				"z": 1.1824780409,
				"element": "C" 
			},
			{
				"x": -0.0388269338,
				"y": -0.5195880071,
				"z": 1.0557445949,
				"element": "C" 
			},
			{
				"x": 0.3801879716,
				"y": -1.1713377792,
				"z": 2.3245619789,
				"element": "O" 
			},
			{
				"x": 0.5825112824,
				"y": -0.2670411911,
				"z": 3.3290178294,
				"element": "C" 
			},
			{
				"x": 0.9239026309,
				"y": -0.5775217357,
				"z": 4.4435556533,
				"element": "O" 
			},
			{
				"x": 0.3059271062,
				"y": 1.0841402575,
				"z": 2.7775201449,
				"element": "C" 
			},
			{
				"x": -0.0599047461,
				"y": 0.9525923213,
				"z": 1.4449333705,
				"element": "C" 
			},
			{
				"x": -0.3746941531,
				"y": 2.0791069602,
				"z": 0.6866471847,
				"element": "C" 
			},
			{
				"x": -0.3113684276,
				"y": 3.3275781628,
				"z": 1.2994518403,
				"element": "C" 
			},
			{
				"x": 0.0613522373,
				"y": 3.4513544236,
				"z": 2.6584449296,
				"element": "C" 
			},
			{
				"x": 0.377085144,
				"y": 2.3152961992,
				"z": 3.4188715199,
				"element": "C" 
			},
			{
				"x": 0.1116826929,
				"y": 4.6968214409,
				"z": 3.2289385183,
				"element": "N" 
			},
			{
				"x": 0.1552946711,
				"y": 5.7758908156,
				"z": 3.7232162233,
				"element": "C" 
			},
			{
				"x": 0.2133273376,
				"y": 7.2228229818,
				"z": 4.3837122351,
				"element": "S" 
			},
			{
				"x": 0.9901937744,
				"y": -0.8393885023,
				"z": -0.0050170659,
				"element": "C" 
			},
			{
				"x": 2.3177768623,
				"y": -0.3902265775,
				"z": 0.1082751441,
				"element": "C" 
			},
			{
				"x": 3.2846725816,
				"y": -0.7065473731,
				"z": -0.830362069,
				"element": "C" 
			},
			{
				"x": 2.9362433463,
				"y": -1.5029778648,
				"z": -1.9343726853,
				"element": "C" 
			},
			{
				"x": 3.9184714676,
				"y": -1.785890613,
				"z": -2.8330561773,
				"element": "O" 
			},
			{
				"x": 1.6307760337,
				"y": -1.9643807426,
				"z": -2.0767482915,
				"element": "C" 
			},
			{
				"x": 0.6749603072,
				"y": -1.633133775,
				"z": -1.1106126939,
				"element": "C" 
			},
			{
				"x": -0.5787014065,
				"y": -2.132483253,
				"z": -1.3422587885,
				"element": "O" 
			},
			{
				"x": -5.7934417063,
				"y": -2.4317670644,
				"z": 0.3174691868,
				"element": "H" 
			},
			{
				"x": -2.9470748191,
				"y": -2.9688734406,
				"z": -1.6989786573,
				"element": "H" 
			},
			{
				"x": -2.4068739483,
				"y": -0.2297123424,
				"z": 2.3904243851,
				"element": "H" 
			},
			{
				"x": -4.6204514956,
				"y": -1.1525956383,
				"z": 1.8337315484,
				"element": "H" 
			},
			{
				"x": -0.6619265011,
				"y": 1.9952835135,
				"z": -0.3568127088,
				"element": "H" 
			},
			{
				"x": -0.5490916829,
				"y": 4.2282578789,
				"z": 0.7438791931,
				"element": "H" 
			},
			{
				"x": 0.6663234175,
				"y": 2.3951132337,
				"z": 4.4606943854,
				"element": "H" 
			},
			{
				"x": 2.5932688062,
				"y": 0.2201660653,
				"z": 0.9627574035,
				"element": "H" 
			},
			{
				"x": 4.3064865553,
				"y": -0.3581383257,
				"z": -0.7325366582,
				"element": "H" 
			},
			{
				"x": 3.562747053,
				"y": -2.347810425,
				"z": -3.5339322384,
				"element": "H" 
			},
			{
				"x": 1.328891797,
				"y": -2.5812355783,
				"z": -2.9180708055,
				"element": "H" 
			}
		],
		 "valence_orbital": [ 
			{
				"type": "occ",
				"energy": -0.25915,
				"method": "rhf"
			},
			{
				"type": "occ",
				"energy": -0.24655,
				"method": "rhf"
			},
			{
				"type": "occ",
				"energy": -0.24457,
				"method": "rhf"
			},
			{
				"type": "occ",
				"energy": -0.23226,
				"method": "rhf"
			},
			{
				"type": "occ",
				"energy": -0.22867,
				"method": "rhf"
			},
			{
				"type": "unocc",
				"energy": -0.06563,
				"method": "rhf"
			},
			{
				"type": "unocc",
				"energy": -0.05847,
				"method": "rhf"
			},
			{
				"type": "unocc",
				"energy": -0.03054,
				"method": "rhf"
			},
			{
				"type": "unocc",
				"energy": -0.01848,
				"method": "rhf"
			},
			{
				"type": "unocc",
				"energy": -0.00434,
				"method": "rhf"
			}
		],
		"cosmo_sigma_profile": { 
			"-0.025": 0.0,
			"-0.024": 0.0,
			"-0.023": 0.0,
			"-0.022": 0.0,
			"-0.021": 0.0,
			"-0.02": 0.0,
			"-0.019": 0.0594326329397,
			"-0.018": 1.76916450416,
			"-0.017": 2.72784299802,
			"-0.016": 1.70524296899,
			"-0.015": 2.43698621502,
			"-0.014": 2.20777229309,
			"-0.013": 1.71304601049,
			"-0.012": 1.80047498552,
			"-0.011": 2.25788528899,
			"-0.01": 2.27603267785,
			"-0.009": 3.35853898561,
			"-0.008": 7.99215253564,
			"-0.007": 15.1840826515,
			"-0.006": 19.1694229254,
			"-0.005": 17.8552305156,
			"-0.004": 15.4327489631,
			"-0.003": 17.9765831991,
			"-0.002": 26.1315722057,
			"-0.001": 27.1724850219,
			"0.0": 29.0575542735,
			"0.001": 26.8455010624,
			"0.002": 30.4986301228,
			"0.003": 36.1892176406,
			"0.004": 22.8391876681,
			"0.005": 19.078147542,
			"0.006": 16.2884846163,
			"0.007": 6.69810740502,
			"0.008": 5.95681282223,
			"0.009": 6.80265771376,
			"0.01": 7.75364424474,
			"0.011": 7.96386130435,
			"0.012": 4.02460528032,
			"0.013": 0.628370054259,
			"0.014": 0.0,
			"0.015": 0.0,
			"0.016": 0.0,
			"0.017": 0.0,
			"0.018": 0.0,
			"0.019": 0.0,
			"0.02": 0.0,
			"0.021": 0.0,
			"0.022": 0.0,
			"0.023": 0.0,
			"0.024": 0.0,
			"0.025": 0.0
		}
	}
}
