{
	 "smiles": "CC(C)NC1=CC(C)=C(C=C1)C(N)=O", 
	 "Tm": 406.15, 
	 "num_atms": 30, 
	 "gaussian": { 
		 "optdone": 1, 
		 "sigma_profile": "yes", 
		 "theory": "DFT", 
		 "functional": "B3LYP", 
		 "basiset": "6-31G**", 
		 "properties": { 
			 "R2extent": 4912.2065, 
			 "electric_dipole_moment_norm": 5.08334990041, 
			 "electric_quadrupole_moment_norm": 20.4251008113, 
			 "total_energy": -613.576365157, 
			 "HOMO_LUMO_gap": 0.18303, 
			 "cosmo_polarized_energy": -16.4, 
			 "cosmo_cavitation_energy": 32.12, 
			 "cosmo_dispersion_energy": -23.27, 
			 "cosmo_repulsion_energy": 1.84, 
			 "cosmo_total_nonelectrostatic_energy": 10.69, 
			 "SMD_solvation_energy": 5.69 
		},
		"coords": [
			{
				"x": 3.4394316567,
				"y": -0.4207520119,
				"z": -1.0811186654,
				"element": "C" 
			},
			{
				"x": 2.1072031313,
				"y": -0.5422136251,
				"z": -0.3352323447,
				"element": "C" 
			},
			{
				"x": 2.1245094292,
				"y": 0.2353932948,
				"z": 0.992049675,
				"element": "C" 
			},
			{
				"x": 1.032170633,
				"y": -0.1146942762,
				"z": -1.2295832082,
				"element": "N" 
			},
			{
				"x": -0.3135225727,
				"y": -0.3415102041,
				"z": -1.0048823898,
				"element": "C" 
			},
			{
				"x": -1.2677750419,
				"y": 0.3709062295,
				"z": -1.7593980856,
				"element": "C" 
			},
			{
				"x": -2.6423571602,
				"y": 0.1790495867,
				"z": -1.6256258258,
				"element": "C" 
			},
			{
				"x": -3.5457236479,
				"y": 0.9986225507,
				"z": -2.5259255896,
				"element": "C" 
			},
			{
				"x": -3.1065455082,
				"y": -0.7812970837,
				"z": -0.690316756,
				"element": "C" 
			},
			{
				"x": -2.1527605752,
				"y": -1.5093032387,
				"z": 0.0393559473,
				"element": "C" 
			},
			{
				"x": -0.788778653,
				"y": -1.3007306487,
				"z": -0.0888278804,
				"element": "C" 
			},
			{
				"x": -4.5294015348,
				"y": -1.1518304129,
				"z": -0.3967628489,
				"element": "C" 
			},
			{
				"x": -5.5216644237,
				"y": -0.2448333634,
				"z": -0.7126942736,
				"element": "N" 
			},
			{
				"x": -4.8237687874,
				"y": -2.2311921042,
				"z": 0.1098141001,
				"element": "O" 
			},
			{
				"x": 3.6459013866,
				"y": 0.6251161583,
				"z": -1.3420478951,
				"element": "H" 
			},
			{
				"x": 3.4261065793,
				"y": -1.00766289,
				"z": -2.0037456423,
				"element": "H" 
			},
			{
				"x": 4.2652535708,
				"y": -0.7716912466,
				"z": -0.4557072623,
				"element": "H" 
			},
			{
				"x": 1.9423327247,
				"y": -1.6045031577,
				"z": -0.1183637023,
				"element": "H" 
			},
			{
				"x": 2.8971414863,
				"y": -0.1542568448,
				"z": 1.6637071777,
				"element": "H" 
			},
			{
				"x": 2.3348961412,
				"y": 1.2961230917,
				"z": 0.8125770572,
				"element": "H" 
			},
			{
				"x": 1.160139856,
				"y": 0.1633670359,
				"z": 1.5026050081,
				"element": "H" 
			},
			{
				"x": 1.2358215882,
				"y": 0.7249621802,
				"z": -1.7554001378,
				"element": "H" 
			},
			{
				"x": -0.9113987518,
				"y": 1.0918941035,
				"z": -2.4930254853,
				"element": "H" 
			},
			{
				"x": -3.9709702999,
				"y": 1.8668560136,
				"z": -2.0028401579,
				"element": "H" 
			},
			{
				"x": -4.3802061737,
				"y": 0.4122252268,
				"z": -2.916326789,
				"element": "H" 
			},
			{
				"x": -2.9777152387,
				"y": 1.3951681831,
				"z": -3.3716294782,
				"element": "H" 
			},
			{
				"x": -2.5244728479,
				"y": -2.2616946369,
				"z": 0.7266732714,
				"element": "H" 
			},
			{
				"x": -0.1007166132,
				"y": -1.8859487131,
				"z": 0.510400426,
				"element": "H" 
			},
			{
				"x": -6.4280415887,
				"y": -0.4862627496,
				"z": -0.3363882174,
				"element": "H" 
			},
			{
				"x": -5.3091887644,
				"y": 0.7382935531,
				"z": -0.772940027,
				"element": "H" 
			}
		],
		 "valence_orbital": [ 
			{
				"type": "occ",
				"energy": -0.28794,
				"method": "rhf"
			},
			{
				"type": "occ",
				"energy": -0.2573,
				"method": "rhf"
			},
			{
				"type": "occ",
				"energy": -0.24127,
				"method": "rhf"
			},
			{
				"type": "occ",
				"energy": -0.23443,
				"method": "rhf"
			},
			{
				"type": "occ",
				"energy": -0.19556,
				"method": "rhf"
			},
			{
				"type": "unocc",
				"energy": -0.01253,
				"method": "rhf"
			},
			{
				"type": "unocc",
				"energy": 0.00508,
				"method": "rhf"
			},
			{
				"type": "unocc",
				"energy": 0.06623,
				"method": "rhf"
			},
			{
				"type": "unocc",
				"energy": 0.0766,
				"method": "rhf"
			},
			{
				"type": "unocc",
				"energy": 0.09247,
				"method": "rhf"
			}
		],
		"cosmo_sigma_profile": { 
			"-0.025": 0.0,
			"-0.024": 0.0,
			"-0.023": 0.0,
			"-0.022": 0.0,
			"-0.021": 0.0,
			"-0.02": 0.0,
			"-0.019": 0.0,
			"-0.018": 0.0,
			"-0.017": 0.0,
			"-0.016": 0.0,
			"-0.015": 0.0,
			"-0.014": 0.0,
			"-0.013": 1.2722634423,
			"-0.012": 2.90504950516,
			"-0.011": 3.78410581304,
			"-0.01": 4.23155543298,
			"-0.009": 3.91005297417,
			"-0.008": 3.63844778697,
			"-0.007": 3.88437229887,
			"-0.006": 5.80153500985,
			"-0.005": 10.2267087724,
			"-0.004": 14.2026056986,
			"-0.003": 22.7963222811,
			"-0.002": 24.6169299805,
			"-0.001": 25.7598281834,
			"0.0": 25.1099605909,
			"0.001": 21.5041812968,
			"0.002": 11.3049454684,
			"0.003": 9.02002690715,
			"0.004": 9.9082081458,
			"0.005": 11.8007283002,
			"0.006": 11.8278449111,
			"0.007": 3.79774182786,
			"0.008": 2.9022321002,
			"0.009": 2.4921435408,
			"0.01": 1.37416308013,
			"0.011": 1.59852254225,
			"0.012": 1.74519715606,
			"0.013": 2.37994731861,
			"0.014": 5.03110801189,
			"0.015": 2.84283972753,
			"0.016": 0.0423979848179,
			"0.017": 0.0,
			"0.018": 0.0,
			"0.019": 0.0,
			"0.02": 0.0,
			"0.021": 0.0,
			"0.022": 0.0,
			"0.023": 0.0,
			"0.024": 0.0,
			"0.025": 0.0
		}
	}
}
