{
	 "smiles": "CCSC1=C(C=O)C=CC(Br)=C1", 
	 "Tm": 324.15, 
	 "num_atms": 21, 
	 "gaussian": { 
		 "optdone": 1, 
		 "sigma_profile": "yes", 
		 "theory": "DFT", 
		 "functional": "B3LYP", 
		 "basiset": "6-31G**", 
		 "properties": { 
			 "R2extent": 4149.0328, 
			 "electric_dipole_moment_norm": 3.59671230709, 
			 "electric_quadrupole_moment_norm": 11.7754428707, 
			 "total_energy": -3393.18933449, 
			 "HOMO_LUMO_gap": 0.15935, 
			 "cosmo_polarized_energy": -8.36, 
			 "cosmo_cavitation_energy": 28.62, 
			 "cosmo_dispersion_energy": -21.32, 
			 "cosmo_repulsion_energy": 1.67, 
			 "cosmo_total_nonelectrostatic_energy": 8.97, 
			 "SMD_solvation_energy": 4.55 
		},
		"coords": [
			{
				"x": -1.5716694527,
				"y": 1.5179109818,
				"z": -1.9883274581,
				"element": "C" 
			},
			{
				"x": -1.2651832644,
				"y": 2.0947234299,
				"z": -0.6083376837,
				"element": "C" 
			},
			{
				"x": -1.6407390915,
				"y": 0.9730591011,
				"z": 0.800291414,
				"element": "S" 
			},
			{
				"x": -0.4900884868,
				"y": -0.3827274285,
				"z": 0.6062318588,
				"element": "C" 
			},
			{
				"x": -0.8036336803,
				"y": -1.6526264671,
				"z": 1.1487508779,
				"element": "C" 
			},
			{
				"x": -2.1049547138,
				"y": -1.9620921519,
				"z": 1.7930616356,
				"element": "C" 
			},
			{
				"x": -2.3566500285,
				"y": -3.0338114384,
				"z": 2.315104205,
				"element": "O" 
			},
			{
				"x": 0.1370194632,
				"y": -2.6915508099,
				"z": 1.0642041589,
				"element": "C" 
			},
			{
				"x": 1.364097905,
				"y": -2.5168661954,
				"z": 0.4416829442,
				"element": "C" 
			},
			{
				"x": 1.6517568057,
				"y": -1.2616279645,
				"z": -0.0984423926,
				"element": "C" 
			},
			{
				"x": 3.3300282345,
				"y": -0.979403935,
				"z": -0.9618279566,
				"element": "Br" 
			},
			{
				"x": 0.7540030168,
				"y": -0.2014740345,
				"z": -0.0163098654,
				"element": "C" 
			},
			{
				"x": -2.6227608762,
				"y": 1.2276707261,
				"z": -2.0655648705,
				"element": "H" 
			},
			{
				"x": -1.3625738337,
				"y": 2.2672712211,
				"z": -2.7599141945,
				"element": "H" 
			},
			{
				"x": -0.959478743,
				"y": 0.6373088901,
				"z": -2.2002854677,
				"element": "H" 
			},
			{
				"x": -0.2336039922,
				"y": 2.449504634,
				"z": -0.5306027127,
				"element": "H" 
			},
			{
				"x": -1.9061519441,
				"y": 2.9555042365,
				"z": -0.3930582114,
				"element": "H" 
			},
			{
				"x": -2.864002413,
				"y": -1.1573420093,
				"z": 1.7641182803,
				"element": "H" 
			},
			{
				"x": -0.139133208,
				"y": -3.6483339589,
				"z": 1.4962244865,
				"element": "H" 
			},
			{
				"x": 2.0820645884,
				"y": -3.3251810319,
				"z": 0.3721455444,
				"element": "H" 
			},
			{
				"x": 1.0374537145,
				"y": 0.7587842047,
				"z": -0.4261445923,
				"element": "H" 
			}
		],
		 "valence_orbital": [ 
			{
				"type": "occ",
				"energy": -0.29971,
				"method": "rhf"
			},
			{
				"type": "occ",
				"energy": -0.29712,
				"method": "rhf"
			},
			{
				"type": "occ",
				"energy": -0.26034,
				"method": "rhf"
			},
			{
				"type": "occ",
				"energy": -0.25658,
				"method": "rhf"
			},
			{
				"type": "occ",
				"energy": -0.23178,
				"method": "rhf"
			},
			{
				"type": "unocc",
				"energy": -0.07243,
				"method": "rhf"
			},
			{
				"type": "unocc",
				"energy": -0.03092,
				"method": "rhf"
			},
			{
				"type": "unocc",
				"energy": -0.00797,
				"method": "rhf"
			},
			{
				"type": "unocc",
				"energy": 0.02447,
				"method": "rhf"
			},
			{
				"type": "unocc",
				"energy": 0.03361,
				"method": "rhf"
			}
		],
		"cosmo_sigma_profile": { 
			"-0.025": 0.0,
			"-0.024": 0.0,
			"-0.023": 0.0,
			"-0.022": 0.0,
			"-0.021": 0.0,
			"-0.02": 0.0,
			"-0.019": 0.0,
			"-0.018": 0.0,
			"-0.017": 0.0,
			"-0.016": 0.0,
			"-0.015": 0.0,
			"-0.014": 0.0,
			"-0.013": 0.0,
			"-0.012": 0.0,
			"-0.011": 0.0,
			"-0.01": 0.121745335366,
			"-0.009": 1.20655551218,
			"-0.008": 2.44855541813,
			"-0.007": 6.52605189092,
			"-0.006": 8.96180798619,
			"-0.005": 12.9475337659,
			"-0.004": 16.4747164005,
			"-0.003": 21.5463266763,
			"-0.002": 18.9904121459,
			"-0.001": 18.764279592,
			"0.0": 24.4894690908,
			"0.001": 27.1908360392,
			"0.002": 19.3227976009,
			"0.003": 13.5259161079,
			"0.004": 16.0388092523,
			"0.005": 4.32170781839,
			"0.006": 3.15461551654,
			"0.007": 3.4951056078,
			"0.008": 3.16360049437,
			"0.009": 1.70378558129,
			"0.01": 2.35461265291,
			"0.011": 4.31018661237,
			"0.012": 2.20067819695,
			"0.013": 0.520833231071,
			"0.014": 0.0,
			"0.015": 0.0,
			"0.016": 0.0,
			"0.017": 0.0,
			"0.018": 0.0,
			"0.019": 0.0,
			"0.02": 0.0,
			"0.021": 0.0,
			"0.022": 0.0,
			"0.023": 0.0,
			"0.024": 0.0,
			"0.025": 0.0
		}
	}
}
