{
	 "smiles": "COC1=CC=C(OC)C=C1", 
	 "Tm": 331.15, 
	 "num_atms": 20, 
	 "gaussian": { 
		 "optdone": 1, 
		 "sigma_profile": "yes", 
		 "theory": "DFT", 
		 "functional": "B3LYP", 
		 "basiset": "6-31G**", 
		 "properties": { 
			 "R2extent": 1917.7513, 
			 "electric_dipole_moment_norm": 2.28391361045, 
			 "electric_quadrupole_moment_norm": 6.44975096186, 
			 "total_energy": -461.297718866, 
			 "HOMO_LUMO_gap": 0.19721, 
			 "cosmo_polarized_energy": -7.21, 
			 "cosmo_cavitation_energy": 23.34, 
			 "cosmo_dispersion_energy": -17.54, 
			 "cosmo_repulsion_energy": 1.42, 
			 "cosmo_total_nonelectrostatic_energy": 7.22, 
			 "SMD_solvation_energy": 5.58 
		},
		"coords": [
			{
				"x": -2.5784532369,
				"y": 0.9893626762,
				"z": 1.8783326358,
				"element": "C" 
			},
			{
				"x": -1.8041184975,
				"y": 1.3705633285,
				"z": 0.7561889486,
				"element": "O" 
			},
			{
				"x": -0.8875201426,
				"y": 0.4727878028,
				"z": 0.2751905791,
				"element": "C" 
			},
			{
				"x": -0.1444558712,
				"y": 0.8977763302,
				"z": -0.8389205139,
				"element": "C" 
			},
			{
				"x": 0.8091892421,
				"y": 0.0682947647,
				"z": -1.4051030512,
				"element": "C" 
			},
			{
				"x": 1.0475189088,
				"y": -1.2102840963,
				"z": -0.8736517417,
				"element": "C" 
			},
			{
				"x": 2.0114570657,
				"y": -1.9481257071,
				"z": -1.5091778286,
				"element": "O" 
			},
			{
				"x": 2.2887648422,
				"y": -3.2441331765,
				"z": -1.01159398,
				"element": "C" 
			},
			{
				"x": 0.3121104562,
				"y": -1.6361986127,
				"z": 0.2322873644,
				"element": "C" 
			},
			{
				"x": -0.6541638859,
				"y": -0.7957271226,
				"z": 0.8059796751,
				"element": "C" 
			},
			{
				"x": -3.1915743371,
				"y": 0.1023274543,
				"z": 1.6683944623,
				"element": "H" 
			},
			{
				"x": -3.2348813434,
				"y": 1.8336441464,
				"z": 2.0960419998,
				"element": "H" 
			},
			{
				"x": -1.9509295095,
				"y": 0.7862580748,
				"z": 2.7568479682,
				"element": "H" 
			},
			{
				"x": -0.3354254457,
				"y": 1.8868552278,
				"z": -1.2425523993,
				"element": "H" 
			},
			{
				"x": 1.3878961246,
				"y": 0.3879241349,
				"z": -2.2656852029,
				"element": "H" 
			},
			{
				"x": 1.4072556974,
				"y": -3.8977282905,
				"z": -1.0624095866,
				"element": "H" 
			},
			{
				"x": 2.6481550958,
				"y": -3.2143557822,
				"z": 0.0260903211,
				"element": "H" 
			},
			{
				"x": 3.0738983657,
				"y": -3.6534639526,
				"z": -1.6496540753,
				"element": "H" 
			},
			{
				"x": 0.4720065113,
				"y": -2.6164566155,
				"z": 0.6656894493,
				"element": "H" 
			},
			{
				"x": -1.2104300401,
				"y": -1.1530205845,
				"z": 1.6646049758,
				"element": "H" 
			}
		],
		 "valence_orbital": [ 
			{
				"type": "occ",
				"energy": -0.33172,
				"method": "rhf"
			},
			{
				"type": "occ",
				"energy": -0.31592,
				"method": "rhf"
			},
			{
				"type": "occ",
				"energy": -0.28386,
				"method": "rhf"
			},
			{
				"type": "occ",
				"energy": -0.24631,
				"method": "rhf"
			},
			{
				"type": "occ",
				"energy": -0.19485,
				"method": "rhf"
			},
			{
				"type": "unocc",
				"energy": 0.00236,
				"method": "rhf"
			},
			{
				"type": "unocc",
				"energy": 0.03018,
				"method": "rhf"
			},
			{
				"type": "unocc",
				"energy": 0.09226,
				"method": "rhf"
			},
			{
				"type": "unocc",
				"energy": 0.10601,
				"method": "rhf"
			},
			{
				"type": "unocc",
				"energy": 0.11565,
				"method": "rhf"
			}
		],
		"cosmo_sigma_profile": { 
			"-0.025": 0.0,
			"-0.024": 0.0,
			"-0.023": 0.0,
			"-0.022": 0.0,
			"-0.021": 0.0,
			"-0.02": 0.0,
			"-0.019": 0.0,
			"-0.018": 0.0,
			"-0.017": 0.0,
			"-0.016": 0.0,
			"-0.015": 0.0,
			"-0.014": 0.0,
			"-0.013": 0.0,
			"-0.012": 0.0,
			"-0.011": 0.0,
			"-0.01": 0.0,
			"-0.009": 0.0,
			"-0.008": 0.0,
			"-0.007": 0.202941767145,
			"-0.006": 8.60519906782,
			"-0.005": 22.4983601472,
			"-0.004": 22.736184767,
			"-0.003": 22.8624167425,
			"-0.002": 14.2515141477,
			"-0.001": 9.07001684731,
			"0.0": 7.84377853205,
			"0.001": 7.95988950267,
			"0.002": 7.94720133383,
			"0.003": 8.67614614191,
			"0.004": 14.478890296,
			"0.005": 14.7494450603,
			"0.006": 9.53182195753,
			"0.007": 2.57551322325,
			"0.008": 3.09271008154,
			"0.009": 2.6527713089,
			"0.01": 3.02632104106,
			"0.011": 2.30125500335,
			"0.012": 0.0,
			"0.013": 0.0,
			"0.014": 0.0,
			"0.015": 0.0,
			"0.016": 0.0,
			"0.017": 0.0,
			"0.018": 0.0,
			"0.019": 0.0,
			"0.02": 0.0,
			"0.021": 0.0,
			"0.022": 0.0,
			"0.023": 0.0,
			"0.024": 0.0,
			"0.025": 0.0
		}
	}
}
