{
	 "smiles": "CC1=NC(=CS1)C(N)=S", 
	 "Tm": 475.15, 
	 "num_atms": 15, 
	 "gaussian": { 
		 "optdone": 1, 
		 "sigma_profile": "yes", 
		 "theory": "DFT", 
		 "functional": "B3LYP", 
		 "basiset": "6-31G**", 
		 "properties": { 
			 "R2extent": 2745.1757, 
			 "electric_dipole_moment_norm": 5.01388634295, 
			 "electric_quadrupole_moment_norm": 17.690375948, 
			 "total_energy": -1100.0376574, 
			 "HOMO_LUMO_gap": 0.14663, 
			 "cosmo_polarized_energy": -12.92, 
			 "cosmo_cavitation_energy": 22.6, 
			 "cosmo_dispersion_energy": -17.88, 
			 "cosmo_repulsion_energy": 1.39, 
			 "cosmo_total_nonelectrostatic_energy": 6.11, 
			 "SMD_solvation_energy": 1.99 
		},
		"coords": [
			{
				"x": -0.3395245229,
				"y": -2.0015455143,
				"z": 0.9816552795,
				"element": "C" 
			},
			{
				"x": -0.8395925049,
				"y": -0.9815384837,
				"z": 0.0056724011,
				"element": "C" 
			},
			{
				"x": -0.1003112809,
				"y": -0.3764935972,
				"z": -0.8754672354,
				"element": "N" 
			},
			{
				"x": -0.832113663,
				"y": 0.5157529979,
				"z": -1.6432364837,
				"element": "C" 
			},
			{
				"x": -2.1645776557,
				"y": 0.5916455209,
				"z": -1.3377866041,
				"element": "C" 
			},
			{
				"x": -2.5352442833,
				"y": -0.4864167007,
				"z": -0.0440626202,
				"element": "S" 
			},
			{
				"x": -0.1424786709,
				"y": 1.2922961266,
				"z": -2.6988900554,
				"element": "C" 
			},
			{
				"x": 1.1710475532,
				"y": 1.019084524,
				"z": -2.7816845552,
				"element": "N" 
			},
			{
				"x": -0.9174093232,
				"y": 2.3959021072,
				"z": -3.6851914423,
				"element": "S" 
			},
			{
				"x": 0.7311824449,
				"y": -2.1404975412,
				"z": 0.822016923,
				"element": "H" 
			},
			{
				"x": -0.8435133788,
				"y": -2.9645085178,
				"z": 0.848506279,
				"element": "H" 
			},
			{
				"x": -0.5028553493,
				"y": -1.6806091733,
				"z": 2.0157517343,
				"element": "H" 
			},
			{
				"x": -2.9067280497,
				"y": 1.217990227,
				"z": -1.8101554872,
				"element": "H" 
			},
			{
				"x": 1.7313426048,
				"y": 1.4968829241,
				"z": -3.470386936,
				"element": "H" 
			},
			{
				"x": 1.5770760797,
				"y": 0.3386551005,
				"z": -2.1521411974,
				"element": "H" 
			}
		],
		 "valence_orbital": [ 
			{
				"type": "occ",
				"energy": -0.29985,
				"method": "rhf"
			},
			{
				"type": "occ",
				"energy": -0.29618,
				"method": "rhf"
			},
			{
				"type": "occ",
				"energy": -0.2607,
				"method": "rhf"
			},
			{
				"type": "occ",
				"energy": -0.22026,
				"method": "rhf"
			},
			{
				"type": "occ",
				"energy": -0.20647,
				"method": "rhf"
			},
			{
				"type": "unocc",
				"energy": -0.05984,
				"method": "rhf"
			},
			{
				"type": "unocc",
				"energy": -0.02532,
				"method": "rhf"
			},
			{
				"type": "unocc",
				"energy": 0.00457,
				"method": "rhf"
			},
			{
				"type": "unocc",
				"energy": 0.07884,
				"method": "rhf"
			},
			{
				"type": "unocc",
				"energy": 0.08398,
				"method": "rhf"
			}
		],
		"cosmo_sigma_profile": { 
			"-0.025": 0.0,
			"-0.024": 0.0,
			"-0.023": 0.0,
			"-0.022": 0.0,
			"-0.021": 0.0,
			"-0.02": 0.0,
			"-0.019": 0.0,
			"-0.018": 0.0,
			"-0.017": 0.0,
			"-0.016": 0.0,
			"-0.015": 0.651524616634,
			"-0.014": 1.57373728293,
			"-0.013": 1.45751432109,
			"-0.012": 2.26254013405,
			"-0.011": 2.03818393531,
			"-0.01": 1.99430057207,
			"-0.009": 2.57644865254,
			"-0.008": 2.80205155002,
			"-0.007": 3.26643188446,
			"-0.006": 10.2874318967,
			"-0.005": 10.4366164867,
			"-0.004": 10.4555751394,
			"-0.003": 10.5349671876,
			"-0.002": 12.0491166719,
			"-0.001": 13.84384429,
			"0.0": 16.0267011477,
			"0.001": 17.5240559374,
			"0.002": 12.2377196263,
			"0.003": 7.51063699689,
			"0.004": 5.62287206075,
			"0.005": 6.22310578917,
			"0.006": 5.06304299371,
			"0.007": 5.34582720633,
			"0.008": 5.38970445959,
			"0.009": 7.33698626782,
			"0.01": 6.95137834109,
			"0.011": 2.44425044925,
			"0.012": 1.59746107232,
			"0.013": 0.119893725253,
			"0.014": 0.0,
			"0.015": 0.0,
			"0.016": 0.0,
			"0.017": 0.0,
			"0.018": 0.0,
			"0.019": 0.0,
			"0.02": 0.0,
			"0.021": 0.0,
			"0.022": 0.0,
			"0.023": 0.0,
			"0.024": 0.0,
			"0.025": 0.0
		}
	}
}
