{
	 "smiles": "CCNC1=C(C=O)C(=O)OC2=CC=CC=C12", 
	 "Tm": 454.15, 
	 "num_atms": 27, 
	 "gaussian": { 
		 "optdone": 1, 
		 "sigma_profile": "yes", 
		 "theory": "DFT", 
		 "functional": "B3LYP", 
		 "basiset": "6-31G**", 
		 "properties": { 
			 "R2extent": 4358.3118, 
			 "electric_dipole_moment_norm": 7.27094305369, 
			 "electric_quadrupole_moment_norm": 18.2905529528, 
			 "total_energy": -744.332302099, 
			 "HOMO_LUMO_gap": 0.1579, 
			 "cosmo_polarized_energy": -18.68, 
			 "cosmo_cavitation_energy": 30.62, 
			 "cosmo_dispersion_energy": -22.59, 
			 "cosmo_repulsion_energy": 1.74, 
			 "cosmo_total_nonelectrostatic_energy": 9.77, 
			 "SMD_solvation_energy": 6.33 
		},
		"coords": [
			{
				"x": 3.3597470631,
				"y": 0.0338454284,
				"z": -2.5906256552,
				"element": "C" 
			},
			{
				"x": 3.3099942933,
				"y": 0.3308125492,
				"z": -1.0941866842,
				"element": "C" 
			},
			{
				"x": 1.9164938137,
				"y": 0.4896952385,
				"z": -0.6651090686,
				"element": "N" 
			},
			{
				"x": 1.3765345703,
				"y": 0.1866673031,
				"z": 0.5304614699,
				"element": "C" 
			},
			{
				"x": 2.1043697454,
				"y": 0.0429585329,
				"z": 1.7229656101,
				"element": "C" 
			},
			{
				"x": 3.396148974,
				"y": 0.6768661194,
				"z": 2.0103481367,
				"element": "C" 
			},
			{
				"x": 3.9551644683,
				"y": 1.5248209093,
				"z": 1.3228719558,
				"element": "O" 
			},
			{
				"x": 1.5182020957,
				"y": -0.6487534675,
				"z": 2.8670032457,
				"element": "C" 
			},
			{
				"x": 2.0881481078,
				"y": -0.9528784272,
				"z": 3.8905544381,
				"element": "O" 
			},
			{
				"x": 0.1686225314,
				"y": -1.0126960051,
				"z": 2.7802507359,
				"element": "O" 
			},
			{
				"x": -0.6068258874,
				"y": -0.6457433666,
				"z": 1.7287988763,
				"element": "C" 
			},
			{
				"x": -1.9741157955,
				"y": -0.9233368158,
				"z": 1.8391462878,
				"element": "C" 
			},
			{
				"x": -2.8315421211,
				"y": -0.5761996829,
				"z": 0.8049342395,
				"element": "C" 
			},
			{
				"x": -2.3312232363,
				"y": 0.0507230954,
				"z": -0.3447688218,
				"element": "C" 
			},
			{
				"x": -0.9721415956,
				"y": 0.3076617356,
				"z": -0.4541303483,
				"element": "C" 
			},
			{
				"x": -0.0754092601,
				"y": -0.0403848607,
				"z": 0.5762839963,
				"element": "C" 
			},
			{
				"x": 4.3996892715,
				"y": -0.0661357613,
				"z": -2.9126558875,
				"element": "H" 
			},
			{
				"x": 2.8377247927,
				"y": -0.8963568976,
				"z": -2.8389910975,
				"element": "H" 
			},
			{
				"x": 2.9147448088,
				"y": 0.8487318668,
				"z": -3.173885557,
				"element": "H" 
			},
			{
				"x": 3.7465903425,
				"y": -0.4947312809,
				"z": -0.5216438623,
				"element": "H" 
			},
			{
				"x": 3.8819895341,
				"y": 1.2235371919,
				"z": -0.8357401829,
				"element": "H" 
			},
			{
				"x": 1.2610171592,
				"y": 0.5710124401,
				"z": -1.4277381868,
				"element": "H" 
			},
			{
				"x": 3.8160327499,
				"y": 0.3736173603,
				"z": 2.9855844252,
				"element": "H" 
			},
			{
				"x": -2.3297394098,
				"y": -1.4018724337,
				"z": 2.7449249009,
				"element": "H" 
			},
			{
				"x": -3.8933075044,
				"y": -0.7847323614,
				"z": 0.8932975644,
				"element": "H" 
			},
			{
				"x": -3.0022594477,
				"y": 0.3394930557,
				"z": -1.1469992462,
				"element": "H" 
			},
			{
				"x": -0.6181500637,
				"y": 0.8196785342,
				"z": -1.3445512843,
				"element": "H" 
			}
		],
		 "valence_orbital": [ 
			{
				"type": "occ",
				"energy": -0.27696,
				"method": "rhf"
			},
			{
				"type": "occ",
				"energy": -0.27458,
				"method": "rhf"
			},
			{
				"type": "occ",
				"energy": -0.25201,
				"method": "rhf"
			},
			{
				"type": "occ",
				"energy": -0.23467,
				"method": "rhf"
			},
			{
				"type": "occ",
				"energy": -0.23151,
				"method": "rhf"
			},
			{
				"type": "unocc",
				"energy": -0.07361,
				"method": "rhf"
			},
			{
				"type": "unocc",
				"energy": -0.02247,
				"method": "rhf"
			},
			{
				"type": "unocc",
				"energy": 0.00227,
				"method": "rhf"
			},
			{
				"type": "unocc",
				"energy": 0.00481,
				"method": "rhf"
			},
			{
				"type": "unocc",
				"energy": 0.05225,
				"method": "rhf"
			}
		],
		"cosmo_sigma_profile": { 
			"-0.025": 0.0,
			"-0.024": 0.0,
			"-0.023": 0.0,
			"-0.022": 0.0,
			"-0.021": 0.0,
			"-0.02": 0.0,
			"-0.019": 0.0,
			"-0.018": 0.0,
			"-0.017": 0.0,
			"-0.016": 0.186112949511,
			"-0.015": 1.00378565815,
			"-0.014": 0.952591476385,
			"-0.013": 1.23773512694,
			"-0.012": 1.30340641763,
			"-0.011": 1.38913781072,
			"-0.01": 1.4298744733,
			"-0.009": 2.06829442902,
			"-0.008": 2.53576512306,
			"-0.007": 7.41381035396,
			"-0.006": 9.03074153073,
			"-0.005": 15.1288597189,
			"-0.004": 19.6007360014,
			"-0.003": 24.9907928009,
			"-0.002": 23.7038521802,
			"-0.001": 21.060068034,
			"0.0": 19.4511715785,
			"0.001": 14.6510405459,
			"0.002": 13.7642447249,
			"0.003": 14.3178884937,
			"0.004": 5.5412925319,
			"0.005": 3.99854795213,
			"0.006": 3.82398760904,
			"0.007": 4.48697313864,
			"0.008": 3.24458831982,
			"0.009": 4.01013759553,
			"0.01": 4.58380114706,
			"0.011": 5.34307053661,
			"0.012": 8.50911847338,
			"0.013": 4.57542048529,
			"0.014": 1.59024723126,
			"0.015": 0.0124235094008,
			"0.016": 0.0,
			"0.017": 0.0,
			"0.018": 0.0,
			"0.019": 0.0,
			"0.02": 0.0,
			"0.021": 0.0,
			"0.022": 0.0,
			"0.023": 0.0,
			"0.024": 0.0,
			"0.025": 0.0
		}
	}
}
