{
	 "smiles": "FC(F)(F)C1=CC=C(C=C1)C1=NC(=CS1)N=C=O", 
	 "Tm": 324.15, 
	 "num_atms": 23, 
	 "gaussian": { 
		 "optdone": 1, 
		 "sigma_profile": "yes", 
		 "theory": "DFT", 
		 "functional": "B3LYP", 
		 "basiset": "6-31G**", 
		 "properties": { 
			 "R2extent": 7221.3538, 
			 "electric_dipole_moment_norm": 2.86366963353, 
			 "electric_quadrupole_moment_norm": 14.5460386271, 
			 "total_energy": -1304.62169022, 
			 "HOMO_LUMO_gap": 0.15532, 
			 "cosmo_polarized_energy": -6.87, 
			 "cosmo_cavitation_energy": 33.03, 
			 "cosmo_dispersion_energy": -23.79, 
			 "cosmo_repulsion_energy": 1.71, 
			 "cosmo_total_nonelectrostatic_energy": 10.96, 
			 "SMD_solvation_energy": 7.79 
		},
		"coords": [
			{
				"x": 3.2711348055,
				"y": 2.8992347853,
				"z": -2.053923585,
				"element": "F" 
			},
			{
				"x": 2.0517059518,
				"y": 2.515222019,
				"z": -2.4910985542,
				"element": "C" 
			},
			{
				"x": 1.3578721729,
				"y": 3.6442888364,
				"z": -2.7649330895,
				"element": "F" 
			},
			{
				"x": 2.2230636922,
				"y": 1.8658711746,
				"z": -3.6631489299,
				"element": "F" 
			},
			{
				"x": 1.3374026645,
				"y": 1.660642442,
				"z": -1.4787082342,
				"element": "C" 
			},
			{
				"x": 1.5939650448,
				"y": 1.8285970282,
				"z": -0.1156285517,
				"element": "C" 
			},
			{
				"x": 0.8940928539,
				"y": 1.0751010408,
				"z": 0.820810325,
				"element": "C" 
			},
			{
				"x": -0.0732755454,
				"y": 0.144045782,
				"z": 0.4101636216,
				"element": "C" 
			},
			{
				"x": -0.3222598716,
				"y": -0.0178869071,
				"z": -0.9644824554,
				"element": "C" 
			},
			{
				"x": 0.3773421814,
				"y": 0.7348815978,
				"z": -1.8996768067,
				"element": "C" 
			},
			{
				"x": -0.8304357592,
				"y": -0.6690407598,
				"z": 1.3707231843,
				"element": "C" 
			},
			{
				"x": -1.7336728849,
				"y": -1.5491027214,
				"z": 1.0224393453,
				"element": "N" 
			},
			{
				"x": -2.2838589981,
				"y": -2.1626693622,
				"z": 2.1198629795,
				"element": "C" 
			},
			{
				"x": -1.806779213,
				"y": -1.7592317371,
				"z": 3.3401830563,
				"element": "C" 
			},
			{
				"x": -0.6010227184,
				"y": -0.5433274415,
				"z": 3.1165453741,
				"element": "S" 
			},
			{
				"x": -3.2643520542,
				"y": -3.1316579436,
				"z": 1.9692062302,
				"element": "N" 
			},
			{
				"x": -3.8140492113,
				"y": -3.6223500507,
				"z": 1.0002841834,
				"element": "C" 
			},
			{
				"x": -4.4232274864,
				"y": -4.1802737841,
				"z": 0.1664313601,
				"element": "O" 
			},
			{
				"x": 2.344847372,
				"y": 2.54032169,
				"z": 0.2089351911,
				"element": "H" 
			},
			{
				"x": 1.1085839126,
				"y": 1.2147339898,
				"z": 1.8764044106,
				"element": "H" 
			},
			{
				"x": -1.0661044466,
				"y": -0.7407749194,
				"z": -1.2788885218,
				"element": "H" 
			},
			{
				"x": 0.1864776843,
				"y": 0.5999770179,
				"z": -2.9588231362,
				"element": "H" 
			},
			{
				"x": -2.0994501467,
				"y": -2.1091017769,
				"z": 4.318322603,
				"element": "H" 
			}
		],
		 "valence_orbital": [ 
			{
				"type": "occ",
				"energy": -0.31171,
				"method": "rhf"
			},
			{
				"type": "occ",
				"energy": -0.3014,
				"method": "rhf"
			},
			{
				"type": "occ",
				"energy": -0.28279,
				"method": "rhf"
			},
			{
				"type": "occ",
				"energy": -0.27704,
				"method": "rhf"
			},
			{
				"type": "occ",
				"energy": -0.23336,
				"method": "rhf"
			},
			{
				"type": "unocc",
				"energy": -0.07804,
				"method": "rhf"
			},
			{
				"type": "unocc",
				"energy": -0.02833,
				"method": "rhf"
			},
			{
				"type": "unocc",
				"energy": -0.01355,
				"method": "rhf"
			},
			{
				"type": "unocc",
				"energy": -0.00226,
				"method": "rhf"
			},
			{
				"type": "unocc",
				"energy": 0.00438,
				"method": "rhf"
			}
		],
		"cosmo_sigma_profile": { 
			"-0.025": 0.0,
			"-0.024": 0.0,
			"-0.023": 0.0,
			"-0.022": 0.0,
			"-0.021": 0.0,
			"-0.02": 0.0,
			"-0.019": 0.0,
			"-0.018": 0.0,
			"-0.017": 0.0,
			"-0.016": 0.0,
			"-0.015": 0.0,
			"-0.014": 0.0,
			"-0.013": 0.0,
			"-0.012": 0.0,
			"-0.011": 0.131857424969,
			"-0.01": 1.844487329,
			"-0.009": 1.57340253413,
			"-0.008": 4.02955977471,
			"-0.007": 7.86950709818,
			"-0.006": 9.53801874868,
			"-0.005": 9.38061773916,
			"-0.004": 12.2484026328,
			"-0.003": 14.6572174383,
			"-0.002": 17.3144620501,
			"-0.001": 24.4826980737,
			"0.0": 27.675363627,
			"0.001": 34.9579364707,
			"0.002": 44.9369983341,
			"0.003": 33.1909199847,
			"0.004": 6.80554050191,
			"0.005": 4.93954808431,
			"0.006": 8.10162484238,
			"0.007": 6.84245715918,
			"0.008": 0.389385567105,
			"0.009": 0.0,
			"0.01": 0.0,
			"0.011": 0.0,
			"0.012": 0.0,
			"0.013": 0.0,
			"0.014": 0.0,
			"0.015": 0.0,
			"0.016": 0.0,
			"0.017": 0.0,
			"0.018": 0.0,
			"0.019": 0.0,
			"0.02": 0.0,
			"0.021": 0.0,
			"0.022": 0.0,
			"0.023": 0.0,
			"0.024": 0.0,
			"0.025": 0.0
		}
	}
}
