{
	 "smiles": "COC1=CC(O)=C2C(=O)C(O)=C(OC2=C1)C1=CC(O)=C(O)C=C1", 
	 "Tm": 568.15, 
	 "num_atms": 35, 
	 "gaussian": { 
		 "optdone": 1, 
		 "sigma_profile": "yes", 
		 "theory": "DFT", 
		 "functional": "B3LYP", 
		 "basiset": "6-31G**", 
		 "properties": { 
			 "R2extent": 9611.6829, 
			 "electric_dipole_moment_norm": 2.81167128591, 
			 "electric_quadrupole_moment_norm": 33.6163305135, 
			 "total_energy": -1143.49742509, 
			 "HOMO_LUMO_gap": 0.13529, 
			 "cosmo_polarized_energy": -16.56, 
			 "cosmo_cavitation_energy": 39.42, 
			 "cosmo_dispersion_energy": -29.82, 
			 "cosmo_repulsion_energy": 2.2, 
			 "cosmo_total_nonelectrostatic_energy": 11.79, 
			 "SMD_solvation_energy": 9.16 
		},
		"coords": [
			{
				"x": 0.2977007079,
				"y": -3.3402698864,
				"z": 4.5428260952,
				"element": "C" 
			},
			{
				"x": -0.9153575844,
				"y": -3.6505315195,
				"z": 3.8691415586,
				"element": "O" 
			},
			{
				"x": -1.1805131384,
				"y": -3.0408535247,
				"z": 2.6871532244,
				"element": "C" 
			},
			{
				"x": -2.403680333,
				"y": -3.4105331534,
				"z": 2.0951793284,
				"element": "C" 
			},
			{
				"x": -2.7819248241,
				"y": -2.8517412759,
				"z": 0.8841200454,
				"element": "C" 
			},
			{
				"x": -3.9450438164,
				"y": -3.1976302916,
				"z": 0.3124418104,
				"element": "O" 
			},
			{
				"x": -1.9264050182,
				"y": -1.9038247699,
				"z": 0.245547513,
				"element": "C" 
			},
			{
				"x": -2.2664713628,
				"y": -1.2950453328,
				"z": -1.005833194,
				"element": "C" 
			},
			{
				"x": -3.3253859765,
				"y": -1.5268280481,
				"z": -1.65309522,
				"element": "O" 
			},
			{
				"x": -1.3154812862,
				"y": -0.3468238122,
				"z": -1.5551620973,
				"element": "C" 
			},
			{
				"x": -1.6910101682,
				"y": 0.197167346,
				"z": -2.7413349184,
				"element": "O" 
			},
			{
				"x": -0.1452068256,
				"y": -0.046717135,
				"z": -0.9074015778,
				"element": "C" 
			},
			{
				"x": 0.1283310784,
				"y": -0.6624176675,
				"z": 0.2920650692,
				"element": "O" 
			},
			{
				"x": -0.7152405774,
				"y": -1.5611451162,
				"z": 0.8670992695,
				"element": "C" 
			},
			{
				"x": -0.3201088309,
				"y": -2.1140257343,
				"z": 2.0850717316,
				"element": "C" 
			},
			{
				"x": 0.913694638,
				"y": 0.8764467711,
				"z": -1.3173762738,
				"element": "C" 
			},
			{
				"x": 0.8241383246,
				"y": 1.6094460516,
				"z": -2.5221688025,
				"element": "C" 
			},
			{
				"x": 1.8405952028,
				"y": 2.476184174,
				"z": -2.8865060032,
				"element": "C" 
			},
			{
				"x": 1.8410238319,
				"y": 3.2296420749,
				"z": -4.0375317492,
				"element": "O" 
			},
			{
				"x": 2.9766936924,
				"y": 2.6465601782,
				"z": -2.0735026701,
				"element": "C" 
			},
			{
				"x": 3.9665728121,
				"y": 3.4992060438,
				"z": -2.44137148,
				"element": "O" 
			},
			{
				"x": 3.0698040537,
				"y": 1.9262212515,
				"z": -0.8845018545,
				"element": "C" 
			},
			{
				"x": 2.0532868286,
				"y": 1.0526532206,
				"z": -0.5098631744,
				"element": "C" 
			},
			{
				"x": 0.3496446184,
				"y": -2.2771291753,
				"z": 4.8073512095,
				"element": "H" 
			},
			{
				"x": 1.1727316526,
				"y": -3.6065596052,
				"z": 3.937557165,
				"element": "H" 
			},
			{
				"x": 0.2938842955,
				"y": -3.9390110221,
				"z": 5.4543326244,
				"element": "H" 
			},
			{
				"x": -3.0426905141,
				"y": -4.130772222,
				"z": 2.5909470583,
				"element": "H" 
			},
			{
				"x": -4.0174824498,
				"y": -2.6888268442,
				"z": -0.5334198366,
				"element": "H" 
			},
			{
				"x": -2.5593850863,
				"y": -0.2256127874,
				"z": -2.9166527628,
				"element": "H" 
			},
			{
				"x": 0.6229957127,
				"y": -1.8154192214,
				"z": 2.5206715782,
				"element": "H" 
			},
			{
				"x": -0.040993112,
				"y": 1.4945146633,
				"z": -3.1637260813,
				"element": "H" 
			},
			{
				"x": 1.0348707086,
				"y": 3.0601155516,
				"z": -4.5405889035,
				"element": "H" 
			},
			{
				"x": 3.711187513,
				"y": 3.8957673704,
				"z": -3.2885205667,
				"element": "H" 
			},
			{
				"x": 3.9483954819,
				"y": 2.0627309544,
				"z": -0.2629222183,
				"element": "H" 
			},
			{
				"x": 2.1420297509,
				"y": 0.5010624942,
				"z": 0.4169741032,
				"element": "H" 
			}
		],
		 "valence_orbital": [ 
			{
				"type": "occ",
				"energy": -0.26222,
				"method": "rhf"
			},
			{
				"type": "occ",
				"energy": -0.24401,
				"method": "rhf"
			},
			{
				"type": "occ",
				"energy": -0.23986,
				"method": "rhf"
			},
			{
				"type": "occ",
				"energy": -0.22346,
				"method": "rhf"
			},
			{
				"type": "occ",
				"energy": -0.20139,
				"method": "rhf"
			},
			{
				"type": "unocc",
				"energy": -0.0661,
				"method": "rhf"
			},
			{
				"type": "unocc",
				"energy": -0.02048,
				"method": "rhf"
			},
			{
				"type": "unocc",
				"energy": 0.00077,
				"method": "rhf"
			},
			{
				"type": "unocc",
				"energy": 0.00789,
				"method": "rhf"
			},
			{
				"type": "unocc",
				"energy": 0.03897,
				"method": "rhf"
			}
		],
		"cosmo_sigma_profile": { 
			"-0.025": 0.0,
			"-0.024": 0.0,
			"-0.023": 0.0,
			"-0.022": 0.0,
			"-0.021": 0.0,
			"-0.02": 0.0,
			"-0.019": 0.170923315027,
			"-0.018": 1.00476417502,
			"-0.017": 1.00732086775,
			"-0.016": 1.40756248375,
			"-0.015": 1.10695553999,
			"-0.014": 1.53766229398,
			"-0.013": 2.26733241778,
			"-0.012": 1.30274660384,
			"-0.011": 1.57360787265,
			"-0.01": 2.87813306864,
			"-0.009": 2.24357273264,
			"-0.008": 2.06532941081,
			"-0.007": 6.62482760239,
			"-0.006": 16.5915062461,
			"-0.005": 15.7827184269,
			"-0.004": 18.2564888974,
			"-0.003": 19.18057282,
			"-0.002": 19.8181169554,
			"-0.001": 20.1171634106,
			"0.0": 21.3654979724,
			"0.001": 29.7498492548,
			"0.002": 30.9214863343,
			"0.003": 27.4040975894,
			"0.004": 20.3119016548,
			"0.005": 12.1390505881,
			"0.006": 9.05347713477,
			"0.007": 7.34222545585,
			"0.008": 6.2293283365,
			"0.009": 5.85948609367,
			"0.01": 6.59209087422,
			"0.011": 3.77055875887,
			"0.012": 0.432751647594,
			"0.013": 0.0,
			"0.014": 0.0,
			"0.015": 0.0,
			"0.016": 0.0,
			"0.017": 0.0,
			"0.018": 0.0,
			"0.019": 0.0,
			"0.02": 0.0,
			"0.021": 0.0,
			"0.022": 0.0,
			"0.023": 0.0,
			"0.024": 0.0,
			"0.025": 0.0
		}
	}
}
