{
	 "smiles": "CC(=O)C1=CC2=CC(Br)=CC=C2O1", 
	 "Tm": 384.15, 
	 "num_atms": 20, 
	 "gaussian": { 
		 "optdone": 1, 
		 "sigma_profile": "yes", 
		 "theory": "DFT", 
		 "functional": "B3LYP", 
		 "basiset": "6-31G**", 
		 "properties": { 
			 "R2extent": 4879.5665, 
			 "electric_dipole_moment_norm": 2.23448057499, 
			 "electric_quadrupole_moment_norm": 13.0275298157, 
			 "total_energy": -3107.1270215, 
			 "HOMO_LUMO_gap": 0.16785, 
			 "cosmo_polarized_energy": -8.3, 
			 "cosmo_cavitation_energy": 27.52, 
			 "cosmo_dispersion_energy": -20.59, 
			 "cosmo_repulsion_energy": 1.63, 
			 "cosmo_total_nonelectrostatic_energy": 8.56, 
			 "SMD_solvation_energy": 4.58 
		},
		"coords": [
			{
				"x": 2.5204197939,
				"y": 1.3643745999,
				"z": 3.6656249519,
				"element": "C" 
			},
			{
				"x": 1.7314877087,
				"y": 0.0891953496,
				"z": 3.4579968937,
				"element": "C" 
			},
			{
				"x": 1.767693905,
				"y": -0.8502654276,
				"z": 4.2386681482,
				"element": "O" 
			},
			{
				"x": 0.884469581,
				"y": -0.0033800993,
				"z": 2.2522375201,
				"element": "C" 
			},
			{
				"x": 0.078548985,
				"y": -1.0169623412,
				"z": 1.8190082972,
				"element": "C" 
			},
			{
				"x": -0.5084782884,
				"y": -0.5697334979,
				"z": 0.5889331262,
				"element": "C" 
			},
			{
				"x": -1.4067350488,
				"y": -1.1145189213,
				"z": -0.3451586145,
				"element": "C" 
			},
			{
				"x": -1.7368477531,
				"y": -0.3350828055,
				"z": -1.4440574763,
				"element": "C" 
			},
			{
				"x": -2.9553874438,
				"y": -1.028971609,
				"z": -2.7456220431,
				"element": "Br" 
			},
			{
				"x": -1.2095007122,
				"y": 0.9559402846,
				"z": -1.6448566485,
				"element": "C" 
			},
			{
				"x": -0.3193609467,
				"y": 1.5072881041,
				"z": -0.7280795856,
				"element": "C" 
			},
			{
				"x": 0.0103451781,
				"y": 0.7241066164,
				"z": 0.3732024726,
				"element": "C" 
			},
			{
				"x": 0.8578460452,
				"y": 1.0719988533,
				"z": 1.382686204,
				"element": "O" 
			},
			{
				"x": 1.8488809957,
				"y": 2.2283239329,
				"z": 3.7152931545,
				"element": "H" 
			},
			{
				"x": 3.0908821462,
				"y": 1.2818360534,
				"z": 4.5910569063,
				"element": "H" 
			},
			{
				"x": 3.1975062571,
				"y": 1.5392189718,
				"z": 2.8225236033,
				"element": "H" 
			},
			{
				"x": -0.0631716684,
				"y": -1.9572641628,
				"z": 2.3306742485,
				"element": "H" 
			},
			{
				"x": -1.8278969256,
				"y": -2.1046011269,
				"z": -0.2164226614,
				"element": "H" 
			},
			{
				"x": -1.50364546,
				"y": 1.5189977229,
				"z": -2.5226468311,
				"element": "H" 
			},
			{
				"x": 0.0970436512,
				"y": 2.4988995026,
				"z": -0.865161666,
				"element": "H" 
			}
		],
		 "valence_orbital": [ 
			{
				"type": "occ",
				"energy": -0.30942,
				"method": "rhf"
			},
			{
				"type": "occ",
				"energy": -0.29253,
				"method": "rhf"
			},
			{
				"type": "occ",
				"energy": -0.2611,
				"method": "rhf"
			},
			{
				"type": "occ",
				"energy": -0.24514,
				"method": "rhf"
			},
			{
				"type": "occ",
				"energy": -0.24287,
				"method": "rhf"
			},
			{
				"type": "unocc",
				"energy": -0.07502,
				"method": "rhf"
			},
			{
				"type": "unocc",
				"energy": -0.01537,
				"method": "rhf"
			},
			{
				"type": "unocc",
				"energy": -0.00098,
				"method": "rhf"
			},
			{
				"type": "unocc",
				"energy": 0.00039,
				"method": "rhf"
			},
			{
				"type": "unocc",
				"energy": 0.07345,
				"method": "rhf"
			}
		],
		"cosmo_sigma_profile": { 
			"-0.025": 0.0,
			"-0.024": 0.0,
			"-0.023": 0.0,
			"-0.022": 0.0,
			"-0.021": 0.0,
			"-0.02": 0.0,
			"-0.019": 0.0,
			"-0.018": 0.0,
			"-0.017": 0.0,
			"-0.016": 0.0,
			"-0.015": 0.0,
			"-0.014": 0.0,
			"-0.013": 0.0,
			"-0.012": 0.0,
			"-0.011": 0.0,
			"-0.01": 0.0,
			"-0.009": 0.890428687025,
			"-0.008": 5.23033905187,
			"-0.007": 7.11062374238,
			"-0.006": 13.1766515011,
			"-0.005": 12.2609376346,
			"-0.004": 13.2324454219,
			"-0.003": 13.7747197535,
			"-0.002": 17.422347247,
			"-0.001": 19.4915467179,
			"0.0": 18.3867942826,
			"0.001": 24.4551675485,
			"0.002": 25.9199473898,
			"0.003": 13.4252280844,
			"0.004": 13.1104086844,
			"0.005": 8.91284134739,
			"0.006": 2.47972276028,
			"0.007": 1.09608640331,
			"0.008": 2.02131900523,
			"0.009": 1.26842042177,
			"0.01": 2.72921807726,
			"0.011": 3.63864035979,
			"0.012": 3.68242521389,
			"0.013": 0.95930320463,
			"0.014": 0.0102440934696,
			"0.015": 0.0,
			"0.016": 0.0,
			"0.017": 0.0,
			"0.018": 0.0,
			"0.019": 0.0,
			"0.02": 0.0,
			"0.021": 0.0,
			"0.022": 0.0,
			"0.023": 0.0,
			"0.024": 0.0,
			"0.025": 0.0
		}
	}
}
