{
	 "smiles": "COC1=CC=C(C=C1)C(Cl)=C(C1=CC=C(OC)C=C1)C1=CC=C(OC)C=C1", 
	 "Tm": 388.15, 
	 "num_atms": 48, 
	 "gaussian": { 
		 "optdone": 1, 
		 "sigma_profile": "yes", 
		 "theory": "DFT", 
		 "functional": "B3LYP", 
		 "basiset": "6-31G**", 
		 "properties": { 
			 "R2extent": 14135.4391, 
			 "electric_dipole_moment_norm": 1.88986523064, 
			 "electric_quadrupole_moment_norm": 24.396066891, 
			 "total_energy": -1574.9224041, 
			 "HOMO_LUMO_gap": 0.15079, 
			 "cosmo_polarized_energy": -14.24, 
			 "cosmo_cavitation_energy": 53.33, 
			 "cosmo_dispersion_energy": -36.26, 
			 "cosmo_repulsion_energy": 2.79, 
			 "cosmo_total_nonelectrostatic_energy": 19.86, 
			 "SMD_solvation_energy": 10.85 
		},
		"coords": [
			{
				"x": -2.3726503691,
				"y": -4.5980031978,
				"z": 4.1375061557,
				"element": "C" 
			},
			{
				"x": -2.1910113504,
				"y": -3.1923168116,
				"z": 4.0715068389,
				"element": "O" 
			},
			{
				"x": -2.0100491889,
				"y": -2.6209706153,
				"z": 2.8468680147,
				"element": "C" 
			},
			{
				"x": -1.990056824,
				"y": -3.3210272369,
				"z": 1.6343314746,
				"element": "C" 
			},
			{
				"x": -1.8032673189,
				"y": -2.6269976184,
				"z": 0.4386347494,
				"element": "C" 
			},
			{
				"x": -1.6178421687,
				"y": -1.2377869278,
				"z": 0.4161608661,
				"element": "C" 
			},
			{
				"x": -1.6542402376,
				"y": -0.5510954569,
				"z": 1.6463136598,
				"element": "C" 
			},
			{
				"x": -1.8444696834,
				"y": -1.2273202793,
				"z": 2.8412590008,
				"element": "C" 
			},
			{
				"x": -1.4290837885,
				"y": -0.4964002759,
				"z": -0.8504672238,
				"element": "C" 
			},
			{
				"x": -2.5798825776,
				"y": -0.9931043898,
				"z": -2.121891149,
				"element": "Cl" 
			},
			{
				"x": -0.5188556729,
				"y": 0.4763623862,
				"z": -1.1116360705,
				"element": "C" 
			},
			{
				"x": 0.616122028,
				"y": 0.7365529591,
				"z": -0.1750279569,
				"element": "C" 
			},
			{
				"x": 1.4131125951,
				"y": -0.3060666911,
				"z": 0.3367488645,
				"element": "C" 
			},
			{
				"x": 2.4876938371,
				"y": -0.0472471469,
				"z": 1.1746137121,
				"element": "C" 
			},
			{
				"x": 2.8040750483,
				"y": 1.27223011,
				"z": 1.5327704684,
				"element": "C" 
			},
			{
				"x": 3.8763597046,
				"y": 1.4215242856,
				"z": 2.3631257975,
				"element": "O" 
			},
			{
				"x": 4.2466237239,
				"y": 2.7344271628,
				"z": 2.7519426223,
				"element": "C" 
			},
			{
				"x": 2.0334601083,
				"y": 2.3256629848,
				"z": 1.0265259764,
				"element": "C" 
			},
			{
				"x": 0.9614975182,
				"y": 2.0493764935,
				"z": 0.1759426686,
				"element": "C" 
			},
			{
				"x": -0.5475526169,
				"y": 1.3272164742,
				"z": -2.3354179362,
				"element": "C" 
			},
			{
				"x": -1.6878529899,
				"y": 2.0490981454,
				"z": -2.7094911561,
				"element": "C" 
			},
			{
				"x": -1.6963495768,
				"y": 2.875418623,
				"z": -3.8348192025,
				"element": "C" 
			},
			{
				"x": -0.5428213159,
				"y": 2.9887393597,
				"z": -4.6196032533,
				"element": "C" 
			},
			{
				"x": -0.4374808166,
				"y": 3.7597192135,
				"z": -5.7408117926,
				"element": "O" 
			},
			{
				"x": -1.5778409959,
				"y": 4.4902933204,
				"z": -6.1621027174,
				"element": "C" 
			},
			{
				"x": 0.6122883295,
				"y": 2.2801879004,
				"z": -4.2552972065,
				"element": "C" 
			},
			{
				"x": 0.6082146085,
				"y": 1.4741073337,
				"z": -3.1264108423,
				"element": "C" 
			},
			{
				"x": -2.4977323188,
				"y": -4.8365002924,
				"z": 5.1948292944,
				"element": "H" 
			},
			{
				"x": -3.2672072281,
				"y": -4.9173034766,
				"z": 3.5874530745,
				"element": "H" 
			},
			{
				"x": -1.5005712569,
				"y": -5.1381457134,
				"z": 3.7469451266,
				"element": "H" 
			},
			{
				"x": -2.1223744127,
				"y": -4.3960762998,
				"z": 1.6068199708,
				"element": "H" 
			},
			{
				"x": -1.8031094662,
				"y": -3.1792558973,
				"z": -0.4955265576,
				"element": "H" 
			},
			{
				"x": -1.5331388603,
				"y": 0.5266181394,
				"z": 1.6566290959,
				"element": "H" 
			},
			{
				"x": -1.8784748724,
				"y": -0.6973938986,
				"z": 3.7874907316,
				"element": "H" 
			},
			{
				"x": 1.1846324897,
				"y": -1.331417544,
				"z": 0.0659698908,
				"element": "H" 
			},
			{
				"x": 3.1053412728,
				"y": -0.8511549873,
				"z": 1.5616856183,
				"element": "H" 
			},
			{
				"x": 4.5242290417,
				"y": 3.350687143,
				"z": 1.886963971,
				"element": "H" 
			},
			{
				"x": 3.4416098324,
				"y": 3.2361736917,
				"z": 3.3044351714,
				"element": "H" 
			},
			{
				"x": 5.1134696663,
				"y": 2.6226460924,
				"z": 3.4051450178,
				"element": "H" 
			},
			{
				"x": 2.2581747883,
				"y": 3.3552201699,
				"z": 1.2790088944,
				"element": "H" 
			},
			{
				"x": 0.3793412923,
				"y": 2.8752896185,
				"z": -0.2215133568,
				"element": "H" 
			},
			{
				"x": -2.5881545501,
				"y": 1.9703329213,
				"z": -2.1088385312,
				"element": "H" 
			},
			{
				"x": -2.5987376965,
				"y": 3.4211136398,
				"z": -4.0839606886,
				"element": "H" 
			},
			{
				"x": -1.893744668,
				"y": 5.2214720856,
				"z": -5.4065471164,
				"element": "H" 
			},
			{
				"x": -2.4218861321,
				"y": 3.8273565813,
				"z": -6.3921885636,
				"element": "H" 
			},
			{
				"x": -1.279642605,
				"y": 5.0190995409,
				"z": -7.0688243293,
				"element": "H" 
			},
			{
				"x": 1.4990805542,
				"y": 2.3819468464,
				"z": -4.8724095931,
				"element": "H" 
			},
			{
				"x": 1.5124551197,
				"y": 0.940311535,
				"z": -2.8501414836,
				"element": "H" 
			}
		],
		 "valence_orbital": [ 
			{
				"type": "occ",
				"energy": -0.24671,
				"method": "rhf"
			},
			{
				"type": "occ",
				"energy": -0.24426,
				"method": "rhf"
			},
			{
				"type": "occ",
				"energy": -0.22424,
				"method": "rhf"
			},
			{
				"type": "occ",
				"energy": -0.21859,
				"method": "rhf"
			},
			{
				"type": "occ",
				"energy": -0.18652,
				"method": "rhf"
			},
			{
				"type": "unocc",
				"energy": -0.03573,
				"method": "rhf"
			},
			{
				"type": "unocc",
				"energy": -0.00575,
				"method": "rhf"
			},
			{
				"type": "unocc",
				"energy": 0.00105,
				"method": "rhf"
			},
			{
				"type": "unocc",
				"energy": 0.00907,
				"method": "rhf"
			},
			{
				"type": "unocc",
				"energy": 0.01041,
				"method": "rhf"
			}
		],
		"cosmo_sigma_profile": { 
			"-0.025": 0.0,
			"-0.024": 0.0,
			"-0.023": 0.0,
			"-0.022": 0.0,
			"-0.021": 0.0,
			"-0.02": 0.0,
			"-0.019": 0.0,
			"-0.018": 0.0,
			"-0.017": 0.0,
			"-0.016": 0.0,
			"-0.015": 0.0,
			"-0.014": 0.0,
			"-0.013": 0.0,
			"-0.012": 0.0,
			"-0.011": 0.0,
			"-0.01": 0.0,
			"-0.009": 0.0,
			"-0.008": 0.0,
			"-0.007": 1.84338887306,
			"-0.006": 22.1039704755,
			"-0.005": 45.5153400465,
			"-0.004": 43.4525063243,
			"-0.003": 42.0065744203,
			"-0.002": 28.1345216325,
			"-0.001": 25.0597864714,
			"0.0": 28.0133194296,
			"0.001": 25.11422059,
			"0.002": 25.9740439915,
			"0.003": 32.7330628079,
			"0.004": 38.8106117071,
			"0.005": 35.2232072652,
			"0.006": 13.4969001018,
			"0.007": 5.90843528576,
			"0.008": 3.48655774009,
			"0.009": 4.55629155647,
			"0.01": 4.58471382006,
			"0.011": 0.757582878782,
			"0.012": 0.0,
			"0.013": 0.0,
			"0.014": 0.0,
			"0.015": 0.0,
			"0.016": 0.0,
			"0.017": 0.0,
			"0.018": 0.0,
			"0.019": 0.0,
			"0.02": 0.0,
			"0.021": 0.0,
			"0.022": 0.0,
			"0.023": 0.0,
			"0.024": 0.0,
			"0.025": 0.0
		}
	}
}
