{
	 "smiles": "OC(=O)CN1C(=O)C2C3CC(C=C3)C2C1=O", 
	 "Tm": 420.15, 
	 "num_atms": 27, 
	 "gaussian": { 
		 "optdone": 1, 
		 "sigma_profile": "yes", 
		 "theory": "DFT", 
		 "functional": "B3LYP", 
		 "basiset": "6-31G**", 
		 "properties": { 
			 "R2extent": 3391.1063, 
			 "electric_dipole_moment_norm": 3.18209881839, 
			 "electric_quadrupole_moment_norm": 19.6644335522, 
			 "total_energy": -781.444224594, 
			 "HOMO_LUMO_gap": 0.22344, 
			 "cosmo_polarized_energy": -22.22, 
			 "cosmo_cavitation_energy": 29.67, 
			 "cosmo_dispersion_energy": -21.17, 
			 "cosmo_repulsion_energy": 1.64, 
			 "cosmo_total_nonelectrostatic_energy": 10.14, 
			 "SMD_solvation_energy": 6.51 
		},
		"coords": [
			{
				"x": -0.7302060769,
				"y": -2.740062155,
				"z": 3.0683741736,
				"element": "O" 
			},
			{
				"x": -0.7471369645,
				"y": -1.7514433552,
				"z": 2.1399623646,
				"element": "C" 
			},
			{
				"x": -0.1901230001,
				"y": -0.7056482609,
				"z": 2.3374405007,
				"element": "O" 
			},
			{
				"x": -1.5244453988,
				"y": -2.1035097166,
				"z": 0.8628857605,
				"element": "C" 
			},
			{
				"x": -1.5197083086,
				"y": -1.0317214241,
				"z": -0.0962128778,
				"element": "N" 
			},
			{
				"x": -2.4678523226,
				"y": -0.0014539042,
				"z": -0.0833979438,
				"element": "C" 
			},
			{
				"x": -3.4169385868,
				"y": 0.0333853623,
				"z": 0.6722138385,
				"element": "O" 
			},
			{
				"x": -2.0850352972,
				"y": 0.9855715166,
				"z": -1.1741467437,
				"element": "C" 
			},
			{
				"x": -1.6376408672,
				"y": 2.4152061222,
				"z": -0.6747241208,
				"element": "C" 
			},
			{
				"x": -0.6827414284,
				"y": 2.7922957005,
				"z": -1.8351666282,
				"element": "C" 
			},
			{
				"x": 0.2545093923,
				"y": 1.5813842048,
				"z": -1.5981997714,
				"element": "C" 
			},
			{
				"x": 0.4891684516,
				"y": 1.7100415141,
				"z": -0.1000934752,
				"element": "C" 
			},
			{
				"x": -0.6306050947,
				"y": 2.203425355,
				"z": 0.446388317,
				"element": "C" 
			},
			{
				"x": -0.7881379863,
				"y": 0.41394764,
				"z": -1.8067615904,
				"element": "C" 
			},
			{
				"x": -0.5005807434,
				"y": -0.8680360653,
				"z": -1.0423639874,
				"element": "C" 
			},
			{
				"x": 0.4122990118,
				"y": -1.6532333264,
				"z": -1.1941520807,
				"element": "O" 
			},
			{
				"x": -1.2221274336,
				"y": -3.5148726872,
				"z": 2.7594194086,
				"element": "H" 
			},
			{
				"x": -1.0671942753,
				"y": -2.9833241379,
				"z": 0.3975298045,
				"element": "H" 
			},
			{
				"x": -2.5643476383,
				"y": -2.3238277,
				"z": 1.1270330218,
				"element": "H" 
			},
			{
				"x": -2.9159597134,
				"y": 1.0731738253,
				"z": -1.880385266,
				"element": "H" 
			},
			{
				"x": -2.4737469795,
				"y": 3.0827258793,
				"z": -0.4642883973,
				"element": "H" 
			},
			{
				"x": -0.180817705,
				"y": 3.7493870662,
				"z": -1.6710156039,
				"element": "H" 
			},
			{
				"x": -1.1638204517,
				"y": 2.791725798,
				"z": -2.8203741289,
				"element": "H" 
			},
			{
				"x": 1.1399122513,
				"y": 1.4902323994,
				"z": -2.2280299832,
				"element": "H" 
			},
			{
				"x": 1.3602740113,
				"y": 1.3357661237,
				"z": 0.4241943303,
				"element": "H" 
			},
			{
				"x": -0.8488561905,
				"y": 2.3091873377,
				"z": 1.5023066607,
				"element": "H" 
			},
			{
				"x": -0.8860406556,
				"y": 0.1779768877,
				"z": -2.870535582,
				"element": "H" 
			}
		],
		 "valence_orbital": [ 
			{
				"type": "occ",
				"energy": -0.29451,
				"method": "rhf"
			},
			{
				"type": "occ",
				"energy": -0.28495,
				"method": "rhf"
			},
			{
				"type": "occ",
				"energy": -0.27611,
				"method": "rhf"
			},
			{
				"type": "occ",
				"energy": -0.26105,
				"method": "rhf"
			},
			{
				"type": "occ",
				"energy": -0.24741,
				"method": "rhf"
			},
			{
				"type": "unocc",
				"energy": -0.02397,
				"method": "rhf"
			},
			{
				"type": "unocc",
				"energy": 0.0013,
				"method": "rhf"
			},
			{
				"type": "unocc",
				"energy": 0.00938,
				"method": "rhf"
			},
			{
				"type": "unocc",
				"energy": 0.01509,
				"method": "rhf"
			},
			{
				"type": "unocc",
				"energy": 0.04544,
				"method": "rhf"
			}
		],
		"cosmo_sigma_profile": { 
			"-0.025": 0.0,
			"-0.024": 0.0,
			"-0.023": 0.0,
			"-0.022": 0.0,
			"-0.021": 0.00415813798168,
			"-0.02": 0.827184334478,
			"-0.019": 1.54772799292,
			"-0.018": 1.21825312793,
			"-0.017": 1.16427985982,
			"-0.016": 0.977742840429,
			"-0.015": 1.27455912459,
			"-0.014": 1.40291096351,
			"-0.013": 1.04761962341,
			"-0.012": 1.48287799843,
			"-0.011": 1.68724179867,
			"-0.01": 1.76647589652,
			"-0.009": 1.8200357347,
			"-0.008": 2.68853863888,
			"-0.007": 8.67220928702,
			"-0.006": 14.6386654283,
			"-0.005": 17.0628334811,
			"-0.004": 18.4249570045,
			"-0.003": 16.2511783826,
			"-0.002": 14.2305636112,
			"-0.001": 16.1574888069,
			"0.0": 12.5807239208,
			"0.001": 8.67729047215,
			"0.002": 8.62147961906,
			"0.003": 8.11916576073,
			"0.004": 7.09123509023,
			"0.005": 7.12948136179,
			"0.006": 8.69696961951,
			"0.007": 6.90628089483,
			"0.008": 5.75835358997,
			"0.009": 7.19465222846,
			"0.01": 8.61490786592,
			"0.011": 10.2414642546,
			"0.012": 8.32502997212,
			"0.013": 1.68974888635,
			"0.014": 0.0488575595936,
			"0.015": 0.0,
			"0.016": 0.0,
			"0.017": 0.0,
			"0.018": 0.0,
			"0.019": 0.0,
			"0.02": 0.0,
			"0.021": 0.0,
			"0.022": 0.0,
			"0.023": 0.0,
			"0.024": 0.0,
			"0.025": 0.0
		}
	}
}
