{
	 "smiles": "OC(=O)C1=CN(CCC#N)N=C1C1=CC=C(C=C1)[N+]([O-])=O", 
	 "Tm": 494.15, 
	 "num_atms": 31, 
	 "gaussian": { 
		 "optdone": 1, 
		 "sigma_profile": "yes", 
		 "theory": "DFT", 
		 "functional": "B3LYP", 
		 "basiset": "6-31G**", 
		 "properties": { 
			 "R2extent": 9590.1859, 
			 "electric_dipole_moment_norm": 6.06910883079, 
			 "electric_quadrupole_moment_norm": 39.7940664326, 
			 "total_energy": -1021.19617733, 
			 "HOMO_LUMO_gap": 0.16727, 
			 "cosmo_polarized_energy": -25.09, 
			 "cosmo_cavitation_energy": 38.93, 
			 "cosmo_dispersion_energy": -26.57, 
			 "cosmo_repulsion_energy": 2.06, 
			 "cosmo_total_nonelectrostatic_energy": 14.41, 
			 "SMD_solvation_energy": 10.73 
		},
		"coords": [
			{
				"x": 2.6049675753,
				"y": 2.2219325622,
				"z": 1.1432092645,
				"element": "O" 
			},
			{
				"x": 2.2373941519,
				"y": 2.1406327024,
				"z": -0.1579018033,
				"element": "C" 
			},
			{
				"x": 2.9673535924,
				"y": 2.5082730387,
				"z": -1.0590637333,
				"element": "O" 
			},
			{
				"x": 0.9072521646,
				"y": 1.5547456883,
				"z": -0.377299287,
				"element": "C" 
			},
			{
				"x": 0.4557002873,
				"y": 1.3112982149,
				"z": -1.6671724409,
				"element": "C" 
			},
			{
				"x": -0.7315633212,
				"y": 0.6837743985,
				"z": -1.5584759707,
				"element": "N" 
			},
			{
				"x": -1.6377927587,
				"y": 0.262714859,
				"z": -2.6132892855,
				"element": "C" 
			},
			{
				"x": -2.8926413727,
				"y": 1.1562625432,
				"z": -2.6961505733,
				"element": "C" 
			},
			{
				"x": -2.5847356536,
				"y": 2.5214035632,
				"z": -3.1278757835,
				"element": "C" 
			},
			{
				"x": -2.315541756,
				"y": 3.5940282847,
				"z": -3.4791449249,
				"element": "N" 
			},
			{
				"x": -1.1067938492,
				"y": 0.5061619611,
				"z": -0.2693038691,
				"element": "N" 
			},
			{
				"x": -0.1242836128,
				"y": 1.0299349442,
				"z": 0.4708622068,
				"element": "C" 
			},
			{
				"x": -0.2689454151,
				"y": 0.9737642604,
				"z": 1.9405445927,
				"element": "C" 
			},
			{
				"x": -0.8932818214,
				"y": -0.1476059889,
				"z": 2.5170492307,
				"element": "C" 
			},
			{
				"x": -1.0956276558,
				"y": -0.2246363351,
				"z": 3.8895956001,
				"element": "C" 
			},
			{
				"x": -0.6712806755,
				"y": 0.8359508351,
				"z": 4.6882187434,
				"element": "C" 
			},
			{
				"x": -0.0592624012,
				"y": 1.9648093194,
				"z": 4.147816826,
				"element": "C" 
			},
			{
				"x": 0.1379227462,
				"y": 2.0296356639,
				"z": 2.7725552508,
				"element": "C" 
			},
			{
				"x": -0.8783027619,
				"y": 0.7624620331,
				"z": 6.1420782953,
				"element": "N" 
			},
			{
				"x": -1.425451517,
				"y": -0.2449172577,
				"z": 6.5908518551,
				"element": "O" 
			},
			{
				"x": -0.4924483389,
				"y": 1.7124026195,
				"z": 6.8232294672,
				"element": "O" 
			},
			{
				"x": 3.4991066141,
				"y": 2.6033784535,
				"z": 1.1394197366,
				"element": "H" 
			},
			{
				"x": 0.9211591193,
				"y": 1.5397291646,
				"z": -2.6141543799,
				"element": "H" 
			},
			{
				"x": -1.949400376,
				"y": -0.7626482384,
				"z": -2.4000012793,
				"element": "H" 
			},
			{
				"x": -1.0874240417,
				"y": 0.273506824,
				"z": -3.556250895,
				"element": "H" 
			},
			{
				"x": -3.6039058188,
				"y": 0.7122521126,
				"z": -3.4015101936,
				"element": "H" 
			},
			{
				"x": -3.3733922455,
				"y": 1.1860613359,
				"z": -1.7130373629,
				"element": "H" 
			},
			{
				"x": -1.2166819838,
				"y": -0.9580667215,
				"z": 1.8739632983,
				"element": "H" 
			},
			{
				"x": -1.5677566021,
				"y": -1.0834504296,
				"z": 4.3496963813,
				"element": "H" 
			},
			{
				"x": 0.244118883,
				"y": 2.7711291184,
				"z": 4.8034874729,
				"element": "H" 
			},
			{
				"x": 0.6084388449,
				"y": 2.9039804705,
				"z": 2.3425535607,
				"element": "H" 
			}
		],
		 "valence_orbital": [ 
			{
				"type": "occ",
				"energy": -0.28845,
				"method": "rhf"
			},
			{
				"type": "occ",
				"energy": -0.28609,
				"method": "rhf"
			},
			{
				"type": "occ",
				"energy": -0.278,
				"method": "rhf"
			},
			{
				"type": "occ",
				"energy": -0.27583,
				"method": "rhf"
			},
			{
				"type": "occ",
				"energy": -0.25869,
				"method": "rhf"
			},
			{
				"type": "unocc",
				"energy": -0.09142,
				"method": "rhf"
			},
			{
				"type": "unocc",
				"energy": -0.04145,
				"method": "rhf"
			},
			{
				"type": "unocc",
				"energy": -0.02703,
				"method": "rhf"
			},
			{
				"type": "unocc",
				"energy": -0.024,
				"method": "rhf"
			},
			{
				"type": "unocc",
				"energy": 0.01014,
				"method": "rhf"
			}
		],
		"cosmo_sigma_profile": { 
			"-0.025": 0.0,
			"-0.024": 0.0,
			"-0.023": 0.0,
			"-0.022": 0.0,
			"-0.021": 0.0,
			"-0.02": 0.0,
			"-0.019": 0.144657175598,
			"-0.018": 0.794914436433,
			"-0.017": 1.07226353638,
			"-0.016": 0.593231034269,
			"-0.015": 0.661897209999,
			"-0.014": 0.652522680721,
			"-0.013": 0.870946065168,
			"-0.012": 0.770959599717,
			"-0.011": 3.12182894322,
			"-0.01": 3.78603551678,
			"-0.009": 10.7028076971,
			"-0.008": 14.174835609,
			"-0.007": 13.967483131,
			"-0.006": 18.0049152948,
			"-0.005": 15.1227236013,
			"-0.004": 12.5125583376,
			"-0.003": 13.8976678458,
			"-0.002": 15.1466298668,
			"-0.001": 22.2794142174,
			"0.0": 24.1658155949,
			"0.001": 23.8199046339,
			"0.002": 16.239847936,
			"0.003": 10.9553026158,
			"0.004": 8.52783558029,
			"0.005": 9.5541107232,
			"0.006": 10.2309028772,
			"0.007": 14.5688565109,
			"0.008": 13.1700452174,
			"0.009": 9.66288992151,
			"0.01": 7.96490145422,
			"0.011": 7.21828408722,
			"0.012": 7.17715702606,
			"0.013": 1.61803497134,
			"0.014": 0.0363216767717,
			"0.015": 0.0,
			"0.016": 0.0,
			"0.017": 0.0,
			"0.018": 0.0,
			"0.019": 0.0,
			"0.02": 0.0,
			"0.021": 0.0,
			"0.022": 0.0,
			"0.023": 0.0,
			"0.024": 0.0,
			"0.025": 0.0
		}
	}
}
