{
	 "smiles": "OC(=O)C1=C(NCC2=C(Cl)C=CC=C2)C=CC=C1", 
	 "Tm": 457.15, 
	 "num_atms": 30, 
	 "gaussian": { 
		 "optdone": 1, 
		 "sigma_profile": "yes", 
		 "theory": "DFT", 
		 "functional": "B3LYP", 
		 "basiset": "6-31G**", 
		 "properties": { 
			 "R2extent": 6133.1399, 
			 "electric_dipole_moment_norm": 6.6820484247, 
			 "electric_quadrupole_moment_norm": 33.2659713027, 
			 "total_energy": -1206.1279388, 
			 "HOMO_LUMO_gap": 0.19226, 
			 "cosmo_polarized_energy": -17.15, 
			 "cosmo_cavitation_energy": 36.47, 
			 "cosmo_dispersion_energy": -25.29, 
			 "cosmo_repulsion_energy": 1.92, 
			 "cosmo_total_nonelectrostatic_energy": 13.1, 
			 "SMD_solvation_energy": 6.84 
		},
		"coords": [
			{
				"x": -0.2027023522,
				"y": -0.2122299808,
				"z": -3.265496521,
				"element": "O" 
			},
			{
				"x": -1.4830398513,
				"y": 0.107121513,
				"z": -3.546880872,
				"element": "C" 
			},
			{
				"x": -1.8064700439,
				"y": 0.4232584234,
				"z": -4.671260867,
				"element": "O" 
			},
			{
				"x": -2.4825993479,
				"y": 0.0048684021,
				"z": -2.4215086918,
				"element": "C" 
			},
			{
				"x": -2.14943933,
				"y": -0.0346434609,
				"z": -1.0449973366,
				"element": "C" 
			},
			{
				"x": -0.7864123704,
				"y": 0.1246021869,
				"z": -0.6598076499,
				"element": "N" 
			},
			{
				"x": -0.398412195,
				"y": -0.1115697593,
				"z": 0.7364234621,
				"element": "C" 
			},
			{
				"x": 1.0968878006,
				"y": 0.0390467641,
				"z": 0.8993869433,
				"element": "C" 
			},
			{
				"x": 2.0078228136,
				"y": -0.9523890874,
				"z": 0.5014539056,
				"element": "C" 
			},
			{
				"x": 1.4295435194,
				"y": -2.4654334805,
				"z": -0.1874055153,
				"element": "Cl" 
			},
			{
				"x": 3.3842508186,
				"y": -0.7829682826,
				"z": 0.644892527,
				"element": "C" 
			},
			{
				"x": 3.8782877681,
				"y": 0.4007975053,
				"z": 1.1931295962,
				"element": "C" 
			},
			{
				"x": 2.9978237609,
				"y": 1.4035338061,
				"z": 1.5977998262,
				"element": "C" 
			},
			{
				"x": 1.6241442186,
				"y": 1.2153383323,
				"z": 1.4495986384,
				"element": "C" 
			},
			{
				"x": -3.1658199896,
				"y": -0.2530174648,
				"z": -0.1051832347,
				"element": "C" 
			},
			{
				"x": -4.4919420248,
				"y": -0.4006870601,
				"z": -0.5133886416,
				"element": "C" 
			},
			{
				"x": -4.830566182,
				"y": -0.313685881,
				"z": -1.8631470999,
				"element": "C" 
			},
			{
				"x": -3.8244362095,
				"y": -0.1089167263,
				"z": -2.803165724,
				"element": "C" 
			},
			{
				"x": -0.1276346672,
				"y": -0.4715953097,
				"z": -2.3210863777,
				"element": "H" 
			},
			{
				"x": -0.40592331,
				"y": 1.0084235356,
				"z": -0.9892455823,
				"element": "H" 
			},
			{
				"x": -0.9002033666,
				"y": 0.5813477485,
				"z": 1.4280647542,
				"element": "H" 
			},
			{
				"x": -0.7116024226,
				"y": -1.1255674366,
				"z": 1.0012585021,
				"element": "H" 
			},
			{
				"x": 4.0561302011,
				"y": -1.5730772768,
				"z": 0.3286885117,
				"element": "H" 
			},
			{
				"x": 4.950341443,
				"y": 0.5324891169,
				"z": 1.3032724892,
				"element": "H" 
			},
			{
				"x": 3.376103685,
				"y": 2.3254809951,
				"z": 2.0280514682,
				"element": "H" 
			},
			{
				"x": 0.9354456215,
				"y": 1.9929617552,
				"z": 1.7706353843,
				"element": "H" 
			},
			{
				"x": -2.9307675919,
				"y": -0.2945607633,
				"z": 0.9519691604,
				"element": "H" 
			},
			{
				"x": -5.2614785804,
				"y": -0.5699077253,
				"z": 0.2345064036,
				"element": "H" 
			},
			{
				"x": -5.8635613136,
				"y": -0.4150766013,
				"z": -2.1803712648,
				"element": "H" 
			},
			{
				"x": -4.0456705014,
				"y": -0.0519437881,
				"z": -3.8634861936,
				"element": "H" 
			}
		],
		 "valence_orbital": [ 
			{
				"type": "occ",
				"energy": -0.2753,
				"method": "rhf"
			},
			{
				"type": "occ",
				"energy": -0.26427,
				"method": "rhf"
			},
			{
				"type": "occ",
				"energy": -0.2596,
				"method": "rhf"
			},
			{
				"type": "occ",
				"energy": -0.25394,
				"method": "rhf"
			},
			{
				"type": "occ",
				"energy": -0.23334,
				"method": "rhf"
			},
			{
				"type": "unocc",
				"energy": -0.04108,
				"method": "rhf"
			},
			{
				"type": "unocc",
				"energy": -0.03154,
				"method": "rhf"
			},
			{
				"type": "unocc",
				"energy": -0.02713,
				"method": "rhf"
			},
			{
				"type": "unocc",
				"energy": -0.00587,
				"method": "rhf"
			},
			{
				"type": "unocc",
				"energy": 0.01967,
				"method": "rhf"
			}
		],
		"cosmo_sigma_profile": { 
			"-0.025": 0.0,
			"-0.024": 0.0,
			"-0.023": 0.0,
			"-0.022": 0.0,
			"-0.021": 0.0,
			"-0.02": 0.0,
			"-0.019": 0.0,
			"-0.018": 0.0,
			"-0.017": 0.0,
			"-0.016": 0.0,
			"-0.015": 0.0,
			"-0.014": 0.251108604005,
			"-0.013": 0.854267946497,
			"-0.012": 1.3638640043,
			"-0.011": 1.21503791481,
			"-0.01": 1.34917834134,
			"-0.009": 1.70927680649,
			"-0.008": 2.15200876494,
			"-0.007": 9.81702661733,
			"-0.006": 20.2745615522,
			"-0.005": 23.2401722332,
			"-0.004": 22.5151055206,
			"-0.003": 15.9962681265,
			"-0.002": 20.6136612502,
			"-0.001": 21.6521998391,
			"0.0": 17.1897982742,
			"0.001": 20.8859902748,
			"0.002": 23.2332754466,
			"0.003": 26.3934224189,
			"0.004": 26.0417861276,
			"0.005": 8.19426087306,
			"0.006": 1.55600476335,
			"0.007": 3.02670215976,
			"0.008": 2.61962868111,
			"0.009": 2.17394556988,
			"0.01": 3.47246658162,
			"0.011": 4.85614844582,
			"0.012": 6.47268894577,
			"0.013": 3.40708070246,
			"0.014": 1.02596295858,
			"0.015": 0.0,
			"0.016": 0.0,
			"0.017": 0.0,
			"0.018": 0.0,
			"0.019": 0.0,
			"0.02": 0.0,
			"0.021": 0.0,
			"0.022": 0.0,
			"0.023": 0.0,
			"0.024": 0.0,
			"0.025": 0.0
		}
	}
}
