{
	 "smiles": "OCCNCC(O)=O", 
	 "Tm": 458.15, 
	 "num_atms": 17, 
	 "gaussian": { 
		 "optdone": 1, 
		 "sigma_profile": "yes", 
		 "theory": "DFT", 
		 "functional": "B3LYP", 
		 "basiset": "6-31G**", 
		 "properties": { 
			 "R2extent": 2429.184, 
			 "electric_dipole_moment_norm": 5.92661071018, 
			 "electric_quadrupole_moment_norm": 19.6065041899, 
			 "total_energy": -438.266665928, 
			 "HOMO_LUMO_gap": 0.26654, 
			 "cosmo_polarized_energy": -16.05, 
			 "cosmo_cavitation_energy": 20.36, 
			 "cosmo_dispersion_energy": -15.13, 
			 "cosmo_repulsion_energy": 1.31, 
			 "cosmo_total_nonelectrostatic_energy": 6.53, 
			 "SMD_solvation_energy": 4.07 
		},
		"coords": [
			{
				"x": -1.3585945983,
				"y": 1.8593526664,
				"z": -0.5696995328,
				"element": "O" 
			},
			{
				"x": -1.0094878098,
				"y": 0.6394886341,
				"z": 0.0765910751,
				"element": "C" 
			},
			{
				"x": -1.8079850602,
				"y": -0.461789908,
				"z": -0.6167072463,
				"element": "C" 
			},
			{
				"x": -1.5600635054,
				"y": -0.55788069,
				"z": -2.0621495404,
				"element": "N" 
			},
			{
				"x": -0.2868175614,
				"y": -1.1785473175,
				"z": -2.439595332,
				"element": "C" 
			},
			{
				"x": -0.4691983088,
				"y": -2.6882263346,
				"z": -2.6803752017,
				"element": "C" 
			},
			{
				"x": -1.7548662746,
				"y": -3.0446427194,
				"z": -2.8209464722,
				"element": "O" 
			},
			{
				"x": 0.4559050628,
				"y": -3.4606910656,
				"z": -2.7598335336,
				"element": "O" 
			},
			{
				"x": -0.7998367742,
				"y": 2.5650690751,
				"z": -0.2231633757,
				"element": "H" 
			},
			{
				"x": -1.2665845243,
				"y": 0.656403632,
				"z": 1.1470843069,
				"element": "H" 
			},
			{
				"x": 0.0706730874,
				"y": 0.4409345281,
				"z": -0.0018630476,
				"element": "H" 
			},
			{
				"x": -1.5923110924,
				"y": -1.4306881419,
				"z": -0.1530913084,
				"element": "H" 
			},
			{
				"x": -2.8744863012,
				"y": -0.2583719777,
				"z": -0.4692874748,
				"element": "H" 
			},
			{
				"x": -1.6432910841,
				"y": 0.374319399,
				"z": -2.4571569997,
				"element": "H" 
			},
			{
				"x": 0.5246136912,
				"y": -1.0500882326,
				"z": -1.7123297046,
				"element": "H" 
			},
			{
				"x": 0.0639343063,
				"y": -0.7462642161,
				"z": -3.3829181948,
				"element": "H" 
			},
			{
				"x": -2.254803253,
				"y": -2.2017773314,
				"z": -2.6919584175,
				"element": "H" 
			}
		],
		 "valence_orbital": [ 
			{
				"type": "occ",
				"energy": -0.36144,
				"method": "rhf"
			},
			{
				"type": "occ",
				"energy": -0.29655,
				"method": "rhf"
			},
			{
				"type": "occ",
				"energy": -0.29142,
				"method": "rhf"
			},
			{
				"type": "occ",
				"energy": -0.27573,
				"method": "rhf"
			},
			{
				"type": "occ",
				"energy": -0.2448,
				"method": "rhf"
			},
			{
				"type": "unocc",
				"energy": 0.02174,
				"method": "rhf"
			},
			{
				"type": "unocc",
				"energy": 0.05144,
				"method": "rhf"
			},
			{
				"type": "unocc",
				"energy": 0.08674,
				"method": "rhf"
			},
			{
				"type": "unocc",
				"energy": 0.09963,
				"method": "rhf"
			},
			{
				"type": "unocc",
				"energy": 0.11603,
				"method": "rhf"
			}
		],
		"cosmo_sigma_profile": { 
			"-0.025": 0.0,
			"-0.024": 0.0,
			"-0.023": 0.0,
			"-0.022": 0.0,
			"-0.021": 0.0,
			"-0.02": 0.0,
			"-0.019": 0.0,
			"-0.018": 0.0,
			"-0.017": 0.0,
			"-0.016": 0.627324437949,
			"-0.015": 1.24562605948,
			"-0.014": 0.943395408903,
			"-0.013": 0.834442490059,
			"-0.012": 0.747554914828,
			"-0.011": 0.856740207879,
			"-0.01": 2.21297533894,
			"-0.009": 2.37124214518,
			"-0.008": 4.48166875084,
			"-0.007": 6.21062746359,
			"-0.006": 10.8466933181,
			"-0.005": 11.6147520786,
			"-0.004": 16.7428121908,
			"-0.003": 16.4888435412,
			"-0.002": 12.0824298856,
			"-0.001": 7.17580171048,
			"0.0": 4.307138287,
			"0.001": 4.99350307732,
			"0.002": 2.6790979562,
			"0.003": 3.62559092002,
			"0.004": 3.93807358472,
			"0.005": 3.4587438878,
			"0.006": 2.73200238023,
			"0.007": 4.15226925109,
			"0.008": 3.95397142753,
			"0.009": 4.0566601605,
			"0.01": 5.19174090814,
			"0.011": 6.26644718546,
			"0.012": 6.38402094087,
			"0.013": 5.72748516631,
			"0.014": 1.62523460836,
			"0.015": 0.0,
			"0.016": 0.0,
			"0.017": 0.0,
			"0.018": 0.0,
			"0.019": 0.0,
			"0.02": 0.0,
			"0.021": 0.0,
			"0.022": 0.0,
			"0.023": 0.0,
			"0.024": 0.0,
			"0.025": 0.0
		}
	}
}
