{
	 "smiles": "O=C1CCC(COC(C2=CC=CC=C2)(C2=CC=CC=C2)C2=CC=CC=C2)O1", 
	 "Tm": 423.15, 
	 "num_atms": 49, 
	 "gaussian": { 
		 "optdone": 1, 
		 "sigma_profile": "yes", 
		 "theory": "DFT", 
		 "functional": "B3LYP", 
		 "basiset": "6-31G**", 
		 "properties": { 
			 "R2extent": 8675.456, 
			 "electric_dipole_moment_norm": 4.84118612739, 
			 "electric_quadrupole_moment_norm": 13.9293718555, 
			 "total_energy": -1153.48216515, 
			 "HOMO_LUMO_gap": 0.21113, 
			 "cosmo_polarized_energy": -15.39, 
			 "cosmo_cavitation_energy": 49.52, 
			 "cosmo_dispersion_energy": -32.27, 
			 "cosmo_repulsion_energy": 2.46, 
			 "cosmo_total_nonelectrostatic_energy": 19.71, 
			 "SMD_solvation_energy": 8.75 
		},
		"coords": [
			{
				"x": 0.1255296071,
				"y": -3.2024712536,
				"z": 2.7637686947,
				"element": "O" 
			},
			{
				"x": 0.9601195244,
				"y": -2.4858930887,
				"z": 2.2753193923,
				"element": "C" 
			},
			{
				"x": 1.8611098249,
				"y": -2.7638935017,
				"z": 1.0786372265,
				"element": "C" 
			},
			{
				"x": 2.8525309633,
				"y": -1.5971273473,
				"z": 1.0713014694,
				"element": "C" 
			},
			{
				"x": 2.136285052,
				"y": -0.5148297869,
				"z": 1.913642526,
				"element": "C" 
			},
			{
				"x": 1.3682458434,
				"y": 0.5212973037,
				"z": 1.1030365437,
				"element": "C" 
			},
			{
				"x": 0.4414540025,
				"y": -0.1741568036,
				"z": 0.2801528034,
				"element": "O" 
			},
			{
				"x": -0.4727930977,
				"y": 0.6108254037,
				"z": -0.5225007104,
				"element": "C" 
			},
			{
				"x": 0.3724035648,
				"y": 1.5954017977,
				"z": -1.3538643364,
				"element": "C" 
			},
			{
				"x": 1.2091234697,
				"y": 1.0732054597,
				"z": -2.355250808,
				"element": "C" 
			},
			{
				"x": 2.0791425144,
				"y": 1.8963119137,
				"z": -3.0668495969,
				"element": "C" 
			},
			{
				"x": 2.139899456,
				"y": 3.2639974843,
				"z": -2.7858982272,
				"element": "C" 
			},
			{
				"x": 1.3320152024,
				"y": 3.7914559432,
				"z": -1.7805362599,
				"element": "C" 
			},
			{
				"x": 0.4612691728,
				"y": 2.9628462604,
				"z": -1.066018224,
				"element": "C" 
			},
			{
				"x": -1.2099947579,
				"y": -0.4217960306,
				"z": -1.4015416392,
				"element": "C" 
			},
			{
				"x": -1.7048455834,
				"y": -0.0822235625,
				"z": -2.6673097915,
				"element": "C" 
			},
			{
				"x": -2.4346886208,
				"y": -1.004328092,
				"z": -3.4197263726,
				"element": "C" 
			},
			{
				"x": -2.6834071764,
				"y": -2.2818930757,
				"z": -2.9183609145,
				"element": "C" 
			},
			{
				"x": -2.203739901,
				"y": -2.6250809582,
				"z": -1.6532139925,
				"element": "C" 
			},
			{
				"x": -1.4797579968,
				"y": -1.7022533473,
				"z": -0.8978546821,
				"element": "C" 
			},
			{
				"x": -1.5539698322,
				"y": 1.2677552531,
				"z": 0.363963757,
				"element": "C" 
			},
			{
				"x": -2.4329011232,
				"y": 2.2253889402,
				"z": -0.1657552397,
				"element": "C" 
			},
			{
				"x": -3.4663645109,
				"y": 2.7543214237,
				"z": 0.6064549771,
				"element": "C" 
			},
			{
				"x": -3.6491376316,
				"y": 2.3286273115,
				"z": 1.9236540267,
				"element": "C" 
			},
			{
				"x": -2.7956251488,
				"y": 1.3613806705,
				"z": 2.45236111,
				"element": "C" 
			},
			{
				"x": -1.7609772703,
				"y": 0.8299378146,
				"z": 1.6787092533,
				"element": "C" 
			},
			{
				"x": 1.218801781,
				"y": -1.2355904882,
				"z": 2.7659783765,
				"element": "O" 
			},
			{
				"x": 1.2315769374,
				"y": -2.776983267,
				"z": 0.1849439377,
				"element": "H" 
			},
			{
				"x": 2.3181988766,
				"y": -3.7501819584,
				"z": 1.1855295554,
				"element": "H" 
			},
			{
				"x": 3.0865381759,
				"y": -1.2356060686,
				"z": 0.0677640965,
				"element": "H" 
			},
			{
				"x": 3.7907363392,
				"y": -1.881483903,
				"z": 1.5567911888,
				"element": "H" 
			},
			{
				"x": 2.8297783951,
				"y": 0.0174358846,
				"z": 2.5725802748,
				"element": "H" 
			},
			{
				"x": 2.0832825926,
				"y": 1.0984169031,
				"z": 0.501086031,
				"element": "H" 
			},
			{
				"x": 0.8580810947,
				"y": 1.2154233103,
				"z": 1.7824702354,
				"element": "H" 
			},
			{
				"x": 1.1721859671,
				"y": 0.0113021907,
				"z": -2.5755580612,
				"element": "H" 
			},
			{
				"x": 2.710434543,
				"y": 1.4700038563,
				"z": -3.8415054972,
				"element": "H" 
			},
			{
				"x": 2.8146327983,
				"y": 3.9082076923,
				"z": -3.3423609893,
				"element": "H" 
			},
			{
				"x": 1.3779716039,
				"y": 4.8504313433,
				"z": -1.5424412787,
				"element": "H" 
			},
			{
				"x": -0.148864236,
				"y": 3.390107682,
				"z": -0.2785105521,
				"element": "H" 
			},
			{
				"x": -1.5123117683,
				"y": 0.9036245575,
				"z": -3.0776251172,
				"element": "H" 
			},
			{
				"x": -2.8047530723,
				"y": -0.7207475758,
				"z": -4.4010790397,
				"element": "H" 
			},
			{
				"x": -3.248404017,
				"y": -3.0008096225,
				"z": -3.5047141589,
				"element": "H" 
			},
			{
				"x": -2.3977366308,
				"y": -3.6130881785,
				"z": -1.2452865218,
				"element": "H" 
			},
			{
				"x": -1.1342059554,
				"y": -1.9748357979,
				"z": 0.0921880953,
				"element": "H" 
			},
			{
				"x": -2.3174800342,
				"y": 2.5557802547,
				"z": -1.193175128,
				"element": "H" 
			},
			{
				"x": -4.1324531244,
				"y": 3.4960412841,
				"z": 0.1744878866,
				"element": "H" 
			},
			{
				"x": -4.4539890209,
				"y": 2.7399547008,
				"z": 2.5259855984,
				"element": "H" 
			},
			{
				"x": -2.9338564451,
				"y": 1.0081662916,
				"z": 3.4702926034,
				"element": "H" 
			},
			{
				"x": -1.1222903473,
				"y": 0.0616247768,
				"z": 2.0988374793,
				"element": "H" 
			}
		],
		 "valence_orbital": [ 
			{
				"type": "occ",
				"energy": -0.25722,
				"method": "rhf"
			},
			{
				"type": "occ",
				"energy": -0.25148,
				"method": "rhf"
			},
			{
				"type": "occ",
				"energy": -0.24768,
				"method": "rhf"
			},
			{
				"type": "occ",
				"energy": -0.24301,
				"method": "rhf"
			},
			{
				"type": "occ",
				"energy": -0.22992,
				"method": "rhf"
			},
			{
				"type": "unocc",
				"energy": -0.01879,
				"method": "rhf"
			},
			{
				"type": "unocc",
				"energy": -0.01465,
				"method": "rhf"
			},
			{
				"type": "unocc",
				"energy": -0.01072,
				"method": "rhf"
			},
			{
				"type": "unocc",
				"energy": -0.00558,
				"method": "rhf"
			},
			{
				"type": "unocc",
				"energy": 0.01147,
				"method": "rhf"
			}
		],
		"cosmo_sigma_profile": { 
			"-0.025": 0.0,
			"-0.024": 0.0,
			"-0.023": 0.0,
			"-0.022": 0.0,
			"-0.021": 0.0,
			"-0.02": 0.0,
			"-0.019": 0.0,
			"-0.018": 0.0,
			"-0.017": 0.0,
			"-0.016": 0.0,
			"-0.015": 0.0,
			"-0.014": 0.0,
			"-0.013": 0.0,
			"-0.012": 0.0,
			"-0.011": 0.0,
			"-0.01": 0.0,
			"-0.009": 0.0,
			"-0.008": 0.0,
			"-0.007": 2.71366207265,
			"-0.006": 17.4010773637,
			"-0.005": 40.4240316566,
			"-0.004": 41.7782079145,
			"-0.003": 40.6431232155,
			"-0.002": 32.4654922611,
			"-0.001": 32.0681457558,
			"0.0": 27.4024196576,
			"0.001": 22.7940119241,
			"0.002": 22.7310433641,
			"0.003": 24.1645312906,
			"0.004": 24.7661311968,
			"0.005": 25.9216331696,
			"0.006": 15.4380346691,
			"0.007": 1.81690725785,
			"0.008": 2.53051610574,
			"0.009": 2.68104478946,
			"0.01": 3.89247491879,
			"0.011": 3.63913851468,
			"0.012": 5.73752337943,
			"0.013": 2.82687631439,
			"0.014": 0.154900769064,
			"0.015": 0.0,
			"0.016": 0.0,
			"0.017": 0.0,
			"0.018": 0.0,
			"0.019": 0.0,
			"0.02": 0.0,
			"0.021": 0.0,
			"0.022": 0.0,
			"0.023": 0.0,
			"0.024": 0.0,
			"0.025": 0.0
		}
	}
}
