{
	 "smiles": "CCN(CC)CCOC1=CC=C(C=C1)C(O)(CC1=CC=C(Cl)C=C1)C1=CC=C(C)C=C1", 
	 "Tm": 376.15, 
	 "num_atms": 63, 
	 "gaussian": { 
		 "optdone": 1, 
		 "sigma_profile": "yes", 
		 "theory": "DFT", 
		 "functional": "B3LYP", 
		 "basiset": "6-31G**", 
		 "properties": { 
			 "R2extent": 19238.7494, 
			 "electric_dipole_moment_norm": 2.6752919878, 
			 "electric_quadrupole_moment_norm": 26.986753196, 
			 "total_energy": -1713.53933633, 
			 "HOMO_LUMO_gap": 0.19277, 
			 "cosmo_polarized_energy": -16.28, 
			 "cosmo_cavitation_energy": 64.68, 
			 "cosmo_dispersion_energy": -41.74, 
			 "cosmo_repulsion_energy": 3.23, 
			 "cosmo_total_nonelectrostatic_energy": 26.16, 
			 "SMD_solvation_energy": 9.16 
		},
		"coords": [
			{
				"x": -0.5588111297,
				"y": -4.8526276526,
				"z": -5.2886349852,
				"element": "C" 
			},
			{
				"x": 0.5430627031,
				"y": -4.4488563455,
				"z": -4.3072815006,
				"element": "C" 
			},
			{
				"x": 0.3417323244,
				"y": -3.1162272233,
				"z": -3.7285383617,
				"element": "N" 
			},
			{
				"x": 0.6878905107,
				"y": -2.0336357007,
				"z": -4.6570309636,
				"element": "C" 
			},
			{
				"x": -0.0567561313,
				"y": -0.732103412,
				"z": -4.354093523,
				"element": "C" 
			},
			{
				"x": 1.0012065589,
				"y": -2.9743912463,
				"z": -2.4311857162,
				"element": "C" 
			},
			{
				"x": 0.160292124,
				"y": -3.5182318449,
				"z": -1.2721468367,
				"element": "C" 
			},
			{
				"x": -1.0332986395,
				"y": -2.772642258,
				"z": -1.0465971339,
				"element": "O" 
			},
			{
				"x": -0.9801964192,
				"y": -1.5901076783,
				"z": -0.3664344273,
				"element": "C" 
			},
			{
				"x": 0.1663385381,
				"y": -1.0384854396,
				"z": 0.2206500216,
				"element": "C" 
			},
			{
				"x": 0.0778978173,
				"y": 0.1714819865,
				"z": 0.9136267701,
				"element": "C" 
			},
			{
				"x": -1.131409675,
				"y": 0.8640382475,
				"z": 1.0349811918,
				"element": "C" 
			},
			{
				"x": -2.269350566,
				"y": 0.3012309951,
				"z": 0.4367739913,
				"element": "C" 
			},
			{
				"x": -2.1976864012,
				"y": -0.9036398354,
				"z": -0.2527242635,
				"element": "C" 
			},
			{
				"x": -1.2328672914,
				"y": 2.1605698599,
				"z": 1.8402788738,
				"element": "C" 
			},
			{
				"x": -2.5155286181,
				"y": 2.7373868154,
				"z": 1.5174047517,
				"element": "O" 
			},
			{
				"x": -1.2934800068,
				"y": 1.820025895,
				"z": 3.3732547588,
				"element": "C" 
			},
			{
				"x": -0.1805043285,
				"y": 0.996740107,
				"z": 3.9884849365,
				"element": "C" 
			},
			{
				"x": -0.3563208844,
				"y": -0.3810286672,
				"z": 4.1844963773,
				"element": "C" 
			},
			{
				"x": 0.6356772239,
				"y": -1.171712758,
				"z": 4.7631545135,
				"element": "C" 
			},
			{
				"x": 1.8323734247,
				"y": -0.5751493055,
				"z": 5.1547922014,
				"element": "C" 
			},
			{
				"x": 3.0955718008,
				"y": -1.5593620906,
				"z": 5.8871889127,
				"element": "Cl" 
			},
			{
				"x": 2.0410815684,
				"y": 0.791283391,
				"z": 4.979041803,
				"element": "C" 
			},
			{
				"x": 1.0338436009,
				"y": 1.5646707768,
				"z": 4.4008578622,
				"element": "C" 
			},
			{
				"x": -0.1631974931,
				"y": 3.2006031694,
				"z": 1.4575708724,
				"element": "C" 
			},
			{
				"x": 0.348957567,
				"y": 3.2514508681,
				"z": 0.1510407289,
				"element": "C" 
			},
			{
				"x": 1.2146314638,
				"y": 4.2661500142,
				"z": -0.2484862394,
				"element": "C" 
			},
			{
				"x": 1.6028278801,
				"y": 5.2844316168,
				"z": 0.6332557705,
				"element": "C" 
			},
			{
				"x": 2.5678746603,
				"y": 6.3631277926,
				"z": 0.2030678572,
				"element": "C" 
			},
			{
				"x": 1.073861497,
				"y": 5.2530266182,
				"z": 1.9269768383,
				"element": "C" 
			},
			{
				"x": 0.2060009875,
				"y": 4.2353813179,
				"z": 2.3296881264,
				"element": "C" 
			},
			{
				"x": -0.3861966349,
				"y": -5.8698804437,
				"z": -5.6561691532,
				"element": "H" 
			},
			{
				"x": -0.5994040336,
				"y": -4.1926137116,
				"z": -6.1607222042,
				"element": "H" 
			},
			{
				"x": -1.534926374,
				"y": -4.8182205365,
				"z": -4.7963611434,
				"element": "H" 
			},
			{
				"x": 1.5357132898,
				"y": -4.5331250302,
				"z": -4.7925227576,
				"element": "H" 
			},
			{
				"x": 0.5492290096,
				"y": -5.1739189951,
				"z": -3.4860469585,
				"element": "H" 
			},
			{
				"x": 0.4173475536,
				"y": -2.3581880772,
				"z": -5.6662350198,
				"element": "H" 
			},
			{
				"x": 1.7805419614,
				"y": -1.8526958307,
				"z": -4.678372362,
				"element": "H" 
			},
			{
				"x": -1.137022269,
				"y": -0.8962783638,
				"z": -4.3969860361,
				"element": "H" 
			},
			{
				"x": 0.1783516041,
				"y": -0.3411005362,
				"z": -3.3592513642,
				"element": "H" 
			},
			{
				"x": 0.2118893841,
				"y": 0.0389238274,
				"z": -5.0844448205,
				"element": "H" 
			},
			{
				"x": 1.9887070467,
				"y": -3.4765279481,
				"z": -2.4083675755,
				"element": "H" 
			},
			{
				"x": 1.1950640186,
				"y": -1.9147955711,
				"z": -2.2468379443,
				"element": "H" 
			},
			{
				"x": 0.7646183508,
				"y": -3.5724846108,
				"z": -0.3567365824,
				"element": "H" 
			},
			{
				"x": -0.187113531,
				"y": -4.5309555515,
				"z": -1.4944739726,
				"element": "H" 
			},
			{
				"x": 1.1282882219,
				"y": -1.5325223862,
				"z": 0.1534821613,
				"element": "H" 
			},
			{
				"x": 0.9802949562,
				"y": 0.5793051939,
				"z": 1.3574274349,
				"element": "H" 
			},
			{
				"x": -3.2161628778,
				"y": 0.8224464693,
				"z": 0.5091345382,
				"element": "H" 
			},
			{
				"x": -3.0777844451,
				"y": -1.3364080669,
				"z": -0.7174277652,
				"element": "H" 
			},
			{
				"x": -2.4991334501,
				"y": 3.6538772906,
				"z": 1.8212310787,
				"element": "H" 
			},
			{
				"x": -1.4114838637,
				"y": 2.7570325944,
				"z": 3.9293715134,
				"element": "H" 
			},
			{
				"x": -2.2383167667,
				"y": 1.2821577434,
				"z": 3.4896712291,
				"element": "H" 
			},
			{
				"x": -1.2875035794,
				"y": -0.8473487734,
				"z": 3.875805616,
				"element": "H" 
			},
			{
				"x": 0.4824945671,
				"y": -2.2353150674,
				"z": 4.9092781905,
				"element": "H" 
			},
			{
				"x": 2.9747405973,
				"y": 1.2443470778,
				"z": 5.2941000256,
				"element": "H" 
			},
			{
				"x": 1.2069420382,
				"y": 2.6273862715,
				"z": 4.2686464778,
				"element": "H" 
			},
			{
				"x": 0.0614385243,
				"y": 2.4871120596,
				"z": -0.561987152,
				"element": "H" 
			},
			{
				"x": 1.5919949786,
				"y": 4.2704368056,
				"z": -1.2685493259,
				"element": "H" 
			},
			{
				"x": 3.6044239233,
				"y": 6.0052962669,
				"z": 0.2400734663,
				"element": "H" 
			},
			{
				"x": 2.5021148288,
				"y": 7.2416825337,
				"z": 0.8513535076,
				"element": "H" 
			},
			{
				"x": 2.3753683473,
				"y": 6.6851983695,
				"z": -0.8253716079,
				"element": "H" 
			},
			{
				"x": 1.3401524035,
				"y": 6.0350636201,
				"z": 2.6340993079,
				"element": "H" 
			},
			{
				"x": -0.1849824466,
				"y": 4.2694153633,
				"z": 3.3415559896,
				"element": "H" 
			}
		],
		 "valence_orbital": [ 
			{
				"type": "occ",
				"energy": -0.24298,
				"method": "rhf"
			},
			{
				"type": "occ",
				"energy": -0.24005,
				"method": "rhf"
			},
			{
				"type": "occ",
				"energy": -0.23223,
				"method": "rhf"
			},
			{
				"type": "occ",
				"energy": -0.21,
				"method": "rhf"
			},
			{
				"type": "occ",
				"energy": -0.20548,
				"method": "rhf"
			},
			{
				"type": "unocc",
				"energy": -0.01271,
				"method": "rhf"
			},
			{
				"type": "unocc",
				"energy": -0.01096,
				"method": "rhf"
			},
			{
				"type": "unocc",
				"energy": -0.00949,
				"method": "rhf"
			},
			{
				"type": "unocc",
				"energy": -0.00462,
				"method": "rhf"
			},
			{
				"type": "unocc",
				"energy": 0.00912,
				"method": "rhf"
			}
		],
		"cosmo_sigma_profile": { 
			"-0.025": 0.0,
			"-0.024": 0.0,
			"-0.023": 0.0,
			"-0.022": 0.0,
			"-0.021": 0.0,
			"-0.02": 0.0,
			"-0.019": 0.0,
			"-0.018": 0.0,
			"-0.017": 0.0,
			"-0.016": 0.0,
			"-0.015": 0.151802956079,
			"-0.014": 0.677434705576,
			"-0.013": 0.858331181788,
			"-0.012": 0.843794518804,
			"-0.011": 1.0981905744,
			"-0.01": 0.74353268664,
			"-0.009": 1.54959349055,
			"-0.008": 1.49588268627,
			"-0.007": 7.29057177776,
			"-0.006": 13.3515531883,
			"-0.005": 24.750252698,
			"-0.004": 39.2302943298,
			"-0.003": 46.3180497249,
			"-0.002": 48.236120853,
			"-0.001": 58.2859300085,
			"0.0": 54.258346996,
			"0.001": 45.1963885795,
			"0.002": 37.2022035772,
			"0.003": 31.8596065734,
			"0.004": 35.4494534209,
			"0.005": 30.9533468966,
			"0.006": 10.2564805251,
			"0.007": 3.41793162854,
			"0.008": 3.44191389618,
			"0.009": 3.7504751836,
			"0.01": 3.20927176447,
			"0.011": 3.05372258616,
			"0.012": 1.67261661873,
			"0.013": 1.26439545064,
			"0.014": 0.50573758852,
			"0.015": 0.728215597065,
			"0.016": 0.245188514044,
			"0.017": 0.0,
			"0.018": 0.0,
			"0.019": 0.0,
			"0.02": 0.0,
			"0.021": 0.0,
			"0.022": 0.0,
			"0.023": 0.0,
			"0.024": 0.0,
			"0.025": 0.0
		}
	}
}
