{
	 "smiles": "CCCCCCCC(=O)OC", 
	 "Tm": 233.15, 
	 "num_atms": 29, 
	 "gaussian": { 
		 "optdone": 1, 
		 "sigma_profile": "yes", 
		 "theory": "DFT", 
		 "functional": "B3LYP", 
		 "basiset": "6-31G**", 
		 "properties": { 
			 "R2extent": 2853.803, 
			 "electric_dipole_moment_norm": 1.82586672843, 
			 "electric_quadrupole_moment_norm": 5.94630340632, 
			 "total_energy": -504.280393961, 
			 "HOMO_LUMO_gap": 0.27742, 
			 "cosmo_polarized_energy": -6.27, 
			 "cosmo_cavitation_energy": 30.33, 
			 "cosmo_dispersion_energy": -21.15, 
			 "cosmo_repulsion_energy": 1.75, 
			 "cosmo_total_nonelectrostatic_energy": 10.94, 
			 "SMD_solvation_energy": 6.04 
		},
		"coords": [
			{
				"x": 2.2868824061,
				"y": -3.4590178109,
				"z": 1.3947755962,
				"element": "C" 
			},
			{
				"x": 1.0792667058,
				"y": -2.5209096956,
				"z": 1.5134134186,
				"element": "C" 
			},
			{
				"x": 0.8360469339,
				"y": -1.6279780745,
				"z": 0.2856072383,
				"element": "C" 
			},
			{
				"x": 1.9595807463,
				"y": -0.615282826,
				"z": 0.0044459207,
				"element": "C" 
			},
			{
				"x": 1.6646415219,
				"y": 0.3669847572,
				"z": -1.1550004403,
				"element": "C" 
			},
			{
				"x": 1.1697603792,
				"y": 1.7615074615,
				"z": -0.7313254465,
				"element": "C" 
			},
			{
				"x": -0.1712719845,
				"y": 1.8000353856,
				"z": 0.0279816015,
				"element": "C" 
			},
			{
				"x": -1.3501752812,
				"y": 1.2864249829,
				"z": -0.7736016229,
				"element": "C" 
			},
			{
				"x": -2.0819526873,
				"y": 0.3738496593,
				"z": -0.4508778987,
				"element": "O" 
			},
			{
				"x": -1.5064155769,
				"y": 1.9858380385,
				"z": -1.9223693955,
				"element": "O" 
			},
			{
				"x": -2.6041241245,
				"y": 1.5711131648,
				"z": -2.7510175714,
				"element": "C" 
			},
			{
				"x": 2.1981959696,
				"y": -4.1051644253,
				"z": 0.513292869,
				"element": "H" 
			},
			{
				"x": 2.3704687407,
				"y": -4.1075499024,
				"z": 2.2733101603,
				"element": "H" 
			},
			{
				"x": 3.2284660638,
				"y": -2.9071815768,
				"z": 1.3060141728,
				"element": "H" 
			},
			{
				"x": 0.1783431411,
				"y": -3.1220558047,
				"z": 1.6900924263,
				"element": "H" 
			},
			{
				"x": 1.196936836,
				"y": -1.8865311409,
				"z": 2.4033056558,
				"element": "H" 
			},
			{
				"x": 0.7084487684,
				"y": -2.2649715719,
				"z": -0.6019946177,
				"element": "H" 
			},
			{
				"x": -0.1182161379,
				"y": -1.1043618033,
				"z": 0.4117363197,
				"element": "H" 
			},
			{
				"x": 2.8807484214,
				"y": -1.1640748344,
				"z": -0.2232104855,
				"element": "H" 
			},
			{
				"x": 2.1759074585,
				"y": -0.045106947,
				"z": 0.9201632229,
				"element": "H" 
			},
			{
				"x": 0.9415786915,
				"y": -0.0869376641,
				"z": -1.8467063302,
				"element": "H" 
			},
			{
				"x": 2.5776740723,
				"y": 0.5186750391,
				"z": -1.743349773,
				"element": "H" 
			},
			{
				"x": 1.9292817824,
				"y": 2.2264809763,
				"z": -0.08988088,
				"element": "H" 
			},
			{
				"x": 1.0810902224,
				"y": 2.3961651567,
				"z": -1.6197569974,
				"element": "H" 
			},
			{
				"x": -0.3885673018,
				"y": 2.8392492822,
				"z": 0.3043089706,
				"element": "H" 
			},
			{
				"x": -0.1298176124,
				"y": 1.21573936,
				"z": 0.9496630998,
				"element": "H" 
			},
			{
				"x": -2.493477745,
				"y": 0.523748947,
				"z": -3.0428596112,
				"element": "H" 
			},
			{
				"x": -2.5736854805,
				"y": 2.218405022,
				"z": -3.6275497172,
				"element": "H" 
			},
			{
				"x": -3.5529149295,
				"y": 1.6883068449,
				"z": -2.221109885,
				"element": "H" 
			}
		],
		 "valence_orbital": [ 
			{
				"type": "occ",
				"energy": -0.31315,
				"method": "rhf"
			},
			{
				"type": "occ",
				"energy": -0.3069,
				"method": "rhf"
			},
			{
				"type": "occ",
				"energy": -0.3008,
				"method": "rhf"
			},
			{
				"type": "occ",
				"energy": -0.2969,
				"method": "rhf"
			},
			{
				"type": "occ",
				"energy": -0.26563,
				"method": "rhf"
			},
			{
				"type": "unocc",
				"energy": 0.01179,
				"method": "rhf"
			},
			{
				"type": "unocc",
				"energy": 0.08365,
				"method": "rhf"
			},
			{
				"type": "unocc",
				"energy": 0.10305,
				"method": "rhf"
			},
			{
				"type": "unocc",
				"energy": 0.11271,
				"method": "rhf"
			},
			{
				"type": "unocc",
				"energy": 0.11586,
				"method": "rhf"
			}
		],
		"cosmo_sigma_profile": { 
			"-0.025": 0.0,
			"-0.024": 0.0,
			"-0.023": 0.0,
			"-0.022": 0.0,
			"-0.021": 0.0,
			"-0.02": 0.0,
			"-0.019": 0.0,
			"-0.018": 0.0,
			"-0.017": 0.0,
			"-0.016": 0.0,
			"-0.015": 0.0,
			"-0.014": 0.0,
			"-0.013": 0.0,
			"-0.012": 0.0,
			"-0.011": 0.0,
			"-0.01": 0.0,
			"-0.009": 0.0,
			"-0.008": 0.0,
			"-0.007": 0.260109974699,
			"-0.006": 4.59130767316,
			"-0.005": 9.27506940121,
			"-0.004": 11.047339027,
			"-0.003": 21.0626809841,
			"-0.002": 36.7528643813,
			"-0.001": 38.2661740737,
			"0.0": 34.1687100104,
			"0.001": 32.3869518552,
			"0.002": 14.4420210185,
			"0.003": 4.3029747173,
			"0.004": 3.79133379819,
			"0.005": 4.25607377729,
			"0.006": 2.3932225993,
			"0.007": 2.64613312449,
			"0.008": 2.99147594143,
			"0.009": 2.57388285018,
			"0.01": 1.35077529348,
			"0.011": 2.11336610787,
			"0.012": 4.42345436813,
			"0.013": 1.2440092041,
			"0.014": 0.0,
			"0.015": 0.0,
			"0.016": 0.0,
			"0.017": 0.0,
			"0.018": 0.0,
			"0.019": 0.0,
			"0.02": 0.0,
			"0.021": 0.0,
			"0.022": 0.0,
			"0.023": 0.0,
			"0.024": 0.0,
			"0.025": 0.0
		}
	}
}
