{
	 "smiles": "BrC1=NC=C(S1)C=O", 
	 "Tm": 367.15, 
	 "num_atms": 10, 
	 "gaussian": { 
		 "optdone": 1, 
		 "sigma_profile": "yes", 
		 "theory": "DFT", 
		 "functional": "B3LYP", 
		 "basiset": "6-31G**", 
		 "properties": { 
			 "R2extent": 4596.2142, 
			 "electric_dipole_moment_norm": 1.43541215684, 
			 "electric_quadrupole_moment_norm": 11.4393463091, 
			 "total_energy": -3253.16303556, 
			 "HOMO_LUMO_gap": 0.17573, 
			 "cosmo_polarized_energy": -7.95, 
			 "cosmo_cavitation_energy": 19.41, 
			 "cosmo_dispersion_energy": -15.28, 
			 "cosmo_repulsion_energy": 1.22, 
			 "cosmo_total_nonelectrostatic_energy": 5.35, 
			 "SMD_solvation_energy": 1.51 
		},
		"coords": [
			{
				"x": 0.9836857153,
				"y": 3.3003562048,
				"z": -3.3733022166,
				"element": "Br" 
			},
			{
				"x": 0.1585177235,
				"y": 1.7090883181,
				"z": -2.7960860358,
				"element": "C" 
			},
			{
				"x": 0.4140853735,
				"y": 0.5485355202,
				"z": -3.3240103751,
				"element": "N" 
			},
			{
				"x": -0.3341124149,
				"y": -0.4114844417,
				"z": -2.6993841914,
				"element": "C" 
			},
			{
				"x": -1.1657161783,
				"y": 0.0154892631,
				"z": -1.6895602171,
				"element": "C" 
			},
			{
				"x": -1.0076333804,
				"y": 1.7461023343,
				"z": -1.4986362833,
				"element": "S" 
			},
			{
				"x": -2.0659844069,
				"y": -0.7844551274,
				"z": -0.8633143598,
				"element": "C" 
			},
			{
				"x": -2.7745231177,
				"y": -0.3331888335,
				"z": 0.0175040909,
				"element": "O" 
			},
			{
				"x": -0.2414030454,
				"y": -1.4436804843,
				"z": -3.020103612,
				"element": "H" 
			},
			{
				"x": -2.0527162686,
				"y": -1.8682627537,
				"z": -1.1054067998,
				"element": "H" 
			}
		],
		 "valence_orbital": [ 
			{
				"type": "occ",
				"energy": -0.31759,
				"method": "rhf"
			},
			{
				"type": "occ",
				"energy": -0.31446,
				"method": "rhf"
			},
			{
				"type": "occ",
				"energy": -0.31197,
				"method": "rhf"
			},
			{
				"type": "occ",
				"energy": -0.27338,
				"method": "rhf"
			},
			{
				"type": "occ",
				"energy": -0.26775,
				"method": "rhf"
			},
			{
				"type": "unocc",
				"energy": -0.09202,
				"method": "rhf"
			},
			{
				"type": "unocc",
				"energy": -0.02978,
				"method": "rhf"
			},
			{
				"type": "unocc",
				"energy": -0.01534,
				"method": "rhf"
			},
			{
				"type": "unocc",
				"energy": 0.00282,
				"method": "rhf"
			},
			{
				"type": "unocc",
				"energy": 0.0544,
				"method": "rhf"
			}
		],
		"cosmo_sigma_profile": { 
			"-0.025": 0.0,
			"-0.024": 0.0,
			"-0.023": 0.0,
			"-0.022": 0.0,
			"-0.021": 0.0,
			"-0.02": 0.0,
			"-0.019": 0.0,
			"-0.018": 0.0,
			"-0.017": 0.0,
			"-0.016": 0.0,
			"-0.015": 0.0,
			"-0.014": 0.0,
			"-0.013": 0.0,
			"-0.012": 0.0,
			"-0.011": 0.232225053833,
			"-0.01": 3.001755201,
			"-0.009": 3.82234053605,
			"-0.008": 4.2410578456,
			"-0.007": 4.68173934385,
			"-0.006": 4.75435402616,
			"-0.005": 5.26219872385,
			"-0.004": 7.7220975776,
			"-0.003": 14.8783424682,
			"-0.002": 16.458182814,
			"-0.001": 18.5184125873,
			"0.0": 15.5886263823,
			"0.001": 12.6722726051,
			"0.002": 12.9810169203,
			"0.003": 7.03828512448,
			"0.004": 4.76295816425,
			"0.005": 2.75136122504,
			"0.006": 1.87707233962,
			"0.007": 3.38413615235,
			"0.008": 2.43766311773,
			"0.009": 3.5386142208,
			"0.01": 4.75764607501,
			"0.011": 4.94652153774,
			"0.012": 1.86225495477,
			"0.013": 0.737193514123,
			"0.014": 0.0,
			"0.015": 0.0,
			"0.016": 0.0,
			"0.017": 0.0,
			"0.018": 0.0,
			"0.019": 0.0,
			"0.02": 0.0,
			"0.021": 0.0,
			"0.022": 0.0,
			"0.023": 0.0,
			"0.024": 0.0,
			"0.025": 0.0
		}
	}
}
