{
	 "smiles": "CC1=NN=C(NC2=CC(=CC=C2)C(O)=O)C=C1", 
	 "Tm": 553.15, 
	 "num_atms": 28, 
	 "gaussian": { 
		 "optdone": 1, 
		 "sigma_profile": "yes", 
		 "theory": "DFT", 
		 "functional": "B3LYP", 
		 "basiset": "6-31G**", 
		 "properties": { 
			 "R2extent": 5595.3073, 
			 "electric_dipole_moment_norm": 6.09391133674, 
			 "electric_quadrupole_moment_norm": 12.500553289, 
			 "total_energy": -778.600773408, 
			 "HOMO_LUMO_gap": 0.15933, 
			 "cosmo_polarized_energy": -22.24, 
			 "cosmo_cavitation_energy": 33.22, 
			 "cosmo_dispersion_energy": -24.35, 
			 "cosmo_repulsion_energy": 1.88, 
			 "cosmo_total_nonelectrostatic_energy": 10.74, 
			 "SMD_solvation_energy": 5.46 
		},
		"coords": [
			{
				"x": -2.2888469823,
				"y": 1.1910878053,
				"z": -4.0876040123,
				"element": "C" 
			},
			{
				"x": -2.1480828486,
				"y": 0.8024519283,
				"z": -2.6397191524,
				"element": "C" 
			},
			{
				"x": -0.9480148551,
				"y": 0.9722431092,
				"z": -2.0874110671,
				"element": "N" 
			},
			{
				"x": -0.7268448405,
				"y": 0.655701831,
				"z": -0.8079000215,
				"element": "N" 
			},
			{
				"x": -1.7171005283,
				"y": 0.1596121168,
				"z": -0.0580114599,
				"element": "C" 
			},
			{
				"x": -1.4793426229,
				"y": -0.1649031747,
				"z": 1.2646357123,
				"element": "N" 
			},
			{
				"x": -0.3247502198,
				"y": -0.0770775251,
				"z": 2.0595728238,
				"element": "C" 
			},
			{
				"x": 0.9150351554,
				"y": 0.4001630005,
				"z": 1.6070173002,
				"element": "C" 
			},
			{
				"x": 1.9985503808,
				"y": 0.4412327737,
				"z": 2.4941652759,
				"element": "C" 
			},
			{
				"x": 1.871774086,
				"y": 0.0168093676,
				"z": 3.8215534974,
				"element": "C" 
			},
			{
				"x": 0.6389905235,
				"y": -0.4557644014,
				"z": 4.2643346076,
				"element": "C" 
			},
			{
				"x": -0.4471643403,
				"y": -0.5030816895,
				"z": 3.3959984616,
				"element": "C" 
			},
			{
				"x": 3.332842157,
				"y": 0.9400448283,
				"z": 2.0580336604,
				"element": "C" 
			},
			{
				"x": 3.3623818967,
				"y": 1.328341529,
				"z": 0.7608087554,
				"element": "O" 
			},
			{
				"x": 4.3153171886,
				"y": 1.0040074414,
				"z": 2.7722654138,
				"element": "O" 
			},
			{
				"x": -3.0183750433,
				"y": -0.0475063789,
				"z": -0.5799931337,
				"element": "C" 
			},
			{
				"x": -3.229727448,
				"y": 0.2820665163,
				"z": -1.8944048865,
				"element": "C" 
			},
			{
				"x": -3.0465611302,
				"y": 1.9721600816,
				"z": -4.2198238749,
				"element": "H" 
			},
			{
				"x": -2.5913658738,
				"y": 0.3359876731,
				"z": -4.7032223798,
				"element": "H" 
			},
			{
				"x": -1.3322767973,
				"y": 1.5658086823,
				"z": -4.455316951,
				"element": "H" 
			},
			{
				"x": -2.2843905877,
				"y": -0.5308075337,
				"z": 1.7506598724,
				"element": "H" 
			},
			{
				"x": 1.0209744871,
				"y": 0.7295154653,
				"z": 0.5842867133,
				"element": "H" 
			},
			{
				"x": 2.7346595498,
				"y": 0.0649568937,
				"z": 4.4755819322,
				"element": "H" 
			},
			{
				"x": 0.5175358926,
				"y": -0.79034017,
				"z": 5.290200755,
				"element": "H" 
			},
			{
				"x": -1.4056377303,
				"y": -0.8744382729,
				"z": 3.7538434924,
				"element": "H" 
			},
			{
				"x": 4.2708120556,
				"y": 1.6292548454,
				"z": 0.5962364327,
				"element": "H" 
			},
			{
				"x": -3.8125396455,
				"y": -0.4519568821,
				"z": 0.0426076169,
				"element": "H" 
			},
			{
				"x": -4.2038518792,
				"y": 0.1480301394,
				"z": -2.3561953842,
				"element": "H" 
			}
		],
		 "valence_orbital": [ 
			{
				"type": "occ",
				"energy": -0.27137,
				"method": "rhf"
			},
			{
				"type": "occ",
				"energy": -0.26723,
				"method": "rhf"
			},
			{
				"type": "occ",
				"energy": -0.25673,
				"method": "rhf"
			},
			{
				"type": "occ",
				"energy": -0.22801,
				"method": "rhf"
			},
			{
				"type": "occ",
				"energy": -0.20826,
				"method": "rhf"
			},
			{
				"type": "unocc",
				"energy": -0.04893,
				"method": "rhf"
			},
			{
				"type": "unocc",
				"energy": -0.03901,
				"method": "rhf"
			},
			{
				"type": "unocc",
				"energy": -0.02038,
				"method": "rhf"
			},
			{
				"type": "unocc",
				"energy": 0.01905,
				"method": "rhf"
			},
			{
				"type": "unocc",
				"energy": 0.05934,
				"method": "rhf"
			}
		],
		"cosmo_sigma_profile": { 
			"-0.025": 0.0,
			"-0.024": 0.0,
			"-0.023": 0.0,
			"-0.022": 0.0,
			"-0.021": 0.0,
			"-0.02": 0.0,
			"-0.019": 0.0144252995419,
			"-0.018": 0.768827553129,
			"-0.017": 0.707407035843,
			"-0.016": 1.31785661417,
			"-0.015": 2.68762212489,
			"-0.014": 2.52286713964,
			"-0.013": 2.68609802096,
			"-0.012": 1.25779487078,
			"-0.011": 1.95039845155,
			"-0.01": 2.83893557161,
			"-0.009": 2.6956648106,
			"-0.008": 4.84340878088,
			"-0.007": 8.09117876717,
			"-0.006": 9.90410456971,
			"-0.005": 13.7397528504,
			"-0.004": 16.6291856797,
			"-0.003": 12.869765879,
			"-0.002": 15.7413702604,
			"-0.001": 17.8210778957,
			"0.0": 23.1521834048,
			"0.001": 18.0802105768,
			"0.002": 21.051496904,
			"0.003": 19.6039625203,
			"0.004": 16.5313889007,
			"0.005": 7.93213430004,
			"0.006": 5.25419911651,
			"0.007": 6.2118008969,
			"0.008": 4.4444913133,
			"0.009": 4.10933895101,
			"0.01": 4.14932792813,
			"0.011": 4.46161121454,
			"0.012": 6.3669834129,
			"0.013": 1.81919781507,
			"0.014": 1.6642365102,
			"0.015": 0.705142171274,
			"0.016": 1.07930653633,
			"0.017": 0.344812930466,
			"0.018": 0.0,
			"0.019": 0.0,
			"0.02": 0.0,
			"0.021": 0.0,
			"0.022": 0.0,
			"0.023": 0.0,
			"0.024": 0.0,
			"0.025": 0.0
		}
	}
}
