{
	 "smiles": "CC1=NN(CC2=C(Cl)C=C(Cl)C=C2)C(Cl)=C1C(O)=O", 
	 "Tm": 501.15, 
	 "num_atms": 28, 
	 "gaussian": { 
		 "optdone": 1, 
		 "sigma_profile": "yes", 
		 "theory": "DFT", 
		 "functional": "B3LYP", 
		 "basiset": "6-31G**", 
		 "properties": { 
			 "R2extent": 9740.6445, 
			 "electric_dipole_moment_norm": 1.75660915972, 
			 "electric_quadrupole_moment_norm": 12.5933393284, 
			 "total_energy": -2103.23012513, 
			 "HOMO_LUMO_gap": 0.22099, 
			 "cosmo_polarized_energy": -12.69, 
			 "cosmo_cavitation_energy": 38.65, 
			 "cosmo_dispersion_energy": -27.32, 
			 "cosmo_repulsion_energy": 2.13, 
			 "cosmo_total_nonelectrostatic_energy": 13.46, 
			 "SMD_solvation_energy": 6.06 
		},
		"coords": [
			{
				"x": -0.6181958656,
				"y": 2.4027936129,
				"z": 1.40819251,
				"element": "C" 
			},
			{
				"x": -0.9089395718,
				"y": 1.1609573235,
				"z": 0.6247390099,
				"element": "C" 
			},
			{
				"x": -0.3459897336,
				"y": 0.9892647577,
				"z": -0.5670235947,
				"element": "N" 
			},
			{
				"x": -0.8056008368,
				"y": -0.2100452096,
				"z": -1.0299523387,
				"element": "N" 
			},
			{
				"x": -0.3505988642,
				"y": -0.7031555345,
				"z": -2.3192503323,
				"element": "C" 
			},
			{
				"x": 0.9335566508,
				"y": -1.5134315476,
				"z": -2.2536376965,
				"element": "C" 
			},
			{
				"x": 1.3461109912,
				"y": -2.2874835387,
				"z": -3.3470168992,
				"element": "C" 
			},
			{
				"x": 0.3732658848,
				"y": -2.3297646118,
				"z": -4.8141899347,
				"element": "Cl" 
			},
			{
				"x": 2.5211962327,
				"y": -3.0363378974,
				"z": -3.3269953391,
				"element": "C" 
			},
			{
				"x": 3.309893553,
				"y": -3.0060094423,
				"z": -2.1788884855,
				"element": "C" 
			},
			{
				"x": 4.7905225155,
				"y": -3.9448090475,
				"z": -2.1354424357,
				"element": "Cl" 
			},
			{
				"x": 2.9412219001,
				"y": -2.2417200531,
				"z": -1.0741175975,
				"element": "C" 
			},
			{
				"x": 1.7603411044,
				"y": -1.5035434326,
				"z": -1.1249791738,
				"element": "C" 
			},
			{
				"x": -1.6415219858,
				"y": -0.7950458369,
				"z": -0.1414937184,
				"element": "C" 
			},
			{
				"x": -2.3723600978,
				"y": -2.3160654077,
				"z": -0.4522761711,
				"element": "Cl" 
			},
			{
				"x": -1.7504668296,
				"y": 0.0545222955,
				"z": 0.9581242925,
				"element": "C" 
			},
			{
				"x": -2.5674751063,
				"y": -0.1865623757,
				"z": 2.1491698727,
				"element": "C" 
			},
			{
				"x": -2.4712028395,
				"y": 0.8270298398,
				"z": 3.052306058,
				"element": "O" 
			},
			{
				"x": -3.2625460305,
				"y": -1.1629284117,
				"z": 2.3494185998,
				"element": "O" 
			},
			{
				"x": -1.5334022627,
				"y": 2.9687782255,
				"z": 1.6038182699,
				"element": "H" 
			},
			{
				"x": 0.0766032466,
				"y": 3.0277164456,
				"z": 0.843430719,
				"element": "H" 
			},
			{
				"x": -0.1801209697,
				"y": 2.1634884674,
				"z": 2.3812478963,
				"element": "H" 
			},
			{
				"x": -1.152230595,
				"y": -1.3015894207,
				"z": -2.7563635949,
				"element": "H" 
			},
			{
				"x": -0.2150570438,
				"y": 0.1780386468,
				"z": -2.9529622026,
				"element": "H" 
			},
			{
				"x": 2.8104686838,
				"y": -3.6281225865,
				"z": -4.1865078411,
				"element": "H" 
			},
			{
				"x": 3.5675467874,
				"y": -2.222096221,
				"z": -0.1898036362,
				"element": "H" 
			},
			{
				"x": 1.4786491698,
				"y": -0.8954803004,
				"z": -0.2726453484,
				"element": "H" 
			},
			{
				"x": -3.0448680871,
				"y": 0.5671012611,
				"z": 3.7921991124,
				"element": "H" 
			}
		],
		 "valence_orbital": [ 
			{
				"type": "occ",
				"energy": -0.27624,
				"method": "rhf"
			},
			{
				"type": "occ",
				"energy": -0.2721,
				"method": "rhf"
			},
			{
				"type": "occ",
				"energy": -0.26805,
				"method": "rhf"
			},
			{
				"type": "occ",
				"energy": -0.26039,
				"method": "rhf"
			},
			{
				"type": "occ",
				"energy": -0.25632,
				"method": "rhf"
			},
			{
				"type": "unocc",
				"energy": -0.03533,
				"method": "rhf"
			},
			{
				"type": "unocc",
				"energy": -0.03339,
				"method": "rhf"
			},
			{
				"type": "unocc",
				"energy": -0.03134,
				"method": "rhf"
			},
			{
				"type": "unocc",
				"energy": -0.00151,
				"method": "rhf"
			},
			{
				"type": "unocc",
				"energy": 0.00506,
				"method": "rhf"
			}
		],
		"cosmo_sigma_profile": { 
			"-0.025": 0.0,
			"-0.024": 0.0,
			"-0.023": 0.0,
			"-0.022": 0.0,
			"-0.021": 0.0,
			"-0.02": 0.0,
			"-0.019": 0.0260886418683,
			"-0.018": 0.593042498217,
			"-0.017": 0.97664403809,
			"-0.016": 0.657440240234,
			"-0.015": 0.653782208469,
			"-0.014": 1.19017278591,
			"-0.013": 0.714769037713,
			"-0.012": 0.261115263145,
			"-0.011": 0.66891836378,
			"-0.01": 0.712504281899,
			"-0.009": 1.02122408025,
			"-0.008": 5.05211980109,
			"-0.007": 7.6253287522,
			"-0.006": 10.2203853996,
			"-0.005": 14.2802271002,
			"-0.004": 16.5317955686,
			"-0.003": 18.6715033632,
			"-0.002": 25.9763211318,
			"-0.001": 34.432053675,
			"0.0": 34.3253765255,
			"0.001": 34.7539681352,
			"0.002": 31.1409708659,
			"0.003": 19.9504403211,
			"0.004": 20.2251909084,
			"0.005": 8.94344933897,
			"0.006": 4.74267525988,
			"0.007": 2.29571692382,
			"0.008": 2.2251853586,
			"0.009": 2.97754572824,
			"0.01": 3.53588471617,
			"0.011": 4.38373037744,
			"0.012": 5.32175540746,
			"0.013": 0.932658047211,
			"0.014": 0.347749510749,
			"0.015": 0.0,
			"0.016": 0.0,
			"0.017": 0.0,
			"0.018": 0.0,
			"0.019": 0.0,
			"0.02": 0.0,
			"0.021": 0.0,
			"0.022": 0.0,
			"0.023": 0.0,
			"0.024": 0.0,
			"0.025": 0.0
		}
	}
}
