{
	 "smiles": "NS(=O)(=O)C1=CN(N=C1)C1=CC=CC=C1", 
	 "Tm": 470.15, 
	 "num_atms": 24, 
	 "gaussian": { 
		 "optdone": 1, 
		 "sigma_profile": "yes", 
		 "theory": "DFT", 
		 "functional": "B3LYP", 
		 "basiset": "6-31G**", 
		 "properties": { 
			 "R2extent": 5092.944, 
			 "electric_dipole_moment_norm": 6.20853034945, 
			 "electric_quadrupole_moment_norm": 20.8223338248, 
			 "total_energy": -1061.17393565, 
			 "HOMO_LUMO_gap": 0.20107, 
			 "cosmo_polarized_energy": -21.33, 
			 "cosmo_cavitation_energy": 30.46, 
			 "cosmo_dispersion_energy": -22.81, 
			 "cosmo_repulsion_energy": 1.72, 
			 "cosmo_total_nonelectrostatic_energy": 9.38, 
			 "SMD_solvation_energy": 4.53 
		},
		"coords": [
			{
				"x": -1.1459345831,
				"y": 2.3865825305,
				"z": 4.0934468526,
				"element": "N" 
			},
			{
				"x": 0.0202280544,
				"y": 2.4064300725,
				"z": 2.8843324081,
				"element": "S" 
			},
			{
				"x": -0.4289277972,
				"y": 3.406914133,
				"z": 1.9181880611,
				"element": "O" 
			},
			{
				"x": 1.300958905,
				"y": 2.4767300992,
				"z": 3.5819447863,
				"element": "O" 
			},
			{
				"x": -0.0454885603,
				"y": 0.8448367591,
				"z": 2.0625285958,
				"element": "C" 
			},
			{
				"x": -0.6913486259,
				"y": 0.5842305354,
				"z": 0.8683450947,
				"element": "C" 
			},
			{
				"x": -0.4874633029,
				"y": -0.7330034748,
				"z": 0.6031227859,
				"element": "N" 
			},
			{
				"x": 0.2556401533,
				"y": -1.3418013441,
				"z": 1.5695863237,
				"element": "N" 
			},
			{
				"x": 0.5280354564,
				"y": -0.3906165117,
				"z": 2.4512418827,
				"element": "C" 
			},
			{
				"x": -0.9507384527,
				"y": -1.4814063946,
				"z": -0.5178103028,
				"element": "C" 
			},
			{
				"x": -1.2582693697,
				"y": -0.8319131761,
				"z": -1.7172125714,
				"element": "C" 
			},
			{
				"x": -1.7322855861,
				"y": -1.5765258163,
				"z": -2.7968202326,
				"element": "C" 
			},
			{
				"x": -1.8827737532,
				"y": -2.959901014,
				"z": -2.6901164174,
				"element": "C" 
			},
			{
				"x": -1.5552707291,
				"y": -3.5994371797,
				"z": -1.4924365691,
				"element": "C" 
			},
			{
				"x": -1.0928618949,
				"y": -2.8672996925,
				"z": -0.4008240737,
				"element": "C" 
			},
			{
				"x": -2.0905476578,
				"y": 2.3007872948,
				"z": 3.7322274527,
				"element": "H" 
			},
			{
				"x": -0.9373439819,
				"y": 1.7219341445,
				"z": 4.8316183405,
				"element": "H" 
			},
			{
				"x": -1.2620262674,
				"y": 1.2371292176,
				"z": 0.2276924038,
				"element": "H" 
			},
			{
				"x": 1.137298011,
				"y": -0.6043273135,
				"z": 3.3183949854,
				"element": "H" 
			},
			{
				"x": -1.1083091325,
				"y": 0.2375145697,
				"z": -1.8202375324,
				"element": "H" 
			},
			{
				"x": -1.9695998582,
				"y": -1.0708750896,
				"z": -3.7278110783,
				"element": "H" 
			},
			{
				"x": -2.246160213,
				"y": -3.5356935717,
				"z": -3.5356076235,
				"element": "H" 
			},
			{
				"x": -1.6648852788,
				"y": -4.6759179433,
				"z": -1.4019692716,
				"element": "H" 
			},
			{
				"x": -0.8358255354,
				"y": -3.3474708345,
				"z": 0.5352756999,
				"element": "H" 
			}
		],
		 "valence_orbital": [ 
			{
				"type": "occ",
				"energy": -0.30323,
				"method": "rhf"
			},
			{
				"type": "occ",
				"energy": -0.29779,
				"method": "rhf"
			},
			{
				"type": "occ",
				"energy": -0.27541,
				"method": "rhf"
			},
			{
				"type": "occ",
				"energy": -0.27038,
				"method": "rhf"
			},
			{
				"type": "occ",
				"energy": -0.24577,
				"method": "rhf"
			},
			{
				"type": "unocc",
				"energy": -0.0447,
				"method": "rhf"
			},
			{
				"type": "unocc",
				"energy": -0.02227,
				"method": "rhf"
			},
			{
				"type": "unocc",
				"energy": 0.00816,
				"method": "rhf"
			},
			{
				"type": "unocc",
				"energy": 0.01749,
				"method": "rhf"
			},
			{
				"type": "unocc",
				"energy": 0.05547,
				"method": "rhf"
			}
		],
		"cosmo_sigma_profile": { 
			"-0.025": 0.0,
			"-0.024": 0.0,
			"-0.023": 0.0,
			"-0.022": 0.0,
			"-0.021": 0.0,
			"-0.02": 0.0,
			"-0.019": 0.0,
			"-0.018": 0.0,
			"-0.017": 0.0,
			"-0.016": 0.226708285488,
			"-0.015": 2.46667621981,
			"-0.014": 2.73909139962,
			"-0.013": 3.04018990045,
			"-0.012": 3.26002581076,
			"-0.011": 3.81203424344,
			"-0.01": 4.02681389893,
			"-0.009": 4.28663955223,
			"-0.008": 6.18694651529,
			"-0.007": 7.21848871854,
			"-0.006": 13.6775806642,
			"-0.005": 13.3229225899,
			"-0.004": 14.1685804241,
			"-0.003": 10.5191725171,
			"-0.002": 11.7382508759,
			"-0.001": 12.7784585736,
			"0.0": 15.0071050651,
			"0.001": 15.4074943143,
			"0.002": 13.6867197745,
			"0.003": 14.2384638507,
			"0.004": 15.9312002654,
			"0.005": 7.33913669447,
			"0.006": 5.22658733097,
			"0.007": 5.14695418398,
			"0.008": 6.07174718276,
			"0.009": 6.1655391009,
			"0.01": 8.93331496948,
			"0.011": 12.3264541214,
			"0.012": 5.2911638686,
			"0.013": 0.287537937945,
			"0.014": 0.0,
			"0.015": 0.0,
			"0.016": 0.0,
			"0.017": 0.0,
			"0.018": 0.0,
			"0.019": 0.0,
			"0.02": 0.0,
			"0.021": 0.0,
			"0.022": 0.0,
			"0.023": 0.0,
			"0.024": 0.0,
			"0.025": 0.0
		}
	}
}
