{
	 "smiles": "OC(=O)C1=CC=C(Cl)C=C1", 
	 "Tm": 515.15, 
	 "num_atms": 15, 
	 "gaussian": { 
		 "optdone": 1, 
		 "sigma_profile": "yes", 
		 "theory": "DFT", 
		 "functional": "B3LYP", 
		 "basiset": "6-31G**", 
		 "properties": { 
			 "R2extent": 2579.079, 
			 "electric_dipole_moment_norm": 3.33711120282, 
			 "electric_quadrupole_moment_norm": 23.5217073366, 
			 "total_energy": -880.405846258, 
			 "HOMO_LUMO_gap": 0.20352, 
			 "cosmo_polarized_energy": -13.46, 
			 "cosmo_cavitation_energy": 21.65, 
			 "cosmo_dispersion_energy": -16.29, 
			 "cosmo_repulsion_energy": 1.32, 
			 "cosmo_total_nonelectrostatic_energy": 6.68, 
			 "SMD_solvation_energy": 4.66 
		},
		"coords": [
			{
				"x": -0.9957342666,
				"y": 3.8087737206,
				"z": -1.8927379268,
				"element": "O" 
			},
			{
				"x": -0.6668492113,
				"y": 3.1393277044,
				"z": -0.755613793,
				"element": "C" 
			},
			{
				"x": -0.2574055784,
				"y": 3.7455751307,
				"z": 0.2059497978,
				"element": "O" 
			},
			{
				"x": -0.8392328252,
				"y": 1.6498717531,
				"z": -0.7723155772,
				"element": "C" 
			},
			{
				"x": -0.8919476721,
				"y": 0.8949979661,
				"z": -1.9522788262,
				"element": "C" 
			},
			{
				"x": -1.0370589786,
				"y": -0.4903096755,
				"z": -1.9057980252,
				"element": "C" 
			},
			{
				"x": -1.1316841518,
				"y": -1.1194581137,
				"z": -0.6643302493,
				"element": "C" 
			},
			{
				"x": -1.3244635498,
				"y": -2.8599857196,
				"z": -0.5969036201,
				"element": "Cl" 
			},
			{
				"x": -1.0674055974,
				"y": -0.3891759349,
				"z": 0.5247498611,
				"element": "C" 
			},
			{
				"x": -0.9120217524,
				"y": 0.991569117,
				"z": 0.4629723365,
				"element": "C" 
			},
			{
				"x": -1.4669180976,
				"y": 3.2256277019,
				"z": -2.5034745562,
				"element": "H" 
			},
			{
				"x": -0.7805427206,
				"y": 1.3691293516,
				"z": -2.9242862969,
				"element": "H" 
			},
			{
				"x": -1.0681449355,
				"y": -1.0766264896,
				"z": -2.8170697382,
				"element": "H" 
			},
			{
				"x": -1.1348686906,
				"y": -0.8991133117,
				"z": 1.4791466078,
				"element": "H" 
			},
			{
				"x": -0.8453219721,
				"y": 1.5836967996,
				"z": 1.3691900059,
				"element": "H" 
			}
		],
		 "valence_orbital": [ 
			{
				"type": "occ",
				"energy": -0.32861,
				"method": "rhf"
			},
			{
				"type": "occ",
				"energy": -0.32201,
				"method": "rhf"
			},
			{
				"type": "occ",
				"energy": -0.28645,
				"method": "rhf"
			},
			{
				"type": "occ",
				"energy": -0.28187,
				"method": "rhf"
			},
			{
				"type": "occ",
				"energy": -0.26568,
				"method": "rhf"
			},
			{
				"type": "unocc",
				"energy": -0.06216,
				"method": "rhf"
			},
			{
				"type": "unocc",
				"energy": -0.0363,
				"method": "rhf"
			},
			{
				"type": "unocc",
				"energy": 0.01306,
				"method": "rhf"
			},
			{
				"type": "unocc",
				"energy": 0.03665,
				"method": "rhf"
			},
			{
				"type": "unocc",
				"energy": 0.06004,
				"method": "rhf"
			}
		],
		"cosmo_sigma_profile": { 
			"-0.025": 0.0,
			"-0.024": 0.0,
			"-0.023": 0.0,
			"-0.022": 0.0,
			"-0.021": 0.0,
			"-0.02": 0.0,
			"-0.019": 0.278379058159,
			"-0.018": 0.842887062345,
			"-0.017": 1.2397343118,
			"-0.016": 0.964509259363,
			"-0.015": 1.19967844693,
			"-0.014": 0.61790292052,
			"-0.013": 1.22983448614,
			"-0.012": 1.20727621446,
			"-0.011": 1.31410089713,
			"-0.01": 1.50304048872,
			"-0.009": 1.98788430326,
			"-0.008": 4.195872627,
			"-0.007": 8.25301994075,
			"-0.006": 7.03311631275,
			"-0.005": 6.84870258741,
			"-0.004": 6.97344474797,
			"-0.003": 7.57594571084,
			"-0.002": 9.92375190005,
			"-0.001": 10.43881288,
			"0.0": 14.0235130887,
			"0.001": 19.2391820603,
			"0.002": 18.2807051131,
			"0.003": 9.02857209253,
			"0.004": 13.1852719354,
			"0.005": 2.88341599394,
			"0.006": 1.33445111697,
			"0.007": 3.11907976721,
			"0.008": 2.39512673043,
			"0.009": 3.65728545336,
			"0.01": 4.99668627376,
			"0.011": 5.13816518177,
			"0.012": 4.42444086851,
			"0.013": 1.1210607099,
			"0.014": 0.00151602958013,
			"0.015": 0.0,
			"0.016": 0.0,
			"0.017": 0.0,
			"0.018": 0.0,
			"0.019": 0.0,
			"0.02": 0.0,
			"0.021": 0.0,
			"0.022": 0.0,
			"0.023": 0.0,
			"0.024": 0.0,
			"0.025": 0.0
		}
	}
}
