{
	 "smiles": "CC(O)C(NS(=O)(=O)C1=CC=CS1)C(O)=O", 
	 "Tm": 457.15, 
	 "num_atms": 27, 
	 "gaussian": { 
		 "optdone": 1, 
		 "sigma_profile": "yes", 
		 "theory": "DFT", 
		 "functional": "B3LYP", 
		 "basiset": "6-31G**", 
		 "properties": { 
			 "R2extent": 4146.7808, 
			 "electric_dipole_moment_norm": 3.08272772395, 
			 "electric_quadrupole_moment_norm": 24.2361550888, 
			 "total_energy": -1538.63740701, 
			 "HOMO_LUMO_gap": 0.20057, 
			 "cosmo_polarized_energy": -20.37, 
			 "cosmo_cavitation_energy": 32.6, 
			 "cosmo_dispersion_energy": -23.81, 
			 "cosmo_repulsion_energy": 1.75, 
			 "cosmo_total_nonelectrostatic_energy": 10.53, 
			 "SMD_solvation_energy": 5.45 
		},
		"coords": [
			{
				"x": -1.315865154,
				"y": 2.4650603269,
				"z": 2.2756944535,
				"element": "C" 
			},
			{
				"x": -1.1835246965,
				"y": 1.2481840544,
				"z": 1.3663501196,
				"element": "C" 
			},
			{
				"x": -1.9681867026,
				"y": 0.200567068,
				"z": 1.9167190906,
				"element": "O" 
			},
			{
				"x": 0.3009646764,
				"y": 0.7843745638,
				"z": 1.2728218062,
				"element": "C" 
			},
			{
				"x": 0.5478526237,
				"y": -0.6432476577,
				"z": 0.9515656645,
				"element": "N" 
			},
			{
				"x": -0.1903766922,
				"y": -1.4336423056,
				"z": -0.3810797703,
				"element": "S" 
			},
			{
				"x": -0.0023338987,
				"y": -2.8508290113,
				"z": -0.0755241465,
				"element": "O" 
			},
			{
				"x": -1.5312859675,
				"y": -0.890436412,
				"z": -0.6555050276,
				"element": "O" 
			},
			{
				"x": 0.8162974563,
				"y": -0.9711297113,
				"z": -1.7472097579,
				"element": "C" 
			},
			{
				"x": 0.4892285304,
				"y": -0.0313868011,
				"z": -2.6936599605,
				"element": "C" 
			},
			{
				"x": 1.5150699619,
				"y": 0.1223812898,
				"z": -3.6666532386,
				"element": "C" 
			},
			{
				"x": 2.5855633771,
				"y": -0.7017062037,
				"z": -3.4369027729,
				"element": "C" 
			},
			{
				"x": 2.3731937183,
				"y": -1.6941664934,
				"z": -2.037397358,
				"element": "S" 
			},
			{
				"x": 1.1759862608,
				"y": 1.6805697246,
				"z": 0.3772811037,
				"element": "C" 
			},
			{
				"x": 2.3964155638,
				"y": 1.1758614186,
				"z": 0.1044421235,
				"element": "O" 
			},
			{
				"x": 0.8405223538,
				"y": 2.7724831355,
				"z": -0.0119308378,
				"element": "O" 
			},
			{
				"x": -0.7075125589,
				"y": 3.2934359085,
				"z": 1.9077759935,
				"element": "H" 
			},
			{
				"x": -2.3620912163,
				"y": 2.7787950877,
				"z": 2.311652237,
				"element": "H" 
			},
			{
				"x": -1.0061427298,
				"y": 2.2105987612,
				"z": 3.295722824,
				"element": "H" 
			},
			{
				"x": -1.5303927786,
				"y": 1.5078061463,
				"z": 0.3602571397,
				"element": "H" 
			},
			{
				"x": -2.262221077,
				"y": -0.342476797,
				"z": 1.1695624654,
				"element": "H" 
			},
			{
				"x": 0.7308617146,
				"y": 0.8812957832,
				"z": 2.2800345986,
				"element": "H" 
			},
			{
				"x": 0.3315055836,
				"y": -1.241617303,
				"z": 1.747657106,
				"element": "H" 
			},
			{
				"x": -0.4456016593,
				"y": 0.5147488832,
				"z": -2.6821356462,
				"element": "H" 
			},
			{
				"x": 1.4589374216,
				"y": 0.8132991467,
				"z": -4.4989780866,
				"element": "H" 
			},
			{
				"x": 3.4918698244,
				"y": -0.7946653679,
				"z": -4.0202526097,
				"element": "H" 
			},
			{
				"x": 2.4170660649,
				"y": 0.2554427657,
				"z": 0.4229924867,
				"element": "H" 
			}
		],
		 "valence_orbital": [ 
			{
				"type": "occ",
				"energy": -0.30965,
				"method": "rhf"
			},
			{
				"type": "occ",
				"energy": -0.28663,
				"method": "rhf"
			},
			{
				"type": "occ",
				"energy": -0.28589,
				"method": "rhf"
			},
			{
				"type": "occ",
				"energy": -0.27487,
				"method": "rhf"
			},
			{
				"type": "occ",
				"energy": -0.26686,
				"method": "rhf"
			},
			{
				"type": "unocc",
				"energy": -0.06629,
				"method": "rhf"
			},
			{
				"type": "unocc",
				"energy": -0.01136,
				"method": "rhf"
			},
			{
				"type": "unocc",
				"energy": -0.00189,
				"method": "rhf"
			},
			{
				"type": "unocc",
				"energy": 0.02313,
				"method": "rhf"
			},
			{
				"type": "unocc",
				"energy": 0.03299,
				"method": "rhf"
			}
		],
		"cosmo_sigma_profile": { 
			"-0.025": 0.0,
			"-0.024": 0.0,
			"-0.023": 0.0,
			"-0.022": 0.0,
			"-0.021": 0.0,
			"-0.02": 0.0,
			"-0.019": 0.0,
			"-0.018": 0.0,
			"-0.017": 0.0,
			"-0.016": 0.126762540412,
			"-0.015": 0.850874370267,
			"-0.014": 1.3804360907,
			"-0.013": 1.5215619929,
			"-0.012": 1.86491094135,
			"-0.011": 3.32833868595,
			"-0.01": 6.97672725213,
			"-0.009": 6.80449290099,
			"-0.008": 10.4010686048,
			"-0.007": 10.0102133649,
			"-0.006": 9.98009908874,
			"-0.005": 11.0918928303,
			"-0.004": 12.0374961443,
			"-0.003": 14.4056053725,
			"-0.002": 15.4447197991,
			"-0.001": 17.9628224931,
			"0.0": 21.0255461449,
			"0.001": 20.38568631,
			"0.002": 14.109950862,
			"0.003": 10.6802826081,
			"0.004": 8.24258617895,
			"0.005": 6.51684750826,
			"0.006": 6.38489636999,
			"0.007": 6.29121482537,
			"0.008": 7.01634892954,
			"0.009": 10.3907324768,
			"0.01": 12.252571968,
			"0.011": 6.47421517695,
			"0.012": 3.63041855448,
			"0.013": 1.60923484435,
			"0.014": 1.2043519699,
			"0.015": 0.00211605600649,
			"0.016": 0.0,
			"0.017": 0.0,
			"0.018": 0.0,
			"0.019": 0.0,
			"0.02": 0.0,
			"0.021": 0.0,
			"0.022": 0.0,
			"0.023": 0.0,
			"0.024": 0.0,
			"0.025": 0.0
		}
	}
}
