{
	 "smiles": "CSC1=NC=C(C=O)N1CC1=CC=CC=C1", 
	 "Tm": 360.15, 
	 "num_atms": 28, 
	 "gaussian": { 
		 "optdone": 1, 
		 "sigma_profile": "yes", 
		 "theory": "DFT", 
		 "functional": "B3LYP", 
		 "basiset": "6-31G**", 
		 "properties": { 
			 "R2extent": 4443.8285, 
			 "electric_dipole_moment_norm": 4.36430429049, 
			 "electric_quadrupole_moment_norm": 18.1847357963, 
			 "total_energy": -1047.40867785, 
			 "HOMO_LUMO_gap": 0.16754, 
			 "cosmo_polarized_energy": -13.73, 
			 "cosmo_cavitation_energy": 33.88, 
			 "cosmo_dispersion_energy": -23.93, 
			 "cosmo_repulsion_energy": 1.82, 
			 "cosmo_total_nonelectrostatic_energy": 11.78, 
			 "SMD_solvation_energy": 5.67 
		},
		"coords": [
			{
				"x": 3.0765579935,
				"y": -2.8099941347,
				"z": -1.7045273437,
				"element": "C" 
			},
			{
				"x": 2.3931152045,
				"y": -1.5318668337,
				"z": -0.5918259157,
				"element": "S" 
			},
			{
				"x": 0.8758267432,
				"y": -1.2111204816,
				"z": -1.4375084521,
				"element": "C" 
			},
			{
				"x": 0.3960095028,
				"y": -1.9386761162,
				"z": -2.4402554081,
				"element": "N" 
			},
			{
				"x": -0.7828915188,
				"y": -1.3447563531,
				"z": -2.7745796711,
				"element": "C" 
			},
			{
				"x": -1.0407408537,
				"y": -0.2478879849,
				"z": -1.9716572907,
				"element": "C" 
			},
			{
				"x": -2.1779169476,
				"y": 0.656847905,
				"z": -1.9745486861,
				"element": "C" 
			},
			{
				"x": -3.1022715496,
				"y": 0.5714910057,
				"z": -2.7691837782,
				"element": "O" 
			},
			{
				"x": 0.0583838371,
				"y": -0.1699331584,
				"z": -1.104541131,
				"element": "N" 
			},
			{
				"x": 0.2979711212,
				"y": 0.8467768185,
				"z": -0.0791516306,
				"element": "C" 
			},
			{
				"x": -0.5656662184,
				"y": 0.7039851219,
				"z": 1.1624982954,
				"element": "C" 
			},
			{
				"x": -1.136421453,
				"y": 1.8419386967,
				"z": 1.7429790646,
				"element": "C" 
			},
			{
				"x": -1.8958705164,
				"y": 1.7392308306,
				"z": 2.9101346998,
				"element": "C" 
			},
			{
				"x": -2.0966557313,
				"y": 0.4931932501,
				"z": 3.504153522,
				"element": "C" 
			},
			{
				"x": -1.5327092107,
				"y": -0.6475719743,
				"z": 2.92764938,
				"element": "C" 
			},
			{
				"x": -0.7693855819,
				"y": -0.5435932126,
				"z": 1.7653384082,
				"element": "C" 
			},
			{
				"x": 2.3797203702,
				"y": -3.6429827469,
				"z": -1.7870106913,
				"element": "H" 
			},
			{
				"x": 4.0098742183,
				"y": -3.1343978876,
				"z": -1.2406889457,
				"element": "H" 
			},
			{
				"x": 3.2698907914,
				"y": -2.3910345718,
				"z": -2.6920351454,
				"element": "H" 
			},
			{
				"x": -1.4087825285,
				"y": -1.7196322963,
				"z": -3.5722907688,
				"element": "H" 
			},
			{
				"x": -2.1696068708,
				"y": 1.448185862,
				"z": -1.1954195684,
				"element": "H" 
			},
			{
				"x": 0.1473751752,
				"y": 1.8328453578,
				"z": -0.5291956727,
				"element": "H" 
			},
			{
				"x": 1.3598732215,
				"y": 0.7844467601,
				"z": 0.1820259247,
				"element": "H" 
			},
			{
				"x": -0.9883489999,
				"y": 2.8147912009,
				"z": 1.2798549043,
				"element": "H" 
			},
			{
				"x": -2.3357376925,
				"y": 2.630675522,
				"z": 3.3475923431,
				"element": "H" 
			},
			{
				"x": -2.6920330992,
				"y": 0.4094678612,
				"z": 4.4085415396,
				"element": "H" 
			},
			{
				"x": -1.6872000877,
				"y": -1.6209635685,
				"z": 3.3839938882,
				"element": "H" 
			},
			{
				"x": -0.3352593189,
				"y": -1.4355648718,
				"z": 1.3226581294,
				"element": "H" 
			}
		],
		 "valence_orbital": [ 
			{
				"type": "occ",
				"energy": -0.28584,
				"method": "rhf"
			},
			{
				"type": "occ",
				"energy": -0.26261,
				"method": "rhf"
			},
			{
				"type": "occ",
				"energy": -0.25744,
				"method": "rhf"
			},
			{
				"type": "occ",
				"energy": -0.24614,
				"method": "rhf"
			},
			{
				"type": "occ",
				"energy": -0.21752,
				"method": "rhf"
			},
			{
				"type": "unocc",
				"energy": -0.04998,
				"method": "rhf"
			},
			{
				"type": "unocc",
				"energy": -0.01976,
				"method": "rhf"
			},
			{
				"type": "unocc",
				"energy": -0.01429,
				"method": "rhf"
			},
			{
				"type": "unocc",
				"energy": 0.0149,
				"method": "rhf"
			},
			{
				"type": "unocc",
				"energy": 0.03557,
				"method": "rhf"
			}
		],
		"cosmo_sigma_profile": { 
			"-0.025": 0.0,
			"-0.024": 0.0,
			"-0.023": 0.0,
			"-0.022": 0.0,
			"-0.021": 0.0,
			"-0.02": 0.0,
			"-0.019": 0.0,
			"-0.018": 0.0,
			"-0.017": 0.0,
			"-0.016": 0.0,
			"-0.015": 0.0,
			"-0.014": 0.0,
			"-0.013": 0.0,
			"-0.012": 0.0,
			"-0.011": 0.0,
			"-0.01": 0.0264063754566,
			"-0.009": 1.27373617249,
			"-0.008": 6.00151881837,
			"-0.007": 9.2728880455,
			"-0.006": 15.4386740992,
			"-0.005": 23.1697054348,
			"-0.004": 22.6796981495,
			"-0.003": 21.6145061864,
			"-0.002": 23.5639419388,
			"-0.001": 19.5044894536,
			"0.0": 14.958482266,
			"0.001": 19.1501578581,
			"0.002": 17.8394234096,
			"0.003": 15.2375693797,
			"0.004": 14.8054772084,
			"0.005": 14.460023403,
			"0.006": 7.11625011353,
			"0.007": 3.44545461528,
			"0.008": 3.15364251266,
			"0.009": 2.75135001588,
			"0.01": 3.53721219646,
			"0.011": 4.04050482181,
			"0.012": 6.17408458424,
			"0.013": 2.74467726375,
			"0.014": 1.00171014791,
			"0.015": 0.104698403306,
			"0.016": 0.0,
			"0.017": 0.0,
			"0.018": 0.0,
			"0.019": 0.0,
			"0.02": 0.0,
			"0.021": 0.0,
			"0.022": 0.0,
			"0.023": 0.0,
			"0.024": 0.0,
			"0.025": 0.0
		}
	}
}
