{
	 "smiles": "OC1=CC=CC=C1F", 
	 "Tm": 288.75, 
	 "num_atms": 13, 
	 "gaussian": { 
		 "optdone": 1, 
		 "sigma_profile": "yes", 
		 "theory": "DFT", 
		 "functional": "B3LYP", 
		 "basiset": "6-31G**", 
		 "properties": { 
			 "R2extent": 1330.5139, 
			 "electric_dipole_moment_norm": 2.50245889677, 
			 "electric_quadrupole_moment_norm": 10.987578792, 
			 "total_energy": -406.698038678, 
			 "HOMO_LUMO_gap": 0.22037, 
			 "cosmo_polarized_energy": -8.61, 
			 "cosmo_cavitation_energy": 17.52, 
			 "cosmo_dispersion_energy": -13.15, 
			 "cosmo_repulsion_energy": 1.07, 
			 "cosmo_total_nonelectrostatic_energy": 5.45, 
			 "SMD_solvation_energy": 3.99 
		},
		"coords": [
			{
				"x": 1.6043260593,
				"y": 0.7500315944,
				"z": 2.251032182,
				"element": "O" 
			},
			{
				"x": 0.8168295529,
				"y": -0.2154311575,
				"z": 1.6977852787,
				"element": "C" 
			},
			{
				"x": 1.2969164266,
				"y": -1.4242498397,
				"z": 1.1878511747,
				"element": "C" 
			},
			{
				"x": 0.4192050352,
				"y": -2.3614997883,
				"z": 0.6366301007,
				"element": "C" 
			},
			{
				"x": -0.9493552833,
				"y": -2.1006586511,
				"z": 0.5889552563,
				"element": "C" 
			},
			{
				"x": -1.4411817986,
				"y": -0.8940265297,
				"z": 1.0964001613,
				"element": "C" 
			},
			{
				"x": -0.5625587471,
				"y": 0.0289232388,
				"z": 1.6409943022,
				"element": "C" 
			},
			{
				"x": -1.0280178216,
				"y": 1.1940663355,
				"z": 2.1321462036,
				"element": "F" 
			},
			{
				"x": 2.5232937891,
				"y": 0.4538146478,
				"z": 2.2259126808,
				"element": "H" 
			},
			{
				"x": 2.365308509,
				"y": -1.6275478325,
				"z": 1.2252270056,
				"element": "H" 
			},
			{
				"x": 0.8129937183,
				"y": -3.2945921218,
				"z": 0.2459169657,
				"element": "H" 
			},
			{
				"x": -1.6342008326,
				"y": -2.8258001816,
				"z": 0.1617788884,
				"element": "H" 
			},
			{
				"x": -2.4989586072,
				"y": -0.6533297144,
				"z": 1.0779698001,
				"element": "H" 
			}
		],
		 "valence_orbital": [ 
			{
				"type": "occ",
				"energy": -0.35957,
				"method": "rhf"
			},
			{
				"type": "occ",
				"energy": -0.35022,
				"method": "rhf"
			},
			{
				"type": "occ",
				"energy": -0.33737,
				"method": "rhf"
			},
			{
				"type": "occ",
				"energy": -0.25064,
				"method": "rhf"
			},
			{
				"type": "occ",
				"energy": -0.22324,
				"method": "rhf"
			},
			{
				"type": "unocc",
				"energy": -0.00287,
				"method": "rhf"
			},
			{
				"type": "unocc",
				"energy": 0.00934,
				"method": "rhf"
			},
			{
				"type": "unocc",
				"energy": 0.0635,
				"method": "rhf"
			},
			{
				"type": "unocc",
				"energy": 0.08199,
				"method": "rhf"
			},
			{
				"type": "unocc",
				"energy": 0.14213,
				"method": "rhf"
			}
		],
		"cosmo_sigma_profile": { 
			"-0.025": 0.0,
			"-0.024": 0.0,
			"-0.023": 0.0,
			"-0.022": 0.0,
			"-0.021": 0.0,
			"-0.02": 0.0,
			"-0.019": 0.156089300864,
			"-0.018": 1.02222173191,
			"-0.017": 0.769333849626,
			"-0.016": 1.34246057073,
			"-0.015": 0.862121939761,
			"-0.014": 0.723259939164,
			"-0.013": 0.948723595455,
			"-0.012": 0.8303355827,
			"-0.011": 1.52271259278,
			"-0.01": 0.909788553521,
			"-0.009": 1.11663690826,
			"-0.008": 1.00751131699,
			"-0.007": 2.98746409393,
			"-0.006": 7.12508417004,
			"-0.005": 7.94281710393,
			"-0.004": 8.14589571183,
			"-0.003": 6.79503228171,
			"-0.002": 6.06695628601,
			"-0.001": 6.22692596037,
			"0.0": 4.99808735882,
			"0.001": 10.895948079,
			"0.002": 12.7846139015,
			"0.003": 11.2355254117,
			"0.004": 15.9091361125,
			"0.005": 13.4198612072,
			"0.006": 4.81246706011,
			"0.007": 1.83755236674,
			"0.008": 1.96708858745,
			"0.009": 2.09274392146,
			"0.01": 1.83251828349,
			"0.011": 2.01393797925,
			"0.012": 0.0589069983045,
			"0.013": 0.0,
			"0.014": 0.0,
			"0.015": 0.0,
			"0.016": 0.0,
			"0.017": 0.0,
			"0.018": 0.0,
			"0.019": 0.0,
			"0.02": 0.0,
			"0.021": 0.0,
			"0.022": 0.0,
			"0.023": 0.0,
			"0.024": 0.0,
			"0.025": 0.0
		}
	}
}
