{
	 "smiles": "CC1=CC=C(C=NO)C=C1", 
	 "Tm": 399.15, 
	 "num_atms": 19, 
	 "gaussian": { 
		 "optdone": 1, 
		 "sigma_profile": "yes", 
		 "theory": "DFT", 
		 "functional": "B3LYP", 
		 "basiset": "6-31G**", 
		 "properties": { 
			 "R2extent": 2932.409, 
			 "electric_dipole_moment_norm": 1.03308176346, 
			 "electric_quadrupole_moment_norm": 6.26026576193, 
			 "total_energy": -440.198510936, 
			 "HOMO_LUMO_gap": 0.18114, 
			 "cosmo_polarized_energy": -8.04, 
			 "cosmo_cavitation_energy": 23.35, 
			 "cosmo_dispersion_energy": -17.19, 
			 "cosmo_repulsion_energy": 1.41, 
			 "cosmo_total_nonelectrostatic_energy": 7.57, 
			 "SMD_solvation_energy": 4.58 
		},
		"coords": [
			{
				"x": 0.0305197132,
				"y": 0.8354233921,
				"z": -1.7829055554,
				"element": "C" 
			},
			{
				"x": 0.078779993,
				"y": 0.4427291837,
				"z": -0.3258682587,
				"element": "C" 
			},
			{
				"x": -0.5396562812,
				"y": 1.2420617425,
				"z": 0.6522510554,
				"element": "C" 
			},
			{
				"x": -0.5061242644,
				"y": 0.8955989598,
				"z": 1.9957373147,
				"element": "C" 
			},
			{
				"x": 0.154281364,
				"y": -0.275237286,
				"z": 2.413780669,
				"element": "C" 
			},
			{
				"x": 0.2156318369,
				"y": -0.6804425081,
				"z": 3.8202112487,
				"element": "C" 
			},
			{
				"x": -0.3325245527,
				"y": 0.0161105746,
				"z": 4.7466168858,
				"element": "N" 
			},
			{
				"x": -0.1353309635,
				"y": -0.5784036958,
				"z": 6.0001289316,
				"element": "O" 
			},
			{
				"x": 0.7722226551,
				"y": -1.0751185137,
				"z": 1.4429430988,
				"element": "C" 
			},
			{
				"x": 0.7336505049,
				"y": -0.7193370496,
				"z": 0.0947202667,
				"element": "C" 
			},
			{
				"x": 0.4790422352,
				"y": 1.8225358676,
				"z": -1.9448058339,
				"element": "H" 
			},
			{
				"x": 0.5673396869,
				"y": 0.1176527215,
				"z": -2.4090930404,
				"element": "H" 
			},
			{
				"x": -1.002238187,
				"y": 0.8902099786,
				"z": -2.1468105305,
				"element": "H" 
			},
			{
				"x": -1.0547049495,
				"y": 2.1506395249,
				"z": 0.3486844308,
				"element": "H" 
			},
			{
				"x": -0.9873513959,
				"y": 1.5214726715,
				"z": 2.7398907704,
				"element": "H" 
			},
			{
				"x": 0.7464896239,
				"y": -1.6033191721,
				"z": 4.0691092307,
				"element": "H" 
			},
			{
				"x": -0.5881662548,
				"y": 0.0343509721,
				"z": 6.5946560993,
				"element": "H" 
			},
			{
				"x": 1.2874376663,
				"y": -1.9832570087,
				"z": 1.7462266583,
				"element": "H" 
			},
			{
				"x": 1.2202015695,
				"y": -1.3551703549,
				"z": -0.6405734414,
				"element": "H" 
			}
		],
		 "valence_orbital": [ 
			{
				"type": "occ",
				"energy": -0.33785,
				"method": "rhf"
			},
			{
				"type": "occ",
				"energy": -0.28288,
				"method": "rhf"
			},
			{
				"type": "occ",
				"energy": -0.27559,
				"method": "rhf"
			},
			{
				"type": "occ",
				"energy": -0.25144,
				"method": "rhf"
			},
			{
				"type": "occ",
				"energy": -0.21837,
				"method": "rhf"
			},
			{
				"type": "unocc",
				"energy": -0.03723,
				"method": "rhf"
			},
			{
				"type": "unocc",
				"energy": -0.0016,
				"method": "rhf"
			},
			{
				"type": "unocc",
				"energy": 0.05386,
				"method": "rhf"
			},
			{
				"type": "unocc",
				"energy": 0.07691,
				"method": "rhf"
			},
			{
				"type": "unocc",
				"energy": 0.1011,
				"method": "rhf"
			}
		],
		"cosmo_sigma_profile": { 
			"-0.025": 0.0,
			"-0.024": 0.0,
			"-0.023": 0.0,
			"-0.022": 0.0,
			"-0.021": 0.0,
			"-0.02": 0.0,
			"-0.019": 0.0,
			"-0.018": 0.0683341544993,
			"-0.017": 0.920963820545,
			"-0.016": 1.06102476994,
			"-0.015": 1.19063948911,
			"-0.014": 0.459949450277,
			"-0.013": 0.395758306793,
			"-0.012": 0.535382141156,
			"-0.011": 0.650495671542,
			"-0.01": 1.1651530084,
			"-0.009": 1.05737678119,
			"-0.008": 0.656048596892,
			"-0.007": 3.32015574056,
			"-0.006": 5.9668585697,
			"-0.005": 10.3411630063,
			"-0.004": 15.5704258847,
			"-0.003": 15.8066562628,
			"-0.002": 14.0866987403,
			"-0.001": 13.8826201653,
			"0.0": 14.2536595773,
			"0.001": 12.0299264117,
			"0.002": 10.8354554181,
			"0.003": 12.6303784871,
			"0.004": 13.4051770744,
			"0.005": 14.9548176164,
			"0.006": 5.02890774934,
			"0.007": 3.52616925324,
			"0.008": 2.81591047379,
			"0.009": 3.26723477443,
			"0.01": 3.23596563155,
			"0.011": 2.2196213907,
			"0.012": 0.0394753017822,
			"0.013": 0.0,
			"0.014": 0.0,
			"0.015": 0.0,
			"0.016": 0.0,
			"0.017": 0.0,
			"0.018": 0.0,
			"0.019": 0.0,
			"0.02": 0.0,
			"0.021": 0.0,
			"0.022": 0.0,
			"0.023": 0.0,
			"0.024": 0.0,
			"0.025": 0.0
		}
	}
}
