{
	 "smiles": "COC1=C(F)C=CC(C#N)=C1F", 
	 "Tm": 318.15, 
	 "num_atms": 17, 
	 "gaussian": { 
		 "optdone": 1, 
		 "sigma_profile": "yes", 
		 "theory": "DFT", 
		 "functional": "B3LYP", 
		 "basiset": "6-31G**", 
		 "properties": { 
			 "R2extent": 2248.5656, 
			 "electric_dipole_moment_norm": 3.32626683536, 
			 "electric_quadrupole_moment_norm": 19.8112575825, 
			 "total_energy": -637.462043822, 
			 "HOMO_LUMO_gap": 0.19248, 
			 "cosmo_polarized_energy": -9.25, 
			 "cosmo_cavitation_energy": 23.6, 
			 "cosmo_dispersion_energy": -16.65, 
			 "cosmo_repulsion_energy": 1.29, 
			 "cosmo_total_nonelectrostatic_energy": 8.24, 
			 "SMD_solvation_energy": 7.2 
		},
		"coords": [
			{
				"x": -1.0776542377,
				"y": 2.0246150934,
				"z": -1.5949141728,
				"element": "C" 
			},
			{
				"x": -0.0987575193,
				"y": 1.0326955041,
				"z": -1.9256593364,
				"element": "O" 
			},
			{
				"x": 0.0199578122,
				"y": -0.1057500035,
				"z": -1.2089777463,
				"element": "C" 
			},
			{
				"x": 1.0236606055,
				"y": -0.9967403912,
				"z": -1.641298027,
				"element": "C" 
			},
			{
				"x": 1.7505462124,
				"y": -0.6314196889,
				"z": -2.7053878665,
				"element": "F" 
			},
			{
				"x": 1.2809411883,
				"y": -2.2094448187,
				"z": -1.0206562417,
				"element": "C" 
			},
			{
				"x": 0.5240843512,
				"y": -2.5861341508,
				"z": 0.0845882605,
				"element": "C" 
			},
			{
				"x": -0.4864806199,
				"y": -1.7354844672,
				"z": 0.5544467035,
				"element": "C" 
			},
			{
				"x": -1.2833918405,
				"y": -2.0909758866,
				"z": 1.6876458865,
				"element": "C" 
			},
			{
				"x": -1.9203482431,
				"y": -2.3985087179,
				"z": 2.6107798897,
				"element": "N" 
			},
			{
				"x": -0.7239567961,
				"y": -0.5125892018,
				"z": -0.095348315,
				"element": "C" 
			},
			{
				"x": -1.7049628653,
				"y": 0.274570327,
				"z": 0.3895659735,
				"element": "F" 
			},
			{
				"x": -0.9356860134,
				"y": 2.8125297666,
				"z": -2.335168557,
				"element": "H" 
			},
			{
				"x": -2.0929475828,
				"y": 1.6264138574,
				"z": -1.6702167724,
				"element": "H" 
			},
			{
				"x": -0.9164837986,
				"y": 2.4277504322,
				"z": -0.5916409195,
				"element": "H" 
			},
			{
				"x": 2.0705172442,
				"y": -2.8393997514,
				"z": -1.4135020642,
				"element": "H" 
			},
			{
				"x": 0.7047621031,
				"y": -3.5283279026,
				"z": 0.587743305,
				"element": "H" 
			}
		],
		 "valence_orbital": [ 
			{
				"type": "occ",
				"energy": -0.35305,
				"method": "rhf"
			},
			{
				"type": "occ",
				"energy": -0.33632,
				"method": "rhf"
			},
			{
				"type": "occ",
				"energy": -0.3336,
				"method": "rhf"
			},
			{
				"type": "occ",
				"energy": -0.26708,
				"method": "rhf"
			},
			{
				"type": "occ",
				"energy": -0.24639,
				"method": "rhf"
			},
			{
				"type": "unocc",
				"energy": -0.05391,
				"method": "rhf"
			},
			{
				"type": "unocc",
				"energy": -0.02384,
				"method": "rhf"
			},
			{
				"type": "unocc",
				"energy": 0.02192,
				"method": "rhf"
			},
			{
				"type": "unocc",
				"energy": 0.04999,
				"method": "rhf"
			},
			{
				"type": "unocc",
				"energy": 0.07521,
				"method": "rhf"
			}
		],
		"cosmo_sigma_profile": { 
			"-0.025": 0.0,
			"-0.024": 0.0,
			"-0.023": 0.0,
			"-0.022": 0.0,
			"-0.021": 0.0,
			"-0.02": 0.0,
			"-0.019": 0.0,
			"-0.018": 0.0,
			"-0.017": 0.0,
			"-0.016": 0.0,
			"-0.015": 0.0,
			"-0.014": 0.0,
			"-0.013": 0.0,
			"-0.012": 0.0,
			"-0.011": 0.0,
			"-0.01": 0.0,
			"-0.009": 2.32989970057,
			"-0.008": 4.16503460161,
			"-0.007": 5.32324196919,
			"-0.006": 11.8835850076,
			"-0.005": 11.0254014202,
			"-0.004": 12.3126108037,
			"-0.003": 15.2052703339,
			"-0.002": 20.6530144887,
			"-0.001": 17.8700992446,
			"0.0": 12.8060445576,
			"0.001": 11.1750354894,
			"0.002": 11.8588746479,
			"0.003": 15.3505858954,
			"0.004": 6.88242769898,
			"0.005": 4.8320398246,
			"0.006": 4.28376247098,
			"0.007": 4.71923876173,
			"0.008": 5.23112443739,
			"0.009": 4.54697338996,
			"0.01": 2.9931728803,
			"0.011": 2.63176616302,
			"0.012": 2.29233700693,
			"0.013": 0.808067537779,
			"0.014": 0.0,
			"0.015": 0.0,
			"0.016": 0.0,
			"0.017": 0.0,
			"0.018": 0.0,
			"0.019": 0.0,
			"0.02": 0.0,
			"0.021": 0.0,
			"0.022": 0.0,
			"0.023": 0.0,
			"0.024": 0.0,
			"0.025": 0.0
		}
	}
}
