{
	 "smiles": "CCOC1=CC=CC=C1C(O)=O", 
	 "Tm": 293.55, 
	 "num_atms": 22, 
	 "gaussian": { 
		 "optdone": 1, 
		 "sigma_profile": "yes", 
		 "theory": "DFT", 
		 "functional": "B3LYP", 
		 "basiset": "6-31G**", 
		 "properties": { 
			 "R2extent": 2878.9589, 
			 "electric_dipole_moment_norm": 6.75509629095, 
			 "electric_quadrupole_moment_norm": 18.9380454799, 
			 "total_energy": -574.668115763, 
			 "HOMO_LUMO_gap": 0.19968, 
			 "cosmo_polarized_energy": -13.66, 
			 "cosmo_cavitation_energy": 25.69, 
			 "cosmo_dispersion_energy": -18.93, 
			 "cosmo_repulsion_energy": 1.5, 
			 "cosmo_total_nonelectrostatic_energy": 8.27, 
			 "SMD_solvation_energy": 5.91 
		},
		"coords": [
			{
				"x": 0.6780515245,
				"y": -2.0355965484,
				"z": -1.7136032762,
				"element": "C" 
			},
			{
				"x": 0.9385867227,
				"y": -0.8654684339,
				"z": -0.7828708688,
				"element": "C" 
			},
			{
				"x": -0.130641927,
				"y": -0.8234165665,
				"z": 0.1741969897,
				"element": "O" 
			},
			{
				"x": -0.1502773686,
				"y": 0.1455289233,
				"z": 1.1491314205,
				"element": "C" 
			},
			{
				"x": 0.8459858317,
				"y": 1.1213640451,
				"z": 1.2583455716,
				"element": "C" 
			},
			{
				"x": 0.7724854326,
				"y": 2.0802712437,
				"z": 2.2694628227,
				"element": "C" 
			},
			{
				"x": -0.2873604217,
				"y": 2.0759760692,
				"z": 3.1752636176,
				"element": "C" 
			},
			{
				"x": -1.2746867831,
				"y": 1.1022108638,
				"z": 3.0603316675,
				"element": "C" 
			},
			{
				"x": -1.2331842745,
				"y": 0.1246029504,
				"z": 2.058327171,
				"element": "C" 
			},
			{
				"x": -2.3711348232,
				"y": -0.8681294883,
				"z": 2.0541077698,
				"element": "C" 
			},
			{
				"x": -2.3703185997,
				"y": -1.8258841753,
				"z": 1.1079769099,
				"element": "O" 
			},
			{
				"x": -3.263833305,
				"y": -0.8144791519,
				"z": 2.8727518639,
				"element": "O" 
			},
			{
				"x": -0.273529878,
				"y": -1.9117763545,
				"z": -2.2381922232,
				"element": "H" 
			},
			{
				"x": 1.4760344237,
				"y": -2.0992112221,
				"z": -2.4592480123,
				"element": "H" 
			},
			{
				"x": 0.6512381318,
				"y": -2.9770373713,
				"z": -1.157708491,
				"element": "H" 
			},
			{
				"x": 0.9657701678,
				"y": 0.0820767601,
				"z": -1.3353295186,
				"element": "H" 
			},
			{
				"x": 1.8922054745,
				"y": -0.9846158553,
				"z": -0.2535324869,
				"element": "H" 
			},
			{
				"x": 1.6768789678,
				"y": 1.1411973088,
				"z": 0.5643537729,
				"element": "H" 
			},
			{
				"x": 1.5533661615,
				"y": 2.8318549055,
				"z": 2.3419351555,
				"element": "H" 
			},
			{
				"x": -0.3435696244,
				"y": 2.8221217941,
				"z": 3.961164115,
				"element": "H" 
			},
			{
				"x": -2.1152858823,
				"y": 1.0643062892,
				"z": 3.7445280916,
				"element": "H" 
			},
			{
				"x": -1.5857799512,
				"y": -1.7204959856,
				"z": 0.538007938,
				"element": "H" 
			}
		],
		 "valence_orbital": [ 
			{
				"type": "occ",
				"energy": -0.33347,
				"method": "rhf"
			},
			{
				"type": "occ",
				"energy": -0.29674,
				"method": "rhf"
			},
			{
				"type": "occ",
				"energy": -0.2633,
				"method": "rhf"
			},
			{
				"type": "occ",
				"energy": -0.259,
				"method": "rhf"
			},
			{
				"type": "occ",
				"energy": -0.24277,
				"method": "rhf"
			},
			{
				"type": "unocc",
				"energy": -0.04309,
				"method": "rhf"
			},
			{
				"type": "unocc",
				"energy": -0.00528,
				"method": "rhf"
			},
			{
				"type": "unocc",
				"energy": 0.06242,
				"method": "rhf"
			},
			{
				"type": "unocc",
				"energy": 0.07662,
				"method": "rhf"
			},
			{
				"type": "unocc",
				"energy": 0.07687,
				"method": "rhf"
			}
		],
		"cosmo_sigma_profile": { 
			"-0.025": 0.0,
			"-0.024": 0.0,
			"-0.023": 0.0,
			"-0.022": 0.0,
			"-0.021": 0.0,
			"-0.02": 0.0,
			"-0.019": 0.0,
			"-0.018": 0.0,
			"-0.017": 0.0,
			"-0.016": 0.0,
			"-0.015": 0.0,
			"-0.014": 0.0,
			"-0.013": 0.0,
			"-0.012": 0.0,
			"-0.011": 0.0,
			"-0.01": 0.0,
			"-0.009": 0.0,
			"-0.008": 0.564367139905,
			"-0.007": 5.99863070003,
			"-0.006": 13.9989805672,
			"-0.005": 18.9022406059,
			"-0.004": 24.1896031913,
			"-0.003": 18.441935524,
			"-0.002": 15.4419698205,
			"-0.001": 14.2714084998,
			"0.0": 15.8647584452,
			"0.001": 11.810610467,
			"0.002": 11.2662250335,
			"0.003": 12.5372227213,
			"0.004": 9.88729289305,
			"0.005": 2.46467829429,
			"0.006": 2.68152863546,
			"0.007": 2.18548276729,
			"0.008": 2.28828512806,
			"0.009": 3.07464548101,
			"0.01": 2.99652418748,
			"0.011": 4.98379954981,
			"0.012": 6.28828436056,
			"0.013": 3.23716702204,
			"0.014": 1.13356978455,
			"0.015": 0.00716011284345,
			"0.016": 0.0,
			"0.017": 0.0,
			"0.018": 0.0,
			"0.019": 0.0,
			"0.02": 0.0,
			"0.021": 0.0,
			"0.022": 0.0,
			"0.023": 0.0,
			"0.024": 0.0,
			"0.025": 0.0
		}
	}
}
