{
	 "smiles": "OC(=O)C1=C(F)C(F)=C(F)C(F)=C1C(O)=O", 
	 "Tm": 436.15, 
	 "num_atms": 18, 
	 "gaussian": { 
		 "optdone": 1, 
		 "sigma_profile": "yes", 
		 "theory": "DFT", 
		 "functional": "B3LYP", 
		 "basiset": "6-31G**", 
		 "properties": { 
			 "R2extent": 4119.4528, 
			 "electric_dipole_moment_norm": 4.62378325184, 
			 "electric_quadrupole_moment_norm": 26.7839030201, 
			 "total_energy": -1006.27304126, 
			 "HOMO_LUMO_gap": 0.18469, 
			 "cosmo_polarized_energy": -14.99, 
			 "cosmo_cavitation_energy": 26.03, 
			 "cosmo_dispersion_energy": -18.69, 
			 "cosmo_repulsion_energy": 1.37, 
			 "cosmo_total_nonelectrostatic_energy": 8.71, 
			 "SMD_solvation_energy": 8.65 
		},
		"coords": [
			{
				"x": -2.0044236256,
				"y": -3.9982816,
				"z": 1.1215525355,
				"element": "O" 
			},
			{
				"x": -0.8253134744,
				"y": -3.4009518626,
				"z": 1.306686963,
				"element": "C" 
			},
			{
				"x": 0.0629767023,
				"y": -3.9165354702,
				"z": 1.9408086496,
				"element": "O" 
			},
			{
				"x": -0.5854163241,
				"y": -2.0512198469,
				"z": 0.6288530696,
				"element": "C" 
			},
			{
				"x": 0.6408492475,
				"y": -1.9214181762,
				"z": -0.0280718582,
				"element": "C" 
			},
			{
				"x": 1.4661762735,
				"y": -2.9574553366,
				"z": -0.1724465713,
				"element": "F" 
			},
			{
				"x": 1.0508043851,
				"y": -0.7123456639,
				"z": -0.5926052974,
				"element": "C" 
			},
			{
				"x": 2.215597167,
				"y": -0.6338646003,
				"z": -1.2310131757,
				"element": "F" 
			},
			{
				"x": 0.2407070336,
				"y": 0.4094290356,
				"z": -0.4858836381,
				"element": "C" 
			},
			{
				"x": 0.620165817,
				"y": 1.5679809861,
				"z": -1.023312057,
				"element": "F" 
			},
			{
				"x": -0.9822695434,
				"y": 0.3085103452,
				"z": 0.172983638,
				"element": "C" 
			},
			{
				"x": -1.7415753298,
				"y": 1.4079964421,
				"z": 0.2141340832,
				"element": "F" 
			},
			{
				"x": -1.4162677115,
				"y": -0.9030569589,
				"z": 0.7250271972,
				"element": "C" 
			},
			{
				"x": -2.7811925658,
				"y": -0.9645116906,
				"z": 1.3277910101,
				"element": "C" 
			},
			{
				"x": -3.0958411226,
				"y": 0.105252733,
				"z": 2.0624232903,
				"element": "O" 
			},
			{
				"x": -3.5622503633,
				"y": -1.890449345,
				"z": 1.1627261336,
				"element": "O" 
			},
			{
				"x": -2.6816378218,
				"y": -3.3574851558,
				"z": 0.8135459733,
				"element": "H" 
			},
			{
				"x": -4.0102887435,
				"y": -0.021993835,
				"z": 2.3707000543,
				"element": "H" 
			}
		],
		 "valence_orbital": [ 
			{
				"type": "occ",
				"energy": -0.33075,
				"method": "rhf"
			},
			{
				"type": "occ",
				"energy": -0.31709,
				"method": "rhf"
			},
			{
				"type": "occ",
				"energy": -0.29647,
				"method": "rhf"
			},
			{
				"type": "occ",
				"energy": -0.28723,
				"method": "rhf"
			},
			{
				"type": "occ",
				"energy": -0.27291,
				"method": "rhf"
			},
			{
				"type": "unocc",
				"energy": -0.08822,
				"method": "rhf"
			},
			{
				"type": "unocc",
				"energy": -0.05308,
				"method": "rhf"
			},
			{
				"type": "unocc",
				"energy": -0.00908,
				"method": "rhf"
			},
			{
				"type": "unocc",
				"energy": 0.0117,
				"method": "rhf"
			},
			{
				"type": "unocc",
				"energy": 0.01504,
				"method": "rhf"
			}
		],
		"cosmo_sigma_profile": { 
			"-0.025": 0.0,
			"-0.024": 0.0,
			"-0.023": 0.0,
			"-0.022": 0.0,
			"-0.021": 0.00634233876862,
			"-0.02": 0.762106745125,
			"-0.019": 1.04132967873,
			"-0.018": 0.862047934391,
			"-0.017": 0.849964706646,
			"-0.016": 0.378509223941,
			"-0.015": 1.35456406344,
			"-0.014": 1.03237982406,
			"-0.013": 0.446392775831,
			"-0.012": 0.650526939145,
			"-0.011": 0.657608218222,
			"-0.01": 2.12418433266,
			"-0.009": 3.33350602455,
			"-0.008": 2.39563117937,
			"-0.007": 2.99715394936,
			"-0.006": 9.62111321592,
			"-0.005": 19.0095935487,
			"-0.004": 14.3268414497,
			"-0.003": 10.5042482473,
			"-0.002": 8.64165627139,
			"-0.001": 8.60084057332,
			"0.0": 10.0487529096,
			"0.001": 18.1501569576,
			"0.002": 36.0377465183,
			"0.003": 9.2018263573,
			"0.004": 6.89754818452,
			"0.005": 5.75759480376,
			"0.006": 6.07336290269,
			"0.007": 4.78902865199,
			"0.008": 5.5018406528,
			"0.009": 5.67176979808,
			"0.01": 6.03176017617,
			"0.011": 5.53352909848,
			"0.012": 1.82191739917,
			"0.013": 0.117724588936,
			"0.014": 0.0,
			"0.015": 0.0,
			"0.016": 0.0,
			"0.017": 0.0,
			"0.018": 0.0,
			"0.019": 0.0,
			"0.02": 0.0,
			"0.021": 0.0,
			"0.022": 0.0,
			"0.023": 0.0,
			"0.024": 0.0,
			"0.025": 0.0
		}
	}
}
