{
	 "smiles": "CC1=C(N)C=C(C=C1)C1=NN=C2CCCCCN12", 
	 "Tm": 445.15, 
	 "num_atms": 36, 
	 "gaussian": { 
		 "optdone": 1, 
		 "sigma_profile": "yes", 
		 "theory": "DFT", 
		 "functional": "B3LYP", 
		 "basiset": "6-31G**", 
		 "properties": { 
			 "R2extent": 5763.0855, 
			 "electric_dipole_moment_norm": 7.47818053473, 
			 "electric_quadrupole_moment_norm": 14.8754014971, 
			 "total_energy": -763.351102738, 
			 "HOMO_LUMO_gap": 0.18446, 
			 "cosmo_polarized_energy": -23.11, 
			 "cosmo_cavitation_energy": 36.81, 
			 "cosmo_dispersion_energy": -26.97, 
			 "cosmo_repulsion_energy": 2.07, 
			 "cosmo_total_nonelectrostatic_energy": 11.91, 
			 "SMD_solvation_energy": 2.79 
		},
		"coords": [
			{
				"x": 4.5402094974,
				"y": -3.2240818379,
				"z": 0.2630811325,
				"element": "C" 
			},
			{
				"x": 3.4315112145,
				"y": -2.2056905688,
				"z": 0.1779464631,
				"element": "C" 
			},
			{
				"x": 2.4471771008,
				"y": -2.1363211041,
				"z": 1.1894259308,
				"element": "C" 
			},
			{
				"x": 2.5270883067,
				"y": -2.9755218874,
				"z": 2.3064299261,
				"element": "N" 
			},
			{
				"x": 1.431210742,
				"y": -1.1727675531,
				"z": 1.1049620754,
				"element": "C" 
			},
			{
				"x": 1.367175117,
				"y": -0.2741695049,
				"z": 0.0305976439,
				"element": "C" 
			},
			{
				"x": 2.3498204343,
				"y": -0.3396596541,
				"z": -0.9688366843,
				"element": "C" 
			},
			{
				"x": 3.3576106134,
				"y": -1.2953141431,
				"z": -0.880005976,
				"element": "C" 
			},
			{
				"x": 0.3396048127,
				"y": 0.7742017066,
				"z": -0.0715091562,
				"element": "C" 
			},
			{
				"x": 0.5763245668,
				"y": 1.9833582065,
				"z": -0.5414547026,
				"element": "N" 
			},
			{
				"x": -0.5995347172,
				"y": 2.689629303,
				"z": -0.5008222684,
				"element": "N" 
			},
			{
				"x": -1.5326023158,
				"y": 1.8977164234,
				"z": -0.0196153437,
				"element": "C" 
			},
			{
				"x": -2.9595977837,
				"y": 2.323754281,
				"z": 0.1741242138,
				"element": "C" 
			},
			{
				"x": -3.6644606192,
				"y": 1.6494420878,
				"z": 1.362003294,
				"element": "C" 
			},
			{
				"x": -4.1422121853,
				"y": 0.2173976778,
				"z": 1.057517779,
				"element": "C" 
			},
			{
				"x": -3.1444079078,
				"y": -0.6322109468,
				"z": 0.2490836506,
				"element": "C" 
			},
			{
				"x": -1.6919289229,
				"y": -0.5506706229,
				"z": 0.7313142478,
				"element": "C" 
			},
			{
				"x": -0.9971891086,
				"y": 0.6607178586,
				"z": 0.2765841652,
				"element": "N" 
			},
			{
				"x": 5.2409057233,
				"y": -3.1109245998,
				"z": -0.5677260807,
				"element": "H" 
			},
			{
				"x": 5.1061877961,
				"y": -3.1240454057,
				"z": 1.197822145,
				"element": "H" 
			},
			{
				"x": 4.1598020444,
				"y": -4.255464648,
				"z": 0.2272655418,
				"element": "H" 
			},
			{
				"x": 2.9618566404,
				"y": -3.8731912219,
				"z": 2.1453168883,
				"element": "H" 
			},
			{
				"x": 1.6688080268,
				"y": -3.066013755,
				"z": 2.832332804,
				"element": "H" 
			},
			{
				"x": 0.7139914722,
				"y": -1.1048260817,
				"z": 1.9182097835,
				"element": "H" 
			},
			{
				"x": 2.3136271433,
				"y": 0.3634208781,
				"z": -1.7925318172,
				"element": "H" 
			},
			{
				"x": 4.1159560024,
				"y": -1.3412989444,
				"z": -1.6579159815,
				"element": "H" 
			},
			{
				"x": -2.9285094521,
				"y": 3.4089891566,
				"z": 0.305007196,
				"element": "H" 
			},
			{
				"x": -3.5349103306,
				"y": 2.1477233433,
				"z": -0.7461845349,
				"element": "H" 
			},
			{
				"x": -2.9835098902,
				"y": 1.6461492966,
				"z": 2.222204379,
				"element": "H" 
			},
			{
				"x": -4.5268229723,
				"y": 2.2538887845,
				"z": 1.6637648027,
				"element": "H" 
			},
			{
				"x": -4.3708597848,
				"y": -0.2899992534,
				"z": 2.0032157782,
				"element": "H" 
			},
			{
				"x": -5.0849046655,
				"y": 0.2579315675,
				"z": 0.4979320014,
				"element": "H" 
			},
			{
				"x": -3.4546779257,
				"y": -1.6824649668,
				"z": 0.2947806721,
				"element": "H" 
			},
			{
				"x": -3.1711260242,
				"y": -0.355327299,
				"z": -0.811120506,
				"element": "H" 
			},
			{
				"x": -1.1229681017,
				"y": -1.3985491603,
				"z": 0.3442982863,
				"element": "H" 
			},
			{
				"x": -1.6545445468,
				"y": -0.6098074123,
				"z": 1.8273022514,
				"element": "H" 
			}
		],
		 "valence_orbital": [ 
			{
				"type": "occ",
				"energy": -0.27212,
				"method": "rhf"
			},
			{
				"type": "occ",
				"energy": -0.25927,
				"method": "rhf"
			},
			{
				"type": "occ",
				"energy": -0.23134,
				"method": "rhf"
			},
			{
				"type": "occ",
				"energy": -0.22023,
				"method": "rhf"
			},
			{
				"type": "occ",
				"energy": -0.19973,
				"method": "rhf"
			},
			{
				"type": "unocc",
				"energy": -0.01527,
				"method": "rhf"
			},
			{
				"type": "unocc",
				"energy": 0.01294,
				"method": "rhf"
			},
			{
				"type": "unocc",
				"energy": 0.04144,
				"method": "rhf"
			},
			{
				"type": "unocc",
				"energy": 0.0655,
				"method": "rhf"
			},
			{
				"type": "unocc",
				"energy": 0.07166,
				"method": "rhf"
			}
		],
		"cosmo_sigma_profile": { 
			"-0.025": 0.0,
			"-0.024": 0.0,
			"-0.023": 0.0,
			"-0.022": 0.0,
			"-0.021": 0.0,
			"-0.02": 0.0,
			"-0.019": 0.0,
			"-0.018": 0.0,
			"-0.017": 0.0,
			"-0.016": 0.0,
			"-0.015": 0.0,
			"-0.014": 0.0,
			"-0.013": 0.169482160406,
			"-0.012": 1.66614849816,
			"-0.011": 2.77511295797,
			"-0.01": 2.86739784845,
			"-0.009": 3.13119900939,
			"-0.008": 3.14446912717,
			"-0.007": 5.25279934438,
			"-0.006": 6.25119880804,
			"-0.005": 17.8181685776,
			"-0.004": 31.9860397249,
			"-0.003": 37.0641680892,
			"-0.002": 32.6885492844,
			"-0.001": 25.5972026208,
			"0.0": 23.3450310163,
			"0.001": 12.1463107139,
			"0.002": 9.84187829508,
			"0.003": 8.05649730536,
			"0.004": 9.03032989253,
			"0.005": 10.8528079345,
			"0.006": 10.2745382656,
			"0.007": 4.72139441125,
			"0.008": 2.81564255525,
			"0.009": 2.03300299144,
			"0.01": 3.8810975374,
			"0.011": 2.10941480111,
			"0.012": 2.91351845698,
			"0.013": 3.28422679488,
			"0.014": 4.27322199431,
			"0.015": 3.0120611764,
			"0.016": 2.45271751636,
			"0.017": 2.35444849982,
			"0.018": 1.07298438981,
			"0.019": 0.0,
			"0.02": 0.0,
			"0.021": 0.0,
			"0.022": 0.0,
			"0.023": 0.0,
			"0.024": 0.0,
			"0.025": 0.0
		}
	}
}
