{
	 "smiles": "CC(C)N1C=C(C=N1)S(Cl)(=O)=O", 
	 "Tm": 327.15, 
	 "num_atms": 21, 
	 "gaussian": { 
		 "optdone": 1, 
		 "sigma_profile": "yes", 
		 "theory": "DFT", 
		 "functional": "B3LYP", 
		 "basiset": "6-31G**", 
		 "properties": { 
			 "R2extent": 4029.1858, 
			 "electric_dipole_moment_norm": 6.62600312783, 
			 "electric_quadrupole_moment_norm": 10.8023161077, 
			 "total_energy": -1352.30963575, 
			 "HOMO_LUMO_gap": 0.20202, 
			 "cosmo_polarized_energy": -12.09, 
			 "cosmo_cavitation_energy": 28.51, 
			 "cosmo_dispersion_energy": -20.76, 
			 "cosmo_repulsion_energy": 1.64, 
			 "cosmo_total_nonelectrostatic_energy": 9.38, 
			 "SMD_solvation_energy": 3.15 
		},
		"coords": [
			{
				"x": -1.637845426,
				"y": -0.9790330526,
				"z": -1.8824952674,
				"element": "C" 
			},
			{
				"x": -1.1682748927,
				"y": 0.4211992362,
				"z": -1.4722115686,
				"element": "C" 
			},
			{
				"x": -0.1155004016,
				"y": 0.9969209836,
				"z": -2.4183130151,
				"element": "C" 
			},
			{
				"x": -0.6785848768,
				"y": 0.4000685953,
				"z": -0.0785526038,
				"element": "N" 
			},
			{
				"x": 0.5869685446,
				"y": 0.3424856909,
				"z": 0.3800117713,
				"element": "C" 
			},
			{
				"x": 0.4836289854,
				"y": 0.2474492464,
				"z": 1.7620123346,
				"element": "C" 
			},
			{
				"x": -0.9015188076,
				"y": 0.2587287291,
				"z": 2.0448907573,
				"element": "C" 
			},
			{
				"x": -1.5995949617,
				"y": 0.3431656023,
				"z": 0.9213613726,
				"element": "N" 
			},
			{
				"x": 1.816379986,
				"y": 0.1463017996,
				"z": 2.8775821051,
				"element": "S" 
			},
			{
				"x": 2.1543935907,
				"y": 2.2007008546,
				"z": 3.3738660555,
				"element": "Cl" 
			},
			{
				"x": 3.0089902056,
				"y": -0.285684696,
				"z": 2.1583090132,
				"element": "O" 
			},
			{
				"x": 1.364889277,
				"y": -0.4864073886,
				"z": 4.1094824856,
				"element": "O" 
			},
			{
				"x": -2.0941738128,
				"y": -0.9431611074,
				"z": -2.8762593291,
				"element": "H" 
			},
			{
				"x": -0.7957332753,
				"y": -1.6781867682,
				"z": -1.9152954163,
				"element": "H" 
			},
			{
				"x": -2.3780358204,
				"y": -1.3560118665,
				"z": -1.1730989491,
				"element": "H" 
			},
			{
				"x": -2.0323817558,
				"y": 1.0917701874,
				"z": -1.4412257302,
				"element": "H" 
			},
			{
				"x": 0.7520525432,
				"y": 0.3353131228,
				"z": -2.5125285011,
				"element": "H" 
			},
			{
				"x": -0.5523469818,
				"y": 1.1028295679,
				"z": -3.4146797803,
				"element": "H" 
			},
			{
				"x": 0.2263562073,
				"y": 1.9828948318,
				"z": -2.0908371535,
				"element": "H" 
			},
			{
				"x": 1.4578152735,
				"y": 0.3660859328,
				"z": -0.2552715591,
				"element": "H" 
			},
			{
				"x": -1.3916836007,
				"y": 0.2050704987,
				"z": 3.0063529783,
				"element": "H" 
			}
		],
		 "valence_orbital": [ 
			{
				"type": "occ",
				"energy": -0.33108,
				"method": "rhf"
			},
			{
				"type": "occ",
				"energy": -0.31368,
				"method": "rhf"
			},
			{
				"type": "occ",
				"energy": -0.30764,
				"method": "rhf"
			},
			{
				"type": "occ",
				"energy": -0.29066,
				"method": "rhf"
			},
			{
				"type": "occ",
				"energy": -0.28282,
				"method": "rhf"
			},
			{
				"type": "unocc",
				"energy": -0.0808,
				"method": "rhf"
			},
			{
				"type": "unocc",
				"energy": -0.01939,
				"method": "rhf"
			},
			{
				"type": "unocc",
				"energy": 0.00619,
				"method": "rhf"
			},
			{
				"type": "unocc",
				"energy": 0.06186,
				"method": "rhf"
			},
			{
				"type": "unocc",
				"energy": 0.07694,
				"method": "rhf"
			}
		],
		"cosmo_sigma_profile": { 
			"-0.025": 0.0,
			"-0.024": 0.0,
			"-0.023": 0.0,
			"-0.022": 0.0,
			"-0.021": 0.0,
			"-0.02": 0.0,
			"-0.019": 0.0,
			"-0.018": 0.0,
			"-0.017": 0.0,
			"-0.016": 0.0,
			"-0.015": 0.0,
			"-0.014": 0.0,
			"-0.013": 0.0,
			"-0.012": 0.0,
			"-0.011": 0.674052896292,
			"-0.01": 2.29168878719,
			"-0.009": 3.57793256532,
			"-0.008": 3.69459628113,
			"-0.007": 4.23178800738,
			"-0.006": 6.77554902124,
			"-0.005": 16.7200983018,
			"-0.004": 19.8389997305,
			"-0.003": 17.5719950651,
			"-0.002": 18.541421524,
			"-0.001": 24.5868600511,
			"0.0": 20.7117159857,
			"0.001": 10.7435738378,
			"0.002": 11.1594993338,
			"0.003": 13.5187618502,
			"0.004": 15.0978182596,
			"0.005": 5.25802677963,
			"0.006": 4.20515964459,
			"0.007": 7.03102536313,
			"0.008": 11.8546141418,
			"0.009": 6.97132008263,
			"0.01": 1.18741468254,
			"0.011": 0.770622955975,
			"0.012": 0.949641788839,
			"0.013": 0.817143578952,
			"0.014": 0.198227277793,
			"0.015": 0.0,
			"0.016": 0.0,
			"0.017": 0.0,
			"0.018": 0.0,
			"0.019": 0.0,
			"0.02": 0.0,
			"0.021": 0.0,
			"0.022": 0.0,
			"0.023": 0.0,
			"0.024": 0.0,
			"0.025": 0.0
		}
	}
}
