{
	 "smiles": "CC(Cl)C(=O)NCC(=O)NC1=C(F)C(F)=C(F)C=C1", 
	 "Tm": 402.15, 
	 "num_atms": 29, 
	 "gaussian": { 
		 "optdone": 1, 
		 "sigma_profile": "yes", 
		 "theory": "DFT", 
		 "functional": "B3LYP", 
		 "basiset": "6-31G**", 
		 "properties": { 
			 "R2extent": 7518.4837, 
			 "electric_dipole_moment_norm": 5.55745896431, 
			 "electric_quadrupole_moment_norm": 34.614617402, 
			 "total_energy": -1444.85098344, 
			 "HOMO_LUMO_gap": 0.20592, 
			 "cosmo_polarized_energy": -17.86, 
			 "cosmo_cavitation_energy": 37.1, 
			 "cosmo_dispersion_energy": -24.83, 
			 "cosmo_repulsion_energy": 1.89, 
			 "cosmo_total_nonelectrostatic_energy": 14.16, 
			 "SMD_solvation_energy": 8.13 
		},
		"coords": [
			{
				"x": -1.7428142185,
				"y": 0.5166610141,
				"z": -1.7090968632,
				"element": "C" 
			},
			{
				"x": -0.9113930124,
				"y": 1.7934440252,
				"z": -1.7955379266,
				"element": "C" 
			},
			{
				"x": -0.4262809758,
				"y": 2.3615758624,
				"z": -0.1145325331,
				"element": "Cl" 
			},
			{
				"x": 0.265762377,
				"y": 1.6786567301,
				"z": -2.7782759295,
				"element": "C" 
			},
			{
				"x": 0.113363849,
				"y": 2.1688106267,
				"z": -3.8913014846,
				"element": "O" 
			},
			{
				"x": 1.3979497707,
				"y": 0.9996579215,
				"z": -2.4483419296,
				"element": "N" 
			},
			{
				"x": 1.7576369421,
				"y": 0.2750525633,
				"z": -1.2500220027,
				"element": "C" 
			},
			{
				"x": 3.0891035299,
				"y": -0.428954773,
				"z": -1.5186361499,
				"element": "C" 
			},
			{
				"x": 3.6388632408,
				"y": -0.3884873993,
				"z": -2.6092312928,
				"element": "O" 
			},
			{
				"x": 3.6657267598,
				"y": -1.0949358062,
				"z": -0.4615080066,
				"element": "N" 
			},
			{
				"x": 3.2034633672,
				"y": -1.205626154,
				"z": 0.8750251676,
				"element": "C" 
			},
			{
				"x": 2.032655875,
				"y": -1.9149954079,
				"z": 1.170999281,
				"element": "C" 
			},
			{
				"x": 1.3020855038,
				"y": -2.465537147,
				"z": 0.1882997368,
				"element": "F" 
			},
			{
				"x": 1.5872370624,
				"y": -2.0575286138,
				"z": 2.4822767038,
				"element": "C" 
			},
			{
				"x": 0.4583728849,
				"y": -2.7254583595,
				"z": 2.7367730396,
				"element": "F" 
			},
			{
				"x": 2.3446135559,
				"y": -1.5203738114,
				"z": 3.521826293,
				"element": "C" 
			},
			{
				"x": 1.9076894187,
				"y": -1.6780355638,
				"z": 4.7774501427,
				"element": "F" 
			},
			{
				"x": 3.5228395753,
				"y": -0.8322546266,
				"z": 3.2590924002,
				"element": "C" 
			},
			{
				"x": 3.9415377365,
				"y": -0.6721853571,
				"z": 1.9394030871,
				"element": "C" 
			},
			{
				"x": -2.6358220159,
				"y": 0.6839670056,
				"z": -1.1024679487,
				"element": "H" 
			},
			{
				"x": -1.1822906626,
				"y": -0.3141427975,
				"z": -1.2735085413,
				"element": "H" 
			},
			{
				"x": -2.0545449468,
				"y": 0.2341467563,
				"z": -2.7201480549,
				"element": "H" 
			},
			{
				"x": -1.5128705852,
				"y": 2.6111293357,
				"z": -2.18806654,
				"element": "H" 
			},
			{
				"x": 2.076596357,
				"y": 0.9163177305,
				"z": -3.2005347052,
				"element": "H" 
			},
			{
				"x": 1.0127994156,
				"y": -0.4815922901,
				"z": -0.9815540675,
				"element": "H" 
			},
			{
				"x": 1.8701152166,
				"y": 0.9344839183,
				"z": -0.3822495355,
				"element": "H" 
			},
			{
				"x": 4.5771018063,
				"y": -1.4772450586,
				"z": -0.6836378038,
				"element": "H" 
			},
			{
				"x": 4.0883493586,
				"y": -0.4225765645,
				"z": 4.0879620467,
				"element": "H" 
			},
			{
				"x": 4.850652814,
				"y": -0.1230737595,
				"z": 1.7186434171,
				"element": "H" 
			}
		],
		 "valence_orbital": [ 
			{
				"type": "occ",
				"energy": -0.28697,
				"method": "rhf"
			},
			{
				"type": "occ",
				"energy": -0.2814,
				"method": "rhf"
			},
			{
				"type": "occ",
				"energy": -0.26622,
				"method": "rhf"
			},
			{
				"type": "occ",
				"energy": -0.25544,
				"method": "rhf"
			},
			{
				"type": "occ",
				"energy": -0.25034,
				"method": "rhf"
			},
			{
				"type": "unocc",
				"energy": -0.04442,
				"method": "rhf"
			},
			{
				"type": "unocc",
				"energy": -0.03874,
				"method": "rhf"
			},
			{
				"type": "unocc",
				"energy": -0.00962,
				"method": "rhf"
			},
			{
				"type": "unocc",
				"energy": 0.00209,
				"method": "rhf"
			},
			{
				"type": "unocc",
				"energy": 0.02408,
				"method": "rhf"
			}
		],
		"cosmo_sigma_profile": { 
			"-0.025": 0.0,
			"-0.024": 0.0,
			"-0.023": 0.0,
			"-0.022": 0.0,
			"-0.021": 0.0,
			"-0.02": 0.0,
			"-0.019": 0.0,
			"-0.018": 0.0,
			"-0.017": 0.0,
			"-0.016": 0.211135089083,
			"-0.015": 0.953199044655,
			"-0.014": 1.35497736711,
			"-0.013": 0.963234096664,
			"-0.012": 1.18294353185,
			"-0.011": 1.00604894019,
			"-0.01": 1.05803633465,
			"-0.009": 1.76887007587,
			"-0.008": 7.1660898033,
			"-0.007": 9.99175687905,
			"-0.006": 12.6358684691,
			"-0.005": 17.1902512028,
			"-0.004": 18.1216821368,
			"-0.003": 22.7710763107,
			"-0.002": 27.7964984988,
			"-0.001": 24.781537099,
			"0.0": 20.4046138425,
			"0.001": 20.1367858806,
			"0.002": 23.2880464843,
			"0.003": 31.9600808204,
			"0.004": 8.83479530403,
			"0.005": 7.52474050356,
			"0.006": 8.20056618917,
			"0.007": 1.90076362629,
			"0.008": 1.95035016479,
			"0.009": 3.08213911741,
			"0.01": 2.66080780434,
			"0.011": 4.83840015398,
			"0.012": 5.62567633027,
			"0.013": 6.75836051091,
			"0.014": 2.1884827218,
			"0.015": 0.0,
			"0.016": 0.0,
			"0.017": 0.0,
			"0.018": 0.0,
			"0.019": 0.0,
			"0.02": 0.0,
			"0.021": 0.0,
			"0.022": 0.0,
			"0.023": 0.0,
			"0.024": 0.0,
			"0.025": 0.0
		}
	}
}
