{
	 "smiles": "COC(=O)C1=CC2=CC=C(C=C2C=C1)C(=O)OC", 
	 "Tm": 463.15, 
	 "num_atms": 30, 
	 "gaussian": { 
		 "optdone": 1, 
		 "sigma_profile": "yes", 
		 "theory": "DFT", 
		 "functional": "B3LYP", 
		 "basiset": "6-31G**", 
		 "properties": { 
			 "R2extent": 7048.9489, 
			 "electric_dipole_moment_norm": 3.27424792891, 
			 "electric_quadrupole_moment_norm": 8.48975801245, 
			 "total_energy": -841.653725037, 
			 "HOMO_LUMO_gap": 0.15582, 
			 "cosmo_polarized_energy": -11.61, 
			 "cosmo_cavitation_energy": 35.31, 
			 "cosmo_dispersion_energy": -25.71, 
			 "cosmo_repulsion_energy": 1.96, 
			 "cosmo_total_nonelectrostatic_energy": 11.55, 
			 "SMD_solvation_energy": 8.91 
		},
		"coords": [
			{
				"x": 0.7801879737,
				"y": 4.1288692183,
				"z": -4.3489399,
				"element": "C" 
			},
			{
				"x": 0.5934551079,
				"y": 3.1997829518,
				"z": -3.2703026239,
				"element": "O" 
			},
			{
				"x": 0.6170088218,
				"y": 1.8946037037,
				"z": -3.6250185153,
				"element": "C" 
			},
			{
				"x": 0.7833147951,
				"y": 1.5211330167,
				"z": -4.7701497279,
				"element": "O" 
			},
			{
				"x": 0.4181998551,
				"y": 0.9797130579,
				"z": -2.4648832697,
				"element": "C" 
			},
			{
				"x": 0.2319266161,
				"y": 1.4481461264,
				"z": -1.1773962031,
				"element": "C" 
			},
			{
				"x": 0.046016928,
				"y": 0.5466595302,
				"z": -0.0995070671,
				"element": "C" 
			},
			{
				"x": -0.148209299,
				"y": 0.9962130743,
				"z": 1.2361314521,
				"element": "C" 
			},
			{
				"x": -0.3264452252,
				"y": 0.1033347569,
				"z": 2.2651885777,
				"element": "C" 
			},
			{
				"x": -0.3187167765,
				"y": -1.2949202171,
				"z": 2.0046037624,
				"element": "C" 
			},
			{
				"x": -0.1320684324,
				"y": -1.76032242,
				"z": 0.7162087456,
				"element": "C" 
			},
			{
				"x": 0.0538110423,
				"y": -0.8628862178,
				"z": -0.3627508555,
				"element": "C" 
			},
			{
				"x": 0.2479044337,
				"y": -1.3135301033,
				"z": -1.6987381258,
				"element": "C" 
			},
			{
				"x": 0.4255072144,
				"y": -0.4184435124,
				"z": -2.7241636118,
				"element": "C" 
			},
			{
				"x": -0.5075151907,
				"y": -2.3053063134,
				"z": 3.0852868014,
				"element": "C" 
			},
			{
				"x": -0.5086179251,
				"y": -3.5088241626,
				"z": 2.9129182209,
				"element": "O" 
			},
			{
				"x": -0.6805311378,
				"y": -1.7333666956,
				"z": 4.299038064,
				"element": "O" 
			},
			{
				"x": -0.8682250474,
				"y": -2.6524600007,
				"z": 5.3861256164,
				"element": "C" 
			},
			{
				"x": 1.7487872027,
				"y": 3.9709555312,
				"z": -4.8299062988,
				"element": "H" 
			},
			{
				"x": -0.0069120445,
				"y": 4.0123864512,
				"z": -5.0981783685,
				"element": "H" 
			},
			{
				"x": 0.7342597415,
				"y": 5.1189408233,
				"z": -3.8954956745,
				"element": "H" 
			},
			{
				"x": 0.2273368636,
				"y": 2.5157600442,
				"z": -0.9859463576,
				"element": "H" 
			},
			{
				"x": -0.1534969963,
				"y": 2.0651687722,
				"z": 1.4316353215,
				"element": "H" 
			},
			{
				"x": -0.4740521798,
				"y": 0.4503507423,
				"z": 3.2808657401,
				"element": "H" 
			},
			{
				"x": -0.1299944536,
				"y": -2.8318119771,
				"z": 0.5418368753,
				"element": "H" 
			},
			{
				"x": 0.2530900261,
				"y": -2.3823224328,
				"z": -1.8940649794,
				"element": "H" 
			},
			{
				"x": 0.5742548754,
				"y": -0.7481511558,
				"z": -3.7463301246,
				"element": "H" 
			},
			{
				"x": -0.0001989535,
				"y": -3.3083937562,
				"z": 5.4895264937,
				"element": "H" 
			},
			{
				"x": -0.9906037533,
				"y": -2.0349170247,
				"z": 6.2758347815,
				"element": "H" 
			},
			{
				"x": -1.755674082,
				"y": -3.2683618113,
				"z": 5.220271251,
				"element": "H" 
			}
		],
		 "valence_orbital": [ 
			{
				"type": "occ",
				"energy": -0.29585,
				"method": "rhf"
			},
			{
				"type": "occ",
				"energy": -0.27677,
				"method": "rhf"
			},
			{
				"type": "occ",
				"energy": -0.27638,
				"method": "rhf"
			},
			{
				"type": "occ",
				"energy": -0.25673,
				"method": "rhf"
			},
			{
				"type": "occ",
				"energy": -0.22955,
				"method": "rhf"
			},
			{
				"type": "unocc",
				"energy": -0.07373,
				"method": "rhf"
			},
			{
				"type": "unocc",
				"energy": -0.036,
				"method": "rhf"
			},
			{
				"type": "unocc",
				"energy": -0.01132,
				"method": "rhf"
			},
			{
				"type": "unocc",
				"energy": 0.02971,
				"method": "rhf"
			},
			{
				"type": "unocc",
				"energy": 0.0633,
				"method": "rhf"
			}
		],
		"cosmo_sigma_profile": { 
			"-0.025": 0.0,
			"-0.024": 0.0,
			"-0.023": 0.0,
			"-0.022": 0.0,
			"-0.021": 0.0,
			"-0.02": 0.0,
			"-0.019": 0.0,
			"-0.018": 0.0,
			"-0.017": 0.0,
			"-0.016": 0.0,
			"-0.015": 0.0,
			"-0.014": 0.0,
			"-0.013": 0.0,
			"-0.012": 0.0,
			"-0.011": 0.0,
			"-0.01": 0.0,
			"-0.009": 0.0,
			"-0.008": 0.595360835557,
			"-0.007": 7.81702744982,
			"-0.006": 18.3188303237,
			"-0.005": 22.6650235635,
			"-0.004": 24.0950019596,
			"-0.003": 27.2698048308,
			"-0.002": 18.6280974636,
			"-0.001": 17.3141732828,
			"0.0": 19.4764323409,
			"0.001": 28.8698060601,
			"0.002": 33.0573686259,
			"0.003": 17.3596065982,
			"0.004": 8.36662341309,
			"0.005": 7.60034327706,
			"0.006": 4.55799099625,
			"0.007": 2.52313935723,
			"0.008": 2.44229899586,
			"0.009": 3.92471143048,
			"0.01": 3.84962778249,
			"0.011": 6.35073136454,
			"0.012": 7.34952820475,
			"0.013": 0.167049655703,
			"0.014": 0.0,
			"0.015": 0.0,
			"0.016": 0.0,
			"0.017": 0.0,
			"0.018": 0.0,
			"0.019": 0.0,
			"0.02": 0.0,
			"0.021": 0.0,
			"0.022": 0.0,
			"0.023": 0.0,
			"0.024": 0.0,
			"0.025": 0.0
		}
	}
}
