{
	 "smiles": "CCOC(=O)C1=CC=C(NC(=O)C(C(F)(F)F)C(F)(F)F)C=C1", 
	 "Tm": 439.15, 
	 "num_atms": 34, 
	 "gaussian": { 
		 "optdone": 1, 
		 "sigma_profile": "yes", 
		 "theory": "DFT", 
		 "functional": "B3LYP", 
		 "basiset": "6-31G**", 
		 "properties": { 
			 "R2extent": 10224.2654, 
			 "electric_dipole_moment_norm": 4.04771453168, 
			 "electric_quadrupole_moment_norm": 19.7643587556, 
			 "total_energy": -1381.51762326, 
			 "HOMO_LUMO_gap": 0.19098, 
			 "cosmo_polarized_energy": -15.59, 
			 "cosmo_cavitation_energy": 41.5, 
			 "cosmo_dispersion_energy": -27.98, 
			 "cosmo_repulsion_energy": 2.05, 
			 "cosmo_total_nonelectrostatic_energy": 15.57, 
			 "SMD_solvation_energy": 10.77 
		},
		"coords": [
			{
				"x": -2.9044163119,
				"y": 2.5073486543,
				"z": -5.2798326618,
				"element": "C" 
			},
			{
				"x": -3.0686294727,
				"y": 1.0223831049,
				"z": -4.9943842059,
				"element": "C" 
			},
			{
				"x": -2.2862409439,
				"y": 0.6173814157,
				"z": -3.8438657498,
				"element": "O" 
			},
			{
				"x": -2.8624691836,
				"y": 0.7833536992,
				"z": -2.6335596772,
				"element": "C" 
			},
			{
				"x": -3.9782715572,
				"y": 1.2394353697,
				"z": -2.4693658244,
				"element": "O" 
			},
			{
				"x": -1.9754407612,
				"y": 0.3387141249,
				"z": -1.5200334838,
				"element": "C" 
			},
			{
				"x": -2.4566607785,
				"y": 0.4595127633,
				"z": -0.209049745,
				"element": "C" 
			},
			{
				"x": -1.6698325417,
				"y": 0.0714750713,
				"z": 0.8675818406,
				"element": "C" 
			},
			{
				"x": -0.3884993416,
				"y": -0.4574871478,
				"z": 0.6487327387,
				"element": "C" 
			},
			{
				"x": 0.3674123295,
				"y": -0.8829457176,
				"z": 1.7707089465,
				"element": "N" 
			},
			{
				"x": 1.6799200862,
				"y": -0.676296881,
				"z": 2.1293622479,
				"element": "C" 
			},
			{
				"x": 2.1492687069,
				"y": -1.1888892735,
				"z": 3.1290613441,
				"element": "O" 
			},
			{
				"x": 2.5196819119,
				"y": 0.2807781107,
				"z": 1.2637523389,
				"element": "C" 
			},
			{
				"x": 2.9513812159,
				"y": 1.4894299564,
				"z": 2.1038983097,
				"element": "C" 
			},
			{
				"x": 3.8095410944,
				"y": 1.1809447048,
				"z": 3.0798314397,
				"element": "F" 
			},
			{
				"x": 1.8576345186,
				"y": 2.0504252495,
				"z": 2.6644853859,
				"element": "F" 
			},
			{
				"x": 3.5303940697,
				"y": 2.4208067652,
				"z": 1.3200930812,
				"element": "F" 
			},
			{
				"x": 3.7046440111,
				"y": -0.4580082043,
				"z": 0.6373697966,
				"element": "C" 
			},
			{
				"x": 3.24559228,
				"y": -1.5334596895,
				"z": -0.0542200855,
				"element": "F" 
			},
			{
				"x": 4.5871321826,
				"y": -0.8994526363,
				"z": 1.5359574893,
				"element": "F" 
			},
			{
				"x": 4.3550933125,
				"y": 0.3323601628,
				"z": -0.2367818592,
				"element": "F" 
			},
			{
				"x": 0.084447229,
				"y": -0.6105096964,
				"z": -0.6630558056,
				"element": "C" 
			},
			{
				"x": -0.6999281589,
				"y": -0.1966717339,
				"z": -1.7371288016,
				"element": "C" 
			},
			{
				"x": -1.8499772673,
				"y": 2.7645458093,
				"z": -5.4166418454,
				"element": "H" 
			},
			{
				"x": -3.443654994,
				"y": 2.7694880413,
				"z": -6.1961348052,
				"element": "H" 
			},
			{
				"x": -3.3122605853,
				"y": 3.1036550649,
				"z": -4.4601593633,
				"element": "H" 
			},
			{
				"x": -4.1153742085,
				"y": 0.7680971124,
				"z": -4.8130279493,
				"element": "H" 
			},
			{
				"x": -2.6811357757,
				"y": 0.4105246688,
				"z": -5.8123014097,
				"element": "H" 
			},
			{
				"x": -3.4476857849,
				"y": 0.8726998465,
				"z": -0.0560580453,
				"element": "H" 
			},
			{
				"x": -2.0335079203,
				"y": 0.1877149366,
				"z": 1.8843296835,
				"element": "H" 
			},
			{
				"x": -0.1334346042,
				"y": -1.3900974265,
				"z": 2.4918290236,
				"element": "H" 
			},
			{
				"x": 1.9375801874,
				"y": 0.6899537576,
				"z": 0.4370858982,
				"element": "H" 
			},
			{
				"x": 1.047134366,
				"y": -1.0761607979,
				"z": -0.8391786127,
				"element": "H" 
			},
			{
				"x": -0.3334373105,
				"y": -0.3111491854,
				"z": -2.750499634,
				"element": "H" 
			}
		],
		 "valence_orbital": [ 
			{
				"type": "occ",
				"energy": -0.30763,
				"method": "rhf"
			},
			{
				"type": "occ",
				"energy": -0.28373,
				"method": "rhf"
			},
			{
				"type": "occ",
				"energy": -0.28344,
				"method": "rhf"
			},
			{
				"type": "occ",
				"energy": -0.28057,
				"method": "rhf"
			},
			{
				"type": "occ",
				"energy": -0.25568,
				"method": "rhf"
			},
			{
				"type": "unocc",
				"energy": -0.0647,
				"method": "rhf"
			},
			{
				"type": "unocc",
				"energy": -0.03133,
				"method": "rhf"
			},
			{
				"type": "unocc",
				"energy": -0.01235,
				"method": "rhf"
			},
			{
				"type": "unocc",
				"energy": 0.04105,
				"method": "rhf"
			},
			{
				"type": "unocc",
				"energy": 0.076,
				"method": "rhf"
			}
		],
		"cosmo_sigma_profile": { 
			"-0.025": 0.0,
			"-0.024": 0.0,
			"-0.023": 0.0,
			"-0.022": 0.0,
			"-0.021": 0.0,
			"-0.02": 0.0,
			"-0.019": 0.0,
			"-0.018": 0.0,
			"-0.017": 0.0,
			"-0.016": 0.49232487419,
			"-0.015": 1.07746443348,
			"-0.014": 1.32048467494,
			"-0.013": 1.4066016321,
			"-0.012": 0.938922476779,
			"-0.011": 1.66161953908,
			"-0.01": 3.05769404324,
			"-0.009": 2.93912004539,
			"-0.008": 3.81533108023,
			"-0.007": 5.38688812154,
			"-0.006": 10.5183752372,
			"-0.005": 13.5642404498,
			"-0.004": 18.8092209468,
			"-0.003": 22.1468464358,
			"-0.002": 23.7699031667,
			"-0.001": 27.2028401378,
			"0.0": 30.5471027147,
			"0.001": 41.6885759906,
			"0.002": 62.8087736231,
			"0.003": 14.4286418772,
			"0.004": 5.93858950854,
			"0.005": 6.07308513119,
			"0.006": 3.96734269466,
			"0.007": 3.32574320322,
			"0.008": 3.01332294809,
			"0.009": 4.0567866446,
			"0.01": 4.11124340942,
			"0.011": 7.33875001781,
			"0.012": 5.83547958637,
			"0.013": 0.104765043217,
			"0.014": 0.0,
			"0.015": 0.0,
			"0.016": 0.0,
			"0.017": 0.0,
			"0.018": 0.0,
			"0.019": 0.0,
			"0.02": 0.0,
			"0.021": 0.0,
			"0.022": 0.0,
			"0.023": 0.0,
			"0.024": 0.0,
			"0.025": 0.0
		}
	}
}
