{
	 "smiles": "CC(C)COC(=O)C1=C(O)C=CC=C1", 
	 "Tm": 279.05, 
	 "num_atms": 28, 
	 "gaussian": { 
		 "optdone": 1, 
		 "sigma_profile": "yes", 
		 "theory": "DFT", 
		 "functional": "B3LYP", 
		 "basiset": "6-31G**", 
		 "properties": { 
			 "R2extent": 3764.8442, 
			 "electric_dipole_moment_norm": 1.26937941137, 
			 "electric_quadrupole_moment_norm": 12.4052560659, 
			 "total_energy": -653.311483928, 
			 "HOMO_LUMO_gap": 0.18139, 
			 "cosmo_polarized_energy": -8.06, 
			 "cosmo_cavitation_energy": 31.11, 
			 "cosmo_dispersion_energy": -22.1, 
			 "cosmo_repulsion_energy": 1.73, 
			 "cosmo_total_nonelectrostatic_energy": 10.74, 
			 "SMD_solvation_energy": 6.48 
		},
		"coords": [
			{
				"x": 2.6147235568,
				"y": -2.9443420595,
				"z": -2.5030007498,
				"element": "C" 
			},
			{
				"x": 1.5844509512,
				"y": -2.0226921896,
				"z": -1.8336849956,
				"element": "C" 
			},
			{
				"x": 1.1626224583,
				"y": -0.8763951902,
				"z": -2.7624949058,
				"element": "C" 
			},
			{
				"x": 2.1593044075,
				"y": -1.5030190754,
				"z": -0.5137509352,
				"element": "C" 
			},
			{
				"x": 1.2161474427,
				"y": -0.657982207,
				"z": 0.1950227562,
				"element": "O" 
			},
			{
				"x": 0.3286681035,
				"y": -1.2795457383,
				"z": 1.0422230864,
				"element": "C" 
			},
			{
				"x": 0.3514852791,
				"y": -2.4789583914,
				"z": 1.2264428072,
				"element": "O" 
			},
			{
				"x": -0.6180813415,
				"y": -0.3342560928,
				"z": 1.676858115,
				"element": "C" 
			},
			{
				"x": -0.6626101603,
				"y": 1.0595833658,
				"z": 1.4210905033,
				"element": "C" 
			},
			{
				"x": 0.162461564,
				"y": 1.7039091219,
				"z": 0.568169365,
				"element": "O" 
			},
			{
				"x": -1.6204954665,
				"y": 1.8472154246,
				"z": 2.0810408487,
				"element": "C" 
			},
			{
				"x": -2.5128250137,
				"y": 1.2732493046,
				"z": 2.9747277645,
				"element": "C" 
			},
			{
				"x": -2.4776436137,
				"y": -0.1044054015,
				"z": 3.2365257425,
				"element": "C" 
			},
			{
				"x": -1.538189926,
				"y": -0.8893105729,
				"z": 2.5883896323,
				"element": "C" 
			},
			{
				"x": 2.8854886391,
				"y": -3.7849274427,
				"z": -1.8553372332,
				"element": "H" 
			},
			{
				"x": 2.2160310402,
				"y": -3.3558952862,
				"z": -3.4353179461,
				"element": "H" 
			},
			{
				"x": 3.5334861111,
				"y": -2.3983262398,
				"z": -2.7500169542,
				"element": "H" 
			},
			{
				"x": 0.6990564147,
				"y": -2.6206399063,
				"z": -1.5832167734,
				"element": "H" 
			},
			{
				"x": 0.4338031647,
				"y": -0.2172577512,
				"z": -2.2816793361,
				"element": "H" 
			},
			{
				"x": 0.7085372983,
				"y": -1.2657521982,
				"z": -3.679279062,
				"element": "H" 
			},
			{
				"x": 2.0281243593,
				"y": -0.2678218319,
				"z": -3.0532126067,
				"element": "H" 
			},
			{
				"x": 3.0272607012,
				"y": -0.8595360443,
				"z": -0.6875680986,
				"element": "H" 
			},
			{
				"x": 2.4395679934,
				"y": -2.3273257377,
				"z": 0.1446432419,
				"element": "H" 
			},
			{
				"x": 0.7852747714,
				"y": 1.0499000307,
				"z": 0.200169718,
				"element": "H" 
			},
			{
				"x": -1.6347115508,
				"y": 2.9107601826,
				"z": 1.8676453401,
				"element": "H" 
			},
			{
				"x": -3.2442835752,
				"y": 1.9025197337,
				"z": 3.474262595,
				"element": "H" 
			},
			{
				"x": -3.1768821712,
				"y": -0.5504765077,
				"z": 3.9360587343,
				"element": "H" 
			},
			{
				"x": -1.4821714378,
				"y": -1.9584712994,
				"z": 2.7626893461,
				"element": "H" 
			}
		],
		 "valence_orbital": [ 
			{
				"type": "occ",
				"energy": -0.3305,
				"method": "rhf"
			},
			{
				"type": "occ",
				"energy": -0.3041,
				"method": "rhf"
			},
			{
				"type": "occ",
				"energy": -0.28295,
				"method": "rhf"
			},
			{
				"type": "occ",
				"energy": -0.25851,
				"method": "rhf"
			},
			{
				"type": "occ",
				"energy": -0.22609,
				"method": "rhf"
			},
			{
				"type": "unocc",
				"energy": -0.0447,
				"method": "rhf"
			},
			{
				"type": "unocc",
				"energy": 0.00666,
				"method": "rhf"
			},
			{
				"type": "unocc",
				"energy": 0.05574,
				"method": "rhf"
			},
			{
				"type": "unocc",
				"energy": 0.08139,
				"method": "rhf"
			},
			{
				"type": "unocc",
				"energy": 0.093,
				"method": "rhf"
			}
		],
		"cosmo_sigma_profile": { 
			"-0.025": 0.0,
			"-0.024": 0.0,
			"-0.023": 0.0,
			"-0.022": 0.0,
			"-0.021": 0.0,
			"-0.02": 0.0,
			"-0.019": 0.0,
			"-0.018": 0.0,
			"-0.017": 0.0,
			"-0.016": 0.0,
			"-0.015": 0.0,
			"-0.014": 0.0,
			"-0.013": 0.0,
			"-0.012": 0.0,
			"-0.011": 0.0,
			"-0.01": 0.106899762155,
			"-0.009": 0.407474282107,
			"-0.008": 0.627861347037,
			"-0.007": 1.79137823025,
			"-0.006": 8.11812583419,
			"-0.005": 13.9883938079,
			"-0.004": 19.4590279275,
			"-0.003": 28.677098153,
			"-0.002": 30.2369967467,
			"-0.001": 24.4696966931,
			"0.0": 22.382247361,
			"0.001": 24.1594173098,
			"0.002": 15.8362244263,
			"0.003": 13.4446021222,
			"0.004": 13.0319116648,
			"0.005": 6.4217344358,
			"0.006": 1.92022613775,
			"0.007": 2.8156670419,
			"0.008": 3.60927640855,
			"0.009": 2.86365254435,
			"0.01": 3.38848202048,
			"0.011": 5.22483621508,
			"0.012": 2.49959018014,
			"0.013": 0.0,
			"0.014": 0.0,
			"0.015": 0.0,
			"0.016": 0.0,
			"0.017": 0.0,
			"0.018": 0.0,
			"0.019": 0.0,
			"0.02": 0.0,
			"0.021": 0.0,
			"0.022": 0.0,
			"0.023": 0.0,
			"0.024": 0.0,
			"0.025": 0.0
		}
	}
}
