{
	 "smiles": "O1C(=C2C=CC=CC2=C1C1=CC=CC=C1)C1=CC=CC=C1", 
	 "Tm": 408.15, 
	 "num_atms": 35, 
	 "gaussian": { 
		 "optdone": 1, 
		 "sigma_profile": "yes", 
		 "theory": "DFT", 
		 "functional": "B3LYP", 
		 "basiset": "6-31G**", 
		 "properties": { 
			 "R2extent": 7239.1266, 
			 "electric_dipole_moment_norm": 0.382926690112, 
			 "electric_quadrupole_moment_norm": 12.4954239512, 
			 "total_energy": -845.784396442, 
			 "HOMO_LUMO_gap": 0.11475, 
			 "cosmo_polarized_energy": -7.57, 
			 "cosmo_cavitation_energy": 38.81, 
			 "cosmo_dispersion_energy": -28.19, 
			 "cosmo_repulsion_energy": 2.09, 
			 "cosmo_total_nonelectrostatic_energy": 12.71, 
			 "SMD_solvation_energy": 6.34 
		},
		"coords": [
			{
				"x": 0.0082920097,
				"y": -0.3965851529,
				"z": -0.8544667105,
				"element": "O" 
			},
			{
				"x": -0.1084917982,
				"y": 0.6958442018,
				"z": -0.0453603247,
				"element": "C" 
			},
			{
				"x": -1.3334048286,
				"y": 0.6174247918,
				"z": 0.6152896492,
				"element": "C" 
			},
			{
				"x": -2.0171156805,
				"y": 1.471104185,
				"z": 1.5297834558,
				"element": "C" 
			},
			{
				"x": -3.238955629,
				"y": 1.0794334302,
				"z": 2.0131181208,
				"element": "C" 
			},
			{
				"x": -3.8307441304,
				"y": -0.1650323333,
				"z": 1.626360767,
				"element": "C" 
			},
			{
				"x": -3.2189942676,
				"y": -0.9985566256,
				"z": 0.7258589633,
				"element": "C" 
			},
			{
				"x": -1.9617815855,
				"y": -0.6125794479,
				"z": 0.175437089,
				"element": "C" 
			},
			{
				"x": -1.0922125086,
				"y": -1.1956891634,
				"z": -0.7448152341,
				"element": "C" 
			},
			{
				"x": -1.097160527,
				"y": -2.4124174962,
				"z": -1.5393765782,
				"element": "C" 
			},
			{
				"x": 0.1099235373,
				"y": -2.9459327554,
				"z": -2.036013861,
				"element": "C" 
			},
			{
				"x": 0.1109395335,
				"y": -4.1128758745,
				"z": -2.7939246249,
				"element": "C" 
			},
			{
				"x": -1.0857307251,
				"y": -4.7785633079,
				"z": -3.0728135612,
				"element": "C" 
			},
			{
				"x": -2.2886310078,
				"y": -4.2545667693,
				"z": -2.5943911772,
				"element": "C" 
			},
			{
				"x": -2.2991466651,
				"y": -3.0823589215,
				"z": -1.8426872942,
				"element": "C" 
			},
			{
				"x": 0.9874388808,
				"y": 1.6497172332,
				"z": -0.0742286569,
				"element": "C" 
			},
			{
				"x": 1.8817364434,
				"y": 1.6772608992,
				"z": -1.1640931877,
				"element": "C" 
			},
			{
				"x": 2.9302991191,
				"y": 2.5913365316,
				"z": -1.1983046009,
				"element": "C" 
			},
			{
				"x": 3.1125812703,
				"y": 3.5011093655,
				"z": -0.1533055556,
				"element": "C" 
			},
			{
				"x": 2.2389366566,
				"y": 3.4771124348,
				"z": 0.9360052657,
				"element": "C" 
			},
			{
				"x": 1.1923988215,
				"y": 2.5595738465,
				"z": 0.9820613938,
				"element": "C" 
			},
			{
				"x": -1.589045479,
				"y": 2.422241777,
				"z": 1.8256245183,
				"element": "H" 
			},
			{
				"x": -3.7737338922,
				"y": 1.7210040822,
				"z": 2.7073333422,
				"element": "H" 
			},
			{
				"x": -4.7868230313,
				"y": -0.4473503715,
				"z": 2.0573418573,
				"element": "H" 
			},
			{
				"x": -3.6770355955,
				"y": -1.9424810018,
				"z": 0.4526840121,
				"element": "H" 
			},
			{
				"x": 1.0430578368,
				"y": -2.4405364962,
				"z": -1.8121145507,
				"element": "H" 
			},
			{
				"x": 1.052460516,
				"y": -4.5090634163,
				"z": -3.1638676344,
				"element": "H" 
			},
			{
				"x": -1.0811456625,
				"y": -5.6913804755,
				"z": -3.6609947056,
				"element": "H" 
			},
			{
				"x": -3.2271864603,
				"y": -4.7533230495,
				"z": -2.8191982712,
				"element": "H" 
			},
			{
				"x": -3.2458726298,
				"y": -2.6645363217,
				"z": -1.5195450823,
				"element": "H" 
			},
			{
				"x": 1.7376993072,
				"y": 0.9820215405,
				"z": -1.9839703909,
				"element": "H" 
			},
			{
				"x": 3.605781412,
				"y": 2.5982036477,
				"z": -2.0491628738,
				"element": "H" 
			},
			{
				"x": 3.9293232428,
				"y": 4.2160512894,
				"z": -0.1849949862,
				"element": "H" 
			},
			{
				"x": 2.380632288,
				"y": 4.1676047425,
				"z": 1.7626392186,
				"element": "H" 
			},
			{
				"x": 0.5527112291,
				"y": 2.5236849815,
				"z": 1.8565922091,
				"element": "H" 
			}
		],
		 "valence_orbital": [ 
			{
				"type": "occ",
				"energy": -0.25503,
				"method": "rhf"
			},
			{
				"type": "occ",
				"energy": -0.25151,
				"method": "rhf"
			},
			{
				"type": "occ",
				"energy": -0.25149,
				"method": "rhf"
			},
			{
				"type": "occ",
				"energy": -0.24934,
				"method": "rhf"
			},
			{
				"type": "occ",
				"energy": -0.17686,
				"method": "rhf"
			},
			{
				"type": "unocc",
				"energy": -0.06211,
				"method": "rhf"
			},
			{
				"type": "unocc",
				"energy": -0.00951,
				"method": "rhf"
			},
			{
				"type": "unocc",
				"energy": -0.00643,
				"method": "rhf"
			},
			{
				"type": "unocc",
				"energy": -0.0015,
				"method": "rhf"
			},
			{
				"type": "unocc",
				"energy": -0.00089,
				"method": "rhf"
			}
		],
		"cosmo_sigma_profile": { 
			"-0.025": 0.0,
			"-0.024": 0.0,
			"-0.023": 0.0,
			"-0.022": 0.0,
			"-0.021": 0.0,
			"-0.02": 0.0,
			"-0.019": 0.0,
			"-0.018": 0.0,
			"-0.017": 0.0,
			"-0.016": 0.0,
			"-0.015": 0.0,
			"-0.014": 0.0,
			"-0.013": 0.0,
			"-0.012": 0.0,
			"-0.011": 0.0,
			"-0.01": 0.0,
			"-0.009": 0.0,
			"-0.008": 0.113613378669,
			"-0.007": 3.77749098266,
			"-0.006": 15.0856137845,
			"-0.005": 26.9023082215,
			"-0.004": 29.4878668292,
			"-0.003": 24.757596373,
			"-0.002": 19.209165546,
			"-0.001": 17.9757795945,
			"0.0": 18.8637606456,
			"0.001": 25.8046370961,
			"0.002": 30.7734363208,
			"0.003": 32.3961706437,
			"0.004": 32.1632515187,
			"0.005": 29.4498137532,
			"0.006": 6.6179211118,
			"0.007": 0.0,
			"0.008": 0.0,
			"0.009": 0.0,
			"0.01": 0.0,
			"0.011": 0.0,
			"0.012": 0.0,
			"0.013": 0.0,
			"0.014": 0.0,
			"0.015": 0.0,
			"0.016": 0.0,
			"0.017": 0.0,
			"0.018": 0.0,
			"0.019": 0.0,
			"0.02": 0.0,
			"0.021": 0.0,
			"0.022": 0.0,
			"0.023": 0.0,
			"0.024": 0.0,
			"0.025": 0.0
		}
	}
}
