{
	 "smiles": "COC(=O)C1=CC(Br)=CC=C1N", 
	 "Tm": 345.15, 
	 "num_atms": 20, 
	 "gaussian": { 
		 "optdone": 1, 
		 "sigma_profile": "yes", 
		 "theory": "DFT", 
		 "functional": "B3LYP", 
		 "basiset": "6-31G**", 
		 "properties": { 
			 "R2extent": 3698.6522, 
			 "electric_dipole_moment_norm": 2.10305093376, 
			 "electric_quadrupole_moment_norm": 13.0034328287, 
			 "total_energy": -3086.29739567, 
			 "HOMO_LUMO_gap": 0.15793, 
			 "cosmo_polarized_energy": -8.96, 
			 "cosmo_cavitation_energy": 26.48, 
			 "cosmo_dispersion_energy": -20.25, 
			 "cosmo_repulsion_energy": 1.62, 
			 "cosmo_total_nonelectrostatic_energy": 7.85, 
			 "SMD_solvation_energy": 4.77 
		},
		"coords": [
			{
				"x": -0.5701699572,
				"y": -0.7167468129,
				"z": 3.7729263423,
				"element": "C" 
			},
			{
				"x": -0.441262535,
				"y": -0.453796834,
				"z": 2.3680585306,
				"element": "O" 
			},
			{
				"x": -1.5644416136,
				"y": -0.0263666476,
				"z": 1.7498995864,
				"element": "C" 
			},
			{
				"x": -2.6171542866,
				"y": 0.1238253656,
				"z": 2.3631655488,
				"element": "O" 
			},
			{
				"x": -1.3753063905,
				"y": 0.2200892592,
				"z": 0.3079944,
				"element": "C" 
			},
			{
				"x": -0.1253484039,
				"y": -0.0257991419,
				"z": -0.292792222,
				"element": "C" 
			},
			{
				"x": 0.0605999409,
				"y": 0.1794950622,
				"z": -1.6466241902,
				"element": "C" 
			},
			{
				"x": 1.7649632132,
				"y": -0.1615698127,
				"z": -2.4462957595,
				"element": "Br" 
			},
			{
				"x": -0.9983926886,
				"y": 0.6358843786,
				"z": -2.4427095397,
				"element": "C" 
			},
			{
				"x": -2.2321736874,
				"y": 0.8859817712,
				"z": -1.8705682345,
				"element": "C" 
			},
			{
				"x": -2.4618733486,
				"y": 0.6926612054,
				"z": -0.4868680558,
				"element": "C" 
			},
			{
				"x": -3.6812753646,
				"y": 0.9782296052,
				"z": 0.0481543238,
				"element": "N" 
			},
			{
				"x": -1.3115340157,
				"y": -1.4992459308,
				"z": 3.953249242,
				"element": "H" 
			},
			{
				"x": 0.417110945,
				"y": -1.0422947682,
				"z": 4.1002902113,
				"element": "H" 
			},
			{
				"x": -0.8740384416,
				"y": 0.1859759197,
				"z": 4.3086829323,
				"element": "H" 
			},
			{
				"x": 0.6880734233,
				"y": -0.3829087779,
				"z": 0.3247993083,
				"element": "H" 
			},
			{
				"x": -0.8500556461,
				"y": 0.7932640379,
				"z": -3.5054595504,
				"element": "H" 
			},
			{
				"x": -3.0490166488,
				"y": 1.244772701,
				"z": -2.4911462788,
				"element": "H" 
			},
			{
				"x": -4.4579579068,
				"y": 1.164563053,
				"z": -0.5635517092,
				"element": "H" 
			},
			{
				"x": -3.8399465875,
				"y": 0.7333863669,
				"z": 1.0172951143,
				"element": "H" 
			}
		],
		 "valence_orbital": [ 
			{
				"type": "occ",
				"energy": -0.28404,
				"method": "rhf"
			},
			{
				"type": "occ",
				"energy": -0.28008,
				"method": "rhf"
			},
			{
				"type": "occ",
				"energy": -0.27781,
				"method": "rhf"
			},
			{
				"type": "occ",
				"energy": -0.26539,
				"method": "rhf"
			},
			{
				"type": "occ",
				"energy": -0.20494,
				"method": "rhf"
			},
			{
				"type": "unocc",
				"energy": -0.04701,
				"method": "rhf"
			},
			{
				"type": "unocc",
				"energy": 0.00366,
				"method": "rhf"
			},
			{
				"type": "unocc",
				"energy": 0.013,
				"method": "rhf"
			},
			{
				"type": "unocc",
				"energy": 0.05201,
				"method": "rhf"
			},
			{
				"type": "unocc",
				"energy": 0.08964,
				"method": "rhf"
			}
		],
		"cosmo_sigma_profile": { 
			"-0.025": 0.0,
			"-0.024": 0.0,
			"-0.023": 0.0,
			"-0.022": 0.0,
			"-0.021": 0.0,
			"-0.02": 0.0,
			"-0.019": 0.0,
			"-0.018": 0.0,
			"-0.017": 0.0,
			"-0.016": 0.0,
			"-0.015": 0.0,
			"-0.014": 0.599200167446,
			"-0.013": 1.56353805884,
			"-0.012": 1.52602756848,
			"-0.011": 1.33822051172,
			"-0.01": 1.11757426971,
			"-0.009": 2.20218923833,
			"-0.008": 2.96659325019,
			"-0.007": 5.01120151213,
			"-0.006": 9.34282057956,
			"-0.005": 12.0188464157,
			"-0.004": 14.1131950552,
			"-0.003": 15.0197450646,
			"-0.002": 12.7742696536,
			"-0.001": 11.5483308152,
			"0.0": 13.2773734424,
			"0.001": 16.0876371106,
			"0.002": 21.1341922798,
			"0.003": 26.188413766,
			"0.004": 17.7529054718,
			"0.005": 13.9641937395,
			"0.006": 4.40305790123,
			"0.007": 2.18124218301,
			"0.008": 2.06176569818,
			"0.009": 1.85067546366,
			"0.01": 1.6837770697,
			"0.011": 1.96357493484,
			"0.012": 1.09551374427,
			"0.013": 0.0183307563562,
			"0.014": 0.0,
			"0.015": 0.0,
			"0.016": 0.0,
			"0.017": 0.0,
			"0.018": 0.0,
			"0.019": 0.0,
			"0.02": 0.0,
			"0.021": 0.0,
			"0.022": 0.0,
			"0.023": 0.0,
			"0.024": 0.0,
			"0.025": 0.0
		}
	}
}
