{
	 "smiles": "CCN(CC)S(=O)(=O)C1=CC(C(O)=O)=C(C=C1)N1CCCCC1", 
	 "Tm": 431.15, 
	 "num_atms": 47, 
	 "gaussian": { 
		 "optdone": 1, 
		 "sigma_profile": "yes", 
		 "theory": "DFT", 
		 "functional": "B3LYP", 
		 "basiset": "6-31G**", 
		 "properties": { 
			 "R2extent": 10181.8987, 
			 "electric_dipole_moment_norm": 7.06727371834, 
			 "electric_quadrupole_moment_norm": 29.8089815945, 
			 "total_energy": -1432.69162707, 
			 "HOMO_LUMO_gap": 0.16841, 
			 "cosmo_polarized_energy": -23.48, 
			 "cosmo_cavitation_energy": 48.22, 
			 "cosmo_dispersion_energy": -32.9, 
			 "cosmo_repulsion_energy": 2.49, 
			 "cosmo_total_nonelectrostatic_energy": 17.8, 
			 "SMD_solvation_energy": 6.68 
		},
		"coords": [
			{
				"x": 4.2052562717,
				"y": 1.3349796258,
				"z": 2.9655414186,
				"element": "C" 
			},
			{
				"x": 3.0249983237,
				"y": 0.8907074185,
				"z": 3.8254148655,
				"element": "C" 
			},
			{
				"x": 1.8678711439,
				"y": 0.4393474166,
				"z": 3.0050380892,
				"element": "N" 
			},
			{
				"x": 1.3703221928,
				"y": -0.9225244797,
				"z": 3.2859163707,
				"element": "C" 
			},
			{
				"x": 2.3339738595,
				"y": -1.9902168954,
				"z": 2.7695808844,
				"element": "C" 
			},
			{
				"x": 0.6396634028,
				"y": 1.6068073797,
				"z": 2.8367575425,
				"element": "S" 
			},
			{
				"x": -0.4322763172,
				"y": 1.407358953,
				"z": 3.8249892462,
				"element": "O" 
			},
			{
				"x": 1.3362842489,
				"y": 2.8964339723,
				"z": 2.7587638629,
				"element": "O" 
			},
			{
				"x": -0.0388290757,
				"y": 1.1982622635,
				"z": 1.2384489751,
				"element": "C" 
			},
			{
				"x": 0.733696934,
				"y": 1.3588931524,
				"z": 0.0921799061,
				"element": "C" 
			},
			{
				"x": 0.2139900495,
				"y": 1.0992721727,
				"z": -1.181230014,
				"element": "C" 
			},
			{
				"x": 1.0298095326,
				"y": 1.5720925788,
				"z": -2.3458497908,
				"element": "C" 
			},
			{
				"x": 2.3715689982,
				"y": 1.3386740248,
				"z": -2.262976675,
				"element": "O" 
			},
			{
				"x": 0.5880741653,
				"y": 2.1766991653,
				"z": -3.29497608,
				"element": "O" 
			},
			{
				"x": -1.1332302483,
				"y": 0.6226253123,
				"z": -1.3161115196,
				"element": "C" 
			},
			{
				"x": -1.905374923,
				"y": 0.5230639858,
				"z": -0.1277867857,
				"element": "C" 
			},
			{
				"x": -1.3743822985,
				"y": 0.8043007979,
				"z": 1.120246952,
				"element": "C" 
			},
			{
				"x": -1.677694857,
				"y": 0.2466806774,
				"z": -2.5189184415,
				"element": "N" 
			},
			{
				"x": -0.8680325672,
				"y": -0.2746543951,
				"z": -3.6332396689,
				"element": "C" 
			},
			{
				"x": -1.5792416555,
				"y": -1.4540808316,
				"z": -4.304727912,
				"element": "C" 
			},
			{
				"x": -2.9319169574,
				"y": -1.0292923434,
				"z": -4.9165138421,
				"element": "C" 
			},
			{
				"x": -3.5421865994,
				"y": 0.1482156171,
				"z": -4.1271681874,
				"element": "C" 
			},
			{
				"x": -3.1357580306,
				"y": 0.1133278448,
				"z": -2.6518265634,
				"element": "C" 
			},
			{
				"x": 3.9267403311,
				"y": 2.2018946471,
				"z": 2.361827402,
				"element": "H" 
			},
			{
				"x": 5.0522836928,
				"y": 1.6183188888,
				"z": 3.6001174058,
				"element": "H" 
			},
			{
				"x": 4.5298465817,
				"y": 0.5303484767,
				"z": 2.2980509857,
				"element": "H" 
			},
			{
				"x": 2.7273075709,
				"y": 1.7020248748,
				"z": 4.4967138535,
				"element": "H" 
			},
			{
				"x": 3.3109615078,
				"y": 0.0469868913,
				"z": 4.4615673147,
				"element": "H" 
			},
			{
				"x": 0.4070169129,
				"y": -1.0386622557,
				"z": 2.7816788142,
				"element": "H" 
			},
			{
				"x": 1.1803159883,
				"y": -1.0533438033,
				"z": 4.3607771176,
				"element": "H" 
			},
			{
				"x": 2.4780232387,
				"y": -1.8896035811,
				"z": 1.689798512,
				"element": "H" 
			},
			{
				"x": 1.9314316152,
				"y": -2.987359229,
				"z": 2.9755497988,
				"element": "H" 
			},
			{
				"x": 3.3147993856,
				"y": -1.9244848642,
				"z": 3.2505065641,
				"element": "H" 
			},
			{
				"x": 1.735837854,
				"y": 1.7651520696,
				"z": 0.190232683,
				"element": "H" 
			},
			{
				"x": 2.5531435004,
				"y": 0.7476035314,
				"z": -1.5185729328,
				"element": "H" 
			},
			{
				"x": -2.9286166978,
				"y": 0.1755935867,
				"z": -0.1829704071,
				"element": "H" 
			},
			{
				"x": -1.9812289082,
				"y": 0.7070926682,
				"z": 2.0140798097,
				"element": "H" 
			},
			{
				"x": -0.6458227541,
				"y": 0.5149257807,
				"z": -4.3593164568,
				"element": "H" 
			},
			{
				"x": 0.0923303896,
				"y": -0.6088171481,
				"z": -3.2288740166,
				"element": "H" 
			},
			{
				"x": -1.7318981989,
				"y": -2.243182317,
				"z": -3.5586786765,
				"element": "H" 
			},
			{
				"x": -0.9192440439,
				"y": -1.8730161593,
				"z": -5.0715004804,
				"element": "H" 
			},
			{
				"x": -2.800748622,
				"y": -0.7351217385,
				"z": -5.9632643966,
				"element": "H" 
			},
			{
				"x": -3.617402401,
				"y": -1.8839797369,
				"z": -4.917110644,
				"element": "H" 
			},
			{
				"x": -3.2080140354,
				"y": 1.1022500849,
				"z": -4.5496267321,
				"element": "H" 
			},
			{
				"x": -4.6349191546,
				"y": 0.1404146627,
				"z": -4.1940507869,
				"element": "H" 
			},
			{
				"x": -3.4984068881,
				"y": -0.8182141694,
				"z": -2.1860718491,
				"element": "H" 
			},
			{
				"x": -3.6085224576,
				"y": 0.9449054261,
				"z": -2.1204155151,
				"element": "H" 
			}
		],
		 "valence_orbital": [ 
			{
				"type": "occ",
				"energy": -0.29167,
				"method": "rhf"
			},
			{
				"type": "occ",
				"energy": -0.27953,
				"method": "rhf"
			},
			{
				"type": "occ",
				"energy": -0.26843,
				"method": "rhf"
			},
			{
				"type": "occ",
				"energy": -0.24779,
				"method": "rhf"
			},
			{
				"type": "occ",
				"energy": -0.21363,
				"method": "rhf"
			},
			{
				"type": "unocc",
				"energy": -0.04522,
				"method": "rhf"
			},
			{
				"type": "unocc",
				"energy": -0.03176,
				"method": "rhf"
			},
			{
				"type": "unocc",
				"energy": 0.0258,
				"method": "rhf"
			},
			{
				"type": "unocc",
				"energy": 0.05567,
				"method": "rhf"
			},
			{
				"type": "unocc",
				"energy": 0.06474,
				"method": "rhf"
			}
		],
		"cosmo_sigma_profile": { 
			"-0.025": 0.0,
			"-0.024": 0.0,
			"-0.023": 0.0,
			"-0.022": 0.0,
			"-0.021": 0.0,
			"-0.02": 0.0,
			"-0.019": 0.0,
			"-0.018": 0.643967238046,
			"-0.017": 0.869278309238,
			"-0.016": 1.0382485894,
			"-0.015": 0.900043765407,
			"-0.014": 0.975658942416,
			"-0.013": 0.438014428608,
			"-0.012": 1.37099620741,
			"-0.011": 1.34339087537,
			"-0.01": 0.78480075784,
			"-0.009": 0.901588089816,
			"-0.008": 1.79717965404,
			"-0.007": 4.04505419677,
			"-0.006": 8.82739162447,
			"-0.005": 16.498719057,
			"-0.004": 31.2819634371,
			"-0.003": 51.4618218856,
			"-0.002": 55.7310812769,
			"-0.001": 36.2350804741,
			"0.0": 36.435239206,
			"0.001": 26.6115999374,
			"0.002": 15.6066764993,
			"0.003": 10.3666010211,
			"0.004": 7.56862114031,
			"0.005": 5.92547853399,
			"0.006": 5.74148091004,
			"0.007": 5.55416933608,
			"0.008": 6.16658947017,
			"0.009": 6.59877308766,
			"0.01": 10.2381259304,
			"0.011": 12.2271248935,
			"0.012": 10.8962957016,
			"0.013": 2.22897455069,
			"0.014": 0.0406393372909,
			"0.015": 0.0,
			"0.016": 0.0,
			"0.017": 0.0,
			"0.018": 0.0,
			"0.019": 0.0,
			"0.02": 0.0,
			"0.021": 0.0,
			"0.022": 0.0,
			"0.023": 0.0,
			"0.024": 0.0,
			"0.025": 0.0
		}
	}
}
