{
	 "smiles": "O=C(OC1=CC=C(C=CC(=O)C2=CC=CC=C2)C=C1)C1=CC=CO1", 
	 "Tm": 388.15, 
	 "num_atms": 38, 
	 "gaussian": { 
		 "optdone": 1, 
		 "sigma_profile": "yes", 
		 "theory": "DFT", 
		 "functional": "B3LYP", 
		 "basiset": "6-31G**", 
		 "properties": { 
			 "R2extent": 11297.0701, 
			 "electric_dipole_moment_norm": 4.0963881115, 
			 "electric_quadrupole_moment_norm": 18.244313539, 
			 "total_energy": -1071.41713865, 
			 "HOMO_LUMO_gap": 0.159, 
			 "cosmo_polarized_energy": -15.25, 
			 "cosmo_cavitation_energy": 44.58, 
			 "cosmo_dispersion_energy": -30.6, 
			 "cosmo_repulsion_energy": 2.33, 
			 "cosmo_total_nonelectrostatic_energy": 16.31, 
			 "SMD_solvation_energy": 10.09 
		},
		"coords": [
			{
				"x": 2.2345348575,
				"y": 2.9869744858,
				"z": 2.362416477,
				"element": "O" 
			},
			{
				"x": 2.0366566441,
				"y": 3.3283592509,
				"z": 1.215543073,
				"element": "C" 
			},
			{
				"x": 1.0074248131,
				"y": 2.9094039569,
				"z": 0.4242252043,
				"element": "O" 
			},
			{
				"x": 0.0428836183,
				"y": 2.0081500498,
				"z": 0.8631111429,
				"element": "C" 
			},
			{
				"x": -0.5020135431,
				"y": 1.2023919149,
				"z": -0.1388601544,
				"element": "C" 
			},
			{
				"x": -1.5196453794,
				"y": 0.3074818027,
				"z": 0.1684075367,
				"element": "C" 
			},
			{
				"x": -2.0075562518,
				"y": 0.1946446188,
				"z": 1.4834981714,
				"element": "C" 
			},
			{
				"x": -3.0826166448,
				"y": -0.7328302713,
				"z": 1.8658958454,
				"element": "C" 
			},
			{
				"x": -3.4370297442,
				"y": -1.9075211828,
				"z": 1.3113797183,
				"element": "C" 
			},
			{
				"x": -2.8372244356,
				"y": -2.6325846937,
				"z": 0.1435204575,
				"element": "C" 
			},
			{
				"x": -3.5634777135,
				"y": -2.911018886,
				"z": -0.8051197859,
				"element": "O" 
			},
			{
				"x": -1.4091705996,
				"y": -3.0842113777,
				"z": 0.1729197253,
				"element": "C" 
			},
			{
				"x": -0.6143954499,
				"y": -3.0108636755,
				"z": 1.3262654308,
				"element": "C" 
			},
			{
				"x": 0.6975378838,
				"y": -3.4834286644,
				"z": 1.3057103244,
				"element": "C" 
			},
			{
				"x": 1.2258479444,
				"y": -4.0303716489,
				"z": 0.134776763,
				"element": "C" 
			},
			{
				"x": 0.4373049746,
				"y": -4.1120428008,
				"z": -1.0178093679,
				"element": "C" 
			},
			{
				"x": -0.8736802909,
				"y": -3.6471417416,
				"z": -0.9971058414,
				"element": "C" 
			},
			{
				"x": -1.4634034364,
				"y": 1.0459623209,
				"z": 2.4613964617,
				"element": "C" 
			},
			{
				"x": -0.440073344,
				"y": 1.945215833,
				"z": 2.1723035086,
				"element": "C" 
			},
			{
				"x": 2.9034778494,
				"y": 4.2629850334,
				"z": 0.4982092552,
				"element": "C" 
			},
			{
				"x": 4.0323844941,
				"y": 4.9092064762,
				"z": 0.9315545613,
				"element": "C" 
			},
			{
				"x": 4.4877678017,
				"y": 5.6972836658,
				"z": -0.1636607605,
				"element": "C" 
			},
			{
				"x": 3.6026226437,
				"y": 5.4723527989,
				"z": -1.1811871012,
				"element": "C" 
			},
			{
				"x": 2.6352074081,
				"y": 4.6054124941,
				"z": -0.7995654329,
				"element": "O" 
			},
			{
				"x": -0.1278908008,
				"y": 1.3008327146,
				"z": -1.1522563183,
				"element": "H" 
			},
			{
				"x": -1.9577798298,
				"y": -0.2869057981,
				"z": -0.6255860211,
				"element": "H" 
			},
			{
				"x": -3.6846034204,
				"y": -0.3963410544,
				"z": 2.7101070024,
				"element": "H" 
			},
			{
				"x": -4.3427011761,
				"y": -2.387342701,
				"z": 1.6776818087,
				"element": "H" 
			},
			{
				"x": -1.0263811354,
				"y": -2.5908645673,
				"z": 2.2371294649,
				"element": "H" 
			},
			{
				"x": 1.3068306934,
				"y": -3.4251292384,
				"z": 2.2028137164,
				"element": "H" 
			},
			{
				"x": 2.2490066481,
				"y": -4.3954585484,
				"z": 0.1199259458,
				"element": "H" 
			},
			{
				"x": 0.8471302101,
				"y": -4.5410049044,
				"z": -1.9277319799,
				"element": "H" 
			},
			{
				"x": -1.5093797488,
				"y": -3.7093104581,
				"z": -1.8741583836,
				"element": "H" 
			},
			{
				"x": -1.8436901378,
				"y": 0.9954762068,
				"z": 3.4784019538,
				"element": "H" 
			},
			{
				"x": -0.0221972298,
				"y": 2.5752628399,
				"z": 2.9442918491,
				"element": "H" 
			},
			{
				"x": 4.4662518333,
				"y": 4.8177534635,
				"z": 1.916061819,
				"element": "H" 
			},
			{
				"x": 5.3527500064,
				"y": 6.3434888447,
				"z": -0.1948362555,
				"element": "H" 
			},
			{
				"x": 3.530389988,
				"y": 5.8406334411,
				"z": -2.1932698143,
				"element": "H" 
			}
		],
		 "valence_orbital": [ 
			{
				"type": "occ",
				"energy": -0.25538,
				"method": "rhf"
			},
			{
				"type": "occ",
				"energy": -0.25472,
				"method": "rhf"
			},
			{
				"type": "occ",
				"energy": -0.25044,
				"method": "rhf"
			},
			{
				"type": "occ",
				"energy": -0.24699,
				"method": "rhf"
			},
			{
				"type": "occ",
				"energy": -0.2242,
				"method": "rhf"
			},
			{
				"type": "unocc",
				"energy": -0.0652,
				"method": "rhf"
			},
			{
				"type": "unocc",
				"energy": -0.05319,
				"method": "rhf"
			},
			{
				"type": "unocc",
				"energy": -0.02865,
				"method": "rhf"
			},
			{
				"type": "unocc",
				"energy": -0.00985,
				"method": "rhf"
			},
			{
				"type": "unocc",
				"energy": -0.00274,
				"method": "rhf"
			}
		],
		"cosmo_sigma_profile": { 
			"-0.025": 0.0,
			"-0.024": 0.0,
			"-0.023": 0.0,
			"-0.022": 0.0,
			"-0.021": 0.0,
			"-0.02": 0.0,
			"-0.019": 0.0,
			"-0.018": 0.0,
			"-0.017": 0.0,
			"-0.016": 0.0,
			"-0.015": 0.0,
			"-0.014": 0.0,
			"-0.013": 0.0,
			"-0.012": 0.0,
			"-0.011": 0.0269595936526,
			"-0.01": 1.42188709123,
			"-0.009": 2.69223976247,
			"-0.008": 4.3165173198,
			"-0.007": 12.0622142173,
			"-0.006": 23.0806157717,
			"-0.005": 26.6083881964,
			"-0.004": 28.2071793735,
			"-0.003": 22.9575168673,
			"-0.002": 23.2617589962,
			"-0.001": 23.5884299867,
			"0.0": 28.3960014978,
			"0.001": 27.9859004583,
			"0.002": 31.0918286785,
			"0.003": 32.0074344692,
			"0.004": 25.1978520898,
			"0.005": 9.19448262992,
			"0.006": 4.58992508086,
			"0.007": 4.34178882175,
			"0.008": 5.09126676704,
			"0.009": 5.23512091319,
			"0.01": 5.23620069911,
			"0.011": 6.60568015351,
			"0.012": 4.65083485307,
			"0.013": 1.60381285937,
			"0.014": 0.111467229289,
			"0.015": 0.0,
			"0.016": 0.0,
			"0.017": 0.0,
			"0.018": 0.0,
			"0.019": 0.0,
			"0.02": 0.0,
			"0.021": 0.0,
			"0.022": 0.0,
			"0.023": 0.0,
			"0.024": 0.0,
			"0.025": 0.0
		}
	}
}
