{
	 "smiles": "ClC(Cl)(C#N)C1=NC2=C(S1)C=CC=C2", 
	 "Tm": 340.15, 
	 "num_atms": 18, 
	 "gaussian": { 
		 "optdone": 1, 
		 "sigma_profile": "yes", 
		 "theory": "DFT", 
		 "functional": "B3LYP", 
		 "basiset": "6-31G**", 
		 "properties": { 
			 "R2extent": 4306.8323, 
			 "electric_dipole_moment_norm": 4.38532136679, 
			 "electric_quadrupole_moment_norm": 7.78887305263, 
			 "total_energy": -1773.3975041, 
			 "HOMO_LUMO_gap": 0.1682, 
			 "cosmo_polarized_energy": -7.55, 
			 "cosmo_cavitation_energy": 29.09, 
			 "cosmo_dispersion_energy": -21.19, 
			 "cosmo_repulsion_energy": 1.63, 
			 "cosmo_total_nonelectrostatic_energy": 9.53, 
			 "SMD_solvation_energy": 3.45 
		},
		"coords": [
			{
				"x": 1.5657639632,
				"y": -3.0311120704,
				"z": -2.1005642067,
				"element": "Cl" 
			},
			{
				"x": 1.7245759764,
				"y": -1.2449008594,
				"z": -1.7541972499,
				"element": "C" 
			},
			{
				"x": 3.379665793,
				"y": -0.9064263435,
				"z": -1.1042572285,
				"element": "Cl" 
			},
			{
				"x": 1.5896460035,
				"y": -0.5395083037,
				"z": -3.0308626374,
				"element": "C" 
			},
			{
				"x": 1.4778283759,
				"y": 0.0221630636,
				"z": -4.0400122329,
				"element": "N" 
			},
			{
				"x": 0.6675254624,
				"y": -0.8315943005,
				"z": -0.7509113165,
				"element": "C" 
			},
			{
				"x": 0.7246506838,
				"y": -1.1672395209,
				"z": 0.49268961,
				"element": "N" 
			},
			{
				"x": -0.3834125419,
				"y": -0.7081662954,
				"z": 1.1779600286,
				"element": "C" 
			},
			{
				"x": -1.3222228115,
				"y": 0.0091807792,
				"z": 0.3940011001,
				"element": "C" 
			},
			{
				"x": -0.7564292231,
				"y": 0.0951688876,
				"z": -1.2593255036,
				"element": "S" 
			},
			{
				"x": -2.4894836341,
				"y": 0.5357272989,
				"z": 0.955420888,
				"element": "C" 
			},
			{
				"x": -2.7058660234,
				"y": 0.3305877794,
				"z": 2.3142417267,
				"element": "C" 
			},
			{
				"x": -1.781748857,
				"y": -0.381231689,
				"z": 3.1031520529,
				"element": "C" 
			},
			{
				"x": -0.6218987525,
				"y": -0.9021431676,
				"z": 2.548239237,
				"element": "C" 
			},
			{
				"x": -3.2057692132,
				"y": 1.0857509608,
				"z": 0.3542293576,
				"element": "H" 
			},
			{
				"x": -3.6056679428,
				"y": 0.7281293522,
				"z": 2.7737224925,
				"element": "H" 
			},
			{
				"x": -1.9823918392,
				"y": -0.5226333297,
				"z": 4.1605142623,
				"element": "H" 
			},
			{
				"x": 0.1014345806,
				"y": -1.4525522417,
				"z": 3.1400596198,
				"element": "H" 
			}
		],
		 "valence_orbital": [ 
			{
				"type": "occ",
				"energy": -0.32524,
				"method": "rhf"
			},
			{
				"type": "occ",
				"energy": -0.32417,
				"method": "rhf"
			},
			{
				"type": "occ",
				"energy": -0.30445,
				"method": "rhf"
			},
			{
				"type": "occ",
				"energy": -0.2623,
				"method": "rhf"
			},
			{
				"type": "occ",
				"energy": -0.25584,
				"method": "rhf"
			},
			{
				"type": "unocc",
				"energy": -0.08764,
				"method": "rhf"
			},
			{
				"type": "unocc",
				"energy": -0.06102,
				"method": "rhf"
			},
			{
				"type": "unocc",
				"energy": -0.03081,
				"method": "rhf"
			},
			{
				"type": "unocc",
				"energy": -0.0257,
				"method": "rhf"
			},
			{
				"type": "unocc",
				"energy": -0.02002,
				"method": "rhf"
			}
		],
		"cosmo_sigma_profile": { 
			"-0.025": 0.0,
			"-0.024": 0.0,
			"-0.023": 0.0,
			"-0.022": 0.0,
			"-0.021": 0.0,
			"-0.02": 0.0,
			"-0.019": 0.0,
			"-0.018": 0.0,
			"-0.017": 0.0,
			"-0.016": 0.0,
			"-0.015": 0.0,
			"-0.014": 0.0,
			"-0.013": 0.0,
			"-0.012": 0.0,
			"-0.011": 0.0,
			"-0.01": 0.0,
			"-0.009": 0.526928783356,
			"-0.008": 3.32364799449,
			"-0.007": 8.17608835134,
			"-0.006": 11.6401108502,
			"-0.005": 13.1863095059,
			"-0.004": 12.5765844838,
			"-0.003": 15.0190532371,
			"-0.002": 16.4583598378,
			"-0.001": 21.9484515603,
			"0.0": 24.2899655187,
			"0.001": 28.8338686892,
			"0.002": 34.2046888583,
			"0.003": 18.7936074595,
			"0.004": 9.6307034758,
			"0.005": 4.56734626572,
			"0.006": 4.43399490175,
			"0.007": 3.33617208378,
			"0.008": 4.09298647195,
			"0.009": 3.72302393,
			"0.01": 2.32325726191,
			"0.011": 1.00507655407,
			"0.012": 0.494040044889,
			"0.013": 0.0414480232674,
			"0.014": 0.0,
			"0.015": 0.0,
			"0.016": 0.0,
			"0.017": 0.0,
			"0.018": 0.0,
			"0.019": 0.0,
			"0.02": 0.0,
			"0.021": 0.0,
			"0.022": 0.0,
			"0.023": 0.0,
			"0.024": 0.0,
			"0.025": 0.0
		}
	}
}
