{
	 "smiles": "COC(=O)C1=C(C#N)C(C)=CC=C1", 
	 "Tm": 343.15, 
	 "num_atms": 22, 
	 "gaussian": { 
		 "optdone": 1, 
		 "sigma_profile": "yes", 
		 "theory": "DFT", 
		 "functional": "B3LYP", 
		 "basiset": "6-31G**", 
		 "properties": { 
			 "R2extent": 2646.7324, 
			 "electric_dipole_moment_norm": 5.5367107862, 
			 "electric_quadrupole_moment_norm": 14.2813501687, 
			 "total_energy": -591.683410164, 
			 "HOMO_LUMO_gap": 0.19175, 
			 "cosmo_polarized_energy": -13.89, 
			 "cosmo_cavitation_energy": 27.24, 
			 "cosmo_dispersion_energy": -19.28, 
			 "cosmo_repulsion_energy": 1.52, 
			 "cosmo_total_nonelectrostatic_energy": 9.47, 
			 "SMD_solvation_energy": 7.28 
		},
		"coords": [
			{
				"x": -3.4035263869,
				"y": 2.0688406215,
				"z": 1.4369800464,
				"element": "C" 
			},
			{
				"x": -1.9709200413,
				"y": 2.004848892,
				"z": 1.3400458507,
				"element": "O" 
			},
			{
				"x": -1.489156196,
				"y": 0.9099283828,
				"z": 0.7091230685,
				"element": "C" 
			},
			{
				"x": -2.2016826586,
				"y": 0.0399841101,
				"z": 0.2545586516,
				"element": "O" 
			},
			{
				"x": 0.0042360777,
				"y": 0.911351981,
				"z": 0.6462469104,
				"element": "C" 
			},
			{
				"x": 0.6879192231,
				"y": -0.1573364224,
				"z": 0.0209291311,
				"element": "C" 
			},
			{
				"x": 0.0123286492,
				"y": -1.2768866406,
				"z": -0.5748578665,
				"element": "C" 
			},
			{
				"x": -0.3741590995,
				"y": -2.2422668868,
				"z": -1.0969086287,
				"element": "N" 
			},
			{
				"x": 2.1021462114,
				"y": -0.1659427987,
				"z": -0.0437020597,
				"element": "C" 
			},
			{
				"x": 2.8423920634,
				"y": -1.2999405487,
				"z": -0.7076242343,
				"element": "C" 
			},
			{
				"x": 2.7980229927,
				"y": 0.9056144998,
				"z": 0.5246869701,
				"element": "C" 
			},
			{
				"x": 2.1282687647,
				"y": 1.960773718,
				"z": 1.1417715571,
				"element": "C" 
			},
			{
				"x": 0.7377800415,
				"y": 1.9643630319,
				"z": 1.2027189928,
				"element": "C" 
			},
			{
				"x": -3.8552873656,
				"y": 2.0747744901,
				"z": 0.4420966742,
				"element": "H" 
			},
			{
				"x": -3.6199383969,
				"y": 2.9980510521,
				"z": 1.9635544165,
				"element": "H" 
			},
			{
				"x": -3.7888907753,
				"y": 1.2111084284,
				"z": 1.9935106727,
				"element": "H" 
			},
			{
				"x": 2.6162785861,
				"y": -2.2575972062,
				"z": -0.2272669794,
				"element": "H" 
			},
			{
				"x": 3.9217218009,
				"y": -1.1375974663,
				"z": -0.6625390259,
				"element": "H" 
			},
			{
				"x": 2.5517558927,
				"y": -1.4033897347,
				"z": -1.7582451346,
				"element": "H" 
			},
			{
				"x": 3.8834333137,
				"y": 0.9078379922,
				"z": 0.479989131,
				"element": "H" 
			},
			{
				"x": 2.691538652,
				"y": 2.7812900245,
				"z": 1.5757419686,
				"element": "H" 
			},
			{
				"x": 0.2072386511,
				"y": 2.7786904802,
				"z": 1.6796898874,
				"element": "H" 
			}
		],
		 "valence_orbital": [ 
			{
				"type": "occ",
				"energy": -0.32625,
				"method": "rhf"
			},
			{
				"type": "occ",
				"energy": -0.31005,
				"method": "rhf"
			},
			{
				"type": "occ",
				"energy": -0.27668,
				"method": "rhf"
			},
			{
				"type": "occ",
				"energy": -0.27372,
				"method": "rhf"
			},
			{
				"type": "occ",
				"energy": -0.26281,
				"method": "rhf"
			},
			{
				"type": "unocc",
				"energy": -0.07106,
				"method": "rhf"
			},
			{
				"type": "unocc",
				"energy": -0.03839,
				"method": "rhf"
			},
			{
				"type": "unocc",
				"energy": 0.04493,
				"method": "rhf"
			},
			{
				"type": "unocc",
				"energy": 0.04564,
				"method": "rhf"
			},
			{
				"type": "unocc",
				"energy": 0.08189,
				"method": "rhf"
			}
		],
		"cosmo_sigma_profile": { 
			"-0.025": 0.0,
			"-0.024": 0.0,
			"-0.023": 0.0,
			"-0.022": 0.0,
			"-0.021": 0.0,
			"-0.02": 0.0,
			"-0.019": 0.0,
			"-0.018": 0.0,
			"-0.017": 0.0,
			"-0.016": 0.0,
			"-0.015": 0.0,
			"-0.014": 0.0,
			"-0.013": 0.0,
			"-0.012": 0.0,
			"-0.011": 0.0,
			"-0.01": 0.0,
			"-0.009": 0.0,
			"-0.008": 1.04295936113,
			"-0.007": 7.75001695262,
			"-0.006": 14.3441843644,
			"-0.005": 17.4591364051,
			"-0.004": 20.0786716586,
			"-0.003": 22.1449900102,
			"-0.002": 19.6612199343,
			"-0.001": 20.3734602232,
			"0.0": 17.1229757372,
			"0.001": 16.4002091666,
			"0.002": 12.5267472984,
			"0.003": 5.35907267598,
			"0.004": 4.79345803705,
			"0.005": 3.53508891588,
			"0.006": 2.85996230566,
			"0.007": 2.91189680689,
			"0.008": 4.30071026571,
			"0.009": 4.8416240089,
			"0.01": 6.0125591211,
			"0.011": 7.59564228818,
			"0.012": 5.24081709358,
			"0.013": 1.84919588006,
			"0.014": 0.148193047289,
			"0.015": 0.0,
			"0.016": 0.0,
			"0.017": 0.0,
			"0.018": 0.0,
			"0.019": 0.0,
			"0.02": 0.0,
			"0.021": 0.0,
			"0.022": 0.0,
			"0.023": 0.0,
			"0.024": 0.0,
			"0.025": 0.0
		}
	}
}
