{
	 "smiles": "COC1=CC=C(C=C1)C1=NC(=CS1)C(O)=O", 
	 "Tm": 446.15, 
	 "num_atms": 25, 
	 "gaussian": { 
		 "optdone": 1, 
		 "sigma_profile": "yes", 
		 "theory": "DFT", 
		 "functional": "B3LYP", 
		 "basiset": "6-31G**", 
		 "properties": { 
			 "R2extent": 6212.7023, 
			 "electric_dipole_moment_norm": 1.99459152209, 
			 "electric_quadrupole_moment_norm": 22.0079011566, 
			 "total_energy": -1103.20465142, 
			 "HOMO_LUMO_gap": 0.15804, 
			 "cosmo_polarized_energy": -15.47, 
			 "cosmo_cavitation_energy": 32.07, 
			 "cosmo_dispersion_energy": -24.15, 
			 "cosmo_repulsion_energy": 1.82, 
			 "cosmo_total_nonelectrostatic_energy": 9.75, 
			 "SMD_solvation_energy": 6.24 
		},
		"coords": [
			{
				"x": 0.08716671,
				"y": -4.6893381129,
				"z": 1.2793572134,
				"element": "C" 
			},
			{
				"x": 0.8518789856,
				"y": -4.1138217804,
				"z": 0.2291715805,
				"element": "O" 
			},
			{
				"x": 0.6310359209,
				"y": -2.8118278254,
				"z": -0.0948054821,
				"element": "C" 
			},
			{
				"x": -0.3055385073,
				"y": -1.9790278015,
				"z": 0.5340076121,
				"element": "C" 
			},
			{
				"x": -0.4457466285,
				"y": -0.6581616852,
				"z": 0.1174640342,
				"element": "C" 
			},
			{
				"x": 0.3357955508,
				"y": -0.1378089671,
				"z": -0.9260338565,
				"element": "C" 
			},
			{
				"x": 1.2710752957,
				"y": -0.986425252,
				"z": -1.5467718179,
				"element": "C" 
			},
			{
				"x": 1.4188987954,
				"y": -2.302832276,
				"z": -1.1402070329,
				"element": "C" 
			},
			{
				"x": 0.1495340027,
				"y": 1.2586597984,
				"z": -1.3262015019,
				"element": "C" 
			},
			{
				"x": -0.7055256763,
				"y": 2.0746995511,
				"z": -0.7765827383,
				"element": "N" 
			},
			{
				"x": -0.6645373885,
				"y": 3.3211452738,
				"z": -1.351002503,
				"element": "C" 
			},
			{
				"x": 0.2403445379,
				"y": 3.4825338444,
				"z": -2.3697446471,
				"element": "C" 
			},
			{
				"x": 1.0944889295,
				"y": 2.0096756079,
				"z": -2.638042266,
				"element": "S" 
			},
			{
				"x": -1.5723749311,
				"y": 4.3819728818,
				"z": -0.8503215005,
				"element": "C" 
			},
			{
				"x": -1.3999039737,
				"y": 5.5481365288,
				"z": -1.5297767594,
				"element": "O" 
			},
			{
				"x": -2.3768034256,
				"y": 4.2588518161,
				"z": 0.0454864025,
				"element": "O" 
			},
			{
				"x": 0.4254942064,
				"y": -5.7227183268,
				"z": 1.3653713706,
				"element": "H" 
			},
			{
				"x": 0.257519998,
				"y": -4.1729234174,
				"z": 2.232278703,
				"element": "H" 
			},
			{
				"x": -0.9857218363,
				"y": -4.6783840127,
				"z": 1.0500911965,
				"element": "H" 
			},
			{
				"x": -0.9252978156,
				"y": -2.3473750953,
				"z": 1.3427097777,
				"element": "H" 
			},
			{
				"x": -1.1679187676,
				"y": -0.0074613177,
				"z": 0.5987048136,
				"element": "H" 
			},
			{
				"x": 1.8926632416,
				"y": -0.6166799091,
				"z": -2.3578693004,
				"element": "H" 
			},
			{
				"x": 2.1381225351,
				"y": -2.9618763924,
				"z": -1.6147342266,
				"element": "H" 
			},
			{
				"x": 0.4340406883,
				"y": 4.3709313276,
				"z": -2.9518476732,
				"element": "H" 
			},
			{
				"x": -2.0295904475,
				"y": 6.1743555418,
				"z": -1.1366013981,
				"element": "H" 
			}
		],
		 "valence_orbital": [ 
			{
				"type": "occ",
				"energy": -0.27924,
				"method": "rhf"
			},
			{
				"type": "occ",
				"energy": -0.27264,
				"method": "rhf"
			},
			{
				"type": "occ",
				"energy": -0.26969,
				"method": "rhf"
			},
			{
				"type": "occ",
				"energy": -0.26079,
				"method": "rhf"
			},
			{
				"type": "occ",
				"energy": -0.21417,
				"method": "rhf"
			},
			{
				"type": "unocc",
				"energy": -0.05613,
				"method": "rhf"
			},
			{
				"type": "unocc",
				"energy": -0.03,
				"method": "rhf"
			},
			{
				"type": "unocc",
				"energy": -0.00898,
				"method": "rhf"
			},
			{
				"type": "unocc",
				"energy": 0.01291,
				"method": "rhf"
			},
			{
				"type": "unocc",
				"energy": 0.04726,
				"method": "rhf"
			}
		],
		"cosmo_sigma_profile": { 
			"-0.025": 0.0,
			"-0.024": 0.0,
			"-0.023": 0.0,
			"-0.022": 0.0,
			"-0.021": 0.0,
			"-0.02": 0.0,
			"-0.019": 0.0406538181133,
			"-0.018": 0.718594701974,
			"-0.017": 1.38281988433,
			"-0.016": 0.487192724634,
			"-0.015": 0.489672318392,
			"-0.014": 1.14592139386,
			"-0.013": 0.618364531696,
			"-0.012": 0.650255135656,
			"-0.011": 1.08940802412,
			"-0.01": 1.76113372717,
			"-0.009": 2.05185535041,
			"-0.008": 2.35898308004,
			"-0.007": 6.69306590539,
			"-0.006": 14.8244582762,
			"-0.005": 18.4388026732,
			"-0.004": 17.0161322203,
			"-0.003": 17.5485300933,
			"-0.002": 14.4394310535,
			"-0.001": 18.2702734453,
			"0.0": 22.2924480461,
			"0.001": 22.0465297838,
			"0.002": 19.2469333057,
			"0.003": 18.6605879127,
			"0.004": 15.448496513,
			"0.005": 6.41224054722,
			"0.006": 5.28044673089,
			"0.007": 5.15070433847,
			"0.008": 3.92536359136,
			"0.009": 3.84204301571,
			"0.01": 3.86101872027,
			"0.011": 5.16778876611,
			"0.012": 4.13305267171,
			"0.013": 1.7045672422,
			"0.014": 1.44082104882,
			"0.015": 0.858989688858,
			"0.016": 0.0337467494922,
			"0.017": 0.0,
			"0.018": 0.0,
			"0.019": 0.0,
			"0.02": 0.0,
			"0.021": 0.0,
			"0.022": 0.0,
			"0.023": 0.0,
			"0.024": 0.0,
			"0.025": 0.0
		}
	}
}
