{
	 "smiles": "COC(=O)C1=CC=C(Cl)C=C1", 
	 "Tm": 316.65, 
	 "num_atms": 18, 
	 "gaussian": { 
		 "optdone": 1, 
		 "sigma_profile": "yes", 
		 "theory": "DFT", 
		 "functional": "B3LYP", 
		 "basiset": "6-31G**", 
		 "properties": { 
			 "R2extent": 3578.282, 
			 "electric_dipole_moment_norm": 1.97237444721, 
			 "electric_quadrupole_moment_norm": 7.03220464364, 
			 "total_energy": -919.722684056, 
			 "HOMO_LUMO_gap": 0.20191, 
			 "cosmo_polarized_energy": -6.89, 
			 "cosmo_cavitation_energy": 24.56, 
			 "cosmo_dispersion_energy": -18.28, 
			 "cosmo_repulsion_energy": 1.47, 
			 "cosmo_total_nonelectrostatic_energy": 7.75, 
			 "SMD_solvation_energy": 5.59 
		},
		"coords": [
			{
				"x": 3.1293906658,
				"y": 1.0747698336,
				"z": 0.7260056795,
				"element": "C" 
			},
			{
				"x": 2.1655879113,
				"y": 0.3700925763,
				"z": -0.0727409063,
				"element": "O" 
			},
			{
				"x": 1.3929008037,
				"y": -0.5107377693,
				"z": 0.6023739783,
				"element": "C" 
			},
			{
				"x": 1.4932190817,
				"y": -0.7038795821,
				"z": 1.7985739118,
				"element": "O" 
			},
			{
				"x": 0.4161143791,
				"y": -1.2051239551,
				"z": -0.2826519111,
				"element": "C" 
			},
			{
				"x": -0.444174316,
				"y": -2.1435675718,
				"z": 0.3026924425,
				"element": "C" 
			},
			{
				"x": -1.3787957383,
				"y": -2.8252466317,
				"z": -0.4704021291,
				"element": "C" 
			},
			{
				"x": -1.44547184,
				"y": -2.5589128327,
				"z": -1.8393601429,
				"element": "C" 
			},
			{
				"x": -2.6213424553,
				"y": -3.4136263504,
				"z": -2.8240173098,
				"element": "Cl" 
			},
			{
				"x": -0.5982661513,
				"y": -1.6283487078,
				"z": -2.4429746877,
				"element": "C" 
			},
			{
				"x": 0.3332028133,
				"y": -0.9522068941,
				"z": -1.6586390894,
				"element": "C" 
			},
			{
				"x": 2.6310562611,
				"y": 1.6552748142,
				"z": 1.5064397091,
				"element": "H" 
			},
			{
				"x": 3.657950593,
				"y": 1.7322899529,
				"z": 0.0362765958,
				"element": "H" 
			},
			{
				"x": 3.8226719031,
				"y": 0.3744718273,
				"z": 1.1986002563,
				"element": "H" 
			},
			{
				"x": -0.3651334685,
				"y": -2.3258966715,
				"z": 1.3690581664,
				"element": "H" 
			},
			{
				"x": -2.0479648724,
				"y": -3.5527796106,
				"z": -0.0251360345,
				"element": "H" 
			},
			{
				"x": -0.6703359755,
				"y": -1.4398939811,
				"z": -3.5081893225,
				"element": "H" 
			},
			{
				"x": 0.9986904053,
				"y": -0.226278446,
				"z": -2.1111092064,
				"element": "H" 
			}
		],
		 "valence_orbital": [ 
			{
				"type": "occ",
				"energy": -0.31944,
				"method": "rhf"
			},
			{
				"type": "occ",
				"energy": -0.30696,
				"method": "rhf"
			},
			{
				"type": "occ",
				"energy": -0.27932,
				"method": "rhf"
			},
			{
				"type": "occ",
				"energy": -0.27251,
				"method": "rhf"
			},
			{
				"type": "occ",
				"energy": -0.25621,
				"method": "rhf"
			},
			{
				"type": "unocc",
				"energy": -0.0543,
				"method": "rhf"
			},
			{
				"type": "unocc",
				"energy": -0.02121,
				"method": "rhf"
			},
			{
				"type": "unocc",
				"energy": 0.02392,
				"method": "rhf"
			},
			{
				"type": "unocc",
				"energy": 0.04744,
				"method": "rhf"
			},
			{
				"type": "unocc",
				"energy": 0.10457,
				"method": "rhf"
			}
		],
		"cosmo_sigma_profile": { 
			"-0.025": 0.0,
			"-0.024": 0.0,
			"-0.023": 0.0,
			"-0.022": 0.0,
			"-0.021": 0.0,
			"-0.02": 0.0,
			"-0.019": 0.0,
			"-0.018": 0.0,
			"-0.017": 0.0,
			"-0.016": 0.0,
			"-0.015": 0.0,
			"-0.014": 0.0,
			"-0.013": 0.0,
			"-0.012": 0.0,
			"-0.011": 0.0,
			"-0.01": 0.0,
			"-0.009": 0.0,
			"-0.008": 1.63340867034,
			"-0.007": 5.9480110276,
			"-0.006": 12.6756998258,
			"-0.005": 12.9478404719,
			"-0.004": 13.225501561,
			"-0.003": 16.3566388833,
			"-0.002": 12.9094131814,
			"-0.001": 13.0705297186,
			"0.0": 17.9834254077,
			"0.001": 21.1685903677,
			"0.002": 24.0026279992,
			"0.003": 12.6466179014,
			"0.004": 13.769421308,
			"0.005": 4.8162579926,
			"0.006": 2.42397143306,
			"0.007": 1.66246901101,
			"0.008": 1.57040978444,
			"0.009": 1.03874265064,
			"0.01": 2.69827016536,
			"0.011": 2.92130129071,
			"0.012": 3.59581869412,
			"0.013": 0.0668829831234,
			"0.014": 0.0,
			"0.015": 0.0,
			"0.016": 0.0,
			"0.017": 0.0,
			"0.018": 0.0,
			"0.019": 0.0,
			"0.02": 0.0,
			"0.021": 0.0,
			"0.022": 0.0,
			"0.023": 0.0,
			"0.024": 0.0,
			"0.025": 0.0
		}
	}
}
