{
	 "smiles": "NNC(=O)CC1CCS(=O)(=O)C1", 
	 "Tm": 378.15, 
	 "num_atms": 24, 
	 "gaussian": { 
		 "optdone": 1, 
		 "sigma_profile": "yes", 
		 "theory": "DFT", 
		 "functional": "B3LYP", 
		 "basiset": "6-31G**", 
		 "properties": { 
			 "R2extent": 3452.1738, 
			 "electric_dipole_moment_norm": 5.69165574767, 
			 "electric_quadrupole_moment_norm": 19.0859453174, 
			 "total_energy": -969.158139709, 
			 "HOMO_LUMO_gap": 0.27428, 
			 "cosmo_polarized_energy": -24.62, 
			 "cosmo_cavitation_energy": 28.22, 
			 "cosmo_dispersion_energy": -21.06, 
			 "cosmo_repulsion_energy": 1.66, 
			 "cosmo_total_nonelectrostatic_energy": 8.82, 
			 "SMD_solvation_energy": 4.61 
		},
		"coords": [
			{
				"x": 0.284727322,
				"y": 1.6238814438,
				"z": 4.5761787296,
				"element": "N" 
			},
			{
				"x": 0.2212944104,
				"y": 0.5119011064,
				"z": 3.7142934656,
				"element": "N" 
			},
			{
				"x": -0.3320973991,
				"y": 0.5926469817,
				"z": 2.4679597496,
				"element": "C" 
			},
			{
				"x": -0.6892556257,
				"y": 1.6617564225,
				"z": 1.9854352788,
				"element": "O" 
			},
			{
				"x": -0.4863602111,
				"y": -0.7453353867,
				"z": 1.74368411,
				"element": "C" 
			},
			{
				"x": -0.53565485,
				"y": -0.5733098341,
				"z": 0.222113527,
				"element": "C" 
			},
			{
				"x": 0.7857463832,
				"y": -0.0474897299,
				"z": -0.3877540757,
				"element": "C" 
			},
			{
				"x": 0.6284822357,
				"y": -0.1079054429,
				"z": -1.9080368052,
				"element": "C" 
			},
			{
				"x": -0.2361203856,
				"y": -1.6955093867,
				"z": -2.2227147954,
				"element": "S" 
			},
			{
				"x": 0.7649259643,
				"y": -2.7454825609,
				"z": -2.4781505171,
				"element": "O" 
			},
			{
				"x": -1.3573869978,
				"y": -1.4859146026,
				"z": -3.1524071592,
				"element": "O" 
			},
			{
				"x": -0.8649590902,
				"y": -1.8889060498,
				"z": -0.5019929884,
				"element": "C" 
			},
			{
				"x": -0.6010819004,
				"y": 2.1231908312,
				"z": 4.4922249173,
				"element": "H" 
			},
			{
				"x": 0.9893733369,
				"y": 2.2604129526,
				"z": 4.205021701,
				"element": "H" 
			},
			{
				"x": 0.3853917684,
				"y": -0.3805477083,
				"z": 4.1569255256,
				"element": "H" 
			},
			{
				"x": -1.4223853139,
				"y": -1.2020305545,
				"z": 2.0924876422,
				"element": "H" 
			},
			{
				"x": 0.3217526666,
				"y": -1.4313121669,
				"z": 2.0293163352,
				"element": "H" 
			},
			{
				"x": -1.3156888948,
				"y": 0.1632979045,
				"z": 0.0005829174,
				"element": "H" 
			},
			{
				"x": 0.9854795163,
				"y": 0.9721329677,
				"z": -0.0504086163,
				"element": "H" 
			},
			{
				"x": 1.6233369639,
				"y": -0.6830311211,
				"z": -0.0737848098,
				"element": "H" 
			},
			{
				"x": -0.0189485434,
				"y": 0.6849537387,
				"z": -2.2905205146,
				"element": "H" 
			},
			{
				"x": 1.5648122466,
				"y": -0.130987859,
				"z": -2.4676391161,
				"element": "H" 
			},
			{
				"x": -0.3264578955,
				"y": -2.7433306558,
				"z": -0.0829471351,
				"element": "H" 
			},
			{
				"x": -1.9310257067,
				"y": -2.1145812898,
				"z": -0.5631673665,
				"element": "H" 
			}
		],
		 "valence_orbital": [ 
			{
				"type": "occ",
				"energy": -0.29745,
				"method": "rhf"
			},
			{
				"type": "occ",
				"energy": -0.28969,
				"method": "rhf"
			},
			{
				"type": "occ",
				"energy": -0.27972,
				"method": "rhf"
			},
			{
				"type": "occ",
				"energy": -0.27382,
				"method": "rhf"
			},
			{
				"type": "occ",
				"energy": -0.26837,
				"method": "rhf"
			},
			{
				"type": "unocc",
				"energy": 0.00591,
				"method": "rhf"
			},
			{
				"type": "unocc",
				"energy": 0.05206,
				"method": "rhf"
			},
			{
				"type": "unocc",
				"energy": 0.06137,
				"method": "rhf"
			},
			{
				"type": "unocc",
				"energy": 0.06742,
				"method": "rhf"
			},
			{
				"type": "unocc",
				"energy": 0.07283,
				"method": "rhf"
			}
		],
		"cosmo_sigma_profile": { 
			"-0.025": 0.0,
			"-0.024": 0.0,
			"-0.023": 0.0,
			"-0.022": 0.0,
			"-0.021": 0.0,
			"-0.02": 0.0,
			"-0.019": 0.0,
			"-0.018": 0.0,
			"-0.017": 0.0,
			"-0.016": 0.0,
			"-0.015": 0.218950682537,
			"-0.014": 1.1145034145,
			"-0.013": 1.3221629003,
			"-0.012": 1.41877807838,
			"-0.011": 2.91073275275,
			"-0.01": 3.95569403868,
			"-0.009": 4.16241969047,
			"-0.008": 6.29369798799,
			"-0.007": 14.6110267585,
			"-0.006": 22.0388181151,
			"-0.005": 21.425823926,
			"-0.004": 20.2420994429,
			"-0.003": 14.6429182453,
			"-0.002": 9.53046131789,
			"-0.001": 7.58407975783,
			"0.0": 5.98590505962,
			"0.001": 5.4220310813,
			"0.002": 5.86367901324,
			"0.003": 4.65302642885,
			"0.004": 3.44117496006,
			"0.005": 4.15736488762,
			"0.006": 3.16418572328,
			"0.007": 4.55905287499,
			"0.008": 3.39460286015,
			"0.009": 5.43806463755,
			"0.01": 4.87965102398,
			"0.011": 10.2803179681,
			"0.012": 14.6261646458,
			"0.013": 7.92546347474,
			"0.014": 3.51679353617,
			"0.015": 0.725987436844,
			"0.016": 0.452193454236,
			"0.017": 0.197899512341,
			"0.018": 0.0,
			"0.019": 0.0,
			"0.02": 0.0,
			"0.021": 0.0,
			"0.022": 0.0,
			"0.023": 0.0,
			"0.024": 0.0,
			"0.025": 0.0
		}
	}
}
