{
	 "smiles": "ClCC1=NN=C(O1)C1=CC(Cl)=CC=C1", 
	 "Tm": 350.15, 
	 "num_atms": 20, 
	 "gaussian": { 
		 "optdone": 1, 
		 "sigma_profile": "yes", 
		 "theory": "DFT", 
		 "functional": "B3LYP", 
		 "basiset": "6-31G**", 
		 "properties": { 
			 "R2extent": 5203.6106, 
			 "electric_dipole_moment_norm": 3.86703577175, 
			 "electric_quadrupole_moment_norm": 9.09584206272, 
			 "total_energy": -1451.66014048, 
			 "HOMO_LUMO_gap": 0.18409, 
			 "cosmo_polarized_energy": -11.54, 
			 "cosmo_cavitation_energy": 29.4, 
			 "cosmo_dispersion_energy": -21.78, 
			 "cosmo_repulsion_energy": 1.73, 
			 "cosmo_total_nonelectrostatic_energy": 9.35, 
			 "SMD_solvation_energy": 2.82 
		},
		"coords": [
			{
				"x": -4.4195452814,
				"y": 2.0244242301,
				"z": 2.0406444616,
				"element": "Cl" 
			},
			{
				"x": -4.0721815726,
				"y": 1.6976936645,
				"z": 0.2832920781,
				"element": "C" 
			},
			{
				"x": -2.6279207287,
				"y": 1.5165675683,
				"z": 0.0226485843,
				"element": "C" 
			},
			{
				"x": -1.8359697494,
				"y": 2.3052570767,
				"z": -0.6348795471,
				"element": "N" 
			},
			{
				"x": -0.5843923028,
				"y": 1.7036600549,
				"z": -0.6225424985,
				"element": "N" 
			},
			{
				"x": -0.7110301319,
				"y": 0.5939618815,
				"z": 0.0484684531,
				"element": "C" 
			},
			{
				"x": -1.9905682766,
				"y": 0.4057272987,
				"z": 0.4872233845,
				"element": "O" 
			},
			{
				"x": 0.30885847,
				"y": -0.4020925389,
				"z": 0.3559950072,
				"element": "C" 
			},
			{
				"x": 1.6110942951,
				"y": -0.2003334708,
				"z": -0.1290483463,
				"element": "C" 
			},
			{
				"x": 2.5894539321,
				"y": -1.1442058504,
				"z": 0.1598333707,
				"element": "C" 
			},
			{
				"x": 4.2198375278,
				"y": -0.9014497724,
				"z": -0.4426419428,
				"element": "Cl" 
			},
			{
				"x": 2.3036501699,
				"y": -2.2818348784,
				"z": 0.9186773286,
				"element": "C" 
			},
			{
				"x": 1.0057222091,
				"y": -2.4693459122,
				"z": 1.3949610272,
				"element": "C" 
			},
			{
				"x": 0.0061589758,
				"y": -1.5386020886,
				"z": 1.1197400873,
				"element": "C" 
			},
			{
				"x": -4.4242659595,
				"y": 2.5557077022,
				"z": -0.2864611121,
				"element": "H" 
			},
			{
				"x": -4.642493043,
				"y": 0.8062292049,
				"z": 0.0200311538,
				"element": "H" 
			},
			{
				"x": 1.8382976585,
				"y": 0.6804339185,
				"z": -0.7177372961,
				"element": "H" 
			},
			{
				"x": 3.0854044789,
				"y": -3.0027719256,
				"z": 1.1299011584,
				"element": "H" 
			},
			{
				"x": 0.775590066,
				"y": -3.3498796595,
				"z": 1.9865284347,
				"element": "H" 
			},
			{
				"x": -1.0008007374,
				"y": -1.6859465035,
				"z": 1.4935662134,
				"element": "H" 
			}
		],
		 "valence_orbital": [ 
			{
				"type": "occ",
				"energy": -0.31461,
				"method": "rhf"
			},
			{
				"type": "occ",
				"energy": -0.31198,
				"method": "rhf"
			},
			{
				"type": "occ",
				"energy": -0.2919,
				"method": "rhf"
			},
			{
				"type": "occ",
				"energy": -0.26712,
				"method": "rhf"
			},
			{
				"type": "occ",
				"energy": -0.25587,
				"method": "rhf"
			},
			{
				"type": "unocc",
				"energy": -0.07178,
				"method": "rhf"
			},
			{
				"type": "unocc",
				"energy": -0.03371,
				"method": "rhf"
			},
			{
				"type": "unocc",
				"energy": -0.02707,
				"method": "rhf"
			},
			{
				"type": "unocc",
				"energy": 0.01973,
				"method": "rhf"
			},
			{
				"type": "unocc",
				"energy": 0.03253,
				"method": "rhf"
			}
		],
		"cosmo_sigma_profile": { 
			"-0.025": 0.0,
			"-0.024": 0.0,
			"-0.023": 0.0,
			"-0.022": 0.0,
			"-0.021": 0.0,
			"-0.02": 0.0,
			"-0.019": 0.0,
			"-0.018": 0.0,
			"-0.017": 0.0,
			"-0.016": 0.0,
			"-0.015": 0.0,
			"-0.014": 0.0,
			"-0.013": 0.0,
			"-0.012": 0.0,
			"-0.011": 0.218797446749,
			"-0.01": 3.7651289527,
			"-0.009": 3.93209987242,
			"-0.008": 6.48443342673,
			"-0.007": 11.4056500739,
			"-0.006": 12.910345531,
			"-0.005": 10.4767761872,
			"-0.004": 11.1585809949,
			"-0.003": 12.2534977301,
			"-0.002": 15.0799757022,
			"-0.001": 17.8842950007,
			"0.0": 20.1644068039,
			"0.001": 24.8034650772,
			"0.002": 22.9070475608,
			"0.003": 15.0409136899,
			"0.004": 19.0642198139,
			"0.005": 12.5655524315,
			"0.006": 3.69920722946,
			"0.007": 1.9887100349,
			"0.008": 2.35405697255,
			"0.009": 2.35481807866,
			"0.01": 3.18684750327,
			"0.011": 3.10019679003,
			"0.012": 1.8539797298,
			"0.013": 2.4481563426,
			"0.014": 0.792150672886,
			"0.015": 0.0335738728751,
			"0.016": 0.0,
			"0.017": 0.0,
			"0.018": 0.0,
			"0.019": 0.0,
			"0.02": 0.0,
			"0.021": 0.0,
			"0.022": 0.0,
			"0.023": 0.0,
			"0.024": 0.0,
			"0.025": 0.0
		}
	}
}
