{
	 "smiles": "FC1=CC=C(NC(=O)CC(=O)NC2=CC=C(F)C=C2)C=C1", 
	 "Tm": 491.15, 
	 "num_atms": 33, 
	 "gaussian": { 
		 "optdone": 1, 
		 "sigma_profile": "yes", 
		 "theory": "DFT", 
		 "functional": "B3LYP", 
		 "basiset": "6-31G**", 
		 "properties": { 
			 "R2extent": 6649.534, 
			 "electric_dipole_moment_norm": 2.0213829276, 
			 "electric_quadrupole_moment_norm": 13.4255227891, 
			 "total_energy": -1038.46508757, 
			 "HOMO_LUMO_gap": 0.20405, 
			 "cosmo_polarized_energy": -19.54, 
			 "cosmo_cavitation_energy": 38.69, 
			 "cosmo_dispersion_energy": -25.3, 
			 "cosmo_repulsion_energy": 1.88, 
			 "cosmo_total_nonelectrostatic_energy": 15.27, 
			 "SMD_solvation_energy": 8.38 
		},
		"coords": [
			{
				"x": 1.3744403123,
				"y": -4.3658823395,
				"z": -1.2459454096,
				"element": "F" 
			},
			{
				"x": 1.5643648013,
				"y": -3.0598890816,
				"z": -0.9684838768,
				"element": "C" 
			},
			{
				"x": 2.5054412606,
				"y": -2.6992696663,
				"z": -0.0124519589,
				"element": "C" 
			},
			{
				"x": 2.7121489323,
				"y": -1.3478818146,
				"z": 0.2605591091,
				"element": "C" 
			},
			{
				"x": 1.9515966206,
				"y": -0.3688102498,
				"z": -0.391687086,
				"element": "C" 
			},
			{
				"x": 2.1467942882,
				"y": 1.0184844541,
				"z": -0.1665579562,
				"element": "N" 
			},
			{
				"x": 2.2530571036,
				"y": 1.7645714467,
				"z": 0.9883419996,
				"element": "C" 
			},
			{
				"x": 2.435416991,
				"y": 2.9720413323,
				"z": 0.9152406061,
				"element": "O" 
			},
			{
				"x": 2.1853748196,
				"y": 1.0747350348,
				"z": 2.3526048255,
				"element": "C" 
			},
			{
				"x": 1.1230112587,
				"y": 0.0168841046,
				"z": 2.6593643828,
				"element": "C" 
			},
			{
				"x": 1.4268108407,
				"y": -1.0105876752,
				"z": 3.2497736895,
				"element": "O" 
			},
			{
				"x": -0.1907891493,
				"y": 0.2378618651,
				"z": 2.3035088529,
				"element": "N" 
			},
			{
				"x": -0.8297948648,
				"y": 1.3168923853,
				"z": 1.6393254809,
				"element": "C" 
			},
			{
				"x": -0.6311259456,
				"y": 2.6511904451,
				"z": 2.0168889761,
				"element": "C" 
			},
			{
				"x": -1.3012314508,
				"y": 3.6787164776,
				"z": 1.3546033912,
				"element": "C" 
			},
			{
				"x": -2.19824475,
				"y": 3.3591862363,
				"z": 0.3431734001,
				"element": "C" 
			},
			{
				"x": -2.8598182575,
				"y": 4.3505550868,
				"z": -0.2877945347,
				"element": "F" 
			},
			{
				"x": -2.43821989,
				"y": 2.0413949929,
				"z": -0.032188833,
				"element": "C" 
			},
			{
				"x": -1.7415356426,
				"y": 1.0229606618,
				"z": 0.6135295787,
				"element": "C" 
			},
			{
				"x": 1.0071143916,
				"y": -0.7617657938,
				"z": -1.3527344255,
				"element": "C" 
			},
			{
				"x": 0.8163633358,
				"y": -2.108062552,
				"z": -1.6537163812,
				"element": "C" 
			},
			{
				"x": 3.0767843068,
				"y": -3.4675514961,
				"z": 0.4961441834,
				"element": "H" 
			},
			{
				"x": 3.4717120691,
				"y": -1.0622212008,
				"z": 0.9778611483,
				"element": "H" 
			},
			{
				"x": 2.1267991473,
				"y": 1.6180873929,
				"z": -0.9829397076,
				"element": "H" 
			},
			{
				"x": 3.1379288163,
				"y": 0.5799352682,
				"z": 2.5580128042,
				"element": "H" 
			},
			{
				"x": 2.1040274763,
				"y": 1.8920676721,
				"z": 3.0735129526,
				"element": "H" 
			},
			{
				"x": -0.7591043668,
				"y": -0.5787958771,
				"z": 2.4945517525,
				"element": "H" 
			},
			{
				"x": 0.0402068917,
				"y": 2.8944679014,
				"z": 2.8313263865,
				"element": "H" 
			},
			{
				"x": -1.1453085749,
				"y": 4.7164529061,
				"z": 1.626903183,
				"element": "H" 
			},
			{
				"x": -3.1506966041,
				"y": 1.8285426146,
				"z": -0.8216929378,
				"element": "H" 
			},
			{
				"x": -1.8970163226,
				"y": -0.0110710173,
				"z": 0.3202518472,
				"element": "H" 
			},
			{
				"x": 0.4173830032,
				"y": -0.0038699481,
				"z": -1.8599390891,
				"element": "H" 
			},
			{
				"x": 0.0951091523,
				"y": -2.4255695666,
				"z": -2.3988463538,
				"element": "H" 
			}
		],
		 "valence_orbital": [ 
			{
				"type": "occ",
				"energy": -0.27354,
				"method": "rhf"
			},
			{
				"type": "occ",
				"energy": -0.27058,
				"method": "rhf"
			},
			{
				"type": "occ",
				"energy": -0.24996,
				"method": "rhf"
			},
			{
				"type": "occ",
				"energy": -0.23381,
				"method": "rhf"
			},
			{
				"type": "occ",
				"energy": -0.23239,
				"method": "rhf"
			},
			{
				"type": "unocc",
				"energy": -0.02834,
				"method": "rhf"
			},
			{
				"type": "unocc",
				"energy": -0.0274,
				"method": "rhf"
			},
			{
				"type": "unocc",
				"energy": -0.01896,
				"method": "rhf"
			},
			{
				"type": "unocc",
				"energy": -0.01467,
				"method": "rhf"
			},
			{
				"type": "unocc",
				"energy": 0.01272,
				"method": "rhf"
			}
		],
		"cosmo_sigma_profile": { 
			"-0.025": 0.0,
			"-0.024": 0.0,
			"-0.023": 0.0,
			"-0.022": 0.0,
			"-0.021": 0.0,
			"-0.02": 0.0,
			"-0.019": 0.0,
			"-0.018": 0.0,
			"-0.017": 0.0,
			"-0.016": 0.0,
			"-0.015": 0.383648652225,
			"-0.014": 1.93045386564,
			"-0.013": 2.42365009592,
			"-0.012": 1.76351288264,
			"-0.011": 1.86783589737,
			"-0.01": 3.28316877689,
			"-0.009": 5.72420982689,
			"-0.008": 8.90700623923,
			"-0.007": 16.5103568776,
			"-0.006": 17.6543566953,
			"-0.005": 17.3111792053,
			"-0.004": 14.5486453761,
			"-0.003": 12.2853714146,
			"-0.002": 13.7351997105,
			"-0.001": 14.9468713804,
			"0.0": 20.7885653645,
			"0.001": 27.5487098179,
			"0.002": 29.3045669653,
			"0.003": 26.6878340794,
			"0.004": 24.0621181438,
			"0.005": 9.85306452099,
			"0.006": 3.30542227371,
			"0.007": 3.68670534986,
			"0.008": 3.1305043862,
			"0.009": 2.75515312448,
			"0.01": 3.49499561984,
			"0.011": 2.89105061004,
			"0.012": 5.40841427661,
			"0.013": 9.47682010405,
			"0.014": 3.30461163783,
			"0.015": 0.0206704517299,
			"0.016": 0.0,
			"0.017": 0.0,
			"0.018": 0.0,
			"0.019": 0.0,
			"0.02": 0.0,
			"0.021": 0.0,
			"0.022": 0.0,
			"0.023": 0.0,
			"0.024": 0.0,
			"0.0": 0.0
		}
	}
}
