{
	 "smiles": "CC(=O)NC1=CC=C(Br)C=C1OC(F)(F)F", 
	 "Tm": 409.15, 
	 "num_atms": 23, 
	 "gaussian": { 
		 "optdone": 1, 
		 "sigma_profile": "yes", 
		 "theory": "DFT", 
		 "functional": "B3LYP", 
		 "basiset": "6-31G**", 
		 "properties": { 
			 "R2extent": 6195.4638, 
			 "electric_dipole_moment_norm": 3.14975415866, 
			 "electric_quadrupole_moment_norm": 12.0943201636, 
			 "total_energy": -3423.3131404, 
			 "HOMO_LUMO_gap": 0.20232, 
			 "cosmo_polarized_energy": -11.41, 
			 "cosmo_cavitation_energy": 31.8, 
			 "cosmo_dispersion_energy": -21.91, 
			 "cosmo_repulsion_energy": 1.68, 
			 "cosmo_total_nonelectrostatic_energy": 11.57, 
			 "SMD_solvation_energy": 6.94 
		},
		"coords": [
			{
				"x": 0.2450639933,
				"y": 3.2471281362,
				"z": 0.8255962233,
				"element": "C" 
			},
			{
				"x": 1.3912917878,
				"y": 2.2605868677,
				"z": 0.9160640686,
				"element": "C" 
			},
			{
				"x": 2.4822736302,
				"y": 2.5492317532,
				"z": 1.3788451429,
				"element": "O" 
			},
			{
				"x": 1.1749003592,
				"y": 0.9749801809,
				"z": 0.4296066166,
				"element": "N" 
			},
			{
				"x": 0.0235372805,
				"y": 0.4248280546,
				"z": -0.1761661836,
				"element": "C" 
			},
			{
				"x": 0.0746228835,
				"y": -0.0469514781,
				"z": -1.4955165171,
				"element": "C" 
			},
			{
				"x": -1.0319465961,
				"y": -0.635417737,
				"z": -2.1028705291,
				"element": "C" 
			},
			{
				"x": -2.2252861271,
				"y": -0.738577238,
				"z": -1.3888859187,
				"element": "C" 
			},
			{
				"x": -3.7580533127,
				"y": -1.5126985294,
				"z": -2.2158142498,
				"element": "Br" 
			},
			{
				"x": -2.3149232553,
				"y": -0.2822907305,
				"z": -0.0763110138,
				"element": "C" 
			},
			{
				"x": -1.1863799999,
				"y": 0.2735793998,
				"z": 0.520425017,
				"element": "C" 
			},
			{
				"x": -1.277151441,
				"y": 0.7476192999,
				"z": 1.8325080333,
				"element": "O" 
			},
			{
				"x": -1.1968810782,
				"y": -0.1737064158,
				"z": 2.8357482566,
				"element": "C" 
			},
			{
				"x": -0.0974238382,
				"y": -0.937274452,
				"z": 2.7384526165,
				"element": "F" 
			},
			{
				"x": -2.2599373695,
				"y": -1.0023216138,
				"z": 2.8451554066,
				"element": "F" 
			},
			{
				"x": -1.1678774053,
				"y": 0.493280632,
				"z": 3.9856034165,
				"element": "F" 
			},
			{
				"x": 0.6637005307,
				"y": 4.2499578322,
				"z": 0.9090587004,
				"element": "H" 
			},
			{
				"x": -0.3133029015,
				"y": 3.1524110438,
				"z": -0.1098999933,
				"element": "H" 
			},
			{
				"x": -0.4532918517,
				"y": 3.0845153876,
				"z": 1.6512202098,
				"element": "H" 
			},
			{
				"x": 2.0183537903,
				"y": 0.414370778,
				"z": 0.4291073711,
				"element": "H" 
			},
			{
				"x": 1.0027096648,
				"y": 0.0601940489,
				"z": -2.0485894078,
				"element": "H" 
			},
			{
				"x": -0.9727893269,
				"y": -0.9942498146,
				"z": -3.1236487673,
				"element": "H" 
			},
			{
				"x": -3.2335094171,
				"y": -0.3661954058,
				"z": 0.4897115012,
				"element": "H" 
			}
		],
		 "valence_orbital": [ 
			{
				"type": "occ",
				"energy": -0.30385,
				"method": "rhf"
			},
			{
				"type": "occ",
				"energy": -0.28585,
				"method": "rhf"
			},
			{
				"type": "occ",
				"energy": -0.2855,
				"method": "rhf"
			},
			{
				"type": "occ",
				"energy": -0.25819,
				"method": "rhf"
			},
			{
				"type": "occ",
				"energy": -0.24609,
				"method": "rhf"
			},
			{
				"type": "unocc",
				"energy": -0.04377,
				"method": "rhf"
			},
			{
				"type": "unocc",
				"energy": -0.03912,
				"method": "rhf"
			},
			{
				"type": "unocc",
				"energy": -0.01161,
				"method": "rhf"
			},
			{
				"type": "unocc",
				"energy": 0.02275,
				"method": "rhf"
			},
			{
				"type": "unocc",
				"energy": 0.08456,
				"method": "rhf"
			}
		],
		"cosmo_sigma_profile": { 
			"-0.025": 0.0,
			"-0.024": 0.0,
			"-0.023": 0.0,
			"-0.022": 0.0,
			"-0.021": 0.0,
			"-0.02": 0.0,
			"-0.019": 0.0,
			"-0.018": 0.0,
			"-0.017": 0.0,
			"-0.016": 0.0,
			"-0.015": 0.230321848992,
			"-0.014": 1.2188914058,
			"-0.013": 0.915402871624,
			"-0.012": 1.06928486871,
			"-0.011": 0.68492188459,
			"-0.01": 1.41294139451,
			"-0.009": 0.977486276908,
			"-0.008": 5.09867375379,
			"-0.007": 7.3669108311,
			"-0.006": 6.73531821131,
			"-0.005": 9.63810669631,
			"-0.004": 14.0480405488,
			"-0.003": 14.8571406311,
			"-0.002": 21.5575291278,
			"-0.001": 25.1707934614,
			"0.0": 28.3920004872,
			"0.001": 37.2082862308,
			"0.002": 35.5948489388,
			"0.003": 11.396786733,
			"0.004": 12.6520968129,
			"0.005": 2.2915255136,
			"0.006": 0.699041654831,
			"0.007": 1.87275853749,
			"0.008": 1.09134860475,
			"0.009": 0.918702008929,
			"0.01": 1.23537659727,
			"0.011": 2.43124150421,
			"0.012": 2.53182862675,
			"0.013": 5.26907985901,
			"0.014": 3.07975448903,
			"0.015": 0.204538657593,
			"0.016": 0.0,
			"0.017": 0.0,
			"0.018": 0.0,
			"0.019": 0.0,
			"0.02": 0.0,
			"0.021": 0.0,
			"0.022": 0.0,
			"0.023": 0.0,
			"0.024": 0.0,
			"0.025": 0.0
		}
	}
}
