{
	 "smiles": "COC1=C(OC)C=C(NC2=NCCS2)C=C1", 
	 "Tm": 362.15, 
	 "num_atms": 30, 
	 "gaussian": { 
		 "optdone": 1, 
		 "sigma_profile": "yes", 
		 "theory": "DFT", 
		 "functional": "B3LYP", 
		 "basiset": "6-31G**", 
		 "properties": { 
			 "R2extent": 6028.3385, 
			 "electric_dipole_moment_norm": 2.14135298585, 
			 "electric_quadrupole_moment_norm": 8.72367005795, 
			 "total_energy": -1085.70930979, 
			 "HOMO_LUMO_gap": 0.19467, 
			 "cosmo_polarized_energy": -12.61, 
			 "cosmo_cavitation_energy": 34.52, 
			 "cosmo_dispersion_energy": -25.45, 
			 "cosmo_repulsion_energy": 1.96, 
			 "cosmo_total_nonelectrostatic_energy": 11.03, 
			 "SMD_solvation_energy": 3.69 
		},
		"coords": [
			{
				"x": -2.7781473885,
				"y": -2.0176497472,
				"z": 1.9974277328,
				"element": "C" 
			},
			{
				"x": -3.441058451,
				"y": -1.0412470803,
				"z": 1.1909237912,
				"element": "O" 
			},
			{
				"x": -2.6273871885,
				"y": -0.2682629829,
				"z": 0.3987315341,
				"element": "C" 
			},
			{
				"x": -1.9455988598,
				"y": -0.8060848818,
				"z": -0.7166208261,
				"element": "C" 
			},
			{
				"x": -2.1137546453,
				"y": -2.1418768594,
				"z": -0.9346827673,
				"element": "O" 
			},
			{
				"x": -1.4674334702,
				"y": -2.7283843553,
				"z": -2.0552619631,
				"element": "C" 
			},
			{
				"x": -1.1888558034,
				"y": 0.0313479151,
				"z": -1.54003482,
				"element": "C" 
			},
			{
				"x": -1.0713519864,
				"y": 1.3994162175,
				"z": -1.2443028958,
				"element": "C" 
			},
			{
				"x": -0.3282787358,
				"y": 2.2668405289,
				"z": -2.0734003477,
				"element": "N" 
			},
			{
				"x": 0.9087508783,
				"y": 2.1018173011,
				"z": -2.6446682675,
				"element": "C" 
			},
			{
				"x": 1.4659100945,
				"y": 3.0340200342,
				"z": -3.3203918257,
				"element": "N" 
			},
			{
				"x": 2.7318188627,
				"y": 2.6161251732,
				"z": -3.8991437381,
				"element": "C" 
			},
			{
				"x": 3.2982063158,
				"y": 1.4048370152,
				"z": -3.1201017085,
				"element": "C" 
			},
			{
				"x": 1.8213844963,
				"y": 0.5459761156,
				"z": -2.4405610755,
				"element": "S" 
			},
			{
				"x": -1.7585202018,
				"y": 1.9332447928,
				"z": -0.150729441,
				"element": "C" 
			},
			{
				"x": -2.5313921174,
				"y": 1.095879149,
				"z": 0.6543158714,
				"element": "C" 
			},
			{
				"x": -2.2682525885,
				"y": -2.7668836977,
				"z": 1.3846375496,
				"element": "H" 
			},
			{
				"x": -3.557282671,
				"y": -2.5013353403,
				"z": 2.5905437229,
				"element": "H" 
			},
			{
				"x": -2.0538676824,
				"y": -1.5426952639,
				"z": 2.6723171675,
				"element": "H" 
			},
			{
				"x": -1.8315023603,
				"y": -2.3018134165,
				"z": -2.9984051595,
				"element": "H" 
			},
			{
				"x": -1.7169249585,
				"y": -3.7899277486,
				"z": -2.0226454219,
				"element": "H" 
			},
			{
				"x": -0.3781215069,
				"y": -2.6081259592,
				"z": -2.0035998599,
				"element": "H" 
			},
			{
				"x": -0.7193085103,
				"y": -0.3597569629,
				"z": -2.4326721404,
				"element": "H" 
			},
			{
				"x": -0.6562387335,
				"y": 3.2206978627,
				"z": -2.1484806082,
				"element": "H" 
			},
			{
				"x": 2.5761128343,
				"y": 2.3501641719,
				"z": -4.9556260673,
				"element": "H" 
			},
			{
				"x": 3.4488053326,
				"y": 3.4443926286,
				"z": -3.8803198305,
				"element": "H" 
			},
			{
				"x": 3.8597155155,
				"y": 0.7164726156,
				"z": -3.754586241,
				"element": "H" 
			},
			{
				"x": 3.9310142284,
				"y": 1.7189066713,
				"z": -2.2856850882,
				"element": "H" 
			},
			{
				"x": -1.6716587627,
				"y": 2.9903695223,
				"z": 0.0816410957,
				"element": "H" 
			},
			{
				"x": -3.0733819361,
				"y": 1.490336581,
				"z": 1.5077816278,
				"element": "H" 
			}
		],
		 "valence_orbital": [ 
			{
				"type": "occ",
				"energy": -0.26108,
				"method": "rhf"
			},
			{
				"type": "occ",
				"energy": -0.25812,
				"method": "rhf"
			},
			{
				"type": "occ",
				"energy": -0.23737,
				"method": "rhf"
			},
			{
				"type": "occ",
				"energy": -0.22371,
				"method": "rhf"
			},
			{
				"type": "occ",
				"energy": -0.19779,
				"method": "rhf"
			},
			{
				"type": "unocc",
				"energy": -0.00312,
				"method": "rhf"
			},
			{
				"type": "unocc",
				"energy": 0.00068,
				"method": "rhf"
			},
			{
				"type": "unocc",
				"energy": 0.02495,
				"method": "rhf"
			},
			{
				"type": "unocc",
				"energy": 0.04313,
				"method": "rhf"
			},
			{
				"type": "unocc",
				"energy": 0.07271,
				"method": "rhf"
			}
		],
		"cosmo_sigma_profile": { 
			"-0.025": 0.0,
			"-0.024": 0.0,
			"-0.023": 0.0,
			"-0.022": 0.0,
			"-0.021": 0.0,
			"-0.02": 0.0,
			"-0.019": 0.0,
			"-0.018": 0.0,
			"-0.017": 0.0,
			"-0.016": 0.0,
			"-0.015": 0.123017678616,
			"-0.014": 0.699429994709,
			"-0.013": 0.92053663848,
			"-0.012": 1.31382357773,
			"-0.011": 0.681547536905,
			"-0.01": 1.1299673639,
			"-0.009": 1.04139921746,
			"-0.008": 1.09064924994,
			"-0.007": 2.74173146955,
			"-0.006": 11.0184179882,
			"-0.005": 21.6797059652,
			"-0.004": 31.2267858223,
			"-0.003": 31.4512061618,
			"-0.002": 26.4719382715,
			"-0.001": 15.5237143661,
			"0.0": 13.2127805401,
			"0.001": 15.4903864239,
			"0.002": 15.3541210812,
			"0.003": 18.2704718837,
			"0.004": 17.9744336098,
			"0.005": 12.8527007132,
			"0.006": 7.21957847249,
			"0.007": 5.57145937515,
			"0.008": 5.4735527308,
			"0.009": 3.34648731924,
			"0.01": 3.41923358956,
			"0.011": 3.20447882111,
			"0.012": 2.92567516395,
			"0.013": 1.05961252516,
			"0.014": 0.817465596687,
			"0.015": 1.2402566829,
			"0.016": 0.753344419238,
			"0.017": 0.0637625683082,
			"0.018": 0.0,
			"0.019": 0.0,
			"0.02": 0.0,
			"0.021": 0.0,
			"0.022": 0.0,
			"0.023": 0.0,
			"0.024": 0.0,
			"0.025": 0.0
		}
	}
}
