{
	 "smiles": "CCOC(=O)C1=CC=C(O)C(=C1)[N+]([O-])=O", 
	 "Tm": 343.15, 
	 "num_atms": 24, 
	 "gaussian": { 
		 "optdone": 1, 
		 "sigma_profile": "yes", 
		 "theory": "DFT", 
		 "functional": "B3LYP", 
		 "basiset": "6-31G**", 
		 "properties": { 
			 "R2extent": 4379.8039, 
			 "electric_dipole_moment_norm": 4.51584915714, 
			 "electric_quadrupole_moment_norm": 6.69156864943, 
			 "total_energy": -779.177622832, 
			 "HOMO_LUMO_gap": 0.15212, 
			 "cosmo_polarized_energy": -10.5, 
			 "cosmo_cavitation_energy": 29.31, 
			 "cosmo_dispersion_energy": -21.62, 
			 "cosmo_repulsion_energy": 1.69, 
			 "cosmo_total_nonelectrostatic_energy": 9.39, 
			 "SMD_solvation_energy": 8.64 
		},
		"coords": [
			{
				"x": 4.2601789756,
				"y": -1.9778134238,
				"z": 2.2884234438,
				"element": "C" 
			},
			{
				"x": 2.7813147051,
				"y": -2.3077127253,
				"z": 2.4202432065,
				"element": "C" 
			},
			{
				"x": 1.9542057504,
				"y": -1.174938501,
				"z": 2.0542311067,
				"element": "O" 
			},
			{
				"x": 1.6745488217,
				"y": -1.0328171854,
				"z": 0.7399695804,
				"element": "C" 
			},
			{
				"x": 2.065906418,
				"y": -1.7918376318,
				"z": -0.1256562873,
				"element": "O" 
			},
			{
				"x": 0.8247764807,
				"y": 0.1617352092,
				"z": 0.4768297878,
				"element": "C" 
			},
			{
				"x": 0.3835509379,
				"y": 1.0297542882,
				"z": 1.4989860388,
				"element": "C" 
			},
			{
				"x": -0.4045893599,
				"y": 2.1273239343,
				"z": 1.2090032441,
				"element": "C" 
			},
			{
				"x": -0.7895656689,
				"y": 2.4100002813,
				"z": -0.1160191732,
				"element": "C" 
			},
			{
				"x": -1.54923847,
				"y": 3.4802875388,
				"z": -0.3381159333,
				"element": "O" 
			},
			{
				"x": -0.3391737322,
				"y": 1.5292959255,
				"z": -1.135645374,
				"element": "C" 
			},
			{
				"x": 0.4577572528,
				"y": 0.4213208445,
				"z": -0.8371923439,
				"element": "C" 
			},
			{
				"x": -0.6978456379,
				"y": 1.761081775,
				"z": -2.5205138492,
				"element": "N" 
			},
			{
				"x": -1.4131381965,
				"y": 2.7572976191,
				"z": -2.7835890629,
				"element": "O" 
			},
			{
				"x": -0.2980491007,
				"y": 0.9890836831,
				"z": -3.3806299877,
				"element": "O" 
			},
			{
				"x": 4.860136005,
				"y": -2.8227390163,
				"z": 2.6422885197,
				"element": "H" 
			},
			{
				"x": 4.5198968646,
				"y": -1.7873225923,
				"z": 1.2443679678,
				"element": "H" 
			},
			{
				"x": 4.5193593597,
				"y": -1.0988144157,
				"z": 2.8858629325,
				"element": "H" 
			},
			{
				"x": 2.5081214661,
				"y": -3.1576697904,
				"z": 1.7909384593,
				"element": "H" 
			},
			{
				"x": 2.5065522294,
				"y": -2.5177712075,
				"z": 3.4565118965,
				"element": "H" 
			},
			{
				"x": 0.6714921503,
				"y": 0.8259661974,
				"z": 2.523831774,
				"element": "H" 
			},
			{
				"x": -0.7494705545,
				"y": 2.801010873,
				"z": 1.9855141376,
				"element": "H" 
			},
			{
				"x": -1.7100375549,
				"y": 3.508048982,
				"z": -1.3141202488,
				"element": "H" 
			},
			{
				"x": 0.7875108583,
				"y": -0.2341706619,
				"z": -1.6336198351,
				"element": "H" 
			}
		],
		 "valence_orbital": [ 
			{
				"type": "occ",
				"energy": -0.31209,
				"method": "rhf"
			},
			{
				"type": "occ",
				"energy": -0.30877,
				"method": "rhf"
			},
			{
				"type": "occ",
				"energy": -0.29401,
				"method": "rhf"
			},
			{
				"type": "occ",
				"energy": -0.28448,
				"method": "rhf"
			},
			{
				"type": "occ",
				"energy": -0.25704,
				"method": "rhf"
			},
			{
				"type": "unocc",
				"energy": -0.10492,
				"method": "rhf"
			},
			{
				"type": "unocc",
				"energy": -0.05538,
				"method": "rhf"
			},
			{
				"type": "unocc",
				"energy": -0.01588,
				"method": "rhf"
			},
			{
				"type": "unocc",
				"energy": 0.05182,
				"method": "rhf"
			},
			{
				"type": "unocc",
				"energy": 0.0797,
				"method": "rhf"
			}
		],
		"cosmo_sigma_profile": { 
			"-0.025": 0.0,
			"-0.024": 0.0,
			"-0.023": 0.0,
			"-0.022": 0.0,
			"-0.021": 0.0,
			"-0.02": 0.0,
			"-0.019": 0.0,
			"-0.018": 0.0,
			"-0.017": 0.0,
			"-0.016": 0.0,
			"-0.015": 0.0,
			"-0.014": 0.0,
			"-0.013": 0.0,
			"-0.012": 0.0,
			"-0.011": 0.0780460087963,
			"-0.01": 0.691343668045,
			"-0.009": 1.025597479,
			"-0.008": 5.12136438254,
			"-0.007": 7.42658406585,
			"-0.006": 8.74837840027,
			"-0.005": 11.231097256,
			"-0.004": 18.901663921,
			"-0.003": 21.3319067377,
			"-0.002": 25.756421539,
			"-0.001": 25.4737995676,
			"0.0": 25.4227219104,
			"0.001": 13.752703128,
			"0.002": 8.03687727082,
			"0.003": 7.83932004927,
			"0.004": 7.28286953022,
			"0.005": 8.44910077528,
			"0.006": 7.28745274471,
			"0.007": 8.80843807469,
			"0.008": 6.49494933855,
			"0.009": 6.58097279428,
			"0.01": 2.80582682858,
			"0.011": 3.17456459726,
			"0.012": 2.51078296916,
			"0.013": 0.0,
			"0.014": 0.0,
			"0.015": 0.0,
			"0.016": 0.0,
			"0.017": 0.0,
			"0.018": 0.0,
			"0.019": 0.0,
			"0.02": 0.0,
			"0.021": 0.0,
			"0.022": 0.0,
			"0.023": 0.0,
			"0.024": 0.0,
			"0.025": 0.0
		}
	}
}
