{
	 "smiles": "NNC(=S)NCCC1=CC=CC=C1", 
	 "Tm": 386.15, 
	 "num_atms": 26, 
	 "gaussian": { 
		 "optdone": 1, 
		 "sigma_profile": "yes", 
		 "theory": "DFT", 
		 "functional": "B3LYP", 
		 "basiset": "6-31G**", 
		 "properties": { 
			 "R2extent": 3828.6917, 
			 "electric_dipole_moment_norm": 5.55116793567, 
			 "electric_quadrupole_moment_norm": 25.8312900357, 
			 "total_energy": -913.225990034, 
			 "HOMO_LUMO_gap": 0.19496, 
			 "cosmo_polarized_energy": -19.14, 
			 "cosmo_cavitation_energy": 31.3, 
			 "cosmo_dispersion_energy": -22.09, 
			 "cosmo_repulsion_energy": 1.76, 
			 "cosmo_total_nonelectrostatic_energy": 10.97, 
			 "SMD_solvation_energy": 4.55 
		},
		"coords": [
			{
				"x": -2.826779551,
				"y": 0.1929785294,
				"z": 1.4491372745,
				"element": "N" 
			},
			{
				"x": -2.2064847197,
				"y": 1.4214035399,
				"z": 1.72574867,
				"element": "N" 
			},
			{
				"x": -1.6334190963,
				"y": 2.160556836,
				"z": 0.7153058394,
				"element": "C" 
			},
			{
				"x": -1.1114652662,
				"y": 3.7304698764,
				"z": 1.0432188826,
				"element": "S" 
			},
			{
				"x": -1.5388150059,
				"y": 1.5214894858,
				"z": -0.4656015852,
				"element": "N" 
			},
			{
				"x": -0.8725510406,
				"y": 2.0476980539,
				"z": -1.6451209845,
				"element": "C" 
			},
			{
				"x": 0.6203784116,
				"y": 1.6607023744,
				"z": -1.7336805559,
				"element": "C" 
			},
			{
				"x": 0.8515129504,
				"y": 0.1682362947,
				"z": -1.8252545597,
				"element": "C" 
			},
			{
				"x": 1.1090706662,
				"y": -0.5939098515,
				"z": -0.6768607065,
				"element": "C" 
			},
			{
				"x": 1.2837456425,
				"y": -1.9770992515,
				"z": -0.7575999545,
				"element": "C" 
			},
			{
				"x": 1.2030543959,
				"y": -2.6236626292,
				"z": -1.9918644653,
				"element": "C" 
			},
			{
				"x": 0.9489726929,
				"y": -1.8769153216,
				"z": -3.144476637,
				"element": "C" 
			},
			{
				"x": 0.7754007774,
				"y": -0.4952496846,
				"z": -3.0590113799,
				"element": "C" 
			},
			{
				"x": -2.5032400135,
				"y": -0.511599108,
				"z": 2.1057882192,
				"element": "H" 
			},
			{
				"x": -3.8401086696,
				"y": 0.2712425753,
				"z": 1.5145913389,
				"element": "H" 
			},
			{
				"x": -2.4360413109,
				"y": 1.9483506771,
				"z": 2.5597957352,
				"element": "H" 
			},
			{
				"x": -1.8644770777,
				"y": 0.5607294697,
				"z": -0.4605532832,
				"element": "H" 
			},
			{
				"x": -1.4089992056,
				"y": 1.6723696764,
				"z": -2.5236489325,
				"element": "H" 
			},
			{
				"x": -0.9661249177,
				"y": 3.1356172733,
				"z": -1.6188693438,
				"element": "H" 
			},
			{
				"x": 1.0382897309,
				"y": 2.1595206081,
				"z": -2.6167022758,
				"element": "H" 
			},
			{
				"x": 1.1293468203,
				"y": 2.0763730161,
				"z": -0.8582101026,
				"element": "H" 
			},
			{
				"x": 1.1825927562,
				"y": -0.0946766218,
				"z": 0.2859730102,
				"element": "H" 
			},
			{
				"x": 1.4895394182,
				"y": -2.5483456377,
				"z": 0.1436377821,
				"element": "H" 
			},
			{
				"x": 1.3434571427,
				"y": -3.6988662217,
				"z": -2.0569104998,
				"element": "H" 
			},
			{
				"x": 0.8921499825,
				"y": -2.3698027419,
				"z": -4.111172194,
				"element": "H" 
			},
			{
				"x": 0.5857944871,
				"y": 0.0796887833,
				"z": -3.9629592923,
				"element": "H" 
			}
		],
		 "valence_orbital": [ 
			{
				"type": "occ",
				"energy": -0.25959,
				"method": "rhf"
			},
			{
				"type": "occ",
				"energy": -0.24959,
				"method": "rhf"
			},
			{
				"type": "occ",
				"energy": -0.24072,
				"method": "rhf"
			},
			{
				"type": "occ",
				"energy": -0.20392,
				"method": "rhf"
			},
			{
				"type": "occ",
				"energy": -0.19746,
				"method": "rhf"
			},
			{
				"type": "unocc",
				"energy": -0.0025,
				"method": "rhf"
			},
			{
				"type": "unocc",
				"energy": -0.00132,
				"method": "rhf"
			},
			{
				"type": "unocc",
				"energy": 0.01363,
				"method": "rhf"
			},
			{
				"type": "unocc",
				"energy": 0.05378,
				"method": "rhf"
			},
			{
				"type": "unocc",
				"energy": 0.0913,
				"method": "rhf"
			}
		],
		"cosmo_sigma_profile": { 
			"-0.025": 0.0,
			"-0.024": 0.0,
			"-0.023": 0.0,
			"-0.022": 0.0,
			"-0.021": 0.0,
			"-0.02": 0.0,
			"-0.019": 0.0,
			"-0.018": 0.0,
			"-0.017": 0.0,
			"-0.016": 0.0,
			"-0.015": 0.0,
			"-0.014": 0.334660899551,
			"-0.013": 2.49040622304,
			"-0.012": 4.67007534095,
			"-0.011": 4.68734143154,
			"-0.01": 5.66186777185,
			"-0.009": 4.61357201967,
			"-0.008": 3.77529238095,
			"-0.007": 2.40267406478,
			"-0.006": 4.6948797263,
			"-0.005": 15.525284257,
			"-0.004": 20.7034716378,
			"-0.003": 23.4019396567,
			"-0.002": 16.1075391034,
			"-0.001": 16.2427944932,
			"0.0": 15.9245822649,
			"0.001": 13.552239156,
			"0.002": 11.2814264397,
			"0.003": 12.3128345552,
			"0.004": 11.8275782258,
			"0.005": 12.8622217563,
			"0.006": 12.1187159179,
			"0.007": 6.25554743865,
			"0.008": 3.91040661931,
			"0.009": 3.50281588861,
			"0.01": 5.090900092,
			"0.011": 6.72209926997,
			"0.012": 6.88782899649,
			"0.013": 1.84801217438,
			"0.014": 0.0,
			"0.015": 0.0,
			"0.016": 0.0,
			"0.017": 0.0,
			"0.018": 0.0,
			"0.019": 0.0,
			"0.02": 0.0,
			"0.021": 0.0,
			"0.022": 0.0,
			"0.023": 0.0,
			"0.024": 0.0,
			"0.025": 0.0
		}
	}
}
