{
	 "smiles": "OC1=C(C=C(C=O)C=C1)C(F)(F)F", 
	 "Tm": 434.15, 
	 "num_atms": 18, 
	 "gaussian": { 
		 "optdone": 1, 
		 "sigma_profile": "yes", 
		 "theory": "DFT", 
		 "functional": "B3LYP", 
		 "basiset": "6-31G**", 
		 "properties": { 
			 "R2extent": 3265.5787, 
			 "electric_dipole_moment_norm": 2.85445797657, 
			 "electric_quadrupole_moment_norm": 17.8431825261, 
			 "total_energy": -757.826460029, 
			 "HOMO_LUMO_gap": 0.18711, 
			 "cosmo_polarized_energy": -13.49, 
			 "cosmo_cavitation_energy": 24.54, 
			 "cosmo_dispersion_energy": -17.44, 
			 "cosmo_repulsion_energy": 1.31, 
			 "cosmo_total_nonelectrostatic_energy": 8.41, 
			 "SMD_solvation_energy": 6.85 
		},
		"coords": [
			{
				"x": 1.126679661,
				"y": 0.0620093134,
				"z": -2.4384497034,
				"element": "O" 
			},
			{
				"x": 0.2006402799,
				"y": 0.4939492267,
				"z": -1.5522115405,
				"element": "C" 
			},
			{
				"x": -0.959039478,
				"y": -0.288468961,
				"z": -1.3797693444,
				"element": "C" 
			},
			{
				"x": -1.9295342631,
				"y": 0.1300967792,
				"z": -0.4750795538,
				"element": "C" 
			},
			{
				"x": -1.7718258025,
				"y": 1.3096539228,
				"z": 0.2616543591,
				"element": "C" 
			},
			{
				"x": -2.8126979513,
				"y": 1.7374402377,
				"z": 1.2169000796,
				"element": "C" 
			},
			{
				"x": -2.7521870192,
				"y": 2.7467147331,
				"z": 1.8943036424,
				"element": "O" 
			},
			{
				"x": -0.6132220992,
				"y": 2.0805557303,
				"z": 0.0817097792,
				"element": "C" 
			},
			{
				"x": 0.3632581908,
				"y": 1.6779009423,
				"z": -0.8154353832,
				"element": "C" 
			},
			{
				"x": -1.1363473741,
				"y": -1.5603357298,
				"z": -2.1697078355,
				"element": "C" 
			},
			{
				"x": -0.1516152529,
				"y": -2.4482935462,
				"z": -1.9205789202,
				"element": "F" 
			},
			{
				"x": -2.3072147891,
				"y": -2.1665017419,
				"z": -1.8653805674,
				"element": "F" 
			},
			{
				"x": -1.1408091254,
				"y": -1.3299833078,
				"z": -3.4990522431,
				"element": "F" 
			},
			{
				"x": 1.8687151257,
				"y": 0.6810023033,
				"z": -2.4650098895,
				"element": "H" 
			},
			{
				"x": -2.8220380893,
				"y": -0.47379637,
				"z": -0.343594476,
				"element": "H" 
			},
			{
				"x": -3.6890177224,
				"y": 1.0545981207,
				"z": 1.2828996661,
				"element": "H" 
			},
			{
				"x": -0.5036891169,
				"y": 2.9930298579,
				"z": 0.6594455128,
				"element": "H" 
			},
			{
				"x": 1.2625448259,
				"y": 2.2732284894,
				"z": -0.9572435821,
				"element": "H" 
			}
		],
		 "valence_orbital": [ 
			{
				"type": "occ",
				"energy": -0.36201,
				"method": "rhf"
			},
			{
				"type": "occ",
				"energy": -0.35382,
				"method": "rhf"
			},
			{
				"type": "occ",
				"energy": -0.2874,
				"method": "rhf"
			},
			{
				"type": "occ",
				"energy": -0.26042,
				"method": "rhf"
			},
			{
				"type": "occ",
				"energy": -0.25454,
				"method": "rhf"
			},
			{
				"type": "unocc",
				"energy": -0.06743,
				"method": "rhf"
			},
			{
				"type": "unocc",
				"energy": -0.03799,
				"method": "rhf"
			},
			{
				"type": "unocc",
				"energy": 0.02792,
				"method": "rhf"
			},
			{
				"type": "unocc",
				"energy": 0.04434,
				"method": "rhf"
			},
			{
				"type": "unocc",
				"energy": 0.08836,
				"method": "rhf"
			}
		],
		"cosmo_sigma_profile": { 
			"-0.025": 0.0,
			"-0.024": 0.0,
			"-0.023": 0.0,
			"-0.022": 0.0,
			"-0.021": 0.0,
			"-0.02": 0.147239076912,
			"-0.019": 1.11472061202,
			"-0.018": 1.25454962281,
			"-0.017": 1.71981940416,
			"-0.016": 0.792422103197,
			"-0.015": 0.560159512577,
			"-0.014": 0.777071621408,
			"-0.013": 1.24581082017,
			"-0.012": 1.37753282301,
			"-0.011": 1.29017470547,
			"-0.01": 0.786244068941,
			"-0.009": 1.70482829484,
			"-0.008": 4.13919988991,
			"-0.007": 7.15808167547,
			"-0.006": 8.4500944878,
			"-0.005": 6.29723112222,
			"-0.004": 6.58620800797,
			"-0.003": 8.73337476218,
			"-0.002": 9.74040266306,
			"-0.001": 9.50945265113,
			"0.0": 18.8069243594,
			"0.001": 18.711522863,
			"0.002": 22.9020489274,
			"0.003": 26.8518250037,
			"0.004": 6.19424456448,
			"0.005": 4.53309997576,
			"0.006": 3.35826042109,
			"0.007": 4.78706257257,
			"0.008": 4.57219556863,
			"0.009": 2.43477686537,
			"0.01": 2.35826200871,
			"0.011": 3.83991717654,
			"0.012": 3.37089237787,
			"0.013": 0.979403719558,
			"0.014": 0.0178621936356,
			"0.015": 0.0,
			"0.016": 0.0,
			"0.017": 0.0,
			"0.018": 0.0,
			"0.019": 0.0,
			"0.02": 0.0,
			"0.021": 0.0,
			"0.022": 0.0,
			"0.023": 0.0,
			"0.024": 0.0,
			"0.025": 0.0
		}
	}
}
