{
	 "smiles": "ClC1=CC=C(C=C1)C1=NN=C(NC(=O)C2=C(Cl)C=C(Cl)C=C2)O1", 
	 "Tm": 485.15, 
	 "num_atms": 31, 
	 "gaussian": { 
		 "optdone": 1, 
		 "sigma_profile": "yes", 
		 "theory": "DFT", 
		 "functional": "B3LYP", 
		 "basiset": "6-31G**", 
		 "properties": { 
			 "R2extent": 10327.2359, 
			 "electric_dipole_moment_norm": 2.52238147194, 
			 "electric_quadrupole_moment_norm": 14.0346692807, 
			 "total_energy": -2271.67580352, 
			 "HOMO_LUMO_gap": 0.16545, 
			 "cosmo_polarized_energy": -16.37, 
			 "cosmo_cavitation_energy": 43.43, 
			 "cosmo_dispersion_energy": -29.36, 
			 "cosmo_repulsion_energy": 2.23, 
			 "cosmo_total_nonelectrostatic_energy": 16.31, 
			 "SMD_solvation_energy": 5.31 
		},
		"coords": [
			{
				"x": -5.1249741159,
				"y": 1.4626753162,
				"z": -1.6709272685,
				"element": "Cl" 
			},
			{
				"x": -3.443555474,
				"y": 1.5692206653,
				"z": -1.1846125645,
				"element": "C" 
			},
			{
				"x": -2.6692375895,
				"y": 2.6461582779,
				"z": -1.6237633405,
				"element": "C" 
			},
			{
				"x": -1.3368579257,
				"y": 2.7286536314,
				"z": -1.2371067352,
				"element": "C" 
			},
			{
				"x": -0.7743970685,
				"y": 1.7395126373,
				"z": -0.4126521217,
				"element": "C" 
			},
			{
				"x": -1.5670460649,
				"y": 0.6650881564,
				"z": 0.0184110079,
				"element": "C" 
			},
			{
				"x": -2.9024385938,
				"y": 0.5773136165,
				"z": -0.3665598819,
				"element": "C" 
			},
			{
				"x": 0.6230760182,
				"y": 1.8542704247,
				"z": -0.0242533418,
				"element": "C" 
			},
			{
				"x": 1.4925798118,
				"y": 2.7619199183,
				"z": -0.3443254806,
				"element": "N" 
			},
			{
				"x": 2.6971397272,
				"y": 2.4145063529,
				"z": 0.263132803,
				"element": "N" 
			},
			{
				"x": 2.4512963313,
				"y": 1.3165401141,
				"z": 0.9135877838,
				"element": "C" 
			},
			{
				"x": 3.3471310878,
				"y": 0.6444033395,
				"z": 1.7092341546,
				"element": "N" 
			},
			{
				"x": 3.2881606795,
				"y": -0.5898989074,
				"z": 2.3515672181,
				"element": "C" 
			},
			{
				"x": 4.1207435463,
				"y": -0.8553270055,
				"z": 3.2010671545,
				"element": "O" 
			},
			{
				"x": 2.1871861348,
				"y": -1.5566398136,
				"z": 2.017992262,
				"element": "C" 
			},
			{
				"x": 1.939301802,
				"y": -2.0906780133,
				"z": 0.7454220085,
				"element": "C" 
			},
			{
				"x": 2.9021096694,
				"y": -1.6171051567,
				"z": -0.6417400433,
				"element": "Cl" 
			},
			{
				"x": 0.9447356961,
				"y": -3.0472873627,
				"z": 0.5424295023,
				"element": "C" 
			},
			{
				"x": 0.1890233527,
				"y": -3.4757253416,
				"z": 1.6324891379,
				"element": "C" 
			},
			{
				"x": -1.0699810314,
				"y": -4.6656064362,
				"z": 1.3785551967,
				"element": "Cl" 
			},
			{
				"x": 0.4268379102,
				"y": -2.9851333091,
				"z": 2.9168043385,
				"element": "C" 
			},
			{
				"x": 1.4345293475,
				"y": -2.043746973,
				"z": 3.096069128,
				"element": "C" 
			},
			{
				"x": 1.1736200724,
				"y": 0.8902689894,
				"z": 0.8009786801,
				"element": "O" 
			},
			{
				"x": -3.1078193951,
				"y": 3.4068287947,
				"z": -2.2596243713,
				"element": "H" 
			},
			{
				"x": -0.7187579177,
				"y": 3.5563358328,
				"z": -1.567637586,
				"element": "H" 
			},
			{
				"x": -1.1398412909,
				"y": -0.1040188909,
				"z": 0.6526042022,
				"element": "H" 
			},
			{
				"x": -3.5184040189,
				"y": -0.2516338907,
				"z": -0.036883162,
				"element": "H" 
			},
			{
				"x": 4.184990759,
				"y": 1.1736215209,
				"z": 1.9237595235,
				"element": "H" 
			},
			{
				"x": 0.7733427757,
				"y": -3.4556480441,
				"z": -0.4457955346,
				"element": "H" 
			},
			{
				"x": -0.1575516405,
				"y": -3.3420858812,
				"z": 3.7566900399,
				"element": "H" 
			},
			{
				"x": 1.653957405,
				"y": -1.6682825626,
				"z": 4.0899872901,
				"element": "H" 
			}
		],
		 "valence_orbital": [ 
			{
				"type": "occ",
				"energy": -0.28434,
				"method": "rhf"
			},
			{
				"type": "occ",
				"energy": -0.28174,
				"method": "rhf"
			},
			{
				"type": "occ",
				"energy": -0.28047,
				"method": "rhf"
			},
			{
				"type": "occ",
				"energy": -0.26955,
				"method": "rhf"
			},
			{
				"type": "occ",
				"energy": -0.23739,
				"method": "rhf"
			},
			{
				"type": "unocc",
				"energy": -0.07194,
				"method": "rhf"
			},
			{
				"type": "unocc",
				"energy": -0.05804,
				"method": "rhf"
			},
			{
				"type": "unocc",
				"energy": -0.04457,
				"method": "rhf"
			},
			{
				"type": "unocc",
				"energy": -0.02943,
				"method": "rhf"
			},
			{
				"type": "unocc",
				"energy": -0.01618,
				"method": "rhf"
			}
		],
		"cosmo_sigma_profile": { 
			"-0.025": 0.0,
			"-0.024": 0.0,
			"-0.023": 0.0,
			"-0.022": 0.0,
			"-0.021": 0.0,
			"-0.02": 0.0,
			"-0.019": 0.0,
			"-0.018": 0.0593929690952,
			"-0.017": 0.722359512411,
			"-0.016": 0.724198179995,
			"-0.015": 1.1010126334,
			"-0.014": 1.01705205345,
			"-0.013": 0.601982157814,
			"-0.012": 0.496160093264,
			"-0.011": 0.834750146363,
			"-0.01": 0.803722124602,
			"-0.009": 2.88493812734,
			"-0.008": 9.35915271104,
			"-0.007": 11.5858841509,
			"-0.006": 15.0938845188,
			"-0.005": 15.3829111313,
			"-0.004": 15.2423330474,
			"-0.003": 20.740772163,
			"-0.002": 28.1202489495,
			"-0.001": 34.9534196447,
			"0.0": 40.2249076059,
			"0.001": 37.5143262457,
			"0.002": 33.3667563491,
			"0.003": 24.741246675,
			"0.004": 21.1473791041,
			"0.005": 4.71129470213,
			"0.006": 4.49296709979,
			"0.007": 2.13873745402,
			"0.008": 3.81086290251,
			"0.009": 3.99731316307,
			"0.01": 5.67646038535,
			"0.011": 8.23977896016,
			"0.012": 4.15045123007,
			"0.013": 2.41511929305,
			"0.014": 1.18052096345,
			"0.015": 0.192014106275,
			"0.016": 0.0,
			"0.017": 0.0,
			"0.018": 0.0,
			"0.019": 0.0,
			"0.02": 0.0,
			"0.021": 0.0,
			"0.022": 0.0,
			"0.023": 0.0,
			"0.024": 0.0,
			"0.025": 0.0
		}
	}
}
