{
	 "smiles": "ClC(=O)C1=C(OC=N1)C1=CC=CC=C1", 
	 "Tm": 349.65, 
	 "num_atms": 20, 
	 "gaussian": { 
		 "optdone": 1, 
		 "sigma_profile": "yes", 
		 "theory": "DFT", 
		 "functional": "B3LYP", 
		 "basiset": "6-31G**", 
		 "properties": { 
			 "R2extent": 4991.0424, 
			 "electric_dipole_moment_norm": 4.87740846864, 
			 "electric_quadrupole_moment_norm": 22.3523127971, 
			 "total_energy": -1050.06097174, 
			 "HOMO_LUMO_gap": 0.15822, 
			 "cosmo_polarized_energy": -9.43, 
			 "cosmo_cavitation_energy": 26.97, 
			 "cosmo_dispersion_energy": -20.26, 
			 "cosmo_repulsion_energy": 1.57, 
			 "cosmo_total_nonelectrostatic_energy": 8.27, 
			 "SMD_solvation_energy": 4.81 
		},
		"coords": [
			{
				"x": -1.0442845526,
				"y": -1.6772542572,
				"z": 5.4756368273,
				"element": "Cl" 
			},
			{
				"x": -0.8569119481,
				"y": -0.7186462302,
				"z": 3.9573818232,
				"element": "C" 
			},
			{
				"x": -1.2162743018,
				"y": 0.4273697816,
				"z": 3.9456297198,
				"element": "O" 
			},
			{
				"x": -0.2586817717,
				"y": -1.4743383843,
				"z": 2.8545104298,
				"element": "C" 
			},
			{
				"x": 0.064730331,
				"y": -1.0579184737,
				"z": 1.5622282771,
				"element": "C" 
			},
			{
				"x": 0.6056393755,
				"y": -2.1581372846,
				"z": 0.9501451079,
				"element": "O" 
			},
			{
				"x": 0.5827399539,
				"y": -3.155886782,
				"z": 1.8746137856,
				"element": "C" 
			},
			{
				"x": 0.0876630368,
				"y": -2.8129562636,
				"z": 3.0089485989,
				"element": "N" 
			},
			{
				"x": 0.0030561791,
				"y": 0.1399393479,
				"z": 0.7267695523,
				"element": "C" 
			},
			{
				"x": 0.5508856323,
				"y": 0.0835361216,
				"z": -0.573750884,
				"element": "C" 
			},
			{
				"x": 0.5133329481,
				"y": 1.195896402,
				"z": -1.4061954936,
				"element": "C" 
			},
			{
				"x": -0.0697912355,
				"y": 2.3866182399,
				"z": -0.9646460658,
				"element": "C" 
			},
			{
				"x": -0.6143072844,
				"y": 2.4517928709,
				"z": 0.3181030929,
				"element": "C" 
			},
			{
				"x": -0.5823753938,
				"y": 1.3438801807,
				"z": 1.1623628369,
				"element": "C" 
			},
			{
				"x": 0.9742968763,
				"y": -4.1138372405,
				"z": 1.566277478,
				"element": "H" 
			},
			{
				"x": 1.0052602429,
				"y": -0.8350462288,
				"z": -0.924874917,
				"element": "H" 
			},
			{
				"x": 0.9408428138,
				"y": 1.133311294,
				"z": -2.4024059939,
				"element": "H" 
			},
			{
				"x": -0.0983199951,
				"y": 3.2549754231,
				"z": -1.6163003413,
				"element": "H" 
			},
			{
				"x": -1.0702064992,
				"y": 3.3722296512,
				"z": 0.6701994953,
				"element": "H" 
			},
			{
				"x": -1.0058944074,
				"y": 1.4062718321,
				"z": 2.1546666705,
				"element": "H" 
			}
		],
		 "valence_orbital": [ 
			{
				"type": "occ",
				"energy": -0.30838,
				"method": "rhf"
			},
			{
				"type": "occ",
				"energy": -0.30651,
				"method": "rhf"
			},
			{
				"type": "occ",
				"energy": -0.28724,
				"method": "rhf"
			},
			{
				"type": "occ",
				"energy": -0.26746,
				"method": "rhf"
			},
			{
				"type": "occ",
				"energy": -0.2444,
				"method": "rhf"
			},
			{
				"type": "unocc",
				"energy": -0.08618,
				"method": "rhf"
			},
			{
				"type": "unocc",
				"energy": -0.0253,
				"method": "rhf"
			},
			{
				"type": "unocc",
				"energy": -0.01627,
				"method": "rhf"
			},
			{
				"type": "unocc",
				"energy": 0.00796,
				"method": "rhf"
			},
			{
				"type": "unocc",
				"energy": 0.02651,
				"method": "rhf"
			}
		],
		"cosmo_sigma_profile": { 
			"-0.025": 0.0,
			"-0.024": 0.0,
			"-0.023": 0.0,
			"-0.022": 0.0,
			"-0.021": 0.0,
			"-0.02": 0.0,
			"-0.019": 0.0,
			"-0.018": 0.0,
			"-0.017": 0.0,
			"-0.016": 0.0,
			"-0.015": 0.0,
			"-0.014": 0.0,
			"-0.013": 0.117509070463,
			"-0.012": 1.84835853818,
			"-0.011": 2.07840086511,
			"-0.01": 1.64304826547,
			"-0.009": 1.38119650095,
			"-0.008": 1.32082188092,
			"-0.007": 3.07381062849,
			"-0.006": 9.80443362271,
			"-0.005": 13.2288347912,
			"-0.004": 16.4303752594,
			"-0.003": 18.1722329327,
			"-0.002": 16.6240008941,
			"-0.001": 16.7980095284,
			"0.0": 17.6499070356,
			"0.001": 15.4260264861,
			"0.002": 18.8471173264,
			"0.003": 18.8315952802,
			"0.004": 18.8396593944,
			"0.005": 9.12479109646,
			"0.006": 3.2499338886,
			"0.007": 3.84471033053,
			"0.008": 3.81292674478,
			"0.009": 3.67623160863,
			"0.01": 1.57046397042,
			"0.011": 1.20698367709,
			"0.012": 1.17626083023,
			"0.013": 1.25668485247,
			"0.014": 0.271172346893,
			"0.015": 0.0,
			"0.016": 0.0,
			"0.017": 0.0,
			"0.018": 0.0,
			"0.019": 0.0,
			"0.02": 0.0,
			"0.021": 0.0,
			"0.022": 0.0,
			"0.023": 0.0,
			"0.024": 0.0,
			"0.025": 0.0
		}
	}
}
