{
	 "smiles": "ClC1=CC(=CC(Cl)=C1)S(Cl)(=O)=O", 
	 "Tm": 328.15, 
	 "num_atms": 15, 
	 "gaussian": { 
		 "optdone": 1, 
		 "sigma_profile": "yes", 
		 "theory": "DFT", 
		 "functional": "B3LYP", 
		 "basiset": "6-31G**", 
		 "properties": { 
			 "R2extent": 4013.5839, 
			 "electric_dipole_moment_norm": 3.4538647252, 
			 "electric_quadrupole_moment_norm": 7.44120079557, 
			 "total_energy": -2159.58334858, 
			 "HOMO_LUMO_gap": 0.18119, 
			 "cosmo_polarized_energy": -7.8, 
			 "cosmo_cavitation_energy": 27.25, 
			 "cosmo_dispersion_energy": -20.6, 
			 "cosmo_repulsion_energy": 1.62, 
			 "cosmo_total_nonelectrostatic_energy": 8.27, 
			 "SMD_solvation_energy": 2.81 
		},
		"coords": [
			{
				"x": 0.4951740133,
				"y": -3.045420019,
				"z": -1.3694530037,
				"element": "Cl" 
			},
			{
				"x": 0.1632041302,
				"y": -1.3815621873,
				"z": -0.9525415577,
				"element": "C" 
			},
			{
				"x": 1.2036782155,
				"y": -0.5678790158,
				"z": -0.5061230525,
				"element": "C" 
			},
			{
				"x": 0.8910193306,
				"y": 0.7522377941,
				"z": -0.1885397933,
				"element": "C" 
			},
			{
				"x": -0.391032863,
				"y": 1.2861130372,
				"z": -0.3010268238,
				"element": "C" 
			},
			{
				"x": -1.4001990874,
				"y": 0.4360314162,
				"z": -0.7514552781,
				"element": "C" 
			},
			{
				"x": -3.0275147343,
				"y": 1.0500681162,
				"z": -0.9164605785,
				"element": "Cl" 
			},
			{
				"x": -1.1397082202,
				"y": -0.8960255758,
				"z": -1.0785409768,
				"element": "C" 
			},
			{
				"x": 2.2138281863,
				"y": 1.8281567234,
				"z": 0.3711410148,
				"element": "S" 
			},
			{
				"x": 2.1242113478,
				"y": 1.519459835,
				"z": 2.4718901768,
				"element": "Cl" 
			},
			{
				"x": 1.8277145325,
				"y": 3.2132176558,
				"z": 0.1400368251,
				"element": "O" 
			},
			{
				"x": 3.4887168733,
				"y": 1.2819376336,
				"z": -0.072913808,
				"element": "O" 
			},
			{
				"x": 2.2164846152,
				"y": -0.9410408655,
				"z": -0.4180825753,
				"element": "H" 
			},
			{
				"x": -0.5904002702,
				"y": 2.3222334365,
				"z": -0.0571208511,
				"element": "H" 
			},
			{
				"x": -1.9357760695,
				"y": -1.5421279846,
				"z": -1.4277097179,
				"element": "H" 
			}
		],
		 "valence_orbital": [ 
			{
				"type": "occ",
				"energy": -0.34127,
				"method": "rhf"
			},
			{
				"type": "occ",
				"energy": -0.3384,
				"method": "rhf"
			},
			{
				"type": "occ",
				"energy": -0.32563,
				"method": "rhf"
			},
			{
				"type": "occ",
				"energy": -0.29921,
				"method": "rhf"
			},
			{
				"type": "occ",
				"energy": -0.28527,
				"method": "rhf"
			},
			{
				"type": "unocc",
				"energy": -0.10408,
				"method": "rhf"
			},
			{
				"type": "unocc",
				"energy": -0.06417,
				"method": "rhf"
			},
			{
				"type": "unocc",
				"energy": -0.05975,
				"method": "rhf"
			},
			{
				"type": "unocc",
				"energy": -0.01939,
				"method": "rhf"
			},
			{
				"type": "unocc",
				"energy": 0.02071,
				"method": "rhf"
			}
		],
		"cosmo_sigma_profile": { 
			"-0.025": 0.0,
			"-0.024": 0.0,
			"-0.023": 0.0,
			"-0.022": 0.0,
			"-0.021": 0.0,
			"-0.02": 0.0,
			"-0.019": 0.0,
			"-0.018": 0.0,
			"-0.017": 0.0,
			"-0.016": 0.0,
			"-0.015": 0.0,
			"-0.014": 0.0,
			"-0.013": 0.0,
			"-0.012": 0.0,
			"-0.011": 0.0,
			"-0.01": 1.55666441206,
			"-0.009": 3.86481009415,
			"-0.008": 5.00170799996,
			"-0.007": 5.96906558724,
			"-0.006": 6.64157482,
			"-0.005": 6.19048357784,
			"-0.004": 9.25589692096,
			"-0.003": 16.043283409,
			"-0.002": 27.915521757,
			"-0.001": 26.0572471138,
			"0.0": 13.791271185,
			"0.001": 16.7122376354,
			"0.002": 24.0529182963,
			"0.003": 31.8303464412,
			"0.004": 7.98760288086,
			"0.005": 2.75621878079,
			"0.006": 3.71538381774,
			"0.007": 8.31688887064,
			"0.008": 8.21428659362,
			"0.009": 1.49396788856,
			"0.01": 0.0,
			"0.011": 0.0,
			"0.012": 0.0,
			"0.013": 0.0,
			"0.014": 0.0,
			"0.015": 0.0,
			"0.016": 0.0,
			"0.017": 0.0,
			"0.018": 0.0,
			"0.019": 0.0,
			"0.02": 0.0,
			"0.021": 0.0,
			"0.022": 0.0,
			"0.023": 0.0,
			"0.024": 0.0,
			"0.025": 0.0
		}
	}
}
