{
	 "smiles": "O=CCC1=CC=CC=C1", 
	 "Tm": 306.65, 
	 "num_atms": 17, 
	 "gaussian": { 
		 "optdone": 1, 
		 "sigma_profile": "yes", 
		 "theory": "DFT", 
		 "functional": "B3LYP", 
		 "basiset": "6-31G**", 
		 "properties": { 
			 "R2extent": 1571.5156, 
			 "electric_dipole_moment_norm": 2.6959467836, 
			 "electric_quadrupole_moment_norm": 13.2631225513, 
			 "total_energy": -384.883664593, 
			 "HOMO_LUMO_gap": 0.21105, 
			 "cosmo_polarized_energy": -7.46, 
			 "cosmo_cavitation_energy": 21.24, 
			 "cosmo_dispersion_energy": -15.27, 
			 "cosmo_repulsion_energy": 1.26, 
			 "cosmo_total_nonelectrostatic_energy": 7.24, 
			 "SMD_solvation_energy": 4.66 
		},
		"coords": [
			{
				"x": 3.6172768689,
				"y": -1.8163006191,
				"z": -0.8994448015,
				"element": "O" 
			},
			{
				"x": 2.5488186643,
				"y": -1.2908653456,
				"z": -1.1149022526,
				"element": "C" 
			},
			{
				"x": 1.2595074334,
				"y": -1.6298636594,
				"z": -0.3805015123,
				"element": "C" 
			},
			{
				"x": 0.6634154694,
				"y": -0.3952350797,
				"z": 0.268388986,
				"element": "C" 
			},
			{
				"x": -0.4243601478,
				"y": 0.2744626209,
				"z": -0.3052104239,
				"element": "C" 
			},
			{
				"x": -0.9412877408,
				"y": 1.4301649577,
				"z": 0.2836349302,
				"element": "C" 
			},
			{
				"x": -0.3731673902,
				"y": 1.9332124796,
				"z": 1.4546605416,
				"element": "C" 
			},
			{
				"x": 0.714863815,
				"y": 1.2751793675,
				"z": 2.0330176389,
				"element": "C" 
			},
			{
				"x": 1.2305839163,
				"y": 0.1220655059,
				"z": 1.4422432398,
				"element": "C" 
			},
			{
				"x": 2.4441789086,
				"y": -0.4893707404,
				"z": -1.8808079207,
				"element": "H" 
			},
			{
				"x": 1.4852275497,
				"y": -2.410234555,
				"z": 0.3520867085,
				"element": "H" 
			},
			{
				"x": 0.5551945351,
				"y": -2.0405733562,
				"z": -1.1160684624,
				"element": "H" 
			},
			{
				"x": -0.875907215,
				"y": -0.1159283341,
				"z": -1.2140667469,
				"element": "H" 
			},
			{
				"x": -1.7893136764,
				"y": 1.9341224826,
				"z": -0.1712945039,
				"element": "H" 
			},
			{
				"x": -0.7760767443,
				"y": 2.8304952213,
				"z": 1.915279093,
				"element": "H" 
			},
			{
				"x": 1.1622725161,
				"y": 1.6600987655,
				"z": 2.9449714922,
				"element": "H" 
			},
			{
				"x": 2.0789732377,
				"y": -0.3857297115,
				"z": 1.894313994,
				"element": "H" 
			}
		],
		 "valence_orbital": [ 
			{
				"type": "occ",
				"energy": -0.34759,
				"method": "rhf"
			},
			{
				"type": "occ",
				"energy": -0.34485,
				"method": "rhf"
			},
			{
				"type": "occ",
				"energy": -0.26593,
				"method": "rhf"
			},
			{
				"type": "occ",
				"energy": -0.25715,
				"method": "rhf"
			},
			{
				"type": "occ",
				"energy": -0.24221,
				"method": "rhf"
			},
			{
				"type": "unocc",
				"energy": -0.03116,
				"method": "rhf"
			},
			{
				"type": "unocc",
				"energy": -0.01054,
				"method": "rhf"
			},
			{
				"type": "unocc",
				"energy": 0.00275,
				"method": "rhf"
			},
			{
				"type": "unocc",
				"energy": 0.08739,
				"method": "rhf"
			},
			{
				"type": "unocc",
				"energy": 0.11495,
				"method": "rhf"
			}
		],
		"cosmo_sigma_profile": { 
			"-0.025": 0.0,
			"-0.024": 0.0,
			"-0.023": 0.0,
			"-0.022": 0.0,
			"-0.021": 0.0,
			"-0.02": 0.0,
			"-0.019": 0.0,
			"-0.018": 0.0,
			"-0.017": 0.0,
			"-0.016": 0.0,
			"-0.015": 0.0,
			"-0.014": 0.0,
			"-0.013": 0.0,
			"-0.012": 0.0,
			"-0.011": 0.0,
			"-0.01": 0.0,
			"-0.009": 0.0,
			"-0.008": 0.0,
			"-0.007": 3.14805481625,
			"-0.006": 13.8482204437,
			"-0.005": 19.0070869463,
			"-0.004": 16.6281442403,
			"-0.003": 16.5451316641,
			"-0.002": 12.1766332363,
			"-0.001": 10.3187981414,
			"0.0": 8.33754255242,
			"0.001": 9.21582136301,
			"0.002": 7.3445437602,
			"0.003": 9.78957364695,
			"0.004": 9.30750274632,
			"0.005": 9.79625331358,
			"0.006": 7.34035638613,
			"0.007": 1.30270227688,
			"0.008": 2.16982272174,
			"0.009": 2.1556438029,
			"0.01": 2.9643719683,
			"0.011": 4.39331672565,
			"0.012": 3.08827688859,
			"0.013": 0.392638429942,
			"0.014": 0.0,
			"0.015": 0.0,
			"0.016": 0.0,
			"0.017": 0.0,
			"0.018": 0.0,
			"0.019": 0.0,
			"0.02": 0.0,
			"0.021": 0.0,
			"0.022": 0.0,
			"0.023": 0.0,
			"0.024": 0.0,
			"0.025": 0.0
		}
	}
}
