{
	 "smiles": "COC1=C(O)C=CC(C=C(S)C(O)=O)=C1", 
	 "Tm": 434.15, 
	 "num_atms": 25, 
	 "gaussian": { 
		 "optdone": 1, 
		 "sigma_profile": "yes", 
		 "theory": "DFT", 
		 "functional": "B3LYP", 
		 "basiset": "6-31G**", 
		 "properties": { 
			 "R2extent": 5021.9527, 
			 "electric_dipole_moment_norm": 6.53248904859, 
			 "electric_quadrupole_moment_norm": 16.5219502871, 
			 "total_energy": -1086.1516985, 
			 "HOMO_LUMO_gap": 0.14885, 
			 "cosmo_polarized_energy": -16.55, 
			 "cosmo_cavitation_energy": 31.15, 
			 "cosmo_dispersion_energy": -23.06, 
			 "cosmo_repulsion_energy": 1.76, 
			 "cosmo_total_nonelectrostatic_energy": 9.85, 
			 "SMD_solvation_energy": 7.56 
		},
		"coords": [
			{
				"x": 0.3638148026,
				"y": 3.8464767344,
				"z": 1.2431960683,
				"element": "C" 
			},
			{
				"x": -1.0166800833,
				"y": 3.5869718587,
				"z": 1.0221054183,
				"element": "O" 
			},
			{
				"x": -1.413462188,
				"y": 2.2843836369,
				"z": 0.8536749592,
				"element": "C" 
			},
			{
				"x": -2.8036582399,
				"y": 2.1525416318,
				"z": 0.6212899294,
				"element": "C" 
			},
			{
				"x": -3.5915078774,
				"y": 3.251450369,
				"z": 0.5873151927,
				"element": "O" 
			},
			{
				"x": -3.3484312569,
				"y": 0.8868179617,
				"z": 0.4260280136,
				"element": "C" 
			},
			{
				"x": -2.5218323397,
				"y": -0.2319542555,
				"z": 0.4611584165,
				"element": "C" 
			},
			{
				"x": -1.1370159067,
				"y": -0.1226767669,
				"z": 0.6978365258,
				"element": "C" 
			},
			{
				"x": -0.3839658339,
				"y": -1.3654887399,
				"z": 0.713756998,
				"element": "C" 
			},
			{
				"x": 0.9078305562,
				"y": -1.7075999298,
				"z": 0.9463033225,
				"element": "C" 
			},
			{
				"x": 2.254714365,
				"y": -0.5590194755,
				"z": 1.300260457,
				"element": "S" 
			},
			{
				"x": 1.2491118782,
				"y": -3.1735002553,
				"z": 0.8358069772,
				"element": "C" 
			},
			{
				"x": 2.5535283928,
				"y": -3.5003205552,
				"z": 0.9363059561,
				"element": "O" 
			},
			{
				"x": 0.4090507387,
				"y": -4.0314881756,
				"z": 0.6648051105,
				"element": "O" 
			},
			{
				"x": -0.5926254163,
				"y": 1.1711449068,
				"z": 0.894402745,
				"element": "C" 
			},
			{
				"x": 0.4573911846,
				"y": 4.9286315123,
				"z": 1.34133999,
				"element": "H" 
			},
			{
				"x": 0.7155294583,
				"y": 3.3645096848,
				"z": 2.1633428675,
				"element": "H" 
			},
			{
				"x": 0.972558345,
				"y": 3.5011648833,
				"z": 0.399110242,
				"element": "H" 
			},
			{
				"x": -3.0188476932,
				"y": 4.0204631279,
				"z": 0.7391230269,
				"element": "H" 
			},
			{
				"x": -4.4143419092,
				"y": 0.7992468672,
				"z": 0.2460250891,
				"element": "H" 
			},
			{
				"x": -2.9542879019,
				"y": -1.2154563639,
				"z": 0.3043986258,
				"element": "H" 
			},
			{
				"x": -0.9897209743,
				"y": -2.244718196,
				"z": 0.4950048909,
				"element": "H" 
			},
			{
				"x": 2.2366209652,
				"y": -0.6496423058,
				"z": 2.6498144411,
				"element": "H" 
			},
			{
				"x": 3.0762757659,
				"y": -2.6819719977,
				"z": 1.0270251472,
				"element": "H" 
			},
			{
				"x": 0.4681511685,
				"y": 1.2812338424,
				"z": 1.0663695894,
				"element": "H" 
			}
		],
		 "valence_orbital": [ 
			{
				"type": "occ",
				"energy": -0.29229,
				"method": "rhf"
			},
			{
				"type": "occ",
				"energy": -0.28482,
				"method": "rhf"
			},
			{
				"type": "occ",
				"energy": -0.25401,
				"method": "rhf"
			},
			{
				"type": "occ",
				"energy": -0.25278,
				"method": "rhf"
			},
			{
				"type": "occ",
				"energy": -0.21868,
				"method": "rhf"
			},
			{
				"type": "unocc",
				"energy": -0.06983,
				"method": "rhf"
			},
			{
				"type": "unocc",
				"energy": -0.00678,
				"method": "rhf"
			},
			{
				"type": "unocc",
				"energy": 0.01355,
				"method": "rhf"
			},
			{
				"type": "unocc",
				"energy": 0.02601,
				"method": "rhf"
			},
			{
				"type": "unocc",
				"energy": 0.04155,
				"method": "rhf"
			}
		],
		"cosmo_sigma_profile": { 
			"-0.025": 0.0,
			"-0.024": 0.0,
			"-0.023": 0.0,
			"-0.022": 0.0,
			"-0.021": 0.0,
			"-0.02": 0.0,
			"-0.019": 0.0,
			"-0.018": 0.0,
			"-0.017": 0.0,
			"-0.016": 0.0,
			"-0.015": 0.203631426692,
			"-0.014": 0.751847451009,
			"-0.013": 0.743858978496,
			"-0.012": 0.699835022419,
			"-0.011": 2.65326641677,
			"-0.01": 4.49469508352,
			"-0.009": 3.7528260493,
			"-0.008": 4.6848428781,
			"-0.007": 8.4038144191,
			"-0.006": 12.8349924882,
			"-0.005": 16.4534795263,
			"-0.004": 19.2711452811,
			"-0.003": 16.2087459699,
			"-0.002": 12.9951346603,
			"-0.001": 14.2859146409,
			"0.0": 17.0088654911,
			"0.001": 18.6572321917,
			"0.002": 21.4179491227,
			"0.003": 20.3095729007,
			"0.004": 14.2005901526,
			"0.005": 4.2186051718,
			"0.006": 4.8579971914,
			"0.007": 3.07756483193,
			"0.008": 3.5850916236,
			"0.009": 4.31794029934,
			"0.01": 6.17955162297,
			"0.011": 5.74733848163,
			"0.012": 5.44961132625,
			"0.013": 2.98932546343,
			"0.014": 0.644572340694,
			"0.015": 0.0,
			"0.016": 0.0,
			"0.017": 0.0,
			"0.018": 0.0,
			"0.019": 0.0,
			"0.02": 0.0,
			"0.021": 0.0,
			"0.022": 0.0,
			"0.023": 0.0,
			"0.024": 0.0,
			"0.025": 0.0
		}
	}
}
