{
	 "smiles": "COC1=C(OC)C=C(C=C1)C(N)=O", 
	 "Tm": 437.15, 
	 "num_atms": 24, 
	 "gaussian": { 
		 "optdone": 1, 
		 "sigma_profile": "yes", 
		 "theory": "DFT", 
		 "functional": "B3LYP", 
		 "basiset": "6-31G**", 
		 "properties": { 
			 "R2extent": 3331.5267, 
			 "electric_dipole_moment_norm": 3.86962371943, 
			 "electric_quadrupole_moment_norm": 16.4864882419, 
			 "total_energy": -629.995157765, 
			 "HOMO_LUMO_gap": 0.19967, 
			 "cosmo_polarized_energy": -14.59, 
			 "cosmo_cavitation_energy": 27.93, 
			 "cosmo_dispersion_energy": -20.19, 
			 "cosmo_repulsion_energy": 1.62, 
			 "cosmo_total_nonelectrostatic_energy": 9.36, 
			 "SMD_solvation_energy": 7.08 
		},
		"coords": [
			{
				"x": 0.8857330346,
				"y": -1.4978440425,
				"z": 2.6532988522,
				"element": "C" 
			},
			{
				"x": -0.1135380733,
				"y": -0.4768756131,
				"z": 2.5226871469,
				"element": "O" 
			},
			{
				"x": -0.534662277,
				"y": -0.2348122103,
				"z": 1.2370799523,
				"element": "C" 
			},
			{
				"x": -1.2906296386,
				"y": -1.1813473876,
				"z": 0.5171424065,
				"element": "C" 
			},
			{
				"x": -1.5907805833,
				"y": -2.4177941376,
				"z": 1.0455836781,
				"element": "O" 
			},
			{
				"x": -2.5263459277,
				"y": -2.3957296517,
				"z": 2.1310769351,
				"element": "C" 
			},
			{
				"x": -1.7059817202,
				"y": -0.8886030542,
				"z": -0.7806991539,
				"element": "C" 
			},
			{
				"x": -1.3980411859,
				"y": 0.3438852541,
				"z": -1.3736697842,
				"element": "C" 
			},
			{
				"x": -0.66004962,
				"y": 1.2847996276,
				"z": -0.6451337982,
				"element": "C" 
			},
			{
				"x": -0.2355736115,
				"y": 0.9964259111,
				"z": 0.6482815592,
				"element": "C" 
			},
			{
				"x": -1.8113077391,
				"y": 0.7166829961,
				"z": -2.7680386167,
				"element": "C" 
			},
			{
				"x": -2.7860149869,
				"y": -0.0623560851,
				"z": -3.3481261102,
				"element": "N" 
			},
			{
				"x": -1.2952898064,
				"y": 1.6513457832,
				"z": -3.3692935503,
				"element": "O" 
			},
			{
				"x": 1.7987516334,
				"y": -1.2137814503,
				"z": 2.11589552,
				"element": "H" 
			},
			{
				"x": 0.5253050336,
				"y": -2.4598958973,
				"z": 2.277349734,
				"element": "H" 
			},
			{
				"x": 1.1040062129,
				"y": -1.5741814115,
				"z": 3.7201771119,
				"element": "H" 
			},
			{
				"x": -2.6574126558,
				"y": -3.4340073027,
				"z": 2.4422909425,
				"element": "H" 
			},
			{
				"x": -2.1510750462,
				"y": -1.8017647469,
				"z": 2.9699989236,
				"element": "H" 
			},
			{
				"x": -3.4921423689,
				"y": -1.9916959383,
				"z": 1.8021273664,
				"element": "H" 
			},
			{
				"x": -2.2435399762,
				"y": -1.6648052731,
				"z": -1.3162419479,
				"element": "H" 
			},
			{
				"x": -0.4193712639,
				"y": 2.2298016642,
				"z": -1.119088847,
				"element": "H" 
			},
			{
				"x": 0.3411952045,
				"y": 1.7120596812,
				"z": 1.2256656427,
				"element": "H" 
			},
			{
				"x": -3.1359545512,
				"y": 0.2781835377,
				"z": -4.2320730369,
				"element": "H" 
			},
			{
				"x": -3.429380087,
				"y": -0.5859902529,
				"z": -2.775790926,
				"element": "H" 
			}
		],
		 "valence_orbital": [ 
			{
				"type": "occ",
				"energy": -0.27328,
				"method": "rhf"
			},
			{
				"type": "occ",
				"energy": -0.2691,
				"method": "rhf"
			},
			{
				"type": "occ",
				"energy": -0.25293,
				"method": "rhf"
			},
			{
				"type": "occ",
				"energy": -0.24782,
				"method": "rhf"
			},
			{
				"type": "occ",
				"energy": -0.23362,
				"method": "rhf"
			},
			{
				"type": "unocc",
				"energy": -0.03395,
				"method": "rhf"
			},
			{
				"type": "unocc",
				"energy": -0.00632,
				"method": "rhf"
			},
			{
				"type": "unocc",
				"energy": 0.06092,
				"method": "rhf"
			},
			{
				"type": "unocc",
				"energy": 0.07334,
				"method": "rhf"
			},
			{
				"type": "unocc",
				"energy": 0.09032,
				"method": "rhf"
			}
		],
		"cosmo_sigma_profile": { 
			"-0.025": 0.0,
			"-0.024": 0.0,
			"-0.023": 0.0,
			"-0.022": 0.0,
			"-0.021": 0.0,
			"-0.02": 0.0,
			"-0.019": 0.0,
			"-0.018": 0.0,
			"-0.017": 0.0,
			"-0.016": 0.0,
			"-0.015": 0.0377014224639,
			"-0.014": 1.34541038149,
			"-0.013": 2.4828108626,
			"-0.012": 2.40748878631,
			"-0.011": 2.71738826332,
			"-0.01": 2.50943634261,
			"-0.009": 2.30166284724,
			"-0.008": 2.49583867314,
			"-0.007": 2.77552505146,
			"-0.006": 6.99261955499,
			"-0.005": 12.8394045494,
			"-0.004": 16.9277233509,
			"-0.003": 23.4556058627,
			"-0.002": 19.4030580548,
			"-0.001": 16.6030364951,
			"0.0": 13.3508381373,
			"0.001": 14.4029596951,
			"0.002": 13.1347949485,
			"0.003": 15.7187453219,
			"0.004": 10.5732381916,
			"0.005": 4.88963881643,
			"0.006": 4.35870198119,
			"0.007": 4.07719070625,
			"0.008": 4.09259680648,
			"0.009": 2.75189644019,
			"0.01": 3.36531373853,
			"0.011": 4.1303079661,
			"0.012": 2.65596990239,
			"0.013": 4.29838564233,
			"0.014": 3.9660082243,
			"0.015": 0.331803733815,
			"0.016": 0.0,
			"0.017": 0.0,
			"0.018": 0.0,
			"0.019": 0.0,
			"0.02": 0.0,
			"0.021": 0.0,
			"0.022": 0.0,
			"0.023": 0.0,
			"0.024": 0.0,
			"0.025": 0.0
		}
	}
}
