{
	 "smiles": "CC1=NN2C=NN=C2NC1=O", 
	 "Tm": 469.15, 
	 "num_atms": 16, 
	 "gaussian": { 
		 "optdone": 1, 
		 "sigma_profile": "yes", 
		 "theory": "DFT", 
		 "functional": "B3LYP", 
		 "basiset": "6-31G**", 
		 "properties": { 
			 "R2extent": 2457.3925, 
			 "electric_dipole_moment_norm": 3.2699678974, 
			 "electric_quadrupole_moment_norm": 11.570148464, 
			 "total_energy": -542.476585785, 
			 "HOMO_LUMO_gap": 0.16847, 
			 "cosmo_polarized_energy": -17.48, 
			 "cosmo_cavitation_energy": 21.14, 
			 "cosmo_dispersion_energy": -16.02, 
			 "cosmo_repulsion_energy": 1.27, 
			 "cosmo_total_nonelectrostatic_energy": 6.38, 
			 "SMD_solvation_energy": 2.29 
		},
		"coords": [
			{
				"x": -3.7632365673,
				"y": -1.2752223111,
				"z": -2.6685533143,
				"element": "C" 
			},
			{
				"x": -2.5576159929,
				"y": -1.0384818463,
				"z": -1.8163236062,
				"element": "C" 
			},
			{
				"x": -2.717560609,
				"y": -0.5913223341,
				"z": -0.6108532768,
				"element": "N" 
			},
			{
				"x": -1.5690520634,
				"y": -0.402368575,
				"z": 0.100816503,
				"element": "N" 
			},
			{
				"x": -1.4074493016,
				"y": 0.0566406672,
				"z": 1.393178871,
				"element": "C" 
			},
			{
				"x": -0.1384026143,
				"y": 0.0899836541,
				"z": 1.6948376651,
				"element": "N" 
			},
			{
				"x": 0.5949694289,
				"y": -0.3553593258,
				"z": 0.5908702889,
				"element": "N" 
			},
			{
				"x": -0.2854505172,
				"y": -0.6364668149,
				"z": -0.3306196191,
				"element": "C" 
			},
			{
				"x": -0.1349992539,
				"y": -1.1103363659,
				"z": -1.6113824824,
				"element": "N" 
			},
			{
				"x": -1.2221604785,
				"y": -1.3452649924,
				"z": -2.4399412483,
				"element": "C" 
			},
			{
				"x": -1.1065731743,
				"y": -1.7659817573,
				"z": -3.5785644825,
				"element": "O" 
			},
			{
				"x": -3.7027272944,
				"y": -0.6768548596,
				"z": -3.5833469015,
				"element": "H" 
			},
			{
				"x": -3.8018146766,
				"y": -2.3222269316,
				"z": -2.9861092128,
				"element": "H" 
			},
			{
				"x": -4.6683410917,
				"y": -1.0204166687,
				"z": -2.116738516,
				"element": "H" 
			},
			{
				"x": -2.2381363479,
				"y": 0.3353229319,
				"z": 2.0231271823,
				"element": "H" 
			},
			{
				"x": 0.7943505542,
				"y": -1.2965444708,
				"z": -1.9694978503,
				"element": "H" 
			}
		],
		 "valence_orbital": [ 
			{
				"type": "occ",
				"energy": -0.32605,
				"method": "rhf"
			},
			{
				"type": "occ",
				"energy": -0.29285,
				"method": "rhf"
			},
			{
				"type": "occ",
				"energy": -0.28888,
				"method": "rhf"
			},
			{
				"type": "occ",
				"energy": -0.27019,
				"method": "rhf"
			},
			{
				"type": "occ",
				"energy": -0.25545,
				"method": "rhf"
			},
			{
				"type": "unocc",
				"energy": -0.08698,
				"method": "rhf"
			},
			{
				"type": "unocc",
				"energy": -0.00906,
				"method": "rhf"
			},
			{
				"type": "unocc",
				"energy": 0.02651,
				"method": "rhf"
			},
			{
				"type": "unocc",
				"energy": 0.06675,
				"method": "rhf"
			},
			{
				"type": "unocc",
				"energy": 0.0887,
				"method": "rhf"
			}
		],
		"cosmo_sigma_profile": { 
			"-0.025": 0.0,
			"-0.024": 0.0,
			"-0.023": 0.0,
			"-0.022": 0.0,
			"-0.021": 0.0,
			"-0.02": 0.0,
			"-0.019": 0.0078696621647,
			"-0.018": 0.760879555093,
			"-0.017": 1.36991513013,
			"-0.016": 1.10457555435,
			"-0.015": 1.02441336251,
			"-0.014": 0.731117406653,
			"-0.013": 0.85461151075,
			"-0.012": 1.19466687805,
			"-0.011": 3.0751032277,
			"-0.01": 2.7765654208,
			"-0.009": 4.03453330712,
			"-0.008": 4.21733655938,
			"-0.007": 5.48179828642,
			"-0.006": 10.7007108361,
			"-0.005": 11.2868475574,
			"-0.004": 13.6888743295,
			"-0.003": 14.8594241957,
			"-0.002": 12.7712406152,
			"-0.001": 8.16842585082,
			"0.0": 6.04590117377,
			"0.001": 5.53771918874,
			"0.002": 4.10750903795,
			"0.003": 3.21916390127,
			"0.004": 4.95908138866,
			"0.005": 4.43218133107,
			"0.006": 3.17552309794,
			"0.007": 3.70758980199,
			"0.008": 3.43080064458,
			"0.009": 5.32433463997,
			"0.01": 4.93894532639,
			"0.011": 7.7428988207,
			"0.012": 5.59582320307,
			"0.013": 3.5481386579,
			"0.014": 3.00024746452,
			"0.015": 2.50011793966,
			"0.016": 0.856356655941,
			"0.017": 0.0,
			"0.018": 0.0,
			"0.019": 0.0,
			"0.02": 0.0,
			"0.021": 0.0,
			"0.022": 0.0,
			"0.023": 0.0,
			"0.024": 0.0,
			"0.025": 0.0
		}
	}
}
