{
	 "smiles": "CC1(C)S[C@@H]2[C@H](NC(=O)[C@H](N)C3=CC=C(O)C=C3)C(=O)N2[C@H]1C(O)=O", 
	 "Tm": 467.15, 
	 "num_atms": 44, 
	 "gaussian": { 
		 "optdone": 1, 
		 "sigma_profile": "yes", 
		 "theory": "DFT", 
		 "functional": "B3LYP", 
		 "basiset": "6-31G**", 
		 "properties": { 
			 "R2extent": 10742.1959, 
			 "electric_dipole_moment_norm": 3.34369299578, 
			 "electric_quadrupole_moment_norm": 18.2802380274, 
			 "total_energy": -1559.71908593, 
			 "HOMO_LUMO_gap": 0.19895, 
			 "cosmo_polarized_energy": -27.38, 
			 "cosmo_cavitation_energy": 48.97, 
			 "cosmo_dispersion_energy": -32.18, 
			 "cosmo_repulsion_energy": 2.47, 
			 "cosmo_total_nonelectrostatic_energy": 19.26, 
			 "SMD_solvation_energy": 8.05 
		},
		"coords": [
			{
				"x": -3.0171103969,
				"y": -0.8716259944,
				"z": 2.2969064979,
				"element": "C" 
			},
			{
				"x": -2.5907671609,
				"y": -1.1129088945,
				"z": 0.8454612655,
				"element": "C" 
			},
			{
				"x": -3.3480079244,
				"y": -2.3137834634,
				"z": 0.2514342675,
				"element": "C" 
			},
			{
				"x": -0.7453040136,
				"y": -1.4491664237,
				"z": 0.7764298715,
				"element": "S" 
			},
			{
				"x": -0.6927256923,
				"y": -0.8389358087,
				"z": -0.9563639165,
				"element": "C" 
			},
			{
				"x": 0.4099741742,
				"y": 0.2190972777,
				"z": -1.2988352824,
				"element": "C" 
			},
			{
				"x": 1.6074049026,
				"y": 0.2973918475,
				"z": -0.5276425645,
				"element": "N" 
			},
			{
				"x": 2.8417320104,
				"y": 0.1639895853,
				"z": -1.1008093337,
				"element": "C" 
			},
			{
				"x": 3.0000448387,
				"y": -0.0694569239,
				"z": -2.2932509553,
				"element": "O" 
			},
			{
				"x": 4.0583780116,
				"y": 0.4057390794,
				"z": -0.1727818306,
				"element": "C" 
			},
			{
				"x": 5.1382192815,
				"y": -0.436990274,
				"z": -0.6766980709,
				"element": "N" 
			},
			{
				"x": 3.7878838729,
				"y": 0.1561488044,
				"z": 1.3027921941,
				"element": "C" 
			},
			{
				"x": 3.879229407,
				"y": -1.1347017369,
				"z": 1.8396310867,
				"element": "C" 
			},
			{
				"x": 3.6032175934,
				"y": -1.3709235147,
				"z": 3.1840054547,
				"element": "C" 
			},
			{
				"x": 3.2275323316,
				"y": -0.3124647618,
				"z": 4.0209394299,
				"element": "C" 
			},
			{
				"x": 2.9462445256,
				"y": -0.4830464762,
				"z": 5.3462424097,
				"element": "O" 
			},
			{
				"x": 3.1376378603,
				"y": 0.983186958,
				"z": 3.5024435384,
				"element": "C" 
			},
			{
				"x": 3.420703261,
				"y": 1.2066615814,
				"z": 2.1563701659,
				"element": "C" 
			},
			{
				"x": -0.71185372,
				"y": 1.2476855942,
				"z": -0.9940677122,
				"element": "C" 
			},
			{
				"x": -0.7788112583,
				"y": 2.4205588726,
				"z": -0.7307218777,
				"element": "O" 
			},
			{
				"x": -1.6922258484,
				"y": 0.2434781745,
				"z": -0.9956791052,
				"element": "N" 
			},
			{
				"x": -2.7705690374,
				"y": 0.1994475296,
				"z": -0.0194636617,
				"element": "C" 
			},
			{
				"x": -4.1792602827,
				"y": 0.283578597,
				"z": -0.5978021138,
				"element": "C" 
			},
			{
				"x": -4.2419556773,
				"y": 0.0444703078,
				"z": -1.9204609235,
				"element": "O" 
			},
			{
				"x": -5.1532116715,
				"y": 0.5213661039,
				"z": 0.0846032538,
				"element": "O" 
			},
			{
				"x": -4.0728804354,
				"y": -0.5842989461,
				"z": 2.3189422895,
				"element": "H" 
			},
			{
				"x": -2.4297803731,
				"y": -0.0721882869,
				"z": 2.756889757,
				"element": "H" 
			},
			{
				"x": -2.8954673541,
				"y": -1.779801151,
				"z": 2.8947580906,
				"element": "H" 
			},
			{
				"x": -3.0965308632,
				"y": -2.4793241419,
				"z": -0.7998997344,
				"element": "H" 
			},
			{
				"x": -3.1001154779,
				"y": -3.22068164,
				"z": 0.807575008,
				"element": "H" 
			},
			{
				"x": -4.4296531464,
				"y": -2.156322408,
				"z": 0.3244240029,
				"element": "H" 
			},
			{
				"x": -0.8484446244,
				"y": -1.645634598,
				"z": -1.6751757669,
				"element": "H" 
			},
			{
				"x": 0.6954836349,
				"y": 0.1830069487,
				"z": -2.3532461895,
				"element": "H" 
			},
			{
				"x": 1.5456301934,
				"y": 0.4400043091,
				"z": 0.471530998,
				"element": "H" 
			},
			{
				"x": 4.2538139547,
				"y": 1.4894221506,
				"z": -0.2919682305,
				"element": "H" 
			},
			{
				"x": 6.0375081705,
				"y": -0.0675486375,
				"z": -0.3844171286,
				"element": "H" 
			},
			{
				"x": 5.0965366144,
				"y": -0.4303627444,
				"z": -1.6931995321,
				"element": "H" 
			},
			{
				"x": 4.1890908332,
				"y": -1.9466070887,
				"z": 1.1899506751,
				"element": "H" 
			},
			{
				"x": 3.6814464634,
				"y": -2.3790776883,
				"z": 3.5867960069,
				"element": "H" 
			},
			{
				"x": 3.0516513833,
				"y": -1.4157077009,
				"z": 5.5747229549,
				"element": "H" 
			},
			{
				"x": 2.8586423685,
				"y": 1.7968711801,
				"z": 4.1635544761,
				"element": "H" 
			},
			{
				"x": 3.3618926381,
				"y": 2.2203293274,
				"z": 1.7655482796,
				"element": "H" 
			},
			{
				"x": -2.6729813049,
				"y": 1.0728930338,
				"z": 0.6350609097,
				"element": "H" 
			},
			{
				"x": -5.1814420623,
				"y": 0.1182320406,
				"z": -2.1622289536,
				"element": "H" 
			}
		],
		 "valence_orbital": [ 
			{
				"type": "occ",
				"energy": -0.26004,
				"method": "rhf"
			},
			{
				"type": "occ",
				"energy": -0.25581,
				"method": "rhf"
			},
			{
				"type": "occ",
				"energy": -0.24525,
				"method": "rhf"
			},
			{
				"type": "occ",
				"energy": -0.24074,
				"method": "rhf"
			},
			{
				"type": "occ",
				"energy": -0.21853,
				"method": "rhf"
			},
			{
				"type": "unocc",
				"energy": -0.01958,
				"method": "rhf"
			},
			{
				"type": "unocc",
				"energy": -0.01128,
				"method": "rhf"
			},
			{
				"type": "unocc",
				"energy": -0.00721,
				"method": "rhf"
			},
			{
				"type": "unocc",
				"energy": 0.00282,
				"method": "rhf"
			},
			{
				"type": "unocc",
				"energy": 0.00895,
				"method": "rhf"
			}
		],
		"cosmo_sigma_profile": { 
			"-0.025": 0.0,
			"-0.024": 0.0,
			"-0.023": 0.0,
			"-0.022": 0.0,
			"-0.021": 0.0,
			"-0.02": 0.00781109878496,
			"-0.019": 0.488838959138,
			"-0.018": 1.26115187336,
			"-0.017": 2.35735262966,
			"-0.016": 1.86988771569,
			"-0.015": 1.45231760573,
			"-0.014": 1.74661906424,
			"-0.013": 1.65135456287,
			"-0.012": 1.51555375549,
			"-0.011": 1.82976788889,
			"-0.01": 3.27180385196,
			"-0.009": 4.96301675267,
			"-0.008": 7.2341963833,
			"-0.007": 14.7893242142,
			"-0.006": 19.6265602629,
			"-0.005": 24.8568385015,
			"-0.004": 26.1913074754,
			"-0.003": 27.4072904229,
			"-0.002": 25.1454194144,
			"-0.001": 32.7382855837,
			"0.0": 23.6658368928,
			"0.001": 17.087696749,
			"0.002": 17.1209519861,
			"0.003": 18.0926090351,
			"0.004": 20.6201417051,
			"0.005": 16.4277766759,
			"0.006": 9.17382882269,
			"0.007": 10.3603299106,
			"0.008": 9.56077048995,
			"0.009": 8.3570633984,
			"0.01": 10.0423949012,
			"0.011": 16.0578921565,
			"0.012": 7.47617258385,
			"0.013": 2.06937016496,
			"0.014": 0.608542732883,
			"0.015": 0.550095159568,
			"0.016": 0.0175529774591,
			"0.017": 0.0,
			"0.018": 0.0,
			"0.019": 0.0,
			"0.02": 0.0,
			"0.021": 0.0,
			"0.022": 0.0,
			"0.023": 0.0,
			"0.024": 0.0,
			"0.025": 0.0
		}
	}
}
