{
	 "smiles": "NC1=C(Br)C=C(C=C1)S(N)(=O)=O", 
	 "Tm": 427.15, 
	 "num_atms": 19, 
	 "gaussian": { 
		 "optdone": 1, 
		 "sigma_profile": "yes", 
		 "theory": "DFT", 
		 "functional": "B3LYP", 
		 "basiset": "6-31G**", 
		 "properties": { 
			 "R2extent": 4613.0171, 
			 "electric_dipole_moment_norm": 7.61516638492, 
			 "electric_quadrupole_moment_norm": 16.1702890849, 
			 "total_energy": -3462.33431204, 
			 "HOMO_LUMO_gap": 0.19735, 
			 "cosmo_polarized_energy": -22.39, 
			 "cosmo_cavitation_energy": 26.92, 
			 "cosmo_dispersion_energy": -20.87, 
			 "cosmo_repulsion_energy": 1.63, 
			 "cosmo_total_nonelectrostatic_energy": 7.67, 
			 "SMD_solvation_energy": 3.14 
		},
		"coords": [
			{
				"x": 0.2620631269,
				"y": -0.2294248958,
				"z": 2.6255843091,
				"element": "N" 
			},
			{
				"x": 0.1136093615,
				"y": -0.395399067,
				"z": 1.2723586035,
				"element": "C" 
			},
			{
				"x": 0.8653694434,
				"y": -1.3471640135,
				"z": 0.5465211754,
				"element": "C" 
			},
			{
				"x": 2.1747461893,
				"y": -2.400744821,
				"z": 1.465703083,
				"element": "Br" 
			},
			{
				"x": 0.6792046818,
				"y": -1.5464699493,
				"z": -0.8135775652,
				"element": "C" 
			},
			{
				"x": -0.2690344928,
				"y": -0.7798526121,
				"z": -1.4942034268,
				"element": "C" 
			},
			{
				"x": -1.0362601432,
				"y": 0.1668254568,
				"z": -0.8073857663,
				"element": "C" 
			},
			{
				"x": -0.8429075019,
				"y": 0.3541520335,
				"z": 0.55248442,
				"element": "C" 
			},
			{
				"x": -0.487895538,
				"y": -1.007176761,
				"z": -3.2560259981,
				"element": "S" 
			},
			{
				"x": 0.5672462931,
				"y": 0.0510759643,
				"z": -4.0346622136,
				"element": "N" 
			},
			{
				"x": -1.8292245061,
				"y": -0.5313138875,
				"z": -3.5915886035,
				"element": "O" 
			},
			{
				"x": -0.0056623963,
				"y": -2.3467500719,
				"z": -3.5887837279,
				"element": "O" 
			},
			{
				"x": -0.102254312,
				"y": 0.6125486334,
				"z": 3.0420367142,
				"element": "H" 
			},
			{
				"x": 1.0827712078,
				"y": -0.6225906584,
				"z": 3.0613057681,
				"element": "H" 
			},
			{
				"x": 1.2495038483,
				"y": -2.3024735523,
				"z": -1.3406190337,
				"element": "H" 
			},
			{
				"x": -1.7944666148,
				"y": 0.7323591413,
				"z": -1.338280005,
				"element": "H" 
			},
			{
				"x": -1.448205493,
				"y": 1.0787824517,
				"z": 1.0903661515,
				"element": "H" 
			},
			{
				"x": 0.3449633277,
				"y": 1.0254684397,
				"z": -3.8562920682,
				"element": "H" 
			},
			{
				"x": 1.5422335185,
				"y": -0.1699518309,
				"z": -3.8576418168,
				"element": "H" 
			}
		],
		 "valence_orbital": [ 
			{
				"type": "occ",
				"energy": -0.30354,
				"method": "rhf"
			},
			{
				"type": "occ",
				"energy": -0.301,
				"method": "rhf"
			},
			{
				"type": "occ",
				"energy": -0.2983,
				"method": "rhf"
			},
			{
				"type": "occ",
				"energy": -0.26565,
				"method": "rhf"
			},
			{
				"type": "occ",
				"energy": -0.22875,
				"method": "rhf"
			},
			{
				"type": "unocc",
				"energy": -0.0314,
				"method": "rhf"
			},
			{
				"type": "unocc",
				"energy": -0.02906,
				"method": "rhf"
			},
			{
				"type": "unocc",
				"energy": -0.00931,
				"method": "rhf"
			},
			{
				"type": "unocc",
				"energy": 0.0561,
				"method": "rhf"
			},
			{
				"type": "unocc",
				"energy": 0.06452,
				"method": "rhf"
			}
		],
		"cosmo_sigma_profile": { 
			"-0.025": 0.0,
			"-0.024": 0.0,
			"-0.023": 0.0,
			"-0.022": 0.0,
			"-0.021": 0.0,
			"-0.02": 0.0,
			"-0.019": 0.0,
			"-0.018": 0.0,
			"-0.017": 0.0,
			"-0.016": 0.0,
			"-0.015": 2.11186923991,
			"-0.014": 3.60994530717,
			"-0.013": 4.79471817251,
			"-0.012": 4.34658230105,
			"-0.011": 5.43476793057,
			"-0.01": 5.39041601525,
			"-0.009": 5.02999730459,
			"-0.008": 3.55702240742,
			"-0.007": 7.1446122111,
			"-0.006": 7.99568284954,
			"-0.005": 9.10959177187,
			"-0.004": 7.8552263317,
			"-0.003": 7.96301360202,
			"-0.002": 8.51809134689,
			"-0.001": 7.95617224163,
			"0.0": 11.7695799025,
			"0.001": 15.1088955631,
			"0.002": 22.4163855389,
			"0.003": 16.5596711718,
			"0.004": 12.1696969597,
			"0.005": 4.93678486961,
			"0.006": 3.89657592043,
			"0.007": 4.68882669796,
			"0.008": 4.34829644864,
			"0.009": 6.5194554787,
			"0.01": 6.24656449261,
			"0.011": 10.9767319132,
			"0.012": 6.91281160415,
			"0.013": 0.401547704417,
			"0.014": 0.00711704105901,
			"0.015": 0.0,
			"0.016": 0.0,
			"0.017": 0.0,
			"0.018": 0.0,
			"0.019": 0.0,
			"0.02": 0.0,
			"0.021": 0.0,
			"0.022": 0.0,
			"0.023": 0.0,
			"0.024": 0.0,
			"0.025": 0.0
		}
	}
}
