{
	 "smiles": "CC1=C(C=CC=C1)N1N=C(C=C1N)C(C)(C)C", 
	 "Tm": 386.15, 
	 "num_atms": 36, 
	 "gaussian": { 
		 "optdone": 1, 
		 "sigma_profile": "yes", 
		 "theory": "DFT", 
		 "functional": "B3LYP", 
		 "basiset": "6-31G**", 
		 "properties": { 
			 "R2extent": 4814.1907, 
			 "electric_dipole_moment_norm": 3.02942128632, 
			 "electric_quadrupole_moment_norm": 6.02565976139, 
			 "total_energy": -709.197412115, 
			 "HOMO_LUMO_gap": 0.18425, 
			 "cosmo_polarized_energy": -11.39, 
			 "cosmo_cavitation_energy": 37.54, 
			 "cosmo_dispersion_energy": -25.65, 
			 "cosmo_repulsion_energy": 1.99, 
			 "cosmo_total_nonelectrostatic_energy": 13.88, 
			 "SMD_solvation_energy": 6.23 
		},
		"coords": [
			{
				"x": -1.6944169085,
				"y": 1.4681113394,
				"z": -1.1225590129,
				"element": "C" 
			},
			{
				"x": -1.928835633,
				"y": -0.020054756,
				"z": -1.1925611733,
				"element": "C" 
			},
			{
				"x": -0.8878804854,
				"y": -0.9530125686,
				"z": -1.0059357467,
				"element": "C" 
			},
			{
				"x": -1.1290414305,
				"y": -2.3293023552,
				"z": -1.0961249293,
				"element": "C" 
			},
			{
				"x": -2.4089097894,
				"y": -2.8030614482,
				"z": -1.3813678053,
				"element": "C" 
			},
			{
				"x": -3.4536157563,
				"y": -1.896971853,
				"z": -1.556600499,
				"element": "C" 
			},
			{
				"x": -3.2068440045,
				"y": -0.5269092092,
				"z": -1.4584378617,
				"element": "C" 
			},
			{
				"x": 0.4366843791,
				"y": -0.5099737023,
				"z": -0.7247112474,
				"element": "N" 
			},
			{
				"x": 0.6883111483,
				"y": 0.3255377064,
				"z": 0.3400096093,
				"element": "N" 
			},
			{
				"x": 2.0070956026,
				"y": 0.493875372,
				"z": 0.3434015635,
				"element": "C" 
			},
			{
				"x": 2.6278044886,
				"y": -0.2234981609,
				"z": -0.7127495251,
				"element": "C" 
			},
			{
				"x": 1.590600891,
				"y": -0.8577250565,
				"z": -1.3751708256,
				"element": "C" 
			},
			{
				"x": 1.6070430717,
				"y": -1.7415419784,
				"z": -2.4520876927,
				"element": "N" 
			},
			{
				"x": 2.6536998516,
				"y": 1.3757173338,
				"z": 1.4035635655,
				"element": "C" 
			},
			{
				"x": 4.1854716063,
				"y": 1.3647539591,
				"z": 1.2523128329,
				"element": "C" 
			},
			{
				"x": 2.2730688234,
				"y": 0.8474245398,
				"z": 2.8045092919,
				"element": "C" 
			},
			{
				"x": 2.1352675852,
				"y": 2.8229016787,
				"z": 1.2456989017,
				"element": "C" 
			},
			{
				"x": -2.5775239288,
				"y": 2.0117106559,
				"z": -1.4692192455,
				"element": "H" 
			},
			{
				"x": -1.4595618653,
				"y": 1.781557567,
				"z": -0.1022902168,
				"element": "H" 
			},
			{
				"x": -0.8398623722,
				"y": 1.7652122624,
				"z": -1.7393160968,
				"element": "H" 
			},
			{
				"x": -0.3071337121,
				"y": -3.0187682024,
				"z": -0.933838102,
				"element": "H" 
			},
			{
				"x": -2.5867164476,
				"y": -3.8720915494,
				"z": -1.4496492722,
				"element": "H" 
			},
			{
				"x": -4.4574930206,
				"y": -2.2519324175,
				"z": -1.7709117362,
				"element": "H" 
			},
			{
				"x": -4.0233052372,
				"y": 0.1758678204,
				"z": -1.6032326154,
				"element": "H" 
			},
			{
				"x": 3.6763849509,
				"y": -0.2786869991,
				"z": -0.9613762103,
				"element": "H" 
			},
			{
				"x": 0.7549925177,
				"y": -1.7387027561,
				"z": -3.0003994014,
				"element": "H" 
			},
			{
				"x": 2.4201008747,
				"y": -1.6185343839,
				"z": -3.0413050746,
				"element": "H" 
			},
			{
				"x": 4.5914401347,
				"y": 0.353267341,
				"z": 1.3602666128,
				"element": "H" 
			},
			{
				"x": 4.6447598265,
				"y": 1.9932711196,
				"z": 2.0226041664,
				"element": "H" 
			},
			{
				"x": 4.4959683492,
				"y": 1.7542907421,
				"z": 0.2766491468,
				"element": "H" 
			},
			{
				"x": 2.7000295109,
				"y": 1.4869095112,
				"z": 3.5859498799,
				"element": "H" 
			},
			{
				"x": 2.648772368,
				"y": -0.1703780295,
				"z": 2.9545540392,
				"element": "H" 
			},
			{
				"x": 1.1870814505,
				"y": 0.8248618188,
				"z": 2.9249515679,
				"element": "H" 
			},
			{
				"x": 2.3952105938,
				"y": 3.2283355496,
				"z": 0.2617603235,
				"element": "H" 
			},
			{
				"x": 1.0472689443,
				"y": 2.855306396,
				"z": 1.3470527628,
				"element": "H" 
			},
			{
				"x": 2.5751836225,
				"y": 3.4753327129,
				"z": 2.0090600261,
				"element": "H" 
			}
		],
		 "valence_orbital": [ 
			{
				"type": "occ",
				"energy": -0.26703,
				"method": "rhf"
			},
			{
				"type": "occ",
				"energy": -0.26449,
				"method": "rhf"
			},
			{
				"type": "occ",
				"energy": -0.24642,
				"method": "rhf"
			},
			{
				"type": "occ",
				"energy": -0.22026,
				"method": "rhf"
			},
			{
				"type": "occ",
				"energy": -0.19697,
				"method": "rhf"
			},
			{
				"type": "unocc",
				"energy": -0.01272,
				"method": "rhf"
			},
			{
				"type": "unocc",
				"energy": -0.00276,
				"method": "rhf"
			},
			{
				"type": "unocc",
				"energy": 0.04622,
				"method": "rhf"
			},
			{
				"type": "unocc",
				"energy": 0.07799,
				"method": "rhf"
			},
			{
				"type": "unocc",
				"energy": 0.09503,
				"method": "rhf"
			}
		],
		"cosmo_sigma_profile": { 
			"-0.025": 0.0,
			"-0.024": 0.0,
			"-0.023": 0.0,
			"-0.022": 0.0,
			"-0.021": 0.0,
			"-0.02": 0.0,
			"-0.019": 0.0,
			"-0.018": 0.0,
			"-0.017": 0.0,
			"-0.016": 0.0,
			"-0.015": 0.0,
			"-0.014": 0.0460677128834,
			"-0.013": 1.3284804131,
			"-0.012": 1.83285769948,
			"-0.011": 2.63203778461,
			"-0.01": 2.8951923972,
			"-0.009": 2.72424920145,
			"-0.008": 1.57870021881,
			"-0.007": 2.66044288785,
			"-0.006": 7.2574208777,
			"-0.005": 12.2740314149,
			"-0.004": 13.6281329007,
			"-0.003": 20.2416161513,
			"-0.002": 33.5696332112,
			"-0.001": 30.8070943198,
			"0.0": 34.1840480134,
			"0.001": 33.226761297,
			"0.002": 24.6829911002,
			"0.003": 13.1398023961,
			"0.004": 12.736144471,
			"0.005": 15.8053524169,
			"0.006": 9.33314094912,
			"0.007": 6.15961072717,
			"0.008": 2.49484416649,
			"0.009": 2.48804959412,
			"0.01": 1.32385524985,
			"0.011": 2.17235824171,
			"0.012": 1.27003282803,
			"0.013": 1.21990670224,
			"0.014": 0.430120979112,
			"0.015": 0.19542511663,
			"0.016": 0.0,
			"0.017": 0.0,
			"0.018": 0.0,
			"0.019": 0.0,
			"0.02": 0.0,
			"0.021": 0.0,
			"0.022": 0.0,
			"0.023": 0.0,
			"0.024": 0.0,
			"0.025": 0.0
		}
	}
}
