{
	 "smiles": "CC1=C(C=CC=C1)C(N)=S", 
	 "Tm": 415.15, 
	 "num_atms": 19, 
	 "gaussian": { 
		 "optdone": 1, 
		 "sigma_profile": "yes", 
		 "theory": "DFT", 
		 "functional": "B3LYP", 
		 "basiset": "6-31G**", 
		 "properties": { 
			 "R2extent": 1930.3107, 
			 "electric_dipole_moment_norm": 4.67225963962, 
			 "electric_quadrupole_moment_norm": 14.6783388025, 
			 "total_energy": -763.226418247, 
			 "HOMO_LUMO_gap": 0.15542, 
			 "cosmo_polarized_energy": -15.11, 
			 "cosmo_cavitation_energy": 24.06, 
			 "cosmo_dispersion_energy": -17.93, 
			 "cosmo_repulsion_energy": 1.42, 
			 "cosmo_total_nonelectrostatic_energy": 7.54, 
			 "SMD_solvation_energy": 3.22 
		},
		"coords": [
			{
				"x": 1.0053973058,
				"y": 1.7783093939,
				"z": 1.4025543239,
				"element": "C" 
			},
			{
				"x": 0.6828293799,
				"y": 1.355095898,
				"z": -0.0162704526,
				"element": "C" 
			},
			{
				"x": 0.6301879784,
				"y": 0.0029344794,
				"z": -0.4292762855,
				"element": "C" 
			},
			{
				"x": 0.3978622311,
				"y": -0.3070174299,
				"z": -1.7788700107,
				"element": "C" 
			},
			{
				"x": 0.174846634,
				"y": 0.6955519966,
				"z": -2.7168136072,
				"element": "C" 
			},
			{
				"x": 0.2115565874,
				"y": 2.0318973712,
				"z": -2.3163382574,
				"element": "C" 
			},
			{
				"x": 0.4760601711,
				"y": 2.347175777,
				"z": -0.98526734,
				"element": "C" 
			},
			{
				"x": 0.8322459585,
				"y": -1.1333164573,
				"z": 0.5220029078,
				"element": "C" 
			},
			{
				"x": 0.0545661295,
				"y": -1.1023637927,
				"z": 1.6253264449,
				"element": "N" 
			},
			{
				"x": 1.9315867,
				"y": -2.3581368441,
				"z": 0.2565464774,
				"element": "S" 
			},
			{
				"x": 0.1160400156,
				"y": 1.8020335503,
				"z": 2.0452626327,
				"element": "H" 
			},
			{
				"x": 1.423400996,
				"y": 2.7886253619,
				"z": 1.4062519374,
				"element": "H" 
			},
			{
				"x": 1.7288776613,
				"y": 1.1104995689,
				"z": 1.8765059833,
				"element": "H" 
			},
			{
				"x": 0.3963274512,
				"y": -1.3503000185,
				"z": -2.0758542988,
				"element": "H" 
			},
			{
				"x": -0.015872757,
				"y": 0.4353091425,
				"z": -3.7535588118,
				"element": "H" 
			},
			{
				"x": 0.0510860846,
				"y": 2.8266550549,
				"z": -3.0391885944,
				"element": "H" 
			},
			{
				"x": 0.5364346069,
				"y": 3.3900599269,
				"z": -0.6841686358,
				"element": "H" 
			},
			{
				"x": -0.6965413427,
				"y": -0.4354853578,
				"z": 1.7215954008,
				"element": "H" 
			},
			{
				"x": 0.1324082086,
				"y": -1.8538276212,
				"z": 2.2956601858,
				"element": "H" 
			}
		],
		 "valence_orbital": [ 
			{
				"type": "occ",
				"energy": -0.3409,
				"method": "rhf"
			},
			{
				"type": "occ",
				"energy": -0.26056,
				"method": "rhf"
			},
			{
				"type": "occ",
				"energy": -0.25071,
				"method": "rhf"
			},
			{
				"type": "occ",
				"energy": -0.22966,
				"method": "rhf"
			},
			{
				"type": "occ",
				"energy": -0.20389,
				"method": "rhf"
			},
			{
				"type": "unocc",
				"energy": -0.04847,
				"method": "rhf"
			},
			{
				"type": "unocc",
				"energy": -0.00759,
				"method": "rhf"
			},
			{
				"type": "unocc",
				"energy": 0.00809,
				"method": "rhf"
			},
			{
				"type": "unocc",
				"energy": 0.0645,
				"method": "rhf"
			},
			{
				"type": "unocc",
				"energy": 0.09206,
				"method": "rhf"
			}
		],
		"cosmo_sigma_profile": { 
			"-0.025": 0.0,
			"-0.024": 0.0,
			"-0.023": 0.0,
			"-0.022": 0.0,
			"-0.021": 0.0,
			"-0.02": 0.0,
			"-0.019": 0.0,
			"-0.018": 0.0,
			"-0.017": 0.0,
			"-0.016": 0.0342264303578,
			"-0.015": 1.67364377748,
			"-0.014": 2.54353955928,
			"-0.013": 2.43449877889,
			"-0.012": 2.79936764265,
			"-0.011": 2.60807266691,
			"-0.01": 1.81243772864,
			"-0.009": 1.73831034542,
			"-0.008": 1.81096483487,
			"-0.007": 1.86451941239,
			"-0.006": 7.08994223478,
			"-0.005": 12.2547188644,
			"-0.004": 14.5464033803,
			"-0.003": 12.2155884702,
			"-0.002": 13.7337651406,
			"-0.001": 14.7154980073,
			"0.0": 14.7602913516,
			"0.001": 10.585011776,
			"0.002": 8.22334062761,
			"0.003": 9.82561526986,
			"0.004": 11.3165170615,
			"0.005": 11.9775504142,
			"0.006": 4.2368676097,
			"0.007": 5.3103017927,
			"0.008": 5.56679830134,
			"0.009": 6.65548138525,
			"0.01": 4.70756691483,
			"0.011": 3.59533546048,
			"0.012": 2.62239847497,
			"0.013": 0.603599045381,
			"0.014": 0.0,
			"0.015": 0.0,
			"0.016": 0.0,
			"0.017": 0.0,
			"0.018": 0.0,
			"0.019": 0.0,
			"0.02": 0.0,
			"0.021": 0.0,
			"0.022": 0.0,
			"0.023": 0.0,
			"0.024": 0.0,
			"0.025": 0.0
		}
	}
}
