{
	 "smiles": "CCN(CC)C1=NC=C(C=C1)C(O)=O", 
	 "Tm": 428.15, 
	 "num_atms": 28, 
	 "gaussian": { 
		 "optdone": 1, 
		 "sigma_profile": "yes", 
		 "theory": "DFT", 
		 "functional": "B3LYP", 
		 "basiset": "6-31G**", 
		 "properties": { 
			 "R2extent": 4274.4331, 
			 "electric_dipole_moment_norm": 3.45152062286, 
			 "electric_quadrupole_moment_norm": 7.74174380615, 
			 "total_energy": -649.482728075, 
			 "HOMO_LUMO_gap": 0.17513, 
			 "cosmo_polarized_energy": -11.69, 
			 "cosmo_cavitation_energy": 30.87, 
			 "cosmo_dispersion_energy": -22.25, 
			 "cosmo_repulsion_energy": 1.76, 
			 "cosmo_total_nonelectrostatic_energy": 10.37, 
			 "SMD_solvation_energy": 5.74 
		},
		"coords": [
			{
				"x": 0.1599505585,
				"y": -2.6456841984,
				"z": 2.435407399,
				"element": "C" 
			},
			{
				"x": 0.6582131684,
				"y": -2.5507347436,
				"z": 0.9894353359,
				"element": "C" 
			},
			{
				"x": 0.1243651962,
				"y": -1.4064350307,
				"z": 0.2381966888,
				"element": "N" 
			},
			{
				"x": -1.0692472672,
				"y": -1.5970956061,
				"z": -0.5837371688,
				"element": "C" 
			},
			{
				"x": -2.3864181595,
				"y": -1.178283912,
				"z": 0.0846540683,
				"element": "C" 
			},
			{
				"x": 0.7156884042,
				"y": -0.1752456314,
				"z": 0.3638733003,
				"element": "C" 
			},
			{
				"x": 1.7907198339,
				"y": -0.1066809924,
				"z": 1.1834649936,
				"element": "N" 
			},
			{
				"x": 2.4235402219,
				"y": 1.0559061462,
				"z": 1.3154819144,
				"element": "C" 
			},
			{
				"x": 2.0449544188,
				"y": 2.235813614,
				"z": 0.6643377997,
				"element": "C" 
			},
			{
				"x": 0.9191106598,
				"y": 2.1664947443,
				"z": -0.175391007,
				"element": "C" 
			},
			{
				"x": 0.2440149865,
				"y": 0.9746002056,
				"z": -0.3316451206,
				"element": "C" 
			},
			{
				"x": 2.7513737907,
				"y": 3.516821838,
				"z": 0.8242624276,
				"element": "C" 
			},
			{
				"x": 3.817712202,
				"y": 3.4401619369,
				"z": 1.6663732983,
				"element": "O" 
			},
			{
				"x": 2.4437177118,
				"y": 4.5597398795,
				"z": 0.274951157,
				"element": "O" 
			},
			{
				"x": -0.9283099186,
				"y": -2.7516759304,
				"z": 2.4849198887,
				"element": "H" 
			},
			{
				"x": 0.4508058594,
				"y": -1.7522299924,
				"z": 2.9930060069,
				"element": "H" 
			},
			{
				"x": 0.6062965401,
				"y": -3.5166262924,
				"z": 2.9279111031,
				"element": "H" 
			},
			{
				"x": 1.7470064854,
				"y": -2.473723865,
				"z": 0.9889566484,
				"element": "H" 
			},
			{
				"x": 0.3843005119,
				"y": -3.4538984387,
				"z": 0.434009705,
				"element": "H" 
			},
			{
				"x": -1.1137409305,
				"y": -2.6586313436,
				"z": -0.8448430938,
				"element": "H" 
			},
			{
				"x": -0.9421045692,
				"y": -1.0598705097,
				"z": -1.5307020324,
				"element": "H" 
			},
			{
				"x": -2.3694116994,
				"y": -0.1233952835,
				"z": 0.3730532326,
				"element": "H" 
			},
			{
				"x": -3.2237822614,
				"y": -1.3290175414,
				"z": -0.6052584593,
				"element": "H" 
			},
			{
				"x": -2.5771589097,
				"y": -1.7693456884,
				"z": 0.9846957207,
				"element": "H" 
			},
			{
				"x": 3.2830296212,
				"y": 1.0578710866,
				"z": 1.9815841076,
				"element": "H" 
			},
			{
				"x": 0.594928596,
				"y": 3.0652882985,
				"z": -0.6902869082,
				"element": "H" 
			},
			{
				"x": -0.6276133199,
				"y": 0.9298640996,
				"z": -0.971279025,
				"element": "H" 
			},
			{
				"x": 4.1943582689,
				"y": 4.3348131509,
				"z": 1.6870680192,
				"element": "H" 
			}
		],
		 "valence_orbital": [ 
			{
				"type": "occ",
				"energy": -0.29439,
				"method": "rhf"
			},
			{
				"type": "occ",
				"energy": -0.28146,
				"method": "rhf"
			},
			{
				"type": "occ",
				"energy": -0.2716,
				"method": "rhf"
			},
			{
				"type": "occ",
				"energy": -0.25274,
				"method": "rhf"
			},
			{
				"type": "occ",
				"energy": -0.20765,
				"method": "rhf"
			},
			{
				"type": "unocc",
				"energy": -0.03252,
				"method": "rhf"
			},
			{
				"type": "unocc",
				"energy": -0.0172,
				"method": "rhf"
			},
			{
				"type": "unocc",
				"energy": 0.0636,
				"method": "rhf"
			},
			{
				"type": "unocc",
				"energy": 0.07947,
				"method": "rhf"
			},
			{
				"type": "unocc",
				"energy": 0.08826,
				"method": "rhf"
			}
		],
		"cosmo_sigma_profile": { 
			"-0.025": 0.0,
			"-0.024": 0.0,
			"-0.023": 0.0,
			"-0.022": 0.0,
			"-0.021": 0.0,
			"-0.02": 0.0,
			"-0.019": 0.0,
			"-0.018": 0.322789110457,
			"-0.017": 1.15925322514,
			"-0.016": 1.00419630901,
			"-0.015": 0.216327391398,
			"-0.014": 0.746558596429,
			"-0.013": 0.830656995771,
			"-0.012": 0.375896816275,
			"-0.011": 0.823123440193,
			"-0.01": 0.89794201337,
			"-0.009": 0.573995952047,
			"-0.008": 0.667580166024,
			"-0.007": 3.24451190781,
			"-0.006": 7.03744942444,
			"-0.005": 11.3020329252,
			"-0.004": 16.5462688734,
			"-0.003": 22.8826998378,
			"-0.002": 25.4657026309,
			"-0.001": 23.5239981042,
			"0.0": 23.7534601524,
			"0.001": 27.7232664082,
			"0.002": 20.9888557778,
			"0.003": 12.5396657157,
			"0.004": 6.74745438945,
			"0.005": 4.97618421203,
			"0.006": 4.95691795033,
			"0.007": 3.41398524801,
			"0.008": 4.69448175025,
			"0.009": 2.61435600273,
			"0.01": 2.42671463367,
			"0.011": 3.35348342041,
			"0.012": 5.71715794303,
			"0.013": 1.98643013309,
			"0.014": 0.0,
			"0.015": 0.0,
			"0.016": 0.0,
			"0.017": 0.0,
			"0.018": 0.0,
			"0.019": 0.0,
			"0.02": 0.0,
			"0.021": 0.0,
			"0.022": 0.0,
			"0.023": 0.0,
			"0.024": 0.0,
			"0.025": 0.0
		}
	}
}
