{
	 "smiles": "CC(C)(CCCC1=CC=CC=C1)C(O)=O", 
	 "Tm": 322.15, 
	 "num_atms": 33, 
	 "gaussian": { 
		 "optdone": 1, 
		 "sigma_profile": "yes", 
		 "theory": "DFT", 
		 "functional": "B3LYP", 
		 "basiset": "6-31G**", 
		 "properties": { 
			 "R2extent": 5275.5031, 
			 "electric_dipole_moment_norm": 1.30139142459, 
			 "electric_quadrupole_moment_norm": 14.5075101361, 
			 "total_energy": -656.711505732, 
			 "HOMO_LUMO_gap": 0.23974, 
			 "cosmo_polarized_energy": -10.12, 
			 "cosmo_cavitation_energy": 34.7, 
			 "cosmo_dispersion_energy": -23.87, 
			 "cosmo_repulsion_energy": 1.86, 
			 "cosmo_total_nonelectrostatic_energy": 12.69, 
			 "SMD_solvation_energy": 6.57 
		},
		"coords": [
			{
				"x": -3.8489914335,
				"y": -2.181190693,
				"z": -0.4255439635,
				"element": "C" 
			},
			{
				"x": -2.5972266014,
				"y": -1.3127899477,
				"z": -0.1759284044,
				"element": "C" 
			},
			{
				"x": -2.6418179536,
				"y": -0.0928916123,
				"z": -1.1165437722,
				"element": "C" 
			},
			{
				"x": -2.5915582543,
				"y": -0.9004552532,
				"z": 1.3349470549,
				"element": "C" 
			},
			{
				"x": -1.2768280796,
				"y": -0.449090817,
				"z": 1.9998505917,
				"element": "C" 
			},
			{
				"x": -0.6592203194,
				"y": 0.8801158727,
				"z": 1.5158445206,
				"element": "C" 
			},
			{
				"x": 0.5183503646,
				"y": 1.3050088797,
				"z": 2.3680735759,
				"element": "C" 
			},
			{
				"x": 1.8142589034,
				"y": 0.8649105592,
				"z": 2.0647274407,
				"element": "C" 
			},
			{
				"x": 2.9002073206,
				"y": 1.2211015635,
				"z": 2.8654429772,
				"element": "C" 
			},
			{
				"x": 2.7074448623,
				"y": 2.0286298195,
				"z": 3.9880080572,
				"element": "C" 
			},
			{
				"x": 1.4225362629,
				"y": 2.4758490411,
				"z": 4.3013223119,
				"element": "C" 
			},
			{
				"x": 0.339957098,
				"y": 2.1156575295,
				"z": 3.4974291157,
				"element": "C" 
			},
			{
				"x": -1.3678427575,
				"y": -2.19135247,
				"z": -0.4150317589,
				"element": "C" 
			},
			{
				"x": -0.3329496732,
				"y": -1.5330574615,
				"z": -0.9992526506,
				"element": "O" 
			},
			{
				"x": -1.2729966174,
				"y": -3.3564862753,
				"z": -0.0918722221,
				"element": "O" 
			},
			{
				"x": -4.7483865092,
				"y": -1.6317026185,
				"z": -0.1289588119,
				"element": "H" 
			},
			{
				"x": -3.7970177753,
				"y": -3.109928117,
				"z": 0.1460458268,
				"element": "H" 
			},
			{
				"x": -3.9456654816,
				"y": -2.438745437,
				"z": -1.4854626994,
				"element": "H" 
			},
			{
				"x": -3.5558397772,
				"y": 0.4787536332,
				"z": -0.9236560878,
				"element": "H" 
			},
			{
				"x": -1.7906301894,
				"y": 0.5752125636,
				"z": -0.990156479,
				"element": "H" 
			},
			{
				"x": -2.6616686308,
				"y": -0.4102842309,
				"z": -2.1639319897,
				"element": "H" 
			},
			{
				"x": -3.3516461228,
				"y": -0.1169199521,
				"z": 1.455786099,
				"element": "H" 
			},
			{
				"x": -2.9486875524,
				"y": -1.7672741107,
				"z": 1.9025263518,
				"element": "H" 
			},
			{
				"x": -0.525027322,
				"y": -1.2439485783,
				"z": 1.9150615714,
				"element": "H" 
			},
			{
				"x": -1.47923223,
				"y": -0.3562505731,
				"z": 3.0744070457,
				"element": "H" 
			},
			{
				"x": -0.3280635379,
				"y": 0.7754820216,
				"z": 0.4788269845,
				"element": "H" 
			},
			{
				"x": -1.4285908371,
				"y": 1.6627176987,
				"z": 1.531765451,
				"element": "H" 
			},
			{
				"x": 1.9704348873,
				"y": 0.239967284,
				"z": 1.1882067007,
				"element": "H" 
			},
			{
				"x": 3.8972048871,
				"y": 0.8722059115,
				"z": 2.6104357841,
				"element": "H" 
			},
			{
				"x": 3.551720583,
				"y": 2.3104270092,
				"z": 4.6107001188,
				"element": "H" 
			},
			{
				"x": 1.2631909411,
				"y": 3.1093219698,
				"z": 5.1696917512,
				"element": "H" 
			},
			{
				"x": -0.6573904766,
				"y": 2.472257365,
				"z": 3.7454473881,
				"element": "H" 
			},
			{
				"x": 0.386972022,
				"y": -2.1839505741,
				"z": -1.0628078796,
				"element": "H" 
			}
		],
		 "valence_orbital": [ 
			{
				"type": "occ",
				"energy": -0.31725,
				"method": "rhf"
			},
			{
				"type": "occ",
				"energy": -0.30997,
				"method": "rhf"
			},
			{
				"type": "occ",
				"energy": -0.26997,
				"method": "rhf"
			},
			{
				"type": "occ",
				"energy": -0.24553,
				"method": "rhf"
			},
			{
				"type": "occ",
				"energy": -0.2371,
				"method": "rhf"
			},
			{
				"type": "unocc",
				"energy": 0.00264,
				"method": "rhf"
			},
			{
				"type": "unocc",
				"energy": 0.00348,
				"method": "rhf"
			},
			{
				"type": "unocc",
				"energy": 0.00855,
				"method": "rhf"
			},
			{
				"type": "unocc",
				"energy": 0.06665,
				"method": "rhf"
			},
			{
				"type": "unocc",
				"energy": 0.08903,
				"method": "rhf"
			}
		],
		"cosmo_sigma_profile": { 
			"-0.025": 0.0,
			"-0.024": 0.0,
			"-0.023": 0.0,
			"-0.022": 0.0,
			"-0.021": 0.0,
			"-0.02": 0.0,
			"-0.019": 0.0,
			"-0.018": 0.48561057073,
			"-0.017": 0.938852680043,
			"-0.016": 0.710581133372,
			"-0.015": 0.775275747496,
			"-0.014": 0.834700894588,
			"-0.013": 0.0486214077244,
			"-0.012": 0.843545807678,
			"-0.011": 0.958775871853,
			"-0.01": 1.03645014028,
			"-0.009": 0.609782410451,
			"-0.008": 0.229147357192,
			"-0.007": 0.933211729853,
			"-0.006": 1.79280162878,
			"-0.005": 9.60873246464,
			"-0.004": 17.184041173,
			"-0.003": 37.2726561101,
			"-0.002": 34.3541316424,
			"-0.001": 33.3870766361,
			"0.0": 28.1615857166,
			"0.001": 22.4510371159,
			"0.002": 12.2801554322,
			"0.003": 12.1041427808,
			"0.004": 10.7773428407,
			"0.005": 10.8021575518,
			"0.006": 11.2670910648,
			"0.007": 6.4704299383,
			"0.008": 2.93394439152,
			"0.009": 1.17253577165,
			"0.01": 1.89083747578,
			"0.011": 2.80244074842,
			"0.012": 5.11750627458,
			"0.013": 0.842130996562,
			"0.014": 0.0,
			"0.015": 0.0,
			"0.016": 0.0,
			"0.017": 0.0,
			"0.018": 0.0,
			"0.019": 0.0,
			"0.02": 0.0,
			"0.021": 0.0,
			"0.022": 0.0,
			"0.023": 0.0,
			"0.024": 0.0,
			"0.025": 0.0
		}
	}
}
