{
	 "smiles": "OC(=O)C1=CN(N=N1)C1=C(Cl)C=CC=C1", 
	 "Tm": 407.15, 
	 "num_atms": 21, 
	 "gaussian": { 
		 "optdone": 1, 
		 "sigma_profile": "yes", 
		 "theory": "DFT", 
		 "functional": "B3LYP", 
		 "basiset": "6-31G**", 
		 "properties": { 
			 "R2extent": 4231.4046, 
			 "electric_dipole_moment_norm": 6.23546285932, 
			 "electric_quadrupole_moment_norm": 16.8696516576, 
			 "total_energy": -1121.43143287, 
			 "HOMO_LUMO_gap": 0.20766, 
			 "cosmo_polarized_energy": -17.3, 
			 "cosmo_cavitation_energy": 28.87, 
			 "cosmo_dispersion_energy": -21.06, 
			 "cosmo_repulsion_energy": 1.64, 
			 "cosmo_total_nonelectrostatic_energy": 9.45, 
			 "SMD_solvation_energy": 4.89 
		},
		"coords": [
			{
				"x": 0.6317770172,
				"y": 1.3665187626,
				"z": -4.0316501942,
				"element": "O" 
			},
			{
				"x": 1.2937644863,
				"y": 0.28761103,
				"z": -3.5311546042,
				"element": "C" 
			},
			{
				"x": 1.9422045785,
				"y": -0.4676192027,
				"z": -4.218063893,
				"element": "O" 
			},
			{
				"x": 1.1061892525,
				"y": 0.1887537238,
				"z": -2.0736089815,
				"element": "C" 
			},
			{
				"x": 0.3859953235,
				"y": 1.0154649395,
				"z": -1.2353034218,
				"element": "C" 
			},
			{
				"x": 0.5480883447,
				"y": 0.4728045227,
				"z": -0.0051450728,
				"element": "N" 
			},
			{
				"x": 1.3498080154,
				"y": -0.6486627484,
				"z": -0.0862566909,
				"element": "N" 
			},
			{
				"x": 1.6728024918,
				"y": -0.8082698219,
				"z": -1.3240906338,
				"element": "N" 
			},
			{
				"x": 0.1055316336,
				"y": 0.9171984902,
				"z": 1.2709359616,
				"element": "C" 
			},
			{
				"x": -1.2085461485,
				"y": 1.3440854427,
				"z": 1.5181483707,
				"element": "C" 
			},
			{
				"x": -2.4326530498,
				"y": 1.3383163158,
				"z": 0.2628211739,
				"element": "Cl" 
			},
			{
				"x": -1.5793426168,
				"y": 1.7623472675,
				"z": 2.7969501324,
				"element": "C" 
			},
			{
				"x": -0.652304702,
				"y": 1.7382700664,
				"z": 3.8367959426,
				"element": "C" 
			},
			{
				"x": 0.6503748978,
				"y": 1.2954798277,
				"z": 3.6021106075,
				"element": "C" 
			},
			{
				"x": 1.0273180931,
				"y": 0.8934607544,
				"z": 2.3249545793,
				"element": "C" 
			},
			{
				"x": 0.8030802138,
				"y": 1.361575766,
				"z": -4.9878283556,
				"element": "H" 
			},
			{
				"x": -0.1883988265,
				"y": 1.9059612257,
				"z": -1.4244380324,
				"element": "H" 
			},
			{
				"x": -2.5981804675,
				"y": 2.0915051748,
				"z": 2.967087263,
				"element": "H" 
			},
			{
				"x": -0.9531803803,
				"y": 2.0617799233,
				"z": 4.8281890196,
				"element": "H" 
			},
			{
				"x": 1.3758900832,
				"y": 1.2698519351,
				"z": 4.4084988228,
				"element": "H" 
			},
			{
				"x": 2.0330817601,
				"y": 0.5479666047,
				"z": 2.1168480066,
				"element": "H" 
			}
		],
		 "valence_orbital": [ 
			{
				"type": "occ",
				"energy": -0.28668,
				"method": "rhf"
			},
			{
				"type": "occ",
				"energy": -0.28112,
				"method": "rhf"
			},
			{
				"type": "occ",
				"energy": -0.27981,
				"method": "rhf"
			},
			{
				"type": "occ",
				"energy": -0.27442,
				"method": "rhf"
			},
			{
				"type": "occ",
				"energy": -0.2633,
				"method": "rhf"
			},
			{
				"type": "unocc",
				"energy": -0.05564,
				"method": "rhf"
			},
			{
				"type": "unocc",
				"energy": -0.03642,
				"method": "rhf"
			},
			{
				"type": "unocc",
				"energy": -0.02953,
				"method": "rhf"
			},
			{
				"type": "unocc",
				"energy": -0.00608,
				"method": "rhf"
			},
			{
				"type": "unocc",
				"energy": 0.00642,
				"method": "rhf"
			}
		],
		"cosmo_sigma_profile": { 
			"-0.025": 0.0,
			"-0.024": 0.0,
			"-0.023": 0.0,
			"-0.022": 0.0,
			"-0.021": 0.0,
			"-0.02": 0.0,
			"-0.019": 0.189197264419,
			"-0.018": 0.985333327224,
			"-0.017": 0.867632611365,
			"-0.016": 0.919539706228,
			"-0.015": 0.673885329724,
			"-0.014": 0.927665057671,
			"-0.013": 0.64350661617,
			"-0.012": 0.592438565786,
			"-0.011": 1.60911376487,
			"-0.01": 1.75828938932,
			"-0.009": 2.18093148253,
			"-0.008": 4.86288440141,
			"-0.007": 11.4485376609,
			"-0.006": 11.3542241488,
			"-0.005": 10.0359501326,
			"-0.004": 12.5010726589,
			"-0.003": 15.4742601056,
			"-0.002": 18.3838897717,
			"-0.001": 16.8958306339,
			"0.0": 19.6905680625,
			"0.001": 18.5746297527,
			"0.002": 19.6437696015,
			"0.003": 13.4876881544,
			"0.004": 6.90946342068,
			"0.005": 3.9547110903,
			"0.006": 4.75977429492,
			"0.007": 5.82320038816,
			"0.008": 4.21752229123,
			"0.009": 4.83342917376,
			"0.01": 4.9763319789,
			"0.011": 8.1043074759,
			"0.012": 4.35219333156,
			"0.013": 2.39301374575,
			"0.014": 1.03736353401,
			"0.015": 0.0738071585184,
			"0.016": 0.0,
			"0.017": 0.0,
			"0.018": 0.0,
			"0.019": 0.0,
			"0.02": 0.0,
			"0.021": 0.0,
			"0.022": 0.0,
			"0.023": 0.0,
			"0.024": 0.0,
			"0.025": 0.0
		}
	}
}
