{
	 "smiles": "O=C(CC1=NC2=C(S1)C=CC=C2)C1=CC=CC=C1", 
	 "Tm": 387.15, 
	 "num_atms": 29, 
	 "gaussian": { 
		 "optdone": 1, 
		 "sigma_profile": "yes", 
		 "theory": "DFT", 
		 "functional": "B3LYP", 
		 "basiset": "6-31G**", 
		 "properties": { 
			 "R2extent": 6320.8307, 
			 "electric_dipole_moment_norm": 2.41206063357, 
			 "electric_quadrupole_moment_norm": 10.1640364383, 
			 "total_energy": -1106.39963859, 
			 "HOMO_LUMO_gap": 0.17095, 
			 "cosmo_polarized_energy": -10.02, 
			 "cosmo_cavitation_energy": 35.23, 
			 "cosmo_dispersion_energy": -25.53, 
			 "cosmo_repulsion_energy": 1.91, 
			 "cosmo_total_nonelectrostatic_energy": 11.61, 
			 "SMD_solvation_energy": 4.39 
		},
		"coords": [
			{
				"x": 1.6744014347,
				"y": -2.1478280715,
				"z": -0.9626836089,
				"element": "O" 
			},
			{
				"x": 1.2101844624,
				"y": -1.1215768264,
				"z": -0.4920916335,
				"element": "C" 
			},
			{
				"x": 0.6137914501,
				"y": -1.1575873691,
				"z": 0.9301720363,
				"element": "C" 
			},
			{
				"x": -0.8879004057,
				"y": -1.2225344682,
				"z": 0.9350019363,
				"element": "C" 
			},
			{
				"x": -1.6527180362,
				"y": -0.2512513963,
				"z": 1.3202908911,
				"element": "N" 
			},
			{
				"x": -2.9940442804,
				"y": -0.5868182162,
				"z": 1.2052383892,
				"element": "C" 
			},
			{
				"x": -3.2505860068,
				"y": -1.8859461644,
				"z": 0.7027312875,
				"element": "C" 
			},
			{
				"x": -1.7275566025,
				"y": -2.6865635734,
				"z": 0.3709642902,
				"element": "S" 
			},
			{
				"x": -4.5554808053,
				"y": -2.3572724874,
				"z": 0.5372694186,
				"element": "C" 
			},
			{
				"x": -5.6064554504,
				"y": -1.5109183333,
				"z": 0.8813384475,
				"element": "C" 
			},
			{
				"x": -5.3642570245,
				"y": -0.2191911518,
				"z": 1.3811263554,
				"element": "C" 
			},
			{
				"x": -4.0667608281,
				"y": 0.2497700178,
				"z": 1.5462792905,
				"element": "C" 
			},
			{
				"x": 1.2156793482,
				"y": 0.1621589632,
				"z": -1.2550285378,
				"element": "C" 
			},
			{
				"x": 0.5978221938,
				"y": 1.3329010345,
				"z": -0.7857143044,
				"element": "C" 
			},
			{
				"x": 0.6452025216,
				"y": 2.5000811457,
				"z": -1.5484109264,
				"element": "C" 
			},
			{
				"x": 1.3107886705,
				"y": 2.511114624,
				"z": -2.7754510519,
				"element": "C" 
			},
			{
				"x": 1.9258542115,
				"y": 1.3476277295,
				"z": -3.2495919594,
				"element": "C" 
			},
			{
				"x": 1.8753089927,
				"y": 0.1801163339,
				"z": -2.4960656922,
				"element": "C" 
			},
			{
				"x": 1.0330445882,
				"y": -2.0481845529,
				"z": 1.4055055363,
				"element": "H" 
			},
			{
				"x": 0.9059216289,
				"y": -0.276393451,
				"z": 1.506210055,
				"element": "H" 
			},
			{
				"x": -4.7479598884,
				"y": -3.3533475219,
				"z": 0.1519042189,
				"element": "H" 
			},
			{
				"x": -6.6288863938,
				"y": -1.8563916638,
				"z": 0.7611109168,
				"element": "H" 
			},
			{
				"x": -6.2035859501,
				"y": 0.4186953507,
				"z": 1.6410517535,
				"element": "H" 
			},
			{
				"x": -3.8635850072,
				"y": 1.2437579806,
				"z": 1.9310012244,
				"element": "H" 
			},
			{
				"x": 0.0562118749,
				"y": 1.3325064807,
				"z": 0.154292055,
				"element": "H" 
			},
			{
				"x": 0.1601239484,
				"y": 3.4008134781,
				"z": -1.1841529422,
				"element": "H" 
			},
			{
				"x": 1.3488696396,
				"y": 3.4236839226,
				"z": -3.363746486,
				"element": "H" 
			},
			{
				"x": 2.4417878596,
				"y": 1.3552684685,
				"z": -4.2052882266,
				"element": "H" 
			},
			{
				"x": 2.3412838544,
				"y": -0.7361902824,
				"z": -2.842562733,
				"element": "H" 
			}
		],
		 "valence_orbital": [ 
			{
				"type": "occ",
				"energy": -0.26348,
				"method": "rhf"
			},
			{
				"type": "occ",
				"energy": -0.2604,
				"method": "rhf"
			},
			{
				"type": "occ",
				"energy": -0.25865,
				"method": "rhf"
			},
			{
				"type": "occ",
				"energy": -0.23808,
				"method": "rhf"
			},
			{
				"type": "occ",
				"energy": -0.23591,
				"method": "rhf"
			},
			{
				"type": "unocc",
				"energy": -0.06496,
				"method": "rhf"
			},
			{
				"type": "unocc",
				"energy": -0.03486,
				"method": "rhf"
			},
			{
				"type": "unocc",
				"energy": -0.00965,
				"method": "rhf"
			},
			{
				"type": "unocc",
				"energy": -0.00848,
				"method": "rhf"
			},
			{
				"type": "unocc",
				"energy": 0.00972,
				"method": "rhf"
			}
		],
		"cosmo_sigma_profile": { 
			"-0.025": 0.0,
			"-0.024": 0.0,
			"-0.023": 0.0,
			"-0.022": 0.0,
			"-0.021": 0.0,
			"-0.02": 0.0,
			"-0.019": 0.0,
			"-0.018": 0.0,
			"-0.017": 0.0,
			"-0.016": 0.0,
			"-0.015": 0.0,
			"-0.014": 0.0,
			"-0.013": 0.0,
			"-0.012": 0.0,
			"-0.011": 0.0,
			"-0.01": 0.0,
			"-0.009": 0.0,
			"-0.008": 0.668054660596,
			"-0.007": 8.86277166866,
			"-0.006": 21.0654873533,
			"-0.005": 22.2196279841,
			"-0.004": 24.4302923806,
			"-0.003": 16.8091311695,
			"-0.002": 17.4964945443,
			"-0.001": 18.1949509133,
			"0.0": 19.4965893664,
			"0.001": 23.1079409839,
			"0.002": 29.4250613713,
			"0.003": 29.7856556257,
			"0.004": 25.7304932911,
			"0.005": 7.88167829133,
			"0.006": 2.72407375178,
			"0.007": 2.3053927108,
			"0.008": 2.64658236356,
			"0.009": 2.65426908694,
			"0.01": 2.81777228841,
			"0.011": 4.50698165567,
			"0.012": 2.38755403535,
			"0.013": 0.539891403599,
			"0.014": 0.0632476346423,
			"0.015": 0.0,
			"0.016": 0.0,
			"0.017": 0.0,
			"0.018": 0.0,
			"0.019": 0.0,
			"0.02": 0.0,
			"0.021": 0.0,
			"0.022": 0.0,
			"0.023": 0.0,
			"0.024": 0.0,
			"0.0": 0.0
		}
	}
}
