{
	 "smiles": "[O-][N+](=O)C1=CC(=C(I)C=C1)[N+]([O-])=O", 
	 "Tm": 362.15, 
	 "num_atms": 16, 
	 "gaussian": { 
		 "optdone": 1, 
		 "sigma_profile": "no", 
		 "theory": "DFT", 
		 "functional": "B3LYP", 
		 "basiset": "6-31G**", 
		 "properties": { 
			 "R2extent": 3119.9221, 
			 "electric_dipole_moment_norm": 3.69540113519, 
			 "electric_quadrupole_moment_norm": 7.1741395958, 
			 "total_energy": -652.004867677, 
			 "HOMO_LUMO_gap": 0.16456, 
			 "cosmo_polarized_energy": -87449.71, 
			 "cosmo_cavitation_energy": 26.15, 
			 "cosmo_dispersion_energy": -19.79, 
			 "cosmo_repulsion_energy": 1.53, 
			 "cosmo_total_nonelectrostatic_energy": 7.89, 
			 "SMD_solvation_energy": 8.64 
		},
		"coords": [
			{
				"x": 1.9462509392,
				"y": 2.0633141754,
				"z": -2.7087020283,
				"element": "O" 
			},
			{
				"x": 1.0175500112,
				"y": 2.4610032514,
				"z": -2.0093070673,
				"element": "N" 
			},
			{
				"x": 0.4612161636,
				"y": 3.5512570431,
				"z": -2.1180124353,
				"element": "O" 
			},
			{
				"x": 0.5316835198,
				"y": 1.5553124949,
				"z": -0.953191199,
				"element": "C" 
			},
			{
				"x": -0.5181902738,
				"y": 1.9771326203,
				"z": -0.1453042316,
				"element": "C" 
			},
			{
				"x": -0.9627217197,
				"y": 1.110451371,
				"z": 0.8444256656,
				"element": "C" 
			},
			{
				"x": -0.3865878162,
				"y": -0.1486226398,
				"z": 1.0377333685,
				"element": "C" 
			},
			{
				"x": -1.0602111532,
				"y": -1.4608415555,
				"z": 2.5363320421,
				"element": "I" 
			},
			{
				"x": 0.6693132857,
				"y": -0.5404421849,
				"z": 0.2052144893,
				"element": "C" 
			},
			{
				"x": 1.1335805907,
				"y": 0.3098927815,
				"z": -0.7944560086,
				"element": "C" 
			},
			{
				"x": -2.0803933466,
				"y": 1.5768156592,
				"z": 1.6938228481,
				"element": "N" 
			},
			{
				"x": -1.7777152385,
				"y": 2.19357528,
				"z": 2.707776192,
				"element": "O" 
			},
			{
				"x": -3.2116332702,
				"y": 1.3218357236,
				"z": 1.2996288158,
				"element": "O" 
			},
			{
				"x": -0.9661276876,
				"y": 2.9520545361,
				"z": -0.2931888118,
				"element": "H" 
			},
			{
				"x": 1.1276891665,
				"y": -1.5130001819,
				"z": 0.3409814818,
				"element": "H" 
			},
			{
				"x": 1.9486968291,
				"y": 0.0231616257,
				"z": -1.4469531212,
				"element": "H" 
			}
		],
		 "valence_orbital": [ 
			{
				"type": "occ",
				"energy": -0.3249,
				"method": "rhf"
			},
			{
				"type": "occ",
				"energy": -0.31449,
				"method": "rhf"
			},
			{
				"type": "occ",
				"energy": -0.30048,
				"method": "rhf"
			},
			{
				"type": "occ",
				"energy": -0.29943,
				"method": "rhf"
			},
			{
				"type": "occ",
				"energy": -0.28036,
				"method": "rhf"
			},
			{
				"type": "unocc",
				"energy": -0.1158,
				"method": "rhf"
			},
			{
				"type": "unocc",
				"energy": -0.09512,
				"method": "rhf"
			},
			{
				"type": "unocc",
				"energy": -0.07238,
				"method": "rhf"
			},
			{
				"type": "unocc",
				"energy": -0.06392,
				"method": "rhf"
			},
			{
				"type": "unocc",
				"energy": -0.03462,
				"method": "rhf"
			}
		],
		"cosmo_sigma_profile": { 
			"0.0": 0.0,
			"0.0": 0.0,
			"0.0": 0.0,
			"0.0": 0.0,
			"0.0": 0.0,
			"0.0": 0.0,
			"0.0": 0.0,
			"0.0": 0.0,
			"0.0": 0.0,
			"0.0": 0.0,
			"0.0": 0.0,
			"0.0": 0.0,
			"0.0": 0.0,
			"0.0": 0.0,
			"0.0": 0.0,
			"0.0": 0.0,
			"0.0": 0.0,
			"0.0": 0.0,
			"0.0": 0.0,
			"0.0": 0.0,
			"0.0": 0.0,
			"0.0": 0.0,
			"0.0": 0.0,
			"0.0": 0.0,
			"0.0": 0.0,
			"0.0": 0.0,
			"0.0": 0.0,
			"0.0": 0.0,
			"0.0": 0.0,
			"0.0": 0.0,
			"0.0": 0.0,
			"0.0": 0.0,
			"0.0": 0.0,
			"0.0": 0.0,
			"0.0": 0.0,
			"0.0": 0.0,
			"0.0": 0.0,
			"0.0": 0.0,
			"0.0": 0.0,
			"0.0": 0.0,
			"0.0": 0.0,
			"0.0": 0.0,
			"0.0": 0.0,
			"0.0": 0.0,
			"0.0": 0.0,
			"0.0": 0.0,
			"0.0": 0.0,
			"0.0": 0.0,
			"0.0": 0.0,
			"0.0": 0.0,
			"0.0": 0.0
		}
	}
}
