{
	 "smiles": "CC1=CC(NC2=NN=C(S)S2)=CC=C1", 
	 "Tm": 470.15, 
	 "num_atms": 23, 
	 "gaussian": { 
		 "optdone": 1, 
		 "sigma_profile": "yes", 
		 "theory": "DFT", 
		 "functional": "B3LYP", 
		 "basiset": "6-31G**", 
		 "properties": { 
			 "R2extent": 5982.9669, 
			 "electric_dipole_moment_norm": 2.95723976201, 
			 "electric_quadrupole_moment_norm": 11.000914642, 
			 "total_energy": -1308.97833108, 
			 "HOMO_LUMO_gap": 0.17336, 
			 "cosmo_polarized_energy": -12.22, 
			 "cosmo_cavitation_energy": 30.86, 
			 "cosmo_dispersion_energy": -23.6, 
			 "cosmo_repulsion_energy": 1.77, 
			 "cosmo_total_nonelectrostatic_energy": 9.02, 
			 "SMD_solvation_energy": 2.68 
		},
		"coords": [
			{
				"x": -0.6835826563,
				"y": -0.3170001258,
				"z": -2.5645810054,
				"element": "C" 
			},
			{
				"x": 0.1987729735,
				"y": 0.240793055,
				"z": -1.4718708775,
				"element": "C" 
			},
			{
				"x": 0.0897700706,
				"y": -0.2492876698,
				"z": -0.163985658,
				"element": "C" 
			},
			{
				"x": 0.91751731,
				"y": 0.2365233255,
				"z": 0.8569937541,
				"element": "C" 
			},
			{
				"x": 0.8449638009,
				"y": -0.2208781375,
				"z": 2.1838478063,
				"element": "N" 
			},
			{
				"x": -0.1755933488,
				"y": -0.8110407049,
				"z": 2.8773138254,
				"element": "C" 
			},
			{
				"x": 0.0293304853,
				"y": -1.323700148,
				"z": 4.0648168223,
				"element": "N" 
			},
			{
				"x": -1.1182396425,
				"y": -1.7743927387,
				"z": 4.6605347736,
				"element": "N" 
			},
			{
				"x": -2.1743181009,
				"y": -1.6186907031,
				"z": 3.9259377738,
				"element": "C" 
			},
			{
				"x": -3.8073897833,
				"y": -2.1233595771,
				"z": 4.3809081714,
				"element": "S" 
			},
			{
				"x": -1.8686327801,
				"y": -0.8563250632,
				"z": 2.3595881034,
				"element": "S" 
			},
			{
				"x": 1.8871477324,
				"y": 1.2068498781,
				"z": 0.5552029177,
				"element": "C" 
			},
			{
				"x": 2.0054290048,
				"y": 1.6835372124,
				"z": -0.7454954988,
				"element": "C" 
			},
			{
				"x": 1.1620346952,
				"y": 1.2155437999,
				"z": -1.754886618,
				"element": "C" 
			},
			{
				"x": -1.6704095794,
				"y": -0.5947781882,
				"z": -2.1825550967,
				"element": "H" 
			},
			{
				"x": -0.240322585,
				"y": -1.21752645,
				"z": -3.0075055163,
				"element": "H" 
			},
			{
				"x": -0.8230904693,
				"y": 0.4079602368,
				"z": -3.3715629213,
				"element": "H" 
			},
			{
				"x": -0.625419012,
				"y": -1.0382168982,
				"z": 0.0416076235,
				"element": "H" 
			},
			{
				"x": 1.6678727977,
				"y": -0.0910914891,
				"z": 2.757946754,
				"element": "H" 
			},
			{
				"x": -3.3948139574,
				"y": -2.6626747206,
				"z": 5.5455204707,
				"element": "H" 
			},
			{
				"x": 2.5286039939,
				"y": 1.5909630924,
				"z": 1.343886947,
				"element": "H" 
			},
			{
				"x": 2.7538490985,
				"y": 2.4378369605,
				"z": -0.9705394133,
				"element": "H" 
			},
			{
				"x": 1.254719952,
				"y": 1.6047550535,
				"z": -2.7648231378,
				"element": "H" 
			}
		],
		 "valence_orbital": [ 
			{
				"type": "occ",
				"energy": -0.28994,
				"method": "rhf"
			},
			{
				"type": "occ",
				"energy": -0.26716,
				"method": "rhf"
			},
			{
				"type": "occ",
				"energy": -0.25518,
				"method": "rhf"
			},
			{
				"type": "occ",
				"energy": -0.2502,
				"method": "rhf"
			},
			{
				"type": "occ",
				"energy": -0.2064,
				"method": "rhf"
			},
			{
				"type": "unocc",
				"energy": -0.03304,
				"method": "rhf"
			},
			{
				"type": "unocc",
				"energy": -0.01923,
				"method": "rhf"
			},
			{
				"type": "unocc",
				"energy": -0.0067,
				"method": "rhf"
			},
			{
				"type": "unocc",
				"energy": 0.00446,
				"method": "rhf"
			},
			{
				"type": "unocc",
				"energy": 0.01932,
				"method": "rhf"
			}
		],
		"cosmo_sigma_profile": { 
			"-0.025": 0.0,
			"-0.024": 0.0,
			"-0.023": 0.0,
			"-0.022": 0.0,
			"-0.021": 0.0,
			"-0.02": 0.0,
			"-0.019": 0.0,
			"-0.018": 0.0,
			"-0.017": 0.0,
			"-0.016": 0.146993490378,
			"-0.015": 1.05380373362,
			"-0.014": 0.870823803883,
			"-0.013": 1.08670089619,
			"-0.012": 2.55469597869,
			"-0.011": 2.6428179781,
			"-0.01": 2.12256394414,
			"-0.009": 2.37806598734,
			"-0.008": 2.82914646827,
			"-0.007": 2.55055619509,
			"-0.006": 6.65102493113,
			"-0.005": 11.8608280459,
			"-0.004": 20.2394146326,
			"-0.003": 16.7320562421,
			"-0.002": 21.0573457779,
			"-0.001": 24.2165217972,
			"0.0": 26.1228748917,
			"0.001": 21.0565441685,
			"0.002": 18.8669004206,
			"0.003": 11.7606401935,
			"0.004": 13.6774292451,
			"0.005": 13.1343229711,
			"0.006": 7.97349758353,
			"0.007": 2.81177454456,
			"0.008": 1.56275293864,
			"0.009": 2.17914031099,
			"0.01": 2.80621842441,
			"0.011": 2.58265845781,
			"0.012": 3.33783241098,
			"0.013": 2.74832376172,
			"0.014": 1.81025405304,
			"0.015": 0.329050953338,
			"0.016": 0.0,
			"0.017": 0.0,
			"0.018": 0.0,
			"0.019": 0.0,
			"0.02": 0.0,
			"0.021": 0.0,
			"0.022": 0.0,
			"0.023": 0.0,
			"0.024": 0.0,
			"0.025": 0.0
		}
	}
}
