{
	 "smiles": "OC(=O)C(CSC(C1=CC=CC=C1)(C1=CC=CC=C1)C1=CC=CC=C1)NC(=O)OCC1C2=C(C=CC=C2)C2=C1C=CC=C2", 
	 "Tm": 447.15, 
	 "num_atms": 74, 
	 "gaussian": { 
		 "optdone": 1, 
		 "sigma_profile": "yes", 
		 "theory": "DFT", 
		 "functional": "B3LYP", 
		 "basiset": "6-31G**", 
		 "properties": { 
			 "R2extent": 27556.7032, 
			 "electric_dipole_moment_norm": 4.58634921479, 
			 "electric_quadrupole_moment_norm": 12.9826045653, 
			 "total_energy": -2182.49249943, 
			 "HOMO_LUMO_gap": 0.18318, 
			 "cosmo_polarized_energy": -26.07, 
			 "cosmo_cavitation_energy": 76.53, 
			 "cosmo_dispersion_energy": -47.32, 
			 "cosmo_repulsion_energy": 3.52, 
			 "cosmo_total_nonelectrostatic_energy": 32.72, 
			 "SMD_solvation_energy": 12.83 
		},
		"coords": [
			{
				"x": -0.3856625541,
				"y": -3.7823247596,
				"z": 0.1350282262,
				"element": "O" 
			},
			{
				"x": 0.3971249361,
				"y": -2.7615793373,
				"z": 0.5213502512,
				"element": "C" 
			},
			{
				"x": 1.445717913,
				"y": -2.9511738145,
				"z": 1.0919157416,
				"element": "O" 
			},
			{
				"x": -0.1276194038,
				"y": -1.3492768415,
				"z": 0.1669460276,
				"element": "C" 
			},
			{
				"x": 0.8726019438,
				"y": -0.2592936177,
				"z": 0.5740138001,
				"element": "C" 
			},
			{
				"x": 1.082387266,
				"y": -0.1185172584,
				"z": 2.4016753581,
				"element": "S" 
			},
			{
				"x": 0.971719964,
				"y": 1.7564776009,
				"z": 2.7170006198,
				"element": "C" 
			},
			{
				"x": 2.188878509,
				"y": 2.5281592012,
				"z": 2.155154986,
				"element": "C" 
			},
			{
				"x": 2.2361281693,
				"y": 3.9228193983,
				"z": 2.3363150728,
				"element": "C" 
			},
			{
				"x": 3.3212656651,
				"y": 4.6721035249,
				"z": 1.889130122,
				"element": "C" 
			},
			{
				"x": 4.3976230299,
				"y": 4.0441505028,
				"z": 1.2565414336,
				"element": "C" 
			},
			{
				"x": 4.3723458015,
				"y": 2.6624595552,
				"z": 1.086229324,
				"element": "C" 
			},
			{
				"x": 3.2797044426,
				"y": 1.9122344405,
				"z": 1.5330528365,
				"element": "C" 
			},
			{
				"x": 1.0441998241,
				"y": 1.8879006131,
				"z": 4.2581632394,
				"element": "C" 
			},
			{
				"x": 2.0243041272,
				"y": 1.1818055015,
				"z": 4.9760274773,
				"element": "C" 
			},
			{
				"x": 2.1562737615,
				"y": 1.337326801,
				"z": 6.3547953066,
				"element": "C" 
			},
			{
				"x": 1.3263260781,
				"y": 2.2194364812,
				"z": 7.0486115936,
				"element": "C" 
			},
			{
				"x": 0.3672907578,
				"y": 2.9459089717,
				"z": 6.3450803884,
				"element": "C" 
			},
			{
				"x": 0.2269381363,
				"y": 2.7818540987,
				"z": 4.9650854269,
				"element": "C" 
			},
			{
				"x": -0.3675938391,
				"y": 2.2241774416,
				"z": 2.1253531454,
				"element": "C" 
			},
			{
				"x": -0.4435831165,
				"y": 3.0193447857,
				"z": 0.9738873732,
				"element": "C" 
			},
			{
				"x": -1.6797896667,
				"y": 3.3547962652,
				"z": 0.4079964026,
				"element": "C" 
			},
			{
				"x": -2.8644949931,
				"y": 2.8994729161,
				"z": 0.9778443233,
				"element": "C" 
			},
			{
				"x": -2.8071092587,
				"y": 2.0986780107,
				"z": 2.1233422573,
				"element": "C" 
			},
			{
				"x": -1.5775727054,
				"y": 1.76572502,
				"z": 2.684725504,
				"element": "C" 
			},
			{
				"x": -1.4439886938,
				"y": -1.0960718358,
				"z": 0.7449320992,
				"element": "N" 
			},
			{
				"x": -2.6518448391,
				"y": -1.3885597457,
				"z": 0.1978427969,
				"element": "C" 
			},
			{
				"x": -3.734408195,
				"y": -1.0483935038,
				"z": 0.633023032,
				"element": "O" 
			},
			{
				"x": -2.4980885613,
				"y": -2.1623568309,
				"z": -0.9318617609,
				"element": "O" 
			},
			{
				"x": -3.7197531606,
				"y": -2.4713084754,
				"z": -1.6332371806,
				"element": "C" 
			},
			{
				"x": -3.3570267978,
				"y": -3.1950760952,
				"z": -2.9305207379,
				"element": "C" 
			},
			{
				"x": -2.4643349563,
				"y": -2.3959159653,
				"z": -3.8702205547,
				"element": "C" 
			},
			{
				"x": -1.2996325339,
				"y": -3.1288906765,
				"z": -4.1760431827,
				"element": "C" 
			},
			{
				"x": -0.3335154435,
				"y": -2.5947139256,
				"z": -5.0314916086,
				"element": "C" 
			},
			{
				"x": -0.5417222648,
				"y": -1.324485696,
				"z": -5.5746012414,
				"element": "C" 
			},
			{
				"x": -1.6981779434,
				"y": -0.5984679771,
				"z": -5.2702847727,
				"element": "C" 
			},
			{
				"x": -2.6687332902,
				"y": -1.1335514899,
				"z": -4.4145749355,
				"element": "C" 
			},
			{
				"x": -1.3555247385,
				"y": -4.4172626473,
				"z": -3.4700826309,
				"element": "C" 
			},
			{
				"x": -2.5559364848,
				"y": -4.4749600349,
				"z": -2.7325856832,
				"element": "C" 
			},
			{
				"x": -2.8627134631,
				"y": -5.5948845316,
				"z": -1.9673781036,
				"element": "C" 
			},
			{
				"x": -1.9590944168,
				"y": -6.6638777468,
				"z": -1.9385144064,
				"element": "C" 
			},
			{
				"x": -0.7690617667,
				"y": -6.6081588308,
				"z": -2.6711485319,
				"element": "C" 
			},
			{
				"x": -0.4584615267,
				"y": -5.4868614053,
				"z": -3.4435731116,
				"element": "C" 
			},
			{
				"x": -1.1629331223,
				"y": -3.4601933745,
				"z": -0.3599752104,
				"element": "H" 
			},
			{
				"x": -0.22777785,
				"y": -1.3127004732,
				"z": -0.9253412984,
				"element": "H" 
			},
			{
				"x": 0.5221497148,
				"y": 0.7005024983,
				"z": 0.1896050473,
				"element": "H" 
			},
			{
				"x": 1.8392633203,
				"y": -0.4917350727,
				"z": 0.1246691594,
				"element": "H" 
			},
			{
				"x": 1.4158778774,
				"y": 4.4252339069,
				"z": 2.8392645274,
				"element": "H" 
			},
			{
				"x": 3.3291587144,
				"y": 5.7477173492,
				"z": 2.041959053,
				"element": "H" 
			},
			{
				"x": 5.2465619039,
				"y": 4.6263509075,
				"z": 0.9100195247,
				"element": "H" 
			},
			{
				"x": 5.2058494122,
				"y": 2.1554126992,
				"z": 0.6082180135,
				"element": "H" 
			},
			{
				"x": 3.2920206969,
				"y": 0.8350743785,
				"z": 1.4164910911,
				"element": "H" 
			},
			{
				"x": 2.6953039351,
				"y": 0.5098155335,
				"z": 4.4518018375,
				"element": "H" 
			},
			{
				"x": 2.9162414817,
				"y": 0.7706810821,
				"z": 6.885177214,
				"element": "H" 
			},
			{
				"x": 1.4309317999,
				"y": 2.3428267179,
				"z": 8.1226345961,
				"element": "H" 
			},
			{
				"x": -0.2803358835,
				"y": 3.6449739937,
				"z": 6.8668997665,
				"element": "H" 
			},
			{
				"x": -0.5273689453,
				"y": 3.3576211873,
				"z": 4.4413941293,
				"element": "H" 
			},
			{
				"x": 0.4645128002,
				"y": 3.3869494161,
				"z": 0.5106891837,
				"element": "H" 
			},
			{
				"x": -1.7048075851,
				"y": 3.9719990296,
				"z": -0.4858255444,
				"element": "H" 
			},
			{
				"x": -3.8231019183,
				"y": 3.1541893457,
				"z": 0.5359854489,
				"element": "H" 
			},
			{
				"x": -3.7209623439,
				"y": 1.7185228819,
				"z": 2.5690342168,
				"element": "H" 
			},
			{
				"x": -1.5482604388,
				"y": 1.1349266488,
				"z": 3.567705667,
				"element": "H" 
			},
			{
				"x": -1.4750084649,
				"y": -0.569702711,
				"z": 1.6091592297,
				"element": "H" 
			},
			{
				"x": -4.3531522979,
				"y": -3.0934407519,
				"z": -0.9934776508,
				"element": "H" 
			},
			{
				"x": -4.2585874127,
				"y": -1.5410480039,
				"z": -1.8316875478,
				"element": "H" 
			},
			{
				"x": -4.314545844,
				"y": -3.4220510082,
				"z": -3.4235091206,
				"element": "H" 
			},
			{
				"x": 0.5658911828,
				"y": -3.1538415681,
				"z": -5.2739476933,
				"element": "H" 
			},
			{
				"x": 0.2012061958,
				"y": -0.8965941945,
				"z": -6.2416137796,
				"element": "H" 
			},
			{
				"x": -1.8453555836,
				"y": 0.3869605116,
				"z": -5.7025590086,
				"element": "H" 
			},
			{
				"x": -3.5660247534,
				"y": -0.56392499,
				"z": -4.1852803966,
				"element": "H" 
			},
			{
				"x": -3.7871480919,
				"y": -5.6479445664,
				"z": -1.3974879182,
				"element": "H" 
			},
			{
				"x": -2.1829823855,
				"y": -7.5419607339,
				"z": -1.3403372158,
				"element": "H" 
			},
			{
				"x": -0.0771736427,
				"y": -7.4443868669,
				"z": -2.6351328838,
				"element": "H" 
			},
			{
				"x": 0.468871817,
				"y": -5.4507018603,
				"z": -4.0082781606,
				"element": "H" 
			}
		],
		 "valence_orbital": [ 
			{
				"type": "occ",
				"energy": -0.24609,
				"method": "rhf"
			},
			{
				"type": "occ",
				"energy": -0.2442,
				"method": "rhf"
			},
			{
				"type": "occ",
				"energy": -0.2328,
				"method": "rhf"
			},
			{
				"type": "occ",
				"energy": -0.2219,
				"method": "rhf"
			},
			{
				"type": "occ",
				"energy": -0.22115,
				"method": "rhf"
			},
			{
				"type": "unocc",
				"energy": -0.03797,
				"method": "rhf"
			},
			{
				"type": "unocc",
				"energy": -0.02351,
				"method": "rhf"
			},
			{
				"type": "unocc",
				"energy": -0.02,
				"method": "rhf"
			},
			{
				"type": "unocc",
				"energy": -0.01642,
				"method": "rhf"
			},
			{
				"type": "unocc",
				"energy": -0.01144,
				"method": "rhf"
			}
		],
		"cosmo_sigma_profile": { 
			"-0.025": 0.0,
			"-0.024": 0.0,
			"-0.023": 0.0,
			"-0.022": 0.0,
			"-0.021": 0.0,
			"-0.02": 0.0,
			"-0.019": 0.0,
			"-0.018": 0.0,
			"-0.017": 0.0,
			"-0.016": 0.0,
			"-0.015": 0.0,
			"-0.014": 0.0,
			"-0.013": 0.0,
			"-0.012": 0.0,
			"-0.011": 0.0,
			"-0.01": 0.0882554639393,
			"-0.009": 1.5222010905,
			"-0.008": 3.67820122824,
			"-0.007": 9.3358412116,
			"-0.006": 41.3274017859,
			"-0.005": 56.5576739371,
			"-0.004": 60.4566910572,
			"-0.003": 54.0074051545,
			"-0.002": 39.4105938845,
			"-0.001": 39.9401892879,
			"0.0": 36.9194553176,
			"0.001": 34.7999095348,
			"0.002": 41.1774521524,
			"0.003": 43.9616166512,
			"0.004": 43.9368705884,
			"0.005": 43.6107393786,
			"0.006": 20.9839283919,
			"0.007": 6.32661713821,
			"0.008": 5.53457534885,
			"0.009": 5.64954964453,
			"0.01": 6.76189795261,
			"0.011": 7.42872602241,
			"0.012": 7.69795815529,
			"0.013": 1.75303912773,
			"0.014": 0.0,
			"0.015": 0.0,
			"0.016": 0.0,
			"0.017": 0.0,
			"0.018": 0.0,
			"0.019": 0.0,
			"0.02": 0.0,
			"0.021": 0.0,
			"0.022": 0.0,
			"0.023": 0.0,
			"0.024": 0.0,
			"0.025": 0.0
		}
	}
}
