{
	 "smiles": "COC1=C(C=CC=C1)C(N)=NO", 
	 "Tm": 379.15, 
	 "num_atms": 22, 
	 "gaussian": { 
		 "optdone": 1, 
		 "sigma_profile": "yes", 
		 "theory": "DFT", 
		 "functional": "B3LYP", 
		 "basiset": "6-31G**", 
		 "properties": { 
			 "R2extent": 2494.1186, 
			 "electric_dipole_moment_norm": 2.63106277006, 
			 "electric_quadrupole_moment_norm": 8.78102814083, 
			 "total_energy": -570.756648345, 
			 "HOMO_LUMO_gap": 0.18534, 
			 "cosmo_polarized_energy": -13.87, 
			 "cosmo_cavitation_energy": 25.73, 
			 "cosmo_dispersion_energy": -18.8, 
			 "cosmo_repulsion_energy": 1.53, 
			 "cosmo_total_nonelectrostatic_energy": 8.46, 
			 "SMD_solvation_energy": 5.38 
		},
		"coords": [
			{
				"x": 0.3720902081,
				"y": 2.1008308535,
				"z": 2.1070359388,
				"element": "C" 
			},
			{
				"x": -0.2850220208,
				"y": 1.8688518875,
				"z": 0.862737905,
				"element": "O" 
			},
			{
				"x": -0.044846128,
				"y": 0.6664838123,
				"z": 0.2467844926,
				"element": "C" 
			},
			{
				"x": -0.4653784946,
				"y": -0.5843842554,
				"z": 0.7549328609,
				"element": "C" 
			},
			{
				"x": -0.1655306487,
				"y": -1.7372972342,
				"z": 0.0065565518,
				"element": "C" 
			},
			{
				"x": 0.5087626698,
				"y": -1.6691012563,
				"z": -1.2098318614,
				"element": "C" 
			},
			{
				"x": 0.9001648316,
				"y": -0.4266299351,
				"z": -1.7094586613,
				"element": "C" 
			},
			{
				"x": 0.6275165336,
				"y": 0.7273356709,
				"z": -0.9786365938,
				"element": "C" 
			},
			{
				"x": -1.2250802087,
				"y": -0.7551745672,
				"z": 2.0209237185,
				"element": "C" 
			},
			{
				"x": -0.9724491061,
				"y": -1.9014298456,
				"z": 2.7563389059,
				"element": "N" 
			},
			{
				"x": -2.1346551779,
				"y": 0.110757262,
				"z": 2.3308618563,
				"element": "N" 
			},
			{
				"x": -2.7258356479,
				"y": -0.2550756621,
				"z": 3.5780444667,
				"element": "O" 
			},
			{
				"x": -0.0134913446,
				"y": 1.4540700842,
				"z": 2.900639027,
				"element": "H" 
			},
			{
				"x": 0.1654524161,
				"y": 3.1410126001,
				"z": 2.3674323428,
				"element": "H" 
			},
			{
				"x": 1.4571754368,
				"y": 1.9636484514,
				"z": 2.0091326824,
				"element": "H" 
			},
			{
				"x": -0.5041945925,
				"y": -2.6972317759,
				"z": 0.3833013122,
				"element": "H" 
			},
			{
				"x": 0.712403227,
				"y": -2.577850225,
				"z": -1.7679523735,
				"element": "H" 
			},
			{
				"x": 1.4209919005,
				"y": -0.3541996282,
				"z": -2.6599156141,
				"element": "H" 
			},
			{
				"x": 0.9285975797,
				"y": 1.7065400395,
				"z": -1.3366242383,
				"element": "H" 
			},
			{
				"x": -0.019402464,
				"y": -2.2338171532,
				"z": 2.7406599381,
				"element": "H" 
			},
			{
				"x": -1.4104857117,
				"y": -1.9024483498,
				"z": 3.6675306848,
				"element": "H" 
			},
			{
				"x": -3.3816832575,
				"y": 0.4426092268,
				"z": 3.6935066586,
				"element": "H" 
			}
		],
		 "valence_orbital": [ 
			{
				"type": "occ",
				"energy": -0.27836,
				"method": "rhf"
			},
			{
				"type": "occ",
				"energy": -0.26529,
				"method": "rhf"
			},
			{
				"type": "occ",
				"energy": -0.255,
				"method": "rhf"
			},
			{
				"type": "occ",
				"energy": -0.23298,
				"method": "rhf"
			},
			{
				"type": "occ",
				"energy": -0.20758,
				"method": "rhf"
			},
			{
				"type": "unocc",
				"energy": -0.02224,
				"method": "rhf"
			},
			{
				"type": "unocc",
				"energy": 0.00142,
				"method": "rhf"
			},
			{
				"type": "unocc",
				"energy": 0.05475,
				"method": "rhf"
			},
			{
				"type": "unocc",
				"energy": 0.07747,
				"method": "rhf"
			},
			{
				"type": "unocc",
				"energy": 0.09631,
				"method": "rhf"
			}
		],
		"cosmo_sigma_profile": { 
			"-0.025": 0.0,
			"-0.024": 0.0,
			"-0.023": 0.0,
			"-0.022": 0.0,
			"-0.021": 0.0,
			"-0.02": 0.0,
			"-0.019": 0.0,
			"-0.018": 0.0,
			"-0.017": 0.332907321833,
			"-0.016": 1.1289071727,
			"-0.015": 0.983725329821,
			"-0.014": 0.374427520844,
			"-0.013": 1.80447239962,
			"-0.012": 2.26802268251,
			"-0.011": 1.57956330224,
			"-0.01": 2.92458188418,
			"-0.009": 2.85827374449,
			"-0.008": 3.03015325352,
			"-0.007": 2.55861763126,
			"-0.006": 8.9117065133,
			"-0.005": 13.3051751735,
			"-0.004": 15.5700551227,
			"-0.003": 18.1248779066,
			"-0.002": 16.2881913872,
			"-0.001": 11.0734568578,
			"0.0": 9.59079579442,
			"0.001": 9.53339921075,
			"0.002": 9.87378187997,
			"0.003": 12.3537708869,
			"0.004": 15.2024580075,
			"0.005": 11.0970603931,
			"0.006": 5.50465311278,
			"0.007": 5.75162645296,
			"0.008": 4.37019317661,
			"0.009": 3.76572577996,
			"0.01": 4.69494318165,
			"0.011": 2.3558641431,
			"0.012": 1.82453891618,
			"0.013": 1.36265443705,
			"0.014": 1.23026882125,
			"0.015": 1.17045800712,
			"0.016": 0.720389560673,
			"0.017": 0.344304086959,
			"0.018": 0.0,
			"0.019": 0.0,
			"0.02": 0.0,
			"0.021": 0.0,
			"0.022": 0.0,
			"0.023": 0.0,
			"0.024": 0.0,
			"0.025": 0.0
		}
	}
}
