{
	 "smiles": "NC1=C(Cl)N=C(C=C1)C(O)=O", 
	 "Tm": 488.15, 
	 "num_atms": 16, 
	 "gaussian": { 
		 "optdone": 1, 
		 "sigma_profile": "yes", 
		 "theory": "DFT", 
		 "functional": "B3LYP", 
		 "basiset": "6-31G**", 
		 "properties": { 
			 "R2extent": 2777.2012, 
			 "electric_dipole_moment_norm": 7.07375321382, 
			 "electric_quadrupole_moment_norm": 14.6093502768, 
			 "total_energy": -951.81599914, 
			 "HOMO_LUMO_gap": 0.18045, 
			 "cosmo_polarized_energy": -16.43, 
			 "cosmo_cavitation_energy": 22.73, 
			 "cosmo_dispersion_energy": -17.33, 
			 "cosmo_repulsion_energy": 1.4, 
			 "cosmo_total_nonelectrostatic_energy": 6.81, 
			 "SMD_solvation_energy": 4.16 
		},
		"coords": [
			{
				"x": 1.232819825,
				"y": 1.1201857796,
				"z": 0.7331809116,
				"element": "N" 
			},
			{
				"x": 0.4820313201,
				"y": 0.1716325913,
				"z": 0.0911481184,
				"element": "C" 
			},
			{
				"x": -0.1654023,
				"y": -0.8789729391,
				"z": 0.7900921274,
				"element": "C" 
			},
			{
				"x": -0.0461257827,
				"y": -0.9165366374,
				"z": 2.5514474744,
				"element": "Cl" 
			},
			{
				"x": -0.8586080488,
				"y": -1.833141128,
				"z": 0.216804518,
				"element": "N" 
			},
			{
				"x": -0.9810609958,
				"y": -1.8403285936,
				"z": -1.1222164411,
				"element": "C" 
			},
			{
				"x": -0.3936770832,
				"y": -0.8594465116,
				"z": -1.9209725463,
				"element": "C" 
			},
			{
				"x": 0.338028352,
				"y": 0.148001583,
				"z": -1.3095595971,
				"element": "C" 
			},
			{
				"x": -1.7864147896,
				"y": -2.9562137503,
				"z": -1.7165598583,
				"element": "C" 
			},
			{
				"x": -2.2857517537,
				"y": -3.8190321,
				"z": -0.8138235995,
				"element": "O" 
			},
			{
				"x": -1.9726668867,
				"y": -3.0719957057,
				"z": -2.9078653804,
				"element": "O" 
			},
			{
				"x": 1.1208166117,
				"y": 1.2153839174,
				"z": 1.7311315588,
				"element": "H" 
			},
			{
				"x": 1.4575021659,
				"y": 1.9650256072,
				"z": 0.2313428313,
				"element": "H" 
			},
			{
				"x": -0.5226381007,
				"y": -0.9055683084,
				"z": -2.9958864725,
				"element": "H" 
			},
			{
				"x": 0.8111139478,
				"y": 0.9259315399,
				"z": -1.9026897087,
				"element": "H" 
			},
			{
				"x": -1.9970664813,
				"y": -3.5087253442,
				"z": 0.0668260641,
				"element": "H" 
			}
		],
		 "valence_orbital": [ 
			{
				"type": "occ",
				"energy": -0.31161,
				"method": "rhf"
			},
			{
				"type": "occ",
				"energy": -0.30675,
				"method": "rhf"
			},
			{
				"type": "occ",
				"energy": -0.29509,
				"method": "rhf"
			},
			{
				"type": "occ",
				"energy": -0.26504,
				"method": "rhf"
			},
			{
				"type": "occ",
				"energy": -0.23977,
				"method": "rhf"
			},
			{
				"type": "unocc",
				"energy": -0.05932,
				"method": "rhf"
			},
			{
				"type": "unocc",
				"energy": -0.0416,
				"method": "rhf"
			},
			{
				"type": "unocc",
				"energy": 0.01506,
				"method": "rhf"
			},
			{
				"type": "unocc",
				"energy": 0.05124,
				"method": "rhf"
			},
			{
				"type": "unocc",
				"energy": 0.06235,
				"method": "rhf"
			}
		],
		"cosmo_sigma_profile": { 
			"-0.025": 0.0,
			"-0.024": 0.0,
			"-0.023": 0.0,
			"-0.022": 0.0,
			"-0.021": 0.0,
			"-0.02": 0.0,
			"-0.019": 0.0,
			"-0.018": 0.0,
			"-0.017": 0.0,
			"-0.016": 0.0,
			"-0.015": 0.760903185344,
			"-0.014": 2.16314215114,
			"-0.013": 2.27808747496,
			"-0.012": 3.53526485233,
			"-0.011": 4.2151252327,
			"-0.01": 2.65412292681,
			"-0.009": 3.33421739991,
			"-0.008": 4.8030504508,
			"-0.007": 5.15052813879,
			"-0.006": 6.637424636,
			"-0.005": 5.72011330183,
			"-0.004": 5.44162335717,
			"-0.003": 8.32518700398,
			"-0.002": 11.1095244678,
			"-0.001": 17.8070308276,
			"0.0": 16.8986652444,
			"0.001": 14.4786110132,
			"0.002": 10.5958630092,
			"0.003": 9.04097057421,
			"0.004": 11.2195571497,
			"0.005": 6.94642262151,
			"0.006": 4.31233570408,
			"0.007": 2.34262645812,
			"0.008": 3.86575573154,
			"0.009": 3.74657820147,
			"0.01": 4.88214280856,
			"0.011": 4.77281872218,
			"0.012": 5.30261292807,
			"0.013": 2.06122367381,
			"0.014": 0.231164384708,
			"0.015": 0.0,
			"0.016": 0.0,
			"0.017": 0.0,
			"0.018": 0.0,
			"0.019": 0.0,
			"0.02": 0.0,
			"0.021": 0.0,
			"0.022": 0.0,
			"0.023": 0.0,
			"0.024": 0.0,
			"0.025": 0.0
		}
	}
}
