{
	 "smiles": "NC1=C(O)C=CC(CC2=CC=CC=C2)=C1", 
	 "Tm": 410.15, 
	 "num_atms": 28, 
	 "gaussian": { 
		 "optdone": 1, 
		 "sigma_profile": "yes", 
		 "theory": "DFT", 
		 "functional": "B3LYP", 
		 "basiset": "6-31G**", 
		 "properties": { 
			 "R2extent": 4462.8899, 
			 "electric_dipole_moment_norm": 2.52946236382, 
			 "electric_quadrupole_moment_norm": 10.7572363877, 
			 "total_energy": -633.199994192, 
			 "HOMO_LUMO_gap": 0.20171, 
			 "cosmo_polarized_energy": -10.36, 
			 "cosmo_cavitation_energy": 31.65, 
			 "cosmo_dispersion_energy": -22.71, 
			 "cosmo_repulsion_energy": 1.81, 
			 "cosmo_total_nonelectrostatic_energy": 10.74, 
			 "SMD_solvation_energy": 5.69 
		},
		"coords": [
			{
				"x": 0.179141007,
				"y": 2.435614574,
				"z": 1.6220377153,
				"element": "N" 
			},
			{
				"x": 0.14067789,
				"y": 0.991184729,
				"z": 1.630791028,
				"element": "C" 
			},
			{
				"x": 0.1384724387,
				"y": 0.4042488641,
				"z": 2.912074355,
				"element": "C" 
			},
			{
				"x": 0.1724785043,
				"y": 1.1991993343,
				"z": 4.0081470545,
				"element": "O" 
			},
			{
				"x": 0.1086655104,
				"y": -0.9860970426,
				"z": 3.0355111937,
				"element": "C" 
			},
			{
				"x": 0.0860928654,
				"y": -1.7778217027,
				"z": 1.8871926293,
				"element": "C" 
			},
			{
				"x": 0.0925728594,
				"y": -1.2161317355,
				"z": 0.6039567516,
				"element": "C" 
			},
			{
				"x": 0.0460129747,
				"y": -2.0901862483,
				"z": -0.6389796888,
				"element": "C" 
			},
			{
				"x": 1.1638062871,
				"y": -1.8366922911,
				"z": -1.6380950882,
				"element": "C" 
			},
			{
				"x": 0.8792840031,
				"y": -1.5268980853,
				"z": -2.9730542169,
				"element": "C" 
			},
			{
				"x": 1.9061597358,
				"y": -1.3131238219,
				"z": -3.8967478966,
				"element": "C" 
			},
			{
				"x": 3.2380872332,
				"y": -1.4068571076,
				"z": -3.4949366163,
				"element": "C" 
			},
			{
				"x": 3.535451255,
				"y": -1.7137776693,
				"z": -2.1638741192,
				"element": "C" 
			},
			{
				"x": 2.5081310536,
				"y": -1.9238143102,
				"z": -1.2457674626,
				"element": "C" 
			},
			{
				"x": 0.1204016402,
				"y": 0.1820546389,
				"z": 0.4979056437,
				"element": "C" 
			},
			{
				"x": 0.9417018549,
				"y": 2.7817337472,
				"z": 1.0458865427,
				"element": "H" 
			},
			{
				"x": -0.6815730484,
				"y": 2.8272390576,
				"z": 1.2469784617,
				"element": "H" 
			},
			{
				"x": 0.2268297458,
				"y": 2.1054652181,
				"z": 3.6400650952,
				"element": "H" 
			},
			{
				"x": 0.1109446675,
				"y": -1.4286841355,
				"z": 4.0261584363,
				"element": "H" 
			},
			{
				"x": 0.0632444578,
				"y": -2.8598997944,
				"z": 1.9930653373,
				"element": "H" 
			},
			{
				"x": -0.9160557101,
				"y": -1.9567720354,
				"z": -1.1506047593,
				"element": "H" 
			},
			{
				"x": 0.0737827616,
				"y": -3.1415318831,
				"z": -0.3255123636,
				"element": "H" 
			},
			{
				"x": -0.1573632291,
				"y": -1.4559523462,
				"z": -3.2945027688,
				"element": "H" 
			},
			{
				"x": 1.6627348971,
				"y": -1.073439875,
				"z": -4.9282772578,
				"element": "H" 
			},
			{
				"x": 4.0389105741,
				"y": -1.2418354174,
				"z": -4.21013581,
				"element": "H" 
			},
			{
				"x": 4.5704658801,
				"y": -1.7886187627,
				"z": -1.8414482273,
				"element": "H" 
			},
			{
				"x": 2.7457881546,
				"y": -2.151781689,
				"z": -0.2098801255,
				"element": "H" 
			},
			{
				"x": 0.1348537364,
				"y": 0.6476757899,
				"z": -0.4855538436,
				"element": "H" 
			}
		],
		 "valence_orbital": [ 
			{
				"type": "occ",
				"energy": -0.27512,
				"method": "rhf"
			},
			{
				"type": "occ",
				"energy": -0.24697,
				"method": "rhf"
			},
			{
				"type": "occ",
				"energy": -0.24471,
				"method": "rhf"
			},
			{
				"type": "occ",
				"energy": -0.23878,
				"method": "rhf"
			},
			{
				"type": "occ",
				"energy": -0.2053,
				"method": "rhf"
			},
			{
				"type": "unocc",
				"energy": -0.00359,
				"method": "rhf"
			},
			{
				"type": "unocc",
				"energy": -0.00026,
				"method": "rhf"
			},
			{
				"type": "unocc",
				"energy": 0.00474,
				"method": "rhf"
			},
			{
				"type": "unocc",
				"energy": 0.02196,
				"method": "rhf"
			},
			{
				"type": "unocc",
				"energy": 0.07352,
				"method": "rhf"
			}
		],
		"cosmo_sigma_profile": { 
			"-0.025": 0.0,
			"-0.024": 0.0,
			"-0.023": 0.0,
			"-0.022": 0.0,
			"-0.021": 0.0,
			"-0.02": 0.0,
			"-0.019": 0.0,
			"-0.018": 0.0,
			"-0.017": 0.0,
			"-0.016": 0.0,
			"-0.015": 0.0,
			"-0.014": 0.0,
			"-0.013": 0.0,
			"-0.012": 0.786376760255,
			"-0.011": 2.83491815111,
			"-0.01": 2.9399215327,
			"-0.009": 3.29978122479,
			"-0.008": 3.12635784035,
			"-0.007": 3.38540316599,
			"-0.006": 4.89432127062,
			"-0.005": 18.9680215397,
			"-0.004": 22.648798232,
			"-0.003": 22.8950743594,
			"-0.002": 19.1707471408,
			"-0.001": 18.5728743991,
			"0.0": 17.5451736815,
			"0.001": 12.6956363341,
			"0.002": 14.9373428096,
			"0.003": 13.8653644523,
			"0.004": 18.1379553078,
			"0.005": 17.6567517119,
			"0.006": 16.7281029915,
			"0.007": 6.37355290063,
			"0.008": 2.11182023825,
			"0.009": 1.50072614534,
			"0.01": 1.45267069527,
			"0.011": 1.71703417991,
			"0.012": 2.43801818977,
			"0.013": 0.362772931312,
			"0.014": 0.0,
			"0.015": 0.0,
			"0.016": 0.0,
			"0.017": 0.0,
			"0.018": 0.0,
			"0.019": 0.0,
			"0.02": 0.0,
			"0.021": 0.0,
			"0.022": 0.0,
			"0.023": 0.0,
			"0.024": 0.0,
			"0.025": 0.0
		}
	}
}
