{
	 "smiles": "C1=CC=C(C=C1)C1=C2C=CC=CC2=C(C2=CC=CC=C2)C2=CC=CC=C12", 
	 "Tm": 521.15, 
	 "num_atms": 44, 
	 "gaussian": { 
		 "optdone": 1, 
		 "sigma_profile": "yes", 
		 "theory": "DFT", 
		 "functional": "B3LYP", 
		 "basiset": "6-31G**", 
		 "properties": { 
			 "R2extent": 9614.2859, 
			 "electric_dipole_moment_norm": 0.0, 
			 "electric_quadrupole_moment_norm": 9.65214485335, 
			 "total_energy": -1001.63786228, 
			 "HOMO_LUMO_gap": 0.1285, 
			 "cosmo_polarized_energy": -7.66, 
			 "cosmo_cavitation_energy": 46.87, 
			 "cosmo_dispersion_energy": -32.05, 
			 "cosmo_repulsion_energy": 2.42, 
			 "cosmo_total_nonelectrostatic_energy": 17.24, 
			 "SMD_solvation_energy": 7.11 
		},
		"coords": [
			{
				"x": -4.0241347954,
				"y": 2.8365314284,
				"z": 1.5507162507,
				"element": "C" 
			},
			{
				"x": -2.7513919505,
				"y": 3.4056332418,
				"z": 1.4765279082,
				"element": "C" 
			},
			{
				"x": -1.6515771028,
				"y": 2.6211397386,
				"z": 1.1250271359,
				"element": "C" 
			},
			{
				"x": -1.8062512426,
				"y": 1.2554178499,
				"z": 0.8420407863,
				"element": "C" 
			},
			{
				"x": -3.0903464815,
				"y": 0.6948533344,
				"z": 0.9199061136,
				"element": "C" 
			},
			{
				"x": -4.1905878231,
				"y": 1.4787684496,
				"z": 1.2713845995,
				"element": "C" 
			},
			{
				"x": -0.6253367216,
				"y": 0.4136517361,
				"z": 0.4647200495,
				"element": "C" 
			},
			{
				"x": 0.1174710875,
				"y": -0.2482812954,
				"z": 1.4660839945,
				"element": "C" 
			},
			{
				"x": -0.2241403359,
				"y": -0.1417449182,
				"z": 2.853637392,
				"element": "C" 
			},
			{
				"x": 0.5013450385,
				"y": -0.7868557984,
				"z": 3.8195606956,
				"element": "C" 
			},
			{
				"x": 1.6225687607,
				"y": -1.5856730231,
				"z": 3.4614116256,
				"element": "C" 
			},
			{
				"x": 1.9862282153,
				"y": -1.7165932052,
				"z": 2.1475890741,
				"element": "C" 
			},
			{
				"x": 1.2583603807,
				"y": -1.0612143776,
				"z": 1.1016183322,
				"element": "C" 
			},
			{
				"x": 1.6269531986,
				"y": -1.1912735668,
				"z": -0.2548070661,
				"element": "C" 
			},
			{
				"x": 2.8078668227,
				"y": -2.0330381278,
				"z": -0.6321300593,
				"element": "C" 
			},
			{
				"x": 4.091942716,
				"y": -1.4724485643,
				"z": -0.7101066502,
				"element": "C" 
			},
			{
				"x": 5.1921842449,
				"y": -2.2563621067,
				"z": -1.0615886423,
				"element": "C" 
			},
			{
				"x": 5.0257487969,
				"y": -3.6141491555,
				"z": -1.3408124568,
				"element": "C" 
			},
			{
				"x": 3.7530224507,
				"y": -4.1832747154,
				"z": -1.2665187007,
				"element": "C" 
			},
			{
				"x": 2.6532079345,
				"y": -3.3987828458,
				"z": -0.9150135663,
				"element": "C" 
			},
			{
				"x": 0.8841433028,
				"y": -0.5293419214,
				"z": -1.2561707856,
				"element": "C" 
			},
			{
				"x": 1.225747704,
				"y": -0.6358895926,
				"z": -2.6437229287,
				"element": "C" 
			},
			{
				"x": 0.5002632294,
				"y": 0.0092225059,
				"z": -3.609647549,
				"element": "C" 
			},
			{
				"x": -0.6209519287,
				"y": 0.8080484165,
				"z": -3.2514987624,
				"element": "C" 
			},
			{
				"x": -0.9846105018,
				"y": 0.9389721242,
				"z": -1.9376750309,
				"element": "C" 
			},
			{
				"x": -0.2567445228,
				"y": 0.2835900681,
				"z": -0.8917064961,
				"element": "C" 
			},
			{
				"x": -4.8801286489,
				"y": 3.4467666401,
				"z": 1.8242496309,
				"element": "H" 
			},
			{
				"x": -2.6130059035,
				"y": 4.4614383412,
				"z": 1.692303392,
				"element": "H" 
			},
			{
				"x": -0.6619278998,
				"y": 3.0655205451,
				"z": 1.0677838592,
				"element": "H" 
			},
			{
				"x": -3.2216336406,
				"y": -0.3614572247,
				"z": 0.7028036881,
				"element": "H" 
			},
			{
				"x": -5.1775511376,
				"y": 1.0279138249,
				"z": 1.3267440295,
				"element": "H" 
			},
			{
				"x": -1.0780240203,
				"y": 0.4662098405,
				"z": 3.1304130492,
				"element": "H" 
			},
			{
				"x": 0.2208677143,
				"y": -0.6892836097,
				"z": 4.8644900489,
				"element": "H" 
			},
			{
				"x": 2.191714545,
				"y": -2.0933671583,
				"z": 4.2349664211,
				"element": "H" 
			},
			{
				"x": 2.8413859065,
				"y": -2.3262368274,
				"z": 1.878561357,
				"element": "H" 
			},
			{
				"x": 4.2232177618,
				"y": -0.4161203738,
				"z": -0.4930846202,
				"element": "H" 
			},
			{
				"x": 6.1791336278,
				"y": -1.8054871678,
				"z": -1.1170328227,
				"element": "H" 
			},
			{
				"x": 5.8817415849,
				"y": -4.224384933,
				"z": -1.6143473496,
				"element": "H" 
			},
			{
				"x": 3.6146501473,
				"y": -5.2390978205,
				"z": -1.4822144622,
				"element": "H" 
			},
			{
				"x": 1.6635730229,
				"y": -3.8431826439,
				"z": -0.8576850167,
				"element": "H" 
			},
			{
				"x": 2.0796267299,
				"y": -1.2438501519,
				"z": -2.9204993419,
				"element": "H" 
			},
			{
				"x": 0.7807381232,
				"y": -0.0883569228,
				"z": -4.654576876,
				"element": "H" 
			},
			{
				"x": -1.1900942959,
				"y": 1.3157480572,
				"z": -4.025052833,
				"element": "H" 
			},
			{
				"x": -1.8397640935,
				"y": 1.5486219054,
				"z": -1.6686474167,
				"element": "H" 
			}
		],
		 "valence_orbital": [ 
			{
				"type": "occ",
				"energy": -0.2468,
				"method": "rhf"
			},
			{
				"type": "occ",
				"energy": -0.24577,
				"method": "rhf"
			},
			{
				"type": "occ",
				"energy": -0.24453,
				"method": "rhf"
			},
			{
				"type": "occ",
				"energy": -0.23487,
				"method": "rhf"
			},
			{
				"type": "occ",
				"energy": -0.18769,
				"method": "rhf"
			},
			{
				"type": "unocc",
				"energy": -0.05919,
				"method": "rhf"
			},
			{
				"type": "unocc",
				"energy": -0.01454,
				"method": "rhf"
			},
			{
				"type": "unocc",
				"energy": -0.00505,
				"method": "rhf"
			},
			{
				"type": "unocc",
				"energy": -0.00384,
				"method": "rhf"
			},
			{
				"type": "unocc",
				"energy": -0.0025,
				"method": "rhf"
			}
		],
		"cosmo_sigma_profile": { 
			"-0.025": 0.0,
			"-0.024": 0.0,
			"-0.023": 0.0,
			"-0.022": 0.0,
			"-0.021": 0.0,
			"-0.02": 0.0,
			"-0.019": 0.0,
			"-0.018": 0.0,
			"-0.017": 0.0,
			"-0.016": 0.0,
			"-0.015": 0.0,
			"-0.014": 0.0,
			"-0.013": 0.0,
			"-0.012": 0.0,
			"-0.011": 0.0,
			"-0.01": 0.0,
			"-0.009": 0.0,
			"-0.008": 0.0,
			"-0.007": 0.00123371234951,
			"-0.006": 13.4726335603,
			"-0.005": 30.8157514684,
			"-0.004": 35.6400953207,
			"-0.003": 35.2297804836,
			"-0.002": 25.5928928311,
			"-0.001": 26.7288708686,
			"0.0": 27.8870020612,
			"0.001": 34.39451838,
			"0.002": 33.3116317043,
			"0.003": 40.0424535917,
			"0.004": 36.5045513893,
			"0.005": 31.6530208328,
			"0.006": 5.82359329672,
			"0.007": 0.0,
			"0.008": 0.0,
			"0.009": 0.0,
			"0.01": 0.0,
			"0.011": 0.0,
			"0.012": 0.0,
			"0.013": 0.0,
			"0.014": 0.0,
			"0.015": 0.0,
			"0.016": 0.0,
			"0.017": 0.0,
			"0.018": 0.0,
			"0.019": 0.0,
			"0.02": 0.0,
			"0.021": 0.0,
			"0.022": 0.0,
			"0.023": 0.0,
			"0.024": 0.0,
			"0.025": 0.0
		}
	}
}
