{
	 "smiles": "CC(C)C1CCC(C)CC1OC(=O)OC1CC(C)CCC1C(C)C", 
	 "Tm": 379.15, 
	 "num_atms": 62, 
	 "gaussian": { 
		 "optdone": 1, 
		 "sigma_profile": "yes", 
		 "theory": "DFT", 
		 "functional": "B3LYP", 
		 "basiset": "6-31G**", 
		 "properties": { 
			 "R2extent": 9980.9204, 
			 "electric_dipole_moment_norm": 0.745690036141, 
			 "electric_quadrupole_moment_norm": 10.1669576934, 
			 "total_energy": -1048.88168455, 
			 "HOMO_LUMO_gap": 0.32009, 
			 "cosmo_polarized_energy": -6.85, 
			 "cosmo_cavitation_energy": 56.31, 
			 "cosmo_dispersion_energy": -35.09, 
			 "cosmo_repulsion_energy": 2.69, 
			 "cosmo_total_nonelectrostatic_energy": 23.91, 
			 "SMD_solvation_energy": 9.16 
		},
		"coords": [
			{
				"x": -3.3504884534,
				"y": 0.5658677463,
				"z": 3.805690793,
				"element": "C" 
			},
			{
				"x": -1.8325271847,
				"y": 0.6435979095,
				"z": 4.0373123296,
				"element": "C" 
			},
			{
				"x": -1.1671934364,
				"y": -0.7041689842,
				"z": 3.7079018145,
				"element": "C" 
			},
			{
				"x": -1.2000640736,
				"y": 1.8910743249,
				"z": 3.3555467484,
				"element": "C" 
			},
			{
				"x": 0.3099920027,
				"y": 2.0391763879,
				"z": 3.624699977,
				"element": "C" 
			},
			{
				"x": 0.852520229,
				"y": 3.3788882544,
				"z": 3.1041486714,
				"element": "C" 
			},
			{
				"x": 0.5688038724,
				"y": 3.5729162967,
				"z": 1.6040119957,
				"element": "C" 
			},
			{
				"x": 1.0782872099,
				"y": 4.9252295238,
				"z": 1.0939016163,
				"element": "C" 
			},
			{
				"x": -0.9344763695,
				"y": 3.3994602429,
				"z": 1.3246536201,
				"element": "C" 
			},
			{
				"x": -1.5013762895,
				"y": 2.0788928744,
				"z": 1.8598720306,
				"element": "C" 
			},
			{
				"x": -0.8932215226,
				"y": 0.9659418988,
				"z": 1.1331889614,
				"element": "O" 
			},
			{
				"x": -1.4783190723,
				"y": 0.6161686876,
				"z": -0.0226156919,
				"element": "C" 
			},
			{
				"x": -2.4605835411,
				"y": 1.1337771464,
				"z": -0.5152186168,
				"element": "O" 
			},
			{
				"x": -0.7818476596,
				"y": -0.4096105801,
				"z": -0.5347019812,
				"element": "O" 
			},
			{
				"x": -1.2658989142,
				"y": -0.9560374481,
				"z": -1.8021937093,
				"element": "C" 
			},
			{
				"x": -2.3632926845,
				"y": -1.9821997023,
				"z": -1.5188670517,
				"element": "C" 
			},
			{
				"x": -1.8980311282,
				"y": -3.1243077877,
				"z": -0.5784117059,
				"element": "C" 
			},
			{
				"x": -2.7214256152,
				"y": -4.3948274985,
				"z": -0.8313550387,
				"element": "C" 
			},
			{
				"x": -0.3728951265,
				"y": -3.3749547817,
				"z": -0.7146891294,
				"element": "C" 
			},
			{
				"x": 0.1375377677,
				"y": -3.0814554851,
				"z": -2.1329377098,
				"element": "C" 
			},
			{
				"x": -0.0963411605,
				"y": -1.6054147162,
				"z": -2.5740340328,
				"element": "C" 
			},
			{
				"x": 1.2128073692,
				"y": -0.770587955,
				"z": -2.6799607446,
				"element": "C" 
			},
			{
				"x": 2.0823976338,
				"y": -0.7175296758,
				"z": -1.4110854591,
				"element": "C" 
			},
			{
				"x": 0.949079398,
				"y": 0.6445387384,
				"z": -3.2190947174,
				"element": "C" 
			},
			{
				"x": -3.7980345261,
				"y": -0.201896642,
				"z": 4.4456809753,
				"element": "H" 
			},
			{
				"x": -3.5910495335,
				"y": 0.3031363382,
				"z": 2.7694178937,
				"element": "H" 
			},
			{
				"x": -3.8451591656,
				"y": 1.5173447248,
				"z": 4.0331779601,
				"element": "H" 
			},
			{
				"x": -1.6820395882,
				"y": 0.8127484471,
				"z": 5.1143364768,
				"element": "H" 
			},
			{
				"x": -1.2797568375,
				"y": -0.9665254829,
				"z": 2.6531447088,
				"element": "H" 
			},
			{
				"x": -0.0969952087,
				"y": -0.6986935174,
				"z": 3.9342718258,
				"element": "H" 
			},
			{
				"x": -1.6244422301,
				"y": -1.49985019,
				"z": 4.3068644044,
				"element": "H" 
			},
			{
				"x": -1.6925516837,
				"y": 2.7566394015,
				"z": 3.8272892141,
				"element": "H" 
			},
			{
				"x": 0.8521459692,
				"y": 1.2194223066,
				"z": 3.1396339115,
				"element": "H" 
			},
			{
				"x": 0.4983968658,
				"y": 1.9480574578,
				"z": 4.7018275957,
				"element": "H" 
			},
			{
				"x": 0.3898060908,
				"y": 4.2051593348,
				"z": 3.6652061782,
				"element": "H" 
			},
			{
				"x": 1.9318991148,
				"y": 3.4453385413,
				"z": 3.2901403231,
				"element": "H" 
			},
			{
				"x": 1.1001758628,
				"y": 2.7791102547,
				"z": 1.05993089,
				"element": "H" 
			},
			{
				"x": 0.5764894375,
				"y": 5.7543660996,
				"z": 1.6078935075,
				"element": "H" 
			},
			{
				"x": 2.1552228894,
				"y": 5.0329115694,
				"z": 1.2639101554,
				"element": "H" 
			},
			{
				"x": 0.8955884234,
				"y": 5.0417823637,
				"z": 0.0199358317,
				"element": "H" 
			},
			{
				"x": -1.4916664935,
				"y": 4.2192823792,
				"z": 1.8001254432,
				"element": "H" 
			},
			{
				"x": -1.1437787333,
				"y": 3.464290986,
				"z": 0.2511511554,
				"element": "H" 
			},
			{
				"x": -2.5753719371,
				"y": 2.0424540854,
				"z": 1.6668337947,
				"element": "H" 
			},
			{
				"x": -1.6737017988,
				"y": -0.1169035504,
				"z": -2.3694333329,
				"element": "H" 
			},
			{
				"x": -3.2440785527,
				"y": -1.4776484119,
				"z": -1.1098237105,
				"element": "H" 
			},
			{
				"x": -2.6679159095,
				"y": -2.3995628672,
				"z": -2.4884279616,
				"element": "H" 
			},
			{
				"x": -2.0889400017,
				"y": -2.8068692251,
				"z": 0.4539971833,
				"element": "H" 
			},
			{
				"x": -2.5214661542,
				"y": -4.8043003825,
				"z": -1.8293199117,
				"element": "H" 
			},
			{
				"x": -2.4839291306,
				"y": -5.1734475737,
				"z": -0.0983848961,
				"element": "H" 
			},
			{
				"x": -3.7968228393,
				"y": -4.1925949744,
				"z": -0.7687951238,
				"element": "H" 
			},
			{
				"x": -0.1420965942,
				"y": -4.4119102394,
				"z": -0.4415789174,
				"element": "H" 
			},
			{
				"x": 0.1622564884,
				"y": -2.7364652908,
				"z": -0.0050648277,
				"element": "H" 
			},
			{
				"x": 1.2023193801,
				"y": -3.3282767832,
				"z": -2.2075411676,
				"element": "H" 
			},
			{
				"x": -0.3705920339,
				"y": -3.7519060633,
				"z": -2.8376910067,
				"element": "H" 
			},
			{
				"x": -0.4823061309,
				"y": -1.642316406,
				"z": -3.6030863616,
				"element": "H" 
			},
			{
				"x": 1.8066875322,
				"y": -1.2968210083,
				"z": -3.4426809977,
				"element": "H" 
			},
			{
				"x": 1.6054019659,
				"y": -0.1420615505,
				"z": -0.615671198,
				"element": "H" 
			},
			{
				"x": 3.0456509538,
				"y": -0.2487218414,
				"z": -1.6428960498,
				"element": "H" 
			},
			{
				"x": 2.294828676,
				"y": -1.7172165231,
				"z": -1.0189909423,
				"element": "H" 
			},
			{
				"x": 0.4072358739,
				"y": 1.2596042157,
				"z": -2.4927424676,
				"element": "H" 
			},
			{
				"x": 0.3614631488,
				"y": 0.6220144875,
				"z": -4.1442828917,
				"element": "H" 
			},
			{
				"x": 1.8926831595,
				"y": 1.1555901131,
				"z": -3.4383206332,
				"element": "H" 
			}
		],
		 "valence_orbital": [ 
			{
				"type": "occ",
				"energy": -0.29037,
				"method": "rhf"
			},
			{
				"type": "occ",
				"energy": -0.29014,
				"method": "rhf"
			},
			{
				"type": "occ",
				"energy": -0.28592,
				"method": "rhf"
			},
			{
				"type": "occ",
				"energy": -0.27659,
				"method": "rhf"
			},
			{
				"type": "occ",
				"energy": -0.27515,
				"method": "rhf"
			},
			{
				"type": "unocc",
				"energy": 0.04494,
				"method": "rhf"
			},
			{
				"type": "unocc",
				"energy": 0.0597,
				"method": "rhf"
			},
			{
				"type": "unocc",
				"energy": 0.07633,
				"method": "rhf"
			},
			{
				"type": "unocc",
				"energy": 0.0875,
				"method": "rhf"
			},
			{
				"type": "unocc",
				"energy": 0.08999,
				"method": "rhf"
			}
		],
		"cosmo_sigma_profile": { 
			"-0.025": 0.0,
			"-0.024": 0.0,
			"-0.023": 0.0,
			"-0.022": 0.0,
			"-0.021": 0.0,
			"-0.02": 0.0,
			"-0.019": 0.0,
			"-0.018": 0.0,
			"-0.017": 0.0,
			"-0.016": 0.0,
			"-0.015": 0.0,
			"-0.014": 0.0,
			"-0.013": 0.0,
			"-0.012": 0.0,
			"-0.011": 0.0,
			"-0.01": 0.0,
			"-0.009": 0.0,
			"-0.008": 0.0,
			"-0.007": 0.0,
			"-0.006": 0.0,
			"-0.005": 0.0641630259934,
			"-0.004": 5.921556834,
			"-0.003": 36.7416385653,
			"-0.002": 86.8485525576,
			"-0.001": 82.5154535064,
			"0.0": 77.6223104745,
			"0.001": 65.7526316874,
			"0.002": 37.3987217235,
			"0.003": 8.78028153746,
			"0.004": 4.734875886,
			"0.005": 5.09684344844,
			"0.006": 4.17767834049,
			"0.007": 2.32329503855,
			"0.008": 2.24530343728,
			"0.009": 2.54465266951,
			"0.01": 1.38206614005,
			"0.011": 2.05784528275,
			"0.012": 3.88603954352,
			"0.013": 0.695449465326,
			"0.014": 0.0,
			"0.015": 0.0,
			"0.016": 0.0,
			"0.017": 0.0,
			"0.018": 0.0,
			"0.019": 0.0,
			"0.02": 0.0,
			"0.021": 0.0,
			"0.022": 0.0,
			"0.023": 0.0,
			"0.024": 0.0,
			"0.025": 0.0
		}
	}
}
