{
	 "smiles": "BrC1=NC=C(S1)C1=CC=CC=C1", 
	 "Tm": 329.15, 
	 "num_atms": 18, 
	 "gaussian": { 
		 "optdone": 1, 
		 "sigma_profile": "yes", 
		 "theory": "DFT", 
		 "functional": "B3LYP", 
		 "basiset": "6-31G**", 
		 "properties": { 
			 "R2extent": 5307.749, 
			 "electric_dipole_moment_norm": 2.98455760206, 
			 "electric_quadrupole_moment_norm": 8.24975654004, 
			 "total_energy": -3370.90224971, 
			 "HOMO_LUMO_gap": 0.17252, 
			 "cosmo_polarized_energy": -6.17, 
			 "cosmo_cavitation_energy": 26.54, 
			 "cosmo_dispersion_energy": -20.64, 
			 "cosmo_repulsion_energy": 1.58, 
			 "cosmo_total_nonelectrostatic_energy": 7.49, 
			 "SMD_solvation_energy": 1.31 
		},
		"coords": [
			{
				"x": 4.4629769158,
				"y": -1.6836386415,
				"z": -1.3554335623,
				"element": "Br" 
			},
			{
				"x": 2.6551194355,
				"y": -1.1428437545,
				"z": -1.4511902257,
				"element": "C" 
			},
			{
				"x": 1.9055397751,
				"y": -1.3180514708,
				"z": -2.4875295919,
				"element": "N" 
			},
			{
				"x": 0.6477155958,
				"y": -0.8130536696,
				"z": -2.2521386268,
				"element": "C" 
			},
			{
				"x": 0.4204267658,
				"y": -0.243909606,
				"z": -1.0225955646,
				"element": "C" 
			},
			{
				"x": 1.9014638149,
				"y": -0.3515265025,
				"z": -0.0846611454,
				"element": "S" 
			},
			{
				"x": -0.8099760662,
				"y": 0.3624341115,
				"z": -0.5015836585,
				"element": "C" 
			},
			{
				"x": -2.0628981999,
				"y": -0.0806890467,
				"z": -0.9640622966,
				"element": "C" 
			},
			{
				"x": -3.2385091453,
				"y": 0.5022066618,
				"z": -0.4971612971,
				"element": "C" 
			},
			{
				"x": -3.1897092839,
				"y": 1.5263024542,
				"z": 0.4513798062,
				"element": "C" 
			},
			{
				"x": -1.9529993089,
				"y": 1.9659827268,
				"z": 0.9270698874,
				"element": "C" 
			},
			{
				"x": -0.7742019337,
				"y": 1.3936989535,
				"z": 0.45341145,
				"element": "C" 
			},
			{
				"x": -0.0876624319,
				"y": -0.8637122678,
				"z": -3.0461966196,
				"element": "H" 
			},
			{
				"x": -2.1118448694,
				"y": -0.8991558851,
				"z": -1.6754734181,
				"element": "H" 
			},
			{
				"x": -4.1961042574,
				"y": 0.1458118568,
				"z": -0.8654474285,
				"element": "H" 
			},
			{
				"x": -4.1077178157,
				"y": 1.9744166984,
				"z": 0.8195978571,
				"element": "H" 
			},
			{
				"x": -1.9038759977,
				"y": 2.7626405285,
				"z": 1.6635493876,
				"element": "H" 
			},
			{
				"x": 0.1828570071,
				"y": 1.761786853,
				"z": 0.8123650466,
				"element": "H" 
			}
		],
		 "valence_orbital": [ 
			{
				"type": "occ",
				"energy": -0.29872,
				"method": "rhf"
			},
			{
				"type": "occ",
				"energy": -0.28986,
				"method": "rhf"
			},
			{
				"type": "occ",
				"energy": -0.27499,
				"method": "rhf"
			},
			{
				"type": "occ",
				"energy": -0.2637,
				"method": "rhf"
			},
			{
				"type": "occ",
				"energy": -0.22789,
				"method": "rhf"
			},
			{
				"type": "unocc",
				"energy": -0.05537,
				"method": "rhf"
			},
			{
				"type": "unocc",
				"energy": -0.02007,
				"method": "rhf"
			},
			{
				"type": "unocc",
				"energy": -0.01185,
				"method": "rhf"
			},
			{
				"type": "unocc",
				"energy": -0.00474,
				"method": "rhf"
			},
			{
				"type": "unocc",
				"energy": 0.01934,
				"method": "rhf"
			}
		],
		"cosmo_sigma_profile": { 
			"-0.025": 0.0,
			"-0.024": 0.0,
			"-0.023": 0.0,
			"-0.022": 0.0,
			"-0.021": 0.0,
			"-0.02": 0.0,
			"-0.019": 0.0,
			"-0.018": 0.0,
			"-0.017": 0.0,
			"-0.016": 0.0,
			"-0.015": 0.0,
			"-0.014": 0.0,
			"-0.013": 0.0,
			"-0.012": 0.0,
			"-0.011": 0.0,
			"-0.01": 0.0,
			"-0.009": 0.0696286324934,
			"-0.008": 1.88180100803,
			"-0.007": 4.27268946485,
			"-0.006": 12.3023585011,
			"-0.005": 14.6905413855,
			"-0.004": 14.4015795477,
			"-0.003": 12.3220094478,
			"-0.002": 16.0121797407,
			"-0.001": 19.9119670053,
			"0.0": 21.4774314725,
			"0.001": 22.7836276992,
			"0.002": 24.5876776433,
			"0.003": 21.0297213392,
			"0.004": 13.957926784,
			"0.005": 9.94564453885,
			"0.006": 2.66767187513,
			"0.007": 0.559539862012,
			"0.008": 1.38033601819,
			"0.009": 0.939694026669,
			"0.01": 1.48136776832,
			"0.011": 1.03472942461,
			"0.012": 0.868233336054,
			"0.013": 0.954500029628,
			"0.014": 0.435473132051,
			"0.015": 0.0,
			"0.016": 0.0,
			"0.017": 0.0,
			"0.018": 0.0,
			"0.019": 0.0,
			"0.02": 0.0,
			"0.021": 0.0,
			"0.022": 0.0,
			"0.023": 0.0,
			"0.024": 0.0,
			"0.025": 0.0
		}
	}
}
