{
	 "smiles": "CCOC(=O)C1=C(C)N(CC)C2=C1C=C(O)C=C2", 
	 "Tm": 457.15, 
	 "num_atms": 35, 
	 "gaussian": { 
		 "optdone": 1, 
		 "sigma_profile": "yes", 
		 "theory": "DFT", 
		 "functional": "B3LYP", 
		 "basiset": "6-31G**", 
		 "properties": { 
			 "R2extent": 6321.9374, 
			 "electric_dipole_moment_norm": 5.19791989261, 
			 "electric_quadrupole_moment_norm": 18.8889122117, 
			 "total_energy": -824.194435219, 
			 "HOMO_LUMO_gap": 0.17383, 
			 "cosmo_polarized_energy": -17.44, 
			 "cosmo_cavitation_energy": 37.64, 
			 "cosmo_dispersion_energy": -26.61, 
			 "cosmo_repulsion_energy": 2.06, 
			 "cosmo_total_nonelectrostatic_energy": 13.09, 
			 "SMD_solvation_energy": 7.37 
		},
		"coords": [
			{
				"x": 0.1153847993,
				"y": -4.1657645525,
				"z": 0.9486352402,
				"element": "C" 
			},
			{
				"x": -0.6017201646,
				"y": -4.0019907257,
				"z": -0.3839062626,
				"element": "C" 
			},
			{
				"x": -0.9489760763,
				"y": -2.6225059759,
				"z": -0.6347623249,
				"element": "O" 
			},
			{
				"x": 0.0278384816,
				"y": -1.847482597,
				"z": -1.193841928,
				"element": "C" 
			},
			{
				"x": 1.1276831675,
				"y": -2.297381641,
				"z": -1.4747371213,
				"element": "O" 
			},
			{
				"x": -0.3697512873,
				"y": -0.4595427862,
				"z": -1.4208938178,
				"element": "C" 
			},
			{
				"x": -1.5755369683,
				"y": 0.1866603726,
				"z": -1.1433241399,
				"element": "C" 
			},
			{
				"x": -2.839495261,
				"y": -0.3273011697,
				"z": -0.5283107931,
				"element": "C" 
			},
			{
				"x": -1.4828154443,
				"y": 1.5000499184,
				"z": -1.5488688494,
				"element": "N" 
			},
			{
				"x": -2.4982677508,
				"y": 2.5329704042,
				"z": -1.3832459299,
				"element": "C" 
			},
			{
				"x": -2.3035974682,
				"y": 3.3762810949,
				"z": -0.118225523,
				"element": "C" 
			},
			{
				"x": -0.2150621646,
				"y": 1.7317627229,
				"z": -2.0830292553,
				"element": "C" 
			},
			{
				"x": 0.5111517064,
				"y": 0.5184582381,
				"z": -2.0228044892,
				"element": "C" 
			},
			{
				"x": 1.8237865713,
				"y": 0.4684421358,
				"z": -2.5106437726,
				"element": "C" 
			},
			{
				"x": 2.3764446532,
				"y": 1.6311888253,
				"z": -3.0421617592,
				"element": "C" 
			},
			{
				"x": 3.6639669411,
				"y": 1.5584163973,
				"z": -3.5116770774,
				"element": "O" 
			},
			{
				"x": 1.6428749607,
				"y": 2.8343614722,
				"z": -3.0946083083,
				"element": "C" 
			},
			{
				"x": 0.3378459923,
				"y": 2.8976648388,
				"z": -2.6141085365,
				"element": "C" 
			},
			{
				"x": 1.077637606,
				"y": -3.6490538216,
				"z": 0.9284830998,
				"element": "H" 
			},
			{
				"x": 0.2981817128,
				"y": -5.2275678444,
				"z": 1.1464234021,
				"element": "H" 
			},
			{
				"x": -0.4869176363,
				"y": -3.7628039559,
				"z": 1.7686946898,
				"element": "H" 
			},
			{
				"x": -1.559607839,
				"y": -4.5291167685,
				"z": -0.3885483859,
				"element": "H" 
			},
			{
				"x": 0.0165971212,
				"y": -4.3666689198,
				"z": -1.2072214552,
				"element": "H" 
			},
			{
				"x": -3.1338162873,
				"y": 0.2697211411,
				"z": 0.3428420545,
				"element": "H" 
			},
			{
				"x": -2.7023873538,
				"y": -1.3583429651,
				"z": -0.2134800338,
				"element": "H" 
			},
			{
				"x": -3.671610608,
				"y": -0.2943275384,
				"z": -1.2431189708,
				"element": "H" 
			},
			{
				"x": -3.4791247245,
				"y": 2.051953625,
				"z": -1.3751889709,
				"element": "H" 
			},
			{
				"x": -2.4703744318,
				"y": 3.1699289533,
				"z": -2.273602771,
				"element": "H" 
			},
			{
				"x": -2.3738297737,
				"y": 2.7574240826,
				"z": 0.7812713388,
				"element": "H" 
			},
			{
				"x": -3.0717133889,
				"y": 4.1543138958,
				"z": -0.0602356458,
				"element": "H" 
			},
			{
				"x": -1.322780638,
				"y": 3.8597498544,
				"z": -0.1188055413,
				"element": "H" 
			},
			{
				"x": 2.3963240037,
				"y": -0.4491197902,
				"z": -2.4768955332,
				"element": "H" 
			},
			{
				"x": 3.9216732627,
				"y": 2.4231778264,
				"z": -3.8544905602,
				"element": "H" 
			},
			{
				"x": 2.1041442952,
				"y": 3.7257118281,
				"z": -3.5147146635,
				"element": "H" 
			},
			{
				"x": -0.2161500084,
				"y": 3.8301334247,
				"z": -2.6572974053,
				"element": "H" 
			}
		],
		 "valence_orbital": [ 
			{
				"type": "occ",
				"energy": -0.2831,
				"method": "rhf"
			},
			{
				"type": "occ",
				"energy": -0.26469,
				"method": "rhf"
			},
			{
				"type": "occ",
				"energy": -0.25494,
				"method": "rhf"
			},
			{
				"type": "occ",
				"energy": -0.20528,
				"method": "rhf"
			},
			{
				"type": "occ",
				"energy": -0.19348,
				"method": "rhf"
			},
			{
				"type": "unocc",
				"energy": -0.01965,
				"method": "rhf"
			},
			{
				"type": "unocc",
				"energy": 0.01083,
				"method": "rhf"
			},
			{
				"type": "unocc",
				"energy": 0.04049,
				"method": "rhf"
			},
			{
				"type": "unocc",
				"energy": 0.07303,
				"method": "rhf"
			},
			{
				"type": "unocc",
				"energy": 0.08057,
				"method": "rhf"
			}
		],
		"cosmo_sigma_profile": { 
			"-0.025": 0.0,
			"-0.024": 0.0,
			"-0.023": 0.0,
			"-0.022": 0.0,
			"-0.021": 0.0,
			"-0.02": 0.0,
			"-0.019": 0.0,
			"-0.018": 0.0275492266706,
			"-0.017": 0.919198930757,
			"-0.016": 1.02145090896,
			"-0.015": 1.13720130905,
			"-0.014": 1.26932822689,
			"-0.013": 0.827560565732,
			"-0.012": 0.581265827383,
			"-0.011": 0.86962579801,
			"-0.01": 0.825764682173,
			"-0.009": 1.31153372956,
			"-0.008": 1.42097373783,
			"-0.007": 1.93410373864,
			"-0.006": 10.9282162677,
			"-0.005": 18.9875400965,
			"-0.004": 26.0145566851,
			"-0.003": 30.6094919975,
			"-0.002": 24.8148760193,
			"-0.001": 25.8334733395,
			"0.0": 28.0125381529,
			"0.001": 20.3083509598,
			"0.002": 14.0075275915,
			"0.003": 13.1849121134,
			"0.004": 14.4509896443,
			"0.005": 18.5655560805,
			"0.006": 13.7428962497,
			"0.007": 4.83375073579,
			"0.008": 4.08098468933,
			"0.009": 3.04904819657,
			"0.01": 3.23143909902,
			"0.011": 3.72843763373,
			"0.012": 4.60020310831,
			"0.013": 1.96564617416,
			"0.014": 0.0569289516274,
			"0.015": 0.0,
			"0.016": 0.0,
			"0.017": 0.0,
			"0.018": 0.0,
			"0.019": 0.0,
			"0.02": 0.0,
			"0.021": 0.0,
			"0.022": 0.0,
			"0.023": 0.0,
			"0.024": 0.0,
			"0.025": 0.0
		}
	}
}
