{
	 "smiles": "COC(C)(C(O)=O)C1=CC=CC=C1", 
	 "Tm": 318.15, 
	 "num_atms": 25, 
	 "gaussian": { 
		 "optdone": 1, 
		 "sigma_profile": "yes", 
		 "theory": "DFT", 
		 "functional": "B3LYP", 
		 "basiset": "6-31G**", 
		 "properties": { 
			 "R2extent": 3823.6253, 
			 "electric_dipole_moment_norm": 3.66086068022, 
			 "electric_quadrupole_moment_norm": 17.4936507419, 
			 "total_energy": -613.965011934, 
			 "HOMO_LUMO_gap": 0.23272, 
			 "cosmo_polarized_energy": -10.69, 
			 "cosmo_cavitation_energy": 27.39, 
			 "cosmo_dispersion_energy": -19.64, 
			 "cosmo_repulsion_energy": 1.54, 
			 "cosmo_total_nonelectrostatic_energy": 9.29, 
			 "SMD_solvation_energy": 6.33 
		},
		"coords": [
			{
				"x": 0.515064957,
				"y": -3.1725559007,
				"z": 2.5738932858,
				"element": "C" 
			},
			{
				"x": 0.2176728592,
				"y": -3.0489003823,
				"z": 1.1769509637,
				"element": "O" 
			},
			{
				"x": 1.0212843208,
				"y": -2.0993418998,
				"z": 0.4345188194,
				"element": "C" 
			},
			{
				"x": 0.3437806042,
				"y": -2.0082979144,
				"z": -0.9483436728,
				"element": "C" 
			},
			{
				"x": 2.4089473586,
				"y": -2.7531370732,
				"z": 0.1716037345,
				"element": "C" 
			},
			{
				"x": 2.3829442986,
				"y": -4.095872504,
				"z": 0.2768684921,
				"element": "O" 
			},
			{
				"x": 3.3996392527,
				"y": -2.1655316499,
				"z": -0.1925858552,
				"element": "O" 
			},
			{
				"x": 1.0361246273,
				"y": -0.7244730243,
				"z": 1.1090964971,
				"element": "C" 
			},
			{
				"x": -0.2004685994,
				"y": -0.2075261142,
				"z": 1.5332422729,
				"element": "C" 
			},
			{
				"x": -0.28491081,
				"y": 1.0441685235,
				"z": 2.1387622593,
				"element": "C" 
			},
			{
				"x": 0.8688654671,
				"y": 1.8087146433,
				"z": 2.3271551842,
				"element": "C" 
			},
			{
				"x": 2.0986844021,
				"y": 1.3062821184,
				"z": 1.9058988308,
				"element": "C" 
			},
			{
				"x": 2.187323655,
				"y": 0.0492039776,
				"z": 1.3008730383,
				"element": "C" 
			},
			{
				"x": 1.5735111997,
				"y": -3.4069629192,
				"z": 2.746013908,
				"element": "H" 
			},
			{
				"x": 0.2588969829,
				"y": -2.2618191886,
				"z": 3.1214790889,
				"element": "H" 
			},
			{
				"x": -0.0982234058,
				"y": -4.0000254422,
				"z": 2.9369079178,
				"element": "H" 
			},
			{
				"x": -0.6629434239,
				"y": -1.5994014565,
				"z": -0.8402711532,
				"element": "H" 
			},
			{
				"x": 0.2747607234,
				"y": -2.9995564939,
				"z": -1.4063226668,
				"element": "H" 
			},
			{
				"x": 0.927026237,
				"y": -1.3549349663,
				"z": -1.6006685261,
				"element": "H" 
			},
			{
				"x": 1.4735110724,
				"y": -4.3280073321,
				"z": 0.550302662,
				"element": "H" 
			},
			{
				"x": -1.0995753616,
				"y": -0.8021446272,
				"z": 1.3992146674,
				"element": "H" 
			},
			{
				"x": -1.2506454187,
				"y": 1.4215385739,
				"z": 2.4630049454,
				"element": "H" 
			},
			{
				"x": 0.806974801,
				"y": 2.786317075,
				"z": 2.7965765091,
				"element": "H" 
			},
			{
				"x": 3.0024346337,
				"y": 1.8928604318,
				"z": 2.0447621949,
				"element": "H" 
			},
			{
				"x": 3.1452195669,
				"y": -0.3231964547,
				"z": 0.9626666025,
				"element": "H" 
			}
		],
		 "valence_orbital": [ 
			{
				"type": "occ",
				"energy": -0.31568,
				"method": "rhf"
			},
			{
				"type": "occ",
				"energy": -0.30839,
				"method": "rhf"
			},
			{
				"type": "occ",
				"energy": -0.26401,
				"method": "rhf"
			},
			{
				"type": "occ",
				"energy": -0.25396,
				"method": "rhf"
			},
			{
				"type": "occ",
				"energy": -0.24808,
				"method": "rhf"
			},
			{
				"type": "unocc",
				"energy": -0.01536,
				"method": "rhf"
			},
			{
				"type": "unocc",
				"energy": -0.00567,
				"method": "rhf"
			},
			{
				"type": "unocc",
				"energy": 0.0068,
				"method": "rhf"
			},
			{
				"type": "unocc",
				"energy": 0.07936,
				"method": "rhf"
			},
			{
				"type": "unocc",
				"energy": 0.09562,
				"method": "rhf"
			}
		],
		"cosmo_sigma_profile": { 
			"-0.025": 0.0,
			"-0.024": 0.0,
			"-0.023": 0.0,
			"-0.022": 0.0,
			"-0.021": 0.0,
			"-0.02": 0.0,
			"-0.019": 0.0,
			"-0.018": 0.0,
			"-0.017": 0.0,
			"-0.016": 0.0,
			"-0.015": 0.0,
			"-0.014": 0.34222755313,
			"-0.013": 0.299205142733,
			"-0.012": 0.801217460538,
			"-0.011": 0.662038586233,
			"-0.01": 0.831770438799,
			"-0.009": 1.01361791691,
			"-0.008": 1.24690346911,
			"-0.007": 2.00033920022,
			"-0.006": 9.62956826868,
			"-0.005": 20.2875628589,
			"-0.004": 22.0394128695,
			"-0.003": 24.5102307432,
			"-0.002": 18.3941005023,
			"-0.001": 17.0091001558,
			"0.0": 13.1959874126,
			"0.001": 10.7526907046,
			"0.002": 9.30032117029,
			"0.003": 12.0875610003,
			"0.004": 9.88308739447,
			"0.005": 12.0230010281,
			"0.006": 5.66983403063,
			"0.007": 2.38534195512,
			"0.008": 4.12201204036,
			"0.009": 4.91116070327,
			"0.01": 5.40624902404,
			"0.011": 4.79396386912,
			"0.012": 2.38122851083,
			"0.013": 0.835193157337,
			"0.014": 0.0,
			"0.015": 0.0,
			"0.016": 0.0,
			"0.017": 0.0,
			"0.018": 0.0,
			"0.019": 0.0,
			"0.02": 0.0,
			"0.021": 0.0,
			"0.022": 0.0,
			"0.023": 0.0,
			"0.024": 0.0,
			"0.025": 0.0
		}
	}
}
