{
	 "smiles": "O=C1NC(=O)C2(CC3=C(C2)C=CC=C3)N1", 
	 "Tm": 538.15, 
	 "num_atms": 25, 
	 "gaussian": { 
		 "optdone": 1, 
		 "sigma_profile": "yes", 
		 "theory": "DFT", 
		 "functional": "B3LYP", 
		 "basiset": "6-31G**", 
		 "properties": { 
			 "R2extent": 3641.5443, 
			 "electric_dipole_moment_norm": 2.69490248061, 
			 "electric_quadrupole_moment_norm": 12.1720162003, 
			 "total_energy": -685.193526558, 
			 "HOMO_LUMO_gap": 0.22506, 
			 "cosmo_polarized_energy": -18.16, 
			 "cosmo_cavitation_energy": 28.77, 
			 "cosmo_dispersion_energy": -20.92, 
			 "cosmo_repulsion_energy": 1.64, 
			 "cosmo_total_nonelectrostatic_energy": 9.49, 
			 "SMD_solvation_energy": 5.61 
		},
		"coords": [
			{
				"x": 3.396944106,
				"y": 3.9401162714,
				"z": 1.4129109906,
				"element": "O" 
			},
			{
				"x": 2.6509835069,
				"y": 3.0020077961,
				"z": 1.2251262833,
				"element": "C" 
			},
			{
				"x": 2.4944287327,
				"y": 1.8800636213,
				"z": 2.0673303839,
				"element": "N" 
			},
			{
				"x": 1.5723180995,
				"y": 0.9677822367,
				"z": 1.5992310128,
				"element": "C" 
			},
			{
				"x": 1.2464977484,
				"y": -0.0765242729,
				"z": 2.1216436076,
				"element": "O" 
			},
			{
				"x": 1.0348629431,
				"y": 1.545451448,
				"z": 0.269454485,
				"element": "C" 
			},
			{
				"x": -0.5162366617,
				"y": 1.7255860615,
				"z": 0.3343350678,
				"element": "C" 
			},
			{
				"x": -1.0582374195,
				"y": 0.5083658905,
				"z": -0.3756607882,
				"element": "C" 
			},
			{
				"x": -0.0448620565,
				"y": -0.1576124633,
				"z": -1.0746316686,
				"element": "C" 
			},
			{
				"x": 1.2810279793,
				"y": 0.5444143913,
				"z": -0.9052271921,
				"element": "C" 
			},
			{
				"x": -0.3319744352,
				"y": -1.2998992029,
				"z": -1.819396624,
				"element": "C" 
			},
			{
				"x": -1.6470110142,
				"y": -1.7718464844,
				"z": -1.8580118169,
				"element": "C" 
			},
			{
				"x": -2.6593936976,
				"y": -1.1065303034,
				"z": -1.1597011928,
				"element": "C" 
			},
			{
				"x": -2.3699455743,
				"y": 0.0394269948,
				"z": -0.4136817131,
				"element": "C" 
			},
			{
				"x": 1.7889808833,
				"y": 2.7848932365,
				"z": 0.182012637,
				"element": "N" 
			},
			{
				"x": 3.0158603506,
				"y": 1.7729170452,
				"z": 2.9253454451,
				"element": "H" 
			},
			{
				"x": -0.7932237155,
				"y": 2.6511960719,
				"z": -0.188534667,
				"element": "H" 
			},
			{
				"x": -0.8729403896,
				"y": 1.823011914,
				"z": 1.3647157058,
				"element": "H" 
			},
			{
				"x": 1.5542652855,
				"y": 1.1084728998,
				"z": -1.807474355,
				"element": "H" 
			},
			{
				"x": 2.1104142021,
				"y": -0.137822385,
				"z": -0.6928952905,
				"element": "H" 
			},
			{
				"x": 0.4539976907,
				"y": -1.8234360632,
				"z": -2.3574112107,
				"element": "H" 
			},
			{
				"x": -1.8825539845,
				"y": -2.6655288034,
				"z": -2.4287016664,
				"element": "H" 
			},
			{
				"x": -3.6764284902,
				"y": -1.4866262516,
				"z": -1.1913540749,
				"element": "H" 
			},
			{
				"x": -3.1577752111,
				"y": 0.5501628302,
				"z": 0.1338371607,
				"element": "H" 
			},
			{
				"x": 1.7129011218,
				"y": 3.4550575208,
				"z": -0.5668605192,
				"element": "H" 
			}
		],
		 "valence_orbital": [ 
			{
				"type": "occ",
				"energy": -0.28903,
				"method": "rhf"
			},
			{
				"type": "occ",
				"energy": -0.2653,
				"method": "rhf"
			},
			{
				"type": "occ",
				"energy": -0.2646,
				"method": "rhf"
			},
			{
				"type": "occ",
				"energy": -0.25129,
				"method": "rhf"
			},
			{
				"type": "occ",
				"energy": -0.23952,
				"method": "rhf"
			},
			{
				"type": "unocc",
				"energy": -0.01446,
				"method": "rhf"
			},
			{
				"type": "unocc",
				"energy": -0.01074,
				"method": "rhf"
			},
			{
				"type": "unocc",
				"energy": 0.00257,
				"method": "rhf"
			},
			{
				"type": "unocc",
				"energy": 0.0667,
				"method": "rhf"
			},
			{
				"type": "unocc",
				"energy": 0.07108,
				"method": "rhf"
			}
		],
		"cosmo_sigma_profile": { 
			"-0.025": 0.0,
			"-0.024": 0.0,
			"-0.023": 0.0,
			"-0.022": 0.0,
			"-0.021": 0.0,
			"-0.02": 0.0,
			"-0.019": 0.0,
			"-0.018": 0.0,
			"-0.017": 0.303878350868,
			"-0.016": 1.27948484117,
			"-0.015": 2.58840508441,
			"-0.014": 2.104271393,
			"-0.013": 1.68824653572,
			"-0.012": 2.02761927655,
			"-0.011": 1.84575035282,
			"-0.01": 2.77310031877,
			"-0.009": 1.87698697552,
			"-0.008": 2.81595270274,
			"-0.007": 2.50557790627,
			"-0.006": 11.0694567265,
			"-0.005": 19.188942819,
			"-0.004": 19.9117955592,
			"-0.003": 20.2687175713,
			"-0.002": 18.5339833281,
			"-0.001": 14.5860604892,
			"0.0": 11.3844516603,
			"0.001": 9.19420734966,
			"0.002": 7.49426334028,
			"0.003": 9.47910783999,
			"0.004": 8.09827210879,
			"0.005": 10.1479929726,
			"0.006": 10.1887657767,
			"0.007": 4.19015549859,
			"0.008": 2.83400440954,
			"0.009": 3.52194285959,
			"0.01": 3.80947409788,
			"0.011": 4.76392167218,
			"0.012": 9.45926894942,
			"0.013": 7.68291933202,
			"0.014": 0.993632771282,
			"0.015": 0.0,
			"0.016": 0.0,
			"0.017": 0.0,
			"0.018": 0.0,
			"0.019": 0.0,
			"0.02": 0.0,
			"0.021": 0.0,
			"0.022": 0.0,
			"0.023": 0.0,
			"0.024": 0.0,
			"0.025": 0.0
		}
	}
}
