{
	 "smiles": "COC(C)=O", 
	 "Tm": 175.15, 
	 "num_atms": 11, 
	 "gaussian": { 
		 "optdone": 1, 
		 "sigma_profile": "yes", 
		 "theory": "DFT", 
		 "functional": "B3LYP", 
		 "basiset": "6-31G**", 
		 "properties": { 
			 "R2extent": 767.8194, 
			 "electric_dipole_moment_norm": 1.77590786642, 
			 "electric_quadrupole_moment_norm": 9.71840123631, 
			 "total_energy": -268.391947822, 
			 "HOMO_LUMO_gap": 0.2838, 
			 "cosmo_polarized_energy": -6.28, 
			 "cosmo_cavitation_energy": 14.75, 
			 "cosmo_dispersion_energy": -10.97, 
			 "cosmo_repulsion_energy": 0.99, 
			 "cosmo_total_nonelectrostatic_energy": 4.77, 
			 "SMD_solvation_energy": 4.73 
		},
		"coords": [
			{
				"x": -2.2762262184,
				"y": -0.850406864,
				"z": -0.0302875164,
				"element": "C" 
			},
			{
				"x": -0.8446687277,
				"y": -0.7322939768,
				"z": -0.0254273371,
				"element": "O" 
			},
			{
				"x": -0.2118504073,
				"y": -1.3507468329,
				"z": -1.0504500719,
				"element": "C" 
			},
			{
				"x": 1.2835354795,
				"y": -1.1644492252,
				"z": -0.9487515415,
				"element": "C" 
			},
			{
				"x": -0.7912647838,
				"y": -1.96466875,
				"z": -1.9191065617,
				"element": "O" 
			},
			{
				"x": -2.5777682923,
				"y": -1.8994867909,
				"z": 0.0277318432,
				"element": "H" 
			},
			{
				"x": -2.6968515168,
				"y": -0.4158009317,
				"z": -0.9408098438,
				"element": "H" 
			},
			{
				"x": -2.6206025568,
				"y": -0.3046264354,
				"z": 0.8481245688,
				"element": "H" 
			},
			{
				"x": 1.5310091559,
				"y": -0.0988649314,
				"z": -0.9622833993,
				"element": "H" 
			},
			{
				"x": 1.7690424828,
				"y": -1.670046001,
				"z": -1.7826653172,
				"element": "H" 
			},
			{
				"x": 1.6490453851,
				"y": -1.5709092607,
				"z": -0.0010748232,
				"element": "H" 
			}
		],
		 "valence_orbital": [ 
			{
				"type": "occ",
				"energy": -0.39949,
				"method": "rhf"
			},
			{
				"type": "occ",
				"energy": -0.36618,
				"method": "rhf"
			},
			{
				"type": "occ",
				"energy": -0.35435,
				"method": "rhf"
			},
			{
				"type": "occ",
				"energy": -0.29926,
				"method": "rhf"
			},
			{
				"type": "occ",
				"energy": -0.2689,
				"method": "rhf"
			},
			{
				"type": "unocc",
				"energy": 0.0149,
				"method": "rhf"
			},
			{
				"type": "unocc",
				"energy": 0.10534,
				"method": "rhf"
			},
			{
				"type": "unocc",
				"energy": 0.12051,
				"method": "rhf"
			},
			{
				"type": "unocc",
				"energy": 0.13192,
				"method": "rhf"
			},
			{
				"type": "unocc",
				"energy": 0.15737,
				"method": "rhf"
			}
		],
		"cosmo_sigma_profile": { 
			"-0.025": 0.0,
			"-0.024": 0.0,
			"-0.023": 0.0,
			"-0.022": 0.0,
			"-0.021": 0.0,
			"-0.02": 0.0,
			"-0.019": 0.0,
			"-0.018": 0.0,
			"-0.017": 0.0,
			"-0.016": 0.0,
			"-0.015": 0.0,
			"-0.014": 0.0,
			"-0.013": 0.0,
			"-0.012": 0.0,
			"-0.011": 0.0,
			"-0.01": 0.0,
			"-0.009": 0.0,
			"-0.008": 0.0,
			"-0.007": 1.1087160066,
			"-0.006": 7.94092947953,
			"-0.005": 12.4524120393,
			"-0.004": 13.8418319489,
			"-0.003": 16.4292706613,
			"-0.002": 13.3679848528,
			"-0.001": 8.70166326862,
			"0.0": 4.51444987715,
			"0.001": 3.76346567208,
			"0.002": 3.25147439766,
			"0.003": 3.28684075809,
			"0.004": 2.85258276499,
			"0.005": 2.66343693871,
			"0.006": 2.20190020691,
			"0.007": 2.73312259316,
			"0.008": 2.56619203071,
			"0.009": 2.87569004159,
			"0.01": 1.92155616646,
			"0.011": 2.60065723041,
			"0.012": 5.07257547232,
			"0.013": 1.89180031275,
			"0.014": 0.0525216779668,
			"0.015": 0.0,
			"0.016": 0.0,
			"0.017": 0.0,
			"0.018": 0.0,
			"0.019": 0.0,
			"0.02": 0.0,
			"0.021": 0.0,
			"0.022": 0.0,
			"0.023": 0.0,
			"0.024": 0.0,
			"0.025": 0.0
		}
	}
}
