{
	 "smiles": "NC1=NC(=CS1)C1=C(C=CC=C1)C(F)(F)F", 
	 "Tm": 389.15, 
	 "num_atms": 23, 
	 "gaussian": { 
		 "optdone": 1, 
		 "sigma_profile": "yes", 
		 "theory": "DFT", 
		 "functional": "B3LYP", 
		 "basiset": "6-31G**", 
		 "properties": { 
			 "R2extent": 4840.1633, 
			 "electric_dipole_moment_norm": 2.4701319904, 
			 "electric_quadrupole_moment_norm": 17.7547590189, 
			 "total_energy": -1192.49770249, 
			 "HOMO_LUMO_gap": 0.16995, 
			 "cosmo_polarized_energy": -10.56, 
			 "cosmo_cavitation_energy": 29.83, 
			 "cosmo_dispersion_energy": -22.23, 
			 "cosmo_repulsion_energy": 1.63, 
			 "cosmo_total_nonelectrostatic_energy": 9.23, 
			 "SMD_solvation_energy": 4.58 
		},
		"coords": [
			{
				"x": -3.3100494716,
				"y": -1.2322425514,
				"z": 1.5603293176,
				"element": "N" 
			},
			{
				"x": -2.3981599676,
				"y": -0.2795014598,
				"z": 1.1627388229,
				"element": "C" 
			},
			{
				"x": -1.5942364169,
				"y": -0.4193061326,
				"z": 0.1524598925,
				"element": "N" 
			},
			{
				"x": -0.745173386,
				"y": 0.6757050366,
				"z": 0.0244931432,
				"element": "C" 
			},
			{
				"x": -0.9114889774,
				"y": 1.6507889474,
				"z": 0.9681264937,
				"element": "C" 
			},
			{
				"x": -2.1813734664,
				"y": 1.2175414905,
				"z": 2.0793089194,
				"element": "S" 
			},
			{
				"x": 0.2784256079,
				"y": 0.6167027559,
				"z": -1.0486508944,
				"element": "C" 
			},
			{
				"x": 0.7832934852,
				"y": 1.7149700978,
				"z": -1.7861343662,
				"element": "C" 
			},
			{
				"x": 1.78244718,
				"y": 1.5146584068,
				"z": -2.7459284677,
				"element": "C" 
			},
			{
				"x": 2.2859685437,
				"y": 0.2438781294,
				"z": -3.0092201742,
				"element": "C" 
			},
			{
				"x": 1.7729017757,
				"y": -0.8496874607,
				"z": -2.313812442,
				"element": "C" 
			},
			{
				"x": 0.7829258725,
				"y": -0.6601150473,
				"z": -1.3552356763,
				"element": "C" 
			},
			{
				"x": 0.2777325659,
				"y": 3.1281721078,
				"z": -1.6126039659,
				"element": "C" 
			},
			{
				"x": -1.0676715749,
				"y": 3.2024543906,
				"z": -1.5824066122,
				"element": "F" 
			},
			{
				"x": 0.7337651169,
				"y": 3.6997348665,
				"z": -0.4617220297,
				"element": "F" 
			},
			{
				"x": 0.6896101226,
				"y": 3.9376386676,
				"z": -2.6141707399,
				"element": "F" 
			},
			{
				"x": -3.4782571518,
				"y": -1.9328387929,
				"z": 0.8498391393,
				"element": "H" 
			},
			{
				"x": -4.1515719025,
				"y": -0.8973324696,
				"z": 2.0074992,
				"element": "H" 
			},
			{
				"x": -0.3771511299,
				"y": 2.5784457325,
				"z": 1.0855435146,
				"element": "H" 
			},
			{
				"x": 2.1517526293,
				"y": 2.3669864217,
				"z": -3.3029428409,
				"element": "H" 
			},
			{
				"x": 3.0598755119,
				"y": 0.112202935,
				"z": -3.759009312,
				"element": "H" 
			},
			{
				"x": 2.1423565102,
				"y": -1.8511612578,
				"z": -2.5147494762,
				"element": "H" 
			},
			{
				"x": 0.373978523,
				"y": -1.506394814,
				"z": -0.8158514455,
				"element": "H" 
			}
		],
		 "valence_orbital": [ 
			{
				"type": "occ",
				"energy": -0.28562,
				"method": "rhf"
			},
			{
				"type": "occ",
				"energy": -0.27696,
				"method": "rhf"
			},
			{
				"type": "occ",
				"energy": -0.26299,
				"method": "rhf"
			},
			{
				"type": "occ",
				"energy": -0.25542,
				"method": "rhf"
			},
			{
				"type": "occ",
				"energy": -0.20796,
				"method": "rhf"
			},
			{
				"type": "unocc",
				"energy": -0.03801,
				"method": "rhf"
			},
			{
				"type": "unocc",
				"energy": -0.01465,
				"method": "rhf"
			},
			{
				"type": "unocc",
				"energy": 0.00649,
				"method": "rhf"
			},
			{
				"type": "unocc",
				"energy": 0.01021,
				"method": "rhf"
			},
			{
				"type": "unocc",
				"energy": 0.06755,
				"method": "rhf"
			}
		],
		"cosmo_sigma_profile": { 
			"-0.025": 0.0,
			"-0.024": 0.0,
			"-0.023": 0.0,
			"-0.022": 0.0,
			"-0.021": 0.0,
			"-0.02": 0.0,
			"-0.019": 0.0,
			"-0.018": 0.0,
			"-0.017": 0.0,
			"-0.016": 0.0,
			"-0.015": 0.469483165599,
			"-0.014": 1.9755514577,
			"-0.013": 2.8533547986,
			"-0.012": 2.76367430775,
			"-0.011": 2.39864422275,
			"-0.01": 2.64450371261,
			"-0.009": 1.95325959196,
			"-0.008": 2.03320313915,
			"-0.007": 5.04578840273,
			"-0.006": 8.91529573776,
			"-0.005": 11.0964448512,
			"-0.004": 10.9070189052,
			"-0.003": 10.7383107435,
			"-0.002": 10.8002770171,
			"-0.001": 13.6090558403,
			"0.0": 15.5761190144,
			"0.001": 22.6753341427,
			"0.002": 33.9731170274,
			"0.003": 43.1070126135,
			"0.004": 20.26714337,
			"0.005": 4.027490324,
			"0.006": 3.13480455187,
			"0.007": 2.80032011477,
			"0.008": 1.96545270977,
			"0.009": 1.66713157366,
			"0.01": 1.7702516185,
			"0.011": 1.11755979566,
			"0.012": 1.24057990919,
			"0.013": 0.348848192325,
			"0.014": 0.32569942128,
			"0.015": 0.0,
			"0.016": 0.0,
			"0.017": 0.0,
			"0.018": 0.0,
			"0.019": 0.0,
			"0.02": 0.0,
			"0.021": 0.0,
			"0.022": 0.0,
			"0.023": 0.0,
			"0.024": 0.0,
			"0.025": 0.0
		}
	}
}
