{
	 "smiles": "FC(F)(F)C1=NC(=NC(Cl)=C1)C1=CN=CC=C1", 
	 "Tm": 388.15, 
	 "num_atms": 22, 
	 "gaussian": { 
		 "optdone": 1, 
		 "sigma_profile": "yes", 
		 "theory": "DFT", 
		 "functional": "B3LYP", 
		 "basiset": "6-31G**", 
		 "properties": { 
			 "R2extent": 5496.8542, 
			 "electric_dipole_moment_norm": 1.4113763389, 
			 "electric_quadrupole_moment_norm": 14.3566807456, 
			 "total_energy": -1308.04286599, 
			 "HOMO_LUMO_gap": 0.17688, 
			 "cosmo_polarized_energy": -8.36, 
			 "cosmo_cavitation_energy": 31.2, 
			 "cosmo_dispersion_energy": -22.33, 
			 "cosmo_repulsion_energy": 1.67, 
			 "cosmo_total_nonelectrostatic_energy": 10.54, 
			 "SMD_solvation_energy": 2.89 
		},
		"coords": [
			{
				"x": 0.1976863164,
				"y": 2.1648670797,
				"z": 3.2876801992,
				"element": "F" 
			},
			{
				"x": -0.0506907299,
				"y": 0.8462144855,
				"z": 3.1338068722,
				"element": "C" 
			},
			{
				"x": 0.3863523679,
				"y": 0.2255654031,
				"z": 4.2509545828,
				"element": "F" 
			},
			{
				"x": -1.3703998625,
				"y": 0.6732372784,
				"z": 3.0440376857,
				"element": "F" 
			},
			{
				"x": 0.6939536001,
				"y": 0.3140302173,
				"z": 1.9165508091,
				"element": "C" 
			},
			{
				"x": -0.0280995177,
				"y": -0.2355528946,
				"z": 0.9457937025,
				"element": "N" 
			},
			{
				"x": 0.6471438887,
				"y": -0.6995626701,
				"z": -0.1208378037,
				"element": "C" 
			},
			{
				"x": 1.9856281821,
				"y": -0.6420974828,
				"z": -0.2622975067,
				"element": "N" 
			},
			{
				"x": 2.6695700954,
				"y": -0.090286269,
				"z": 0.7201247049,
				"element": "C" 
			},
			{
				"x": 4.4078963489,
				"y": -0.0140017533,
				"z": 0.539645647,
				"element": "Cl" 
			},
			{
				"x": 2.0817499581,
				"y": 0.4258273137,
				"z": 1.8752440439,
				"element": "C" 
			},
			{
				"x": -0.1341881472,
				"y": -1.3149448661,
				"z": -1.2129543603,
				"element": "C" 
			},
			{
				"x": 0.4988586966,
				"y": -1.822764758,
				"z": -2.3603457714,
				"element": "C" 
			},
			{
				"x": -0.1551107944,
				"y": -2.3890220766,
				"z": -3.3778546188,
				"element": "N" 
			},
			{
				"x": -1.4892090195,
				"y": -2.4700691439,
				"z": -3.2845727522,
				"element": "C" 
			},
			{
				"x": -2.2192317276,
				"y": -1.9981598071,
				"z": -2.1910482561,
				"element": "C" 
			},
			{
				"x": -1.5310071105,
				"y": -1.4100954141,
				"z": -1.1360723842,
				"element": "C" 
			},
			{
				"x": 2.6580813678,
				"y": 0.8756511247,
				"z": 2.6726726472,
				"element": "H" 
			},
			{
				"x": 1.5801453631,
				"y": -1.761614739,
				"z": -2.4451687296,
				"element": "H" 
			},
			{
				"x": -1.9996163271,
				"y": -2.935428666,
				"z": -4.1259785428,
				"element": "H" 
			},
			{
				"x": -3.3003230909,
				"y": -2.0916443445,
				"z": -2.1716000007,
				"element": "H" 
			},
			{
				"x": -2.0451898581,
				"y": -1.0262480174,
				"z": -0.261880168,
				"element": "H" 
			}
		],
		 "valence_orbital": [ 
			{
				"type": "occ",
				"energy": -0.31344,
				"method": "rhf"
			},
			{
				"type": "occ",
				"energy": -0.29166,
				"method": "rhf"
			},
			{
				"type": "occ",
				"energy": -0.28929,
				"method": "rhf"
			},
			{
				"type": "occ",
				"energy": -0.26421,
				"method": "rhf"
			},
			{
				"type": "occ",
				"energy": -0.26207,
				"method": "rhf"
			},
			{
				"type": "unocc",
				"energy": -0.08519,
				"method": "rhf"
			},
			{
				"type": "unocc",
				"energy": -0.07428,
				"method": "rhf"
			},
			{
				"type": "unocc",
				"energy": -0.02915,
				"method": "rhf"
			},
			{
				"type": "unocc",
				"energy": -0.00222,
				"method": "rhf"
			},
			{
				"type": "unocc",
				"energy": 0.01162,
				"method": "rhf"
			}
		],
		"cosmo_sigma_profile": { 
			"-0.025": 0.0,
			"-0.024": 0.0,
			"-0.023": 0.0,
			"-0.022": 0.0,
			"-0.021": 0.0,
			"-0.02": 0.0,
			"-0.019": 0.0,
			"-0.018": 0.0,
			"-0.017": 0.0,
			"-0.016": 0.0,
			"-0.015": 0.0,
			"-0.014": 0.0,
			"-0.013": 0.0,
			"-0.012": 0.0,
			"-0.011": 0.459262493372,
			"-0.01": 1.4916466529,
			"-0.009": 1.30692960526,
			"-0.008": 2.74147987334,
			"-0.007": 6.31415855562,
			"-0.006": 10.7902191949,
			"-0.005": 12.0628459485,
			"-0.004": 15.4979620984,
			"-0.003": 18.9763648131,
			"-0.002": 17.1652467617,
			"-0.001": 19.1986752116,
			"0.0": 23.7443016821,
			"0.001": 31.5750730179,
			"0.002": 43.0553407899,
			"0.003": 20.1225228014,
			"0.004": 7.11011021558,
			"0.005": 5.46744261421,
			"0.006": 4.76058513994,
			"0.007": 4.19389784854,
			"0.008": 2.72465434369,
			"0.009": 0.542143793336,
			"0.01": 0.984903939663,
			"0.011": 0.774438419047,
			"0.012": 0.470614811529,
			"0.013": 1.56932632416,
			"0.014": 0.720342651671,
			"0.015": 0.837265286608,
			"0.016": 0.602710026275,
			"0.017": 0.0939700957539,
			"0.018": 0.0,
			"0.019": 0.0,
			"0.02": 0.0,
			"0.021": 0.0,
			"0.022": 0.0,
			"0.023": 0.0,
			"0.024": 0.0,
			"0.025": 0.0
		}
	}
}
