{
	 "smiles": "OC1=C2NCCCC2=CC=C1", 
	 "Tm": 390.15, 
	 "num_atms": 22, 
	 "gaussian": { 
		 "optdone": 1, 
		 "sigma_profile": "yes", 
		 "theory": "DFT", 
		 "functional": "B3LYP", 
		 "basiset": "6-31G**", 
		 "properties": { 
			 "R2extent": 1877.1853, 
			 "electric_dipole_moment_norm": 2.48892018755, 
			 "electric_quadrupole_moment_norm": 5.81906327341, 
			 "total_energy": -479.566412506, 
			 "HOMO_LUMO_gap": 0.2063, 
			 "cosmo_polarized_energy": -8.47, 
			 "cosmo_cavitation_energy": 23.7, 
			 "cosmo_dispersion_energy": -18.27, 
			 "cosmo_repulsion_energy": 1.46, 
			 "cosmo_total_nonelectrostatic_energy": 6.89, 
			 "SMD_solvation_energy": 2.82 
		},
		"coords": [
			{
				"x": 1.5167819532,
				"y": -0.3827190322,
				"z": -2.7890473614,
				"element": "O" 
			},
			{
				"x": 0.3394717262,
				"y": -0.6554129565,
				"z": -2.1271795405,
				"element": "C" 
			},
			{
				"x": 0.2972304512,
				"y": -0.5424998245,
				"z": -0.7223180191,
				"element": "C" 
			},
			{
				"x": 1.4906168947,
				"y": -0.1523696327,
				"z": -0.0710011428,
				"element": "N" 
			},
			{
				"x": 1.4225326192,
				"y": 0.1169587355,
				"z": 1.3687709354,
				"element": "C" 
			},
			{
				"x": 0.5197324138,
				"y": -0.9083889451,
				"z": 2.0537834779,
				"element": "C" 
			},
			{
				"x": -0.900885684,
				"y": -0.8241924723,
				"z": 1.478606602,
				"element": "C" 
			},
			{
				"x": -0.8804039571,
				"y": -0.8803635533,
				"z": -0.0367701318,
				"element": "C" 
			},
			{
				"x": -2.005055141,
				"y": -1.2713258269,
				"z": -0.7754012834,
				"element": "C" 
			},
			{
				"x": -1.9734458108,
				"y": -1.3195746626,
				"z": -2.1673227625,
				"element": "C" 
			},
			{
				"x": -0.7893688489,
				"y": -1.022794327,
				"z": -2.8486354643,
				"element": "C" 
			},
			{
				"x": 2.2404466022,
				"y": -0.6729952833,
				"z": -2.21164265,
				"element": "H" 
			},
			{
				"x": 1.9403265012,
				"y": 0.6081807071,
				"z": -0.5718042936,
				"element": "H" 
			},
			{
				"x": 2.4393740862,
				"y": 0.0732430717,
				"z": 1.7749421356,
				"element": "H" 
			},
			{
				"x": 1.0315072273,
				"y": 1.1279228527,
				"z": 1.572850327,
				"element": "H" 
			},
			{
				"x": 0.5139389497,
				"y": -0.7268105114,
				"z": 3.1336221358,
				"element": "H" 
			},
			{
				"x": 0.9301462684,
				"y": -1.912353895,
				"z": 1.8920075715,
				"element": "H" 
			},
			{
				"x": -1.3729274073,
				"y": 0.1101768213,
				"z": 1.8155468628,
				"element": "H" 
			},
			{
				"x": -1.5221350021,
				"y": -1.6372280472,
				"z": 1.8717008489,
				"element": "H" 
			},
			{
				"x": -2.9165067231,
				"y": -1.5330354313,
				"z": -0.24334555,
				"element": "H" 
			},
			{
				"x": -2.8578675304,
				"y": -1.6138609359,
				"z": -2.7241420922,
				"element": "H" 
			},
			{
				"x": -0.7193095887,
				"y": -1.0883568513,
				"z": -3.9295206051,
				"element": "H" 
			}
		],
		 "valence_orbital": [ 
			{
				"type": "occ",
				"energy": -0.32205,
				"method": "rhf"
			},
			{
				"type": "occ",
				"energy": -0.30942,
				"method": "rhf"
			},
			{
				"type": "occ",
				"energy": -0.28729,
				"method": "rhf"
			},
			{
				"type": "occ",
				"energy": -0.21923,
				"method": "rhf"
			},
			{
				"type": "occ",
				"energy": -0.19175,
				"method": "rhf"
			},
			{
				"type": "unocc",
				"energy": 0.01455,
				"method": "rhf"
			},
			{
				"type": "unocc",
				"energy": 0.02305,
				"method": "rhf"
			},
			{
				"type": "unocc",
				"energy": 0.07191,
				"method": "rhf"
			},
			{
				"type": "unocc",
				"energy": 0.09515,
				"method": "rhf"
			},
			{
				"type": "unocc",
				"energy": 0.11642,
				"method": "rhf"
			}
		],
		"cosmo_sigma_profile": { 
			"-0.025": 0.0,
			"-0.024": 0.0,
			"-0.023": 0.0,
			"-0.022": 0.0,
			"-0.021": 0.0,
			"-0.02": 0.0,
			"-0.019": 0.0,
			"-0.018": 0.0,
			"-0.017": 0.0,
			"-0.016": 0.0,
			"-0.015": 0.293088936863,
			"-0.014": 0.78518003904,
			"-0.013": 0.758740536283,
			"-0.012": 1.72117625075,
			"-0.011": 2.11935643084,
			"-0.01": 1.94220712514,
			"-0.009": 1.1886868749,
			"-0.008": 2.00507242161,
			"-0.007": 1.81694718909,
			"-0.006": 1.7471169125,
			"-0.005": 5.41338479269,
			"-0.004": 12.1347176576,
			"-0.003": 24.3188362563,
			"-0.002": 25.228483818,
			"-0.001": 20.1231548175,
			"0.0": 14.8709223156,
			"0.001": 7.77664925756,
			"0.002": 7.63761484392,
			"0.003": 6.91248837122,
			"0.004": 8.99402310711,
			"0.005": 9.32308043808,
			"0.006": 8.5402909923,
			"0.007": 8.33731539486,
			"0.008": 4.06677227572,
			"0.009": 1.54629558073,
			"0.01": 2.14635135698,
			"0.011": 1.94166487024,
			"0.012": 2.10710868324,
			"0.013": 0.396970614228,
			"0.014": 0.0,
			"0.015": 0.0,
			"0.016": 0.0,
			"0.017": 0.0,
			"0.018": 0.0,
			"0.019": 0.0,
			"0.02": 0.0,
			"0.021": 0.0,
			"0.022": 0.0,
			"0.023": 0.0,
			"0.024": 0.0,
			"0.025": 0.0
		}
	}
}
