{
	 "smiles": "OC(=O)C1=C(F)C(F)=C(F)C(F)=C1", 
	 "Tm": 361.65, 
	 "num_atms": 15, 
	 "gaussian": { 
		 "optdone": 1, 
		 "sigma_profile": "yes", 
		 "theory": "DFT", 
		 "functional": "B3LYP", 
		 "basiset": "6-31G**", 
		 "properties": { 
			 "R2extent": 2725.3207, 
			 "electric_dipole_moment_norm": 3.61167719765, 
			 "electric_quadrupole_moment_norm": 14.8699853561, 
			 "total_energy": -817.707697797, 
			 "HOMO_LUMO_gap": 0.20455, 
			 "cosmo_polarized_energy": -13.99, 
			 "cosmo_cavitation_energy": 22.86, 
			 "cosmo_dispersion_energy": -16.17, 
			 "cosmo_repulsion_energy": 1.2, 
			 "cosmo_total_nonelectrostatic_energy": 7.88, 
			 "SMD_solvation_energy": 7.13 
		},
		"coords": [
			{
				"x": -1.4780838991,
				"y": -2.3254698406,
				"z": 1.3076852488,
				"element": "O" 
			},
			{
				"x": -0.2988573885,
				"y": -1.7248053894,
				"z": 1.6229550269,
				"element": "C" 
			},
			{
				"x": 0.5375455237,
				"y": -2.3078407439,
				"z": 2.26238544,
				"element": "O" 
			},
			{
				"x": -0.1263761645,
				"y": -0.3310870267,
				"z": 1.087705998,
				"element": "C" 
			},
			{
				"x": 0.5990316847,
				"y": 0.6166976733,
				"z": 1.8162481457,
				"element": "C" 
			},
			{
				"x": 1.0873734427,
				"y": 0.3469717178,
				"z": 3.0264721997,
				"element": "F" 
			},
			{
				"x": 0.8030691403,
				"y": 1.9001841968,
				"z": 1.3064958496,
				"element": "C" 
			},
			{
				"x": 1.4761464836,
				"y": 2.803925923,
				"z": 2.0203670525,
				"element": "F" 
			},
			{
				"x": 0.3019866934,
				"y": 2.2448762649,
				"z": 0.0540603393,
				"element": "C" 
			},
			{
				"x": 0.5049897225,
				"y": 3.4695356433,
				"z": -0.4308874153,
				"element": "F" 
			},
			{
				"x": -0.4118665212,
				"y": 1.297883846,
				"z": -0.6816116234,
				"element": "C" 
			},
			{
				"x": -0.8748783623,
				"y": 1.6419531771,
				"z": -1.8908224369,
				"element": "F" 
			},
			{
				"x": -0.6306967541,
				"y": 0.0276760083,
				"z": -0.1743421689,
				"element": "C" 
			},
			{
				"x": -2.1027575832,
				"y": -1.6772009755,
				"z": 0.952693108,
				"element": "H" 
			},
			{
				"x": -1.156426018,
				"y": -0.6911004745,
				"z": -0.793504764,
				"element": "H" 
			}
		],
		 "valence_orbital": [ 
			{
				"type": "occ",
				"energy": -0.37638,
				"method": "rhf"
			},
			{
				"type": "occ",
				"energy": -0.33316,
				"method": "rhf"
			},
			{
				"type": "occ",
				"energy": -0.29533,
				"method": "rhf"
			},
			{
				"type": "occ",
				"energy": -0.28461,
				"method": "rhf"
			},
			{
				"type": "occ",
				"energy": -0.27364,
				"method": "rhf"
			},
			{
				"type": "unocc",
				"energy": -0.06909,
				"method": "rhf"
			},
			{
				"type": "unocc",
				"energy": -0.03827,
				"method": "rhf"
			},
			{
				"type": "unocc",
				"energy": 0.0134,
				"method": "rhf"
			},
			{
				"type": "unocc",
				"energy": 0.02196,
				"method": "rhf"
			},
			{
				"type": "unocc",
				"energy": 0.05795,
				"method": "rhf"
			}
		],
		"cosmo_sigma_profile": { 
			"-0.025": 0.0,
			"-0.024": 0.0,
			"-0.023": 0.0,
			"-0.022": 0.0,
			"-0.021": 0.0,
			"-0.02": 0.0155336442936,
			"-0.019": 0.800114021658,
			"-0.018": 1.2629526073,
			"-0.017": 0.882252609052,
			"-0.016": 1.15176258158,
			"-0.015": 1.3412723013,
			"-0.014": 1.04916859308,
			"-0.013": 1.0152358781,
			"-0.012": 1.40005039751,
			"-0.011": 1.78655359538,
			"-0.01": 2.08804347813,
			"-0.009": 1.91323987699,
			"-0.008": 2.17485390862,
			"-0.007": 2.17408550707,
			"-0.006": 2.4464832289,
			"-0.005": 5.9755399784,
			"-0.004": 17.5813009952,
			"-0.003": 13.31863495,
			"-0.002": 11.9147578926,
			"-0.001": 10.7682606621,
			"0.0": 7.06669176774,
			"0.001": 10.1672169604,
			"0.002": 33.3575712915,
			"0.003": 20.5136121451,
			"0.004": 3.45697486832,
			"0.005": 3.04341105,
			"0.006": 2.12602037131,
			"0.007": 2.93719726558,
			"0.008": 4.1014992649,
			"0.009": 4.36819429839,
			"0.01": 6.19105023967,
			"0.011": 5.0985117785,
			"0.012": 1.80805313034,
			"0.013": 0.100811091076,
			"0.014": 0.0,
			"0.015": 0.0,
			"0.016": 0.0,
			"0.017": 0.0,
			"0.018": 0.0,
			"0.019": 0.0,
			"0.02": 0.0,
			"0.021": 0.0,
			"0.022": 0.0,
			"0.023": 0.0,
			"0.024": 0.0,
			"0.025": 0.0
		}
	}
}
