{
	 "smiles": "ClCC1=NN=C(O1)C1=CC2=C(C=CC=C2)C=C1", 
	 "Tm": 402.15, 
	 "num_atms": 26, 
	 "gaussian": { 
		 "optdone": 1, 
		 "sigma_profile": "yes", 
		 "theory": "DFT", 
		 "functional": "B3LYP", 
		 "basiset": "6-31G**", 
		 "properties": { 
			 "R2extent": 8261.3165, 
			 "electric_dipole_moment_norm": 3.7009730842, 
			 "electric_quadrupole_moment_norm": 14.3914034364, 
			 "total_energy": -1145.7147299, 
			 "HOMO_LUMO_gap": 0.15705, 
			 "cosmo_polarized_energy": -12.24, 
			 "cosmo_cavitation_energy": 33.15, 
			 "cosmo_dispersion_energy": -24.47, 
			 "cosmo_repulsion_energy": 1.88, 
			 "cosmo_total_nonelectrostatic_energy": 10.55, 
			 "SMD_solvation_energy": 3.37 
		},
		"coords": [
			{
				"x": -5.8941516317,
				"y": 0.6365405808,
				"z": 3.3066796604,
				"element": "Cl" 
			},
			{
				"x": -5.0331551183,
				"y": 2.2429032194,
				"z": 3.2535915775,
				"element": "C" 
			},
			{
				"x": -3.6063475611,
				"y": 2.1039223613,
				"z": 2.8940534294,
				"element": "C" 
			},
			{
				"x": -2.5746570448,
				"y": 2.2972346963,
				"z": 3.6555581272,
				"element": "N" 
			},
			{
				"x": -1.455624135,
				"y": 2.0602879491,
				"z": 2.8689597803,
				"element": "N" 
			},
			{
				"x": -1.8933818341,
				"y": 1.7345029552,
				"z": 1.6838700269,
				"element": "C" 
			},
			{
				"x": -3.2592900012,
				"y": 1.7465839689,
				"z": 1.6264067268,
				"element": "O" 
			},
			{
				"x": -1.1297076285,
				"y": 1.3847053702,
				"z": 0.4937107053,
				"element": "C" 
			},
			{
				"x": 0.2545835973,
				"y": 1.3967760713,
				"z": 0.5507059285,
				"element": "C" 
			},
			{
				"x": 1.0298647851,
				"y": 1.0622487446,
				"z": -0.5849617055,
				"element": "C" 
			},
			{
				"x": 0.363553142,
				"y": 0.7079126282,
				"z": -1.804763407,
				"element": "C" 
			},
			{
				"x": 1.1456892637,
				"y": 0.3732490832,
				"z": -2.9414300952,
				"element": "C" 
			},
			{
				"x": 2.5213593941,
				"y": 0.3876036029,
				"z": -2.8774579089,
				"element": "C" 
			},
			{
				"x": 3.1805212291,
				"y": 0.7376537359,
				"z": -1.672454013,
				"element": "C" 
			},
			{
				"x": 2.4520391143,
				"y": 1.067215834,
				"z": -0.5526254047,
				"element": "C" 
			},
			{
				"x": -1.0580292746,
				"y": 0.7041202807,
				"z": -1.8310152903,
				"element": "C" 
			},
			{
				"x": -1.7909866029,
				"y": 1.032067471,
				"z": -0.7169273455,
				"element": "C" 
			},
			{
				"x": -5.1021271316,
				"y": 2.6830271976,
				"z": 4.2466487224,
				"element": "H" 
			},
			{
				"x": -5.5736233955,
				"y": 2.8519844176,
				"z": 2.5283413284,
				"element": "H" 
			},
			{
				"x": 0.7467122647,
				"y": 1.6666819975,
				"z": 1.479955063,
				"element": "H" 
			},
			{
				"x": 0.6397798345,
				"y": 0.1046105823,
				"z": -3.8650510789,
				"element": "H" 
			},
			{
				"x": 3.1088510865,
				"y": 0.1294839563,
				"z": -3.7536948827,
				"element": "H" 
			},
			{
				"x": 4.2658795705,
				"y": 0.7442209323,
				"z": -1.6374368394,
				"element": "H" 
			},
			{
				"x": 2.9528012385,
				"y": 1.3359623725,
				"z": 0.3735273146,
				"element": "H" 
			},
			{
				"x": -1.5638276142,
				"y": 0.4342038653,
				"z": -2.7540729935,
				"element": "H" 
			},
			{
				"x": -2.8749255465,
				"y": 1.0228961258,
				"z": -0.7485174262,
				"element": "H" 
			}
		],
		 "valence_orbital": [ 
			{
				"type": "occ",
				"energy": -0.30403,
				"method": "rhf"
			},
			{
				"type": "occ",
				"energy": -0.28724,
				"method": "rhf"
			},
			{
				"type": "occ",
				"energy": -0.28383,
				"method": "rhf"
			},
			{
				"type": "occ",
				"energy": -0.24884,
				"method": "rhf"
			},
			{
				"type": "occ",
				"energy": -0.22552,
				"method": "rhf"
			},
			{
				"type": "unocc",
				"energy": -0.06847,
				"method": "rhf"
			},
			{
				"type": "unocc",
				"energy": -0.0427,
				"method": "rhf"
			},
			{
				"type": "unocc",
				"energy": -0.02308,
				"method": "rhf"
			},
			{
				"type": "unocc",
				"energy": 0.01349,
				"method": "rhf"
			},
			{
				"type": "unocc",
				"energy": 0.0339,
				"method": "rhf"
			}
		],
		"cosmo_sigma_profile": { 
			"-0.025": 0.0,
			"-0.024": 0.0,
			"-0.023": 0.0,
			"-0.022": 0.0,
			"-0.021": 0.0,
			"-0.02": 0.0,
			"-0.019": 0.0,
			"-0.018": 0.0,
			"-0.017": 0.0,
			"-0.016": 0.0,
			"-0.015": 0.0,
			"-0.014": 0.0,
			"-0.013": 0.0,
			"-0.012": 0.0,
			"-0.011": 0.0,
			"-0.01": 3.22110498969,
			"-0.009": 4.32118642431,
			"-0.008": 4.09311262857,
			"-0.007": 9.63425204073,
			"-0.006": 18.5494156177,
			"-0.005": 17.4606663938,
			"-0.004": 17.4740149856,
			"-0.003": 13.6771282563,
			"-0.002": 16.9184409418,
			"-0.001": 16.5195656685,
			"0.0": 18.0439144398,
			"0.001": 18.3988926883,
			"0.002": 25.9317429806,
			"0.003": 27.957501443,
			"0.004": 20.6951033752,
			"0.005": 13.3096763462,
			"0.006": 4.2450663021,
			"0.007": 2.49427020616,
			"0.008": 2.28305832337,
			"0.009": 2.1414979108,
			"0.01": 2.08733679715,
			"0.011": 3.98096959927,
			"0.012": 2.36651204235,
			"0.013": 2.44366046751,
			"0.014": 1.27390832369,
			"0.015": 0.104401474586,
			"0.016": 0.0,
			"0.017": 0.0,
			"0.018": 0.0,
			"0.019": 0.0,
			"0.02": 0.0,
			"0.021": 0.0,
			"0.022": 0.0,
			"0.023": 0.0,
			"0.024": 0.0,
			"0.025": 0.0
		}
	}
}
