{
	 "smiles": "OC1=CC=C(C(=C1)[N+]([O-])=O)[N+]([O-])=O", 
	 "Tm": 407.15, 
	 "num_atms": 17, 
	 "gaussian": { 
		 "optdone": 1, 
		 "sigma_profile": "yes", 
		 "theory": "DFT", 
		 "functional": "B3LYP", 
		 "basiset": "6-31G**", 
		 "properties": { 
			 "R2extent": 2422.7359, 
			 "electric_dipole_moment_norm": 6.61951383487, 
			 "electric_quadrupole_moment_norm": 8.862509811, 
			 "total_energy": -716.443990105, 
			 "HOMO_LUMO_gap": 0.16463, 
			 "cosmo_polarized_energy": -18.0, 
			 "cosmo_cavitation_energy": 23.65, 
			 "cosmo_dispersion_energy": -17.1, 
			 "cosmo_repulsion_energy": 1.35, 
			 "cosmo_total_nonelectrostatic_energy": 7.89, 
			 "SMD_solvation_energy": 9.21 
		},
		"coords": [
			{
				"x": -1.8598143186,
				"y": 0.653100589,
				"z": 2.1754162453,
				"element": "O" 
			},
			{
				"x": -1.021146045,
				"y": 0.6092730495,
				"z": 1.1149921968,
				"element": "C" 
			},
			{
				"x": -1.0107742278,
				"y": 1.7141783857,
				"z": 0.2525587984,
				"element": "C" 
			},
			{
				"x": -0.160551198,
				"y": 1.7250651811,
				"z": -0.8441623534,
				"element": "C" 
			},
			{
				"x": 0.6793597802,
				"y": 0.6414953554,
				"z": -1.1035301402,
				"element": "C" 
			},
			{
				"x": 0.6455109956,
				"y": -0.4684994471,
				"z": -0.2541831383,
				"element": "C" 
			},
			{
				"x": -0.1896760604,
				"y": -0.4882601821,
				"z": 0.8540883235,
				"element": "C" 
			},
			{
				"x": 1.3819821643,
				"y": -1.7186256853,
				"z": -0.5344806084,
				"element": "N" 
			},
			{
				"x": 1.9194094483,
				"y": -2.2663874746,
				"z": 0.4239056212,
				"element": "O" 
			},
			{
				"x": 1.3373551169,
				"y": -2.1428914297,
				"z": -1.6812498468,
				"element": "O" 
			},
			{
				"x": 1.6488075282,
				"y": 0.7730706693,
				"z": -2.1959260928,
				"element": "N" 
			},
			{
				"x": 2.7301281351,
				"y": 0.2084293162,
				"z": -2.0608497199,
				"element": "O" 
			},
			{
				"x": 1.3225677435,
				"y": 1.4810314907,
				"z": -3.1470909587,
				"element": "O" 
			},
			{
				"x": -1.7732281753,
				"y": -0.1503477047,
				"z": 2.7061211364,
				"element": "H" 
			},
			{
				"x": -1.6613875878,
				"y": 2.554520402,
				"z": 0.4660929986,
				"element": "H" 
			},
			{
				"x": -0.1179679727,
				"y": 2.5769274731,
				"z": -1.5120750508,
				"element": "H" 
			},
			{
				"x": -0.1891753265,
				"y": -1.3656799885,
				"z": 1.4923725893,
				"element": "H" 
			}
		],
		 "valence_orbital": [ 
			{
				"type": "occ",
				"energy": -0.31709,
				"method": "rhf"
			},
			{
				"type": "occ",
				"energy": -0.31367,
				"method": "rhf"
			},
			{
				"type": "occ",
				"energy": -0.30544,
				"method": "rhf"
			},
			{
				"type": "occ",
				"energy": -0.29618,
				"method": "rhf"
			},
			{
				"type": "occ",
				"energy": -0.27263,
				"method": "rhf"
			},
			{
				"type": "unocc",
				"energy": -0.108,
				"method": "rhf"
			},
			{
				"type": "unocc",
				"energy": -0.0823,
				"method": "rhf"
			},
			{
				"type": "unocc",
				"energy": -0.04459,
				"method": "rhf"
			},
			{
				"type": "unocc",
				"energy": -0.01637,
				"method": "rhf"
			},
			{
				"type": "unocc",
				"energy": 0.03196,
				"method": "rhf"
			}
		],
		"cosmo_sigma_profile": { 
			"-0.025": 0.0,
			"-0.024": 0.0,
			"-0.023": 0.0,
			"-0.022": 0.0,
			"-0.021": 0.0,
			"-0.02": 0.604997062951,
			"-0.019": 1.53886968985,
			"-0.018": 1.3514235983,
			"-0.017": 1.62823877313,
			"-0.016": 1.20395751937,
			"-0.015": 0.632180025191,
			"-0.014": 0.920344394183,
			"-0.013": 0.897316413979,
			"-0.012": 1.44214932465,
			"-0.011": 1.31303973972,
			"-0.01": 1.28465345683,
			"-0.009": 4.70814985219,
			"-0.008": 7.49275265368,
			"-0.007": 5.41695806138,
			"-0.006": 5.63045196245,
			"-0.005": 6.08414216808,
			"-0.004": 6.88869308529,
			"-0.003": 10.4389194642,
			"-0.002": 16.2822823293,
			"-0.001": 13.6585423642,
			"0.0": 12.2159230085,
			"0.001": 6.53174865839,
			"0.002": 6.83326666013,
			"0.003": 5.71805506549,
			"0.004": 8.25841974671,
			"0.005": 7.19586721194,
			"0.006": 15.7462697641,
			"0.007": 19.4787887093,
			"0.008": 11.0929844446,
			"0.009": 6.75245070847,
			"0.01": 0.899291282449,
			"0.011": 0.0,
			"0.012": 0.0,
			"0.013": 0.0,
			"0.014": 0.0,
			"0.015": 0.0,
			"0.016": 0.0,
			"0.017": 0.0,
			"0.018": 0.0,
			"0.019": 0.0,
			"0.02": 0.0,
			"0.021": 0.0,
			"0.022": 0.0,
			"0.023": 0.0,
			"0.024": 0.0,
			"0.025": 0.0
		}
	}
}
