{
	 "smiles": "C(CC1=NC=CC=C1)C1=CC=CC=C1", 
	 "Tm": 270.15, 
	 "num_atms": 27, 
	 "gaussian": { 
		 "optdone": 1, 
		 "sigma_profile": "yes", 
		 "theory": "DFT", 
		 "functional": "B3LYP", 
		 "basiset": "6-31G**", 
		 "properties": { 
			 "R2extent": 3397.2222, 
			 "electric_dipole_moment_norm": 1.84321110565, 
			 "electric_quadrupole_moment_norm": 8.22594330518, 
			 "total_energy": -557.974625095, 
			 "HOMO_LUMO_gap": 0.21379, 
			 "cosmo_polarized_energy": -9.17, 
			 "cosmo_cavitation_energy": 30.66, 
			 "cosmo_dispersion_energy": -21.15, 
			 "cosmo_repulsion_energy": 1.68, 
			 "cosmo_total_nonelectrostatic_energy": 11.19, 
			 "SMD_solvation_energy": 3.49 
		},
		"coords": [
			{
				"x": 0.9570332018,
				"y": 1.5714780727,
				"z": 1.1720101272,
				"element": "C" 
			},
			{
				"x": -0.4571755257,
				"y": 1.5129321714,
				"z": 0.5352072216,
				"element": "C" 
			},
			{
				"x": -0.7042822209,
				"y": 0.283893274,
				"z": -0.3122788918,
				"element": "C" 
			},
			{
				"x": -1.5426506557,
				"y": -0.6399010745,
				"z": 0.1845776099,
				"element": "N" 
			},
			{
				"x": -1.7694343192,
				"y": -1.742398401,
				"z": -0.5407639639,
				"element": "C" 
			},
			{
				"x": -1.1878068474,
				"y": -1.9883025972,
				"z": -1.7836631412,
				"element": "C" 
			},
			{
				"x": -0.3212213021,
				"y": -1.0255807018,
				"z": -2.3023948885,
				"element": "C" 
			},
			{
				"x": -0.0769418085,
				"y": 0.1249539418,
				"z": -1.558073028,
				"element": "C" 
			},
			{
				"x": 1.2298760086,
				"y": 0.4783023769,
				"z": 2.1836538315,
				"element": "C" 
			},
			{
				"x": 0.7658484579,
				"y": 0.5963077359,
				"z": 3.5013511463,
				"element": "C" 
			},
			{
				"x": 0.9983199378,
				"y": -0.4109858317,
				"z": 4.4374429549,
				"element": "C" 
			},
			{
				"x": 1.7039909077,
				"y": -1.5589713207,
				"z": 4.0705172261,
				"element": "C" 
			},
			{
				"x": 2.1733093728,
				"y": -1.6888340284,
				"z": 2.7629138291,
				"element": "C" 
			},
			{
				"x": 1.9375055852,
				"y": -0.6775364154,
				"z": 1.8297884261,
				"element": "C" 
			},
			{
				"x": 1.0653247312,
				"y": 2.5502204338,
				"z": 1.6550301455,
				"element": "H" 
			},
			{
				"x": 1.7104267264,
				"y": 1.5331625015,
				"z": 0.3762674603,
				"element": "H" 
			},
			{
				"x": -1.2157089662,
				"y": 1.5335301211,
				"z": 1.3223768537,
				"element": "H" 
			},
			{
				"x": -0.5900819979,
				"y": 2.4122985402,
				"z": -0.0799481871,
				"element": "H" 
			},
			{
				"x": -2.4554973816,
				"y": -2.4660147602,
				"z": -0.1028901976,
				"element": "H" 
			},
			{
				"x": -1.4113631343,
				"y": -2.9011979519,
				"z": -2.3266586035,
				"element": "H" 
			},
			{
				"x": 0.1512010781,
				"y": -1.167133139,
				"z": -3.2706165767,
				"element": "H" 
			},
			{
				"x": 0.5866622503,
				"y": 0.8983132384,
				"z": -1.9353160312,
				"element": "H" 
			},
			{
				"x": 0.2192603702,
				"y": 1.4892740815,
				"z": 3.7966828225,
				"element": "H" 
			},
			{
				"x": 0.632480422,
				"y": -0.2982012856,
				"z": 5.4543493074,
				"element": "H" 
			},
			{
				"x": 1.8889359336,
				"y": -2.34336643,
				"z": 4.7989450152,
				"element": "H" 
			},
			{
				"x": 2.7261543125,
				"y": -2.5765923516,
				"z": 2.4680068553,
				"element": "H" 
			},
			{
				"x": 2.3072348635,
				"y": -0.7858502004,
				"z": 0.8131826768,
				"element": "H" 
			}
		],
		 "valence_orbital": [ 
			{
				"type": "occ",
				"energy": -0.28088,
				"method": "rhf"
			},
			{
				"type": "occ",
				"energy": -0.25143,
				"method": "rhf"
			},
			{
				"type": "occ",
				"energy": -0.24698,
				"method": "rhf"
			},
			{
				"type": "occ",
				"energy": -0.24051,
				"method": "rhf"
			},
			{
				"type": "occ",
				"energy": -0.23213,
				"method": "rhf"
			},
			{
				"type": "unocc",
				"energy": -0.01834,
				"method": "rhf"
			},
			{
				"type": "unocc",
				"energy": -0.0085,
				"method": "rhf"
			},
			{
				"type": "unocc",
				"energy": 0.0061,
				"method": "rhf"
			},
			{
				"type": "unocc",
				"energy": 0.00911,
				"method": "rhf"
			},
			{
				"type": "unocc",
				"energy": 0.09242,
				"method": "rhf"
			}
		],
		"cosmo_sigma_profile": { 
			"-0.025": 0.0,
			"-0.024": 0.0,
			"-0.023": 0.0,
			"-0.022": 0.0,
			"-0.021": 0.0,
			"-0.02": 0.0,
			"-0.019": 0.0,
			"-0.018": 0.0,
			"-0.017": 0.0,
			"-0.016": 0.0,
			"-0.015": 0.0,
			"-0.014": 0.0,
			"-0.013": 0.0,
			"-0.012": 0.0,
			"-0.011": 0.0,
			"-0.01": 0.0,
			"-0.009": 0.0,
			"-0.008": 0.0,
			"-0.007": 2.02698714915,
			"-0.006": 9.4466634053,
			"-0.005": 19.3440084002,
			"-0.004": 27.3579577323,
			"-0.003": 28.563810235,
			"-0.002": 21.9349771073,
			"-0.001": 19.3528775192,
			"0.0": 17.248693508,
			"0.001": 13.5642691268,
			"0.002": 16.0158039237,
			"0.003": 19.1817620006,
			"0.004": 13.8918090467,
			"0.005": 9.14176858367,
			"0.006": 9.00484767991,
			"0.007": 6.86288549526,
			"0.008": 2.69302181914,
			"0.009": 2.05244726075,
			"0.01": 1.44357011246,
			"0.011": 0.708527908778,
			"0.012": 0.96652969566,
			"0.013": 0.704991230253,
			"0.014": 0.642045327506,
			"0.015": 0.780160392245,
			"0.016": 0.708169067126,
			"0.017": 0.290460820936,
			"0.018": 0.0,
			"0.019": 0.0,
			"0.02": 0.0,
			"0.021": 0.0,
			"0.022": 0.0,
			"0.023": 0.0,
			"0.024": 0.0,
			"0.025": 0.0
		}
	}
}
