{
	 "smiles": "ClC1=C(Cl)N=CN1", 
	 "Tm": 459.15, 
	 "num_atms": 9, 
	 "gaussian": { 
		 "optdone": 1, 
		 "sigma_profile": "yes", 
		 "theory": "DFT", 
		 "functional": "B3LYP", 
		 "basiset": "6-31G**", 
		 "properties": { 
			 "R2extent": 1456.2279, 
			 "electric_dipole_moment_norm": 4.38386600845, 
			 "electric_quadrupole_moment_norm": 13.6835418017, 
			 "total_energy": -1145.39092183, 
			 "HOMO_LUMO_gap": 0.23557, 
			 "cosmo_polarized_energy": -11.87, 
			 "cosmo_cavitation_energy": 17.27, 
			 "cosmo_dispersion_energy": -13.42, 
			 "cosmo_repulsion_energy": 1.15, 
			 "cosmo_total_nonelectrostatic_energy": 5.0, 
			 "SMD_solvation_energy": 1.27 
		},
		"coords": [
			{
				"x": 2.5124873157,
				"y": 0.9862913046,
				"z": 1.2914890488,
				"element": "Cl" 
			},
			{
				"x": 0.9330273352,
				"y": 1.4504282853,
				"z": 0.8049255056,
				"element": "C" 
			},
			{
				"x": 0.0999942514,
				"y": 1.0042478693,
				"z": -0.193859571,
				"element": "C" 
			},
			{
				"x": 0.4322350761,
				"y": -0.2491384503,
				"z": -1.3329420992,
				"element": "Cl" 
			},
			{
				"x": -1.0774967742,
				"y": 1.6933912979,
				"z": -0.1880686616,
				"element": "N" 
			},
			{
				"x": -0.9732964063,
				"y": 2.5545200252,
				"z": 0.8021039578,
				"element": "C" 
			},
			{
				"x": 0.2294562866,
				"y": 2.4516625487,
				"z": 1.4413981868,
				"element": "N" 
			},
			{
				"x": -1.7286066595,
				"y": 3.2686193897,
				"z": 1.0981877331,
				"element": "H" 
			},
			{
				"x": 0.5607995749,
				"y": 2.9912777297,
				"z": 2.2275658997,
				"element": "H" 
			}
		],
		 "valence_orbital": [ 
			{
				"type": "occ",
				"energy": -0.34992,
				"method": "rhf"
			},
			{
				"type": "occ",
				"energy": -0.31819,
				"method": "rhf"
			},
			{
				"type": "occ",
				"energy": -0.29387,
				"method": "rhf"
			},
			{
				"type": "occ",
				"energy": -0.2928,
				"method": "rhf"
			},
			{
				"type": "occ",
				"energy": -0.23351,
				"method": "rhf"
			},
			{
				"type": "unocc",
				"energy": 0.00206,
				"method": "rhf"
			},
			{
				"type": "unocc",
				"energy": 0.01418,
				"method": "rhf"
			},
			{
				"type": "unocc",
				"energy": 0.04541,
				"method": "rhf"
			},
			{
				"type": "unocc",
				"energy": 0.04731,
				"method": "rhf"
			},
			{
				"type": "unocc",
				"energy": 0.07425,
				"method": "rhf"
			}
		],
		"cosmo_sigma_profile": { 
			"-0.025": 0.0,
			"-0.024": 0.0,
			"-0.023": 0.0,
			"-0.022": 0.0,
			"-0.021": 0.0,
			"-0.02": 0.0,
			"-0.019": 0.0202334361617,
			"-0.018": 1.38395141205,
			"-0.017": 1.4063656998,
			"-0.016": 1.35046216389,
			"-0.015": 1.1690094353,
			"-0.014": 1.1879899287,
			"-0.013": 1.52589535101,
			"-0.012": 0.956550832418,
			"-0.011": 1.38567260825,
			"-0.01": 4.52266614681,
			"-0.009": 2.14771469218,
			"-0.008": 1.99046242421,
			"-0.007": 2.05358297487,
			"-0.006": 2.41007704425,
			"-0.005": 2.61772777001,
			"-0.004": 3.83116097812,
			"-0.003": 3.86492018562,
			"-0.002": 6.40003525235,
			"-0.001": 8.13402906443,
			"0.0": 14.965233392,
			"0.001": 14.8795296022,
			"0.002": 15.3587647972,
			"0.003": 17.6191173813,
			"0.004": 14.1059101407,
			"0.005": 4.56746729113,
			"0.006": 1.76415861655,
			"0.007": 2.67322967021,
			"0.008": 1.4814163986,
			"0.009": 0.823988535239,
			"0.01": 1.36412856311,
			"0.011": 1.65899487855,
			"0.012": 1.05540499272,
			"0.013": 0.653356349823,
			"0.014": 1.50970177757,
			"0.015": 0.756336142214,
			"0.016": 0.4687088284,
			"0.017": 0.0,
			"0.018": 0.0,
			"0.019": 0.0,
			"0.02": 0.0,
			"0.021": 0.0,
			"0.022": 0.0,
			"0.023": 0.0,
			"0.024": 0.0,
			"0.025": 0.0
		}
	}
}
