{
	 "smiles": "CC(C)(C)C1=CC(=C(OCC(O)=O)C=C1)C(C)(C)C", 
	 "Tm": 290.15, 
	 "num_atms": 43, 
	 "gaussian": { 
		 "optdone": 1, 
		 "sigma_profile": "yes", 
		 "theory": "DFT", 
		 "functional": "B3LYP", 
		 "basiset": "6-31G**", 
		 "properties": { 
			 "R2extent": 6475.9472, 
			 "electric_dipole_moment_norm": 5.53981698163, 
			 "electric_quadrupole_moment_norm": 26.7081706659, 
			 "total_energy": -849.844451826, 
			 "HOMO_LUMO_gap": 0.21651, 
			 "cosmo_polarized_energy": -12.74, 
			 "cosmo_cavitation_energy": 41.96, 
			 "cosmo_dispersion_energy": -28.21, 
			 "cosmo_repulsion_energy": 2.16, 
			 "cosmo_total_nonelectrostatic_energy": 15.91, 
			 "SMD_solvation_energy": 8.6 
		},
		"coords": [
			{
				"x": -2.239235589,
				"y": 1.6781228053,
				"z": -2.4616532539,
				"element": "C" 
			},
			{
				"x": -0.7897401905,
				"y": 1.9631784631,
				"z": -2.0007755207,
				"element": "C" 
			},
			{
				"x": -0.7865671572,
				"y": 3.2898990512,
				"z": -1.2180589257,
				"element": "C" 
			},
			{
				"x": 0.1180666213,
				"y": 2.1342595112,
				"z": -3.2423142486,
				"element": "C" 
			},
			{
				"x": -0.2794057376,
				"y": 0.7793423172,
				"z": -1.1585120928,
				"element": "C" 
			},
			{
				"x": 0.1058415022,
				"y": 0.9068305079,
				"z": 0.1796074028,
				"element": "C" 
			},
			{
				"x": 0.5787017814,
				"y": -0.1460562874,
				"z": 0.9913736364,
				"element": "C" 
			},
			{
				"x": 0.7406588566,
				"y": -1.3885145869,
				"z": 0.3446281449,
				"element": "C" 
			},
			{
				"x": 1.2614879962,
				"y": -2.5232609236,
				"z": 0.9517836732,
				"element": "O" 
			},
			{
				"x": 2.6789537576,
				"y": -2.6182396075,
				"z": 1.0987153177,
				"element": "C" 
			},
			{
				"x": 3.4441754,
				"y": -3.214715929,
				"z": -0.0923012875,
				"element": "C" 
			},
			{
				"x": 3.0847620815,
				"y": -2.8188204242,
				"z": -1.3304945182,
				"element": "O" 
			},
			{
				"x": 4.3751814457,
				"y": -3.9623531504,
				"z": 0.0786703263,
				"element": "O" 
			},
			{
				"x": 0.2933067382,
				"y": -1.5641196106,
				"z": -0.9754539529,
				"element": "C" 
			},
			{
				"x": -0.2093949461,
				"y": -0.5040940395,
				"z": -1.7187187946,
				"element": "C" 
			},
			{
				"x": 0.8381713005,
				"y": 0.1634725181,
				"z": 2.4898891948,
				"element": "C" 
			},
			{
				"x": -0.347422621,
				"y": 0.9933896837,
				"z": 3.052138564,
				"element": "C" 
			},
			{
				"x": 2.1338298978,
				"y": 0.9976508961,
				"z": 2.6310172609,
				"element": "C" 
			},
			{
				"x": 0.9407207945,
				"y": -1.0858956953,
				"z": 3.3943122747,
				"element": "C" 
			},
			{
				"x": -2.6153326219,
				"y": 2.5081866125,
				"z": -3.0700418344,
				"element": "H" 
			},
			{
				"x": -2.3040156067,
				"y": 0.7685053399,
				"z": -3.0661453293,
				"element": "H" 
			},
			{
				"x": -2.9071319707,
				"y": 1.556611176,
				"z": -1.6025869447,
				"element": "H" 
			},
			{
				"x": 0.2184831175,
				"y": 3.5618252987,
				"z": -0.8786191805,
				"element": "H" 
			},
			{
				"x": -1.1448362866,
				"y": 4.0977854904,
				"z": -1.8639291122,
				"element": "H" 
			},
			{
				"x": -1.4461752131,
				"y": 3.2519212396,
				"z": -0.3447673206,
				"element": "H" 
			},
			{
				"x": 1.151012186,
				"y": 2.3462876323,
				"z": -2.9472205308,
				"element": "H" 
			},
			{
				"x": -0.235676001,
				"y": 2.9665223943,
				"z": -3.860954816,
				"element": "H" 
			},
			{
				"x": 0.12724528,
				"y": 1.2366462707,
				"z": -3.8677823798,
				"element": "H" 
			},
			{
				"x": 0.023364242,
				"y": 1.882946207,
				"z": 0.6376395763,
				"element": "H" 
			},
			{
				"x": 2.8677414263,
				"y": -3.2805384955,
				"z": 1.9442315393,
				"element": "H" 
			},
			{
				"x": 3.1211957721,
				"y": -1.637339803,
				"z": 1.3191995718,
				"element": "H" 
			},
			{
				"x": 2.3452804593,
				"y": -2.1880463163,
				"z": -1.2981070324,
				"element": "H" 
			},
			{
				"x": 0.3282242651,
				"y": -2.56695491,
				"z": -1.3927405092,
				"element": "H" 
			},
			{
				"x": -0.5406461508,
				"y": -0.686004387,
				"z": -2.7363458577,
				"element": "H" 
			},
			{
				"x": -0.1892783924,
				"y": 1.1764744071,
				"z": 4.1198641419,
				"element": "H" 
			},
			{
				"x": -0.4559541877,
				"y": 1.969121543,
				"z": 2.5729618003,
				"element": "H" 
			},
			{
				"x": -1.292872498,
				"y": 0.4536765483,
				"z": 2.9379608383,
				"element": "H" 
			},
			{
				"x": 3.0107634672,
				"y": 0.4449992326,
				"z": 2.2775065241,
				"element": "H" 
			},
			{
				"x": 2.306379671,
				"y": 1.2582925342,
				"z": 3.681319268,
				"element": "H" 
			},
			{
				"x": 2.0758715019,
				"y": 1.9284966022,
				"z": 2.0578776294,
				"element": "H" 
			},
			{
				"x": 0.9246296905,
				"y": -0.761339625,
				"z": 4.4401784614,
				"element": "H" 
			},
			{
				"x": 1.8646480605,
				"y": -1.6450717557,
				"z": 3.2514241938,
				"element": "H" 
			},
			{
				"x": 0.1028878574,
				"y": -1.7701787355,
				"z": 3.2398241021,
				"element": "H" 
			}
		],
		 "valence_orbital": [ 
			{
				"type": "occ",
				"energy": -0.3111,
				"method": "rhf"
			},
			{
				"type": "occ",
				"energy": -0.30241,
				"method": "rhf"
			},
			{
				"type": "occ",
				"energy": -0.26382,
				"method": "rhf"
			},
			{
				"type": "occ",
				"energy": -0.25828,
				"method": "rhf"
			},
			{
				"type": "occ",
				"energy": -0.24057,
				"method": "rhf"
			},
			{
				"type": "unocc",
				"energy": -0.02406,
				"method": "rhf"
			},
			{
				"type": "unocc",
				"energy": -0.01407,
				"method": "rhf"
			},
			{
				"type": "unocc",
				"energy": 0.0072,
				"method": "rhf"
			},
			{
				"type": "unocc",
				"energy": 0.06573,
				"method": "rhf"
			},
			{
				"type": "unocc",
				"energy": 0.07422,
				"method": "rhf"
			}
		],
		"cosmo_sigma_profile": { 
			"-0.025": 0.0,
			"-0.024": 0.0,
			"-0.023": 0.0,
			"-0.022": 0.0,
			"-0.021": 0.0,
			"-0.02": 0.0,
			"-0.019": 0.0,
			"-0.018": 0.0,
			"-0.017": 0.0,
			"-0.016": 0.0,
			"-0.015": 0.0,
			"-0.014": 0.0,
			"-0.013": 0.0119797412548,
			"-0.012": 0.285445495467,
			"-0.011": 0.472990683764,
			"-0.01": 1.15414139801,
			"-0.009": 2.15681268012,
			"-0.008": 3.06201312609,
			"-0.007": 7.33423214673,
			"-0.006": 10.9957578569,
			"-0.005": 13.6463319061,
			"-0.004": 12.8358138614,
			"-0.003": 31.2530696056,
			"-0.002": 41.5418003078,
			"-0.001": 35.5911516532,
			"0.0": 35.4260245038,
			"0.001": 47.7397095818,
			"0.002": 22.1683656029,
			"0.003": 10.5668031547,
			"0.004": 11.3318420326,
			"0.005": 6.96736994279,
			"0.006": 2.35262535191,
			"0.007": 3.94906048566,
			"0.008": 3.55177087993,
			"0.009": 4.81929223826,
			"0.01": 5.53190126481,
			"0.011": 5.77517488475,
			"0.012": 4.90574702341,
			"0.013": 1.21535004549,
			"0.014": 0.0,
			"0.015": 0.0,
			"0.016": 0.0,
			"0.017": 0.0,
			"0.018": 0.0,
			"0.019": 0.0,
			"0.02": 0.0,
			"0.021": 0.0,
			"0.022": 0.0,
			"0.023": 0.0,
			"0.024": 0.0,
			"0.025": 0.0
		}
	}
}
