{
	 "smiles": "OC(=O)CC1=CNC2=C1C=CC=C2", 
	 "Tm": 442.15, 
	 "num_atms": 22, 
	 "gaussian": { 
		 "optdone": 1, 
		 "sigma_profile": "yes", 
		 "theory": "DFT", 
		 "functional": "B3LYP", 
		 "basiset": "6-31G**", 
		 "properties": { 
			 "R2extent": 3125.9044, 
			 "electric_dipole_moment_norm": 2.28831614512, 
			 "electric_quadrupole_moment_norm": 14.4772820857, 
			 "total_energy": -591.70659312, 
			 "HOMO_LUMO_gap": 0.19388, 
			 "cosmo_polarized_energy": -16.35, 
			 "cosmo_cavitation_energy": 26.7, 
			 "cosmo_dispersion_energy": -19.25, 
			 "cosmo_repulsion_energy": 1.54, 
			 "cosmo_total_nonelectrostatic_energy": 8.99, 
			 "SMD_solvation_energy": 5.55 
		},
		"coords": [
			{
				"x": 1.3356347999,
				"y": 1.4913395023,
				"z": 3.9023635023,
				"element": "O" 
			},
			{
				"x": 0.870884843,
				"y": 0.3618791498,
				"z": 3.3060085434,
				"element": "C" 
			},
			{
				"x": 1.2096521333,
				"y": -0.7440862882,
				"z": 3.6560676248,
				"element": "O" 
			},
			{
				"x": -0.1177844281,
				"y": 0.7095255187,
				"z": 2.2005744725,
				"element": "C" 
			},
			{
				"x": -0.4738849788,
				"y": -0.4320691611,
				"z": 1.3023514336,
				"element": "C" 
			},
			{
				"x": -1.6559084853,
				"y": -1.1278342879,
				"z": 1.2944539118,
				"element": "C" 
			},
			{
				"x": -1.6252396661,
				"y": -2.100074883,
				"z": 0.3133844607,
				"element": "N" 
			},
			{
				"x": -0.4082995813,
				"y": -2.0508307406,
				"z": -0.3366491139,
				"element": "C" 
			},
			{
				"x": 0.3458530759,
				"y": -1.0051886011,
				"z": 0.2632976471,
				"element": "C" 
			},
			{
				"x": 1.6377309128,
				"y": -0.7377261839,
				"z": -0.221290637,
				"element": "C" 
			},
			{
				"x": 2.1363652542,
				"y": -1.4992284822,
				"z": -1.2707607058,
				"element": "C" 
			},
			{
				"x": 1.3699211145,
				"y": -2.5314505974,
				"z": -1.8498654447,
				"element": "C" 
			},
			{
				"x": 0.0894653502,
				"y": -2.821588553,
				"z": -1.392406433,
				"element": "C" 
			},
			{
				"x": 1.9334739548,
				"y": 1.1926802285,
				"z": 4.6079787746,
				"element": "H" 
			},
			{
				"x": -1.0118150197,
				"y": 1.106854999,
				"z": 2.6977740006,
				"element": "H" 
			},
			{
				"x": 0.3005245035,
				"y": 1.5534866424,
				"z": 1.6385311647,
				"element": "H" 
			},
			{
				"x": -2.5291270501,
				"y": -1.0056892103,
				"z": 1.9203643602,
				"element": "H" 
			},
			{
				"x": -2.3661676445,
				"y": -2.7528252727,
				"z": 0.1186799329,
				"element": "H" 
			},
			{
				"x": 2.2414449137,
				"y": 0.0507147887,
				"z": 0.2200444563,
				"element": "H" 
			},
			{
				"x": 3.134003615,
				"y": -1.3013965077,
				"z": -1.6516789003,
				"element": "H" 
			},
			{
				"x": 1.7875090444,
				"y": -3.1113835294,
				"z": -2.6677320623,
				"element": "H" 
			},
			{
				"x": -0.5004366613,
				"y": -3.6175085305,
				"z": -1.8385909885,
				"element": "H" 
			}
		],
		 "valence_orbital": [ 
			{
				"type": "occ",
				"energy": -0.31384,
				"method": "rhf"
			},
			{
				"type": "occ",
				"energy": -0.27256,
				"method": "rhf"
			},
			{
				"type": "occ",
				"energy": -0.26623,
				"method": "rhf"
			},
			{
				"type": "occ",
				"energy": -0.21727,
				"method": "rhf"
			},
			{
				"type": "occ",
				"energy": -0.19961,
				"method": "rhf"
			},
			{
				"type": "unocc",
				"energy": -0.00573,
				"method": "rhf"
			},
			{
				"type": "unocc",
				"energy": 0.01464,
				"method": "rhf"
			},
			{
				"type": "unocc",
				"energy": 0.03219,
				"method": "rhf"
			},
			{
				"type": "unocc",
				"energy": 0.06648,
				"method": "rhf"
			},
			{
				"type": "unocc",
				"energy": 0.07885,
				"method": "rhf"
			}
		],
		"cosmo_sigma_profile": { 
			"-0.025": 0.0,
			"-0.024": 0.0,
			"-0.023": 0.0,
			"-0.022": 0.0,
			"-0.021": 0.0,
			"-0.02": 0.0,
			"-0.019": 0.0,
			"-0.018": 0.488064209856,
			"-0.017": 1.02234111472,
			"-0.016": 0.736467252169,
			"-0.015": 2.71813539004,
			"-0.014": 2.03746411344,
			"-0.013": 2.71480915089,
			"-0.012": 1.44717721154,
			"-0.011": 1.5173573211,
			"-0.01": 1.8949607072,
			"-0.009": 1.95434814662,
			"-0.008": 3.90089925225,
			"-0.007": 6.67232968852,
			"-0.006": 10.9236602861,
			"-0.005": 15.0838112567,
			"-0.004": 13.3581007001,
			"-0.003": 13.6632774765,
			"-0.002": 13.3738358076,
			"-0.001": 9.39085730589,
			"0.0": 10.5528720317,
			"0.001": 8.81558655675,
			"0.002": 7.85820170435,
			"0.003": 9.8016737075,
			"0.004": 11.828772222,
			"0.005": 15.0510922623,
			"0.006": 12.1781769584,
			"0.007": 11.1462753971,
			"0.008": 4.66987373561,
			"0.009": 3.58758159538,
			"0.01": 3.60096256228,
			"0.011": 3.71191555079,
			"0.012": 5.15333576966,
			"0.013": 1.70617216696,
			"0.014": 0.153498102958,
			"0.015": 0.0,
			"0.016": 0.0,
			"0.017": 0.0,
			"0.018": 0.0,
			"0.019": 0.0,
			"0.02": 0.0,
			"0.021": 0.0,
			"0.022": 0.0,
			"0.023": 0.0,
			"0.024": 0.0,
			"0.025": 0.0
		}
	}
}
