{
	 "smiles": "NC1=CC=C(NCCCC(O)=O)C=C1", 
	 "Tm": 422.15, 
	 "num_atms": 28, 
	 "gaussian": { 
		 "optdone": 1, 
		 "sigma_profile": "yes", 
		 "theory": "DFT", 
		 "functional": "B3LYP", 
		 "basiset": "6-31G**", 
		 "properties": { 
			 "R2extent": 4320.563, 
			 "electric_dipole_moment_norm": 2.26755853067, 
			 "electric_quadrupole_moment_norm": 18.4152190549, 
			 "total_energy": -649.465563624, 
			 "HOMO_LUMO_gap": 0.19076, 
			 "cosmo_polarized_energy": -17.3, 
			 "cosmo_cavitation_energy": 31.85, 
			 "cosmo_dispersion_energy": -22.39, 
			 "cosmo_repulsion_energy": 1.82, 
			 "cosmo_total_nonelectrostatic_energy": 11.28, 
			 "SMD_solvation_energy": 4.94 
		},
		"coords": [
			{
				"x": 0.5136590952,
				"y": -0.1694133858,
				"z": -5.0909953207,
				"element": "N" 
			},
			{
				"x": -0.0562548091,
				"y": -0.1030683203,
				"z": -3.8129130532,
				"element": "C" 
			},
			{
				"x": -1.2923385245,
				"y": -0.7106864361,
				"z": -3.5411979651,
				"element": "C" 
			},
			{
				"x": -1.8757175902,
				"y": -0.6010608951,
				"z": -2.2810075328,
				"element": "C" 
			},
			{
				"x": -1.26727366,
				"y": 0.1360258394,
				"z": -1.2550999414,
				"element": "C" 
			},
			{
				"x": -1.8790908957,
				"y": 0.2849644699,
				"z": 0.0290763736,
				"element": "N" 
			},
			{
				"x": -1.4196610172,
				"y": -0.6261165085,
				"z": 1.0938704146,
				"element": "C" 
			},
			{
				"x": -0.0901013807,
				"y": -0.191728451,
				"z": 1.7184526893,
				"element": "C" 
			},
			{
				"x": 0.3111573353,
				"y": -1.0579528706,
				"z": 2.9293878155,
				"element": "C" 
			},
			{
				"x": 0.5594003376,
				"y": -2.5086263721,
				"z": 2.5766800501,
				"element": "C" 
			},
			{
				"x": 1.6023288729,
				"y": -2.645246579,
				"z": 1.7174510104,
				"element": "O" 
			},
			{
				"x": -0.069552694,
				"y": -3.4601546799,
				"z": 2.9854511554,
				"element": "O" 
			},
			{
				"x": -0.0445663442,
				"y": 0.7612664343,
				"z": -1.5386276596,
				"element": "C" 
			},
			{
				"x": 0.5587978058,
				"y": 0.6332308864,
				"z": -2.7865655634,
				"element": "C" 
			},
			{
				"x": 1.5173738434,
				"y": -0.0481303623,
				"z": -5.1102882937,
				"element": "H" 
			},
			{
				"x": 0.2318104199,
				"y": -0.9733417893,
				"z": -5.6358701315,
				"element": "H" 
			},
			{
				"x": -1.795200854,
				"y": -1.2768741801,
				"z": -4.3218639124,
				"element": "H" 
			},
			{
				"x": -2.8246089221,
				"y": -1.0982329391,
				"z": -2.0901602026,
				"element": "H" 
			},
			{
				"x": -2.8834883681,
				"y": 0.178009204,
				"z": -0.0707740716,
				"element": "H" 
			},
			{
				"x": -2.1914479184,
				"y": -0.6182629122,
				"z": 1.8731061739,
				"element": "H" 
			},
			{
				"x": -1.3376325644,
				"y": -1.6675915716,
				"z": 0.7375436053,
				"element": "H" 
			},
			{
				"x": -0.1799181219,
				"y": 0.8513152336,
				"z": 2.0412239301,
				"element": "H" 
			},
			{
				"x": 0.7073998644,
				"y": -0.2329380934,
				"z": 0.9707215091,
				"element": "H" 
			},
			{
				"x": -0.4652175129,
				"y": -1.0438833773,
				"z": 3.6986805912,
				"element": "H" 
			},
			{
				"x": 1.2326013653,
				"y": -0.6565123273,
				"z": 3.3664849333,
				"element": "H" 
			},
			{
				"x": 1.6762951988,
				"y": -3.5972613402,
				"z": 1.5365444019,
				"element": "H" 
			},
			{
				"x": 0.4234924437,
				"y": 1.3736756111,
				"z": -0.7747960618,
				"element": "H" 
			},
			{
				"x": 1.505654595,
				"y": 1.1319957122,
				"z": -2.9801149438,
				"element": "H" 
			}
		],
		 "valence_orbital": [ 
			{
				"type": "occ",
				"energy": -0.30265,
				"method": "rhf"
			},
			{
				"type": "occ",
				"energy": -0.26833,
				"method": "rhf"
			},
			{
				"type": "occ",
				"energy": -0.24373,
				"method": "rhf"
			},
			{
				"type": "occ",
				"energy": -0.23739,
				"method": "rhf"
			},
			{
				"type": "occ",
				"energy": -0.18677,
				"method": "rhf"
			},
			{
				"type": "unocc",
				"energy": 0.00399,
				"method": "rhf"
			},
			{
				"type": "unocc",
				"energy": 0.01102,
				"method": "rhf"
			},
			{
				"type": "unocc",
				"energy": 0.02336,
				"method": "rhf"
			},
			{
				"type": "unocc",
				"energy": 0.07636,
				"method": "rhf"
			},
			{
				"type": "unocc",
				"energy": 0.08308,
				"method": "rhf"
			}
		],
		"cosmo_sigma_profile": { 
			"-0.025": 0.0,
			"-0.024": 0.0,
			"-0.023": 0.0,
			"-0.022": 0.0,
			"-0.021": 0.0,
			"-0.02": 0.0,
			"-0.019": 0.0,
			"-0.018": 0.4343593014,
			"-0.017": 0.980872026623,
			"-0.016": 0.761693750893,
			"-0.015": 0.662683317862,
			"-0.014": 0.825650895027,
			"-0.013": 0.79043294098,
			"-0.012": 2.15982812183,
			"-0.011": 4.16092318762,
			"-0.01": 4.81152294236,
			"-0.009": 4.83542151653,
			"-0.008": 4.99012962267,
			"-0.007": 5.64341549662,
			"-0.006": 9.79429440731,
			"-0.005": 13.5076357657,
			"-0.004": 18.0967227207,
			"-0.003": 21.6276622601,
			"-0.002": 22.3942668323,
			"-0.001": 17.1481548133,
			"0.0": 12.498974648,
			"0.001": 10.7612522483,
			"0.002": 10.1460287572,
			"0.003": 8.60425972225,
			"0.004": 9.42353257338,
			"0.005": 10.4709656029,
			"0.006": 11.2838909188,
			"0.007": 12.1272482896,
			"0.008": 5.41182139284,
			"0.009": 4.78899678277,
			"0.01": 4.19833052273,
			"0.011": 4.20504173834,
			"0.012": 6.53767919285,
			"0.013": 2.77853809627,
			"0.014": 1.05948883696,
			"0.015": 1.09226525071,
			"0.016": 0.673988454249,
			"0.017": 0.0,
			"0.018": 0.0,
			"0.019": 0.0,
			"0.02": 0.0,
			"0.021": 0.0,
			"0.022": 0.0,
			"0.023": 0.0,
			"0.024": 0.0,
			"0.025": 0.0
		}
	}
}
