{
	 "smiles": "NC1=NN=C(S1)C1=CSC=C1", 
	 "Tm": 485.15, 
	 "num_atms": 16, 
	 "gaussian": { 
		 "optdone": 1, 
		 "sigma_profile": "yes", 
		 "theory": "DFT", 
		 "functional": "B3LYP", 
		 "basiset": "6-31G**", 
		 "properties": { 
			 "R2extent": 3014.5141, 
			 "electric_dipole_moment_norm": 3.39981172126, 
			 "electric_quadrupole_moment_norm": 14.9464242888, 
			 "total_energy": -1192.23792933, 
			 "HOMO_LUMO_gap": 0.16981, 
			 "cosmo_polarized_energy": -14.71, 
			 "cosmo_cavitation_energy": 24.14, 
			 "cosmo_dispersion_energy": -19.29, 
			 "cosmo_repulsion_energy": 1.44, 
			 "cosmo_total_nonelectrostatic_energy": 6.29, 
			 "SMD_solvation_energy": 2.23 
		},
		"coords": [
			{
				"x": 1.4135207601,
				"y": 0.4831504657,
				"z": 3.8150653335,
				"element": "N" 
			},
			{
				"x": 1.1121531863,
				"y": 0.2902080838,
				"z": 2.4877737262,
				"element": "C" 
			},
			{
				"x": 0.4900522454,
				"y": -0.7678133104,
				"z": 2.0388742658,
				"element": "N" 
			},
			{
				"x": 0.2224299694,
				"y": -0.6961925706,
				"z": 0.7031775092,
				"element": "N" 
			},
			{
				"x": 0.6447313335,
				"y": 0.391490772,
				"z": 0.1260099279,
				"element": "C" 
			},
			{
				"x": 1.4399336216,
				"y": 1.5084409105,
				"z": 1.2597069711,
				"element": "S" 
			},
			{
				"x": 0.4992501054,
				"y": 0.6831535614,
				"z": -1.2966065298,
				"element": "C" 
			},
			{
				"x": -0.09428107,
				"y": -0.1937996698,
				"z": -2.1775692334,
				"element": "C" 
			},
			{
				"x": -0.1206651395,
				"y": 0.4303766979,
				"z": -3.784844431,
				"element": "S" 
			},
			{
				"x": 0.6741241179,
				"y": 1.8905627168,
				"z": -3.2873786111,
				"element": "C" 
			},
			{
				"x": 0.9396415958,
				"y": 1.8850477074,
				"z": -1.9489013114,
				"element": "C" 
			},
			{
				"x": 2.2665415669,
				"y": 0.9831216524,
				"z": 4.0216101514,
				"element": "H" 
			},
			{
				"x": 1.290698432,
				"y": -0.3588778905,
				"z": 4.3639166033,
				"element": "H" 
			},
			{
				"x": -0.5087093246,
				"y": -1.1636298763,
				"z": -1.9447412118,
				"element": "H" 
			},
			{
				"x": 0.8958133736,
				"y": 2.6635806818,
				"z": -4.0094555613,
				"element": "H" 
			},
			{
				"x": 1.4303652263,
				"y": 2.7063800679,
				"z": -1.4387375986,
				"element": "H" 
			}
		],
		 "valence_orbital": [ 
			{
				"type": "occ",
				"energy": -0.29456,
				"method": "rhf"
			},
			{
				"type": "occ",
				"energy": -0.26908,
				"method": "rhf"
			},
			{
				"type": "occ",
				"energy": -0.25715,
				"method": "rhf"
			},
			{
				"type": "occ",
				"energy": -0.25024,
				"method": "rhf"
			},
			{
				"type": "occ",
				"energy": -0.21394,
				"method": "rhf"
			},
			{
				"type": "unocc",
				"energy": -0.04413,
				"method": "rhf"
			},
			{
				"type": "unocc",
				"energy": -0.00735,
				"method": "rhf"
			},
			{
				"type": "unocc",
				"energy": -0.00455,
				"method": "rhf"
			},
			{
				"type": "unocc",
				"energy": 0.03085,
				"method": "rhf"
			},
			{
				"type": "unocc",
				"energy": 0.03812,
				"method": "rhf"
			}
		],
		"cosmo_sigma_profile": { 
			"-0.025": 0.0,
			"-0.024": 0.0,
			"-0.023": 0.0,
			"-0.022": 0.0,
			"-0.021": 0.0,
			"-0.02": 0.0,
			"-0.019": 0.0,
			"-0.018": 0.0,
			"-0.017": 0.0,
			"-0.016": 0.0367407221225,
			"-0.015": 1.10178177063,
			"-0.014": 2.7382259272,
			"-0.013": 2.55085049139,
			"-0.012": 2.84445430744,
			"-0.011": 2.82053954338,
			"-0.01": 2.45918917801,
			"-0.009": 3.29322184076,
			"-0.008": 5.62263696092,
			"-0.007": 7.82362098242,
			"-0.006": 6.73696094737,
			"-0.005": 7.41543233317,
			"-0.004": 6.88793247138,
			"-0.003": 7.81051566513,
			"-0.002": 10.0301859341,
			"-0.001": 12.6240148818,
			"0.0": 14.4940512905,
			"0.001": 17.2832220788,
			"0.002": 17.4280325674,
			"0.003": 23.0693840311,
			"0.004": 12.9174154557,
			"0.005": 4.6186783304,
			"0.006": 2.47809110079,
			"0.007": 3.00427966169,
			"0.008": 2.15397283375,
			"0.009": 2.94188464424,
			"0.01": 3.41518046924,
			"0.011": 2.85886707854,
			"0.012": 3.78643814477,
			"0.013": 2.46567469995,
			"0.014": 1.91791375892,
			"0.015": 1.0303956591,
			"0.016": 0.135225500942,
			"0.017": 0.0,
			"0.018": 0.0,
			"0.019": 0.0,
			"0.02": 0.0,
			"0.021": 0.0,
			"0.022": 0.0,
			"0.023": 0.0,
			"0.024": 0.0,
			"0.025": 0.0
		}
	}
}
