{
	 "smiles": "COC1=C(C=CC(C=O)=C1)[N+]([O-])=O", 
	 "Tm": 363.15, 
	 "num_atms": 20, 
	 "gaussian": { 
		 "optdone": 1, 
		 "sigma_profile": "yes", 
		 "theory": "DFT", 
		 "functional": "B3LYP", 
		 "basiset": "6-31G**", 
		 "properties": { 
			 "R2extent": 2603.923, 
			 "electric_dipole_moment_norm": 2.5160980426, 
			 "electric_quadrupole_moment_norm": 23.37176031, 
			 "total_energy": -664.58336635, 
			 "HOMO_LUMO_gap": 0.15482, 
			 "cosmo_polarized_energy": -13.62, 
			 "cosmo_cavitation_energy": 25.78, 
			 "cosmo_dispersion_energy": -18.51, 
			 "cosmo_repulsion_energy": 1.46, 
			 "cosmo_total_nonelectrostatic_energy": 8.74, 
			 "SMD_solvation_energy": 8.69 
		},
		"coords": [
			{
				"x": -0.9858582628,
				"y": -2.5563730686,
				"z": -2.0924450865,
				"element": "C" 
			},
			{
				"x": 0.0163507559,
				"y": -2.046204252,
				"z": -1.2154663588,
				"element": "O" 
			},
			{
				"x": -0.1939006548,
				"y": -0.860974032,
				"z": -0.6152580649,
				"element": "C" 
			},
			{
				"x": 0.7826273955,
				"y": -0.3788543719,
				"z": 0.2939433013,
				"element": "C" 
			},
			{
				"x": 0.6041208001,
				"y": 0.8107701712,
				"z": 0.9961246768,
				"element": "C" 
			},
			{
				"x": -0.5382129939,
				"y": 1.5763214661,
				"z": 0.7914882623,
				"element": "C" 
			},
			{
				"x": -1.5076201361,
				"y": 1.1243923206,
				"z": -0.1095041778,
				"element": "C" 
			},
			{
				"x": -2.7384120369,
				"y": 1.924801067,
				"z": -0.3395494241,
				"element": "C" 
			},
			{
				"x": -3.6300594492,
				"y": 1.6021232123,
				"z": -1.0993418713,
				"element": "O" 
			},
			{
				"x": -1.3419494411,
				"y": -0.0824248648,
				"z": -0.7977176137,
				"element": "C" 
			},
			{
				"x": 2.0386199017,
				"y": -1.105725843,
				"z": 0.5356422659,
				"element": "N" 
			},
			{
				"x": 2.5401982213,
				"y": -0.9871430016,
				"z": 1.655597141,
				"element": "O" 
			},
			{
				"x": 2.5219150493,
				"y": -1.7516231526,
				"z": -0.3881328074,
				"element": "O" 
			},
			{
				"x": -1.9352275034,
				"y": -2.712880986,
				"z": -1.5673054417,
				"element": "H" 
			},
			{
				"x": -0.6012823154,
				"y": -3.5128774842,
				"z": -2.4456824988,
				"element": "H" 
			},
			{
				"x": -1.145052134,
				"y": -1.8885685533,
				"z": -2.9466293881,
				"element": "H" 
			},
			{
				"x": 1.3759615284,
				"y": 1.1113356581,
				"z": 1.6939903444,
				"element": "H" 
			},
			{
				"x": -0.6768966591,
				"y": 2.5119979375,
				"z": 1.3248693414,
				"element": "H" 
			},
			{
				"x": -2.7950956433,
				"y": 2.867986239,
				"z": 0.2454245245,
				"element": "H" 
			},
			{
				"x": -2.1327264224,
				"y": -0.3888784616,
				"z": -1.4710471244,
				"element": "H" 
			}
		],
		 "valence_orbital": [ 
			{
				"type": "occ",
				"energy": -0.30747,
				"method": "rhf"
			},
			{
				"type": "occ",
				"energy": -0.29881,
				"method": "rhf"
			},
			{
				"type": "occ",
				"energy": -0.28059,
				"method": "rhf"
			},
			{
				"type": "occ",
				"energy": -0.27486,
				"method": "rhf"
			},
			{
				"type": "occ",
				"energy": -0.2577,
				"method": "rhf"
			},
			{
				"type": "unocc",
				"energy": -0.10288,
				"method": "rhf"
			},
			{
				"type": "unocc",
				"energy": -0.05266,
				"method": "rhf"
			},
			{
				"type": "unocc",
				"energy": -0.02586,
				"method": "rhf"
			},
			{
				"type": "unocc",
				"energy": 0.02663,
				"method": "rhf"
			},
			{
				"type": "unocc",
				"energy": 0.07064,
				"method": "rhf"
			}
		],
		"cosmo_sigma_profile": { 
			"-0.025": 0.0,
			"-0.024": 0.0,
			"-0.023": 0.0,
			"-0.022": 0.0,
			"-0.021": 0.0,
			"-0.02": 0.0,
			"-0.019": 0.0,
			"-0.018": 0.0,
			"-0.017": 0.0,
			"-0.016": 0.0,
			"-0.015": 0.0,
			"-0.014": 0.0,
			"-0.013": 0.0,
			"-0.012": 0.0,
			"-0.011": 0.0,
			"-0.01": 0.0354629559265,
			"-0.009": 1.81528206213,
			"-0.008": 6.33616674783,
			"-0.007": 15.1417723852,
			"-0.006": 16.5998319769,
			"-0.005": 16.0976326009,
			"-0.004": 15.3974700393,
			"-0.003": 11.936379053,
			"-0.002": 11.889506661,
			"-0.001": 15.3045680639,
			"0.0": 15.0818908265,
			"0.001": 12.9301203831,
			"0.002": 5.40498240037,
			"0.003": 4.93430298675,
			"0.004": 4.98761733187,
			"0.005": 4.88270405948,
			"0.006": 5.09679522843,
			"0.007": 9.01839752071,
			"0.008": 12.6940806783,
			"0.009": 7.87079957771,
			"0.01": 7.52427109403,
			"0.011": 4.41127381127,
			"0.012": 1.35809496546,
			"0.013": 0.0388545518341,
			"0.014": 0.0,
			"0.015": 0.0,
			"0.016": 0.0,
			"0.017": 0.0,
			"0.018": 0.0,
			"0.019": 0.0,
			"0.02": 0.0,
			"0.021": 0.0,
			"0.022": 0.0,
			"0.023": 0.0,
			"0.024": 0.0,
			"0.025": 0.0
		}
	}
}
