{
	 "smiles": "NC(=O)C1=CC(=C(Br)C=C1)C(F)(F)F", 
	 "Tm": 412.15, 
	 "num_atms": 19, 
	 "gaussian": { 
		 "optdone": 1, 
		 "sigma_profile": "yes", 
		 "theory": "DFT", 
		 "functional": "B3LYP", 
		 "basiset": "6-31G**", 
		 "properties": { 
			 "R2extent": 4967.3384, 
			 "electric_dipole_moment_norm": 5.14339131119, 
			 "electric_quadrupole_moment_norm": 11.3079968885, 
			 "total_energy": -3308.78455484, 
			 "HOMO_LUMO_gap": 0.19662, 
			 "cosmo_polarized_energy": -13.76, 
			 "cosmo_cavitation_energy": 27.35, 
			 "cosmo_dispersion_energy": -20.03, 
			 "cosmo_repulsion_energy": 1.52, 
			 "cosmo_total_nonelectrostatic_energy": 8.84, 
			 "SMD_solvation_energy": 5.56 
		},
		"coords": [
			{
				"x": 3.8258306075,
				"y": -0.6905402738,
				"z": -0.0002340405,
				"element": "N" 
			},
			{
				"x": 2.9195769925,
				"y": 0.111842564,
				"z": -0.6495005989,
				"element": "C" 
			},
			{
				"x": 3.2173151313,
				"y": 1.2212390008,
				"z": -1.0714423006,
				"element": "O" 
			},
			{
				"x": 1.5417790308,
				"y": -0.4605619939,
				"z": -0.8424733643,
				"element": "C" 
			},
			{
				"x": 0.5196280571,
				"y": 0.4351733363,
				"z": -1.1706913884,
				"element": "C" 
			},
			{
				"x": -0.791246566,
				"y": 0.0037683559,
				"z": -1.3694055221,
				"element": "C" 
			},
			{
				"x": -1.0746679037,
				"y": -1.3669581554,
				"z": -1.249407593,
				"element": "C" 
			},
			{
				"x": -2.8283247994,
				"y": -2.0676040781,
				"z": -1.4996722217,
				"element": "Br" 
			},
			{
				"x": -0.0608304126,
				"y": -2.2740148653,
				"z": -0.9440762275,
				"element": "C" 
			},
			{
				"x": 1.2414176316,
				"y": -1.8228126499,
				"z": -0.7410588326,
				"element": "C" 
			},
			{
				"x": -1.8555987264,
				"y": 1.0254712696,
				"z": -1.7084462807,
				"element": "C" 
			},
			{
				"x": -2.8374467006,
				"y": 1.0475350455,
				"z": -0.7836568279,
				"element": "F" 
			},
			{
				"x": -2.4284157773,
				"y": 0.7728170919,
				"z": -2.9024706914,
				"element": "F" 
			},
			{
				"x": -1.3388549181,
				"y": 2.2703369221,
				"z": -1.7695316837,
				"element": "F" 
			},
			{
				"x": 4.7091256125,
				"y": -0.2520826639,
				"z": 0.2188139711,
				"element": "H" 
			},
			{
				"x": 3.5139770853,
				"y": -1.4185750941,
				"z": 0.6233506364,
				"element": "H" 
			},
			{
				"x": 0.7699545042,
				"y": 1.4839265527,
				"z": -1.2714832829,
				"element": "H" 
			},
			{
				"x": -0.2948021266,
				"y": -3.3297462278,
				"z": -0.8734152693,
				"element": "H" 
			},
			{
				"x": 2.0210832779,
				"y": -2.5502141366,
				"z": -0.5364984818,
				"element": "H" 
			}
		],
		 "valence_orbital": [ 
			{
				"type": "occ",
				"energy": -0.29916,
				"method": "rhf"
			},
			{
				"type": "occ",
				"energy": -0.29054,
				"method": "rhf"
			},
			{
				"type": "occ",
				"energy": -0.28541,
				"method": "rhf"
			},
			{
				"type": "occ",
				"energy": -0.26798,
				"method": "rhf"
			},
			{
				"type": "occ",
				"energy": -0.26004,
				"method": "rhf"
			},
			{
				"type": "unocc",
				"energy": -0.06342,
				"method": "rhf"
			},
			{
				"type": "unocc",
				"energy": -0.04071,
				"method": "rhf"
			},
			{
				"type": "unocc",
				"energy": -0.00821,
				"method": "rhf"
			},
			{
				"type": "unocc",
				"energy": 0.03179,
				"method": "rhf"
			},
			{
				"type": "unocc",
				"energy": 0.06601,
				"method": "rhf"
			}
		],
		"cosmo_sigma_profile": { 
			"-0.025": 0.0,
			"-0.024": 0.0,
			"-0.023": 0.0,
			"-0.022": 0.0,
			"-0.021": 0.0,
			"-0.02": 0.0,
			"-0.019": 0.0,
			"-0.018": 0.0,
			"-0.017": 0.0,
			"-0.016": 0.00129078714809,
			"-0.015": 0.64374299823,
			"-0.014": 2.29536744876,
			"-0.013": 2.62189155264,
			"-0.012": 2.10257124194,
			"-0.011": 3.30720108058,
			"-0.01": 2.87161515494,
			"-0.009": 3.24381422765,
			"-0.008": 4.4659456329,
			"-0.007": 4.58501540399,
			"-0.006": 5.15851129223,
			"-0.005": 5.88156326114,
			"-0.004": 8.12751501994,
			"-0.003": 11.082743584,
			"-0.002": 12.433002601,
			"-0.001": 16.371313379,
			"0.0": 25.4888927701,
			"0.001": 20.9217019737,
			"0.002": 28.2658385574,
			"0.003": 29.16961309,
			"0.004": 12.1618066725,
			"0.005": 2.51667868526,
			"0.006": 1.8473749658,
			"0.007": 1.75644334968,
			"0.008": 1.2678295899,
			"0.009": 1.46787241846,
			"0.01": 1.48297716493,
			"0.011": 1.81161838625,
			"0.012": 2.92011626166,
			"0.013": 5.00765219792,
			"0.014": 1.38647249959,
			"0.015": 0.00247977574196,
			"0.016": 0.0,
			"0.017": 0.0,
			"0.018": 0.0,
			"0.019": 0.0,
			"0.02": 0.0,
			"0.021": 0.0,
			"0.022": 0.0,
			"0.023": 0.0,
			"0.024": 0.0,
			"0.025": 0.0
		}
	}
}
