{
	 "smiles": "COC1=CC=C(CN)C=C1", 
	 "Tm": 263.15, 
	 "num_atms": 21, 
	 "gaussian": { 
		 "optdone": 1, 
		 "sigma_profile": "yes", 
		 "theory": "DFT", 
		 "functional": "B3LYP", 
		 "basiset": "6-31G**", 
		 "properties": { 
			 "R2extent": 2149.2032, 
			 "electric_dipole_moment_norm": 2.28121262928, 
			 "electric_quadrupole_moment_norm": 7.002109023, 
			 "total_energy": -441.439654608, 
			 "HOMO_LUMO_gap": 0.20866, 
			 "cosmo_polarized_energy": -8.94, 
			 "cosmo_cavitation_energy": 24.28, 
			 "cosmo_dispersion_energy": -17.82, 
			 "cosmo_repulsion_energy": 1.46, 
			 "cosmo_total_nonelectrostatic_energy": 7.92, 
			 "SMD_solvation_energy": 3.45 
		},
		"coords": [
			{
				"x": 4.3212250389,
				"y": 0.144549221,
				"z": -0.8673136953,
				"element": "C" 
			},
			{
				"x": 3.3997322094,
				"y": -0.9320566131,
				"z": -0.909254748,
				"element": "O" 
			},
			{
				"x": 2.1228435436,
				"y": -0.7056339872,
				"z": -0.4790784902,
				"element": "C" 
			},
			{
				"x": 1.2526902467,
				"y": -1.8043550641,
				"z": -0.5497231008,
				"element": "C" 
			},
			{
				"x": -0.0670994338,
				"y": -1.6739826574,
				"z": -0.1377456222,
				"element": "C" 
			},
			{
				"x": -0.5642270762,
				"y": -0.4565725309,
				"z": 0.3576773182,
				"element": "C" 
			},
			{
				"x": -1.9907715524,
				"y": -0.3419514048,
				"z": 0.864047419,
				"element": "C" 
			},
			{
				"x": -2.2092644223,
				"y": -0.742050107,
				"z": 2.2661817377,
				"element": "N" 
			},
			{
				"x": 0.3159215851,
				"y": 0.6271609763,
				"z": 0.4142616253,
				"element": "C" 
			},
			{
				"x": 1.64877172,
				"y": 0.5186565614,
				"z": 0.0046890019,
				"element": "C" 
			},
			{
				"x": 5.2647152794,
				"y": -0.2499330838,
				"z": -1.2480924537,
				"element": "H" 
			},
			{
				"x": 4.4716775905,
				"y": 0.5112342011,
				"z": 0.156600484,
				"element": "H" 
			},
			{
				"x": 3.9986731716,
				"y": 0.9806025292,
				"z": -1.5016676364,
				"element": "H" 
			},
			{
				"x": 1.6352990002,
				"y": -2.7430278641,
				"z": -0.9376122651,
				"element": "H" 
			},
			{
				"x": -0.7303217904,
				"y": -2.5339565931,
				"z": -0.207198585,
				"element": "H" 
			},
			{
				"x": -2.6543429268,
				"y": -0.9547590501,
				"z": 0.2426086466,
				"element": "H" 
			},
			{
				"x": -2.335287221,
				"y": 0.6934693435,
				"z": 0.7601288389,
				"element": "H" 
			},
			{
				"x": -1.5928601301,
				"y": -0.1943807165,
				"z": 2.8644834187,
				"element": "H" 
			},
			{
				"x": -1.9084023347,
				"y": -1.7079890876,
				"z": 2.3853505455,
				"element": "H" 
			},
			{
				"x": -0.0419143372,
				"y": 1.5868114627,
				"z": 0.7818577534,
				"element": "H" 
			},
			{
				"x": 2.2961418396,
				"y": 1.3859644645,
				"z": 0.0610998077,
				"element": "H" 
			}
		],
		 "valence_orbital": [ 
			{
				"type": "occ",
				"energy": -0.32292,
				"method": "rhf"
			},
			{
				"type": "occ",
				"energy": -0.31371,
				"method": "rhf"
			},
			{
				"type": "occ",
				"energy": -0.24987,
				"method": "rhf"
			},
			{
				"type": "occ",
				"energy": -0.23851,
				"method": "rhf"
			},
			{
				"type": "occ",
				"energy": -0.2101,
				"method": "rhf"
			},
			{
				"type": "unocc",
				"energy": -0.00144,
				"method": "rhf"
			},
			{
				"type": "unocc",
				"energy": 0.01153,
				"method": "rhf"
			},
			{
				"type": "unocc",
				"energy": 0.08792,
				"method": "rhf"
			},
			{
				"type": "unocc",
				"energy": 0.09912,
				"method": "rhf"
			},
			{
				"type": "unocc",
				"energy": 0.11126,
				"method": "rhf"
			}
		],
		"cosmo_sigma_profile": { 
			"-0.025": 0.0,
			"-0.024": 0.0,
			"-0.023": 0.0,
			"-0.022": 0.0,
			"-0.021": 0.0,
			"-0.02": 0.0,
			"-0.019": 0.0,
			"-0.018": 0.0,
			"-0.017": 0.0,
			"-0.016": 0.0,
			"-0.015": 0.0,
			"-0.014": 0.0,
			"-0.013": 0.0,
			"-0.012": 0.0,
			"-0.011": 0.0,
			"-0.01": 0.078265520272,
			"-0.009": 1.84282395792,
			"-0.008": 2.78105955622,
			"-0.007": 2.33397148844,
			"-0.006": 8.1489918219,
			"-0.005": 21.2534896637,
			"-0.004": 21.5536436431,
			"-0.003": 21.6550873471,
			"-0.002": 14.7490890399,
			"-0.001": 11.3856330096,
			"0.0": 10.2906392115,
			"0.001": 8.56580374906,
			"0.002": 7.93161590035,
			"0.003": 9.79661798075,
			"0.004": 11.2295693636,
			"0.005": 10.1071313612,
			"0.006": 10.3701709298,
			"0.007": 3.20332834937,
			"0.008": 1.66896413911,
			"0.009": 2.15665311914,
			"0.01": 2.59915015271,
			"0.011": 1.61023461047,
			"0.012": 0.393805614164,
			"0.013": 0.693015324843,
			"0.014": 1.375115794,
			"0.015": 0.131853951118,
			"0.016": 0.354606839893,
			"0.017": 1.10640590307,
			"0.018": 0.468564575883,
			"0.019": 0.725817402719,
			"0.02": 0.482847307162,
			"0.021": 0.0,
			"0.022": 0.0,
			"0.023": 0.0,
			"0.024": 0.0,
			"0.025": 0.0
		}
	}
}
