{
	 "smiles": "O=CC1=CC=CC2=C1OCCO2", 
	 "Tm": 335.65, 
	 "num_atms": 20, 
	 "gaussian": { 
		 "optdone": 1, 
		 "sigma_profile": "yes", 
		 "theory": "DFT", 
		 "functional": "B3LYP", 
		 "basiset": "6-31G**", 
		 "properties": { 
			 "R2extent": 2237.2501, 
			 "electric_dipole_moment_norm": 4.65352143435, 
			 "electric_quadrupole_moment_norm": 14.4125431954, 
			 "total_energy": -573.420175001, 
			 "HOMO_LUMO_gap": 0.16727, 
			 "cosmo_polarized_energy": -10.21, 
			 "cosmo_cavitation_energy": 23.74, 
			 "cosmo_dispersion_energy": -18.01, 
			 "cosmo_repulsion_energy": 1.42, 
			 "cosmo_total_nonelectrostatic_energy": 7.16, 
			 "SMD_solvation_energy": 5.47 
		},
		"coords": [
			{
				"x": -2.7753649047,
				"y": 0.1310058721,
				"z": -2.8297307319,
				"element": "O" 
			},
			{
				"x": -1.7119019256,
				"y": 0.3514360364,
				"z": -2.2751120278,
				"element": "C" 
			},
			{
				"x": -1.021999427,
				"y": -0.6319279847,
				"z": -1.409056237,
				"element": "C" 
			},
			{
				"x": -1.6094024987,
				"y": -1.8862530555,
				"z": -1.1819129451,
				"element": "C" 
			},
			{
				"x": -0.9906323247,
				"y": -2.816859268,
				"z": -0.3562199824,
				"element": "C" 
			},
			{
				"x": 0.2373376457,
				"y": -2.512711889,
				"z": 0.2382576731,
				"element": "C" 
			},
			{
				"x": 0.8425162194,
				"y": -1.277109907,
				"z": 0.0165596251,
				"element": "C" 
			},
			{
				"x": 0.2090650337,
				"y": -0.3225290019,
				"z": -0.8007997042,
				"element": "C" 
			},
			{
				"x": 0.7682290147,
				"y": 0.9079997489,
				"z": -1.0266706164,
				"element": "O" 
			},
			{
				"x": 1.8162138406,
				"y": 1.2573386532,
				"z": -0.1182914067,
				"element": "C" 
			},
			{
				"x": 2.7587644809,
				"y": 0.0803872564,
				"z": 0.0632567178,
				"element": "C" 
			},
			{
				"x": 2.0526208682,
				"y": -1.0288379747,
				"z": 0.6176108203,
				"element": "O" 
			},
			{
				"x": -1.2002261954,
				"y": 1.3248176757,
				"z": -2.3946792526,
				"element": "H" 
			},
			{
				"x": -2.5582455181,
				"y": -2.0907820525,
				"z": -1.666113047,
				"element": "H" 
			},
			{
				"x": -1.4491352253,
				"y": -3.7839247857,
				"z": -0.1761702707,
				"element": "H" 
			},
			{
				"x": 0.7513017564,
				"y": -3.2244968755,
				"z": 0.8765593035,
				"element": "H" 
			},
			{
				"x": 2.3278896819,
				"y": 2.117669139,
				"z": -0.5561416415,
				"element": "H" 
			},
			{
				"x": 1.3856843918,
				"y": 1.548339538,
				"z": 0.848846003,
				"element": "H" 
			},
			{
				"x": 3.1985814912,
				"y": -0.1999369598,
				"z": -0.9036373507,
				"element": "H" 
			},
			{
				"x": 3.562303595,
				"y": 0.3196758347,
				"z": 0.764145071,
				"element": "H" 
			}
		],
		 "valence_orbital": [ 
			{
				"type": "occ",
				"energy": -0.32539,
				"method": "rhf"
			},
			{
				"type": "occ",
				"energy": -0.31776,
				"method": "rhf"
			},
			{
				"type": "occ",
				"energy": -0.24709,
				"method": "rhf"
			},
			{
				"type": "occ",
				"energy": -0.2438,
				"method": "rhf"
			},
			{
				"type": "occ",
				"energy": -0.22386,
				"method": "rhf"
			},
			{
				"type": "unocc",
				"energy": -0.05659,
				"method": "rhf"
			},
			{
				"type": "unocc",
				"energy": 0.00419,
				"method": "rhf"
			},
			{
				"type": "unocc",
				"energy": 0.04591,
				"method": "rhf"
			},
			{
				"type": "unocc",
				"energy": 0.07041,
				"method": "rhf"
			},
			{
				"type": "unocc",
				"energy": 0.09428,
				"method": "rhf"
			}
		],
		"cosmo_sigma_profile": { 
			"-0.025": 0.0,
			"-0.024": 0.0,
			"-0.023": 0.0,
			"-0.022": 0.0,
			"-0.021": 0.0,
			"-0.02": 0.0,
			"-0.019": 0.0,
			"-0.018": 0.0,
			"-0.017": 0.0,
			"-0.016": 0.0,
			"-0.015": 0.0,
			"-0.014": 0.0,
			"-0.013": 0.0,
			"-0.012": 0.0,
			"-0.011": 0.0,
			"-0.01": 0.0,
			"-0.009": 0.0,
			"-0.008": 1.33554128632,
			"-0.007": 10.3076364549,
			"-0.006": 17.2548363991,
			"-0.005": 16.5746628844,
			"-0.004": 15.8688981044,
			"-0.003": 11.9989073392,
			"-0.002": 10.9485192243,
			"-0.001": 9.34971013446,
			"0.0": 12.1233552105,
			"0.001": 12.2208488184,
			"0.002": 14.7847403399,
			"0.003": 14.0937393049,
			"0.004": 10.384090083,
			"0.005": 6.15665326748,
			"0.006": 3.7865271513,
			"0.007": 3.35196592686,
			"0.008": 3.08394834664,
			"0.009": 3.92953789763,
			"0.01": 3.58804905338,
			"0.011": 3.90092975055,
			"0.012": 3.32809369118,
			"0.013": 1.3460578762,
			"0.014": 0.067302096978,
			"0.015": 0.0,
			"0.016": 0.0,
			"0.017": 0.0,
			"0.018": 0.0,
			"0.019": 0.0,
			"0.02": 0.0,
			"0.021": 0.0,
			"0.022": 0.0,
			"0.023": 0.0,
			"0.024": 0.0,
			"0.025": 0.0
		}
	}
}
