{
	 "smiles": "[O-][N+](=O)C1=CC(Cl)=C(C(Cl)=C1)S(Cl)(=O)=O", 
	 "Tm": 366.15, 
	 "num_atms": 17, 
	 "gaussian": { 
		 "optdone": 1, 
		 "sigma_profile": "yes", 
		 "theory": "DFT", 
		 "functional": "B3LYP", 
		 "basiset": "6-31G**", 
		 "properties": { 
			 "R2extent": 6069.4115, 
			 "electric_dipole_moment_norm": 1.40578469902, 
			 "electric_quadrupole_moment_norm": 16.5031184083, 
			 "total_energy": -2364.04526074, 
			 "HOMO_LUMO_gap": 0.16101, 
			 "cosmo_polarized_energy": -11.19, 
			 "cosmo_cavitation_energy": 29.45, 
			 "cosmo_dispersion_energy": -22.27, 
			 "cosmo_repulsion_energy": 1.68, 
			 "cosmo_total_nonelectrostatic_energy": 8.87, 
			 "SMD_solvation_energy": 5.7 
		},
		"coords": [
			{
				"x": -0.7842679283,
				"y": -1.5303722935,
				"z": -2.8999203403,
				"element": "O" 
			},
			{
				"x": -1.0881984826,
				"y": -1.3809136888,
				"z": -1.7206684534,
				"element": "N" 
			},
			{
				"x": -2.0930056195,
				"y": -1.8280693462,
				"z": -1.1770366921,
				"element": "O" 
			},
			{
				"x": -0.1597594106,
				"y": -0.5906824739,
				"z": -0.8798827744,
				"element": "C" 
			},
			{
				"x": 0.9880472895,
				"y": -0.0747334456,
				"z": -1.4594014259,
				"element": "C" 
			},
			{
				"x": 1.8572746861,
				"y": 0.6709990853,
				"z": -0.6666234541,
				"element": "C" 
			},
			{
				"x": 3.2900193844,
				"y": 1.2490275204,
				"z": -1.4652048049,
				"element": "Cl" 
			},
			{
				"x": 1.576054427,
				"y": 0.9035606585,
				"z": 0.702161582,
				"element": "C" 
			},
			{
				"x": 0.4016098259,
				"y": 0.3415339052,
				"z": 1.2563766275,
				"element": "C" 
			},
			{
				"x": -0.0887135025,
				"y": 0.4911349208,
				"z": 2.9183875044,
				"element": "Cl" 
			},
			{
				"x": -0.4684799453,
				"y": -0.4025636592,
				"z": 0.455677687,
				"element": "C" 
			},
			{
				"x": 2.7081774037,
				"y": 1.9559113703,
				"z": 1.678659977,
				"element": "S" 
			},
			{
				"x": 4.3902263696,
				"y": 0.6756526737,
				"z": 1.8138534217,
				"element": "Cl" 
			},
			{
				"x": 2.2238648823,
				"y": 2.1140657557,
				"z": 3.0363459154,
				"element": "O" 
			},
			{
				"x": 3.0748794896,
				"y": 3.1039285297,
				"z": 0.8671598366,
				"element": "O" 
			},
			{
				"x": 1.2013355989,
				"y": -0.2516322804,
				"z": -2.5049317603,
				"element": "H" 
			},
			{
				"x": -1.3710644682,
				"y": -0.8295472321,
				"z": 0.8715471536,
				"element": "H" 
			}
		],
		 "valence_orbital": [ 
			{
				"type": "occ",
				"energy": -0.33281,
				"method": "rhf"
			},
			{
				"type": "occ",
				"energy": -0.32997,
				"method": "rhf"
			},
			{
				"type": "occ",
				"energy": -0.32699,
				"method": "rhf"
			},
			{
				"type": "occ",
				"energy": -0.32006,
				"method": "rhf"
			},
			{
				"type": "occ",
				"energy": -0.29658,
				"method": "rhf"
			},
			{
				"type": "unocc",
				"energy": -0.13557,
				"method": "rhf"
			},
			{
				"type": "unocc",
				"energy": -0.10155,
				"method": "rhf"
			},
			{
				"type": "unocc",
				"energy": -0.07717,
				"method": "rhf"
			},
			{
				"type": "unocc",
				"energy": -0.05971,
				"method": "rhf"
			},
			{
				"type": "unocc",
				"energy": -0.03398,
				"method": "rhf"
			}
		],
		"cosmo_sigma_profile": { 
			"-0.025": 0.0,
			"-0.024": 0.0,
			"-0.023": 0.0,
			"-0.022": 0.0,
			"-0.021": 0.0,
			"-0.02": 0.0,
			"-0.019": 0.0,
			"-0.018": 0.0,
			"-0.017": 0.0,
			"-0.016": 0.0,
			"-0.015": 0.0,
			"-0.014": 0.0,
			"-0.013": 0.0,
			"-0.012": 0.0,
			"-0.011": 0.00993147070319,
			"-0.01": 2.4213158805,
			"-0.009": 4.18539397719,
			"-0.008": 4.44293145461,
			"-0.007": 7.36997982999,
			"-0.006": 8.91600219107,
			"-0.005": 16.3143029457,
			"-0.004": 23.6230064766,
			"-0.003": 18.2955951094,
			"-0.002": 13.0264888638,
			"-0.001": 13.0410863192,
			"0.0": 14.4246639769,
			"0.001": 21.3111685422,
			"0.002": 26.365827656,
			"0.003": 14.8589412708,
			"0.004": 6.72611453554,
			"0.005": 8.54525130347,
			"0.006": 14.8069075757,
			"0.007": 16.0398938733,
			"0.008": 9.11882949402,
			"0.009": 1.17759660943,
			"0.01": 0.0,
			"0.011": 0.0,
			"0.012": 0.0,
			"0.013": 0.0,
			"0.014": 0.0,
			"0.015": 0.0,
			"0.016": 0.0,
			"0.017": 0.0,
			"0.018": 0.0,
			"0.019": 0.0,
			"0.02": 0.0,
			"0.021": 0.0,
			"0.022": 0.0,
			"0.023": 0.0,
			"0.024": 0.0,
			"0.025": 0.0
		}
	}
}
