{
	 "smiles": "ClC(Cl)Cl", 
	 "Tm": 209.85, 
	 "num_atms": 5, 
	 "gaussian": { 
		 "optdone": 1, 
		 "sigma_profile": "yes", 
		 "theory": "DFT", 
		 "functional": "B3LYP", 
		 "basiset": "6-31G**", 
		 "properties": { 
			 "R2extent": 665.2901, 
			 "electric_dipole_moment_norm": 1.27293354501, 
			 "electric_quadrupole_moment_norm": 1.62928548143, 
			 "total_energy": -1419.26951063, 
			 "HOMO_LUMO_gap": 0.2666, 
			 "cosmo_polarized_energy": -3.64, 
			 "cosmo_cavitation_energy": 14.2, 
			 "cosmo_dispersion_energy": -11.23, 
			 "cosmo_repulsion_energy": 1.03, 
			 "cosmo_total_nonelectrostatic_energy": 3.99, 
			 "SMD_solvation_energy": 1.64 
		},
		"coords": [
			{
				"x": -0.6722852696,
				"y": 0.301327511,
				"z": -1.9106439051,
				"element": "Cl" 
			},
			{
				"x": -0.4193470128,
				"y": -0.2536050175,
				"z": -0.2308000211,
				"element": "C" 
			},
			{
				"x": -0.8608855321,
				"y": 1.0155627109,
				"z": 0.9473641541,
				"element": "Cl" 
			},
			{
				"x": 1.2562013571,
				"y": -0.8215698202,
				"z": 0.0217036445,
				"element": "Cl" 
			},
			{
				"x": -1.0794835426,
				"y": -1.0988153842,
				"z": -0.0631238725,
				"element": "H" 
			}
		],
		 "valence_orbital": [ 
			{
				"type": "occ",
				"energy": -0.35951,
				"method": "rhf"
			},
			{
				"type": "occ",
				"energy": -0.33353,
				"method": "rhf"
			},
			{
				"type": "occ",
				"energy": -0.33353,
				"method": "rhf"
			},
			{
				"type": "occ",
				"energy": -0.33051,
				"method": "rhf"
			},
			{
				"type": "occ",
				"energy": -0.3159,
				"method": "rhf"
			},
			{
				"type": "unocc",
				"energy": -0.0493,
				"method": "rhf"
			},
			{
				"type": "unocc",
				"energy": 0.0038,
				"method": "rhf"
			},
			{
				"type": "unocc",
				"energy": 0.0038,
				"method": "rhf"
			},
			{
				"type": "unocc",
				"energy": 0.08195,
				"method": "rhf"
			},
			{
				"type": "unocc",
				"energy": 0.29513,
				"method": "rhf"
			}
		],
		"cosmo_sigma_profile": { 
			"-0.025": 0.0,
			"-0.024": 0.0,
			"-0.023": 0.0,
			"-0.022": 0.0,
			"-0.021": 0.0,
			"-0.02": 0.0,
			"-0.019": 0.0,
			"-0.018": 0.0,
			"-0.017": 0.0,
			"-0.016": 0.0,
			"-0.015": 0.0,
			"-0.014": 0.0,
			"-0.013": 1.83808794015,
			"-0.012": 2.11846333395,
			"-0.011": 1.76596467553,
			"-0.01": 1.23950984413,
			"-0.009": 1.43902137922,
			"-0.008": 0.883440726845,
			"-0.007": 1.15299480352,
			"-0.006": 1.22692981789,
			"-0.005": 2.07381855962,
			"-0.004": 4.49645862734,
			"-0.003": 6.01681147969,
			"-0.002": 7.66972940954,
			"-0.001": 6.89498360107,
			"0.0": 9.91877573981,
			"0.001": 11.0122609823,
			"0.002": 19.3103145927,
			"0.003": 32.8491807251,
			"0.004": 8.58855163248,
			"0.005": 0.0,
			"0.006": 0.0,
			"0.007": 0.0,
			"0.008": 0.0,
			"0.009": 0.0,
			"0.01": 0.0,
			"0.011": 0.0,
			"0.012": 0.0,
			"0.013": 0.0,
			"0.014": 0.0,
			"0.015": 0.0,
			"0.016": 0.0,
			"0.017": 0.0,
			"0.018": 0.0,
			"0.019": 0.0,
			"0.02": 0.0,
			"0.021": 0.0,
			"0.022": 0.0,
			"0.023": 0.0,
			"0.024": 0.0,
			"0.025": 0.0
		}
	}
}
