{
	 "smiles": "CC(=O)CC(=O)NC1=CC=C(Cl)C=C1", 
	 "Tm": 405.15, 
	 "num_atms": 24, 
	 "gaussian": { 
		 "optdone": 1, 
		 "sigma_profile": "yes", 
		 "theory": "DFT", 
		 "functional": "B3LYP", 
		 "basiset": "6-31G**", 
		 "properties": { 
			 "R2extent": 5632.9046, 
			 "electric_dipole_moment_norm": 5.28156511084, 
			 "electric_quadrupole_moment_norm": 2.81359043395, 
			 "total_energy": -1052.50724563, 
			 "HOMO_LUMO_gap": 0.17307, 
			 "cosmo_polarized_energy": -13.21, 
			 "cosmo_cavitation_energy": 30.45, 
			 "cosmo_dispersion_energy": -22.29, 
			 "cosmo_repulsion_energy": 1.76, 
			 "cosmo_total_nonelectrostatic_energy": 9.92, 
			 "SMD_solvation_energy": 6.0 
		},
		"coords": [
			{
				"x": 1.6761787737,
				"y": -1.9828624153,
				"z": -3.2215918224,
				"element": "C" 
			},
			{
				"x": 1.217369927,
				"y": -0.9398833664,
				"z": -2.2290382061,
				"element": "C" 
			},
			{
				"x": 0.7256736866,
				"y": 0.1168643659,
				"z": -2.598287849,
				"element": "O" 
			},
			{
				"x": 1.431879686,
				"y": -1.2649905373,
				"z": -0.7548559795,
				"element": "C" 
			},
			{
				"x": 0.4046383649,
				"y": -0.7750474027,
				"z": 0.283815901,
				"element": "C" 
			},
			{
				"x": 0.2278372392,
				"y": -1.4296651902,
				"z": 1.3025843718,
				"element": "O" 
			},
			{
				"x": -0.1963096565,
				"y": 0.4145175965,
				"z": -0.0157010054,
				"element": "N" 
			},
			{
				"x": -1.1426623211,
				"y": 1.1293023551,
				"z": 0.7445400564,
				"element": "C" 
			},
			{
				"x": -1.5744690569,
				"y": 0.7310736122,
				"z": 2.0196217297,
				"element": "C" 
			},
			{
				"x": -2.5095450609,
				"y": 1.5035739788,
				"z": 2.7075058954,
				"element": "C" 
			},
			{
				"x": -3.0153002054,
				"y": 2.6675458425,
				"z": 2.1328621874,
				"element": "C" 
			},
			{
				"x": -4.1951760188,
				"y": 3.6345846372,
				"z": 3.0101078141,
				"element": "Cl" 
			},
			{
				"x": -2.5957573413,
				"y": 3.074767178,
				"z": 0.8670994408,
				"element": "C" 
			},
			{
				"x": -1.6627206355,
				"y": 2.3051862512,
				"z": 0.1797173767,
				"element": "C" 
			},
			{
				"x": 1.6050927523,
				"y": -1.5906647699,
				"z": -4.2366925747,
				"element": "H" 
			},
			{
				"x": 2.7045090626,
				"y": -2.2954390338,
				"z": -3.0078705581,
				"element": "H" 
			},
			{
				"x": 1.0478310624,
				"y": -2.8769822427,
				"z": -3.1283600669,
				"element": "H" 
			},
			{
				"x": 2.4007794266,
				"y": -0.819571495,
				"z": -0.4821648895,
				"element": "H" 
			},
			{
				"x": 1.5400769658,
				"y": -2.340483437,
				"z": -0.5997288874,
				"element": "H" 
			},
			{
				"x": 0.0172941732,
				"y": 0.7734471408,
				"z": -0.9449695611,
				"element": "H" 
			},
			{
				"x": -1.1791346155,
				"y": -0.1751513737,
				"z": 2.4559604183,
				"element": "H" 
			},
			{
				"x": -2.8439653264,
				"y": 1.1963955427,
				"z": 3.6923838332,
				"element": "H" 
			},
			{
				"x": -2.9931486517,
				"y": 3.9812952555,
				"z": 0.4244531279,
				"element": "H" 
			},
			{
				"x": -1.3341722302,
				"y": 2.6203875076,
				"z": -0.8072907527,
				"element": "H" 
			}
		],
		 "valence_orbital": [ 
			{
				"type": "occ",
				"energy": -0.2939,
				"method": "rhf"
			},
			{
				"type": "occ",
				"energy": -0.284,
				"method": "rhf"
			},
			{
				"type": "occ",
				"energy": -0.26038,
				"method": "rhf"
			},
			{
				"type": "occ",
				"energy": -0.25947,
				"method": "rhf"
			},
			{
				"type": "occ",
				"energy": -0.21868,
				"method": "rhf"
			},
			{
				"type": "unocc",
				"energy": -0.04561,
				"method": "rhf"
			},
			{
				"type": "unocc",
				"energy": -0.01981,
				"method": "rhf"
			},
			{
				"type": "unocc",
				"energy": -0.0097,
				"method": "rhf"
			},
			{
				"type": "unocc",
				"energy": 0.03563,
				"method": "rhf"
			},
			{
				"type": "unocc",
				"energy": 0.03676,
				"method": "rhf"
			}
		],
		"cosmo_sigma_profile": { 
			"-0.025": 0.0,
			"-0.024": 0.0,
			"-0.023": 0.0,
			"-0.022": 0.0,
			"-0.021": 0.0,
			"-0.02": 0.0,
			"-0.019": 0.0,
			"-0.018": 0.0,
			"-0.017": 0.0,
			"-0.016": 0.0,
			"-0.015": 0.0,
			"-0.014": 0.0,
			"-0.013": 0.0,
			"-0.012": 0.0,
			"-0.011": 0.0794194870009,
			"-0.01": 0.63539620184,
			"-0.009": 4.61842818813,
			"-0.008": 5.95166244624,
			"-0.007": 15.8992443239,
			"-0.006": 16.2104633614,
			"-0.005": 16.160901867,
			"-0.004": 14.4505472296,
			"-0.003": 12.9793702001,
			"-0.002": 15.1133084017,
			"-0.001": 14.9092312993,
			"0.0": 12.0364138757,
			"0.001": 15.4351913811,
			"0.002": 19.5719303096,
			"0.003": 21.8922414617,
			"0.004": 20.5932348548,
			"0.005": 11.9733140625,
			"0.006": 3.45277072974,
			"0.007": 2.39418297677,
			"0.008": 3.33075416258,
			"0.009": 3.62897796385,
			"0.01": 3.12083192264,
			"0.011": 3.77463129433,
			"0.012": 3.8776824381,
			"0.013": 2.73034372285,
			"0.014": 0.711484168604,
			"0.015": 0.0,
			"0.016": 0.0,
			"0.017": 0.0,
			"0.018": 0.0,
			"0.019": 0.0,
			"0.02": 0.0,
			"0.021": 0.0,
			"0.022": 0.0,
			"0.023": 0.0,
			"0.024": 0.0,
			"0.025": 0.0
		}
	}
}
