{
	 "smiles": "NC1CCCC1C(N)=O", 
	 "Tm": 397.15, 
	 "num_atms": 21, 
	 "gaussian": { 
		 "optdone": 1, 
		 "sigma_profile": "yes", 
		 "theory": "DFT", 
		 "functional": "B3LYP", 
		 "basiset": "6-31G**", 
		 "properties": { 
			 "R2extent": 1408.375, 
			 "electric_dipole_moment_norm": 2.49826018261, 
			 "electric_quadrupole_moment_norm": 12.3515796763, 
			 "total_energy": -420.612057169, 
			 "HOMO_LUMO_gap": 0.26585, 
			 "cosmo_polarized_energy": -14.37, 
			 "cosmo_cavitation_energy": 22.36, 
			 "cosmo_dispersion_energy": -16.65, 
			 "cosmo_repulsion_energy": 1.39, 
			 "cosmo_total_nonelectrostatic_energy": 7.1, 
			 "SMD_solvation_energy": 3.33 
		},
		"coords": [
			{
				"x": 1.6155176343,
				"y": -0.4259462353,
				"z": 0.7430002319,
				"element": "N" 
			},
			{
				"x": 0.317209415,
				"y": 0.0204146124,
				"z": 0.2152269937,
				"element": "C" 
			},
			{
				"x": 0.4273285838,
				"y": 0.2316207137,
				"z": -1.30696466,
				"element": "C" 
			},
			{
				"x": 0.2890988042,
				"y": -1.1789652831,
				"z": -1.9427905947,
				"element": "C" 
			},
			{
				"x": -0.242306713,
				"y": -2.0990678543,
				"z": -0.8069598657,
				"element": "C" 
			},
			{
				"x": -0.6929085081,
				"y": -1.1533948915,
				"z": 0.3265778114,
				"element": "C" 
			},
			{
				"x": -2.1217245671,
				"y": -0.5966979316,
				"z": 0.2833657422,
				"element": "C" 
			},
			{
				"x": -2.8930822192,
				"y": -0.9127190705,
				"z": -0.7997870468,
				"element": "N" 
			},
			{
				"x": -2.5412614655,
				"y": 0.1204522305,
				"z": 1.1833408764,
				"element": "O" 
			},
			{
				"x": 2.3098083223,
				"y": 0.3032183681,
				"z": 0.5945669607,
				"element": "H" 
			},
			{
				"x": 1.5487171244,
				"y": -0.5521275953,
				"z": 1.7510979924,
				"element": "H" 
			},
			{
				"x": -0.0809565537,
				"y": 0.9099800513,
				"z": 0.7230932365,
				"element": "H" 
			},
			{
				"x": -0.3899988593,
				"y": 0.8824999202,
				"z": -1.6356345215,
				"element": "H" 
			},
			{
				"x": 1.3627153793,
				"y": 0.7301653457,
				"z": -1.5826337449,
				"element": "H" 
			},
			{
				"x": -0.3899683337,
				"y": -1.1516190056,
				"z": -2.8020296043,
				"element": "H" 
			},
			{
				"x": 1.2482669467,
				"y": -1.5472305058,
				"z": -2.3153936985,
				"element": "H" 
			},
			{
				"x": -1.0234038746,
				"y": -2.7955739046,
				"z": -1.1319794673,
				"element": "H" 
			},
			{
				"x": 0.5775543833,
				"y": -2.7095527463,
				"z": -0.4234065193,
				"element": "H" 
			},
			{
				"x": -0.6101984022,
				"y": -1.6280655773,
				"z": 1.3107636903,
				"element": "H" 
			},
			{
				"x": -2.5815647153,
				"y": -1.5189817556,
				"z": -1.5388690781,
				"element": "H" 
			},
			{
				"x": -3.8352423818,
				"y": -0.5533088852,
				"z": -0.8219847342,
				"element": "H" 
			}
		],
		 "valence_orbital": [ 
			{
				"type": "occ",
				"energy": -0.32385,
				"method": "rhf"
			},
			{
				"type": "occ",
				"energy": -0.32033,
				"method": "rhf"
			},
			{
				"type": "occ",
				"energy": -0.26085,
				"method": "rhf"
			},
			{
				"type": "occ",
				"energy": -0.24006,
				"method": "rhf"
			},
			{
				"type": "occ",
				"energy": -0.23243,
				"method": "rhf"
			},
			{
				"type": "unocc",
				"energy": 0.03342,
				"method": "rhf"
			},
			{
				"type": "unocc",
				"energy": 0.05998,
				"method": "rhf"
			},
			{
				"type": "unocc",
				"energy": 0.09025,
				"method": "rhf"
			},
			{
				"type": "unocc",
				"energy": 0.10543,
				"method": "rhf"
			},
			{
				"type": "unocc",
				"energy": 0.12116,
				"method": "rhf"
			}
		],
		"cosmo_sigma_profile": { 
			"-0.025": 0.0,
			"-0.024": 0.0,
			"-0.023": 0.0,
			"-0.022": 0.0,
			"-0.021": 0.0,
			"-0.02": 0.0,
			"-0.019": 0.0,
			"-0.018": 0.0,
			"-0.017": 0.0,
			"-0.016": 0.0,
			"-0.015": 0.0,
			"-0.014": 0.527028622495,
			"-0.013": 1.69503224272,
			"-0.012": 2.20985869276,
			"-0.011": 2.26554753981,
			"-0.01": 2.56988615258,
			"-0.009": 4.93108582142,
			"-0.008": 4.60239217202,
			"-0.007": 6.84330445454,
			"-0.006": 5.30258212286,
			"-0.005": 6.10105046654,
			"-0.004": 7.89576817164,
			"-0.003": 11.3491697774,
			"-0.002": 15.5958584206,
			"-0.001": 21.27688995,
			"0.0": 17.0660323746,
			"0.001": 14.6894325602,
			"0.002": 5.90335725405,
			"0.003": 4.96414614248,
			"0.004": 3.973669055,
			"0.005": 2.64029360595,
			"0.006": 2.23615961737,
			"0.007": 2.42476286935,
			"0.008": 2.43444643521,
			"0.009": 2.51123126462,
			"0.01": 1.14111613655,
			"0.011": 2.04673250775,
			"0.012": 3.13460730208,
			"0.013": 2.31680570648,
			"0.014": 5.52431139325,
			"0.015": 4.61628508132,
			"0.016": 0.930994688792,
			"0.017": 0.448064806567,
			"0.018": 0.144777239996,
			"0.019": 0.0,
			"0.02": 0.0,
			"0.021": 0.0,
			"0.022": 0.0,
			"0.023": 0.0,
			"0.024": 0.0,
			"0.025": 0.0
		}
	}
}
