{
	 "smiles": "CC1CC(C)CN(C1)S(Cl)(=O)=O", 
	 "Tm": 315.15, 
	 "num_atms": 26, 
	 "gaussian": { 
		 "optdone": 1, 
		 "sigma_profile": "yes", 
		 "theory": "DFT", 
		 "functional": "B3LYP", 
		 "basiset": "6-31G**", 
		 "properties": { 
			 "R2extent": 3375.3229, 
			 "electric_dipole_moment_norm": 5.72524968975, 
			 "electric_quadrupole_moment_norm": 14.585166152, 
			 "total_energy": -1338.70225536, 
			 "HOMO_LUMO_gap": 0.1963, 
			 "cosmo_polarized_energy": -9.52, 
			 "cosmo_cavitation_energy": 29.69, 
			 "cosmo_dispersion_energy": -21.64, 
			 "cosmo_repulsion_energy": 1.67, 
			 "cosmo_total_nonelectrostatic_energy": 9.72, 
			 "SMD_solvation_energy": 2.7 
		},
		"coords": [
			{
				"x": 1.7981458665,
				"y": -0.8382486518,
				"z": -2.2274835297,
				"element": "C" 
			},
			{
				"x": 0.9978640947,
				"y": 0.1260542956,
				"z": -1.3430964369,
				"element": "C" 
			},
			{
				"x": 1.6934889009,
				"y": 0.3636105261,
				"z": 0.0179720405,
				"element": "C" 
			},
			{
				"x": 0.7028641895,
				"y": 0.7965308986,
				"z": 1.1089023469,
				"element": "C" 
			},
			{
				"x": 1.3965707381,
				"y": 1.2397385945,
				"z": 2.4018687716,
				"element": "C" 
			},
			{
				"x": -0.2548267362,
				"y": -0.3709209999,
				"z": 1.4063854343,
				"element": "C" 
			},
			{
				"x": -0.694419789,
				"y": -1.0248183113,
				"z": 0.1506510802,
				"element": "N" 
			},
			{
				"x": -0.4683296736,
				"y": -0.3294492945,
				"z": -1.1312390068,
				"element": "C" 
			},
			{
				"x": -1.079921177,
				"y": -2.6103833524,
				"z": 0.2067843325,
				"element": "S" 
			},
			{
				"x": 0.8186255855,
				"y": -3.6498835392,
				"z": 0.3226476949,
				"element": "Cl" 
			},
			{
				"x": -1.6523282889,
				"y": -3.0161250298,
				"z": -1.0671653829,
				"element": "O" 
			},
			{
				"x": -1.701534406,
				"y": -2.8911954436,
				"z": 1.4911517381,
				"element": "O" 
			},
			{
				"x": 1.8418279074,
				"y": -1.8376536887,
				"z": -1.7831802811,
				"element": "H" 
			},
			{
				"x": 1.3508384859,
				"y": -0.9292394747,
				"z": -3.2230607335,
				"element": "H" 
			},
			{
				"x": 2.8267448515,
				"y": -0.4836125869,
				"z": -2.3549842338,
				"element": "H" 
			},
			{
				"x": 0.9352941745,
				"y": 1.0914525519,
				"z": -1.8636617844,
				"element": "H" 
			},
			{
				"x": 2.4860506092,
				"y": 1.1112414529,
				"z": -0.0977682431,
				"element": "H" 
			},
			{
				"x": 2.1849253655,
				"y": -0.5634785079,
				"z": 0.3441650227,
				"element": "H" 
			},
			{
				"x": 0.1152965272,
				"y": 1.6458147881,
				"z": 0.731840083,
				"element": "H" 
			},
			{
				"x": 0.6698931212,
				"y": 1.4916535408,
				"z": 3.1818854543,
				"element": "H" 
			},
			{
				"x": 2.0451486904,
				"y": 0.4465031412,
				"z": 2.7907679366,
				"element": "H" 
			},
			{
				"x": 2.016829019,
				"y": 2.1239132047,
				"z": 2.2254559524,
				"element": "H" 
			},
			{
				"x": -1.1353176606,
				"y": -0.039140831,
				"z": 1.968163577,
				"element": "H" 
			},
			{
				"x": 0.2678301932,
				"y": -1.1114265445,
				"z": 2.0216767772,
				"element": "H" 
			},
			{
				"x": -1.1381855713,
				"y": 0.538403289,
				"z": -1.1236463115,
				"element": "H" 
			},
			{
				"x": -0.8102750176,
				"y": -0.9857400272,
				"z": -1.9319322984,
				"element": "H" 
			}
		],
		 "valence_orbital": [ 
			{
				"type": "occ",
				"energy": -0.33186,
				"method": "rhf"
			},
			{
				"type": "occ",
				"energy": -0.32863,
				"method": "rhf"
			},
			{
				"type": "occ",
				"energy": -0.31884,
				"method": "rhf"
			},
			{
				"type": "occ",
				"energy": -0.30532,
				"method": "rhf"
			},
			{
				"type": "occ",
				"energy": -0.27015,
				"method": "rhf"
			},
			{
				"type": "unocc",
				"energy": -0.07385,
				"method": "rhf"
			},
			{
				"type": "unocc",
				"energy": 0.05279,
				"method": "rhf"
			},
			{
				"type": "unocc",
				"energy": 0.06909,
				"method": "rhf"
			},
			{
				"type": "unocc",
				"energy": 0.07973,
				"method": "rhf"
			},
			{
				"type": "unocc",
				"energy": 0.08301,
				"method": "rhf"
			}
		],
		"cosmo_sigma_profile": { 
			"-0.025": 0.0,
			"-0.024": 0.0,
			"-0.023": 0.0,
			"-0.022": 0.0,
			"-0.021": 0.0,
			"-0.02": 0.0,
			"-0.019": 0.0,
			"-0.018": 0.0,
			"-0.017": 0.0,
			"-0.016": 0.0,
			"-0.015": 0.0,
			"-0.014": 0.0,
			"-0.013": 0.0,
			"-0.012": 0.0,
			"-0.011": 0.0,
			"-0.01": 0.0,
			"-0.009": 0.000548904989877,
			"-0.008": 0.146487988153,
			"-0.007": 0.59830904972,
			"-0.006": 6.48765588258,
			"-0.005": 12.3556300776,
			"-0.004": 20.3945289189,
			"-0.003": 30.4026446654,
			"-0.002": 28.6555194298,
			"-0.001": 23.3570777656,
			"0.0": 26.4406349013,
			"0.001": 20.5337061932,
			"0.002": 9.83920228981,
			"0.003": 8.41873039369,
			"0.004": 9.07093708557,
			"0.005": 10.3337981994,
			"0.006": 4.06198100166,
			"0.007": 4.54246234326,
			"0.008": 9.37738033224,
			"0.009": 8.23088800495,
			"0.01": 0.458235073092,
			"0.011": 0.0,
			"0.012": 0.0,
			"0.013": 0.0,
			"0.014": 0.0,
			"0.015": 0.0,
			"0.016": 0.0,
			"0.017": 0.0,
			"0.018": 0.0,
			"0.019": 0.0,
			"0.02": 0.0,
			"0.021": 0.0,
			"0.022": 0.0,
			"0.023": 0.0,
			"0.024": 0.0,
			"0.025": 0.0
		}
	}
}
