{
	 "smiles": "CC(C)OC1=CC(=CC(Br)=C1)C(O)=O", 
	 "Tm": 400.15, 
	 "num_atms": 25, 
	 "gaussian": { 
		 "optdone": 1, 
		 "sigma_profile": "yes", 
		 "theory": "DFT", 
		 "functional": "B3LYP", 
		 "basiset": "6-31G**", 
		 "properties": { 
			 "R2extent": 7151.289, 
			 "electric_dipole_moment_norm": 3.77278518206, 
			 "electric_quadrupole_moment_norm": 15.2333316077, 
			 "total_energy": -3184.79129708, 
			 "HOMO_LUMO_gap": 0.17779, 
			 "cosmo_polarized_energy": -10.52, 
			 "cosmo_cavitation_energy": 31.56, 
			 "cosmo_dispersion_energy": -23.05, 
			 "cosmo_repulsion_energy": 1.85, 
			 "cosmo_total_nonelectrostatic_energy": 10.35, 
			 "SMD_solvation_energy": 5.88 
		},
		"coords": [
			{
				"x": 1.4706366738,
				"y": 1.3143817681,
				"z": 1.9303000276,
				"element": "C" 
			},
			{
				"x": 1.6865967095,
				"y": 0.4256951062,
				"z": 0.7110419325,
				"element": "C" 
			},
			{
				"x": 2.969434215,
				"y": -0.4003954383,
				"z": 0.8025025837,
				"element": "C" 
			},
			{
				"x": 0.5319687062,
				"y": -0.4387385965,
				"z": 0.6544942386,
				"element": "O" 
			},
			{
				"x": 0.1692931388,
				"y": -1.0487522887,
				"z": -0.504536564,
				"element": "C" 
			},
			{
				"x": -0.9490056645,
				"y": -1.8918889226,
				"z": -0.4148321016,
				"element": "C" 
			},
			{
				"x": -1.4172819111,
				"y": -2.5516360596,
				"z": -1.5497682515,
				"element": "C" 
			},
			{
				"x": -0.7854704871,
				"y": -2.3895292892,
				"z": -2.7926881847,
				"element": "C" 
			},
			{
				"x": 0.3181564509,
				"y": -1.5541809557,
				"z": -2.8583873592,
				"element": "C" 
			},
			{
				"x": 1.2100611216,
				"y": -1.3090325383,
				"z": -4.5328717163,
				"element": "Br" 
			},
			{
				"x": 0.8124302475,
				"y": -0.8798044651,
				"z": -1.7388019519,
				"element": "C" 
			},
			{
				"x": -2.6022013902,
				"y": -3.4539932346,
				"z": -1.4991165724,
				"element": "C" 
			},
			{
				"x": -3.1456480699,
				"y": -3.5489265334,
				"z": -0.2610151439,
				"element": "O" 
			},
			{
				"x": -3.0551334765,
				"y": -4.054578132,
				"z": -2.4526520789,
				"element": "O" 
			},
			{
				"x": 0.5427623535,
				"y": 1.883969211,
				"z": 1.8328347467,
				"element": "H" 
			},
			{
				"x": 1.4090034726,
				"y": 0.7065652836,
				"z": 2.8382093714,
				"element": "H" 
			},
			{
				"x": 2.302160238,
				"y": 2.0170489695,
				"z": 2.0391316874,
				"element": "H" 
			},
			{
				"x": 1.7019586437,
				"y": 1.0547676079,
				"z": -0.1889295282,
				"element": "H" 
			},
			{
				"x": 3.0863663173,
				"y": -1.066570105,
				"z": -0.0563126772,
				"element": "H" 
			},
			{
				"x": 3.8427229044,
				"y": 0.258433546,
				"z": 0.8426903829,
				"element": "H" 
			},
			{
				"x": 2.9561144404,
				"y": -1.0124839314,
				"z": 1.7096148699,
				"element": "H" 
			},
			{
				"x": -1.4369791911,
				"y": -2.0142979512,
				"z": 0.5438651059,
				"element": "H" 
			},
			{
				"x": -1.1649913206,
				"y": -2.9125199017,
				"z": -3.6607279909,
				"element": "H" 
			},
			{
				"x": 1.6798384178,
				"y": -0.2433741929,
				"z": -1.8456274791,
				"element": "H" 
			},
			{
				"x": -3.8995925399,
				"y": -4.1547589561,
				"z": -0.3497173469,
				"element": "H" 
			}
		],
		 "valence_orbital": [ 
			{
				"type": "occ",
				"energy": -0.30254,
				"method": "rhf"
			},
			{
				"type": "occ",
				"energy": -0.28927,
				"method": "rhf"
			},
			{
				"type": "occ",
				"energy": -0.28059,
				"method": "rhf"
			},
			{
				"type": "occ",
				"energy": -0.25624,
				"method": "rhf"
			},
			{
				"type": "occ",
				"energy": -0.23184,
				"method": "rhf"
			},
			{
				"type": "unocc",
				"energy": -0.05405,
				"method": "rhf"
			},
			{
				"type": "unocc",
				"energy": -0.00994,
				"method": "rhf"
			},
			{
				"type": "unocc",
				"energy": 0.00341,
				"method": "rhf"
			},
			{
				"type": "unocc",
				"energy": 0.05397,
				"method": "rhf"
			},
			{
				"type": "unocc",
				"energy": 0.07785,
				"method": "rhf"
			}
		],
		"cosmo_sigma_profile": { 
			"-0.025": 0.0,
			"-0.024": 0.0,
			"-0.023": 0.0,
			"-0.022": 0.0,
			"-0.021": 0.0,
			"-0.02": 0.0,
			"-0.019": 0.187425938236,
			"-0.018": 0.771337143057,
			"-0.017": 0.902219904979,
			"-0.016": 1.08730845997,
			"-0.015": 0.772715682548,
			"-0.014": 0.309929129641,
			"-0.013": 0.321748605862,
			"-0.012": 0.984970468724,
			"-0.011": 0.907882100788,
			"-0.01": 1.15835366974,
			"-0.009": 0.590107576859,
			"-0.008": 2.53473195563,
			"-0.007": 2.49357173432,
			"-0.006": 5.85378950284,
			"-0.005": 7.64007851862,
			"-0.004": 19.0931691277,
			"-0.003": 24.1418958416,
			"-0.002": 19.8279866258,
			"-0.001": 22.1998585377,
			"0.0": 27.2704312142,
			"0.001": 28.0178397602,
			"0.002": 26.7486296677,
			"0.003": 12.4900536203,
			"0.004": 15.899895005,
			"0.005": 8.07341331925,
			"0.006": 3.80699173064,
			"0.007": 4.46882505938,
			"0.008": 2.97299434166,
			"0.009": 2.78037360084,
			"0.01": 2.34005996967,
			"0.011": 4.39451066619,
			"0.012": 2.53118634383,
			"0.013": 0.00327471653208,
			"0.014": 0.0,
			"0.015": 0.0,
			"0.016": 0.0,
			"0.017": 0.0,
			"0.018": 0.0,
			"0.019": 0.0,
			"0.02": 0.0,
			"0.021": 0.0,
			"0.022": 0.0,
			"0.023": 0.0,
			"0.024": 0.0,
			"0.025": 0.0
		}
	}
}
