{
	 "smiles": "COC(=O)C1=CC(=CC(=C1)[N+]([O-])=O)S(C)(=O)=O", 
	 "Tm": 408.15, 
	 "num_atms": 26, 
	 "gaussian": { 
		 "optdone": 1, 
		 "sigma_profile": "yes", 
		 "theory": "DFT", 
		 "functional": "B3LYP", 
		 "basiset": "6-31G**", 
		 "properties": { 
			 "R2extent": 5651.1727, 
			 "electric_dipole_moment_norm": 5.16248386051, 
			 "electric_quadrupole_moment_norm": 27.6584154552, 
			 "total_energy": -1252.50379938, 
			 "HOMO_LUMO_gap": 0.18882, 
			 "cosmo_polarized_energy": -20.39, 
			 "cosmo_cavitation_energy": 33.79, 
			 "cosmo_dispersion_energy": -24.31, 
			 "cosmo_repulsion_energy": 1.85, 
			 "cosmo_total_nonelectrostatic_energy": 11.33, 
			 "SMD_solvation_energy": 9.5 
		},
		"coords": [
			{
				"x": -3.633441322,
				"y": -1.5750335532,
				"z": 1.3115486362,
				"element": "C" 
			},
			{
				"x": -2.3831762856,
				"y": -0.8746213157,
				"z": 1.1696607369,
				"element": "O" 
			},
			{
				"x": -1.767290154,
				"y": -1.0278318562,
				"z": -0.0165907456,
				"element": "C" 
			},
			{
				"x": -2.1999321755,
				"y": -1.7030531706,
				"z": -0.9274549657,
				"element": "O" 
			},
			{
				"x": -0.4783928501,
				"y": -0.2693497083,
				"z": -0.0851445647,
				"element": "C" 
			},
			{
				"x": 0.2415026013,
				"y": -0.3153717765,
				"z": -1.2857396087,
				"element": "C" 
			},
			{
				"x": 1.4489275972,
				"y": 0.3728796135,
				"z": -1.387524502,
				"element": "C" 
			},
			{
				"x": 1.9526203688,
				"y": 1.1254037003,
				"z": -0.328158176,
				"element": "C" 
			},
			{
				"x": 1.2144906896,
				"y": 1.1521791249,
				"z": 0.8520515049,
				"element": "C" 
			},
			{
				"x": 0.0099136796,
				"y": 0.470500993,
				"z": 0.9963521856,
				"element": "C" 
			},
			{
				"x": 1.728457495,
				"y": 1.9377973645,
				"z": 1.9924499796,
				"element": "N" 
			},
			{
				"x": 2.8017961612,
				"y": 2.5154588202,
				"z": 1.8411069145,
				"element": "O" 
			},
			{
				"x": 1.0499202483,
				"y": 1.9567363486,
				"z": 3.0166952708,
				"element": "O" 
			},
			{
				"x": 2.3716716342,
				"y": 0.3284415255,
				"z": -2.9444287392,
				"element": "S" 
			},
			{
				"x": 3.4085743802,
				"y": -1.1426241189,
				"z": -2.7753052626,
				"element": "C" 
			},
			{
				"x": 1.403769228,
				"y": 0.0755153262,
				"z": -4.0197124336,
				"element": "O" 
			},
			{
				"x": 3.2543649233,
				"y": 1.5027286005,
				"z": -2.9591355546,
				"element": "O" 
			},
			{
				"x": -3.4821806854,
				"y": -2.6507243845,
				"z": 1.195979005,
				"element": "H" 
			},
			{
				"x": -3.9867672925,
				"y": -1.3402516584,
				"z": 2.3147456776,
				"element": "H" 
			},
			{
				"x": -4.3478808752,
				"y": -1.2330964116,
				"z": 0.5593522076,
				"element": "H" 
			},
			{
				"x": -0.1589069694,
				"y": -0.8712742683,
				"z": -2.1268782279,
				"element": "H" 
			},
			{
				"x": 2.8745284887,
				"y": 1.687098337,
				"z": -0.4186031816,
				"element": "H" 
			},
			{
				"x": -0.5310404245,
				"y": 0.5237304115,
				"z": 1.9315213903,
				"element": "H" 
			},
			{
				"x": 2.772194471,
				"y": -2.021210196,
				"z": -2.6608261069,
				"element": "H" 
			},
			{
				"x": 4.0743612766,
				"y": -1.0179894015,
				"z": -1.9201917474,
				"element": "H" 
			},
			{
				"x": 3.9867157916,
				"y": -1.2111383463,
				"z": -3.6992696924,
				"element": "H" 
			}
		],
		 "valence_orbital": [ 
			{
				"type": "occ",
				"energy": -0.31205,
				"method": "rhf"
			},
			{
				"type": "occ",
				"energy": -0.31018,
				"method": "rhf"
			},
			{
				"type": "occ",
				"energy": -0.30659,
				"method": "rhf"
			},
			{
				"type": "occ",
				"energy": -0.30268,
				"method": "rhf"
			},
			{
				"type": "occ",
				"energy": -0.29914,
				"method": "rhf"
			},
			{
				"type": "unocc",
				"energy": -0.11032,
				"method": "rhf"
			},
			{
				"type": "unocc",
				"energy": -0.08522,
				"method": "rhf"
			},
			{
				"type": "unocc",
				"energy": -0.0437,
				"method": "rhf"
			},
			{
				"type": "unocc",
				"energy": 0.02521,
				"method": "rhf"
			},
			{
				"type": "unocc",
				"energy": 0.04661,
				"method": "rhf"
			}
		],
		"cosmo_sigma_profile": { 
			"-0.025": 0.0,
			"-0.024": 0.0,
			"-0.023": 0.0,
			"-0.022": 0.0,
			"-0.021": 0.0,
			"-0.02": 0.0,
			"-0.019": 0.0,
			"-0.018": 0.0,
			"-0.017": 0.0,
			"-0.016": 0.0,
			"-0.015": 0.0,
			"-0.014": 0.0,
			"-0.013": 0.0,
			"-0.012": 0.0,
			"-0.011": 0.0390707300175,
			"-0.01": 1.54612507931,
			"-0.009": 7.22311665365,
			"-0.008": 7.52845383058,
			"-0.007": 12.1040126862,
			"-0.006": 17.1126181106,
			"-0.005": 22.4109662397,
			"-0.004": 30.0673725519,
			"-0.003": 28.852431322,
			"-0.002": 19.4270902241,
			"-0.001": 10.6414690457,
			"0.0": 8.58590750496,
			"0.001": 8.29248505423,
			"0.002": 7.85283893274,
			"0.003": 7.82952019039,
			"0.004": 7.10750458382,
			"0.005": 7.49841869246,
			"0.006": 9.98762961223,
			"0.007": 12.7072758261,
			"0.008": 8.29064991465,
			"0.009": 8.35389415552,
			"0.01": 10.3776337355,
			"0.011": 13.4286492691,
			"0.012": 3.3818038876,
			"0.013": 0.0,
			"0.014": 0.0,
			"0.015": 0.0,
			"0.016": 0.0,
			"0.017": 0.0,
			"0.018": 0.0,
			"0.019": 0.0,
			"0.02": 0.0,
			"0.021": 0.0,
			"0.022": 0.0,
			"0.023": 0.0,
			"0.024": 0.0,
			"0.025": 0.0
		}
	}
}
