{
	 "smiles": "OC(=O)CNC(=O)C1=CC2=C(CCC2)S1", 
	 "Tm": 481.15, 
	 "num_atms": 26, 
	 "gaussian": { 
		 "optdone": 1, 
		 "sigma_profile": "yes", 
		 "theory": "DFT", 
		 "functional": "B3LYP", 
		 "basiset": "6-31G**", 
		 "properties": { 
			 "R2extent": 6006.946, 
			 "electric_dipole_moment_norm": 2.04242714925, 
			 "electric_quadrupole_moment_norm": 19.3353042572, 
			 "total_energy": -1066.32494916, 
			 "HOMO_LUMO_gap": 0.18365, 
			 "cosmo_polarized_energy": -14.8, 
			 "cosmo_cavitation_energy": 31.83, 
			 "cosmo_dispersion_energy": -23.92, 
			 "cosmo_repulsion_energy": 1.86, 
			 "cosmo_total_nonelectrostatic_energy": 9.77, 
			 "SMD_solvation_energy": 5.49 
		},
		"coords": [
			{
				"x": -2.978994711,
				"y": 4.3125675322,
				"z": 4.5079103912,
				"element": "O" 
			},
			{
				"x": -2.5078205272,
				"y": 3.18809524,
				"z": 3.9360673254,
				"element": "C" 
			},
			{
				"x": -2.7584932695,
				"y": 2.0736690754,
				"z": 4.3437673463,
				"element": "O" 
			},
			{
				"x": -1.6353437786,
				"y": 3.4970197114,
				"z": 2.7402504757,
				"element": "C" 
			},
			{
				"x": -1.1317535596,
				"y": 2.2645461786,
				"z": 2.1845322415,
				"element": "N" 
			},
			{
				"x": -0.6137351746,
				"y": 2.2479197625,
				"z": 0.9169022162,
				"element": "C" 
			},
			{
				"x": -0.4946064051,
				"y": 3.2784765505,
				"z": 0.2556002117,
				"element": "O" 
			},
			{
				"x": -0.1942904322,
				"y": 0.933029462,
				"z": 0.376852062,
				"element": "C" 
			},
			{
				"x": 0.2235039104,
				"y": 0.7304920273,
				"z": -0.9186089557,
				"element": "C" 
			},
			{
				"x": 0.579674549,
				"y": -0.6213833734,
				"z": -1.1693451271,
				"element": "C" 
			},
			{
				"x": 0.4340205163,
				"y": -1.4311491449,
				"z": -0.0731730592,
				"element": "C" 
			},
			{
				"x": 0.7624422161,
				"y": -2.8731578552,
				"z": -0.3381769929,
				"element": "C" 
			},
			{
				"x": 1.4941211317,
				"y": -2.7675744995,
				"z": -1.7132116141,
				"element": "C" 
			},
			{
				"x": 1.0445074809,
				"y": -1.4224125504,
				"z": -2.3617945872,
				"element": "C" 
			},
			{
				"x": -0.1438512142,
				"y": -0.5646150892,
				"z": 1.3068133706,
				"element": "S" 
			},
			{
				"x": -3.5258838282,
				"y": 4.0339268606,
				"z": 5.2616721984,
				"element": "H" 
			},
			{
				"x": -0.8270955272,
				"y": 4.1687793728,
				"z": 3.0590722748,
				"element": "H" 
			},
			{
				"x": -2.2149230707,
				"y": 4.0586318481,
				"z": 1.9968203193,
				"element": "H" 
			},
			{
				"x": -1.4148562263,
				"y": 1.4184451146,
				"z": 2.6631753333,
				"element": "H" 
			},
			{
				"x": 0.2629243864,
				"y": 1.5481845643,
				"z": -1.6281584889,
				"element": "H" 
			},
			{
				"x": 1.3902061097,
				"y": -3.3347820045,
				"z": 0.4313919637,
				"element": "H" 
			},
			{
				"x": -0.1519851949,
				"y": -3.478145232,
				"z": -0.4096415231,
				"element": "H" 
			},
			{
				"x": 1.294862063,
				"y": -3.6306433059,
				"z": -2.3542296014,
				"element": "H" 
			},
			{
				"x": 2.5737455091,
				"y": -2.7349216759,
				"z": -1.5357512371,
				"element": "H" 
			},
			{
				"x": 1.8576336716,
				"y": -0.944198065,
				"z": -2.9183448237,
				"element": "H" 
			},
			{
				"x": 0.2214913751,
				"y": -1.5748005044,
				"z": -3.0731917198,
				"element": "H" 
			}
		],
		 "valence_orbital": [ 
			{
				"type": "occ",
				"energy": -0.29919,
				"method": "rhf"
			},
			{
				"type": "occ",
				"energy": -0.25832,
				"method": "rhf"
			},
			{
				"type": "occ",
				"energy": -0.25178,
				"method": "rhf"
			},
			{
				"type": "occ",
				"energy": -0.24774,
				"method": "rhf"
			},
			{
				"type": "occ",
				"energy": -0.22298,
				"method": "rhf"
			},
			{
				"type": "unocc",
				"energy": -0.03933,
				"method": "rhf"
			},
			{
				"type": "unocc",
				"energy": -0.00555,
				"method": "rhf"
			},
			{
				"type": "unocc",
				"energy": 0.02156,
				"method": "rhf"
			},
			{
				"type": "unocc",
				"energy": 0.04636,
				"method": "rhf"
			},
			{
				"type": "unocc",
				"energy": 0.06496,
				"method": "rhf"
			}
		],
		"cosmo_sigma_profile": { 
			"-0.025": 0.0,
			"-0.024": 0.0,
			"-0.023": 0.0,
			"-0.022": 0.0,
			"-0.021": 0.0,
			"-0.02": 0.0,
			"-0.019": 0.531822913798,
			"-0.018": 0.942136008848,
			"-0.017": 0.79056944768,
			"-0.016": 0.89157011728,
			"-0.015": 0.992204467781,
			"-0.014": 0.948393203311,
			"-0.013": 0.509647110228,
			"-0.012": 0.445177619474,
			"-0.011": 0.785081109367,
			"-0.01": 0.660191569905,
			"-0.009": 0.851200919529,
			"-0.008": 4.64553447809,
			"-0.007": 7.17039900667,
			"-0.006": 6.65279660361,
			"-0.005": 8.28135185822,
			"-0.004": 20.1940796362,
			"-0.003": 26.8992314463,
			"-0.002": 28.0449519673,
			"-0.001": 23.9129178128,
			"0.0": 20.5083095738,
			"0.001": 15.0697734774,
			"0.002": 13.056399577,
			"0.003": 17.3887848997,
			"0.004": 13.0408971359,
			"0.005": 4.88388400065,
			"0.006": 4.54981730632,
			"0.007": 3.5915385872,
			"0.008": 5.07297700234,
			"0.009": 4.1859679226,
			"0.01": 3.91408617198,
			"0.011": 4.92011993777,
			"0.012": 2.43832847664,
			"0.013": 3.95972008901,
			"0.014": 3.50631856338,
			"0.015": 0.0,
			"0.016": 0.0,
			"0.017": 0.0,
			"0.018": 0.0,
			"0.019": 0.0,
			"0.02": 0.0,
			"0.021": 0.0,
			"0.022": 0.0,
			"0.023": 0.0,
			"0.024": 0.0,
			"0.025": 0.0
		}
	}
}
