{
	 "smiles": "CCCCC(=O)OCCC", 
	 "Tm": 202.45, 
	 "num_atms": 26, 
	 "gaussian": { 
		 "optdone": 1, 
		 "sigma_profile": "yes", 
		 "theory": "DFT", 
		 "functional": "B3LYP", 
		 "basiset": "6-31G**", 
		 "properties": { 
			 "R2extent": 3136.792, 
			 "electric_dipole_moment_norm": 1.53577903684, 
			 "electric_quadrupole_moment_norm": 4.97382430832, 
			 "total_energy": -464.977032845, 
			 "HOMO_LUMO_gap": 0.28338, 
			 "cosmo_polarized_energy": -5.89, 
			 "cosmo_cavitation_energy": 28.33, 
			 "cosmo_dispersion_energy": -20.17, 
			 "cosmo_repulsion_energy": 1.71, 
			 "cosmo_total_nonelectrostatic_energy": 9.88, 
			 "SMD_solvation_energy": 5.54 
		},
		"coords": [
			{
				"x": -0.9378402673,
				"y": 1.6150958644,
				"z": 2.6978010836,
				"element": "C" 
			},
			{
				"x": 0.0479677523,
				"y": 0.7249513696,
				"z": 1.9350388951,
				"element": "C" 
			},
			{
				"x": 1.3702124199,
				"y": 1.4366311651,
				"z": 1.6190871395,
				"element": "C" 
			},
			{
				"x": 2.3794347233,
				"y": 0.5616617902,
				"z": 0.8691837504,
				"element": "C" 
			},
			{
				"x": 1.9805282424,
				"y": 0.2722005994,
				"z": -0.566734906,
				"element": "C" 
			},
			{
				"x": 1.1249365814,
				"y": 0.8634310907,
				"z": -1.1924320855,
				"element": "O" 
			},
			{
				"x": 2.7366458121,
				"y": -0.7252263355,
				"z": -1.0815843111,
				"element": "O" 
			},
			{
				"x": 2.495235117,
				"y": -1.0763418292,
				"z": -2.4637862483,
				"element": "C" 
			},
			{
				"x": 1.3723974743,
				"y": -2.1005042092,
				"z": -2.5950912778,
				"element": "C" 
			},
			{
				"x": 1.1780613787,
				"y": -2.5476358394,
				"z": -4.0478656429,
				"element": "C" 
			},
			{
				"x": -0.5164125509,
				"y": 1.9491706181,
				"z": 3.6531933,
				"element": "H" 
			},
			{
				"x": -1.8706478522,
				"y": 1.0841460928,
				"z": 2.9140068635,
				"element": "H" 
			},
			{
				"x": -1.1914859697,
				"y": 2.5093983112,
				"z": 2.1176142988,
				"element": "H" 
			},
			{
				"x": 0.2556236944,
				"y": -0.1802323273,
				"z": 2.5229156159,
				"element": "H" 
			},
			{
				"x": -0.4104603193,
				"y": 0.3916487089,
				"z": 0.9969605421,
				"element": "H" 
			},
			{
				"x": 1.1666748669,
				"y": 2.3319113199,
				"z": 1.0205396549,
				"element": "H" 
			},
			{
				"x": 1.8325780223,
				"y": 1.7772020334,
				"z": 2.5544166787,
				"element": "H" 
			},
			{
				"x": 2.5473237632,
				"y": -0.3935684847,
				"z": 1.3799205424,
				"element": "H" 
			},
			{
				"x": 3.3614569141,
				"y": 1.0516099119,
				"z": 0.8277310117,
				"element": "H" 
			},
			{
				"x": 3.4464014307,
				"y": -1.4863652162,
				"z": -2.8153960757,
				"element": "H" 
			},
			{
				"x": 2.2618044394,
				"y": -0.1686098114,
				"z": -3.0269728263,
				"element": "H" 
			},
			{
				"x": 0.4480957824,
				"y": -1.6553834885,
				"z": -2.2119773253,
				"element": "H" 
			},
			{
				"x": 1.6048694197,
				"y": -2.9638947841,
				"z": -1.9602660248,
				"element": "H" 
			},
			{
				"x": 0.3709585349,
				"y": -3.2819342224,
				"z": -4.126487504,
				"element": "H" 
			},
			{
				"x": 2.0868383554,
				"y": -3.0096003084,
				"z": -4.4504611359,
				"element": "H" 
			},
			{
				"x": 0.9201022348,
				"y": -1.7013620193,
				"z": -4.6940540129,
				"element": "H" 
			}
		],
		 "valence_orbital": [ 
			{
				"type": "occ",
				"energy": -0.33069,
				"method": "rhf"
			},
			{
				"type": "occ",
				"energy": -0.32352,
				"method": "rhf"
			},
			{
				"type": "occ",
				"energy": -0.32027,
				"method": "rhf"
			},
			{
				"type": "occ",
				"energy": -0.29111,
				"method": "rhf"
			},
			{
				"type": "occ",
				"energy": -0.26695,
				"method": "rhf"
			},
			{
				"type": "unocc",
				"energy": 0.01643,
				"method": "rhf"
			},
			{
				"type": "unocc",
				"energy": 0.09027,
				"method": "rhf"
			},
			{
				"type": "unocc",
				"energy": 0.09917,
				"method": "rhf"
			},
			{
				"type": "unocc",
				"energy": 0.11546,
				"method": "rhf"
			},
			{
				"type": "unocc",
				"energy": 0.12508,
				"method": "rhf"
			}
		],
		"cosmo_sigma_profile": { 
			"-0.025": 0.0,
			"-0.024": 0.0,
			"-0.023": 0.0,
			"-0.022": 0.0,
			"-0.021": 0.0,
			"-0.02": 0.0,
			"-0.019": 0.0,
			"-0.018": 0.0,
			"-0.017": 0.0,
			"-0.016": 0.0,
			"-0.015": 0.0,
			"-0.014": 0.0,
			"-0.013": 0.0,
			"-0.012": 0.0,
			"-0.011": 0.0,
			"-0.01": 0.0,
			"-0.009": 0.0,
			"-0.008": 0.0,
			"-0.007": 0.0109480495591,
			"-0.006": 2.33584324509,
			"-0.005": 6.41732467191,
			"-0.004": 10.6114023076,
			"-0.003": 26.03040381,
			"-0.002": 36.907217295,
			"-0.001": 36.781351759,
			"0.0": 31.3484751844,
			"0.001": 27.5107726986,
			"0.002": 10.6654580081,
			"0.003": 3.79798202997,
			"0.004": 3.16660731356,
			"0.005": 3.35353136151,
			"0.006": 2.80917512286,
			"0.007": 3.23635249741,
			"0.008": 2.3662449115,
			"0.009": 2.40408704079,
			"0.01": 2.61087755963,
			"0.011": 1.61046743953,
			"0.012": 3.99223975459,
			"0.013": 1.25773511235,
			"0.014": 0.0,
			"0.015": 0.0,
			"0.016": 0.0,
			"0.017": 0.0,
			"0.018": 0.0,
			"0.019": 0.0,
			"0.02": 0.0,
			"0.021": 0.0,
			"0.022": 0.0,
			"0.023": 0.0,
			"0.024": 0.0,
			"0.025": 0.0
		}
	}
}
