{
	 "smiles": "COC1=C(O)C(=CC=C1)C(N)=O", 
	 "Tm": 429.15, 
	 "num_atms": 21, 
	 "gaussian": { 
		 "optdone": 1, 
		 "sigma_profile": "yes", 
		 "theory": "DFT", 
		 "functional": "B3LYP", 
		 "basiset": "6-31G**", 
		 "properties": { 
			 "R2extent": 2357.0262, 
			 "electric_dipole_moment_norm": 5.88359240685, 
			 "electric_quadrupole_moment_norm": 14.1561939571, 
			 "total_energy": -590.705697013, 
			 "HOMO_LUMO_gap": 0.19244, 
			 "cosmo_polarized_energy": -14.58, 
			 "cosmo_cavitation_energy": 24.67, 
			 "cosmo_dispersion_energy": -18.85, 
			 "cosmo_repulsion_energy": 1.5, 
			 "cosmo_total_nonelectrostatic_energy": 7.32, 
			 "SMD_solvation_energy": 5.96 
		},
		"coords": [
			{
				"x": 2.9467943528,
				"y": -1.7282197573,
				"z": -1.1539903141,
				"element": "C" 
			},
			{
				"x": 2.0526721796,
				"y": -0.7827996014,
				"z": -0.5845629702,
				"element": "O" 
			},
			{
				"x": 0.702710875,
				"y": -0.9525715793,
				"z": -0.7962789612,
				"element": "C" 
			},
			{
				"x": -0.083031447,
				"y": 0.0467562581,
				"z": -0.1833414026,
				"element": "C" 
			},
			{
				"x": 0.5679066537,
				"y": 1.0249080153,
				"z": 0.5196201149,
				"element": "O" 
			},
			{
				"x": -1.4779942337,
				"y": 0.0201436353,
				"z": -0.3024723529,
				"element": "C" 
			},
			{
				"x": -2.0607969345,
				"y": -1.0235787079,
				"z": -1.0444135055,
				"element": "C" 
			},
			{
				"x": -1.2873699727,
				"y": -2.0039518413,
				"z": -1.6455497528,
				"element": "C" 
			},
			{
				"x": 0.109464136,
				"y": -1.9752766011,
				"z": -1.5249922063,
				"element": "C" 
			},
			{
				"x": -2.4352005637,
				"y": 1.0215871906,
				"z": 0.2991510337,
				"element": "C" 
			},
			{
				"x": -1.9012699427,
				"y": 2.0436853472,
				"z": 1.0222246226,
				"element": "N" 
			},
			{
				"x": -3.6472435771,
				"y": 0.9068363945,
				"z": 0.1349704397,
				"element": "O" 
			},
			{
				"x": 2.8671165971,
				"y": -1.7421242436,
				"z": -2.2478981222,
				"element": "H" 
			},
			{
				"x": 2.75997303,
				"y": -2.7366696238,
				"z": -0.7650071404,
				"element": "H" 
			},
			{
				"x": 3.950204835,
				"y": -1.4101142078,
				"z": -0.8681287157,
				"element": "H" 
			},
			{
				"x": 1.5173003205,
				"y": 0.8314220112,
				"z": 0.4587092361,
				"element": "H" 
			},
			{
				"x": -3.1420401321,
				"y": -1.0223390931,
				"z": -1.1220056081,
				"element": "H" 
			},
			{
				"x": -1.7581097269,
				"y": -2.8001473174,
				"z": -2.2134750353,
				"element": "H" 
			},
			{
				"x": 0.7143926895,
				"y": -2.7420531531,
				"z": -1.9952028071,
				"element": "H" 
			},
			{
				"x": -2.5492080184,
				"y": 2.7060026939,
				"z": 1.4189539094,
				"element": "H" 
			},
			{
				"x": -0.9071711202,
				"y": 2.141004181,
				"z": 1.1589895378,
				"element": "H" 
			}
		],
		 "valence_orbital": [ 
			{
				"type": "occ",
				"energy": -0.32416,
				"method": "rhf"
			},
			{
				"type": "occ",
				"energy": -0.25084,
				"method": "rhf"
			},
			{
				"type": "occ",
				"energy": -0.24266,
				"method": "rhf"
			},
			{
				"type": "occ",
				"energy": -0.23878,
				"method": "rhf"
			},
			{
				"type": "occ",
				"energy": -0.21751,
				"method": "rhf"
			},
			{
				"type": "unocc",
				"energy": -0.02507,
				"method": "rhf"
			},
			{
				"type": "unocc",
				"energy": 0.01098,
				"method": "rhf"
			},
			{
				"type": "unocc",
				"energy": 0.0644,
				"method": "rhf"
			},
			{
				"type": "unocc",
				"energy": 0.08019,
				"method": "rhf"
			},
			{
				"type": "unocc",
				"energy": 0.0864,
				"method": "rhf"
			}
		],
		"cosmo_sigma_profile": { 
			"-0.025": 0.0,
			"-0.024": 0.0,
			"-0.023": 0.0,
			"-0.022": 0.0,
			"-0.021": 0.0,
			"-0.02": 0.0,
			"-0.019": 0.0,
			"-0.018": 0.0,
			"-0.017": 0.0,
			"-0.016": 0.0,
			"-0.015": 0.0477458652692,
			"-0.014": 0.967857287482,
			"-0.013": 1.7927192968,
			"-0.012": 1.55290630271,
			"-0.011": 1.82843974483,
			"-0.01": 1.86952457267,
			"-0.009": 2.29809381238,
			"-0.008": 1.88403567863,
			"-0.007": 5.69101016773,
			"-0.006": 12.8573235402,
			"-0.005": 13.8006431959,
			"-0.004": 15.5138113743,
			"-0.003": 13.4733851048,
			"-0.002": 8.78746026067,
			"-0.001": 8.57956587618,
			"0.0": 11.0099249843,
			"0.001": 17.1041933199,
			"0.002": 15.9021942806,
			"0.003": 14.4201655512,
			"0.004": 14.6964142524,
			"0.005": 10.3284503323,
			"0.006": 3.28422506328,
			"0.007": 1.02052373974,
			"0.008": 1.50732729175,
			"0.009": 1.97677062956,
			"0.01": 1.31197775465,
			"0.011": 1.00109529883,
			"0.012": 1.86279454744,
			"0.013": 2.58907967635,
			"0.014": 5.52146077281,
			"0.015": 1.76148708662,
			"0.016": 0.0226936006987,
			"0.017": 0.0,
			"0.018": 0.0,
			"0.019": 0.0,
			"0.02": 0.0,
			"0.021": 0.0,
			"0.022": 0.0,
			"0.023": 0.0,
			"0.024": 0.0,
			"0.025": 0.0
		}
	}
}
