{
	 "smiles": "O=C(CN1CCNCC1)N1CCC2=C1C=CC=C2", 
	 "Tm": 413.15, 
	 "num_atms": 37, 
	 "gaussian": { 
		 "optdone": 1, 
		 "sigma_profile": "yes", 
		 "theory": "DFT", 
		 "functional": "B3LYP", 
		 "basiset": "6-31G**", 
		 "properties": { 
			 "R2extent": 6569.9605, 
			 "electric_dipole_moment_norm": 3.83580517232, 
			 "electric_quadrupole_moment_norm": 10.6938287774, 
			 "total_energy": -784.402023312, 
			 "HOMO_LUMO_gap": 0.18138, 
			 "cosmo_polarized_energy": -17.08, 
			 "cosmo_cavitation_energy": 37.11, 
			 "cosmo_dispersion_energy": -27.39, 
			 "cosmo_repulsion_energy": 2.1, 
			 "cosmo_total_nonelectrostatic_energy": 11.82, 
			 "SMD_solvation_energy": 0.7 
		},
		"coords": [
			{
				"x": -0.8843426971,
				"y": 0.5552123102,
				"z": 1.0499526685,
				"element": "O" 
			},
			{
				"x": 0.3040278431,
				"y": 0.4829843338,
				"z": 0.7678899596,
				"element": "C" 
			},
			{
				"x": 1.1896758893,
				"y": 1.7335637181,
				"z": 0.6175563573,
				"element": "C" 
			},
			{
				"x": 0.5185367353,
				"y": 2.9347519852,
				"z": 1.0564130543,
				"element": "N" 
			},
			{
				"x": 1.4104135081,
				"y": 4.021844403,
				"z": 1.4470559545,
				"element": "C" 
			},
			{
				"x": 2.0810292722,
				"y": 4.7323146648,
				"z": 0.2399532871,
				"element": "C" 
			},
			{
				"x": 1.2078954764,
				"y": 4.7694699072,
				"z": -0.9463886932,
				"element": "N" 
			},
			{
				"x": -0.2067058134,
				"y": 4.7084525063,
				"z": -0.5711580326,
				"element": "C" 
			},
			{
				"x": -0.5791114267,
				"y": 3.410435672,
				"z": 0.1893465415,
				"element": "C" 
			},
			{
				"x": 0.940369758,
				"y": -0.717252433,
				"z": 0.5255430397,
				"element": "N" 
			},
			{
				"x": 2.3914929651,
				"y": -0.8655547527,
				"z": 0.2664158508,
				"element": "C" 
			},
			{
				"x": 2.5732447545,
				"y": -2.3445574544,
				"z": -0.1496751728,
				"element": "C" 
			},
			{
				"x": 1.2734260003,
				"y": -2.9878563757,
				"z": 0.2756156995,
				"element": "C" 
			},
			{
				"x": 0.3428035543,
				"y": -1.9996444217,
				"z": 0.6275909446,
				"element": "C" 
			},
			{
				"x": -0.9574845412,
				"y": -2.3344104025,
				"z": 1.0132707876,
				"element": "C" 
			},
			{
				"x": -1.2972982478,
				"y": -3.6913038446,
				"z": 1.0453346022,
				"element": "C" 
			},
			{
				"x": -0.3766404823,
				"y": -4.6841254118,
				"z": 0.7035430062,
				"element": "C" 
			},
			{
				"x": 0.9199492011,
				"y": -4.3303449547,
				"z": 0.3117003926,
				"element": "C" 
			},
			{
				"x": 2.0893883111,
				"y": 1.5990493268,
				"z": 1.2308115394,
				"element": "H" 
			},
			{
				"x": 1.5461820164,
				"y": 1.7617734835,
				"z": -0.4344389537,
				"element": "H" 
			},
			{
				"x": 0.8137597723,
				"y": 4.7478186327,
				"z": 2.0138271106,
				"element": "H" 
			},
			{
				"x": 2.1672553014,
				"y": 3.6412794204,
				"z": 2.1426190256,
				"element": "H" 
			},
			{
				"x": 2.3542380313,
				"y": 5.7580565069,
				"z": 0.5295260209,
				"element": "H" 
			},
			{
				"x": 3.0143677137,
				"y": 4.2292485897,
				"z": -0.0369596406,
				"element": "H" 
			},
			{
				"x": 1.4219308521,
				"y": 3.9795838073,
				"z": -1.5491453452,
				"element": "H" 
			},
			{
				"x": -0.4239005421,
				"y": 5.5908670132,
				"z": 0.0440078907,
				"element": "H" 
			},
			{
				"x": -0.8241625664,
				"y": 4.8050405959,
				"z": -1.4710122473,
				"element": "H" 
			},
			{
				"x": -1.4880159882,
				"y": 3.5642249757,
				"z": 0.7875083734,
				"element": "H" 
			},
			{
				"x": -0.8205061351,
				"y": 2.6191624252,
				"z": -0.525838012,
				"element": "H" 
			},
			{
				"x": 2.9584517291,
				"y": -0.6418867441,
				"z": 1.1791901564,
				"element": "H" 
			},
			{
				"x": 2.7197136018,
				"y": -0.1728835442,
				"z": -0.511961819,
				"element": "H" 
			},
			{
				"x": 2.7164354505,
				"y": -2.4330691202,
				"z": -1.2339402368,
				"element": "H" 
			},
			{
				"x": 3.4514107013,
				"y": -2.7903404909,
				"z": 0.3272367626,
				"element": "H" 
			},
			{
				"x": -1.664170315,
				"y": -1.5611624775,
				"z": 1.276912677,
				"element": "H" 
			},
			{
				"x": -2.3023896636,
				"y": -3.9719781558,
				"z": 1.3472841574,
				"element": "H" 
			},
			{
				"x": -0.6653330947,
				"y": -5.7302502353,
				"z": 0.7402544569,
				"element": "H" 
			},
			{
				"x": 1.641463075,
				"y": -5.0961134588,
				"z": 0.0386578362,
				"element": "H" 
			}
		],
		 "valence_orbital": [ 
			{
				"type": "occ",
				"energy": -0.24865,
				"method": "rhf"
			},
			{
				"type": "occ",
				"energy": -0.24386,
				"method": "rhf"
			},
			{
				"type": "occ",
				"energy": -0.2349,
				"method": "rhf"
			},
			{
				"type": "occ",
				"energy": -0.20898,
				"method": "rhf"
			},
			{
				"type": "occ",
				"energy": -0.1879,
				"method": "rhf"
			},
			{
				"type": "unocc",
				"energy": -0.00652,
				"method": "rhf"
			},
			{
				"type": "unocc",
				"energy": -0.00029,
				"method": "rhf"
			},
			{
				"type": "unocc",
				"energy": 0.04297,
				"method": "rhf"
			},
			{
				"type": "unocc",
				"energy": 0.05736,
				"method": "rhf"
			},
			{
				"type": "unocc",
				"energy": 0.08555,
				"method": "rhf"
			}
		],
		"cosmo_sigma_profile": { 
			"-0.025": 0.0,
			"-0.024": 0.0,
			"-0.023": 0.0,
			"-0.022": 0.0,
			"-0.021": 0.0,
			"-0.02": 0.0,
			"-0.019": 0.0,
			"-0.018": 0.0,
			"-0.017": 0.0,
			"-0.016": 0.0,
			"-0.015": 0.0,
			"-0.014": 0.0,
			"-0.013": 0.0,
			"-0.012": 0.0,
			"-0.011": 0.0,
			"-0.01": 0.0604493331575,
			"-0.009": 1.20607720671,
			"-0.008": 1.88944698372,
			"-0.007": 4.59671778926,
			"-0.006": 13.6718993527,
			"-0.005": 25.9319815733,
			"-0.004": 29.5147093484,
			"-0.003": 37.849720377,
			"-0.002": 31.0744652322,
			"-0.001": 27.3125420304,
			"0.0": 17.3543169027,
			"0.001": 11.3026369069,
			"0.002": 12.2301495187,
			"0.003": 11.1121528131,
			"0.004": 11.9767727258,
			"0.005": 12.3625258633,
			"0.006": 10.9876957747,
			"0.007": 4.71507538972,
			"0.008": 2.26485411816,
			"0.009": 2.73814657908,
			"0.01": 3.31515589441,
			"0.011": 2.64427715896,
			"0.012": 2.64367351064,
			"0.013": 3.43876618316,
			"0.014": 2.94907357421,
			"0.015": 1.76837758684,
			"0.016": 1.56399749695,
			"0.017": 1.47849695779,
			"0.018": 0.425002283084,
			"0.019": 0.381723226838,
			"0.02": 0.0,
			"0.021": 0.0,
			"0.022": 0.0,
			"0.023": 0.0,
			"0.024": 0.0,
			"0.025": 0.0
		}
	}
}
