{
	 "smiles": "NC1=CC=C(C=C1)S(=O)(=O)C(F)(F)F", 
	 "Tm": 368.15, 
	 "num_atms": 20, 
	 "gaussian": { 
		 "optdone": 1, 
		 "sigma_profile": "yes", 
		 "theory": "DFT", 
		 "functional": "B3LYP", 
		 "basiset": "6-31G**", 
		 "properties": { 
			 "R2extent": 3396.8438, 
			 "electric_dipole_moment_norm": 7.48746810411, 
			 "electric_quadrupole_moment_norm": 16.4389257678, 
			 "total_energy": -1173.19068251, 
			 "HOMO_LUMO_gap": 0.19689, 
			 "cosmo_polarized_energy": -15.57, 
			 "cosmo_cavitation_energy": 27.59, 
			 "cosmo_dispersion_energy": -19.86, 
			 "cosmo_repulsion_energy": 1.47, 
			 "cosmo_total_nonelectrostatic_energy": 9.2, 
			 "SMD_solvation_energy": 5.16 
		},
		"coords": [
			{
				"x": 2.6815863081,
				"y": 0.5679605454,
				"z": 3.436429297,
				"element": "N" 
			},
			{
				"x": 1.971959366,
				"y": 0.200041229,
				"z": 2.3146196076,
				"element": "C" 
			},
			{
				"x": 0.6771235149,
				"y": 0.7135109706,
				"z": 2.084815687,
				"element": "C" 
			},
			{
				"x": -0.0201365667,
				"y": 0.3795451258,
				"z": 0.9346398869,
				"element": "C" 
			},
			{
				"x": 0.5661390167,
				"y": -0.4774104686,
				"z": -0.0052584882,
				"element": "C" 
			},
			{
				"x": 1.848304059,
				"y": -1.0001459244,
				"z": 0.2052823999,
				"element": "C" 
			},
			{
				"x": 2.5435699905,
				"y": -0.6647224049,
				"z": 1.3562220681,
				"element": "C" 
			},
			{
				"x": -0.3250536485,
				"y": -0.9088753235,
				"z": -1.4722093689,
				"element": "S" 
			},
			{
				"x": 0.2128880245,
				"y": -2.156368207,
				"z": -2.0249273144,
				"element": "O" 
			},
			{
				"x": -1.7602183647,
				"y": -0.6984038098,
				"z": -1.2551553885,
				"element": "O" 
			},
			{
				"x": 0.193622281,
				"y": 0.4301876787,
				"z": -2.6795441717,
				"element": "C" 
			},
			{
				"x": -0.4125280162,
				"y": 0.2233343947,
				"z": -3.847595178,
				"element": "F" 
			},
			{
				"x": -0.1540031239,
				"y": 1.6316840514,
				"z": -2.2049581303,
				"element": "F" 
			},
			{
				"x": 1.5194985525,
				"y": 0.3973284237,
				"z": -2.8548650785,
				"element": "F" 
			},
			{
				"x": 2.1674644438,
				"y": 0.9583359279,
				"z": 4.2114155004,
				"element": "H" 
			},
			{
				"x": 3.4692205096,
				"y": -0.0028331486,
				"z": 3.7031577507,
				"element": "H" 
			},
			{
				"x": 0.2254063462,
				"y": 1.3744217867,
				"z": 2.8194037257,
				"element": "H" 
			},
			{
				"x": -1.0217658131,
				"y": 0.7595823202,
				"z": 0.7656191429,
				"element": "H" 
			},
			{
				"x": 2.2796288066,
				"y": -1.6781838976,
				"z": -0.5230598702,
				"element": "H" 
			},
			{
				"x": 3.5367943136,
				"y": -1.0707892695,
				"z": 1.5267679223,
				"element": "H" 
			}
		],
		 "valence_orbital": [ 
			{
				"type": "occ",
				"energy": -0.32591,
				"method": "rhf"
			},
			{
				"type": "occ",
				"energy": -0.3096,
				"method": "rhf"
			},
			{
				"type": "occ",
				"energy": -0.29602,
				"method": "rhf"
			},
			{
				"type": "occ",
				"energy": -0.27802,
				"method": "rhf"
			},
			{
				"type": "occ",
				"energy": -0.23535,
				"method": "rhf"
			},
			{
				"type": "unocc",
				"energy": -0.03846,
				"method": "rhf"
			},
			{
				"type": "unocc",
				"energy": -0.02564,
				"method": "rhf"
			},
			{
				"type": "unocc",
				"energy": 0.05089,
				"method": "rhf"
			},
			{
				"type": "unocc",
				"energy": 0.06058,
				"method": "rhf"
			},
			{
				"type": "unocc",
				"energy": 0.07249,
				"method": "rhf"
			}
		],
		"cosmo_sigma_profile": { 
			"-0.025": 0.0,
			"-0.024": 0.0,
			"-0.023": 0.0,
			"-0.022": 0.0,
			"-0.021": 0.0,
			"-0.02": 0.0,
			"-0.019": 0.0,
			"-0.018": 0.0,
			"-0.017": 0.0,
			"-0.016": 0.0,
			"-0.015": 0.0,
			"-0.014": 1.65603771277,
			"-0.013": 3.31775372029,
			"-0.012": 2.74624324197,
			"-0.011": 3.49422291768,
			"-0.01": 3.19367180039,
			"-0.009": 2.95258600459,
			"-0.008": 3.74828553038,
			"-0.007": 7.71829342443,
			"-0.006": 7.37247329556,
			"-0.005": 9.0857240283,
			"-0.004": 6.15904950551,
			"-0.003": 7.15205585255,
			"-0.002": 10.1274297433,
			"-0.001": 14.5404513497,
			"0.0": 22.2938376539,
			"0.001": 40.9735178636,
			"0.002": 17.2550502599,
			"0.003": 15.5822020685,
			"0.004": 5.52614293064,
			"0.005": 3.73193894873,
			"0.006": 3.85789098169,
			"0.007": 3.75333513577,
			"0.008": 4.00082432764,
			"0.009": 7.89567981004,
			"0.01": 9.52839368891,
			"0.011": 3.30698672424,
			"0.012": 0.0,
			"0.013": 0.0,
			"0.014": 0.0,
			"0.015": 0.0,
			"0.016": 0.0,
			"0.017": 0.0,
			"0.018": 0.0,
			"0.019": 0.0,
			"0.02": 0.0,
			"0.021": 0.0,
			"0.022": 0.0,
			"0.023": 0.0,
			"0.024": 0.0,
			"0.025": 0.0
		}
	}
}
