{
	 "smiles": "CC1=C(NC(=O)C2=C(F)C=CC=C2)C=C(C=C1)C(O)=O", 
	 "Tm": 542.15, 
	 "num_atms": 32, 
	 "gaussian": { 
		 "optdone": 1, 
		 "sigma_profile": "yes", 
		 "theory": "DFT", 
		 "functional": "B3LYP", 
		 "basiset": "6-31G**", 
		 "properties": { 
			 "R2extent": 5616.9186, 
			 "electric_dipole_moment_norm": 2.68881484859, 
			 "electric_quadrupole_moment_norm": 27.8584942124, 
			 "total_energy": -959.121882054, 
			 "HOMO_LUMO_gap": 0.18193, 
			 "cosmo_polarized_energy": -18.86, 
			 "cosmo_cavitation_energy": 37.81, 
			 "cosmo_dispersion_energy": -25.23, 
			 "cosmo_repulsion_energy": 1.93, 
			 "cosmo_total_nonelectrostatic_energy": 14.52, 
			 "SMD_solvation_energy": 8.82 
		},
		"coords": [
			{
				"x": -1.2312855321,
				"y": 2.8054390265,
				"z": -2.0326744931,
				"element": "C" 
			},
			{
				"x": -0.8463284267,
				"y": 2.23203356,
				"z": -0.6921290423,
				"element": "C" 
			},
			{
				"x": -0.1544012376,
				"y": 1.0034043618,
				"z": -0.6031995439,
				"element": "C" 
			},
			{
				"x": 0.1908476104,
				"y": 0.3366002441,
				"z": -1.8051294697,
				"element": "N" 
			},
			{
				"x": 0.3255927966,
				"y": -1.0142107117,
				"z": -2.0874391497,
				"element": "C" 
			},
			{
				"x": 0.9433680645,
				"y": -1.3732196781,
				"z": -3.0785736973,
				"element": "O" 
			},
			{
				"x": -0.3957748504,
				"y": -1.9939101131,
				"z": -1.2073237911,
				"element": "C" 
			},
			{
				"x": 0.2410600997,
				"y": -3.1664369792,
				"z": -0.7871225916,
				"element": "C" 
			},
			{
				"x": 1.5484037047,
				"y": -3.3380154516,
				"z": -1.0483454049,
				"element": "F" 
			},
			{
				"x": -0.4249836325,
				"y": -4.1534932011,
				"z": -0.070207796,
				"element": "C" 
			},
			{
				"x": -1.7767192799,
				"y": -3.9793465991,
				"z": 0.225996376,
				"element": "C" 
			},
			{
				"x": -2.4433913233,
				"y": -2.8227684422,
				"z": -0.1852585906,
				"element": "C" 
			},
			{
				"x": -1.7533324999,
				"y": -1.8387936851,
				"z": -0.8907381182,
				"element": "C" 
			},
			{
				"x": 0.2147540014,
				"y": 0.4906485491,
				"z": 0.6439835126,
				"element": "C" 
			},
			{
				"x": -0.133285988,
				"y": 1.1709194459,
				"z": 1.8154338567,
				"element": "C" 
			},
			{
				"x": -0.8246234,
				"y": 2.3852552631,
				"z": 1.7393018645,
				"element": "C" 
			},
			{
				"x": -1.1626726148,
				"y": 2.9047028626,
				"z": 0.4946689241,
				"element": "C" 
			},
			{
				"x": 0.2309295502,
				"y": 0.6550697115,
				"z": 3.1612655725,
				"element": "C" 
			},
			{
				"x": 0.9140156172,
				"y": -0.5160260023,
				"z": 3.116312235,
				"element": "O" 
			},
			{
				"x": -0.041209867,
				"y": 1.203669258,
				"z": 4.2111433649,
				"element": "O" 
			},
			{
				"x": -1.8913388908,
				"y": 3.667678961,
				"z": -1.9133511722,
				"element": "H" 
			},
			{
				"x": -0.3535737232,
				"y": 3.1451658146,
				"z": -2.5991770048,
				"element": "H" 
			},
			{
				"x": -1.7420004868,
				"y": 2.0618919008,
				"z": -2.6541810331,
				"element": "H" 
			},
			{
				"x": 0.5785380424,
				"y": 0.9037915037,
				"z": -2.5503015921,
				"element": "H" 
			},
			{
				"x": 0.1224919819,
				"y": -5.0363885435,
				"z": 0.2411753666,
				"element": "H" 
			},
			{
				"x": -2.3067410512,
				"y": -4.7481481283,
				"z": 0.7800532414,
				"element": "H" 
			},
			{
				"x": -3.496221552,
				"y": -2.6886801013,
				"z": 0.0413216404,
				"element": "H" 
			},
			{
				"x": -2.2691494191,
				"y": -0.9406245629,
				"z": -1.2148208616,
				"element": "H" 
			},
			{
				"x": 0.7778632731,
				"y": -0.4313059883,
				"z": 0.7069420659,
				"element": "H" 
			},
			{
				"x": -1.0798317664,
				"y": 2.902511539,
				"z": 2.6573774392,
				"element": "H" 
			},
			{
				"x": -1.6953374622,
				"y": 3.8497859142,
				"z": 0.4337022806,
				"element": "H" 
			},
			{
				"x": 1.0977382616,
				"y": -0.7501997281,
				"z": 4.0406956118,
				"element": "H" 
			}
		],
		 "valence_orbital": [ 
			{
				"type": "occ",
				"energy": -0.27467,
				"method": "rhf"
			},
			{
				"type": "occ",
				"energy": -0.26302,
				"method": "rhf"
			},
			{
				"type": "occ",
				"energy": -0.25918,
				"method": "rhf"
			},
			{
				"type": "occ",
				"energy": -0.24918,
				"method": "rhf"
			},
			{
				"type": "occ",
				"energy": -0.23549,
				"method": "rhf"
			},
			{
				"type": "unocc",
				"energy": -0.05356,
				"method": "rhf"
			},
			{
				"type": "unocc",
				"energy": -0.03943,
				"method": "rhf"
			},
			{
				"type": "unocc",
				"energy": -0.01728,
				"method": "rhf"
			},
			{
				"type": "unocc",
				"energy": -0.0083,
				"method": "rhf"
			},
			{
				"type": "unocc",
				"energy": 0.03504,
				"method": "rhf"
			}
		],
		"cosmo_sigma_profile": { 
			"-0.025": 0.0,
			"-0.024": 0.0,
			"-0.023": 0.0,
			"-0.022": 0.0,
			"-0.021": 0.0,
			"-0.02": 0.0,
			"-0.019": 0.0515411547962,
			"-0.018": 0.811196571574,
			"-0.017": 0.82985797675,
			"-0.016": 0.804309253661,
			"-0.015": 1.14368795452,
			"-0.014": 0.909881577609,
			"-0.013": 1.48501481869,
			"-0.012": 1.49454804759,
			"-0.011": 2.35267844391,
			"-0.01": 1.77358389946,
			"-0.009": 1.50061728141,
			"-0.008": 2.57299447921,
			"-0.007": 8.8992670817,
			"-0.006": 16.9443826481,
			"-0.005": 19.9998696825,
			"-0.004": 18.8035402829,
			"-0.003": 19.5005570353,
			"-0.002": 20.8775856179,
			"-0.001": 22.9150815128,
			"0.0": 22.1705474101,
			"0.001": 22.5433443609,
			"0.002": 23.6816936177,
			"0.003": 27.1184408165,
			"0.004": 16.6719225843,
			"0.005": 6.34011894496,
			"0.006": 4.1651328187,
			"0.007": 4.84532932117,
			"0.008": 4.39560902084,
			"0.009": 3.05224373046,
			"0.01": 3.02132944285,
			"0.011": 7.00066898658,
			"0.012": 8.50975187356,
			"0.013": 4.58237570228,
			"0.014": 0.44310537575,
			"0.015": 0.0,
			"0.016": 0.0,
			"0.017": 0.0,
			"0.018": 0.0,
			"0.019": 0.0,
			"0.02": 0.0,
			"0.021": 0.0,
			"0.022": 0.0,
			"0.023": 0.0,
			"0.024": 0.0,
			"0.025": 0.0
		}
	}
}
