{
	 "smiles": "CC(C)(C(=O)C1=CC=CN=C1)C1=CC=CN=C1", 
	 "Tm": 323.65, 
	 "num_atms": 31, 
	 "gaussian": { 
		 "optdone": 1, 
		 "sigma_profile": "yes", 
		 "theory": "DFT", 
		 "functional": "B3LYP", 
		 "basiset": "6-31G**", 
		 "properties": { 
			 "R2extent": 4671.9854, 
			 "electric_dipole_moment_norm": 1.84183822308, 
			 "electric_quadrupole_moment_norm": 23.408412909, 
			 "total_energy": -726.641545818, 
			 "HOMO_LUMO_gap": 0.17601, 
			 "cosmo_polarized_energy": -12.64, 
			 "cosmo_cavitation_energy": 33.63, 
			 "cosmo_dispersion_energy": -23.37, 
			 "cosmo_repulsion_energy": 1.79, 
			 "cosmo_total_nonelectrostatic_energy": 12.05, 
			 "SMD_solvation_energy": 3.39 
		},
		"coords": [
			{
				"x": -2.3856538608,
				"y": 0.511780334,
				"z": 1.0237416547,
				"element": "C" 
			},
			{
				"x": -1.3335240649,
				"y": -0.5976153922,
				"z": 0.7950793132,
				"element": "C" 
			},
			{
				"x": -2.0784866576,
				"y": -1.9418892894,
				"z": 0.6191106971,
				"element": "C" 
			},
			{
				"x": -0.4338486845,
				"y": -0.6867699081,
				"z": 2.0612543461,
				"element": "C" 
			},
			{
				"x": -0.5962900128,
				"y": 0.1036388196,
				"z": 2.9785394125,
				"element": "O" 
			},
			{
				"x": 0.6101337887,
				"y": -1.7608354687,
				"z": 2.2059672056,
				"element": "C" 
			},
			{
				"x": 1.1702896142,
				"y": -2.5049600204,
				"z": 1.1583464764,
				"element": "C" 
			},
			{
				"x": 2.1413969023,
				"y": -3.4594308436,
				"z": 1.4520824692,
				"element": "C" 
			},
			{
				"x": 2.5177287983,
				"y": -3.6441222653,
				"z": 2.7824299551,
				"element": "C" 
			},
			{
				"x": 1.9972900135,
				"y": -2.9478324141,
				"z": 3.8030977437,
				"element": "N" 
			},
			{
				"x": 1.0743282106,
				"y": -2.0303913681,
				"z": 3.507385872,
				"element": "C" 
			},
			{
				"x": -0.4771071471,
				"y": -0.2055466916,
				"z": -0.4172814697,
				"element": "C" 
			},
			{
				"x": 0.4363092704,
				"y": 0.8555119808,
				"z": -0.3218541957,
				"element": "C" 
			},
			{
				"x": 1.1723704138,
				"y": 1.2342498064,
				"z": -1.4400328131,
				"element": "C" 
			},
			{
				"x": 0.9727313914,
				"y": 0.5414264617,
				"z": -2.6356081526,
				"element": "C" 
			},
			{
				"x": 0.1069993158,
				"y": -0.4696918903,
				"z": -2.7584661852,
				"element": "N" 
			},
			{
				"x": -0.592646186,
				"y": -0.8224039916,
				"z": -1.6711890803,
				"element": "C" 
			},
			{
				"x": -3.0179283558,
				"y": 0.6034627514,
				"z": 0.1355970564,
				"element": "H" 
			},
			{
				"x": -1.9141727482,
				"y": 1.4767278609,
				"z": 1.2175686631,
				"element": "H" 
			},
			{
				"x": -3.0161671536,
				"y": 0.2740604696,
				"z": 1.8845977389,
				"element": "H" 
			},
			{
				"x": -2.8297389046,
				"y": -1.8612890623,
				"z": -0.1720365039,
				"element": "H" 
			},
			{
				"x": -2.6068424849,
				"y": -2.1928481906,
				"z": 1.544011251,
				"element": "H" 
			},
			{
				"x": -1.4153812478,
				"y": -2.7751126946,
				"z": 0.3774883471,
				"element": "H" 
			},
			{
				"x": 0.8778555907,
				"y": -2.3300144223,
				"z": 0.1299127146,
				"element": "H" 
			},
			{
				"x": 2.6028955323,
				"y": -4.0456866892,
				"z": 0.6639195641,
				"element": "H" 
			},
			{
				"x": 3.2744377155,
				"y": -4.3821747814,
				"z": 3.0430065262,
				"element": "H" 
			},
			{
				"x": 0.6586596832,
				"y": -1.464303372,
				"z": 4.3365760052,
				"element": "H" 
			},
			{
				"x": 0.5685486127,
				"y": 1.3778384062,
				"z": 0.6222055521,
				"element": "H" 
			},
			{
				"x": 1.8872988997,
				"y": 2.0495945764,
				"z": -1.3886590959,
				"element": "H" 
			},
			{
				"x": 1.5312277836,
				"y": 0.809349535,
				"z": -3.5307695386,
				"element": "H" 
			},
			{
				"x": -1.2848140282,
				"y": -1.6482222463,
				"z": -1.8155215295,
				"element": "H" 
			}
		],
		 "valence_orbital": [ 
			{
				"type": "occ",
				"energy": -0.27821,
				"method": "rhf"
			},
			{
				"type": "occ",
				"energy": -0.26984,
				"method": "rhf"
			},
			{
				"type": "occ",
				"energy": -0.26723,
				"method": "rhf"
			},
			{
				"type": "occ",
				"energy": -0.25909,
				"method": "rhf"
			},
			{
				"type": "occ",
				"energy": -0.24499,
				"method": "rhf"
			},
			{
				"type": "unocc",
				"energy": -0.06898,
				"method": "rhf"
			},
			{
				"type": "unocc",
				"energy": -0.03529,
				"method": "rhf"
			},
			{
				"type": "unocc",
				"energy": -0.03092,
				"method": "rhf"
			},
			{
				"type": "unocc",
				"energy": -0.01804,
				"method": "rhf"
			},
			{
				"type": "unocc",
				"energy": 0.02121,
				"method": "rhf"
			}
		],
		"cosmo_sigma_profile": { 
			"-0.025": 0.0,
			"-0.024": 0.0,
			"-0.023": 0.0,
			"-0.022": 0.0,
			"-0.021": 0.0,
			"-0.02": 0.0,
			"-0.019": 0.0,
			"-0.018": 0.0,
			"-0.017": 0.0,
			"-0.016": 0.0,
			"-0.015": 0.0,
			"-0.014": 0.0,
			"-0.013": 0.0,
			"-0.012": 0.0,
			"-0.011": 0.0,
			"-0.01": 0.0,
			"-0.009": 0.0,
			"-0.008": 0.634127798929,
			"-0.007": 8.13107731397,
			"-0.006": 18.0314906598,
			"-0.005": 20.9813423908,
			"-0.004": 24.4551062055,
			"-0.003": 21.5844899429,
			"-0.002": 21.6887908002,
			"-0.001": 23.573021398,
			"0.0": 27.8255629427,
			"0.001": 26.6657289598,
			"0.002": 17.2959065342,
			"0.003": 9.29962594718,
			"0.004": 6.90772251432,
			"0.005": 5.06055283294,
			"0.006": 3.47969470412,
			"0.007": 4.4762012662,
			"0.008": 4.55001647867,
			"0.009": 3.54030918917,
			"0.01": 4.38522164313,
			"0.011": 4.65812793783,
			"0.012": 3.47644664899,
			"0.013": 1.90498655378,
			"0.014": 1.85850995177,
			"0.015": 1.6072609907,
			"0.016": 1.5546228146,
			"0.017": 0.308221786776,
			"0.018": 0.0,
			"0.019": 0.0,
			"0.02": 0.0,
			"0.021": 0.0,
			"0.022": 0.0,
			"0.023": 0.0,
			"0.024": 0.0,
			"0.025": 0.0
		}
	}
}
