{
	 "smiles": "O=CC1=C(OCC#N)C=CC=C1", 
	 "Tm": 353.15, 
	 "num_atms": 19, 
	 "gaussian": { 
		 "optdone": 1, 
		 "sigma_profile": "yes", 
		 "theory": "DFT", 
		 "functional": "B3LYP", 
		 "basiset": "6-31G**", 
		 "properties": { 
			 "R2extent": 2222.1828, 
			 "electric_dipole_moment_norm": 3.59973467217, 
			 "electric_quadrupole_moment_norm": 10.5148136717, 
			 "total_energy": -552.321848993, 
			 "HOMO_LUMO_gap": 0.18541, 
			 "cosmo_polarized_energy": -12.27, 
			 "cosmo_cavitation_energy": 24.7, 
			 "cosmo_dispersion_energy": -17.17, 
			 "cosmo_repulsion_energy": 1.37, 
			 "cosmo_total_nonelectrostatic_energy": 8.9, 
			 "SMD_solvation_energy": 6.91 
		},
		"coords": [
			{
				"x": -1.8962801728,
				"y": 1.2400363965,
				"z": -1.8429399017,
				"element": "O" 
			},
			{
				"x": -1.2922798897,
				"y": 0.192750409,
				"z": -1.6921401862,
				"element": "C" 
			},
			{
				"x": -0.7109586974,
				"y": -0.3259328459,
				"z": -0.4361716893,
				"element": "C" 
			},
			{
				"x": -0.9388567968,
				"y": 0.2231381583,
				"z": 0.8486382812,
				"element": "C" 
			},
			{
				"x": -1.7815281331,
				"y": 1.2907764965,
				"z": 1.0655274255,
				"element": "O" 
			},
			{
				"x": -1.3122076373,
				"y": 2.5870439436,
				"z": 0.7011051314,
				"element": "C" 
			},
			{
				"x": -0.2247795145,
				"y": 3.0482625367,
				"z": 1.5838400355,
				"element": "C" 
			},
			{
				"x": 0.6356284483,
				"y": 3.3986311546,
				"z": 2.2792221048,
				"element": "N" 
			},
			{
				"x": -0.378430636,
				"y": -0.3808056537,
				"z": 1.9742658922,
				"element": "C" 
			},
			{
				"x": 0.4189330331,
				"y": -1.5182251509,
				"z": 1.8442006194,
				"element": "C" 
			},
			{
				"x": 0.6590935972,
				"y": -2.0710706323,
				"z": 0.5842298945,
				"element": "C" 
			},
			{
				"x": 0.0867752729,
				"y": -1.4794297839,
				"z": -0.5364285392,
				"element": "C" 
			},
			{
				"x": -1.1272307468,
				"y": -0.4841072437,
				"z": -2.5592523658,
				"element": "H" 
			},
			{
				"x": -2.1711500268,
				"y": 3.2541545156,
				"z": 0.8095072883,
				"element": "H" 
			},
			{
				"x": -0.9937061635,
				"y": 2.6166809851,
				"z": -0.3443589665,
				"element": "H" 
			},
			{
				"x": -0.581211367,
				"y": 0.0572749113,
				"z": 2.9453875185,
				"element": "H" 
			},
			{
				"x": 0.8528980631,
				"y": -1.9710846532,
				"z": 2.7306656604,
				"element": "H" 
			},
			{
				"x": 1.2772441608,
				"y": -2.9569640781,
				"z": 0.4809458956,
				"element": "H" 
			},
			{
				"x": 0.2512472065,
				"y": -1.9095294654,
				"z": -1.5216440986,
				"element": "H" 
			}
		],
		 "valence_orbital": [ 
			{
				"type": "occ",
				"energy": -0.33207,
				"method": "rhf"
			},
			{
				"type": "occ",
				"energy": -0.30851,
				"method": "rhf"
			},
			{
				"type": "occ",
				"energy": -0.27944,
				"method": "rhf"
			},
			{
				"type": "occ",
				"energy": -0.26911,
				"method": "rhf"
			},
			{
				"type": "occ",
				"energy": -0.26251,
				"method": "rhf"
			},
			{
				"type": "unocc",
				"energy": -0.0771,
				"method": "rhf"
			},
			{
				"type": "unocc",
				"energy": -0.02522,
				"method": "rhf"
			},
			{
				"type": "unocc",
				"energy": 0.00794,
				"method": "rhf"
			},
			{
				"type": "unocc",
				"energy": 0.02302,
				"method": "rhf"
			},
			{
				"type": "unocc",
				"energy": 0.03741,
				"method": "rhf"
			}
		],
		"cosmo_sigma_profile": { 
			"-0.025": 0.0,
			"-0.024": 0.0,
			"-0.023": 0.0,
			"-0.022": 0.0,
			"-0.021": 0.0,
			"-0.02": 0.0,
			"-0.019": 0.0,
			"-0.018": 0.0,
			"-0.017": 0.0,
			"-0.016": 0.0,
			"-0.015": 0.0,
			"-0.014": 0.0,
			"-0.013": 0.0,
			"-0.012": 0.0,
			"-0.011": 0.140753546341,
			"-0.01": 2.73221085173,
			"-0.009": 3.72132801632,
			"-0.008": 7.31562507924,
			"-0.007": 13.5701270019,
			"-0.006": 14.1893107781,
			"-0.005": 13.636087326,
			"-0.004": 11.1797866288,
			"-0.003": 11.358651536,
			"-0.002": 9.99629535608,
			"-0.001": 9.77358332587,
			"0.0": 12.0069316581,
			"0.001": 13.2961692372,
			"0.002": 14.4467774812,
			"0.003": 12.8044768792,
			"0.004": 4.30376181099,
			"0.005": 5.80971786249,
			"0.006": 4.04887969446,
			"0.007": 6.70329601347,
			"0.008": 6.59167315728,
			"0.009": 7.39470490493,
			"0.01": 5.07385178916,
			"0.011": 4.85623520613,
			"0.012": 3.57632278088,
			"0.013": 0.929805754188,
			"0.014": 0.0,
			"0.015": 0.0,
			"0.016": 0.0,
			"0.017": 0.0,
			"0.018": 0.0,
			"0.019": 0.0,
			"0.02": 0.0,
			"0.021": 0.0,
			"0.022": 0.0,
			"0.023": 0.0,
			"0.024": 0.0,
			"0.025": 0.0
		}
	}
}
