{
	 "smiles": "BrC1=CC2=C(NC(=O)O2)C=C1", 
	 "Tm": 469.15, 
	 "num_atms": 15, 
	 "gaussian": { 
		 "optdone": 1, 
		 "sigma_profile": "yes", 
		 "theory": "DFT", 
		 "functional": "B3LYP", 
		 "basiset": "6-31G**", 
		 "properties": { 
			 "R2extent": 4134.8453, 
			 "electric_dipole_moment_norm": 3.74236422599, 
			 "electric_quadrupole_moment_norm": 13.4927334436, 
			 "total_energy": -3045.77412848, 
			 "HOMO_LUMO_gap": 0.20021, 
			 "cosmo_polarized_energy": -12.7, 
			 "cosmo_cavitation_energy": 22.38, 
			 "cosmo_dispersion_energy": -17.52, 
			 "cosmo_repulsion_energy": 1.4, 
			 "cosmo_total_nonelectrostatic_energy": 6.25, 
			 "SMD_solvation_energy": 3.93 
		},
		"coords": [
			{
				"x": 0.767487097,
				"y": 1.6616222012,
				"z": 4.381086711,
				"element": "Br" 
			},
			{
				"x": 0.2612702428,
				"y": 0.9118953025,
				"z": 2.6986062758,
				"element": "C" 
			},
			{
				"x": 0.9886449341,
				"y": 1.2725233586,
				"z": 1.5567948998,
				"element": "C" 
			},
			{
				"x": 0.5735785324,
				"y": 0.696781061,
				"z": 0.3716040462,
				"element": "C" 
			},
			{
				"x": -0.5036652805,
				"y": -0.1932343256,
				"z": 0.2956135721,
				"element": "C" 
			},
			{
				"x": -0.5941129203,
				"y": -0.5376097484,
				"z": -1.0492866274,
				"element": "N" 
			},
			{
				"x": 0.3850523948,
				"y": 0.1091032881,
				"z": -1.7858214412,
				"element": "C" 
			},
			{
				"x": 0.6132513264,
				"y": 0.0571068647,
				"z": -2.9641548392,
				"element": "O" 
			},
			{
				"x": 1.1123652521,
				"y": 0.8821828263,
				"z": -0.8799795027,
				"element": "O" 
			},
			{
				"x": -1.2180952861,
				"y": -0.5442324855,
				"z": 1.4328147631,
				"element": "C" 
			},
			{
				"x": -0.8173484959,
				"y": 0.0260303668,
				"z": 2.6485269933,
				"element": "C" 
			},
			{
				"x": 1.8242332354,
				"y": 1.9592460924,
				"z": 1.5977787795,
				"element": "H" 
			},
			{
				"x": -1.2543860751,
				"y": -1.1614281573,
				"z": -1.4847538585,
				"element": "H" 
			},
			{
				"x": -2.0557249004,
				"y": -1.2322427118,
				"z": 1.3936119168,
				"element": "H" 
			},
			{
				"x": -1.3479500566,
				"y": -0.2211439331,
				"z": 3.5601583114,
				"element": "H" 
			}
		],
		 "valence_orbital": [ 
			{
				"type": "occ",
				"energy": -0.3006,
				"method": "rhf"
			},
			{
				"type": "occ",
				"energy": -0.29824,
				"method": "rhf"
			},
			{
				"type": "occ",
				"energy": -0.29493,
				"method": "rhf"
			},
			{
				"type": "occ",
				"energy": -0.26818,
				"method": "rhf"
			},
			{
				"type": "occ",
				"energy": -0.23115,
				"method": "rhf"
			},
			{
				"type": "unocc",
				"energy": -0.03094,
				"method": "rhf"
			},
			{
				"type": "unocc",
				"energy": -0.0151,
				"method": "rhf"
			},
			{
				"type": "unocc",
				"energy": -0.00403,
				"method": "rhf"
			},
			{
				"type": "unocc",
				"energy": 0.03794,
				"method": "rhf"
			},
			{
				"type": "unocc",
				"energy": 0.06436,
				"method": "rhf"
			}
		],
		"cosmo_sigma_profile": { 
			"-0.025": 0.0,
			"-0.024": 0.0,
			"-0.023": 0.0,
			"-0.022": 0.0,
			"-0.021": 0.0,
			"-0.02": 0.0,
			"-0.019": 0.0,
			"-0.018": 0.196900452361,
			"-0.017": 1.91352147598,
			"-0.016": 1.06741673059,
			"-0.015": 1.45088309194,
			"-0.014": 1.47101131855,
			"-0.013": 0.680853546487,
			"-0.012": 1.08024379829,
			"-0.011": 1.2556260021,
			"-0.01": 0.879537896372,
			"-0.009": 1.87267542705,
			"-0.008": 5.517105081,
			"-0.007": 6.36225397823,
			"-0.006": 6.52511388553,
			"-0.005": 6.9161587508,
			"-0.004": 8.7571881321,
			"-0.003": 9.59092029878,
			"-0.002": 10.2404563108,
			"-0.001": 13.022503166,
			"0.0": 12.1688322565,
			"0.001": 15.6781681717,
			"0.002": 19.5114323604,
			"0.003": 13.5035626622,
			"0.004": 12.8393791516,
			"0.005": 7.05602347399,
			"0.006": 2.85107023312,
			"0.007": 3.58482339782,
			"0.008": 3.30211106451,
			"0.009": 1.53312464111,
			"0.01": 2.61708240048,
			"0.011": 5.3147939488,
			"0.012": 4.94249950649,
			"0.013": 0.34936946824,
			"0.014": 0.0,
			"0.015": 0.0,
			"0.016": 0.0,
			"0.017": 0.0,
			"0.018": 0.0,
			"0.019": 0.0,
			"0.02": 0.0,
			"0.021": 0.0,
			"0.022": 0.0,
			"0.023": 0.0,
			"0.024": 0.0,
			"0.025": 0.0
		}
	}
}
