{
	 "smiles": "BrCC1=CC2=C(COC2)C=C1", 
	 "Tm": 323.15, 
	 "num_atms": 20, 
	 "gaussian": { 
		 "optdone": 1, 
		 "sigma_profile": "yes", 
		 "theory": "DFT", 
		 "functional": "B3LYP", 
		 "basiset": "6-31G**", 
		 "properties": { 
			 "R2extent": 4438.3287, 
			 "electric_dipole_moment_norm": 2.14204431794, 
			 "electric_quadrupole_moment_norm": 14.6308828527, 
			 "total_energy": -2994.99906563, 
			 "HOMO_LUMO_gap": 0.19611, 
			 "cosmo_polarized_energy": -8.54, 
			 "cosmo_cavitation_energy": 25.56, 
			 "cosmo_dispersion_energy": -19.38, 
			 "cosmo_repulsion_energy": 1.58, 
			 "cosmo_total_nonelectrostatic_energy": 7.77, 
			 "SMD_solvation_energy": 2.87 
		},
		"coords": [
			{
				"x": 3.9272014598,
				"y": -1.4962923298,
				"z": 2.3132943505,
				"element": "Br" 
			},
			{
				"x": 1.9665299632,
				"y": -1.8637580509,
				"z": 2.5633541003,
				"element": "C" 
			},
			{
				"x": 1.1166628896,
				"y": -1.0975467514,
				"z": 1.6038120678,
				"element": "C" 
			},
			{
				"x": 0.7875662138,
				"y": -1.6475682227,
				"z": 0.3550635838,
				"element": "C" 
			},
			{
				"x": -0.0140466757,
				"y": -0.9198525059,
				"z": -0.5167426621,
				"element": "C" 
			},
			{
				"x": -0.4923191345,
				"y": 0.3420607322,
				"z": -0.1643909868,
				"element": "C" 
			},
			{
				"x": -1.3343299736,
				"y": 0.8722385609,
				"z": -1.2945865268,
				"element": "C" 
			},
			{
				"x": -1.2358277208,
				"y": -0.1035488945,
				"z": -2.3360121383,
				"element": "O" 
			},
			{
				"x": -0.5251588111,
				"y": -1.2633102296,
				"z": -1.8917926269,
				"element": "C" 
			},
			{
				"x": -0.1755508509,
				"y": 0.9009638243,
				"z": 1.0715302408,
				"element": "C" 
			},
			{
				"x": 0.6314473569,
				"y": 0.1746912583,
				"z": 1.948234092,
				"element": "C" 
			},
			{
				"x": 1.8827722505,
				"y": -2.941268036,
				"z": 2.4345828004,
				"element": "H" 
			},
			{
				"x": 1.7785335372,
				"y": -1.5962116479,
				"z": 3.6013609451,
				"element": "H" 
			},
			{
				"x": 1.1654058452,
				"y": -2.6298509637,
				"z": 0.0814103851,
				"element": "H" 
			},
			{
				"x": -2.3870785205,
				"y": 1.0035336113,
				"z": -0.9972040967,
				"element": "H" 
			},
			{
				"x": -0.9763819901,
				"y": 1.8402065651,
				"z": -1.6732092506,
				"element": "H" 
			},
			{
				"x": -1.1978444135,
				"y": -2.1355709804,
				"z": -1.87552774,
				"element": "H" 
			},
			{
				"x": 0.2834589882,
				"y": -1.4837438578,
				"z": -2.6028038042,
				"element": "H" 
			},
			{
				"x": -0.5448474232,
				"y": 1.8824256156,
				"z": 1.3561132987,
				"element": "H" 
			},
			{
				"x": 0.8950070095,
				"y": 0.598802303,
				"z": 2.9134139677,
				"element": "H" 
			}
		],
		 "valence_orbital": [ 
			{
				"type": "occ",
				"energy": -0.27528,
				"method": "rhf"
			},
			{
				"type": "occ",
				"energy": -0.27154,
				"method": "rhf"
			},
			{
				"type": "occ",
				"energy": -0.26468,
				"method": "rhf"
			},
			{
				"type": "occ",
				"energy": -0.25709,
				"method": "rhf"
			},
			{
				"type": "occ",
				"energy": -0.2365,
				"method": "rhf"
			},
			{
				"type": "unocc",
				"energy": -0.04039,
				"method": "rhf"
			},
			{
				"type": "unocc",
				"energy": -0.01597,
				"method": "rhf"
			},
			{
				"type": "unocc",
				"energy": 0.02695,
				"method": "rhf"
			},
			{
				"type": "unocc",
				"energy": 0.08448,
				"method": "rhf"
			},
			{
				"type": "unocc",
				"energy": 0.10481,
				"method": "rhf"
			}
		],
		"cosmo_sigma_profile": { 
			"-0.025": 0.0,
			"-0.024": 0.0,
			"-0.023": 0.0,
			"-0.022": 0.0,
			"-0.021": 0.0,
			"-0.02": 0.0,
			"-0.019": 0.0,
			"-0.018": 0.0,
			"-0.017": 0.0,
			"-0.016": 0.0,
			"-0.015": 0.0,
			"-0.014": 0.0,
			"-0.013": 0.0,
			"-0.012": 0.0,
			"-0.011": 0.0,
			"-0.01": 0.0,
			"-0.009": 0.0,
			"-0.008": 1.98951079997,
			"-0.007": 7.75046260846,
			"-0.006": 11.6065586988,
			"-0.005": 19.6245009163,
			"-0.004": 23.2382987897,
			"-0.003": 15.5737236771,
			"-0.002": 13.1812067544,
			"-0.001": 12.8593547714,
			"0.0": 11.5242998873,
			"0.001": 9.8153660638,
			"0.002": 10.6199802412,
			"0.003": 11.8035775364,
			"0.004": 15.6054379134,
			"0.005": 12.7061348772,
			"0.006": 11.8114752048,
			"0.007": 7.84570489924,
			"0.008": 1.99550020981,
			"0.009": 0.587696039069,
			"0.01": 0.790689982846,
			"0.011": 1.19853489021,
			"0.012": 1.68298855798,
			"0.013": 1.67222682271,
			"0.014": 0.897469115935,
			"0.015": 0.0,
			"0.016": 0.0,
			"0.017": 0.0,
			"0.018": 0.0,
			"0.019": 0.0,
			"0.02": 0.0,
			"0.021": 0.0,
			"0.022": 0.0,
			"0.023": 0.0,
			"0.024": 0.0,
			"0.025": 0.0
		}
	}
}
