{
	 "smiles": "OC(=O)CN1CCS(=O)(=O)CC1", 
	 "Tm": 453.15, 
	 "num_atms": 23, 
	 "gaussian": { 
		 "optdone": 1, 
		 "sigma_profile": "yes", 
		 "theory": "DFT", 
		 "functional": "B3LYP", 
		 "basiset": "6-31G**", 
		 "properties": { 
			 "R2extent": 3241.9166, 
			 "electric_dipole_moment_norm": 5.35515481289, 
			 "electric_quadrupole_moment_norm": 20.0442903179, 
			 "total_energy": -989.03278591, 
			 "HOMO_LUMO_gap": 0.22968, 
			 "cosmo_polarized_energy": -22.62, 
			 "cosmo_cavitation_energy": 26.84, 
			 "cosmo_dispersion_energy": -20.32, 
			 "cosmo_repulsion_energy": 1.57, 
			 "cosmo_total_nonelectrostatic_energy": 8.08, 
			 "SMD_solvation_energy": 2.56 
		},
		"coords": [
			{
				"x": -2.8042973698,
				"y": -1.8000213429,
				"z": -2.3574141034,
				"element": "O" 
			},
			{
				"x": -2.1395725275,
				"y": -0.840212697,
				"z": -1.6715683093,
				"element": "C" 
			},
			{
				"x": -2.423306507,
				"y": 0.333213911,
				"z": -1.7363966117,
				"element": "O" 
			},
			{
				"x": -1.0354532197,
				"y": -1.4722824791,
				"z": -0.8331615509,
				"element": "C" 
			},
			{
				"x": -0.2134221181,
				"y": -0.4947044958,
				"z": -0.1506104033,
				"element": "N" 
			},
			{
				"x": 1.1290552527,
				"y": -0.9693466321,
				"z": 0.2089673158,
				"element": "C" 
			},
			{
				"x": 1.2528840199,
				"y": -1.5371173173,
				"z": 1.6318921151,
				"element": "C" 
			},
			{
				"x": 1.0353160581,
				"y": -0.1788194913,
				"z": 2.8380184751,
				"element": "S" 
			},
			{
				"x": 2.3419150635,
				"y": 0.463968988,
				"z": 3.0538766229,
				"element": "O" 
			},
			{
				"x": 0.2445674111,
				"y": -0.6823968454,
				"z": 3.973222995,
				"element": "O" 
			},
			{
				"x": -0.0124571622,
				"y": 0.9578512459,
				"z": 1.8619323711,
				"element": "C" 
			},
			{
				"x": -0.9426909543,
				"y": 0.1772961142,
				"z": 0.9384958027,
				"element": "C" 
			},
			{
				"x": -3.4996677789,
				"y": -1.3454358082,
				"z": -2.8619090587,
				"element": "H" 
			},
			{
				"x": -0.4197215341,
				"y": -2.0608748263,
				"z": -1.5209455385,
				"element": "H" 
			},
			{
				"x": -1.5285888452,
				"y": -2.2027058354,
				"z": -0.1604264029,
				"element": "H" 
			},
			{
				"x": 1.4351215481,
				"y": -1.7330071828,
				"z": -0.511465354,
				"element": "H" 
			},
			{
				"x": 1.8489709321,
				"y": -0.1480966753,
				"z": 0.1011251212,
				"element": "H" 
			},
			{
				"x": 2.2497857921,
				"y": -1.9396765602,
				"z": 1.8298514738,
				"element": "H" 
			},
			{
				"x": 0.4995175006,
				"y": -2.296197341,
				"z": 1.8546905306,
				"element": "H" 
			},
			{
				"x": -0.5774641559,
				"y": 1.5268914583,
				"z": 2.6038920399,
				"element": "H" 
			},
			{
				"x": 0.6492523313,
				"y": 1.6320571706,
				"z": 1.3143035409,
				"element": "H" 
			},
			{
				"x": -1.6665469346,
				"y": 0.8644119916,
				"z": 0.4939038674,
				"element": "H" 
			},
			{
				"x": -1.5160968022,
				"y": -0.5456953494,
				"z": 1.5489250612,
				"element": "H" 
			}
		],
		 "valence_orbital": [ 
			{
				"type": "occ",
				"energy": -0.30789,
				"method": "rhf"
			},
			{
				"type": "occ",
				"energy": -0.29364,
				"method": "rhf"
			},
			{
				"type": "occ",
				"energy": -0.29338,
				"method": "rhf"
			},
			{
				"type": "occ",
				"energy": -0.27975,
				"method": "rhf"
			},
			{
				"type": "occ",
				"energy": -0.23651,
				"method": "rhf"
			},
			{
				"type": "unocc",
				"energy": -0.00683,
				"method": "rhf"
			},
			{
				"type": "unocc",
				"energy": 0.05028,
				"method": "rhf"
			},
			{
				"type": "unocc",
				"energy": 0.06072,
				"method": "rhf"
			},
			{
				"type": "unocc",
				"energy": 0.06696,
				"method": "rhf"
			},
			{
				"type": "unocc",
				"energy": 0.07097,
				"method": "rhf"
			}
		],
		"cosmo_sigma_profile": { 
			"-0.025": 0.0,
			"-0.024": 0.0,
			"-0.023": 0.0,
			"-0.022": 0.0,
			"-0.021": 0.0,
			"-0.02": 0.0,
			"-0.019": 0.145392155657,
			"-0.018": 0.746289352347,
			"-0.017": 1.06073672872,
			"-0.016": 0.984743406208,
			"-0.015": 0.720432240998,
			"-0.014": 0.339722850511,
			"-0.013": 0.417647479526,
			"-0.012": 0.797101091419,
			"-0.011": 0.938015620668,
			"-0.01": 0.578241827618,
			"-0.009": 2.37705734312,
			"-0.008": 11.6286817975,
			"-0.007": 16.5502682171,
			"-0.006": 18.8082100678,
			"-0.005": 20.7218765621,
			"-0.004": 18.9644644179,
			"-0.003": 11.3308170486,
			"-0.002": 7.76502112373,
			"-0.001": 6.09006983715,
			"0.0": 6.09229986417,
			"0.001": 5.01710660692,
			"0.002": 4.84296250114,
			"0.003": 4.4691631525,
			"0.004": 3.78135391612,
			"0.005": 5.56698439066,
			"0.006": 4.61228493134,
			"0.007": 4.13564828186,
			"0.008": 6.11654998638,
			"0.009": 5.89534797459,
			"0.01": 6.2839745833,
			"0.011": 13.0738802864,
			"0.012": 14.4866754448,
			"0.013": 4.0350761711,
			"0.014": 0.535495738248,
			"0.015": 0.116153687625,
			"0.016": 0.0,
			"0.017": 0.0,
			"0.018": 0.0,
			"0.019": 0.0,
			"0.02": 0.0,
			"0.021": 0.0,
			"0.022": 0.0,
			"0.023": 0.0,
			"0.024": 0.0,
			"0.025": 0.0
		}
	}
}
