{
	 "smiles": "CC(=O)NC1=CC=C(C(C)=O)C(C)=C1", 
	 "Tm": 412.15, 
	 "num_atms": 27, 
	 "gaussian": { 
		 "optdone": 1, 
		 "sigma_profile": "yes", 
		 "theory": "DFT", 
		 "functional": "B3LYP", 
		 "basiset": "6-31G**", 
		 "properties": { 
			 "R2extent": 4507.9262, 
			 "electric_dipole_moment_norm": 3.20820649741, 
			 "electric_quadrupole_moment_norm": 19.1293107573, 
			 "total_energy": -632.226688506, 
			 "HOMO_LUMO_gap": 0.17461, 
			 "cosmo_polarized_energy": -15.91, 
			 "cosmo_cavitation_energy": 30.31, 
			 "cosmo_dispersion_energy": -21.81, 
			 "cosmo_repulsion_energy": 1.7, 
			 "cosmo_total_nonelectrostatic_energy": 10.2, 
			 "SMD_solvation_energy": 6.73 
		},
		"coords": [
			{
				"x": -3.1836465568,
				"y": 1.0681155822,
				"z": 1.323943828,
				"element": "C" 
			},
			{
				"x": -3.627293409,
				"y": -0.2639096443,
				"z": 0.7533047169,
				"element": "C" 
			},
			{
				"x": -4.6230961578,
				"y": -0.8421826416,
				"z": 1.1607109687,
				"element": "O" 
			},
			{
				"x": -2.8979775174,
				"y": -0.8370197638,
				"z": -0.2826605898,
				"element": "N" 
			},
			{
				"x": -1.7470368139,
				"y": -0.4399421162,
				"z": -0.9829553023,
				"element": "C" 
			},
			{
				"x": -1.6304196965,
				"y": -0.8134747967,
				"z": -2.3317796321,
				"element": "C" 
			},
			{
				"x": -0.4983930863,
				"y": -0.464263356,
				"z": -3.0451481961,
				"element": "C" 
			},
			{
				"x": 0.5517508487,
				"y": 0.2809509609,
				"z": -2.4752673971,
				"element": "C" 
			},
			{
				"x": 1.6762336103,
				"y": 0.5974679795,
				"z": -3.4262639728,
				"element": "C" 
			},
			{
				"x": 2.6781261232,
				"y": 1.7055823486,
				"z": -3.1446596359,
				"element": "C" 
			},
			{
				"x": 1.7628829898,
				"y": -0.0175863626,
				"z": -4.4809485838,
				"element": "O" 
			},
			{
				"x": 0.4569079387,
				"y": 0.6358263434,
				"z": -1.1066896817,
				"element": "C" 
			},
			{
				"x": 1.5390795936,
				"y": 1.3531469677,
				"z": -0.3259142633,
				"element": "C" 
			},
			{
				"x": -0.6841898361,
				"y": 0.2537292682,
				"z": -0.3890281149,
				"element": "C" 
			},
			{
				"x": -4.0595819097,
				"y": 1.528226644,
				"z": 1.7821755284,
				"element": "H" 
			},
			{
				"x": -2.4344896465,
				"y": 0.9161588521,
				"z": 2.1083240665,
				"element": "H" 
			},
			{
				"x": -2.7585717492,
				"y": 1.7342140461,
				"z": 0.5699238851,
				"element": "H" 
			},
			{
				"x": -3.3815352258,
				"y": -1.6480403635,
				"z": -0.6507214617,
				"element": "H" 
			},
			{
				"x": -2.4355843868,
				"y": -1.3627370383,
				"z": -2.812206857,
				"element": "H" 
			},
			{
				"x": -0.3968316336,
				"y": -0.7494601021,
				"z": -4.0863297969,
				"element": "H" 
			},
			{
				"x": 3.2299243395,
				"y": 1.8933001975,
				"z": -4.0666127304,
				"element": "H" 
			},
			{
				"x": 3.3895745325,
				"y": 1.412015747,
				"z": -2.3667059072,
				"element": "H" 
			},
			{
				"x": 2.1880045758,
				"y": 2.6258822486,
				"z": -2.8133716486,
				"element": "H" 
			},
			{
				"x": 1.6770266738,
				"y": 2.3867065644,
				"z": -0.6577276915,
				"element": "H" 
			},
			{
				"x": 2.5077120892,
				"y": 0.851978158,
				"z": -0.4106966909,
				"element": "H" 
			},
			{
				"x": 1.2796193642,
				"y": 1.3845236233,
				"z": 0.735074493,
				"element": "H" 
			},
			{
				"x": -0.7200950539,
				"y": 0.4752906537,
				"z": 0.6702306672,
				"element": "H" 
			}
		],
		 "valence_orbital": [ 
			{
				"type": "occ",
				"energy": -0.30237,
				"method": "rhf"
			},
			{
				"type": "occ",
				"energy": -0.26232,
				"method": "rhf"
			},
			{
				"type": "occ",
				"energy": -0.26106,
				"method": "rhf"
			},
			{
				"type": "occ",
				"energy": -0.24911,
				"method": "rhf"
			},
			{
				"type": "occ",
				"energy": -0.23156,
				"method": "rhf"
			},
			{
				"type": "unocc",
				"energy": -0.05695,
				"method": "rhf"
			},
			{
				"type": "unocc",
				"energy": -0.01546,
				"method": "rhf"
			},
			{
				"type": "unocc",
				"energy": 0.00821,
				"method": "rhf"
			},
			{
				"type": "unocc",
				"energy": 0.04059,
				"method": "rhf"
			},
			{
				"type": "unocc",
				"energy": 0.07694,
				"method": "rhf"
			}
		],
		"cosmo_sigma_profile": { 
			"-0.025": 0.0,
			"-0.024": 0.0,
			"-0.023": 0.0,
			"-0.022": 0.0,
			"-0.021": 0.0,
			"-0.02": 0.0,
			"-0.019": 0.0,
			"-0.018": 0.0,
			"-0.017": 0.0,
			"-0.016": 0.0,
			"-0.015": 0.116358237796,
			"-0.014": 0.982242622349,
			"-0.013": 1.17629676478,
			"-0.012": 0.934886316778,
			"-0.011": 0.897532818567,
			"-0.01": 1.17636303599,
			"-0.009": 1.67171832209,
			"-0.008": 2.97548076007,
			"-0.007": 7.98790810846,
			"-0.006": 12.5578027744,
			"-0.005": 16.3064512274,
			"-0.004": 20.2004114675,
			"-0.003": 21.8997799894,
			"-0.002": 22.533692464,
			"-0.001": 23.5047897483,
			"0.0": 18.2995128217,
			"0.001": 10.3250240433,
			"0.002": 11.6016260583,
			"0.003": 13.0320911799,
			"0.004": 12.0473122299,
			"0.005": 2.89911196516,
			"0.006": 3.20478847954,
			"0.007": 3.25440304873,
			"0.008": 2.55742916827,
			"0.009": 2.57184599614,
			"0.01": 3.64348549185,
			"0.011": 4.03804512013,
			"0.012": 7.05049271817,
			"0.013": 7.5427741621,
			"0.014": 2.89763687491,
			"0.015": 0.163959227176,
			"0.016": 0.0,
			"0.017": 0.0,
			"0.018": 0.0,
			"0.019": 0.0,
			"0.02": 0.0,
			"0.021": 0.0,
			"0.022": 0.0,
			"0.023": 0.0,
			"0.024": 0.0,
			"0.025": 0.0
		}
	}
}
