{
	 "smiles": "COC1=CC=C(C=NOCC(O)=O)C=C1", 
	 "Tm": 375.15, 
	 "num_atms": 26, 
	 "gaussian": { 
		 "optdone": 1, 
		 "sigma_profile": "yes", 
		 "theory": "DFT", 
		 "functional": "B3LYP", 
		 "basiset": "6-31G**", 
		 "properties": { 
			 "R2extent": 5776.0451, 
			 "electric_dipole_moment_norm": 7.33682002096, 
			 "electric_quadrupole_moment_norm": 26.8211814611, 
			 "total_energy": -743.274423424, 
			 "HOMO_LUMO_gap": 0.17078, 
			 "cosmo_polarized_energy": -14.72, 
			 "cosmo_cavitation_energy": 30.96, 
			 "cosmo_dispersion_energy": -22.87, 
			 "cosmo_repulsion_energy": 1.8, 
			 "cosmo_total_nonelectrostatic_energy": 9.89, 
			 "SMD_solvation_energy": 7.82 
		},
		"coords": [
			{
				"x": 5.0191430234,
				"y": 0.7923496679,
				"z": -0.831880809,
				"element": "C" 
			},
			{
				"x": 4.1074663551,
				"y": 1.6628933483,
				"z": -1.4912170047,
				"element": "O" 
			},
			{
				"x": 2.7877863967,
				"y": 1.3490728412,
				"z": -1.4847916761,
				"element": "C" 
			},
			{
				"x": 1.9440037832,
				"y": 2.2491963903,
				"z": -2.1580478193,
				"element": "C" 
			},
			{
				"x": 0.5827071696,
				"y": 2.0117531444,
				"z": -2.2059238443,
				"element": "C" 
			},
			{
				"x": 0.0056916864,
				"y": 0.8784149334,
				"z": -1.5884324564,
				"element": "C" 
			},
			{
				"x": -1.4413619052,
				"y": 0.7374984384,
				"z": -1.7046707079,
				"element": "C" 
			},
			{
				"x": -2.2897282876,
				"y": -0.1173390864,
				"z": -1.2454370638,
				"element": "N" 
			},
			{
				"x": -1.7241126781,
				"y": -1.1616662051,
				"z": -0.5008144713,
				"element": "O" 
			},
			{
				"x": -2.7542810587,
				"y": -1.9010402148,
				"z": 0.1661238995,
				"element": "C" 
			},
			{
				"x": -3.7647757679,
				"y": -2.6212383242,
				"z": -0.7419843804,
				"element": "C" 
			},
			{
				"x": -4.1275218367,
				"y": -1.9763075442,
				"z": -1.8577795034,
				"element": "O" 
			},
			{
				"x": -4.2336300945,
				"y": -3.6869770382,
				"z": -0.4181474813,
				"element": "O" 
			},
			{
				"x": 0.8661352403,
				"y": -0.0140545448,
				"z": -0.9201986798,
				"element": "C" 
			},
			{
				"x": 2.238557089,
				"y": 0.2158288256,
				"z": -0.8673083248,
				"element": "C" 
			},
			{
				"x": 4.7983744766,
				"y": 0.7159997305,
				"z": 0.2397540628,
				"element": "H" 
			},
			{
				"x": 6.005980192,
				"y": 1.2367606059,
				"z": -0.965682365,
				"element": "H" 
			},
			{
				"x": 5.0099533871,
				"y": -0.210363159,
				"z": -1.2761522009,
				"element": "H" 
			},
			{
				"x": 2.3850804219,
				"y": 3.1195842684,
				"z": -2.6317806711,
				"element": "H" 
			},
			{
				"x": -0.058645529,
				"y": 2.7149572496,
				"z": -2.7309204918,
				"element": "H" 
			},
			{
				"x": -1.9410191172,
				"y": 1.5072240008,
				"z": -2.2927918916,
				"element": "H" 
			},
			{
				"x": -2.2311420707,
				"y": -2.6584755575,
				"z": 0.7491358718,
				"element": "H" 
			},
			{
				"x": -3.306189946,
				"y": -1.2424083467,
				"z": 0.8499799159,
				"element": "H" 
			},
			{
				"x": -3.65860098,
				"y": -1.1090570961,
				"z": -1.8831432992,
				"element": "H" 
			},
			{
				"x": 0.4574224213,
				"y": -0.8928913328,
				"z": -0.4429817588,
				"element": "H" 
			},
			{
				"x": 2.870107629,
				"y": -0.4932149949,
				"z": -0.345806849,
				"element": "H" 
			}
		],
		 "valence_orbital": [ 
			{
				"type": "occ",
				"energy": -0.29586,
				"method": "rhf"
			},
			{
				"type": "occ",
				"energy": -0.28965,
				"method": "rhf"
			},
			{
				"type": "occ",
				"energy": -0.27174,
				"method": "rhf"
			},
			{
				"type": "occ",
				"energy": -0.25419,
				"method": "rhf"
			},
			{
				"type": "occ",
				"energy": -0.22957,
				"method": "rhf"
			},
			{
				"type": "unocc",
				"energy": -0.05879,
				"method": "rhf"
			},
			{
				"type": "unocc",
				"energy": -0.01904,
				"method": "rhf"
			},
			{
				"type": "unocc",
				"energy": 0.01707,
				"method": "rhf"
			},
			{
				"type": "unocc",
				"energy": 0.04176,
				"method": "rhf"
			},
			{
				"type": "unocc",
				"energy": 0.06575,
				"method": "rhf"
			}
		],
		"cosmo_sigma_profile": { 
			"-0.025": 0.0,
			"-0.024": 0.0,
			"-0.023": 0.0,
			"-0.022": 0.0,
			"-0.021": 0.0,
			"-0.02": 0.0,
			"-0.019": 0.0,
			"-0.018": 0.0,
			"-0.017": 0.0,
			"-0.016": 0.0,
			"-0.015": 0.0,
			"-0.014": 0.0,
			"-0.013": 0.0,
			"-0.012": 0.0,
			"-0.011": 0.0,
			"-0.01": 0.000733026182853,
			"-0.009": 1.96624411837,
			"-0.008": 7.73857063822,
			"-0.007": 10.7266944684,
			"-0.006": 19.4097613222,
			"-0.005": 20.6793529344,
			"-0.004": 20.3825114422,
			"-0.003": 18.6963257404,
			"-0.002": 12.3726313955,
			"-0.001": 11.3702492104,
			"0.0": 13.4402498266,
			"0.001": 15.2484751181,
			"0.002": 17.4689610258,
			"0.003": 20.0284846783,
			"0.004": 16.1343684976,
			"0.005": 5.41579366027,
			"0.006": 4.3513023832,
			"0.007": 3.74761104883,
			"0.008": 4.32734109596,
			"0.009": 4.65774558487,
			"0.01": 5.11344873464,
			"0.011": 5.85293420806,
			"0.012": 5.63976262699,
			"0.013": 2.31878110032,
			"0.014": 0.139888321349,
			"0.015": 0.0,
			"0.016": 0.0,
			"0.017": 0.0,
			"0.018": 0.0,
			"0.019": 0.0,
			"0.02": 0.0,
			"0.021": 0.0,
			"0.022": 0.0,
			"0.023": 0.0,
			"0.024": 0.0,
			"0.025": 0.0
		}
	}
}
