{
	 "smiles": "NS(=O)(=O)C1=C(C=CC=C1F)[N+]([O-])=O", 
	 "Tm": 437.15, 
	 "num_atms": 19, 
	 "gaussian": { 
		 "optdone": 1, 
		 "sigma_profile": "yes", 
		 "theory": "DFT", 
		 "functional": "B3LYP", 
		 "basiset": "6-31G**", 
		 "properties": { 
			 "R2extent": 2708.1848, 
			 "electric_dipole_moment_norm": 4.18996071103, 
			 "electric_quadrupole_moment_norm": 20.4020204276, 
			 "total_energy": -1139.87583232, 
			 "HOMO_LUMO_gap": 0.17484, 
			 "cosmo_polarized_energy": -18.1, 
			 "cosmo_cavitation_energy": 25.77, 
			 "cosmo_dispersion_energy": -19.4, 
			 "cosmo_repulsion_energy": 1.44, 
			 "cosmo_total_nonelectrostatic_energy": 7.82, 
			 "SMD_solvation_energy": 6.61 
		},
		"coords": [
			{
				"x": 1.1756866184,
				"y": 1.7960431926,
				"z": 0.0999814121,
				"element": "N" 
			},
			{
				"x": -0.3341479223,
				"y": 1.7681250351,
				"z": -0.632581093,
				"element": "S" 
			},
			{
				"x": -1.3626707347,
				"y": 2.3690667105,
				"z": 0.2093751734,
				"element": "O" 
			},
			{
				"x": -0.0866182035,
				"y": 2.2364577824,
				"z": -1.9946759731,
				"element": "O" 
			},
			{
				"x": -0.6884820755,
				"y": -0.0190414454,
				"z": -0.7596886501,
				"element": "C" 
			},
			{
				"x": -0.2405051528,
				"y": -1.0335308528,
				"z": 0.1040704424,
				"element": "C" 
			},
			{
				"x": -0.4691203488,
				"y": -2.3833432214,
				"z": -0.1473250026,
				"element": "C" 
			},
			{
				"x": -1.2166824784,
				"y": -2.7557356179,
				"z": -1.2629558049,
				"element": "C" 
			},
			{
				"x": -1.7231600437,
				"y": -1.7806698537,
				"z": -2.1136407257,
				"element": "C" 
			},
			{
				"x": -1.4575407274,
				"y": -0.4379084736,
				"z": -1.8526559771,
				"element": "C" 
			},
			{
				"x": -1.973761165,
				"y": 0.4641614272,
				"z": -2.6913330399,
				"element": "F" 
			},
			{
				"x": 0.4403615141,
				"y": -0.7351619361,
				"z": 1.3771233689,
				"element": "N" 
			},
			{
				"x": 0.0544980855,
				"y": 0.2513946519,
				"z": 2.0037145379,
				"element": "O" 
			},
			{
				"x": 1.3008413869,
				"y": -1.521800245,
				"z": 1.755806804,
				"element": "O" 
			},
			{
				"x": 1.120718338,
				"y": 2.01454287,
				"z": 1.090235675,
				"element": "H" 
			},
			{
				"x": 1.767154161,
				"y": 2.4306864096,
				"z": -0.429016027,
				"element": "H" 
			},
			{
				"x": -0.0754023593,
				"y": -3.1157178259,
				"z": 0.5459525825,
				"element": "H" 
			},
			{
				"x": -1.4121316975,
				"y": -3.804541109,
				"z": -1.4587141331,
				"element": "H" 
			},
			{
				"x": -2.3205371948,
				"y": -2.0268274985,
				"z": -2.9843735697,
				"element": "H" 
			}
		],
		 "valence_orbital": [ 
			{
				"type": "occ",
				"energy": -0.32365,
				"method": "rhf"
			},
			{
				"type": "occ",
				"energy": -0.31263,
				"method": "rhf"
			},
			{
				"type": "occ",
				"energy": -0.30292,
				"method": "rhf"
			},
			{
				"type": "occ",
				"energy": -0.29405,
				"method": "rhf"
			},
			{
				"type": "occ",
				"energy": -0.28447,
				"method": "rhf"
			},
			{
				"type": "unocc",
				"energy": -0.10963,
				"method": "rhf"
			},
			{
				"type": "unocc",
				"energy": -0.05431,
				"method": "rhf"
			},
			{
				"type": "unocc",
				"energy": -0.03218,
				"method": "rhf"
			},
			{
				"type": "unocc",
				"energy": 0.01738,
				"method": "rhf"
			},
			{
				"type": "unocc",
				"energy": 0.054,
				"method": "rhf"
			}
		],
		"cosmo_sigma_profile": { 
			"-0.025": 0.0,
			"-0.024": 0.0,
			"-0.023": 0.0,
			"-0.022": 0.0,
			"-0.021": 0.0,
			"-0.02": 0.0,
			"-0.019": 0.0,
			"-0.018": 0.0,
			"-0.017": 0.0,
			"-0.016": 0.237089056008,
			"-0.015": 1.63440619135,
			"-0.014": 1.94837205043,
			"-0.013": 2.61082010876,
			"-0.012": 2.52458038243,
			"-0.011": 1.64710801951,
			"-0.01": 2.18229882626,
			"-0.009": 7.68259180417,
			"-0.008": 8.88801563879,
			"-0.007": 9.80111866572,
			"-0.006": 6.18984395867,
			"-0.005": 5.70405835863,
			"-0.004": 6.6115349544,
			"-0.003": 16.3671927072,
			"-0.002": 15.3463779045,
			"-0.001": 14.3435250299,
			"0.0": 12.7680235733,
			"0.001": 6.8449181668,
			"0.002": 8.33261016234,
			"0.003": 8.23822375789,
			"0.004": 6.34627194414,
			"0.005": 6.7926510773,
			"0.006": 11.5254984802,
			"0.007": 9.6536653858,
			"0.008": 7.96749782691,
			"0.009": 7.80678285185,
			"0.01": 13.5404906732,
			"0.011": 3.62337502088,
			"0.012": 0.039162116699,
			"0.013": 0.0,
			"0.014": 0.0,
			"0.015": 0.0,
			"0.016": 0.0,
			"0.017": 0.0,
			"0.018": 0.0,
			"0.019": 0.0,
			"0.02": 0.0,
			"0.021": 0.0,
			"0.022": 0.0,
			"0.023": 0.0,
			"0.024": 0.0,
			"0.025": 0.0
		}
	}
}
