{
	 "smiles": "ClC1=CC=C(C=C1)N1C=CNC1=S", 
	 "Tm": 497.15, 
	 "num_atms": 20, 
	 "gaussian": { 
		 "optdone": 1, 
		 "sigma_profile": "yes", 
		 "theory": "DFT", 
		 "functional": "B3LYP", 
		 "basiset": "6-31G**", 
		 "properties": { 
			 "R2extent": 3877.1732, 
			 "electric_dipole_moment_norm": 5.80918145181, 
			 "electric_quadrupole_moment_norm": 13.1575143093, 
			 "total_energy": -1315.06038745, 
			 "HOMO_LUMO_gap": 0.16106, 
			 "cosmo_polarized_energy": -18.2, 
			 "cosmo_cavitation_energy": 27.93, 
			 "cosmo_dispersion_energy": -21.05, 
			 "cosmo_repulsion_energy": 1.62, 
			 "cosmo_total_nonelectrostatic_energy": 8.5, 
			 "SMD_solvation_energy": 4.18 
		},
		"coords": [
			{
				"x": 3.4531289243,
				"y": -1.0681664777,
				"z": -3.3677182423,
				"element": "Cl" 
			},
			{
				"x": 2.1634274166,
				"y": -0.4715133939,
				"z": -2.3358676097,
				"element": "C" 
			},
			{
				"x": 2.3327592093,
				"y": -0.4751748897,
				"z": -0.9510858444,
				"element": "C" 
			},
			{
				"x": 1.314105525,
				"y": 0.0044479208,
				"z": -0.1310269092,
				"element": "C" 
			},
			{
				"x": 0.1271351818,
				"y": 0.4757180948,
				"z": -0.7007681124,
				"element": "C" 
			},
			{
				"x": -0.0375515506,
				"y": 0.4638001843,
				"z": -2.0895961569,
				"element": "C" 
			},
			{
				"x": 0.9846725157,
				"y": -0.0032372127,
				"z": -2.9138402999,
				"element": "C" 
			},
			{
				"x": -0.9150154172,
				"y": 1.0049922308,
				"z": 0.114655951,
				"element": "N" 
			},
			{
				"x": -1.6143487917,
				"y": 2.178326699,
				"z": -0.1965319841,
				"element": "C" 
			},
			{
				"x": -2.558702391,
				"y": 2.3585760881,
				"z": 0.7536010062,
				"element": "C" 
			},
			{
				"x": -2.436886065,
				"y": 1.2983924211,
				"z": 1.6370735177,
				"element": "N" 
			},
			{
				"x": -1.4341540143,
				"y": 0.4349803489,
				"z": 1.2724871803,
				"element": "C" 
			},
			{
				"x": -1.0145132824,
				"y": -0.9741404608,
				"z": 2.0761108094,
				"element": "S" 
			},
			{
				"x": 3.25548853,
				"y": -0.8432517411,
				"z": -0.5172089477,
				"element": "H" 
			},
			{
				"x": 1.4323173492,
				"y": 0.0049036845,
				"z": 0.9448184166,
				"element": "H" 
			},
			{
				"x": -0.9707796889,
				"y": 0.8020848827,
				"z": -2.5281495898,
				"element": "H" 
			},
			{
				"x": 0.8614408127,
				"y": -0.0159203783,
				"z": -3.9907680626,
				"element": "H" 
			},
			{
				"x": -1.3410485989,
				"y": 2.7876198767,
				"z": -1.0417837121,
				"element": "H" 
			},
			{
				"x": -3.2836807916,
				"y": 3.14537588,
				"z": 0.883913159,
				"element": "H" 
			},
			{
				"x": -2.9978948731,
				"y": 1.1179862424,
				"z": 2.4548854309,
				"element": "H" 
			}
		],
		 "valence_orbital": [ 
			{
				"type": "occ",
				"energy": -0.29315,
				"method": "rhf"
			},
			{
				"type": "occ",
				"energy": -0.27319,
				"method": "rhf"
			},
			{
				"type": "occ",
				"energy": -0.25085,
				"method": "rhf"
			},
			{
				"type": "occ",
				"energy": -0.20555,
				"method": "rhf"
			},
			{
				"type": "occ",
				"energy": -0.1935,
				"method": "rhf"
			},
			{
				"type": "unocc",
				"energy": -0.03244,
				"method": "rhf"
			},
			{
				"type": "unocc",
				"energy": -0.02253,
				"method": "rhf"
			},
			{
				"type": "unocc",
				"energy": 0.01113,
				"method": "rhf"
			},
			{
				"type": "unocc",
				"energy": 0.01774,
				"method": "rhf"
			},
			{
				"type": "unocc",
				"energy": 0.02752,
				"method": "rhf"
			}
		],
		"cosmo_sigma_profile": { 
			"-0.025": 0.0,
			"-0.024": 0.0,
			"-0.023": 0.0,
			"-0.022": 0.0,
			"-0.021": 0.0,
			"-0.02": 0.0,
			"-0.019": 0.0,
			"-0.018": 0.0,
			"-0.017": 0.853006293033,
			"-0.016": 1.1689891419,
			"-0.015": 1.23910904545,
			"-0.014": 1.25809089726,
			"-0.013": 0.817820093227,
			"-0.012": 0.922090553598,
			"-0.011": 0.880313935493,
			"-0.01": 5.07444355127,
			"-0.009": 4.26513865769,
			"-0.008": 7.82897846829,
			"-0.007": 10.2113337131,
			"-0.006": 10.8320791112,
			"-0.005": 10.4181099205,
			"-0.004": 8.63947853794,
			"-0.003": 9.63749037049,
			"-0.002": 10.7578367843,
			"-0.001": 15.6101406297,
			"0.0": 14.4959172121,
			"0.001": 21.0996814825,
			"0.002": 21.4243012715,
			"0.003": 16.2087127935,
			"0.004": 14.0235269366,
			"0.005": 8.08707310883,
			"0.006": 3.38245402933,
			"0.007": 3.31234317938,
			"0.008": 3.33896899299,
			"0.009": 5.52557201679,
			"0.01": 4.73131622407,
			"0.011": 5.63143815046,
			"0.012": 6.97550986738,
			"0.013": 1.29849894613,
			"0.014": 0.0,
			"0.015": 0.0,
			"0.016": 0.0,
			"0.017": 0.0,
			"0.018": 0.0,
			"0.019": 0.0,
			"0.02": 0.0,
			"0.021": 0.0,
			"0.022": 0.0,
			"0.023": 0.0,
			"0.024": 0.0,
			"0.025": 0.0
		}
	}
}
