{
	 "smiles": "NC1=NN2C(NC(=O)C=C2C(F)(F)F)=C1N=NC1=CC=CC2=C1C=CC=C2", 
	 "Tm": 563.15, 
	 "num_atms": 38, 
	 "gaussian": { 
		 "optdone": 1, 
		 "sigma_profile": "yes", 
		 "theory": "DFT", 
		 "functional": "B3LYP", 
		 "basiset": "6-31G**", 
		 "properties": { 
			 "R2extent": 12548.6505, 
			 "electric_dipole_moment_norm": 4.67550172067, 
			 "electric_quadrupole_moment_norm": 14.6368324446, 
			 "total_energy": -1357.63083711, 
			 "HOMO_LUMO_gap": 0.12898, 
			 "cosmo_polarized_energy": -18.96, 
			 "cosmo_cavitation_energy": 44.64, 
			 "cosmo_dispersion_energy": -31.3, 
			 "cosmo_repulsion_energy": 2.26, 
			 "cosmo_total_nonelectrostatic_energy": 15.6, 
			 "SMD_solvation_energy": 6.58 
		},
		"coords": [
			{
				"x": -1.3384173163,
				"y": 0.4468032052,
				"z": 0.418241719,
				"element": "N" 
			},
			{
				"x": -0.7427532089,
				"y": -0.7630868551,
				"z": 0.2104148988,
				"element": "C" 
			},
			{
				"x": -1.5030293446,
				"y": -1.848051663,
				"z": 0.0930186682,
				"element": "N" 
			},
			{
				"x": -0.6076773239,
				"y": -2.901898613,
				"z": 0.0407425516,
				"element": "N" 
			},
			{
				"x": 0.6821868221,
				"y": -2.4814809661,
				"z": 0.1320689435,
				"element": "C" 
			},
			{
				"x": 1.6878697217,
				"y": -3.3925106683,
				"z": 0.1238747147,
				"element": "N" 
			},
			{
				"x": 1.4861091409,
				"y": -4.7843948741,
				"z": 0.0285812328,
				"element": "C" 
			},
			{
				"x": 2.4271570968,
				"y": -5.5597124945,
				"z": 0.0438315287,
				"element": "O" 
			},
			{
				"x": 0.072892326,
				"y": -5.1593500137,
				"z": -0.0877295263,
				"element": "C" 
			},
			{
				"x": -0.920873478,
				"y": -4.2365053354,
				"z": -0.0742411699,
				"element": "C" 
			},
			{
				"x": -2.3879057226,
				"y": -4.6043429604,
				"z": -0.1823986967,
				"element": "C" 
			},
			{
				"x": -3.0689146471,
				"y": -4.2163722032,
				"z": 0.9064240554,
				"element": "F" 
			},
			{
				"x": -2.9517893301,
				"y": -4.0367663105,
				"z": -1.2604115024,
				"element": "F" 
			},
			{
				"x": -2.5207261501,
				"y": -5.9394557739,
				"z": -0.3004027891,
				"element": "F" 
			},
			{
				"x": 0.684480677,
				"y": -1.0838296189,
				"z": 0.2160322945,
				"element": "C" 
			},
			{
				"x": 1.931235337,
				"y": -0.5089975318,
				"z": 0.4350262091,
				"element": "N" 
			},
			{
				"x": 2.2613154807,
				"y": 0.7061363775,
				"z": 0.4106392252,
				"element": "N" 
			},
			{
				"x": 1.4557248252,
				"y": 1.7562748016,
				"z": -0.0929356094,
				"element": "C" 
			},
			{
				"x": 0.9232812348,
				"y": 1.7098780314,
				"z": -1.374997356,
				"element": "C" 
			},
			{
				"x": 0.3052680391,
				"y": 2.8509651224,
				"z": -1.9386996944,
				"element": "C" 
			},
			{
				"x": 0.2068144815,
				"y": 4.0211438201,
				"z": -1.2197900678,
				"element": "C" 
			},
			{
				"x": 0.7458212214,
				"y": 4.1121386632,
				"z": 0.0937566973,
				"element": "C" 
			},
			{
				"x": 1.3993191144,
				"y": 2.9736076108,
				"z": 0.6664127724,
				"element": "C" 
			},
			{
				"x": 1.9574894566,
				"y": 3.076075378,
				"z": 1.9667279992,
				"element": "C" 
			},
			{
				"x": 1.8663828988,
				"y": 4.2539988737,
				"z": 2.6758203684,
				"element": "C" 
			},
			{
				"x": 1.2090278509,
				"y": 5.3774456191,
				"z": 2.1198429804,
				"element": "C" 
			},
			{
				"x": 0.6634073665,
				"y": 5.307435509,
				"z": 0.8576538543,
				"element": "C" 
			},
			{
				"x": -0.8603563026,
				"y": 1.261750243,
				"z": 0.0617401245,
				"element": "H" 
			},
			{
				"x": -2.3418342416,
				"y": 0.439188755,
				"z": 0.2934751038,
				"element": "H" 
			},
			{
				"x": 2.6352784866,
				"y": -3.044549741,
				"z": 0.2308208812,
				"element": "H" 
			},
			{
				"x": -0.1534643802,
				"y": -6.2113859782,
				"z": -0.1803852988,
				"element": "H" 
			},
			{
				"x": 1.0120542335,
				"y": 0.798152933,
				"z": -1.9573096809,
				"element": "H" 
			},
			{
				"x": -0.0925188138,
				"y": 2.7929679929,
				"z": -2.9475947757,
				"element": "H" 
			},
			{
				"x": -0.2745227912,
				"y": 4.89453182,
				"z": -1.6510663497,
				"element": "H" 
			},
			{
				"x": 2.4649106541,
				"y": 2.2126765012,
				"z": 2.3829280679,
				"element": "H" 
			},
			{
				"x": 2.3026174401,
				"y": 4.3238118239,
				"z": 3.6679038468,
				"element": "H" 
			},
			{
				"x": 1.1409547814,
				"y": 6.2982723991,
				"z": 2.6917721533,
				"element": "H" 
			},
			{
				"x": 0.1632843637,
				"y": 6.1696361209,
				"z": 0.4243116261,
				"element": "H" 
			}
		],
		 "valence_orbital": [ 
			{
				"type": "occ",
				"energy": -0.25858,
				"method": "rhf"
			},
			{
				"type": "occ",
				"energy": -0.25117,
				"method": "rhf"
			},
			{
				"type": "occ",
				"energy": -0.24016,
				"method": "rhf"
			},
			{
				"type": "occ",
				"energy": -0.22844,
				"method": "rhf"
			},
			{
				"type": "occ",
				"energy": -0.2102,
				"method": "rhf"
			},
			{
				"type": "unocc",
				"energy": -0.08122,
				"method": "rhf"
			},
			{
				"type": "unocc",
				"energy": -0.06695,
				"method": "rhf"
			},
			{
				"type": "unocc",
				"energy": -0.03992,
				"method": "rhf"
			},
			{
				"type": "unocc",
				"energy": -0.02307,
				"method": "rhf"
			},
			{
				"type": "unocc",
				"energy": -0.0025,
				"method": "rhf"
			}
		],
		"cosmo_sigma_profile": { 
			"-0.025": 0.0,
			"-0.024": 0.0,
			"-0.023": 0.0,
			"-0.022": 0.0,
			"-0.021": 0.0,
			"-0.02": 0.0,
			"-0.019": 0.0,
			"-0.018": 0.0,
			"-0.017": 0.0,
			"-0.016": 0.36184165681,
			"-0.015": 0.853316378316,
			"-0.014": 1.03079238345,
			"-0.013": 1.97009136672,
			"-0.012": 2.08886957631,
			"-0.011": 1.60526625396,
			"-0.01": 1.79182599443,
			"-0.009": 2.95517614322,
			"-0.008": 4.23823689702,
			"-0.007": 8.66169744128,
			"-0.006": 19.5223532954,
			"-0.005": 24.9022871606,
			"-0.004": 28.2056627449,
			"-0.003": 25.7014568147,
			"-0.002": 26.1639939299,
			"-0.001": 22.7748915152,
			"0.0": 21.3271502127,
			"0.001": 26.840314554,
			"0.002": 37.0657705014,
			"0.003": 25.098191189,
			"0.004": 20.2740946289,
			"0.005": 12.811502417,
			"0.006": 5.42616704582,
			"0.007": 4.33568145503,
			"0.008": 5.28953206877,
			"0.009": 6.22922433406,
			"0.01": 5.1163968009,
			"0.011": 5.23690763354,
			"0.012": 7.63141525384,
			"0.013": 3.76228751706,
			"0.014": 0.915544751906,
			"0.015": 0.0339079736885,
			"0.016": 0.0,
			"0.017": 0.0,
			"0.018": 0.0,
			"0.019": 0.0,
			"0.02": 0.0,
			"0.021": 0.0,
			"0.022": 0.0,
			"0.023": 0.0,
			"0.024": 0.0,
			"0.025": 0.0
		}
	}
}
