{
	 "smiles": "C(OC1=CC=C(OCC2CO2)C=C1)C1CO1", 
	 "Tm": 384.15, 
	 "num_atms": 30, 
	 "gaussian": { 
		 "optdone": 1, 
		 "sigma_profile": "yes", 
		 "theory": "DFT", 
		 "functional": "B3LYP", 
		 "basiset": "6-31G**", 
		 "properties": { 
			 "R2extent": 7410.5565, 
			 "electric_dipole_moment_norm": 1.4620461347, 
			 "electric_quadrupole_moment_norm": 5.34710978754, 
			 "total_energy": -766.485530174, 
			 "HOMO_LUMO_gap": 0.19836, 
			 "cosmo_polarized_energy": -12.74, 
			 "cosmo_cavitation_energy": 34.67, 
			 "cosmo_dispersion_energy": -25.23, 
			 "cosmo_repulsion_energy": 2.0, 
			 "cosmo_total_nonelectrostatic_energy": 11.44, 
			 "SMD_solvation_energy": 6.17 
		},
		"coords": [
			{
				"x": -2.5959463038,
				"y": 1.4070268402,
				"z": -2.6274812204,
				"element": "C" 
			},
			{
				"x": -1.8405147036,
				"y": 2.2310799157,
				"z": -1.7514869744,
				"element": "O" 
			},
			{
				"x": -0.9565749112,
				"y": 1.6275648941,
				"z": -0.8940274633,
				"element": "C" 
			},
			{
				"x": -0.1958925099,
				"y": 2.4946811373,
				"z": -0.0930002707,
				"element": "C" 
			},
			{
				"x": 0.7241852142,
				"y": 1.9888567562,
				"z": 0.8104535424,
				"element": "C" 
			},
			{
				"x": 0.908184094,
				"y": 0.6023794529,
				"z": 0.9370539257,
				"element": "C" 
			},
			{
				"x": 1.840016128,
				"y": 0.2075851,
				"z": 1.8626073691,
				"element": "O" 
			},
			{
				"x": 2.1111179187,
				"y": -1.1804090444,
				"z": 1.9931468201,
				"element": "C" 
			},
			{
				"x": 3.2200627138,
				"y": -1.3260154044,
				"z": 3.0065031125,
				"element": "C" 
			},
			{
				"x": 2.9333518354,
				"y": -1.6163853658,
				"z": 4.4167898751,
				"element": "C" 
			},
			{
				"x": 3.387220769,
				"y": -2.6470373461,
				"z": 3.5272825382,
				"element": "O" 
			},
			{
				"x": 0.1531319198,
				"y": -0.2622931054,
				"z": 0.1453176981,
				"element": "C" 
			},
			{
				"x": -0.7788051282,
				"y": 0.2500454709,
				"z": -0.7697644444,
				"element": "C" 
			},
			{
				"x": -3.4136204389,
				"y": 2.3212135839,
				"z": -3.5069646776,
				"element": "C" 
			},
			{
				"x": -4.8093954413,
				"y": 2.6435985089,
				"z": -3.1855598349,
				"element": "C" 
			},
			{
				"x": -4.4876356748,
				"y": 1.6828646277,
				"z": -4.201986404,
				"element": "O" 
			},
			{
				"x": -3.264284462,
				"y": 0.7346485879,
				"z": -2.0712101978,
				"element": "H" 
			},
			{
				"x": -1.930255258,
				"y": 0.7874516005,
				"z": -3.2463676593,
				"element": "H" 
			},
			{
				"x": -0.3442128833,
				"y": 3.5643562908,
				"z": -0.1991585733,
				"element": "H" 
			},
			{
				"x": 1.3176824918,
				"y": 2.6507224087,
				"z": 1.432686564,
				"element": "H" 
			},
			{
				"x": 1.2244468383,
				"y": -1.7333985651,
				"z": 2.3340366653,
				"element": "H" 
			},
			{
				"x": 2.4258354011,
				"y": -1.6057355157,
				"z": 1.0287229192,
				"element": "H" 
			},
			{
				"x": 4.1456905694,
				"y": -0.8047254681,
				"z": 2.7573332263,
				"element": "H" 
			},
			{
				"x": 1.8980084347,
				"y": -1.7040077516,
				"z": 4.7462442232,
				"element": "H" 
			},
			{
				"x": 3.6448300852,
				"y": -1.3149164942,
				"z": 5.1847601003,
				"element": "H" 
			},
			{
				"x": 0.2681883895,
				"y": -1.3369899241,
				"z": 0.2228221695,
				"element": "H" 
			},
			{
				"x": -1.3537911634,
				"y": -0.4452829055,
				"z": -1.3698854938,
				"element": "H" 
			},
			{
				"x": -2.8353730873,
				"y": 3.0324528715,
				"z": -4.0989127425,
				"element": "H" 
			},
			{
				"x": -5.2589202908,
				"y": 2.2354161843,
				"z": -2.2803254165,
				"element": "H" 
			},
			{
				"x": -5.2437305465,
				"y": 3.5760526586,
				"z": -3.5443293761,
				"element": "H" 
			}
		],
		 "valence_orbital": [ 
			{
				"type": "occ",
				"energy": -0.29162,
				"method": "rhf"
			},
			{
				"type": "occ",
				"energy": -0.27577,
				"method": "rhf"
			},
			{
				"type": "occ",
				"energy": -0.27574,
				"method": "rhf"
			},
			{
				"type": "occ",
				"energy": -0.25406,
				"method": "rhf"
			},
			{
				"type": "occ",
				"energy": -0.20406,
				"method": "rhf"
			},
			{
				"type": "unocc",
				"energy": -0.0057,
				"method": "rhf"
			},
			{
				"type": "unocc",
				"energy": 0.02162,
				"method": "rhf"
			},
			{
				"type": "unocc",
				"energy": 0.08196,
				"method": "rhf"
			},
			{
				"type": "unocc",
				"energy": 0.08269,
				"method": "rhf"
			},
			{
				"type": "unocc",
				"energy": 0.09314,
				"method": "rhf"
			}
		],
		"cosmo_sigma_profile": { 
			"-0.025": 0.0,
			"-0.024": 0.0,
			"-0.023": 0.0,
			"-0.022": 0.0,
			"-0.021": 0.0,
			"-0.02": 0.0,
			"-0.019": 0.0,
			"-0.018": 0.0,
			"-0.017": 0.0,
			"-0.016": 0.0,
			"-0.015": 0.0,
			"-0.014": 0.0,
			"-0.013": 0.0,
			"-0.012": 0.0,
			"-0.011": 0.0,
			"-0.01": 0.0,
			"-0.009": 0.0,
			"-0.008": 0.0,
			"-0.007": 7.11633125902,
			"-0.006": 30.8508613936,
			"-0.005": 33.0958945869,
			"-0.004": 26.6031705814,
			"-0.003": 20.7344372228,
			"-0.002": 15.0363810891,
			"-0.001": 14.2343105536,
			"0.0": 11.4974561177,
			"0.001": 11.3473349026,
			"0.002": 11.4883326977,
			"0.003": 14.9748343559,
			"0.004": 17.4250583981,
			"0.005": 17.2840060674,
			"0.006": 8.45208932855,
			"0.007": 6.43226056031,
			"0.008": 6.04851003525,
			"0.009": 5.26311618226,
			"0.01": 4.94828202706,
			"0.011": 7.35481146613,
			"0.012": 4.08080092283,
			"0.013": 0.354316316737,
			"0.014": 0.0,
			"0.015": 0.0,
			"0.016": 0.0,
			"0.017": 0.0,
			"0.018": 0.0,
			"0.019": 0.0,
			"0.02": 0.0,
			"0.021": 0.0,
			"0.022": 0.0,
			"0.023": 0.0,
			"0.024": 0.0,
			"0.025": 0.0
		}
	}
}
