{
	 "smiles": "OC(=O)C1CCCC2=C1C=CC=C2", 
	 "Tm": 358.15, 
	 "num_atms": 25, 
	 "gaussian": { 
		 "optdone": 1, 
		 "sigma_profile": "yes", 
		 "theory": "DFT", 
		 "functional": "B3LYP", 
		 "basiset": "6-31G**", 
		 "properties": { 
			 "R2extent": 2713.4454, 
			 "electric_dipole_moment_norm": 1.09967632056, 
			 "electric_quadrupole_moment_norm": 8.12340952556, 
			 "total_energy": -576.881496841, 
			 "HOMO_LUMO_gap": 0.22617, 
			 "cosmo_polarized_energy": -8.93, 
			 "cosmo_cavitation_energy": 26.91, 
			 "cosmo_dispersion_energy": -19.96, 
			 "cosmo_repulsion_energy": 1.58, 
			 "cosmo_total_nonelectrostatic_energy": 8.52, 
			 "SMD_solvation_energy": 4.97 
		},
		"coords": [
			{
				"x": 3.3858766534,
				"y": -1.1827137002,
				"z": -0.8610810529,
				"element": "O" 
			},
			{
				"x": 2.4207934187,
				"y": -0.2960909419,
				"z": -1.2138791749,
				"element": "C" 
			},
			{
				"x": 2.5760845436,
				"y": 0.8998412437,
				"z": -1.0949119313,
				"element": "O" 
			},
			{
				"x": 1.1781226969,
				"y": -1.0028021905,
				"z": -1.7523613112,
				"element": "C" 
			},
			{
				"x": 0.4123510426,
				"y": -0.1024151457,
				"z": -2.739067984,
				"element": "C" 
			},
			{
				"x": -0.4487872513,
				"y": 0.9380013329,
				"z": -2.0156100301,
				"element": "C" 
			},
			{
				"x": -1.4951817891,
				"y": 0.2439174059,
				"z": -1.1398006055,
				"element": "C" 
			},
			{
				"x": -0.9216509974,
				"y": -0.8700902637,
				"z": -0.2829368809,
				"element": "C" 
			},
			{
				"x": 0.3126965988,
				"y": -1.4770226917,
				"z": -0.5767879923,
				"element": "C" 
			},
			{
				"x": 0.7667233996,
				"y": -2.5382134034,
				"z": 0.2223029352,
				"element": "C" 
			},
			{
				"x": 0.0201218266,
				"y": -2.9978536337,
				"z": 1.3028516672,
				"element": "C" 
			},
			{
				"x": -1.203394889,
				"y": -2.3934640148,
				"z": 1.6019042775,
				"element": "C" 
			},
			{
				"x": -1.660985669,
				"y": -1.3434710437,
				"z": 0.8119606735,
				"element": "C" 
			},
			{
				"x": 4.1136603831,
				"y": -0.6546748606,
				"z": -0.4907761788,
				"element": "H" 
			},
			{
				"x": 1.5433068756,
				"y": -1.8928130507,
				"z": -2.2775815976,
				"element": "H" 
			},
			{
				"x": 1.1222672664,
				"y": 0.3862003977,
				"z": -3.4137767012,
				"element": "H" 
			},
			{
				"x": -0.2300033675,
				"y": -0.74280327,
				"z": -3.3572944997,
				"element": "H" 
			},
			{
				"x": -0.9457131332,
				"y": 1.5877480489,
				"z": -2.744736861,
				"element": "H" 
			},
			{
				"x": 0.2001636729,
				"y": 1.5726023149,
				"z": -1.4050908871,
				"element": "H" 
			},
			{
				"x": -2.0036547641,
				"y": 0.9724835226,
				"z": -0.4972651836,
				"element": "H" 
			},
			{
				"x": -2.2778147997,
				"y": -0.1839240274,
				"z": -1.7845265063,
				"element": "H" 
			},
			{
				"x": 1.7229062802,
				"y": -2.998607013,
				"z": -0.0086180649,
				"element": "H" 
			},
			{
				"x": 0.3894355496,
				"y": -3.8213626036,
				"z": 1.9072726834,
				"element": "H" 
			},
			{
				"x": -1.7953697434,
				"y": -2.7386972628,
				"z": 2.444878249,
				"element": "H" 
			},
			{
				"x": -2.6144538045,
				"y": -0.8725751493,
				"z": 1.0411329576,
				"element": "H" 
			}
		],
		 "valence_orbital": [ 
			{
				"type": "occ",
				"energy": -0.31557,
				"method": "rhf"
			},
			{
				"type": "occ",
				"energy": -0.30931,
				"method": "rhf"
			},
			{
				"type": "occ",
				"energy": -0.2783,
				"method": "rhf"
			},
			{
				"type": "occ",
				"energy": -0.24018,
				"method": "rhf"
			},
			{
				"type": "occ",
				"energy": -0.23582,
				"method": "rhf"
			},
			{
				"type": "unocc",
				"energy": -0.00965,
				"method": "rhf"
			},
			{
				"type": "unocc",
				"energy": -0.00025,
				"method": "rhf"
			},
			{
				"type": "unocc",
				"energy": 0.02259,
				"method": "rhf"
			},
			{
				"type": "unocc",
				"energy": 0.0781,
				"method": "rhf"
			},
			{
				"type": "unocc",
				"energy": 0.09666,
				"method": "rhf"
			}
		],
		"cosmo_sigma_profile": { 
			"-0.025": 0.0,
			"-0.024": 0.0,
			"-0.023": 0.0,
			"-0.022": 0.0,
			"-0.021": 0.0,
			"-0.02": 0.0,
			"-0.019": 0.0,
			"-0.018": 0.580071344191,
			"-0.017": 1.05562619597,
			"-0.016": 0.695360638337,
			"-0.015": 0.734059064438,
			"-0.014": 1.14069964918,
			"-0.013": 0.649955093232,
			"-0.012": 0.474021435477,
			"-0.011": 0.696517732269,
			"-0.01": 0.825102620994,
			"-0.009": 0.326247234679,
			"-0.008": 0.904272858103,
			"-0.007": 0.601199398377,
			"-0.006": 2.7789554233,
			"-0.005": 9.8669428765,
			"-0.004": 15.779669218,
			"-0.003": 26.839806657,
			"-0.002": 22.4887439803,
			"-0.001": 21.987118963,
			"0.0": 18.9093503217,
			"0.001": 14.7500094796,
			"0.002": 9.81921763809,
			"0.003": 10.488723935,
			"0.004": 11.7557756524,
			"0.005": 10.9973354305,
			"0.006": 9.37747352984,
			"0.007": 3.07833719492,
			"0.008": 3.11793104174,
			"0.009": 2.49421778025,
			"0.01": 1.85121429267,
			"0.011": 3.64821872844,
			"0.012": 2.97162304214,
			"0.013": 0.0263800362679,
			"0.014": 0.0,
			"0.015": 0.0,
			"0.016": 0.0,
			"0.017": 0.0,
			"0.018": 0.0,
			"0.019": 0.0,
			"0.02": 0.0,
			"0.021": 0.0,
			"0.022": 0.0,
			"0.023": 0.0,
			"0.024": 0.0,
			"0.025": 0.0
		}
	}
}
