{
	 "smiles": "CC1=CC=C(C=C1)[Si](C)(Cl)Cl", 
	 "Tm": 330.15, 
	 "num_atms": 21, 
	 "gaussian": { 
		 "optdone": 1, 
		 "sigma_profile": "yes", 
		 "theory": "DFT", 
		 "functional": "B3LYP", 
		 "basiset": "6-31G**", 
		 "properties": { 
			 "R2extent": 3280.5613, 
			 "electric_dipole_moment_norm": 3.67772450572, 
			 "electric_quadrupole_moment_norm": 9.31974992959, 
			 "total_energy": -1520.89731531, 
			 "HOMO_LUMO_gap": 0.22186, 
			 "cosmo_polarized_energy": -6.22, 
			 "cosmo_cavitation_energy": 29.48, 
			 "cosmo_dispersion_energy": -19.29, 
			 "cosmo_repulsion_energy": 1.66, 
			 "cosmo_total_nonelectrostatic_energy": 11.84, 
			 "SMD_solvation_energy": 4.84 
		},
		"coords": [
			{
				"x": -2.7147846395,
				"y": -4.2979751043,
				"z": -0.3515736783,
				"element": "C" 
			},
			{
				"x": -1.9735112454,
				"y": -2.9857591591,
				"z": -0.2658222551,
				"element": "C" 
			},
			{
				"x": -1.280099264,
				"y": -2.6218157882,
				"z": 0.8952483,
				"element": "C" 
			},
			{
				"x": -0.5737093729,
				"y": -1.4217303621,
				"z": 0.962734684,
				"element": "C" 
			},
			{
				"x": -0.537717759,
				"y": -0.5385659996,
				"z": -0.1313789909,
				"element": "C" 
			},
			{
				"x": -1.2407648845,
				"y": -0.9046299663,
				"z": -1.2934519429,
				"element": "C" 
			},
			{
				"x": -1.9438873467,
				"y": -2.1046598881,
				"z": -1.3565434392,
				"element": "C" 
			},
			{
				"x": 0.4403290823,
				"y": 1.0421807954,
				"z": -0.0134075505,
				"element": "Si" 
			},
			{
				"x": 0.5651278182,
				"y": 1.7442832132,
				"z": 1.7138830772,
				"element": "C" 
			},
			{
				"x": 2.3832144276,
				"y": 0.7383682691,
				"z": -0.7225514417,
				"element": "Cl" 
			},
			{
				"x": -0.4384153869,
				"y": 2.4759581374,
				"z": -1.2491744065,
				"element": "Cl" 
			},
			{
				"x": -3.6351490618,
				"y": -4.2002478424,
				"z": -0.9354584178,
				"element": "H" 
			},
			{
				"x": -2.1002706851,
				"y": -5.0634405422,
				"z": -0.8416883746,
				"element": "H" 
			},
			{
				"x": -2.9782277402,
				"y": -4.6759540001,
				"z": 0.6402993281,
				"element": "H" 
			},
			{
				"x": -1.2960101578,
				"y": -3.2836334306,
				"z": 1.7576254635,
				"element": "H" 
			},
			{
				"x": -0.0507448773,
				"y": -1.176646702,
				"z": 1.8838107688,
				"element": "H" 
			},
			{
				"x": -1.2480848925,
				"y": -0.2413420562,
				"z": -2.1536293005,
				"element": "H" 
			},
			{
				"x": -2.4832429386,
				"y": -2.3613005822,
				"z": -2.2650870673,
				"element": "H" 
			},
			{
				"x": 1.1333748033,
				"y": 2.6784451542,
				"z": 1.7019154584,
				"element": "H" 
			},
			{
				"x": 1.0748920567,
				"y": 1.0468209847,
				"z": 2.3860215544,
				"element": "H" 
			},
			{
				"x": -0.4324179358,
				"y": 1.9498448691,
				"z": 2.1145282308,
				"element": "H" 
			}
		],
		 "valence_orbital": [ 
			{
				"type": "occ",
				"energy": -0.32122,
				"method": "rhf"
			},
			{
				"type": "occ",
				"energy": -0.311,
				"method": "rhf"
			},
			{
				"type": "occ",
				"energy": -0.30186,
				"method": "rhf"
			},
			{
				"type": "occ",
				"energy": -0.26109,
				"method": "rhf"
			},
			{
				"type": "occ",
				"energy": -0.25447,
				"method": "rhf"
			},
			{
				"type": "unocc",
				"energy": -0.03261,
				"method": "rhf"
			},
			{
				"type": "unocc",
				"energy": -0.01302,
				"method": "rhf"
			},
			{
				"type": "unocc",
				"energy": 0.02541,
				"method": "rhf"
			},
			{
				"type": "unocc",
				"energy": 0.05602,
				"method": "rhf"
			},
			{
				"type": "unocc",
				"energy": 0.06791,
				"method": "rhf"
			}
		],
		"cosmo_sigma_profile": { 
			"-0.025": 0.0,
			"-0.024": 0.0,
			"-0.023": 0.0,
			"-0.022": 0.0,
			"-0.021": 0.0,
			"-0.02": 0.0,
			"-0.019": 0.0,
			"-0.018": 0.0,
			"-0.017": 0.0,
			"-0.016": 0.0,
			"-0.015": 0.0,
			"-0.014": 0.0,
			"-0.013": 0.0,
			"-0.012": 0.0,
			"-0.011": 0.0,
			"-0.01": 0.0,
			"-0.009": 0.0,
			"-0.008": 0.492054413205,
			"-0.007": 3.10086741502,
			"-0.006": 8.84406015754,
			"-0.005": 16.3752098035,
			"-0.004": 22.567184223,
			"-0.003": 17.4668187084,
			"-0.002": 18.5734973705,
			"-0.001": 20.2347313696,
			"0.0": 18.7081236484,
			"0.001": 16.1830494152,
			"0.002": 18.0655910027,
			"0.003": 20.5713454778,
			"0.004": 26.1045580395,
			"0.005": 26.9068178366,
			"0.006": 0.731871320085,
			"0.007": 0.0,
			"0.008": 0.0,
			"0.009": 0.0,
			"0.01": 0.0,
			"0.011": 0.0,
			"0.012": 0.0,
			"0.013": 0.0,
			"0.014": 0.0,
			"0.015": 0.0,
			"0.016": 0.0,
			"0.017": 0.0,
			"0.018": 0.0,
			"0.019": 0.0,
			"0.02": 0.0,
			"0.021": 0.0,
			"0.022": 0.0,
			"0.023": 0.0,
			"0.024": 0.0,
			"0.025": 0.0
		}
	}
}
