{
	 "smiles": "OC(C1=CC=CC=C1)C1=CC=CC=C1", 
	 "Tm": 340.65, 
	 "num_atms": 26, 
	 "gaussian": { 
		 "optdone": 1, 
		 "sigma_profile": "yes", 
		 "theory": "DFT", 
		 "functional": "B3LYP", 
		 "basiset": "6-31G**", 
		 "properties": { 
			 "R2extent": 3133.1592, 
			 "electric_dipole_moment_norm": 1.65489040423, 
			 "electric_quadrupole_moment_norm": 5.48800000182, 
			 "total_energy": -577.833264523, 
			 "HOMO_LUMO_gap": 0.2218, 
			 "cosmo_polarized_energy": -8.8, 
			 "cosmo_cavitation_energy": 29.53, 
			 "cosmo_dispersion_energy": -21.07, 
			 "cosmo_repulsion_energy": 1.67, 
			 "cosmo_total_nonelectrostatic_energy": 10.12, 
			 "SMD_solvation_energy": 4.93 
		},
		"coords": [
			{
				"x": -2.5424018093,
				"y": 0.3976722608,
				"z": -0.0994803948,
				"element": "O" 
			},
			{
				"x": -1.1772389429,
				"y": 0.7774818097,
				"z": 0.0594808501,
				"element": "C" 
			},
			{
				"x": -0.4159344572,
				"y": -0.4165003591,
				"z": 0.6257807251,
				"element": "C" 
			},
			{
				"x": 0.9258003171,
				"y": -0.2659316649,
				"z": 1.0012036551,
				"element": "C" 
			},
			{
				"x": 1.6415590143,
				"y": -1.3401770874,
				"z": 1.52587348,
				"element": "C" 
			},
			{
				"x": 1.0240111177,
				"y": -2.584021837,
				"z": 1.6828602454,
				"element": "C" 
			},
			{
				"x": -0.31145263,
				"y": -2.7391893519,
				"z": 1.3129886053,
				"element": "C" 
			},
			{
				"x": -1.0303789903,
				"y": -1.6615780512,
				"z": 0.7882569216,
				"element": "C" 
			},
			{
				"x": -0.5882190462,
				"y": 1.2738151797,
				"z": -1.2564431973,
				"element": "C" 
			},
			{
				"x": 0.0642721583,
				"y": 2.5083476502,
				"z": -1.3314380062,
				"element": "C" 
			},
			{
				"x": 0.5982128693,
				"y": 2.9597105556,
				"z": -2.5417069866,
				"element": "C" 
			},
			{
				"x": 0.4738548225,
				"y": 2.180872352,
				"z": -3.6917372529,
				"element": "C" 
			},
			{
				"x": -0.1857177608,
				"y": 0.9492025638,
				"z": -3.6271796735,
				"element": "C" 
			},
			{
				"x": -0.7118401549,
				"y": 0.4984046151,
				"z": -2.4185522897,
				"element": "C" 
			},
			{
				"x": -2.9806557585,
				"y": 1.1032269682,
				"z": -0.5918246709,
				"element": "H" 
			},
			{
				"x": -1.1004300656,
				"y": 1.5997517396,
				"z": 0.7906735267,
				"element": "H" 
			},
			{
				"x": 1.4150390433,
				"y": 0.6967917024,
				"z": 0.8745145971,
				"element": "H" 
			},
			{
				"x": 2.681313888,
				"y": -1.2073451598,
				"z": 1.8118099899,
				"element": "H" 
			},
			{
				"x": 1.580542615,
				"y": -3.422549965,
				"z": 2.0918796332,
				"element": "H" 
			},
			{
				"x": -0.801119461,
				"y": -3.7016753317,
				"z": 1.434405305,
				"element": "H" 
			},
			{
				"x": -2.070995125,
				"y": -1.7767503118,
				"z": 0.5093661213,
				"element": "H" 
			},
			{
				"x": 0.1519784276,
				"y": 3.1235681931,
				"z": -0.4386625636,
				"element": "H" 
			},
			{
				"x": 1.1031179842,
				"y": 3.9206897787,
				"z": -2.5850146752,
				"element": "H" 
			},
			{
				"x": 0.8848882713,
				"y": 2.5302984022,
				"z": -4.6345700107,
				"element": "H" 
			},
			{
				"x": -0.2864366283,
				"y": 0.3397968019,
				"z": -4.5210179441,
				"element": "H" 
			},
			{
				"x": -1.2239696985,
				"y": -0.4577114532,
				"z": -2.3638659905,
				"element": "H" 
			}
		],
		 "valence_orbital": [ 
			{
				"type": "occ",
				"energy": -0.2842,
				"method": "rhf"
			},
			{
				"type": "occ",
				"energy": -0.25285,
				"method": "rhf"
			},
			{
				"type": "occ",
				"energy": -0.24704,
				"method": "rhf"
			},
			{
				"type": "occ",
				"energy": -0.24161,
				"method": "rhf"
			},
			{
				"type": "occ",
				"energy": -0.23244,
				"method": "rhf"
			},
			{
				"type": "unocc",
				"energy": -0.01064,
				"method": "rhf"
			},
			{
				"type": "unocc",
				"energy": -0.00638,
				"method": "rhf"
			},
			{
				"type": "unocc",
				"energy": 0.00548,
				"method": "rhf"
			},
			{
				"type": "unocc",
				"energy": 0.01317,
				"method": "rhf"
			},
			{
				"type": "unocc",
				"energy": 0.08851,
				"method": "rhf"
			}
		],
		"cosmo_sigma_profile": { 
			"-0.025": 0.0,
			"-0.024": 0.0,
			"-0.023": 0.0,
			"-0.022": 0.0,
			"-0.021": 0.0,
			"-0.02": 0.0,
			"-0.019": 0.0,
			"-0.018": 0.0,
			"-0.017": 0.0,
			"-0.016": 0.292777585903,
			"-0.015": 0.758243392655,
			"-0.014": 1.05477538949,
			"-0.013": 0.563627994298,
			"-0.012": 0.658001018073,
			"-0.011": 0.931245233671,
			"-0.01": 0.708674757733,
			"-0.009": 0.839963832626,
			"-0.008": 0.664557093694,
			"-0.007": 1.28932791486,
			"-0.006": 6.79160433048,
			"-0.005": 22.0818820504,
			"-0.004": 23.697652567,
			"-0.003": 22.7813655055,
			"-0.002": 16.0129432412,
			"-0.001": 15.0548741492,
			"0.0": 13.6127897154,
			"0.001": 14.1865216441,
			"0.002": 14.5662541032,
			"0.003": 15.2207224719,
			"0.004": 16.4333042553,
			"0.005": 20.4155818187,
			"0.006": 16.5938974031,
			"0.007": 3.30366824767,
			"0.008": 1.18592069959,
			"0.009": 1.83395388459,
			"0.01": 1.22202270681,
			"0.011": 1.04273125063,
			"0.012": 0.524412433605,
			"0.013": 0.870766648434,
			"0.014": 0.000256276210316,
			"0.015": 0.0,
			"0.016": 0.0,
			"0.017": 0.0,
			"0.018": 0.0,
			"0.019": 0.0,
			"0.02": 0.0,
			"0.021": 0.0,
			"0.022": 0.0,
			"0.023": 0.0,
			"0.024": 0.0,
			"0.025": 0.0
		}
	}
}
