{
	 "smiles": "CCCOC(=O)C1=C(C)NC(=S)NC1C1=CC=CC(=C1)[N+]([O-])=O", 
	 "Tm": 482.15, 
	 "num_atms": 40, 
	 "gaussian": { 
		 "optdone": 1, 
		 "sigma_profile": "yes", 
		 "theory": "DFT", 
		 "functional": "B3LYP", 
		 "basiset": "6-31G**", 
		 "properties": { 
			 "R2extent": 9490.2319, 
			 "electric_dipole_moment_norm": 2.94791954096, 
			 "electric_quadrupole_moment_norm": 27.1621771966, 
			 "total_energy": -1445.11750535, 
			 "HOMO_LUMO_gap": 0.13064, 
			 "cosmo_polarized_energy": -22.13, 
			 "cosmo_cavitation_energy": 45.91, 
			 "cosmo_dispersion_energy": -30.85, 
			 "cosmo_repulsion_energy": 2.34, 
			 "cosmo_total_nonelectrostatic_energy": 17.4, 
			 "SMD_solvation_energy": 9.13 
		},
		"coords": [
			{
				"x": -0.1998926861,
				"y": 2.8314949735,
				"z": -2.4629922615,
				"element": "C" 
			},
			{
				"x": 1.0789183424,
				"y": 2.0052068774,
				"z": -2.6280298584,
				"element": "C" 
			},
			{
				"x": 0.8868174392,
				"y": 0.5134572462,
				"z": -2.3720729063,
				"element": "C" 
			},
			{
				"x": 0.4109460087,
				"y": 0.2520373978,
				"z": -1.0277959136,
				"element": "O" 
			},
			{
				"x": 1.3549817061,
				"y": 0.1156225358,
				"z": -0.0582548572,
				"element": "C" 
			},
			{
				"x": 2.55094689,
				"y": 0.2282621444,
				"z": -0.2771839305,
				"element": "O" 
			},
			{
				"x": 0.7393924676,
				"y": -0.173220272,
				"z": 1.2450074131,
				"element": "C" 
			},
			{
				"x": 1.5007742138,
				"y": -0.2581749461,
				"z": 2.3718279367,
				"element": "C" 
			},
			{
				"x": 2.9995212534,
				"y": -0.1375698517,
				"z": 2.4432344557,
				"element": "C" 
			},
			{
				"x": 0.8794047467,
				"y": -0.4617008528,
				"z": 3.5939645437,
				"element": "N" 
			},
			{
				"x": -0.479552651,
				"y": -0.3626369574,
				"z": 3.8183010151,
				"element": "C" 
			},
			{
				"x": -1.107224953,
				"y": -0.4186449622,
				"z": 5.3682966844,
				"element": "S" 
			},
			{
				"x": -1.2213113058,
				"y": -0.1963251855,
				"z": 2.70319464,
				"element": "N" 
			},
			{
				"x": -0.7659437074,
				"y": -0.395222956,
				"z": 1.3196290027,
				"element": "C" 
			},
			{
				"x": -1.1940062194,
				"y": -1.766323975,
				"z": 0.7818392018,
				"element": "C" 
			},
			{
				"x": -0.9681245048,
				"y": -2.9398434685,
				"z": 1.516520399,
				"element": "C" 
			},
			{
				"x": -1.3543200613,
				"y": -4.1842522489,
				"z": 1.0161327039,
				"element": "C" 
			},
			{
				"x": -1.9700085293,
				"y": -4.2833315254,
				"z": -0.2306235799,
				"element": "C" 
			},
			{
				"x": -2.1862288113,
				"y": -3.1107834425,
				"z": -0.9496101137,
				"element": "C" 
			},
			{
				"x": -1.8158215656,
				"y": -1.858811221,
				"z": -0.4642946662,
				"element": "C" 
			},
			{
				"x": -2.8281514286,
				"y": -3.1933107666,
				"z": -2.2730770012,
				"element": "N" 
			},
			{
				"x": -3.1764802242,
				"y": -4.3041567112,
				"z": -2.6700080377,
				"element": "O" 
			},
			{
				"x": -2.9743934139,
				"y": -2.1458645687,
				"z": -2.9031716532,
				"element": "O" 
			},
			{
				"x": -0.0106023892,
				"y": 3.8908294076,
				"z": -2.6612690115,
				"element": "H" 
			},
			{
				"x": -0.9817871128,
				"y": 2.4966433536,
				"z": -3.1541277995,
				"element": "H" 
			},
			{
				"x": -0.5955899405,
				"y": 2.7474426392,
				"z": -1.4462281528,
				"element": "H" 
			},
			{
				"x": 1.4633029895,
				"y": 2.1094155872,
				"z": -3.651146316,
				"element": "H" 
			},
			{
				"x": 1.8661059318,
				"y": 2.3745025496,
				"z": -1.9617823141,
				"element": "H" 
			},
			{
				"x": 0.1085657126,
				"y": 0.095861946,
				"z": -3.0172757744,
				"element": "H" 
			},
			{
				"x": 1.8209148899,
				"y": -0.0318891556,
				"z": -2.5226187025,
				"element": "H" 
			},
			{
				"x": 3.3248158256,
				"y": 0.8409727601,
				"z": 2.0826823483,
				"element": "H" 
			},
			{
				"x": 3.4808275605,
				"y": -0.8722684162,
				"z": 1.7956827376,
				"element": "H" 
			},
			{
				"x": 3.3494040539,
				"y": -0.2734168485,
				"z": 3.4707197515,
				"element": "H" 
			},
			{
				"x": 1.4379622775,
				"y": -0.5180599226,
				"z": 4.4336023745,
				"element": "H" 
			},
			{
				"x": -2.2176904583,
				"y": -0.1508251336,
				"z": 2.8678283043,
				"element": "H" 
			},
			{
				"x": -1.2596122026,
				"y": 0.3639349068,
				"z": 0.7065194148,
				"element": "H" 
			},
			{
				"x": -0.4940809567,
				"y": -2.8840804666,
				"z": 2.4917384339,
				"element": "H" 
			},
			{
				"x": -1.1756356675,
				"y": -5.0811579054,
				"z": 1.6005474819,
				"element": "H" 
			},
			{
				"x": -2.2802455024,
				"y": -5.2329720355,
				"z": -0.6476664124,
				"element": "H" 
			},
			{
				"x": -2.0036980177,
				"y": -0.9790405297,
				"z": -1.0660395806,
				"element": "H" 
			}
		],
		 "valence_orbital": [ 
			{
				"type": "occ",
				"energy": -0.28069,
				"method": "rhf"
			},
			{
				"type": "occ",
				"energy": -0.27955,
				"method": "rhf"
			},
			{
				"type": "occ",
				"energy": -0.25161,
				"method": "rhf"
			},
			{
				"type": "occ",
				"energy": -0.22889,
				"method": "rhf"
			},
			{
				"type": "occ",
				"energy": -0.22473,
				"method": "rhf"
			},
			{
				"type": "unocc",
				"energy": -0.09409,
				"method": "rhf"
			},
			{
				"type": "unocc",
				"energy": -0.06786,
				"method": "rhf"
			},
			{
				"type": "unocc",
				"energy": -0.0295,
				"method": "rhf"
			},
			{
				"type": "unocc",
				"energy": -0.00746,
				"method": "rhf"
			},
			{
				"type": "unocc",
				"energy": 0.00348,
				"method": "rhf"
			}
		],
		"cosmo_sigma_profile": { 
			"-0.025": 0.0,
			"-0.024": 0.0,
			"-0.023": 0.0,
			"-0.022": 0.0,
			"-0.021": 0.0,
			"-0.02": 0.0,
			"-0.019": 0.0,
			"-0.018": 0.0,
			"-0.017": 0.0,
			"-0.016": 0.601903337633,
			"-0.015": 2.17266220733,
			"-0.014": 2.31480610843,
			"-0.013": 1.80601036371,
			"-0.012": 2.15251796158,
			"-0.011": 1.92964489194,
			"-0.01": 2.02336389853,
			"-0.009": 1.99509947358,
			"-0.008": 3.92118147975,
			"-0.007": 10.2576194401,
			"-0.006": 11.8416115374,
			"-0.005": 18.5986969119,
			"-0.004": 23.5676102746,
			"-0.003": 33.2273355874,
			"-0.002": 37.726206823,
			"-0.001": 36.677365634,
			"0.0": 34.4129681097,
			"0.001": 29.2339729023,
			"0.002": 18.9902404999,
			"0.003": 9.35389137312,
			"0.004": 6.95513192326,
			"0.005": 8.5627812493,
			"0.006": 8.83572004228,
			"0.007": 12.1883225113,
			"0.008": 13.5835332324,
			"0.009": 11.2960661781,
			"0.01": 11.8383660023,
			"0.011": 6.85991343494,
			"0.012": 2.93540195908,
			"0.013": 0.940223077159,
			"0.014": 0.0,
			"0.015": 0.0,
			"0.016": 0.0,
			"0.017": 0.0,
			"0.018": 0.0,
			"0.019": 0.0,
			"0.02": 0.0,
			"0.021": 0.0,
			"0.022": 0.0,
			"0.023": 0.0,
			"0.024": 0.0,
			"0.025": 0.0
		}
	}
}
