{
	 "smiles": "COC1=CC=C(C=C1)C(=O)NC1=C(C=CC(F)=C1)C(O)=O", 
	 "Tm": 499.15, 
	 "num_atms": 33, 
	 "gaussian": { 
		 "optdone": 1, 
		 "sigma_profile": "yes", 
		 "theory": "DFT", 
		 "functional": "B3LYP", 
		 "basiset": "6-31G**", 
		 "properties": { 
			 "R2extent": 7192.4611, 
			 "electric_dipole_moment_norm": 1.69664757979, 
			 "electric_quadrupole_moment_norm": 19.2831080583, 
			 "total_energy": -1034.32265349, 
			 "HOMO_LUMO_gap": 0.17272, 
			 "cosmo_polarized_energy": -19.03, 
			 "cosmo_cavitation_energy": 38.49, 
			 "cosmo_dispersion_energy": -26.26, 
			 "cosmo_repulsion_energy": 1.99, 
			 "cosmo_total_nonelectrostatic_energy": 14.21, 
			 "SMD_solvation_energy": 9.58 
		},
		"coords": [
			{
				"x": 4.7828194867,
				"y": -1.497277559,
				"z": 0.5523388437,
				"element": "C" 
			},
			{
				"x": 4.0076024119,
				"y": -0.749395593,
				"z": -0.3740644391,
				"element": "O" 
			},
			{
				"x": 3.0118505026,
				"y": 0.0434125937,
				"z": 0.1042261275,
				"element": "C" 
			},
			{
				"x": 2.6891116169,
				"y": 0.1868379444,
				"z": 1.4616547833,
				"element": "C" 
			},
			{
				"x": 1.6487689741,
				"y": 1.0348329611,
				"z": 1.8320625119,
				"element": "C" 
			},
			{
				"x": 0.8978897771,
				"y": 1.7299479881,
				"z": 0.8765371075,
				"element": "C" 
			},
			{
				"x": 1.2415027768,
				"y": 1.5871054774,
				"z": -0.4792781823,
				"element": "C" 
			},
			{
				"x": 2.2865036551,
				"y": 0.7586311413,
				"z": -0.8617848037,
				"element": "C" 
			},
			{
				"x": -0.1509552443,
				"y": 2.6651924497,
				"z": 1.381239293,
				"element": "C" 
			},
			{
				"x": -0.0588795565,
				"y": 3.2052517017,
				"z": 2.4762237991,
				"element": "O" 
			},
			{
				"x": -1.2212433496,
				"y": 3.002538909,
				"z": 0.5556691324,
				"element": "N" 
			},
			{
				"x": -1.8054847783,
				"y": 2.3396773715,
				"z": -0.5466941318,
				"element": "C" 
			},
			{
				"x": -2.0677285036,
				"y": 0.9488582114,
				"z": -0.6094961084,
				"element": "C" 
			},
			{
				"x": -2.5942069552,
				"y": 0.4110719635,
				"z": -1.796610481,
				"element": "C" 
			},
			{
				"x": -2.9345281956,
				"y": 1.2059107913,
				"z": -2.8824484459,
				"element": "C" 
			},
			{
				"x": -2.7239957104,
				"y": 2.5765914293,
				"z": -2.7704889009,
				"element": "C" 
			},
			{
				"x": -3.0509635705,
				"y": 3.3772802094,
				"z": -3.8001925804,
				"element": "F" 
			},
			{
				"x": -2.1556802486,
				"y": 3.145806702,
				"z": -1.6406711454,
				"element": "C" 
			},
			{
				"x": -1.8988233297,
				"y": -0.0361009782,
				"z": 0.4984745933,
				"element": "C" 
			},
			{
				"x": -1.8804477881,
				"y": 0.513499309,
				"z": 1.7335179668,
				"element": "O" 
			},
			{
				"x": -1.8506232357,
				"y": -1.2391330515,
				"z": 0.3313138155,
				"element": "O" 
			},
			{
				"x": 4.1632706551,
				"y": -2.2028451479,
				"z": 1.1198384729,
				"element": "H" 
			},
			{
				"x": 5.3174813121,
				"y": -0.8430195611,
				"z": 1.2522846815,
				"element": "H" 
			},
			{
				"x": 5.5071671745,
				"y": -2.0540562149,
				"z": -0.0436374942,
				"element": "H" 
			},
			{
				"x": 3.2418745379,
				"y": -0.3452909819,
				"z": 2.2264822037,
				"element": "H" 
			},
			{
				"x": 1.4071277352,
				"y": 1.1776152837,
				"z": 2.8800632993,
				"element": "H" 
			},
			{
				"x": 0.706673887,
				"y": 2.1421522885,
				"z": -1.2418091258,
				"element": "H" 
			},
			{
				"x": 2.5663412138,
				"y": 0.6493748777,
				"z": -1.9041750479,
				"element": "H" 
			},
			{
				"x": -1.7475122573,
				"y": 3.7768527986,
				"z": 0.9424718943,
				"element": "H" 
			},
			{
				"x": -2.7558199926,
				"y": -0.6605167936,
				"z": -1.8281618392,
				"element": "H" 
			},
			{
				"x": -3.3604131697,
				"y": 0.7915021302,
				"z": -3.7888246293,
				"element": "H" 
			},
			{
				"x": -1.9526329605,
				"y": 4.2108298277,
				"z": -1.6203395943,
				"element": "H" 
			},
			{
				"x": -1.778746871,
				"y": -0.2295384792,
				"z": 2.351478424,
				"element": "H" 
			}
		],
		 "valence_orbital": [ 
			{
				"type": "occ",
				"energy": -0.26603,
				"method": "rhf"
			},
			{
				"type": "occ",
				"energy": -0.25949,
				"method": "rhf"
			},
			{
				"type": "occ",
				"energy": -0.25601,
				"method": "rhf"
			},
			{
				"type": "occ",
				"energy": -0.24161,
				"method": "rhf"
			},
			{
				"type": "occ",
				"energy": -0.22541,
				"method": "rhf"
			},
			{
				"type": "unocc",
				"energy": -0.05269,
				"method": "rhf"
			},
			{
				"type": "unocc",
				"energy": -0.03663,
				"method": "rhf"
			},
			{
				"type": "unocc",
				"energy": -0.0186,
				"method": "rhf"
			},
			{
				"type": "unocc",
				"energy": -0.00592,
				"method": "rhf"
			},
			{
				"type": "unocc",
				"energy": 0.04606,
				"method": "rhf"
			}
		],
		"cosmo_sigma_profile": { 
			"-0.025": 0.0,
			"-0.024": 0.0,
			"-0.023": 0.0,
			"-0.022": 0.0,
			"-0.021": 0.0,
			"-0.02": 0.0,
			"-0.019": 0.0408406415895,
			"-0.018": 0.869476172995,
			"-0.017": 0.668451662419,
			"-0.016": 1.07802145757,
			"-0.015": 1.37097067027,
			"-0.014": 1.38510335426,
			"-0.013": 1.31300899193,
			"-0.012": 1.34787722909,
			"-0.011": 2.48423985721,
			"-0.01": 1.21015425725,
			"-0.009": 1.70184999453,
			"-0.008": 5.46432073711,
			"-0.007": 7.72368145687,
			"-0.006": 16.8356743388,
			"-0.005": 22.4969395398,
			"-0.004": 20.3343006214,
			"-0.003": 20.2086462682,
			"-0.002": 17.913806258,
			"-0.001": 21.1044940126,
			"0.0": 23.4381286348,
			"0.001": 22.5242541383,
			"0.002": 22.0182336155,
			"0.003": 22.6228362923,
			"0.004": 20.0940686437,
			"0.005": 6.7033221968,
			"0.006": 5.77361043314,
			"0.007": 4.85921705442,
			"0.008": 4.71946152718,
			"0.009": 5.680613586,
			"0.01": 4.84895407409,
			"0.011": 6.16502144541,
			"0.012": 5.39803148583,
			"0.013": 5.78663550295,
			"0.014": 1.37639125161,
			"0.015": 0.0,
			"0.016": 0.0,
			"0.017": 0.0,
			"0.018": 0.0,
			"0.019": 0.0,
			"0.02": 0.0,
			"0.021": 0.0,
			"0.022": 0.0,
			"0.023": 0.0,
			"0.024": 0.0,
			"0.025": 0.0
		}
	}
}
