{
	 "smiles": "C(N1CCNC2=C1C=CC=C2)C1=CC=CC=C1", 
	 "Tm": 318.15, 
	 "num_atms": 33, 
	 "gaussian": { 
		 "optdone": 1, 
		 "sigma_profile": "yes", 
		 "theory": "DFT", 
		 "functional": "B3LYP", 
		 "basiset": "6-31G**", 
		 "properties": { 
			 "R2extent": 5056.7633, 
			 "electric_dipole_moment_norm": 2.2139197298, 
			 "electric_quadrupole_moment_norm": 10.2326007891, 
			 "total_energy": -690.738218252, 
			 "HOMO_LUMO_gap": 0.16981, 
			 "cosmo_polarized_energy": -10.04, 
			 "cosmo_cavitation_energy": 34.51, 
			 "cosmo_dispersion_energy": -24.86, 
			 "cosmo_repulsion_energy": 1.92, 
			 "cosmo_total_nonelectrostatic_energy": 11.57, 
			 "SMD_solvation_energy": 4.32 
		},
		"coords": [
			{
				"x": 1.7268663317,
				"y": 0.7652661891,
				"z": 0.706561517,
				"element": "C" 
			},
			{
				"x": 0.4196672162,
				"y": 0.2985746674,
				"z": 0.2664012486,
				"element": "N" 
			},
			{
				"x": -0.6072708074,
				"y": 1.3242002514,
				"z": 0.1125058234,
				"element": "C" 
			},
			{
				"x": -1.97572126,
				"y": 0.6688809904,
				"z": -0.0424298204,
				"element": "C" 
			},
			{
				"x": -1.9340211782,
				"y": -0.1872992116,
				"z": -1.2147960268,
				"element": "N" 
			},
			{
				"x": -0.8492997717,
				"y": -1.0743433651,
				"z": -1.3160405299,
				"element": "C" 
			},
			{
				"x": 0.3522736264,
				"y": -0.8120635388,
				"z": -0.6028023302,
				"element": "C" 
			},
			{
				"x": 1.4300313007,
				"y": -1.6942202826,
				"z": -0.7696031573,
				"element": "C" 
			},
			{
				"x": 1.3390375183,
				"y": -2.8047745437,
				"z": -1.6128051331,
				"element": "C" 
			},
			{
				"x": 0.1613678125,
				"y": -3.0548789307,
				"z": -2.3109593773,
				"element": "C" 
			},
			{
				"x": -0.9227338712,
				"y": -2.190383556,
				"z": -2.1541285353,
				"element": "C" 
			},
			{
				"x": 2.3152553482,
				"y": 0.023663357,
				"z": 1.902131574,
				"element": "C" 
			},
			{
				"x": 3.6959442255,
				"y": 0.0741460955,
				"z": 2.1333510393,
				"element": "C" 
			},
			{
				"x": 4.2547397274,
				"y": -0.5422207094,
				"z": 3.2534180285,
				"element": "C" 
			},
			{
				"x": 3.4372929163,
				"y": -1.2249106026,
				"z": 4.1566569519,
				"element": "C" 
			},
			{
				"x": 2.0613494573,
				"y": -1.2857297923,
				"z": 3.9290822519,
				"element": "C" 
			},
			{
				"x": 1.5042237868,
				"y": -0.6641556022,
				"z": 2.8101486046,
				"element": "C" 
			},
			{
				"x": 2.4516435253,
				"y": 0.7469176132,
				"z": -0.1228097123,
				"element": "H" 
			},
			{
				"x": 1.6152569792,
				"y": 1.8207421503,
				"z": 0.9826065391,
				"element": "H" 
			},
			{
				"x": -0.4209501192,
				"y": 1.9741226439,
				"z": -0.7588882396,
				"element": "H" 
			},
			{
				"x": -0.6050132763,
				"y": 1.9539166799,
				"z": 1.0082179689,
				"element": "H" 
			},
			{
				"x": -2.2185704945,
				"y": 0.1237225866,
				"z": 0.8852671292,
				"element": "H" 
			},
			{
				"x": -2.7384843114,
				"y": 1.4408978447,
				"z": -0.1898431261,
				"element": "H" 
			},
			{
				"x": -2.8211053347,
				"y": -0.608367434,
				"z": -1.4579591856,
				"element": "H" 
			},
			{
				"x": 2.3451053291,
				"y": -1.530592095,
				"z": -0.2134282762,
				"element": "H" 
			},
			{
				"x": 2.1928647732,
				"y": -3.4680098853,
				"z": -1.7131793043,
				"element": "H" 
			},
			{
				"x": 0.0766487729,
				"y": -3.9145801707,
				"z": -2.9687511316,
				"element": "H" 
			},
			{
				"x": -1.8483921721,
				"y": -2.3705766819,
				"z": -2.6970314251,
				"element": "H" 
			},
			{
				"x": 4.3391267065,
				"y": 0.5986500637,
				"z": 1.4294917135,
				"element": "H" 
			},
			{
				"x": 5.3278870443,
				"y": -0.495076596,
				"z": 3.4169075253,
				"element": "H" 
			},
			{
				"x": 3.8703175884,
				"y": -1.710426552,
				"z": 5.0265891536,
				"element": "H" 
			},
			{
				"x": 1.4190439355,
				"y": -1.8216032889,
				"z": 4.6226922412,
				"element": "H" 
			},
			{
				"x": 0.436718675,
				"y": -0.7189882943,
				"z": 2.6212260011,
				"element": "H" 
			}
		],
		 "valence_orbital": [ 
			{
				"type": "occ",
				"energy": -0.27573,
				"method": "rhf"
			},
			{
				"type": "occ",
				"energy": -0.2453,
				"method": "rhf"
			},
			{
				"type": "occ",
				"energy": -0.2373,
				"method": "rhf"
			},
			{
				"type": "occ",
				"energy": -0.20742,
				"method": "rhf"
			},
			{
				"type": "occ",
				"energy": -0.16942,
				"method": "rhf"
			},
			{
				"type": "unocc",
				"energy": 0.00039,
				"method": "rhf"
			},
			{
				"type": "unocc",
				"energy": 0.00363,
				"method": "rhf"
			},
			{
				"type": "unocc",
				"energy": 0.02184,
				"method": "rhf"
			},
			{
				"type": "unocc",
				"energy": 0.03137,
				"method": "rhf"
			},
			{
				"type": "unocc",
				"energy": 0.08165,
				"method": "rhf"
			}
		],
		"cosmo_sigma_profile": { 
			"-0.025": 0.0,
			"-0.024": 0.0,
			"-0.023": 0.0,
			"-0.022": 0.0,
			"-0.021": 0.0,
			"-0.02": 0.0,
			"-0.019": 0.0,
			"-0.018": 0.0,
			"-0.017": 0.0,
			"-0.016": 0.0,
			"-0.015": 0.0,
			"-0.014": 0.0,
			"-0.013": 0.00960325793634,
			"-0.012": 0.861487875873,
			"-0.011": 1.3686427181,
			"-0.01": 1.37135575615,
			"-0.009": 1.58842896235,
			"-0.008": 1.18293835554,
			"-0.007": 1.64311596347,
			"-0.006": 5.6471931441,
			"-0.005": 19.5230095056,
			"-0.004": 27.8078499868,
			"-0.003": 32.347279274,
			"-0.002": 32.4886758006,
			"-0.001": 20.6689010513,
			"0.0": 17.2610108582,
			"0.001": 12.2429958908,
			"0.002": 13.5013490337,
			"0.003": 13.6533443008,
			"0.004": 15.3630261713,
			"0.005": 16.6730770346,
			"0.006": 15.9609473243,
			"0.007": 10.1944476107,
			"0.008": 7.7420580573,
			"0.009": 2.13371603159,
			"0.01": 0.540329519632,
			"0.011": 0.48995860975,
			"0.012": 0.492894174798,
			"0.013": 0.592595334087,
			"0.014": 0.0168374766058,
			"0.015": 0.0,
			"0.016": 0.0,
			"0.017": 0.0,
			"0.018": 0.0,
			"0.019": 0.0,
			"0.02": 0.0,
			"0.021": 0.0,
			"0.022": 0.0,
			"0.023": 0.0,
			"0.024": 0.0,
			"0.025": 0.0
		}
	}
}
