{
	 "smiles": "OC1=C(C=CC=C1)C(=O)N1CCCCC1", 
	 "Tm": 407.15, 
	 "num_atms": 30, 
	 "gaussian": { 
		 "optdone": 1, 
		 "sigma_profile": "yes", 
		 "theory": "DFT", 
		 "functional": "B3LYP", 
		 "basiset": "6-31G**", 
		 "properties": { 
			 "R2extent": 3740.872, 
			 "electric_dipole_moment_norm": 4.30297087371, 
			 "electric_quadrupole_moment_norm": 15.1387792444, 
			 "total_energy": -671.526622883, 
			 "HOMO_LUMO_gap": 0.20647, 
			 "cosmo_polarized_energy": -15.62, 
			 "cosmo_cavitation_energy": 31.27, 
			 "cosmo_dispersion_energy": -22.74, 
			 "cosmo_repulsion_energy": 1.78, 
			 "cosmo_total_nonelectrostatic_energy": 10.31, 
			 "SMD_solvation_energy": 5.2 
		},
		"coords": [
			{
				"x": 1.4683820097,
				"y": -0.2443064535,
				"z": -0.0094577971,
				"element": "O" 
			},
			{
				"x": 1.372612653,
				"y": -0.9752383565,
				"z": 1.1453599292,
				"element": "C" 
			},
			{
				"x": 0.2945913123,
				"y": -0.7122303837,
				"z": 2.0084485696,
				"element": "C" 
			},
			{
				"x": 0.2212022674,
				"y": -1.4215363334,
				"z": 3.2137606302,
				"element": "C" 
			},
			{
				"x": 1.1531267522,
				"y": -2.4042902147,
				"z": 3.5415219672,
				"element": "C" 
			},
			{
				"x": 2.2062395089,
				"y": -2.6675290952,
				"z": 2.664311265,
				"element": "C" 
			},
			{
				"x": 2.3196027868,
				"y": -1.9516656064,
				"z": 1.4739495937,
				"element": "C" 
			},
			{
				"x": -0.7053472112,
				"y": 0.4015542402,
				"z": 1.7974340035,
				"element": "C" 
			},
			{
				"x": -0.8425939803,
				"y": 1.2600182734,
				"z": 2.6697023299,
				"element": "O" 
			},
			{
				"x": -1.4594387491,
				"y": 0.4233687226,
				"z": 0.6571166574,
				"element": "N" 
			},
			{
				"x": -1.5959120097,
				"y": -0.6665880006,
				"z": -0.3060614,
				"element": "C" 
			},
			{
				"x": -1.3631100789,
				"y": -0.1762184317,
				"z": -1.7499030792,
				"element": "C" 
			},
			{
				"x": -1.8666754932,
				"y": 1.2750045579,
				"z": -1.9377170203,
				"element": "C" 
			},
			{
				"x": -2.9636406614,
				"y": 1.6042977137,
				"z": -0.9173861801,
				"element": "C" 
			},
			{
				"x": -2.4011825004,
				"y": 1.5451653222,
				"z": 0.5115770977,
				"element": "C" 
			},
			{
				"x": 2.285805886,
				"y": -0.4848599891,
				"z": -0.4645495162,
				"element": "H" 
			},
			{
				"x": -0.5840452976,
				"y": -1.1767840318,
				"z": 3.8991166893,
				"element": "H" 
			},
			{
				"x": 1.066156761,
				"y": -2.9492991266,
				"z": 4.4760017167,
				"element": "H" 
			},
			{
				"x": 2.9475736772,
				"y": -3.4237055591,
				"z": 2.9057621101,
				"element": "H" 
			},
			{
				"x": 3.1495514631,
				"y": -2.142550662,
				"z": 0.7960547319,
				"element": "H" 
			},
			{
				"x": -2.608323778,
				"y": -1.0873126131,
				"z": -0.2146800747,
				"element": "H" 
			},
			{
				"x": -0.9028291914,
				"y": -1.4647107062,
				"z": -0.0443811209,
				"element": "H" 
			},
			{
				"x": -0.2976039537,
				"y": -0.2343623317,
				"z": -1.9858757679,
				"element": "H" 
			},
			{
				"x": -1.8867953681,
				"y": -0.8568073029,
				"z": -2.4321208258,
				"element": "H" 
			},
			{
				"x": -2.2272819711,
				"y": 1.4274519434,
				"z": -2.9605130637,
				"element": "H" 
			},
			{
				"x": -1.0338529049,
				"y": 1.9732215025,
				"z": -1.7908291653,
				"element": "H" 
			},
			{
				"x": -3.800056366,
				"y": 0.9030006618,
				"z": -1.0328600208,
				"element": "H" 
			},
			{
				"x": -3.3757436573,
				"y": 2.6044086323,
				"z": -1.0889860684,
				"element": "H" 
			},
			{
				"x": -1.8548784342,
				"y": 2.4627179364,
				"z": 0.7487739234,
				"element": "H" 
			},
			{
				"x": -3.2061334709,
				"y": 1.4637856916,
				"z": 1.2550298856,
				"element": "H" 
			}
		],
		 "valence_orbital": [ 
			{
				"type": "occ",
				"energy": -0.31787,
				"method": "rhf"
			},
			{
				"type": "occ",
				"energy": -0.26062,
				"method": "rhf"
			},
			{
				"type": "occ",
				"energy": -0.23407,
				"method": "rhf"
			},
			{
				"type": "occ",
				"energy": -0.22395,
				"method": "rhf"
			},
			{
				"type": "occ",
				"energy": -0.22228,
				"method": "rhf"
			},
			{
				"type": "unocc",
				"energy": -0.01581,
				"method": "rhf"
			},
			{
				"type": "unocc",
				"energy": 0.00669,
				"method": "rhf"
			},
			{
				"type": "unocc",
				"energy": 0.0489,
				"method": "rhf"
			},
			{
				"type": "unocc",
				"energy": 0.05978,
				"method": "rhf"
			},
			{
				"type": "unocc",
				"energy": 0.0884,
				"method": "rhf"
			}
		],
		"cosmo_sigma_profile": { 
			"-0.025": 0.0,
			"-0.024": 0.0,
			"-0.023": 0.0,
			"-0.022": 0.0,
			"-0.021": 0.0,
			"-0.02": 0.0,
			"-0.019": 0.0,
			"-0.018": 0.48806620843,
			"-0.017": 1.17974978269,
			"-0.016": 1.18179105053,
			"-0.015": 0.880147054379,
			"-0.014": 1.32571561211,
			"-0.013": 0.994530378648,
			"-0.012": 0.754714340837,
			"-0.011": 0.517373247991,
			"-0.01": 1.36892375339,
			"-0.009": 1.281302777,
			"-0.008": 1.06877038899,
			"-0.007": 1.77928619995,
			"-0.006": 5.91863246432,
			"-0.005": 7.95550054792,
			"-0.004": 16.2607406853,
			"-0.003": 29.0472737693,
			"-0.002": 31.9296242437,
			"-0.001": 29.1470660093,
			"0.0": 23.5749917425,
			"0.001": 16.3455338556,
			"0.002": 9.85158905148,
			"0.003": 11.2705397905,
			"0.004": 9.79669308859,
			"0.005": 11.546943423,
			"0.006": 4.86930501142,
			"0.007": 2.85501353444,
			"0.008": 2.96957026199,
			"0.009": 2.99642378905,
			"0.01": 2.3447472606,
			"0.011": 2.0560514688,
			"0.012": 1.39656815444,
			"0.013": 2.12573560388,
			"0.014": 5.16674286224,
			"0.015": 2.83963745387,
			"0.016": 0.293837758864,
			"0.017": 0.0,
			"0.018": 0.0,
			"0.019": 0.0,
			"0.02": 0.0,
			"0.021": 0.0,
			"0.022": 0.0,
			"0.023": 0.0,
			"0.024": 0.0,
			"0.025": 0.0
		}
	}
}
