{
	 "smiles": "OC(=O)C(CC1=CN=CC=C1)NC(=O)C1=CC=CC=C1", 
	 "Tm": 450.15, 
	 "num_atms": 34, 
	 "gaussian": { 
		 "optdone": 1, 
		 "sigma_profile": "yes", 
		 "theory": "DFT", 
		 "functional": "B3LYP", 
		 "basiset": "6-31G**", 
		 "properties": { 
			 "R2extent": 6404.2043, 
			 "electric_dipole_moment_norm": 2.22188936943, 
			 "electric_quadrupole_moment_norm": 18.6921982124, 
			 "total_energy": -915.229261612, 
			 "HOMO_LUMO_gap": 0.20464, 
			 "cosmo_polarized_energy": -20.19, 
			 "cosmo_cavitation_energy": 39.45, 
			 "cosmo_dispersion_energy": -26.16, 
			 "cosmo_repulsion_energy": 2.02, 
			 "cosmo_total_nonelectrostatic_energy": 15.31, 
			 "SMD_solvation_energy": 6.31 
		},
		"coords": [
			{
				"x": 1.3708590882,
				"y": -0.0048896678,
				"z": 1.6202501418,
				"element": "O" 
			},
			{
				"x": 1.8373261297,
				"y": 0.4051016184,
				"z": 0.4251280222,
				"element": "C" 
			},
			{
				"x": 2.9660023656,
				"y": 0.8156150728,
				"z": 0.2540704483,
				"element": "O" 
			},
			{
				"x": 0.8063079234,
				"y": 0.2086561722,
				"z": -0.692192505,
				"element": "C" 
			},
			{
				"x": 0.8681264013,
				"y": 1.3618800629,
				"z": -1.7135453689,
				"element": "C" 
			},
			{
				"x": 0.4531243525,
				"y": 2.6991193654,
				"z": -1.1406549708,
				"element": "C" 
			},
			{
				"x": -0.8900813009,
				"y": 3.1007844643,
				"z": -1.1640801211,
				"element": "C" 
			},
			{
				"x": -1.3471788027,
				"y": 4.254024348,
				"z": -0.666634339,
				"element": "N" 
			},
			{
				"x": -0.4502251794,
				"y": 5.0786333935,
				"z": -0.1109785962,
				"element": "C" 
			},
			{
				"x": 0.9127313532,
				"y": 4.7898739244,
				"z": -0.0345960972,
				"element": "C" 
			},
			{
				"x": 1.3700962983,
				"y": 3.5811513732,
				"z": -0.5564429286,
				"element": "C" 
			},
			{
				"x": 1.0988507839,
				"y": -1.0751938403,
				"z": -1.3373862189,
				"element": "N" 
			},
			{
				"x": 0.5506095071,
				"y": -2.3104084151,
				"z": -1.0101097741,
				"element": "C" 
			},
			{
				"x": 1.2192091938,
				"y": -3.3295367028,
				"z": -1.1248261756,
				"element": "O" 
			},
			{
				"x": -0.888239935,
				"y": -2.3643314419,
				"z": -0.5900677764,
				"element": "C" 
			},
			{
				"x": -1.876100333,
				"y": -1.5438992135,
				"z": -1.1534216333,
				"element": "C" 
			},
			{
				"x": -3.2114171004,
				"y": -1.6917005693,
				"z": -0.7767054739,
				"element": "C" 
			},
			{
				"x": -3.5679736257,
				"y": -2.6542037245,
				"z": 0.1696042182,
				"element": "C" 
			},
			{
				"x": -2.5893631601,
				"y": -3.4837674853,
				"z": 0.7239785161,
				"element": "C" 
			},
			{
				"x": -1.2583891576,
				"y": -3.3487887111,
				"z": 0.3363320832,
				"element": "C" 
			},
			{
				"x": 2.1032841881,
				"y": 0.0850684662,
				"z": 2.2545673634,
				"element": "H" 
			},
			{
				"x": -0.1840050708,
				"y": 0.1501928656,
				"z": -0.2415327093,
				"element": "H" 
			},
			{
				"x": 0.2146417156,
				"y": 1.089885048,
				"z": -2.548716437,
				"element": "H" 
			},
			{
				"x": 1.8900684345,
				"y": 1.4189990042,
				"z": -2.1024100051,
				"element": "H" 
			},
			{
				"x": -1.6376080623,
				"y": 2.4510088506,
				"z": -1.6210820863,
				"element": "H" 
			},
			{
				"x": -0.8398771681,
				"y": 6.0137027886,
				"z": 0.2876541483,
				"element": "H" 
			},
			{
				"x": 1.598779958,
				"y": 5.4973931561,
				"z": 0.4208716677,
				"element": "H" 
			},
			{
				"x": 2.4224582302,
				"y": 3.316485699,
				"z": -0.510761961,
				"element": "H" 
			},
			{
				"x": 2.066146435,
				"y": -1.1838555095,
				"z": -1.6284141731,
				"element": "H" 
			},
			{
				"x": -1.6061321931,
				"y": -0.8140209794,
				"z": -1.9107989164,
				"element": "H" 
			},
			{
				"x": -3.9724929969,
				"y": -1.060699628,
				"z": -1.2262020882,
				"element": "H" 
			},
			{
				"x": -4.6067668231,
				"y": -2.7640725843,
				"z": 0.4672919388,
				"element": "H" 
			},
			{
				"x": -2.8663746601,
				"y": -4.2404945382,
				"z": 1.452061277,
				"element": "H" 
			},
			{
				"x": -0.489796789,
				"y": -4.0013126623,
				"z": 0.7369505304,
				"element": "H" 
			}
		],
		 "valence_orbital": [ 
			{
				"type": "occ",
				"energy": -0.2677,
				"method": "rhf"
			},
			{
				"type": "occ",
				"energy": -0.26223,
				"method": "rhf"
			},
			{
				"type": "occ",
				"energy": -0.25837,
				"method": "rhf"
			},
			{
				"type": "occ",
				"energy": -0.2564,
				"method": "rhf"
			},
			{
				"type": "occ",
				"energy": -0.24706,
				"method": "rhf"
			},
			{
				"type": "unocc",
				"energy": -0.04242,
				"method": "rhf"
			},
			{
				"type": "unocc",
				"energy": -0.0283,
				"method": "rhf"
			},
			{
				"type": "unocc",
				"energy": -0.01992,
				"method": "rhf"
			},
			{
				"type": "unocc",
				"energy": -0.0131,
				"method": "rhf"
			},
			{
				"type": "unocc",
				"energy": -0.00918,
				"method": "rhf"
			}
		],
		"cosmo_sigma_profile": { 
			"-0.025": 0.0,
			"-0.024": 0.0,
			"-0.023": 0.0,
			"-0.022": 0.0,
			"-0.021": 0.0,
			"-0.02": 0.0,
			"-0.019": 0.381773163733,
			"-0.018": 0.814073564843,
			"-0.017": 1.43656058188,
			"-0.016": 0.806610233796,
			"-0.015": 0.574601694603,
			"-0.014": 0.2676457885,
			"-0.013": 1.25773336289,
			"-0.012": 1.63825121382,
			"-0.011": 2.08307517525,
			"-0.01": 1.70728244913,
			"-0.009": 1.6020318011,
			"-0.008": 1.50642479641,
			"-0.007": 6.79345873,
			"-0.006": 24.1617291276,
			"-0.005": 26.175231956,
			"-0.004": 25.8883157684,
			"-0.003": 19.6912251214,
			"-0.002": 19.0242773777,
			"-0.001": 20.066698621,
			"0.0": 19.8669075043,
			"0.001": 19.9264781531,
			"0.002": 23.603547613,
			"0.003": 22.4174545699,
			"0.004": 17.8580720656,
			"0.005": 8.08564376503,
			"0.006": 5.67742233453,
			"0.007": 5.02675773888,
			"0.008": 5.41982871599,
			"0.009": 3.67678403391,
			"0.01": 4.81229662312,
			"0.011": 6.87963840207,
			"0.012": 5.13535657656,
			"0.013": 6.1129789783,
			"0.014": 1.73846241785,
			"0.015": 1.11990299618,
			"0.016": 0.817661970021,
			"0.017": 0.309185612588,
			"0.018": 0.0,
			"0.019": 0.0,
			"0.02": 0.0,
			"0.021": 0.0,
			"0.022": 0.0,
			"0.023": 0.0,
			"0.024": 0.0,
			"0.025": 0.0
		}
	}
}
