{
	 "smiles": "COCCOCCOC", 
	 "Tm": 207.15, 
	 "num_atms": 23, 
	 "gaussian": { 
		 "optdone": 1, 
		 "sigma_profile": "yes", 
		 "theory": "DFT", 
		 "functional": "B3LYP", 
		 "basiset": "6-31G**", 
		 "properties": { 
			 "R2extent": 2440.6447, 
			 "electric_dipole_moment_norm": 2.35210148165, 
			 "electric_quadrupole_moment_norm": 8.74625340074, 
			 "total_energy": -462.692337878, 
			 "HOMO_LUMO_gap": 0.33062, 
			 "cosmo_polarized_energy": -9.59, 
			 "cosmo_cavitation_energy": 25.79, 
			 "cosmo_dispersion_energy": -18.74, 
			 "cosmo_repulsion_energy": 1.6, 
			 "cosmo_total_nonelectrostatic_energy": 8.65, 
			 "SMD_solvation_energy": 5.61 
		},
		"coords": [
			{
				"x": 3.1314719052,
				"y": 1.3786868698,
				"z": -2.1403797083,
				"element": "C" 
			},
			{
				"x": 2.5303841912,
				"y": 0.0996041824,
				"z": -2.1772353387,
				"element": "O" 
			},
			{
				"x": 2.3526127611,
				"y": -0.4980268405,
				"z": -0.9050526649,
				"element": "C" 
			},
			{
				"x": 1.0839427921,
				"y": -0.0082254963,
				"z": -0.2043165525,
				"element": "C" 
			},
			{
				"x": 0.9913212955,
				"y": -0.7141707579,
				"z": 1.0186794786,
				"element": "O" 
			},
			{
				"x": -0.0761698181,
				"y": -0.318084338,
				"z": 1.8593243052,
				"element": "C" 
			},
			{
				"x": -1.4433466756,
				"y": -0.8427869253,
				"z": 1.4375741887,
				"element": "C" 
			},
			{
				"x": -1.4597157328,
				"y": -2.2466626601,
				"z": 1.5764687026,
				"element": "O" 
			},
			{
				"x": -2.6844585084,
				"y": -2.8224645183,
				"z": 1.1803530932,
				"element": "C" 
			},
			{
				"x": 4.1116567102,
				"y": 1.3513461429,
				"z": -1.639068322,
				"element": "H" 
			},
			{
				"x": 2.5084335601,
				"y": 2.1308290787,
				"z": -1.633762442,
				"element": "H" 
			},
			{
				"x": 3.2760593291,
				"y": 1.6934857347,
				"z": -3.1770108346,
				"element": "H" 
			},
			{
				"x": 2.2683650856,
				"y": -1.5766337489,
				"z": -1.0695821565,
				"element": "H" 
			},
			{
				"x": 3.222769873,
				"y": -0.3243675203,
				"z": -0.2536832055,
				"element": "H" 
			},
			{
				"x": 1.1297795487,
				"y": 1.078401691,
				"z": -0.0188513027,
				"element": "H" 
			},
			{
				"x": 0.2212095555,
				"y": -0.1945434123,
				"z": -0.8611738327,
				"element": "H" 
			},
			{
				"x": -0.127054247,
				"y": 0.7814571963,
				"z": 1.9331374037,
				"element": "H" 
			},
			{
				"x": 0.1573950788,
				"y": -0.7172986129,
				"z": 2.8515232491,
				"element": "H" 
			},
			{
				"x": -2.2111512255,
				"y": -0.373406447,
				"z": 2.0795390745,
				"element": "H" 
			},
			{
				"x": -1.6735884419,
				"y": -0.549855487,
				"z": 0.3989218693,
				"element": "H" 
			},
			{
				"x": -2.9092077674,
				"y": -2.6215614335,
				"z": 0.1204174156,
				"element": "H" 
			},
			{
				"x": -3.5287218894,
				"y": -2.4518459236,
				"z": 1.7845885472,
				"element": "H" 
			},
			{
				"x": -2.59758738,
				"y": -3.9023767739,
				"z": 1.3226890328,
				"element": "H" 
			}
		],
		 "valence_orbital": [ 
			{
				"type": "occ",
				"energy": -0.31105,
				"method": "rhf"
			},
			{
				"type": "occ",
				"energy": -0.30551,
				"method": "rhf"
			},
			{
				"type": "occ",
				"energy": -0.25686,
				"method": "rhf"
			},
			{
				"type": "occ",
				"energy": -0.25199,
				"method": "rhf"
			},
			{
				"type": "occ",
				"energy": -0.25043,
				"method": "rhf"
			},
			{
				"type": "unocc",
				"energy": 0.08019,
				"method": "rhf"
			},
			{
				"type": "unocc",
				"energy": 0.08792,
				"method": "rhf"
			},
			{
				"type": "unocc",
				"energy": 0.10464,
				"method": "rhf"
			},
			{
				"type": "unocc",
				"energy": 0.12452,
				"method": "rhf"
			},
			{
				"type": "unocc",
				"energy": 0.13175,
				"method": "rhf"
			}
		],
		"cosmo_sigma_profile": { 
			"-0.025": 0.0,
			"-0.024": 0.0,
			"-0.023": 0.0,
			"-0.022": 0.0,
			"-0.021": 0.0,
			"-0.02": 0.0,
			"-0.019": 0.0,
			"-0.018": 0.0,
			"-0.017": 0.0,
			"-0.016": 0.0,
			"-0.015": 0.0,
			"-0.014": 0.0,
			"-0.013": 0.0,
			"-0.012": 0.0,
			"-0.011": 0.0,
			"-0.01": 0.0,
			"-0.009": 0.0,
			"-0.008": 0.0,
			"-0.007": 0.0,
			"-0.006": 0.0720922712982,
			"-0.005": 8.29895599645,
			"-0.004": 34.9403436936,
			"-0.003": 39.9866078795,
			"-0.002": 33.2399884507,
			"-0.001": 18.2993894941,
			"0.0": 9.59235209004,
			"0.001": 5.8868586953,
			"0.002": 4.66168534776,
			"0.003": 4.91113209126,
			"0.004": 4.09972809689,
			"0.005": 3.83890959902,
			"0.006": 3.52708335005,
			"0.007": 3.66330644234,
			"0.008": 4.00270322445,
			"0.009": 2.21487810266,
			"0.01": 3.25585763984,
			"0.011": 4.338677237,
			"0.012": 4.48449133116,
			"0.013": 4.32817665137,
			"0.014": 2.12537286953,
			"0.015": 0.0669320436807,
			"0.016": 0.0,
			"0.017": 0.0,
			"0.018": 0.0,
			"0.019": 0.0,
			"0.02": 0.0,
			"0.021": 0.0,
			"0.022": 0.0,
			"0.023": 0.0,
			"0.024": 0.0,
			"0.025": 0.0
		}
	}
}
