{
	 "smiles": "NS(=O)(=O)C1=C(Br)C=CC(=C1)[N+]([O-])=O", 
	 "Tm": 478.15, 
	 "num_atms": 19, 
	 "gaussian": { 
		 "optdone": 1, 
		 "sigma_profile": "yes", 
		 "theory": "DFT", 
		 "functional": "B3LYP", 
		 "basiset": "6-31G**", 
		 "properties": { 
			 "R2extent": 6153.2224, 
			 "electric_dipole_moment_norm": 6.13089417133, 
			 "electric_quadrupole_moment_norm": 18.0456968555, 
			 "total_energy": -3611.45814132, 
			 "HOMO_LUMO_gap": 0.17937, 
			 "cosmo_polarized_energy": -20.48, 
			 "cosmo_cavitation_energy": 27.87, 
			 "cosmo_dispersion_energy": -21.38, 
			 "cosmo_repulsion_energy": 1.62, 
			 "cosmo_total_nonelectrostatic_energy": 8.11, 
			 "SMD_solvation_energy": 5.72 
		},
		"coords": [
			{
				"x": -3.3912372918,
				"y": -0.3766434897,
				"z": -0.4401207422,
				"element": "N" 
			},
			{
				"x": -2.656961101,
				"y": -1.7560040323,
				"z": 0.1365099604,
				"element": "S" 
			},
			{
				"x": -2.5817774643,
				"y": -1.5940818417,
				"z": 1.5856262669,
				"element": "O" 
			},
			{
				"x": -3.3121493802,
				"y": -2.8918417602,
				"z": -0.4983610851,
				"element": "O" 
			},
			{
				"x": -0.931693266,
				"y": -1.7263849727,
				"z": -0.4490789561,
				"element": "C" 
			},
			{
				"x": -0.5480407544,
				"y": -1.7415537134,
				"z": -1.7986158653,
				"element": "C" 
			},
			{
				"x": -1.8129314965,
				"y": -1.7020066135,
				"z": -3.2226107436,
				"element": "Br" 
			},
			{
				"x": 0.8036116258,
				"y": -1.7680498202,
				"z": -2.1523424669,
				"element": "C" 
			},
			{
				"x": 1.783898122,
				"y": -1.7858524028,
				"z": -1.1655760718,
				"element": "C" 
			},
			{
				"x": 1.388704607,
				"y": -1.7699314367,
				"z": 0.1687191758,
				"element": "C" 
			},
			{
				"x": 0.050040635,
				"y": -1.7419065114,
				"z": 0.5421774396,
				"element": "C" 
			},
			{
				"x": 2.4219388277,
				"y": -1.7808462617,
				"z": 1.2205148727,
				"element": "N" 
			},
			{
				"x": 3.5955773575,
				"y": -1.8126631281,
				"z": 0.8549492143,
				"element": "O" 
			},
			{
				"x": 2.0422625038,
				"y": -1.754861125,
				"z": 2.38792542,
				"element": "O" 
			},
			{
				"x": -3.0537442121,
				"y": 0.4744759357,
				"z": -0.0035213287,
				"element": "H" 
			},
			{
				"x": -3.4610289255,
				"y": -0.3389509435,
				"z": -1.4520979357,
				"element": "H" 
			},
			{
				"x": 1.0810452067,
				"y": -1.775882799,
				"z": -3.1997582481,
				"element": "H" 
			},
			{
				"x": 2.8375803272,
				"y": -1.8090078465,
				"z": -1.4137449005,
				"element": "H" 
			},
			{
				"x": -0.2318953208,
				"y": -1.7342072373,
				"z": 1.5878059944,
				"element": "H" 
			}
		],
		 "valence_orbital": [ 
			{
				"type": "occ",
				"energy": -0.32239,
				"method": "rhf"
			},
			{
				"type": "occ",
				"energy": -0.312,
				"method": "rhf"
			},
			{
				"type": "occ",
				"energy": -0.30895,
				"method": "rhf"
			},
			{
				"type": "occ",
				"energy": -0.30196,
				"method": "rhf"
			},
			{
				"type": "occ",
				"energy": -0.29118,
				"method": "rhf"
			},
			{
				"type": "unocc",
				"energy": -0.11181,
				"method": "rhf"
			},
			{
				"type": "unocc",
				"energy": -0.06828,
				"method": "rhf"
			},
			{
				"type": "unocc",
				"energy": -0.03743,
				"method": "rhf"
			},
			{
				"type": "unocc",
				"energy": -0.03408,
				"method": "rhf"
			},
			{
				"type": "unocc",
				"energy": 0.04498,
				"method": "rhf"
			}
		],
		"cosmo_sigma_profile": { 
			"-0.025": 0.0,
			"-0.024": 0.0,
			"-0.023": 0.0,
			"-0.022": 0.0,
			"-0.021": 0.0,
			"-0.02": 0.0,
			"-0.019": 0.0,
			"-0.018": 0.0,
			"-0.017": 0.0,
			"-0.016": 1.26660836141,
			"-0.015": 1.19049882997,
			"-0.014": 1.89213828571,
			"-0.013": 2.57163470091,
			"-0.012": 2.24198966833,
			"-0.011": 2.25948011762,
			"-0.01": 2.59724224415,
			"-0.009": 5.85419626943,
			"-0.008": 7.67580912094,
			"-0.007": 7.36244960209,
			"-0.006": 7.34698516734,
			"-0.005": 10.1436940015,
			"-0.004": 13.5934484593,
			"-0.003": 20.4361879196,
			"-0.002": 18.4271938964,
			"-0.001": 14.216110627,
			"0.0": 9.40244653833,
			"0.001": 9.90175257082,
			"0.002": 9.79807303906,
			"0.003": 5.84559687546,
			"0.004": 6.16692395798,
			"0.005": 7.31258241064,
			"0.006": 10.0094100714,
			"0.007": 14.273516654,
			"0.008": 8.85799199898,
			"0.009": 9.61282151541,
			"0.01": 11.2367110586,
			"0.011": 5.73749643255,
			"0.012": 0.0,
			"0.013": 0.0,
			"0.014": 0.0,
			"0.015": 0.0,
			"0.016": 0.0,
			"0.017": 0.0,
			"0.018": 0.0,
			"0.019": 0.0,
			"0.02": 0.0,
			"0.021": 0.0,
			"0.022": 0.0,
			"0.023": 0.0,
			"0.024": 0.0,
			"0.025": 0.0
		}
	}
}
