{
	 "smiles": "CC(C)C(Br)C(=O)NC1=CC2=C(CCC2)C=C1", 
	 "Tm": 398.15, 
	 "num_atms": 35, 
	 "gaussian": { 
		 "optdone": 1, 
		 "sigma_profile": "yes", 
		 "theory": "DFT", 
		 "functional": "B3LYP", 
		 "basiset": "6-31G**", 
		 "properties": { 
			 "R2extent": 9071.3007, 
			 "electric_dipole_moment_norm": 1.68754637862, 
			 "electric_quadrupole_moment_norm": 9.65922879686, 
			 "total_energy": -3245.76557488, 
			 "HOMO_LUMO_gap": 0.19639, 
			 "cosmo_polarized_energy": -8.88, 
			 "cosmo_cavitation_energy": 38.36, 
			 "cosmo_dispersion_energy": -27.82, 
			 "cosmo_repulsion_energy": 2.17, 
			 "cosmo_total_nonelectrostatic_energy": 12.7, 
			 "SMD_solvation_energy": 5.13 
		},
		"coords": [
			{
				"x": 0.2862621866,
				"y": -1.9894241188,
				"z": 4.6790239587,
				"element": "C" 
			},
			{
				"x": -0.9559398729,
				"y": -1.1093868944,
				"z": 4.8679670323,
				"element": "C" 
			},
			{
				"x": -1.8045461344,
				"y": -1.563037145,
				"z": 6.0613376216,
				"element": "C" 
			},
			{
				"x": -1.7925405503,
				"y": -0.9534058537,
				"z": 3.5833729139,
				"element": "C" 
			},
			{
				"x": -2.5694200142,
				"y": -2.7126395125,
				"z": 2.9852895249,
				"element": "Br" 
			},
			{
				"x": -1.0146203788,
				"y": -0.1933915844,
				"z": 2.4914210665,
				"element": "C" 
			},
			{
				"x": -0.6830753371,
				"y": 0.9544561905,
				"z": 2.7716265093,
				"element": "O" 
			},
			{
				"x": -0.7382645953,
				"y": -0.8407109802,
				"z": 1.3294837209,
				"element": "N" 
			},
			{
				"x": -0.043651651,
				"y": -0.3635675671,
				"z": 0.1923869398,
				"element": "C" 
			},
			{
				"x": 0.0747974698,
				"y": -1.2493217282,
				"z": -0.8928121132,
				"element": "C" 
			},
			{
				"x": 0.7555913431,
				"y": -0.8451810639,
				"z": -2.034139675,
				"element": "C" 
			},
			{
				"x": 1.3195506221,
				"y": 0.4362029891,
				"z": -2.1134252144,
				"element": "C" 
			},
			{
				"x": 1.9842689277,
				"y": 0.6406848826,
				"z": -3.45871163,
				"element": "C" 
			},
			{
				"x": 2.132626041,
				"y": -0.8053615016,
				"z": -3.9979783856,
				"element": "C" 
			},
			{
				"x": 0.9928461215,
				"y": -1.6088622057,
				"z": -3.3205805348,
				"element": "C" 
			},
			{
				"x": 1.1965257007,
				"y": 1.3125311629,
				"z": -1.0384612329,
				"element": "C" 
			},
			{
				"x": 0.5192685192,
				"y": 0.9206569645,
				"z": 0.1193934018,
				"element": "C" 
			},
			{
				"x": 0.8897987875,
				"y": -1.9864288461,
				"z": 5.5917907169,
				"element": "H" 
			},
			{
				"x": 0.0063807559,
				"y": -3.0253837139,
				"z": 4.4636139186,
				"element": "H" 
			},
			{
				"x": 0.9187842107,
				"y": -1.6287778804,
				"z": 3.8618634844,
				"element": "H" 
			},
			{
				"x": -0.6198508205,
				"y": -0.0810726319,
				"z": 5.0569941125,
				"element": "H" 
			},
			{
				"x": -2.171551601,
				"y": -2.5846619037,
				"z": 5.9230450801,
				"element": "H" 
			},
			{
				"x": -2.6707131867,
				"y": -0.9090557869,
				"z": 6.2097091243,
				"element": "H" 
			},
			{
				"x": -1.2070739217,
				"y": -1.5406806629,
				"z": 6.9781297443,
				"element": "H" 
			},
			{
				"x": -2.6842599384,
				"y": -0.3617672719,
				"z": 3.7934741765,
				"element": "H" 
			},
			{
				"x": -1.1090919597,
				"y": -1.7803031522,
				"z": 1.2573587499,
				"element": "H" 
			},
			{
				"x": -0.3603231021,
				"y": -2.2450077712,
				"z": -0.829382311,
				"element": "H" 
			},
			{
				"x": 1.3386057095,
				"y": 1.2394517579,
				"z": -4.1173359479,
				"element": "H" 
			},
			{
				"x": 2.9419062572,
				"y": 1.168299368,
				"z": -3.3934741378,
				"element": "H" 
			},
			{
				"x": 2.1006289429,
				"y": -0.8594647602,
				"z": -5.0898080389,
				"element": "H" 
			},
			{
				"x": 3.0984020899,
				"y": -1.2117087431,
				"z": -3.6772069169,
				"element": "H" 
			},
			{
				"x": 0.0844644094,
				"y": -1.5981083575,
				"z": -3.9398584215,
				"element": "H" 
			},
			{
				"x": 1.2518335442,
				"y": -2.660858346,
				"z": -3.159546164,
				"element": "H" 
			},
			{
				"x": 1.6306406692,
				"y": 2.3082028981,
				"z": -1.0838853594,
				"element": "H" 
			},
			{
				"x": 0.4236407559,
				"y": 1.5887837698,
				"z": 0.9633242861,
				"element": "H" 
			}
		],
		 "valence_orbital": [ 
			{
				"type": "occ",
				"energy": -0.29653,
				"method": "rhf"
			},
			{
				"type": "occ",
				"energy": -0.28338,
				"method": "rhf"
			},
			{
				"type": "occ",
				"energy": -0.25647,
				"method": "rhf"
			},
			{
				"type": "occ",
				"energy": -0.24311,
				"method": "rhf"
			},
			{
				"type": "occ",
				"energy": -0.2139,
				"method": "rhf"
			},
			{
				"type": "unocc",
				"energy": -0.01751,
				"method": "rhf"
			},
			{
				"type": "unocc",
				"energy": -0.01029,
				"method": "rhf"
			},
			{
				"type": "unocc",
				"energy": -0.00124,
				"method": "rhf"
			},
			{
				"type": "unocc",
				"energy": 0.04312,
				"method": "rhf"
			},
			{
				"type": "unocc",
				"energy": 0.08434,
				"method": "rhf"
			}
		],
		"cosmo_sigma_profile": { 
			"-0.025": 0.0,
			"-0.024": 0.0,
			"-0.023": 0.0,
			"-0.022": 0.0,
			"-0.021": 0.0,
			"-0.02": 0.0,
			"-0.019": 0.0,
			"-0.018": 0.0,
			"-0.017": 0.0,
			"-0.016": 0.0,
			"-0.015": 0.0,
			"-0.014": 0.0,
			"-0.013": 0.0150166656655,
			"-0.012": 0.558733923915,
			"-0.011": 0.801917746864,
			"-0.01": 1.53450945826,
			"-0.009": 1.08367243613,
			"-0.008": 2.66297847922,
			"-0.007": 4.472263843,
			"-0.006": 4.2265635115,
			"-0.005": 6.50613902886,
			"-0.004": 13.6415276762,
			"-0.003": 34.8100217402,
			"-0.002": 40.0804298545,
			"-0.001": 41.0863927498,
			"0.0": 38.3736715251,
			"0.001": 31.7018110372,
			"0.002": 16.1380818067,
			"0.003": 14.6513797772,
			"0.004": 15.7849299714,
			"0.005": 15.202624915,
			"0.006": 8.50540012451,
			"0.007": 1.39937761802,
			"0.008": 0.938583602303,
			"0.009": 2.20557912368,
			"0.01": 1.44282709881,
			"0.011": 1.96768139683,
			"0.012": 2.80659250549,
			"0.013": 1.84891763634,
			"0.014": 0.0620919633937,
			"0.015": 0.0,
			"0.016": 0.0,
			"0.017": 0.0,
			"0.018": 0.0,
			"0.019": 0.0,
			"0.02": 0.0,
			"0.021": 0.0,
			"0.022": 0.0,
			"0.023": 0.0,
			"0.024": 0.0,
			"0.025": 0.0
		}
	}
}
