{
	 "smiles": "C(N1C=CC=C1)C1=CC=CC=C1", 
	 "Tm": 288.15, 
	 "num_atms": 23, 
	 "gaussian": { 
		 "optdone": 1, 
		 "sigma_profile": "yes", 
		 "theory": "DFT", 
		 "functional": "B3LYP", 
		 "basiset": "6-31G**", 
		 "properties": { 
			 "R2extent": 2689.4027, 
			 "electric_dipole_moment_norm": 1.79410569644, 
			 "electric_quadrupole_moment_norm": 2.23167912344, 
			 "total_energy": -480.536056215, 
			 "HOMO_LUMO_gap": 0.19756, 
			 "cosmo_polarized_energy": -7.35, 
			 "cosmo_cavitation_energy": 26.41, 
			 "cosmo_dispersion_energy": -19.06, 
			 "cosmo_repulsion_energy": 1.51, 
			 "cosmo_total_nonelectrostatic_energy": 8.85, 
			 "SMD_solvation_energy": 4.93 
		},
		"coords": [
			{
				"x": -1.2304261237,
				"y": 0.5222752106,
				"z": 0.0156327893,
				"element": "C" 
			},
			{
				"x": -0.0969099308,
				"y": -0.0463661623,
				"z": -0.6939008733,
				"element": "N" 
			},
			{
				"x": 1.2205073742,
				"y": 0.3154558475,
				"z": -0.5157082861,
				"element": "C" 
			},
			{
				"x": 2.0042915299,
				"y": -0.5035150155,
				"z": -1.2999080999,
				"element": "C" 
			},
			{
				"x": 1.1321679766,
				"y": -1.4032610853,
				"z": -1.9769705499,
				"element": "C" 
			},
			{
				"x": -0.1531961972,
				"y": -1.1000922856,
				"z": -1.5813766969,
				"element": "C" 
			},
			{
				"x": -1.3701615671,
				"y": 0.0704749664,
				"z": 1.4629384805,
				"element": "C" 
			},
			{
				"x": -2.0470735222,
				"y": 0.8890036507,
				"z": 2.375173663,
				"element": "C" 
			},
			{
				"x": -2.2323660387,
				"y": 0.4808417,
				"z": 3.6964603238,
				"element": "C" 
			},
			{
				"x": -1.7341179296,
				"y": -0.7515771682,
				"z": 4.1232531762,
				"element": "C" 
			},
			{
				"x": -1.0519641329,
				"y": -1.5692850967,
				"z": 3.2205913728,
				"element": "C" 
			},
			{
				"x": -0.8714373793,
				"y": -1.1624104649,
				"z": 1.8975000234,
				"element": "C" 
			},
			{
				"x": -1.1588940155,
				"y": 1.6152684297,
				"z": -0.0222589852,
				"element": "H" 
			},
			{
				"x": -2.1310566328,
				"y": 0.25269636,
				"z": -0.548424915,
				"element": "H" 
			},
			{
				"x": 1.4838449909,
				"y": 1.1184635638,
				"z": 0.1573365978,
				"element": "H" 
			},
			{
				"x": 3.0810464266,
				"y": -0.4550986249,
				"z": -1.3849453435,
				"element": "H" 
			},
			{
				"x": 1.4120132246,
				"y": -2.1742215985,
				"z": -2.6812939677,
				"element": "H" 
			},
			{
				"x": -1.1036024612,
				"y": -1.5327276419,
				"z": -1.8593687622,
				"element": "H" 
			},
			{
				"x": -2.4299971845,
				"y": 1.8542807917,
				"z": 2.050539367,
				"element": "H" 
			},
			{
				"x": -2.7574614928,
				"y": 1.1283113715,
				"z": 4.3931270564,
				"element": "H" 
			},
			{
				"x": -1.8718189596,
				"y": -1.0693544694,
				"z": 5.1527575991,
				"element": "H" 
			},
			{
				"x": -0.6559382281,
				"y": -2.5270116052,
				"z": 3.5465024959,
				"element": "H" 
			},
			{
				"x": -0.3341497267,
				"y": -1.7978506734,
				"z": 1.1999435343,
				"element": "H" 
			}
		],
		 "valence_orbital": [ 
			{
				"type": "occ",
				"energy": -0.34035,
				"method": "rhf"
			},
			{
				"type": "occ",
				"energy": -0.25133,
				"method": "rhf"
			},
			{
				"type": "occ",
				"energy": -0.24717,
				"method": "rhf"
			},
			{
				"type": "occ",
				"energy": -0.22677,
				"method": "rhf"
			},
			{
				"type": "occ",
				"energy": -0.2023,
				"method": "rhf"
			},
			{
				"type": "unocc",
				"energy": -0.00474,
				"method": "rhf"
			},
			{
				"type": "unocc",
				"energy": -0.00271,
				"method": "rhf"
			},
			{
				"type": "unocc",
				"energy": 0.04306,
				"method": "rhf"
			},
			{
				"type": "unocc",
				"energy": 0.09017,
				"method": "rhf"
			},
			{
				"type": "unocc",
				"energy": 0.09762,
				"method": "rhf"
			}
		],
		"cosmo_sigma_profile": { 
			"-0.025": 0.0,
			"-0.024": 0.0,
			"-0.023": 0.0,
			"-0.022": 0.0,
			"-0.021": 0.0,
			"-0.02": 0.0,
			"-0.019": 0.0,
			"-0.018": 0.0,
			"-0.017": 0.0,
			"-0.016": 0.0,
			"-0.015": 0.0,
			"-0.014": 0.0,
			"-0.013": 0.0,
			"-0.012": 0.0,
			"-0.011": 0.0,
			"-0.01": 0.0,
			"-0.009": 0.0,
			"-0.008": 0.342350286261,
			"-0.007": 5.63254222986,
			"-0.006": 12.9122024683,
			"-0.005": 19.30381491,
			"-0.004": 19.598495248,
			"-0.003": 19.2764349537,
			"-0.002": 14.6727220025,
			"-0.001": 14.4240401811,
			"0.0": 13.2569104238,
			"0.001": 12.3403713456,
			"0.002": 11.5134747075,
			"0.003": 11.5927608061,
			"0.004": 13.682910403,
			"0.005": 13.7789004369,
			"0.006": 12.5282149775,
			"0.007": 6.49768635693,
			"0.008": 4.70644589863,
			"0.009": 3.00540942766,
			"0.01": 0.472866617589,
			"0.011": 0.209367559941,
			"0.012": 0.280204883163,
			"0.013": 0.302439133181,
			"0.014": 0.22455219289,
			"0.015": 0.0,
			"0.016": 0.196993871966,
			"0.017": 0.227783023034,
			"0.018": 0.0,
			"0.019": 0.0,
			"0.02": 0.0,
			"0.021": 0.0,
			"0.022": 0.0,
			"0.023": 0.0,
			"0.024": 0.0,
			"0.025": 0.0
		}
	}
}
