{
	 "smiles": "CC1CC(CC(C)(C)N1)OC(=O)C1=CC=CC=C1", 
	 "Tm": 343.65, 
	 "num_atms": 39, 
	 "gaussian": { 
		 "optdone": 1, 
		 "sigma_profile": "yes", 
		 "theory": "DFT", 
		 "functional": "B3LYP", 
		 "basiset": "6-31G**", 
		 "properties": { 
			 "R2extent": 5667.1671, 
			 "electric_dipole_moment_norm": 2.43103429017, 
			 "electric_quadrupole_moment_norm": 8.06700860233, 
			 "total_energy": -789.489052535, 
			 "HOMO_LUMO_gap": 0.17324, 
			 "cosmo_polarized_energy": -9.22, 
			 "cosmo_cavitation_energy": 39.45, 
			 "cosmo_dispersion_energy": -27.08, 
			 "cosmo_repulsion_energy": 2.08, 
			 "cosmo_total_nonelectrostatic_energy": 14.45, 
			 "SMD_solvation_energy": 5.86 
		},
		"coords": [
			{
				"x": -1.0537785524,
				"y": -1.6347055751,
				"z": 3.4884648679,
				"element": "C" 
			},
			{
				"x": -1.0694155271,
				"y": -1.0210369132,
				"z": 2.0878679608,
				"element": "C" 
			},
			{
				"x": -1.0884567385,
				"y": 0.5122513481,
				"z": 2.1471112015,
				"element": "C" 
			},
			{
				"x": -1.2230621794,
				"y": 1.1456530111,
				"z": 0.7648089259,
				"element": "C" 
			},
			{
				"x": -2.3700405752,
				"y": 0.518413181,
				"z": -0.0356528867,
				"element": "C" 
			},
			{
				"x": -2.4148792609,
				"y": -1.0279724514,
				"z": -0.0244519571,
				"element": "C" 
			},
			{
				"x": -3.8044892622,
				"y": -1.4843475689,
				"z": -0.4991627366,
				"element": "C" 
			},
			{
				"x": -1.3473306727,
				"y": -1.6424041005,
				"z": -0.9605796696,
				"element": "C" 
			},
			{
				"x": -2.2766167967,
				"y": -1.4665557759,
				"z": 1.3817131338,
				"element": "N" 
			},
			{
				"x": 0.0629275113,
				"y": 0.9684943228,
				"z": 0.0963283689,
				"element": "O" 
			},
			{
				"x": 0.3731145936,
				"y": 1.8518302778,
				"z": -0.8790332524,
				"element": "C" 
			},
			{
				"x": -0.3685511501,
				"y": 2.7481744473,
				"z": -1.2375852619,
				"element": "O" 
			},
			{
				"x": 1.7240652325,
				"y": 1.6054766388,
				"z": -1.4635238989,
				"element": "C" 
			},
			{
				"x": 2.5803304178,
				"y": 0.6031446069,
				"z": -0.9863688696,
				"element": "C" 
			},
			{
				"x": 3.8326478712,
				"y": 0.4218712479,
				"z": -1.571595237,
				"element": "C" 
			},
			{
				"x": 4.2356364504,
				"y": 1.2370137559,
				"z": -2.6321671001,
				"element": "C" 
			},
			{
				"x": 3.3848073902,
				"y": 2.2384085968,
				"z": -3.1082832789,
				"element": "C" 
			},
			{
				"x": 2.1335029541,
				"y": 2.4233723924,
				"z": -2.5257409415,
				"element": "C" 
			},
			{
				"x": -0.1767019228,
				"y": -1.3004018167,
				"z": 4.052018534,
				"element": "H" 
			},
			{
				"x": -1.9555926281,
				"y": -1.3504804164,
				"z": 4.0405353277,
				"element": "H" 
			},
			{
				"x": -1.0188457348,
				"y": -2.7293755498,
				"z": 3.4384232775,
				"element": "H" 
			},
			{
				"x": -0.1408485419,
				"y": -1.3271107832,
				"z": 1.5725522935,
				"element": "H" 
			},
			{
				"x": -1.9523564516,
				"y": 0.8254102353,
				"z": 2.746378635,
				"element": "H" 
			},
			{
				"x": -0.1844862099,
				"y": 0.8890851387,
				"z": 2.6377803546,
				"element": "H" 
			},
			{
				"x": -1.3918257462,
				"y": 2.2229254586,
				"z": 0.8417225947,
				"element": "H" 
			},
			{
				"x": -2.3478806734,
				"y": 0.8959351669,
				"z": -1.062053437,
				"element": "H" 
			},
			{
				"x": -3.297601262,
				"y": 0.8860663853,
				"z": 0.420207134,
				"element": "H" 
			},
			{
				"x": -4.009020135,
				"y": -1.1300878112,
				"z": -1.5149509499,
				"element": "H" 
			},
			{
				"x": -4.5815353034,
				"y": -1.1052083944,
				"z": 0.1706720244,
				"element": "H" 
			},
			{
				"x": -3.8704807469,
				"y": -2.5790980613,
				"z": -0.5105977541,
				"element": "H" 
			},
			{
				"x": -1.4207014542,
				"y": -2.7365945277,
				"z": -0.9460982145,
				"element": "H" 
			},
			{
				"x": -0.3323856762,
				"y": -1.3619886351,
				"z": -0.673956913,
				"element": "H" 
			},
			{
				"x": -1.4988676425,
				"y": -1.3147395341,
				"z": -1.9951883421,
				"element": "H" 
			},
			{
				"x": -2.3335182469,
				"y": -2.4825901745,
				"z": 1.4168608739,
				"element": "H" 
			},
			{
				"x": 2.2627481512,
				"y": -0.0218995113,
				"z": -0.1598207017,
				"element": "H" 
			},
			{
				"x": 4.4951982707,
				"y": -0.3543950958,
				"z": -1.2000197811,
				"element": "H" 
			},
			{
				"x": 5.2120065991,
				"y": 1.0928834084,
				"z": -3.0862889168,
				"element": "H" 
			},
			{
				"x": 3.6982203862,
				"y": 2.8729826052,
				"z": -3.9320430819,
				"element": "H" 
			},
			{
				"x": 1.4555632631,
				"y": 3.1945004715,
				"z": -2.8755823259,
				"element": "H" 
			}
		],
		 "valence_orbital": [ 
			{
				"type": "occ",
				"energy": -0.28585,
				"method": "rhf"
			},
			{
				"type": "occ",
				"energy": -0.26913,
				"method": "rhf"
			},
			{
				"type": "occ",
				"energy": -0.25815,
				"method": "rhf"
			},
			{
				"type": "occ",
				"energy": -0.25692,
				"method": "rhf"
			},
			{
				"type": "occ",
				"energy": -0.21647,
				"method": "rhf"
			},
			{
				"type": "unocc",
				"energy": -0.04323,
				"method": "rhf"
			},
			{
				"type": "unocc",
				"energy": -0.00701,
				"method": "rhf"
			},
			{
				"type": "unocc",
				"energy": 0.06,
				"method": "rhf"
			},
			{
				"type": "unocc",
				"energy": 0.07174,
				"method": "rhf"
			},
			{
				"type": "unocc",
				"energy": 0.09014,
				"method": "rhf"
			}
		],
		"cosmo_sigma_profile": { 
			"-0.025": 0.0,
			"-0.024": 0.0,
			"-0.023": 0.0,
			"-0.022": 0.0,
			"-0.021": 0.0,
			"-0.02": 0.0,
			"-0.019": 0.0,
			"-0.018": 0.0,
			"-0.017": 0.0,
			"-0.016": 0.0,
			"-0.015": 0.0,
			"-0.014": 0.0,
			"-0.013": 0.0,
			"-0.012": 0.0,
			"-0.011": 0.0,
			"-0.01": 0.0,
			"-0.009": 0.404045260122,
			"-0.008": 1.57051733781,
			"-0.007": 1.48451586351,
			"-0.006": 9.64338357973,
			"-0.005": 13.1182752749,
			"-0.004": 20.6569561133,
			"-0.003": 31.213572412,
			"-0.002": 37.4553040959,
			"-0.001": 36.4265683153,
			"0.0": 36.0344853081,
			"0.001": 36.8524860223,
			"0.002": 23.4711667898,
			"0.003": 16.4108717239,
			"0.004": 16.4237425169,
			"0.005": 5.33326671912,
			"0.006": 2.93811233486,
			"0.007": 2.41650644907,
			"0.008": 2.16305088624,
			"0.009": 2.19835394658,
			"0.01": 2.06030198327,
			"0.011": 2.81036577587,
			"0.012": 4.4240935494,
			"0.013": 1.38221036348,
			"0.014": 0.302880864971,
			"0.015": 0.181450245184,
			"0.016": 0.454223391025,
			"0.017": 0.191209090797,
			"0.018": 0.07924350552,
			"0.019": 0.0,
			"0.02": 0.0,
			"0.021": 0.0,
			"0.022": 0.0,
			"0.023": 0.0,
			"0.024": 0.0,
			"0.025": 0.0
		}
	}
}
