{
	 "smiles": "OC(=O)C1(CCCCC1)C(F)(F)F", 
	 "Tm": 342.65, 
	 "num_atms": 24, 
	 "gaussian": { 
		 "optdone": 1, 
		 "sigma_profile": "yes", 
		 "theory": "DFT", 
		 "functional": "B3LYP", 
		 "basiset": "6-31G**", 
		 "properties": { 
			 "R2extent": 2355.1184, 
			 "electric_dipole_moment_norm": 1.98793641246, 
			 "electric_quadrupole_moment_norm": 8.31831092891, 
			 "total_energy": -761.480249023, 
			 "HOMO_LUMO_gap": 0.27854, 
			 "cosmo_polarized_energy": -7.93, 
			 "cosmo_cavitation_energy": 26.08, 
			 "cosmo_dispersion_energy": -18.87, 
			 "cosmo_repulsion_energy": 1.44, 
			 "cosmo_total_nonelectrostatic_energy": 8.64, 
			 "SMD_solvation_energy": 5.91 
		},
		"coords": [
			{
				"x": 3.0779683333,
				"y": 0.9197733268,
				"z": 0.9914915852,
				"element": "O" 
			},
			{
				"x": 2.1078291537,
				"y": 1.1560017188,
				"z": 0.0813892119,
				"element": "C" 
			},
			{
				"x": 2.2490228346,
				"y": 1.944558917,
				"z": -0.8259581619,
				"element": "O" 
			},
			{
				"x": 0.8268453779,
				"y": 0.3515945291,
				"z": 0.3705883601,
				"element": "C" 
			},
			{
				"x": 0.3911620609,
				"y": 0.594184115,
				"z": 1.8553052643,
				"element": "C" 
			},
			{
				"x": -1.1327522307,
				"y": 0.539367237,
				"z": 2.0188462957,
				"element": "C" 
			},
			{
				"x": -1.8301313022,
				"y": 1.6552487136,
				"z": 1.207378706,
				"element": "C" 
			},
			{
				"x": -1.0574555497,
				"y": 1.9982477183,
				"z": -0.0884926819,
				"element": "C" 
			},
			{
				"x": -0.2836069716,
				"y": 0.7880195834,
				"z": -0.6248135183,
				"element": "C" 
			},
			{
				"x": 1.1343736834,
				"y": -1.138936665,
				"z": 0.1502642379,
				"element": "C" 
			},
			{
				"x": 1.5816905995,
				"y": -1.3565662761,
				"z": -1.1070122889,
				"element": "F" 
			},
			{
				"x": 2.0644122591,
				"y": -1.6213769539,
				"z": 0.9969415123,
				"element": "F" 
			},
			{
				"x": 0.0262049178,
				"y": -1.9004653223,
				"z": 0.3187859397,
				"element": "F" 
			},
			{
				"x": 3.8325860734,
				"y": 1.4753572239,
				"z": 0.7319153931,
				"element": "H" 
			},
			{
				"x": 0.8927202267,
				"y": -0.1282928878,
				"z": 2.5037585024,
				"element": "H" 
			},
			{
				"x": 0.7505478499,
				"y": 1.5800905134,
				"z": 2.16975429,
				"element": "H" 
			},
			{
				"x": -1.4884380415,
				"y": -0.4440996486,
				"z": 1.695703171,
				"element": "H" 
			},
			{
				"x": -1.3882191129,
				"y": 0.6245406889,
				"z": 3.0805869153,
				"element": "H" 
			},
			{
				"x": -2.8504284053,
				"y": 1.3375982715,
				"z": 0.9637037829,
				"element": "H" 
			},
			{
				"x": -1.928442653,
				"y": 2.5583534143,
				"z": 1.8210646632,
				"element": "H" 
			},
			{
				"x": -0.348061072,
				"y": 2.8141134525,
				"z": 0.09304328,
				"element": "H" 
			},
			{
				"x": -1.7460161898,
				"y": 2.3645829478,
				"z": -0.8568961712,
				"element": "H" 
			},
			{
				"x": 0.1759314757,
				"y": 1.0164942801,
				"z": -1.5875778817,
				"element": "H" 
			},
			{
				"x": -0.9733433169,
				"y": -0.0473888979,
				"z": -0.7772704074,
				"element": "H" 
			}
		],
		 "valence_orbital": [ 
			{
				"type": "occ",
				"energy": -0.33146,
				"method": "rhf"
			},
			{
				"type": "occ",
				"energy": -0.31936,
				"method": "rhf"
			},
			{
				"type": "occ",
				"energy": -0.31634,
				"method": "rhf"
			},
			{
				"type": "occ",
				"energy": -0.31092,
				"method": "rhf"
			},
			{
				"type": "occ",
				"energy": -0.28465,
				"method": "rhf"
			},
			{
				"type": "unocc",
				"energy": -0.00611,
				"method": "rhf"
			},
			{
				"type": "unocc",
				"energy": 0.06602,
				"method": "rhf"
			},
			{
				"type": "unocc",
				"energy": 0.07977,
				"method": "rhf"
			},
			{
				"type": "unocc",
				"energy": 0.10554,
				"method": "rhf"
			},
			{
				"type": "unocc",
				"energy": 0.12837,
				"method": "rhf"
			}
		],
		"cosmo_sigma_profile": { 
			"-0.025": 0.0,
			"-0.024": 0.0,
			"-0.023": 0.0,
			"-0.022": 0.0,
			"-0.021": 0.0,
			"-0.02": 0.0,
			"-0.019": 0.218383654511,
			"-0.018": 0.944470852212,
			"-0.017": 0.962340744777,
			"-0.016": 0.934679916501,
			"-0.015": 0.843532094319,
			"-0.014": 0.813927280333,
			"-0.013": 0.461313435347,
			"-0.012": 0.64116684922,
			"-0.011": 0.9115249499,
			"-0.01": 0.727426467507,
			"-0.009": 0.410175622044,
			"-0.008": 0.680070697159,
			"-0.007": 1.21550469196,
			"-0.006": 2.25575824084,
			"-0.005": 2.97732837687,
			"-0.004": 7.19645291262,
			"-0.003": 17.1390364671,
			"-0.002": 28.1391432517,
			"-0.001": 29.6238450798,
			"0.0": 20.8770310162,
			"0.001": 16.3533122796,
			"0.002": 21.1269278715,
			"0.003": 21.8326513774,
			"0.004": 3.8769442358,
			"0.005": 3.02911039768,
			"0.006": 3.15555436124,
			"0.007": 3.86148660648,
			"0.008": 2.84141839369,
			"0.009": 1.67455146988,
			"0.01": 2.68130902795,
			"0.011": 4.42206599124,
			"0.012": 0.584676536648,
			"0.013": 0.0,
			"0.014": 0.0,
			"0.015": 0.0,
			"0.016": 0.0,
			"0.017": 0.0,
			"0.018": 0.0,
			"0.019": 0.0,
			"0.02": 0.0,
			"0.021": 0.0,
			"0.022": 0.0,
			"0.023": 0.0,
			"0.024": 0.0,
			"0.025": 0.0
		}
	}
}
