{
	 "smiles": "CN1C(S)=NN=C1C1=CC=C(Cl)C=C1", 
	 "Tm": 387.15, 
	 "num_atms": 22, 
	 "gaussian": { 
		 "optdone": 1, 
		 "sigma_profile": "yes", 
		 "theory": "DFT", 
		 "functional": "B3LYP", 
		 "basiset": "6-31G**", 
		 "properties": { 
			 "R2extent": 4973.963, 
			 "electric_dipole_moment_norm": 4.29001347667, 
			 "electric_quadrupole_moment_norm": 11.575502437, 
			 "total_energy": -1370.38956336, 
			 "HOMO_LUMO_gap": 0.18104, 
			 "cosmo_polarized_energy": -16.12, 
			 "cosmo_cavitation_energy": 29.88, 
			 "cosmo_dispersion_energy": -22.58, 
			 "cosmo_repulsion_energy": 1.72, 
			 "cosmo_total_nonelectrostatic_energy": 9.01, 
			 "SMD_solvation_energy": 2.35 
		},
		"coords": [
			{
				"x": -2.3814377079,
				"y": 0.4143003839,
				"z": 0.6628708235,
				"element": "C" 
			},
			{
				"x": -1.651758258,
				"y": -0.7831670023,
				"z": 0.2667254483,
				"element": "N" 
			},
			{
				"x": -2.1938601728,
				"y": -2.0152281026,
				"z": 0.0025482501,
				"element": "C" 
			},
			{
				"x": -3.9016633774,
				"y": -2.381875045,
				"z": 0.271465032,
				"element": "S" 
			},
			{
				"x": -1.2906534925,
				"y": -2.8475870812,
				"z": -0.4625452456,
				"element": "N" 
			},
			{
				"x": -0.1034125371,
				"y": -2.1555008185,
				"z": -0.5163429639,
				"element": "N" 
			},
			{
				"x": -0.3161964614,
				"y": -0.9313631448,
				"z": -0.0770751353,
				"element": "C" 
			},
			{
				"x": 0.7252160775,
				"y": 0.0994879244,
				"z": 0.0087313707,
				"element": "C" 
			},
			{
				"x": 1.762155399,
				"y": 0.0762912788,
				"z": -0.9404429744,
				"element": "C" 
			},
			{
				"x": 2.7956711986,
				"y": 1.0057015254,
				"z": -0.8924516464,
				"element": "C" 
			},
			{
				"x": 2.7970251993,
				"y": 1.9747725073,
				"z": 0.1126008319,
				"element": "C" 
			},
			{
				"x": 4.0910102074,
				"y": 3.1598792911,
				"z": 0.1708172612,
				"element": "Cl" 
			},
			{
				"x": 1.7893822773,
				"y": 2.011983882,
				"z": 1.0745597049,
				"element": "C" 
			},
			{
				"x": 0.7619152411,
				"y": 1.0708913551,
				"z": 1.0220798774,
				"element": "C" 
			},
			{
				"x": -2.4834212816,
				"y": 0.4802147317,
				"z": 1.7508210742,
				"element": "H" 
			},
			{
				"x": -1.854025968,
				"y": 1.2955713201,
				"z": 0.2974837077,
				"element": "H" 
			},
			{
				"x": -3.3776854927,
				"y": 0.392776919,
				"z": 0.214811577,
				"element": "H" 
			},
			{
				"x": -3.8025585878,
				"y": -3.5864268056,
				"z": -0.3213595045,
				"element": "H" 
			},
			{
				"x": 1.7460173095,
				"y": -0.685486845,
				"z": -1.7119670377,
				"element": "H" 
			},
			{
				"x": 3.5912108984,
				"y": 0.9854907659,
				"z": -1.6289103998,
				"element": "H" 
			},
			{
				"x": 1.8155888313,
				"y": 2.7572285592,
				"z": 1.8616367153,
				"element": "H" 
			},
			{
				"x": 0.0070806979,
				"y": 1.0817444012,
				"z": 1.8011432336,
				"element": "H" 
			}
		],
		 "valence_orbital": [ 
			{
				"type": "occ",
				"energy": -0.29677,
				"method": "rhf"
			},
			{
				"type": "occ",
				"energy": -0.27451,
				"method": "rhf"
			},
			{
				"type": "occ",
				"energy": -0.26679,
				"method": "rhf"
			},
			{
				"type": "occ",
				"energy": -0.25826,
				"method": "rhf"
			},
			{
				"type": "occ",
				"energy": -0.22417,
				"method": "rhf"
			},
			{
				"type": "unocc",
				"energy": -0.04313,
				"method": "rhf"
			},
			{
				"type": "unocc",
				"energy": -0.02513,
				"method": "rhf"
			},
			{
				"type": "unocc",
				"energy": 0.00017,
				"method": "rhf"
			},
			{
				"type": "unocc",
				"energy": 0.0222,
				"method": "rhf"
			},
			{
				"type": "unocc",
				"energy": 0.02412,
				"method": "rhf"
			}
		],
		"cosmo_sigma_profile": { 
			"-0.025": 0.0,
			"-0.024": 0.0,
			"-0.023": 0.0,
			"-0.022": 0.0,
			"-0.021": 0.0,
			"-0.02": 0.0,
			"-0.019": 0.0,
			"-0.018": 0.0,
			"-0.017": 0.0,
			"-0.016": 0.0,
			"-0.015": 0.0,
			"-0.014": 0.0,
			"-0.013": 0.165763589747,
			"-0.012": 1.59799682726,
			"-0.011": 0.966375887857,
			"-0.01": 1.36510879293,
			"-0.009": 1.83515178033,
			"-0.008": 5.40982904416,
			"-0.007": 14.1158035278,
			"-0.006": 18.4562586356,
			"-0.005": 17.8904671472,
			"-0.004": 14.7667554677,
			"-0.003": 11.1593337595,
			"-0.002": 12.7293531782,
			"-0.001": 14.1830016553,
			"0.0": 14.9420547432,
			"0.001": 20.6848828881,
			"0.002": 23.6846715409,
			"0.003": 19.0713891354,
			"0.004": 14.9338240878,
			"0.005": 8.60863872848,
			"0.006": 4.60557376981,
			"0.007": 2.43485402405,
			"0.008": 1.69177881785,
			"0.009": 2.25654560326,
			"0.01": 2.20503584068,
			"0.011": 2.05412621729,
			"0.012": 2.71401375885,
			"0.013": 3.59306489686,
			"0.014": 2.28162423498,
			"0.015": 2.68660734052,
			"0.016": 1.68195359376,
			"0.017": 0.148602020783,
			"0.018": 0.0,
			"0.019": 0.0,
			"0.02": 0.0,
			"0.021": 0.0,
			"0.022": 0.0,
			"0.023": 0.0,
			"0.024": 0.0,
			"0.025": 0.0
		}
	}
}
