{
	 "smiles": "CC1CC2=C(C=CC=C2)N1CC1=C(C=CO1)C(O)=O", 
	 "Tm": 460.15, 
	 "num_atms": 34, 
	 "gaussian": { 
		 "optdone": 1, 
		 "sigma_profile": "yes", 
		 "theory": "DFT", 
		 "functional": "B3LYP", 
		 "basiset": "6-31G**", 
		 "properties": { 
			 "R2extent": 5268.4313, 
			 "electric_dipole_moment_norm": 5.82877215029, 
			 "electric_quadrupole_moment_norm": 20.1158915828, 
			 "total_energy": -861.05503324, 
			 "HOMO_LUMO_gap": 0.18945, 
			 "cosmo_polarized_energy": -16.0, 
			 "cosmo_cavitation_energy": 36.41, 
			 "cosmo_dispersion_energy": -25.25, 
			 "cosmo_repulsion_energy": 1.9, 
			 "cosmo_total_nonelectrostatic_energy": 13.05, 
			 "SMD_solvation_energy": 7.89 
		},
		"coords": [
			{
				"x": -1.8380196984,
				"y": 0.1370787025,
				"z": -1.5969490068,
				"element": "C" 
			},
			{
				"x": -0.5074454494,
				"y": 0.466522764,
				"z": -0.9109553514,
				"element": "C" 
			},
			{
				"x": 0.5999825881,
				"y": 0.8474475019,
				"z": -1.9258602971,
				"element": "C" 
			},
			{
				"x": 1.2788278923,
				"y": -0.4773610937,
				"z": -2.1881369507,
				"element": "C" 
			},
			{
				"x": 0.947353095,
				"y": -1.3625789365,
				"z": -1.1514950683,
				"element": "C" 
			},
			{
				"x": 1.4502534782,
				"y": -2.6614662376,
				"z": -1.1233540149,
				"element": "C" 
			},
			{
				"x": 2.3085368796,
				"y": -3.0582458893,
				"z": -2.1576347447,
				"element": "C" 
			},
			{
				"x": 2.6476088844,
				"y": -2.1838947486,
				"z": -3.1902500176,
				"element": "C" 
			},
			{
				"x": 2.1297064904,
				"y": -0.880984141,
				"z": -3.2068178917,
				"element": "C" 
			},
			{
				"x": 0.105884467,
				"y": -0.7101946275,
				"z": -0.2045609781,
				"element": "N" 
			},
			{
				"x": -0.7451222332,
				"y": -1.5335894622,
				"z": 0.6587135986,
				"element": "C" 
			},
			{
				"x": -1.3340014067,
				"y": -0.7347713196,
				"z": 1.7820219,
				"element": "C" 
			},
			{
				"x": -0.8349011215,
				"y": 0.1639765096,
				"z": 2.6957558482,
				"element": "C" 
			},
			{
				"x": -1.934478223,
				"y": 0.506743137,
				"z": 3.5570405032,
				"element": "C" 
			},
			{
				"x": -3.0058411677,
				"y": -0.1915700851,
				"z": 3.1095131821,
				"element": "C" 
			},
			{
				"x": -2.6557055376,
				"y": -0.9538772587,
				"z": 2.0245346481,
				"element": "O" 
			},
			{
				"x": 0.5369091443,
				"y": 0.7154699586,
				"z": 2.8828323577,
				"element": "C" 
			},
			{
				"x": 1.4447614295,
				"y": 0.4778054808,
				"z": 1.9204316806,
				"element": "O" 
			},
			{
				"x": 0.8219174918,
				"y": 1.3574127859,
				"z": 3.872545845,
				"element": "O" 
			},
			{
				"x": -1.717357353,
				"y": -0.6670631225,
				"z": -2.3305441648,
				"element": "H" 
			},
			{
				"x": -2.6075970661,
				"y": -0.1577188709,
				"z": -0.8779624647,
				"element": "H" 
			},
			{
				"x": -2.2048524367,
				"y": 1.0239585674,
				"z": -2.1231292214,
				"element": "H" 
			},
			{
				"x": -0.6652130061,
				"y": 1.2598901818,
				"z": -0.1753820822,
				"element": "H" 
			},
			{
				"x": 0.1859012203,
				"y": 1.3171894216,
				"z": -2.8229372234,
				"element": "H" 
			},
			{
				"x": 1.304854994,
				"y": 1.5584397995,
				"z": -1.475300298,
				"element": "H" 
			},
			{
				"x": 1.1933457514,
				"y": -3.3600046359,
				"z": -0.3338934652,
				"element": "H" 
			},
			{
				"x": 2.7083655042,
				"y": -4.0680545936,
				"z": -2.1528876607,
				"element": "H" 
			},
			{
				"x": 3.3095790231,
				"y": -2.5138018372,
				"z": -3.984853928,
				"element": "H" 
			},
			{
				"x": 2.3878293231,
				"y": -0.1975612461,
				"z": -4.0114683498,
				"element": "H" 
			},
			{
				"x": -1.5618449982,
				"y": -2.026296299,
				"z": 0.1138579986,
				"element": "H" 
			},
			{
				"x": -0.1127945562,
				"y": -2.3281537764,
				"z": 1.0712547707,
				"element": "H" 
			},
			{
				"x": -1.8826991438,
				"y": 1.1906282967,
				"z": 4.3904688841,
				"element": "H" 
			},
			{
				"x": -4.0363314099,
				"y": -0.267333613,
				"z": 3.4186067033,
				"element": "H" 
			},
			{
				"x": 1.047187151,
				"y": 0.0303586871,
				"z": 1.1278952593,
				"element": "H" 
			}
		],
		 "valence_orbital": [ 
			{
				"type": "occ",
				"energy": -0.28116,
				"method": "rhf"
			},
			{
				"type": "occ",
				"energy": -0.25578,
				"method": "rhf"
			},
			{
				"type": "occ",
				"energy": -0.25462,
				"method": "rhf"
			},
			{
				"type": "occ",
				"energy": -0.24107,
				"method": "rhf"
			},
			{
				"type": "occ",
				"energy": -0.21737,
				"method": "rhf"
			},
			{
				"type": "unocc",
				"energy": -0.02792,
				"method": "rhf"
			},
			{
				"type": "unocc",
				"energy": -0.01189,
				"method": "rhf"
			},
			{
				"type": "unocc",
				"energy": 0.0002,
				"method": "rhf"
			},
			{
				"type": "unocc",
				"energy": 0.02096,
				"method": "rhf"
			},
			{
				"type": "unocc",
				"energy": 0.07623,
				"method": "rhf"
			}
		],
		"cosmo_sigma_profile": { 
			"-0.025": 0.0,
			"-0.024": 0.0,
			"-0.023": 0.0,
			"-0.022": 0.0,
			"-0.021": 0.0,
			"-0.02": 0.0,
			"-0.019": 0.0,
			"-0.018": 0.0,
			"-0.017": 0.0,
			"-0.016": 0.0,
			"-0.015": 0.0,
			"-0.014": 0.0,
			"-0.013": 0.0,
			"-0.012": 0.0,
			"-0.011": 0.0,
			"-0.01": 0.46742715893,
			"-0.009": 2.51866927095,
			"-0.008": 6.12851871123,
			"-0.007": 6.83529193286,
			"-0.006": 9.95902627093,
			"-0.005": 20.5404257157,
			"-0.004": 30.3967645197,
			"-0.003": 31.5234634852,
			"-0.002": 26.8442794176,
			"-0.001": 24.5644940576,
			"0.0": 19.0054784972,
			"0.001": 17.7824486219,
			"0.002": 13.833168079,
			"0.003": 14.8104319892,
			"0.004": 12.7642865507,
			"0.005": 10.5817751919,
			"0.006": 10.6144434174,
			"0.007": 5.29453504319,
			"0.008": 2.43866760114,
			"0.009": 2.1535511251,
			"0.01": 3.17453614744,
			"0.011": 4.38252177652,
			"0.012": 6.58083902928,
			"0.013": 4.67710657551,
			"0.014": 1.65060184558,
			"0.015": 0.138854732175,
			"0.016": 0.0,
			"0.017": 0.0,
			"0.018": 0.0,
			"0.019": 0.0,
			"0.02": 0.0,
			"0.021": 0.0,
			"0.022": 0.0,
			"0.023": 0.0,
			"0.024": 0.0,
			"0.025": 0.0
		}
	}
}
