{
	 "smiles": "OC(=O)CC1SC2=C(NC1=O)C=C(C=C2)C(F)(F)F", 
	 "Tm": 510.15, 
	 "num_atms": 27, 
	 "gaussian": { 
		 "optdone": 1, 
		 "sigma_profile": "yes", 
		 "theory": "DFT", 
		 "functional": "B3LYP", 
		 "basiset": "6-31G**", 
		 "properties": { 
			 "R2extent": 7204.8896, 
			 "electric_dipole_moment_norm": 2.23766071602, 
			 "electric_quadrupole_moment_norm": 10.9307835337, 
			 "total_energy": -1402.16285137, 
			 "HOMO_LUMO_gap": 0.18466, 
			 "cosmo_polarized_energy": -17.88, 
			 "cosmo_cavitation_energy": 35.03, 
			 "cosmo_dispersion_energy": -24.59, 
			 "cosmo_repulsion_energy": 1.79, 
			 "cosmo_total_nonelectrostatic_energy": 12.23, 
			 "SMD_solvation_energy": 7.97 
		},
		"coords": [
			{
				"x": -4.4825403376,
				"y": 2.6658947067,
				"z": -2.9214182708,
				"element": "O" 
			},
			{
				"x": -3.5347863989,
				"y": 1.7029390839,
				"z": -2.9937359064,
				"element": "C" 
			},
			{
				"x": -3.7502440407,
				"y": 0.5871885576,
				"z": -3.406201358,
				"element": "O" 
			},
			{
				"x": -2.1920763039,
				"y": 2.2125609188,
				"z": -2.4988294557,
				"element": "C" 
			},
			{
				"x": -2.22186976,
				"y": 2.5585685163,
				"z": -0.9919111724,
				"element": "C" 
			},
			{
				"x": -0.6486394962,
				"y": 3.3018204962,
				"z": -0.3993298472,
				"element": "S" 
			},
			{
				"x": 0.3500463477,
				"y": 1.8360244656,
				"z": -0.37103996,
				"element": "C" 
			},
			{
				"x": -0.2298025249,
				"y": 0.5889475075,
				"z": -0.0647767529,
				"element": "C" 
			},
			{
				"x": -1.6031767531,
				"y": 0.4751530196,
				"z": 0.1920463102,
				"element": "N" 
			},
			{
				"x": -2.615517779,
				"y": 1.3468185037,
				"z": -0.1486105239,
				"element": "C" 
			},
			{
				"x": -3.7754454392,
				"y": 1.12489136,
				"z": 0.1553679834,
				"element": "O" 
			},
			{
				"x": 0.5822388281,
				"y": -0.5474040895,
				"z": 0.0177048313,
				"element": "C" 
			},
			{
				"x": 1.9580786414,
				"y": -0.4430464879,
				"z": -0.1732893651,
				"element": "C" 
			},
			{
				"x": 2.5390691213,
				"y": 0.7929816892,
				"z": -0.4711536557,
				"element": "C" 
			},
			{
				"x": 1.7311548783,
				"y": 1.9203000213,
				"z": -0.5799514316,
				"element": "C" 
			},
			{
				"x": 2.8140877963,
				"y": -1.6801774943,
				"z": -0.1271152674,
				"element": "C" 
			},
			{
				"x": 2.990839657,
				"y": -2.2091686622,
				"z": -1.3595142389,
				"element": "F" 
			},
			{
				"x": 4.0435566169,
				"y": -1.4165102958,
				"z": 0.3660163313,
				"element": "F" 
			},
			{
				"x": 2.2632576923,
				"y": -2.6461453667,
				"z": 0.6409464707,
				"element": "F" 
			},
			{
				"x": -5.316680816,
				"y": 2.2541629867,
				"z": -3.2034496305,
				"element": "H" 
			},
			{
				"x": -1.9303883482,
				"y": 3.1194209784,
				"z": -3.0524054076,
				"element": "H" 
			},
			{
				"x": -1.445333077,
				"y": 1.4452236764,
				"z": -2.7101817684,
				"element": "H" 
			},
			{
				"x": -2.9855628784,
				"y": 3.3161700787,
				"z": -0.8091424367,
				"element": "H" 
			},
			{
				"x": -1.9339580077,
				"y": -0.3722539886,
				"z": 0.637053231,
				"element": "H" 
			},
			{
				"x": 0.1383755245,
				"y": -1.5107098806,
				"z": 0.24756589,
				"element": "H" 
			},
			{
				"x": 3.6102649771,
				"y": 0.8703944346,
				"z": -0.6179948419,
				"element": "H" 
			},
			{
				"x": 2.1709518801,
				"y": 2.8827552643,
				"z": -0.821749757,
				"element": "H" 
			}
		],
		 "valence_orbital": [ 
			{
				"type": "occ",
				"energy": -0.31412,
				"method": "rhf"
			},
			{
				"type": "occ",
				"energy": -0.28628,
				"method": "rhf"
			},
			{
				"type": "occ",
				"energy": -0.27503,
				"method": "rhf"
			},
			{
				"type": "occ",
				"energy": -0.25598,
				"method": "rhf"
			},
			{
				"type": "occ",
				"energy": -0.23455,
				"method": "rhf"
			},
			{
				"type": "unocc",
				"energy": -0.04989,
				"method": "rhf"
			},
			{
				"type": "unocc",
				"energy": -0.03822,
				"method": "rhf"
			},
			{
				"type": "unocc",
				"energy": -0.01197,
				"method": "rhf"
			},
			{
				"type": "unocc",
				"energy": 0.0035,
				"method": "rhf"
			},
			{
				"type": "unocc",
				"energy": 0.02946,
				"method": "rhf"
			}
		],
		"cosmo_sigma_profile": { 
			"-0.025": 0.0,
			"-0.024": 0.0,
			"-0.023": 0.0,
			"-0.022": 0.0,
			"-0.021": 0.0,
			"-0.02": 0.0,
			"-0.019": 0.165494915416,
			"-0.018": 1.16081263088,
			"-0.017": 0.410750581373,
			"-0.016": 2.12544919441,
			"-0.015": 2.22800511161,
			"-0.014": 2.1712581819,
			"-0.013": 1.18523678606,
			"-0.012": 1.91841848898,
			"-0.011": 2.47915694086,
			"-0.01": 1.80314339405,
			"-0.009": 3.31292500084,
			"-0.008": 5.66204563276,
			"-0.007": 10.5079883389,
			"-0.006": 12.4986317956,
			"-0.005": 13.9439771187,
			"-0.004": 13.0348298896,
			"-0.003": 11.754358788,
			"-0.002": 14.2535298102,
			"-0.001": 15.1522162031,
			"0.0": 18.6049847773,
			"0.001": 24.0956176686,
			"0.002": 33.9471087206,
			"0.003": 35.9059927646,
			"0.004": 6.43255412613,
			"0.005": 7.55266076454,
			"0.006": 6.24561868372,
			"0.007": 4.58251584201,
			"0.008": 3.5975162417,
			"0.009": 4.45325754572,
			"0.01": 3.63936563718,
			"0.011": 7.78535589814,
			"0.012": 7.70521617547,
			"0.013": 1.20443899003,
			"0.014": 0.0,
			"0.015": 0.0,
			"0.016": 0.0,
			"0.017": 0.0,
			"0.018": 0.0,
			"0.019": 0.0,
			"0.02": 0.0,
			"0.021": 0.0,
			"0.022": 0.0,
			"0.023": 0.0,
			"0.024": 0.0,
			"0.025": 0.0
		}
	}
}
