{
	 "smiles": "CC(=O)C=CC1=C(C)CCCC1(C)C", 
	 "Tm": 224.15, 
	 "num_atms": 34, 
	 "gaussian": { 
		 "optdone": 1, 
		 "sigma_profile": "yes", 
		 "theory": "DFT", 
		 "functional": "B3LYP", 
		 "basiset": "6-31G**", 
		 "properties": { 
			 "R2extent": 3709.38, 
			 "electric_dipole_moment_norm": 4.00485821097, 
			 "electric_quadrupole_moment_norm": 12.7176845801, 
			 "total_energy": -582.651711185, 
			 "HOMO_LUMO_gap": 0.17174, 
			 "cosmo_polarized_energy": -8.62, 
			 "cosmo_cavitation_energy": 33.99, 
			 "cosmo_dispersion_energy": -23.43, 
			 "cosmo_repulsion_energy": 1.86, 
			 "cosmo_total_nonelectrostatic_energy": 12.42, 
			 "SMD_solvation_energy": 6.29 
		},
		"coords": [
			{
				"x": -1.6200493454,
				"y": 3.1122465825,
				"z": -0.7295989159,
				"element": "C" 
			},
			{
				"x": -2.0582855662,
				"y": 2.2508638234,
				"z": 0.447387089,
				"element": "C" 
			},
			{
				"x": -2.8115016175,
				"y": 2.6999334312,
				"z": 1.3021283635,
				"element": "O" 
			},
			{
				"x": -1.5695662963,
				"y": 0.8571741406,
				"z": 0.5599727852,
				"element": "C" 
			},
			{
				"x": -0.7268270381,
				"y": 0.256181067,
				"z": -0.3040906631,
				"element": "C" 
			},
			{
				"x": -0.1942243981,
				"y": -1.116594319,
				"z": -0.2304448398,
				"element": "C" 
			},
			{
				"x": -0.974278474,
				"y": -2.1990667945,
				"z": 0.0202432948,
				"element": "C" 
			},
			{
				"x": -2.4669559629,
				"y": -2.1475805709,
				"z": 0.2481072702,
				"element": "C" 
			},
			{
				"x": -0.4123767762,
				"y": -3.6064636609,
				"z": 0.0926227528,
				"element": "C" 
			},
			{
				"x": 0.9862226223,
				"y": -3.7604250823,
				"z": -0.5060443602,
				"element": "C" 
			},
			{
				"x": 1.8686060581,
				"y": -2.5959197895,
				"z": -0.0648155652,
				"element": "C" 
			},
			{
				"x": 1.3226483622,
				"y": -1.2234921252,
				"z": -0.5208264271,
				"element": "C" 
			},
			{
				"x": 2.0969963419,
				"y": -0.1337459128,
				"z": 0.2559427278,
				"element": "C" 
			},
			{
				"x": 1.5827116227,
				"y": -1.0304011699,
				"z": -2.0352094919,
				"element": "C" 
			},
			{
				"x": -1.922552908,
				"y": 2.6642881459,
				"z": -1.6823226317,
				"element": "H" 
			},
			{
				"x": -0.5305158913,
				"y": 3.2258516065,
				"z": -0.7524556107,
				"element": "H" 
			},
			{
				"x": -2.081788729,
				"y": 4.095062696,
				"z": -0.6298375162,
				"element": "H" 
			},
			{
				"x": -1.9374845884,
				"y": 0.3376865735,
				"z": 1.440370592,
				"element": "H" 
			},
			{
				"x": -0.3413369414,
				"y": 0.8585859279,
				"z": -1.1267686532,
				"element": "H" 
			},
			{
				"x": -2.7094219107,
				"y": -2.3132795436,
				"z": 1.3067218882,
				"element": "H" 
			},
			{
				"x": -2.9161975148,
				"y": -1.2000624382,
				"z": -0.0483674285,
				"element": "H" 
			},
			{
				"x": -2.9583043207,
				"y": -2.9543905501,
				"z": -0.3089301279,
				"element": "H" 
			},
			{
				"x": -0.3999836704,
				"y": -3.9118034076,
				"z": 1.1514675376,
				"element": "H" 
			},
			{
				"x": -1.1139158356,
				"y": -4.295860304,
				"z": -0.3947801934,
				"element": "H" 
			},
			{
				"x": 1.4258646101,
				"y": -4.7159928362,
				"z": -0.1983221648,
				"element": "H" 
			},
			{
				"x": 0.9180497118,
				"y": -3.7892508053,
				"z": -1.6002030487,
				"element": "H" 
			},
			{
				"x": 1.9385062122,
				"y": -2.6013570723,
				"z": 1.0315479069,
				"element": "H" 
			},
			{
				"x": 2.8918694261,
				"y": -2.713969854,
				"z": -0.4425527436,
				"element": "H" 
			},
			{
				"x": 1.8374118662,
				"y": 0.8766220333,
				"z": -0.0741564294,
				"element": "H" 
			},
			{
				"x": 3.1751689024,
				"y": -0.2625729515,
				"z": 0.1072474238,
				"element": "H" 
			},
			{
				"x": 1.8935798753,
				"y": -0.1956445465,
				"z": 1.3299534685,
				"element": "H" 
			},
			{
				"x": 1.0951043029,
				"y": -1.8059131754,
				"z": -2.6326045848,
				"element": "H" 
			},
			{
				"x": 2.6584863253,
				"y": -1.0648714455,
				"z": -2.2428537867,
				"element": "H" 
			},
			{
				"x": 1.2150415454,
				"y": -0.0626376724,
				"z": -2.3914279176,
				"element": "H" 
			}
		],
		 "valence_orbital": [ 
			{
				"type": "occ",
				"energy": -0.31502,
				"method": "rhf"
			},
			{
				"type": "occ",
				"energy": -0.30288,
				"method": "rhf"
			},
			{
				"type": "occ",
				"energy": -0.28201,
				"method": "rhf"
			},
			{
				"type": "occ",
				"energy": -0.23714,
				"method": "rhf"
			},
			{
				"type": "occ",
				"energy": -0.22639,
				"method": "rhf"
			},
			{
				"type": "unocc",
				"energy": -0.05465,
				"method": "rhf"
			},
			{
				"type": "unocc",
				"energy": 0.02409,
				"method": "rhf"
			},
			{
				"type": "unocc",
				"energy": 0.0728,
				"method": "rhf"
			},
			{
				"type": "unocc",
				"energy": 0.07684,
				"method": "rhf"
			},
			{
				"type": "unocc",
				"energy": 0.08799,
				"method": "rhf"
			}
		],
		"cosmo_sigma_profile": { 
			"-0.025": 0.0,
			"-0.024": 0.0,
			"-0.023": 0.0,
			"-0.022": 0.0,
			"-0.021": 0.0,
			"-0.02": 0.0,
			"-0.019": 0.0,
			"-0.018": 0.0,
			"-0.017": 0.0,
			"-0.016": 0.0,
			"-0.015": 0.0,
			"-0.014": 0.0,
			"-0.013": 0.0,
			"-0.012": 0.0,
			"-0.011": 0.0,
			"-0.01": 0.0,
			"-0.009": 0.0,
			"-0.008": 0.0,
			"-0.007": 0.0229717256849,
			"-0.006": 4.33897412148,
			"-0.005": 9.82163881247,
			"-0.004": 13.3461916978,
			"-0.003": 27.2049789547,
			"-0.002": 42.1310504622,
			"-0.001": 42.4405387964,
			"0.0": 40.3444138356,
			"0.001": 34.9554460197,
			"0.002": 14.5559191964,
			"0.003": 7.27592324998,
			"0.004": 4.90646059669,
			"0.005": 2.03975604265,
			"0.006": 1.1233564077,
			"0.007": 2.41775229079,
			"0.008": 0.864377907306,
			"0.009": 1.47671143205,
			"0.01": 1.95000135133,
			"0.011": 2.07504561726,
			"0.012": 3.64087465647,
			"0.013": 4.59411769739,
			"0.014": 2.13657664406,
			"0.015": 0.0964603548986,
			"0.016": 0.0,
			"0.017": 0.0,
			"0.018": 0.0,
			"0.019": 0.0,
			"0.02": 0.0,
			"0.021": 0.0,
			"0.022": 0.0,
			"0.023": 0.0,
			"0.024": 0.0,
			"0.025": 0.0
		}
	}
}
