{
	 "smiles": "CC(C)N1CCN(CC1)C1CCNCC1", 
	 "Tm": 323.15, 
	 "num_atms": 40, 
	 "gaussian": { 
		 "optdone": 1, 
		 "sigma_profile": "yes", 
		 "theory": "DFT", 
		 "functional": "B3LYP", 
		 "basiset": "6-31G**", 
		 "properties": { 
			 "R2extent": 4825.2247, 
			 "electric_dipole_moment_norm": 0.62973506334, 
			 "electric_quadrupole_moment_norm": 7.69935859861, 
			 "total_energy": -636.563432697, 
			 "HOMO_LUMO_gap": 0.26233, 
			 "cosmo_polarized_energy": -6.92, 
			 "cosmo_cavitation_energy": 36.57, 
			 "cosmo_dispersion_energy": -26.56, 
			 "cosmo_repulsion_energy": 2.07, 
			 "cosmo_total_nonelectrostatic_energy": 12.08, 
			 "SMD_solvation_energy": -0.8 
		},
		"coords": [
			{
				"x": -2.3135363472,
				"y": 3.1133127641,
				"z": -2.1315023956,
				"element": "C" 
			},
			{
				"x": -2.3471567032,
				"y": 2.8993070905,
				"z": -0.60262541,
				"element": "C" 
			},
			{
				"x": -3.787866311,
				"y": 2.7672092717,
				"z": -0.0908963538,
				"element": "C" 
			},
			{
				"x": -1.5169003922,
				"y": 1.7920948684,
				"z": -0.1106095129,
				"element": "N" 
			},
			{
				"x": -0.0831830309,
				"y": 2.066393318,
				"z": -0.1064262861,
				"element": "C" 
			},
			{
				"x": 0.6767968598,
				"y": 0.860493024,
				"z": 0.4413285717,
				"element": "C" 
			},
			{
				"x": 0.5653600895,
				"y": -0.3116195277,
				"z": -0.4488769099,
				"element": "N" 
			},
			{
				"x": -0.6421459872,
				"y": -0.2201457399,
				"z": -1.2912901668,
				"element": "C" 
			},
			{
				"x": -1.8433848122,
				"y": 0.4384904558,
				"z": -0.5954757718,
				"element": "C" 
			},
			{
				"x": 0.7261701682,
				"y": -1.5860256138,
				"z": 0.2766542507,
				"element": "C" 
			},
			{
				"x": 2.0743309467,
				"y": -1.6300946587,
				"z": 1.0181073067,
				"element": "C" 
			},
			{
				"x": 2.2019706473,
				"y": -2.9029465483,
				"z": 1.8811600966,
				"element": "C" 
			},
			{
				"x": 1.4502266368,
				"y": -4.0143609083,
				"z": 1.2831645366,
				"element": "N" 
			},
			{
				"x": 1.5088321995,
				"y": -3.9895898053,
				"z": -0.1761405196,
				"element": "C" 
			},
			{
				"x": 0.6658254446,
				"y": -2.8031509204,
				"z": -0.6872886732,
				"element": "C" 
			},
			{
				"x": -2.8696176913,
				"y": 4.0160833901,
				"z": -2.4069694463,
				"element": "H" 
			},
			{
				"x": -1.2887872439,
				"y": 3.2304009716,
				"z": -2.4982911199,
				"element": "H" 
			},
			{
				"x": -2.7705667868,
				"y": 2.2729933266,
				"z": -2.6662062628,
				"element": "H" 
			},
			{
				"x": -1.9213253108,
				"y": 3.8004777151,
				"z": -0.1393646446,
				"element": "H" 
			},
			{
				"x": -4.3736529522,
				"y": 3.6543167053,
				"z": -0.3540558894,
				"element": "H" 
			},
			{
				"x": -3.7961659268,
				"y": 2.6510125722,
				"z": 0.9965240997,
				"element": "H" 
			},
			{
				"x": -4.2942029252,
				"y": 1.8996631605,
				"z": -0.528521085,
				"element": "H" 
			},
			{
				"x": 0.10550365,
				"y": 2.9270258621,
				"z": 0.547734996,
				"element": "H" 
			},
			{
				"x": 0.3295376061,
				"y": 2.3312900969,
				"z": -1.098658749,
				"element": "H" 
			},
			{
				"x": 1.7308730495,
				"y": 1.1331695909,
				"z": 0.571363203,
				"element": "H" 
			},
			{
				"x": 0.267204521,
				"y": 0.6438399625,
				"z": 1.4450484703,
				"element": "H" 
			},
			{
				"x": -0.4014888577,
				"y": 0.3583268389,
				"z": -2.1931225782,
				"element": "H" 
			},
			{
				"x": -0.9242761097,
				"y": -1.2155249924,
				"z": -1.6372120936,
				"element": "H" 
			},
			{
				"x": -2.1760809067,
				"y": -0.1933656777,
				"z": 0.2420555378,
				"element": "H" 
			},
			{
				"x": -2.6785029351,
				"y": 0.4725771569,
				"z": -1.3054525636,
				"element": "H" 
			},
			{
				"x": -0.0698488608,
				"y": -1.7064865507,
				"z": 1.0369487961,
				"element": "H" 
			},
			{
				"x": 2.2077935351,
				"y": -0.7596858041,
				"z": 1.6646205244,
				"element": "H" 
			},
			{
				"x": 2.8737783259,
				"y": -1.5857726567,
				"z": 0.2682709556,
				"element": "H" 
			},
			{
				"x": 1.7965581409,
				"y": -2.7159968972,
				"z": 2.8840912387,
				"element": "H" 
			},
			{
				"x": 3.2757286174,
				"y": -3.1298015729,
				"z": 2.0084857786,
				"element": "H" 
			},
			{
				"x": 1.7880700777,
				"y": -4.9007634345,
				"z": 1.6440693627,
				"element": "H" 
			},
			{
				"x": 1.1000678701,
				"y": -4.9297308936,
				"z": -0.5607853907,
				"element": "H" 
			},
			{
				"x": 2.5418836288,
				"y": -3.915150861,
				"z": -0.5663741261,
				"element": "H" 
			},
			{
				"x": -0.3713977603,
				"y": -3.1315000355,
				"z": -0.8077047178,
				"element": "H" 
			},
			{
				"x": 1.0341758361,
				"y": -2.4934650433,
				"z": -1.6719770587,
				"element": "H" 
			}
		],
		 "valence_orbital": [ 
			{
				"type": "occ",
				"energy": -0.30812,
				"method": "rhf"
			},
			{
				"type": "occ",
				"energy": -0.30009,
				"method": "rhf"
			},
			{
				"type": "occ",
				"energy": -0.21111,
				"method": "rhf"
			},
			{
				"type": "occ",
				"energy": -0.19596,
				"method": "rhf"
			},
			{
				"type": "occ",
				"energy": -0.18748,
				"method": "rhf"
			},
			{
				"type": "unocc",
				"energy": 0.07485,
				"method": "rhf"
			},
			{
				"type": "unocc",
				"energy": 0.08238,
				"method": "rhf"
			},
			{
				"type": "unocc",
				"energy": 0.09996,
				"method": "rhf"
			},
			{
				"type": "unocc",
				"energy": 0.11386,
				"method": "rhf"
			},
			{
				"type": "unocc",
				"energy": 0.11609,
				"method": "rhf"
			}
		],
		"cosmo_sigma_profile": { 
			"-0.025": 0.0,
			"-0.024": 0.0,
			"-0.023": 0.0,
			"-0.022": 0.0,
			"-0.021": 0.0,
			"-0.02": 0.0,
			"-0.019": 0.0,
			"-0.018": 0.0,
			"-0.017": 0.0,
			"-0.016": 0.0,
			"-0.015": 0.0,
			"-0.014": 0.0,
			"-0.013": 0.0,
			"-0.012": 0.0,
			"-0.011": 0.0,
			"-0.01": 0.501580334664,
			"-0.009": 1.42889613228,
			"-0.008": 0.988040084189,
			"-0.007": 1.53999545172,
			"-0.006": 1.14262266869,
			"-0.005": 1.09194568213,
			"-0.004": 6.00849872382,
			"-0.003": 27.002296498,
			"-0.002": 50.7446161185,
			"-0.001": 64.0882271309,
			"0.0": 49.5643992826,
			"0.001": 29.0752382105,
			"0.002": 13.5928361195,
			"0.003": 5.0895643576,
			"0.004": 3.79263537963,
			"0.005": 2.54008733703,
			"0.006": 2.62457517254,
			"0.007": 2.93783881599,
			"0.008": 2.58201133654,
			"0.009": 1.91610014106,
			"0.01": 1.781777836,
			"0.011": 2.13905289186,
			"0.012": 1.5764549293,
			"0.013": 1.10289268296,
			"0.014": 1.35534469702,
			"0.015": 1.25989460456,
			"0.016": 0.900571799225,
			"0.017": 0.601884504382,
			"0.018": 0.424390421486,
			"0.019": 0.032096602269,
			"0.02": 0.0,
			"0.021": 0.0,
			"0.022": 0.0,
			"0.023": 0.0,
			"0.024": 0.0,
			"0.025": 0.0
		}
	}
}
