{
	 "smiles": "CC1=NC(=CS1)C1=CC(=CC=C1)S(Cl)(=O)=O", 
	 "Tm": 390.15, 
	 "num_atms": 24, 
	 "gaussian": { 
		 "optdone": 1, 
		 "sigma_profile": "yes", 
		 "theory": "DFT", 
		 "functional": "B3LYP", 
		 "basiset": "6-31G**", 
		 "properties": { 
			 "R2extent": 6432.2428, 
			 "electric_dipole_moment_norm": 6.76179534369, 
			 "electric_quadrupole_moment_norm": 21.5451141399, 
			 "total_energy": -1847.58869382, 
			 "HOMO_LUMO_gap": 0.15383, 
			 "cosmo_polarized_energy": -12.27, 
			 "cosmo_cavitation_energy": 33.97, 
			 "cosmo_dispersion_energy": -25.6, 
			 "cosmo_repulsion_energy": 1.91, 
			 "cosmo_total_nonelectrostatic_energy": 10.28, 
			 "SMD_solvation_energy": 3.19 
		},
		"coords": [
			{
				"x": -1.3186626654,
				"y": 1.8928034339,
				"z": -4.4815803502,
				"element": "C" 
			},
			{
				"x": -1.679679901,
				"y": 1.1384131597,
				"z": -3.2393028081,
				"element": "C" 
			},
			{
				"x": -0.8256888449,
				"y": 0.7362680704,
				"z": -2.3485130883,
				"element": "N" 
			},
			{
				"x": -1.4324399803,
				"y": 0.06375086,
				"z": -1.3008959226,
				"element": "C" 
			},
			{
				"x": -2.7963145097,
				"y": -0.0448262393,
				"z": -1.4076153935,
				"element": "C" 
			},
			{
				"x": -3.3513848233,
				"y": 0.713956093,
				"z": -2.8581621447,
				"element": "S" 
			},
			{
				"x": -0.5855038076,
				"y": -0.4532886048,
				"z": -0.2096046088,
				"element": "C" 
			},
			{
				"x": 0.8044228261,
				"y": -0.2694077328,
				"z": -0.2758222818,
				"element": "C" 
			},
			{
				"x": 1.6000786008,
				"y": -0.7630195977,
				"z": 0.7534819899,
				"element": "C" 
			},
			{
				"x": 1.0825633558,
				"y": -1.4393901171,
				"z": 1.8582624334,
				"element": "C" 
			},
			{
				"x": -0.2994416757,
				"y": -1.6181994494,
				"z": 1.9161817416,
				"element": "C" 
			},
			{
				"x": -1.1195054488,
				"y": -1.1310204542,
				"z": 0.9003451696,
				"element": "C" 
			},
			{
				"x": 3.37128376,
				"y": -0.5360744946,
				"z": 0.6459524336,
				"element": "S" 
			},
			{
				"x": 3.6109096049,
				"y": 1.3508271021,
				"z": 1.6237173617,
				"element": "Cl" 
			},
			{
				"x": 3.7574661274,
				"y": -0.3228692179,
				"z": -0.7428099719,
				"element": "O" 
			},
			{
				"x": 4.0356728528,
				"y": -1.5166541504,
				"z": 1.4963016022,
				"element": "O" 
			},
			{
				"x": -0.2360646652,
				"y": 2.0289215237,
				"z": -4.501908199,
				"element": "H" 
			},
			{
				"x": -1.6236672756,
				"y": 1.3503397173,
				"z": -5.3824433583,
				"element": "H" 
			},
			{
				"x": -1.7987825135,
				"y": 2.8766155958,
				"z": -4.5060599375,
				"element": "H" 
			},
			{
				"x": -3.4958058804,
				"y": -0.5180621483,
				"z": -0.7344060815,
				"element": "H" 
			},
			{
				"x": 1.2387959946,
				"y": 0.2437135155,
				"z": -1.124964954,
				"element": "H" 
			},
			{
				"x": 1.7400910536,
				"y": -1.8164303428,
				"z": 2.6327312529,
				"element": "H" 
			},
			{
				"x": -0.7386916859,
				"y": -2.1430972391,
				"z": 2.7585824804,
				"element": "H" 
			},
			{
				"x": -2.1915504987,
				"y": -1.283169283,
				"z": 0.9751326347,
				"element": "H" 
			}
		],
		 "valence_orbital": [ 
			{
				"type": "occ",
				"energy": -0.30721,
				"method": "rhf"
			},
			{
				"type": "occ",
				"energy": -0.29436,
				"method": "rhf"
			},
			{
				"type": "occ",
				"energy": -0.2889,
				"method": "rhf"
			},
			{
				"type": "occ",
				"energy": -0.28446,
				"method": "rhf"
			},
			{
				"type": "occ",
				"energy": -0.23947,
				"method": "rhf"
			},
			{
				"type": "unocc",
				"energy": -0.08564,
				"method": "rhf"
			},
			{
				"type": "unocc",
				"energy": -0.05944,
				"method": "rhf"
			},
			{
				"type": "unocc",
				"energy": -0.03697,
				"method": "rhf"
			},
			{
				"type": "unocc",
				"energy": -0.02513,
				"method": "rhf"
			},
			{
				"type": "unocc",
				"energy": 0.00218,
				"method": "rhf"
			}
		],
		"cosmo_sigma_profile": { 
			"-0.025": 0.0,
			"-0.024": 0.0,
			"-0.023": 0.0,
			"-0.022": 0.0,
			"-0.021": 0.0,
			"-0.02": 0.0,
			"-0.019": 0.0,
			"-0.018": 0.0,
			"-0.017": 0.0,
			"-0.016": 0.0,
			"-0.015": 0.0,
			"-0.014": 0.0,
			"-0.013": 0.0,
			"-0.012": 0.0,
			"-0.011": 0.475726245828,
			"-0.01": 2.33041960241,
			"-0.009": 2.98626357622,
			"-0.008": 5.3611075326,
			"-0.007": 7.88718292101,
			"-0.006": 13.3882537858,
			"-0.005": 15.1870747582,
			"-0.004": 15.431872044,
			"-0.003": 15.1391758482,
			"-0.002": 19.502564894,
			"-0.001": 19.9473978695,
			"0.0": 25.7385931628,
			"0.001": 37.2443987729,
			"0.002": 27.3244263974,
			"0.003": 21.1076181211,
			"0.004": 13.0042663155,
			"0.005": 5.09285875788,
			"0.006": 5.86258943048,
			"0.007": 7.35284523538,
			"0.008": 10.5995419056,
			"0.009": 6.18369323725,
			"0.01": 1.14484163492,
			"0.011": 0.0133441149623,
			"0.012": 0.0,
			"0.013": 0.0,
			"0.014": 0.0,
			"0.015": 0.0,
			"0.016": 0.0,
			"0.017": 0.0,
			"0.018": 0.0,
			"0.019": 0.0,
			"0.02": 0.0,
			"0.021": 0.0,
			"0.022": 0.0,
			"0.023": 0.0,
			"0.024": 0.0,
			"0.025": 0.0
		}
	}
}
