{
	 "smiles": "NC(=O)C1(CCCCC1)NC1=CC=CC=C1", 
	 "Tm": 422.15, 
	 "num_atms": 34, 
	 "gaussian": { 
		 "optdone": 1, 
		 "sigma_profile": "yes", 
		 "theory": "DFT", 
		 "functional": "B3LYP", 
		 "basiset": "6-31G**", 
		 "properties": { 
			 "R2extent": 4222.0673, 
			 "electric_dipole_moment_norm": 3.01162124113, 
			 "electric_quadrupole_moment_norm": 5.90318510891, 
			 "total_energy": -690.984613077, 
			 "HOMO_LUMO_gap": 0.20393, 
			 "cosmo_polarized_energy": -13.47, 
			 "cosmo_cavitation_energy": 33.92, 
			 "cosmo_dispersion_energy": -24.28, 
			 "cosmo_repulsion_energy": 1.9, 
			 "cosmo_total_nonelectrostatic_energy": 11.54, 
			 "SMD_solvation_energy": 5.3 
		},
		"coords": [
			{
				"x": -1.4571902774,
				"y": 0.2867542738,
				"z": -2.480606177,
				"element": "N" 
			},
			{
				"x": -1.2968417235,
				"y": 0.7234712623,
				"z": -1.2008819308,
				"element": "C" 
			},
			{
				"x": -1.9683822828,
				"y": 1.621092646,
				"z": -0.706346094,
				"element": "O" 
			},
			{
				"x": -0.1169770114,
				"y": 0.0648337486,
				"z": -0.4404727821,
				"element": "C" 
			},
			{
				"x": 1.1650636952,
				"y": 0.8423442907,
				"z": -0.878740451,
				"element": "C" 
			},
			{
				"x": 2.2687215038,
				"y": 0.7686377257,
				"z": 0.1838544943,
				"element": "C" 
			},
			{
				"x": 1.8412844157,
				"y": 1.5027116194,
				"z": 1.4771437268,
				"element": "C" 
			},
			{
				"x": 0.3080769986,
				"y": 1.4793942419,
				"z": 1.6665374454,
				"element": "C" 
			},
			{
				"x": -0.3194038851,
				"y": 0.1983381732,
				"z": 1.1003426438,
				"element": "C" 
			},
			{
				"x": 0.0593318365,
				"y": -1.3309020343,
				"z": -0.8940834598,
				"element": "N" 
			},
			{
				"x": -0.762975651,
				"y": -2.3926563622,
				"z": -0.4725585573,
				"element": "C" 
			},
			{
				"x": -2.1211099847,
				"y": -2.2223797001,
				"z": -0.1487907735,
				"element": "C" 
			},
			{
				"x": -2.9050568597,
				"y": -3.3244480748,
				"z": 0.1932666671,
				"element": "C" 
			},
			{
				"x": -2.3692514386,
				"y": -4.6123995538,
				"z": 0.2169960328,
				"element": "C" 
			},
			{
				"x": -1.0215974011,
				"y": -4.7866898451,
				"z": -0.1059775953,
				"element": "C" 
			},
			{
				"x": -0.2274992898,
				"y": -3.6941330487,
				"z": -0.4422331118,
				"element": "C" 
			},
			{
				"x": -2.2407006601,
				"y": 0.643832016,
				"z": -3.0057985471,
				"element": "H" 
			},
			{
				"x": -1.0091857776,
				"y": -0.5736001007,
				"z": -2.7593506141,
				"element": "H" 
			},
			{
				"x": 1.5002168862,
				"y": 0.445407654,
				"z": -1.843527913,
				"element": "H" 
			},
			{
				"x": 0.902454981,
				"y": 1.8916015028,
				"z": -1.0498021649,
				"element": "H" 
			},
			{
				"x": 2.4904244558,
				"y": -0.2837420477,
				"z": 0.4080005376,
				"element": "H" 
			},
			{
				"x": 3.1982227234,
				"y": 1.1919690749,
				"z": -0.2122618619,
				"element": "H" 
			},
			{
				"x": 2.1893688253,
				"y": 2.5418771105,
				"z": 1.4471723473,
				"element": "H" 
			},
			{
				"x": 2.3366831122,
				"y": 1.0376851713,
				"z": 2.3376112727,
				"element": "H" 
			},
			{
				"x": 0.0599253186,
				"y": 1.5727906359,
				"z": 2.7295891109,
				"element": "H" 
			},
			{
				"x": -0.156247501,
				"y": 2.3350911359,
				"z": 1.1665956823,
				"element": "H" 
			},
			{
				"x": -1.384225387,
				"y": 0.176483959,
				"z": 1.338696049,
				"element": "H" 
			},
			{
				"x": 0.1358466003,
				"y": -0.677488101,
				"z": 1.5780829965,
				"element": "H" 
			},
			{
				"x": 1.0360683539,
				"y": -1.5991241797,
				"z": -0.8984254754,
				"element": "H" 
			},
			{
				"x": -2.5704748706,
				"y": -1.2362194887,
				"z": -0.1604796444,
				"element": "H" 
			},
			{
				"x": -3.9505348653,
				"y": -3.1666388278,
				"z": 0.4439220255,
				"element": "H" 
			},
			{
				"x": -2.987628561,
				"y": -5.4633412351,
				"z": 0.4847093092,
				"element": "H" 
			},
			{
				"x": -0.5801391651,
				"y": -5.7794952523,
				"z": -0.0906766287,
				"element": "H" 
			},
			{
				"x": 0.8218328861,
				"y": -3.8433583897,
				"z": -0.6890065595,
				"element": "H" 
			}
		],
		 "valence_orbital": [ 
			{
				"type": "occ",
				"energy": -0.29274,
				"method": "rhf"
			},
			{
				"type": "occ",
				"energy": -0.26366,
				"method": "rhf"
			},
			{
				"type": "occ",
				"energy": -0.24594,
				"method": "rhf"
			},
			{
				"type": "occ",
				"energy": -0.2433,
				"method": "rhf"
			},
			{
				"type": "occ",
				"energy": -0.20146,
				"method": "rhf"
			},
			{
				"type": "unocc",
				"energy": 0.00247,
				"method": "rhf"
			},
			{
				"type": "unocc",
				"energy": 0.01328,
				"method": "rhf"
			},
			{
				"type": "unocc",
				"energy": 0.02918,
				"method": "rhf"
			},
			{
				"type": "unocc",
				"energy": 0.06912,
				"method": "rhf"
			},
			{
				"type": "unocc",
				"energy": 0.09265,
				"method": "rhf"
			}
		],
		"cosmo_sigma_profile": { 
			"-0.025": 0.0,
			"-0.024": 0.0,
			"-0.023": 0.0,
			"-0.022": 0.0,
			"-0.021": 0.0,
			"-0.02": 0.0,
			"-0.019": 0.0,
			"-0.018": 0.0,
			"-0.017": 0.0,
			"-0.016": 0.0,
			"-0.015": 0.0,
			"-0.014": 0.385838163883,
			"-0.013": 1.20091843826,
			"-0.012": 1.55820865934,
			"-0.011": 2.35600336487,
			"-0.01": 2.89698262655,
			"-0.009": 4.7541881613,
			"-0.008": 3.09331483808,
			"-0.007": 3.23868028407,
			"-0.006": 5.33441944941,
			"-0.005": 9.40492566195,
			"-0.004": 15.3050441912,
			"-0.003": 21.5908637268,
			"-0.002": 31.5336929754,
			"-0.001": 34.9389516262,
			"0.0": 27.4301194047,
			"0.001": 21.4614038856,
			"0.002": 12.5519319254,
			"0.003": 10.5663914189,
			"0.004": 10.5448479776,
			"0.005": 9.01660847462,
			"0.006": 9.93952771301,
			"0.007": 8.6993339863,
			"0.008": 2.14902086956,
			"0.009": 1.91690040691,
			"0.01": 1.02358755562,
			"0.011": 1.93762304611,
			"0.012": 1.33623581261,
			"0.013": 2.51678244985,
			"0.014": 5.03101211283,
			"0.015": 1.0466841441,
			"0.016": 0.0,
			"0.017": 0.0,
			"0.018": 0.0,
			"0.019": 0.0,
			"0.02": 0.0,
			"0.021": 0.0,
			"0.022": 0.0,
			"0.023": 0.0,
			"0.024": 0.0,
			"0.025": 0.0
		}
	}
}
