{
	 "smiles": "CC(=O)C=CC1=CC=CO1", 
	 "Tm": 312.65, 
	 "num_atms": 18, 
	 "gaussian": { 
		 "optdone": 1, 
		 "sigma_profile": "yes", 
		 "theory": "DFT", 
		 "functional": "B3LYP", 
		 "basiset": "6-31G**", 
		 "properties": { 
			 "R2extent": 2330.0142, 
			 "electric_dipole_moment_norm": 3.54749800423, 
			 "electric_quadrupole_moment_norm": 10.8198032861, 
			 "total_energy": -460.083544371, 
			 "HOMO_LUMO_gap": 0.15244, 
			 "cosmo_polarized_energy": -9.34, 
			 "cosmo_cavitation_energy": 23.23, 
			 "cosmo_dispersion_energy": -16.81, 
			 "cosmo_repulsion_energy": 1.37, 
			 "cosmo_total_nonelectrostatic_energy": 7.79, 
			 "SMD_solvation_energy": 5.94 
		},
		"coords": [
			{
				"x": 2.9964988319,
				"y": 0.4085079263,
				"z": -0.5859380031,
				"element": "C" 
			},
			{
				"x": 1.5024707174,
				"y": 0.678078573,
				"z": -0.5343290667,
				"element": "C" 
			},
			{
				"x": 1.0502553526,
				"y": 1.8038179584,
				"z": -0.7047629721,
				"element": "O" 
			},
			{
				"x": 0.6312913409,
				"y": -0.4907387987,
				"z": -0.2682531237,
				"element": "C" 
			},
			{
				"x": -0.7097564826,
				"y": -0.3431141749,
				"z": -0.2055805317,
				"element": "C" 
			},
			{
				"x": -1.6724847382,
				"y": -1.3743556434,
				"z": 0.0418524455,
				"element": "C" 
			},
			{
				"x": -3.0460492814,
				"y": -1.3448259332,
				"z": 0.1274937983,
				"element": "C" 
			},
			{
				"x": -3.473296514,
				"y": -2.678058954,
				"z": 0.39300441,
				"element": "C" 
			},
			{
				"x": -2.335758582,
				"y": -3.4309722358,
				"z": 0.4516933941,
				"element": "C" 
			},
			{
				"x": -1.236680372,
				"y": -2.6627410686,
				"z": 0.2423934421,
				"element": "O" 
			},
			{
				"x": 3.2259799157,
				"y": -0.3256682792,
				"z": -1.3675261704,
				"element": "H" 
			},
			{
				"x": 3.3413605038,
				"y": -0.0188146999,
				"z": 0.3632664274,
				"element": "H" 
			},
			{
				"x": 3.532642725,
				"y": 1.3367580153,
				"z": -0.7863252438,
				"element": "H" 
			},
			{
				"x": 1.0929274961,
				"y": -1.4638703864,
				"z": -0.1255981563,
				"element": "H" 
			},
			{
				"x": -1.1104447371,
				"y": 0.6571699348,
				"z": -0.3571640233,
				"element": "H" 
			},
			{
				"x": -3.6655554454,
				"y": -0.4668430716,
				"z": 0.0122152604,
				"element": "H" 
			},
			{
				"x": -4.485672923,
				"y": -3.0317632655,
				"z": 0.5229106524,
				"element": "H" 
			},
			{
				"x": -2.1511278077,
				"y": -4.4799658966,
				"z": 0.626147461,
				"element": "H" 
			}
		],
		 "valence_orbital": [ 
			{
				"type": "occ",
				"energy": -0.3546,
				"method": "rhf"
			},
			{
				"type": "occ",
				"energy": -0.30617,
				"method": "rhf"
			},
			{
				"type": "occ",
				"energy": -0.28966,
				"method": "rhf"
			},
			{
				"type": "occ",
				"energy": -0.23904,
				"method": "rhf"
			},
			{
				"type": "occ",
				"energy": -0.21986,
				"method": "rhf"
			},
			{
				"type": "unocc",
				"energy": -0.06742,
				"method": "rhf"
			},
			{
				"type": "unocc",
				"energy": 0.01961,
				"method": "rhf"
			},
			{
				"type": "unocc",
				"energy": 0.0565,
				"method": "rhf"
			},
			{
				"type": "unocc",
				"energy": 0.10472,
				"method": "rhf"
			},
			{
				"type": "unocc",
				"energy": 0.10568,
				"method": "rhf"
			}
		],
		"cosmo_sigma_profile": { 
			"-0.025": 0.0,
			"-0.024": 0.0,
			"-0.023": 0.0,
			"-0.022": 0.0,
			"-0.021": 0.0,
			"-0.02": 0.0,
			"-0.019": 0.0,
			"-0.018": 0.0,
			"-0.017": 0.0,
			"-0.016": 0.0,
			"-0.015": 0.0,
			"-0.014": 0.0,
			"-0.013": 0.0,
			"-0.012": 0.0,
			"-0.011": 0.0,
			"-0.01": 0.77233617832,
			"-0.009": 1.94128578786,
			"-0.008": 3.77097334726,
			"-0.007": 7.61491906124,
			"-0.006": 8.79171517884,
			"-0.005": 14.3489904219,
			"-0.004": 14.1911336924,
			"-0.003": 13.5142043873,
			"-0.002": 12.1383756562,
			"-0.001": 14.0728983954,
			"0.0": 11.9782780574,
			"0.001": 14.9013131766,
			"0.002": 17.843007426,
			"0.003": 15.0675797191,
			"0.004": 9.81360970998,
			"0.005": 3.79368144428,
			"0.006": 3.22858943815,
			"0.007": 2.92299658187,
			"0.008": 1.61611691626,
			"0.009": 1.02420195857,
			"0.01": 1.5022680859,
			"0.011": 2.37894356328,
			"0.012": 3.5833776699,
			"0.013": 3.72511649486,
			"0.014": 1.35925363236,
			"0.015": 0.0518428358045,
			"0.016": 0.0,
			"0.017": 0.0,
			"0.018": 0.0,
			"0.019": 0.0,
			"0.02": 0.0,
			"0.021": 0.0,
			"0.022": 0.0,
			"0.023": 0.0,
			"0.024": 0.0,
			"0.025": 0.0
		}
	}
}
