{
	 "smiles": "CC(C)C1=C(O)C(=O)C2=C(C(OC(C)=O)C(O)C3C(C)(C)CCCC23C)C1=O", 
	 "Tm": 489.15, 
	 "num_atms": 58, 
	 "gaussian": { 
		 "optdone": 1, 
		 "sigma_profile": "yes", 
		 "theory": "DFT", 
		 "functional": "B3LYP", 
		 "basiset": "6-31G**", 
		 "properties": { 
			 "R2extent": 10962.469, 
			 "electric_dipole_moment_norm": 2.08265255384, 
			 "electric_quadrupole_moment_norm": 14.355859844, 
			 "total_energy": -1307.75754051, 
			 "HOMO_LUMO_gap": 0.12247, 
			 "cosmo_polarized_energy": -13.29, 
			 "cosmo_cavitation_energy": 52.68, 
			 "cosmo_dispersion_energy": -35.76, 
			 "cosmo_repulsion_energy": 2.67, 
			 "cosmo_total_nonelectrostatic_energy": 19.59, 
			 "SMD_solvation_energy": 10.7 
		},
		"coords": [
			{
				"x": 5.3195017743,
				"y": -0.225925645,
				"z": -1.721365224,
				"element": "C" 
			},
			{
				"x": 4.4016300412,
				"y": 0.9471589187,
				"z": -2.1215416742,
				"element": "C" 
			},
			{
				"x": 4.7652771024,
				"y": 2.2332187023,
				"z": -1.3517108511,
				"element": "C" 
			},
			{
				"x": 2.9317099294,
				"y": 0.595951539,
				"z": -1.9765316638,
				"element": "C" 
			},
			{
				"x": 2.0918537603,
				"y": 0.5392152543,
				"z": -3.0398929691,
				"element": "C" 
			},
			{
				"x": 2.4826500545,
				"y": 0.7584100285,
				"z": -4.3045848686,
				"element": "O" 
			},
			{
				"x": 0.6364248351,
				"y": 0.1904568201,
				"z": -2.9297842472,
				"element": "C" 
			},
			{
				"x": 0.0379778225,
				"y": 0.0384845267,
				"z": -3.9960048196,
				"element": "O" 
			},
			{
				"x": 0.0183702806,
				"y": 0.0047313259,
				"z": -1.5908820581,
				"element": "C" 
			},
			{
				"x": 0.8798193879,
				"y": -0.0558446601,
				"z": -0.5507247723,
				"element": "C" 
			},
			{
				"x": 0.4249381072,
				"y": -0.5552304259,
				"z": 0.787866542,
				"element": "C" 
			},
			{
				"x": 0.5036712868,
				"y": -2.0133666939,
				"z": 0.6742678901,
				"element": "O" 
			},
			{
				"x": 0.7837588527,
				"y": -2.7083379451,
				"z": 1.7983364134,
				"element": "C" 
			},
			{
				"x": 0.9658827584,
				"y": -4.1740545149,
				"z": 1.4952513843,
				"element": "C" 
			},
			{
				"x": 0.8676093603,
				"y": -2.2102102266,
				"z": 2.9050667685,
				"element": "O" 
			},
			{
				"x": -0.9927384994,
				"y": -0.0877281501,
				"z": 1.1822302543,
				"element": "C" 
			},
			{
				"x": -1.5348779845,
				"y": -0.9665706263,
				"z": 2.1496493117,
				"element": "O" 
			},
			{
				"x": -1.9681967505,
				"y": 0.1740499047,
				"z": -0.0180973221,
				"element": "C" 
			},
			{
				"x": -3.5012626078,
				"y": -0.088902674,
				"z": 0.2720690151,
				"element": "C" 
			},
			{
				"x": -3.902042328,
				"y": -1.5062985879,
				"z": 0.7479661952,
				"element": "C" 
			},
			{
				"x": -3.9447937236,
				"y": 0.9154044691,
				"z": 1.3611954854,
				"element": "C" 
			},
			{
				"x": -4.3083776902,
				"y": 0.2012403145,
				"z": -1.0321929298,
				"element": "C" 
			},
			{
				"x": -3.6137775634,
				"y": 1.1964864463,
				"z": -1.9552062078,
				"element": "C" 
			},
			{
				"x": -2.2749952567,
				"y": 0.6426113226,
				"z": -2.4820484581,
				"element": "C" 
			},
			{
				"x": -1.4860934029,
				"y": -0.2618686461,
				"z": -1.4553671514,
				"element": "C" 
			},
			{
				"x": -1.6978033311,
				"y": -1.7620775249,
				"z": -1.7928257486,
				"element": "C" 
			},
			{
				"x": 2.3505446655,
				"y": 0.2693603858,
				"z": -0.6656311735,
				"element": "C" 
			},
			{
				"x": 3.0290647399,
				"y": 0.2588632205,
				"z": 0.3621314461,
				"element": "O" 
			},
			{
				"x": 5.214826535,
				"y": -0.4605354334,
				"z": -0.6597521558,
				"element": "H" 
			},
			{
				"x": 5.0869115295,
				"y": -1.1253112639,
				"z": -2.3009726665,
				"element": "H" 
			},
			{
				"x": 6.3651287119,
				"y": 0.0365207952,
				"z": -1.9150916453,
				"element": "H" 
			},
			{
				"x": 4.5620320878,
				"y": 1.1430994648,
				"z": -3.186730369,
				"element": "H" 
			},
			{
				"x": 5.8100224928,
				"y": 2.4996114089,
				"z": -1.5446802794,
				"element": "H" 
			},
			{
				"x": 4.1409656865,
				"y": 3.0749218376,
				"z": -1.6691826928,
				"element": "H" 
			},
			{
				"x": 4.6390470631,
				"y": 2.0944814861,
				"z": -0.2756437061,
				"element": "H" 
			},
			{
				"x": 1.6855686338,
				"y": 0.5859305103,
				"z": -4.8493181239,
				"element": "H" 
			},
			{
				"x": 1.1375907286,
				"y": -0.2647945134,
				"z": 1.5598861452,
				"element": "H" 
			},
			{
				"x": 1.7089462917,
				"y": -4.3102637082,
				"z": 0.7051711938,
				"element": "H" 
			},
			{
				"x": 0.0206056008,
				"y": -4.5916632735,
				"z": 1.1347891439,
				"element": "H" 
			},
			{
				"x": 1.2747238512,
				"y": -4.6947718902,
				"z": 2.4008839292,
				"element": "H" 
			},
			{
				"x": -0.8297116496,
				"y": 0.8969762005,
				"z": 1.6489054924,
				"element": "H" 
			},
			{
				"x": -0.8405580803,
				"y": -1.1419400959,
				"z": 2.8058843075,
				"element": "H" 
			},
			{
				"x": -1.9194650428,
				"y": 1.2661495354,
				"z": -0.1027572477,
				"element": "H" 
			},
			{
				"x": -3.5891946755,
				"y": -1.6978748411,
				"z": 1.7714733018,
				"element": "H" 
			},
			{
				"x": -3.4860567946,
				"y": -2.2944309619,
				"z": 0.1172204035,
				"element": "H" 
			},
			{
				"x": -4.9948591891,
				"y": -1.5904181143,
				"z": 0.6963633297,
				"element": "H" 
			},
			{
				"x": -3.8173252888,
				"y": 1.9539168038,
				"z": 1.0322276174,
				"element": "H" 
			},
			{
				"x": -3.3764054528,
				"y": 0.771308472,
				"z": 2.2836615805,
				"element": "H" 
			},
			{
				"x": -5.0050746592,
				"y": 0.771545497,
				"z": 1.5972725581,
				"element": "H" 
			},
			{
				"x": -5.3066474919,
				"y": 0.5601643313,
				"z": -0.7534880977,
				"element": "H" 
			},
			{
				"x": -4.4719411107,
				"y": -0.7332828063,
				"z": -1.5830798251,
				"element": "H" 
			},
			{
				"x": -4.2557004816,
				"y": 1.4414041348,
				"z": -2.809251836,
				"element": "H" 
			},
			{
				"x": -3.4546676639,
				"y": 2.1432674303,
				"z": -1.4235076947,
				"element": "H" 
			},
			{
				"x": -2.4480764792,
				"y": 0.0612845776,
				"z": -3.3904524768,
				"element": "H" 
			},
			{
				"x": -1.6530654378,
				"y": 1.4892881204,
				"z": -2.7871081767,
				"element": "H" 
			},
			{
				"x": -1.2405176649,
				"y": -1.9902649235,
				"z": -2.7603890977,
				"element": "H" 
			},
			{
				"x": -2.7587298104,
				"y": -2.0031107013,
				"z": -1.8717393904,
				"element": "H" 
			},
			{
				"x": -1.2452978601,
				"y": -2.4057349374,
				"z": -1.0356320882,
				"element": "H" 
			}
		],
		 "valence_orbital": [ 
			{
				"type": "occ",
				"energy": -0.2834,
				"method": "rhf"
			},
			{
				"type": "occ",
				"energy": -0.27541,
				"method": "rhf"
			},
			{
				"type": "occ",
				"energy": -0.2685,
				"method": "rhf"
			},
			{
				"type": "occ",
				"energy": -0.25926,
				"method": "rhf"
			},
			{
				"type": "occ",
				"energy": -0.24827,
				"method": "rhf"
			},
			{
				"type": "unocc",
				"energy": -0.1258,
				"method": "rhf"
			},
			{
				"type": "unocc",
				"energy": -0.01687,
				"method": "rhf"
			},
			{
				"type": "unocc",
				"energy": -0.00117,
				"method": "rhf"
			},
			{
				"type": "unocc",
				"energy": 0.00523,
				"method": "rhf"
			},
			{
				"type": "unocc",
				"energy": 0.0649,
				"method": "rhf"
			}
		],
		"cosmo_sigma_profile": { 
			"-0.025": 0.0,
			"-0.024": 0.0,
			"-0.023": 0.0,
			"-0.022": 0.0,
			"-0.021": 0.0,
			"-0.02": 0.0,
			"-0.019": 0.0,
			"-0.018": 0.0,
			"-0.017": 0.0,
			"-0.016": 0.0,
			"-0.015": 0.0191172894858,
			"-0.014": 0.167308156514,
			"-0.013": 0.916802602156,
			"-0.012": 0.589030548271,
			"-0.011": 0.371014848397,
			"-0.01": 0.76319213397,
			"-0.009": 0.870377012393,
			"-0.008": 1.81334018823,
			"-0.007": 4.07964511817,
			"-0.006": 13.9862446602,
			"-0.005": 17.1494782949,
			"-0.004": 21.9961027744,
			"-0.003": 35.6590246377,
			"-0.002": 47.3338419755,
			"-0.001": 54.680809971,
			"0.0": 52.0291395914,
			"0.001": 50.1017899827,
			"0.002": 27.2246183689,
			"0.003": 16.653484298,
			"0.004": 9.84712430709,
			"0.005": 11.1379763862,
			"0.006": 8.04653129806,
			"0.007": 7.92816768483,
			"0.008": 8.6358678316,
			"0.009": 7.68084047266,
			"0.01": 4.49450140378,
			"0.011": 4.07718640855,
			"0.012": 1.62342573827,
			"0.013": 0.133430233676,
			"0.014": 0.0,
			"0.015": 0.0,
			"0.016": 0.0,
			"0.017": 0.0,
			"0.018": 0.0,
			"0.019": 0.0,
			"0.02": 0.0,
			"0.021": 0.0,
			"0.022": 0.0,
			"0.023": 0.0,
			"0.024": 0.0,
			"0.025": 0.0
		}
	}
}
