{
	 "smiles": "FC1=CC=C(C=NNP(=O)(N2CC2)N2CC2)C=C1", 
	 "Tm": 371.65, 
	 "num_atms": 32, 
	 "gaussian": { 
		 "optdone": 1, 
		 "sigma_profile": "yes", 
		 "theory": "DFT", 
		 "functional": "B3LYP", 
		 "basiset": "6-31G**", 
		 "properties": { 
			 "R2extent": 7126.5658, 
			 "electric_dipole_moment_norm": 4.25945126278, 
			 "electric_quadrupole_moment_norm": 37.5871406756, 
			 "total_energy": -1162.94825379, 
			 "HOMO_LUMO_gap": 0.16604, 
			 "cosmo_polarized_energy": -20.63, 
			 "cosmo_cavitation_energy": 38.44, 
			 "cosmo_dispersion_energy": -26.16, 
			 "cosmo_repulsion_energy": 1.97, 
			 "cosmo_total_nonelectrostatic_energy": 14.24, 
			 "SMD_solvation_energy": 3.51 
		},
		"coords": [
			{
				"x": -5.3866308306,
				"y": -2.5662622941,
				"z": -0.5823752867,
				"element": "F" 
			},
			{
				"x": -4.1306947878,
				"y": -2.3485050175,
				"z": -0.1440148006,
				"element": "C" 
			},
			{
				"x": -3.7371992285,
				"y": -2.8839173339,
				"z": 1.0763074534,
				"element": "C" 
			},
			{
				"x": -2.4361819593,
				"y": -2.6513199398,
				"z": 1.5177714696,
				"element": "C" 
			},
			{
				"x": -1.5325690474,
				"y": -1.8930348811,
				"z": 0.7541258019,
				"element": "C" 
			},
			{
				"x": -0.1778340567,
				"y": -1.6770682107,
				"z": 1.2635396793,
				"element": "C" 
			},
			{
				"x": 0.702772172,
				"y": -0.9876763427,
				"z": 0.6267281415,
				"element": "N" 
			},
			{
				"x": 1.9376649689,
				"y": -0.8473805895,
				"z": 1.1836529908,
				"element": "N" 
			},
			{
				"x": 3.233151293,
				"y": 0.0669940512,
				"z": 0.5104862701,
				"element": "P" 
			},
			{
				"x": 4.3463047951,
				"y": -0.0420209298,
				"z": 1.4840988611,
				"element": "O" 
			},
			{
				"x": 2.717255021,
				"y": 1.6312576418,
				"z": 0.1777585739,
				"element": "N" 
			},
			{
				"x": 1.8660158455,
				"y": 2.3961997729,
				"z": 1.0854472693,
				"element": "C" 
			},
			{
				"x": 1.3930129099,
				"y": 2.055004564,
				"z": -0.2860794535,
				"element": "C" 
			},
			{
				"x": 3.5742604938,
				"y": -0.4898788987,
				"z": -1.0388976415,
				"element": "N" 
			},
			{
				"x": 3.6514831101,
				"y": -1.9140981428,
				"z": -1.3577868949,
				"element": "C" 
			},
			{
				"x": 2.6242646291,
				"y": -1.0508992665,
				"z": -2.005223788,
				"element": "C" 
			},
			{
				"x": -1.968614907,
				"y": -1.3678907938,
				"z": -0.4774516599,
				"element": "C" 
			},
			{
				"x": -3.2633950006,
				"y": -1.5919329815,
				"z": -0.9298076522,
				"element": "C" 
			},
			{
				"x": -4.4412221441,
				"y": -3.4677114209,
				"z": 1.6590370897,
				"element": "H" 
			},
			{
				"x": -2.1160370251,
				"y": -3.0644631159,
				"z": 2.4707038255,
				"element": "H" 
			},
			{
				"x": 0.0643571399,
				"y": -2.1355653179,
				"z": 2.2318185975,
				"element": "H" 
			},
			{
				"x": 2.1243241134,
				"y": -1.2781516188,
				"z": 2.0895873447,
				"element": "H" 
			},
			{
				"x": 2.2210631446,
				"y": 3.3986059489,
				"z": 1.3101820072,
				"element": "H" 
			},
			{
				"x": 1.4010008042,
				"y": 1.8726353565,
				"z": 1.9191112582,
				"element": "H" 
			},
			{
				"x": 1.4119269595,
				"y": 2.8097501047,
				"z": -1.0688798897,
				"element": "H" 
			},
			{
				"x": 0.6117336576,
				"y": 1.3048010132,
				"z": -0.3716912793,
				"element": "H" 
			},
			{
				"x": 3.3063218784,
				"y": -2.6278428978,
				"z": -0.6116455442,
				"element": "H" 
			},
			{
				"x": 4.5421869678,
				"y": -2.2121670634,
				"z": -1.9046656704,
				"element": "H" 
			},
			{
				"x": 1.5913631283,
				"y": -1.1848900471,
				"z": -1.695463858,
				"element": "H" 
			},
			{
				"x": 2.769948321,
				"y": -0.7093803467,
				"z": -3.0274034076,
				"element": "H" 
			},
			{
				"x": -1.2794944427,
				"y": -0.7822785313,
				"z": -1.0761331289,
				"element": "H" 
			},
			{
				"x": -3.6121379237,
				"y": -1.193312471,
				"z": -1.8764366781,
				"element": "H" 
			}
		],
		 "valence_orbital": [ 
			{
				"type": "occ",
				"energy": -0.27641,
				"method": "rhf"
			},
			{
				"type": "occ",
				"energy": -0.27248,
				"method": "rhf"
			},
			{
				"type": "occ",
				"energy": -0.2671,
				"method": "rhf"
			},
			{
				"type": "occ",
				"energy": -0.257,
				"method": "rhf"
			},
			{
				"type": "occ",
				"energy": -0.21725,
				"method": "rhf"
			},
			{
				"type": "unocc",
				"energy": -0.05121,
				"method": "rhf"
			},
			{
				"type": "unocc",
				"energy": -0.02116,
				"method": "rhf"
			},
			{
				"type": "unocc",
				"energy": 0.04051,
				"method": "rhf"
			},
			{
				"type": "unocc",
				"energy": 0.05811,
				"method": "rhf"
			},
			{
				"type": "unocc",
				"energy": 0.06987,
				"method": "rhf"
			}
		],
		"cosmo_sigma_profile": { 
			"-0.025": 0.0,
			"-0.024": 0.0,
			"-0.023": 0.0,
			"-0.022": 0.0,
			"-0.021": 0.0,
			"-0.02": 0.0,
			"-0.019": 0.0,
			"-0.018": 0.0,
			"-0.017": 0.0,
			"-0.016": 0.0,
			"-0.015": 0.0,
			"-0.014": 0.401966706319,
			"-0.013": 1.13839042356,
			"-0.012": 1.43535513501,
			"-0.011": 1.08692025986,
			"-0.01": 1.71440878468,
			"-0.009": 1.2389165926,
			"-0.008": 2.2372598628,
			"-0.007": 11.7437629682,
			"-0.006": 19.2564560887,
			"-0.005": 22.3052985403,
			"-0.004": 23.9323197252,
			"-0.003": 26.0418038063,
			"-0.002": 25.9179942946,
			"-0.001": 21.2360500056,
			"0.0": 22.4040297598,
			"0.001": 22.5864927134,
			"0.002": 16.39709656,
			"0.003": 21.4502141428,
			"0.004": 20.5181217278,
			"0.005": 4.54367783505,
			"0.006": 1.67035727204,
			"0.007": 3.19576383457,
			"0.008": 3.07496021282,
			"0.009": 2.08522368128,
			"0.01": 3.88464292445,
			"0.011": 3.28729047065,
			"0.012": 3.23111253142,
			"0.013": 2.63130033024,
			"0.014": 4.71894575889,
			"0.015": 6.73999105238,
			"0.016": 2.19533177484,
			"0.017": 0.0,
			"0.018": 0.0,
			"0.019": 0.0,
			"0.02": 0.0,
			"0.021": 0.0,
			"0.022": 0.0,
			"0.023": 0.0,
			"0.024": 0.0,
			"0.025": 0.0
		}
	}
}
