{
	 "smiles": "CC1=CC=C2N=C(C)C(C)=NC2=C1", 
	 "Tm": 366.15, 
	 "num_atms": 25, 
	 "gaussian": { 
		 "optdone": 1, 
		 "sigma_profile": "yes", 
		 "theory": "DFT", 
		 "functional": "B3LYP", 
		 "basiset": "6-31G**", 
		 "properties": { 
			 "R2extent": 2867.9054, 
			 "electric_dipole_moment_norm": 0.15536984907, 
			 "electric_quadrupole_moment_norm": 10.6903558739, 
			 "total_energy": -535.932558042, 
			 "HOMO_LUMO_gap": 0.1765, 
			 "cosmo_polarized_energy": -7.53, 
			 "cosmo_cavitation_energy": 28.19, 
			 "cosmo_dispersion_energy": -20.84, 
			 "cosmo_repulsion_energy": 1.64, 
			 "cosmo_total_nonelectrostatic_energy": 8.99, 
			 "SMD_solvation_energy": 1.93 
		},
		"coords": [
			{
				"x": -0.2577829893,
				"y": 2.4382136077,
				"z": 3.2553738503,
				"element": "C" 
			},
			{
				"x": -0.3077705883,
				"y": 1.2850936964,
				"z": 2.2826468595,
				"element": "C" 
			},
			{
				"x": -1.4265104241,
				"y": 0.4022227419,
				"z": 2.2931387587,
				"element": "C" 
			},
			{
				"x": -1.5139031834,
				"y": -0.661410639,
				"z": 1.4248525522,
				"element": "C" 
			},
			{
				"x": -0.475311599,
				"y": -0.900724667,
				"z": 0.4897542949,
				"element": "C" 
			},
			{
				"x": -0.5616274042,
				"y": -1.9552118245,
				"z": -0.3711322215,
				"element": "N" 
			},
			{
				"x": 0.4306463865,
				"y": -2.1333240748,
				"z": -1.2202609522,
				"element": "C" 
			},
			{
				"x": 0.3336119929,
				"y": -3.2984061648,
				"z": -2.1708482766,
				"element": "C" 
			},
			{
				"x": 1.5704241264,
				"y": -1.2486292086,
				"z": -1.2439124737,
				"element": "C" 
			},
			{
				"x": 2.6974320878,
				"y": -1.4643756856,
				"z": -2.2205523087,
				"element": "C" 
			},
			{
				"x": 1.6680881648,
				"y": -0.2257402322,
				"z": -0.4185321922,
				"element": "N" 
			},
			{
				"x": 0.6485747566,
				"y": -0.0271576647,
				"z": 0.4674450829,
				"element": "C" 
			},
			{
				"x": 0.7089513087,
				"y": 1.0598277946,
				"z": 1.3751429451,
				"element": "C" 
			},
			{
				"x": -0.292680565,
				"y": 2.0839097622,
				"z": 4.2924008144,
				"element": "H" 
			},
			{
				"x": 0.6547189284,
				"y": 3.0268811662,
				"z": 3.1315377512,
				"element": "H" 
			},
			{
				"x": -1.113700422,
				"y": 3.1096815432,
				"z": 3.1185744395,
				"element": "H" 
			},
			{
				"x": -2.2265414658,
				"y": 0.5801169429,
				"z": 3.0077852413,
				"element": "H" 
			},
			{
				"x": -2.3638577581,
				"y": -1.3365713518,
				"z": 1.4290104597,
				"element": "H" 
			},
			{
				"x": 1.172595261,
				"y": -3.992830738,
				"z": -2.0430519391,
				"element": "H" 
			},
			{
				"x": 0.3521126537,
				"y": -2.9674517707,
				"z": -3.21612441,
				"element": "H" 
			},
			{
				"x": -0.5986030143,
				"y": -3.8344720827,
				"z": -1.9874454852,
				"element": "H" 
			},
			{
				"x": 2.3440659565,
				"y": -1.4219656921,
				"z": -3.2577368578,
				"element": "H" 
			},
			{
				"x": 3.16442448,
				"y": -2.4471402965,
				"z": -2.0845092945,
				"element": "H" 
			},
			{
				"x": 3.4529888385,
				"y": -0.6914253264,
				"z": -2.0734303357,
				"element": "H" 
			},
			{
				"x": 1.5808544718,
				"y": 1.7059901643,
				"z": 1.3303736978,
				"element": "H" 
			}
		],
		 "valence_orbital": [ 
			{
				"type": "occ",
				"energy": -0.32215,
				"method": "rhf"
			},
			{
				"type": "occ",
				"energy": -0.29247,
				"method": "rhf"
			},
			{
				"type": "occ",
				"energy": -0.23954,
				"method": "rhf"
			},
			{
				"type": "occ",
				"energy": -0.23625,
				"method": "rhf"
			},
			{
				"type": "occ",
				"energy": -0.23222,
				"method": "rhf"
			},
			{
				"type": "unocc",
				"energy": -0.05572,
				"method": "rhf"
			},
			{
				"type": "unocc",
				"energy": -0.0156,
				"method": "rhf"
			},
			{
				"type": "unocc",
				"energy": 0.01993,
				"method": "rhf"
			},
			{
				"type": "unocc",
				"energy": 0.07835,
				"method": "rhf"
			},
			{
				"type": "unocc",
				"energy": 0.09232,
				"method": "rhf"
			}
		],
		"cosmo_sigma_profile": { 
			"-0.025": 0.0,
			"-0.024": 0.0,
			"-0.023": 0.0,
			"-0.022": 0.0,
			"-0.021": 0.0,
			"-0.02": 0.0,
			"-0.019": 0.0,
			"-0.018": 0.0,
			"-0.017": 0.0,
			"-0.016": 0.0,
			"-0.015": 0.0,
			"-0.014": 0.0,
			"-0.013": 0.0,
			"-0.012": 0.0,
			"-0.011": 0.0,
			"-0.01": 0.0,
			"-0.009": 0.0,
			"-0.008": 0.0,
			"-0.007": 0.0272519816328,
			"-0.006": 5.14987321472,
			"-0.005": 17.7209959138,
			"-0.004": 23.447742545,
			"-0.003": 21.6372268132,
			"-0.002": 23.4586324212,
			"-0.001": 25.7003933766,
			"0.0": 25.6889969721,
			"0.001": 13.7099966543,
			"0.002": 13.0154036419,
			"0.003": 16.8695229595,
			"0.004": 13.3907508352,
			"0.005": 4.64062043813,
			"0.006": 3.17425365158,
			"0.007": 2.68330911435,
			"0.008": 2.64236885935,
			"0.009": 2.64552397868,
			"0.01": 1.1590425311,
			"0.011": 1.95527767679,
			"0.012": 1.21537505316,
			"0.013": 1.58841473765,
			"0.014": 1.52880877952,
			"0.015": 0.701899176489,
			"0.016": 0.0,
			"0.017": 0.0,
			"0.018": 0.0,
			"0.019": 0.0,
			"0.02": 0.0,
			"0.021": 0.0,
			"0.022": 0.0,
			"0.023": 0.0,
			"0.024": 0.0,
			"0.025": 0.0
		}
	}
}
