{
	 "smiles": "COC1=CC=C(C=C1OC)C(N(CC1=CC=C(C)O1)C(=O)CNC(=O)OC(C)(C)C)C(=O)NCC1=CC=CC=C1", 
	 "Tm": 450.15, 
	 "num_atms": 77, 
	 "gaussian": { 
		 "optdone": 1, 
		 "sigma_profile": "yes", 
		 "theory": "DFT", 
		 "functional": "B3LYP", 
		 "basiset": "6-31G**", 
		 "properties": { 
			 "R2extent": 23655.1247, 
			 "electric_dipole_moment_norm": 2.73875391556, 
			 "electric_quadrupole_moment_norm": 21.4937487566, 
			 "total_energy": -1856.333459, 
			 "HOMO_LUMO_gap": 0.20014, 
			 "cosmo_polarized_energy": -24.16, 
			 "cosmo_cavitation_energy": 78.37, 
			 "cosmo_dispersion_energy": -46.23, 
			 "cosmo_repulsion_energy": 3.43, 
			 "cosmo_total_nonelectrostatic_energy": 35.57, 
			 "SMD_solvation_energy": 14.91 
		},
		"coords": [
			{
				"x": -4.6410336468,
				"y": 3.4225092299,
				"z": -2.4608778531,
				"element": "C" 
			},
			{
				"x": -4.1900210439,
				"y": 3.4896448102,
				"z": -1.1066759362,
				"element": "O" 
			},
			{
				"x": -2.9625711462,
				"y": 2.9326203602,
				"z": -0.8466484215,
				"element": "C" 
			},
			{
				"x": -1.9402659723,
				"y": 3.7531109383,
				"z": -0.3845628755,
				"element": "C" 
			},
			{
				"x": -0.682352725,
				"y": 3.2390396768,
				"z": -0.0468832985,
				"element": "C" 
			},
			{
				"x": -0.4425943536,
				"y": 1.8728388559,
				"z": -0.1799252499,
				"element": "C" 
			},
			{
				"x": -1.4789759289,
				"y": 1.0318497013,
				"z": -0.6253413192,
				"element": "C" 
			},
			{
				"x": -2.7304651882,
				"y": 1.5401273988,
				"z": -0.9633828344,
				"element": "C" 
			},
			{
				"x": -3.7799832982,
				"y": 0.7820721241,
				"z": -1.3939657029,
				"element": "O" 
			},
			{
				"x": -3.6008507884,
				"y": -0.6276562182,
				"z": -1.4760257624,
				"element": "C" 
			},
			{
				"x": 0.8674540844,
				"y": 1.1834211843,
				"z": 0.1713627934,
				"element": "C" 
			},
			{
				"x": 1.4678974972,
				"y": 0.493650697,
				"z": -1.0027960577,
				"element": "N" 
			},
			{
				"x": 1.7985528765,
				"y": 1.3267885982,
				"z": -2.1840691277,
				"element": "C" 
			},
			{
				"x": 0.7177736299,
				"y": 1.5412399091,
				"z": -3.1935163321,
				"element": "C" 
			},
			{
				"x": 0.0293445296,
				"y": 2.6394422307,
				"z": -3.6082326625,
				"element": "C" 
			},
			{
				"x": -0.8532203718,
				"y": 2.2062958039,
				"z": -4.6532062782,
				"element": "C" 
			},
			{
				"x": -0.6486974001,
				"y": 0.8692503336,
				"z": -4.8189414816,
				"element": "C" 
			},
			{
				"x": -1.2283382672,
				"y": -0.1819544649,
				"z": -5.6990057495,
				"element": "C" 
			},
			{
				"x": 0.3239977919,
				"y": 0.4547902657,
				"z": -3.9412045165,
				"element": "O" 
			},
			{
				"x": 1.963683544,
				"y": -0.771798928,
				"z": -0.7720759239,
				"element": "C" 
			},
			{
				"x": 2.0028790737,
				"y": -1.2549441877,
				"z": 0.3630689575,
				"element": "O" 
			},
			{
				"x": 2.3427870647,
				"y": -1.6540999013,
				"z": -1.9773954834,
				"element": "C" 
			},
			{
				"x": 1.1735060951,
				"y": -2.0564450441,
				"z": -2.7489719757,
				"element": "N" 
			},
			{
				"x": 0.2219392397,
				"y": -2.9365678765,
				"z": -2.2898196304,
				"element": "C" 
			},
			{
				"x": -0.9228444393,
				"y": -2.9576979055,
				"z": -2.7272106569,
				"element": "O" 
			},
			{
				"x": 0.7381333626,
				"y": -3.7599447298,
				"z": -1.3586587693,
				"element": "O" 
			},
			{
				"x": -0.1032071381,
				"y": -4.6935629466,
				"z": -0.5950586881,
				"element": "C" 
			},
			{
				"x": 0.9004140072,
				"y": -5.3112813177,
				"z": 0.3817669753,
				"element": "C" 
			},
			{
				"x": -0.6924678081,
				"y": -5.7529304622,
				"z": -1.530954522,
				"element": "C" 
			},
			{
				"x": -1.1833716978,
				"y": -3.9134070665,
				"z": 0.1616161931,
				"element": "C" 
			},
			{
				"x": 1.9717466491,
				"y": 2.0373137479,
				"z": 0.8230162943,
				"element": "C" 
			},
			{
				"x": 2.2558421132,
				"y": 3.177286575,
				"z": 0.4535308902,
				"element": "O" 
			},
			{
				"x": 2.6471377286,
				"y": 1.3728387729,
				"z": 1.801459658,
				"element": "N" 
			},
			{
				"x": 3.8230168268,
				"y": 1.9348734542,
				"z": 2.4542177351,
				"element": "C" 
			},
			{
				"x": 3.826824556,
				"y": 1.7047230974,
				"z": 3.9530369476,
				"element": "C" 
			},
			{
				"x": 4.9751650229,
				"y": 1.225216443,
				"z": 4.5921233504,
				"element": "C" 
			},
			{
				"x": 4.9992103165,
				"y": 1.0444608182,
				"z": 5.9768879302,
				"element": "C" 
			},
			{
				"x": 3.8678867708,
				"y": 1.3362212714,
				"z": 6.7388979159,
				"element": "C" 
			},
			{
				"x": 2.714212303,
				"y": 1.8106230778,
				"z": 6.1087970574,
				"element": "C" 
			},
			{
				"x": 2.694604041,
				"y": 1.9943158132,
				"z": 4.7269772465,
				"element": "C" 
			},
			{
				"x": -3.924777991,
				"y": 3.910348803,
				"z": -3.1355579847,
				"element": "H" 
			},
			{
				"x": -5.5881394454,
				"y": 3.9655701569,
				"z": -2.491452221,
				"element": "H" 
			},
			{
				"x": -4.7989379661,
				"y": 2.3897482843,
				"z": -2.7832224116,
				"element": "H" 
			},
			{
				"x": -2.150931271,
				"y": 4.8138504665,
				"z": -0.289356009,
				"element": "H" 
			},
			{
				"x": 0.1056571162,
				"y": 3.8989805112,
				"z": 0.2913645588,
				"element": "H" 
			},
			{
				"x": -1.2884377886,
				"y": -0.0312992546,
				"z": -0.7175292481,
				"element": "H" 
			},
			{
				"x": -4.5488858185,
				"y": -1.0269324391,
				"z": -1.839409823,
				"element": "H" 
			},
			{
				"x": -3.3833027642,
				"y": -1.0581875024,
				"z": -0.4903032475,
				"element": "H" 
			},
			{
				"x": -2.7988747704,
				"y": -0.9064537621,
				"z": -2.1696722758,
				"element": "H" 
			},
			{
				"x": 0.6324672096,
				"y": 0.3715140669,
				"z": 0.8610514841,
				"element": "H" 
			},
			{
				"x": 2.1013779858,
				"y": 2.3077473723,
				"z": -1.8063480641,
				"element": "H" 
			},
			{
				"x": 2.6777486383,
				"y": 0.8921423973,
				"z": -2.6679262627,
				"element": "H" 
			},
			{
				"x": 0.115719576,
				"y": 3.6331182442,
				"z": -3.1939056993,
				"element": "H" 
			},
			{
				"x": -1.5568129362,
				"y": 2.8129452236,
				"z": -5.205288009,
				"element": "H" 
			},
			{
				"x": -0.50495131,
				"y": -0.5298715112,
				"z": -6.4467422065,
				"element": "H" 
			},
			{
				"x": -1.5387521613,
				"y": -1.0530587166,
				"z": -5.1108804638,
				"element": "H" 
			},
			{
				"x": -2.0987382544,
				"y": 0.2123561732,
				"z": -6.2282043595,
				"element": "H" 
			},
			{
				"x": 3.0437254089,
				"y": -1.1590866192,
				"z": -2.655104032,
				"element": "H" 
			},
			{
				"x": 2.8301093919,
				"y": -2.5346948964,
				"z": -1.5632394362,
				"element": "H" 
			},
			{
				"x": 0.7737702142,
				"y": -1.3443231865,
				"z": -3.3489921599,
				"element": "H" 
			},
			{
				"x": 1.6885055579,
				"y": -5.8422210155,
				"z": -0.1603993198,
				"element": "H" 
			},
			{
				"x": 0.3954385158,
				"y": -6.0221381377,
				"z": 1.0426401429,
				"element": "H" 
			},
			{
				"x": 1.3653696572,
				"y": -4.5304415523,
				"z": 0.9899377968,
				"element": "H" 
			},
			{
				"x": 0.1065467343,
				"y": -6.2592358476,
				"z": -2.0816089666,
				"element": "H" 
			},
			{
				"x": -1.3811402136,
				"y": -5.3006234848,
				"z": -2.2451327246,
				"element": "H" 
			},
			{
				"x": -1.2299094316,
				"y": -6.5049900716,
				"z": -0.9438613078,
				"element": "H" 
			},
			{
				"x": -1.8998171755,
				"y": -3.4679152826,
				"z": -0.5299202556,
				"element": "H" 
			},
			{
				"x": -0.7212814079,
				"y": -3.1225556644,
				"z": 0.7608130334,
				"element": "H" 
			},
			{
				"x": -1.7201970078,
				"y": -4.5870810883,
				"z": 0.8370863928,
				"element": "H" 
			},
			{
				"x": 2.4768943066,
				"y": 0.3755909021,
				"z": 1.8806769443,
				"element": "H" 
			},
			{
				"x": 4.7395669347,
				"y": 1.5181927839,
				"z": 2.0153851863,
				"element": "H" 
			},
			{
				"x": 3.8142540464,
				"y": 3.0034842171,
				"z": 2.2179520681,
				"element": "H" 
			},
			{
				"x": 5.8576371277,
				"y": 0.9902511772,
				"z": 4.0015264446,
				"element": "H" 
			},
			{
				"x": 5.8989717169,
				"y": 0.6699317528,
				"z": 6.4568751788,
				"element": "H" 
			},
			{
				"x": 3.8821265513,
				"y": 1.1926058688,
				"z": 7.8154929843,
				"element": "H" 
			},
			{
				"x": 1.8288844265,
				"y": 2.0390845443,
				"z": 6.6956208797,
				"element": "H" 
			},
			{
				"x": 1.794968687,
				"y": 2.3587729471,
				"z": 4.2389805572,
				"element": "H" 
			}
		],
		 "valence_orbital": [ 
			{
				"type": "occ",
				"energy": -0.24473,
				"method": "rhf"
			},
			{
				"type": "occ",
				"energy": -0.23729,
				"method": "rhf"
			},
			{
				"type": "occ",
				"energy": -0.22891,
				"method": "rhf"
			},
			{
				"type": "occ",
				"energy": -0.2204,
				"method": "rhf"
			},
			{
				"type": "occ",
				"energy": -0.20706,
				"method": "rhf"
			},
			{
				"type": "unocc",
				"energy": -0.00692,
				"method": "rhf"
			},
			{
				"type": "unocc",
				"energy": -0.0045,
				"method": "rhf"
			},
			{
				"type": "unocc",
				"energy": -0.00395,
				"method": "rhf"
			},
			{
				"type": "unocc",
				"energy": 0.00014,
				"method": "rhf"
			},
			{
				"type": "unocc",
				"energy": 0.00292,
				"method": "rhf"
			}
		],
		"cosmo_sigma_profile": { 
			"-0.025": 0.0,
			"-0.024": 0.0,
			"-0.023": 0.0,
			"-0.022": 0.0,
			"-0.021": 0.0,
			"-0.02": 0.0,
			"-0.019": 0.0,
			"-0.018": 0.0,
			"-0.017": 0.0,
			"-0.016": 0.0,
			"-0.015": 0.0,
			"-0.014": 0.0,
			"-0.013": 0.0,
			"-0.012": 0.0,
			"-0.011": 0.112874981751,
			"-0.01": 2.61600172946,
			"-0.009": 3.11217133811,
			"-0.008": 3.4868720135,
			"-0.007": 6.25234448182,
			"-0.006": 17.7362398073,
			"-0.005": 40.1357913844,
			"-0.004": 55.8429636479,
			"-0.003": 64.4474047206,
			"-0.002": 63.9920869156,
			"-0.001": 61.7211207128,
			"0.0": 56.1909866647,
			"0.001": 47.4356091709,
			"0.002": 34.7592122232,
			"0.003": 35.1701566215,
			"0.004": 32.4962566881,
			"0.005": 28.1399247927,
			"0.006": 20.0587671675,
			"0.007": 8.4574665707,
			"0.008": 7.46054193816,
			"0.009": 6.78334121875,
			"0.01": 7.24799235807,
			"0.011": 6.3055707294,
			"0.012": 5.1141994591,
			"0.013": 3.58364880601,
			"0.014": 0.216879207021,
			"0.015": 0.0,
			"0.016": 0.0,
			"0.017": 0.0,
			"0.018": 0.0,
			"0.019": 0.0,
			"0.02": 0.0,
			"0.021": 0.0,
			"0.022": 0.0,
			"0.023": 0.0,
			"0.024": 0.0,
			"0.025": 0.0
		}
	}
}
