{
	 "smiles": "CCCSC1=NSC(N)=N1", 
	 "Tm": 328.15, 
	 "num_atms": 19, 
	 "gaussian": { 
		 "optdone": 1, 
		 "sigma_profile": "yes", 
		 "theory": "DFT", 
		 "functional": "B3LYP", 
		 "basiset": "6-31G**", 
		 "properties": { 
			 "R2extent": 2729.9037, 
			 "electric_dipole_moment_norm": 4.92721505721, 
			 "electric_quadrupole_moment_norm": 24.3761117392, 
			 "total_energy": -1156.58475817, 
			 "HOMO_LUMO_gap": 0.19448, 
			 "cosmo_polarized_energy": -14.37, 
			 "cosmo_cavitation_energy": 25.63, 
			 "cosmo_dispersion_energy": -19.62, 
			 "cosmo_repulsion_energy": 1.53, 
			 "cosmo_total_nonelectrostatic_energy": 7.54, 
			 "SMD_solvation_energy": 1.41 
		},
		"coords": [
			{
				"x": -0.8554637024,
				"y": 0.7748772537,
				"z": -1.9311342158,
				"element": "C" 
			},
			{
				"x": -1.5856108144,
				"y": -0.3989695158,
				"z": -1.2746398615,
				"element": "C" 
			},
			{
				"x": -0.8603929955,
				"y": -1.0135583781,
				"z": -0.0714591793,
				"element": "C" 
			},
			{
				"x": -0.7205692993,
				"y": 0.0938019612,
				"z": 1.3968393524,
				"element": "S" 
			},
			{
				"x": 0.8988866763,
				"y": 0.7968311063,
				"z": 1.2051298005,
				"element": "C" 
			},
			{
				"x": 1.1961327321,
				"y": 1.8408536287,
				"z": 1.9424190284,
				"element": "N" 
			},
			{
				"x": 2.8130805554,
				"y": 2.2339508259,
				"z": 1.6180402523,
				"element": "S" 
			},
			{
				"x": 2.9459060309,
				"y": 0.9119455345,
				"z": 0.4657262934,
				"element": "C" 
			},
			{
				"x": 4.0596546259,
				"y": 0.6488996547,
				"z": -0.2721225457,
				"element": "N" 
			},
			{
				"x": 1.8287293853,
				"y": 0.2336026386,
				"z": 0.3631096307,
				"element": "N" 
			},
			{
				"x": -0.7564723012,
				"y": 1.6157073187,
				"z": -1.2378811459,
				"element": "H" 
			},
			{
				"x": 0.1509015513,
				"y": 0.4870248483,
				"z": -2.2523741818,
				"element": "H" 
			},
			{
				"x": -1.4045016843,
				"y": 1.1301438311,
				"z": -2.8091117378,
				"element": "H" 
			},
			{
				"x": -2.5917101853,
				"y": -0.0867338198,
				"z": -0.9692106137,
				"element": "H" 
			},
			{
				"x": -1.7234355841,
				"y": -1.2037983718,
				"z": -2.0105939069,
				"element": "H" 
			},
			{
				"x": -1.4075212656,
				"y": -1.8853070158,
				"z": 0.2994956049,
				"element": "H" 
			},
			{
				"x": 0.152708231,
				"y": -1.3306054384,
				"z": -0.3273573497,
				"element": "H" 
			},
			{
				"x": 4.9527754044,
				"y": 0.9841042527,
				"z": 0.0534617652,
				"element": "H" 
			},
			{
				"x": 4.0669026395,
				"y": -0.2443703146,
				"z": -0.7438369898,
				"element": "H" 
			}
		],
		 "valence_orbital": [ 
			{
				"type": "occ",
				"energy": -0.31051,
				"method": "rhf"
			},
			{
				"type": "occ",
				"energy": -0.29452,
				"method": "rhf"
			},
			{
				"type": "occ",
				"energy": -0.27781,
				"method": "rhf"
			},
			{
				"type": "occ",
				"energy": -0.25562,
				"method": "rhf"
			},
			{
				"type": "occ",
				"energy": -0.21294,
				"method": "rhf"
			},
			{
				"type": "unocc",
				"energy": -0.01846,
				"method": "rhf"
			},
			{
				"type": "unocc",
				"energy": -0.01071,
				"method": "rhf"
			},
			{
				"type": "unocc",
				"energy": 0.03835,
				"method": "rhf"
			},
			{
				"type": "unocc",
				"energy": 0.05488,
				"method": "rhf"
			},
			{
				"type": "unocc",
				"energy": 0.06076,
				"method": "rhf"
			}
		],
		"cosmo_sigma_profile": { 
			"-0.025": 0.0,
			"-0.024": 0.0,
			"-0.023": 0.0,
			"-0.022": 0.0,
			"-0.021": 0.0,
			"-0.02": 0.0,
			"-0.019": 0.0,
			"-0.018": 0.0,
			"-0.017": 0.0,
			"-0.016": 0.989024201182,
			"-0.015": 2.36246655777,
			"-0.014": 3.21611548479,
			"-0.013": 2.82019871917,
			"-0.012": 2.47981546376,
			"-0.011": 2.45889026284,
			"-0.01": 2.14185078478,
			"-0.009": 1.85175987322,
			"-0.008": 1.44710974025,
			"-0.007": 1.31438378804,
			"-0.006": 3.45944054472,
			"-0.005": 4.88360334953,
			"-0.004": 6.2755987874,
			"-0.003": 14.5847146103,
			"-0.002": 18.4794885949,
			"-0.001": 22.0019128213,
			"0.0": 21.4376802598,
			"0.001": 18.3891832877,
			"0.002": 12.5646513064,
			"0.003": 12.0728715115,
			"0.004": 13.4065208661,
			"0.005": 9.54225875845,
			"0.006": 6.9665689447,
			"0.007": 7.19083190647,
			"0.008": 5.21597914338,
			"0.009": 2.68236847441,
			"0.01": 1.05263707618,
			"0.011": 1.269124495,
			"0.012": 1.45506825382,
			"0.013": 0.849581700671,
			"0.014": 1.32753197431,
			"0.015": 0.532655253712,
			"0.016": 0.00472596046956,
			"0.017": 0.0,
			"0.018": 0.0,
			"0.019": 0.0,
			"0.02": 0.0,
			"0.021": 0.0,
			"0.022": 0.0,
			"0.023": 0.0,
			"0.024": 0.0,
			"0.025": 0.0
		}
	}
}
