{
	 "smiles": "N#CC1=NC(=CC=C1)N1C=CN=C1", 
	 "Tm": 371.15, 
	 "num_atms": 19, 
	 "gaussian": { 
		 "optdone": 1, 
		 "sigma_profile": "yes", 
		 "theory": "DFT", 
		 "functional": "B3LYP", 
		 "basiset": "6-31G**", 
		 "properties": { 
			 "R2extent": 2987.0968, 
			 "electric_dipole_moment_norm": 6.70814741713, 
			 "electric_quadrupole_moment_norm": 12.0272630074, 
			 "total_energy": -565.542959357, 
			 "HOMO_LUMO_gap": 0.1618, 
			 "cosmo_polarized_energy": -16.52, 
			 "cosmo_cavitation_energy": 25.29, 
			 "cosmo_dispersion_energy": -18.11, 
			 "cosmo_repulsion_energy": 1.39, 
			 "cosmo_total_nonelectrostatic_energy": 8.58, 
			 "SMD_solvation_energy": 4.05 
		},
		"coords": [
			{
				"x": -2.2571022741,
				"y": -3.86764122,
				"z": -2.9406406246,
				"element": "N" 
			},
			{
				"x": -1.9825835814,
				"y": -3.0551664063,
				"z": -2.1568230949,
				"element": "C" 
			},
			{
				"x": -1.6728656458,
				"y": -2.0619198178,
				"z": -1.1551724076,
				"element": "C" 
			},
			{
				"x": -0.6921901506,
				"y": -1.1979065337,
				"z": -1.4550412194,
				"element": "N" 
			},
			{
				"x": -0.3822016682,
				"y": -0.2689395918,
				"z": -0.5517065911,
				"element": "C" 
			},
			{
				"x": -1.0348348158,
				"y": -0.1596073148,
				"z": 0.6893793617,
				"element": "C" 
			},
			{
				"x": -2.0475895817,
				"y": -1.0648934794,
				"z": 0.9792650306,
				"element": "C" 
			},
			{
				"x": -2.3875120118,
				"y": -2.0453612196,
				"z": 0.0467977277,
				"element": "C" 
			},
			{
				"x": 0.6527718253,
				"y": 0.610972997,
				"z": -0.916987309,
				"element": "N" 
			},
			{
				"x": 1.1866340494,
				"y": 1.6700066583,
				"z": -0.1850161498,
				"element": "C" 
			},
			{
				"x": 2.1622977693,
				"y": 2.2057330887,
				"z": -0.9761544009,
				"element": "C" 
			},
			{
				"x": 2.2586860744,
				"y": 1.5220470384,
				"z": -2.1748662343,
				"element": "N" 
			},
			{
				"x": 1.352316126,
				"y": 0.5815839485,
				"z": -2.1133368079,
				"element": "C" 
			},
			{
				"x": -0.7607301736,
				"y": 0.6062549531,
				"z": 1.4036353273,
				"element": "H" 
			},
			{
				"x": -2.5706703809,
				"y": -1.007148791,
				"z": 1.9285152735,
				"element": "H" 
			},
			{
				"x": -3.1707775955,
				"y": -2.7702635824,
				"z": 0.2333423128,
				"element": "H" 
			},
			{
				"x": 0.8362025499,
				"y": 1.9370038282,
				"z": 0.7978406534,
				"element": "H" 
			},
			{
				"x": 2.8044342822,
				"y": 3.0466843426,
				"z": -0.7540777122,
				"element": "H" 
			},
			{
				"x": 1.1299152028,
				"y": -0.155638898,
				"z": -2.8686531354,
				"element": "H" 
			}
		],
		 "valence_orbital": [ 
			{
				"type": "occ",
				"energy": -0.31112,
				"method": "rhf"
			},
			{
				"type": "occ",
				"energy": -0.3083,
				"method": "rhf"
			},
			{
				"type": "occ",
				"energy": -0.27548,
				"method": "rhf"
			},
			{
				"type": "occ",
				"energy": -0.26598,
				"method": "rhf"
			},
			{
				"type": "occ",
				"energy": -0.24171,
				"method": "rhf"
			},
			{
				"type": "unocc",
				"energy": -0.07991,
				"method": "rhf"
			},
			{
				"type": "unocc",
				"energy": -0.06089,
				"method": "rhf"
			},
			{
				"type": "unocc",
				"energy": 0.01655,
				"method": "rhf"
			},
			{
				"type": "unocc",
				"energy": 0.02175,
				"method": "rhf"
			},
			{
				"type": "unocc",
				"energy": 0.05918,
				"method": "rhf"
			}
		],
		"cosmo_sigma_profile": { 
			"-0.025": 0.0,
			"-0.024": 0.0,
			"-0.023": 0.0,
			"-0.022": 0.0,
			"-0.021": 0.0,
			"-0.02": 0.0,
			"-0.019": 0.0,
			"-0.018": 0.0,
			"-0.017": 0.0,
			"-0.016": 0.0,
			"-0.015": 0.0,
			"-0.014": 0.0,
			"-0.013": 0.0727401838321,
			"-0.012": 0.972989851604,
			"-0.011": 2.04871281526,
			"-0.01": 2.14737911157,
			"-0.009": 6.5967546079,
			"-0.008": 9.24863626293,
			"-0.007": 10.5310098592,
			"-0.006": 7.51827895123,
			"-0.005": 8.0426851643,
			"-0.004": 10.8964427118,
			"-0.003": 13.7402500277,
			"-0.002": 19.319432522,
			"-0.001": 16.7724693941,
			"0.0": 15.9312672699,
			"0.001": 9.24694189393,
			"0.002": 8.49648060132,
			"0.003": 9.98712632639,
			"0.004": 10.5526871963,
			"0.005": 7.26904729973,
			"0.006": 6.24460832641,
			"0.007": 4.94970836802,
			"0.008": 5.05432658974,
			"0.009": 4.55136802601,
			"0.01": 3.96981112381,
			"0.011": 3.67271581585,
			"0.012": 3.39307607665,
			"0.013": 1.25215291046,
			"0.014": 0.616351505028,
			"0.015": 1.45698766878,
			"0.016": 1.03173126182,
			"0.017": 0.734058156304,
			"0.018": 0.159536650168,
			"0.019": 0.0,
			"0.02": 0.0,
			"0.021": 0.0,
			"0.022": 0.0,
			"0.023": 0.0,
			"0.024": 0.0,
			"0.025": 0.0
		}
	}
}
