{
	 "smiles": "CC1=CC=C(C=C1)C1=CSC2=NC(=CC(=O)N12)C(F)(F)F", 
	 "Tm": 459.15, 
	 "num_atms": 30, 
	 "gaussian": { 
		 "optdone": 1, 
		 "sigma_profile": "yes", 
		 "theory": "DFT", 
		 "functional": "B3LYP", 
		 "basiset": "6-31G**", 
		 "properties": { 
			 "R2extent": 9140.0343, 
			 "electric_dipole_moment_norm": 5.05261017792, 
			 "electric_quadrupole_moment_norm": 10.3333964078, 
			 "total_energy": -1421.35172908, 
			 "HOMO_LUMO_gap": 0.16327, 
			 "cosmo_polarized_energy": -12.54, 
			 "cosmo_cavitation_energy": 38.38, 
			 "cosmo_dispersion_energy": -27.17, 
			 "cosmo_repulsion_energy": 1.98, 
			 "cosmo_total_nonelectrostatic_energy": 13.19, 
			 "SMD_solvation_energy": 6.77 
		},
		"coords": [
			{
				"x": 5.0049981672,
				"y": 2.3732940867,
				"z": 1.1819633607,
				"element": "C" 
			},
			{
				"x": 3.6629559556,
				"y": 1.6957323079,
				"z": 1.0408866073,
				"element": "C" 
			},
			{
				"x": 2.6613724856,
				"y": 1.8724619151,
				"z": 2.004712696,
				"element": "C" 
			},
			{
				"x": 1.4107163539,
				"y": 1.2761563741,
				"z": 1.8621156262,
				"element": "C" 
			},
			{
				"x": 1.1285315522,
				"y": 0.4857100232,
				"z": 0.741582351,
				"element": "C" 
			},
			{
				"x": 2.1274491444,
				"y": 0.2898931136,
				"z": -0.2195912274,
				"element": "C" 
			},
			{
				"x": 3.3753089209,
				"y": 0.8900356589,
				"z": -0.0688163973,
				"element": "C" 
			},
			{
				"x": -0.1780153308,
				"y": -0.2142559347,
				"z": 0.6231824999,
				"element": "C" 
			},
			{
				"x": -0.4247133219,
				"y": -1.446450955,
				"z": 1.1210733169,
				"element": "C" 
			},
			{
				"x": -2.0537177273,
				"y": -2.0106162431,
				"z": 0.826825737,
				"element": "S" 
			},
			{
				"x": -2.4196135744,
				"y": -0.512285851,
				"z": -0.0077246494,
				"element": "C" 
			},
			{
				"x": -3.5868423325,
				"y": -0.2601381625,
				"z": -0.5286771237,
				"element": "N" 
			},
			{
				"x": -3.6974016954,
				"y": 0.9504534931,
				"z": -1.138574283,
				"element": "C" 
			},
			{
				"x": -2.6960015773,
				"y": 1.8750975931,
				"z": -1.2307787352,
				"element": "C" 
			},
			{
				"x": -1.3912957236,
				"y": 1.6260509321,
				"z": -0.664528076,
				"element": "C" 
			},
			{
				"x": -0.4275616983,
				"y": 2.3692227916,
				"z": -0.6833388962,
				"element": "O" 
			},
			{
				"x": -1.3181253545,
				"y": 0.3232694254,
				"z": -0.0236224167,
				"element": "N" 
			},
			{
				"x": -5.0672585766,
				"y": 1.2128791965,
				"z": -1.7338662607,
				"element": "C" 
			},
			{
				"x": -5.3737311154,
				"y": 0.2870505548,
				"z": -2.6614731995,
				"element": "F" 
			},
			{
				"x": -6.0201015691,
				"y": 1.1711375227,
				"z": -0.7842191621,
				"element": "F" 
			},
			{
				"x": -5.1285444612,
				"y": 2.4240312366,
				"z": -2.3253888459,
				"element": "F" 
			},
			{
				"x": 5.7998428723,
				"y": 1.7929579074,
				"z": 0.7039918969,
				"element": "H" 
			},
			{
				"x": 4.995640666,
				"y": 3.3634676326,
				"z": 0.7095709536,
				"element": "H" 
			},
			{
				"x": 5.2733823266,
				"y": 2.5173432218,
				"z": 2.2327946498,
				"element": "H" 
			},
			{
				"x": 2.8636369364,
				"y": 2.4835769381,
				"z": 2.880643187,
				"element": "H" 
			},
			{
				"x": 0.6488502184,
				"y": 1.4252183494,
				"z": 2.6214295365,
				"element": "H" 
			},
			{
				"x": 1.9256031268,
				"y": -0.3316903143,
				"z": -1.0868333814,
				"element": "H" 
			},
			{
				"x": 4.1394348143,
				"y": 0.7279411171,
				"z": -0.8247703119,
				"element": "H" 
			},
			{
				"x": 0.2833855057,
				"y": -2.0618689666,
				"z": 1.6558883762,
				"element": "H" 
			},
			{
				"x": -2.8369849877,
				"y": 2.8248250352,
				"z": -1.7276578286,
				"element": "H" 
			}
		],
		 "valence_orbital": [ 
			{
				"type": "occ",
				"energy": -0.28598,
				"method": "rhf"
			},
			{
				"type": "occ",
				"energy": -0.27988,
				"method": "rhf"
			},
			{
				"type": "occ",
				"energy": -0.25841,
				"method": "rhf"
			},
			{
				"type": "occ",
				"energy": -0.24338,
				"method": "rhf"
			},
			{
				"type": "occ",
				"energy": -0.23028,
				"method": "rhf"
			},
			{
				"type": "unocc",
				"energy": -0.06701,
				"method": "rhf"
			},
			{
				"type": "unocc",
				"energy": -0.02448,
				"method": "rhf"
			},
			{
				"type": "unocc",
				"energy": -0.01846,
				"method": "rhf"
			},
			{
				"type": "unocc",
				"energy": -0.00981,
				"method": "rhf"
			},
			{
				"type": "unocc",
				"energy": -0.00364,
				"method": "rhf"
			}
		],
		"cosmo_sigma_profile": { 
			"-0.025": 0.0,
			"-0.024": 0.0,
			"-0.023": 0.0,
			"-0.022": 0.0,
			"-0.021": 0.0,
			"-0.02": 0.0,
			"-0.019": 0.0,
			"-0.018": 0.0,
			"-0.017": 0.0,
			"-0.016": 0.0,
			"-0.015": 0.0,
			"-0.014": 0.0,
			"-0.013": 0.0,
			"-0.012": 0.0,
			"-0.011": 0.959114203663,
			"-0.01": 2.47971771083,
			"-0.009": 2.1650215337,
			"-0.008": 2.61749313159,
			"-0.007": 3.26042699188,
			"-0.006": 10.809811202,
			"-0.005": 19.7170156189,
			"-0.004": 26.8203356641,
			"-0.003": 23.4926399261,
			"-0.002": 25.1613738498,
			"-0.001": 31.5789319273,
			"0.0": 31.8619872851,
			"0.001": 23.1139122232,
			"0.002": 34.7946470668,
			"0.003": 23.7578092097,
			"0.004": 10.2694946733,
			"0.005": 8.98055662994,
			"0.006": 5.34943391008,
			"0.007": 3.44849200027,
			"0.008": 3.57403364401,
			"0.009": 3.18116169913,
			"0.01": 3.11878921578,
			"0.011": 3.24259847545,
			"0.012": 5.21546986762,
			"0.013": 2.1979085394,
			"0.014": 0.0723550892653,
			"0.015": 0.0,
			"0.016": 0.0,
			"0.017": 0.0,
			"0.018": 0.0,
			"0.019": 0.0,
			"0.02": 0.0,
			"0.021": 0.0,
			"0.022": 0.0,
			"0.023": 0.0,
			"0.024": 0.0,
			"0.025": 0.0
		}
	}
}
