{
	 "smiles": "CC(CO)=CCNC1=C2N=CN(C3OC(CO)C(O)C3O)C2=NC=N1", 
	 "Tm": 453.15, 
	 "num_atms": 46, 
	 "gaussian": { 
		 "optdone": 1, 
		 "sigma_profile": "yes", 
		 "theory": "DFT", 
		 "functional": "B3LYP", 
		 "basiset": "6-31G**", 
		 "properties": { 
			 "R2extent": 12868.7321, 
			 "electric_dipole_moment_norm": 3.84305197597, 
			 "electric_quadrupole_moment_norm": 29.1315926602, 
			 "total_energy": -1234.07771002, 
			 "HOMO_LUMO_gap": 0.19183, 
			 "cosmo_polarized_energy": -31.49, 
			 "cosmo_cavitation_energy": 49.31, 
			 "cosmo_dispersion_energy": -34.02, 
			 "cosmo_repulsion_energy": 2.65, 
			 "cosmo_total_nonelectrostatic_energy": 17.94, 
			 "SMD_solvation_energy": 4.73 
		},
		"coords": [
			{
				"x": 0.0560135326,
				"y": -4.7674953577,
				"z": 0.294373491,
				"element": "C" 
			},
			{
				"x": 1.1846876438,
				"y": -4.6775052705,
				"z": -0.70085959,
				"element": "C" 
			},
			{
				"x": 2.4932881295,
				"y": -5.2686528715,
				"z": -0.2322806907,
				"element": "C" 
			},
			{
				"x": 2.2744033826,
				"y": -6.6265804701,
				"z": 0.1494279585,
				"element": "O" 
			},
			{
				"x": 1.1092506427,
				"y": -4.1243048675,
				"z": -1.9202839661,
				"element": "C" 
			},
			{
				"x": -0.0942087374,
				"y": -3.469750992,
				"z": -2.5541597207,
				"element": "C" 
			},
			{
				"x": 0.0706580431,
				"y": -2.0296850496,
				"z": -2.764159076,
				"element": "N" 
			},
			{
				"x": -0.2980171821,
				"y": -1.0870189478,
				"z": -1.8646909126,
				"element": "C" 
			},
			{
				"x": 0.039084042,
				"y": 0.275093478,
				"z": -2.0501259884,
				"element": "C" 
			},
			{
				"x": 0.765864515,
				"y": 0.9276117989,
				"z": -3.0309975269,
				"element": "N" 
			},
			{
				"x": 0.7443736073,
				"y": 2.1810040739,
				"z": -2.6533454237,
				"element": "C" 
			},
			{
				"x": 0.0336234332,
				"y": 2.4084674689,
				"z": -1.4856107985,
				"element": "N" 
			},
			{
				"x": -0.0903970147,
				"y": 3.6775255161,
				"z": -0.7880393004,
				"element": "C" 
			},
			{
				"x": 0.6761861885,
				"y": 3.6896374301,
				"z": 0.4052566972,
				"element": "O" 
			},
			{
				"x": -0.1939413526,
				"y": 3.8513467062,
				"z": 1.5558920385,
				"element": "C" 
			},
			{
				"x": 0.6297444275,
				"y": 4.5016180264,
				"z": 2.6527879062,
				"element": "C" 
			},
			{
				"x": 1.7271656947,
				"y": 3.6946937072,
				"z": 3.0352478106,
				"element": "O" 
			},
			{
				"x": -1.3544825247,
				"y": 4.6723519638,
				"z": 1.0025239105,
				"element": "C" 
			},
			{
				"x": -2.4808960608,
				"y": 4.6013126115,
				"z": 1.8441658088,
				"element": "O" 
			},
			{
				"x": -1.54384935,
				"y": 4.039762036,
				"z": -0.3820956818,
				"element": "C" 
			},
			{
				"x": -2.2436498103,
				"y": 4.8360492267,
				"z": -1.316878754,
				"element": "O" 
			},
			{
				"x": -0.4199776082,
				"y": 1.1640358064,
				"z": -1.0773680377,
				"element": "C" 
			},
			{
				"x": -1.1450401292,
				"y": 0.8549502364,
				"z": 0.0088568226,
				"element": "N" 
			},
			{
				"x": -1.395847267,
				"y": -0.4563225412,
				"z": 0.0705288835,
				"element": "C" 
			},
			{
				"x": -1.0215849124,
				"y": -1.4256327699,
				"z": -0.7794900584,
				"element": "N" 
			},
			{
				"x": -0.2927583382,
				"y": -5.802148736,
				"z": 0.3810508092,
				"element": "H" 
			},
			{
				"x": 0.4117269024,
				"y": -4.4765842445,
				"z": 1.2902922045,
				"element": "H" 
			},
			{
				"x": -0.7827833959,
				"y": -4.118348906,
				"z": 0.0405179668,
				"element": "H" 
			},
			{
				"x": 3.2514347853,
				"y": -5.1921973129,
				"z": -1.0264634387,
				"element": "H" 
			},
			{
				"x": 2.8565231645,
				"y": -4.6816242088,
				"z": 0.6293264526,
				"element": "H" 
			},
			{
				"x": 3.0472996731,
				"y": -6.9233588843,
				"z": 0.6451284905,
				"element": "H" 
			},
			{
				"x": 2.0047809268,
				"y": -4.134825076,
				"z": -2.5430502999,
				"element": "H" 
			},
			{
				"x": -0.2829863669,
				"y": -3.9201462303,
				"z": -3.5363474957,
				"element": "H" 
			},
			{
				"x": -0.9914916461,
				"y": -3.6058592863,
				"z": -1.9524907015,
				"element": "H" 
			},
			{
				"x": 0.6828902027,
				"y": -1.7101598151,
				"z": -3.5017229835,
				"element": "H" 
			},
			{
				"x": 1.2188466786,
				"y": 3.000208199,
				"z": -3.1786929455,
				"element": "H" 
			},
			{
				"x": 0.3111264693,
				"y": 4.4309328826,
				"z": -1.4788665796,
				"element": "H" 
			},
			{
				"x": -0.5597187891,
				"y": 2.8687387666,
				"z": 1.8787340866,
				"element": "H" 
			},
			{
				"x": 0.9565357061,
				"y": 5.4979796034,
				"z": 2.309362778,
				"element": "H" 
			},
			{
				"x": 0.0019534342,
				"y": 4.6379740722,
				"z": 3.5389275712,
				"element": "H" 
			},
			{
				"x": 2.206649819,
				"y": 3.4821055405,
				"z": 2.2224701404,
				"element": "H" 
			},
			{
				"x": -1.0197568249,
				"y": 5.7204240507,
				"z": 0.8684305728,
				"element": "H" 
			},
			{
				"x": -3.2331054209,
				"y": 4.9663811687,
				"z": 1.358561073,
				"element": "H" 
			},
			{
				"x": -2.1291672766,
				"y": 3.1255248474,
				"z": -0.2593368876,
				"element": "H" 
			},
			{
				"x": -1.7881281848,
				"y": 5.6865106481,
				"z": -1.396243269,
				"element": "H" 
			},
			{
				"x": -1.9806228518,
				"y": -0.7876380273,
				"z": 0.9262366539,
				"element": "H" 
			}
		],
		 "valence_orbital": [ 
			{
				"type": "occ",
				"energy": -0.26603,
				"method": "rhf"
			},
			{
				"type": "occ",
				"energy": -0.25808,
				"method": "rhf"
			},
			{
				"type": "occ",
				"energy": -0.25035,
				"method": "rhf"
			},
			{
				"type": "occ",
				"energy": -0.24217,
				"method": "rhf"
			},
			{
				"type": "occ",
				"energy": -0.2125,
				"method": "rhf"
			},
			{
				"type": "unocc",
				"energy": -0.02067,
				"method": "rhf"
			},
			{
				"type": "unocc",
				"energy": 0.00262,
				"method": "rhf"
			},
			{
				"type": "unocc",
				"energy": 0.01657,
				"method": "rhf"
			},
			{
				"type": "unocc",
				"energy": 0.03434,
				"method": "rhf"
			},
			{
				"type": "unocc",
				"energy": 0.0483,
				"method": "rhf"
			}
		],
		"cosmo_sigma_profile": { 
			"-0.025": 0.0,
			"-0.024": 0.0,
			"-0.023": 0.0,
			"-0.022": 0.0,
			"-0.021": 0.0,
			"-0.02": 0.0,
			"-0.019": 0.0,
			"-0.018": 0.0,
			"-0.017": 0.217366573269,
			"-0.016": 2.09348205236,
			"-0.015": 3.02288840419,
			"-0.014": 3.73381316315,
			"-0.013": 3.74396737794,
			"-0.012": 5.51856487128,
			"-0.011": 5.7767735471,
			"-0.01": 6.84268892504,
			"-0.009": 8.08920163502,
			"-0.008": 7.64081747608,
			"-0.007": 7.67876738252,
			"-0.006": 12.0807713757,
			"-0.005": 16.0182406132,
			"-0.004": 23.7036451176,
			"-0.003": 30.1648595077,
			"-0.002": 26.0912845816,
			"-0.001": 25.4055951904,
			"0.0": 27.3307423589,
			"0.001": 24.0740127458,
			"0.002": 21.496746883,
			"0.003": 16.0165802182,
			"0.004": 17.0134731504,
			"0.005": 15.2514149904,
			"0.006": 15.0351289283,
			"0.007": 12.8097007737,
			"0.008": 7.72563137072,
			"0.009": 7.66970399874,
			"0.01": 9.13763519242,
			"0.011": 5.56998356349,
			"0.012": 7.85218357605,
			"0.013": 7.10617639731,
			"0.014": 3.79343462819,
			"0.015": 1.3326107618,
			"0.016": 0.0789972146391,
			"0.017": 0.0,
			"0.018": 0.0,
			"0.019": 0.0,
			"0.02": 0.0,
			"0.021": 0.0,
			"0.022": 0.0,
			"0.023": 0.0,
			"0.024": 0.0,
			"0.025": 0.0
		}
	}
}
