{
	 "smiles": "CC1=CC=CC(=C1)C(N)=NO", 
	 "Tm": 417.15, 
	 "num_atms": 21, 
	 "gaussian": { 
		 "optdone": 1, 
		 "sigma_profile": "yes", 
		 "theory": "DFT", 
		 "functional": "B3LYP", 
		 "basiset": "6-31G**", 
		 "properties": { 
			 "R2extent": 2588.5344, 
			 "electric_dipole_moment_norm": 1.89226845876, 
			 "electric_quadrupole_moment_norm": 6.27778863853, 
			 "total_energy": -495.551840939, 
			 "HOMO_LUMO_gap": 0.18032, 
			 "cosmo_polarized_energy": -12.74, 
			 "cosmo_cavitation_energy": 24.85, 
			 "cosmo_dispersion_energy": -18.28, 
			 "cosmo_repulsion_energy": 1.51, 
			 "cosmo_total_nonelectrostatic_energy": 8.08, 
			 "SMD_solvation_energy": 4.22 
		},
		"coords": [
			{
				"x": 1.4497362396,
				"y": -0.8236658592,
				"z": -2.5636341124,
				"element": "C" 
			},
			{
				"x": 0.1135402268,
				"y": -0.572618986,
				"z": -1.9036558887,
				"element": "C" 
			},
			{
				"x": -0.9012699222,
				"y": 0.1206078577,
				"z": -2.5763970127,
				"element": "C" 
			},
			{
				"x": -2.1294247966,
				"y": 0.36089113,
				"z": -1.960454558,
				"element": "C" 
			},
			{
				"x": -2.3713015202,
				"y": -0.0866426336,
				"z": -0.6628510989,
				"element": "C" 
			},
			{
				"x": -1.3687930392,
				"y": -0.7738315656,
				"z": 0.0336502938,
				"element": "C" 
			},
			{
				"x": -0.1386908803,
				"y": -1.0097790449,
				"z": -0.5991107938,
				"element": "C" 
			},
			{
				"x": -1.5801452196,
				"y": -1.2399129357,
				"z": 1.4347168757,
				"element": "C" 
			},
			{
				"x": -0.5921914694,
				"y": -0.8867226464,
				"z": 2.3516436752,
				"element": "N" 
			},
			{
				"x": -2.5930189891,
				"y": -1.8880848979,
				"z": 1.9021642305,
				"element": "N" 
			},
			{
				"x": -3.5778095672,
				"y": -2.1413815211,
				"z": 0.9113074427,
				"element": "O" 
			},
			{
				"x": 2.0015432127,
				"y": -1.6233894565,
				"z": -2.0611653785,
				"element": "H" 
			},
			{
				"x": 1.3295082434,
				"y": -1.1063405451,
				"z": -3.6143805593,
				"element": "H" 
			},
			{
				"x": 2.0794421214,
				"y": 0.074537709,
				"z": -2.541403499,
				"element": "H" 
			},
			{
				"x": -0.7287511623,
				"y": 0.4688271173,
				"z": -3.5920196313,
				"element": "H" 
			},
			{
				"x": -2.9068727778,
				"y": 0.8966971105,
				"z": -2.4977429906,
				"element": "H" 
			},
			{
				"x": -3.3300455979,
				"y": 0.0824931184,
				"z": -0.1888148094,
				"element": "H" 
			},
			{
				"x": 0.6343123356,
				"y": -1.5704109336,
				"z": -0.0772825921,
				"element": "H" 
			},
			{
				"x": -0.6138198693,
				"y": -1.4248650563,
				"z": 3.2081355159,
				"element": "H" 
			},
			{
				"x": 0.332189423,
				"y": -0.7496061151,
				"z": 1.9720553433,
				"element": "H" 
			},
			{
				"x": -4.2251369913,
				"y": -2.645401846,
				"z": 1.4198395473,
				"element": "H" 
			}
		],
		 "valence_orbital": [ 
			{
				"type": "occ",
				"energy": -0.3123,
				"method": "rhf"
			},
			{
				"type": "occ",
				"energy": -0.26074,
				"method": "rhf"
			},
			{
				"type": "occ",
				"energy": -0.24915,
				"method": "rhf"
			},
			{
				"type": "occ",
				"energy": -0.24073,
				"method": "rhf"
			},
			{
				"type": "occ",
				"energy": -0.19835,
				"method": "rhf"
			},
			{
				"type": "unocc",
				"energy": -0.01803,
				"method": "rhf"
			},
			{
				"type": "unocc",
				"energy": 0.00037,
				"method": "rhf"
			},
			{
				"type": "unocc",
				"energy": 0.05606,
				"method": "rhf"
			},
			{
				"type": "unocc",
				"energy": 0.07878,
				"method": "rhf"
			},
			{
				"type": "unocc",
				"energy": 0.09099,
				"method": "rhf"
			}
		],
		"cosmo_sigma_profile": { 
			"-0.025": 0.0,
			"-0.024": 0.0,
			"-0.023": 0.0,
			"-0.022": 0.0,
			"-0.021": 0.0,
			"-0.02": 0.0,
			"-0.019": 0.0,
			"-0.018": 0.0,
			"-0.017": 0.0943671336557,
			"-0.016": 0.983741213089,
			"-0.015": 0.853289556807,
			"-0.014": 0.627542532962,
			"-0.013": 1.4453027753,
			"-0.012": 2.97556939197,
			"-0.011": 2.129012658,
			"-0.01": 3.57366275656,
			"-0.009": 3.53834258168,
			"-0.008": 2.26271251661,
			"-0.007": 3.72953396565,
			"-0.006": 5.86300662626,
			"-0.005": 10.4318569854,
			"-0.004": 15.8298420152,
			"-0.003": 14.7348188394,
			"-0.002": 13.5241511333,
			"-0.001": 13.8641137631,
			"0.0": 13.761417278,
			"0.001": 12.5430640334,
			"0.002": 7.92196554591,
			"0.003": 9.79922686677,
			"0.004": 10.1730968876,
			"0.005": 11.314724717,
			"0.006": 6.4009496975,
			"0.007": 5.15962194064,
			"0.008": 5.44061445854,
			"0.009": 4.35656604994,
			"0.01": 4.0266976987,
			"0.011": 3.02965684542,
			"0.012": 3.03589535783,
			"0.013": 1.82533447988,
			"0.014": 0.840702351516,
			"0.015": 0.250291221493,
			"0.016": 0.0,
			"0.017": 0.0,
			"0.018": 0.0,
			"0.019": 0.0,
			"0.02": 0.0,
			"0.021": 0.0,
			"0.022": 0.0,
			"0.023": 0.0,
			"0.024": 0.0,
			"0.025": 0.0
		}
	}
}
