{
	 "smiles": "COC1=CC=C(C=C1)C(=O)NCC(O)=O", 
	 "Tm": 439.15, 
	 "num_atms": 26, 
	 "gaussian": { 
		 "optdone": 1, 
		 "sigma_profile": "yes", 
		 "theory": "DFT", 
		 "functional": "B3LYP", 
		 "basiset": "6-31G**", 
		 "properties": { 
			 "R2extent": 7042.5825, 
			 "electric_dipole_moment_norm": 7.47911895012, 
			 "electric_quadrupole_moment_norm": 37.5133996772, 
			 "total_energy": -743.362448814, 
			 "HOMO_LUMO_gap": 0.19029, 
			 "cosmo_polarized_energy": -19.48, 
			 "cosmo_cavitation_energy": 30.52, 
			 "cosmo_dispersion_energy": -22.57, 
			 "cosmo_repulsion_energy": 1.76, 
			 "cosmo_total_nonelectrostatic_energy": 9.71, 
			 "SMD_solvation_energy": 7.15 
		},
		"coords": [
			{
				"x": -0.8886317574,
				"y": -1.1369960024,
				"z": 3.0531556199,
				"element": "C" 
			},
			{
				"x": -0.1934797224,
				"y": 0.0973524531,
				"z": 2.9215041272,
				"element": "O" 
			},
			{
				"x": 0.1751755741,
				"y": 0.5068172121,
				"z": 1.6817813156,
				"element": "C" 
			},
			{
				"x": 0.8683685985,
				"y": 1.7286559702,
				"z": 1.6273269383,
				"element": "C" 
			},
			{
				"x": 1.2855229216,
				"y": 2.237419783,
				"z": 0.4078688615,
				"element": "C" 
			},
			{
				"x": 1.0215613476,
				"y": 1.5458864336,
				"z": -0.7888908305,
				"element": "C" 
			},
			{
				"x": 0.346661125,
				"y": 0.3212421591,
				"z": -0.7198450396,
				"element": "C" 
			},
			{
				"x": -0.0813722132,
				"y": -0.2004244188,
				"z": 0.4977085506,
				"element": "C" 
			},
			{
				"x": 1.4371702194,
				"y": 2.0334804961,
				"z": -2.129892575,
				"element": "C" 
			},
			{
				"x": 1.5183238219,
				"y": 1.2672398404,
				"z": -3.1071975501,
				"element": "O" 
			},
			{
				"x": 1.7277675008,
				"y": 3.3575869797,
				"z": -2.2603747119,
				"element": "N" 
			},
			{
				"x": 2.2715719485,
				"y": 3.9170497799,
				"z": -3.4953634634,
				"element": "C" 
			},
			{
				"x": 1.251976061,
				"y": 4.0613756352,
				"z": -4.6441350969,
				"element": "C" 
			},
			{
				"x": 0.6569667021,
				"y": 2.9249952972,
				"z": -5.0226182445,
				"element": "O" 
			},
			{
				"x": 1.0328660118,
				"y": 5.1252027255,
				"z": -5.1752540748,
				"element": "O" 
			},
			{
				"x": -1.8440486444,
				"y": -1.1194790111,
				"z": 2.5148432365,
				"element": "H" 
			},
			{
				"x": -1.0783625148,
				"y": -1.2601970596,
				"z": 4.1199363108,
				"element": "H" 
			},
			{
				"x": -0.2847472218,
				"y": -1.9786265414,
				"z": 2.6927711564,
				"element": "H" 
			},
			{
				"x": 1.0749156179,
				"y": 2.2477684681,
				"z": 2.557045649,
				"element": "H" 
			},
			{
				"x": 1.8533143685,
				"y": 3.1635553508,
				"z": 0.3976304215,
				"element": "H" 
			},
			{
				"x": 0.1610364647,
				"y": -0.2172007486,
				"z": -1.6428787417,
				"element": "H" 
			},
			{
				"x": -0.6079748749,
				"y": -1.1467866091,
				"z": 0.5160835735,
				"element": "H" 
			},
			{
				"x": 1.4432667867,
				"y": 3.9971737615,
				"z": -1.5347884628,
				"element": "H" 
			},
			{
				"x": 2.6710396503,
				"y": 4.9083261388,
				"z": -3.2834817411,
				"element": "H" 
			},
			{
				"x": 3.0885800722,
				"y": 3.2695187111,
				"z": -3.8340778069,
				"element": "H" 
			},
			{
				"x": 0.9840321564,
				"y": 2.1734631957,
				"z": -4.4642574216,
				"element": "H" 
			}
		],
		 "valence_orbital": [ 
			{
				"type": "occ",
				"energy": -0.29407,
				"method": "rhf"
			},
			{
				"type": "occ",
				"energy": -0.27903,
				"method": "rhf"
			},
			{
				"type": "occ",
				"energy": -0.27394,
				"method": "rhf"
			},
			{
				"type": "occ",
				"energy": -0.25131,
				"method": "rhf"
			},
			{
				"type": "occ",
				"energy": -0.23989,
				"method": "rhf"
			},
			{
				"type": "unocc",
				"energy": -0.0496,
				"method": "rhf"
			},
			{
				"type": "unocc",
				"energy": -0.02412,
				"method": "rhf"
			},
			{
				"type": "unocc",
				"energy": 0.01646,
				"method": "rhf"
			},
			{
				"type": "unocc",
				"energy": 0.04705,
				"method": "rhf"
			},
			{
				"type": "unocc",
				"energy": 0.06221,
				"method": "rhf"
			}
		],
		"cosmo_sigma_profile": { 
			"-0.025": 0.0,
			"-0.024": 0.0,
			"-0.023": 0.0,
			"-0.022": 0.0,
			"-0.021": 0.0,
			"-0.02": 0.0,
			"-0.019": 0.0,
			"-0.018": 0.0,
			"-0.017": 0.0,
			"-0.016": 0.482188588521,
			"-0.015": 1.53327001759,
			"-0.014": 1.13988047742,
			"-0.013": 1.54112699083,
			"-0.012": 1.52269988411,
			"-0.011": 1.29185519658,
			"-0.01": 1.88824756094,
			"-0.009": 2.51559325149,
			"-0.008": 4.4101925583,
			"-0.007": 9.13062127215,
			"-0.006": 17.4309760632,
			"-0.005": 19.2765138883,
			"-0.004": 19.7804305403,
			"-0.003": 17.5093511583,
			"-0.002": 14.230952005,
			"-0.001": 12.0413936809,
			"0.0": 12.3678613308,
			"0.001": 11.4870734696,
			"0.002": 13.1829779922,
			"0.003": 15.8970714184,
			"0.004": 13.3049932836,
			"0.005": 6.13379785418,
			"0.006": 4.08342951807,
			"0.007": 5.44266921115,
			"0.008": 4.33422642421,
			"0.009": 5.71336322635,
			"0.01": 5.9341409364,
			"0.011": 7.35067711031,
			"0.012": 8.21470257836,
			"0.013": 3.64160444897,
			"0.014": 0.363806029475,
			"0.015": 0.0,
			"0.016": 0.0,
			"0.017": 0.0,
			"0.018": 0.0,
			"0.019": 0.0,
			"0.02": 0.0,
			"0.021": 0.0,
			"0.022": 0.0,
			"0.023": 0.0,
			"0.024": 0.0,
			"0.025": 0.0
		}
	}
}
