{
	 "smiles": "CC1=C(C=CC=C1)N1N=C(C=C1N)C1=CC=CC=C1", 
	 "Tm": 383.15, 
	 "num_atms": 34, 
	 "gaussian": { 
		 "optdone": 1, 
		 "sigma_profile": "yes", 
		 "theory": "DFT", 
		 "functional": "B3LYP", 
		 "basiset": "6-31G**", 
		 "properties": { 
			 "R2extent": 6230.7344, 
			 "electric_dipole_moment_norm": 3.4914667362, 
			 "electric_quadrupole_moment_norm": 9.45208944044, 
			 "total_energy": -782.991778812, 
			 "HOMO_LUMO_gap": 0.17611, 
			 "cosmo_polarized_energy": -13.7, 
			 "cosmo_cavitation_energy": 37.53, 
			 "cosmo_dispersion_energy": -26.67, 
			 "cosmo_repulsion_energy": 2.03, 
			 "cosmo_total_nonelectrostatic_energy": 12.89, 
			 "SMD_solvation_energy": 5.86 
		},
		"coords": [
			{
				"x": 1.7709982521,
				"y": -0.3173406052,
				"z": -2.0407427298,
				"element": "C" 
			},
			{
				"x": 1.4639752884,
				"y": 1.1230769679,
				"z": -1.7155112438,
				"element": "C" 
			},
			{
				"x": 0.3542523299,
				"y": 1.4944486078,
				"z": -0.9288291305,
				"element": "C" 
			},
			{
				"x": 0.0767330239,
				"y": 2.8396941338,
				"z": -0.6589795418,
				"element": "C" 
			},
			{
				"x": 0.8964781714,
				"y": 3.8433879523,
				"z": -1.1733066436,
				"element": "C" 
			},
			{
				"x": 2.0061595372,
				"y": 3.4966742004,
				"z": -1.9425276366,
				"element": "C" 
			},
			{
				"x": 2.2789065402,
				"y": 2.1527542863,
				"z": -2.2018766261,
				"element": "C" 
			},
			{
				"x": -0.5154885286,
				"y": 0.4994824624,
				"z": -0.394180454,
				"element": "N" 
			},
			{
				"x": -0.0236526077,
				"y": -0.515384453,
				"z": 0.3843519921,
				"element": "N" 
			},
			{
				"x": -1.0908321632,
				"y": -1.235345737,
				"z": 0.7300909336,
				"element": "C" 
			},
			{
				"x": -2.2848027635,
				"y": -0.6957396146,
				"z": 0.176795695,
				"element": "C" 
			},
			{
				"x": -1.8779395471,
				"y": 0.416235367,
				"z": -0.5357195149,
				"element": "C" 
			},
			{
				"x": -2.6136875547,
				"y": 1.3674959827,
				"z": -1.236013156,
				"element": "N" 
			},
			{
				"x": -0.9417870868,
				"y": -2.4230658287,
				"z": 1.5888209032,
				"element": "C" 
			},
			{
				"x": 0.3108627891,
				"y": -2.7538710789,
				"z": 2.1342300066,
				"element": "C" 
			},
			{
				"x": 0.4579966438,
				"y": -3.8754897923,
				"z": 2.9456667644,
				"element": "C" 
			},
			{
				"x": -0.6409130802,
				"y": -4.6905533218,
				"z": 3.2319329894,
				"element": "C" 
			},
			{
				"x": -1.8894134031,
				"y": -4.3710608245,
				"z": 2.696410641,
				"element": "C" 
			},
			{
				"x": -2.0384341543,
				"y": -3.248473439,
				"z": 1.8824148734,
				"element": "C" 
			},
			{
				"x": 2.0871603539,
				"y": -0.8646387134,
				"z": -1.1491900778,
				"element": "H" 
			},
			{
				"x": 0.8852816307,
				"y": -0.8365767288,
				"z": -2.4215068648,
				"element": "H" 
			},
			{
				"x": 2.5592795042,
				"y": -0.3796921652,
				"z": -2.7957359275,
				"element": "H" 
			},
			{
				"x": -0.7786596289,
				"y": 3.0863967572,
				"z": -0.0386902957,
				"element": "H" 
			},
			{
				"x": 0.6751798557,
				"y": 4.8846695292,
				"z": -0.9595323847,
				"element": "H" 
			},
			{
				"x": 2.6582397432,
				"y": 4.2676496706,
				"z": -2.3425643599,
				"element": "H" 
			},
			{
				"x": 3.1411192412,
				"y": 1.8887770541,
				"z": -2.8086944416,
				"element": "H" 
			},
			{
				"x": -3.2980970336,
				"y": -1.051292069,
				"z": 0.2840084436,
				"element": "H" 
			},
			{
				"x": -2.0997733998,
				"y": 1.820226597,
				"z": -1.9825520106,
				"element": "H" 
			},
			{
				"x": -3.5006194261,
				"y": 1.0097355278,
				"z": -1.5653382076,
				"element": "H" 
			},
			{
				"x": 1.1593943956,
				"y": -2.1153585745,
				"z": 1.9135377487,
				"element": "H" 
			},
			{
				"x": 1.4339793133,
				"y": -4.1144053944,
				"z": 3.3594238317,
				"element": "H" 
			},
			{
				"x": -0.524647979,
				"y": -5.5646750152,
				"z": 3.8663047045,
				"element": "H" 
			},
			{
				"x": -2.7510734461,
				"y": -4.9972688926,
				"z": 2.9109741826,
				"element": "H" 
			},
			{
				"x": -3.0153748114,
				"y": -3.0162728486,
				"z": 1.4692275375,
				"element": "H" 
			}
		],
		 "valence_orbital": [ 
			{
				"type": "occ",
				"energy": -0.25242,
				"method": "rhf"
			},
			{
				"type": "occ",
				"energy": -0.24586,
				"method": "rhf"
			},
			{
				"type": "occ",
				"energy": -0.23935,
				"method": "rhf"
			},
			{
				"type": "occ",
				"energy": -0.21301,
				"method": "rhf"
			},
			{
				"type": "occ",
				"energy": -0.19782,
				"method": "rhf"
			},
			{
				"type": "unocc",
				"energy": -0.02171,
				"method": "rhf"
			},
			{
				"type": "unocc",
				"energy": -0.00582,
				"method": "rhf"
			},
			{
				"type": "unocc",
				"energy": -0.00322,
				"method": "rhf"
			},
			{
				"type": "unocc",
				"energy": 0.01091,
				"method": "rhf"
			},
			{
				"type": "unocc",
				"energy": 0.05618,
				"method": "rhf"
			}
		],
		"cosmo_sigma_profile": { 
			"-0.025": 0.0,
			"-0.024": 0.0,
			"-0.023": 0.0,
			"-0.022": 0.0,
			"-0.021": 0.0,
			"-0.02": 0.0,
			"-0.019": 0.0,
			"-0.018": 0.0,
			"-0.017": 0.0,
			"-0.016": 0.0,
			"-0.015": 0.0,
			"-0.014": 0.162749234399,
			"-0.013": 1.81815262533,
			"-0.012": 2.09966642834,
			"-0.011": 2.07629069658,
			"-0.01": 2.97470687506,
			"-0.009": 2.62505393818,
			"-0.008": 2.45686267254,
			"-0.007": 4.19825053261,
			"-0.006": 12.7177547088,
			"-0.005": 20.3841905425,
			"-0.004": 23.3421322463,
			"-0.003": 24.9678441674,
			"-0.002": 20.1443938988,
			"-0.001": 18.6176401914,
			"0.0": 21.3074395623,
			"0.001": 19.990486794,
			"0.002": 16.9657672156,
			"0.003": 18.4513405571,
			"0.004": 26.9339644928,
			"0.005": 26.2711903728,
			"0.006": 16.2742094715,
			"0.007": 5.01141305151,
			"0.008": 2.62941705092,
			"0.009": 1.7144517595,
			"0.01": 1.95314569666,
			"0.011": 1.00532115326,
			"0.012": 1.6726499969,
			"0.013": 0.862996919993,
			"0.014": 0.0758720898946,
			"0.015": 0.0,
			"0.016": 0.0,
			"0.017": 0.0,
			"0.018": 0.0,
			"0.019": 0.0,
			"0.02": 0.0,
			"0.021": 0.0,
			"0.022": 0.0,
			"0.023": 0.0,
			"0.024": 0.0,
			"0.025": 0.0
		}
	}
}
