{
	 "smiles": "CCOC1=CC(OCC)=CC(OCC)=C1", 
	 "Tm": 316.65, 
	 "num_atms": 33, 
	 "gaussian": { 
		 "optdone": 1, 
		 "sigma_profile": "yes", 
		 "theory": "DFT", 
		 "functional": "B3LYP", 
		 "basiset": "6-31G**", 
		 "properties": { 
			 "R2extent": 4563.369, 
			 "electric_dipole_moment_norm": 2.35425999201, 
			 "electric_quadrupole_moment_norm": 10.6048276785, 
			 "total_energy": -693.78263207, 
			 "HOMO_LUMO_gap": 0.22295, 
			 "cosmo_polarized_energy": -9.66, 
			 "cosmo_cavitation_energy": 35.26, 
			 "cosmo_dispersion_energy": -25.36, 
			 "cosmo_repulsion_energy": 2.06, 
			 "cosmo_total_nonelectrostatic_energy": 11.97, 
			 "SMD_solvation_energy": 7.14 
		},
		"coords": [
			{
				"x": -2.6190529458,
				"y": -0.8824031655,
				"z": 3.0318655609,
				"element": "C" 
			},
			{
				"x": -2.9665547154,
				"y": -1.2951169586,
				"z": 1.6044807286,
				"element": "C" 
			},
			{
				"x": -2.7809514659,
				"y": -0.2364610137,
				"z": 0.6649442137,
				"element": "O" 
			},
			{
				"x": -1.5315776388,
				"y": 0.0497485029,
				"z": 0.1849407695,
				"element": "C" 
			},
			{
				"x": -0.3777053569,
				"y": -0.6751352168,
				"z": 0.5065368845,
				"element": "C" 
			},
			{
				"x": 0.8395584283,
				"y": -0.2826679335,
				"z": -0.0752566966,
				"element": "C" 
			},
			{
				"x": 2.027207558,
				"y": -0.9145194356,
				"z": 0.1639479051,
				"element": "O" 
			},
			{
				"x": 2.0538607295,
				"y": -2.0381094142,
				"z": 1.0390347232,
				"element": "C" 
			},
			{
				"x": 3.4889458126,
				"y": -2.5326136651,
				"z": 1.1032215816,
				"element": "C" 
			},
			{
				"x": 0.9058451808,
				"y": 0.8019533578,
				"z": -0.9482050656,
				"element": "C" 
			},
			{
				"x": -0.2602559358,
				"y": 1.5117190846,
				"z": -1.253996798,
				"element": "C" 
			},
			{
				"x": -0.0927062607,
				"y": 2.5434187799,
				"z": -2.1336574009,
				"element": "O" 
			},
			{
				"x": -1.2038026059,
				"y": 3.3687302331,
				"z": -2.487660842,
				"element": "C" 
			},
			{
				"x": -1.498696409,
				"y": 4.4367350479,
				"z": -1.4388489707,
				"element": "C" 
			},
			{
				"x": -1.4851987374,
				"y": 1.1436899074,
				"z": -0.6885345027,
				"element": "C" 
			},
			{
				"x": -3.2127286298,
				"y": -0.0130859946,
				"z": 3.3288034806,
				"element": "H" 
			},
			{
				"x": -2.8375133292,
				"y": -1.7022817878,
				"z": 3.724692106,
				"element": "H" 
			},
			{
				"x": -1.56190547,
				"y": -0.6219315844,
				"z": 3.1299077376,
				"element": "H" 
			},
			{
				"x": -2.4060224477,
				"y": -2.1861606206,
				"z": 1.2938771617,
				"element": "H" 
			},
			{
				"x": -4.0303546017,
				"y": -1.5399195235,
				"z": 1.5313455785,
				"element": "H" 
			},
			{
				"x": -0.4178326317,
				"y": -1.5118326202,
				"z": 1.1871914652,
				"element": "H" 
			},
			{
				"x": 1.3865429949,
				"y": -2.8263727077,
				"z": 0.6616057571,
				"element": "H" 
			},
			{
				"x": 1.6974586127,
				"y": -1.7473286828,
				"z": 2.0379636237,
				"element": "H" 
			},
			{
				"x": 3.5603147361,
				"y": -3.3991792393,
				"z": 1.7679043249,
				"element": "H" 
			},
			{
				"x": 3.8392877662,
				"y": -2.8262989202,
				"z": 0.1098282202,
				"element": "H" 
			},
			{
				"x": 4.1495330123,
				"y": -1.7479727344,
				"z": 1.482460903,
				"element": "H" 
			},
			{
				"x": 1.8518879294,
				"y": 1.0911237227,
				"z": -1.3887541256,
				"element": "H" 
			},
			{
				"x": -0.904714165,
				"y": 3.836845764,
				"z": -3.4301455634,
				"element": "H" 
			},
			{
				"x": -2.0875539561,
				"y": 2.7522811626,
				"z": -2.6945925329,
				"element": "H" 
			},
			{
				"x": -1.7934514241,
				"y": 3.9926718608,
				"z": -0.4844808239,
				"element": "H" 
			},
			{
				"x": -0.6123124395,
				"y": 5.0547943668,
				"z": -1.2691376483,
				"element": "H" 
			},
			{
				"x": -2.3118962382,
				"y": 5.0857292752,
				"z": -1.781536137,
				"element": "H" 
			},
			{
				"x": -2.409955356,
				"y": 1.6649501527,
				"z": -0.8950456179,
				"element": "H" 
			}
		],
		 "valence_orbital": [ 
			{
				"type": "occ",
				"energy": -0.3157,
				"method": "rhf"
			},
			{
				"type": "occ",
				"energy": -0.31434,
				"method": "rhf"
			},
			{
				"type": "occ",
				"energy": -0.26209,
				"method": "rhf"
			},
			{
				"type": "occ",
				"energy": -0.20764,
				"method": "rhf"
			},
			{
				"type": "occ",
				"energy": -0.1984,
				"method": "rhf"
			},
			{
				"type": "unocc",
				"energy": 0.02455,
				"method": "rhf"
			},
			{
				"type": "unocc",
				"energy": 0.02919,
				"method": "rhf"
			},
			{
				"type": "unocc",
				"energy": 0.08516,
				"method": "rhf"
			},
			{
				"type": "unocc",
				"energy": 0.10065,
				"method": "rhf"
			},
			{
				"type": "unocc",
				"energy": 0.10744,
				"method": "rhf"
			}
		],
		"cosmo_sigma_profile": { 
			"-0.025": 0.0,
			"-0.024": 0.0,
			"-0.023": 0.0,
			"-0.022": 0.0,
			"-0.021": 0.0,
			"-0.02": 0.0,
			"-0.019": 0.0,
			"-0.018": 0.0,
			"-0.017": 0.0,
			"-0.016": 0.0,
			"-0.015": 0.0,
			"-0.014": 0.0,
			"-0.013": 0.0,
			"-0.012": 0.0,
			"-0.011": 0.0,
			"-0.01": 0.0,
			"-0.009": 0.0,
			"-0.008": 0.000517277113072,
			"-0.007": 1.46723210973,
			"-0.006": 5.32223958868,
			"-0.005": 16.5673328725,
			"-0.004": 30.5567754469,
			"-0.003": 39.2898835524,
			"-0.002": 31.5456247799,
			"-0.001": 24.6882537663,
			"0.0": 27.3771889724,
			"0.001": 19.6277811822,
			"0.002": 7.83574217312,
			"0.003": 9.72723275283,
			"0.004": 11.4475492607,
			"0.005": 20.2965018674,
			"0.006": 11.231346115,
			"0.007": 5.14815110138,
			"0.008": 4.32029404008,
			"0.009": 3.94773851114,
			"0.01": 4.09746254005,
			"0.011": 2.1797146609,
			"0.012": 0.0118252202083,
			"0.013": 0.0,
			"0.014": 0.0,
			"0.015": 0.0,
			"0.016": 0.0,
			"0.017": 0.0,
			"0.018": 0.0,
			"0.019": 0.0,
			"0.02": 0.0,
			"0.021": 0.0,
			"0.022": 0.0,
			"0.023": 0.0,
			"0.024": 0.0,
			"0.025": 0.0
		}
	}
}
