{
	 "smiles": "CCN(CC)C1=C(NC(=O)CCl)C=C(C=C1)S(N)(=O)=O", 
	 "Tm": 409.15, 
	 "num_atms": 38, 
	 "gaussian": { 
		 "optdone": 1, 
		 "sigma_profile": "yes", 
		 "theory": "DFT", 
		 "functional": "B3LYP", 
		 "basiset": "6-31G**", 
		 "properties": { 
			 "R2extent": 8003.9342, 
			 "electric_dipole_moment_norm": 7.44531522704, 
			 "electric_quadrupole_moment_norm": 31.3830425987, 
			 "total_energy": -1716.36962516, 
			 "HOMO_LUMO_gap": 0.17997, 
			 "cosmo_polarized_energy": -29.13, 
			 "cosmo_cavitation_energy": 43.72, 
			 "cosmo_dispersion_energy": -29.82, 
			 "cosmo_repulsion_energy": 2.32, 
			 "cosmo_total_nonelectrostatic_energy": 16.22, 
			 "SMD_solvation_energy": 7.4 
		},
		"coords": [
			{
				"x": -1.9032428235,
				"y": 3.103664663,
				"z": 1.7436475167,
				"element": "C" 
			},
			{
				"x": -1.5614852253,
				"y": 3.0767203975,
				"z": 0.2489043719,
				"element": "C" 
			},
			{
				"x": -2.1121877707,
				"y": 1.9283209498,
				"z": -0.5085205921,
				"element": "N" 
			},
			{
				"x": -3.5793915521,
				"y": 1.9241233995,
				"z": -0.6071450185,
				"element": "C" 
			},
			{
				"x": -4.088132449,
				"y": 1.0819153673,
				"z": -1.77649109,
				"element": "C" 
			},
			{
				"x": -1.4686590896,
				"y": 0.6857926385,
				"z": -0.2517349411,
				"element": "C" 
			},
			{
				"x": -0.2027532351,
				"y": 0.4531535951,
				"z": -0.8657682563,
				"element": "C" 
			},
			{
				"x": 0.264874453,
				"y": 1.4521871762,
				"z": -1.7324956737,
				"element": "N" 
			},
			{
				"x": 1.5221233149,
				"y": 1.9068131343,
				"z": -2.094419094,
				"element": "C" 
			},
			{
				"x": 1.6335326066,
				"y": 2.8364753943,
				"z": -2.8703383846,
				"element": "O" 
			},
			{
				"x": 2.7231313084,
				"y": 1.1916176118,
				"z": -1.4688591406,
				"element": "C" 
			},
			{
				"x": 4.1840493869,
				"y": 2.2294428366,
				"z": -1.4561579202,
				"element": "Cl" 
			},
			{
				"x": 0.4460303906,
				"y": -0.769176766,
				"z": -0.6702305788,
				"element": "C" 
			},
			{
				"x": -0.1337847108,
				"y": -1.7411020606,
				"z": 0.1475561402,
				"element": "C" 
			},
			{
				"x": -1.3814183636,
				"y": -1.5443279388,
				"z": 0.7341285592,
				"element": "C" 
			},
			{
				"x": -2.0375644161,
				"y": -0.3320870164,
				"z": 0.5233280782,
				"element": "C" 
			},
			{
				"x": 0.7384572736,
				"y": -3.2927656679,
				"z": 0.4026235513,
				"element": "S" 
			},
			{
				"x": 1.6406796394,
				"y": -3.1255578635,
				"z": 1.8103873092,
				"element": "N" 
			},
			{
				"x": 1.7179606063,
				"y": -3.4210070718,
				"z": -0.675634672,
				"element": "O" 
			},
			{
				"x": -0.2654793985,
				"y": -4.3120156935,
				"z": 0.6994071141,
				"element": "O" 
			},
			{
				"x": -1.4283673325,
				"y": 3.9683668723,
				"z": 2.2185928379,
				"element": "H" 
			},
			{
				"x": -2.9812506763,
				"y": 3.1829079734,
				"z": 1.9151693425,
				"element": "H" 
			},
			{
				"x": -1.5424165541,
				"y": 2.2022878216,
				"z": 2.2491802923,
				"element": "H" 
			},
			{
				"x": -1.928620673,
				"y": 3.9884704278,
				"z": -0.2361114555,
				"element": "H" 
			},
			{
				"x": -0.4751223498,
				"y": 3.0719839289,
				"z": 0.1222677451,
				"element": "H" 
			},
			{
				"x": -3.8751223325,
				"y": 2.9677417182,
				"z": -0.7600703031,
				"element": "H" 
			},
			{
				"x": -4.0683104997,
				"y": 1.6062885069,
				"z": 0.328156233,
				"element": "H" 
			},
			{
				"x": -3.6611276094,
				"y": 1.4361559265,
				"z": -2.7193371279,
				"element": "H" 
			},
			{
				"x": -5.1781866129,
				"y": 1.1533428124,
				"z": -1.8423299751,
				"element": "H" 
			},
			{
				"x": -3.8291039042,
				"y": 0.0257950111,
				"z": -1.6614757525,
				"element": "H" 
			},
			{
				"x": -0.4785010895,
				"y": 2.0502738822,
				"z": -2.0863021539,
				"element": "H" 
			},
			{
				"x": 2.519725078,
				"y": 0.890761889,
				"z": -0.4407459516,
				"element": "H" 
			},
			{
				"x": 2.9677421856,
				"y": 0.3002834854,
				"z": -2.0519666285,
				"element": "H" 
			},
			{
				"x": 1.3576681802,
				"y": -1.0143534552,
				"z": -1.1995563953,
				"element": "H" 
			},
			{
				"x": -1.8382101034,
				"y": -2.3308443934,
				"z": 1.3245778038,
				"element": "H" 
			},
			{
				"x": -3.0107103705,
				"y": -0.1732245812,
				"z": 0.9749483493,
				"element": "H" 
			},
			{
				"x": 2.3809472503,
				"y": -2.4359679863,
				"z": 1.7323471566,
				"element": "H" 
			},
			{
				"x": 1.0690274683,
				"y": -3.0134569253,
				"z": 2.6412687042,
				"element": "H" 
			}
		],
		 "valence_orbital": [ 
			{
				"type": "occ",
				"energy": -0.3028,
				"method": "rhf"
			},
			{
				"type": "occ",
				"energy": -0.28908,
				"method": "rhf"
			},
			{
				"type": "occ",
				"energy": -0.27509,
				"method": "rhf"
			},
			{
				"type": "occ",
				"energy": -0.25635,
				"method": "rhf"
			},
			{
				"type": "occ",
				"energy": -0.23094,
				"method": "rhf"
			},
			{
				"type": "unocc",
				"energy": -0.05097,
				"method": "rhf"
			},
			{
				"type": "unocc",
				"energy": -0.04012,
				"method": "rhf"
			},
			{
				"type": "unocc",
				"energy": 0.00026,
				"method": "rhf"
			},
			{
				"type": "unocc",
				"energy": 0.02834,
				"method": "rhf"
			},
			{
				"type": "unocc",
				"energy": 0.04356,
				"method": "rhf"
			}
		],
		"cosmo_sigma_profile": { 
			"-0.025": 0.0,
			"-0.024": 0.0,
			"-0.023": 0.0,
			"-0.022": 0.0,
			"-0.021": 0.0,
			"-0.02": 0.0,
			"-0.019": 0.0,
			"-0.018": 0.0,
			"-0.017": 0.0,
			"-0.016": 0.0469954571966,
			"-0.015": 2.2239993429,
			"-0.014": 2.65360603573,
			"-0.013": 2.3254349466,
			"-0.012": 3.7360806088,
			"-0.011": 4.81648342226,
			"-0.01": 4.16226598092,
			"-0.009": 5.66468756728,
			"-0.008": 7.11127315334,
			"-0.007": 10.8498411828,
			"-0.006": 11.2786480212,
			"-0.005": 13.4379668804,
			"-0.004": 18.4702591697,
			"-0.003": 28.5002183582,
			"-0.002": 34.4294290733,
			"-0.001": 30.5452806293,
			"0.0": 27.5833285255,
			"0.001": 26.8107326843,
			"0.002": 17.1816257321,
			"0.003": 10.1735344699,
			"0.004": 7.83763454761,
			"0.005": 9.74680091636,
			"0.006": 9.73246882279,
			"0.007": 6.84148832709,
			"0.008": 6.45446720542,
			"0.009": 6.53985851394,
			"0.01": 9.13959239871,
			"0.011": 12.8287084203,
			"0.012": 10.625808634,
			"0.013": 4.24589373557,
			"0.014": 0.83471802045,
			"0.015": 0.0,
			"0.016": 0.0,
			"0.017": 0.0,
			"0.018": 0.0,
			"0.019": 0.0,
			"0.02": 0.0,
			"0.021": 0.0,
			"0.022": 0.0,
			"0.023": 0.0,
			"0.024": 0.0,
			"0.025": 0.0
		}
	}
}
