{
	 "smiles": "CC1=NC(C)=C(C=N1)C(O)=O", 
	 "Tm": 425.15, 
	 "num_atms": 19, 
	 "gaussian": { 
		 "optdone": 1, 
		 "sigma_profile": "yes", 
		 "theory": "DFT", 
		 "functional": "B3LYP", 
		 "basiset": "6-31G**", 
		 "properties": { 
			 "R2extent": 2140.7685, 
			 "electric_dipole_moment_norm": 3.86198990807, 
			 "electric_quadrupole_moment_norm": 14.2224666166, 
			 "total_energy": -531.530147953, 
			 "HOMO_LUMO_gap": 0.19548, 
			 "cosmo_polarized_energy": -14.85, 
			 "cosmo_cavitation_energy": 23.29, 
			 "cosmo_dispersion_energy": -17.33, 
			 "cosmo_repulsion_energy": 1.39, 
			 "cosmo_total_nonelectrostatic_energy": 7.35, 
			 "SMD_solvation_energy": 2.6 
		},
		"coords": [
			{
				"x": -2.6724900761,
				"y": -0.1779527011,
				"z": -1.8144472794,
				"element": "C" 
			},
			{
				"x": -1.2612117058,
				"y": -0.2409840503,
				"z": -1.302773122,
				"element": "C" 
			},
			{
				"x": -0.7160270021,
				"y": -1.4511591114,
				"z": -1.1270095711,
				"element": "N" 
			},
			{
				"x": 0.5365997718,
				"y": -1.5260013411,
				"z": -0.647324994,
				"element": "C" 
			},
			{
				"x": 1.0827554068,
				"y": -2.928655941,
				"z": -0.5115757419,
				"element": "C" 
			},
			{
				"x": 1.2526057614,
				"y": -0.3547856885,
				"z": -0.3356486517,
				"element": "C" 
			},
			{
				"x": 0.5970397031,
				"y": 0.8574585433,
				"z": -0.6043608254,
				"element": "C" 
			},
			{
				"x": -0.6440267892,
				"y": 0.9336706696,
				"z": -1.0716347721,
				"element": "N" 
			},
			{
				"x": 2.6534856982,
				"y": -0.2511676724,
				"z": 0.1883197077,
				"element": "C" 
			},
			{
				"x": 3.129316064,
				"y": -1.2781130596,
				"z": 0.9400810647,
				"element": "O" 
			},
			{
				"x": 3.3520036026,
				"y": 0.7122662467,
				"z": -0.0207934217,
				"element": "O" 
			},
			{
				"x": -3.3026778958,
				"y": 0.3745260446,
				"z": -1.110030817,
				"element": "H" 
			},
			{
				"x": -2.7030135918,
				"y": 0.3695330147,
				"z": -2.7621992218,
				"element": "H" 
			},
			{
				"x": -3.073030337,
				"y": -1.1815250695,
				"z": -1.9582047936,
				"element": "H" 
			},
			{
				"x": 2.1449982754,
				"y": -2.9937375767,
				"z": -0.7592364596,
				"element": "H" 
			},
			{
				"x": 0.5147355845,
				"y": -3.5869991432,
				"z": -1.1703733174,
				"element": "H" 
			},
			{
				"x": 0.9400466556,
				"y": -3.3123423275,
				"z": 0.5091455964,
				"element": "H" 
			},
			{
				"x": 1.124864585,
				"y": 1.7909167203,
				"z": -0.4226782425,
				"element": "H" 
			},
			{
				"x": 2.4312262894,
				"y": -1.9185475569,
				"z": 1.1311448621,
				"element": "H" 
			}
		],
		 "valence_orbital": [ 
			{
				"type": "occ",
				"energy": -0.32433,
				"method": "rhf"
			},
			{
				"type": "occ",
				"energy": -0.32174,
				"method": "rhf"
			},
			{
				"type": "occ",
				"energy": -0.28999,
				"method": "rhf"
			},
			{
				"type": "occ",
				"energy": -0.27675,
				"method": "rhf"
			},
			{
				"type": "occ",
				"energy": -0.26043,
				"method": "rhf"
			},
			{
				"type": "unocc",
				"energy": -0.06495,
				"method": "rhf"
			},
			{
				"type": "unocc",
				"energy": -0.05069,
				"method": "rhf"
			},
			{
				"type": "unocc",
				"energy": 0.0248,
				"method": "rhf"
			},
			{
				"type": "unocc",
				"energy": 0.05351,
				"method": "rhf"
			},
			{
				"type": "unocc",
				"energy": 0.11229,
				"method": "rhf"
			}
		],
		"cosmo_sigma_profile": { 
			"-0.025": 0.0,
			"-0.024": 0.0,
			"-0.023": 0.0,
			"-0.022": 0.0,
			"-0.021": 0.0,
			"-0.02": 0.0,
			"-0.019": 0.0,
			"-0.018": 0.874411799807,
			"-0.017": 0.957518562968,
			"-0.016": 1.08263159803,
			"-0.015": 0.856001724375,
			"-0.014": 1.1236820186,
			"-0.013": 0.891443709162,
			"-0.012": 1.0063638864,
			"-0.011": 1.11227128004,
			"-0.01": 0.68130432801,
			"-0.009": 0.973265235679,
			"-0.008": 2.5110295096,
			"-0.007": 5.64442623929,
			"-0.006": 7.27062334572,
			"-0.005": 13.6519341687,
			"-0.004": 13.2520296143,
			"-0.003": 18.9148146642,
			"-0.002": 21.1141971827,
			"-0.001": 17.2971398954,
			"0.0": 8.60988487028,
			"0.001": 5.19695027112,
			"0.002": 6.70951911587,
			"0.003": 5.15114800295,
			"0.004": 5.45765758983,
			"0.005": 4.81390466474,
			"0.006": 4.62605452943,
			"0.007": 4.23859639865,
			"0.008": 4.52341909159,
			"0.009": 5.58979146049,
			"0.01": 7.44152258442,
			"0.011": 5.94644750389,
			"0.012": 4.65878098238,
			"0.013": 2.06859946057,
			"0.014": 0.932714435208,
			"0.015": 0.452128383785,
			"0.016": 0.0479210988609,
			"0.017": 0.0,
			"0.018": 0.0,
			"0.019": 0.0,
			"0.02": 0.0,
			"0.021": 0.0,
			"0.022": 0.0,
			"0.023": 0.0,
			"0.024": 0.0,
			"0.025": 0.0
		}
	}
}
