{
	 "smiles": "NC(=O)C=C1CCCC1", 
	 "Tm": 415.15, 
	 "num_atms": 20, 
	 "gaussian": { 
		 "optdone": 1, 
		 "sigma_profile": "yes", 
		 "theory": "DFT", 
		 "functional": "B3LYP", 
		 "basiset": "6-31G**", 
		 "properties": { 
			 "R2extent": 1646.8735, 
			 "electric_dipole_moment_norm": 4.46333946278, 
			 "electric_quadrupole_moment_norm": 11.8055928695, 
			 "total_energy": -403.354643934, 
			 "HOMO_LUMO_gap": 0.21082, 
			 "cosmo_polarized_energy": -12.75, 
			 "cosmo_cavitation_energy": 22.34, 
			 "cosmo_dispersion_energy": -16.77, 
			 "cosmo_repulsion_energy": 1.41, 
			 "cosmo_total_nonelectrostatic_energy": 6.97, 
			 "SMD_solvation_energy": 4.16 
		},
		"coords": [
			{
				"x": -0.1402875248,
				"y": 0.6310757182,
				"z": -3.1118841554,
				"element": "N" 
			},
			{
				"x": 0.5343888033,
				"y": -0.3918345847,
				"z": -2.4723372815,
				"element": "C" 
			},
			{
				"x": 0.9739965333,
				"y": -1.3499035094,
				"z": -3.0989947261,
				"element": "O" 
			},
			{
				"x": 0.6836492038,
				"y": -0.3172733058,
				"z": -0.9941645439,
				"element": "C" 
			},
			{
				"x": -0.0114340523,
				"y": 0.4017949224,
				"z": -0.097312934,
				"element": "C" 
			},
			{
				"x": 0.2100288135,
				"y": 0.2861296618,
				"z": 1.4079120079,
				"element": "C" 
			},
			{
				"x": -0.593544448,
				"y": 1.4487903164,
				"z": 2.0214957833,
				"element": "C" 
			},
			{
				"x": -1.7771436795,
				"y": 1.6095599739,
				"z": 1.0518290989,
				"element": "C" 
			},
			{
				"x": -1.1374389853,
				"y": 1.3995260112,
				"z": -0.3362825538,
				"element": "C" 
			},
			{
				"x": -0.1749798659,
				"y": 1.5474252306,
				"z": -2.6931529,
				"element": "H" 
			},
			{
				"x": -0.0768941269,
				"y": 0.6012979143,
				"z": -4.1202104877,
				"element": "H" 
			},
			{
				"x": 1.4326129963,
				"y": -1.0194058782,
				"z": -0.6358252306,
				"element": "H" 
			},
			{
				"x": 1.2716399159,
				"y": 0.2939165754,
				"z": 1.6742886884,
				"element": "H" 
			},
			{
				"x": -0.1962483851,
				"y": -0.6735087156,
				"z": 1.7563749523,
				"element": "H" 
			},
			{
				"x": -0.9027455045,
				"y": 1.2572041128,
				"z": 3.053013024,
				"element": "H" 
			},
			{
				"x": 0.011462585,
				"y": 2.3642051386,
				"z": 2.0246431109,
				"element": "H" 
			},
			{
				"x": -2.2872803859,
				"y": 2.5728857489,
				"z": 1.1429870779,
				"element": "H" 
			},
			{
				"x": -2.5206197948,
				"y": 0.8249789265,
				"z": 1.2386117323,
				"element": "H" 
			},
			{
				"x": -0.7150087595,
				"y": 2.355855175,
				"z": -0.6833380505,
				"element": "H" 
			},
			{
				"x": -1.8417533385,
				"y": 1.0655805678,
				"z": -1.1031526123,
				"element": "H" 
			}
		],
		 "valence_orbital": [ 
			{
				"type": "occ",
				"energy": -0.33616,
				"method": "rhf"
			},
			{
				"type": "occ",
				"energy": -0.33451,
				"method": "rhf"
			},
			{
				"type": "occ",
				"energy": -0.26292,
				"method": "rhf"
			},
			{
				"type": "occ",
				"energy": -0.25054,
				"method": "rhf"
			},
			{
				"type": "occ",
				"energy": -0.23724,
				"method": "rhf"
			},
			{
				"type": "unocc",
				"energy": -0.02642,
				"method": "rhf"
			},
			{
				"type": "unocc",
				"energy": 0.06317,
				"method": "rhf"
			},
			{
				"type": "unocc",
				"energy": 0.08272,
				"method": "rhf"
			},
			{
				"type": "unocc",
				"energy": 0.09981,
				"method": "rhf"
			},
			{
				"type": "unocc",
				"energy": 0.11876,
				"method": "rhf"
			}
		],
		"cosmo_sigma_profile": { 
			"-0.025": 0.0,
			"-0.024": 0.0,
			"-0.023": 0.0,
			"-0.022": 0.0,
			"-0.021": 0.0,
			"-0.02": 0.0,
			"-0.019": 0.0,
			"-0.018": 0.0,
			"-0.017": 0.0,
			"-0.016": 0.0,
			"-0.015": 0.0,
			"-0.014": 0.0217468968716,
			"-0.013": 1.10945153983,
			"-0.012": 2.53327796438,
			"-0.011": 2.15461026435,
			"-0.01": 2.57099793055,
			"-0.009": 2.44320803293,
			"-0.008": 2.24097527527,
			"-0.007": 2.15955362488,
			"-0.006": 2.42789176811,
			"-0.005": 3.87910978728,
			"-0.004": 9.78516744025,
			"-0.003": 22.11784794,
			"-0.002": 24.6849424637,
			"-0.001": 21.8904369484,
			"0.0": 17.4060874107,
			"0.001": 12.685991661,
			"0.002": 6.12235832783,
			"0.003": 4.99302412638,
			"0.004": 4.42400929549,
			"0.005": 3.511334134,
			"0.006": 2.36086295219,
			"0.007": 2.39462084209,
			"0.008": 1.42586072436,
			"0.009": 2.69957361012,
			"0.01": 1.03885458811,
			"0.011": 0.844876930902,
			"0.012": 2.17637302613,
			"0.013": 2.19556529281,
			"0.014": 5.89850148375,
			"0.015": 3.69402791082,
			"0.016": 0.348303991515,
			"0.017": 0.0,
			"0.018": 0.0,
			"0.019": 0.0,
			"0.02": 0.0,
			"0.021": 0.0,
			"0.022": 0.0,
			"0.023": 0.0,
			"0.024": 0.0,
			"0.025": 0.0
		}
	}
}
