{
	 "smiles": "CCOC(OCC)C1=NN=CN1", 
	 "Tm": 333.15, 
	 "num_atms": 25, 
	 "gaussian": { 
		 "optdone": 1, 
		 "sigma_profile": "yes", 
		 "theory": "DFT", 
		 "functional": "B3LYP", 
		 "basiset": "6-31G**", 
		 "properties": { 
			 "R2extent": 2573.8383, 
			 "electric_dipole_moment_norm": 5.24160524458, 
			 "electric_quadrupole_moment_norm": 20.5749919793, 
			 "total_energy": -589.240814193, 
			 "HOMO_LUMO_gap": 0.26023, 
			 "cosmo_polarized_energy": -21.44, 
			 "cosmo_cavitation_energy": 28.51, 
			 "cosmo_dispersion_energy": -20.04, 
			 "cosmo_repulsion_energy": 1.64, 
			 "cosmo_total_nonelectrostatic_energy": 10.12, 
			 "SMD_solvation_energy": 3.7 
		},
		"coords": [
			{
				"x": -2.5314253425,
				"y": 0.5794881677,
				"z": -2.4755992125,
				"element": "C" 
			},
			{
				"x": -2.6505152775,
				"y": 0.124272169,
				"z": -1.0261383235,
				"element": "C" 
			},
			{
				"x": -1.568651173,
				"y": -0.7432257772,
				"z": -0.6519690057,
				"element": "O" 
			},
			{
				"x": -0.4432522378,
				"y": -0.0881843889,
				"z": -0.1666240245,
				"element": "C" 
			},
			{
				"x": -0.5593194922,
				"y": 0.3319105371,
				"z": 1.1885335115,
				"element": "O" 
			},
			{
				"x": -1.0223247888,
				"y": -0.6766238031,
				"z": 2.1021941274,
				"element": "C" 
			},
			{
				"x": -1.0129143635,
				"y": -0.0717923321,
				"z": 3.4956481006,
				"element": "C" 
			},
			{
				"x": 0.7541954459,
				"y": -0.9926918408,
				"z": -0.3377311512,
				"element": "C" 
			},
			{
				"x": 0.9671545202,
				"y": -1.912714239,
				"z": -1.2479885196,
				"element": "N" 
			},
			{
				"x": 2.2495836508,
				"y": -2.3987467165,
				"z": -1.052455414,
				"element": "N" 
			},
			{
				"x": 2.7637078504,
				"y": -1.7479311514,
				"z": -0.0372351298,
				"element": "C" 
			},
			{
				"x": 1.8648506195,
				"y": -0.8415370511,
				"z": 0.4506556346,
				"element": "N" 
			},
			{
				"x": -1.6341133935,
				"y": 1.1859635647,
				"z": -2.6361569999,
				"element": "H" 
			},
			{
				"x": -3.3996009135,
				"y": 1.1862395979,
				"z": -2.7550249063,
				"element": "H" 
			},
			{
				"x": -2.4791280219,
				"y": -0.2858863826,
				"z": -3.1415348246,
				"element": "H" 
			},
			{
				"x": -3.5586551362,
				"y": -0.4690421582,
				"z": -0.884025031,
				"element": "H" 
			},
			{
				"x": -2.7001090561,
				"y": 0.9777214476,
				"z": -0.3375065681,
				"element": "H" 
			},
			{
				"x": -0.2652708143,
				"y": 0.8544131143,
				"z": -0.7060810124,
				"element": "H" 
			},
			{
				"x": -2.0301493954,
				"y": -0.9976444657,
				"z": 1.8181675732,
				"element": "H" 
			},
			{
				"x": -0.3731591798,
				"y": -1.5623688301,
				"z": 2.0524820102,
				"element": "H" 
			},
			{
				"x": -1.6536407987,
				"y": 0.8139067254,
				"z": 3.535527998,
				"element": "H" 
			},
			{
				"x": -0.0019370132,
				"y": 0.2273806548,
				"z": 3.7901919904,
				"element": "H" 
			},
			{
				"x": -1.3819141779,
				"y": -0.7991389688,
				"z": 4.2254648503,
				"element": "H" 
			},
			{
				"x": 3.752009357,
				"y": -1.8936510127,
				"z": 0.3745459832,
				"element": "H" 
			},
			{
				"x": 1.9511791319,
				"y": -0.2076168605,
				"z": 1.2312583437,
				"element": "H" 
			}
		],
		 "valence_orbital": [ 
			{
				"type": "occ",
				"energy": -0.29899,
				"method": "rhf"
			},
			{
				"type": "occ",
				"energy": -0.28334,
				"method": "rhf"
			},
			{
				"type": "occ",
				"energy": -0.27631,
				"method": "rhf"
			},
			{
				"type": "occ",
				"energy": -0.25677,
				"method": "rhf"
			},
			{
				"type": "occ",
				"energy": -0.24718,
				"method": "rhf"
			},
			{
				"type": "unocc",
				"energy": 0.01305,
				"method": "rhf"
			},
			{
				"type": "unocc",
				"energy": 0.04219,
				"method": "rhf"
			},
			{
				"type": "unocc",
				"energy": 0.0664,
				"method": "rhf"
			},
			{
				"type": "unocc",
				"energy": 0.09359,
				"method": "rhf"
			},
			{
				"type": "unocc",
				"energy": 0.10577,
				"method": "rhf"
			}
		],
		"cosmo_sigma_profile": { 
			"-0.025": 0.0,
			"-0.024": 0.0,
			"-0.023": 0.0,
			"-0.022": 0.0,
			"-0.021": 0.0,
			"-0.02": 0.0,
			"-0.019": 0.0,
			"-0.018": 0.0,
			"-0.017": 0.793305773627,
			"-0.016": 0.837509831463,
			"-0.015": 1.5347400623,
			"-0.014": 0.714111190353,
			"-0.013": 0.632032378409,
			"-0.012": 1.03469929195,
			"-0.011": 1.76041507945,
			"-0.01": 4.02290088457,
			"-0.009": 2.55926633857,
			"-0.008": 3.13522908114,
			"-0.007": 6.63725724955,
			"-0.006": 5.47189586217,
			"-0.005": 8.15628867523,
			"-0.004": 21.0514988704,
			"-0.003": 27.2282583554,
			"-0.002": 24.6612813411,
			"-0.001": 22.10789229,
			"0.0": 20.7671240659,
			"0.001": 11.6489881186,
			"0.002": 5.4035817251,
			"0.003": 4.41413028836,
			"0.004": 4.1984145715,
			"0.005": 3.96445945468,
			"0.006": 2.74677162655,
			"0.007": 3.41046458829,
			"0.008": 3.73071827039,
			"0.009": 3.30880705874,
			"0.01": 3.33417777228,
			"0.011": 3.76197709336,
			"0.012": 4.35679852388,
			"0.013": 3.53025649969,
			"0.014": 4.1792318477,
			"0.015": 3.75569009141,
			"0.016": 2.53307552604,
			"0.017": 2.34533763241,
			"0.018": 0.236701820397,
			"0.019": 0.0,
			"0.02": 0.0,
			"0.021": 0.0,
			"0.022": 0.0,
			"0.023": 0.0,
			"0.024": 0.0,
			"0.025": 0.0
		}
	}
}
