{
	 "smiles": "N1C2=CC=CC=C2N=C1C1=CC=CN=C1", 
	 "Tm": 530.15, 
	 "num_atms": 24, 
	 "gaussian": { 
		 "optdone": 1, 
		 "sigma_profile": "yes", 
		 "theory": "DFT", 
		 "functional": "B3LYP", 
		 "basiset": "6-31G**", 
		 "properties": { 
			 "R2extent": 5053.7731, 
			 "electric_dipole_moment_norm": 4.73657465053, 
			 "electric_quadrupole_moment_norm": 15.0212867931, 
			 "total_energy": -626.967436939, 
			 "HOMO_LUMO_gap": 0.16286, 
			 "cosmo_polarized_energy": -16.44, 
			 "cosmo_cavitation_energy": 28.47, 
			 "cosmo_dispersion_energy": -21.51, 
			 "cosmo_repulsion_energy": 1.64, 
			 "cosmo_total_nonelectrostatic_energy": 8.59, 
			 "SMD_solvation_energy": 1.33 
		},
		"coords": [
			{
				"x": 0.3849177333,
				"y": 0.4235173923,
				"z": -0.3279825417,
				"element": "N" 
			},
			{
				"x": 1.316811265,
				"y": 0.5461405951,
				"z": 0.685925112,
				"element": "C" 
			},
			{
				"x": 1.2312365055,
				"y": 0.431976698,
				"z": 2.0747466975,
				"element": "C" 
			},
			{
				"x": 2.4096922425,
				"y": 0.6263424697,
				"z": 2.790890516,
				"element": "C" 
			},
			{
				"x": 3.6270700174,
				"y": 0.9234644332,
				"z": 2.1431677271,
				"element": "C" 
			},
			{
				"x": 3.7043586423,
				"y": 1.0355785148,
				"z": 0.7596721136,
				"element": "C" 
			},
			{
				"x": 2.5306825659,
				"y": 0.8441012492,
				"z": 0.0166914396,
				"element": "C" 
			},
			{
				"x": 2.3269418562,
				"y": 0.8968212097,
				"z": -1.3490741517,
				"element": "N" 
			},
			{
				"x": 1.0458081767,
				"y": 0.6436340063,
				"z": -1.5250804255,
				"element": "C" 
			},
			{
				"x": 0.3828500357,
				"y": 0.5970192436,
				"z": -2.829867664,
				"element": "C" 
			},
			{
				"x": -0.9821052879,
				"y": 0.3255158676,
				"z": -2.9967788889,
				"element": "C" 
			},
			{
				"x": -1.5177187495,
				"y": 0.3039673142,
				"z": -4.281213953,
				"element": "C" 
			},
			{
				"x": -0.6714145473,
				"y": 0.5548282773,
				"z": -5.3616364352,
				"element": "C" 
			},
			{
				"x": 0.6362772837,
				"y": 0.8167092445,
				"z": -5.2275698473,
				"element": "N" 
			},
			{
				"x": 1.1403372905,
				"y": 0.835195195,
				"z": -3.992824748,
				"element": "C" 
			},
			{
				"x": -0.5927197072,
				"y": 0.2127622115,
				"z": -0.2101909472,
				"element": "H" 
			},
			{
				"x": 0.2963048826,
				"y": 0.2034343777,
				"z": 2.5776216454,
				"element": "H" 
			},
			{
				"x": 2.390588391,
				"y": 0.5472092063,
				"z": 3.873759804,
				"element": "H" 
			},
			{
				"x": 4.5210057393,
				"y": 1.0669685513,
				"z": 2.7427610925,
				"element": "H" 
			},
			{
				"x": 4.6378674473,
				"y": 1.2639048491,
				"z": 0.2559890984,
				"element": "H" 
			},
			{
				"x": -1.6284253109,
				"y": 0.1319901888,
				"z": -2.1446139383,
				"element": "H" 
			},
			{
				"x": -2.5707185064,
				"y": 0.0968397067,
				"z": -4.4432602372,
				"element": "H" 
			},
			{
				"x": -1.0586451436,
				"y": 0.5454188869,
				"z": -6.3787811563,
				"element": "H" 
			},
			{
				"x": 2.2007971776,
				"y": 1.0480603113,
				"z": -3.8910503119,
				"element": "H" 
			}
		],
		 "valence_orbital": [ 
			{
				"type": "occ",
				"energy": -0.27732,
				"method": "rhf"
			},
			{
				"type": "occ",
				"energy": -0.27554,
				"method": "rhf"
			},
			{
				"type": "occ",
				"energy": -0.25526,
				"method": "rhf"
			},
			{
				"type": "occ",
				"energy": -0.23046,
				"method": "rhf"
			},
			{
				"type": "occ",
				"energy": -0.21731,
				"method": "rhf"
			},
			{
				"type": "unocc",
				"energy": -0.05445,
				"method": "rhf"
			},
			{
				"type": "unocc",
				"energy": -0.02653,
				"method": "rhf"
			},
			{
				"type": "unocc",
				"energy": 0.00581,
				"method": "rhf"
			},
			{
				"type": "unocc",
				"energy": 0.02147,
				"method": "rhf"
			},
			{
				"type": "unocc",
				"energy": 0.05149,
				"method": "rhf"
			}
		],
		"cosmo_sigma_profile": { 
			"-0.025": 0.0,
			"-0.024": 0.0,
			"-0.023": 0.0,
			"-0.022": 0.0,
			"-0.021": 0.0,
			"-0.02": 0.0,
			"-0.019": 0.0,
			"-0.018": 0.0312230090559,
			"-0.017": 0.966339048554,
			"-0.016": 1.80004120776,
			"-0.015": 1.13451391733,
			"-0.014": 1.4472084293,
			"-0.013": 1.68364645586,
			"-0.012": 1.04479069596,
			"-0.011": 1.46072449287,
			"-0.01": 1.68403337688,
			"-0.009": 1.81169215539,
			"-0.008": 2.8683002546,
			"-0.007": 6.38859087636,
			"-0.006": 11.9156540846,
			"-0.005": 13.6515155072,
			"-0.004": 13.957258075,
			"-0.003": 13.9025191981,
			"-0.002": 11.8614010445,
			"-0.001": 11.7258592306,
			"0.0": 15.8554015764,
			"0.001": 24.831927645,
			"0.002": 19.5824374803,
			"0.003": 12.1666733328,
			"0.004": 14.4980078175,
			"0.005": 13.2081689239,
			"0.006": 9.37539027839,
			"0.007": 2.9980960494,
			"0.008": 3.79801660538,
			"0.009": 1.84685831839,
			"0.01": 2.08503267889,
			"0.011": 1.97642318499,
			"0.012": 2.41541441497,
			"0.013": 1.91287749693,
			"0.014": 1.69094784549,
			"0.015": 1.43660530435,
			"0.016": 0.72785931273,
			"0.017": 0.174236114286,
			"0.018": 0.0,
			"0.019": 0.0,
			"0.02": 0.0,
			"0.021": 0.0,
			"0.022": 0.0,
			"0.023": 0.0,
			"0.024": 0.0,
			"0.025": 0.0
		}
	}
}
