{
	 "smiles": "NC1=NC=C(CC2=C(Cl)C=CC=C2Cl)S1", 
	 "Tm": 413.15, 
	 "num_atms": 23, 
	 "gaussian": { 
		 "optdone": 1, 
		 "sigma_profile": "yes", 
		 "theory": "DFT", 
		 "functional": "B3LYP", 
		 "basiset": "6-31G**", 
		 "properties": { 
			 "R2extent": 5242.2814, 
			 "electric_dipole_moment_norm": 2.72820953374, 
			 "electric_quadrupole_moment_norm": 10.3267500038, 
			 "total_energy": -1813.95601549, 
			 "HOMO_LUMO_gap": 0.17715, 
			 "cosmo_polarized_energy": -12.09, 
			 "cosmo_cavitation_energy": 31.96, 
			 "cosmo_dispersion_energy": -23.65, 
			 "cosmo_repulsion_energy": 1.81, 
			 "cosmo_total_nonelectrostatic_energy": 10.11, 
			 "SMD_solvation_energy": 2.78 
		},
		"coords": [
			{
				"x": -1.804690884,
				"y": 4.0458164829,
				"z": 0.4292025273,
				"element": "N" 
			},
			{
				"x": -1.3637609611,
				"y": 2.8576206082,
				"z": 0.9715028047,
				"element": "C" 
			},
			{
				"x": -2.1436920327,
				"y": 1.9900636088,
				"z": 1.5493911183,
				"element": "N" 
			},
			{
				"x": -1.4019596499,
				"y": 0.944781114,
				"z": 2.0571231479,
				"element": "C" 
			},
			{
				"x": -0.0515117365,
				"y": 0.9787144745,
				"z": 1.8795865656,
				"element": "C" 
			},
			{
				"x": 0.9754955253,
				"y": -0.0276798744,
				"z": 2.3273548615,
				"element": "C" 
			},
			{
				"x": 1.6633580416,
				"y": -0.7768974139,
				"z": 1.1967968898,
				"element": "C" 
			},
			{
				"x": 1.094019992,
				"y": -1.9165372827,
				"z": 0.5998635438,
				"element": "C" 
			},
			{
				"x": -0.4543021516,
				"y": -2.5311891402,
				"z": 1.1719707879,
				"element": "Cl" 
			},
			{
				"x": 1.7066208519,
				"y": -2.6138232106,
				"z": -0.4398599541,
				"element": "C" 
			},
			{
				"x": 2.9380046117,
				"y": -2.1767337446,
				"z": -0.9210583575,
				"element": "C" 
			},
			{
				"x": 3.5472644565,
				"y": -1.057006911,
				"z": -0.362009439,
				"element": "C" 
			},
			{
				"x": 2.9086800284,
				"y": -0.3815068293,
				"z": 0.6771236852,
				"element": "C" 
			},
			{
				"x": 3.7375896108,
				"y": 1.0265765377,
				"z": 1.3424958179,
				"element": "Cl" 
			},
			{
				"x": 0.3598802966,
				"y": 2.4624019464,
				"z": 1.0131691874,
				"element": "S" 
			},
			{
				"x": -1.2901697059,
				"y": 4.400571734,
				"z": -0.3645228032,
				"element": "H" 
			},
			{
				"x": -2.8088656507,
				"y": 4.0630562744,
				"z": 0.30353011,
				"element": "H" 
			},
			{
				"x": -1.9178903859,
				"y": 0.1358765747,
				"z": 2.5627516922,
				"element": "H" 
			},
			{
				"x": 1.7379646639,
				"y": 0.4549800796,
				"z": 2.9448417998,
				"element": "H" 
			},
			{
				"x": 0.4595491354,
				"y": -0.7492627745,
				"z": 2.9664332605,
				"element": "H" 
			},
			{
				"x": 1.2196096333,
				"y": -3.4866413733,
				"z": -0.8590074731,
				"element": "H" 
			},
			{
				"x": 3.4245316248,
				"y": -2.7113197885,
				"z": -1.730771468,
				"element": "H" 
			},
			{
				"x": 4.507174686,
				"y": -0.7040610922,
				"z": -0.7206083049,
				"element": "H" 
			}
		],
		 "valence_orbital": [ 
			{
				"type": "occ",
				"energy": -0.27072,
				"method": "rhf"
			},
			{
				"type": "occ",
				"energy": -0.26726,
				"method": "rhf"
			},
			{
				"type": "occ",
				"energy": -0.25804,
				"method": "rhf"
			},
			{
				"type": "occ",
				"energy": -0.25219,
				"method": "rhf"
			},
			{
				"type": "occ",
				"energy": -0.2044,
				"method": "rhf"
			},
			{
				"type": "unocc",
				"energy": -0.02725,
				"method": "rhf"
			},
			{
				"type": "unocc",
				"energy": -0.02525,
				"method": "rhf"
			},
			{
				"type": "unocc",
				"energy": -0.00345,
				"method": "rhf"
			},
			{
				"type": "unocc",
				"energy": 0.00883,
				"method": "rhf"
			},
			{
				"type": "unocc",
				"energy": 0.01807,
				"method": "rhf"
			}
		],
		"cosmo_sigma_profile": { 
			"-0.025": 0.0,
			"-0.024": 0.0,
			"-0.023": 0.0,
			"-0.022": 0.0,
			"-0.021": 0.0,
			"-0.02": 0.0,
			"-0.019": 0.0,
			"-0.018": 0.0,
			"-0.017": 0.0,
			"-0.016": 0.0,
			"-0.015": 0.213894061847,
			"-0.014": 1.70725776098,
			"-0.013": 2.69102409445,
			"-0.012": 2.12276591499,
			"-0.011": 2.98419563939,
			"-0.01": 2.68316531757,
			"-0.009": 1.79715226507,
			"-0.008": 3.44035301496,
			"-0.007": 8.65457751719,
			"-0.006": 9.28949318501,
			"-0.005": 12.8719321948,
			"-0.004": 11.9192831785,
			"-0.003": 13.599155237,
			"-0.002": 14.9227344034,
			"-0.001": 15.6789512987,
			"0.0": 16.840482873,
			"0.001": 26.1028050356,
			"0.002": 31.954449638,
			"0.003": 30.593963909,
			"0.004": 23.4629122591,
			"0.005": 10.5252258616,
			"0.006": 3.36860796765,
			"0.007": 1.93890425607,
			"0.008": 2.47398454864,
			"0.009": 1.69112808593,
			"0.01": 1.51859630981,
			"0.011": 2.06996259697,
			"0.012": 1.69262166422,
			"0.013": 0.921958788496,
			"0.014": 0.840061680567,
			"0.015": 1.05777687132,
			"0.016": 0.462119783132,
			"0.017": 0.0,
			"0.018": 0.0,
			"0.019": 0.0,
			"0.02": 0.0,
			"0.021": 0.0,
			"0.022": 0.0,
			"0.023": 0.0,
			"0.024": 0.0,
			"0.025": 0.0
		}
	}
}
