{
	 "smiles": "CC(C)(C)OC(=O)N1CCN(CC(O)=O)C(=O)C1", 
	 "Tm": 423.15, 
	 "num_atms": 36, 
	 "gaussian": { 
		 "optdone": 1, 
		 "sigma_profile": "yes", 
		 "theory": "DFT", 
		 "functional": "B3LYP", 
		 "basiset": "6-31G**", 
		 "properties": { 
			 "R2extent": 7684.8156, 
			 "electric_dipole_moment_norm": 2.21597625213, 
			 "electric_quadrupole_moment_norm": 19.1456129677, 
			 "total_energy": -915.699535091, 
			 "HOMO_LUMO_gap": 0.2398, 
			 "cosmo_polarized_energy": -19.25, 
			 "cosmo_cavitation_energy": 38.36, 
			 "cosmo_dispersion_energy": -26.48, 
			 "cosmo_repulsion_energy": 2.09, 
			 "cosmo_total_nonelectrostatic_energy": 13.98, 
			 "SMD_solvation_energy": 8.52 
		},
		"coords": [
			{
				"x": 1.3823064651,
				"y": -2.354770256,
				"z": -2.1050132654,
				"element": "C" 
			},
			{
				"x": 1.6482592345,
				"y": -1.142245915,
				"z": -3.0027613373,
				"element": "C" 
			},
			{
				"x": 1.3762377985,
				"y": -1.4398975779,
				"z": -4.4807888913,
				"element": "C" 
			},
			{
				"x": 3.0740326919,
				"y": -0.6212130453,
				"z": -2.8058989366,
				"element": "C" 
			},
			{
				"x": 0.8287010311,
				"y": 0.0016192687,
				"z": -2.5621377867,
				"element": "O" 
			},
			{
				"x": -0.5212620917,
				"y": -0.0665590326,
				"z": -2.5694176114,
				"element": "C" 
			},
			{
				"x": -1.191149032,
				"y": -1.0165323274,
				"z": -2.9493753971,
				"element": "O" 
			},
			{
				"x": -1.0672086776,
				"y": 1.0953350461,
				"z": -2.0756409264,
				"element": "N" 
			},
			{
				"x": -2.507834071,
				"y": 1.2733072285,
				"z": -2.0888182297,
				"element": "C" 
			},
			{
				"x": -2.9743922428,
				"y": 1.675962705,
				"z": -0.696527408,
				"element": "C" 
			},
			{
				"x": -2.2181442367,
				"y": 2.8310091768,
				"z": -0.2047244317,
				"element": "N" 
			},
			{
				"x": -2.7780853301,
				"y": 3.5913201399,
				"z": 0.8940975244,
				"element": "C" 
			},
			{
				"x": -2.802103547,
				"y": 2.8895808125,
				"z": 2.2470595687,
				"element": "C" 
			},
			{
				"x": -1.9485004654,
				"y": 1.8442054169,
				"z": 2.3182942893,
				"element": "O" 
			},
			{
				"x": -3.4958938727,
				"y": 3.2467276593,
				"z": 3.1713210524,
				"element": "O" 
			},
			{
				"x": -0.9316671406,
				"y": 3.1190789139,
				"z": -0.5937426937,
				"element": "C" 
			},
			{
				"x": -0.2916997383,
				"y": 4.0552659593,
				"z": -0.1294323352,
				"element": "O" 
			},
			{
				"x": -0.2923617142,
				"y": 2.262987823,
				"z": -1.6874156062,
				"element": "C" 
			},
			{
				"x": 0.3613073103,
				"y": -2.7164562878,
				"z": -2.2280943097,
				"element": "H" 
			},
			{
				"x": 2.0769884571,
				"y": -3.1605406124,
				"z": -2.3634147314,
				"element": "H" 
			},
			{
				"x": 1.543556516,
				"y": -2.0924861525,
				"z": -1.0545196713,
				"element": "H" 
			},
			{
				"x": 2.0681652834,
				"y": -2.2122862612,
				"z": -4.8319153194,
				"element": "H" 
			},
			{
				"x": 0.3538758636,
				"y": -1.7883879971,
				"z": -4.6276976844,
				"element": "H" 
			},
			{
				"x": 1.5366464206,
				"y": -0.5412694968,
				"z": -5.0849238107,
				"element": "H" 
			},
			{
				"x": 3.7968491118,
				"y": -1.3852495331,
				"z": -3.1067928312,
				"element": "H" 
			},
			{
				"x": 3.2534432104,
				"y": -0.3696553882,
				"z": -1.7565053239,
				"element": "H" 
			},
			{
				"x": 3.2454549613,
				"y": 0.274494049,
				"z": -3.4098909899,
				"element": "H" 
			},
			{
				"x": -2.9639285488,
				"y": 0.3311140033,
				"z": -2.3919598124,
				"element": "H" 
			},
			{
				"x": -2.7877782661,
				"y": 2.0489362096,
				"z": -2.817512087,
				"element": "H" 
			},
			{
				"x": -2.8659973778,
				"y": 0.8309049076,
				"z": -0.0043457662,
				"element": "H" 
			},
			{
				"x": -4.0353145745,
				"y": 1.9522203076,
				"z": -0.7288532598,
				"element": "H" 
			},
			{
				"x": -2.1684258135,
				"y": 4.4924974388,
				"z": 1.0108541791,
				"element": "H" 
			},
			{
				"x": -3.8057082778,
				"y": 3.897225325,
				"z": 0.6734168383,
				"element": "H" 
			},
			{
				"x": -2.018669229,
				"y": 1.5008440685,
				"z": 3.2253068215,
				"element": "H" 
			},
			{
				"x": 0.6832667979,
				"y": 1.9538193613,
				"z": -1.3146124454,
				"element": "H" 
			},
			{
				"x": -0.1103669059,
				"y": 2.9353940626,
				"z": -2.5397173747,
				"element": "H" 
			}
		],
		 "valence_orbital": [ 
			{
				"type": "occ",
				"energy": -0.29353,
				"method": "rhf"
			},
			{
				"type": "occ",
				"energy": -0.2762,
				"method": "rhf"
			},
			{
				"type": "occ",
				"energy": -0.26433,
				"method": "rhf"
			},
			{
				"type": "occ",
				"energy": -0.25066,
				"method": "rhf"
			},
			{
				"type": "occ",
				"energy": -0.24019,
				"method": "rhf"
			},
			{
				"type": "unocc",
				"energy": -0.00039,
				"method": "rhf"
			},
			{
				"type": "unocc",
				"energy": 0.01504,
				"method": "rhf"
			},
			{
				"type": "unocc",
				"energy": 0.04495,
				"method": "rhf"
			},
			{
				"type": "unocc",
				"energy": 0.06408,
				"method": "rhf"
			},
			{
				"type": "unocc",
				"energy": 0.07913,
				"method": "rhf"
			}
		],
		"cosmo_sigma_profile": { 
			"-0.025": 0.0,
			"-0.024": 0.0,
			"-0.023": 0.0,
			"-0.022": 0.0,
			"-0.021": 0.0,
			"-0.02": 0.0,
			"-0.019": 0.213848047653,
			"-0.018": 0.891649721831,
			"-0.017": 1.24545851406,
			"-0.016": 0.702510892557,
			"-0.015": 0.230064915402,
			"-0.014": 1.27765008351,
			"-0.013": 0.615039328215,
			"-0.012": 0.358335674651,
			"-0.011": 0.951042377722,
			"-0.01": 0.93086743124,
			"-0.009": 0.584309523438,
			"-0.008": 3.76527595067,
			"-0.007": 7.97754111575,
			"-0.006": 14.5549684718,
			"-0.005": 19.2352412948,
			"-0.004": 27.6124681862,
			"-0.003": 26.6934659274,
			"-0.002": 25.1847075905,
			"-0.001": 26.1067895778,
			"0.0": 32.7913087538,
			"0.001": 22.6400077321,
			"0.002": 10.2757376173,
			"0.003": 9.08456522279,
			"0.004": 7.64207339978,
			"0.005": 7.03595307519,
			"0.006": 5.62471382497,
			"0.007": 6.56510880045,
			"0.008": 3.84815153004,
			"0.009": 4.07870703593,
			"0.01": 5.58244909187,
			"0.011": 7.31696636072,
			"0.012": 7.76704592418,
			"0.013": 7.95156275109,
			"0.014": 2.31960154575,
			"0.015": 0.132583136733,
			"0.016": 0.0,
			"0.017": 0.0,
			"0.018": 0.0,
			"0.019": 0.0,
			"0.02": 0.0,
			"0.021": 0.0,
			"0.022": 0.0,
			"0.023": 0.0,
			"0.024": 0.0,
			"0.025": 0.0
		}
	}
}
