{
	 "smiles": "ClC1=C2C=CC=CC2=C(Cl)C=C1", 
	 "Tm": 340.65, 
	 "num_atms": 18, 
	 "gaussian": { 
		 "optdone": 1, 
		 "sigma_profile": "yes", 
		 "theory": "DFT", 
		 "functional": "B3LYP", 
		 "basiset": "6-31G**", 
		 "properties": { 
			 "R2extent": 3752.3662, 
			 "electric_dipole_moment_norm": 0.721029409941, 
			 "electric_quadrupole_moment_norm": 8.70443825126, 
			 "total_energy": -1305.07553304, 
			 "HOMO_LUMO_gap": 0.16636, 
			 "cosmo_polarized_energy": -4.04, 
			 "cosmo_cavitation_energy": 25.11, 
			 "cosmo_dispersion_energy": -19.21, 
			 "cosmo_repulsion_energy": 1.5, 
			 "cosmo_total_nonelectrostatic_energy": 7.39, 
			 "SMD_solvation_energy": 3.51 
		},
		"coords": [
			{
				"x": 2.725849964,
				"y": -0.0630323531,
				"z": -2.1316219965,
				"element": "Cl" 
			},
			{
				"x": 1.768319928,
				"y": -1.2213761677,
				"z": -1.2165333242,
				"element": "C" 
			},
			{
				"x": 0.4354583664,
				"y": -0.8951066164,
				"z": -0.8283582358,
				"element": "C" 
			},
			{
				"x": -0.1853788429,
				"y": 0.342852472,
				"z": -1.1435740827,
				"element": "C" 
			},
			{
				"x": -1.4750453389,
				"y": 0.6105544044,
				"z": -0.7460797997,
				"element": "C" 
			},
			{
				"x": -2.209313532,
				"y": -0.3485023988,
				"z": -0.0120967987,
				"element": "C" 
			},
			{
				"x": -1.6415139334,
				"y": -1.5590626084,
				"z": 0.3120125811,
				"element": "C" 
			},
			{
				"x": -0.3129110045,
				"y": -1.8725899006,
				"z": -0.080248934,
				"element": "C" 
			},
			{
				"x": 0.3210900531,
				"y": -3.1116641107,
				"z": 0.230191131,
				"element": "C" 
			},
			{
				"x": -0.5486256744,
				"y": -4.3400213284,
				"z": 1.1416729344,
				"element": "Cl" 
			},
			{
				"x": 1.6089701454,
				"y": -3.3862022382,
				"z": -0.1634321619,
				"element": "C" 
			},
			{
				"x": 2.3422143716,
				"y": -2.4284821994,
				"z": -0.8964145972,
				"element": "C" 
			},
			{
				"x": 0.3776613769,
				"y": 1.077981723,
				"z": -1.7062253858,
				"element": "H" 
			},
			{
				"x": -1.930962882,
				"y": 1.5634044825,
				"z": -0.9975334976,
				"element": "H" 
			},
			{
				"x": -3.2266014414,
				"y": -0.1288773661,
				"z": 0.2975826207,
				"element": "H" 
			},
			{
				"x": -2.2042914927,
				"y": -2.29437327,
				"z": 0.8746905659,
				"element": "H" 
			},
			{
				"x": 2.0638103209,
				"y": -4.3374950225,
				"z": 0.0877720093,
				"element": "H" 
			},
			{
				"x": 3.357769616,
				"y": -2.6474075014,
				"z": -1.2057030283,
				"element": "H" 
			}
		],
		 "valence_orbital": [ 
			{
				"type": "occ",
				"energy": -0.31793,
				"method": "rhf"
			},
			{
				"type": "occ",
				"energy": -0.31396,
				"method": "rhf"
			},
			{
				"type": "occ",
				"energy": -0.2793,
				"method": "rhf"
			},
			{
				"type": "occ",
				"energy": -0.2626,
				"method": "rhf"
			},
			{
				"type": "occ",
				"energy": -0.2246,
				"method": "rhf"
			},
			{
				"type": "unocc",
				"energy": -0.05824,
				"method": "rhf"
			},
			{
				"type": "unocc",
				"energy": -0.02816,
				"method": "rhf"
			},
			{
				"type": "unocc",
				"energy": 0.01887,
				"method": "rhf"
			},
			{
				"type": "unocc",
				"energy": 0.0204,
				"method": "rhf"
			},
			{
				"type": "unocc",
				"energy": 0.03249,
				"method": "rhf"
			}
		],
		"cosmo_sigma_profile": { 
			"-0.025": 0.0,
			"-0.024": 0.0,
			"-0.023": 0.0,
			"-0.022": 0.0,
			"-0.021": 0.0,
			"-0.02": 0.0,
			"-0.019": 0.0,
			"-0.018": 0.0,
			"-0.017": 0.0,
			"-0.016": 0.0,
			"-0.015": 0.0,
			"-0.014": 0.0,
			"-0.013": 0.0,
			"-0.012": 0.0,
			"-0.011": 0.0,
			"-0.01": 0.0,
			"-0.009": 0.014401234129,
			"-0.008": 2.52337757012,
			"-0.007": 5.49959508977,
			"-0.006": 9.54669529979,
			"-0.005": 11.8050397501,
			"-0.004": 9.67044310539,
			"-0.003": 9.55501233713,
			"-0.002": 11.6746949279,
			"-0.001": 12.750136456,
			"0.0": 19.5362295561,
			"0.001": 33.1332323756,
			"0.002": 31.8819537771,
			"0.003": 23.284844282,
			"0.004": 21.5696123566,
			"0.005": 4.75357526525,
			"0.006": 0.0,
			"0.007": 0.0,
			"0.008": 0.0,
			"0.009": 0.0,
			"0.01": 0.0,
			"0.011": 0.0,
			"0.012": 0.0,
			"0.013": 0.0,
			"0.014": 0.0,
			"0.015": 0.0,
			"0.016": 0.0,
			"0.017": 0.0,
			"0.018": 0.0,
			"0.019": 0.0,
			"0.02": 0.0,
			"0.021": 0.0,
			"0.022": 0.0,
			"0.023": 0.0,
			"0.024": 0.0,
			"0.025": 0.0
		}
	}
}
