{
	 "smiles": "CC1=CN(N=C1C(O)=O)C1=C(Cl)C=CC=C1", 
	 "Tm": 483.15, 
	 "num_atms": 25, 
	 "gaussian": { 
		 "optdone": 1, 
		 "sigma_profile": "yes", 
		 "theory": "DFT", 
		 "functional": "B3LYP", 
		 "basiset": "6-31G**", 
		 "properties": { 
			 "R2extent": 4913.8912, 
			 "electric_dipole_moment_norm": 3.29440009713, 
			 "electric_quadrupole_moment_norm": 9.98803460096, 
			 "total_energy": -1144.73356365, 
			 "HOMO_LUMO_gap": 0.19362, 
			 "cosmo_polarized_energy": -13.08, 
			 "cosmo_cavitation_energy": 31.87, 
			 "cosmo_dispersion_energy": -23.09, 
			 "cosmo_repulsion_energy": 1.81, 
			 "cosmo_total_nonelectrostatic_energy": 10.59, 
			 "SMD_solvation_energy": 6.01 
		},
		"coords": [
			{
				"x": 1.027082318,
				"y": -1.1833064482,
				"z": 2.3746352458,
				"element": "C" 
			},
			{
				"x": 0.3407688468,
				"y": -0.7082482515,
				"z": 1.1309839501,
				"element": "C" 
			},
			{
				"x": 0.8871623393,
				"y": -0.5429340808,
				"z": -0.1211310823,
				"element": "C" 
			},
			{
				"x": -0.1100702283,
				"y": -0.0836261806,
				"z": -0.9499015515,
				"element": "N" 
			},
			{
				"x": -1.285823466,
				"y": 0.0408600157,
				"z": -0.3044458273,
				"element": "N" 
			},
			{
				"x": -1.0221207143,
				"y": -0.3253558608,
				"z": 0.9529384077,
				"element": "C" 
			},
			{
				"x": -2.0595199916,
				"y": -0.3137294265,
				"z": 1.9989461932,
				"element": "C" 
			},
			{
				"x": -3.2724898852,
				"y": 0.0850490728,
				"z": 1.5570370683,
				"element": "O" 
			},
			{
				"x": -1.855026003,
				"y": -0.6342020892,
				"z": 3.1561752238,
				"element": "O" 
			},
			{
				"x": -0.0735595443,
				"y": 0.1357097148,
				"z": -2.3538022975,
				"element": "C" 
			},
			{
				"x": 0.9785393807,
				"y": 0.7998883293,
				"z": -3.004585627,
				"element": "C" 
			},
			{
				"x": 2.3337478673,
				"y": 1.4876306585,
				"z": -2.1242878444,
				"element": "Cl" 
			},
			{
				"x": 0.9536193491,
				"y": 0.9705938171,
				"z": -4.3902726104,
				"element": "C" 
			},
			{
				"x": -0.1261605745,
				"y": 0.5033153695,
				"z": -5.1352358224,
				"element": "C" 
			},
			{
				"x": -1.1887810973,
				"y": -0.1352457065,
				"z": -4.4933855684,
				"element": "C" 
			},
			{
				"x": -1.1573541637,
				"y": -0.3214362774,
				"z": -3.1160204052,
				"element": "C" 
			},
			{
				"x": 0.9854274733,
				"y": -0.4250243542,
				"z": 3.1621352459,
				"element": "H" 
			},
			{
				"x": 2.0759468232,
				"y": -1.4183792885,
				"z": 2.1732315106,
				"element": "H" 
			},
			{
				"x": 0.5398479239,
				"y": -2.0748687967,
				"z": 2.7796143585,
				"element": "H" 
			},
			{
				"x": 1.886976354,
				"y": -0.7198669756,
				"z": -0.4832254522,
				"element": "H" 
			},
			{
				"x": -3.8538210828,
				"y": 0.0493172161,
				"z": 2.3347827253,
				"element": "H" 
			},
			{
				"x": 1.7785476997,
				"y": 1.4858398573,
				"z": -4.8693322427,
				"element": "H" 
			},
			{
				"x": -0.1364997393,
				"y": 0.6461195806,
				"z": -6.2111799361,
				"element": "H" 
			},
			{
				"x": -2.0380621944,
				"y": -0.4970199911,
				"z": -5.0640465467,
				"element": "H" 
			},
			{
				"x": -1.9689776906,
				"y": -0.8144799043,
				"z": -2.5943271151,
				"element": "H" 
			}
		],
		 "valence_orbital": [ 
			{
				"type": "occ",
				"energy": -0.29336,
				"method": "rhf"
			},
			{
				"type": "occ",
				"energy": -0.27226,
				"method": "rhf"
			},
			{
				"type": "occ",
				"energy": -0.26356,
				"method": "rhf"
			},
			{
				"type": "occ",
				"energy": -0.25407,
				"method": "rhf"
			},
			{
				"type": "occ",
				"energy": -0.24003,
				"method": "rhf"
			},
			{
				"type": "unocc",
				"energy": -0.04641,
				"method": "rhf"
			},
			{
				"type": "unocc",
				"energy": -0.02569,
				"method": "rhf"
			},
			{
				"type": "unocc",
				"energy": -0.01376,
				"method": "rhf"
			},
			{
				"type": "unocc",
				"energy": 0.01565,
				"method": "rhf"
			},
			{
				"type": "unocc",
				"energy": 0.03167,
				"method": "rhf"
			}
		],
		"cosmo_sigma_profile": { 
			"-0.025": 0.0,
			"-0.024": 0.0,
			"-0.023": 0.0,
			"-0.022": 0.0,
			"-0.021": 0.0,
			"-0.02": 0.0,
			"-0.019": 0.0,
			"-0.018": 0.812719942968,
			"-0.017": 0.794451148698,
			"-0.016": 1.2125427471,
			"-0.015": 0.755088612134,
			"-0.014": 0.395039690031,
			"-0.013": 0.406188307477,
			"-0.012": 0.820078623545,
			"-0.011": 0.708240130931,
			"-0.01": 1.18306253034,
			"-0.009": 1.10096067948,
			"-0.008": 2.71115182114,
			"-0.007": 10.281735824,
			"-0.006": 11.2233951917,
			"-0.005": 13.5994014914,
			"-0.004": 11.7588298103,
			"-0.003": 16.4628150205,
			"-0.002": 18.5997385504,
			"-0.001": 22.9152078001,
			"0.0": 25.6983227075,
			"0.001": 24.3050393004,
			"0.002": 24.4072938345,
			"0.003": 22.6472612324,
			"0.004": 10.3235806397,
			"0.005": 3.88883920045,
			"0.006": 3.6569432566,
			"0.007": 3.64019232002,
			"0.008": 3.78464922398,
			"0.009": 3.0280538054,
			"0.01": 4.00115952256,
			"0.011": 4.92113249259,
			"0.012": 5.00147415243,
			"0.013": 1.33711052173,
			"0.014": 1.06613152238,
			"0.015": 0.122800247214,
			"0.016": 0.0,
			"0.017": 0.0,
			"0.018": 0.0,
			"0.019": 0.0,
			"0.02": 0.0,
			"0.021": 0.0,
			"0.022": 0.0,
			"0.023": 0.0,
			"0.024": 0.0,
			"0.025": 0.0
		}
	}
}
