{
	 "smiles": "CCOC1=CC=C(C=C1)N(C)S(=O)(=O)C1=CC(C(O)=O)=C(C)C=C1", 
	 "Tm": 449.15, 
	 "num_atms": 43, 
	 "gaussian": { 
		 "optdone": 1, 
		 "sigma_profile": "yes", 
		 "theory": "DFT", 
		 "functional": "B3LYP", 
		 "basiset": "6-31G**", 
		 "properties": { 
			 "R2extent": 10918.4198, 
			 "electric_dipole_moment_norm": 4.08848401733, 
			 "electric_quadrupole_moment_norm": 23.3419006583, 
			 "total_energy": -1488.25455864, 
			 "HOMO_LUMO_gap": 0.15642, 
			 "cosmo_polarized_energy": -22.83, 
			 "cosmo_cavitation_energy": 47.71, 
			 "cosmo_dispersion_energy": -32.26, 
			 "cosmo_repulsion_energy": 2.46, 
			 "cosmo_total_nonelectrostatic_energy": 17.91, 
			 "SMD_solvation_energy": 8.34 
		},
		"coords": [
			{
				"x": 2.9212366823,
				"y": -4.7216867021,
				"z": 1.304479596,
				"element": "C" 
			},
			{
				"x": 2.3796848143,
				"y": -3.3349714837,
				"z": 1.0056371774,
				"element": "C" 
			},
			{
				"x": 1.2898157994,
				"y": -3.097076666,
				"z": 1.8984632114,
				"element": "O" 
			},
			{
				"x": 0.619443385,
				"y": -1.9158443764,
				"z": 1.8176161863,
				"element": "C" 
			},
			{
				"x": -0.4552304983,
				"y": -1.7607401558,
				"z": 2.709398296,
				"element": "C" 
			},
			{
				"x": -1.1988027262,
				"y": -0.5905971205,
				"z": 2.7196231335,
				"element": "C" 
			},
			{
				"x": -0.9005349644,
				"y": 0.4483750968,
				"z": 1.8227475803,
				"element": "C" 
			},
			{
				"x": 0.165102748,
				"y": 0.2893713869,
				"z": 0.9324548649,
				"element": "C" 
			},
			{
				"x": 0.9324276756,
				"y": -0.8784872933,
				"z": 0.9306037766,
				"element": "C" 
			},
			{
				"x": -1.6760877766,
				"y": 1.6589467973,
				"z": 1.8648662091,
				"element": "N" 
			},
			{
				"x": -0.9728119416,
				"y": 2.9395021206,
				"z": 1.7052131512,
				"element": "C" 
			},
			{
				"x": -3.2491417386,
				"y": 1.60097299,
				"z": 1.2190725258,
				"element": "S" 
			},
			{
				"x": -3.8510790973,
				"y": 2.9077221383,
				"z": 1.4926947682,
				"element": "O" 
			},
			{
				"x": -3.855697664,
				"y": 0.3533186221,
				"z": 1.6834639946,
				"element": "O" 
			},
			{
				"x": -3.0593971105,
				"y": 1.4612093951,
				"z": -0.5618761431,
				"element": "C" 
			},
			{
				"x": -2.8576597533,
				"y": 0.2053575168,
				"z": -1.1328112272,
				"element": "C" 
			},
			{
				"x": -2.6656848798,
				"y": 0.0799036239,
				"z": -2.5145079743,
				"element": "C" 
			},
			{
				"x": -2.415483004,
				"y": -1.2837171711,
				"z": -3.0946917287,
				"element": "C" 
			},
			{
				"x": -3.0362394477,
				"y": -2.3216972173,
				"z": -2.4755369145,
				"element": "O" 
			},
			{
				"x": -1.6981929681,
				"y": -1.4942240271,
				"z": -4.0448463605,
				"element": "O" 
			},
			{
				"x": -2.6626484212,
				"y": 1.2302694227,
				"z": -3.3410647413,
				"element": "C" 
			},
			{
				"x": -2.4389551944,
				"y": 1.1631058606,
				"z": -4.8314209506,
				"element": "C" 
			},
			{
				"x": -2.8928858462,
				"y": 2.4727394915,
				"z": -2.7349935523,
				"element": "C" 
			},
			{
				"x": -3.0867373282,
				"y": 2.603768309,
				"z": -1.3607620111,
				"element": "C" 
			},
			{
				"x": 3.762095973,
				"y": -4.9469421781,
				"z": 0.6414962765,
				"element": "H" 
			},
			{
				"x": 3.2678892717,
				"y": -4.7856161251,
				"z": 2.3396352898,
				"element": "H" 
			},
			{
				"x": 2.1468515306,
				"y": -5.4785059761,
				"z": 1.1524274112,
				"element": "H" 
			},
			{
				"x": 2.0311464657,
				"y": -3.2654540052,
				"z": -0.0342320345,
				"element": "H" 
			},
			{
				"x": 3.1558664366,
				"y": -2.5706675204,
				"z": 1.1532070555,
				"element": "H" 
			},
			{
				"x": -0.6785146977,
				"y": -2.571434989,
				"z": 3.3949195532,
				"element": "H" 
			},
			{
				"x": -2.0232521671,
				"y": -0.4672136063,
				"z": 3.411420406,
				"element": "H" 
			},
			{
				"x": 0.4122836783,
				"y": 1.0793710421,
				"z": 0.2304616535,
				"element": "H" 
			},
			{
				"x": 1.7561145997,
				"y": -0.9679636464,
				"z": 0.2330110795,
				"element": "H" 
			},
			{
				"x": -1.6328672122,
				"y": 3.7452559737,
				"z": 2.0243105919,
				"element": "H" 
			},
			{
				"x": -0.0955614986,
				"y": 2.9166426849,
				"z": 2.3546989277,
				"element": "H" 
			},
			{
				"x": -0.6433893727,
				"y": 3.1332085982,
				"z": 0.6744482902,
				"element": "H" 
			},
			{
				"x": -2.8361348159,
				"y": -0.6646353429,
				"z": -0.4845278609,
				"element": "H" 
			},
			{
				"x": -3.6837844032,
				"y": -1.9961957812,
				"z": -1.8340883697,
				"element": "H" 
			},
			{
				"x": -2.6271014889,
				"y": 2.1375522959,
				"z": -5.2889651068,
				"element": "H" 
			},
			{
				"x": -1.4147003018,
				"y": 0.8548380532,
				"z": -5.0566342158,
				"element": "H" 
			},
			{
				"x": -3.0875480931,
				"y": 0.4218713155,
				"z": -5.3066147181,
				"element": "H" 
			},
			{
				"x": -2.9240352344,
				"y": 3.3606541354,
				"z": -3.3599806395,
				"element": "H" 
			},
			{
				"x": -3.2795994147,
				"y": 3.5716145135,
				"z": -0.9109164575,
				"element": "H" 
			}
		],
		 "valence_orbital": [ 
			{
				"type": "occ",
				"energy": -0.28496,
				"method": "rhf"
			},
			{
				"type": "occ",
				"energy": -0.27665,
				"method": "rhf"
			},
			{
				"type": "occ",
				"energy": -0.26643,
				"method": "rhf"
			},
			{
				"type": "occ",
				"energy": -0.258,
				"method": "rhf"
			},
			{
				"type": "occ",
				"energy": -0.21885,
				"method": "rhf"
			},
			{
				"type": "unocc",
				"energy": -0.06243,
				"method": "rhf"
			},
			{
				"type": "unocc",
				"energy": -0.04623,
				"method": "rhf"
			},
			{
				"type": "unocc",
				"energy": -0.01157,
				"method": "rhf"
			},
			{
				"type": "unocc",
				"energy": -0.00349,
				"method": "rhf"
			},
			{
				"type": "unocc",
				"energy": 0.02618,
				"method": "rhf"
			}
		],
		"cosmo_sigma_profile": { 
			"-0.025": 0.0,
			"-0.024": 0.0,
			"-0.023": 0.0,
			"-0.022": 0.0,
			"-0.021": 0.0,
			"-0.02": 0.0,
			"-0.019": 0.361884924002,
			"-0.018": 1.04297351858,
			"-0.017": 0.964180943204,
			"-0.016": 1.00608006388,
			"-0.015": 0.945883140768,
			"-0.014": 0.945919692883,
			"-0.013": 1.04411774476,
			"-0.012": 0.861260342203,
			"-0.011": 0.861781421386,
			"-0.01": 0.877689588335,
			"-0.009": 1.19398183269,
			"-0.008": 1.9298146903,
			"-0.007": 8.57177516671,
			"-0.006": 17.8189899043,
			"-0.005": 28.1028838621,
			"-0.004": 35.8919296737,
			"-0.003": 33.9171850024,
			"-0.002": 31.3127676721,
			"-0.001": 30.2546012199,
			"0.0": 30.2330721175,
			"0.001": 23.8875710523,
			"0.002": 18.9083269907,
			"0.003": 18.2684648555,
			"0.004": 17.1133605312,
			"0.005": 10.3472831864,
			"0.006": 8.08495868949,
			"0.007": 7.62342802709,
			"0.008": 7.17360876519,
			"0.009": 10.0638625878,
			"0.01": 12.2752271163,
			"0.011": 11.3799308837,
			"0.012": 4.27938379171,
			"0.013": 0.966912951954,
			"0.014": 0.0,
			"0.015": 0.0,
			"0.016": 0.0,
			"0.017": 0.0,
			"0.018": 0.0,
			"0.019": 0.0,
			"0.02": 0.0,
			"0.021": 0.0,
			"0.022": 0.0,
			"0.023": 0.0,
			"0.024": 0.0,
			"0.0": 0.0
		}
	}
}
