{
	 "smiles": "BrCC1=CC(=CC=C1)C1=CSC=C1", 
	 "Tm": 343.15, 
	 "num_atms": 22, 
	 "gaussian": { 
		 "optdone": 1, 
		 "sigma_profile": "yes", 
		 "theory": "DFT", 
		 "functional": "B3LYP", 
		 "basiset": "6-31G**", 
		 "properties": { 
			 "R2extent": 5532.334, 
			 "electric_dipole_moment_norm": 1.9436839172, 
			 "electric_quadrupole_moment_norm": 11.7757531067, 
			 "total_energy": -3394.18305194, 
			 "HOMO_LUMO_gap": 0.18232, 
			 "cosmo_polarized_energy": -8.21, 
			 "cosmo_cavitation_energy": 30.1, 
			 "cosmo_dispersion_energy": -22.59, 
			 "cosmo_repulsion_energy": 1.74, 
			 "cosmo_total_nonelectrostatic_energy": 9.25, 
			 "SMD_solvation_energy": 3.79 
		},
		"coords": [
			{
				"x": -1.6697281748,
				"y": 1.0238747169,
				"z": -2.9502375307,
				"element": "Br" 
			},
			{
				"x": 0.0699531652,
				"y": 0.2264824033,
				"z": -2.3375426448,
				"element": "C" 
			},
			{
				"x": -0.0320019621,
				"y": -0.3778813802,
				"z": -0.9751118313,
				"element": "C" 
			},
			{
				"x": 0.2193579431,
				"y": 0.3991377677,
				"z": 0.1614829983,
				"element": "C" 
			},
			{
				"x": 0.1503195614,
				"y": -0.1458647091,
				"z": 1.4522385557,
				"element": "C" 
			},
			{
				"x": -0.1836795265,
				"y": -1.5052616206,
				"z": 1.5818417321,
				"element": "C" 
			},
			{
				"x": -0.4299205015,
				"y": -2.2887386043,
				"z": 0.4562879184,
				"element": "C" 
			},
			{
				"x": -0.3583803357,
				"y": -1.7313311399,
				"z": -0.8196142715,
				"element": "C" 
			},
			{
				"x": 0.4278351864,
				"y": 0.6905358357,
				"z": 2.6388984302,
				"element": "C" 
			},
			{
				"x": 1.001743072,
				"y": 0.227193844,
				"z": 3.8008191639,
				"element": "C" 
			},
			{
				"x": 1.188835441,
				"y": 1.4740338369,
				"z": 4.9852381696,
				"element": "S" 
			},
			{
				"x": 0.4850281772,
				"y": 2.6500010063,
				"z": 3.9219194897,
				"element": "C" 
			},
			{
				"x": 0.1354716489,
				"y": 2.0967231086,
				"z": 2.7245619726,
				"element": "C" 
			},
			{
				"x": 0.3113828199,
				"y": -0.5048594443,
				"z": -3.1065171882,
				"element": "H" 
			},
			{
				"x": 0.7705623091,
				"y": 1.0583503485,
				"z": -2.3797095166,
				"element": "H" 
			},
			{
				"x": 0.4910943373,
				"y": 1.4437656657,
				"z": 0.0369516382,
				"element": "H" 
			},
			{
				"x": -0.271980444,
				"y": -1.9407536351,
				"z": 2.5725398955,
				"element": "H" 
			},
			{
				"x": -0.6889366572,
				"y": -3.3367646928,
				"z": 0.5752950209,
				"element": "H" 
			},
			{
				"x": -0.5606615233,
				"y": -2.3417331116,
				"z": -1.6955168993,
				"element": "H" 
			},
			{
				"x": 1.3594865571,
				"y": -0.7711091616,
				"z": 4.0101660176,
				"element": "H" 
			},
			{
				"x": 0.3566945484,
				"y": 3.6717822647,
				"z": 4.2506775777,
				"element": "H" 
			},
			{
				"x": -0.347075642,
				"y": 2.6561167013,
				"z": 1.9314313021,
				"element": "H" 
			}
		],
		 "valence_orbital": [ 
			{
				"type": "occ",
				"energy": -0.27286,
				"method": "rhf"
			},
			{
				"type": "occ",
				"energy": -0.2685,
				"method": "rhf"
			},
			{
				"type": "occ",
				"energy": -0.25226,
				"method": "rhf"
			},
			{
				"type": "occ",
				"energy": -0.24698,
				"method": "rhf"
			},
			{
				"type": "occ",
				"energy": -0.224,
				"method": "rhf"
			},
			{
				"type": "unocc",
				"energy": -0.04168,
				"method": "rhf"
			},
			{
				"type": "unocc",
				"energy": -0.02812,
				"method": "rhf"
			},
			{
				"type": "unocc",
				"energy": -0.00358,
				"method": "rhf"
			},
			{
				"type": "unocc",
				"energy": 0.02586,
				"method": "rhf"
			},
			{
				"type": "unocc",
				"energy": 0.02953,
				"method": "rhf"
			}
		],
		"cosmo_sigma_profile": { 
			"-0.025": 0.0,
			"-0.024": 0.0,
			"-0.023": 0.0,
			"-0.022": 0.0,
			"-0.021": 0.0,
			"-0.02": 0.0,
			"-0.019": 0.0,
			"-0.018": 0.0,
			"-0.017": 0.0,
			"-0.016": 0.0,
			"-0.015": 0.0,
			"-0.014": 0.0,
			"-0.013": 0.0,
			"-0.012": 0.0,
			"-0.011": 0.0,
			"-0.01": 0.0,
			"-0.009": 0.402382677458,
			"-0.008": 5.31218598431,
			"-0.007": 12.1705421895,
			"-0.006": 18.464411454,
			"-0.005": 16.0456968117,
			"-0.004": 16.5763434844,
			"-0.003": 13.1708055503,
			"-0.002": 12.7916884366,
			"-0.001": 13.2670024351,
			"0.0": 12.9477206748,
			"0.001": 15.7241549623,
			"0.002": 17.1066139043,
			"0.003": 22.5584545819,
			"0.004": 30.3579136063,
			"0.005": 21.810713292,
			"0.006": 12.3351225285,
			"0.007": 5.84298727338,
			"0.008": 0.0,
			"0.009": 0.0,
			"0.01": 0.0,
			"0.011": 0.0,
			"0.012": 0.0,
			"0.013": 0.0,
			"0.014": 0.0,
			"0.015": 0.0,
			"0.016": 0.0,
			"0.017": 0.0,
			"0.018": 0.0,
			"0.019": 0.0,
			"0.02": 0.0,
			"0.021": 0.0,
			"0.022": 0.0,
			"0.023": 0.0,
			"0.024": 0.0,
			"0.025": 0.0
		}
	}
}
