{
	 "smiles": "C(NC1=CC=CC=N1)C1=CC=CC=C1", 
	 "Tm": 368.15, 
	 "num_atms": 26, 
	 "gaussian": { 
		 "optdone": 1, 
		 "sigma_profile": "yes", 
		 "theory": "DFT", 
		 "functional": "B3LYP", 
		 "basiset": "6-31G**", 
		 "properties": { 
			 "R2extent": 3625.2316, 
			 "electric_dipole_moment_norm": 1.72588625929, 
			 "electric_quadrupole_moment_norm": 6.76342742994, 
			 "total_energy": -574.016424094, 
			 "HOMO_LUMO_gap": 0.18899, 
			 "cosmo_polarized_energy": -8.91, 
			 "cosmo_cavitation_energy": 29.68, 
			 "cosmo_dispersion_energy": -21.53, 
			 "cosmo_repulsion_energy": 1.7, 
			 "cosmo_total_nonelectrostatic_energy": 9.85, 
			 "SMD_solvation_energy": 3.61 
		},
		"coords": [
			{
				"x": -0.5166137959,
				"y": 1.2112618928,
				"z": -0.6720341249,
				"element": "C" 
			},
			{
				"x": 0.849842186,
				"y": 1.443983151,
				"z": -1.1348935261,
				"element": "N" 
			},
			{
				"x": 1.9523381989,
				"y": 1.3893273029,
				"z": -0.3079565476,
				"element": "C" 
			},
			{
				"x": 3.2540435745,
				"y": 1.424542357,
				"z": -0.864445233,
				"element": "C" 
			},
			{
				"x": 4.3411703526,
				"y": 1.4200750964,
				"z": -0.0082742301,
				"element": "C" 
			},
			{
				"x": 4.1317680261,
				"y": 1.3835400474,
				"z": 1.3773404299,
				"element": "C" 
			},
			{
				"x": 2.8161212014,
				"y": 1.3458282107,
				"z": 1.8233029595,
				"element": "C" 
			},
			{
				"x": 1.7447616151,
				"y": 1.3417714759,
				"z": 1.0177972737,
				"element": "N" 
			},
			{
				"x": -0.9794175408,
				"y": -0.2297600146,
				"z": -0.8063451538,
				"element": "C" 
			},
			{
				"x": -1.8657938835,
				"y": -0.6026505493,
				"z": -1.8233286433,
				"element": "C" 
			},
			{
				"x": -2.2751382497,
				"y": -1.9309023513,
				"z": -1.9655839643,
				"element": "C" 
			},
			{
				"x": -1.7989444797,
				"y": -2.904315093,
				"z": -1.0873099532,
				"element": "C" 
			},
			{
				"x": -0.9154107993,
				"y": -2.542256599,
				"z": -0.0661895011,
				"element": "C" 
			},
			{
				"x": -0.5091994301,
				"y": -1.2160104974,
				"z": 0.0744345248,
				"element": "C" 
			},
			{
				"x": -1.1848707259,
				"y": 1.865342232,
				"z": -1.2439612223,
				"element": "H" 
			},
			{
				"x": -0.5479313624,
				"y": 1.5288660837,
				"z": 0.3715045008,
				"element": "H" 
			},
			{
				"x": 1.026346951,
				"y": 1.2376887516,
				"z": -2.1074332811,
				"element": "H" 
			},
			{
				"x": 3.3872166144,
				"y": 1.4610270946,
				"z": -1.9421215677,
				"element": "H" 
			},
			{
				"x": 5.3489758847,
				"y": 1.445975127,
				"z": -0.4139266177,
				"element": "H" 
			},
			{
				"x": 4.9581637096,
				"y": 1.3790091358,
				"z": 2.0793832245,
				"element": "H" 
			},
			{
				"x": 2.5984412551,
				"y": 1.3104854291,
				"z": 2.8899896335,
				"element": "H" 
			},
			{
				"x": -2.2443466334,
				"y": 0.1543900655,
				"z": -2.5071549134,
				"element": "H" 
			},
			{
				"x": -2.9659140402,
				"y": -2.2025519647,
				"z": -2.7591139648,
				"element": "H" 
			},
			{
				"x": -2.1162459656,
				"y": -3.9378792514,
				"z": -1.1936204232,
				"element": "H" 
			},
			{
				"x": -0.5469486436,
				"y": -3.2953823977,
				"z": 0.625053936,
				"element": "H" 
			},
			{
				"x": 0.1734859808,
				"y": -0.9306047351,
				"z": 0.869586385,
				"element": "H" 
			}
		],
		 "valence_orbital": [ 
			{
				"type": "occ",
				"energy": -0.27449,
				"method": "rhf"
			},
			{
				"type": "occ",
				"energy": -0.254,
				"method": "rhf"
			},
			{
				"type": "occ",
				"energy": -0.2457,
				"method": "rhf"
			},
			{
				"type": "occ",
				"energy": -0.24015,
				"method": "rhf"
			},
			{
				"type": "occ",
				"energy": -0.2008,
				"method": "rhf"
			},
			{
				"type": "unocc",
				"energy": -0.01181,
				"method": "rhf"
			},
			{
				"type": "unocc",
				"energy": -0.00267,
				"method": "rhf"
			},
			{
				"type": "unocc",
				"energy": 0.0036,
				"method": "rhf"
			},
			{
				"type": "unocc",
				"energy": 0.01805,
				"method": "rhf"
			},
			{
				"type": "unocc",
				"energy": 0.08848,
				"method": "rhf"
			}
		],
		"cosmo_sigma_profile": { 
			"-0.025": 0.0,
			"-0.024": 0.0,
			"-0.023": 0.0,
			"-0.022": 0.0,
			"-0.021": 0.0,
			"-0.02": 0.0,
			"-0.019": 0.0,
			"-0.018": 0.0,
			"-0.017": 0.0,
			"-0.016": 0.0,
			"-0.015": 0.0,
			"-0.014": 0.0253184843784,
			"-0.013": 0.722354509618,
			"-0.012": 1.42498365162,
			"-0.011": 1.39819352928,
			"-0.01": 0.828848744075,
			"-0.009": 1.68260319682,
			"-0.008": 1.75514064563,
			"-0.007": 2.4884014145,
			"-0.006": 8.15941940787,
			"-0.005": 20.3625985965,
			"-0.004": 20.9382228154,
			"-0.003": 20.7216274269,
			"-0.002": 17.1085097524,
			"-0.001": 16.0306422992,
			"0.0": 12.5546117595,
			"0.001": 13.18175954,
			"0.002": 16.856211141,
			"0.003": 17.6345314173,
			"0.004": 22.2899595026,
			"0.005": 19.0247641456,
			"0.006": 11.4348202464,
			"0.007": 3.62266729388,
			"0.008": 1.81651118193,
			"0.009": 2.14935977556,
			"0.01": 0.971153154038,
			"0.011": 0.629087108945,
			"0.012": 0.817878655665,
			"0.013": 0.389985569372,
			"0.014": 0.0,
			"0.015": 0.0,
			"0.016": 0.0,
			"0.017": 0.0,
			"0.018": 0.0,
			"0.019": 0.0,
			"0.02": 0.0,
			"0.021": 0.0,
			"0.022": 0.0,
			"0.023": 0.0,
			"0.024": 0.0,
			"0.025": 0.0
		}
	}
}
