{
	 "smiles": "CCC(=O)C1=CC=C(OC2=CC=CC=C2)C=C1", 
	 "Tm": 313.15, 
	 "num_atms": 31, 
	 "gaussian": { 
		 "optdone": 1, 
		 "sigma_profile": "yes", 
		 "theory": "DFT", 
		 "functional": "B3LYP", 
		 "basiset": "6-31G**", 
		 "properties": { 
			 "R2extent": 6720.137, 
			 "electric_dipole_moment_norm": 4.19905687149, 
			 "electric_quadrupole_moment_norm": 11.5527993915, 
			 "total_energy": -730.480259543, 
			 "HOMO_LUMO_gap": 0.1802, 
			 "cosmo_polarized_energy": -10.12, 
			 "cosmo_cavitation_energy": 35.21, 
			 "cosmo_dispersion_energy": -25.1, 
			 "cosmo_repulsion_energy": 1.95, 
			 "cosmo_total_nonelectrostatic_energy": 12.07, 
			 "SMD_solvation_energy": 6.74 
		},
		"coords": [
			{
				"x": 1.201090482,
				"y": -4.5047476908,
				"z": 2.2423768845,
				"element": "C" 
			},
			{
				"x": 0.2428556805,
				"y": -3.4604966881,
				"z": 2.8468885999,
				"element": "C" 
			},
			{
				"x": 0.9836841442,
				"y": -2.197221304,
				"z": 3.2755416815,
				"element": "C" 
			},
			{
				"x": 1.3406720452,
				"y": -2.0689396166,
				"z": 4.4398494618,
				"element": "O" 
			},
			{
				"x": 1.3054989796,
				"y": -1.1446181248,
				"z": 2.263686402,
				"element": "C" 
			},
			{
				"x": 0.9127319881,
				"y": -1.2132190582,
				"z": 0.9185166317,
				"element": "C" 
			},
			{
				"x": 1.2391810726,
				"y": -0.2028707462,
				"z": 0.0158630584,
				"element": "C" 
			},
			{
				"x": 1.969074959,
				"y": 0.9038566515,
				"z": 0.4630087023,
				"element": "C" 
			},
			{
				"x": 2.3753032771,
				"y": 1.9302738098,
				"z": -0.3516069253,
				"element": "O" 
			},
			{
				"x": 1.7638776671,
				"y": 2.1508131585,
				"z": -1.5776188357,
				"element": "C" 
			},
			{
				"x": 2.5740433992,
				"y": 2.161566368,
				"z": -2.7123478651,
				"element": "C" 
			},
			{
				"x": 2.0101727798,
				"y": 2.4699811672,
				"z": -3.9515703136,
				"element": "C" 
			},
			{
				"x": 0.6479596987,
				"y": 2.7580565564,
				"z": -4.0544919556,
				"element": "C" 
			},
			{
				"x": -0.1519250727,
				"y": 2.7449501874,
				"z": -2.9088755594,
				"element": "C" 
			},
			{
				"x": 0.401043901,
				"y": 2.4464474362,
				"z": -1.6633765031,
				"element": "C" 
			},
			{
				"x": 2.3750108267,
				"y": 0.9906064421,
				"z": 1.8026565972,
				"element": "C" 
			},
			{
				"x": 2.0455302234,
				"y": -0.0245749598,
				"z": 2.6859523524,
				"element": "C" 
			},
			{
				"x": 1.9865741158,
				"y": -4.7621428997,
				"z": 2.9591300736,
				"element": "H" 
			},
			{
				"x": 0.6597614657,
				"y": -5.4211213615,
				"z": 1.9883442605,
				"element": "H" 
			},
			{
				"x": 1.6840915178,
				"y": -4.1336201039,
				"z": 1.3331624604,
				"element": "H" 
			},
			{
				"x": -0.2208334861,
				"y": -3.8657187101,
				"z": 3.7501293095,
				"element": "H" 
			},
			{
				"x": -0.5572043115,
				"y": -3.2267074002,
				"z": 2.1360853068,
				"element": "H" 
			},
			{
				"x": 0.3478115671,
				"y": -2.0649965777,
				"z": 0.5543449043,
				"element": "H" 
			},
			{
				"x": 0.9347517339,
				"y": -0.2737805532,
				"z": -1.0217475127,
				"element": "H" 
			},
			{
				"x": 3.6302927713,
				"y": 1.9365593141,
				"z": -2.608293739,
				"element": "H" 
			},
			{
				"x": 2.6387010144,
				"y": 2.4819578532,
				"z": -4.8371677942,
				"element": "H" 
			},
			{
				"x": 0.2122258327,
				"y": 2.9956700913,
				"z": -5.0200849488,
				"element": "H" 
			},
			{
				"x": -1.2105176795,
				"y": 2.9769624679,
				"z": -2.981018661,
				"element": "H" 
			},
			{
				"x": -0.207988609,
				"y": 2.4466333754,
				"z": -0.7653128815,
				"element": "H" 
			},
			{
				"x": 2.9434935732,
				"y": 1.8587176974,
				"z": 2.1196034139,
				"element": "H" 
			},
			{
				"x": 2.3468344427,
				"y": 0.0229232183,
				"z": 3.7269733941,
				"element": "H" 
			}
		],
		 "valence_orbital": [ 
			{
				"type": "occ",
				"energy": -0.2651,
				"method": "rhf"
			},
			{
				"type": "occ",
				"energy": -0.2606,
				"method": "rhf"
			},
			{
				"type": "occ",
				"energy": -0.2562,
				"method": "rhf"
			},
			{
				"type": "occ",
				"energy": -0.23906,
				"method": "rhf"
			},
			{
				"type": "occ",
				"energy": -0.2285,
				"method": "rhf"
			},
			{
				"type": "unocc",
				"energy": -0.0483,
				"method": "rhf"
			},
			{
				"type": "unocc",
				"energy": -0.01847,
				"method": "rhf"
			},
			{
				"type": "unocc",
				"energy": -0.00761,
				"method": "rhf"
			},
			{
				"type": "unocc",
				"energy": -0.00598,
				"method": "rhf"
			},
			{
				"type": "unocc",
				"energy": 0.04755,
				"method": "rhf"
			}
		],
		"cosmo_sigma_profile": { 
			"-0.025": 0.0,
			"-0.024": 0.0,
			"-0.023": 0.0,
			"-0.022": 0.0,
			"-0.021": 0.0,
			"-0.02": 0.0,
			"-0.019": 0.0,
			"-0.018": 0.0,
			"-0.017": 0.0,
			"-0.016": 0.0,
			"-0.015": 0.0,
			"-0.014": 0.0,
			"-0.013": 0.0,
			"-0.012": 0.0,
			"-0.011": 0.0,
			"-0.01": 0.0,
			"-0.009": 0.0,
			"-0.008": 0.214745842975,
			"-0.007": 5.30554429487,
			"-0.006": 14.7995273465,
			"-0.005": 19.0871056486,
			"-0.004": 24.2322159653,
			"-0.003": 24.7550160117,
			"-0.002": 25.8989717987,
			"-0.001": 27.244015014,
			"0.0": 22.0727745677,
			"0.001": 21.6524320033,
			"0.002": 21.1080248158,
			"0.003": 24.1073939064,
			"0.004": 18.7471689745,
			"0.005": 9.55858623641,
			"0.006": 3.59156398447,
			"0.007": 2.77543690252,
			"0.008": 3.18169512834,
			"0.009": 1.19910759227,
			"0.01": 1.67479978915,
			"0.011": 2.69358021302,
			"0.012": 3.86752506566,
			"0.013": 2.49879327275,
			"0.014": 0.728821693065,
			"0.015": 0.0,
			"0.016": 0.0,
			"0.017": 0.0,
			"0.018": 0.0,
			"0.019": 0.0,
			"0.02": 0.0,
			"0.021": 0.0,
			"0.022": 0.0,
			"0.023": 0.0,
			"0.024": 0.0,
			"0.025": 0.0
		}
	}
}
