{
	 "smiles": "CC(C)C1=C2OCCC(=O)C2=C(C)C=C1", 
	 "Tm": 310.15, 
	 "num_atms": 31, 
	 "gaussian": { 
		 "optdone": 1, 
		 "sigma_profile": "yes", 
		 "theory": "DFT", 
		 "functional": "B3LYP", 
		 "basiset": "6-31G**", 
		 "properties": { 
			 "R2extent": 3647.1384, 
			 "electric_dipole_moment_norm": 2.07802535114, 
			 "electric_quadrupole_moment_norm": 12.6902181069, 
			 "total_energy": -655.490653126, 
			 "HOMO_LUMO_gap": 0.17123, 
			 "cosmo_polarized_energy": -7.64, 
			 "cosmo_cavitation_energy": 31.98, 
			 "cosmo_dispersion_energy": -22.99, 
			 "cosmo_repulsion_energy": 1.8, 
			 "cosmo_total_nonelectrostatic_energy": 10.79, 
			 "SMD_solvation_energy": 6.01 
		},
		"coords": [
			{
				"x": -2.5346918526,
				"y": 0.6372085292,
				"z": -0.2832762177,
				"element": "C" 
			},
			{
				"x": -1.2255027593,
				"y": 1.3232838477,
				"z": 0.1545412959,
				"element": "C" 
			},
			{
				"x": -1.2975048894,
				"y": 1.7958002578,
				"z": 1.6199804273,
				"element": "C" 
			},
			{
				"x": 0.0124311089,
				"y": 0.4811311621,
				"z": -0.135865931,
				"element": "C" 
			},
			{
				"x": 0.266838249,
				"y": -0.7645432336,
				"z": 0.4739880026,
				"element": "C" 
			},
			{
				"x": -0.6797934544,
				"y": -1.1967693199,
				"z": 1.3631503134,
				"element": "O" 
			},
			{
				"x": -0.699097557,
				"y": -2.598851696,
				"z": 1.6482094565,
				"element": "C" 
			},
			{
				"x": 0.679605223,
				"y": -3.0731397893,
				"z": 2.0652687656,
				"element": "C" 
			},
			{
				"x": 1.6961003525,
				"y": -2.7559477006,
				"z": 0.9746048498,
				"element": "C" 
			},
			{
				"x": 2.6673143819,
				"y": -3.4820591644,
				"z": 0.8081297747,
				"element": "O" 
			},
			{
				"x": 1.4381559508,
				"y": -1.5177371647,
				"z": 0.1971836575,
				"element": "C" 
			},
			{
				"x": 2.3712252342,
				"y": -1.0301228291,
				"z": -0.761495618,
				"element": "C" 
			},
			{
				"x": 3.6337287039,
				"y": -1.7692600242,
				"z": -1.132506632,
				"element": "C" 
			},
			{
				"x": 2.103875581,
				"y": 0.192345899,
				"z": -1.3718907396,
				"element": "C" 
			},
			{
				"x": 0.9601409649,
				"y": 0.9282313721,
				"z": -1.0547386925,
				"element": "C" 
			},
			{
				"x": -3.3802345786,
				"y": 1.3226972629,
				"z": -0.1579681036,
				"element": "H" 
			},
			{
				"x": -2.73068236,
				"y": -0.2566999628,
				"z": 0.3131011499,
				"element": "H" 
			},
			{
				"x": -2.4920548437,
				"y": 0.3437066836,
				"z": -1.3371914347,
				"element": "H" 
			},
			{
				"x": -1.1176935105,
				"y": 2.2239241302,
				"z": -0.4645119473,
				"element": "H" 
			},
			{
				"x": -1.4239604317,
				"y": 0.9519054154,
				"z": 2.3020940181,
				"element": "H" 
			},
			{
				"x": -0.3863915041,
				"y": 2.3317282059,
				"z": 1.9052306686,
				"element": "H" 
			},
			{
				"x": -2.1455557602,
				"y": 2.4761022154,
				"z": 1.7563516611,
				"element": "H" 
			},
			{
				"x": -1.0404144086,
				"y": -3.1391199322,
				"z": 0.7529649113,
				"element": "H" 
			},
			{
				"x": -1.4437678283,
				"y": -2.7287889266,
				"z": 2.4365319614,
				"element": "H" 
			},
			{
				"x": 0.7017447402,
				"y": -4.1479878998,
				"z": 2.2635228633,
				"element": "H" 
			},
			{
				"x": 0.9868122394,
				"y": -2.5551695487,
				"z": 2.9839371791,
				"element": "H" 
			},
			{
				"x": 4.2841762541,
				"y": -1.9182429069,
				"z": -0.2664002861,
				"element": "H" 
			},
			{
				"x": 4.1810239893,
				"y": -1.2077200714,
				"z": -1.8951942572,
				"element": "H" 
			},
			{
				"x": 3.4194896335,
				"y": -2.7709194382,
				"z": -1.5142479021,
				"element": "H" 
			},
			{
				"x": 2.8037788233,
				"y": 0.5827028755,
				"z": -2.1050053579,
				"element": "H" 
			},
			{
				"x": 0.7919043088,
				"y": 1.8819117516,
				"z": -1.5496978363,
				"element": "H" 
			}
		],
		 "valence_orbital": [ 
			{
				"type": "occ",
				"energy": -0.3203,
				"method": "rhf"
			},
			{
				"type": "occ",
				"energy": -0.30748,
				"method": "rhf"
			},
			{
				"type": "occ",
				"energy": -0.2476,
				"method": "rhf"
			},
			{
				"type": "occ",
				"energy": -0.24016,
				"method": "rhf"
			},
			{
				"type": "occ",
				"energy": -0.22281,
				"method": "rhf"
			},
			{
				"type": "unocc",
				"energy": -0.05158,
				"method": "rhf"
			},
			{
				"type": "unocc",
				"energy": 0.00372,
				"method": "rhf"
			},
			{
				"type": "unocc",
				"energy": 0.04111,
				"method": "rhf"
			},
			{
				"type": "unocc",
				"energy": 0.08845,
				"method": "rhf"
			},
			{
				"type": "unocc",
				"energy": 0.09667,
				"method": "rhf"
			}
		],
		"cosmo_sigma_profile": { 
			"-0.025": 0.0,
			"-0.024": 0.0,
			"-0.023": 0.0,
			"-0.022": 0.0,
			"-0.021": 0.0,
			"-0.02": 0.0,
			"-0.019": 0.0,
			"-0.018": 0.0,
			"-0.017": 0.0,
			"-0.016": 0.0,
			"-0.015": 0.0,
			"-0.014": 0.0,
			"-0.013": 0.0,
			"-0.012": 0.0,
			"-0.011": 0.0,
			"-0.01": 0.0,
			"-0.009": 0.0,
			"-0.008": 0.0,
			"-0.007": 0.872454582477,
			"-0.006": 10.7476186274,
			"-0.005": 18.5458862859,
			"-0.004": 17.9324458926,
			"-0.003": 20.0272954429,
			"-0.002": 24.3594883719,
			"-0.001": 25.7105939763,
			"0.0": 27.5054573889,
			"0.001": 32.0788131588,
			"0.002": 23.7752855977,
			"0.003": 12.6920463338,
			"0.004": 11.4346539079,
			"0.005": 8.88451861211,
			"0.006": 2.09760723678,
			"0.007": 1.87939412759,
			"0.008": 1.83399243459,
			"0.009": 1.14944188239,
			"0.01": 1.60449554241,
			"0.011": 1.99117938397,
			"0.012": 2.92576045393,
			"0.013": 2.34229477595,
			"0.014": 0.614470520619,
			"0.015": 0.0,
			"0.016": 0.0,
			"0.017": 0.0,
			"0.018": 0.0,
			"0.019": 0.0,
			"0.02": 0.0,
			"0.021": 0.0,
			"0.022": 0.0,
			"0.023": 0.0,
			"0.024": 0.0,
			"0.025": 0.0
		}
	}
}
