{
	 "smiles": "CN1C=C(NC2=CC(N)=CC=C2)C=N1", 
	 "Tm": 366.15, 
	 "num_atms": 26, 
	 "gaussian": { 
		 "optdone": 1, 
		 "sigma_profile": "yes", 
		 "theory": "DFT", 
		 "functional": "B3LYP", 
		 "basiset": "6-31G**", 
		 "properties": { 
			 "R2extent": 4416.6625, 
			 "electric_dipole_moment_norm": 1.92144602058, 
			 "electric_quadrupole_moment_norm": 18.9188631313, 
			 "total_energy": -607.275881727, 
			 "HOMO_LUMO_gap": 0.193, 
			 "cosmo_polarized_energy": -15.77, 
			 "cosmo_cavitation_energy": 30.03, 
			 "cosmo_dispersion_energy": -21.98, 
			 "cosmo_repulsion_energy": 1.75, 
			 "cosmo_total_nonelectrostatic_energy": 9.79, 
			 "SMD_solvation_energy": 4.43 
		},
		"coords": [
			{
				"x": -0.5379249596,
				"y": -0.8889411566,
				"z": -4.356822822,
				"element": "C" 
			},
			{
				"x": -0.897191471,
				"y": -0.2268712789,
				"z": -3.1181640825,
				"element": "N" 
			},
			{
				"x": -1.8858682447,
				"y": -0.568365879,
				"z": -2.2470186549,
				"element": "C" 
			},
			{
				"x": -1.7866769425,
				"y": 0.3004088729,
				"z": -1.1692963348,
				"element": "C" 
			},
			{
				"x": -2.6558519515,
				"y": 0.3603164919,
				"z": -0.068428842,
				"element": "N" 
			},
			{
				"x": -2.2840577805,
				"y": 0.60701977,
				"z": 1.2536468619,
				"element": "C" 
			},
			{
				"x": -0.9677124392,
				"y": 0.4166408892,
				"z": 1.6981664089,
				"element": "C" 
			},
			{
				"x": -0.6267338322,
				"y": 0.6409559368,
				"z": 3.0402113628,
				"element": "C" 
			},
			{
				"x": 0.6771858803,
				"y": 0.3894628108,
				"z": 3.4794213231,
				"element": "N" 
			},
			{
				"x": -1.6145339229,
				"y": 1.0580725118,
				"z": 3.9489804315,
				"element": "C" 
			},
			{
				"x": -2.9211425347,
				"y": 1.2373523866,
				"z": 3.5002720175,
				"element": "C" 
			},
			{
				"x": -3.2688111515,
				"y": 1.0224208416,
				"z": 2.1700839313,
				"element": "C" 
			},
			{
				"x": -0.6746787883,
				"y": 1.1230491634,
				"z": -1.4882946355,
				"element": "C" 
			},
			{
				"x": -0.1335336252,
				"y": 0.7864533011,
				"z": -2.6583768359,
				"element": "N" 
			},
			{
				"x": 0.1452900133,
				"y": -1.7270343603,
				"z": -4.1796957669,
				"element": "H" 
			},
			{
				"x": -1.4397057034,
				"y": -1.2604229029,
				"z": -4.8493419583,
				"element": "H" 
			},
			{
				"x": -0.0459989098,
				"y": -0.1591083409,
				"z": -5.000567446,
				"element": "H" 
			},
			{
				"x": -2.5800109779,
				"y": -1.370979393,
				"z": -2.4491411383,
				"element": "H" 
			},
			{
				"x": -3.630483102,
				"y": 0.51631226,
				"z": -0.2768516251,
				"element": "H" 
			},
			{
				"x": -0.2088924497,
				"y": 0.0711126446,
				"z": 1.0035145565,
				"element": "H" 
			},
			{
				"x": 1.3872490008,
				"y": 0.4518774326,
				"z": 2.7625633321,
				"element": "H" 
			},
			{
				"x": 0.9456687164,
				"y": 0.891168856,
				"z": 4.3148400152,
				"element": "H" 
			},
			{
				"x": -1.3571599595,
				"y": 1.2306698747,
				"z": 4.990332258,
				"element": "H" 
			},
			{
				"x": -3.6851983336,
				"y": 1.5607375856,
				"z": 4.2023822596,
				"element": "H" 
			},
			{
				"x": -4.2909500531,
				"y": 1.1769417778,
				"z": 1.8339920163,
				"element": "H" 
			},
			{
				"x": -0.2583764782,
				"y": 1.9363499041,
				"z": -0.9105066323,
				"element": "H" 
			}
		],
		 "valence_orbital": [ 
			{
				"type": "occ",
				"energy": -0.27548,
				"method": "rhf"
			},
			{
				"type": "occ",
				"energy": -0.24673,
				"method": "rhf"
			},
			{
				"type": "occ",
				"energy": -0.24072,
				"method": "rhf"
			},
			{
				"type": "occ",
				"energy": -0.19742,
				"method": "rhf"
			},
			{
				"type": "occ",
				"energy": -0.17587,
				"method": "rhf"
			},
			{
				"type": "unocc",
				"energy": 0.01713,
				"method": "rhf"
			},
			{
				"type": "unocc",
				"energy": 0.02104,
				"method": "rhf"
			},
			{
				"type": "unocc",
				"energy": 0.0357,
				"method": "rhf"
			},
			{
				"type": "unocc",
				"energy": 0.0709,
				"method": "rhf"
			},
			{
				"type": "unocc",
				"energy": 0.08982,
				"method": "rhf"
			}
		],
		"cosmo_sigma_profile": { 
			"-0.025": 0.0,
			"-0.024": 0.0,
			"-0.023": 0.0,
			"-0.022": 0.0,
			"-0.021": 0.0,
			"-0.02": 0.0,
			"-0.019": 0.0,
			"-0.018": 0.0,
			"-0.017": 0.0,
			"-0.016": 0.0,
			"-0.015": 0.0,
			"-0.014": 0.0836827371515,
			"-0.013": 0.787046787907,
			"-0.012": 2.83183241806,
			"-0.011": 3.62347452121,
			"-0.01": 3.66821287748,
			"-0.009": 5.38257449032,
			"-0.008": 6.66422285283,
			"-0.007": 8.33235575306,
			"-0.006": 12.7916907513,
			"-0.005": 15.0777010019,
			"-0.004": 17.6983564644,
			"-0.003": 18.2658266767,
			"-0.002": 14.7307294435,
			"-0.001": 11.7131881342,
			"0.0": 11.2549492706,
			"0.001": 9.11241505995,
			"0.002": 10.2210129577,
			"0.003": 11.6190064959,
			"0.004": 13.1688966618,
			"0.005": 12.1851132088,
			"0.006": 10.8028230772,
			"0.007": 12.5780936796,
			"0.008": 10.8839050661,
			"0.009": 3.1647440802,
			"0.01": 1.39071626999,
			"0.011": 2.81489669208,
			"0.012": 1.67079167144,
			"0.013": 2.25781537611,
			"0.014": 1.13529512724,
			"0.015": 1.87435229017,
			"0.016": 0.666162350969,
			"0.017": 0.0512876739597,
			"0.018": 0.0,
			"0.019": 0.0,
			"0.02": 0.0,
			"0.021": 0.0,
			"0.022": 0.0,
			"0.023": 0.0,
			"0.024": 0.0,
			"0.025": 0.0
		}
	}
}
