{
	 "smiles": "NC1=CC=C(C=C1)C1=CN2C=CSC2=N1", 
	 "Tm": 473.15, 
	 "num_atms": 24, 
	 "gaussian": { 
		 "optdone": 1, 
		 "sigma_profile": "yes", 
		 "theory": "DFT", 
		 "functional": "B3LYP", 
		 "basiset": "6-31G**", 
		 "properties": { 
			 "R2extent": 5160.2741, 
			 "electric_dipole_moment_norm": 3.04841796019, 
			 "electric_quadrupole_moment_norm": 26.9518278864, 
			 "total_energy": -987.01807259, 
			 "HOMO_LUMO_gap": 0.16238, 
			 "cosmo_polarized_energy": -16.4, 
			 "cosmo_cavitation_energy": 30.07, 
			 "cosmo_dispersion_energy": -23.14, 
			 "cosmo_repulsion_energy": 1.72, 
			 "cosmo_total_nonelectrostatic_energy": 8.65, 
			 "SMD_solvation_energy": 3.97 
		},
		"coords": [
			{
				"x": 2.747934374,
				"y": -4.1370270932,
				"z": -2.2363597884,
				"element": "N" 
			},
			{
				"x": 2.0142843288,
				"y": -2.9827874925,
				"z": -1.9516779524,
				"element": "C" 
			},
			{
				"x": 1.0051981806,
				"y": -2.9906713728,
				"z": -0.9733715366,
				"element": "C" 
			},
			{
				"x": 0.316028979,
				"y": -1.8279324015,
				"z": -0.652013329,
				"element": "C" 
			},
			{
				"x": 0.6021320244,
				"y": -0.6098708385,
				"z": -1.2905974646,
				"element": "C" 
			},
			{
				"x": 1.6110521218,
				"y": -0.6083796369,
				"z": -2.2680916121,
				"element": "C" 
			},
			{
				"x": 2.3053345673,
				"y": -1.7668600958,
				"z": -2.5949064143,
				"element": "C" 
			},
			{
				"x": -0.1407666501,
				"y": 0.6037727402,
				"z": -0.9339303244,
				"element": "C" 
			},
			{
				"x": 0.0229989193,
				"y": 1.8911777473,
				"z": -1.4215062641,
				"element": "C" 
			},
			{
				"x": -0.9237530853,
				"y": 2.6572804356,
				"z": -0.7598893469,
				"element": "N" 
			},
			{
				"x": -1.3616599963,
				"y": 3.9736821815,
				"z": -0.7060866642,
				"element": "C" 
			},
			{
				"x": -2.374691947,
				"y": 4.1419794662,
				"z": 0.1736195643,
				"element": "C" 
			},
			{
				"x": -2.8329633773,
				"y": 2.6439449949,
				"z": 0.9863364394,
				"element": "S" 
			},
			{
				"x": -1.5950331734,
				"y": 1.7903804068,
				"z": 0.0811262621,
				"element": "C" 
			},
			{
				"x": -1.1620768279,
				"y": 0.5588601457,
				"z": 0.0103059971,
				"element": "N" 
			},
			{
				"x": 3.1715824675,
				"y": -4.1595060953,
				"z": -3.153991703,
				"element": "H" 
			},
			{
				"x": 2.2772031443,
				"y": -5.0053346296,
				"z": -2.020634261,
				"element": "H" 
			},
			{
				"x": 0.7656887467,
				"y": -3.9195049079,
				"z": -0.4606270597,
				"element": "H" 
			},
			{
				"x": -0.462716886,
				"y": -1.8459654091,
				"z": 0.1026865258,
				"element": "H" 
			},
			{
				"x": 1.8597115337,
				"y": 0.3114046531,
				"z": -2.7907175851,
				"element": "H" 
			},
			{
				"x": 3.0840609631,
				"y": -1.7352017176,
				"z": -3.353379019,
				"element": "H" 
			},
			{
				"x": 0.6988255953,
				"y": 2.3189439678,
				"z": -2.1436487297,
				"element": "H" 
			},
			{
				"x": -0.8998647443,
				"y": 4.7292643998,
				"z": -1.3258838246,
				"element": "H" 
			},
			{
				"x": -2.8904092585,
				"y": 5.0624505519,
				"z": 0.4019380905,
				"element": "H" 
			}
		],
		 "valence_orbital": [ 
			{
				"type": "occ",
				"energy": -0.27181,
				"method": "rhf"
			},
			{
				"type": "occ",
				"energy": -0.24024,
				"method": "rhf"
			},
			{
				"type": "occ",
				"energy": -0.23886,
				"method": "rhf"
			},
			{
				"type": "occ",
				"energy": -0.21622,
				"method": "rhf"
			},
			{
				"type": "occ",
				"energy": -0.17963,
				"method": "rhf"
			},
			{
				"type": "unocc",
				"energy": -0.01725,
				"method": "rhf"
			},
			{
				"type": "unocc",
				"energy": 0.011,
				"method": "rhf"
			},
			{
				"type": "unocc",
				"energy": 0.01281,
				"method": "rhf"
			},
			{
				"type": "unocc",
				"energy": 0.01361,
				"method": "rhf"
			},
			{
				"type": "unocc",
				"energy": 0.05191,
				"method": "rhf"
			}
		],
		"cosmo_sigma_profile": { 
			"-0.025": 0.0,
			"-0.024": 0.0,
			"-0.023": 0.0,
			"-0.022": 0.0,
			"-0.021": 0.0,
			"-0.02": 0.0,
			"-0.019": 0.0,
			"-0.018": 0.0,
			"-0.017": 0.0,
			"-0.016": 0.0,
			"-0.015": 0.0,
			"-0.014": 0.0,
			"-0.013": 0.227391974033,
			"-0.012": 2.18501342839,
			"-0.011": 3.15461554479,
			"-0.01": 5.82166093156,
			"-0.009": 9.29074093668,
			"-0.008": 9.97572609677,
			"-0.007": 9.41687764768,
			"-0.006": 9.65997791197,
			"-0.005": 9.65296633519,
			"-0.004": 10.4988066078,
			"-0.003": 11.5374664416,
			"-0.002": 11.273081512,
			"-0.001": 11.514357272,
			"0.0": 17.3573632476,
			"0.001": 16.5733013874,
			"0.002": 17.2985010993,
			"0.003": 17.0068113135,
			"0.004": 15.9757444254,
			"0.005": 17.7387917034,
			"0.006": 14.5087213875,
			"0.007": 8.30296534803,
			"0.008": 3.39813929718,
			"0.009": 1.71040241565,
			"0.01": 1.66814781609,
			"0.011": 2.87116140249,
			"0.012": 1.61614879636,
			"0.013": 1.42544556718,
			"0.014": 2.11352784394,
			"0.015": 0.363464081615,
			"0.016": 0.0,
			"0.017": 0.0,
			"0.018": 0.0,
			"0.019": 0.0,
			"0.02": 0.0,
			"0.021": 0.0,
			"0.022": 0.0,
			"0.023": 0.0,
			"0.024": 0.0,
			"0.025": 0.0
		}
	}
}
