{
	 "smiles": "CC1=C(C=CC(=N1)C(O)=O)C#N", 
	 "Tm": 424.15, 
	 "num_atms": 18, 
	 "gaussian": { 
		 "optdone": 1, 
		 "sigma_profile": "yes", 
		 "theory": "DFT", 
		 "functional": "B3LYP", 
		 "basiset": "6-31G**", 
		 "properties": { 
			 "R2extent": 2504.3867, 
			 "electric_dipole_moment_norm": 1.7811980238, 
			 "electric_quadrupole_moment_norm": 27.4231251811, 
			 "total_energy": -568.420474208, 
			 "HOMO_LUMO_gap": 0.18187, 
			 "cosmo_polarized_energy": -14.36, 
			 "cosmo_cavitation_energy": 24.23, 
			 "cosmo_dispersion_energy": -17.16, 
			 "cosmo_repulsion_energy": 1.37, 
			 "cosmo_total_nonelectrostatic_energy": 8.44, 
			 "SMD_solvation_energy": 6.12 
		},
		"coords": [
			{
				"x": 0.3611657704,
				"y": 0.5424615577,
				"z": 2.0161520197,
				"element": "C" 
			},
			{
				"x": -0.0430074971,
				"y": 0.3627498173,
				"z": 0.5789997051,
				"element": "C" 
			},
			{
				"x": 0.7167817976,
				"y": -0.4317209598,
				"z": -0.3161262709,
				"element": "C" 
			},
			{
				"x": 0.2994964267,
				"y": -0.5694288722,
				"z": -1.6480201636,
				"element": "C" 
			},
			{
				"x": -0.8569714923,
				"y": 0.0803081591,
				"z": -2.0627292134,
				"element": "C" 
			},
			{
				"x": -1.5438837938,
				"y": 0.8406610262,
				"z": -1.1196259465,
				"element": "C" 
			},
			{
				"x": -1.1515816968,
				"y": 0.9777828584,
				"z": 0.1567494185,
				"element": "N" 
			},
			{
				"x": -2.8094194735,
				"y": 1.5749383711,
				"z": -1.499484049,
				"element": "C" 
			},
			{
				"x": -3.3583375694,
				"y": 2.2632534437,
				"z": -0.4895711531,
				"element": "O" 
			},
			{
				"x": -3.2749451904,
				"y": 1.5377139882,
				"z": -2.6152912133,
				"element": "O" 
			},
			{
				"x": 1.9040469542,
				"y": -1.0892235551,
				"z": 0.14033729,
				"element": "C" 
			},
			{
				"x": 2.8674156197,
				"y": -1.6197696295,
				"z": 0.5193078001,
				"element": "N" 
			},
			{
				"x": 1.3578618933,
				"y": 0.9901875238,
				"z": 2.0910318026,
				"element": "H" 
			},
			{
				"x": -0.3586683206,
				"y": 1.1872191207,
				"z": 2.5211254869,
				"element": "H" 
			},
			{
				"x": 0.4056162097,
				"y": -0.420867972,
				"z": 2.5352751512,
				"element": "H" 
			},
			{
				"x": 0.8802244531,
				"y": -1.1772215781,
				"z": -2.3339615917,
				"element": "H" 
			},
			{
				"x": -1.234579594,
				"y": 0.0161122033,
				"z": -3.0760186465,
				"element": "H" 
			},
			{
				"x": -2.782414497,
				"y": 2.1201444974,
				"z": 0.2901495739,
				"element": "H" 
			}
		],
		 "valence_orbital": [ 
			{
				"type": "occ",
				"energy": -0.32777,
				"method": "rhf"
			},
			{
				"type": "occ",
				"energy": -0.32109,
				"method": "rhf"
			},
			{
				"type": "occ",
				"energy": -0.3178,
				"method": "rhf"
			},
			{
				"type": "occ",
				"energy": -0.2904,
				"method": "rhf"
			},
			{
				"type": "occ",
				"energy": -0.28186,
				"method": "rhf"
			},
			{
				"type": "unocc",
				"energy": -0.09999,
				"method": "rhf"
			},
			{
				"type": "unocc",
				"energy": -0.06207,
				"method": "rhf"
			},
			{
				"type": "unocc",
				"energy": 0.00263,
				"method": "rhf"
			},
			{
				"type": "unocc",
				"energy": 0.01026,
				"method": "rhf"
			},
			{
				"type": "unocc",
				"energy": 0.0743,
				"method": "rhf"
			}
		],
		"cosmo_sigma_profile": { 
			"-0.025": 0.0,
			"-0.024": 0.0,
			"-0.023": 0.0,
			"-0.022": 0.0,
			"-0.021": 0.0,
			"-0.02": 0.0,
			"-0.019": 0.0,
			"-0.018": 0.0,
			"-0.017": 0.0,
			"-0.016": 0.0,
			"-0.015": 0.0,
			"-0.014": 0.0593107851796,
			"-0.013": 0.428292202549,
			"-0.012": 0.683082287231,
			"-0.011": 0.573553705122,
			"-0.01": 1.9845387141,
			"-0.009": 3.74111793247,
			"-0.008": 5.17404941981,
			"-0.007": 6.42177927551,
			"-0.006": 12.3769202021,
			"-0.005": 13.8242691154,
			"-0.004": 14.8269476696,
			"-0.003": 21.553674596,
			"-0.002": 20.6221014621,
			"-0.001": 15.2712097334,
			"0.0": 6.59228780827,
			"0.001": 6.83746992729,
			"0.002": 5.73062043843,
			"0.003": 5.49592529202,
			"0.004": 4.55085990945,
			"0.005": 3.84226056516,
			"0.006": 4.72570349661,
			"0.007": 6.03780737987,
			"0.008": 6.0787940048,
			"0.009": 7.96760491211,
			"0.01": 7.74758366813,
			"0.011": 7.40080814967,
			"0.012": 4.46240514918,
			"0.013": 0.63133201439,
			"0.014": 0.0,
			"0.015": 0.0,
			"0.016": 0.0,
			"0.017": 0.0,
			"0.018": 0.0,
			"0.019": 0.0,
			"0.02": 0.0,
			"0.021": 0.0,
			"0.022": 0.0,
			"0.023": 0.0,
			"0.024": 0.0,
			"0.025": 0.0
		}
	}
}
