{
	 "smiles": "OCCN1CCOCC1", 
	 "Tm": 273.35, 
	 "num_atms": 22, 
	 "gaussian": { 
		 "optdone": 1, 
		 "sigma_profile": "yes", 
		 "theory": "DFT", 
		 "functional": "B3LYP", 
		 "basiset": "6-31G**", 
		 "properties": { 
			 "R2extent": 1679.6171, 
			 "electric_dipole_moment_norm": 1.68004044297, 
			 "electric_quadrupole_moment_norm": 16.2461046916, 
			 "total_energy": -441.636573196, 
			 "HOMO_LUMO_gap": 0.28493, 
			 "cosmo_polarized_energy": -9.04, 
			 "cosmo_cavitation_energy": 22.59, 
			 "cosmo_dispersion_energy": -17.15, 
			 "cosmo_repulsion_energy": 1.41, 
			 "cosmo_total_nonelectrostatic_energy": 6.85, 
			 "SMD_solvation_energy": 3.03 
		},
		"coords": [
			{
				"x": 1.6193722638,
				"y": 1.0460317955,
				"z": 3.1488767781,
				"element": "O" 
			},
			{
				"x": 2.4781457737,
				"y": 0.7495174764,
				"z": 2.0687302043,
				"element": "C" 
			},
			{
				"x": 1.7042572008,
				"y": 0.0554019399,
				"z": 0.9403622993,
				"element": "C" 
			},
			{
				"x": 0.5231735219,
				"y": 0.8622538211,
				"z": 0.5905621678,
				"element": "N" 
			},
			{
				"x": 0.7977460557,
				"y": 1.9655356054,
				"z": -0.3472038473,
				"element": "C" 
			},
			{
				"x": 0.8719955982,
				"y": 1.4958853553,
				"z": -1.8044765884,
				"element": "C" 
			},
			{
				"x": -0.3131024789,
				"y": 0.8007262661,
				"z": -2.177187503,
				"element": "O" 
			},
			{
				"x": -0.5345615844,
				"y": -0.3290241071,
				"z": -1.3392808709,
				"element": "C" 
			},
			{
				"x": -0.646363326,
				"y": 0.1007964604,
				"z": 0.1263968848,
				"element": "C" 
			},
			{
				"x": 0.7974080969,
				"y": 1.337599161,
				"z": 2.7173050599,
				"element": "H" 
			},
			{
				"x": 3.2702917594,
				"y": 0.086329487,
				"z": 2.4346327446,
				"element": "H" 
			},
			{
				"x": 2.972939782,
				"y": 1.6593989101,
				"z": 1.6848797371,
				"element": "H" 
			},
			{
				"x": 2.3741648499,
				"y": -0.1530049839,
				"z": 0.0901293016,
				"element": "H" 
			},
			{
				"x": 1.3468755009,
				"y": -0.9092393206,
				"z": 1.3156129268,
				"element": "H" 
			},
			{
				"x": 1.7263456063,
				"y": 2.4686085643,
				"z": -0.058324642,
				"element": "H" 
			},
			{
				"x": -0.0144522954,
				"y": 2.6978562355,
				"z": -0.2568154299,
				"element": "H" 
			},
			{
				"x": 1.7523327382,
				"y": 0.8492227378,
				"z": -1.9597485243,
				"element": "H" 
			},
			{
				"x": 0.9588492199,
				"y": 2.3501805652,
				"z": -2.4832586304,
				"element": "H" 
			},
			{
				"x": 0.2811325195,
				"y": -1.0616412734,
				"z": -1.4659532444,
				"element": "H" 
			},
			{
				"x": -1.4640641559,
				"y": -0.7938109367,
				"z": -1.6833177371,
				"element": "H" 
			},
			{
				"x": -0.7918445863,
				"y": -0.7684244923,
				"z": 0.7767202232,
				"element": "H" 
			},
			{
				"x": -1.5291420601,
				"y": 0.7455007332,
				"z": 0.2295586903,
				"element": "H" 
			}
		],
		 "valence_orbital": [ 
			{
				"type": "occ",
				"energy": -0.31947,
				"method": "rhf"
			},
			{
				"type": "occ",
				"energy": -0.31469,
				"method": "rhf"
			},
			{
				"type": "occ",
				"energy": -0.27695,
				"method": "rhf"
			},
			{
				"type": "occ",
				"energy": -0.255,
				"method": "rhf"
			},
			{
				"type": "occ",
				"energy": -0.21289,
				"method": "rhf"
			},
			{
				"type": "unocc",
				"energy": 0.07204,
				"method": "rhf"
			},
			{
				"type": "unocc",
				"energy": 0.09817,
				"method": "rhf"
			},
			{
				"type": "unocc",
				"energy": 0.10807,
				"method": "rhf"
			},
			{
				"type": "unocc",
				"energy": 0.11613,
				"method": "rhf"
			},
			{
				"type": "unocc",
				"energy": 0.11841,
				"method": "rhf"
			}
		],
		"cosmo_sigma_profile": { 
			"-0.025": 0.0,
			"-0.024": 0.0,
			"-0.023": 0.0,
			"-0.022": 0.0,
			"-0.021": 0.0,
			"-0.02": 0.0,
			"-0.019": 0.0,
			"-0.018": 0.0,
			"-0.017": 0.0,
			"-0.016": 0.0,
			"-0.015": 0.0,
			"-0.014": 0.0,
			"-0.013": 0.0,
			"-0.012": 0.0,
			"-0.011": 0.0,
			"-0.01": 0.0,
			"-0.009": 0.206040848393,
			"-0.008": 0.43906187559,
			"-0.007": 0.408545018976,
			"-0.006": 0.93849437832,
			"-0.005": 10.5590844519,
			"-0.004": 27.1935982947,
			"-0.003": 35.167234366,
			"-0.002": 25.3189273997,
			"-0.001": 16.1029511418,
			"0.0": 9.48369884288,
			"0.001": 6.03419617787,
			"0.002": 4.71368405259,
			"0.003": 4.50853184929,
			"0.004": 3.34441533769,
			"0.005": 3.14895661626,
			"0.006": 2.2206076739,
			"0.007": 2.49256306951,
			"0.008": 2.2925745269,
			"0.009": 2.79365014584,
			"0.01": 2.31766713244,
			"0.011": 2.73303528306,
			"0.012": 2.45748083118,
			"0.013": 3.60019587872,
			"0.014": 2.86267350335,
			"0.015": 2.7125669336,
			"0.016": 0.232158977533,
			"0.017": 0.0,
			"0.018": 0.0,
			"0.019": 0.0,
			"0.02": 0.0,
			"0.021": 0.0,
			"0.022": 0.0,
			"0.023": 0.0,
			"0.024": 0.0,
			"0.025": 0.0
		}
	}
}
