{
	 "smiles": "COC(=O)C1=C(C)C=CO1", 
	 "Tm": 308.15, 
	 "num_atms": 18, 
	 "gaussian": { 
		 "optdone": 1, 
		 "sigma_profile": "yes", 
		 "theory": "DFT", 
		 "functional": "B3LYP", 
		 "basiset": "6-31G**", 
		 "properties": { 
			 "R2extent": 1795.1862, 
			 "electric_dipole_moment_norm": 1.4987583461, 
			 "electric_quadrupole_moment_norm": 8.48010860072, 
			 "total_energy": -497.223598533, 
			 "HOMO_LUMO_gap": 0.19782, 
			 "cosmo_polarized_energy": -8.3, 
			 "cosmo_cavitation_energy": 22.59, 
			 "cosmo_dispersion_energy": -16.57, 
			 "cosmo_repulsion_energy": 1.35, 
			 "cosmo_total_nonelectrostatic_energy": 7.37, 
			 "SMD_solvation_energy": 6.63 
		},
		"coords": [
			{
				"x": -0.8499706465,
				"y": -2.8176308287,
				"z": 1.3208848686,
				"element": "C" 
			},
			{
				"x": -0.6623069244,
				"y": -1.9501687023,
				"z": 0.1930979029,
				"element": "O" 
			},
			{
				"x": 0.441726973,
				"y": -1.1742901037,
				"z": 0.2505751225,
				"element": "C" 
			},
			{
				"x": 1.2368832462,
				"y": -1.1864790588,
				"z": 1.1756979903,
				"element": "O" 
			},
			{
				"x": 0.5883518806,
				"y": -0.3103552096,
				"z": -0.9168742176,
				"element": "C" 
			},
			{
				"x": 1.572018901,
				"y": 0.6075541458,
				"z": -1.2148625931,
				"element": "C" 
			},
			{
				"x": 2.7731800811,
				"y": 0.9584833486,
				"z": -0.3897852405,
				"element": "C" 
			},
			{
				"x": 1.2027625866,
				"y": 1.1565545074,
				"z": -2.4828921727,
				"element": "C" 
			},
			{
				"x": 0.0418525679,
				"y": 0.5409702508,
				"z": -2.8535409834,
				"element": "C" 
			},
			{
				"x": -0.349237563,
				"y": -0.3528360402,
				"z": -1.918260502,
				"element": "O" 
			},
			{
				"x": -0.0081567417,
				"y": -3.5074713983,
				"z": 1.4233405374,
				"element": "H" 
			},
			{
				"x": -1.7705012052,
				"y": -3.3648726989,
				"z": 1.1184803184,
				"element": "H" 
			},
			{
				"x": -0.9427263181,
				"y": -2.2388449511,
				"z": 2.2436177803,
				"element": "H" 
			},
			{
				"x": 3.3741720168,
				"y": 1.7240698743,
				"z": -0.8871487998,
				"element": "H" 
			},
			{
				"x": 3.4005126135,
				"y": 0.0798116919,
				"z": -0.2132136026,
				"element": "H" 
			},
			{
				"x": 2.4792352602,
				"y": 1.3290757804,
				"z": 0.5966401437,
				"element": "H" 
			},
			{
				"x": 1.7388247788,
				"y": 1.912189939,
				"z": -3.0397592154,
				"element": "H" 
			},
			{
				"x": -0.5980215069,
				"y": 0.6295394534,
				"z": -3.7185973372,
				"element": "H" 
			}
		],
		 "valence_orbital": [ 
			{
				"type": "occ",
				"energy": -0.35284,
				"method": "rhf"
			},
			{
				"type": "occ",
				"energy": -0.2964,
				"method": "rhf"
			},
			{
				"type": "occ",
				"energy": -0.2767,
				"method": "rhf"
			},
			{
				"type": "occ",
				"energy": -0.27163,
				"method": "rhf"
			},
			{
				"type": "occ",
				"energy": -0.23347,
				"method": "rhf"
			},
			{
				"type": "unocc",
				"energy": -0.03565,
				"method": "rhf"
			},
			{
				"type": "unocc",
				"energy": 0.0464,
				"method": "rhf"
			},
			{
				"type": "unocc",
				"energy": 0.10361,
				"method": "rhf"
			},
			{
				"type": "unocc",
				"energy": 0.1148,
				"method": "rhf"
			},
			{
				"type": "unocc",
				"energy": 0.1171,
				"method": "rhf"
			}
		],
		"cosmo_sigma_profile": { 
			"-0.025": 0.0,
			"-0.024": 0.0,
			"-0.023": 0.0,
			"-0.022": 0.0,
			"-0.021": 0.0,
			"-0.02": 0.0,
			"-0.019": 0.0,
			"-0.018": 0.0,
			"-0.017": 0.0,
			"-0.016": 0.0,
			"-0.015": 0.0,
			"-0.014": 0.0,
			"-0.013": 0.0,
			"-0.012": 0.0,
			"-0.011": 0.0,
			"-0.01": 0.73742617644,
			"-0.009": 2.04538499631,
			"-0.008": 2.47006600522,
			"-0.007": 4.2321295405,
			"-0.006": 7.1986508225,
			"-0.005": 13.8030522346,
			"-0.004": 15.8352500177,
			"-0.003": 16.9272367401,
			"-0.002": 13.7413222553,
			"-0.001": 16.3625905541,
			"0.0": 15.291094225,
			"0.001": 13.8722170775,
			"0.002": 11.9145441379,
			"0.003": 9.60504607821,
			"0.004": 5.69401450324,
			"0.005": 3.93172176548,
			"0.006": 3.95424406055,
			"0.007": 3.70632954229,
			"0.008": 3.63421427178,
			"0.009": 3.54512949165,
			"0.01": 3.20047080474,
			"0.011": 3.31011625879,
			"0.012": 3.90204207092,
			"0.013": 0.962431704054,
			"0.014": 0.0,
			"0.015": 0.0,
			"0.016": 0.0,
			"0.017": 0.0,
			"0.018": 0.0,
			"0.019": 0.0,
			"0.02": 0.0,
			"0.021": 0.0,
			"0.022": 0.0,
			"0.023": 0.0,
			"0.024": 0.0,
			"0.025": 0.0
		}
	}
}
