{
	 "smiles": "ClS(=O)(=O)C1=CC=C(OC2=CC=CC=C2)C=C1", 
	 "Tm": 317.15, 
	 "num_atms": 26, 
	 "gaussian": { 
		 "optdone": 1, 
		 "sigma_profile": "yes", 
		 "theory": "DFT", 
		 "functional": "B3LYP", 
		 "basiset": "6-31G**", 
		 "properties": { 
			 "R2extent": 8638.1565, 
			 "electric_dipole_moment_norm": 6.98450919178, 
			 "electric_quadrupole_moment_norm": 29.1745507043, 
			 "total_energy": -1546.67586138, 
			 "HOMO_LUMO_gap": 0.17293, 
			 "cosmo_polarized_energy": -10.86, 
			 "cosmo_cavitation_energy": 34.68, 
			 "cosmo_dispersion_energy": -25.36, 
			 "cosmo_repulsion_energy": 1.93, 
			 "cosmo_total_nonelectrostatic_energy": 11.25, 
			 "SMD_solvation_energy": 4.8 
		},
		"coords": [
			{
				"x": 2.8570025653,
				"y": -2.4621378318,
				"z": 4.544642656,
				"element": "Cl" 
			},
			{
				"x": 1.0571361442,
				"y": -3.3043583054,
				"z": 3.7400498692,
				"element": "S" 
			},
			{
				"x": 0.0618568882,
				"y": -3.1945103803,
				"z": 4.8000297562,
				"element": "O" 
			},
			{
				"x": 1.444913585,
				"y": -4.5864279388,
				"z": 3.1639186985,
				"element": "O" 
			},
			{
				"x": 0.6696426297,
				"y": -2.1612329824,
				"z": 2.4390251871,
				"element": "C" 
			},
			{
				"x": -0.1500092444,
				"y": -1.0666652947,
				"z": 2.7181027656,
				"element": "C" 
			},
			{
				"x": -0.4639178811,
				"y": -0.1727961281,
				"z": 1.6989523535,
				"element": "C" 
			},
			{
				"x": 0.0538107652,
				"y": -0.3842229234,
				"z": 0.4131815766,
				"element": "C" 
			},
			{
				"x": -0.2038055595,
				"y": 0.4268169498,
				"z": -0.6528396605,
				"element": "O" 
			},
			{
				"x": -0.9260062378,
				"y": 1.6073797441,
				"z": -0.4778661199,
				"element": "C" 
			},
			{
				"x": -0.2773267314,
				"y": 2.7531304162,
				"z": -0.017912296,
				"element": "C" 
			},
			{
				"x": -0.996758344,
				"y": 3.9453558916,
				"z": 0.0775122111,
				"element": "C" 
			},
			{
				"x": -2.3446735698,
				"y": 3.9866690442,
				"z": -0.2873160533,
				"element": "C" 
			},
			{
				"x": -2.9770031272,
				"y": 2.8312142207,
				"z": -0.7512281484,
				"element": "C" 
			},
			{
				"x": -2.2691081972,
				"y": 1.6315731652,
				"z": -0.8480215784,
				"element": "C" 
			},
			{
				"x": 0.8768871158,
				"y": -1.4900361539,
				"z": 0.1448690715,
				"element": "C" 
			},
			{
				"x": 1.1900778033,
				"y": -2.3822283208,
				"z": 1.1588547568,
				"element": "C" 
			},
			{
				"x": -0.5469327684,
				"y": -0.9252975086,
				"z": 3.7171481652,
				"element": "H" 
			},
			{
				"x": -1.106893912,
				"y": 0.6759655404,
				"z": 1.897031126,
				"element": "H" 
			},
			{
				"x": 0.7733324219,
				"y": 2.7044398459,
				"z": 0.2492944774,
				"element": "H" 
			},
			{
				"x": -0.5000054909,
				"y": 4.8434002952,
				"z": 0.4322152468,
				"element": "H" 
			},
			{
				"x": -2.8987327107,
				"y": 4.9174067053,
				"z": -0.2144702936,
				"element": "H" 
			},
			{
				"x": -4.0231906109,
				"y": 2.8605403522,
				"z": -1.0404557137,
				"element": "H" 
			},
			{
				"x": -2.7380817484,
				"y": 0.7235286901,
				"z": -1.212430552,
				"element": "H" 
			},
			{
				"x": 1.2531959678,
				"y": -1.6279336522,
				"z": -0.8627130471,
				"element": "H" 
			},
			{
				"x": 1.8186902474,
				"y": -3.2443734403,
				"z": 0.9668255453,
				"element": "H" 
			}
		],
		 "valence_orbital": [ 
			{
				"type": "occ",
				"energy": -0.30649,
				"method": "rhf"
			},
			{
				"type": "occ",
				"energy": -0.28823,
				"method": "rhf"
			},
			{
				"type": "occ",
				"energy": -0.27514,
				"method": "rhf"
			},
			{
				"type": "occ",
				"energy": -0.26755,
				"method": "rhf"
			},
			{
				"type": "occ",
				"energy": -0.2566,
				"method": "rhf"
			},
			{
				"type": "unocc",
				"energy": -0.08367,
				"method": "rhf"
			},
			{
				"type": "unocc",
				"energy": -0.03891,
				"method": "rhf"
			},
			{
				"type": "unocc",
				"energy": -0.03217,
				"method": "rhf"
			},
			{
				"type": "unocc",
				"energy": -0.02219,
				"method": "rhf"
			},
			{
				"type": "unocc",
				"energy": -0.02121,
				"method": "rhf"
			}
		],
		"cosmo_sigma_profile": { 
			"-0.025": 0.0,
			"-0.024": 0.0,
			"-0.023": 0.0,
			"-0.022": 0.0,
			"-0.021": 0.0,
			"-0.02": 0.0,
			"-0.019": 0.0,
			"-0.018": 0.0,
			"-0.017": 0.0,
			"-0.016": 0.0,
			"-0.015": 0.0,
			"-0.014": 0.0,
			"-0.013": 0.0,
			"-0.012": 0.0,
			"-0.011": 0.0,
			"-0.01": 0.0,
			"-0.009": 0.860451720429,
			"-0.008": 5.08998349206,
			"-0.007": 10.3814359026,
			"-0.006": 16.7718994648,
			"-0.005": 18.6457969906,
			"-0.004": 18.6158187598,
			"-0.003": 15.0320953105,
			"-0.002": 18.8936071575,
			"-0.001": 20.6789435759,
			"0.0": 23.8355552144,
			"0.001": 29.0112453842,
			"0.002": 21.0060166017,
			"0.003": 23.5959141307,
			"0.004": 23.1598921159,
			"0.005": 8.56998272142,
			"0.006": 4.40159368597,
			"0.007": 6.80726020125,
			"0.008": 10.5196855,
			"0.009": 5.81254660664,
			"0.01": 0.288402932669,
			"0.011": 0.0,
			"0.012": 0.0,
			"0.013": 0.0,
			"0.014": 0.0,
			"0.015": 0.0,
			"0.016": 0.0,
			"0.017": 0.0,
			"0.018": 0.0,
			"0.019": 0.0,
			"0.02": 0.0,
			"0.021": 0.0,
			"0.022": 0.0,
			"0.023": 0.0,
			"0.024": 0.0,
			"0.025": 0.0
		}
	}
}
