{
	 "smiles": "O=C1C2=C(C=C3C=CC=CC3=C2)C2=C1C1=C(C=CC=C1)C=C2", 
	 "Tm": 487.15, 
	 "num_atms": 34, 
	 "gaussian": { 
		 "optdone": 1, 
		 "sigma_profile": "yes", 
		 "theory": "DFT", 
		 "functional": "B3LYP", 
		 "basiset": "6-31G**", 
		 "properties": { 
			 "R2extent": 8401.913, 
			 "electric_dipole_moment_norm": 3.10507732915, 
			 "electric_quadrupole_moment_norm": 18.3435679874, 
			 "total_energy": -882.728612149, 
			 "HOMO_LUMO_gap": 0.12583, 
			 "cosmo_polarized_energy": -10.78, 
			 "cosmo_cavitation_energy": 38.02, 
			 "cosmo_dispersion_energy": -28.02, 
			 "cosmo_repulsion_energy": 2.01, 
			 "cosmo_total_nonelectrostatic_energy": 12.01, 
			 "SMD_solvation_energy": 5.72 
		},
		"coords": [
			{
				"x": -2.4193453691,
				"y": 2.6796252051,
				"z": -0.4782134763,
				"element": "O" 
			},
			{
				"x": -1.6091063655,
				"y": 1.7646514712,
				"z": -0.5205391595,
				"element": "C" 
			},
			{
				"x": -0.1722394812,
				"y": 1.827227358,
				"z": -0.1021310236,
				"element": "C" 
			},
			{
				"x": 0.4206876456,
				"y": 0.5441927749,
				"z": -0.3123765952,
				"element": "C" 
			},
			{
				"x": 1.7393428877,
				"y": 0.3325238582,
				"z": -0.006889143,
				"element": "C" 
			},
			{
				"x": 2.5200775897,
				"y": 1.40754967,
				"z": 0.5252922837,
				"element": "C" 
			},
			{
				"x": 3.8872184202,
				"y": 1.2390399403,
				"z": 0.8571111394,
				"element": "C" 
			},
			{
				"x": 4.628773693,
				"y": 2.2847681261,
				"z": 1.3698995113,
				"element": "C" 
			},
			{
				"x": 4.0339568935,
				"y": 3.5493921079,
				"z": 1.5741447748,
				"element": "C" 
			},
			{
				"x": 2.704189735,
				"y": 3.7470072293,
				"z": 1.261238778,
				"element": "C" 
			},
			{
				"x": 1.9156220311,
				"y": 2.6950157344,
				"z": 0.7335573661,
				"element": "C" 
			},
			{
				"x": 0.5378248543,
				"y": 2.8791473494,
				"z": 0.4035103419,
				"element": "C" 
			},
			{
				"x": -0.6222078215,
				"y": -0.3461676272,
				"z": -0.8631747294,
				"element": "C" 
			},
			{
				"x": -1.8201754977,
				"y": 0.3605297605,
				"z": -0.9898257844,
				"element": "C" 
			},
			{
				"x": -2.9974589408,
				"y": -0.2501261251,
				"z": -1.4957302285,
				"element": "C" 
			},
			{
				"x": -2.9089654986,
				"y": -1.6339849764,
				"z": -1.8756350544,
				"element": "C" 
			},
			{
				"x": -4.0656629471,
				"y": -2.2805742036,
				"z": -2.3861594715,
				"element": "C" 
			},
			{
				"x": -5.2535391245,
				"y": -1.5963060909,
				"z": -2.516325563,
				"element": "C" 
			},
			{
				"x": -5.3359632552,
				"y": -0.2330170912,
				"z": -2.1407755498,
				"element": "C" 
			},
			{
				"x": -4.2362338955,
				"y": 0.4304454649,
				"z": -1.6411823177,
				"element": "C" 
			},
			{
				"x": -1.6713278237,
				"y": -2.3225557099,
				"z": -1.7328258842,
				"element": "C" 
			},
			{
				"x": -0.5422338584,
				"y": -1.7027951973,
				"z": -1.237633602,
				"element": "C" 
			},
			{
				"x": 2.2138314667,
				"y": -0.6339898536,
				"z": -0.1574465676,
				"element": "H" 
			},
			{
				"x": 4.347031929,
				"y": 0.266589848,
				"z": 0.700735141,
				"element": "H" 
			},
			{
				"x": 5.6756561982,
				"y": 2.1363261082,
				"z": 1.6183403062,
				"element": "H" 
			},
			{
				"x": 4.6260108182,
				"y": 4.3652202355,
				"z": 1.9779762827,
				"element": "H" 
			},
			{
				"x": 2.241065533,
				"y": 4.7179722597,
				"z": 1.416295187,
				"element": "H" 
			},
			{
				"x": 0.0623054672,
				"y": 3.8449963548,
				"z": 0.5536689868,
				"element": "H" 
			},
			{
				"x": -3.9971564743,
				"y": -3.326890857,
				"z": -2.6729490284,
				"element": "H" 
			},
			{
				"x": -6.1323722528,
				"y": -2.1002397767,
				"z": -2.9078824679,
				"element": "H" 
			},
			{
				"x": -6.279696183,
				"y": 0.2939544292,
				"z": -2.2490553921,
				"element": "H" 
			},
			{
				"x": -4.2882253895,
				"y": 1.4733119859,
				"z": -1.3507807812,
				"element": "H" 
			},
			{
				"x": -1.6287062469,
				"y": -3.36845158,
				"z": -2.0267550824,
				"element": "H" 
			},
			{
				"x": 0.3891212629,
				"y": -2.2523881826,
				"z": -1.1392831967,
				"element": "H" 
			}
		],
		 "valence_orbital": [ 
			{
				"type": "occ",
				"energy": -0.26521,
				"method": "rhf"
			},
			{
				"type": "occ",
				"energy": -0.24538,
				"method": "rhf"
			},
			{
				"type": "occ",
				"energy": -0.24192,
				"method": "rhf"
			},
			{
				"type": "occ",
				"energy": -0.22591,
				"method": "rhf"
			},
			{
				"type": "occ",
				"energy": -0.21183,
				"method": "rhf"
			},
			{
				"type": "unocc",
				"energy": -0.086,
				"method": "rhf"
			},
			{
				"type": "unocc",
				"energy": -0.05533,
				"method": "rhf"
			},
			{
				"type": "unocc",
				"energy": -0.0287,
				"method": "rhf"
			},
			{
				"type": "unocc",
				"energy": -0.00337,
				"method": "rhf"
			},
			{
				"type": "unocc",
				"energy": 0.01219,
				"method": "rhf"
			}
		],
		"cosmo_sigma_profile": { 
			"-0.025": 0.0,
			"-0.024": 0.0,
			"-0.023": 0.0,
			"-0.022": 0.0,
			"-0.021": 0.0,
			"-0.02": 0.0,
			"-0.019": 0.0,
			"-0.018": 0.0,
			"-0.017": 0.0,
			"-0.016": 0.0,
			"-0.015": 0.0,
			"-0.014": 0.0,
			"-0.013": 0.0,
			"-0.012": 0.0,
			"-0.011": 0.0,
			"-0.01": 0.0,
			"-0.009": 0.0,
			"-0.008": 0.0641934498602,
			"-0.007": 11.6299309248,
			"-0.006": 23.3563710875,
			"-0.005": 20.8436537467,
			"-0.004": 23.1738717551,
			"-0.003": 16.5274182278,
			"-0.002": 18.4151878105,
			"-0.001": 17.1038520831,
			"0.0": 19.1010279549,
			"0.001": 26.235366351,
			"0.002": 40.8974605642,
			"0.003": 42.3154967682,
			"0.004": 23.7248021118,
			"0.005": 8.3870397781,
			"0.006": 2.13607141494,
			"0.007": 1.61154706525,
			"0.008": 1.62142478534,
			"0.009": 1.67227639281,
			"0.01": 2.33517301378,
			"0.011": 3.31982692229,
			"0.012": 2.57442003457,
			"0.013": 0.501778359552,
			"0.014": 0.0,
			"0.015": 0.0,
			"0.016": 0.0,
			"0.017": 0.0,
			"0.018": 0.0,
			"0.019": 0.0,
			"0.02": 0.0,
			"0.021": 0.0,
			"0.022": 0.0,
			"0.023": 0.0,
			"0.024": 0.0,
			"0.025": 0.0
		}
	}
}
