{
	 "smiles": "OC(=O)C1=NC(Cl)=NC(Cl)=C1", 
	 "Tm": 388.15, 
	 "num_atms": 13, 
	 "gaussian": { 
		 "optdone": 1, 
		 "sigma_profile": "yes", 
		 "theory": "DFT", 
		 "functional": "B3LYP", 
		 "basiset": "6-31G**", 
		 "properties": { 
			 "R2extent": 2833.6416, 
			 "electric_dipole_moment_norm": 1.50376610216, 
			 "electric_quadrupole_moment_norm": 11.6521916823, 
			 "total_energy": -1372.07511253, 
			 "HOMO_LUMO_gap": 0.18927, 
			 "cosmo_polarized_energy": -10.23, 
			 "cosmo_cavitation_energy": 22.69, 
			 "cosmo_dispersion_energy": -17.29, 
			 "cosmo_repulsion_energy": 1.42, 
			 "cosmo_total_nonelectrostatic_energy": 6.81, 
			 "SMD_solvation_energy": 2.51 
		},
		"coords": [
			{
				"x": 1.9278321104,
				"y": 1.23899941,
				"z": 0.7334053398,
				"element": "O" 
			},
			{
				"x": 1.2135794425,
				"y": 1.2042149532,
				"z": -0.3957132989,
				"element": "C" 
			},
			{
				"x": 1.4421573609,
				"y": 1.8932881835,
				"z": -1.3609554467,
				"element": "O" 
			},
			{
				"x": 0.0707222197,
				"y": 0.2082308624,
				"z": -0.3717474335,
				"element": "C" 
			},
			{
				"x": -0.075373104,
				"y": -0.497962917,
				"z": 0.7622614419,
				"element": "N" 
			},
			{
				"x": -1.078153209,
				"y": -1.3670912072,
				"z": 0.7744291862,
				"element": "C" 
			},
			{
				"x": -1.287833963,
				"y": -2.2943208958,
				"z": 2.2325805266,
				"element": "Cl" 
			},
			{
				"x": -1.9414917611,
				"y": -1.6073088169,
				"z": -0.2080087293,
				"element": "N" 
			},
			{
				"x": -1.7739066676,
				"y": -0.8967982229,
				"z": -1.3143317943,
				"element": "C" 
			},
			{
				"x": -2.8898563841,
				"y": -1.1900306505,
				"z": -2.6177647914,
				"element": "Cl" 
			},
			{
				"x": -0.7620192159,
				"y": 0.0544113257,
				"z": -1.4712843251,
				"element": "C" 
			},
			{
				"x": 1.5386826713,
				"y": 0.588007053,
				"z": 1.3515354431,
				"element": "H" 
			},
			{
				"x": -0.6194395,
				"y": 0.6376609226,
				"z": -2.3709061184,
				"element": "H" 
			}
		],
		 "valence_orbital": [ 
			{
				"type": "occ",
				"energy": -0.33834,
				"method": "rhf"
			},
			{
				"type": "occ",
				"energy": -0.33585,
				"method": "rhf"
			},
			{
				"type": "occ",
				"energy": -0.31919,
				"method": "rhf"
			},
			{
				"type": "occ",
				"energy": -0.306,
				"method": "rhf"
			},
			{
				"type": "occ",
				"energy": -0.29717,
				"method": "rhf"
			},
			{
				"type": "unocc",
				"energy": -0.1079,
				"method": "rhf"
			},
			{
				"type": "unocc",
				"energy": -0.07877,
				"method": "rhf"
			},
			{
				"type": "unocc",
				"energy": -0.00682,
				"method": "rhf"
			},
			{
				"type": "unocc",
				"energy": 0.01388,
				"method": "rhf"
			},
			{
				"type": "unocc",
				"energy": 0.02024,
				"method": "rhf"
			}
		],
		"cosmo_sigma_profile": { 
			"-0.025": 0.0,
			"-0.024": 0.0,
			"-0.023": 0.0,
			"-0.022": 0.0,
			"-0.021": 0.0,
			"-0.02": 0.0,
			"-0.019": 0.0,
			"-0.018": 0.0,
			"-0.017": 0.0,
			"-0.016": 0.0,
			"-0.015": 0.148849802545,
			"-0.014": 0.625888576195,
			"-0.013": 0.902540597289,
			"-0.012": 0.795407715576,
			"-0.011": 0.792231999846,
			"-0.01": 1.72525584387,
			"-0.009": 2.31128555557,
			"-0.008": 5.84966615597,
			"-0.007": 6.88207662374,
			"-0.006": 8.47209163799,
			"-0.005": 12.3554552633,
			"-0.004": 14.6571462478,
			"-0.003": 10.3764725041,
			"-0.002": 9.68538784404,
			"-0.001": 10.1304974261,
			"0.0": 11.8847035908,
			"0.001": 13.776345779,
			"0.002": 21.170196563,
			"0.003": 14.7731746241,
			"0.004": 8.1694206179,
			"0.005": 4.12426307031,
			"0.006": 4.09253068437,
			"0.007": 4.77418027188,
			"0.008": 4.55984107126,
			"0.009": 5.91199919861,
			"0.01": 5.54514897857,
			"0.011": 3.44837116989,
			"0.012": 0.765895417348,
			"0.013": 0.0,
			"0.014": 0.0,
			"0.015": 0.0,
			"0.016": 0.0,
			"0.017": 0.0,
			"0.018": 0.0,
			"0.019": 0.0,
			"0.02": 0.0,
			"0.021": 0.0,
			"0.022": 0.0,
			"0.023": 0.0,
			"0.024": 0.0,
			"0.0": 0.0
		}
	}
}
