{
	 "smiles": "CC(C)(C)N(NC(=O)C1=CC=CC=C1)C(=O)C1=CC=CC(F)=C1", 
	 "Tm": 449.15, 
	 "num_atms": 42, 
	 "gaussian": { 
		 "optdone": 1, 
		 "sigma_profile": "yes", 
		 "theory": "DFT", 
		 "functional": "B3LYP", 
		 "basiset": "6-31G**", 
		 "properties": { 
			 "R2extent": 7889.8099, 
			 "electric_dipole_moment_norm": 4.56797951068, 
			 "electric_quadrupole_moment_norm": 12.8720907292, 
			 "total_energy": -1057.15508206, 
			 "HOMO_LUMO_gap": 0.19487, 
			 "cosmo_polarized_energy": -18.65, 
			 "cosmo_cavitation_energy": 45.32, 
			 "cosmo_dispersion_energy": -29.28, 
			 "cosmo_repulsion_energy": 2.2, 
			 "cosmo_total_nonelectrostatic_energy": 18.25, 
			 "SMD_solvation_energy": 9.22 
		},
		"coords": [
			{
				"x": 2.6847294334,
				"y": 1.129798885,
				"z": -2.3513853895,
				"element": "C" 
			},
			{
				"x": 1.1582852117,
				"y": 1.3318821462,
				"z": -2.3495830567,
				"element": "C" 
			},
			{
				"x": 0.4703254692,
				"y": 0.1313834751,
				"z": -3.0202696729,
				"element": "C" 
			},
			{
				"x": 0.76720679,
				"y": 2.6061462095,
				"z": -3.1219905956,
				"element": "C" 
			},
			{
				"x": 0.6274868247,
				"y": 1.4523039352,
				"z": -0.9355165418,
				"element": "N" 
			},
			{
				"x": 0.2002981152,
				"y": 0.2946986688,
				"z": -0.2970149714,
				"element": "N" 
			},
			{
				"x": 1.0427026469,
				"y": -0.4849768427,
				"z": 0.4736778758,
				"element": "C" 
			},
			{
				"x": 2.226789256,
				"y": -0.2195715718,
				"z": 0.6239740244,
				"element": "O" 
			},
			{
				"x": 0.3914225454,
				"y": -1.6803676813,
				"z": 1.1040027499,
				"element": "C" 
			},
			{
				"x": -0.9702056871,
				"y": -1.7332014214,
				"z": 1.4369582261,
				"element": "C" 
			},
			{
				"x": -1.5035644917,
				"y": -2.8788174047,
				"z": 2.0284844225,
				"element": "C" 
			},
			{
				"x": -0.6836010033,
				"y": -3.9778076459,
				"z": 2.2900190314,
				"element": "C" 
			},
			{
				"x": 0.6769481298,
				"y": -3.9239538212,
				"z": 1.9746808082,
				"element": "C" 
			},
			{
				"x": 1.2136870336,
				"y": -2.7783769275,
				"z": 1.392746615,
				"element": "C" 
			},
			{
				"x": 1.0077451888,
				"y": 2.5066905,
				"z": -0.1058651771,
				"element": "C" 
			},
			{
				"x": 1.7955770229,
				"y": 3.3724369919,
				"z": -0.4595588442,
				"element": "O" 
			},
			{
				"x": 0.351985189,
				"y": 2.5918328139,
				"z": 1.2483530041,
				"element": "C" 
			},
			{
				"x": 1.1507678965,
				"y": 2.9368893126,
				"z": 2.3445878866,
				"element": "C" 
			},
			{
				"x": 0.5739260475,
				"y": 3.114139757,
				"z": 3.6020807642,
				"element": "C" 
			},
			{
				"x": -0.8041905593,
				"y": 2.9761667143,
				"z": 3.7774059397,
				"element": "C" 
			},
			{
				"x": -1.5818684333,
				"y": 2.6559441723,
				"z": 2.6700615684,
				"element": "C" 
			},
			{
				"x": -2.9194891838,
				"y": 2.5337069884,
				"z": 2.8208653342,
				"element": "F" 
			},
			{
				"x": -1.0325406736,
				"y": 2.4559749152,
				"z": 1.4107059418,
				"element": "C" 
			},
			{
				"x": 2.9598254563,
				"y": 0.2381696534,
				"z": -1.784206566,
				"element": "H" 
			},
			{
				"x": 3.0376532072,
				"y": 1.0172525288,
				"z": -3.3825607777,
				"element": "H" 
			},
			{
				"x": 3.1835486266,
				"y": 1.9893837068,
				"z": -1.9027159282,
				"element": "H" 
			},
			{
				"x": 0.7439379136,
				"y": -0.819165463,
				"z": -2.5561256285,
				"element": "H" 
			},
			{
				"x": -0.6213048041,
				"y": 0.229559732,
				"z": -3.0070453183,
				"element": "H" 
			},
			{
				"x": 0.7839396736,
				"y": 0.0927278188,
				"z": -4.0670376606,
				"element": "H" 
			},
			{
				"x": -0.318576506,
				"y": 2.7490420854,
				"z": -3.1073174473,
				"element": "H" 
			},
			{
				"x": 1.0816600877,
				"y": 2.5034685127,
				"z": -4.1654296055,
				"element": "H" 
			},
			{
				"x": 1.2443906948,
				"y": 3.4897294086,
				"z": -2.7007003832,
				"element": "H" 
			},
			{
				"x": -0.7404908033,
				"y": -0.0121997037,
				"z": -0.4919002579,
				"element": "H" 
			},
			{
				"x": -1.6103986639,
				"y": -0.8694509764,
				"z": 1.2819869468,
				"element": "H" 
			},
			{
				"x": -2.556014053,
				"y": -2.9077073794,
				"z": 2.2945615033,
				"element": "H" 
			},
			{
				"x": -1.1011462767,
				"y": -4.8696820711,
				"z": 2.7482321518,
				"element": "H" 
			},
			{
				"x": 1.3188514185,
				"y": -4.7737852605,
				"z": 2.1871993271,
				"element": "H" 
			},
			{
				"x": 2.2699050626,
				"y": -2.7090682477,
				"z": 1.1552887619,
				"element": "H" 
			},
			{
				"x": 2.2175074059,
				"y": 3.0616388523,
				"z": 2.1976166308,
				"element": "H" 
			},
			{
				"x": 1.1988295538,
				"y": 3.3670464761,
				"z": 4.4531154048,
				"element": "H" 
			},
			{
				"x": -1.2781603142,
				"y": 3.1168737607,
				"z": 4.7427227839,
				"element": "H" 
			},
			{
				"x": -1.6842804478,
				"y": 2.2256443972,
				"z": 0.5749961197,
				"element": "H" 
			}
		],
		 "valence_orbital": [ 
			{
				"type": "occ",
				"energy": -0.26686,
				"method": "rhf"
			},
			{
				"type": "occ",
				"energy": -0.25917,
				"method": "rhf"
			},
			{
				"type": "occ",
				"energy": -0.25325,
				"method": "rhf"
			},
			{
				"type": "occ",
				"energy": -0.24692,
				"method": "rhf"
			},
			{
				"type": "occ",
				"energy": -0.2404,
				"method": "rhf"
			},
			{
				"type": "unocc",
				"energy": -0.04553,
				"method": "rhf"
			},
			{
				"type": "unocc",
				"energy": -0.03373,
				"method": "rhf"
			},
			{
				"type": "unocc",
				"energy": -0.01753,
				"method": "rhf"
			},
			{
				"type": "unocc",
				"energy": -0.00318,
				"method": "rhf"
			},
			{
				"type": "unocc",
				"energy": 0.03664,
				"method": "rhf"
			}
		],
		"cosmo_sigma_profile": { 
			"-0.025": 0.0,
			"-0.024": 0.0,
			"-0.023": 0.0,
			"-0.022": 0.0,
			"-0.021": 0.0,
			"-0.02": 0.0,
			"-0.019": 0.0,
			"-0.018": 0.0,
			"-0.017": 0.0,
			"-0.016": 0.0,
			"-0.015": 0.242364202632,
			"-0.014": 0.839932759711,
			"-0.013": 0.961667157834,
			"-0.012": 1.15496654343,
			"-0.011": 1.23002662442,
			"-0.01": 2.1172002575,
			"-0.009": 2.20269189694,
			"-0.008": 3.97378619292,
			"-0.007": 8.03146845931,
			"-0.006": 15.6731136607,
			"-0.005": 19.81287653,
			"-0.004": 26.9400593139,
			"-0.003": 27.2775928391,
			"-0.002": 26.7876942688,
			"-0.001": 27.4403339476,
			"0.0": 36.189565468,
			"0.001": 35.8269053502,
			"0.002": 25.5019585119,
			"0.003": 24.092778066,
			"0.004": 29.5679745921,
			"0.005": 10.9030662074,
			"0.006": 4.26485981316,
			"0.007": 4.47695699411,
			"0.008": 3.54721770916,
			"0.009": 3.48165319818,
			"0.01": 3.49515914631,
			"0.011": 3.41482281532,
			"0.012": 4.9017343218,
			"0.013": 4.49614617964,
			"0.014": 0.672157619916,
			"0.015": 0.0,
			"0.016": 0.0,
			"0.017": 0.0,
			"0.018": 0.0,
			"0.019": 0.0,
			"0.02": 0.0,
			"0.021": 0.0,
			"0.022": 0.0,
			"0.023": 0.0,
			"0.024": 0.0,
			"0.025": 0.0
		}
	}
}
