{
	 "smiles": "CC1CC(=O)C2=C3N1C=C(C(O)=O)C(=O)C3=CC(F)=C2F", 
	 "Tm": 597.15, 
	 "num_atms": 30, 
	 "gaussian": { 
		 "optdone": 1, 
		 "sigma_profile": "yes", 
		 "theory": "DFT", 
		 "functional": "B3LYP", 
		 "basiset": "6-31G**", 
		 "properties": { 
			 "R2extent": 6952.3044, 
			 "electric_dipole_moment_norm": 4.98100392893, 
			 "electric_quadrupole_moment_norm": 46.8931689784, 
			 "total_energy": -1094.2622626, 
			 "HOMO_LUMO_gap": 0.14963, 
			 "cosmo_polarized_energy": -22.69, 
			 "cosmo_cavitation_energy": 34.77, 
			 "cosmo_dispersion_energy": -25.05, 
			 "cosmo_repulsion_energy": 1.81, 
			 "cosmo_total_nonelectrostatic_energy": 11.53, 
			 "SMD_solvation_energy": 8.56 
		},
		"coords": [
			{
				"x": 0.5077248847,
				"y": 0.8078214469,
				"z": 3.965335698,
				"element": "C" 
			},
			{
				"x": 0.3701661427,
				"y": -0.2209558405,
				"z": 2.8352605247,
				"element": "C" 
			},
			{
				"x": -1.0603960518,
				"y": -0.7344508248,
				"z": 2.662373044,
				"element": "C" 
			},
			{
				"x": -1.9925673523,
				"y": 0.3462365853,
				"z": 2.1344593735,
				"element": "C" 
			},
			{
				"x": -3.1293671752,
				"y": 0.4765728893,
				"z": 2.5472833511,
				"element": "O" 
			},
			{
				"x": -1.4040860003,
				"y": 1.1749904562,
				"z": 1.0437958124,
				"element": "C" 
			},
			{
				"x": -0.0114472841,
				"y": 1.1029718862,
				"z": 0.7460862197,
				"element": "C" 
			},
			{
				"x": 0.8444798986,
				"y": 0.3479917307,
				"z": 1.5456135202,
				"element": "N" 
			},
			{
				"x": 2.1639305127,
				"y": 0.2643923253,
				"z": 1.238247344,
				"element": "C" 
			},
			{
				"x": 2.7463247566,
				"y": 0.8809174775,
				"z": 0.1653576611,
				"element": "C" 
			},
			{
				"x": 4.2196960735,
				"y": 0.668594187,
				"z": -0.036790245,
				"element": "C" 
			},
			{
				"x": 4.7490000176,
				"y": 1.3041782924,
				"z": -1.0833188897,
				"element": "O" 
			},
			{
				"x": 4.8739173488,
				"y": -0.0339667226,
				"z": 0.7093181437,
				"element": "O" 
			},
			{
				"x": 1.9491138,
				"y": 1.7143934148,
				"z": -0.708241073,
				"element": "C" 
			},
			{
				"x": 2.4182345967,
				"y": 2.3248174252,
				"z": -1.6922760462,
				"element": "O" 
			},
			{
				"x": 0.520545348,
				"y": 1.798206784,
				"z": -0.3620437356,
				"element": "C" 
			},
			{
				"x": -0.3258694948,
				"y": 2.5886008628,
				"z": -1.1592724633,
				"element": "C" 
			},
			{
				"x": -1.6632643158,
				"y": 2.6860981075,
				"z": -0.8586197451,
				"element": "C" 
			},
			{
				"x": -2.4910268293,
				"y": 3.4360818032,
				"z": -1.5971066599,
				"element": "F" 
			},
			{
				"x": -2.2012222789,
				"y": 1.9846521959,
				"z": 0.2325344601,
				"element": "C" 
			},
			{
				"x": -3.5071369255,
				"y": 2.0980517779,
				"z": 0.4432157504,
				"element": "F" 
			},
			{
				"x": -0.1230534818,
				"y": 1.6846403996,
				"z": 3.7907641218,
				"element": "H" 
			},
			{
				"x": 1.5440155812,
				"y": 1.1433113378,
				"z": 4.0605787357,
				"element": "H" 
			},
			{
				"x": 0.2049446481,
				"y": 0.3566583048,
				"z": 4.9148138822,
				"element": "H" 
			},
			{
				"x": 1.0275114443,
				"y": -1.069839451,
				"z": 3.0431244127,
				"element": "H" 
			},
			{
				"x": -1.4576660699,
				"y": -1.1037552856,
				"z": 3.609957548,
				"element": "H" 
			},
			{
				"x": -1.0703645216,
				"y": -1.565881883,
				"z": 1.9448200233,
				"element": "H" 
			},
			{
				"x": 2.7830156157,
				"y": -0.3358185039,
				"z": 1.8975709982,
				"element": "H" 
			},
			{
				"x": 4.0277757536,
				"y": 1.8157088838,
				"z": -1.5398552039,
				"element": "H" 
			},
			{
				"x": 0.0987713585,
				"y": 3.1169799372,
				"z": -2.0055865631,
				"element": "H" 
			}
		],
		 "valence_orbital": [ 
			{
				"type": "occ",
				"energy": -0.2857,
				"method": "rhf"
			},
			{
				"type": "occ",
				"energy": -0.28318,
				"method": "rhf"
			},
			{
				"type": "occ",
				"energy": -0.27522,
				"method": "rhf"
			},
			{
				"type": "occ",
				"energy": -0.26632,
				"method": "rhf"
			},
			{
				"type": "occ",
				"energy": -0.25145,
				"method": "rhf"
			},
			{
				"type": "unocc",
				"energy": -0.10182,
				"method": "rhf"
			},
			{
				"type": "unocc",
				"energy": -0.06389,
				"method": "rhf"
			},
			{
				"type": "unocc",
				"energy": -0.05865,
				"method": "rhf"
			},
			{
				"type": "unocc",
				"energy": 0.00013,
				"method": "rhf"
			},
			{
				"type": "unocc",
				"energy": 0.02724,
				"method": "rhf"
			}
		],
		"cosmo_sigma_profile": { 
			"-0.025": 0.0,
			"-0.024": 0.0,
			"-0.023": 0.0,
			"-0.022": 0.0,
			"-0.021": 0.0,
			"-0.02": 0.0,
			"-0.019": 0.0,
			"-0.018": 0.0,
			"-0.017": 0.0,
			"-0.016": 0.0,
			"-0.015": 0.0,
			"-0.014": 0.0,
			"-0.013": 0.0,
			"-0.012": 0.508101375755,
			"-0.011": 1.64328789788,
			"-0.01": 2.22696377236,
			"-0.009": 3.63576384176,
			"-0.008": 8.34711438159,
			"-0.007": 11.7270791973,
			"-0.006": 15.4811668738,
			"-0.005": 19.608734852,
			"-0.004": 26.9878556511,
			"-0.003": 27.8212742811,
			"-0.002": 24.4480101687,
			"-0.001": 19.6291617562,
			"0.0": 9.71185650593,
			"0.001": 9.87625467422,
			"0.002": 13.6788163988,
			"0.003": 18.1188795565,
			"0.004": 5.24924312284,
			"0.005": 5.19797710191,
			"0.006": 5.53536394012,
			"0.007": 4.86760676767,
			"0.008": 6.18908191117,
			"0.009": 6.24672367488,
			"0.01": 8.95488763558,
			"0.011": 11.7635676394,
			"0.012": 7.59466161818,
			"0.013": 3.10004869012,
			"0.014": 1.10138333209,
			"0.015": 0.0,
			"0.016": 0.0,
			"0.017": 0.0,
			"0.018": 0.0,
			"0.019": 0.0,
			"0.02": 0.0,
			"0.021": 0.0,
			"0.022": 0.0,
			"0.023": 0.0,
			"0.024": 0.0,
			"0.025": 0.0
		}
	}
}
