{
	 "smiles": "OC(=O)C1=CC=C(OC2=C(C=C(F)C=C2)[N+]([O-])=O)C=C1", 
	 "Tm": 453.15, 
	 "num_atms": 28, 
	 "gaussian": { 
		 "optdone": 1, 
		 "sigma_profile": "yes", 
		 "theory": "DFT", 
		 "functional": "B3LYP", 
		 "basiset": "6-31G**", 
		 "properties": { 
			 "R2extent": 7757.9203, 
			 "electric_dipole_moment_norm": 5.75175110814, 
			 "electric_quadrupole_moment_norm": 35.8592131226, 
			 "total_energy": -1030.79406234, 
			 "HOMO_LUMO_gap": 0.14735, 
			 "cosmo_polarized_energy": -20.89, 
			 "cosmo_cavitation_energy": 35.37, 
			 "cosmo_dispersion_energy": -24.82, 
			 "cosmo_repulsion_energy": 1.87, 
			 "cosmo_total_nonelectrostatic_energy": 12.43, 
			 "SMD_solvation_energy": 10.01 
		},
		"coords": [
			{
				"x": 1.3347668246,
				"y": 0.7403004941,
				"z": -5.8948767859,
				"element": "O" 
			},
			{
				"x": 0.5583606033,
				"y": 1.7393134211,
				"z": -5.3907826347,
				"element": "C" 
			},
			{
				"x": 0.0790784164,
				"y": 2.5629051609,
				"z": -6.1347450599,
				"element": "O" 
			},
			{
				"x": 0.34537024,
				"y": 1.7454766539,
				"z": -3.9103179608,
				"element": "C" 
			},
			{
				"x": 0.5019139701,
				"y": 0.6100280365,
				"z": -3.1052851715,
				"element": "C" 
			},
			{
				"x": 0.2685506301,
				"y": 0.6636975937,
				"z": -1.7321235845,
				"element": "C" 
			},
			{
				"x": -0.125401432,
				"y": 1.8738910479,
				"z": -1.1596189,
				"element": "C" 
			},
			{
				"x": -0.3745915737,
				"y": 2.0378284471,
				"z": 0.1861528471,
				"element": "O" 
			},
			{
				"x": -0.4257502248,
				"y": 0.9525560659,
				"z": 1.0256949613,
				"element": "C" 
			},
			{
				"x": 0.6249859948,
				"y": 0.64135644,
				"z": 1.9035624178,
				"element": "C" 
			},
			{
				"x": 0.4927167011,
				"y": -0.3615439293,
				"z": 2.8643042999,
				"element": "C" 
			},
			{
				"x": -0.6931597228,
				"y": -1.0772032208,
				"z": 2.9144883655,
				"element": "C" 
			},
			{
				"x": -0.8248727746,
				"y": -2.057285367,
				"z": 3.8232609557,
				"element": "F" 
			},
			{
				"x": -1.7520729478,
				"y": -0.8040403083,
				"z": 2.0519139283,
				"element": "C" 
			},
			{
				"x": -1.6133138355,
				"y": 0.2201171255,
				"z": 1.119549451,
				"element": "C" 
			},
			{
				"x": 1.9139543679,
				"y": 1.3506206688,
				"z": 1.8524852149,
				"element": "N" 
			},
			{
				"x": 2.2665901679,
				"y": 1.8180860204,
				"z": 0.7736994711,
				"element": "O" 
			},
			{
				"x": 2.5631751031,
				"y": 1.4014649958,
				"z": 2.8957634694,
				"element": "O" 
			},
			{
				"x": -0.2968619462,
				"y": 3.0179356942,
				"z": -1.9468561118,
				"element": "C" 
			},
			{
				"x": -0.0713262734,
				"y": 2.9460706278,
				"z": -3.3131982528,
				"element": "C" 
			},
			{
				"x": 1.7953954216,
				"y": 0.2827873413,
				"z": -5.1781914333,
				"element": "H" 
			},
			{
				"x": 0.7748592152,
				"y": -0.347641758,
				"z": -3.5417819439,
				"element": "H" 
			},
			{
				"x": 0.3927336906,
				"y": -0.2221883613,
				"z": -1.1206243231,
				"element": "H" 
			},
			{
				"x": 1.3045708555,
				"y": -0.5672127148,
				"z": 3.5499381732,
				"element": "H" 
			},
			{
				"x": -2.6686136143,
				"y": -1.378307889,
				"z": 2.1284275078,
				"element": "H" 
			},
			{
				"x": -2.4313351521,
				"y": 0.4809558096,
				"z": 0.456850801,
				"element": "H" 
			},
			{
				"x": -0.6058877881,
				"y": 3.9417481677,
				"z": -1.4700464325,
				"element": "H" 
			},
			{
				"x": -0.212134917,
				"y": 3.8155837363,
				"z": -3.9458432691,
				"element": "H" 
			}
		],
		 "valence_orbital": [ 
			{
				"type": "occ",
				"energy": -0.298,
				"method": "rhf"
			},
			{
				"type": "occ",
				"energy": -0.28044,
				"method": "rhf"
			},
			{
				"type": "occ",
				"energy": -0.27811,
				"method": "rhf"
			},
			{
				"type": "occ",
				"energy": -0.27338,
				"method": "rhf"
			},
			{
				"type": "occ",
				"energy": -0.25111,
				"method": "rhf"
			},
			{
				"type": "unocc",
				"energy": -0.10376,
				"method": "rhf"
			},
			{
				"type": "unocc",
				"energy": -0.04877,
				"method": "rhf"
			},
			{
				"type": "unocc",
				"energy": -0.04556,
				"method": "rhf"
			},
			{
				"type": "unocc",
				"energy": -0.02911,
				"method": "rhf"
			},
			{
				"type": "unocc",
				"energy": -0.022,
				"method": "rhf"
			}
		],
		"cosmo_sigma_profile": { 
			"-0.025": 0.0,
			"-0.024": 0.0,
			"-0.023": 0.0,
			"-0.022": 0.0,
			"-0.021": 0.0,
			"-0.02": 0.0,
			"-0.019": 0.0937050149977,
			"-0.018": 1.03686248064,
			"-0.017": 0.831367898281,
			"-0.016": 1.08445240981,
			"-0.015": 0.935628262091,
			"-0.014": 0.969090431313,
			"-0.013": 0.853741478857,
			"-0.012": 1.57629985163,
			"-0.011": 1.05137620146,
			"-0.01": 1.35419437746,
			"-0.009": 5.87584525064,
			"-0.008": 8.50977307366,
			"-0.007": 13.3485765278,
			"-0.006": 14.0212937189,
			"-0.005": 14.5202744404,
			"-0.004": 12.7086289324,
			"-0.003": 15.0804350942,
			"-0.002": 21.837019228,
			"-0.001": 24.4529049639,
			"0.0": 18.7369543547,
			"0.001": 12.7139028028,
			"0.002": 18.474061262,
			"0.003": 21.2616752002,
			"0.004": 11.2347536581,
			"0.005": 7.4572370083,
			"0.006": 11.1802655575,
			"0.007": 11.9938726132,
			"0.008": 7.25651072689,
			"0.009": 7.326194611,
			"0.01": 5.04681360732,
			"0.011": 5.4058911579,
			"0.012": 5.13620518064,
			"0.013": 1.81116632228,
			"0.014": 0.0957760557167,
			"0.015": 0.0,
			"0.016": 0.0,
			"0.017": 0.0,
			"0.018": 0.0,
			"0.019": 0.0,
			"0.02": 0.0,
			"0.021": 0.0,
			"0.022": 0.0,
			"0.023": 0.0,
			"0.024": 0.0,
			"0.025": 0.0
		}
	}
}
