{
	 "smiles": "CCCCCCCCCCCCCCCCCl", 
	 "Tm": 291.05, 
	 "num_atms": 50, 
	 "gaussian": { 
		 "optdone": 1, 
		 "sigma_profile": "yes", 
		 "theory": "DFT", 
		 "functional": "B3LYP", 
		 "basiset": "6-31G**", 
		 "properties": { 
			 "R2extent": 10329.4956, 
			 "electric_dipole_moment_norm": 2.40499307483, 
			 "electric_quadrupole_moment_norm": 14.193243865, 
			 "total_energy": -1089.83338715, 
			 "HOMO_LUMO_gap": 0.31257, 
			 "cosmo_polarized_energy": -4.3, 
			 "cosmo_cavitation_energy": 50.12, 
			 "cosmo_dispersion_energy": -33.3, 
			 "cosmo_repulsion_energy": 2.76, 
			 "cosmo_total_nonelectrostatic_energy": 19.57, 
			 "SMD_solvation_energy": 6.1 
		},
		"coords": [
			{
				"x": -1.1779868604,
				"y": -2.8539350529,
				"z": -2.9325570303,
				"element": "C" 
			},
			{
				"x": -2.0381842624,
				"y": -2.3981589612,
				"z": -4.1167332374,
				"element": "C" 
			},
			{
				"x": -2.6044999983,
				"y": -0.9694295941,
				"z": -4.0263037474,
				"element": "C" 
			},
			{
				"x": -3.590370366,
				"y": -0.704461218,
				"z": -2.8664007124,
				"element": "C" 
			},
			{
				"x": -2.9544042434,
				"y": -0.1609422399,
				"z": -1.5764600938,
				"element": "C" 
			},
			{
				"x": -3.9840841482,
				"y": 0.0777386117,
				"z": -0.4635772685,
				"element": "C" 
			},
			{
				"x": -3.450268175,
				"y": 0.738928953,
				"z": 0.8201988947,
				"element": "C" 
			},
			{
				"x": -2.4099358011,
				"y": -0.0887461306,
				"z": 1.6111594216,
				"element": "C" 
			},
			{
				"x": -0.9299534212,
				"y": 0.2145315139,
				"z": 1.3036419793,
				"element": "C" 
			},
			{
				"x": -0.4476285995,
				"y": 1.5633392174,
				"z": 1.8598907149,
				"element": "C" 
			},
			{
				"x": 1.0031781057,
				"y": 1.9251278924,
				"z": 1.4996986151,
				"element": "C" 
			},
			{
				"x": 2.0694610229,
				"y": 1.0093947087,
				"z": 2.1188309894,
				"element": "C" 
			},
			{
				"x": 3.5014287189,
				"y": 1.4539937981,
				"z": 1.7887347097,
				"element": "C" 
			},
			{
				"x": 4.6064596617,
				"y": 0.6289099961,
				"z": 2.4732114664,
				"element": "C" 
			},
			{
				"x": 4.6672132633,
				"y": -0.867126854,
				"z": 2.1062408708,
				"element": "C" 
			},
			{
				"x": 4.9984649904,
				"y": -1.1007990607,
				"z": 0.6374821499,
				"element": "C" 
			},
			{
				"x": 5.1460840453,
				"y": -2.8762993536,
				"z": 0.2580627385,
				"element": "Cl" 
			},
			{
				"x": -0.7510316825,
				"y": -3.8451259399,
				"z": -3.119307294,
				"element": "H" 
			},
			{
				"x": -0.3452998967,
				"y": -2.1633696444,
				"z": -2.7550458991,
				"element": "H" 
			},
			{
				"x": -1.7586546312,
				"y": -2.919775522,
				"z": -2.006956801,
				"element": "H" 
			},
			{
				"x": -2.8734326056,
				"y": -3.1005539026,
				"z": -4.2453926749,
				"element": "H" 
			},
			{
				"x": -1.4409688078,
				"y": -2.4714852772,
				"z": -5.0351485545,
				"element": "H" 
			},
			{
				"x": -3.1133494056,
				"y": -0.7592567077,
				"z": -4.975489412,
				"element": "H" 
			},
			{
				"x": -1.7742960321,
				"y": -0.2508032862,
				"z": -3.9690839737,
				"element": "H" 
			},
			{
				"x": -4.1457551558,
				"y": -1.626630791,
				"z": -2.6415418331,
				"element": "H" 
			},
			{
				"x": -4.3457182659,
				"y": 0.020236473,
				"z": -3.198533406,
				"element": "H" 
			},
			{
				"x": -2.4409528264,
				"y": 0.7841294468,
				"z": -1.8061616276,
				"element": "H" 
			},
			{
				"x": -2.1789651972,
				"y": -0.8497420751,
				"z": -1.2242480507,
				"element": "H" 
			},
			{
				"x": -4.7927166554,
				"y": 0.7051917703,
				"z": -0.8643907625,
				"element": "H" 
			},
			{
				"x": -4.4530052073,
				"y": -0.881351973,
				"z": -0.1992134451,
				"element": "H" 
			},
			{
				"x": -4.3113925612,
				"y": 0.9383008399,
				"z": 1.4699902281,
				"element": "H" 
			},
			{
				"x": -3.0351852211,
				"y": 1.7253887665,
				"z": 0.5727190289,
				"element": "H" 
			},
			{
				"x": -2.6026938286,
				"y": -1.1561174486,
				"z": 1.4382711306,
				"element": "H" 
			},
			{
				"x": -2.5673612841,
				"y": 0.0675555507,
				"z": 2.6867408944,
				"element": "H" 
			},
			{
				"x": -0.317289125,
				"y": -0.5912413077,
				"z": 1.7269955582,
				"element": "H" 
			},
			{
				"x": -0.757224221,
				"y": 0.1898820185,
				"z": 0.2200173289,
				"element": "H" 
			},
			{
				"x": -0.5599393337,
				"y": 1.5611924494,
				"z": 2.9539539425,
				"element": "H" 
			},
			{
				"x": -1.1033355999,
				"y": 2.3631677027,
				"z": 1.4926491178,
				"element": "H" 
			},
			{
				"x": 1.1151373028,
				"y": 1.9231288036,
				"z": 0.4056993539,
				"element": "H" 
			},
			{
				"x": 1.1992985593,
				"y": 2.957445734,
				"z": 1.8203582705,
				"element": "H" 
			},
			{
				"x": 1.9400508699,
				"y": 0.9914389214,
				"z": 3.2110165984,
				"element": "H" 
			},
			{
				"x": 1.9128450761,
				"y": -0.0211113717,
				"z": 1.7776034342,
				"element": "H" 
			},
			{
				"x": 3.6420683212,
				"y": 1.4457132314,
				"z": 0.6989886117,
				"element": "H" 
			},
			{
				"x": 3.6244119442,
				"y": 2.502525642,
				"z": 2.091430445,
				"element": "H" 
			},
			{
				"x": 5.5802430901,
				"y": 1.0874045566,
				"z": 2.2539725817,
				"element": "H" 
			},
			{
				"x": 4.4781956741,
				"y": 0.7017029341,
				"z": 3.5610594699,
				"element": "H" 
			},
			{
				"x": 3.7196379283,
				"y": -1.3618820894,
				"z": 2.3444393413,
				"element": "H" 
			},
			{
				"x": 5.4340828132,
				"y": -1.3537058728,
				"z": 2.7188585471,
				"element": "H" 
			},
			{
				"x": 5.955608451,
				"y": -0.6523706603,
				"z": 0.3626005101,
				"element": "H" 
			},
			{
				"x": 4.2258135813,
				"y": -0.7193471972,
				"z": -0.0310711197,
				"element": "H" 
			}
		],
		 "valence_orbital": [ 
			{
				"type": "occ",
				"energy": -0.30365,
				"method": "rhf"
			},
			{
				"type": "occ",
				"energy": -0.29831,
				"method": "rhf"
			},
			{
				"type": "occ",
				"energy": -0.29341,
				"method": "rhf"
			},
			{
				"type": "occ",
				"energy": -0.28932,
				"method": "rhf"
			},
			{
				"type": "occ",
				"energy": -0.28747,
				"method": "rhf"
			},
			{
				"type": "unocc",
				"energy": 0.0251,
				"method": "rhf"
			},
			{
				"type": "unocc",
				"energy": 0.08037,
				"method": "rhf"
			},
			{
				"type": "unocc",
				"energy": 0.08414,
				"method": "rhf"
			},
			{
				"type": "unocc",
				"energy": 0.09435,
				"method": "rhf"
			},
			{
				"type": "unocc",
				"energy": 0.10028,
				"method": "rhf"
			}
		],
		"cosmo_sigma_profile": { 
			"-0.025": 0.0,
			"-0.024": 0.0,
			"-0.023": 0.0,
			"-0.022": 0.0,
			"-0.021": 0.0,
			"-0.02": 0.0,
			"-0.019": 0.0,
			"-0.018": 0.0,
			"-0.017": 0.0,
			"-0.016": 0.0,
			"-0.015": 0.0,
			"-0.014": 0.0,
			"-0.013": 0.0,
			"-0.012": 0.0,
			"-0.011": 0.0,
			"-0.01": 0.0,
			"-0.009": 0.0,
			"-0.008": 0.0,
			"-0.007": 0.28100849388,
			"-0.006": 3.59751871193,
			"-0.005": 4.71366109405,
			"-0.004": 7.97630083041,
			"-0.003": 17.8262554774,
			"-0.002": 43.9016193399,
			"-0.001": 83.1106695965,
			"0.0": 93.3951618755,
			"0.001": 68.874048,
			"0.002": 31.2763616954,
			"0.003": 4.21083346033,
			"0.004": 4.0901614682,
			"0.005": 5.13666671298,
			"0.006": 6.14063396489,
			"0.007": 10.333853585,
			"0.008": 0.997548352572,
			"0.009": 0.0,
			"0.01": 0.0,
			"0.011": 0.0,
			"0.012": 0.0,
			"0.013": 0.0,
			"0.014": 0.0,
			"0.015": 0.0,
			"0.016": 0.0,
			"0.017": 0.0,
			"0.018": 0.0,
			"0.019": 0.0,
			"0.02": 0.0,
			"0.021": 0.0,
			"0.022": 0.0,
			"0.023": 0.0,
			"0.024": 0.0,
			"0.025": 0.0
		}
	}
}
