{
	 "smiles": "ClC1=C2OC(OC2=C(Cl)C(Cl)=C1Cl)C1=CC=CC=C1", 
	 "Tm": 388.15, 
	 "num_atms": 25, 
	 "gaussian": { 
		 "optdone": 1, 
		 "sigma_profile": "yes", 
		 "theory": "DFT", 
		 "functional": "B3LYP", 
		 "basiset": "6-31G**", 
		 "properties": { 
			 "R2extent": 8976.3811, 
			 "electric_dipole_moment_norm": 3.71830838016, 
			 "electric_quadrupole_moment_norm": 5.66050589435, 
			 "total_energy": -2490.1744249, 
			 "HOMO_LUMO_gap": 0.19596, 
			 "cosmo_polarized_energy": -6.38, 
			 "cosmo_cavitation_energy": 36.93, 
			 "cosmo_dispersion_energy": -26.97, 
			 "cosmo_repulsion_energy": 2.08, 
			 "cosmo_total_nonelectrostatic_energy": 12.04, 
			 "SMD_solvation_energy": 5.37 
		},
		"coords": [
			{
				"x": 3.1430208183,
				"y": -0.2706597828,
				"z": -2.7782512532,
				"element": "Cl" 
			},
			{
				"x": 1.8948545443,
				"y": -1.2872536066,
				"z": -2.1330302218,
				"element": "C" 
			},
			{
				"x": 0.7180947737,
				"y": -0.7202525154,
				"z": -1.6835218277,
				"element": "C" 
			},
			{
				"x": 0.3565158715,
				"y": 0.5939542783,
				"z": -1.6967501221,
				"element": "O" 
			},
			{
				"x": -0.8846536342,
				"y": 0.6678376802,
				"z": -0.9573435553,
				"element": "C" 
			},
			{
				"x": -1.366869814,
				"y": -0.6894969111,
				"z": -0.8269964579,
				"element": "O" 
			},
			{
				"x": -0.3156475763,
				"y": -1.4901490641,
				"z": -1.1618204023,
				"element": "C" 
			},
			{
				"x": -0.2238268843,
				"y": -2.8650057669,
				"z": -1.063934793,
				"element": "C" 
			},
			{
				"x": -1.5523286498,
				"y": -3.7671206177,
				"z": -0.4089465382,
				"element": "Cl" 
			},
			{
				"x": 0.972430141,
				"y": -3.4730535309,
				"z": -1.5160480011,
				"element": "C" 
			},
			{
				"x": 1.1331725608,
				"y": -5.1995621646,
				"z": -1.4056827863,
				"element": "Cl" 
			},
			{
				"x": 2.0170192531,
				"y": -2.6951508912,
				"z": -2.0431298227,
				"element": "C" 
			},
			{
				"x": 3.48294501,
				"y": -3.4497388214,
				"z": -2.5912972464,
				"element": "Cl" 
			},
			{
				"x": -0.6872172041,
				"y": 1.3198601782,
				"z": 0.3948849528,
				"element": "C" 
			},
			{
				"x": -1.5100315812,
				"y": 0.9666118281,
				"z": 1.470162745,
				"element": "C" 
			},
			{
				"x": -1.3617828444,
				"y": 1.607762619,
				"z": 2.7003372186,
				"element": "C" 
			},
			{
				"x": -0.397220009,
				"y": 2.6042730115,
				"z": 2.8608857289,
				"element": "C" 
			},
			{
				"x": 0.4220802391,
				"y": 2.9582347046,
				"z": 1.7871647143,
				"element": "C" 
			},
			{
				"x": 0.2780807624,
				"y": 2.3203134647,
				"z": 0.5549118886,
				"element": "C" 
			},
			{
				"x": -1.6026915,
				"y": 1.2093400475,
				"z": -1.5813904423,
				"element": "H" 
			},
			{
				"x": -2.2511138611,
				"y": 0.1840891561,
				"z": 1.3454969433,
				"element": "H" 
			},
			{
				"x": -1.9973214366,
				"y": 1.3246768548,
				"z": 3.5342138628,
				"element": "H" 
			},
			{
				"x": -0.2824060429,
				"y": 3.1010541244,
				"z": 3.8198486593,
				"element": "H" 
			},
			{
				"x": 1.1779495364,
				"y": 3.7284637355,
				"z": 1.9088430188,
				"element": "H" 
			},
			{
				"x": 0.9210475275,
				"y": 2.5852719898,
				"z": -0.2779062621,
				"element": "H" 
			}
		],
		 "valence_orbital": [ 
			{
				"type": "occ",
				"energy": -0.30009,
				"method": "rhf"
			},
			{
				"type": "occ",
				"energy": -0.26531,
				"method": "rhf"
			},
			{
				"type": "occ",
				"energy": -0.26518,
				"method": "rhf"
			},
			{
				"type": "occ",
				"energy": -0.25185,
				"method": "rhf"
			},
			{
				"type": "occ",
				"energy": -0.23184,
				"method": "rhf"
			},
			{
				"type": "unocc",
				"energy": -0.03588,
				"method": "rhf"
			},
			{
				"type": "unocc",
				"energy": -0.0333,
				"method": "rhf"
			},
			{
				"type": "unocc",
				"energy": -0.02775,
				"method": "rhf"
			},
			{
				"type": "unocc",
				"energy": -0.02371,
				"method": "rhf"
			},
			{
				"type": "unocc",
				"energy": -0.01659,
				"method": "rhf"
			}
		],
		"cosmo_sigma_profile": { 
			"-0.025": 0.0,
			"-0.024": 0.0,
			"-0.023": 0.0,
			"-0.022": 0.0,
			"-0.021": 0.0,
			"-0.02": 0.0,
			"-0.019": 0.0,
			"-0.018": 0.0,
			"-0.017": 0.0,
			"-0.016": 0.0,
			"-0.015": 0.0,
			"-0.014": 0.0,
			"-0.013": 0.0,
			"-0.012": 0.0,
			"-0.011": 0.0,
			"-0.01": 0.884651381404,
			"-0.009": 3.24944883755,
			"-0.008": 2.07151437566,
			"-0.007": 1.82753631979,
			"-0.006": 9.52869822904,
			"-0.005": 12.5454419464,
			"-0.004": 19.9765207273,
			"-0.003": 20.6189798245,
			"-0.002": 30.4345162917,
			"-0.001": 34.0894076265,
			"0.0": 23.4228904605,
			"0.001": 27.1761471512,
			"0.002": 31.2297274827,
			"0.003": 44.964643331,
			"0.004": 28.955916572,
			"0.005": 11.3226157571,
			"0.006": 2.69011703695,
			"0.007": 1.66475488128,
			"0.008": 0.353934515413,
			"0.009": 0.0,
			"0.01": 0.0,
			"0.011": 0.0,
			"0.012": 0.0,
			"0.013": 0.0,
			"0.014": 0.0,
			"0.015": 0.0,
			"0.016": 0.0,
			"0.017": 0.0,
			"0.018": 0.0,
			"0.019": 0.0,
			"0.02": 0.0,
			"0.021": 0.0,
			"0.022": 0.0,
			"0.023": 0.0,
			"0.024": 0.0,
			"0.025": 0.0
		}
	}
}
