{
	 "smiles": "FC1=NC=CC(Br)=C1Br", 
	 "Tm": 349.15, 
	 "num_atms": 11, 
	 "gaussian": { 
		 "optdone": 1, 
		 "sigma_profile": "yes", 
		 "theory": "DFT", 
		 "functional": "B3LYP", 
		 "basiset": "6-31G**", 
		 "properties": { 
			 "R2extent": 2956.0233, 
			 "electric_dipole_moment_norm": 2.34652385669, 
			 "electric_quadrupole_moment_norm": 8.70149085732, 
			 "total_energy": -5489.11894364, 
			 "HOMO_LUMO_gap": 0.20905, 
			 "cosmo_polarized_energy": -5.26, 
			 "cosmo_cavitation_energy": 20.64, 
			 "cosmo_dispersion_energy": -16.19, 
			 "cosmo_repulsion_energy": 1.29, 
			 "cosmo_total_nonelectrostatic_energy": 5.75, 
			 "SMD_solvation_energy": 0.52 
		},
		"coords": [
			{
				"x": -1.4723954574,
				"y": -1.4682909972,
				"z": 3.0724512989,
				"element": "F" 
			},
			{
				"x": -1.0388383901,
				"y": -0.4936235711,
				"z": 2.2717948412,
				"element": "C" 
			},
			{
				"x": -0.4815451284,
				"y": 0.5399500518,
				"z": 2.8573450949,
				"element": "N" 
			},
			{
				"x": -0.0393904227,
				"y": 1.5301285066,
				"z": 2.0689857204,
				"element": "C" 
			},
			{
				"x": -0.1441585863,
				"y": 1.5089857474,
				"z": 0.6838839141,
				"element": "C" 
			},
			{
				"x": -0.742008794,
				"y": 0.3966088918,
				"z": 0.0826200628,
				"element": "C" 
			},
			{
				"x": -0.8940530961,
				"y": 0.3493857468,
				"z": -1.8033851663,
				"element": "Br" 
			},
			{
				"x": -1.2093372527,
				"y": -0.6459063403,
				"z": 0.8860261154,
				"element": "C" 
			},
			{
				"x": -2.0355421004,
				"y": -2.2042033838,
				"z": 0.2119103667,
				"element": "Br" 
			},
			{
				"x": 0.4190266152,
				"y": 2.3773773882,
				"z": 2.572422145,
				"element": "H" 
			},
			{
				"x": 0.225142613,
				"y": 2.3285879598,
				"z": 0.080145607,
				"element": "H" 
			}
		],
		 "valence_orbital": [ 
			{
				"type": "occ",
				"energy": -0.32204,
				"method": "rhf"
			},
			{
				"type": "occ",
				"energy": -0.30595,
				"method": "rhf"
			},
			{
				"type": "occ",
				"energy": -0.28593,
				"method": "rhf"
			},
			{
				"type": "occ",
				"energy": -0.28222,
				"method": "rhf"
			},
			{
				"type": "occ",
				"energy": -0.26469,
				"method": "rhf"
			},
			{
				"type": "unocc",
				"energy": -0.05564,
				"method": "rhf"
			},
			{
				"type": "unocc",
				"energy": -0.03701,
				"method": "rhf"
			},
			{
				"type": "unocc",
				"energy": -0.03393,
				"method": "rhf"
			},
			{
				"type": "unocc",
				"energy": 0.02245,
				"method": "rhf"
			},
			{
				"type": "unocc",
				"energy": 0.11346,
				"method": "rhf"
			}
		],
		"cosmo_sigma_profile": { 
			"-0.025": 0.0,
			"-0.024": 0.0,
			"-0.023": 0.0,
			"-0.022": 0.0,
			"-0.021": 0.0,
			"-0.02": 0.0,
			"-0.019": 0.0,
			"-0.018": 0.0,
			"-0.017": 0.0,
			"-0.016": 0.0,
			"-0.015": 0.0,
			"-0.014": 0.0,
			"-0.013": 0.0,
			"-0.012": 0.0,
			"-0.011": 0.0,
			"-0.01": 0.00460784571345,
			"-0.009": 2.09169359747,
			"-0.008": 4.75869988354,
			"-0.007": 4.47739361594,
			"-0.006": 5.19779979076,
			"-0.005": 5.99594457958,
			"-0.004": 8.60002302951,
			"-0.003": 12.4629158683,
			"-0.002": 15.8552318798,
			"-0.001": 17.7580281268,
			"0.0": 16.1258074781,
			"0.001": 12.0795738237,
			"0.002": 18.013562046,
			"0.003": 27.420965297,
			"0.004": 11.4256805711,
			"0.005": 2.12933518047,
			"0.006": 1.78372671078,
			"0.007": 1.56155653804,
			"0.008": 0.840423331146,
			"0.009": 1.02028174071,
			"0.01": 1.25293752972,
			"0.011": 1.00623117592,
			"0.012": 0.872283060534,
			"0.013": 0.867230481177,
			"0.014": 0.077443555197,
			"0.015": 0.0,
			"0.016": 0.0,
			"0.017": 0.0,
			"0.018": 0.0,
			"0.019": 0.0,
			"0.02": 0.0,
			"0.021": 0.0,
			"0.022": 0.0,
			"0.023": 0.0,
			"0.024": 0.0,
			"0.025": 0.0
		}
	}
}
