{
	 "smiles": "N[C@@H](CS)C(O)=O", 
	 "Tm": 513.15, 
	 "num_atms": 14, 
	 "gaussian": { 
		 "optdone": 1, 
		 "sigma_profile": "yes", 
		 "theory": "DFT", 
		 "functional": "B3LYP", 
		 "basiset": "6-31G**", 
		 "properties": { 
			 "R2extent": 1272.6331, 
			 "electric_dipole_moment_norm": 6.37961896668, 
			 "electric_quadrupole_moment_norm": 6.98891055602, 
			 "total_energy": -721.927968152, 
			 "HOMO_LUMO_gap": 0.24061, 
			 "cosmo_polarized_energy": -19.3, 
			 "cosmo_cavitation_energy": 19.01, 
			 "cosmo_dispersion_energy": -14.8, 
			 "cosmo_repulsion_energy": 1.23, 
			 "cosmo_total_nonelectrostatic_energy": 5.43, 
			 "SMD_solvation_energy": 3.7 
		},
		"coords": [
			{
				"x": -0.5590621894,
				"y": 0.8376879742,
				"z": -1.1484471686,
				"element": "N" 
			},
			{
				"x": -0.6348749256,
				"y": -0.3906241877,
				"z": -0.3390370786,
				"element": "C" 
			},
			{
				"x": 0.7159063661,
				"y": -0.9283674631,
				"z": 0.1546029863,
				"element": "C" 
			},
			{
				"x": 0.5986110121,
				"y": -2.6327228954,
				"z": 0.8659835914,
				"element": "S" 
			},
			{
				"x": -1.6058321545,
				"y": -0.134517487,
				"z": 0.832661597,
				"element": "C" 
			},
			{
				"x": -2.5263272807,
				"y": 0.8049244853,
				"z": 0.5678136829,
				"element": "O" 
			},
			{
				"x": -1.555759495,
				"y": -0.7347146887,
				"z": 1.8803164773,
				"element": "O" 
			},
			{
				"x": 0.0953991672,
				"y": 1.5024924837,
				"z": -0.7404074924,
				"element": "H" 
			},
			{
				"x": -0.2426775145,
				"y": 0.640821759,
				"z": -2.0930896852,
				"element": "H" 
			},
			{
				"x": -1.110147237,
				"y": -1.1583547899,
				"z": -0.9625917181,
				"element": "H" 
			},
			{
				"x": 1.4137345478,
				"y": -0.9611202824,
				"z": -0.6846539918,
				"element": "H" 
			},
			{
				"x": 1.1271414346,
				"y": -0.2613445272,
				"z": 0.9178629112,
				"element": "H" 
			},
			{
				"x": 1.5643497663,
				"y": -3.1690816181,
				"z": 0.0907669571,
				"element": "H" 
			},
			{
				"x": -2.2641614973,
				"y": 1.1843212371,
				"z": -0.3011810683,
				"element": "H" 
			}
		],
		 "valence_orbital": [ 
			{
				"type": "occ",
				"energy": -0.33477,
				"method": "rhf"
			},
			{
				"type": "occ",
				"energy": -0.30925,
				"method": "rhf"
			},
			{
				"type": "occ",
				"energy": -0.29814,
				"method": "rhf"
			},
			{
				"type": "occ",
				"energy": -0.26363,
				"method": "rhf"
			},
			{
				"type": "occ",
				"energy": -0.23824,
				"method": "rhf"
			},
			{
				"type": "unocc",
				"energy": 0.00237,
				"method": "rhf"
			},
			{
				"type": "unocc",
				"energy": 0.02631,
				"method": "rhf"
			},
			{
				"type": "unocc",
				"energy": 0.05399,
				"method": "rhf"
			},
			{
				"type": "unocc",
				"energy": 0.07048,
				"method": "rhf"
			},
			{
				"type": "unocc",
				"energy": 0.10199,
				"method": "rhf"
			}
		],
		"cosmo_sigma_profile": { 
			"-0.025": 0.0,
			"-0.024": 0.0,
			"-0.023": 0.0,
			"-0.022": 0.0,
			"-0.021": 0.0,
			"-0.02": 0.0,
			"-0.019": 0.0,
			"-0.018": 0.0,
			"-0.017": 0.0,
			"-0.016": 0.0,
			"-0.015": 0.0,
			"-0.014": 0.0,
			"-0.013": 0.158287710065,
			"-0.012": 3.19424274548,
			"-0.011": 4.18840130326,
			"-0.01": 4.21775139722,
			"-0.009": 6.22761129697,
			"-0.008": 8.8598885275,
			"-0.007": 11.7429612737,
			"-0.006": 9.47924638221,
			"-0.005": 8.39490478206,
			"-0.004": 6.83975731616,
			"-0.003": 5.19713456357,
			"-0.002": 5.82419920515,
			"-0.001": 5.096217159,
			"0.0": 3.98921632884,
			"0.001": 3.66383249684,
			"0.002": 3.94316569332,
			"0.003": 5.28300033278,
			"0.004": 4.14698056125,
			"0.005": 4.0303052494,
			"0.006": 5.96921483815,
			"0.007": 4.46575619935,
			"0.008": 6.57422465715,
			"0.009": 7.22869876178,
			"0.01": 7.60717273915,
			"0.011": 7.14190351835,
			"0.012": 5.29649012792,
			"0.013": 1.94020866884,
			"0.014": 0.184360815479,
			"0.015": 0.0,
			"0.016": 0.0,
			"0.017": 0.0,
			"0.018": 0.0,
			"0.019": 0.0,
			"0.02": 0.0,
			"0.021": 0.0,
			"0.022": 0.0,
			"0.023": 0.0,
			"0.024": 0.0,
			"0.025": 0.0
		}
	}
}
