{
	 "smiles": "CC1=NN(C(=O)C1)C1=CC=C(C)C=C1", 
	 "Tm": 411.15, 
	 "num_atms": 26, 
	 "gaussian": { 
		 "optdone": 1, 
		 "sigma_profile": "yes", 
		 "theory": "DFT", 
		 "functional": "B3LYP", 
		 "basiset": "6-31G**", 
		 "properties": { 
			 "R2extent": 3503.761, 
			 "electric_dipole_moment_norm": 3.04123154988, 
			 "electric_quadrupole_moment_norm": 16.6340560027, 
			 "total_energy": -611.125648785, 
			 "HOMO_LUMO_gap": 0.17442, 
			 "cosmo_polarized_energy": -10.92, 
			 "cosmo_cavitation_energy": 29.6, 
			 "cosmo_dispersion_energy": -21.91, 
			 "cosmo_repulsion_energy": 1.73, 
			 "cosmo_total_nonelectrostatic_energy": 9.42, 
			 "SMD_solvation_energy": 5.19 
		},
		"coords": [
			{
				"x": 1.6458766752,
				"y": 4.0403628012,
				"z": -0.3604149692,
				"element": "C" 
			},
			{
				"x": 1.7147300389,
				"y": 2.5503636576,
				"z": -0.3008542725,
				"element": "C" 
			},
			{
				"x": 0.667864134,
				"y": 1.8332682007,
				"z": -0.0823142225,
				"element": "N" 
			},
			{
				"x": 1.0385478364,
				"y": 0.4819811316,
				"z": -0.0822067491,
				"element": "N" 
			},
			{
				"x": 2.4010738264,
				"y": 0.3021448369,
				"z": -0.313435997,
				"element": "C" 
			},
			{
				"x": 3.0146283331,
				"y": -0.7485214291,
				"z": -0.3704959137,
				"element": "O" 
			},
			{
				"x": 2.9504419615,
				"y": 1.7182839242,
				"z": -0.4778706527,
				"element": "C" 
			},
			{
				"x": 0.0355248546,
				"y": -0.4977858842,
				"z": 0.1405773796,
				"element": "C" 
			},
			{
				"x": 0.3502163298,
				"y": -1.8648878086,
				"z": 0.1554636894,
				"element": "C" 
			},
			{
				"x": -0.6606761718,
				"y": -2.7976234859,
				"z": 0.3801279048,
				"element": "C" 
			},
			{
				"x": -1.9909313125,
				"y": -2.4162726154,
				"z": 0.591440535,
				"element": "C" 
			},
			{
				"x": -3.0780878282,
				"y": -3.443609766,
				"z": 0.8012395324,
				"element": "C" 
			},
			{
				"x": -2.2788435574,
				"y": -1.0457502911,
				"z": 0.5762193083,
				"element": "C" 
			},
			{
				"x": -1.2893224476,
				"y": -0.0919171557,
				"z": 0.3542062732,
				"element": "C" 
			},
			{
				"x": 2.2929253764,
				"y": 4.4939661619,
				"z": 0.4000014379,
				"element": "H" 
			},
			{
				"x": 1.9883491645,
				"y": 4.4105516643,
				"z": -1.3342354323,
				"element": "H" 
			},
			{
				"x": 0.6194925914,
				"y": 4.3745085069,
				"z": -0.19621239,
				"element": "H" 
			},
			{
				"x": 3.7232086869,
				"y": 1.9222560686,
				"z": 0.2721481215,
				"element": "H" 
			},
			{
				"x": 3.4186528592,
				"y": 1.8389002994,
				"z": -1.4615007084,
				"element": "H" 
			},
			{
				"x": 1.3709603921,
				"y": -2.1833602429,
				"z": -0.0029052868,
				"element": "H" 
			},
			{
				"x": -0.3998097397,
				"y": -3.8532598509,
				"z": 0.3919634323,
				"element": "H" 
			},
			{
				"x": -3.8868891452,
				"y": -3.0496582581,
				"z": 1.424562898,
				"element": "H" 
			},
			{
				"x": -3.5253025844,
				"y": -3.7536306896,
				"z": -0.1520489446,
				"element": "H" 
			},
			{
				"x": -2.6890594599,
				"y": -4.3455476051,
				"z": 1.2838401119,
				"element": "H" 
			},
			{
				"x": -3.3001143417,
				"y": -0.711511538,
				"z": 0.7433821805,
				"element": "H" 
			},
			{
				"x": -1.5299564721,
				"y": 0.9631493672,
				"z": 0.3485227339,
				"element": "H" 
			}
		],
		 "valence_orbital": [ 
			{
				"type": "occ",
				"energy": -0.31065,
				"method": "rhf"
			},
			{
				"type": "occ",
				"energy": -0.27087,
				"method": "rhf"
			},
			{
				"type": "occ",
				"energy": -0.25418,
				"method": "rhf"
			},
			{
				"type": "occ",
				"energy": -0.2422,
				"method": "rhf"
			},
			{
				"type": "occ",
				"energy": -0.20456,
				"method": "rhf"
			},
			{
				"type": "unocc",
				"energy": -0.03014,
				"method": "rhf"
			},
			{
				"type": "unocc",
				"energy": -0.00488,
				"method": "rhf"
			},
			{
				"type": "unocc",
				"energy": 0.00794,
				"method": "rhf"
			},
			{
				"type": "unocc",
				"energy": 0.05874,
				"method": "rhf"
			},
			{
				"type": "unocc",
				"energy": 0.08713,
				"method": "rhf"
			}
		],
		"cosmo_sigma_profile": { 
			"-0.025": 0.0,
			"-0.024": 0.0,
			"-0.023": 0.0,
			"-0.022": 0.0,
			"-0.021": 0.0,
			"-0.02": 0.0,
			"-0.019": 0.0,
			"-0.018": 0.0,
			"-0.017": 0.0,
			"-0.016": 0.0,
			"-0.015": 0.0,
			"-0.014": 0.0,
			"-0.013": 0.0,
			"-0.012": 0.0,
			"-0.011": 0.0,
			"-0.01": 0.0,
			"-0.009": 1.26814050777,
			"-0.008": 5.37484311037,
			"-0.007": 5.64895132508,
			"-0.006": 10.6897770317,
			"-0.005": 15.9151022782,
			"-0.004": 21.6893719936,
			"-0.003": 21.6167297061,
			"-0.002": 19.5990394934,
			"-0.001": 20.1789371108,
			"0.0": 18.4995554158,
			"0.001": 14.1546306406,
			"0.002": 12.0499205914,
			"0.003": 14.4419067077,
			"0.004": 11.9194970909,
			"0.005": 12.5619432939,
			"0.006": 9.99174009009,
			"0.007": 3.57706199119,
			"0.008": 2.47148885211,
			"0.009": 3.26212966449,
			"0.01": 2.60697694261,
			"0.011": 2.46569250346,
			"0.012": 3.3693371119,
			"0.013": 2.00953025985,
			"0.014": 0.199199148991,
			"0.015": 0.0,
			"0.016": 0.0,
			"0.017": 0.0,
			"0.018": 0.0,
			"0.019": 0.0,
			"0.02": 0.0,
			"0.021": 0.0,
			"0.022": 0.0,
			"0.023": 0.0,
			"0.024": 0.0,
			"0.025": 0.0
		}
	}
}
