{
	 "smiles": "CCCCCCCCCCOC1=C(OC)C=C(C=C1OC)C(N)=O", 
	 "Tm": 395.15, 
	 "num_atms": 55, 
	 "gaussian": { 
		 "optdone": 1, 
		 "sigma_profile": "yes", 
		 "theory": "DFT", 
		 "functional": "B3LYP", 
		 "basiset": "6-31G**", 
		 "properties": { 
			 "R2extent": 17979.2373, 
			 "electric_dipole_moment_norm": 3.59840267063, 
			 "electric_quadrupole_moment_norm": 37.3466416591, 
			 "total_energy": -1098.35753328, 
			 "HOMO_LUMO_gap": 0.1862, 
			 "cosmo_polarized_energy": -19.43, 
			 "cosmo_cavitation_energy": 56.41, 
			 "cosmo_dispersion_energy": -37.95, 
			 "cosmo_repulsion_energy": 3.01, 
			 "cosmo_total_nonelectrostatic_energy": 21.47, 
			 "SMD_solvation_energy": 10.82 
		},
		"coords": [
			{
				"x": 2.1905762875,
				"y": 3.9369516609,
				"z": 6.360375142,
				"element": "C" 
			},
			{
				"x": 2.8442843431,
				"y": 2.7690779782,
				"z": 5.6148552774,
				"element": "C" 
			},
			{
				"x": 1.8365630696,
				"y": 1.8856713683,
				"z": 4.8674836442,
				"element": "C" 
			},
			{
				"x": 2.4923828058,
				"y": 0.716118189,
				"z": 4.120507933,
				"element": "C" 
			},
			{
				"x": 1.5051893086,
				"y": -0.2464981532,
				"z": 3.4369128908,
				"element": "C" 
			},
			{
				"x": 0.6315926811,
				"y": 0.3631150808,
				"z": 2.3242766516,
				"element": "C" 
			},
			{
				"x": 1.3953330073,
				"y": 0.9628316605,
				"z": 1.1290837353,
				"element": "C" 
			},
			{
				"x": 2.3013694602,
				"y": -0.0150772316,
				"z": 0.355819261,
				"element": "C" 
			},
			{
				"x": 1.6020456013,
				"y": -1.2392351422,
				"z": -0.2589857502,
				"element": "C" 
			},
			{
				"x": 0.5651024466,
				"y": -0.8874921766,
				"z": -1.3165338052,
				"element": "C" 
			},
			{
				"x": 0.0741948475,
				"y": -2.1233239677,
				"z": -1.8646633197,
				"element": "O" 
			},
			{
				"x": -0.8965268431,
				"y": -1.9966811545,
				"z": -2.8183671498,
				"element": "C" 
			},
			{
				"x": -2.2469146593,
				"y": -2.1789482167,
				"z": -2.4654264127,
				"element": "C" 
			},
			{
				"x": -2.4746669655,
				"y": -2.4105512787,
				"z": -1.1412091963,
				"element": "O" 
			},
			{
				"x": -3.8080722257,
				"y": -2.6503600054,
				"z": -0.7251112606,
				"element": "C" 
			},
			{
				"x": -3.2442735475,
				"y": -2.1245413456,
				"z": -3.4462279641,
				"element": "C" 
			},
			{
				"x": -2.8903472141,
				"y": -1.8749836446,
				"z": -4.7788138213,
				"element": "C" 
			},
			{
				"x": -1.5523594272,
				"y": -1.6966677802,
				"z": -5.1401836374,
				"element": "C" 
			},
			{
				"x": -0.5560647489,
				"y": -1.7496417384,
				"z": -4.1623946068,
				"element": "C" 
			},
			{
				"x": 0.7740379327,
				"y": -1.5771258987,
				"z": -4.4026602961,
				"element": "O" 
			},
			{
				"x": 1.1855119617,
				"y": -1.3763999538,
				"z": -5.7475669797,
				"element": "C" 
			},
			{
				"x": -3.9021978813,
				"y": -1.7962001756,
				"z": -5.8847643656,
				"element": "C" 
			},
			{
				"x": -5.2123839256,
				"y": -1.6070358919,
				"z": -5.5011242202,
				"element": "N" 
			},
			{
				"x": -3.5916921045,
				"y": -1.910402306,
				"z": -7.0648465217,
				"element": "O" 
			},
			{
				"x": 1.6486080776,
				"y": 4.5941565926,
				"z": 5.6705347109,
				"element": "H" 
			},
			{
				"x": 1.4715614236,
				"y": 3.578280314,
				"z": 7.1059239285,
				"element": "H" 
			},
			{
				"x": 2.9349175459,
				"y": 4.5464016563,
				"z": 6.8834591398,
				"element": "H" 
			},
			{
				"x": 3.4090594593,
				"y": 2.1506506318,
				"z": 6.3258776593,
				"element": "H" 
			},
			{
				"x": 3.5828248983,
				"y": 3.158364013,
				"z": 4.9005978766,
				"element": "H" 
			},
			{
				"x": 1.2692476047,
				"y": 2.510454017,
				"z": 4.1644194876,
				"element": "H" 
			},
			{
				"x": 1.1004334375,
				"y": 1.4911506272,
				"z": 5.5833052943,
				"element": "H" 
			},
			{
				"x": 3.2023414319,
				"y": 1.1123699094,
				"z": 3.381686778,
				"element": "H" 
			},
			{
				"x": 3.0981586475,
				"y": 0.1392909789,
				"z": 4.8327406327,
				"element": "H" 
			},
			{
				"x": 2.0685180948,
				"y": -1.0967509682,
				"z": 3.031618102,
				"element": "H" 
			},
			{
				"x": 0.8403588944,
				"y": -0.6700889527,
				"z": 4.2021874888,
				"element": "H" 
			},
			{
				"x": -0.0080130951,
				"y": 1.1459876001,
				"z": 2.7511114126,
				"element": "H" 
			},
			{
				"x": -0.0567980045,
				"y": -0.4122501578,
				"z": 1.9643621584,
				"element": "H" 
			},
			{
				"x": 0.6643037702,
				"y": 1.4069801216,
				"z": 0.4410885831,
				"element": "H" 
			},
			{
				"x": 2.0141739027,
				"y": 1.8007306798,
				"z": 1.4748920144,
				"element": "H" 
			},
			{
				"x": 3.0989405643,
				"y": -0.3728018717,
				"z": 1.0183297419,
				"element": "H" 
			},
			{
				"x": 2.8090959245,
				"y": 0.5424482305,
				"z": -0.4430679637,
				"element": "H" 
			},
			{
				"x": 1.1185292601,
				"y": -1.8441742221,
				"z": 0.5167218089,
				"element": "H" 
			},
			{
				"x": 2.3524754553,
				"y": -1.884544751,
				"z": -0.7303810969,
				"element": "H" 
			},
			{
				"x": -0.2751774769,
				"y": -0.325929602,
				"z": -0.8874936394,
				"element": "H" 
			},
			{
				"x": 1.0137354391,
				"y": -0.2822965699,
				"z": -2.115752731,
				"element": "H" 
			},
			{
				"x": -4.2313544934,
				"y": -3.5395226932,
				"z": -1.2100733315,
				"element": "H" 
			},
			{
				"x": -3.7608215092,
				"y": -2.8188179273,
				"z": 0.3518672679,
				"element": "H" 
			},
			{
				"x": -4.4595772182,
				"y": -1.7890508196,
				"z": -0.9256703117,
				"element": "H" 
			},
			{
				"x": -4.2764129382,
				"y": -2.3188426572,
				"z": -3.1843064114,
				"element": "H" 
			},
			{
				"x": -1.3297524788,
				"y": -1.5262884346,
				"z": -6.1852500784,
				"element": "H" 
			},
			{
				"x": 2.2723258751,
				"y": -1.2858756616,
				"z": -5.7168765831,
				"element": "H" 
			},
			{
				"x": 0.756917267,
				"y": -0.4589602747,
				"z": -6.1703421492,
				"element": "H" 
			},
			{
				"x": 0.9097165216,
				"y": -2.2258957163,
				"z": -6.3841527098,
				"element": "H" 
			},
			{
				"x": -5.852772663,
				"y": -1.4239825233,
				"z": -6.2605838363,
				"element": "H" 
			},
			{
				"x": -5.4150478284,
				"y": -1.1558914452,
				"z": -4.6225084717,
				"element": "H" 
			}
		],
		 "valence_orbital": [ 
			{
				"type": "occ",
				"energy": -0.2699,
				"method": "rhf"
			},
			{
				"type": "occ",
				"energy": -0.26266,
				"method": "rhf"
			},
			{
				"type": "occ",
				"energy": -0.24666,
				"method": "rhf"
			},
			{
				"type": "occ",
				"energy": -0.22052,
				"method": "rhf"
			},
			{
				"type": "occ",
				"energy": -0.2158,
				"method": "rhf"
			},
			{
				"type": "unocc",
				"energy": -0.0296,
				"method": "rhf"
			},
			{
				"type": "unocc",
				"energy": 0.01713,
				"method": "rhf"
			},
			{
				"type": "unocc",
				"energy": 0.06346,
				"method": "rhf"
			},
			{
				"type": "unocc",
				"energy": 0.07205,
				"method": "rhf"
			},
			{
				"type": "unocc",
				"energy": 0.07715,
				"method": "rhf"
			}
		],
		"cosmo_sigma_profile": { 
			"-0.025": 0.0,
			"-0.024": 0.0,
			"-0.023": 0.0,
			"-0.022": 0.0,
			"-0.021": 0.0,
			"-0.02": 0.0,
			"-0.019": 0.0,
			"-0.018": 0.0,
			"-0.017": 0.0,
			"-0.016": 0.0,
			"-0.015": 0.0,
			"-0.014": 0.882735317266,
			"-0.013": 2.51895968256,
			"-0.012": 2.59637138249,
			"-0.011": 1.98004524946,
			"-0.01": 2.63937289658,
			"-0.009": 2.28598434448,
			"-0.008": 3.19770968176,
			"-0.007": 2.88481816339,
			"-0.006": 11.314074706,
			"-0.005": 20.3719946787,
			"-0.004": 19.4571531878,
			"-0.003": 30.1037421322,
			"-0.002": 51.6798874572,
			"-0.001": 62.8553513353,
			"0.0": 60.1153959918,
			"0.001": 52.1150945327,
			"0.002": 31.7507348893,
			"0.003": 14.1468265708,
			"0.004": 12.9228329128,
			"0.005": 7.94787713127,
			"0.006": 5.96763057304,
			"0.007": 4.89629057237,
			"0.008": 5.09716865091,
			"0.009": 4.02478513996,
			"0.01": 4.16922932858,
			"0.011": 5.01039006873,
			"0.012": 5.04401015198,
			"0.013": 5.96217232529,
			"0.014": 4.10367896344,
			"0.015": 0.278509161776,
			"0.016": 0.0,
			"0.017": 0.0,
			"0.018": 0.0,
			"0.019": 0.0,
			"0.02": 0.0,
			"0.021": 0.0,
			"0.022": 0.0,
			"0.023": 0.0,
			"0.024": 0.0,
			"0.025": 0.0
		}
	}
}
