{
	 "smiles": "COC1=C(NC(=O)OCC(F)(F)F)C=C2OC3=C(C=CC=C3)C2=C1", 
	 "Tm": 396.15, 
	 "num_atms": 36, 
	 "gaussian": { 
		 "optdone": 1, 
		 "sigma_profile": "yes", 
		 "theory": "DFT", 
		 "functional": "B3LYP", 
		 "basiset": "6-31G**", 
		 "properties": { 
			 "R2extent": 10272.1571, 
			 "electric_dipole_moment_norm": 3.01876354158, 
			 "electric_quadrupole_moment_norm": 10.4716146415, 
			 "total_energy": -1272.11952002, 
			 "HOMO_LUMO_gap": 0.16861, 
			 "cosmo_polarized_energy": -14.23, 
			 "cosmo_cavitation_energy": 41.57, 
			 "cosmo_dispersion_energy": -29.17, 
			 "cosmo_repulsion_energy": 2.11, 
			 "cosmo_total_nonelectrostatic_energy": 14.51, 
			 "SMD_solvation_energy": 9.55 
		},
		"coords": [
			{
				"x": -2.285073297,
				"y": 1.6837728364,
				"z": 1.4112140271,
				"element": "C" 
			},
			{
				"x": -2.0645528622,
				"y": 1.5155444684,
				"z": 0.0181198615,
				"element": "O" 
			},
			{
				"x": -0.8673965355,
				"y": 1.0213636238,
				"z": -0.3958492778,
				"element": "C" 
			},
			{
				"x": -0.7613876427,
				"y": 0.7797019354,
				"z": -1.79531737,
				"element": "C" 
			},
			{
				"x": -1.8585567313,
				"y": 1.0746047686,
				"z": -2.6535971756,
				"element": "N" 
			},
			{
				"x": -3.1211323076,
				"y": 0.5568795582,
				"z": -2.5799015813,
				"element": "C" 
			},
			{
				"x": -4.0740204994,
				"y": 0.973934808,
				"z": -3.206846042,
				"element": "O" 
			},
			{
				"x": -3.1518386599,
				"y": -0.5348664236,
				"z": -1.7533532645,
				"element": "O" 
			},
			{
				"x": -4.4373885763,
				"y": -1.0696740106,
				"z": -1.4877909309,
				"element": "C" 
			},
			{
				"x": -4.9118950788,
				"y": -0.6304368203,
				"z": -0.1125948115,
				"element": "C" 
			},
			{
				"x": -6.1083159426,
				"y": -1.1991013706,
				"z": 0.150964001,
				"element": "F" 
			},
			{
				"x": -4.0554093981,
				"y": -1.0052683194,
				"z": 0.8607250304,
				"element": "F" 
			},
			{
				"x": -5.0584497537,
				"y": 0.705870399,
				"z": -0.031278626,
				"element": "F" 
			},
			{
				"x": 0.4276705663,
				"y": 0.3121402282,
				"z": -2.3526834572,
				"element": "C" 
			},
			{
				"x": 1.4941682573,
				"y": 0.0860208587,
				"z": -1.4945086594,
				"element": "C" 
			},
			{
				"x": 2.737563543,
				"y": -0.3729300746,
				"z": -1.8719108869,
				"element": "O" 
			},
			{
				"x": 3.4685505693,
				"y": -0.465712964,
				"z": -0.7105666065,
				"element": "C" 
			},
			{
				"x": 2.7134615982,
				"y": -0.072545684,
				"z": 0.4127392029,
				"element": "C" 
			},
			{
				"x": 3.3100550079,
				"y": -0.1075671099,
				"z": 1.679017264,
				"element": "C" 
			},
			{
				"x": 4.6336139175,
				"y": -0.5314890138,
				"z": 1.7812254353,
				"element": "C" 
			},
			{
				"x": 5.3613638531,
				"y": -0.9176337037,
				"z": 0.6424034709,
				"element": "C" 
			},
			{
				"x": 4.787627747,
				"y": -0.8913037055,
				"z": -0.6299749069,
				"element": "C" 
			},
			{
				"x": 1.409477952,
				"y": 0.2917250785,
				"z": -0.1095098868,
				"element": "C" 
			},
			{
				"x": 0.2128790353,
				"y": 0.7617324766,
				"z": 0.449154239,
				"element": "C" 
			},
			{
				"x": -3.3153007251,
				"y": 2.0251674789,
				"z": 1.5063393865,
				"element": "H" 
			},
			{
				"x": -2.1707417701,
				"y": 0.7355060158,
				"z": 1.9491206516,
				"element": "H" 
			},
			{
				"x": -1.6060663838,
				"y": 2.4328735606,
				"z": 1.8380932869,
				"element": "H" 
			},
			{
				"x": -1.7938330045,
				"y": 1.870742341,
				"z": -3.2724178398,
				"element": "H" 
			},
			{
				"x": -4.3548041278,
				"y": -2.1586083398,
				"z": -1.4924108627,
				"element": "H" 
			},
			{
				"x": -5.1596582694,
				"y": -0.7360170849,
				"z": -2.235525863,
				"element": "H" 
			},
			{
				"x": 0.4988900939,
				"y": 0.124725379,
				"z": -3.4179993038,
				"element": "H" 
			},
			{
				"x": 2.7542929365,
				"y": 0.1883665644,
				"z": 2.563910294,
				"element": "H" 
			},
			{
				"x": 5.1123242764,
				"y": -0.5652290787,
				"z": 2.7551155538,
				"element": "H" 
			},
			{
				"x": 6.3912030351,
				"y": -1.2436968201,
				"z": 0.7526034231,
				"element": "H" 
			},
			{
				"x": 5.3370636435,
				"y": -1.1867314678,
				"z": -1.516989343,
				"element": "H" 
			},
			{
				"x": 0.1380155335,
				"y": 0.935139612,
				"z": 1.5154815679,
				"element": "H" 
			}
		],
		 "valence_orbital": [ 
			{
				"type": "occ",
				"energy": -0.28101,
				"method": "rhf"
			},
			{
				"type": "occ",
				"energy": -0.26904,
				"method": "rhf"
			},
			{
				"type": "occ",
				"energy": -0.25521,
				"method": "rhf"
			},
			{
				"type": "occ",
				"energy": -0.22736,
				"method": "rhf"
			},
			{
				"type": "occ",
				"energy": -0.21215,
				"method": "rhf"
			},
			{
				"type": "unocc",
				"energy": -0.04354,
				"method": "rhf"
			},
			{
				"type": "unocc",
				"energy": -0.00021,
				"method": "rhf"
			},
			{
				"type": "unocc",
				"energy": 0.01358,
				"method": "rhf"
			},
			{
				"type": "unocc",
				"energy": 0.02605,
				"method": "rhf"
			},
			{
				"type": "unocc",
				"energy": 0.05034,
				"method": "rhf"
			}
		],
		"cosmo_sigma_profile": { 
			"-0.025": 0.0,
			"-0.024": 0.0,
			"-0.023": 0.0,
			"-0.022": 0.0,
			"-0.021": 0.0,
			"-0.02": 0.0,
			"-0.019": 0.0,
			"-0.018": 0.0,
			"-0.017": 0.0,
			"-0.016": 0.035856270899,
			"-0.015": 0.83962385892,
			"-0.014": 1.44739867856,
			"-0.013": 0.710479608548,
			"-0.012": 0.647578104094,
			"-0.011": 0.766780642513,
			"-0.01": 1.8415976934,
			"-0.009": 3.23498050032,
			"-0.008": 5.3708936646,
			"-0.007": 10.662978076,
			"-0.006": 18.4483218731,
			"-0.005": 22.5929412808,
			"-0.004": 21.6963731301,
			"-0.003": 20.1480201987,
			"-0.002": 15.8673604938,
			"-0.001": 16.252518749,
			"0.0": 21.6250708858,
			"0.001": 26.4617415296,
			"0.002": 39.9428195727,
			"0.003": 39.562424045,
			"0.004": 20.8080891596,
			"0.005": 13.428858227,
			"0.006": 8.37552064332,
			"0.007": 5.21813878219,
			"0.008": 4.74422718427,
			"0.009": 2.24899456457,
			"0.01": 1.42601883802,
			"0.011": 2.23252110505,
			"0.012": 4.91083361564,
			"0.013": 1.5383745267,
			"0.014": 0.0,
			"0.015": 0.0,
			"0.016": 0.0,
			"0.017": 0.0,
			"0.018": 0.0,
			"0.019": 0.0,
			"0.02": 0.0,
			"0.021": 0.0,
			"0.022": 0.0,
			"0.023": 0.0,
			"0.024": 0.0,
			"0.025": 0.0
		}
	}
}
