{
	 "smiles": "COC1=CC(=O)OC1", 
	 "Tm": 335.65, 
	 "num_atms": 14, 
	 "gaussian": { 
		 "optdone": 1, 
		 "sigma_profile": "yes", 
		 "theory": "DFT", 
		 "functional": "B3LYP", 
		 "basiset": "6-31G**", 
		 "properties": { 
			 "R2extent": 1098.0718, 
			 "electric_dipole_moment_norm": 6.53678087517, 
			 "electric_quadrupole_moment_norm": 6.21728450531, 
			 "total_energy": -419.789789962, 
			 "HOMO_LUMO_gap": 0.2258, 
			 "cosmo_polarized_energy": -15.41, 
			 "cosmo_cavitation_energy": 18.27, 
			 "cosmo_dispersion_energy": -13.82, 
			 "cosmo_repulsion_energy": 1.16, 
			 "cosmo_total_nonelectrostatic_energy": 5.62, 
			 "SMD_solvation_energy": 5.27 
		},
		"coords": [
			{
				"x": 1.8796796038,
				"y": -0.3123127836,
				"z": -2.1788086494,
				"element": "C" 
			},
			{
				"x": 0.4794933333,
				"y": -0.5011274668,
				"z": -1.95478203,
				"element": "O" 
			},
			{
				"x": -0.0807510892,
				"y": 0.0875799545,
				"z": -0.8897976231,
				"element": "C" 
			},
			{
				"x": -1.3751232455,
				"y": 0.0147833048,
				"z": -0.5333735771,
				"element": "C" 
			},
			{
				"x": -1.5618325424,
				"y": 0.8014337992,
				"z": 0.6890677635,
				"element": "C" 
			},
			{
				"x": -2.5476750222,
				"y": 1.0107575063,
				"z": 1.3481860012,
				"element": "O" 
			},
			{
				"x": -0.3251499745,
				"y": 1.3463953786,
				"z": 1.0456931021,
				"element": "O" 
			},
			{
				"x": 0.6625576031,
				"y": 0.9488564811,
				"z": 0.1083960141,
				"element": "C" 
			},
			{
				"x": 2.1137138624,
				"y": -0.8717154827,
				"z": -3.084331115,
				"element": "H" 
			},
			{
				"x": 2.1208934722,
				"y": 0.7446730101,
				"z": -2.3366155106,
				"element": "H" 
			},
			{
				"x": 2.4749057657,
				"y": -0.7073159174,
				"z": -1.3481467355,
				"element": "H" 
			},
			{
				"x": -2.1746423626,
				"y": -0.5162773911,
				"z": -1.0271335669,
				"element": "H" 
			},
			{
				"x": 1.4602960606,
				"y": 0.39794187,
				"z": 0.6241158308,
				"element": "H" 
			},
			{
				"x": 1.1090345352,
				"y": 1.837827737,
				"z": -0.3566699041,
				"element": "H" 
			}
		],
		 "valence_orbital": [ 
			{
				"type": "occ",
				"energy": -0.37994,
				"method": "rhf"
			},
			{
				"type": "occ",
				"energy": -0.34644,
				"method": "rhf"
			},
			{
				"type": "occ",
				"energy": -0.29238,
				"method": "rhf"
			},
			{
				"type": "occ",
				"energy": -0.26255,
				"method": "rhf"
			},
			{
				"type": "occ",
				"energy": -0.25124,
				"method": "rhf"
			},
			{
				"type": "unocc",
				"energy": -0.02544,
				"method": "rhf"
			},
			{
				"type": "unocc",
				"energy": 0.05829,
				"method": "rhf"
			},
			{
				"type": "unocc",
				"energy": 0.07448,
				"method": "rhf"
			},
			{
				"type": "unocc",
				"energy": 0.08928,
				"method": "rhf"
			},
			{
				"type": "unocc",
				"energy": 0.10741,
				"method": "rhf"
			}
		],
		"cosmo_sigma_profile": { 
			"-0.025": 0.0,
			"-0.024": 0.0,
			"-0.023": 0.0,
			"-0.022": 0.0,
			"-0.021": 0.0,
			"-0.02": 0.0,
			"-0.019": 0.0,
			"-0.018": 0.0,
			"-0.017": 0.0,
			"-0.016": 0.0,
			"-0.015": 0.0,
			"-0.014": 0.0,
			"-0.013": 0.0,
			"-0.012": 0.0,
			"-0.011": 0.0100001326106,
			"-0.01": 1.57959856376,
			"-0.009": 4.49928658422,
			"-0.008": 9.03162783464,
			"-0.007": 12.1471308568,
			"-0.006": 11.1280891616,
			"-0.005": 11.6633128949,
			"-0.004": 10.3047857743,
			"-0.003": 6.88073658456,
			"-0.002": 5.50411638142,
			"-0.001": 5.25525710674,
			"0.0": 5.61518436887,
			"0.001": 7.69449558419,
			"0.002": 7.13405774671,
			"0.003": 5.34241861519,
			"0.004": 4.12527093569,
			"0.005": 2.60916329733,
			"0.006": 3.20344335801,
			"0.007": 3.84361736796,
			"0.008": 3.92965719229,
			"0.009": 3.75958993395,
			"0.01": 3.79062031819,
			"0.011": 4.46638823904,
			"0.012": 5.98740419431,
			"0.013": 5.00724307099,
			"0.014": 0.857041120739,
			"0.015": 0.0,
			"0.016": 0.0,
			"0.017": 0.0,
			"0.018": 0.0,
			"0.019": 0.0,
			"0.02": 0.0,
			"0.021": 0.0,
			"0.022": 0.0,
			"0.023": 0.0,
			"0.024": 0.0,
			"0.025": 0.0
		}
	}
}
