{
	 "smiles": "CC(C)(C)OC(=O)N1CCC(CC1)OS(C)(=O)=O", 
	 "Tm": 358.15, 
	 "num_atms": 39, 
	 "gaussian": { 
		 "optdone": 1, 
		 "sigma_profile": "yes", 
		 "theory": "DFT", 
		 "functional": "B3LYP", 
		 "basiset": "6-31G**", 
		 "properties": { 
			 "R2extent": 10032.6735, 
			 "electric_dipole_moment_norm": 1.34201407593, 
			 "electric_quadrupole_moment_norm": 30.606387056, 
			 "total_energy": -1260.8609413, 
			 "HOMO_LUMO_gap": 0.27474, 
			 "cosmo_polarized_energy": -17.19, 
			 "cosmo_cavitation_energy": 41.15, 
			 "cosmo_dispersion_energy": -29.17, 
			 "cosmo_repulsion_energy": 2.23, 
			 "cosmo_total_nonelectrostatic_energy": 14.21, 
			 "SMD_solvation_energy": 6.43 
		},
		"coords": [
			{
				"x": 3.5906943151,
				"y": 0.7875579562,
				"z": 0.116024923,
				"element": "C" 
			},
			{
				"x": 2.7314140388,
				"y": 1.3748807678,
				"z": -1.0088330117,
				"element": "C" 
			},
			{
				"x": 3.3810034562,
				"y": 1.1273414347,
				"z": -2.3731256307,
				"element": "C" 
			},
			{
				"x": 2.4490685223,
				"y": 2.8674135401,
				"z": -0.8052924703,
				"element": "C" 
			},
			{
				"x": 1.4659833591,
				"y": 0.6333472737,
				"z": -1.119390766,
				"element": "O" 
			},
			{
				"x": 0.5906052978,
				"y": 0.592091516,
				"z": -0.0834069866,
				"element": "C" 
			},
			{
				"x": 0.7290827725,
				"y": 1.1620654459,
				"z": 0.9912605096,
				"element": "O" 
			},
			{
				"x": -0.4912019256,
				"y": -0.1855027421,
				"z": -0.4026541754,
				"element": "N" 
			},
			{
				"x": -0.6506676679,
				"y": -0.8237255223,
				"z": -1.716152497,
				"element": "C" 
			},
			{
				"x": -1.734940259,
				"y": -1.9027811821,
				"z": -1.6466248154,
				"element": "C" 
			},
			{
				"x": -3.0928874945,
				"y": -1.32238851,
				"z": -1.2203499332,
				"element": "C" 
			},
			{
				"x": -2.93251998,
				"y": -0.1895903037,
				"z": -0.1918706462,
				"element": "C" 
			},
			{
				"x": -1.5990780907,
				"y": -0.2683180634,
				"z": 0.5535049224,
				"element": "C" 
			},
			{
				"x": -3.9015607462,
				"y": -2.3601401419,
				"z": -0.5672876581,
				"element": "O" 
			},
			{
				"x": -4.6101748587,
				"y": -3.4724659385,
				"z": -1.5451279641,
				"element": "S" 
			},
			{
				"x": -5.8634031523,
				"y": -4.0027814676,
				"z": -0.3765073208,
				"element": "C" 
			},
			{
				"x": -3.6856404323,
				"y": -4.5768750475,
				"z": -1.7934662738,
				"element": "O" 
			},
			{
				"x": -5.2333375221,
				"y": -2.7799530641,
				"z": -2.6742304493,
				"element": "O" 
			},
			{
				"x": 4.5745602509,
				"y": 1.2680549773,
				"z": 0.1156493772,
				"element": "H" 
			},
			{
				"x": 3.7377309267,
				"y": -0.2860252903,
				"z": -0.0399002917,
				"element": "H" 
			},
			{
				"x": 3.121280696,
				"y": 0.9434217928,
				"z": 1.0874178239,
				"element": "H" 
			},
			{
				"x": 4.346783416,
				"y": 1.6384397923,
				"z": -2.4279814528,
				"element": "H" 
			},
			{
				"x": 3.5458458355,
				"y": 0.0579967968,
				"z": -2.5349661993,
				"element": "H" 
			},
			{
				"x": 2.743630409,
				"y": 1.5039330087,
				"z": -3.1785209312,
				"element": "H" 
			},
			{
				"x": 1.803016464,
				"y": 3.2436774028,
				"z": -1.6050481085,
				"element": "H" 
			},
			{
				"x": 3.3894943732,
				"y": 3.4273140433,
				"z": -0.8374253205,
				"element": "H" 
			},
			{
				"x": 1.9641005087,
				"y": 3.0439524408,
				"z": 0.1547886095,
				"element": "H" 
			},
			{
				"x": -0.9008452358,
				"y": -0.0759021809,
				"z": -2.4835119521,
				"element": "H" 
			},
			{
				"x": 0.2988358815,
				"y": -1.2720235695,
				"z": -2.0147991499,
				"element": "H" 
			},
			{
				"x": -1.4431028885,
				"y": -2.6635274448,
				"z": -0.9156830949,
				"element": "H" 
			},
			{
				"x": -1.8161598259,
				"y": -2.4071645558,
				"z": -2.6132641691,
				"element": "H" 
			},
			{
				"x": -3.6631474141,
				"y": -0.9711227812,
				"z": -2.0849118839,
				"element": "H" 
			},
			{
				"x": -2.9888144363,
				"y": 0.7710155082,
				"z": -0.7161903854,
				"element": "H" 
			},
			{
				"x": -3.7694586583,
				"y": -0.2226540475,
				"z": 0.5117000311,
				"element": "H" 
			},
			{
				"x": -1.5432096326,
				"y": -1.2000791356,
				"z": 1.1336196445,
				"element": "H" 
			},
			{
				"x": -1.4866749547,
				"y": 0.5573806951,
				"z": 1.2566510884,
				"element": "H" 
			},
			{
				"x": -5.3663610783,
				"y": -4.3625342638,
				"z": 0.5244376748,
				"element": "H" 
			},
			{
				"x": -6.4153306615,
				"y": -4.8116124967,
				"z": -0.8577192106,
				"element": "H" 
			},
			{
				"x": -6.5199136077,
				"y": -3.1610166432,
				"z": -0.1585118558,
				"element": "H" 
			}
		],
		 "valence_orbital": [ 
			{
				"type": "occ",
				"energy": -0.31461,
				"method": "rhf"
			},
			{
				"type": "occ",
				"energy": -0.29164,
				"method": "rhf"
			},
			{
				"type": "occ",
				"energy": -0.28484,
				"method": "rhf"
			},
			{
				"type": "occ",
				"energy": -0.25809,
				"method": "rhf"
			},
			{
				"type": "occ",
				"energy": -0.23474,
				"method": "rhf"
			},
			{
				"type": "unocc",
				"energy": 0.04,
				"method": "rhf"
			},
			{
				"type": "unocc",
				"energy": 0.0555,
				"method": "rhf"
			},
			{
				"type": "unocc",
				"energy": 0.05918,
				"method": "rhf"
			},
			{
				"type": "unocc",
				"energy": 0.07528,
				"method": "rhf"
			},
			{
				"type": "unocc",
				"energy": 0.08759,
				"method": "rhf"
			}
		],
		"cosmo_sigma_profile": { 
			"-0.025": 0.0,
			"-0.024": 0.0,
			"-0.023": 0.0,
			"-0.022": 0.0,
			"-0.021": 0.0,
			"-0.02": 0.0,
			"-0.019": 0.0,
			"-0.018": 0.0,
			"-0.017": 0.0,
			"-0.016": 0.0,
			"-0.015": 0.0,
			"-0.014": 0.0,
			"-0.013": 0.0,
			"-0.012": 0.0,
			"-0.011": 0.0578069493362,
			"-0.01": 1.29464722297,
			"-0.009": 5.15096084164,
			"-0.008": 4.99336344406,
			"-0.007": 5.52473878293,
			"-0.006": 9.31649353422,
			"-0.005": 20.1186238411,
			"-0.004": 35.8507070472,
			"-0.003": 36.2970544166,
			"-0.002": 29.1561255193,
			"-0.001": 25.996587479,
			"0.0": 30.3552290841,
			"0.001": 27.0398001954,
			"0.002": 13.4747976421,
			"0.003": 8.75735780053,
			"0.004": 7.51918722575,
			"0.005": 7.72349493639,
			"0.006": 6.91613055965,
			"0.007": 5.93889057781,
			"0.008": 5.18449561488,
			"0.009": 5.46269982446,
			"0.01": 11.9445434324,
			"0.011": 9.16810022748,
			"0.012": 2.40869540464,
			"0.013": 2.73430918652,
			"0.014": 1.94456163653,
			"0.015": 0.0,
			"0.016": 0.0,
			"0.017": 0.0,
			"0.018": 0.0,
			"0.019": 0.0,
			"0.02": 0.0,
			"0.021": 0.0,
			"0.022": 0.0,
			"0.023": 0.0,
			"0.024": 0.0,
			"0.025": 0.0
		}
	}
}
