{
	 "smiles": "CC1=C(NN)N=C2C=C(Cl)C=CC2=C1", 
	 "Tm": 443.15, 
	 "num_atms": 24, 
	 "gaussian": { 
		 "optdone": 1, 
		 "sigma_profile": "yes", 
		 "theory": "DFT", 
		 "functional": "B3LYP", 
		 "basiset": "6-31G**", 
		 "properties": { 
			 "R2extent": 4012.7697, 
			 "electric_dipole_moment_norm": 3.68661549663, 
			 "electric_quadrupole_moment_norm": 4.96430905263, 
			 "total_energy": -1011.53173399, 
			 "HOMO_LUMO_gap": 0.16715, 
			 "cosmo_polarized_energy": -10.63, 
			 "cosmo_cavitation_energy": 29.47, 
			 "cosmo_dispersion_energy": -22.01, 
			 "cosmo_repulsion_energy": 1.73, 
			 "cosmo_total_nonelectrostatic_energy": 9.18, 
			 "SMD_solvation_energy": 3.79 
		},
		"coords": [
			{
				"x": -1.623444244,
				"y": -3.0700605372,
				"z": -1.6618040939,
				"element": "C" 
			},
			{
				"x": -1.2104018054,
				"y": -1.752597233,
				"z": -1.0601415413,
				"element": "C" 
			},
			{
				"x": -1.7783110553,
				"y": -1.2990484191,
				"z": 0.1897646965,
				"element": "C" 
			},
			{
				"x": -2.7261111129,
				"y": -2.0927156963,
				"z": 0.8098795475,
				"element": "N" 
			},
			{
				"x": -3.1576713516,
				"y": -1.8031151704,
				"z": 2.1248729404,
				"element": "N" 
			},
			{
				"x": -1.4692709789,
				"y": -0.1559455663,
				"z": 0.7740931899,
				"element": "N" 
			},
			{
				"x": -0.5664901029,
				"y": 0.6646227839,
				"z": 0.1640112542,
				"element": "C" 
			},
			{
				"x": -0.2377228839,
				"y": 1.8951161227,
				"z": 0.7868006092,
				"element": "C" 
			},
			{
				"x": 0.6753573973,
				"y": 2.73588012,
				"z": 0.1887114463,
				"element": "C" 
			},
			{
				"x": 1.083580679,
				"y": 4.2629796647,
				"z": 0.9624600276,
				"element": "Cl" 
			},
			{
				"x": 1.302005781,
				"y": 2.4147055888,
				"z": -1.0353918618,
				"element": "C" 
			},
			{
				"x": 0.9895293524,
				"y": 1.2200242319,
				"z": -1.6500959243,
				"element": "C" 
			},
			{
				"x": 0.0592744872,
				"y": 0.3244005819,
				"z": -1.0727863075,
				"element": "C" 
			},
			{
				"x": -0.3015325823,
				"y": -0.9214071136,
				"z": -1.6591288889,
				"element": "C" 
			},
			{
				"x": -1.1426896291,
				"y": -3.2222391815,
				"z": -2.6312390514,
				"element": "H" 
			},
			{
				"x": -1.3440541949,
				"y": -3.9189467941,
				"z": -1.0224876845,
				"element": "H" 
			},
			{
				"x": -2.7089422289,
				"y": -3.1203528467,
				"z": -1.809381651,
				"element": "H" 
			},
			{
				"x": -2.6783660217,
				"y": -3.0853365169,
				"z": 0.632271122,
				"element": "H" 
			},
			{
				"x": -2.3924797469,
				"y": -1.3115463253,
				"z": 2.5912110906,
				"element": "H" 
			},
			{
				"x": -3.9005656383,
				"y": -1.109334858,
				"z": 2.0467179139,
				"element": "H" 
			},
			{
				"x": -0.7152594274,
				"y": 2.14846693,
				"z": 1.7257380047,
				"element": "H" 
			},
			{
				"x": 2.014515754,
				"y": 3.1039370762,
				"z": -1.4735719266,
				"element": "H" 
			},
			{
				"x": 1.4625585138,
				"y": 0.9566493624,
				"z": -2.5927572263,
				"element": "H" 
			},
			{
				"x": 0.1543910396,
				"y": -1.2116362043,
				"z": -2.6035456852,
				"element": "H" 
			}
		],
		 "valence_orbital": [ 
			{
				"type": "occ",
				"energy": -0.28709,
				"method": "rhf"
			},
			{
				"type": "occ",
				"energy": -0.27145,
				"method": "rhf"
			},
			{
				"type": "occ",
				"energy": -0.26008,
				"method": "rhf"
			},
			{
				"type": "occ",
				"energy": -0.23016,
				"method": "rhf"
			},
			{
				"type": "occ",
				"energy": -0.21436,
				"method": "rhf"
			},
			{
				"type": "unocc",
				"energy": -0.04721,
				"method": "rhf"
			},
			{
				"type": "unocc",
				"energy": -0.01169,
				"method": "rhf"
			},
			{
				"type": "unocc",
				"energy": 0.01999,
				"method": "rhf"
			},
			{
				"type": "unocc",
				"energy": 0.03451,
				"method": "rhf"
			},
			{
				"type": "unocc",
				"energy": 0.07498,
				"method": "rhf"
			}
		],
		"cosmo_sigma_profile": { 
			"-0.025": 0.0,
			"-0.024": 0.0,
			"-0.023": 0.0,
			"-0.022": 0.0,
			"-0.021": 0.0,
			"-0.02": 0.0,
			"-0.019": 0.0,
			"-0.018": 0.0,
			"-0.017": 0.0,
			"-0.016": 0.0,
			"-0.015": 0.0,
			"-0.014": 0.00507925616652,
			"-0.013": 0.374117431246,
			"-0.012": 1.1179756617,
			"-0.011": 1.63461703329,
			"-0.01": 2.64482222086,
			"-0.009": 2.69240522362,
			"-0.008": 3.998446951,
			"-0.007": 7.8661079735,
			"-0.006": 12.3045922986,
			"-0.005": 13.3587277392,
			"-0.004": 13.9102652006,
			"-0.003": 12.96910751,
			"-0.002": 13.738487485,
			"-0.001": 14.9520850833,
			"0.0": 16.5775574322,
			"0.001": 17.0570728284,
			"0.002": 25.3584688005,
			"0.003": 27.741105309,
			"0.004": 18.8231439969,
			"0.005": 12.4365076057,
			"0.006": 3.45268587699,
			"0.007": 3.48003737262,
			"0.008": 1.85206945724,
			"0.009": 2.3063690906,
			"0.01": 0.966786152704,
			"0.011": 1.11811043453,
			"0.012": 0.696928459149,
			"0.013": 1.11195377663,
			"0.014": 0.545126130718,
			"0.015": 0.71345072793,
			"0.016": 0.520292149462,
			"0.017": 0.456468518655,
			"0.018": 0.0598637249271,
			"0.019": 0.0,
			"0.02": 0.0,
			"0.021": 0.0,
			"0.022": 0.0,
			"0.023": 0.0,
			"0.024": 0.0,
			"0.025": 0.0
		}
	}
}
