{
	 "smiles": "OC(=O)C1=C(F)C(Cl)=NC=C1", 
	 "Tm": 468.15, 
	 "num_atms": 14, 
	 "gaussian": { 
		 "optdone": 1, 
		 "sigma_profile": "yes", 
		 "theory": "DFT", 
		 "functional": "B3LYP", 
		 "basiset": "6-31G**", 
		 "properties": { 
			 "R2extent": 2581.9476, 
			 "electric_dipole_moment_norm": 3.87333469119, 
			 "electric_quadrupole_moment_norm": 7.47566436847, 
			 "total_energy": -995.670484282, 
			 "HOMO_LUMO_gap": 0.1848, 
			 "cosmo_polarized_energy": -11.16, 
			 "cosmo_cavitation_energy": 21.71, 
			 "cosmo_dispersion_energy": -16.33, 
			 "cosmo_repulsion_energy": 1.3, 
			 "cosmo_total_nonelectrostatic_energy": 6.69, 
			 "SMD_solvation_energy": 3.91 
		},
		"coords": [
			{
				"x": -1.4531983768,
				"y": 1.1371722926,
				"z": 1.832507804,
				"element": "O" 
			},
			{
				"x": -0.9122733606,
				"y": 0.5244192643,
				"z": 0.7507773372,
				"element": "C" 
			},
			{
				"x": -1.5437107004,
				"y": 0.297267798,
				"z": -0.2559921491,
				"element": "O" 
			},
			{
				"x": 0.5249500465,
				"y": 0.1811984432,
				"z": 0.9777621355,
				"element": "C" 
			},
			{
				"x": 1.2757584277,
				"y": -0.4595493347,
				"z": -0.0122892076,
				"element": "C" 
			},
			{
				"x": 0.7501113122,
				"y": -0.7883765626,
				"z": -1.1866389419,
				"element": "F" 
			},
			{
				"x": 2.6231770508,
				"y": -0.7615714605,
				"z": 0.2478587802,
				"element": "C" 
			},
			{
				"x": 3.5518821357,
				"y": -1.5632449279,
				"z": -0.9984171653,
				"element": "Cl" 
			},
			{
				"x": 3.223626222,
				"y": -0.4720256958,
				"z": 1.3826728789,
				"element": "N" 
			},
			{
				"x": 2.5117506476,
				"y": 0.142940601,
				"z": 2.3393008414,
				"element": "C" 
			},
			{
				"x": 1.1748674463,
				"y": 0.4856400779,
				"z": 2.1847436434,
				"element": "C" 
			},
			{
				"x": -2.3783102755,
				"y": 1.320865027,
				"z": 1.5988867111,
				"element": "H" 
			},
			{
				"x": 3.0417533761,
				"y": 0.3653216521,
				"z": 3.2612703689,
				"element": "H" 
			},
			{
				"x": 0.6308160484,
				"y": 0.9816428254,
				"z": 2.9785569631,
				"element": "H" 
			}
		],
		 "valence_orbital": [ 
			{
				"type": "occ",
				"energy": -0.32617,
				"method": "rhf"
			},
			{
				"type": "occ",
				"energy": -0.31061,
				"method": "rhf"
			},
			{
				"type": "occ",
				"energy": -0.30435,
				"method": "rhf"
			},
			{
				"type": "occ",
				"energy": -0.28748,
				"method": "rhf"
			},
			{
				"type": "occ",
				"energy": -0.26979,
				"method": "rhf"
			},
			{
				"type": "unocc",
				"energy": -0.08499,
				"method": "rhf"
			},
			{
				"type": "unocc",
				"energy": -0.03608,
				"method": "rhf"
			},
			{
				"type": "unocc",
				"energy": 0.02007,
				"method": "rhf"
			},
			{
				"type": "unocc",
				"energy": 0.02576,
				"method": "rhf"
			},
			{
				"type": "unocc",
				"energy": 0.06327,
				"method": "rhf"
			}
		],
		"cosmo_sigma_profile": { 
			"-0.025": 0.0,
			"-0.024": 0.0,
			"-0.023": 0.0,
			"-0.022": 0.0,
			"-0.021": 0.0,
			"-0.02": 0.0496900034073,
			"-0.019": 0.675474558719,
			"-0.018": 0.851488079684,
			"-0.017": 0.943315494979,
			"-0.016": 1.01552631125,
			"-0.015": 0.442394582485,
			"-0.014": 0.44776380466,
			"-0.013": 0.794938403361,
			"-0.012": 1.23385760262,
			"-0.011": 0.409368294578,
			"-0.01": 0.457596348524,
			"-0.009": 1.68322101958,
			"-0.008": 5.11569864706,
			"-0.007": 4.68666374957,
			"-0.006": 3.63250785804,
			"-0.005": 7.99269558287,
			"-0.004": 14.3178120364,
			"-0.003": 12.2990176491,
			"-0.002": 12.8566346659,
			"-0.001": 14.3638097765,
			"0.0": 10.950037134,
			"0.001": 8.86896037292,
			"0.002": 12.9466153292,
			"0.003": 15.964121038,
			"0.004": 13.1182781582,
			"0.005": 5.34595255864,
			"0.006": 5.97250466803,
			"0.007": 2.45377304188,
			"0.008": 2.5551370389,
			"0.009": 3.73087407259,
			"0.01": 5.22352706808,
			"0.011": 4.97182198063,
			"0.012": 0.843731878137,
			"0.013": 0.552628660347,
			"0.014": 0.0415336972518,
			"0.015": 0.0,
			"0.016": 0.0,
			"0.017": 0.0,
			"0.018": 0.0,
			"0.019": 0.0,
			"0.02": 0.0,
			"0.021": 0.0,
			"0.022": 0.0,
			"0.023": 0.0,
			"0.024": 0.0,
			"0.025": 0.0
		}
	}
}
