{
	 "smiles": "COC1OC(C(OC2OC(C(OC)C(O)C2O)C(O)=O)C(O)C1O)C(O)=O", 
	 "Tm": 573.15, 
	 "num_atms": 49, 
	 "gaussian": { 
		 "optdone": 1, 
		 "sigma_profile": "yes", 
		 "theory": "DFT", 
		 "functional": "B3LYP", 
		 "basiset": "6-31G**", 
		 "properties": { 
			 "R2extent": 10042.1963, 
			 "electric_dipole_moment_norm": 3.46264872894, 
			 "electric_quadrupole_moment_norm": 12.5100152562, 
			 "total_energy": -1524.58749069, 
			 "HOMO_LUMO_gap": 0.25244, 
			 "cosmo_polarized_energy": -35.7, 
			 "cosmo_cavitation_energy": 49.33, 
			 "cosmo_dispersion_energy": -32.33, 
			 "cosmo_repulsion_energy": 2.45, 
			 "cosmo_total_nonelectrostatic_energy": 19.46, 
			 "SMD_solvation_energy": 10.63 
		},
		"coords": [
			{
				"x": 5.2904876163,
				"y": 0.7714095404,
				"z": 0.6477879163,
				"element": "C" 
			},
			{
				"x": 4.0120602253,
				"y": 1.278025953,
				"z": 0.2892571096,
				"element": "O" 
			},
			{
				"x": 3.0102522995,
				"y": 1.0379015685,
				"z": 1.2051287734,
				"element": "C" 
			},
			{
				"x": 2.7056031326,
				"y": -0.3840971572,
				"z": 1.1457092307,
				"element": "O" 
			},
			{
				"x": 1.5414984269,
				"y": -0.8456818669,
				"z": 1.8239414868,
				"element": "C" 
			},
			{
				"x": 0.2820939682,
				"y": -0.0046366172,
				"z": 1.5777671977,
				"element": "C" 
			},
			{
				"x": -0.2459070799,
				"y": -0.235491864,
				"z": 0.2665450445,
				"element": "O" 
			},
			{
				"x": -1.1400078553,
				"y": -1.3104218755,
				"z": 0.1441396189,
				"element": "C" 
			},
			{
				"x": -2.4651244107,
				"y": -0.9611083931,
				"z": 0.5424093516,
				"element": "O" 
			},
			{
				"x": -3.0190015175,
				"y": 0.1878755673,
				"z": -0.1329974168,
				"element": "C" 
			},
			{
				"x": -2.3687319459,
				"y": 0.5131733102,
				"z": -1.4942369425,
				"element": "C" 
			},
			{
				"x": -3.354917289,
				"y": 1.1418377532,
				"z": -2.3069173977,
				"element": "O" 
			},
			{
				"x": -3.0405889966,
				"y": 2.4645459408,
				"z": -2.7426530838,
				"element": "C" 
			},
			{
				"x": -1.9175545835,
				"y": -0.7709460876,
				"z": -2.2242057429,
				"element": "C" 
			},
			{
				"x": -3.0508269165,
				"y": -1.4341250211,
				"z": -2.7588591539,
				"element": "O" 
			},
			{
				"x": -1.1815025488,
				"y": -1.7826649605,
				"z": -1.3079744312,
				"element": "C" 
			},
			{
				"x": 0.1503236612,
				"y": -2.0576469801,
				"z": -1.6978746567,
				"element": "O" 
			},
			{
				"x": -2.9798637772,
				"y": 1.3820530908,
				"z": 0.8343711337,
				"element": "C" 
			},
			{
				"x": -2.8955998978,
				"y": 1.0280985797,
				"z": 2.1331879177,
				"element": "O" 
			},
			{
				"x": -3.0266842572,
				"y": 2.5386438985,
				"z": 0.4887235348,
				"element": "O" 
			},
			{
				"x": 0.585184476,
				"y": 1.4947858576,
				"z": 1.6807752328,
				"element": "C" 
			},
			{
				"x": 0.9514508858,
				"y": 1.8399015477,
				"z": 3.017470187,
				"element": "O" 
			},
			{
				"x": 1.7921008415,
				"y": 1.8903340118,
				"z": 0.8262418127,
				"element": "C" 
			},
			{
				"x": 2.0715554425,
				"y": 3.2645531157,
				"z": 0.9802588511,
				"element": "O" 
			},
			{
				"x": 1.7959283741,
				"y": -1.0477240504,
				"z": 3.3326627609,
				"element": "C" 
			},
			{
				"x": 3.0975461827,
				"y": -1.1244140894,
				"z": 3.6538387268,
				"element": "O" 
			},
			{
				"x": 0.91001359,
				"y": -1.1922400192,
				"z": 4.1419645022,
				"element": "O" 
			},
			{
				"x": 5.581686899,
				"y": 1.1024545437,
				"z": 1.65556663,
				"element": "H" 
			},
			{
				"x": 5.3187929106,
				"y": -0.3240061932,
				"z": 0.6037461112,
				"element": "H" 
			},
			{
				"x": 6.0013873351,
				"y": 1.1744384958,
				"z": -0.0757937043,
				"element": "H" 
			},
			{
				"x": 3.3364585304,
				"y": 1.2811996604,
				"z": 2.2306952277,
				"element": "H" 
			},
			{
				"x": 1.3645556609,
				"y": -1.8476525243,
				"z": 1.4128295058,
				"element": "H" 
			},
			{
				"x": -0.4540470236,
				"y": -0.2795322346,
				"z": 2.3404343278,
				"element": "H" 
			},
			{
				"x": -0.8609943801,
				"y": -2.1355191042,
				"z": 0.8086708288,
				"element": "H" 
			},
			{
				"x": -4.0687848025,
				"y": -0.0557109633,
				"z": -0.3285043974,
				"element": "H" 
			},
			{
				"x": -1.5090334487,
				"y": 1.1700067899,
				"z": -1.3467264122,
				"element": "H" 
			},
			{
				"x": -2.9372063584,
				"y": 3.1360226673,
				"z": -1.8858225174,
				"element": "H" 
			},
			{
				"x": -3.8770776676,
				"y": 2.7888576911,
				"z": -3.3656359041,
				"element": "H" 
			},
			{
				"x": -2.1223542152,
				"y": 2.4832179107,
				"z": -3.345436702,
				"element": "H" 
			},
			{
				"x": -1.2187345585,
				"y": -0.471608381,
				"z": -3.0216110012,
				"element": "H" 
			},
			{
				"x": -3.6065215734,
				"y": -0.7307101819,
				"z": -3.1320038542,
				"element": "H" 
			},
			{
				"x": -1.8022685422,
				"y": -2.688531066,
				"z": -1.313593538,
				"element": "H" 
			},
			{
				"x": 0.1188093786,
				"y": -2.5662966561,
				"z": -2.5183034868,
				"element": "H" 
			},
			{
				"x": -2.8154679749,
				"y": 0.054629091,
				"z": 2.1493475034,
				"element": "H" 
			},
			{
				"x": -0.2887328818,
				"y": 2.0692044134,
				"z": 1.3520752773,
				"element": "H" 
			},
			{
				"x": 0.1852610053,
				"y": 1.7335194004,
				"z": 3.5967652182,
				"element": "H" 
			},
			{
				"x": 1.5748988248,
				"y": 1.7059693579,
				"z": -0.2297793316,
				"element": "H" 
			},
			{
				"x": 1.9765865153,
				"y": 3.4515875287,
				"z": 1.9268700746,
				"element": "H" 
			},
			{
				"x": 3.5938983199,
				"y": -1.0043809988,
				"z": 2.8220485804,
				"element": "H" 
			}
		],
		 "valence_orbital": [ 
			{
				"type": "occ",
				"energy": -0.28432,
				"method": "rhf"
			},
			{
				"type": "occ",
				"energy": -0.27721,
				"method": "rhf"
			},
			{
				"type": "occ",
				"energy": -0.27571,
				"method": "rhf"
			},
			{
				"type": "occ",
				"energy": -0.26122,
				"method": "rhf"
			},
			{
				"type": "occ",
				"energy": -0.25821,
				"method": "rhf"
			},
			{
				"type": "unocc",
				"energy": -0.00577,
				"method": "rhf"
			},
			{
				"type": "unocc",
				"energy": -0.00067,
				"method": "rhf"
			},
			{
				"type": "unocc",
				"energy": 0.04507,
				"method": "rhf"
			},
			{
				"type": "unocc",
				"energy": 0.05297,
				"method": "rhf"
			},
			{
				"type": "unocc",
				"energy": 0.05992,
				"method": "rhf"
			}
		],
		"cosmo_sigma_profile": { 
			"-0.025": 0.0,
			"-0.024": 0.0,
			"-0.023": 0.0,
			"-0.022": 0.0,
			"-0.021": 0.0,
			"-0.02": 0.0,
			"-0.019": 0.0,
			"-0.018": 0.0,
			"-0.017": 0.308117963398,
			"-0.016": 1.71088616853,
			"-0.015": 1.91475075981,
			"-0.014": 2.62858063894,
			"-0.013": 2.43597039218,
			"-0.012": 4.22550041288,
			"-0.011": 7.69468440453,
			"-0.01": 9.45024449102,
			"-0.009": 10.5776578427,
			"-0.008": 11.256983724,
			"-0.007": 9.72779720047,
			"-0.006": 18.499238014,
			"-0.005": 25.9588541411,
			"-0.004": 26.7189144817,
			"-0.003": 29.5299447753,
			"-0.002": 26.4980050834,
			"-0.001": 18.5110473033,
			"0.0": 13.8580930948,
			"0.001": 12.532144896,
			"0.002": 13.6879783326,
			"0.003": 11.7424791811,
			"0.004": 12.3356571769,
			"0.005": 12.7098201839,
			"0.006": 12.0212757896,
			"0.007": 12.7883945144,
			"0.008": 13.3200732635,
			"0.009": 15.1432903885,
			"0.01": 13.5036863152,
			"0.011": 12.84641131,
			"0.012": 10.0350010765,
			"0.013": 6.87864121486,
			"0.014": 2.73190605661,
			"0.015": 0.0450645515683,
			"0.016": 0.0,
			"0.017": 0.0,
			"0.018": 0.0,
			"0.019": 0.0,
			"0.02": 0.0,
			"0.021": 0.0,
			"0.022": 0.0,
			"0.023": 0.0,
			"0.024": 0.0,
			"0.025": 0.0
		}
	}
}
