{
	 "smiles": "C1CN2CCC1CC2", 
	 "Tm": 431.15, 
	 "num_atms": 21, 
	 "gaussian": { 
		 "optdone": 1, 
		 "sigma_profile": "yes", 
		 "theory": "DFT", 
		 "functional": "B3LYP", 
		 "basiset": "6-31G**", 
		 "properties": { 
			 "R2extent": 1272.5194, 
			 "electric_dipole_moment_norm": 1.00786894485, 
			 "electric_quadrupole_moment_norm": 3.91920096831, 
			 "total_energy": -329.322294885, 
			 "HOMO_LUMO_gap": 0.26993, 
			 "cosmo_polarized_energy": -2.96, 
			 "cosmo_cavitation_energy": 20.24, 
			 "cosmo_dispersion_energy": -15.99, 
			 "cosmo_repulsion_energy": 1.3, 
			 "cosmo_total_nonelectrostatic_energy": 5.56, 
			 "SMD_solvation_energy": -0.84 
		},
		"coords": [
			{
				"x": -0.0305706974,
				"y": 0.0566390447,
				"z": 1.152909061,
				"element": "C" 
			},
			{
				"x": 0.4251887034,
				"y": 1.3279077515,
				"z": 0.3673389011,
				"element": "C" 
			},
			{
				"x": 1.7423622013,
				"y": 1.1398474668,
				"z": -0.2636852543,
				"element": "N" 
			},
			{
				"x": 1.6747264201,
				"y": 0.0084827135,
				"z": -1.2038373058,
				"element": "C" 
			},
			{
				"x": 1.2732904957,
				"y": -1.3204745676,
				"z": -0.4872074456,
				"element": "C" 
			},
			{
				"x": 1.0730807939,
				"y": -1.0114335417,
				"z": 1.0106003061,
				"element": "C" 
			},
			{
				"x": 2.3892870063,
				"y": -0.4431381655,
				"z": 1.5797034797,
				"element": "C" 
			},
			{
				"x": 2.7432811753,
				"y": 0.8492545379,
				"z": 0.7765180851,
				"element": "C" 
			},
			{
				"x": -0.978847748,
				"y": -0.3300294576,
				"z": 0.7607204674,
				"element": "H" 
			},
			{
				"x": -0.1954979449,
				"y": 0.2861725373,
				"z": 2.2124628258,
				"element": "H" 
			},
			{
				"x": 0.4920620136,
				"y": 2.1979711935,
				"z": 1.0301666811,
				"element": "H" 
			},
			{
				"x": -0.2915687457,
				"y": 1.5818362665,
				"z": -0.4217152278,
				"element": "H" 
			},
			{
				"x": 2.6536124489,
				"y": -0.0845805013,
				"z": -1.6875219838,
				"element": "H" 
			},
			{
				"x": 0.9542508092,
				"y": 0.2667214976,
				"z": -1.9880866045,
				"element": "H" 
			},
			{
				"x": 0.3501355171,
				"y": -1.7335157363,
				"z": -0.9111453693,
				"element": "H" 
			},
			{
				"x": 2.049366801,
				"y": -2.0851985827,
				"z": -0.6114920572,
				"element": "H" 
			},
			{
				"x": 0.7898708717,
				"y": -1.9219944449,
				"z": 1.5499788684,
				"element": "H" 
			},
			{
				"x": 2.2717246015,
				"y": -0.2236946027,
				"z": 2.6476806116,
				"element": "H" 
			},
			{
				"x": 3.1873274,
				"y": -1.1905155456,
				"z": 1.4954437663,
				"element": "H" 
			},
			{
				"x": 2.8021570315,
				"y": 1.7208186042,
				"z": 1.4381236672,
				"element": "H" 
			},
			{
				"x": 3.7186608456,
				"y": 0.7539235325,
				"z": 0.2862445274,
				"element": "H" 
			}
		],
		 "valence_orbital": [ 
			{
				"type": "occ",
				"energy": -0.34045,
				"method": "rhf"
			},
			{
				"type": "occ",
				"energy": -0.3174,
				"method": "rhf"
			},
			{
				"type": "occ",
				"energy": -0.29467,
				"method": "rhf"
			},
			{
				"type": "occ",
				"energy": -0.29467,
				"method": "rhf"
			},
			{
				"type": "occ",
				"energy": -0.2005,
				"method": "rhf"
			},
			{
				"type": "unocc",
				"energy": 0.06943,
				"method": "rhf"
			},
			{
				"type": "unocc",
				"energy": 0.10943,
				"method": "rhf"
			},
			{
				"type": "unocc",
				"energy": 0.10943,
				"method": "rhf"
			},
			{
				"type": "unocc",
				"energy": 0.13678,
				"method": "rhf"
			},
			{
				"type": "unocc",
				"energy": 0.14606,
				"method": "rhf"
			}
		],
		"cosmo_sigma_profile": { 
			"-0.025": 0.0,
			"-0.024": 0.0,
			"-0.023": 0.0,
			"-0.022": 0.0,
			"-0.021": 0.0,
			"-0.02": 0.0,
			"-0.019": 0.0,
			"-0.018": 0.0,
			"-0.017": 0.0,
			"-0.016": 0.0,
			"-0.015": 0.0,
			"-0.014": 0.0,
			"-0.013": 0.0,
			"-0.012": 0.0,
			"-0.011": 0.0,
			"-0.01": 0.0,
			"-0.009": 0.0,
			"-0.008": 0.0,
			"-0.007": 0.0,
			"-0.006": 0.0,
			"-0.005": 0.0,
			"-0.004": 0.0994483258789,
			"-0.003": 14.0195614763,
			"-0.002": 36.3022722612,
			"-0.001": 36.317833915,
			"0.0": 27.0889519359,
			"0.001": 21.9961578761,
			"0.002": 5.98871870349,
			"0.003": 1.85424055684,
			"0.004": 1.74871149173,
			"0.005": 0.726863413043,
			"0.006": 0.869857698247,
			"0.007": 0.754212412804,
			"0.008": 0.925652748281,
			"0.009": 1.11726934023,
			"0.01": 0.706545747417,
			"0.011": 0.764126118135,
			"0.012": 0.513165401604,
			"0.013": 0.470061010391,
			"0.014": 0.463785141348,
			"0.015": 1.05098928363,
			"0.016": 0.364999169385,
			"0.017": 0.521131044433,
			"0.018": 0.422995030588,
			"0.019": 0.0657840259268,
			"0.02": 0.0,
			"0.021": 0.0,
			"0.022": 0.0,
			"0.023": 0.0,
			"0.024": 0.0,
			"0.025": 0.0
		}
	}
}
