{
	 "smiles": "CC1=NN2C(NC(=O)C3=C2C=CC=C3)=C1", 
	 "Tm": 553.15, 
	 "num_atms": 24, 
	 "gaussian": { 
		 "optdone": 1, 
		 "sigma_profile": "yes", 
		 "theory": "DFT", 
		 "functional": "B3LYP", 
		 "basiset": "6-31G**", 
		 "properties": { 
			 "R2extent": 3163.7723, 
			 "electric_dipole_moment_norm": 1.81099194366, 
			 "electric_quadrupole_moment_norm": 20.437683377, 
			 "total_energy": -664.089409718, 
			 "HOMO_LUMO_gap": 0.17442, 
			 "cosmo_polarized_energy": -12.68, 
			 "cosmo_cavitation_energy": 28.14, 
			 "cosmo_dispersion_energy": -21.2, 
			 "cosmo_repulsion_energy": 1.63, 
			 "cosmo_total_nonelectrostatic_energy": 8.56, 
			 "SMD_solvation_energy": 4.56 
		},
		"coords": [
			{
				"x": -2.8417977027,
				"y": 2.8333237668,
				"z": 1.9065541164,
				"element": "C" 
			},
			{
				"x": -1.6459563857,
				"y": 2.1909716561,
				"z": 1.268147077,
				"element": "C" 
			},
			{
				"x": -1.466259831,
				"y": 0.8737705792,
				"z": 1.3438976353,
				"element": "N" 
			},
			{
				"x": -0.3004762757,
				"y": 0.6505413261,
				"z": 0.6649238904,
				"element": "N" 
			},
			{
				"x": 0.2378208763,
				"y": 1.8093408405,
				"z": 0.1738080494,
				"element": "C" 
			},
			{
				"x": 1.4190036204,
				"y": 1.7390245928,
				"z": -0.5361448241,
				"element": "N" 
			},
			{
				"x": 2.1193103883,
				"y": 0.5625457777,
				"z": -0.7973479099,
				"element": "C" 
			},
			{
				"x": 3.1625142773,
				"y": 0.5837534704,
				"z": -1.4364364868,
				"element": "O" 
			},
			{
				"x": 1.4910477316,
				"y": -0.6588304986,
				"z": -0.2428098892,
				"element": "C" 
			},
			{
				"x": 0.284290135,
				"y": -0.6015609256,
				"z": 0.4846573075,
				"element": "C" 
			},
			{
				"x": -0.2973851769,
				"y": -1.7646576299,
				"z": 1.002738397,
				"element": "C" 
			},
			{
				"x": 0.335281662,
				"y": -2.9835540651,
				"z": 0.7884843001,
				"element": "C" 
			},
			{
				"x": 1.5364451058,
				"y": -3.0595326734,
				"z": 0.0670281406,
				"element": "C" 
			},
			{
				"x": 2.1073480757,
				"y": -1.9014737161,
				"z": -0.4437534995,
				"element": "C" 
			},
			{
				"x": -0.60722804,
				"y": 2.837152593,
				"z": 0.544115907,
				"element": "C" 
			},
			{
				"x": -2.8325236428,
				"y": 3.9143898616,
				"z": 1.7488727917,
				"element": "H" 
			},
			{
				"x": -2.8594846519,
				"y": 2.6436616369,
				"z": 2.9844766592,
				"element": "H" 
			},
			{
				"x": -3.7710427243,
				"y": 2.4332927332,
				"z": 1.4886040833,
				"element": "H" 
			},
			{
				"x": 1.8301041334,
				"y": 2.5856326478,
				"z": -0.9058206765,
				"element": "H" 
			},
			{
				"x": -1.2246721549,
				"y": -1.685068802,
				"z": 1.5566995614,
				"element": "H" 
			},
			{
				"x": -0.1120956041,
				"y": -3.8889121774,
				"z": 1.1884275722,
				"element": "H" 
			},
			{
				"x": 2.0166834556,
				"y": -4.0198995248,
				"z": -0.0906554161,
				"element": "H" 
			},
			{
				"x": 3.0347111695,
				"y": -1.9187514679,
				"z": -1.0064866436,
				"element": "H" 
			},
			{
				"x": -0.4997384408,
				"y": 3.889539999,
				"z": 0.3305198574,
				"element": "H" 
			}
		],
		 "valence_orbital": [ 
			{
				"type": "occ",
				"energy": -0.29355,
				"method": "rhf"
			},
			{
				"type": "occ",
				"energy": -0.26713,
				"method": "rhf"
			},
			{
				"type": "occ",
				"energy": -0.26617,
				"method": "rhf"
			},
			{
				"type": "occ",
				"energy": -0.22979,
				"method": "rhf"
			},
			{
				"type": "occ",
				"energy": -0.2216,
				"method": "rhf"
			},
			{
				"type": "unocc",
				"energy": -0.04718,
				"method": "rhf"
			},
			{
				"type": "unocc",
				"energy": -0.02707,
				"method": "rhf"
			},
			{
				"type": "unocc",
				"energy": 0.03021,
				"method": "rhf"
			},
			{
				"type": "unocc",
				"energy": 0.05117,
				"method": "rhf"
			},
			{
				"type": "unocc",
				"energy": 0.0804,
				"method": "rhf"
			}
		],
		"cosmo_sigma_profile": { 
			"-0.025": 0.0,
			"-0.024": 0.0,
			"-0.023": 0.0,
			"-0.022": 0.0,
			"-0.021": 0.0,
			"-0.02": 0.0,
			"-0.019": 0.0,
			"-0.018": 0.0,
			"-0.017": 0.234867353735,
			"-0.016": 1.35654853655,
			"-0.015": 1.01106154921,
			"-0.014": 1.12760504982,
			"-0.013": 0.968465897416,
			"-0.012": 1.12567111374,
			"-0.011": 0.974484150643,
			"-0.01": 0.70089562983,
			"-0.009": 1.13739920882,
			"-0.008": 1.52063089797,
			"-0.007": 6.21450604006,
			"-0.006": 8.8154966149,
			"-0.005": 15.8175868215,
			"-0.004": 16.7443657983,
			"-0.003": 15.3902834114,
			"-0.002": 14.7332824822,
			"-0.001": 21.755961283,
			"0.0": 18.9496891613,
			"0.001": 18.5692696271,
			"0.002": 16.8584399307,
			"0.003": 17.8217347164,
			"0.004": 11.0734698407,
			"0.005": 4.12531314653,
			"0.006": 2.84804432804,
			"0.007": 3.50071623472,
			"0.008": 3.35688824705,
			"0.009": 2.3965448189,
			"0.01": 2.5387384087,
			"0.011": 2.6091713321,
			"0.012": 5.21902104795,
			"0.013": 6.0272999887,
			"0.014": 0.483790666122,
			"0.015": 0.0,
			"0.016": 0.0,
			"0.017": 0.0,
			"0.018": 0.0,
			"0.019": 0.0,
			"0.02": 0.0,
			"0.021": 0.0,
			"0.022": 0.0,
			"0.023": 0.0,
			"0.024": 0.0,
			"0.025": 0.0
		}
	}
}
