{
	 "smiles": "CON(C)S(=O)(=O)C1=CC=C(N)C=C1", 
	 "Tm": 422.15, 
	 "num_atms": 26, 
	 "gaussian": { 
		 "optdone": 1, 
		 "sigma_profile": "yes", 
		 "theory": "DFT", 
		 "functional": "B3LYP", 
		 "basiset": "6-31G**", 
		 "properties": { 
			 "R2extent": 3316.3144, 
			 "electric_dipole_moment_norm": 6.90816564726, 
			 "electric_quadrupole_moment_norm": 17.1558347241, 
			 "total_energy": -1045.31560546, 
			 "HOMO_LUMO_gap": 0.2, 
			 "cosmo_polarized_energy": -18.72, 
			 "cosmo_cavitation_energy": 30.67, 
			 "cosmo_dispersion_energy": -22.28, 
			 "cosmo_repulsion_energy": 1.72, 
			 "cosmo_total_nonelectrostatic_energy": 10.12, 
			 "SMD_solvation_energy": 5.29 
		},
		"coords": [
			{
				"x": 1.6855273975,
				"y": 0.0196866273,
				"z": -2.8545152836,
				"element": "C" 
			},
			{
				"x": 1.4411919143,
				"y": -0.0944962932,
				"z": -1.447577436,
				"element": "O" 
			},
			{
				"x": 1.2040211064,
				"y": 1.2039898864,
				"z": -0.9034621351,
				"element": "N" 
			},
			{
				"x": 2.054245061,
				"y": 1.3502806,
				"z": 0.281209588,
				"element": "C" 
			},
			{
				"x": -0.5086297807,
				"y": 1.3446977752,
				"z": -0.5908116112,
				"element": "S" 
			},
			{
				"x": -1.1483621918,
				"y": 1.0774278554,
				"z": -1.8798425943,
				"element": "O" 
			},
			{
				"x": -0.645988491,
				"y": 2.6319621173,
				"z": 0.097789921,
				"element": "O" 
			},
			{
				"x": -0.9508025423,
				"y": 0.0456310293,
				"z": 0.5419063999,
				"element": "C" 
			},
			{
				"x": -1.1895321194,
				"y": -1.2490134822,
				"z": 0.0645321682,
				"element": "C" 
			},
			{
				"x": -1.5177769124,
				"y": -2.2611040217,
				"z": 0.9542578339,
				"element": "C" 
			},
			{
				"x": -1.6148680797,
				"y": -2.0007452252,
				"z": 2.3370142877,
				"element": "C" 
			},
			{
				"x": -1.9920767119,
				"y": -3.000027616,
				"z": 3.2153725671,
				"element": "N" 
			},
			{
				"x": -1.3757570385,
				"y": -0.6911174963,
				"z": 2.7995438007,
				"element": "C" 
			},
			{
				"x": -1.0449232718,
				"y": 0.3225962794,
				"z": 1.9103571872,
				"element": "C" 
			},
			{
				"x": 1.9047236383,
				"y": -0.9989589059,
				"z": -3.1855290365,
				"element": "H" 
			},
			{
				"x": 2.5474853765,
				"y": 0.6674123643,
				"z": -3.0491335729,
				"element": "H" 
			},
			{
				"x": 0.8039986602,
				"y": 0.4037781035,
				"z": -3.3734517384,
				"element": "H" 
			},
			{
				"x": 1.9178879976,
				"y": 0.5332236127,
				"z": 1.0012852754,
				"element": "H" 
			},
			{
				"x": 3.0918328814,
				"y": 1.3587854558,
				"z": -0.0594474233,
				"element": "H" 
			},
			{
				"x": 1.8207585138,
				"y": 2.308216251,
				"z": 0.7472755175,
				"element": "H" 
			},
			{
				"x": -1.1289505908,
				"y": -1.4497261393,
				"z": -0.9983929605,
				"element": "H" 
			},
			{
				"x": -1.7131453608,
				"y": -3.2640805422,
				"z": 0.5841574904,
				"element": "H" 
			},
			{
				"x": -1.8720981912,
				"y": -3.9528994211,
				"z": 2.9057697608,
				"element": "H" 
			},
			{
				"x": -1.7771661375,
				"y": -2.859184006,
				"z": 4.1911710595,
				"element": "H" 
			},
			{
				"x": -1.4635533083,
				"y": -0.4730881545,
				"z": 3.8606059364,
				"element": "H" 
			},
			{
				"x": -0.8785418189,
				"y": 1.3342533461,
				"z": 2.2641149979,
				"element": "H" 
			}
		],
		 "valence_orbital": [ 
			{
				"type": "occ",
				"energy": -0.29398,
				"method": "rhf"
			},
			{
				"type": "occ",
				"energy": -0.2777,
				"method": "rhf"
			},
			{
				"type": "occ",
				"energy": -0.26607,
				"method": "rhf"
			},
			{
				"type": "occ",
				"energy": -0.25239,
				"method": "rhf"
			},
			{
				"type": "occ",
				"energy": -0.22232,
				"method": "rhf"
			},
			{
				"type": "unocc",
				"energy": -0.02232,
				"method": "rhf"
			},
			{
				"type": "unocc",
				"energy": -0.01486,
				"method": "rhf"
			},
			{
				"type": "unocc",
				"energy": 0.05739,
				"method": "rhf"
			},
			{
				"type": "unocc",
				"energy": 0.07046,
				"method": "rhf"
			},
			{
				"type": "unocc",
				"energy": 0.07341,
				"method": "rhf"
			}
		],
		"cosmo_sigma_profile": { 
			"-0.025": 0.0,
			"-0.024": 0.0,
			"-0.023": 0.0,
			"-0.022": 0.0,
			"-0.021": 0.0,
			"-0.02": 0.0,
			"-0.019": 0.0,
			"-0.018": 0.0,
			"-0.017": 0.0,
			"-0.016": 0.0,
			"-0.015": 0.0,
			"-0.014": 0.575149622168,
			"-0.013": 2.66299995232,
			"-0.012": 3.45452740581,
			"-0.011": 2.6881704774,
			"-0.01": 3.39983807307,
			"-0.009": 2.8823727067,
			"-0.008": 3.49768171914,
			"-0.007": 6.15311124761,
			"-0.006": 11.8739773732,
			"-0.005": 15.5143445463,
			"-0.004": 18.4853146616,
			"-0.003": 23.5449742592,
			"-0.002": 16.9707049888,
			"-0.001": 11.4408418014,
			"0.0": 11.1605069104,
			"0.001": 11.2088134685,
			"0.002": 12.5761537462,
			"0.003": 15.8951299679,
			"0.004": 15.8981804711,
			"0.005": 8.77057118848,
			"0.006": 7.03494235214,
			"0.007": 7.1041033133,
			"0.008": 4.88124964637,
			"0.009": 5.95018788117,
			"0.01": 7.60736910725,
			"0.011": 8.56577438774,
			"0.012": 3.04978390569,
			"0.013": 0.0,
			"0.014": 0.0,
			"0.015": 0.0,
			"0.016": 0.0,
			"0.017": 0.0,
			"0.018": 0.0,
			"0.019": 0.0,
			"0.02": 0.0,
			"0.021": 0.0,
			"0.022": 0.0,
			"0.023": 0.0,
			"0.024": 0.0,
			"0.025": 0.0
		}
	}
}
