{
	 "smiles": "CCOC(=O)COC1=CC(Br)=CC=C1", 
	 "Tm": 314.15, 
	 "num_atms": 25, 
	 "gaussian": { 
		 "optdone": 1, 
		 "sigma_profile": "yes", 
		 "theory": "DFT", 
		 "functional": "B3LYP", 
		 "basiset": "6-31G**", 
		 "properties": { 
			 "R2extent": 6627.0898, 
			 "electric_dipole_moment_norm": 1.77037056573, 
			 "electric_quadrupole_moment_norm": 12.6138108809, 
			 "total_energy": -3184.76789228, 
			 "HOMO_LUMO_gap": 0.21374, 
			 "cosmo_polarized_energy": -9.98, 
			 "cosmo_cavitation_energy": 31.97, 
			 "cosmo_dispersion_energy": -22.74, 
			 "cosmo_repulsion_energy": 1.86, 
			 "cosmo_total_nonelectrostatic_energy": 11.09, 
			 "SMD_solvation_energy": 5.66 
		},
		"coords": [
			{
				"x": 2.3322966986,
				"y": 0.1160816878,
				"z": -1.6965763531,
				"element": "C" 
			},
			{
				"x": 2.7960728271,
				"y": -0.75391745,
				"z": -0.5450164407,
				"element": "C" 
			},
			{
				"x": 1.6928597892,
				"y": -1.6254853823,
				"z": -0.1876313987,
				"element": "O" 
			},
			{
				"x": 1.9082349758,
				"y": -2.4480027355,
				"z": 0.8453035808,
				"element": "C" 
			},
			{
				"x": 2.9445360806,
				"y": -2.531409135,
				"z": 1.469454702,
				"element": "O" 
			},
			{
				"x": 0.7021596137,
				"y": -3.3415508973,
				"z": 1.1415022107,
				"element": "C" 
			},
			{
				"x": -0.5470206436,
				"y": -2.8452530733,
				"z": 0.706538484,
				"element": "O" 
			},
			{
				"x": -1.1019660022,
				"y": -1.7906494181,
				"z": 1.3789278512,
				"element": "C" 
			},
			{
				"x": -2.3553286001,
				"y": -1.3809728978,
				"z": 0.9015897214,
				"element": "C" 
			},
			{
				"x": -3.0023920339,
				"y": -0.3244283812,
				"z": 1.5266928369,
				"element": "C" 
			},
			{
				"x": -4.7120370811,
				"y": 0.2314190843,
				"z": 0.8723089433,
				"element": "Br" 
			},
			{
				"x": -2.4419243128,
				"y": 0.3422642098,
				"z": 2.618169472,
				"element": "C" 
			},
			{
				"x": -1.1960215386,
				"y": -0.0792348875,
				"z": 3.0758172977,
				"element": "C" 
			},
			{
				"x": -0.5152196008,
				"y": -1.1391060104,
				"z": 2.4698536165,
				"element": "C" 
			},
			{
				"x": 2.0545917017,
				"y": -0.4936898958,
				"z": -2.5608689703,
				"element": "H" 
			},
			{
				"x": 3.1390627552,
				"y": 0.7920796572,
				"z": -1.9964147767,
				"element": "H" 
			},
			{
				"x": 1.4667154584,
				"y": 0.7181347005,
				"z": -1.4068400992,
				"element": "H" 
			},
			{
				"x": 3.6570917805,
				"y": -1.3740278787,
				"z": -0.8130590556,
				"element": "H" 
			},
			{
				"x": 3.0733617505,
				"y": -0.165011331,
				"z": 0.3345450523,
				"element": "H" 
			},
			{
				"x": 0.7113731442,
				"y": -3.5683523735,
				"z": 2.2132971008,
				"element": "H" 
			},
			{
				"x": 0.8478264759,
				"y": -4.2813192764,
				"z": 0.5993821711,
				"element": "H" 
			},
			{
				"x": -2.793345781,
				"y": -1.8966879531,
				"z": 0.056003874,
				"element": "H" 
			},
			{
				"x": -2.9657927649,
				"y": 1.1642829065,
				"z": 3.0904489475,
				"element": "H" 
			},
			{
				"x": -0.7402255616,
				"y": 0.4264402981,
				"z": 3.9220149972,
				"element": "H" 
			},
			{
				"x": 0.4551908691,
				"y": -1.4348035674,
				"z": 2.8504562348,
				"element": "H" 
			}
		],
		 "valence_orbital": [ 
			{
				"type": "occ",
				"energy": -0.30558,
				"method": "rhf"
			},
			{
				"type": "occ",
				"energy": -0.28551,
				"method": "rhf"
			},
			{
				"type": "occ",
				"energy": -0.28132,
				"method": "rhf"
			},
			{
				"type": "occ",
				"energy": -0.24719,
				"method": "rhf"
			},
			{
				"type": "occ",
				"energy": -0.23205,
				"method": "rhf"
			},
			{
				"type": "unocc",
				"energy": -0.01831,
				"method": "rhf"
			},
			{
				"type": "unocc",
				"energy": -0.00201,
				"method": "rhf"
			},
			{
				"type": "unocc",
				"energy": 0.00047,
				"method": "rhf"
			},
			{
				"type": "unocc",
				"energy": 0.00767,
				"method": "rhf"
			},
			{
				"type": "unocc",
				"energy": 0.08774,
				"method": "rhf"
			}
		],
		"cosmo_sigma_profile": { 
			"-0.025": 0.0,
			"-0.024": 0.0,
			"-0.023": 0.0,
			"-0.022": 0.0,
			"-0.021": 0.0,
			"-0.02": 0.0,
			"-0.019": 0.0,
			"-0.018": 0.0,
			"-0.017": 0.0,
			"-0.016": 0.0,
			"-0.015": 0.0,
			"-0.014": 0.0,
			"-0.013": 0.0,
			"-0.012": 0.0,
			"-0.011": 0.0,
			"-0.01": 0.324159981171,
			"-0.009": 2.33965892449,
			"-0.008": 3.56439789419,
			"-0.007": 9.18586148595,
			"-0.006": 12.9369386388,
			"-0.005": 18.0936732337,
			"-0.004": 23.7510731565,
			"-0.003": 20.2002975418,
			"-0.002": 17.4881058492,
			"-0.001": 16.2039447525,
			"0.0": 17.8983512824,
			"0.001": 14.3125033067,
			"0.002": 19.8296135398,
			"0.003": 23.8152182578,
			"0.004": 21.9102848094,
			"0.005": 11.091292364,
			"0.006": 3.13515519481,
			"0.007": 2.93581663374,
			"0.008": 4.25056325655,
			"0.009": 3.6607000847,
			"0.01": 2.58091708507,
			"0.011": 3.99659877421,
			"0.012": 3.67917431723,
			"0.013": 0.184692379365,
			"0.014": 0.0,
			"0.015": 0.0,
			"0.016": 0.0,
			"0.017": 0.0,
			"0.018": 0.0,
			"0.019": 0.0,
			"0.02": 0.0,
			"0.021": 0.0,
			"0.022": 0.0,
			"0.023": 0.0,
			"0.024": 0.0,
			"0.025": 0.0
		}
	}
}
