{
	 "smiles": "CCN1N=C(CC1=O)C(O)=O", 
	 "Tm": 530.15, 
	 "num_atms": 19, 
	 "gaussian": { 
		 "optdone": 1, 
		 "sigma_profile": "yes", 
		 "theory": "DFT", 
		 "functional": "B3LYP", 
		 "basiset": "6-31G**", 
		 "properties": { 
			 "R2extent": 2809.6008, 
			 "electric_dipole_moment_norm": 3.80028991657, 
			 "electric_quadrupole_moment_norm": 19.1821215972, 
			 "total_energy": -568.630088919, 
			 "HOMO_LUMO_gap": 0.17676, 
			 "cosmo_polarized_energy": -14.79, 
			 "cosmo_cavitation_energy": 23.87, 
			 "cosmo_dispersion_energy": -17.29, 
			 "cosmo_repulsion_energy": 1.44, 
			 "cosmo_total_nonelectrostatic_energy": 8.02, 
			 "SMD_solvation_energy": 5.56 
		},
		"coords": [
			{
				"x": -2.1909334587,
				"y": -4.1612538076,
				"z": -0.1220790834,
				"element": "C" 
			},
			{
				"x": -2.7036397151,
				"y": -3.012268813,
				"z": -0.9911482325,
				"element": "C" 
			},
			{
				"x": -1.9182237545,
				"y": -1.7947099843,
				"z": -0.8423671182,
				"element": "N" 
			},
			{
				"x": -0.6360309192,
				"y": -1.7209731542,
				"z": -1.3136365653,
				"element": "N" 
			},
			{
				"x": -0.1550672029,
				"y": -0.5512479449,
				"z": -1.0315320342,
				"element": "C" 
			},
			{
				"x": -1.1293751352,
				"y": 0.3135698928,
				"z": -0.2982659325,
				"element": "C" 
			},
			{
				"x": -2.3339458989,
				"y": -0.6241751007,
				"z": -0.1962222218,
				"element": "C" 
			},
			{
				"x": -3.4229965802,
				"y": -0.4517071471,
				"z": 0.309810324,
				"element": "O" 
			},
			{
				"x": 1.2266673262,
				"y": -0.1865861434,
				"z": -1.4322689308,
				"element": "C" 
			},
			{
				"x": 1.9021844083,
				"y": -1.1491174199,
				"z": -2.0933833663,
				"element": "O" 
			},
			{
				"x": 1.7081164043,
				"y": 0.8948345081,
				"z": -1.1820841124,
				"element": "O" 
			},
			{
				"x": -2.8055516072,
				"y": -5.0524692024,
				"z": -0.2813778519,
				"element": "H" 
			},
			{
				"x": -1.1562785252,
				"y": -4.4098246491,
				"z": -0.3751306425,
				"element": "H" 
			},
			{
				"x": -2.2358217798,
				"y": -3.8984291011,
				"z": 0.9387417385,
				"element": "H" 
			},
			{
				"x": -2.703937755,
				"y": -3.292568561,
				"z": -2.0496884609,
				"element": "H" 
			},
			{
				"x": -3.7216170989,
				"y": -2.7294413045,
				"z": -0.7118640378,
				"element": "H" 
			},
			{
				"x": -1.385399246,
				"y": 1.2301189893,
				"z": -0.8401924881,
				"element": "H" 
			},
			{
				"x": -0.7766161691,
				"y": 0.6188145994,
				"z": 0.6923960659,
				"element": "H" 
			},
			{
				"x": 1.3222667072,
				"y": -1.9261656564,
				"z": -2.1816070498,
				"element": "H" 
			}
		],
		 "valence_orbital": [ 
			{
				"type": "occ",
				"energy": -0.35242,
				"method": "rhf"
			},
			{
				"type": "occ",
				"energy": -0.32254,
				"method": "rhf"
			},
			{
				"type": "occ",
				"energy": -0.28802,
				"method": "rhf"
			},
			{
				"type": "occ",
				"energy": -0.27597,
				"method": "rhf"
			},
			{
				"type": "occ",
				"energy": -0.25698,
				"method": "rhf"
			},
			{
				"type": "unocc",
				"energy": -0.08022,
				"method": "rhf"
			},
			{
				"type": "unocc",
				"energy": -8e-05,
				"method": "rhf"
			},
			{
				"type": "unocc",
				"energy": 0.06822,
				"method": "rhf"
			},
			{
				"type": "unocc",
				"energy": 0.08278,
				"method": "rhf"
			},
			{
				"type": "unocc",
				"energy": 0.09193,
				"method": "rhf"
			}
		],
		"cosmo_sigma_profile": { 
			"-0.025": 0.0,
			"-0.024": 0.0,
			"-0.023": 0.0,
			"-0.022": 0.0,
			"-0.021": 0.0,
			"-0.02": 0.0,
			"-0.019": 0.0,
			"-0.018": 0.0,
			"-0.017": 0.0,
			"-0.016": 0.227453150361,
			"-0.015": 0.293740474345,
			"-0.014": 0.84497337374,
			"-0.013": 0.629544779113,
			"-0.012": 0.497767029627,
			"-0.011": 0.757792058169,
			"-0.01": 1.25215864708,
			"-0.009": 5.37968396928,
			"-0.008": 6.51170620642,
			"-0.007": 6.89314193276,
			"-0.006": 8.07225556824,
			"-0.005": 14.0352987217,
			"-0.004": 16.2951907401,
			"-0.003": 19.4839103425,
			"-0.002": 15.7545230558,
			"-0.001": 12.3020093418,
			"0.0": 11.9166581423,
			"0.001": 6.65152028171,
			"0.002": 5.86425887735,
			"0.003": 4.41966708458,
			"0.004": 3.90058928786,
			"0.005": 3.83495646761,
			"0.006": 4.19371319492,
			"0.007": 3.19229760399,
			"0.008": 3.71494391558,
			"0.009": 6.97748449857,
			"0.01": 6.60645163388,
			"0.011": 9.39408336195,
			"0.012": 7.97202751894,
			"0.013": 1.48825895966,
			"0.014": 0.0,
			"0.015": 0.0,
			"0.016": 0.0,
			"0.017": 0.0,
			"0.018": 0.0,
			"0.019": 0.0,
			"0.02": 0.0,
			"0.021": 0.0,
			"0.022": 0.0,
			"0.023": 0.0,
			"0.024": 0.0,
			"0.025": 0.0
		}
	}
}
