{
	 "smiles": "CCOC(=O)C1=C(N)N(CCC#N)N=C1", 
	 "Tm": 383.15, 
	 "num_atms": 27, 
	 "gaussian": { 
		 "optdone": 1, 
		 "sigma_profile": "yes", 
		 "theory": "DFT", 
		 "functional": "B3LYP", 
		 "basiset": "6-31G**", 
		 "properties": { 
			 "R2extent": 3936.2558, 
			 "electric_dipole_moment_norm": 3.3943008146, 
			 "electric_quadrupole_moment_norm": 23.0493562166, 
			 "total_energy": -719.633029811, 
			 "HOMO_LUMO_gap": 0.21119, 
			 "cosmo_polarized_energy": -18.1, 
			 "cosmo_cavitation_energy": 32.05, 
			 "cosmo_dispersion_energy": -22.17, 
			 "cosmo_repulsion_energy": 1.76, 
			 "cosmo_total_nonelectrostatic_energy": 11.64, 
			 "SMD_solvation_energy": 6.67 
		},
		"coords": [
			{
				"x": -4.0372893161,
				"y": 1.3605494173,
				"z": -1.229275297,
				"element": "C" 
			},
			{
				"x": -2.7845983989,
				"y": 1.5003557203,
				"z": -2.0737373783,
				"element": "C" 
			},
			{
				"x": -1.6492963016,
				"y": 1.2233585072,
				"z": -1.2236382661,
				"element": "O" 
			},
			{
				"x": -0.4230405779,
				"y": 1.305136537,
				"z": -1.8303569535,
				"element": "C" 
			},
			{
				"x": -0.2914296653,
				"y": 1.5989119989,
				"z": -3.0032671477,
				"element": "O" 
			},
			{
				"x": 0.6641072893,
				"y": 1.0027850474,
				"z": -0.9108936289,
				"element": "C" 
			},
			{
				"x": 0.6140960014,
				"y": 0.616214654,
				"z": 0.4358315335,
				"element": "C" 
			},
			{
				"x": -0.4491649013,
				"y": 0.4798989138,
				"z": 1.3046715117,
				"element": "N" 
			},
			{
				"x": 1.9081290271,
				"y": 0.4419942371,
				"z": 0.8237124122,
				"element": "N" 
			},
			{
				"x": 2.4211887093,
				"y": 0.127637656,
				"z": 2.1382278954,
				"element": "C" 
			},
			{
				"x": 2.7032152195,
				"y": -1.3808870121,
				"z": 2.3349731563,
				"element": "C" 
			},
			{
				"x": 1.4628422789,
				"y": -2.1585490821,
				"z": 2.3641168959,
				"element": "C" 
			},
			{
				"x": 0.4375593066,
				"y": -2.70344311,
				"z": 2.3905465396,
				"element": "N" 
			},
			{
				"x": 2.8037995961,
				"y": 0.6678655866,
				"z": -0.2000608392,
				"element": "N" 
			},
			{
				"x": 2.0493715338,
				"y": 1.0096751932,
				"z": -1.2264459595,
				"element": "C" 
			},
			{
				"x": -4.9215944639,
				"y": 1.566160676,
				"z": -1.8403941599,
				"element": "H" 
			},
			{
				"x": -4.12988197,
				"y": 0.346958207,
				"z": -0.8272588336,
				"element": "H" 
			},
			{
				"x": -4.0288404253,
				"y": 2.0667155141,
				"z": -0.3934254939,
				"element": "H" 
			},
			{
				"x": -2.776518901,
				"y": 0.7997804464,
				"z": -2.9144899868,
				"element": "H" 
			},
			{
				"x": -2.6786444831,
				"y": 2.5083662984,
				"z": -2.4863721922,
				"element": "H" 
			},
			{
				"x": -1.3264543793,
				"y": 0.6319061095,
				"z": 0.8198515809,
				"element": "H" 
			},
			{
				"x": -0.4569842806,
				"y": -0.384928488,
				"z": 1.8355975118,
				"element": "H" 
			},
			{
				"x": 3.3591243839,
				"y": 0.6743765474,
				"z": 2.2546303036,
				"element": "H" 
			},
			{
				"x": 1.7082151636,
				"y": 0.4880710281,
				"z": 2.8850462285,
				"element": "H" 
			},
			{
				"x": 3.3408104498,
				"y": -1.7376448259,
				"z": 1.5196027629,
				"element": "H" 
			},
			{
				"x": 3.2420026119,
				"y": -1.5376678671,
				"z": 3.2762588943,
				"element": "H" 
			},
			{
				"x": 2.4940764932,
				"y": 1.2534020898,
				"z": -2.18155109,
				"element": "H" 
			}
		],
		 "valence_orbital": [ 
			{
				"type": "occ",
				"energy": -0.29613,
				"method": "rhf"
			},
			{
				"type": "occ",
				"energy": -0.29484,
				"method": "rhf"
			},
			{
				"type": "occ",
				"energy": -0.26701,
				"method": "rhf"
			},
			{
				"type": "occ",
				"energy": -0.25777,
				"method": "rhf"
			},
			{
				"type": "occ",
				"energy": -0.22257,
				"method": "rhf"
			},
			{
				"type": "unocc",
				"energy": -0.01138,
				"method": "rhf"
			},
			{
				"type": "unocc",
				"energy": 0.00841,
				"method": "rhf"
			},
			{
				"type": "unocc",
				"energy": 0.01445,
				"method": "rhf"
			},
			{
				"type": "unocc",
				"energy": 0.02406,
				"method": "rhf"
			},
			{
				"type": "unocc",
				"energy": 0.07406,
				"method": "rhf"
			}
		],
		"cosmo_sigma_profile": { 
			"-0.025": 0.0,
			"-0.024": 0.0,
			"-0.023": 0.0,
			"-0.022": 0.0,
			"-0.021": 0.0,
			"-0.02": 0.0,
			"-0.019": 0.0,
			"-0.018": 0.0,
			"-0.017": 0.0,
			"-0.016": 0.0,
			"-0.015": 0.0,
			"-0.014": 0.0,
			"-0.013": 0.0,
			"-0.012": 0.0,
			"-0.011": 0.31712588178,
			"-0.01": 2.11563074856,
			"-0.009": 8.28679909433,
			"-0.008": 11.978392464,
			"-0.007": 11.8696841042,
			"-0.006": 11.2749064373,
			"-0.005": 13.9981739505,
			"-0.004": 18.9093958064,
			"-0.003": 19.4694185223,
			"-0.002": 20.4753811095,
			"-0.001": 18.2552953473,
			"0.0": 18.2638704458,
			"0.001": 13.1169207819,
			"0.002": 12.6382069437,
			"0.003": 11.475740417,
			"0.004": 6.92022257133,
			"0.005": 6.70782041857,
			"0.006": 5.90191894294,
			"0.007": 5.19215388309,
			"0.008": 7.1228453546,
			"0.009": 4.74835503134,
			"0.01": 5.73565892969,
			"0.011": 6.38672477353,
			"0.012": 7.31601947317,
			"0.013": 4.83884356086,
			"0.014": 0.93143110319,
			"0.015": 0.699139114723,
			"0.016": 0.00476127927829,
			"0.017": 0.0,
			"0.018": 0.0,
			"0.019": 0.0,
			"0.02": 0.0,
			"0.021": 0.0,
			"0.022": 0.0,
			"0.023": 0.0,
			"0.024": 0.0,
			"0.025": 0.0
		}
	}
}
