{
	 "smiles": "CNC(=S)NCC1=CC=CO1", 
	 "Tm": 348.15, 
	 "num_atms": 21, 
	 "gaussian": { 
		 "optdone": 1, 
		 "sigma_profile": "yes", 
		 "theory": "DFT", 
		 "functional": "B3LYP", 
		 "basiset": "6-31G**", 
		 "properties": { 
			 "R2extent": 2629.6791, 
			 "electric_dipole_moment_norm": 5.28996226546, 
			 "electric_quadrupole_moment_norm": 13.5338707767, 
			 "total_energy": -855.668926391, 
			 "HOMO_LUMO_gap": 0.19505, 
			 "cosmo_polarized_energy": -16.07, 
			 "cosmo_cavitation_energy": 26.49, 
			 "cosmo_dispersion_energy": -19.46, 
			 "cosmo_repulsion_energy": 1.55, 
			 "cosmo_total_nonelectrostatic_energy": 8.58, 
			 "SMD_solvation_energy": 3.81 
		},
		"coords": [
			{
				"x": -0.1779141117,
				"y": 2.8525900895,
				"z": -0.4506817563,
				"element": "C" 
			},
			{
				"x": -0.4867999146,
				"y": 1.4401610687,
				"z": -0.2865863881,
				"element": "N" 
			},
			{
				"x": -1.6079346447,
				"y": 0.8680391046,
				"z": -0.7952544872,
				"element": "C" 
			},
			{
				"x": -2.814400526,
				"y": 1.7148080784,
				"z": -1.6072704967,
				"element": "S" 
			},
			{
				"x": -1.7121009681,
				"y": -0.4892573361,
				"z": -0.6042432701,
				"element": "N" 
			},
			{
				"x": -1.0043022701,
				"y": -1.2460920115,
				"z": 0.4188580943,
				"element": "C" 
			},
			{
				"x": 0.3814320968,
				"y": -1.6459413692,
				"z": -0.0036135762,
				"element": "C" 
			},
			{
				"x": 1.0524544151,
				"y": -1.6254403831,
				"z": -1.1916305241,
				"element": "C" 
			},
			{
				"x": 2.3499326386,
				"y": -2.1844153821,
				"z": -0.9311879391,
				"element": "C" 
			},
			{
				"x": 2.3681525949,
				"y": -2.5019521166,
				"z": 0.390465234,
				"element": "C" 
			},
			{
				"x": 1.1756497545,
				"y": -2.1766176171,
				"z": 0.9748738531,
				"element": "O" 
			},
			{
				"x": 0.711434268,
				"y": 3.0775078,
				"z": 0.1429716619,
				"element": "H" 
			},
			{
				"x": -1.0142045459,
				"y": 3.4581850645,
				"z": -0.0970652404,
				"element": "H" 
			},
			{
				"x": 0.0056050078,
				"y": 3.1130845139,
				"z": -1.4994415509,
				"element": "H" 
			},
			{
				"x": 0.2946875589,
				"y": 0.826185985,
				"z": -0.093497513,
				"element": "H" 
			},
			{
				"x": -2.59003,
				"y": -0.8598553695,
				"z": -0.9358890813,
				"element": "H" 
			},
			{
				"x": -1.5981986575,
				"y": -2.1412903763,
				"z": 0.6368703783,
				"element": "H" 
			},
			{
				"x": -0.9480728535,
				"y": -0.6751716972,
				"z": 1.357184208,
				"element": "H" 
			},
			{
				"x": 0.6640190551,
				"y": -1.2672411377,
				"z": -2.1336349535,
				"element": "H" 
			},
			{
				"x": 3.1539098095,
				"y": -2.3263877481,
				"z": -1.6388293969,
				"element": "H" 
			},
			{
				"x": 3.1075812928,
				"y": -2.93669916,
				"z": 1.0448027443,
				"element": "H" 
			}
		],
		 "valence_orbital": [ 
			{
				"type": "occ",
				"energy": -0.29092,
				"method": "rhf"
			},
			{
				"type": "occ",
				"energy": -0.26106,
				"method": "rhf"
			},
			{
				"type": "occ",
				"energy": -0.23715,
				"method": "rhf"
			},
			{
				"type": "occ",
				"energy": -0.21028,
				"method": "rhf"
			},
			{
				"type": "occ",
				"energy": -0.19866,
				"method": "rhf"
			},
			{
				"type": "unocc",
				"energy": -0.00361,
				"method": "rhf"
			},
			{
				"type": "unocc",
				"energy": 0.00318,
				"method": "rhf"
			},
			{
				"type": "unocc",
				"energy": 0.05714,
				"method": "rhf"
			},
			{
				"type": "unocc",
				"energy": 0.07329,
				"method": "rhf"
			},
			{
				"type": "unocc",
				"energy": 0.08741,
				"method": "rhf"
			}
		],
		"cosmo_sigma_profile": { 
			"-0.025": 0.0,
			"-0.024": 0.0,
			"-0.023": 0.0,
			"-0.022": 0.0,
			"-0.021": 0.0,
			"-0.02": 0.0,
			"-0.019": 0.0,
			"-0.018": 0.0,
			"-0.017": 0.0,
			"-0.016": 0.0,
			"-0.015": 0.0236187807963,
			"-0.014": 1.0839950473,
			"-0.013": 0.981692572635,
			"-0.012": 1.87607728031,
			"-0.011": 1.87064643807,
			"-0.01": 2.49158087708,
			"-0.009": 3.08978278842,
			"-0.008": 6.13709849992,
			"-0.007": 8.85669998947,
			"-0.006": 12.9732567137,
			"-0.005": 11.555661624,
			"-0.004": 15.3728357004,
			"-0.003": 16.6249866437,
			"-0.002": 17.8966140107,
			"-0.001": 9.91786702645,
			"0.0": 10.3588239623,
			"0.001": 9.98745686476,
			"0.002": 9.90028784644,
			"0.003": 11.7226526416,
			"0.004": 10.6136804642,
			"0.005": 9.73755228123,
			"0.006": 5.85428442014,
			"0.007": 4.1990262206,
			"0.008": 5.643372903,
			"0.009": 4.95259411043,
			"0.01": 4.32604900999,
			"0.011": 7.75350016401,
			"0.012": 6.39314113678,
			"0.013": 0.788992819552,
			"0.014": 0.0,
			"0.015": 0.0,
			"0.016": 0.0,
			"0.017": 0.0,
			"0.018": 0.0,
			"0.019": 0.0,
			"0.02": 0.0,
			"0.021": 0.0,
			"0.022": 0.0,
			"0.023": 0.0,
			"0.024": 0.0,
			"0.025": 0.0
		}
	}
}
