{
	 "smiles": "CN(C)C1=CC=C(C=C1)N=NC1=CC=CC=N1", 
	 "Tm": 382.15, 
	 "num_atms": 31, 
	 "gaussian": { 
		 "optdone": 1, 
		 "sigma_profile": "yes", 
		 "theory": "DFT", 
		 "functional": "B3LYP", 
		 "basiset": "6-31G**", 
		 "properties": { 
			 "R2extent": 5359.8817, 
			 "electric_dipole_moment_norm": 7.12643183157, 
			 "electric_quadrupole_moment_norm": 18.7083280915, 
			 "total_energy": -722.74990798, 
			 "HOMO_LUMO_gap": 0.13378, 
			 "cosmo_polarized_energy": -16.23, 
			 "cosmo_cavitation_energy": 34.66, 
			 "cosmo_dispersion_energy": -24.67, 
			 "cosmo_repulsion_energy": 1.9, 
			 "cosmo_total_nonelectrostatic_energy": 11.9, 
			 "SMD_solvation_energy": 2.34 
		},
		"coords": [
			{
				"x": 1.2081511351,
				"y": 1.3041690741,
				"z": 3.3656775601,
				"element": "C" 
			},
			{
				"x": 1.9317124426,
				"y": 1.8096406241,
				"z": 2.2102290302,
				"element": "N" 
			},
			{
				"x": 2.9791019079,
				"y": 2.7971427594,
				"z": 2.4150773767,
				"element": "C" 
			},
			{
				"x": 1.4532831343,
				"y": 1.5685120861,
				"z": 0.9373996048,
				"element": "C" 
			},
			{
				"x": 0.3302697978,
				"y": 0.7304439158,
				"z": 0.7189165712,
				"element": "C" 
			},
			{
				"x": -0.1235433921,
				"y": 0.447893226,
				"z": -0.5604907993,
				"element": "C" 
			},
			{
				"x": 0.5035294453,
				"y": 1.0136925472,
				"z": -1.6862700972,
				"element": "C" 
			},
			{
				"x": 1.5661400805,
				"y": 1.9066363524,
				"z": -1.4719041016,
				"element": "C" 
			},
			{
				"x": 2.053967393,
				"y": 2.1623655496,
				"z": -0.2011106179,
				"element": "C" 
			},
			{
				"x": 0.0839754001,
				"y": 0.8945866933,
				"z": -3.0388219973,
				"element": "N" 
			},
			{
				"x": -0.4697258436,
				"y": -0.1216732906,
				"z": -3.5171246077,
				"element": "N" 
			},
			{
				"x": -0.5787557554,
				"y": -1.3770459348,
				"z": -2.8336808173,
				"element": "C" 
			},
			{
				"x": 0.5703456877,
				"y": -2.1662203679,
				"z": -2.658210499,
				"element": "C" 
			},
			{
				"x": 0.408025566,
				"y": -3.4584064091,
				"z": -2.1731857183,
				"element": "C" 
			},
			{
				"x": -0.8785798046,
				"y": -3.9183109785,
				"z": -1.8793614723,
				"element": "C" 
			},
			{
				"x": -1.9482886382,
				"y": -3.0508769843,
				"z": -2.0952802979,
				"element": "C" 
			},
			{
				"x": -1.8184348693,
				"y": -1.8065333031,
				"z": -2.5745858,
				"element": "N" 
			},
			{
				"x": 0.197787014,
				"y": 1.7307275227,
				"z": 3.4526760862,
				"element": "H" 
			},
			{
				"x": 1.7614324559,
				"y": 1.5546025546,
				"z": 4.2716133686,
				"element": "H" 
			},
			{
				"x": 1.1128445452,
				"y": 0.2128470052,
				"z": 3.3264012439,
				"element": "H" 
			},
			{
				"x": 3.883260747,
				"y": 2.5387859257,
				"z": 1.8513432795,
				"element": "H" 
			},
			{
				"x": 2.6699981225,
				"y": 3.80959629,
				"z": 2.1159686423,
				"element": "H" 
			},
			{
				"x": 3.2456106136,
				"y": 2.8218630119,
				"z": 3.4723506056,
				"element": "H" 
			},
			{
				"x": -0.2018969736,
				"y": 0.3020715714,
				"z": 1.5590060329,
				"element": "H" 
			},
			{
				"x": -1.0008600139,
				"y": -0.1759550505,
				"z": -0.6800641284,
				"element": "H" 
			},
			{
				"x": 2.0093237222,
				"y": 2.3898036458,
				"z": -2.3373111497,
				"element": "H" 
			},
			{
				"x": 2.8880647672,
				"y": 2.8435133349,
				"z": -0.0894507736,
				"element": "H" 
			},
			{
				"x": 1.5485495943,
				"y": -1.7656937439,
				"z": -2.9013746672,
				"element": "H" 
			},
			{
				"x": 1.2730239163,
				"y": -4.098948289,
				"z": -2.0247833766,
				"element": "H" 
			},
			{
				"x": -1.0491336088,
				"y": -4.9205416966,
				"z": -1.5003050981,
				"element": "H" 
			},
			{
				"x": -2.9669785892,
				"y": -3.3696876417,
				"z": -1.8799433826,
				"element": "H" 
			}
		],
		 "valence_orbital": [ 
			{
				"type": "occ",
				"energy": -0.2659,
				"method": "rhf"
			},
			{
				"type": "occ",
				"energy": -0.25662,
				"method": "rhf"
			},
			{
				"type": "occ",
				"energy": -0.24832,
				"method": "rhf"
			},
			{
				"type": "occ",
				"energy": -0.21392,
				"method": "rhf"
			},
			{
				"type": "occ",
				"energy": -0.19115,
				"method": "rhf"
			},
			{
				"type": "unocc",
				"energy": -0.05737,
				"method": "rhf"
			},
			{
				"type": "unocc",
				"energy": -0.01993,
				"method": "rhf"
			},
			{
				"type": "unocc",
				"energy": -0.00597,
				"method": "rhf"
			},
			{
				"type": "unocc",
				"energy": 0.00257,
				"method": "rhf"
			},
			{
				"type": "unocc",
				"energy": 0.03704,
				"method": "rhf"
			}
		],
		"cosmo_sigma_profile": { 
			"-0.025": 0.0,
			"-0.024": 0.0,
			"-0.023": 0.0,
			"-0.022": 0.0,
			"-0.021": 0.0,
			"-0.02": 0.0,
			"-0.019": 0.0,
			"-0.018": 0.0,
			"-0.017": 0.0,
			"-0.016": 0.0,
			"-0.015": 0.0,
			"-0.014": 0.0,
			"-0.013": 0.0,
			"-0.012": 0.0,
			"-0.011": 0.0,
			"-0.01": 0.0,
			"-0.009": 0.0,
			"-0.008": 0.45975402612,
			"-0.007": 8.21081923923,
			"-0.006": 17.6517245118,
			"-0.005": 25.5922441854,
			"-0.004": 27.1300355486,
			"-0.003": 25.2928341358,
			"-0.002": 27.7025222278,
			"-0.001": 17.2753893146,
			"0.0": 15.5304320276,
			"0.001": 16.5146219132,
			"0.002": 19.3043929582,
			"0.003": 19.2613465162,
			"0.004": 16.6643100789,
			"0.005": 9.90338682789,
			"0.006": 3.08786358439,
			"0.007": 2.78529343899,
			"0.008": 2.46097296527,
			"0.009": 3.08036806365,
			"0.01": 3.27846483864,
			"0.011": 3.41227642109,
			"0.012": 3.64149947843,
			"0.013": 3.80413422574,
			"0.014": 2.99285661085,
			"0.015": 1.25388822059,
			"0.016": 0.550532633624,
			"0.017": 0.0297952325666,
			"0.018": 0.0,
			"0.019": 0.0,
			"0.02": 0.0,
			"0.021": 0.0,
			"0.022": 0.0,
			"0.023": 0.0,
			"0.024": 0.0,
			"0.025": 0.0
		}
	}
}
