{
	 "smiles": "CC1=CC(=O)NC2=C(N=NC3=CC=C(Cl)C=C3)C(N)=NN12", 
	 "Tm": 581.15, 
	 "num_atms": 32, 
	 "gaussian": { 
		 "optdone": 1, 
		 "sigma_profile": "yes", 
		 "theory": "DFT", 
		 "functional": "B3LYP", 
		 "basiset": "6-31G**", 
		 "properties": { 
			 "R2extent": 10067.9341, 
			 "electric_dipole_moment_norm": 4.81416833212, 
			 "electric_quadrupole_moment_norm": 8.46212964684, 
			 "total_energy": -1365.90989902, 
			 "HOMO_LUMO_gap": 0.1308, 
			 "cosmo_polarized_energy": -16.96, 
			 "cosmo_cavitation_energy": 39.81, 
			 "cosmo_dispersion_energy": -28.96, 
			 "cosmo_repulsion_energy": 2.21, 
			 "cosmo_total_nonelectrostatic_energy": 13.06, 
			 "SMD_solvation_energy": 5.29 
		},
		"coords": [
			{
				"x": 2.8816487372,
				"y": -3.1833894699,
				"z": 3.1949133653,
				"element": "C" 
			},
			{
				"x": 2.50258882,
				"y": -2.415263059,
				"z": 1.9688870278,
				"element": "C" 
			},
			{
				"x": 3.2963590628,
				"y": -2.2256705596,
				"z": 0.8769104409,
				"element": "C" 
			},
			{
				"x": 2.8784437483,
				"y": -1.4653538988,
				"z": -0.2979671987,
				"element": "C" 
			},
			{
				"x": 3.5435854478,
				"y": -1.2643801851,
				"z": -1.3025722667,
				"element": "O" 
			},
			{
				"x": 1.5678821063,
				"y": -0.9425158442,
				"z": -0.1897452177,
				"element": "N" 
			},
			{
				"x": 0.7804536169,
				"y": -1.1310705337,
				"z": 0.8935214391,
				"element": "C" 
			},
			{
				"x": -0.5224830139,
				"y": -0.7238949792,
				"z": 1.21215152,
				"element": "C" 
			},
			{
				"x": -1.4303295011,
				"y": -0.0015042774,
				"z": 0.4937906423,
				"element": "N" 
			},
			{
				"x": -1.0196651345,
				"y": 0.3829067357,
				"z": -0.6536217188,
				"element": "N" 
			},
			{
				"x": -1.9557535351,
				"y": 1.1299243254,
				"z": -1.4008747487,
				"element": "C" 
			},
			{
				"x": -3.2394948108,
				"y": 1.4890226002,
				"z": -0.9516554251,
				"element": "C" 
			},
			{
				"x": -4.0859406026,
				"y": 2.2296459763,
				"z": -1.766426689,
				"element": "C" 
			},
			{
				"x": -3.6526461501,
				"y": 2.6169146379,
				"z": -3.0390419085,
				"element": "C" 
			},
			{
				"x": -4.7265820571,
				"y": 3.5531938542,
				"z": -4.0657115421,
				"element": "Cl" 
			},
			{
				"x": -2.3835297182,
				"y": 2.273405358,
				"z": -3.5035152043,
				"element": "C" 
			},
			{
				"x": -1.5413591793,
				"y": 1.5317133323,
				"z": -2.6792434522,
				"element": "C" 
			},
			{
				"x": -0.7387933901,
				"y": -1.2758210765,
				"z": 2.5260836533,
				"element": "C" 
			},
			{
				"x": -1.8699067809,
				"y": -1.0892616639,
				"z": 3.2698244219,
				"element": "N" 
			},
			{
				"x": 0.3051139757,
				"y": -1.9593653335,
				"z": 2.9776907381,
				"element": "N" 
			},
			{
				"x": 1.2407820966,
				"y": -1.854518341,
				"z": 1.9513239167,
				"element": "N" 
			},
			{
				"x": 2.8226759008,
				"y": -2.5430681481,
				"z": 4.0803808161,
				"element": "H" 
			},
			{
				"x": 3.8946306995,
				"y": -3.5753924667,
				"z": 3.0956266518,
				"element": "H" 
			},
			{
				"x": 2.1844455369,
				"y": -4.0108346242,
				"z": 3.3587171905,
				"element": "H" 
			},
			{
				"x": 4.2925214842,
				"y": -2.6468285883,
				"z": 0.8484022711,
				"element": "H" 
			},
			{
				"x": 1.1707163722,
				"y": -0.3954601567,
				"z": -0.9482922462,
				"element": "H" 
			},
			{
				"x": -3.5553459748,
				"y": 1.1813189066,
				"z": 0.0381166647,
				"element": "H" 
			},
			{
				"x": -5.0764245311,
				"y": 2.510827619,
				"z": -1.4253727455,
				"element": "H" 
			},
			{
				"x": -2.0625770339,
				"y": 2.5823930289,
				"z": -4.4919244849,
				"element": "H" 
			},
			{
				"x": -0.5481878224,
				"y": 1.2515138214,
				"z": -3.0158059925,
				"element": "H" 
			},
			{
				"x": -2.692515904,
				"y": -0.8203351362,
				"z": 2.7511540795,
				"element": "H" 
			},
			{
				"x": -2.0168124652,
				"y": -1.7342518543,
				"z": 4.0319760018,
				"element": "H" 
			}
		],
		 "valence_orbital": [ 
			{
				"type": "occ",
				"energy": -0.26679,
				"method": "rhf"
			},
			{
				"type": "occ",
				"energy": -0.2657,
				"method": "rhf"
			},
			{
				"type": "occ",
				"energy": -0.24234,
				"method": "rhf"
			},
			{
				"type": "occ",
				"energy": -0.22103,
				"method": "rhf"
			},
			{
				"type": "occ",
				"energy": -0.2138,
				"method": "rhf"
			},
			{
				"type": "unocc",
				"energy": -0.083,
				"method": "rhf"
			},
			{
				"type": "unocc",
				"energy": -0.04251,
				"method": "rhf"
			},
			{
				"type": "unocc",
				"energy": -0.01574,
				"method": "rhf"
			},
			{
				"type": "unocc",
				"energy": 0.00377,
				"method": "rhf"
			},
			{
				"type": "unocc",
				"energy": 0.02282,
				"method": "rhf"
			}
		],
		"cosmo_sigma_profile": { 
			"-0.025": 0.0,
			"-0.024": 0.0,
			"-0.023": 0.0,
			"-0.022": 0.0,
			"-0.021": 0.0,
			"-0.02": 0.0,
			"-0.019": 0.0,
			"-0.018": 0.0,
			"-0.017": 0.0,
			"-0.016": 0.0,
			"-0.015": 0.0154274649027,
			"-0.014": 0.859542248978,
			"-0.013": 2.11728888827,
			"-0.012": 1.84289820406,
			"-0.011": 2.23319415569,
			"-0.01": 3.14609522585,
			"-0.009": 2.47518520248,
			"-0.008": 4.43140914307,
			"-0.007": 11.3017149484,
			"-0.006": 14.6879540647,
			"-0.005": 19.3684142033,
			"-0.004": 17.1462703582,
			"-0.003": 20.769494668,
			"-0.002": 28.728706899,
			"-0.001": 20.8159099734,
			"0.0": 20.8067124886,
			"0.001": 26.3554499357,
			"0.002": 33.1657784436,
			"0.003": 29.5388126325,
			"0.004": 18.3258381965,
			"0.005": 10.0299144052,
			"0.006": 3.56620743741,
			"0.007": 3.24381824055,
			"0.008": 4.24044663436,
			"0.009": 3.06226930779,
			"0.01": 2.85596032894,
			"0.011": 3.10291104995,
			"0.012": 3.83925001726,
			"0.013": 6.77292363422,
			"0.014": 2.85608646297,
			"0.015": 0.0923803410207,
			"0.016": 0.0,
			"0.017": 0.0,
			"0.018": 0.0,
			"0.019": 0.0,
			"0.02": 0.0,
			"0.021": 0.0,
			"0.022": 0.0,
			"0.023": 0.0,
			"0.024": 0.0,
			"0.025": 0.0
		}
	}
}
