{
	 "smiles": "CCOC(=O)C1=C(N)C2=C(O1)C=CC=C2", 
	 "Tm": 352.15, 
	 "num_atms": 26, 
	 "gaussian": { 
		 "optdone": 1, 
		 "sigma_profile": "yes", 
		 "theory": "DFT", 
		 "functional": "B3LYP", 
		 "basiset": "6-31G**", 
		 "properties": { 
			 "R2extent": 3835.3084, 
			 "electric_dipole_moment_norm": 1.695885344, 
			 "electric_quadrupole_moment_norm": 10.6840936869, 
			 "total_energy": -706.23755442, 
			 "HOMO_LUMO_gap": 0.15714, 
			 "cosmo_polarized_energy": -11.63, 
			 "cosmo_cavitation_energy": 30.36, 
			 "cosmo_dispersion_energy": -22.53, 
			 "cosmo_repulsion_energy": 1.77, 
			 "cosmo_total_nonelectrostatic_energy": 9.6, 
			 "SMD_solvation_energy": 6.29 
		},
		"coords": [
			{
				"x": -3.4398085423,
				"y": 2.4489398965,
				"z": 2.2617005678,
				"element": "C" 
			},
			{
				"x": -3.6677743115,
				"y": 1.6183448671,
				"z": 1.0071975703,
				"element": "C" 
			},
			{
				"x": -2.4169469674,
				"y": 1.2713940999,
				"z": 0.3700292945,
				"element": "O" 
			},
			{
				"x": -1.7955658622,
				"y": 0.1675840274,
				"z": 0.8329728089,
				"element": "C" 
			},
			{
				"x": -2.2306835678,
				"y": -0.541572874,
				"z": 1.7405506472,
				"element": "O" 
			},
			{
				"x": -0.5474365581,
				"y": -0.1222986014,
				"z": 0.1689027704,
				"element": "C" 
			},
			{
				"x": 0.3125730897,
				"y": -1.1679785505,
				"z": 0.4482496687,
				"element": "C" 
			},
			{
				"x": 0.0987016539,
				"y": -2.1861674866,
				"z": 1.3371306764,
				"element": "N" 
			},
			{
				"x": 1.4406905093,
				"y": -0.9951126358,
				"z": -0.4370332376,
				"element": "C" 
			},
			{
				"x": 1.1536196524,
				"y": 0.1631925878,
				"z": -1.186508204,
				"element": "C" 
			},
			{
				"x": -0.0440480736,
				"y": 0.6973648025,
				"z": -0.8385344902,
				"element": "O" 
			},
			{
				"x": 2.0157357957,
				"y": 0.6637868757,
				"z": -2.1592705195,
				"element": "C" 
			},
			{
				"x": 3.1996982507,
				"y": -0.0386002367,
				"z": -2.36871223,
				"element": "C" 
			},
			{
				"x": 3.5083439028,
				"y": -1.2022451899,
				"z": -1.6347704277,
				"element": "C" 
			},
			{
				"x": 2.6371464734,
				"y": -1.6915652529,
				"z": -0.6685812948,
				"element": "C" 
			},
			{
				"x": -2.9156635143,
				"y": 1.8615460416,
				"z": 3.0194808502,
				"element": "H" 
			},
			{
				"x": -2.8507191542,
				"y": 3.3424027871,
				"z": 2.0348640626,
				"element": "H" 
			},
			{
				"x": -4.4019382704,
				"y": 2.7669117137,
				"z": 2.6775212009,
				"element": "H" 
			},
			{
				"x": -4.216021087,
				"y": 0.7015424139,
				"z": 1.236835224,
				"element": "H" 
			},
			{
				"x": -4.2095918966,
				"y": 2.1846493609,
				"z": 0.2458418322,
				"element": "H" 
			},
			{
				"x": 0.9127878041,
				"y": -2.6206319838,
				"z": 1.7449349849,
				"element": "H" 
			},
			{
				"x": -0.6869776898,
				"y": -2.0295662322,
				"z": 1.9591251553,
				"element": "H" 
			},
			{
				"x": 1.7665399707,
				"y": 1.5576139804,
				"z": -2.7203868785,
				"element": "H" 
			},
			{
				"x": 3.9012246893,
				"y": 0.3173895267,
				"z": -3.1172920523,
				"element": "H" 
			},
			{
				"x": 4.4395960789,
				"y": -1.723723231,
				"z": -1.8331952514,
				"element": "H" 
			},
			{
				"x": 2.8759176241,
				"y": -2.5953007062,
				"z": -0.1150527282,
				"element": "H" 
			}
		],
		 "valence_orbital": [ 
			{
				"type": "occ",
				"energy": -0.29034,
				"method": "rhf"
			},
			{
				"type": "occ",
				"energy": -0.27242,
				"method": "rhf"
			},
			{
				"type": "occ",
				"energy": -0.26312,
				"method": "rhf"
			},
			{
				"type": "occ",
				"energy": -0.23984,
				"method": "rhf"
			},
			{
				"type": "occ",
				"energy": -0.20204,
				"method": "rhf"
			},
			{
				"type": "unocc",
				"energy": -0.0449,
				"method": "rhf"
			},
			{
				"type": "unocc",
				"energy": 0.00566,
				"method": "rhf"
			},
			{
				"type": "unocc",
				"energy": 0.02909,
				"method": "rhf"
			},
			{
				"type": "unocc",
				"energy": 0.07499,
				"method": "rhf"
			},
			{
				"type": "unocc",
				"energy": 0.09979,
				"method": "rhf"
			}
		],
		"cosmo_sigma_profile": { 
			"-0.025": 0.0,
			"-0.024": 0.0,
			"-0.023": 0.0,
			"-0.022": 0.0,
			"-0.021": 0.0,
			"-0.02": 0.0,
			"-0.019": 0.0,
			"-0.018": 0.0,
			"-0.017": 0.0,
			"-0.016": 0.0,
			"-0.015": 0.0,
			"-0.014": 0.522647773491,
			"-0.013": 1.32470966643,
			"-0.012": 1.38525893766,
			"-0.011": 1.47674739403,
			"-0.01": 2.33824233613,
			"-0.009": 2.83369228361,
			"-0.008": 2.92188450912,
			"-0.007": 4.79825286502,
			"-0.006": 9.52093670774,
			"-0.005": 13.9065541604,
			"-0.004": 18.3108547363,
			"-0.003": 18.9032224109,
			"-0.002": 16.5836949118,
			"-0.001": 17.1803389009,
			"0.0": 20.3260145703,
			"0.001": 21.5699769582,
			"0.002": 19.16876178,
			"0.003": 14.7351065993,
			"0.004": 16.0425613958,
			"0.005": 9.32030999966,
			"0.006": 5.18647400159,
			"0.007": 3.94353835479,
			"0.008": 3.61575714381,
			"0.009": 4.56986322723,
			"0.01": 4.93117247135,
			"0.011": 3.51077384177,
			"0.012": 2.49425767918,
			"0.013": 0.503137551474,
			"0.014": 0.0,
			"0.015": 0.0,
			"0.016": 0.0,
			"0.017": 0.0,
			"0.018": 0.0,
			"0.019": 0.0,
			"0.02": 0.0,
			"0.021": 0.0,
			"0.022": 0.0,
			"0.023": 0.0,
			"0.024": 0.0,
			"0.025": 0.0
		}
	}
}
