{
	 "smiles": "CC1=C(SC(=N1)C1=CC=C(C=C1)C(F)(F)F)S(Cl)(=O)=O", 
	 "Tm": 366.65, 
	 "num_atms": 27, 
	 "gaussian": { 
		 "optdone": 1, 
		 "sigma_profile": "yes", 
		 "theory": "DFT", 
		 "functional": "B3LYP", 
		 "basiset": "6-31G**", 
		 "properties": { 
			 "R2extent": 11779.8428, 
			 "electric_dipole_moment_norm": 3.11572940096, 
			 "electric_quadrupole_moment_norm": 30.1723777051, 
			 "total_energy": -2184.61243862, 
			 "HOMO_LUMO_gap": 0.15005, 
			 "cosmo_polarized_energy": -9.96, 
			 "cosmo_cavitation_energy": 38.72, 
			 "cosmo_dispersion_energy": -28.23, 
			 "cosmo_repulsion_energy": 2.0, 
			 "cosmo_total_nonelectrostatic_energy": 12.49, 
			 "SMD_solvation_energy": 4.87 
		},
		"coords": [
			{
				"x": 3.6549279158,
				"y": -1.7739990748,
				"z": 0.7511694236,
				"element": "C" 
			},
			{
				"x": 2.2051104841,
				"y": -1.8421573724,
				"z": 0.3756883836,
				"element": "C" 
			},
			{
				"x": 1.4682822996,
				"y": -2.9761553412,
				"z": 0.081159281,
				"element": "C" 
			},
			{
				"x": -0.1798847422,
				"y": -2.5858398909,
				"z": -0.3167862051,
				"element": "S" 
			},
			{
				"x": 0.2239729368,
				"y": -0.900507052,
				"z": -0.0462160079,
				"element": "C" 
			},
			{
				"x": 1.4745492253,
				"y": -0.6904345389,
				"z": 0.3040509015,
				"element": "N" 
			},
			{
				"x": -0.7622699161,
				"y": 0.1778139812,
				"z": -0.1857193248,
				"element": "C" 
			},
			{
				"x": -2.0791392918,
				"y": -0.0659004185,
				"z": -0.6085370673,
				"element": "C" 
			},
			{
				"x": -2.9865636959,
				"y": 0.9806108467,
				"z": -0.7293119121,
				"element": "C" 
			},
			{
				"x": -2.5882780494,
				"y": 2.2861212895,
				"z": -0.4293694814,
				"element": "C" 
			},
			{
				"x": -1.2796824386,
				"y": 2.5403743333,
				"z": -0.007309711,
				"element": "C" 
			},
			{
				"x": -0.3722784094,
				"y": 1.4950793077,
				"z": 0.1149682797,
				"element": "C" 
			},
			{
				"x": -3.5527203573,
				"y": 3.4287615966,
				"z": -0.6152892794,
				"element": "C" 
			},
			{
				"x": -3.4597134459,
				"y": 3.9533040891,
				"z": -1.8580286917,
				"element": "F" 
			},
			{
				"x": -4.8331853674,
				"y": 3.035614753,
				"z": -0.4459761757,
				"element": "F" 
			},
			{
				"x": -3.3120448372,
				"y": 4.4314309172,
				"z": 0.2561269036,
				"element": "F" 
			},
			{
				"x": 2.0230857511,
				"y": -4.636626536,
				"z": 0.0487021525,
				"element": "S" 
			},
			{
				"x": 2.8916774065,
				"y": -4.7847301603,
				"z": -1.8979563497,
				"element": "Cl" 
			},
			{
				"x": 0.8608613015,
				"y": -5.5149285587,
				"z": 0.0398385512,
				"element": "O" 
			},
			{
				"x": 3.1291588985,
				"y": -4.7986301012,
				"z": 0.982504368,
				"element": "O" 
			},
			{
				"x": 4.2746588544,
				"y": -2.3653318989,
				"z": 0.0723617594,
				"element": "H" 
			},
			{
				"x": 3.8132045337,
				"y": -2.1733222068,
				"z": 1.7576110506,
				"element": "H" 
			},
			{
				"x": 3.9772690089,
				"y": -0.732447267,
				"z": 0.7258910124,
				"element": "H" 
			},
			{
				"x": -2.404291675,
				"y": -1.0746874557,
				"z": -0.8464590766,
				"element": "H" 
			},
			{
				"x": -4.0040156868,
				"y": 0.7857852971,
				"z": -1.049089662,
				"element": "H" 
			},
			{
				"x": -0.9778743128,
				"y": 3.5538510096,
				"z": 0.2332797646,
				"element": "H" 
			},
			{
				"x": 0.6438836096,
				"y": 1.6767504524,
				"z": 0.444797113,
				"element": "H" 
			}
		],
		 "valence_orbital": [ 
			{
				"type": "occ",
				"energy": -0.31978,
				"method": "rhf"
			},
			{
				"type": "occ",
				"energy": -0.31062,
				"method": "rhf"
			},
			{
				"type": "occ",
				"energy": -0.30606,
				"method": "rhf"
			},
			{
				"type": "occ",
				"energy": -0.28939,
				"method": "rhf"
			},
			{
				"type": "occ",
				"energy": -0.26121,
				"method": "rhf"
			},
			{
				"type": "unocc",
				"energy": -0.11116,
				"method": "rhf"
			},
			{
				"type": "unocc",
				"energy": -0.07929,
				"method": "rhf"
			},
			{
				"type": "unocc",
				"energy": -0.03979,
				"method": "rhf"
			},
			{
				"type": "unocc",
				"energy": -0.02925,
				"method": "rhf"
			},
			{
				"type": "unocc",
				"energy": -0.0203,
				"method": "rhf"
			}
		],
		"cosmo_sigma_profile": { 
			"-0.025": 0.0,
			"-0.024": 0.0,
			"-0.023": 0.0,
			"-0.022": 0.0,
			"-0.021": 0.0,
			"-0.02": 0.0,
			"-0.019": 0.0,
			"-0.018": 0.0,
			"-0.017": 0.0,
			"-0.016": 0.0,
			"-0.015": 0.0,
			"-0.014": 0.0,
			"-0.013": 0.0,
			"-0.012": 0.0,
			"-0.011": 0.0,
			"-0.01": 0.0237226058977,
			"-0.009": 1.32321541148,
			"-0.008": 4.03207627905,
			"-0.007": 8.01239471014,
			"-0.006": 11.8997543073,
			"-0.005": 14.3159672756,
			"-0.004": 19.4249345394,
			"-0.003": 23.8777632988,
			"-0.002": 28.9142979543,
			"-0.001": 25.7290828136,
			"0.0": 30.7621965259,
			"0.001": 32.5423541712,
			"0.002": 38.2468596444,
			"0.003": 37.373057381,
			"0.004": 9.41938246266,
			"0.005": 5.05520964471,
			"0.006": 4.47516358126,
			"0.007": 8.94749361765,
			"0.008": 9.69184756558,
			"0.009": 2.52681908211,
			"0.01": 0.0,
			"0.011": 0.0,
			"0.012": 0.0,
			"0.013": 0.0,
			"0.014": 0.0,
			"0.015": 0.0,
			"0.016": 0.0,
			"0.017": 0.0,
			"0.018": 0.0,
			"0.019": 0.0,
			"0.02": 0.0,
			"0.021": 0.0,
			"0.022": 0.0,
			"0.023": 0.0,
			"0.024": 0.0,
			"0.025": 0.0
		}
	}
}
