{
	 "smiles": "CC1=CSC2=C1C=C(Cl)C=C2", 
	 "Tm": 308.15, 
	 "num_atms": 18, 
	 "gaussian": { 
		 "optdone": 1, 
		 "sigma_profile": "yes", 
		 "theory": "DFT", 
		 "functional": "B3LYP", 
		 "basiset": "6-31G**", 
		 "properties": { 
			 "R2extent": 2708.3155, 
			 "electric_dipole_moment_norm": 1.86316431106, 
			 "electric_quadrupole_moment_norm": 9.35267077952, 
			 "total_energy": -1205.56592457, 
			 "HOMO_LUMO_gap": 0.18757, 
			 "cosmo_polarized_energy": -4.95, 
			 "cosmo_cavitation_energy": 25.04, 
			 "cosmo_dispersion_energy": -19.24, 
			 "cosmo_repulsion_energy": 1.48, 
			 "cosmo_total_nonelectrostatic_energy": 7.28, 
			 "SMD_solvation_energy": 3.64 
		},
		"coords": [
			{
				"x": 1.8379195954,
				"y": 1.1339495581,
				"z": 2.2909603731,
				"element": "C" 
			},
			{
				"x": 0.8097398232,
				"y": 1.0241782114,
				"z": 1.2009026394,
				"element": "C" 
			},
			{
				"x": -0.0885046265,
				"y": 1.9933349804,
				"z": 0.8764193774,
				"element": "C" 
			},
			{
				"x": -1.159796127,
				"y": 1.5691073366,
				"z": -0.441893438,
				"element": "S" 
			},
			{
				"x": -0.3842906227,
				"y": 0.0022567375,
				"z": -0.5921372109,
				"element": "C" 
			},
			{
				"x": 0.6555007124,
				"y": -0.1447114121,
				"z": 0.3580969815,
				"element": "C" 
			},
			{
				"x": 1.3919303512,
				"y": -1.342993938,
				"z": 0.3861376169,
				"element": "C" 
			},
			{
				"x": 1.0734283703,
				"y": -2.3423361257,
				"z": -0.520586622,
				"element": "C" 
			},
			{
				"x": 1.986590034,
				"y": -3.8477735842,
				"z": -0.4973881096,
				"element": "Cl" 
			},
			{
				"x": 0.0415922423,
				"y": -2.1947184072,
				"z": -1.4625262047,
				"element": "C" 
			},
			{
				"x": -0.6929244576,
				"y": -1.0152366255,
				"z": -1.4996967596,
				"element": "C" 
			},
			{
				"x": 2.853982903,
				"y": 1.0290871559,
				"z": 1.8920667014,
				"element": "H" 
			},
			{
				"x": 1.7751624117,
				"y": 2.0998545651,
				"z": 2.7982067265,
				"element": "H" 
			},
			{
				"x": 1.704325885,
				"y": 0.3489687706,
				"z": 3.0449197626,
				"element": "H" 
			},
			{
				"x": -0.1936199279,
				"y": 2.963927319,
				"z": 1.3437020939,
				"element": "H" 
			},
			{
				"x": 2.1942565344,
				"y": -1.4873362265,
				"z": 1.1011658805,
				"element": "H" 
			},
			{
				"x": -0.1745119071,
				"y": -3.0013967809,
				"z": -2.1535832086,
				"element": "H" 
			},
			{
				"x": -1.491581194,
				"y": -0.8945615347,
				"z": -2.2249665998,
				"element": "H" 
			}
		],
		 "valence_orbital": [ 
			{
				"type": "occ",
				"energy": -0.31101,
				"method": "rhf"
			},
			{
				"type": "occ",
				"energy": -0.31066,
				"method": "rhf"
			},
			{
				"type": "occ",
				"energy": -0.2841,
				"method": "rhf"
			},
			{
				"type": "occ",
				"energy": -0.23648,
				"method": "rhf"
			},
			{
				"type": "occ",
				"energy": -0.22091,
				"method": "rhf"
			},
			{
				"type": "unocc",
				"energy": -0.03334,
				"method": "rhf"
			},
			{
				"type": "unocc",
				"energy": -0.01158,
				"method": "rhf"
			},
			{
				"type": "unocc",
				"energy": 0.01478,
				"method": "rhf"
			},
			{
				"type": "unocc",
				"energy": 0.03632,
				"method": "rhf"
			},
			{
				"type": "unocc",
				"energy": 0.04093,
				"method": "rhf"
			}
		],
		"cosmo_sigma_profile": { 
			"-0.025": 0.0,
			"-0.024": 0.0,
			"-0.023": 0.0,
			"-0.022": 0.0,
			"-0.021": 0.0,
			"-0.02": 0.0,
			"-0.019": 0.0,
			"-0.018": 0.0,
			"-0.017": 0.0,
			"-0.016": 0.0,
			"-0.015": 0.0,
			"-0.014": 0.0,
			"-0.013": 0.0,
			"-0.012": 0.0,
			"-0.011": 0.0,
			"-0.01": 0.0,
			"-0.009": 0.292666380892,
			"-0.008": 2.72605342872,
			"-0.007": 7.22529192212,
			"-0.006": 8.23609594404,
			"-0.005": 11.3923141343,
			"-0.004": 14.9362262666,
			"-0.003": 12.4432099765,
			"-0.002": 12.3335387462,
			"-0.001": 14.6047392937,
			"0.0": 16.1876098461,
			"0.001": 14.7698994577,
			"0.002": 23.1210137652,
			"0.003": 30.2430929594,
			"0.004": 22.4863903872,
			"0.005": 13.1324756497,
			"0.006": 1.18296816785,
			"0.007": 0.0,
			"0.008": 0.0,
			"0.009": 0.0,
			"0.01": 0.0,
			"0.011": 0.0,
			"0.012": 0.0,
			"0.013": 0.0,
			"0.014": 0.0,
			"0.015": 0.0,
			"0.016": 0.0,
			"0.017": 0.0,
			"0.018": 0.0,
			"0.019": 0.0,
			"0.02": 0.0,
			"0.021": 0.0,
			"0.022": 0.0,
			"0.023": 0.0,
			"0.024": 0.0,
			"0.025": 0.0
		}
	}
}
