{
	 "smiles": "CCNC(=O)C1=CC(C)=C(NC2CCOCC2)C=C1", 
	 "Tm": 469.15, 
	 "num_atms": 41, 
	 "gaussian": { 
		 "optdone": 1, 
		 "sigma_profile": "yes", 
		 "theory": "DFT", 
		 "functional": "B3LYP", 
		 "basiset": "6-31G**", 
		 "properties": { 
			 "R2extent": 8698.834, 
			 "electric_dipole_moment_norm": 4.09521777077, 
			 "electric_quadrupole_moment_norm": 23.6566592747, 
			 "total_energy": -844.81674086, 
			 "HOMO_LUMO_gap": 0.18439, 
			 "cosmo_polarized_energy": -18.62, 
			 "cosmo_cavitation_energy": 41.8, 
			 "cosmo_dispersion_energy": -29.4, 
			 "cosmo_repulsion_energy": 2.31, 
			 "cosmo_total_nonelectrostatic_energy": 14.71, 
			 "SMD_solvation_energy": 5.93 
		},
		"coords": [
			{
				"x": 3.1953921108,
				"y": -4.0032095355,
				"z": 1.4956713545,
				"element": "C" 
			},
			{
				"x": 3.2128808331,
				"y": -2.6711836767,
				"z": 0.738565107,
				"element": "C" 
			},
			{
				"x": 3.7920300626,
				"y": -1.5823081537,
				"z": 1.5259504443,
				"element": "N" 
			},
			{
				"x": 3.1088942212,
				"y": -0.6257462841,
				"z": 2.2588785983,
				"element": "C" 
			},
			{
				"x": 3.5882331009,
				"y": -0.1893880346,
				"z": 3.303526894,
				"element": "O" 
			},
			{
				"x": 1.819262483,
				"y": -0.0967486714,
				"z": 1.7196347105,
				"element": "C" 
			},
			{
				"x": 1.5535570783,
				"y": 0.0670698964,
				"z": 0.3509754642,
				"element": "C" 
			},
			{
				"x": 0.3728598106,
				"y": 0.6386425966,
				"z": -0.1163653738,
				"element": "C" 
			},
			{
				"x": 0.1435993737,
				"y": 0.8323659479,
				"z": -1.5955396402,
				"element": "C" 
			},
			{
				"x": -0.6064326555,
				"y": 1.0618736575,
				"z": 0.8230811314,
				"element": "C" 
			},
			{
				"x": -1.7672076898,
				"y": 1.6675180906,
				"z": 0.3599791842,
				"element": "N" 
			},
			{
				"x": -2.9472017569,
				"y": 1.9141654186,
				"z": 1.1833375208,
				"element": "C" 
			},
			{
				"x": -3.9188614574,
				"y": 2.8716496956,
				"z": 0.4438148326,
				"element": "C" 
			},
			{
				"x": -5.0919532224,
				"y": 2.1147515274,
				"z": -0.1778506488,
				"element": "C" 
			},
			{
				"x": -5.8852380251,
				"y": 1.4471585032,
				"z": 0.798780907,
				"element": "O" 
			},
			{
				"x": -5.1621936454,
				"y": 0.9187252736,
				"z": 1.9133703112,
				"element": "C" 
			},
			{
				"x": -3.7024537314,
				"y": 0.6171979704,
				"z": 1.5822249804,
				"element": "C" 
			},
			{
				"x": -0.3358151953,
				"y": 0.9116108175,
				"z": 2.1982538146,
				"element": "C" 
			},
			{
				"x": 0.8627039892,
				"y": 0.3614390315,
				"z": 2.6325352088,
				"element": "C" 
			},
			{
				"x": 2.7840218434,
				"y": -4.7988822534,
				"z": 0.8651663143,
				"element": "H" 
			},
			{
				"x": 2.585368817,
				"y": -3.9297014439,
				"z": 2.4012735888,
				"element": "H" 
			},
			{
				"x": 4.2065927774,
				"y": -4.3037654539,
				"z": 1.7926502989,
				"element": "H" 
			},
			{
				"x": 3.7795199554,
				"y": -2.782158109,
				"z": -0.1955358722,
				"element": "H" 
			},
			{
				"x": 2.1960368007,
				"y": -2.3900274626,
				"z": 0.4621031577,
				"element": "H" 
			},
			{
				"x": 4.6597667838,
				"y": -1.8162435955,
				"z": 1.9969970581,
				"element": "H" 
			},
			{
				"x": 2.3058622064,
				"y": -0.2250843051,
				"z": -0.3767286875,
				"element": "H" 
			},
			{
				"x": -0.0411651545,
				"y": 1.8857879375,
				"z": -1.8429848623,
				"element": "H" 
			},
			{
				"x": -0.7200471423,
				"y": 0.2582722814,
				"z": -1.962253785,
				"element": "H" 
			},
			{
				"x": 1.012571399,
				"y": 0.5043191163,
				"z": -2.1710312112,
				"element": "H" 
			},
			{
				"x": -1.9784536312,
				"y": 1.4851186764,
				"z": -0.6111574058,
				"element": "H" 
			},
			{
				"x": -2.605465655,
				"y": 2.4200733,
				"z": 2.0923837649,
				"element": "H" 
			},
			{
				"x": -4.3193730207,
				"y": 3.6057775079,
				"z": 1.1508776941,
				"element": "H" 
			},
			{
				"x": -3.3738019844,
				"y": 3.4359474875,
				"z": -0.3207778407,
				"element": "H" 
			},
			{
				"x": -5.7655464776,
				"y": 2.8024523511,
				"z": -0.699266404,
				"element": "H" 
			},
			{
				"x": -4.7239714463,
				"y": 1.3949085031,
				"z": -0.9294670464,
				"element": "H" 
			},
			{
				"x": -5.6881643484,
				"y": 0.0086997927,
				"z": 2.2214268851,
				"element": "H" 
			},
			{
				"x": -5.2138971865,
				"y": 1.6252479556,
				"z": 2.7586293133,
				"element": "H" 
			},
			{
				"x": -3.6636079707,
				"y": -0.0915763958,
				"z": 0.7460479609,
				"element": "H" 
			},
			{
				"x": -3.2154015672,
				"y": 0.126397414,
				"z": 2.4305189642,
				"element": "H" 
			},
			{
				"x": -1.061569951,
				"y": 1.2384646624,
				"z": 2.9341851802,
				"element": "H" 
			},
			{
				"x": 1.075269268,
				"y": 0.2781879623,
				"z": 3.6933181336,
				"element": "H" 
			}
		],
		 "valence_orbital": [ 
			{
				"type": "occ",
				"energy": -0.24887,
				"method": "rhf"
			},
			{
				"type": "occ",
				"energy": -0.24704,
				"method": "rhf"
			},
			{
				"type": "occ",
				"energy": -0.24378,
				"method": "rhf"
			},
			{
				"type": "occ",
				"energy": -0.22843,
				"method": "rhf"
			},
			{
				"type": "occ",
				"energy": -0.19756,
				"method": "rhf"
			},
			{
				"type": "unocc",
				"energy": -0.01317,
				"method": "rhf"
			},
			{
				"type": "unocc",
				"energy": 0.00222,
				"method": "rhf"
			},
			{
				"type": "unocc",
				"energy": 0.06182,
				"method": "rhf"
			},
			{
				"type": "unocc",
				"energy": 0.06751,
				"method": "rhf"
			},
			{
				"type": "unocc",
				"energy": 0.07533,
				"method": "rhf"
			}
		],
		"cosmo_sigma_profile": { 
			"-0.025": 0.0,
			"-0.024": 0.0,
			"-0.023": 0.0,
			"-0.022": 0.0,
			"-0.021": 0.0,
			"-0.02": 0.0,
			"-0.019": 0.0,
			"-0.018": 0.0,
			"-0.017": 0.0,
			"-0.016": 0.0,
			"-0.015": 0.0,
			"-0.014": 0.0,
			"-0.013": 0.0,
			"-0.012": 0.435418986346,
			"-0.011": 1.75394312614,
			"-0.01": 1.95840073263,
			"-0.009": 3.31781225254,
			"-0.008": 3.48111567456,
			"-0.007": 3.69852063226,
			"-0.006": 5.56242679721,
			"-0.005": 14.6499018348,
			"-0.004": 36.8231234141,
			"-0.003": 44.3903481759,
			"-0.002": 42.4566469899,
			"-0.001": 31.2715320444,
			"0.0": 28.1054892221,
			"0.001": 19.3570324866,
			"0.002": 10.6255622656,
			"0.003": 10.99484129,
			"0.004": 10.4513319941,
			"0.005": 11.5843792678,
			"0.006": 10.6421805242,
			"0.007": 4.97647746798,
			"0.008": 3.40081407808,
			"0.009": 3.19984399356,
			"0.01": 2.93493112208,
			"0.011": 2.37493995029,
			"0.012": 3.59562475064,
			"0.013": 3.61077253336,
			"0.014": 7.17342868755,
			"0.015": 3.44695241483,
			"0.016": 0.0818240193101,
			"0.017": 0.0,
			"0.018": 0.0,
			"0.019": 0.0,
			"0.02": 0.0,
			"0.021": 0.0,
			"0.022": 0.0,
			"0.023": 0.0,
			"0.024": 0.0,
			"0.025": 0.0
		}
	}
}
