{
	 "smiles": "CC1=CC(O)=NC(O)=C1", 
	 "Tm": 470.15, 
	 "num_atms": 16, 
	 "gaussian": { 
		 "optdone": 1, 
		 "sigma_profile": "yes", 
		 "theory": "DFT", 
		 "functional": "B3LYP", 
		 "basiset": "6-31G**", 
		 "properties": { 
			 "R2extent": 1259.4658, 
			 "electric_dipole_moment_norm": 0.0883645856664, 
			 "electric_quadrupole_moment_norm": 8.67396484948, 
			 "total_energy": -438.074929849, 
			 "HOMO_LUMO_gap": 0.20762, 
			 "cosmo_polarized_energy": -8.73, 
			 "cosmo_cavitation_energy": 20.14, 
			 "cosmo_dispersion_energy": -15.28, 
			 "cosmo_repulsion_energy": 1.27, 
			 "cosmo_total_nonelectrostatic_energy": 6.12, 
			 "SMD_solvation_energy": 3.25 
		},
		"coords": [
			{
				"x": 0.1888595909,
				"y": -2.1045349218,
				"z": 2.4717651808,
				"element": "C" 
			},
			{
				"x": -0.0130133454,
				"y": -1.025935645,
				"z": 1.4365170405,
				"element": "C" 
			},
			{
				"x": 0.1587891773,
				"y": -1.3027889329,
				"z": 0.0763558028,
				"element": "C" 
			},
			{
				"x": -0.0110080522,
				"y": -0.2561013308,
				"z": -0.8315503219,
				"element": "C" 
			},
			{
				"x": 0.1493236409,
				"y": -0.5014040537,
				"z": -2.1527806407,
				"element": "O" 
			},
			{
				"x": -0.330124431,
				"y": 0.9925145052,
				"z": -0.4832097047,
				"element": "N" 
			},
			{
				"x": -0.491759846,
				"y": 1.2381893606,
				"z": 0.8190040647,
				"element": "C" 
			},
			{
				"x": -0.8176582024,
				"y": 2.5046112516,
				"z": 1.1675573433,
				"element": "O" 
			},
			{
				"x": -0.3491989471,
				"y": 0.2762598063,
				"z": 1.8205301951,
				"element": "C" 
			},
			{
				"x": 1.2349340805,
				"y": -2.1310898844,
				"z": 2.8003128965,
				"element": "H" 
			},
			{
				"x": -0.4281003464,
				"y": -1.9284673368,
				"z": 3.3573215282,
				"element": "H" 
			},
			{
				"x": -0.053716612,
				"y": -3.0927619998,
				"z": 2.0712472341,
				"element": "H" 
			},
			{
				"x": 0.4139471097,
				"y": -2.2930154244,
				"z": -0.282268322,
				"element": "H" 
			},
			{
				"x": -0.0122624529,
				"y": 0.340777909,
				"z": -2.6052736971,
				"element": "H" 
			},
			{
				"x": -0.8699973119,
				"y": 3.0073653506,
				"z": 0.3401358258,
				"element": "H" 
			},
			{
				"x": -0.5006140523,
				"y": 0.5499813464,
				"z": 2.8580355746,
				"element": "H" 
			}
		],
		 "valence_orbital": [ 
			{
				"type": "occ",
				"energy": -0.36687,
				"method": "rhf"
			},
			{
				"type": "occ",
				"energy": -0.31001,
				"method": "rhf"
			},
			{
				"type": "occ",
				"energy": -0.2856,
				"method": "rhf"
			},
			{
				"type": "occ",
				"energy": -0.26719,
				"method": "rhf"
			},
			{
				"type": "occ",
				"energy": -0.21736,
				"method": "rhf"
			},
			{
				"type": "unocc",
				"energy": -0.00974,
				"method": "rhf"
			},
			{
				"type": "unocc",
				"energy": 0.01635,
				"method": "rhf"
			},
			{
				"type": "unocc",
				"energy": 0.0836,
				"method": "rhf"
			},
			{
				"type": "unocc",
				"energy": 0.09757,
				"method": "rhf"
			},
			{
				"type": "unocc",
				"energy": 0.10869,
				"method": "rhf"
			}
		],
		"cosmo_sigma_profile": { 
			"-0.025": 0.0,
			"-0.024": 0.0,
			"-0.023": 0.0,
			"-0.022": 0.0,
			"-0.021": 0.0,
			"-0.02": 0.0,
			"-0.019": 0.0,
			"-0.018": 0.0,
			"-0.017": 0.81719084256,
			"-0.016": 1.80335756469,
			"-0.015": 1.25203625073,
			"-0.014": 1.89196195889,
			"-0.013": 0.999684221564,
			"-0.012": 0.438790460738,
			"-0.011": 0.900463524727,
			"-0.01": 2.34445202142,
			"-0.009": 1.83114589297,
			"-0.008": 1.0323880437,
			"-0.007": 0.870765303486,
			"-0.006": 3.90336898209,
			"-0.005": 9.44141251949,
			"-0.004": 11.257358294,
			"-0.003": 9.66415993512,
			"-0.002": 9.66144484982,
			"-0.001": 13.8376681482,
			"0.0": 10.1171129561,
			"0.001": 10.780464727,
			"0.002": 12.7601366277,
			"0.003": 14.887653784,
			"0.004": 10.8605760134,
			"0.005": 5.29439100605,
			"0.006": 3.31161557921,
			"0.007": 4.13662323696,
			"0.008": 4.3172455217,
			"0.009": 3.57465762352,
			"0.01": 4.23668509921,
			"0.011": 3.18293342601,
			"0.012": 0.134896907928,
			"0.013": 0.0,
			"0.014": 0.0,
			"0.015": 0.0,
			"0.016": 0.0,
			"0.017": 0.0,
			"0.018": 0.0,
			"0.019": 0.0,
			"0.02": 0.0,
			"0.021": 0.0,
			"0.022": 0.0,
			"0.023": 0.0,
			"0.024": 0.0,
			"0.025": 0.0
		}
	}
}
