{
	 "smiles": "CCOC(=O)CCN(CC1=CC=CC=C1)SN(C)C(=O)ON=C(C)SC", 
	 "Tm": 320.15, 
	 "num_atms": 51, 
	 "gaussian": { 
		 "optdone": 1, 
		 "sigma_profile": "yes", 
		 "theory": "DFT", 
		 "functional": "B3LYP", 
		 "basiset": "6-31G**", 
		 "properties": { 
			 "R2extent": 14435.7949, 
			 "electric_dipole_moment_norm": 2.41395215156, 
			 "electric_quadrupole_moment_norm": 18.8694914354, 
			 "total_energy": -1924.34450416, 
			 "HOMO_LUMO_gap": 0.21832, 
			 "cosmo_polarized_energy": -20.22, 
			 "cosmo_cavitation_energy": 57.42, 
			 "cosmo_dispersion_energy": -36.8, 
			 "cosmo_repulsion_energy": 2.79, 
			 "cosmo_total_nonelectrostatic_energy": 23.41, 
			 "SMD_solvation_energy": 10.14 
		},
		"coords": [
			{
				"x": 6.2886284001,
				"y": -1.9815231339,
				"z": 0.2278731207,
				"element": "C" 
			},
			{
				"x": 5.0063456111,
				"y": -2.0493883836,
				"z": 1.0435707588,
				"element": "C" 
			},
			{
				"x": 4.1177796165,
				"y": -0.9510996868,
				"z": 0.7213240171,
				"element": "O" 
			},
			{
				"x": 3.3024657554,
				"y": -1.1246402476,
				"z": -0.34028911,
				"element": "C" 
			},
			{
				"x": 3.265051668,
				"y": -2.1330104757,
				"z": -1.0137734425,
				"element": "O" 
			},
			{
				"x": 2.4755158312,
				"y": 0.1233804481,
				"z": -0.5968178304,
				"element": "C" 
			},
			{
				"x": 1.0817396439,
				"y": -0.1872159882,
				"z": -1.1380821754,
				"element": "C" 
			},
			{
				"x": 0.2081927924,
				"y": -0.8865285017,
				"z": -0.1762637975,
				"element": "N" 
			},
			{
				"x": -0.9731243037,
				"y": -1.5204015623,
				"z": -0.7958731741,
				"element": "C" 
			},
			{
				"x": -0.6363837713,
				"y": -2.6729224236,
				"z": -1.7243512794,
				"element": "C" 
			},
			{
				"x": -1.3417172764,
				"y": -2.8280007975,
				"z": -2.9239114852,
				"element": "C" 
			},
			{
				"x": -1.102098894,
				"y": -3.9217618568,
				"z": -3.7576912297,
				"element": "C" 
			},
			{
				"x": -0.1409054679,
				"y": -4.8696175364,
				"z": -3.4045175698,
				"element": "C" 
			},
			{
				"x": 0.576084678,
				"y": -4.7159793668,
				"z": -2.2156909819,
				"element": "C" 
			},
			{
				"x": 0.3281649973,
				"y": -3.6282504401,
				"z": -1.3790338341,
				"element": "C" 
			},
			{
				"x": 0.0042373587,
				"y": -0.2423192135,
				"z": 1.3686303913,
				"element": "S" 
			},
			{
				"x": -0.9239825478,
				"y": 1.2445768639,
				"z": 1.2600180484,
				"element": "N" 
			},
			{
				"x": -0.2115451403,
				"y": 2.5306810003,
				"z": 1.3267938808,
				"element": "C" 
			},
			{
				"x": -2.2754051909,
				"y": 1.3102894109,
				"z": 1.5552936229,
				"element": "C" 
			},
			{
				"x": -2.8507935081,
				"y": 2.3211265803,
				"z": 1.9014890934,
				"element": "O" 
			},
			{
				"x": -2.9048464286,
				"y": 0.1186389122,
				"z": 1.3107344162,
				"element": "O" 
			},
			{
				"x": -4.0471292881,
				"y": -0.0639159995,
				"z": 2.1560758114,
				"element": "N" 
			},
			{
				"x": -5.1057000519,
				"y": -0.3842225269,
				"z": 1.5065437196,
				"element": "C" 
			},
			{
				"x": -6.2823339319,
				"y": -0.8142683608,
				"z": 2.3457258383,
				"element": "C" 
			},
			{
				"x": -5.4136480845,
				"y": -0.4261190802,
				"z": -0.2482329584,
				"element": "S" 
			},
			{
				"x": -4.4583176204,
				"y": 0.9852130285,
				"z": -0.926293694,
				"element": "C" 
			},
			{
				"x": 6.973352856,
				"y": -2.7750079769,
				"z": 0.5453238818,
				"element": "H" 
			},
			{
				"x": 6.0756449451,
				"y": -2.1190268597,
				"z": -0.835119303,
				"element": "H" 
			},
			{
				"x": 6.7901295704,
				"y": -1.0194256291,
				"z": 0.3685862065,
				"element": "H" 
			},
			{
				"x": 5.2033898172,
				"y": -1.9331260083,
				"z": 2.1118047047,
				"element": "H" 
			},
			{
				"x": 4.4784425119,
				"y": -2.9902249653,
				"z": 0.8712197701,
				"element": "H" 
			},
			{
				"x": 3.0111632334,
				"y": 0.711467248,
				"z": -1.3535571786,
				"element": "H" 
			},
			{
				"x": 2.4406236184,
				"y": 0.7259143121,
				"z": 0.3124316446,
				"element": "H" 
			},
			{
				"x": 1.1844110776,
				"y": -0.8503967668,
				"z": -2.0010902223,
				"element": "H" 
			},
			{
				"x": 0.6067784055,
				"y": 0.7434681388,
				"z": -1.4862584889,
				"element": "H" 
			},
			{
				"x": -1.5631889975,
				"y": -0.7726872908,
				"z": -1.3490993938,
				"element": "H" 
			},
			{
				"x": -1.6063258477,
				"y": -1.8698766576,
				"z": 0.0236431578,
				"element": "H" 
			},
			{
				"x": -2.0888376674,
				"y": -2.0891702497,
				"z": -3.2051329248,
				"element": "H" 
			},
			{
				"x": -1.6603281754,
				"y": -4.0280483802,
				"z": -4.6837098545,
				"element": "H" 
			},
			{
				"x": 0.0533535826,
				"y": -5.71861495,
				"z": -4.0538755913,
				"element": "H" 
			},
			{
				"x": 1.3341424291,
				"y": -5.4433455965,
				"z": -1.9396494837,
				"element": "H" 
			},
			{
				"x": 0.9000416927,
				"y": -3.5011446794,
				"z": -0.4664465343,
				"element": "H" 
			},
			{
				"x": -0.0580978875,
				"y": 2.8546212508,
				"z": 2.3617014516,
				"element": "H" 
			},
			{
				"x": -0.7966630673,
				"y": 3.2969852664,
				"z": 0.8144433498,
				"element": "H" 
			},
			{
				"x": 0.7560853311,
				"y": 2.4195804027,
				"z": 0.8382445774,
				"element": "H" 
			},
			{
				"x": -6.6318891904,
				"y": -1.8028702589,
				"z": 2.0277817966,
				"element": "H" 
			},
			{
				"x": -5.9860770952,
				"y": -0.8630524156,
				"z": 3.3948615539,
				"element": "H" 
			},
			{
				"x": -7.1143733541,
				"y": -0.1144992153,
				"z": 2.2260652801,
				"element": "H" 
			},
			{
				"x": -4.4548242901,
				"y": 1.8129850198,
				"z": -0.2165158654,
				"element": "H" 
			},
			{
				"x": -3.4372485718,
				"y": 0.696596699,
				"z": -1.1711401317,
				"element": "H" 
			},
			{
				"x": -4.9922797734,
				"y": 1.2820789002,
				"z": -1.8315625589,
				"element": "H" 
			}
		],
		 "valence_orbital": [ 
			{
				"type": "occ",
				"energy": -0.25159,
				"method": "rhf"
			},
			{
				"type": "occ",
				"energy": -0.24353,
				"method": "rhf"
			},
			{
				"type": "occ",
				"energy": -0.24288,
				"method": "rhf"
			},
			{
				"type": "occ",
				"energy": -0.2384,
				"method": "rhf"
			},
			{
				"type": "occ",
				"energy": -0.23613,
				"method": "rhf"
			},
			{
				"type": "unocc",
				"energy": -0.01781,
				"method": "rhf"
			},
			{
				"type": "unocc",
				"energy": -0.00186,
				"method": "rhf"
			},
			{
				"type": "unocc",
				"energy": 0.00303,
				"method": "rhf"
			},
			{
				"type": "unocc",
				"energy": 0.00856,
				"method": "rhf"
			},
			{
				"type": "unocc",
				"energy": 0.01288,
				"method": "rhf"
			}
		],
		"cosmo_sigma_profile": { 
			"-0.025": 0.0,
			"-0.024": 0.0,
			"-0.023": 0.0,
			"-0.022": 0.0,
			"-0.021": 0.0,
			"-0.02": 0.0,
			"-0.019": 0.0,
			"-0.018": 0.0,
			"-0.017": 0.0,
			"-0.016": 0.0,
			"-0.015": 0.0,
			"-0.014": 0.0,
			"-0.013": 0.0,
			"-0.012": 0.0,
			"-0.011": 0.0,
			"-0.01": 0.0,
			"-0.009": 0.0,
			"-0.008": 0.129220991661,
			"-0.007": 5.8963555316,
			"-0.006": 17.8382686541,
			"-0.005": 36.0427369106,
			"-0.004": 50.2619030119,
			"-0.003": 54.7126450938,
			"-0.002": 53.7548798164,
			"-0.001": 35.3994527906,
			"0.0": 32.050527667,
			"0.001": 24.9891180445,
			"0.002": 24.1754372942,
			"0.003": 21.701058199,
			"0.004": 21.5229398239,
			"0.005": 17.1100185505,
			"0.006": 17.3162462149,
			"0.007": 9.11643139375,
			"0.008": 7.49074813005,
			"0.009": 5.15007206275,
			"0.01": 4.97712985126,
			"0.011": 5.74900918498,
			"0.012": 8.92585998089,
			"0.013": 2.29889046906,
			"0.014": 0.169941638581,
			"0.015": 0.0,
			"0.016": 0.0,
			"0.017": 0.0,
			"0.018": 0.0,
			"0.019": 0.0,
			"0.02": 0.0,
			"0.021": 0.0,
			"0.022": 0.0,
			"0.023": 0.0,
			"0.024": 0.0,
			"0.025": 0.0
		}
	}
}
