{
	 "smiles": "COC1=C(OCC2=C(N)C=CC=C2)C=CC=C1", 
	 "Tm": 329.15, 
	 "num_atms": 32, 
	 "gaussian": { 
		 "optdone": 1, 
		 "sigma_profile": "yes", 
		 "theory": "DFT", 
		 "functional": "B3LYP", 
		 "basiset": "6-31G**", 
		 "properties": { 
			 "R2extent": 5212.4871, 
			 "electric_dipole_moment_norm": 1.51727421385, 
			 "electric_quadrupole_moment_norm": 7.10158864692, 
			 "total_energy": -747.706639614, 
			 "HOMO_LUMO_gap": 0.19595, 
			 "cosmo_polarized_energy": -10.04, 
			 "cosmo_cavitation_energy": 35.29, 
			 "cosmo_dispersion_energy": -24.66, 
			 "cosmo_repulsion_energy": 1.91, 
			 "cosmo_total_nonelectrostatic_energy": 12.53, 
			 "SMD_solvation_energy": 6.51 
		},
		"coords": [
			{
				"x": -0.6801791291,
				"y": 1.4148374385,
				"z": 3.4885284778,
				"element": "C" 
			},
			{
				"x": -1.5929339647,
				"y": 0.3824736068,
				"z": 3.0919503511,
				"element": "O" 
			},
			{
				"x": -2.3914605521,
				"y": 0.6857084895,
				"z": 2.012520705,
				"element": "C" 
			},
			{
				"x": -1.8588357766,
				"y": 0.8323321797,
				"z": 0.7165735144,
				"element": "C" 
			},
			{
				"x": -0.4980396221,
				"y": 0.7441912427,
				"z": 0.4985780907,
				"element": "O" 
			},
			{
				"x": 0.0473843222,
				"y": -0.6054894116,
				"z": 0.6050855721,
				"element": "C" 
			},
			{
				"x": 1.5454177264,
				"y": -0.5570491809,
				"z": 0.5089226996,
				"element": "C" 
			},
			{
				"x": 2.1733645064,
				"y": -0.0304366504,
				"z": -0.6456456624,
				"element": "C" 
			},
			{
				"x": 1.3973640662,
				"y": 0.4744464266,
				"z": -1.6885342321,
				"element": "N" 
			},
			{
				"x": 3.5742378835,
				"y": -0.0762971645,
				"z": -0.7376254547,
				"element": "C" 
			},
			{
				"x": 4.3389768444,
				"y": -0.6264526905,
				"z": 0.2881790039,
				"element": "C" 
			},
			{
				"x": 3.7265371622,
				"y": -1.1328705066,
				"z": 1.4356562461,
				"element": "C" 
			},
			{
				"x": 2.3352335266,
				"y": -1.0876310976,
				"z": 1.5321801304,
				"element": "C" 
			},
			{
				"x": -2.7112411274,
				"y": 1.1100238255,
				"z": -0.352877822,
				"element": "C" 
			},
			{
				"x": -4.0872328482,
				"y": 1.2312647356,
				"z": -0.1496341404,
				"element": "C" 
			},
			{
				"x": -4.6177698031,
				"y": 1.062825749,
				"z": 1.129880146,
				"element": "C" 
			},
			{
				"x": -3.7695627263,
				"y": 0.795331922,
				"z": 2.2058260533,
				"element": "C" 
			},
			{
				"x": 0.0355786053,
				"y": 1.6428883183,
				"z": 2.6936964083,
				"element": "H" 
			},
			{
				"x": -0.1508706654,
				"y": 1.0319766696,
				"z": 4.3633719837,
				"element": "H" 
			},
			{
				"x": -1.2250028042,
				"y": 2.3260127783,
				"z": 3.7657393537,
				"element": "H" 
			},
			{
				"x": -0.2641438063,
				"y": -1.0428495356,
				"z": 1.557352348,
				"element": "H" 
			},
			{
				"x": -0.3807113152,
				"y": -1.1983973867,
				"z": -0.2157028105,
				"element": "H" 
			},
			{
				"x": 1.9097088673,
				"y": 1.0246652835,
				"z": -2.3643189969,
				"element": "H" 
			},
			{
				"x": 0.551088352,
				"y": 0.934795101,
				"z": -1.3758649284,
				"element": "H" 
			},
			{
				"x": 4.0597671805,
				"y": 0.3253894242,
				"z": -1.6242066662,
				"element": "H" 
			},
			{
				"x": 5.4211023959,
				"y": -0.6496427328,
				"z": 0.191528303,
				"element": "H" 
			},
			{
				"x": 4.3199989661,
				"y": -1.5551436034,
				"z": 2.2402513578,
				"element": "H" 
			},
			{
				"x": 1.8423878711,
				"y": -1.4820717271,
				"z": 2.4178293147,
				"element": "H" 
			},
			{
				"x": -2.2793095903,
				"y": 1.2245244289,
				"z": -1.3426505829,
				"element": "H" 
			},
			{
				"x": -4.7397110736,
				"y": 1.4462824092,
				"z": -0.9904481677,
				"element": "H" 
			},
			{
				"x": -5.6876632619,
				"y": 1.1477283587,
				"z": 1.2947940792,
				"element": "H" 
			},
			{
				"x": -4.1546802096,
				"y": 0.6675333003,
				"z": 3.2126653255,
				"element": "H" 
			}
		],
		 "valence_orbital": [ 
			{
				"type": "occ",
				"energy": -0.26614,
				"method": "rhf"
			},
			{
				"type": "occ",
				"energy": -0.24646,
				"method": "rhf"
			},
			{
				"type": "occ",
				"energy": -0.24121,
				"method": "rhf"
			},
			{
				"type": "occ",
				"energy": -0.22952,
				"method": "rhf"
			},
			{
				"type": "occ",
				"energy": -0.19874,
				"method": "rhf"
			},
			{
				"type": "unocc",
				"energy": -0.00279,
				"method": "rhf"
			},
			{
				"type": "unocc",
				"energy": 0.00046,
				"method": "rhf"
			},
			{
				"type": "unocc",
				"energy": 0.00464,
				"method": "rhf"
			},
			{
				"type": "unocc",
				"energy": 0.0188,
				"method": "rhf"
			},
			{
				"type": "unocc",
				"energy": 0.08471,
				"method": "rhf"
			}
		],
		"cosmo_sigma_profile": { 
			"-0.025": 0.0,
			"-0.024": 0.0,
			"-0.023": 0.0,
			"-0.022": 0.0,
			"-0.021": 0.0,
			"-0.02": 0.0,
			"-0.019": 0.0,
			"-0.018": 0.0,
			"-0.017": 0.0,
			"-0.016": 0.0,
			"-0.015": 0.0,
			"-0.014": 0.0,
			"-0.013": 0.0,
			"-0.012": 0.890310246728,
			"-0.011": 1.75934192934,
			"-0.01": 1.14564701433,
			"-0.009": 1.97675774695,
			"-0.008": 2.15240182626,
			"-0.007": 2.97153647716,
			"-0.006": 10.852211473,
			"-0.005": 21.1473665887,
			"-0.004": 24.8926168988,
			"-0.003": 30.0277729764,
			"-0.002": 24.8200953977,
			"-0.001": 19.5375880024,
			"0.0": 18.2361871773,
			"0.001": 15.4373462395,
			"0.002": 16.0058654185,
			"0.003": 18.5024158925,
			"0.004": 17.2484861381,
			"0.005": 19.214421241,
			"0.006": 13.5718514436,
			"0.007": 9.73491710343,
			"0.008": 2.38006863037,
			"0.009": 1.97125422699,
			"0.01": 1.81044756685,
			"0.011": 1.74350796034,
			"0.012": 0.995212897535,
			"0.013": 0.716774714321,
			"0.014": 0.569451973585,
			"0.015": 0.144273300367,
			"0.016": 0.0,
			"0.017": 0.0,
			"0.018": 0.0,
			"0.019": 0.0,
			"0.02": 0.0,
			"0.021": 0.0,
			"0.022": 0.0,
			"0.023": 0.0,
			"0.024": 0.0,
			"0.025": 0.0
		}
	}
}
