{
	 "smiles": "FC1=CC(=CC(F)=C1)C1=NNC(S)=N1", 
	 "Tm": 553.15, 
	 "num_atms": 19, 
	 "gaussian": { 
		 "optdone": 1, 
		 "sigma_profile": "yes", 
		 "theory": "DFT", 
		 "functional": "B3LYP", 
		 "basiset": "6-31G**", 
		 "properties": { 
			 "R2extent": 5138.4878, 
			 "electric_dipole_moment_norm": 3.35318392875, 
			 "electric_quadrupole_moment_norm": 5.55586666147, 
			 "total_energy": -1069.9620799, 
			 "HOMO_LUMO_gap": 0.1941, 
			 "cosmo_polarized_energy": -11.83, 
			 "cosmo_cavitation_energy": 27.41, 
			 "cosmo_dispersion_energy": -20.63, 
			 "cosmo_repulsion_energy": 1.53, 
			 "cosmo_total_nonelectrostatic_energy": 8.3, 
			 "SMD_solvation_energy": 2.89 
		},
		"coords": [
			{
				"x": -2.115420549,
				"y": -3.688453196,
				"z": -1.4935465836,
				"element": "F" 
			},
			{
				"x": -1.6761528327,
				"y": -3.2260327019,
				"z": -0.306082853,
				"element": "C" 
			},
			{
				"x": -1.1208309636,
				"y": -1.9565144186,
				"z": -0.2449072024,
				"element": "C" 
			},
			{
				"x": -0.6659945291,
				"y": -1.4824032691,
				"z": 0.9947209224,
				"element": "C" 
			},
			{
				"x": -0.7744677421,
				"y": -2.2813218466,
				"z": 2.1410061448,
				"element": "C" 
			},
			{
				"x": -1.339024799,
				"y": -3.544021762,
				"z": 2.0201062307,
				"element": "C" 
			},
			{
				"x": -1.4459360964,
				"y": -4.3168513853,
				"z": 3.1192497987,
				"element": "F" 
			},
			{
				"x": -1.800994136,
				"y": -4.04861957,
				"z": 0.8096887606,
				"element": "C" 
			},
			{
				"x": -0.0716928955,
				"y": -0.1426894601,
				"z": 1.1008125374,
				"element": "C" 
			},
			{
				"x": 0.0628945752,
				"y": 0.6683460019,
				"z": 0.0569132808,
				"element": "N" 
			},
			{
				"x": 0.6441267584,
				"y": 1.762554351,
				"z": 0.6151091788,
				"element": "N" 
			},
			{
				"x": 0.8300038084,
				"y": 1.5667495314,
				"z": 1.9429064941,
				"element": "C" 
			},
			{
				"x": 1.5618608396,
				"y": 2.7778249573,
				"z": 2.9975492789,
				"element": "S" 
			},
			{
				"x": 0.3895553975,
				"y": 0.3727602032,
				"z": 2.2875742291,
				"element": "N" 
			},
			{
				"x": -1.04282637,
				"y": -1.3492002328,
				"z": -1.1381521312,
				"element": "H" 
			},
			{
				"x": -0.4258141522,
				"y": -1.9227299231,
				"z": 3.1012780585,
				"element": "H" 
			},
			{
				"x": -2.2381648271,
				"y": -5.0367590825,
				"z": 0.7378321216,
				"element": "H" 
			},
			{
				"x": 0.8701355071,
				"y": 2.5629052549,
				"z": 0.0435384241,
				"element": "H" 
			},
			{
				"x": 1.4512430067,
				"y": 2.0027565482,
				"z": 4.0918033096,
				"element": "H" 
			}
		],
		 "valence_orbital": [ 
			{
				"type": "occ",
				"energy": -0.31334,
				"method": "rhf"
			},
			{
				"type": "occ",
				"energy": -0.29296,
				"method": "rhf"
			},
			{
				"type": "occ",
				"energy": -0.26598,
				"method": "rhf"
			},
			{
				"type": "occ",
				"energy": -0.24613,
				"method": "rhf"
			},
			{
				"type": "occ",
				"energy": -0.23517,
				"method": "rhf"
			},
			{
				"type": "unocc",
				"energy": -0.04107,
				"method": "rhf"
			},
			{
				"type": "unocc",
				"energy": -0.01197,
				"method": "rhf"
			},
			{
				"type": "unocc",
				"energy": -0.00311,
				"method": "rhf"
			},
			{
				"type": "unocc",
				"energy": 0.00897,
				"method": "rhf"
			},
			{
				"type": "unocc",
				"energy": 0.04946,
				"method": "rhf"
			}
		],
		"cosmo_sigma_profile": { 
			"-0.025": 0.0,
			"-0.024": 0.0,
			"-0.023": 0.0,
			"-0.022": 0.0,
			"-0.021": 0.0,
			"-0.02": 0.0,
			"-0.019": 0.0304778460228,
			"-0.018": 1.67750734432,
			"-0.017": 1.32858687599,
			"-0.016": 1.57979154698,
			"-0.015": 1.42728696812,
			"-0.014": 0.777250983689,
			"-0.013": 1.73269532837,
			"-0.012": 2.47850093038,
			"-0.011": 2.03391706106,
			"-0.01": 1.87318069735,
			"-0.009": 3.45463339998,
			"-0.008": 3.50255376313,
			"-0.007": 3.91210877355,
			"-0.006": 5.83766401213,
			"-0.005": 5.86691143923,
			"-0.004": 6.14390745625,
			"-0.003": 7.08704108311,
			"-0.002": 8.48810855963,
			"-0.001": 14.0097664377,
			"0.0": 24.2765351336,
			"0.001": 31.1881928595,
			"0.002": 26.5083267854,
			"0.003": 17.6495290725,
			"0.004": 25.5710144438,
			"0.005": 7.73638915669,
			"0.006": 4.08314351333,
			"0.007": 3.64748996056,
			"0.008": 2.14806816706,
			"0.009": 2.49868339831,
			"0.01": 2.21878476782,
			"0.011": 1.75588607615,
			"0.012": 1.41187274393,
			"0.013": 0.138666647319,
			"0.014": 0.0,
			"0.015": 0.0,
			"0.016": 0.0,
			"0.017": 0.0,
			"0.018": 0.0,
			"0.019": 0.0,
			"0.02": 0.0,
			"0.021": 0.0,
			"0.022": 0.0,
			"0.023": 0.0,
			"0.024": 0.0,
			"0.025": 0.0
		}
	}
}
