{
	 "smiles": "NN1C=NC2=C(C(Br)=NN2C2CCCCC2)C1=O", 
	 "Tm": 527.15, 
	 "num_atms": 32, 
	 "gaussian": { 
		 "optdone": 1, 
		 "sigma_profile": "yes", 
		 "theory": "DFT", 
		 "functional": "B3LYP", 
		 "basiset": "6-31G**", 
		 "properties": { 
			 "R2extent": 8060.2572, 
			 "electric_dipole_moment_norm": 4.03308657234, 
			 "electric_quadrupole_moment_norm": 16.3157567425, 
			 "total_energy": -3347.96978437, 
			 "HOMO_LUMO_gap": 0.19341, 
			 "cosmo_polarized_energy": -14.04, 
			 "cosmo_cavitation_energy": 36.53, 
			 "cosmo_dispersion_energy": -26.84, 
			 "cosmo_repulsion_energy": 2.09, 
			 "cosmo_total_nonelectrostatic_energy": 11.78, 
			 "SMD_solvation_energy": 3.65 
		},
		"coords": [
			{
				"x": -3.2230499043,
				"y": 2.0102623548,
				"z": 2.2082926951,
				"element": "N" 
			},
			{
				"x": -1.9634973166,
				"y": 1.4965679875,
				"z": 1.826574718,
				"element": "N" 
			},
			{
				"x": -1.8524657262,
				"y": 1.0182262178,
				"z": 0.549435854,
				"element": "C" 
			},
			{
				"x": -0.773450155,
				"y": 0.5114765967,
				"z": 0.027100834,
				"element": "N" 
			},
			{
				"x": 0.2855061858,
				"y": 0.4921946089,
				"z": 0.8903297006,
				"element": "C" 
			},
			{
				"x": 0.2977429422,
				"y": 0.9497876458,
				"z": 2.2189575811,
				"element": "C" 
			},
			{
				"x": 1.6232616028,
				"y": 0.7021940227,
				"z": 2.6499936576,
				"element": "C" 
			},
			{
				"x": 2.3625506129,
				"y": 1.0671682031,
				"z": 4.3392432748,
				"element": "Br" 
			},
			{
				"x": 2.3558482903,
				"y": 0.1523467761,
				"z": 1.6990957391,
				"element": "N" 
			},
			{
				"x": 1.5290314977,
				"y": 0.0219779915,
				"z": 0.6171375008,
				"element": "N" 
			},
			{
				"x": 2.0633952704,
				"y": -0.548160391,
				"z": -0.6284990496,
				"element": "C" 
			},
			{
				"x": 2.042134962,
				"y": 0.4594809131,
				"z": -1.7884047805,
				"element": "C" 
			},
			{
				"x": 2.8543515191,
				"y": -0.0906079235,
				"z": -2.9863990864,
				"element": "C" 
			},
			{
				"x": 2.7983117589,
				"y": -1.635234281,
				"z": -3.084688606,
				"element": "C" 
			},
			{
				"x": 1.4793499912,
				"y": -2.1774104305,
				"z": -2.5183225434,
				"element": "C" 
			},
			{
				"x": 1.3405262949,
				"y": -1.8645351512,
				"z": -1.009704047,
				"element": "C" 
			},
			{
				"x": -0.8965280211,
				"y": 1.5099560943,
				"z": 2.7928767011,
				"element": "C" 
			},
			{
				"x": -1.1051764347,
				"y": 1.9607813501,
				"z": 3.9078974745,
				"element": "O" 
			},
			{
				"x": -3.0599908833,
				"y": 2.9640633811,
				"z": 2.5328947933,
				"element": "H" 
			},
			{
				"x": -3.501749127,
				"y": 1.4986262426,
				"z": 3.0462853855,
				"element": "H" 
			},
			{
				"x": -2.7672477709,
				"y": 1.0917234468,
				"z": -0.0307955936,
				"element": "H" 
			},
			{
				"x": 3.1041876921,
				"y": -0.7610995797,
				"z": -0.3710473433,
				"element": "H" 
			},
			{
				"x": 2.4530594452,
				"y": 1.4178434007,
				"z": -1.454677958,
				"element": "H" 
			},
			{
				"x": 1.0015148244,
				"y": 0.6409790663,
				"z": -2.075947766,
				"element": "H" 
			},
			{
				"x": 2.4645531436,
				"y": 0.3557398513,
				"z": -3.9080768839,
				"element": "H" 
			},
			{
				"x": 3.8987311404,
				"y": 0.2319879706,
				"z": -2.9062373712,
				"element": "H" 
			},
			{
				"x": 2.9303563937,
				"y": -1.9504009254,
				"z": -4.1253385731,
				"element": "H" 
			},
			{
				"x": 3.6340711647,
				"y": -2.0765777653,
				"z": -2.5256998859,
				"element": "H" 
			},
			{
				"x": 0.6435166805,
				"y": -1.725042281,
				"z": -3.0667409463,
				"element": "H" 
			},
			{
				"x": 1.4021670107,
				"y": -3.2580205549,
				"z": -2.6792315519,
				"element": "H" 
			},
			{
				"x": 0.2817135243,
				"y": -1.7814784132,
				"z": -0.750664619,
				"element": "H" 
			},
			{
				"x": 1.7577733912,
				"y": -2.6788164251,
				"z": -0.4067393041,
				"element": "H" 
			}
		],
		 "valence_orbital": [ 
			{
				"type": "occ",
				"energy": -0.29484,
				"method": "rhf"
			},
			{
				"type": "occ",
				"energy": -0.28699,
				"method": "rhf"
			},
			{
				"type": "occ",
				"energy": -0.27129,
				"method": "rhf"
			},
			{
				"type": "occ",
				"energy": -0.2554,
				"method": "rhf"
			},
			{
				"type": "occ",
				"energy": -0.23426,
				"method": "rhf"
			},
			{
				"type": "unocc",
				"energy": -0.04085,
				"method": "rhf"
			},
			{
				"type": "unocc",
				"energy": -0.02104,
				"method": "rhf"
			},
			{
				"type": "unocc",
				"energy": 0.01749,
				"method": "rhf"
			},
			{
				"type": "unocc",
				"energy": 0.03321,
				"method": "rhf"
			},
			{
				"type": "unocc",
				"energy": 0.06727,
				"method": "rhf"
			}
		],
		"cosmo_sigma_profile": { 
			"-0.025": 0.0,
			"-0.024": 0.0,
			"-0.023": 0.0,
			"-0.022": 0.0,
			"-0.021": 0.0,
			"-0.02": 0.0,
			"-0.019": 0.0,
			"-0.018": 0.0,
			"-0.017": 0.0,
			"-0.016": 0.0,
			"-0.015": 0.0,
			"-0.014": 0.0,
			"-0.013": 1.4587945362,
			"-0.012": 2.90368766286,
			"-0.011": 3.15684679917,
			"-0.01": 2.88510183698,
			"-0.009": 3.55593204681,
			"-0.008": 3.03004871251,
			"-0.007": 3.63151768926,
			"-0.006": 5.14427164068,
			"-0.005": 9.62493103554,
			"-0.004": 13.3832837601,
			"-0.003": 24.9744665099,
			"-0.002": 38.2170103399,
			"-0.001": 39.7649991375,
			"0.0": 32.8024165177,
			"0.001": 22.5316679223,
			"0.002": 12.0694919435,
			"0.003": 13.7457106179,
			"0.004": 14.042995448,
			"0.005": 6.5448883095,
			"0.006": 6.48421599747,
			"0.007": 5.14493179432,
			"0.008": 4.14625086517,
			"0.009": 4.60283434448,
			"0.01": 4.56537943313,
			"0.011": 4.31763147244,
			"0.012": 6.35106253497,
			"0.013": 2.35332679708,
			"0.014": 0.0218611716376,
			"0.015": 0.0,
			"0.016": 0.0,
			"0.017": 0.0,
			"0.018": 0.0,
			"0.019": 0.0,
			"0.02": 0.0,
			"0.021": 0.0,
			"0.022": 0.0,
			"0.023": 0.0,
			"0.024": 0.0,
			"0.025": 0.0
		}
	}
}
