{
	 "smiles": "OC(=O)C1=CC(=CC=C1)S(=O)(=O)NCC1=CC=CC=C1", 
	 "Tm": 499.15, 
	 "num_atms": 33, 
	 "gaussian": { 
		 "optdone": 1, 
		 "sigma_profile": "yes", 
		 "theory": "DFT", 
		 "functional": "B3LYP", 
		 "basiset": "6-31G**", 
		 "properties": { 
			 "R2extent": 7099.0763, 
			 "electric_dipole_moment_norm": 4.3310708999, 
			 "electric_quadrupole_moment_norm": 24.772875564, 
			 "total_energy": -1295.09634905, 
			 "HOMO_LUMO_gap": 0.19203, 
			 "cosmo_polarized_energy": -22.27, 
			 "cosmo_cavitation_energy": 38.83, 
			 "cosmo_dispersion_energy": -26.76, 
			 "cosmo_repulsion_energy": 2.02, 
			 "cosmo_total_nonelectrostatic_energy": 14.09, 
			 "SMD_solvation_energy": 6.31 
		},
		"coords": [
			{
				"x": 3.5898787866,
				"y": 2.4335850121,
				"z": -4.1517360257,
				"element": "O" 
			},
			{
				"x": 2.3180530834,
				"y": 2.7414011843,
				"z": -3.791345701,
				"element": "C" 
			},
			{
				"x": 1.629824458,
				"y": 3.4234714949,
				"z": -4.5131039747,
				"element": "O" 
			},
			{
				"x": 1.8307593924,
				"y": 2.1956284847,
				"z": -2.4796530573,
				"element": "C" 
			},
			{
				"x": 2.4157811185,
				"y": 1.089053024,
				"z": -1.854910892,
				"element": "C" 
			},
			{
				"x": 1.8972431565,
				"y": 0.6362111299,
				"z": -0.6423014285,
				"element": "C" 
			},
			{
				"x": 0.8163144039,
				"y": 1.2693789502,
				"z": -0.0296807477,
				"element": "C" 
			},
			{
				"x": 0.2268330515,
				"y": 2.3638739455,
				"z": -0.6668151945,
				"element": "C" 
			},
			{
				"x": 0.7216161115,
				"y": 2.8167648284,
				"z": -1.8868143381,
				"element": "C" 
			},
			{
				"x": 2.6759343724,
				"y": -0.7791270132,
				"z": 0.1436065357,
				"element": "S" 
			},
			{
				"x": 2.439522423,
				"y": -0.6646381652,
				"z": 1.586125183,
				"element": "O" 
			},
			{
				"x": 4.0277064085,
				"y": -0.895719806,
				"z": -0.4181718881,
				"element": "O" 
			},
			{
				"x": 1.8347730069,
				"y": -2.120937423,
				"z": -0.4665582562,
				"element": "N" 
			},
			{
				"x": 0.8350107351,
				"y": -2.7781010898,
				"z": 0.404486733,
				"element": "C" 
			},
			{
				"x": -0.493334799,
				"y": -2.0505716768,
				"z": 0.4381264495,
				"element": "C" 
			},
			{
				"x": -1.1993343496,
				"y": -1.7948242084,
				"z": -0.7454828026,
				"element": "C" 
			},
			{
				"x": -2.4331235613,
				"y": -1.1475895725,
				"z": -0.7077538254,
				"element": "C" 
			},
			{
				"x": -2.9793555579,
				"y": -0.7486643913,
				"z": 0.5158718642,
				"element": "C" 
			},
			{
				"x": -2.2831197325,
				"y": -0.9981856817,
				"z": 1.6988078498,
				"element": "C" 
			},
			{
				"x": -1.0445268526,
				"y": -1.6442754534,
				"z": 1.6582679864,
				"element": "C" 
			},
			{
				"x": 4.0675498413,
				"y": 2.0290355068,
				"z": -3.4140941982,
				"element": "H" 
			},
			{
				"x": 3.2547961194,
				"y": 0.5549565929,
				"z": -2.2900972931,
				"element": "H" 
			},
			{
				"x": 0.4454328277,
				"y": 0.9087432215,
				"z": 0.9227116513,
				"element": "H" 
			},
			{
				"x": -0.620155758,
				"y": 2.8615085125,
				"z": -0.2054873555,
				"element": "H" 
			},
			{
				"x": 0.2699073916,
				"y": 3.6583876808,
				"z": -2.400659578,
				"element": "H" 
			},
			{
				"x": 2.5443669522,
				"y": -2.7574285932,
				"z": -0.8215924929,
				"element": "H" 
			},
			{
				"x": 0.6996634759,
				"y": -3.7762927605,
				"z": -0.0271726533,
				"element": "H" 
			},
			{
				"x": 1.2150384067,
				"y": -2.9062799363,
				"z": 1.4237698747,
				"element": "H" 
			},
			{
				"x": -0.7705970209,
				"y": -2.095446455,
				"z": -1.6974994564,
				"element": "H" 
			},
			{
				"x": -2.9705356968,
				"y": -0.9549718512,
				"z": -1.6319113213,
				"element": "H" 
			},
			{
				"x": -3.9420721656,
				"y": -0.2463903658,
				"z": 0.5447306324,
				"element": "H" 
			},
			{
				"x": -2.6995026974,
				"y": -0.6888575699,
				"z": 2.6532275878,
				"element": "H" 
			},
			{
				"x": -0.4969473313,
				"y": -1.8277975552,
				"z": 2.5788101328,
				"element": "H" 
			}
		],
		 "valence_orbital": [ 
			{
				"type": "occ",
				"energy": -0.28739,
				"method": "rhf"
			},
			{
				"type": "occ",
				"energy": -0.27999,
				"method": "rhf"
			},
			{
				"type": "occ",
				"energy": -0.27277,
				"method": "rhf"
			},
			{
				"type": "occ",
				"energy": -0.26164,
				"method": "rhf"
			},
			{
				"type": "occ",
				"energy": -0.25643,
				"method": "rhf"
			},
			{
				"type": "unocc",
				"energy": -0.0644,
				"method": "rhf"
			},
			{
				"type": "unocc",
				"energy": -0.0491,
				"method": "rhf"
			},
			{
				"type": "unocc",
				"energy": -0.01972,
				"method": "rhf"
			},
			{
				"type": "unocc",
				"energy": -0.01196,
				"method": "rhf"
			},
			{
				"type": "unocc",
				"energy": 0.03044,
				"method": "rhf"
			}
		],
		"cosmo_sigma_profile": { 
			"-0.025": 0.0,
			"-0.024": 0.0,
			"-0.023": 0.0,
			"-0.022": 0.0,
			"-0.021": 0.0,
			"-0.02": 0.0450014873579,
			"-0.019": 0.829567609708,
			"-0.018": 1.27639785679,
			"-0.017": 0.740191168845,
			"-0.016": 0.807438004935,
			"-0.015": 1.47550340316,
			"-0.014": 2.75116888465,
			"-0.013": 1.40466555896,
			"-0.012": 2.008719757,
			"-0.011": 2.2839594893,
			"-0.01": 2.16916798221,
			"-0.009": 2.88364717712,
			"-0.008": 4.40700458822,
			"-0.007": 8.55829678135,
			"-0.006": 14.8689587337,
			"-0.005": 22.1671374987,
			"-0.004": 22.7934496738,
			"-0.003": 21.8806195043,
			"-0.002": 17.13434443,
			"-0.001": 17.6938077313,
			"0.0": 21.7786670315,
			"0.001": 22.8740125543,
			"0.002": 17.5634572486,
			"0.003": 17.9374778777,
			"0.004": 13.8016140959,
			"0.005": 10.5738342463,
			"0.006": 8.02413309423,
			"0.007": 6.19816493997,
			"0.008": 6.41051567931,
			"0.009": 7.26896136011,
			"0.01": 12.5867400899,
			"0.011": 12.4647359785,
			"0.012": 4.03194391465,
			"0.013": 0.697979879476,
			"0.014": 0.0,
			"0.015": 0.0,
			"0.016": 0.0,
			"0.017": 0.0,
			"0.018": 0.0,
			"0.019": 0.0,
			"0.02": 0.0,
			"0.021": 0.0,
			"0.022": 0.0,
			"0.023": 0.0,
			"0.024": 0.0,
			"0.0": 0.0
		}
	}
}
