{
	 "smiles": "[O-][N+](=O)C1=CC(C=N/NC2=CC=CC=C2)=CC=C1C=NNC1=CC=CC=C1", 
	 "Tm": 458.15, 
	 "num_atms": 44, 
	 "gaussian": { 
		 "optdone": 1, 
		 "sigma_profile": "yes", 
		 "theory": "DFT", 
		 "functional": "B3LYP", 
		 "basiset": "6-31G**", 
		 "properties": { 
			 "R2extent": 15279.6371, 
			 "electric_dipole_moment_norm": 2.8221006892, 
			 "electric_quadrupole_moment_norm": 14.7489328089, 
			 "total_energy": -1196.39663318, 
			 "HOMO_LUMO_gap": 0.10583, 
			 "cosmo_polarized_energy": -18.69, 
			 "cosmo_cavitation_energy": 49.88, 
			 "cosmo_dispersion_energy": -34.39, 
			 "cosmo_repulsion_energy": 2.58, 
			 "cosmo_total_nonelectrostatic_energy": 18.08, 
			 "SMD_solvation_energy": 9.56 
		},
		"coords": [
			{
				"x": 2.1864689419,
				"y": -1.2653416402,
				"z": 2.2839206622,
				"element": "O" 
			},
			{
				"x": 2.4621896534,
				"y": -1.1207659008,
				"z": 1.0888040674,
				"element": "N" 
			},
			{
				"x": 3.501595976,
				"y": -1.530402788,
				"z": 0.574211238,
				"element": "O" 
			},
			{
				"x": 1.489809699,
				"y": -0.440428642,
				"z": 0.2146392715,
				"element": "C" 
			},
			{
				"x": 1.5923939132,
				"y": -0.7633947848,
				"z": -1.1387304478,
				"element": "C" 
			},
			{
				"x": 0.7245267662,
				"y": -0.1938727478,
				"z": -2.0778323797,
				"element": "C" 
			},
			{
				"x": 0.8044070901,
				"y": -0.4057961934,
				"z": -3.5295420877,
				"element": "C" 
			},
			{
				"x": 1.4201877411,
				"y": -1.2571275393,
				"z": -4.2790234015,
				"element": "N" 
			},
			{
				"x": 2.1291782383,
				"y": -2.3129143282,
				"z": -3.7260845999,
				"element": "N" 
			},
			{
				"x": 1.5471891535,
				"y": -3.3549665771,
				"z": -2.9519205583,
				"element": "C" 
			},
			{
				"x": 2.3954359327,
				"y": -4.4108916109,
				"z": -2.5754774006,
				"element": "C" 
			},
			{
				"x": 1.9020379518,
				"y": -5.4816162711,
				"z": -1.8372592008,
				"element": "C" 
			},
			{
				"x": 0.5587860524,
				"y": -5.5173898269,
				"z": -1.4516362129,
				"element": "C" 
			},
			{
				"x": -0.2806657328,
				"y": -4.4680652153,
				"z": -1.8223299227,
				"element": "C" 
			},
			{
				"x": 0.2011706414,
				"y": -3.3893390945,
				"z": -2.5672109219,
				"element": "C" 
			},
			{
				"x": -0.2317531433,
				"y": 0.7289489916,
				"z": -1.6003373425,
				"element": "C" 
			},
			{
				"x": -0.3302241949,
				"y": 1.0418825977,
				"z": -0.2590441886,
				"element": "C" 
			},
			{
				"x": 0.5204422998,
				"y": 0.4659978079,
				"z": 0.7127806606,
				"element": "C" 
			},
			{
				"x": 0.3842448498,
				"y": 0.8661087006,
				"z": 2.1096250978,
				"element": "C" 
			},
			{
				"x": -0.5330135357,
				"y": 1.7170140347,
				"z": 2.4497545667,
				"element": "N" 
			},
			{
				"x": -0.6101970361,
				"y": 2.0672242932,
				"z": 3.7320718551,
				"element": "N" 
			},
			{
				"x": -1.56842213,
				"y": 2.9637807799,
				"z": 4.2128467671,
				"element": "C" 
			},
			{
				"x": -2.5149433305,
				"y": 3.5599144359,
				"z": 3.366028096,
				"element": "C" 
			},
			{
				"x": -3.4467542784,
				"y": 4.4473231034,
				"z": 3.8985853834,
				"element": "C" 
			},
			{
				"x": -3.4539476841,
				"y": 4.7532088862,
				"z": 5.2620892491,
				"element": "C" 
			},
			{
				"x": -2.5089729155,
				"y": 4.1560142908,
				"z": 6.0988547725,
				"element": "C" 
			},
			{
				"x": -1.5697371212,
				"y": 3.2663895615,
				"z": 5.5834722746,
				"element": "C" 
			},
			{
				"x": 2.3719322732,
				"y": -1.4462585782,
				"z": -1.4400364864,
				"element": "H" 
			},
			{
				"x": 0.2805339609,
				"y": 0.3525180993,
				"z": -4.1142404226,
				"element": "H" 
			},
			{
				"x": 2.7104990877,
				"y": -2.6999048351,
				"z": -4.459877374,
				"element": "H" 
			},
			{
				"x": 3.4440440784,
				"y": -4.3784551341,
				"z": -2.8601930456,
				"element": "H" 
			},
			{
				"x": 2.5732588609,
				"y": -6.2876157517,
				"z": -1.5549704835,
				"element": "H" 
			},
			{
				"x": 0.1761872461,
				"y": -6.348820516,
				"z": -0.8680888088,
				"element": "H" 
			},
			{
				"x": -1.3284886695,
				"y": -4.4828936787,
				"z": -1.5355887119,
				"element": "H" 
			},
			{
				"x": -0.4719156823,
				"y": -2.5941734567,
				"z": -2.8619557736,
				"element": "H" 
			},
			{
				"x": -0.90592458,
				"y": 1.2055917744,
				"z": -2.3074963652,
				"element": "H" 
			},
			{
				"x": -1.0705681609,
				"y": 1.7550213388,
				"z": 0.0825910201,
				"element": "H" 
			},
			{
				"x": 1.0625840753,
				"y": 0.4382926344,
				"z": 2.8444373541,
				"element": "H" 
			},
			{
				"x": 0.0429050382,
				"y": 1.6605257239,
				"z": 4.3987485513,
				"element": "H" 
			},
			{
				"x": -2.5074240404,
				"y": 3.3205991652,
				"z": 2.3100286147,
				"element": "H" 
			},
			{
				"x": -4.1767731201,
				"y": 4.9049074968,
				"z": 3.2368204498,
				"element": "H" 
			},
			{
				"x": -4.1849686673,
				"y": 5.4463005535,
				"z": 5.6660637933,
				"element": "H" 
			},
			{
				"x": -2.4995155601,
				"y": 4.3816789776,
				"z": 7.1612369324,
				"element": "H" 
			},
			{
				"x": -0.8361999381,
				"y": 2.8044918634,
				"z": 6.2402654585,
				"element": "H" 
			}
		],
		 "valence_orbital": [ 
			{
				"type": "occ",
				"energy": -0.25821,
				"method": "rhf"
			},
			{
				"type": "occ",
				"energy": -0.25652,
				"method": "rhf"
			},
			{
				"type": "occ",
				"energy": -0.24869,
				"method": "rhf"
			},
			{
				"type": "occ",
				"energy": -0.2078,
				"method": "rhf"
			},
			{
				"type": "occ",
				"energy": -0.19671,
				"method": "rhf"
			},
			{
				"type": "unocc",
				"energy": -0.09088,
				"method": "rhf"
			},
			{
				"type": "unocc",
				"energy": -0.06779,
				"method": "rhf"
			},
			{
				"type": "unocc",
				"energy": -0.01672,
				"method": "rhf"
			},
			{
				"type": "unocc",
				"energy": -0.00825,
				"method": "rhf"
			},
			{
				"type": "unocc",
				"energy": -0.00662,
				"method": "rhf"
			}
		],
		"cosmo_sigma_profile": { 
			"-0.025": 0.0,
			"-0.024": 0.0,
			"-0.023": 0.0,
			"-0.022": 0.0,
			"-0.021": 0.0,
			"-0.02": 0.0,
			"-0.019": 0.0,
			"-0.018": 0.0,
			"-0.017": 0.0,
			"-0.016": 0.118635770323,
			"-0.015": 1.46228894938,
			"-0.014": 2.19869191603,
			"-0.013": 2.82086867496,
			"-0.012": 2.7242702379,
			"-0.011": 3.01697694306,
			"-0.01": 2.0251046188,
			"-0.009": 1.90466764388,
			"-0.008": 5.70332667565,
			"-0.007": 8.91185677024,
			"-0.006": 17.1299702,
			"-0.005": 26.6234044114,
			"-0.004": 27.5020956304,
			"-0.003": 26.558102093,
			"-0.002": 21.898883903,
			"-0.001": 24.709180458,
			"0.0": 27.2915303562,
			"0.001": 35.1862233847,
			"0.002": 36.8333886654,
			"0.003": 26.346468639,
			"0.004": 26.2489220565,
			"0.005": 24.513121035,
			"0.006": 18.9571011703,
			"0.007": 8.03249023386,
			"0.008": 8.45887061987,
			"0.009": 5.47788630087,
			"0.01": 3.99204390169,
			"0.011": 0.913228758519,
			"0.012": 0.955345434163,
			"0.013": 0.819316364163,
			"0.014": 0.84782482093,
			"0.015": 0.436439974721,
			"0.016": 0.0,
			"0.017": 0.0,
			"0.018": 0.0,
			"0.019": 0.0,
			"0.02": 0.0,
			"0.021": 0.0,
			"0.022": 0.0,
			"0.023": 0.0,
			"0.024": 0.0,
			"0.025": 0.0
		}
	}
}
