{
	 "smiles": "COC(=O)C1=CC=C(I)C=C1O", 
	 "Tm": 342.15, 
	 "num_atms": 19, 
	 "gaussian": { 
		 "optdone": 1, 
		 "sigma_profile": "no", 
		 "theory": "DFT", 
		 "functional": "B3LYP", 
		 "basiset": "6-31G**", 
		 "properties": { 
			 "R2extent": 2638.4131, 
			 "electric_dipole_moment_norm": 2.66438085491, 
			 "electric_quadrupole_moment_norm": 12.5885800017, 
			 "total_energy": -546.139713638, 
			 "HOMO_LUMO_gap": 0.1804, 
			 "cosmo_polarized_energy": -103699.26, 
			 "cosmo_cavitation_energy": 26.71, 
			 "cosmo_dispersion_energy": -21.31, 
			 "cosmo_repulsion_energy": 1.66, 
			 "cosmo_total_nonelectrostatic_energy": 7.06, 
			 "SMD_solvation_energy": 5.54 
		},
		"coords": [
			{
				"x": -3.0704106981,
				"y": -0.3261559422,
				"z": -2.8473855988,
				"element": "C" 
			},
			{
				"x": -2.33497197,
				"y": -0.6414591737,
				"z": -1.6486520223,
				"element": "O" 
			},
			{
				"x": -1.4565508226,
				"y": 0.3226213759,
				"z": -1.2200258606,
				"element": "C" 
			},
			{
				"x": -1.3190308333,
				"y": 1.3665468313,
				"z": -1.8215355882,
				"element": "O" 
			},
			{
				"x": -0.732897598,
				"y": -0.0607413425,
				"z": 0.0133933612,
				"element": "C" 
			},
			{
				"x": 0.1875869238,
				"y": 0.8776215032,
				"z": 0.515441099,
				"element": "C" 
			},
			{
				"x": 0.9282499389,
				"y": 0.6398988163,
				"z": 1.6618892742,
				"element": "C" 
			},
			{
				"x": 0.7411229099,
				"y": -0.5795126305,
				"z": 2.3291703951,
				"element": "C" 
			},
			{
				"x": 1.8569798911,
				"y": -0.9782822217,
				"z": 4.0859657517,
				"element": "I" 
			},
			{
				"x": -0.1554078114,
				"y": -1.5325244785,
				"z": 1.8695810131,
				"element": "C" 
			},
			{
				"x": -0.9040569027,
				"y": -1.2850768008,
				"z": 0.7053211138,
				"element": "C" 
			},
			{
				"x": -1.7513655342,
				"y": -2.2625014663,
				"z": 0.3281289011,
				"element": "O" 
			},
			{
				"x": -3.7080003978,
				"y": -1.1893138445,
				"z": -3.0357599122,
				"element": "H" 
			},
			{
				"x": -3.67068042,
				"y": 0.5732698982,
				"z": -2.6966789486,
				"element": "H" 
			},
			{
				"x": -2.3834160351,
				"y": -0.1629964904,
				"z": -3.6801091746,
				"element": "H" 
			},
			{
				"x": 0.3015694452,
				"y": 1.8077730254,
				"z": -0.0312127132,
				"element": "H" 
			},
			{
				"x": 1.6313545904,
				"y": 1.3765217858,
				"z": 2.030431051,
				"element": "H" 
			},
			{
				"x": -0.305488961,
				"y": -2.4762874317,
				"z": 2.3792449135,
				"element": "H" 
			},
			{
				"x": -2.207585715,
				"y": -1.9746014136,
				"z": -0.4843070552,
				"element": "H" 
			}
		],
		 "valence_orbital": [ 
			{
				"type": "occ",
				"energy": -0.29658,
				"method": "rhf"
			},
			{
				"type": "occ",
				"energy": -0.2933,
				"method": "rhf"
			},
			{
				"type": "occ",
				"energy": -0.2716,
				"method": "rhf"
			},
			{
				"type": "occ",
				"energy": -0.25073,
				"method": "rhf"
			},
			{
				"type": "occ",
				"energy": -0.23849,
				"method": "rhf"
			},
			{
				"type": "unocc",
				"energy": -0.05809,
				"method": "rhf"
			},
			{
				"type": "unocc",
				"energy": -0.04225,
				"method": "rhf"
			},
			{
				"type": "unocc",
				"energy": -0.00839,
				"method": "rhf"
			},
			{
				"type": "unocc",
				"energy": 0.03505,
				"method": "rhf"
			},
			{
				"type": "unocc",
				"energy": 0.0439,
				"method": "rhf"
			}
		],
		"cosmo_sigma_profile": { 
			"0.0": 0.0,
			"0.0": 0.0,
			"0.0": 0.0,
			"0.0": 0.0,
			"0.0": 0.0,
			"0.0": 0.0,
			"0.0": 0.0,
			"0.0": 0.0,
			"0.0": 0.0,
			"0.0": 0.0,
			"0.0": 0.0,
			"0.0": 0.0,
			"0.0": 0.0,
			"0.0": 0.0,
			"0.0": 0.0,
			"0.0": 0.0,
			"0.0": 0.0,
			"0.0": 0.0,
			"0.0": 0.0,
			"0.0": 0.0,
			"0.0": 0.0,
			"0.0": 0.0,
			"0.0": 0.0,
			"0.0": 0.0,
			"0.0": 0.0,
			"0.0": 0.0,
			"0.0": 0.0,
			"0.0": 0.0,
			"0.0": 0.0,
			"0.0": 0.0,
			"0.0": 0.0,
			"0.0": 0.0,
			"0.0": 0.0,
			"0.0": 0.0,
			"0.0": 0.0,
			"0.0": 0.0,
			"0.0": 0.0,
			"0.0": 0.0,
			"0.0": 0.0,
			"0.0": 0.0,
			"0.0": 0.0,
			"0.0": 0.0,
			"0.0": 0.0,
			"0.0": 0.0,
			"0.0": 0.0,
			"0.0": 0.0,
			"0.0": 0.0,
			"0.0": 0.0,
			"0.0": 0.0,
			"0.0": 0.0,
			"0.0": 0.0
		}
	}
}
