{
	 "smiles": "CCOC(=O)CCC(NP(=O)(OC)C(C)NC(=O)CCCCN1C(=O)C2=CC=CC=C2C1=O)C(=O)OCC", 
	 "Tm": 353.65, 
	 "num_atms": 74, 
	 "gaussian": { 
		 "optdone": 1, 
		 "sigma_profile": "yes", 
		 "theory": "DFT", 
		 "functional": "B3LYP", 
		 "basiset": "6-31G**", 
		 "properties": { 
			 "R2extent": 32614.3748, 
			 "electric_dipole_moment_norm": 5.91270177499, 
			 "electric_quadrupole_moment_norm": 63.5461497915, 
			 "total_energy": -2157.11777103, 
			 "HOMO_LUMO_gap": 0.17273, 
			 "cosmo_polarized_energy": -37.9, 
			 "cosmo_cavitation_energy": 79.44, 
			 "cosmo_dispersion_energy": -48.06, 
			 "cosmo_repulsion_energy": 3.63, 
			 "cosmo_total_nonelectrostatic_energy": 35.01, 
			 "SMD_solvation_energy": 16.74 
		},
		"coords": [
			{
				"x": -6.0062140708,
				"y": 4.5508817949,
				"z": 2.4824929084,
				"element": "C" 
			},
			{
				"x": -6.2012238993,
				"y": 3.4392656652,
				"z": 1.4682488912,
				"element": "C" 
			},
			{
				"x": -5.0636970688,
				"y": 2.551000093,
				"z": 1.5658830056,
				"element": "O" 
			},
			{
				"x": -5.1668081484,
				"y": 1.396340175,
				"z": 0.8619615034,
				"element": "C" 
			},
			{
				"x": -6.1485510434,
				"y": 1.0881557401,
				"z": 0.2230303903,
				"element": "O" 
			},
			{
				"x": -3.9142031631,
				"y": 0.5496367644,
				"z": 0.9779317477,
				"element": "C" 
			},
			{
				"x": -3.0586258628,
				"y": 0.551596559,
				"z": -0.3058054656,
				"element": "C" 
			},
			{
				"x": -2.081067217,
				"y": 1.736141013,
				"z": -0.4462021802,
				"element": "C" 
			},
			{
				"x": -1.1177525235,
				"y": 1.7973220907,
				"z": 0.6706793481,
				"element": "N" 
			},
			{
				"x": 0.3146013133,
				"y": 0.9277805707,
				"z": 0.5632839445,
				"element": "P" 
			},
			{
				"x": 0.1649696975,
				"y": -0.3908243683,
				"z": -0.1211456227,
				"element": "O" 
			},
			{
				"x": 1.3634645221,
				"y": 1.9479500706,
				"z": -0.1581651867,
				"element": "O" 
			},
			{
				"x": 2.4641802619,
				"y": 1.4537302553,
				"z": -0.9520054594,
				"element": "C" 
			},
			{
				"x": 0.9206566207,
				"y": 0.8835198963,
				"z": 2.3195846065,
				"element": "C" 
			},
			{
				"x": 0.0445236777,
				"y": 0.0171526483,
				"z": 3.2344826997,
				"element": "C" 
			},
			{
				"x": 2.3556693574,
				"y": 0.5956116381,
				"z": 2.3765195213,
				"element": "N" 
			},
			{
				"x": 3.0907626654,
				"y": -0.5348593694,
				"z": 2.0602528821,
				"element": "C" 
			},
			{
				"x": 4.3076313995,
				"y": -0.4295028995,
				"z": 1.9526151669,
				"element": "O" 
			},
			{
				"x": 2.3703481716,
				"y": -1.8710320054,
				"z": 1.9166085957,
				"element": "C" 
			},
			{
				"x": 3.2503864898,
				"y": -2.9436450979,
				"z": 1.2628950176,
				"element": "C" 
			},
			{
				"x": 3.4412763095,
				"y": -2.7273745805,
				"z": -0.2440528918,
				"element": "C" 
			},
			{
				"x": 4.3062872927,
				"y": -3.8279045915,
				"z": -0.8709939688,
				"element": "C" 
			},
			{
				"x": 4.4159139487,
				"y": -3.711325393,
				"z": -2.3215837432,
				"element": "N" 
			},
			{
				"x": 3.6277737884,
				"y": -4.4455529259,
				"z": -3.2231438086,
				"element": "C" 
			},
			{
				"x": 2.7863033846,
				"y": -5.2672619988,
				"z": -2.9164933882,
				"element": "O" 
			},
			{
				"x": 4.0569555324,
				"y": -4.0055780461,
				"z": -4.5853140635,
				"element": "C" 
			},
			{
				"x": 3.6138759385,
				"y": -4.4061306213,
				"z": -5.8372824225,
				"element": "C" 
			},
			{
				"x": 4.2152908922,
				"y": -3.8112001738,
				"z": -6.9547105937,
				"element": "C" 
			},
			{
				"x": 5.2250273401,
				"y": -2.8514784577,
				"z": -6.8070463431,
				"element": "C" 
			},
			{
				"x": 5.6659238715,
				"y": -2.4549494827,
				"z": -5.5371215861,
				"element": "C" 
			},
			{
				"x": 5.0629783161,
				"y": -3.0487164187,
				"z": -4.4380007123,
				"element": "C" 
			},
			{
				"x": 5.3050908342,
				"y": -2.8458954379,
				"z": -2.9767293255,
				"element": "C" 
			},
			{
				"x": 6.0969288656,
				"y": -2.1026643465,
				"z": -2.4304632063,
				"element": "O" 
			},
			{
				"x": -2.8065597769,
				"y": 3.069214537,
				"z": -0.6434573299,
				"element": "C" 
			},
			{
				"x": -3.7937753665,
				"y": 3.193333185,
				"z": -1.3333729307,
				"element": "O" 
			},
			{
				"x": -2.1919213348,
				"y": 4.0970776558,
				"z": -0.0217522407,
				"element": "O" 
			},
			{
				"x": -2.7760589504,
				"y": 5.4083383198,
				"z": -0.226682949,
				"element": "C" 
			},
			{
				"x": -1.919140698,
				"y": 6.41278287,
				"z": 0.5184140301,
				"element": "C" 
			},
			{
				"x": -5.0831736581,
				"y": 5.1067649932,
				"z": 2.2902604551,
				"element": "H" 
			},
			{
				"x": -6.8447918228,
				"y": 5.2524845533,
				"z": 2.432186399,
				"element": "H" 
			},
			{
				"x": -5.9551800047,
				"y": 4.1485949484,
				"z": 3.4984888251,
				"element": "H" 
			},
			{
				"x": -7.1143490023,
				"y": 2.8679984779,
				"z": 1.6571327936,
				"element": "H" 
			},
			{
				"x": -6.2543836683,
				"y": 3.8178175415,
				"z": 0.4421907021,
				"element": "H" 
			},
			{
				"x": -3.3128657161,
				"y": 0.8702147386,
				"z": 1.832104152,
				"element": "H" 
			},
			{
				"x": -4.2556672488,
				"y": -0.4734309709,
				"z": 1.1605643227,
				"element": "H" 
			},
			{
				"x": -2.441737889,
				"y": -0.3502632197,
				"z": -0.3230551988,
				"element": "H" 
			},
			{
				"x": -3.7089712465,
				"y": 0.5287324973,
				"z": -1.1847656878,
				"element": "H" 
			},
			{
				"x": -1.5493152002,
				"y": 1.5861169391,
				"z": -1.3980332924,
				"element": "H" 
			},
			{
				"x": -1.0212222748,
				"y": 2.7390081146,
				"z": 1.0370330506,
				"element": "H" 
			},
			{
				"x": 2.6971353402,
				"y": 2.2310021209,
				"z": -1.6821408634,
				"element": "H" 
			},
			{
				"x": 3.3365848832,
				"y": 1.2688565305,
				"z": -0.3188364363,
				"element": "H" 
			},
			{
				"x": 2.1810111305,
				"y": 0.5324326538,
				"z": -1.46583217,
				"element": "H" 
			},
			{
				"x": 0.8329425577,
				"y": 1.919405682,
				"z": 2.6695201206,
				"element": "H" 
			},
			{
				"x": 0.4547012023,
				"y": 0.0239573905,
				"z": 4.2485860275,
				"element": "H" 
			},
			{
				"x": -0.0196714036,
				"y": -1.0153396838,
				"z": 2.889311096,
				"element": "H" 
			},
			{
				"x": -0.9696513608,
				"y": 0.4232680192,
				"z": 3.2618824286,
				"element": "H" 
			},
			{
				"x": 2.9615794866,
				"y": 1.4055314581,
				"z": 2.417864037,
				"element": "H" 
			},
			{
				"x": 2.08253601,
				"y": -2.1892980529,
				"z": 2.9274610882,
				"element": "H" 
			},
			{
				"x": 1.4459838746,
				"y": -1.7392524329,
				"z": 1.3458675472,
				"element": "H" 
			},
			{
				"x": 2.7832220488,
				"y": -3.9222050013,
				"z": 1.4315650867,
				"element": "H" 
			},
			{
				"x": 4.2251330781,
				"y": -2.9558455414,
				"z": 1.7617268962,
				"element": "H" 
			},
			{
				"x": 3.9225539486,
				"y": -1.7596343215,
				"z": -0.4181681097,
				"element": "H" 
			},
			{
				"x": 2.4639232206,
				"y": -2.7093593699,
				"z": -0.7417381958,
				"element": "H" 
			},
			{
				"x": 5.3194709699,
				"y": -3.7955742921,
				"z": -0.4591575613,
				"element": "H" 
			},
			{
				"x": 3.8779068043,
				"y": -4.814887371,
				"z": -0.6743900745,
				"element": "H" 
			},
			{
				"x": 2.8315548842,
				"y": -5.1513675681,
				"z": -5.9390479674,
				"element": "H" 
			},
			{
				"x": 3.8952574952,
				"y": -4.0976281497,
				"z": -7.9521655453,
				"element": "H" 
			},
			{
				"x": 5.6722326258,
				"y": -2.4092822544,
				"z": -7.6924325277,
				"element": "H" 
			},
			{
				"x": 6.4484388244,
				"y": -1.7137068794,
				"z": -5.4101985377,
				"element": "H" 
			},
			{
				"x": -3.8062721749,
				"y": 5.3896476348,
				"z": 0.1398389846,
				"element": "H" 
			},
			{
				"x": -2.8094518549,
				"y": 5.6070770765,
				"z": -1.3017495757,
				"element": "H" 
			},
			{
				"x": -0.8915426471,
				"y": 6.4058665969,
				"z": 0.1439683947,
				"element": "H" 
			},
			{
				"x": -1.8995829458,
				"y": 6.1949324085,
				"z": 1.5903925363,
				"element": "H" 
			},
			{
				"x": -2.3272596335,
				"y": 7.4188294058,
				"z": 0.3815079598,
				"element": "H" 
			}
		],
		 "valence_orbital": [ 
			{
				"type": "occ",
				"energy": -0.26152,
				"method": "rhf"
			},
			{
				"type": "occ",
				"energy": -0.25941,
				"method": "rhf"
			},
			{
				"type": "occ",
				"energy": -0.25758,
				"method": "rhf"
			},
			{
				"type": "occ",
				"energy": -0.25273,
				"method": "rhf"
			},
			{
				"type": "occ",
				"energy": -0.24722,
				"method": "rhf"
			},
			{
				"type": "unocc",
				"energy": -0.07449,
				"method": "rhf"
			},
			{
				"type": "unocc",
				"energy": -0.03471,
				"method": "rhf"
			},
			{
				"type": "unocc",
				"energy": -0.00593,
				"method": "rhf"
			},
			{
				"type": "unocc",
				"energy": 0.01729,
				"method": "rhf"
			},
			{
				"type": "unocc",
				"energy": 0.01788,
				"method": "rhf"
			}
		],
		"cosmo_sigma_profile": { 
			"-0.025": 0.0,
			"-0.024": 0.0,
			"-0.023": 0.0,
			"-0.022": 0.0,
			"-0.021": 0.0,
			"-0.02": 0.0,
			"-0.019": 0.0,
			"-0.018": 0.0,
			"-0.017": 0.0,
			"-0.016": 0.0,
			"-0.015": 0.0445223121903,
			"-0.014": 0.748470482788,
			"-0.013": 1.57510153121,
			"-0.012": 1.94723567556,
			"-0.011": 2.38922767274,
			"-0.01": 1.84171862211,
			"-0.009": 3.36187721686,
			"-0.008": 5.26854240221,
			"-0.007": 12.0554460095,
			"-0.006": 18.9837413643,
			"-0.005": 37.0385015185,
			"-0.004": 67.5863066536,
			"-0.003": 74.7412094379,
			"-0.002": 69.6522016132,
			"-0.001": 59.4047574271,
			"0.0": 51.3578442403,
			"0.001": 36.5247410223,
			"0.002": 30.9339190068,
			"0.003": 20.2972715396,
			"0.004": 13.9363989003,
			"0.005": 13.6519885911,
			"0.006": 10.6118061526,
			"0.007": 10.5939275041,
			"0.008": 10.0448902013,
			"0.009": 10.1314268946,
			"0.01": 12.8665421634,
			"0.011": 17.2583545314,
			"0.012": 13.7296739582,
			"0.013": 7.25810456496,
			"0.014": 4.97512183921,
			"0.015": 0.596377200128,
			"0.016": 0.0,
			"0.017": 0.0,
			"0.018": 0.0,
			"0.019": 0.0,
			"0.02": 0.0,
			"0.021": 0.0,
			"0.022": 0.0,
			"0.023": 0.0,
			"0.024": 0.0,
			"0.025": 0.0
		}
	}
}
