{
	 "smiles": "OC(=O)CC=C", 
	 "Tm": 236.15, 
	 "num_atms": 12, 
	 "gaussian": { 
		 "optdone": 1, 
		 "sigma_profile": "yes", 
		 "theory": "DFT", 
		 "functional": "B3LYP", 
		 "basiset": "6-31G**", 
		 "properties": { 
			 "R2extent": 889.3607, 
			 "electric_dipole_moment_norm": 4.47392176619, 
			 "electric_quadrupole_moment_norm": 7.74011848424, 
			 "total_energy": -306.472691097, 
			 "HOMO_LUMO_gap": 0.24391, 
			 "cosmo_polarized_energy": -11.45, 
			 "cosmo_cavitation_energy": 16.17, 
			 "cosmo_dispersion_energy": -11.75, 
			 "cosmo_repulsion_energy": 1.04, 
			 "cosmo_total_nonelectrostatic_energy": 5.46, 
			 "SMD_solvation_energy": 4.74 
		},
		"coords": [
			{
				"x": -1.0257030314,
				"y": 0.8797365163,
				"z": -1.6859566164,
				"element": "O" 
			},
			{
				"x": -1.3429878343,
				"y": 0.4187649478,
				"z": -0.4530437321,
				"element": "C" 
			},
			{
				"x": -1.873315759,
				"y": 1.1299957375,
				"z": 0.3619333518,
				"element": "O" 
			},
			{
				"x": -1.0259765631,
				"y": -1.0657756447,
				"z": -0.2041909263,
				"element": "C" 
			},
			{
				"x": 0.202332155,
				"y": -1.5583022647,
				"z": -0.9212004059,
				"element": "C" 
			},
			{
				"x": 0.1861798475,
				"y": -2.3560249112,
				"z": -1.9931583654,
				"element": "C" 
			},
			{
				"x": -0.5779406912,
				"y": 0.1743041233,
				"z": -2.1827325253,
				"element": "H" 
			},
			{
				"x": -1.9065429733,
				"y": -1.6351196975,
				"z": -0.52897714,
				"element": "H" 
			},
			{
				"x": -0.9427766879,
				"y": -1.1868031558,
				"z": 0.8790144034,
				"element": "H" 
			},
			{
				"x": 1.1578539653,
				"y": -1.1992301252,
				"z": -0.5392325976,
				"element": "H" 
			},
			{
				"x": -0.7441525783,
				"y": -2.7466409407,
				"z": -2.4001202453,
				"element": "H" 
			},
			{
				"x": 1.1019301508,
				"y": -2.6643045852,
				"z": -2.4884352009,
				"element": "H" 
			}
		],
		 "valence_orbital": [ 
			{
				"type": "occ",
				"energy": -0.37565,
				"method": "rhf"
			},
			{
				"type": "occ",
				"energy": -0.37238,
				"method": "rhf"
			},
			{
				"type": "occ",
				"energy": -0.31216,
				"method": "rhf"
			},
			{
				"type": "occ",
				"energy": -0.30273,
				"method": "rhf"
			},
			{
				"type": "occ",
				"energy": -0.26192,
				"method": "rhf"
			},
			{
				"type": "unocc",
				"energy": -0.01801,
				"method": "rhf"
			},
			{
				"type": "unocc",
				"energy": 0.01484,
				"method": "rhf"
			},
			{
				"type": "unocc",
				"energy": 0.08022,
				"method": "rhf"
			},
			{
				"type": "unocc",
				"energy": 0.10509,
				"method": "rhf"
			},
			{
				"type": "unocc",
				"energy": 0.11266,
				"method": "rhf"
			}
		],
		"cosmo_sigma_profile": { 
			"-0.025": 0.0,
			"-0.024": 0.0,
			"-0.023": 0.0,
			"-0.022": 0.0,
			"-0.021": 0.0,
			"-0.02": 0.0,
			"-0.019": 0.0,
			"-0.018": 0.0,
			"-0.017": 0.0,
			"-0.016": 0.0,
			"-0.015": 0.0,
			"-0.014": 0.193820972184,
			"-0.013": 0.497280025944,
			"-0.012": 0.481473041238,
			"-0.011": 1.15286199533,
			"-0.01": 1.56644392233,
			"-0.009": 1.22310738712,
			"-0.008": 2.21534428163,
			"-0.007": 7.16099719713,
			"-0.006": 12.595223689,
			"-0.005": 11.4523991094,
			"-0.004": 10.424801147,
			"-0.003": 9.28420833433,
			"-0.002": 8.25668982706,
			"-0.001": 7.66629985694,
			"0.0": 5.75309093928,
			"0.001": 4.38043825414,
			"0.002": 4.00532342389,
			"0.003": 3.52509837463,
			"0.004": 3.79264504885,
			"0.005": 3.30648034802,
			"0.006": 1.82001425724,
			"0.007": 2.62450292215,
			"0.008": 2.6958316447,
			"0.009": 3.67997668166,
			"0.01": 4.3665883777,
			"0.011": 5.18005138886,
			"0.012": 5.80437980117,
			"0.013": 2.75603992587,
			"0.014": 0.145172704246,
			"0.015": 0.0,
			"0.016": 0.0,
			"0.017": 0.0,
			"0.018": 0.0,
			"0.019": 0.0,
			"0.02": 0.0,
			"0.021": 0.0,
			"0.022": 0.0,
			"0.023": 0.0,
			"0.024": 0.0,
			"0.025": 0.0
		}
	}
}
