{
	 "smiles": "BrC1=CC=C(C=C1)C(=O)C1=CN=CC=C1", 
	 "Tm": 398.15, 
	 "num_atms": 23, 
	 "gaussian": { 
		 "optdone": 1, 
		 "sigma_profile": "yes", 
		 "theory": "DFT", 
		 "functional": "B3LYP", 
		 "basiset": "6-31G**", 
		 "properties": { 
			 "R2extent": 6603.4654, 
			 "electric_dipole_moment_norm": 1.44071490934, 
			 "electric_quadrupole_moment_norm": 12.4750725349, 
			 "total_energy": -3163.47061514, 
			 "HOMO_LUMO_gap": 0.17303, 
			 "cosmo_polarized_energy": -9.96, 
			 "cosmo_cavitation_energy": 30.37, 
			 "cosmo_dispersion_energy": -22.55, 
			 "cosmo_repulsion_energy": 1.74, 
			 "cosmo_total_nonelectrostatic_energy": 9.57, 
			 "SMD_solvation_energy": 2.96 
		},
		"coords": [
			{
				"x": 1.6832638357,
				"y": 0.5690313023,
				"z": -4.7241880118,
				"element": "Br" 
			},
			{
				"x": 1.4836695247,
				"y": 0.6218941572,
				"z": -2.8280149614,
				"element": "C" 
			},
			{
				"x": 1.7312954544,
				"y": 1.8157229178,
				"z": -2.1461346139,
				"element": "C" 
			},
			{
				"x": 1.5883203864,
				"y": 1.8450548379,
				"z": -0.7637713336,
				"element": "C" 
			},
			{
				"x": 1.1766391378,
				"y": 0.7036735046,
				"z": -0.0562185011,
				"element": "C" 
			},
			{
				"x": 0.942906882,
				"y": -0.4854083746,
				"z": -0.7635876766,
				"element": "C" 
			},
			{
				"x": 1.099963737,
				"y": -0.5329441232,
				"z": -2.148482403,
				"element": "C" 
			},
			{
				"x": 1.0931354558,
				"y": 0.8046816441,
				"z": 1.4359677977,
				"element": "C" 
			},
			{
				"x": 1.7572274515,
				"y": 1.6470290189,
				"z": 2.0305077181,
				"element": "O" 
			},
			{
				"x": 0.2028292105,
				"y": -0.1137750944,
				"z": 2.2186545671,
				"element": "C" 
			},
			{
				"x": -0.9985230182,
				"y": -0.6470002749,
				"z": 1.7267717114,
				"element": "C" 
			},
			{
				"x": -1.8260133887,
				"y": -1.4128345516,
				"z": 2.4477100673,
				"element": "N" 
			},
			{
				"x": -1.4717203051,
				"y": -1.6810670112,
				"z": 3.7097883026,
				"element": "C" 
			},
			{
				"x": -0.3104952899,
				"y": -1.1854333064,
				"z": 4.3111324317,
				"element": "C" 
			},
			{
				"x": 0.5321509269,
				"y": -0.3800810211,
				"z": 3.5560447099,
				"element": "C" 
			},
			{
				"x": 2.0349995658,
				"y": 2.7016500259,
				"z": -2.6918937856,
				"element": "H" 
			},
			{
				"x": 1.7943160763,
				"y": 2.7527842479,
				"z": -0.2067146276,
				"element": "H" 
			},
			{
				"x": 0.6630279168,
				"y": -1.3905531985,
				"z": -0.2357147387,
				"element": "H" 
			},
			{
				"x": 0.9297634532,
				"y": -1.455095409,
				"z": -2.6919460327,
				"element": "H" 
			},
			{
				"x": -1.3235741393,
				"y": -0.4247003835,
				"z": 0.7131873495,
				"element": "H" 
			},
			{
				"x": -2.1517876263,
				"y": -2.3191423833,
				"z": 4.2715611007,
				"element": "H" 
			},
			{
				"x": -0.0835364633,
				"y": -1.425273608,
				"z": 5.3450572434,
				"element": "H" 
			},
			{
				"x": 1.437441216,
				"y": 0.0523870832,
				"z": 3.9696836868,
				"element": "H" 
			}
		],
		 "valence_orbital": [ 
			{
				"type": "occ",
				"energy": -0.28032,
				"method": "rhf"
			},
			{
				"type": "occ",
				"energy": -0.27678,
				"method": "rhf"
			},
			{
				"type": "occ",
				"energy": -0.27214,
				"method": "rhf"
			},
			{
				"type": "occ",
				"energy": -0.25817,
				"method": "rhf"
			},
			{
				"type": "occ",
				"energy": -0.25282,
				"method": "rhf"
			},
			{
				"type": "unocc",
				"energy": -0.07979,
				"method": "rhf"
			},
			{
				"type": "unocc",
				"energy": -0.03567,
				"method": "rhf"
			},
			{
				"type": "unocc",
				"energy": -0.03165,
				"method": "rhf"
			},
			{
				"type": "unocc",
				"energy": -0.02376,
				"method": "rhf"
			},
			{
				"type": "unocc",
				"energy": -0.00136,
				"method": "rhf"
			}
		],
		"cosmo_sigma_profile": { 
			"-0.025": 0.0,
			"-0.024": 0.0,
			"-0.023": 0.0,
			"-0.022": 0.0,
			"-0.021": 0.0,
			"-0.02": 0.0,
			"-0.019": 0.0,
			"-0.018": 0.0,
			"-0.017": 0.0,
			"-0.016": 0.0,
			"-0.015": 0.0,
			"-0.014": 0.0,
			"-0.013": 0.0,
			"-0.012": 0.0,
			"-0.011": 0.0,
			"-0.01": 0.0,
			"-0.009": 0.0,
			"-0.008": 2.77039625354,
			"-0.007": 12.4217078864,
			"-0.006": 17.4302085379,
			"-0.005": 17.6950040073,
			"-0.004": 14.795176346,
			"-0.003": 16.2798608592,
			"-0.002": 15.4727704842,
			"-0.001": 15.6895531838,
			"0.0": 21.61240718,
			"0.001": 29.9257170766,
			"0.002": 26.3950899606,
			"0.003": 13.6631330315,
			"0.004": 15.1140584898,
			"0.005": 3.59362544069,
			"0.006": 2.98755226848,
			"0.007": 3.7891731137,
			"0.008": 1.96054261205,
			"0.009": 2.24546460994,
			"0.01": 4.28986469991,
			"0.011": 4.35097373006,
			"0.012": 2.9103071102,
			"0.013": 1.1695525216,
			"0.014": 0.599277759832,
			"0.015": 0.940666854717,
			"0.016": 0.550814155009,
			"0.017": 0.0,
			"0.018": 0.0,
			"0.019": 0.0,
			"0.02": 0.0,
			"0.021": 0.0,
			"0.022": 0.0,
			"0.023": 0.0,
			"0.024": 0.0,
			"0.025": 0.0
		}
	}
}
