{
	 "smiles": "CCN1CCCC1CN1CC(CC1=O)C(O)=O", 
	 "Tm": 440.15, 
	 "num_atms": 37, 
	 "gaussian": { 
		 "optdone": 1, 
		 "sigma_profile": "yes", 
		 "theory": "DFT", 
		 "functional": "B3LYP", 
		 "basiset": "6-31G**", 
		 "properties": { 
			 "R2extent": 5741.845, 
			 "electric_dipole_moment_norm": 5.89463364341, 
			 "electric_quadrupole_moment_norm": 22.4326047201, 
			 "total_energy": -804.525892605, 
			 "HOMO_LUMO_gap": 0.21616, 
			 "cosmo_polarized_energy": -20.88, 
			 "cosmo_cavitation_energy": 37.38, 
			 "cosmo_dispersion_energy": -25.43, 
			 "cosmo_repulsion_energy": 1.99, 
			 "cosmo_total_nonelectrostatic_energy": 13.94, 
			 "SMD_solvation_energy": 6.89 
		},
		"coords": [
			{
				"x": -1.0311247408,
				"y": -1.5646398468,
				"z": -3.5526563771,
				"element": "C" 
			},
			{
				"x": 0.2495546592,
				"y": -1.4600766029,
				"z": -2.7241173274,
				"element": "C" 
			},
			{
				"x": 0.1129460899,
				"y": -0.5834755044,
				"z": -1.5539463526,
				"element": "N" 
			},
			{
				"x": 1.2324801436,
				"y": -0.7034190133,
				"z": -0.5913839007,
				"element": "C" 
			},
			{
				"x": 2.1156543832,
				"y": 0.5326244958,
				"z": -0.8070775628,
				"element": "C" 
			},
			{
				"x": 1.0627668819,
				"y": 1.609940957,
				"z": -1.0902818992,
				"element": "C" 
			},
			{
				"x": -0.0258875063,
				"y": 0.8610162357,
				"z": -1.8978053304,
				"element": "C" 
			},
			{
				"x": -1.4447430309,
				"y": 1.4045073828,
				"z": -1.6456708821,
				"element": "C" 
			},
			{
				"x": -1.9124716692,
				"y": 1.2429295095,
				"z": -0.2774835368,
				"element": "N" 
			},
			{
				"x": -2.5662159369,
				"y": 0.0256886035,
				"z": 0.1815419063,
				"element": "C" 
			},
			{
				"x": -2.7633822436,
				"y": 0.289694789,
				"z": 1.7037420692,
				"element": "C" 
			},
			{
				"x": -2.8342669428,
				"y": 1.8163650153,
				"z": 1.8031322941,
				"element": "C" 
			},
			{
				"x": -2.0836312658,
				"y": 2.3148605058,
				"z": 0.57035779,
				"element": "C" 
			},
			{
				"x": -1.7057176254,
				"y": 3.4550266811,
				"z": 0.3509972285,
				"element": "O" 
			},
			{
				"x": -3.9882339735,
				"y": -0.4343492226,
				"z": 2.2477109362,
				"element": "C" 
			},
			{
				"x": -3.8755744388,
				"y": -1.7898572709,
				"z": 2.3017584258,
				"element": "O" 
			},
			{
				"x": -5.0131988929,
				"y": 0.1002730564,
				"z": 2.5867538701,
				"element": "O" 
			},
			{
				"x": -0.893203937,
				"y": -2.2794377374,
				"z": -4.3705803319,
				"element": "H" 
			},
			{
				"x": -1.8666527799,
				"y": -1.9054480266,
				"z": -2.9330245244,
				"element": "H" 
			},
			{
				"x": -1.309570122,
				"y": -0.6061781918,
				"z": -4.0020134691,
				"element": "H" 
			},
			{
				"x": 0.50687773,
				"y": -2.459557824,
				"z": -2.3568314402,
				"element": "H" 
			},
			{
				"x": 1.0803005999,
				"y": -1.1424129595,
				"z": -3.384477329,
				"element": "H" 
			},
			{
				"x": 0.8370497976,
				"y": -0.6993394224,
				"z": 0.4348777969,
				"element": "H" 
			},
			{
				"x": 1.7611780839,
				"y": -1.6511288592,
				"z": -0.7305411106,
				"element": "H" 
			},
			{
				"x": 2.7531719476,
				"y": 0.763005061,
				"z": 0.0520784922,
				"element": "H" 
			},
			{
				"x": 2.76668529,
				"y": 0.3867178993,
				"z": -1.6776234611,
				"element": "H" 
			},
			{
				"x": 0.6425461166,
				"y": 1.9904121717,
				"z": -0.153954588,
				"element": "H" 
			},
			{
				"x": 1.4510057476,
				"y": 2.4706148943,
				"z": -1.641837644,
				"element": "H" 
			},
			{
				"x": 0.1746091801,
				"y": 0.9951505442,
				"z": -2.9730878041,
				"element": "H" 
			},
			{
				"x": -1.4598549843,
				"y": 2.4788007229,
				"z": -1.8568661488,
				"element": "H" 
			},
			{
				"x": -2.1580066866,
				"y": 0.912895022,
				"z": -2.318210459,
				"element": "H" 
			},
			{
				"x": -1.9392997476,
				"y": -0.8427148361,
				"z": -0.0355841232,
				"element": "H" 
			},
			{
				"x": -3.5348715531,
				"y": -0.1143713537,
				"z": -0.3248984904,
				"element": "H" 
			},
			{
				"x": -1.8747787074,
				"y": -0.0760664627,
				"z": 2.2349586636,
				"element": "H" 
			},
			{
				"x": -3.8755923108,
				"y": 2.153712865,
				"z": 1.754786599,
				"element": "H" 
			},
			{
				"x": -2.3987871449,
				"y": 2.2253951166,
				"z": 2.7166455405,
				"element": "H" 
			},
			{
				"x": -2.9934604105,
				"y": -2.0660583946,
				"z": 2.0146124805,
				"element": "H" 
			}
		],
		 "valence_orbital": [ 
			{
				"type": "occ",
				"energy": -0.32368,
				"method": "rhf"
			},
			{
				"type": "occ",
				"energy": -0.2796,
				"method": "rhf"
			},
			{
				"type": "occ",
				"energy": -0.24984,
				"method": "rhf"
			},
			{
				"type": "occ",
				"energy": -0.24588,
				"method": "rhf"
			},
			{
				"type": "occ",
				"energy": -0.21655,
				"method": "rhf"
			},
			{
				"type": "unocc",
				"energy": -0.00039,
				"method": "rhf"
			},
			{
				"type": "unocc",
				"energy": 0.02613,
				"method": "rhf"
			},
			{
				"type": "unocc",
				"energy": 0.03895,
				"method": "rhf"
			},
			{
				"type": "unocc",
				"energy": 0.07189,
				"method": "rhf"
			},
			{
				"type": "unocc",
				"energy": 0.08178,
				"method": "rhf"
			}
		],
		"cosmo_sigma_profile": { 
			"-0.025": 0.0,
			"-0.024": 0.0,
			"-0.023": 0.0,
			"-0.022": 0.0,
			"-0.021": 0.0,
			"-0.02": 0.0,
			"-0.019": 0.498198340752,
			"-0.018": 0.928227157896,
			"-0.017": 1.51891897762,
			"-0.016": 0.956123059391,
			"-0.015": 0.909870151036,
			"-0.014": 1.59373794292,
			"-0.013": 0.876060084997,
			"-0.012": 0.872626578666,
			"-0.011": 1.46817132765,
			"-0.01": 1.11292643456,
			"-0.009": 1.3238904185,
			"-0.008": 1.91858463803,
			"-0.007": 3.18786740977,
			"-0.006": 8.37461154918,
			"-0.005": 12.578299231,
			"-0.004": 19.1992786277,
			"-0.003": 30.8014902842,
			"-0.002": 38.1018127205,
			"-0.001": 39.7056195112,
			"0.0": 29.0934603203,
			"0.001": 21.5066407664,
			"0.002": 8.66511504302,
			"0.003": 6.01586387053,
			"0.004": 5.00543825099,
			"0.005": 5.55324422159,
			"0.006": 4.53931450156,
			"0.007": 5.21911952535,
			"0.008": 4.53530517317,
			"0.009": 4.67965181862,
			"0.01": 6.16408599938,
			"0.011": 7.7668910189,
			"0.012": 5.2946640103,
			"0.013": 3.76481975114,
			"0.014": 5.10559061441,
			"0.015": 1.36174595263,
			"0.016": 0.0333152070439,
			"0.017": 0.0,
			"0.018": 0.0,
			"0.019": 0.0,
			"0.02": 0.0,
			"0.021": 0.0,
			"0.022": 0.0,
			"0.023": 0.0,
			"0.024": 0.0,
			"0.025": 0.0
		}
	}
}
