{
	 "smiles": "CC(=O)NCCCCCCNC(C)=O", 
	 "Tm": 401.15, 
	 "num_atms": 34, 
	 "gaussian": { 
		 "optdone": 1, 
		 "sigma_profile": "yes", 
		 "theory": "DFT", 
		 "functional": "B3LYP", 
		 "basiset": "6-31G**", 
		 "properties": { 
			 "R2extent": 5660.8197, 
			 "electric_dipole_moment_norm": 5.50240181103, 
			 "electric_quadrupole_moment_norm": 26.4243152532, 
			 "total_energy": -653.116836085, 
			 "HOMO_LUMO_gap": 0.26971, 
			 "cosmo_polarized_energy": -21.88, 
			 "cosmo_cavitation_energy": 36.7, 
			 "cosmo_dispersion_energy": -24.84, 
			 "cosmo_repulsion_energy": 2.03, 
			 "cosmo_total_nonelectrostatic_energy": 13.89, 
			 "SMD_solvation_energy": 6.98 
		},
		"coords": [
			{
				"x": 2.7713351984,
				"y": 1.2917707411,
				"z": -4.5422629383,
				"element": "C" 
			},
			{
				"x": 1.5263076458,
				"y": 0.4960863675,
				"z": -4.1757171668,
				"element": "C" 
			},
			{
				"x": 0.503030598,
				"y": 0.5457866286,
				"z": -4.8479812816,
				"element": "O" 
			},
			{
				"x": 1.628707296,
				"y": -0.2810812985,
				"z": -3.054149985,
				"element": "N" 
			},
			{
				"x": 0.5124471764,
				"y": -1.0927281354,
				"z": -2.5798092784,
				"element": "C" 
			},
			{
				"x": -0.5009392622,
				"y": -0.314801245,
				"z": -1.7232195768,
				"element": "C" 
			},
			{
				"x": 0.0610068125,
				"y": 0.2947026382,
				"z": -0.4290409491,
				"element": "C" 
			},
			{
				"x": 0.4930290743,
				"y": -0.7356494465,
				"z": 0.6255531301,
				"element": "C" 
			},
			{
				"x": 1.0413460378,
				"y": -0.1199982534,
				"z": 1.9234178824,
				"element": "C" 
			},
			{
				"x": 0.0011652699,
				"y": 0.6030806589,
				"z": 2.7938597048,
				"element": "C" 
			},
			{
				"x": -1.0221782661,
				"y": -0.3093242035,
				"z": 3.2838564749,
				"element": "N" 
			},
			{
				"x": -2.3614758494,
				"y": -0.0774982071,
				"z": 3.4885347888,
				"element": "C" 
			},
			{
				"x": -2.9308782484,
				"y": 1.2318578798,
				"z": 2.9622872694,
				"element": "C" 
			},
			{
				"x": -3.0600879042,
				"y": -0.906454142,
				"z": 4.0578966018,
				"element": "O" 
			},
			{
				"x": 3.6177599015,
				"y": 1.1302953455,
				"z": -3.8684502298,
				"element": "H" 
			},
			{
				"x": 3.0704426925,
				"y": 1.0237268331,
				"z": -5.5590536162,
				"element": "H" 
			},
			{
				"x": 2.5200881487,
				"y": 2.3560314588,
				"z": -4.5481853997,
				"element": "H" 
			},
			{
				"x": 2.4847014236,
				"y": -0.2642056263,
				"z": -2.5228162491,
				"element": "H" 
			},
			{
				"x": 0.9272360607,
				"y": -1.9436103624,
				"z": -2.0295921961,
				"element": "H" 
			},
			{
				"x": 0.0009602308,
				"y": -1.4847142542,
				"z": -3.4630053614,
				"element": "H" 
			},
			{
				"x": -1.3307902379,
				"y": -0.992317866,
				"z": -1.4804822785,
				"element": "H" 
			},
			{
				"x": -0.9184440738,
				"y": 0.4795722634,
				"z": -2.3509376171,
				"element": "H" 
			},
			{
				"x": -0.7065437425,
				"y": 0.9540311751,
				"z": -0.0047641359,
				"element": "H" 
			},
			{
				"x": 0.9111904172,
				"y": 0.946684441,
				"z": -0.6752581189,
				"element": "H" 
			},
			{
				"x": -0.3558586498,
				"y": -1.3876775277,
				"z": 0.8680362236,
				"element": "H" 
			},
			{
				"x": 1.2684660943,
				"y": -1.3892891405,
				"z": 0.2060892758,
				"element": "H" 
			},
			{
				"x": 1.5101153755,
				"y": -0.9075961511,
				"z": 2.5293269505,
				"element": "H" 
			},
			{
				"x": 1.8413230372,
				"y": 0.594949313,
				"z": 1.6891719483,
				"element": "H" 
			},
			{
				"x": -0.4860097728,
				"y": 1.3942978998,
				"z": 2.2200116132,
				"element": "H" 
			},
			{
				"x": 0.5191185252,
				"y": 1.0961680751,
				"z": 3.6308467276,
				"element": "H" 
			},
			{
				"x": -0.7078403435,
				"y": -1.1666753949,
				"z": 3.722668206,
				"element": "H" 
			},
			{
				"x": -2.7742608435,
				"y": 1.3371976786,
				"z": 1.8834788753,
				"element": "H" 
			},
			{
				"x": -4.0005203889,
				"y": 1.2332551626,
				"z": 3.1693218512,
				"element": "H" 
			},
			{
				"x": -2.4701494334,
				"y": 2.0964266945,
				"z": 3.4520688549,
				"element": "H" 
			}
		],
		 "valence_orbital": [ 
			{
				"type": "occ",
				"energy": -0.32183,
				"method": "rhf"
			},
			{
				"type": "occ",
				"energy": -0.25132,
				"method": "rhf"
			},
			{
				"type": "occ",
				"energy": -0.24674,
				"method": "rhf"
			},
			{
				"type": "occ",
				"energy": -0.24362,
				"method": "rhf"
			},
			{
				"type": "occ",
				"energy": -0.24009,
				"method": "rhf"
			},
			{
				"type": "unocc",
				"energy": 0.02962,
				"method": "rhf"
			},
			{
				"type": "unocc",
				"energy": 0.03152,
				"method": "rhf"
			},
			{
				"type": "unocc",
				"energy": 0.05439,
				"method": "rhf"
			},
			{
				"type": "unocc",
				"energy": 0.07126,
				"method": "rhf"
			},
			{
				"type": "unocc",
				"energy": 0.08559,
				"method": "rhf"
			}
		],
		"cosmo_sigma_profile": { 
			"-0.025": 0.0,
			"-0.024": 0.0,
			"-0.023": 0.0,
			"-0.022": 0.0,
			"-0.021": 0.0,
			"-0.02": 0.0,
			"-0.019": 0.0,
			"-0.018": 0.0,
			"-0.017": 0.0,
			"-0.016": 0.0,
			"-0.015": 0.0,
			"-0.014": 0.32069089268,
			"-0.013": 1.06619071261,
			"-0.012": 2.7426861177,
			"-0.011": 2.09611921503,
			"-0.01": 2.00212075202,
			"-0.009": 2.57734652306,
			"-0.008": 2.87929675253,
			"-0.007": 3.07716625622,
			"-0.006": 5.70747161684,
			"-0.005": 17.9457755095,
			"-0.004": 22.7115987492,
			"-0.003": 31.4959383101,
			"-0.002": 38.0062856934,
			"-0.001": 42.7891941183,
			"0.0": 28.277960666,
			"0.001": 16.6410847265,
			"0.002": 8.3016835646,
			"0.003": 5.65028262375,
			"0.004": 4.57126862685,
			"0.005": 2.82664560271,
			"0.006": 2.71808393776,
			"0.007": 2.39368318922,
			"0.008": 3.24882321815,
			"0.009": 4.05331924574,
			"0.01": 1.27016032269,
			"0.011": 2.70848764806,
			"0.012": 2.90457425193,
			"0.013": 4.31280515327,
			"0.014": 10.2981726383,
			"0.015": 7.62487617384,
			"0.016": 1.16741113028,
			"0.017": 0.0,
			"0.018": 0.0,
			"0.019": 0.0,
			"0.02": 0.0,
			"0.021": 0.0,
			"0.022": 0.0,
			"0.023": 0.0,
			"0.024": 0.0,
			"0.025": 0.0
		}
	}
}
