{
	 "smiles": "CS(=O)(=O)NC1=CC(O)=CC=C1", 
	 "Tm": 367.15, 
	 "num_atms": 21, 
	 "gaussian": { 
		 "optdone": 1, 
		 "sigma_profile": "yes", 
		 "theory": "DFT", 
		 "functional": "B3LYP", 
		 "basiset": "6-31G**", 
		 "properties": { 
			 "R2extent": 2716.5234, 
			 "electric_dipole_moment_norm": 3.70032125903, 
			 "electric_quadrupole_moment_norm": 12.7605452877, 
			 "total_energy": -950.710355088, 
			 "HOMO_LUMO_gap": 0.21213, 
			 "cosmo_polarized_energy": -19.08, 
			 "cosmo_cavitation_energy": 26.32, 
			 "cosmo_dispersion_energy": -19.72, 
			 "cosmo_repulsion_energy": 1.53, 
			 "cosmo_total_nonelectrostatic_energy": 8.12, 
			 "SMD_solvation_energy": 4.53 
		},
		"coords": [
			{
				"x": -0.2605261773,
				"y": -2.9243437104,
				"z": -1.0188781684,
				"element": "C" 
			},
			{
				"x": 0.766484423,
				"y": -2.0834801586,
				"z": 0.2056052868,
				"element": "S" 
			},
			{
				"x": 1.8570727368,
				"y": -1.4338424993,
				"z": -0.5208629832,
				"element": "O" 
			},
			{
				"x": 1.0172405263,
				"y": -2.999713424,
				"z": 1.3169486908,
				"element": "O" 
			},
			{
				"x": -0.223144158,
				"y": -0.8822150744,
				"z": 0.8678496988,
				"element": "N" 
			},
			{
				"x": -0.8871905142,
				"y": 0.1182360213,
				"z": 0.1085340264,
				"element": "C" 
			},
			{
				"x": -0.2011047692,
				"y": 0.8363363751,
				"z": -0.879631071,
				"element": "C" 
			},
			{
				"x": -0.8730228627,
				"y": 1.831326327,
				"z": -1.5954101007,
				"element": "C" 
			},
			{
				"x": -0.2572715798,
				"y": 2.5549654827,
				"z": -2.5732228922,
				"element": "O" 
			},
			{
				"x": -2.2117211501,
				"y": 2.1345472135,
				"z": -1.3184120207,
				"element": "C" 
			},
			{
				"x": -2.8717358188,
				"y": 1.423406202,
				"z": -0.3210254164,
				"element": "C" 
			},
			{
				"x": -2.2289627981,
				"y": 0.4076611627,
				"z": 0.3883281931,
				"element": "C" 
			},
			{
				"x": -1.0876047206,
				"y": -3.4190323166,
				"z": -0.5083439999,
				"element": "H" 
			},
			{
				"x": 0.3760730087,
				"y": -3.658312446,
				"z": -1.515710131,
				"element": "H" 
			},
			{
				"x": -0.6242437205,
				"y": -2.1889402075,
				"z": -1.7379130148,
				"element": "H" 
			},
			{
				"x": -0.7411019592,
				"y": -1.2549479675,
				"z": 1.6561474058,
				"element": "H" 
			},
			{
				"x": 0.846248732,
				"y": 0.6243253382,
				"z": -1.0677444347,
				"element": "H" 
			},
			{
				"x": 0.6611161165,
				"y": 2.2651861681,
				"z": -2.653823936,
				"element": "H" 
			},
			{
				"x": -2.7036469571,
				"y": 2.9197349664,
				"z": -1.881467585,
				"element": "H" 
			},
			{
				"x": -3.9092324776,
				"y": 1.6537987488,
				"z": -0.0975026354,
				"element": "H" 
			},
			{
				"x": -2.75962588,
				"y": -0.1525962015,
				"z": 1.1529350877,
				"element": "H" 
			}
		],
		 "valence_orbital": [ 
			{
				"type": "occ",
				"energy": -0.31442,
				"method": "rhf"
			},
			{
				"type": "occ",
				"energy": -0.3115,
				"method": "rhf"
			},
			{
				"type": "occ",
				"energy": -0.3056,
				"method": "rhf"
			},
			{
				"type": "occ",
				"energy": -0.24598,
				"method": "rhf"
			},
			{
				"type": "occ",
				"energy": -0.22628,
				"method": "rhf"
			},
			{
				"type": "unocc",
				"energy": -0.01415,
				"method": "rhf"
			},
			{
				"type": "unocc",
				"energy": 0.00036,
				"method": "rhf"
			},
			{
				"type": "unocc",
				"energy": 0.05703,
				"method": "rhf"
			},
			{
				"type": "unocc",
				"energy": 0.06549,
				"method": "rhf"
			},
			{
				"type": "unocc",
				"energy": 0.07144,
				"method": "rhf"
			}
		],
		"cosmo_sigma_profile": { 
			"-0.025": 0.0,
			"-0.024": 0.0,
			"-0.023": 0.0,
			"-0.022": 0.0,
			"-0.021": 0.0,
			"-0.02": 0.0,
			"-0.019": 0.0115202205628,
			"-0.018": 0.58717929653,
			"-0.017": 1.06664637169,
			"-0.016": 1.58511960707,
			"-0.015": 1.67592918825,
			"-0.014": 2.01758313272,
			"-0.013": 2.36678935382,
			"-0.012": 2.15565084691,
			"-0.011": 2.59241946689,
			"-0.01": 2.48342219521,
			"-0.009": 5.25486040681,
			"-0.008": 6.49456353761,
			"-0.007": 7.69615184294,
			"-0.006": 10.3192437027,
			"-0.005": 13.9342659375,
			"-0.004": 12.911660135,
			"-0.003": 11.5708793294,
			"-0.002": 8.34805774682,
			"-0.001": 6.0772365767,
			"0.0": 8.05346161242,
			"0.001": 7.46190503554,
			"0.002": 8.93554091976,
			"0.003": 11.2615243615,
			"0.004": 15.1194980638,
			"0.005": 13.5617119412,
			"0.006": 6.0880620461,
			"0.007": 5.33350981625,
			"0.008": 5.36699021474,
			"0.009": 5.42534045395,
			"0.01": 8.21472489096,
			"0.011": 12.4041421298,
			"0.012": 2.95136983496,
			"0.013": 0.0,
			"0.014": 0.0,
			"0.015": 0.0,
			"0.016": 0.0,
			"0.017": 0.0,
			"0.018": 0.0,
			"0.019": 0.0,
			"0.02": 0.0,
			"0.021": 0.0,
			"0.022": 0.0,
			"0.023": 0.0,
			"0.024": 0.0,
			"0.025": 0.0
		}
	}
}
