{
	 "smiles": "NS(=O)(=O)C1=C(C=CC=C1Cl)C(F)(F)F", 
	 "Tm": 429.15, 
	 "num_atms": 20, 
	 "gaussian": { 
		 "optdone": 1, 
		 "sigma_profile": "yes", 
		 "theory": "DFT", 
		 "functional": "B3LYP", 
		 "basiset": "6-31G**", 
		 "properties": { 
			 "R2extent": 4259.5314, 
			 "electric_dipole_moment_norm": 4.19023936548, 
			 "electric_quadrupole_moment_norm": 18.425807232, 
			 "total_energy": -1632.76874772, 
			 "HOMO_LUMO_gap": 0.20674, 
			 "cosmo_polarized_energy": -15.44, 
			 "cosmo_cavitation_energy": 27.72, 
			 "cosmo_dispersion_energy": -21.04, 
			 "cosmo_repulsion_energy": 1.53, 
			 "cosmo_total_nonelectrostatic_energy": 8.21, 
			 "SMD_solvation_energy": 5.14 
		},
		"coords": [
			{
				"x": 3.1877789188,
				"y": 1.9489881866,
				"z": -0.0955722242,
				"element": "N" 
			},
			{
				"x": 1.576260815,
				"y": 2.3275314169,
				"z": -0.4079708453,
				"element": "S" 
			},
			{
				"x": 1.4087563046,
				"y": 3.7219143026,
				"z": -0.016648972,
				"element": "O" 
			},
			{
				"x": 1.1679596939,
				"y": 1.8910518841,
				"z": -1.7400083703,
				"element": "O" 
			},
			{
				"x": 0.707937226,
				"y": 1.230582091,
				"z": 0.777954922,
				"element": "C" 
			},
			{
				"x": 0.3595998816,
				"y": -0.0974171961,
				"z": 0.4186308166,
				"element": "C" 
			},
			{
				"x": -0.4437770605,
				"y": -0.8618021707,
				"z": 1.2671037071,
				"element": "C" 
			},
			{
				"x": -0.8956353028,
				"y": -0.3497579673,
				"z": 2.479549719,
				"element": "C" 
			},
			{
				"x": -0.4987121423,
				"y": 0.9157284777,
				"z": 2.8790369166,
				"element": "C" 
			},
			{
				"x": 0.312713917,
				"y": 1.6960680733,
				"z": 2.0472509019,
				"element": "C" 
			},
			{
				"x": 0.812449781,
				"y": 3.2228834339,
				"z": 2.7368253284,
				"element": "Cl" 
			},
			{
				"x": 0.8380412829,
				"y": -0.8242987952,
				"z": -0.8365887093,
				"element": "C" 
			},
			{
				"x": 0.1031823,
				"y": -0.5556261748,
				"z": -1.9206165532,
				"element": "F" 
			},
			{
				"x": 2.1391287031,
				"y": -0.5637635897,
				"z": -1.1158560713,
				"element": "F" 
			},
			{
				"x": 0.7707071531,
				"y": -2.1650432093,
				"z": -0.6492730161,
				"element": "F" 
			},
			{
				"x": 3.5222765012,
				"y": 1.2249797842,
				"z": -0.7250375468,
				"element": "H" 
			},
			{
				"x": 3.7399322461,
				"y": 2.8010688947,
				"z": -0.1479241893,
				"element": "H" 
			},
			{
				"x": -0.7000020008,
				"y": -1.8723735506,
				"z": 0.9778603695,
				"element": "H" 
			},
			{
				"x": -1.5306734098,
				"y": -0.9500680875,
				"z": 3.1228608671,
				"element": "H" 
			},
			{
				"x": -0.7986248082,
				"y": 1.3189541962,
				"z": 3.8394229497,
				"element": "H" 
			}
		],
		 "valence_orbital": [ 
			{
				"type": "occ",
				"energy": -0.31669,
				"method": "rhf"
			},
			{
				"type": "occ",
				"energy": -0.31255,
				"method": "rhf"
			},
			{
				"type": "occ",
				"energy": -0.29717,
				"method": "rhf"
			},
			{
				"type": "occ",
				"energy": -0.28648,
				"method": "rhf"
			},
			{
				"type": "occ",
				"energy": -0.27269,
				"method": "rhf"
			},
			{
				"type": "unocc",
				"energy": -0.06595,
				"method": "rhf"
			},
			{
				"type": "unocc",
				"energy": -0.04706,
				"method": "rhf"
			},
			{
				"type": "unocc",
				"energy": 0.00259,
				"method": "rhf"
			},
			{
				"type": "unocc",
				"energy": 0.05696,
				"method": "rhf"
			},
			{
				"type": "unocc",
				"energy": 0.06846,
				"method": "rhf"
			}
		],
		"cosmo_sigma_profile": { 
			"-0.025": 0.0,
			"-0.024": 0.0,
			"-0.023": 0.0,
			"-0.022": 0.0,
			"-0.021": 0.0,
			"-0.02": 0.0,
			"-0.019": 0.0,
			"-0.018": 0.0,
			"-0.017": 0.0,
			"-0.016": 0.150264490875,
			"-0.015": 1.66589518217,
			"-0.014": 2.23099450597,
			"-0.013": 2.21638717069,
			"-0.012": 2.16333175145,
			"-0.011": 2.38490687805,
			"-0.01": 1.90028150976,
			"-0.009": 2.73609071315,
			"-0.008": 8.18645161306,
			"-0.007": 8.0723177517,
			"-0.006": 6.66807552411,
			"-0.005": 7.15077992869,
			"-0.004": 7.63835877442,
			"-0.003": 9.85350407431,
			"-0.002": 12.9120153297,
			"-0.001": 22.4735238733,
			"0.0": 19.2369319272,
			"0.001": 17.8024817709,
			"0.002": 24.9825117538,
			"0.003": 16.6734600576,
			"0.004": 7.82739987932,
			"0.005": 4.12283743492,
			"0.006": 3.99173142445,
			"0.007": 4.80485105696,
			"0.008": 4.63818194141,
			"0.009": 6.26041948598,
			"0.01": 9.40652676023,
			"0.011": 6.70413292571,
			"0.012": 0.0480493831538,
			"0.013": 0.0,
			"0.014": 0.0,
			"0.015": 0.0,
			"0.016": 0.0,
			"0.017": 0.0,
			"0.018": 0.0,
			"0.019": 0.0,
			"0.02": 0.0,
			"0.021": 0.0,
			"0.022": 0.0,
			"0.023": 0.0,
			"0.024": 0.0,
			"0.025": 0.0
		}
	}
}
