{
	 "smiles": "[O-][N+](=O)C1=CC=C(C=C1)C1=NN=C(O1)C1=CC=C(C=C1)[N+]([O-])=O", 
	 "Tm": 584.15, 
	 "num_atms": 31, 
	 "gaussian": { 
		 "optdone": 1, 
		 "sigma_profile": "yes", 
		 "theory": "DFT", 
		 "functional": "B3LYP", 
		 "basiset": "6-31G**", 
		 "properties": { 
			 "R2extent": 13749.4563, 
			 "electric_dipole_moment_norm": 0.0469873387201, 
			 "electric_quadrupole_moment_norm": 45.5360680102, 
			 "total_energy": -1133.21591705, 
			 "HOMO_LUMO_gap": 0.14363, 
			 "cosmo_polarized_energy": -17.99, 
			 "cosmo_cavitation_energy": 39.48, 
			 "cosmo_dispersion_energy": -28.67, 
			 "cosmo_repulsion_energy": 2.11, 
			 "cosmo_total_nonelectrostatic_energy": 12.91, 
			 "SMD_solvation_energy": 9.68 
		},
		"coords": [
			{
				"x": 4.6964158842,
				"y": 1.4944763722,
				"z": -3.5610125663,
				"element": "O" 
			},
			{
				"x": 4.8613260747,
				"y": 0.590430843,
				"z": -2.7432507846,
				"element": "N" 
			},
			{
				"x": 5.8840529848,
				"y": -0.0834388297,
				"z": -2.632462466,
				"element": "O" 
			},
			{
				"x": 3.7482188645,
				"y": 0.2922347385,
				"z": -1.8258019644,
				"element": "C" 
			},
			{
				"x": 2.5758635461,
				"y": 1.03855012,
				"z": -1.9262283973,
				"element": "C" 
			},
			{
				"x": 1.5263142127,
				"y": 0.7555962715,
				"z": -1.0593334495,
				"element": "C" 
			},
			{
				"x": 1.6573797183,
				"y": -0.2661575258,
				"z": -0.1041723272,
				"element": "C" 
			},
			{
				"x": 2.8511801358,
				"y": -1.0056077497,
				"z": -0.0225721542,
				"element": "C" 
			},
			{
				"x": 3.9024212134,
				"y": -0.7271525403,
				"z": -0.8858915624,
				"element": "C" 
			},
			{
				"x": 0.572007813,
				"y": -0.5806782917,
				"z": 0.814466735,
				"element": "C" 
			},
			{
				"x": 0.5428480913,
				"y": -1.4912872813,
				"z": 1.7475179538,
				"element": "N" 
			},
			{
				"x": -0.6970003216,
				"y": -1.4061076708,
				"z": 2.3494040429,
				"element": "N" 
			},
			{
				"x": -1.3442901327,
				"y": -0.4489527599,
				"z": 1.744816902,
				"element": "C" 
			},
			{
				"x": -0.5971866364,
				"y": 0.1228006097,
				"z": 0.7546785024,
				"element": "O" 
			},
			{
				"x": -2.6932035882,
				"y": 0.0327573463,
				"z": 2.0079653314,
				"element": "C" 
			},
			{
				"x": -3.4419290174,
				"y": -0.5728603642,
				"z": 3.0332666664,
				"element": "C" 
			},
			{
				"x": -4.730669877,
				"y": -0.1338331661,
				"z": 3.305968552,
				"element": "C" 
			},
			{
				"x": -5.2594905553,
				"y": 0.9106900664,
				"z": 2.5472313325,
				"element": "C" 
			},
			{
				"x": -4.5378786985,
				"y": 1.5265034365,
				"z": 1.5266681843,
				"element": "C" 
			},
			{
				"x": -3.2478507576,
				"y": 1.0830246022,
				"z": 1.2577750604,
				"element": "C" 
			},
			{
				"x": -6.6263503792,
				"y": 1.379072649,
				"z": 2.8337313834,
				"element": "N" 
			},
			{
				"x": -7.065945097,
				"y": 2.3012911639,
				"z": 2.1484973183,
				"element": "O" 
			},
			{
				"x": -7.2403001062,
				"y": 0.8181042052,
				"z": 3.7396970313,
				"element": "O" 
			},
			{
				"x": 2.5042208793,
				"y": 1.8197621301,
				"z": -2.6723504218,
				"element": "H" 
			},
			{
				"x": 0.6054258864,
				"y": 1.3243925436,
				"z": -1.1206070262,
				"element": "H" 
			},
			{
				"x": 2.937044626,
				"y": -1.791021005,
				"z": 0.7198904783,
				"element": "H" 
			},
			{
				"x": 4.8328826088,
				"y": -1.2793184768,
				"z": -0.8466367434,
				"element": "H" 
			},
			{
				"x": -2.9999909717,
				"y": -1.3822938163,
				"z": 3.6033549908,
				"element": "H" 
			},
			{
				"x": -5.3305856562,
				"y": -0.5805765605,
				"z": 4.0887300726,
				"element": "H" 
			},
			{
				"x": -4.991838645,
				"y": 2.3335189593,
				"z": 0.9656134743,
				"element": "H" 
			},
			{
				"x": -2.6691920996,
				"y": 1.5484799806,
				"z": 0.4679458512,
				"element": "H" 
			}
		],
		 "valence_orbital": [ 
			{
				"type": "occ",
				"energy": -0.30379,
				"method": "rhf"
			},
			{
				"type": "occ",
				"energy": -0.30353,
				"method": "rhf"
			},
			{
				"type": "occ",
				"energy": -0.29809,
				"method": "rhf"
			},
			{
				"type": "occ",
				"energy": -0.29778,
				"method": "rhf"
			},
			{
				"type": "occ",
				"energy": -0.26342,
				"method": "rhf"
			},
			{
				"type": "unocc",
				"energy": -0.11979,
				"method": "rhf"
			},
			{
				"type": "unocc",
				"energy": -0.10514,
				"method": "rhf"
			},
			{
				"type": "unocc",
				"energy": -0.05855,
				"method": "rhf"
			},
			{
				"type": "unocc",
				"energy": -0.047,
				"method": "rhf"
			},
			{
				"type": "unocc",
				"energy": -0.04551,
				"method": "rhf"
			}
		],
		"cosmo_sigma_profile": { 
			"-0.025": 0.0,
			"-0.024": 0.0,
			"-0.023": 0.0,
			"-0.022": 0.0,
			"-0.021": 0.0,
			"-0.02": 0.0,
			"-0.019": 0.0,
			"-0.018": 0.0,
			"-0.017": 0.0,
			"-0.016": 0.0,
			"-0.015": 0.0,
			"-0.014": 0.0,
			"-0.013": 0.0,
			"-0.012": 0.0,
			"-0.011": 0.0,
			"-0.01": 0.0,
			"-0.009": 1.06641532058,
			"-0.008": 10.7786014138,
			"-0.007": 16.2824505454,
			"-0.006": 17.3506191401,
			"-0.005": 17.6321014389,
			"-0.004": 22.2819992934,
			"-0.003": 25.6507095843,
			"-0.002": 29.0223880049,
			"-0.001": 35.3216649953,
			"0.0": 33.8336941018,
			"0.001": 14.7312366393,
			"0.002": 8.13321254057,
			"0.003": 5.10039973883,
			"0.004": 7.26732255621,
			"0.005": 8.02864358682,
			"0.006": 10.7877679172,
			"0.007": 20.2313342984,
			"0.008": 13.6902769285,
			"0.009": 11.0544545341,
			"0.01": 6.01403047852,
			"0.011": 2.57524878628,
			"0.012": 2.3902507876,
			"0.013": 1.02536995258,
			"0.014": 0.00434457957975,
			"0.015": 0.0,
			"0.016": 0.0,
			"0.017": 0.0,
			"0.018": 0.0,
			"0.019": 0.0,
			"0.02": 0.0,
			"0.021": 0.0,
			"0.022": 0.0,
			"0.023": 0.0,
			"0.024": 0.0,
			"0.025": 0.0
		}
	}
}
