{
	 "smiles": "OC(=O)C1=C(OC2=C(C=CC=C2)C#N)C=CC=C1", 
	 "Tm": 421.15, 
	 "num_atms": 27, 
	 "gaussian": { 
		 "optdone": 1, 
		 "sigma_profile": "yes", 
		 "theory": "DFT", 
		 "functional": "B3LYP", 
		 "basiset": "6-31G**", 
		 "properties": { 
			 "R2extent": 4622.7021, 
			 "electric_dipole_moment_norm": 5.40335728784, 
			 "electric_quadrupole_moment_norm": 22.370525845, 
			 "total_energy": -819.322521585, 
			 "HOMO_LUMO_gap": 0.18185, 
			 "cosmo_polarized_energy": -17.1, 
			 "cosmo_cavitation_energy": 33.66, 
			 "cosmo_dispersion_energy": -22.84, 
			 "cosmo_repulsion_energy": 1.78, 
			 "cosmo_total_nonelectrostatic_energy": 12.61, 
			 "SMD_solvation_energy": 8.55 
		},
		"coords": [
			{
				"x": 0.9695125569,
				"y": 0.3941225708,
				"z": -1.7805500158,
				"element": "O" 
			},
			{
				"x": 0.5997294101,
				"y": -0.9017412371,
				"z": -1.7227653564,
				"element": "C" 
			},
			{
				"x": 1.2274169181,
				"y": -1.7773050989,
				"z": -2.2864783606,
				"element": "O" 
			},
			{
				"x": -0.6247992109,
				"y": -1.1666755267,
				"z": -0.9080170527,
				"element": "C" 
			},
			{
				"x": -1.4414857774,
				"y": -0.1959805971,
				"z": -0.2967979435,
				"element": "C" 
			},
			{
				"x": -1.2190684426,
				"y": 1.1597568325,
				"z": -0.465320734,
				"element": "O" 
			},
			{
				"x": -0.4379192552,
				"y": 1.8516059828,
				"z": 0.4164030506,
				"element": "C" 
			},
			{
				"x": -0.2440492118,
				"y": 3.2182223427,
				"z": 0.1239651079,
				"element": "C" 
			},
			{
				"x": 0.5326186249,
				"y": 4.0055519884,
				"z": 0.9893702516,
				"element": "C" 
			},
			{
				"x": 1.1111681106,
				"y": 3.4475896276,
				"z": 2.1251509248,
				"element": "C" 
			},
			{
				"x": 0.9137049325,
				"y": 2.0926261573,
				"z": 2.4002223421,
				"element": "C" 
			},
			{
				"x": 0.1443704325,
				"y": 1.2925853846,
				"z": 1.5552207694,
				"element": "C" 
			},
			{
				"x": -0.8311087735,
				"y": 3.7981762138,
				"z": -1.0453093979,
				"element": "C" 
			},
			{
				"x": -1.2937100725,
				"y": 4.3027809744,
				"z": -1.9858701057,
				"element": "N" 
			},
			{
				"x": -2.5749718033,
				"y": -0.5717738892,
				"z": 0.4255650835,
				"element": "C" 
			},
			{
				"x": -2.9082356806,
				"y": -1.9183165285,
				"z": 0.5564891471,
				"element": "C" 
			},
			{
				"x": -2.1090738536,
				"y": -2.8962779513,
				"z": -0.0407330614,
				"element": "C" 
			},
			{
				"x": -0.9852014419,
				"y": -2.5173094288,
				"z": -0.7658005342,
				"element": "C" 
			},
			{
				"x": 1.7634236698,
				"y": 0.4161241276,
				"z": -2.3411246105,
				"element": "H" 
			},
			{
				"x": 0.6726174494,
				"y": 5.0550380559,
				"z": 0.7528752616,
				"element": "H" 
			},
			{
				"x": 1.7101922433,
				"y": 4.0623607548,
				"z": 2.7884764093,
				"element": "H" 
			},
			{
				"x": 1.3620836623,
				"y": 1.6470852293,
				"z": 3.2833542866,
				"element": "H" 
			},
			{
				"x": -0.0042869194,
				"y": 0.2423251491,
				"z": 1.7766305229,
				"element": "H" 
			},
			{
				"x": -3.1888523214,
				"y": 0.2075340245,
				"z": 0.8646238864,
				"element": "H" 
			},
			{
				"x": -3.7937149548,
				"y": -2.2002428277,
				"z": 1.1182858977,
				"element": "H" 
			},
			{
				"x": -2.3655160723,
				"y": -3.9466509174,
				"z": 0.0530843889,
				"element": "H" 
			},
			{
				"x": -0.3531442193,
				"y": -3.2540114133,
				"z": -1.2491501577,
				"element": "H" 
			}
		],
		 "valence_orbital": [ 
			{
				"type": "occ",
				"energy": -0.28708,
				"method": "rhf"
			},
			{
				"type": "occ",
				"energy": -0.27778,
				"method": "rhf"
			},
			{
				"type": "occ",
				"energy": -0.26839,
				"method": "rhf"
			},
			{
				"type": "occ",
				"energy": -0.26732,
				"method": "rhf"
			},
			{
				"type": "occ",
				"energy": -0.24366,
				"method": "rhf"
			},
			{
				"type": "unocc",
				"energy": -0.06181,
				"method": "rhf"
			},
			{
				"type": "unocc",
				"energy": -0.04785,
				"method": "rhf"
			},
			{
				"type": "unocc",
				"energy": -0.02373,
				"method": "rhf"
			},
			{
				"type": "unocc",
				"energy": -0.01273,
				"method": "rhf"
			},
			{
				"type": "unocc",
				"energy": 0.04154,
				"method": "rhf"
			}
		],
		"cosmo_sigma_profile": { 
			"-0.025": 0.0,
			"-0.024": 0.0,
			"-0.023": 0.0,
			"-0.022": 0.0,
			"-0.021": 0.0,
			"-0.02": 0.0,
			"-0.019": 0.167383331131,
			"-0.018": 0.790890545104,
			"-0.017": 1.16246545311,
			"-0.016": 0.829730579996,
			"-0.015": 0.278586188132,
			"-0.014": 0.936037479219,
			"-0.013": 0.772397642948,
			"-0.012": 0.397555040911,
			"-0.011": 0.674208666518,
			"-0.01": 0.601350743758,
			"-0.009": 0.696540484289,
			"-0.008": 3.90236317652,
			"-0.007": 14.2591979354,
			"-0.006": 18.8149244899,
			"-0.005": 18.2877856636,
			"-0.004": 14.6323085766,
			"-0.003": 15.7080961607,
			"-0.002": 15.6721699783,
			"-0.001": 18.5679813656,
			"0.0": 20.0278961035,
			"0.001": 22.4372314774,
			"0.002": 23.7636631482,
			"0.003": 19.5913575813,
			"0.004": 8.12283508038,
			"0.005": 6.9382123011,
			"0.006": 6.42138452614,
			"0.007": 7.09129622613,
			"0.008": 5.99970412727,
			"0.009": 5.30233542675,
			"0.01": 5.42356824208,
			"0.011": 6.99894948707,
			"0.012": 4.99877965439,
			"0.013": 1.74259432614,
			"0.014": 0.0981497674326,
			"0.015": 0.0,
			"0.016": 0.0,
			"0.017": 0.0,
			"0.018": 0.0,
			"0.019": 0.0,
			"0.02": 0.0,
			"0.021": 0.0,
			"0.022": 0.0,
			"0.023": 0.0,
			"0.024": 0.0,
			"0.025": 0.0
		}
	}
}
