{
	 "smiles": "CC1=C(C=CC=C1)C(N)=NO", 
	 "Tm": 355.15, 
	 "num_atms": 21, 
	 "gaussian": { 
		 "optdone": 1, 
		 "sigma_profile": "yes", 
		 "theory": "DFT", 
		 "functional": "B3LYP", 
		 "basiset": "6-31G**", 
		 "properties": { 
			 "R2extent": 1979.42, 
			 "electric_dipole_moment_norm": 1.43793218547, 
			 "electric_quadrupole_moment_norm": 7.33190851961, 
			 "total_energy": -495.561002073, 
			 "HOMO_LUMO_gap": 0.18746, 
			 "cosmo_polarized_energy": -10.48, 
			 "cosmo_cavitation_energy": 24.36, 
			 "cosmo_dispersion_energy": -18.14, 
			 "cosmo_repulsion_energy": 1.48, 
			 "cosmo_total_nonelectrostatic_energy": 7.7, 
			 "SMD_solvation_energy": 4.5 
		},
		"coords": [
			{
				"x": 0.6970189303,
				"y": 0.8919324038,
				"z": -2.6022164695,
				"element": "C" 
			},
			{
				"x": 0.6430833739,
				"y": -0.3408873531,
				"z": -1.7305271446,
				"element": "C" 
			},
			{
				"x": 0.4218153161,
				"y": -0.2980264125,
				"z": -0.3322168002,
				"element": "C" 
			},
			{
				"x": 0.3785267301,
				"y": -1.4982965432,
				"z": 0.3989008531,
				"element": "C" 
			},
			{
				"x": 0.5516036703,
				"y": -2.7332396786,
				"z": -0.2205495211,
				"element": "C" 
			},
			{
				"x": 0.7679291907,
				"y": -2.7823874553,
				"z": -1.5963365105,
				"element": "C" 
			},
			{
				"x": 0.8096951262,
				"y": -1.5969035957,
				"z": -2.3292997586,
				"element": "C" 
			},
			{
				"x": 0.2114981432,
				"y": 0.9683355439,
				"z": 0.4191328444,
				"element": "C" 
			},
			{
				"x": -0.6340453263,
				"y": 0.9235699919,
				"z": 1.5145162713,
				"element": "N" 
			},
			{
				"x": 0.8772690008,
				"y": 2.0238673242,
				"z": 0.0757108646,
				"element": "N" 
			},
			{
				"x": 0.5175307715,
				"y": 3.110640726,
				"z": 0.9270171344,
				"element": "O" 
			},
			{
				"x": 0.6471672574,
				"y": 0.6109181123,
				"z": -3.6582741225,
				"element": "H" 
			},
			{
				"x": 1.6181717764,
				"y": 1.4566721838,
				"z": -2.434697101,
				"element": "H" 
			},
			{
				"x": -0.1236618223,
				"y": 1.5803417913,
				"z": -2.3826319555,
				"element": "H" 
			},
			{
				"x": 0.2305859215,
				"y": -1.4495735179,
				"z": 1.473032863,
				"element": "H" 
			},
			{
				"x": 0.5225895599,
				"y": -3.6451920978,
				"z": 0.3685259983,
				"element": "H" 
			},
			{
				"x": 0.9018360458,
				"y": -3.7359048007,
				"z": -2.0993994825,
				"element": "H" 
			},
			{
				"x": 0.9705046481,
				"y": -1.6405902823,
				"z": -3.4034838678,
				"element": "H" 
			},
			{
				"x": -1.4206920999,
				"y": 0.295941725,
				"z": 1.4343698614,
				"element": "H" 
			},
			{
				"x": -0.8547183013,
				"y": 1.8352903331,
				"z": 1.8918094796,
				"element": "H" 
			},
			{
				"x": 1.0627920874,
				"y": 3.8244916017,
				"z": 0.5760165638,
				"element": "H" 
			}
		],
		 "valence_orbital": [ 
			{
				"type": "occ",
				"energy": -0.31562,
				"method": "rhf"
			},
			{
				"type": "occ",
				"energy": -0.26869,
				"method": "rhf"
			},
			{
				"type": "occ",
				"energy": -0.25167,
				"method": "rhf"
			},
			{
				"type": "occ",
				"energy": -0.24017,
				"method": "rhf"
			},
			{
				"type": "occ",
				"energy": -0.20752,
				"method": "rhf"
			},
			{
				"type": "unocc",
				"energy": -0.02006,
				"method": "rhf"
			},
			{
				"type": "unocc",
				"energy": 0.00234,
				"method": "rhf"
			},
			{
				"type": "unocc",
				"energy": 0.05795,
				"method": "rhf"
			},
			{
				"type": "unocc",
				"energy": 0.07969,
				"method": "rhf"
			},
			{
				"type": "unocc",
				"energy": 0.09909,
				"method": "rhf"
			}
		],
		"cosmo_sigma_profile": { 
			"-0.025": 0.0,
			"-0.024": 0.0,
			"-0.023": 0.0,
			"-0.022": 0.0,
			"-0.021": 0.0,
			"-0.02": 0.0,
			"-0.019": 0.0,
			"-0.018": 0.0,
			"-0.017": 0.290481555502,
			"-0.016": 0.95156842074,
			"-0.015": 1.21603683783,
			"-0.014": 0.317385834346,
			"-0.013": 1.41182187611,
			"-0.012": 1.88852650938,
			"-0.011": 2.97744793284,
			"-0.01": 2.26476985292,
			"-0.009": 2.46790862859,
			"-0.008": 3.22812103076,
			"-0.007": 2.28086345508,
			"-0.006": 5.35729665535,
			"-0.005": 10.7155885269,
			"-0.004": 12.4505783983,
			"-0.003": 13.9776979794,
			"-0.002": 12.1522070987,
			"-0.001": 13.1613552903,
			"0.0": 14.4619641263,
			"0.001": 14.4303652995,
			"0.002": 11.3019710095,
			"0.003": 10.0264742921,
			"0.004": 12.0740891904,
			"0.005": 13.6901018842,
			"0.006": 8.47969014436,
			"0.007": 5.84845435406,
			"0.008": 5.15310180336,
			"0.009": 4.28597655507,
			"0.01": 2.63135979075,
			"0.011": 1.35851864696,
			"0.012": 1.12623202206,
			"0.013": 0.581283985807,
			"0.014": 0.0159956476402,
			"0.015": 0.0,
			"0.016": 0.0,
			"0.017": 0.0,
			"0.018": 0.0,
			"0.019": 0.0,
			"0.02": 0.0,
			"0.021": 0.0,
			"0.022": 0.0,
			"0.023": 0.0,
			"0.024": 0.0,
			"0.025": 0.0
		}
	}
}
