{
	 "smiles": "CCNS(=O)(=O)C1=CC=C(C=C1)C(O)=O", 
	 "Tm": 493.15, 
	 "num_atms": 26, 
	 "gaussian": { 
		 "optdone": 1, 
		 "sigma_profile": "yes", 
		 "theory": "DFT", 
		 "functional": "B3LYP", 
		 "basiset": "6-31G**", 
		 "properties": { 
			 "R2extent": 5185.8564, 
			 "electric_dipole_moment_norm": 3.14790205216, 
			 "electric_quadrupole_moment_norm": 32.8429772499, 
			 "total_energy": -1103.36166177, 
			 "HOMO_LUMO_gap": 0.19414, 
			 "cosmo_polarized_energy": -22.14, 
			 "cosmo_cavitation_energy": 31.86, 
			 "cosmo_dispersion_energy": -23.24, 
			 "cosmo_repulsion_energy": 1.79, 
			 "cosmo_total_nonelectrostatic_energy": 10.41, 
			 "SMD_solvation_energy": 5.58 
		},
		"coords": [
			{
				"x": -2.1668421202,
				"y": -2.3785329346,
				"z": -2.7089519841,
				"element": "C" 
			},
			{
				"x": -2.1207935112,
				"y": -0.9194278019,
				"z": -2.2541486458,
				"element": "C" 
			},
			{
				"x": -0.8656397947,
				"y": -0.2137194569,
				"z": -2.5723840226,
				"element": "N" 
			},
			{
				"x": 0.476712806,
				"y": -0.4083740896,
				"z": -1.5789144993,
				"element": "S" 
			},
			{
				"x": 0.3778550081,
				"y": -1.6398929496,
				"z": -0.7854695072,
				"element": "O" 
			},
			{
				"x": 1.6297357214,
				"y": -0.1426771345,
				"z": -2.4438865542,
				"element": "O" 
			},
			{
				"x": 0.3019096874,
				"y": 0.9592667634,
				"z": -0.421542582,
				"element": "C" 
			},
			{
				"x": 0.3698121438,
				"y": 2.2740634484,
				"z": -0.8937387927,
				"element": "C" 
			},
			{
				"x": 0.2643056578,
				"y": 3.3236135526,
				"z": 0.0101917535,
				"element": "C" 
			},
			{
				"x": 0.1174857491,
				"y": 3.0661779596,
				"z": 1.3820947789,
				"element": "C" 
			},
			{
				"x": 0.0472751722,
				"y": 1.7431550574,
				"z": 1.8357329511,
				"element": "C" 
			},
			{
				"x": 0.1392916232,
				"y": 0.681842727,
				"z": 0.9339844966,
				"element": "C" 
			},
			{
				"x": 0.000705063,
				"y": 4.249807736,
				"z": 2.3004789046,
				"element": "C" 
			},
			{
				"x": 0.3072272632,
				"y": 4.0433062489,
				"z": 3.6073853805,
				"element": "O" 
			},
			{
				"x": -0.3490242822,
				"y": 5.3421713939,
				"z": 1.9225675684,
				"element": "O" 
			},
			{
				"x": -3.1403967872,
				"y": -2.8191131773,
				"z": -2.4693650673,
				"element": "H" 
			},
			{
				"x": -2.0252110707,
				"y": -2.4555118177,
				"z": -3.7930349818,
				"element": "H" 
			},
			{
				"x": -1.3877637665,
				"y": -2.9617361247,
				"z": -2.2131581831,
				"element": "H" 
			},
			{
				"x": -2.2693816082,
				"y": -0.8481425029,
				"z": -1.1727822536,
				"element": "H" 
			},
			{
				"x": -2.9273677207,
				"y": -0.3417916043,
				"z": -2.7190916893,
				"element": "H" 
			},
			{
				"x": -0.5539599563,
				"y": -0.3047104893,
				"z": -3.5364124453,
				"element": "H" 
			},
			{
				"x": 0.5000651825,
				"y": 2.4659955,
				"z": -1.9531147427,
				"element": "H" 
			},
			{
				"x": 0.2957631179,
				"y": 4.3552488367,
				"z": -0.3225076784,
				"element": "H" 
			},
			{
				"x": -0.1171761681,
				"y": 1.5220382469,
				"z": 2.8872499128,
				"element": "H" 
			},
			{
				"x": 0.0869427517,
				"y": -0.3485053717,
				"z": 1.266806465,
				"element": "H" 
			},
			{
				"x": 0.7293698386,
				"y": 3.1808479841,
				"z": 3.7239114177,
				"element": "H" 
			}
		],
		 "valence_orbital": [ 
			{
				"type": "occ",
				"energy": -0.30975,
				"method": "rhf"
			},
			{
				"type": "occ",
				"energy": -0.30044,
				"method": "rhf"
			},
			{
				"type": "occ",
				"energy": -0.28984,
				"method": "rhf"
			},
			{
				"type": "occ",
				"energy": -0.28258,
				"method": "rhf"
			},
			{
				"type": "occ",
				"energy": -0.27012,
				"method": "rhf"
			},
			{
				"type": "unocc",
				"energy": -0.07598,
				"method": "rhf"
			},
			{
				"type": "unocc",
				"energy": -0.03899,
				"method": "rhf"
			},
			{
				"type": "unocc",
				"energy": 0.01961,
				"method": "rhf"
			},
			{
				"type": "unocc",
				"energy": 0.04182,
				"method": "rhf"
			},
			{
				"type": "unocc",
				"energy": 0.06065,
				"method": "rhf"
			}
		],
		"cosmo_sigma_profile": { 
			"-0.025": 0.0,
			"-0.024": 0.0,
			"-0.023": 0.0,
			"-0.022": 0.0,
			"-0.021": 0.0,
			"-0.02": 0.0,
			"-0.019": 0.673481089492,
			"-0.018": 1.08734544067,
			"-0.017": 0.920267769331,
			"-0.016": 1.32009700855,
			"-0.015": 1.27874962287,
			"-0.014": 1.45387156472,
			"-0.013": 2.09486513886,
			"-0.012": 1.28796418361,
			"-0.011": 3.18659198375,
			"-0.01": 1.93973657949,
			"-0.009": 3.53668437032,
			"-0.008": 5.89868999654,
			"-0.007": 8.72957978975,
			"-0.006": 9.11859144998,
			"-0.005": 14.0053327541,
			"-0.004": 15.4492740891,
			"-0.003": 19.0845938185,
			"-0.002": 19.3217849713,
			"-0.001": 16.3115034165,
			"0.0": 22.0212908327,
			"0.001": 21.4521263755,
			"0.002": 8.24659013259,
			"0.003": 6.19713641953,
			"0.004": 5.44685419293,
			"0.005": 6.46153148902,
			"0.006": 6.0426865127,
			"0.007": 5.69100518506,
			"0.008": 6.41610642576,
			"0.009": 7.24689131467,
			"0.01": 12.5693128985,
			"0.011": 13.251548573,
			"0.012": 5.04897354714,
			"0.013": 0.54151378242,
			"0.014": 0.0,
			"0.015": 0.0,
			"0.016": 0.0,
			"0.017": 0.0,
			"0.018": 0.0,
			"0.019": 0.0,
			"0.02": 0.0,
			"0.021": 0.0,
			"0.022": 0.0,
			"0.023": 0.0,
			"0.024": 0.0,
			"0.025": 0.0
		}
	}
}
