{
	 "smiles": "CC1=NC2=C(N=NC3=CC=CN=C3)C(N)=NN2C(C)=C1", 
	 "Tm": 518.15, 
	 "num_atms": 33, 
	 "gaussian": { 
		 "optdone": 1, 
		 "sigma_profile": "yes", 
		 "theory": "DFT", 
		 "functional": "B3LYP", 
		 "basiset": "6-31G**", 
		 "properties": { 
			 "R2extent": 7512.6607, 
			 "electric_dipole_moment_norm": 5.41369687921, 
			 "electric_quadrupole_moment_norm": 22.5027686959, 
			 "total_energy": -886.434899459, 
			 "HOMO_LUMO_gap": 0.13214, 
			 "cosmo_polarized_energy": -17.87, 
			 "cosmo_cavitation_energy": 38.26, 
			 "cosmo_dispersion_energy": -27.96, 
			 "cosmo_repulsion_energy": 2.14, 
			 "cosmo_total_nonelectrostatic_energy": 12.45, 
			 "SMD_solvation_energy": 1.83 
		},
		"coords": [
			{
				"x": 2.7999385232,
				"y": 0.6752164815,
				"z": 3.781498273,
				"element": "C" 
			},
			{
				"x": 2.4987541869,
				"y": 0.9173935074,
				"z": 2.3260540599,
				"element": "C" 
			},
			{
				"x": 1.4976062527,
				"y": 0.2262611087,
				"z": 1.7861769301,
				"element": "N" 
			},
			{
				"x": 1.2295402155,
				"y": 0.4414926649,
				"z": 0.493616425,
				"element": "C" 
			},
			{
				"x": 0.2666588588,
				"y": -0.0996449891,
				"z": -0.3883817686,
				"element": "C" 
			},
			{
				"x": -0.6502677248,
				"y": -1.0459748964,
				"z": -0.0446695366,
				"element": "N" 
			},
			{
				"x": -1.4325824368,
				"y": -1.4252225162,
				"z": -0.984095702,
				"element": "N" 
			},
			{
				"x": -2.3680320572,
				"y": -2.4088613435,
				"z": -0.5945586554,
				"element": "C" 
			},
			{
				"x": -3.253794194,
				"y": -2.8696282893,
				"z": -1.5758739595,
				"element": "C" 
			},
			{
				"x": -4.1936926029,
				"y": -3.838953185,
				"z": -1.2385606327,
				"element": "C" 
			},
			{
				"x": -4.2156959546,
				"y": -4.3156100298,
				"z": 0.0724684794,
				"element": "C" 
			},
			{
				"x": -3.3764340059,
				"y": -3.8878812594,
				"z": 1.028866116,
				"element": "N" 
			},
			{
				"x": -2.4778514404,
				"y": -2.9585660815,
				"z": 0.699197274,
				"element": "C" 
			},
			{
				"x": 0.5161848361,
				"y": 0.5606957633,
				"z": -1.6444049823,
				"element": "C" 
			},
			{
				"x": -0.190426283,
				"y": 0.3567652639,
				"z": -2.7748576923,
				"element": "N" 
			},
			{
				"x": 1.5344172741,
				"y": 1.4296769256,
				"z": -1.5810455029,
				"element": "N" 
			},
			{
				"x": 1.9574368724,
				"y": 1.3489868087,
				"z": -0.2786701798,
				"element": "N" 
			},
			{
				"x": 2.9836844005,
				"y": 2.0682471911,
				"z": 0.244030089,
				"element": "C" 
			},
			{
				"x": 3.7030614849,
				"y": 3.0148738903,
				"z": -0.6606618697,
				"element": "C" 
			},
			{
				"x": 3.2638381893,
				"y": 1.849496356,
				"z": 1.5792195489,
				"element": "C" 
			},
			{
				"x": 2.1125234201,
				"y": -0.0719224115,
				"z": 4.1795779212,
				"element": "H" 
			},
			{
				"x": 2.6975880163,
				"y": 1.5989138095,
				"z": 4.3626924282,
				"element": "H" 
			},
			{
				"x": 3.8284360554,
				"y": 0.3210170047,
				"z": 3.9162986926,
				"element": "H" 
			},
			{
				"x": -3.1888904328,
				"y": -2.4604011886,
				"z": -2.57996603,
				"element": "H" 
			},
			{
				"x": -4.896127049,
				"y": -4.2191759979,
				"z": -1.9739463998,
				"element": "H" 
			},
			{
				"x": -4.9369876011,
				"y": -5.0738096196,
				"z": 0.3720810437,
				"element": "H" 
			},
			{
				"x": -1.8031459308,
				"y": -2.6180464583,
				"z": 1.4789356332,
				"element": "H" 
			},
			{
				"x": -0.893577241,
				"y": -0.370381497,
				"z": -2.7363788541,
				"element": "H" 
			},
			{
				"x": 0.1036714233,
				"y": 0.7882892526,
				"z": -3.6355848602,
				"element": "H" 
			},
			{
				"x": 3.0071031091,
				"y": 3.753063263,
				"z": -1.0718935229,
				"element": "H" 
			},
			{
				"x": 4.5003331355,
				"y": 3.5271031091,
				"z": -0.1197578147,
				"element": "H" 
			},
			{
				"x": 4.1272579324,
				"y": 2.4782095337,
				"z": -1.5153320709,
				"element": "H" 
			},
			{
				"x": 4.0735707676,
				"y": 2.398477829,
				"z": 2.0458271203,
				"element": "H" 
			}
		],
		 "valence_orbital": [ 
			{
				"type": "occ",
				"energy": -0.25916,
				"method": "rhf"
			},
			{
				"type": "occ",
				"energy": -0.25138,
				"method": "rhf"
			},
			{
				"type": "occ",
				"energy": -0.22442,
				"method": "rhf"
			},
			{
				"type": "occ",
				"energy": -0.2156,
				"method": "rhf"
			},
			{
				"type": "occ",
				"energy": -0.20033,
				"method": "rhf"
			},
			{
				"type": "unocc",
				"energy": -0.06819,
				"method": "rhf"
			},
			{
				"type": "unocc",
				"energy": -0.0441,
				"method": "rhf"
			},
			{
				"type": "unocc",
				"energy": -0.01132,
				"method": "rhf"
			},
			{
				"type": "unocc",
				"energy": -0.00225,
				"method": "rhf"
			},
			{
				"type": "unocc",
				"energy": 0.03067,
				"method": "rhf"
			}
		],
		"cosmo_sigma_profile": { 
			"-0.025": 0.0,
			"-0.024": 0.0,
			"-0.023": 0.0,
			"-0.022": 0.0,
			"-0.021": 0.0,
			"-0.02": 0.0,
			"-0.019": 0.0,
			"-0.018": 0.0,
			"-0.017": 0.0,
			"-0.016": 0.0,
			"-0.015": 0.071305070047,
			"-0.014": 1.04016557605,
			"-0.013": 1.0866073315,
			"-0.012": 1.02376379814,
			"-0.011": 0.760606218322,
			"-0.01": 0.94517971496,
			"-0.009": 2.29133869153,
			"-0.008": 3.20658025955,
			"-0.007": 8.19135573277,
			"-0.006": 16.0190471747,
			"-0.005": 21.784599785,
			"-0.004": 21.6638920232,
			"-0.003": 25.2127951971,
			"-0.002": 26.9819718674,
			"-0.001": 23.3320970524,
			"0.0": 19.9200227181,
			"0.001": 24.8994882606,
			"0.002": 29.0007272339,
			"0.003": 19.9788902244,
			"0.004": 12.4023982364,
			"0.005": 8.9955833322,
			"0.006": 6.34701967079,
			"0.007": 4.91827818398,
			"0.008": 3.8579346642,
			"0.009": 4.17559654651,
			"0.01": 4.14381722656,
			"0.011": 2.85333601563,
			"0.012": 3.47840723111,
			"0.013": 2.8620756845,
			"0.014": 2.0671590446,
			"0.015": 1.93228586845,
			"0.016": 0.819979422899,
			"0.017": 0.40718145941,
			"0.018": 0.0,
			"0.019": 0.0,
			"0.02": 0.0,
			"0.021": 0.0,
			"0.022": 0.0,
			"0.023": 0.0,
			"0.024": 0.0,
			"0.025": 0.0
		}
	}
}
