{
	 "smiles": "CC(C)(C)O", 
	 "Tm": 298.65, 
	 "num_atms": 15, 
	 "gaussian": { 
		 "optdone": 1, 
		 "sigma_profile": "yes", 
		 "theory": "DFT", 
		 "functional": "B3LYP", 
		 "basiset": "6-31G**", 
		 "properties": { 
			 "R2extent": 583.2139, 
			 "electric_dipole_moment_norm": 1.4778098017, 
			 "electric_quadrupole_moment_norm": 5.8353313265, 
			 "total_energy": -233.684937144, 
			 "HOMO_LUMO_gap": 0.3269, 
			 "cosmo_polarized_energy": -5.64, 
			 "cosmo_cavitation_energy": 16.88, 
			 "cosmo_dispersion_energy": -12.33, 
			 "cosmo_repulsion_energy": 1.08, 
			 "cosmo_total_nonelectrostatic_energy": 5.63, 
			 "SMD_solvation_energy": 3.29 
		},
		"coords": [
			{
				"x": 1.0120755992,
				"y": -0.2805308656,
				"z": -0.3390509532,
				"element": "C" 
			},
			{
				"x": 0.2012806878,
				"y": 0.0214892084,
				"z": 0.930811455,
				"element": "C" 
			},
			{
				"x": 0.2703203123,
				"y": 1.5102560136,
				"z": 1.2803253143,
				"element": "C" 
			},
			{
				"x": -1.2569780923,
				"y": -0.4359225109,
				"z": 0.7712814991,
				"element": "C" 
			},
			{
				"x": 0.7964526564,
				"y": -0.6482195408,
				"z": 2.0533658746,
				"element": "O" 
			},
			{
				"x": 0.6135539611,
				"y": 0.2543671955,
				"z": -1.2077414047,
				"element": "H" 
			},
			{
				"x": 0.9865692016,
				"y": -1.3526827148,
				"z": -0.5704669679,
				"element": "H" 
			},
			{
				"x": 2.0568584568,
				"y": 0.0124519811,
				"z": -0.1993790795,
				"element": "H" 
			},
			{
				"x": -0.1624474211,
				"y": 2.1202548432,
				"z": 0.4814419243,
				"element": "H" 
			},
			{
				"x": -0.2779865349,
				"y": 1.7070140028,
				"z": 2.2062784836,
				"element": "H" 
			},
			{
				"x": 1.3101389596,
				"y": 1.815861318,
				"z": 1.4290656236,
				"element": "H" 
			},
			{
				"x": -1.7570086466,
				"y": 0.0918794741,
				"z": -0.0478334296,
				"element": "H" 
			},
			{
				"x": -1.8141616027,
				"y": -0.252452597,
				"z": 1.6947546077,
				"element": "H" 
			},
			{
				"x": -1.3054792941,
				"y": -1.509685174,
				"z": 0.5512812372,
				"element": "H" 
			},
			{
				"x": 0.7728117569,
				"y": -1.5974806338,
				"z": 1.8722658154,
				"element": "H" 
			}
		],
		 "valence_orbital": [ 
			{
				"type": "occ",
				"energy": -0.36318,
				"method": "rhf"
			},
			{
				"type": "occ",
				"energy": -0.34812,
				"method": "rhf"
			},
			{
				"type": "occ",
				"energy": -0.34286,
				"method": "rhf"
			},
			{
				"type": "occ",
				"energy": -0.31113,
				"method": "rhf"
			},
			{
				"type": "occ",
				"energy": -0.25938,
				"method": "rhf"
			},
			{
				"type": "unocc",
				"energy": 0.06752,
				"method": "rhf"
			},
			{
				"type": "unocc",
				"energy": 0.11485,
				"method": "rhf"
			},
			{
				"type": "unocc",
				"energy": 0.13069,
				"method": "rhf"
			},
			{
				"type": "unocc",
				"energy": 0.15343,
				"method": "rhf"
			},
			{
				"type": "unocc",
				"energy": 0.1606,
				"method": "rhf"
			}
		],
		"cosmo_sigma_profile": { 
			"-0.025": 0.0,
			"-0.024": 0.0,
			"-0.023": 0.0,
			"-0.022": 0.0,
			"-0.021": 0.0,
			"-0.02": 0.0,
			"-0.019": 0.0,
			"-0.018": 0.0,
			"-0.017": 0.0,
			"-0.016": 0.0,
			"-0.015": 0.140237257043,
			"-0.014": 0.737495610488,
			"-0.013": 1.18008869902,
			"-0.012": 0.28269473126,
			"-0.011": 0.696903012511,
			"-0.01": 1.58722033172,
			"-0.009": 1.08259548452,
			"-0.008": 0.900349112962,
			"-0.007": 0.752372023489,
			"-0.006": 1.74614680928,
			"-0.005": 1.53901724487,
			"-0.004": 3.02531019068,
			"-0.003": 15.4752812472,
			"-0.002": 17.6684119916,
			"-0.001": 16.8570383972,
			"0.0": 16.3431644654,
			"0.001": 23.1218556775,
			"0.002": 7.93785909541,
			"0.003": 2.13523948738,
			"0.004": 1.23373769817,
			"0.005": 1.28518434285,
			"0.006": 1.1491325392,
			"0.007": 1.17174508548,
			"0.008": 1.67095079766,
			"0.009": 1.03359320597,
			"0.01": 1.51686797736,
			"0.011": 0.957553393576,
			"0.012": 1.19711046489,
			"0.013": 1.5679373493,
			"0.014": 1.70447923398,
			"0.015": 1.80133629559,
			"0.016": 0.00134202544254,
			"0.017": 0.0,
			"0.018": 0.0,
			"0.019": 0.0,
			"0.02": 0.0,
			"0.021": 0.0,
			"0.022": 0.0,
			"0.023": 0.0,
			"0.024": 0.0,
			"0.025": 0.0
		}
	}
}
