{
	 "smiles": "CC(C)(C)C1=CC=C(C=C1)C1=CC(N)=C(S1)C(N)=O", 
	 "Tm": 519.15, 
	 "num_atms": 37, 
	 "gaussian": { 
		 "optdone": 1, 
		 "sigma_profile": "yes", 
		 "theory": "DFT", 
		 "functional": "B3LYP", 
		 "basiset": "6-31G**", 
		 "properties": { 
			 "R2extent": 10249.0453, 
			 "electric_dipole_moment_norm": 4.86343352993, 
			 "electric_quadrupole_moment_norm": 32.7169779316, 
			 "total_energy": -1165.39181834, 
			 "HOMO_LUMO_gap": 0.15296, 
			 "cosmo_polarized_energy": -18.77, 
			 "cosmo_cavitation_energy": 40.55, 
			 "cosmo_dispersion_energy": -29.6, 
			 "cosmo_repulsion_energy": 2.22, 
			 "cosmo_total_nonelectrostatic_energy": 13.17, 
			 "SMD_solvation_energy": 7.32 
		},
		"coords": [
			{
				"x": 3.6182191441,
				"y": -2.5708308499,
				"z": 0.6161241198,
				"element": "C" 
			},
			{
				"x": 2.9038588729,
				"y": -2.282397588,
				"z": -0.7261032696,
				"element": "C" 
			},
			{
				"x": 3.8045488764,
				"y": -1.3513308807,
				"z": -1.5597278473,
				"element": "C" 
			},
			{
				"x": 2.7255360621,
				"y": -3.6070569799,
				"z": -1.506296777,
				"element": "C" 
			},
			{
				"x": 1.5228968062,
				"y": -1.6639925065,
				"z": -0.4474984295,
				"element": "C" 
			},
			{
				"x": 1.1452069687,
				"y": -0.3947738988,
				"z": -0.9082690307,
				"element": "C" 
			},
			{
				"x": -0.1129253357,
				"y": 0.1388682798,
				"z": -0.6336873063,
				"element": "C" 
			},
			{
				"x": -1.0613060813,
				"y": -0.5809439838,
				"z": 0.1094997473,
				"element": "C" 
			},
			{
				"x": -0.6888742989,
				"y": -1.8547994122,
				"z": 0.5748785789,
				"element": "C" 
			},
			{
				"x": 0.5706898181,
				"y": -2.3754658989,
				"z": 0.3036247473,
				"element": "C" 
			},
			{
				"x": -2.3893612078,
				"y": -0.0181415296,
				"z": 0.3828043763,
				"element": "C" 
			},
			{
				"x": -3.0710164607,
				"y": 0.9227804735,
				"z": -0.3580968785,
				"element": "C" 
			},
			{
				"x": -4.3463095938,
				"y": 1.2634260386,
				"z": 0.180887349,
				"element": "C" 
			},
			{
				"x": -5.2076562237,
				"y": 2.1776847524,
				"z": -0.4311570108,
				"element": "N" 
			},
			{
				"x": -4.6340309835,
				"y": 0.5513734623,
				"z": 1.3396796912,
				"element": "C" 
			},
			{
				"x": -3.3061870829,
				"y": -0.4940238025,
				"z": 1.7873439833,
				"element": "S" 
			},
			{
				"x": -5.8175560063,
				"y": 0.5601330187,
				"z": 2.2040861584,
				"element": "C" 
			},
			{
				"x": -6.9340119873,
				"y": 1.2231284896,
				"z": 1.6922489022,
				"element": "N" 
			},
			{
				"x": -5.829913729,
				"y": 0.0461823925,
				"z": 3.3182509671,
				"element": "O" 
			},
			{
				"x": 4.6018351871,
				"y": -3.0188156251,
				"z": 0.43519914,
				"element": "H" 
			},
			{
				"x": 3.7646685856,
				"y": -1.6487856425,
				"z": 1.1881263524,
				"element": "H" 
			},
			{
				"x": 3.0472882927,
				"y": -3.2637637287,
				"z": 1.2411174879,
				"element": "H" 
			},
			{
				"x": 3.9960716057,
				"y": -0.4026874111,
				"z": -1.0474329662,
				"element": "H" 
			},
			{
				"x": 3.3675103237,
				"y": -1.130153148,
				"z": -2.5391242112,
				"element": "H" 
			},
			{
				"x": 4.7722928161,
				"y": -1.8331025363,
				"z": -1.7324948793,
				"element": "H" 
			},
			{
				"x": 2.2282290053,
				"y": -3.4327549225,
				"z": -2.4661031596,
				"element": "H" 
			},
			{
				"x": 3.7008409121,
				"y": -4.0647572635,
				"z": -1.7067480667,
				"element": "H" 
			},
			{
				"x": 2.1267946616,
				"y": -4.3320517404,
				"z": -0.9471463659,
				"element": "H" 
			},
			{
				"x": 1.8404397064,
				"y": 0.2054409656,
				"z": -1.4838804924,
				"element": "H" 
			},
			{
				"x": -0.3514930648,
				"y": 1.1391199178,
				"z": -0.9824997857,
				"element": "H" 
			},
			{
				"x": -1.4013238339,
				"y": -2.4503785695,
				"z": 1.1384828385,
				"element": "H" 
			},
			{
				"x": 0.8106974348,
				"y": -3.3648865511,
				"z": 0.6814528299,
				"element": "H" 
			},
			{
				"x": -2.6892709514,
				"y": 1.3439471263,
				"z": -1.28213673,
				"element": "H" 
			},
			{
				"x": -4.7477836631,
				"y": 2.7813353484,
				"z": -1.1002298125,
				"element": "H" 
			},
			{
				"x": -5.768795077,
				"y": 2.7103605537,
				"z": 0.2241989135,
				"element": "H" 
			},
			{
				"x": -7.7605561061,
				"y": 1.0635084149,
				"z": 2.2552733441,
				"element": "H" 
			},
			{
				"x": -7.0882533925,
				"y": 1.1518052356,
				"z": 0.6930534923,
				"element": "H" 
			}
		],
		 "valence_orbital": [ 
			{
				"type": "occ",
				"energy": -0.26208,
				"method": "rhf"
			},
			{
				"type": "occ",
				"energy": -0.25342,
				"method": "rhf"
			},
			{
				"type": "occ",
				"energy": -0.24503,
				"method": "rhf"
			},
			{
				"type": "occ",
				"energy": -0.22793,
				"method": "rhf"
			},
			{
				"type": "occ",
				"energy": -0.20294,
				"method": "rhf"
			},
			{
				"type": "unocc",
				"energy": -0.04998,
				"method": "rhf"
			},
			{
				"type": "unocc",
				"energy": -0.0069,
				"method": "rhf"
			},
			{
				"type": "unocc",
				"energy": 0.00708,
				"method": "rhf"
			},
			{
				"type": "unocc",
				"energy": 0.03365,
				"method": "rhf"
			},
			{
				"type": "unocc",
				"energy": 0.05628,
				"method": "rhf"
			}
		],
		"cosmo_sigma_profile": { 
			"-0.025": 0.0,
			"-0.024": 0.0,
			"-0.023": 0.0,
			"-0.022": 0.0,
			"-0.021": 0.0,
			"-0.02": 0.0,
			"-0.019": 0.0,
			"-0.018": 0.0,
			"-0.017": 0.0,
			"-0.016": 0.0,
			"-0.015": 0.0,
			"-0.014": 0.200298543475,
			"-0.013": 2.16551830164,
			"-0.012": 3.30505879695,
			"-0.011": 4.88179020749,
			"-0.01": 5.56189877859,
			"-0.009": 4.5142058206,
			"-0.008": 4.86920063678,
			"-0.007": 6.26197125985,
			"-0.006": 8.10566257255,
			"-0.005": 12.9496118279,
			"-0.004": 14.7741592821,
			"-0.003": 23.6539559401,
			"-0.002": 30.4269178966,
			"-0.001": 24.4705080001,
			"0.0": 26.7716804195,
			"0.001": 32.5725689613,
			"0.002": 21.5289676893,
			"0.003": 25.6767968624,
			"0.004": 22.0417805881,
			"0.005": 16.8876409214,
			"0.006": 5.38310785582,
			"0.007": 3.09032853174,
			"0.008": 2.66713786443,
			"0.009": 2.64728193095,
			"0.01": 1.86049728748,
			"0.011": 1.95712793871,
			"0.012": 2.43162591984,
			"0.013": 3.84850441316,
			"0.014": 5.32422201039,
			"0.015": 0.563069085685,
			"0.016": 0.0,
			"0.017": 0.0,
			"0.018": 0.0,
			"0.019": 0.0,
			"0.02": 0.0,
			"0.021": 0.0,
			"0.022": 0.0,
			"0.023": 0.0,
			"0.024": 0.0,
			"0.025": 0.0
		}
	}
}
