{
	 "smiles": "CC(C)CC(=O)NC1=C(F)C=C(C=C1)C(O)=O", 
	 "Tm": 531.15, 
	 "num_atms": 31, 
	 "gaussian": { 
		 "optdone": 1, 
		 "sigma_profile": "yes", 
		 "theory": "DFT", 
		 "functional": "B3LYP", 
		 "basiset": "6-31G**", 
		 "properties": { 
			 "R2extent": 6797.5096, 
			 "electric_dipole_moment_norm": 6.62296208505, 
			 "electric_quadrupole_moment_norm": 22.0617672526, 
			 "total_energy": -846.014072453, 
			 "HOMO_LUMO_gap": 0.18311, 
			 "cosmo_polarized_energy": -20.09, 
			 "cosmo_cavitation_energy": 35.63, 
			 "cosmo_dispersion_energy": -25.11, 
			 "cosmo_repulsion_energy": 1.93, 
			 "cosmo_total_nonelectrostatic_energy": 12.45, 
			 "SMD_solvation_energy": 8.01 
		},
		"coords": [
			{
				"x": 3.1233857389,
				"y": 2.1591600124,
				"z": -3.7787233081,
				"element": "C" 
			},
			{
				"x": 2.7678167249,
				"y": 1.180211929,
				"z": -2.6506414028,
				"element": "C" 
			},
			{
				"x": 3.604176757,
				"y": -0.1032348291,
				"z": -2.7473888792,
				"element": "C" 
			},
			{
				"x": 2.93521142,
				"y": 1.8782161171,
				"z": -1.2744906142,
				"element": "C" 
			},
			{
				"x": 2.4312208533,
				"y": 1.0330926484,
				"z": -0.1137406574,
				"element": "C" 
			},
			{
				"x": 3.1295663581,
				"y": 0.214481099,
				"z": 0.4659626366,
				"element": "O" 
			},
			{
				"x": 1.0967325107,
				"y": 1.2466667409,
				"z": 0.1970162919,
				"element": "N" 
			},
			{
				"x": 0.3199135997,
				"y": 0.6022190792,
				"z": 1.1634498446,
				"element": "C" 
			},
			{
				"x": -1.0205551295,
				"y": 1.0070813802,
				"z": 1.2721942419,
				"element": "C" 
			},
			{
				"x": -1.4426476397,
				"y": 1.9974272391,
				"z": 0.4414979657,
				"element": "F" 
			},
			{
				"x": -1.9033948766,
				"y": 0.4563846182,
				"z": 2.1783042277,
				"element": "C" 
			},
			{
				"x": -1.4496840491,
				"y": -0.5573706048,
				"z": 3.0380244739,
				"element": "C" 
			},
			{
				"x": -0.1108186563,
				"y": -0.9609691643,
				"z": 2.9604300635,
				"element": "C" 
			},
			{
				"x": 0.7676890421,
				"y": -0.4043676551,
				"z": 2.0355267291,
				"element": "C" 
			},
			{
				"x": -2.3244165381,
				"y": -1.2050822377,
				"z": 4.0642607545,
				"element": "C" 
			},
			{
				"x": -3.6697155586,
				"y": -1.1073181944,
				"z": 3.8738332309,
				"element": "O" 
			},
			{
				"x": -1.8939633652,
				"y": -1.7938881991,
				"z": 5.0277548741,
				"element": "O" 
			},
			{
				"x": 2.9907153696,
				"y": 1.6888558758,
				"z": -4.758509423,
				"element": "H" 
			},
			{
				"x": 2.4961571508,
				"y": 3.0569710446,
				"z": -3.7494188061,
				"element": "H" 
			},
			{
				"x": 4.1695583441,
				"y": 2.4783772302,
				"z": -3.702759485,
				"element": "H" 
			},
			{
				"x": 1.7071838898,
				"y": 0.9091873554,
				"z": -2.7594089426,
				"element": "H" 
			},
			{
				"x": 3.4274650659,
				"y": -0.6048250339,
				"z": -3.7045982214,
				"element": "H" 
			},
			{
				"x": 4.6739614996,
				"y": 0.1277928554,
				"z": -2.682712807,
				"element": "H" 
			},
			{
				"x": 3.3716003986,
				"y": -0.8048118435,
				"z": -1.9426293621,
				"element": "H" 
			},
			{
				"x": 2.4199719916,
				"y": 2.8468925384,
				"z": -1.2931772626,
				"element": "H" 
			},
			{
				"x": 3.99650571,
				"y": 2.0710813085,
				"z": -1.0897678982,
				"element": "H" 
			},
			{
				"x": 0.6044976969,
				"y": 1.9533275343,
				"z": -0.3312448281,
				"element": "H" 
			},
			{
				"x": -2.9096677664,
				"y": 0.8618059212,
				"z": 2.2202200565,
				"element": "H" 
			},
			{
				"x": 0.2325220357,
				"y": -1.7290339645,
				"z": 3.6444066693,
				"element": "H" 
			},
			{
				"x": 1.7972296646,
				"y": -0.7260239363,
				"z": 1.9723270941,
				"element": "H" 
			},
			{
				"x": -3.8596182423,
				"y": -0.7827068644,
				"z": 2.9831027434,
				"element": "H" 
			}
		],
		 "valence_orbital": [ 
			{
				"type": "occ",
				"energy": -0.31371,
				"method": "rhf"
			},
			{
				"type": "occ",
				"energy": -0.27568,
				"method": "rhf"
			},
			{
				"type": "occ",
				"energy": -0.27214,
				"method": "rhf"
			},
			{
				"type": "occ",
				"energy": -0.26598,
				"method": "rhf"
			},
			{
				"type": "occ",
				"energy": -0.24091,
				"method": "rhf"
			},
			{
				"type": "unocc",
				"energy": -0.0578,
				"method": "rhf"
			},
			{
				"type": "unocc",
				"energy": -0.02218,
				"method": "rhf"
			},
			{
				"type": "unocc",
				"energy": 0.00519,
				"method": "rhf"
			},
			{
				"type": "unocc",
				"energy": 0.05099,
				"method": "rhf"
			},
			{
				"type": "unocc",
				"energy": 0.05447,
				"method": "rhf"
			}
		],
		"cosmo_sigma_profile": { 
			"-0.025": 0.0,
			"-0.024": 0.0,
			"-0.023": 0.0,
			"-0.022": 0.0,
			"-0.021": 0.0,
			"-0.02": 0.0,
			"-0.019": 0.602295329646,
			"-0.018": 0.787447573937,
			"-0.017": 1.04957602599,
			"-0.016": 1.30556967814,
			"-0.015": 0.903607805545,
			"-0.014": 1.63162028156,
			"-0.013": 1.86535088493,
			"-0.012": 2.2272894725,
			"-0.011": 2.36310208371,
			"-0.01": 2.66294198944,
			"-0.009": 2.7234565037,
			"-0.008": 3.73621551263,
			"-0.007": 3.89218423902,
			"-0.006": 6.03873604627,
			"-0.005": 7.84729583175,
			"-0.004": 13.5790121347,
			"-0.003": 23.5752143429,
			"-0.002": 29.4745027691,
			"-0.001": 30.1514909111,
			"0.0": 29.3308598203,
			"0.001": 28.5943980295,
			"0.002": 19.3667317423,
			"0.003": 14.1468266552,
			"0.004": 7.19552873729,
			"0.005": 4.22072419624,
			"0.006": 4.57882379157,
			"0.007": 4.80375528325,
			"0.008": 4.4175198255,
			"0.009": 4.24312599232,
			"0.01": 6.22869012622,
			"0.011": 7.66311342294,
			"0.012": 7.04573573046,
			"0.013": 3.26227356344,
			"0.014": 0.409821783865,
			"0.015": 0.0,
			"0.016": 0.0,
			"0.017": 0.0,
			"0.018": 0.0,
			"0.019": 0.0,
			"0.02": 0.0,
			"0.021": 0.0,
			"0.022": 0.0,
			"0.023": 0.0,
			"0.024": 0.0,
			"0.025": 0.0
		}
	}
}
