{
	 "smiles": "ClC1=C(C=NC=C1)S(Cl)(=O)=O", 
	 "Tm": 319.15, 
	 "num_atms": 14, 
	 "gaussian": { 
		 "optdone": 1, 
		 "sigma_profile": "yes", 
		 "theory": "DFT", 
		 "functional": "B3LYP", 
		 "basiset": "6-31G**", 
		 "properties": { 
			 "R2extent": 3170.6148, 
			 "electric_dipole_moment_norm": 4.50757322181, 
			 "electric_quadrupole_moment_norm": 4.77689500722, 
			 "total_energy": -1716.01898401, 
			 "HOMO_LUMO_gap": 0.19438, 
			 "cosmo_polarized_energy": -9.41, 
			 "cosmo_cavitation_energy": 23.74, 
			 "cosmo_dispersion_energy": -18.25, 
			 "cosmo_repulsion_energy": 1.4, 
			 "cosmo_total_nonelectrostatic_energy": 6.89, 
			 "SMD_solvation_energy": 1.29 
		},
		"coords": [
			{
				"x": -1.4907532826,
				"y": 1.0816884602,
				"z": -0.754412136,
				"element": "Cl" 
			},
			{
				"x": -0.193969592,
				"y": -0.0182919366,
				"z": -0.4144298282,
				"element": "C" 
			},
			{
				"x": -0.3938191074,
				"y": -1.3409123898,
				"z": 0.0081086291,
				"element": "C" 
			},
			{
				"x": 0.7239508563,
				"y": -2.1567948932,
				"z": 0.2373858983,
				"element": "C" 
			},
			{
				"x": 1.9803169664,
				"y": -1.7391967495,
				"z": 0.0791497461,
				"element": "N" 
			},
			{
				"x": 2.1594367128,
				"y": -0.4751003284,
				"z": -0.3216982299,
				"element": "C" 
			},
			{
				"x": 1.1199815665,
				"y": 0.4175730102,
				"z": -0.5799303986,
				"element": "C" 
			},
			{
				"x": -2.0006911485,
				"y": -2.0732713333,
				"z": 0.3396350334,
				"element": "S" 
			},
			{
				"x": -2.794520293,
				"y": -2.2443346557,
				"z": -1.6194602907,
				"element": "Cl" 
			},
			{
				"x": -2.8440466244,
				"y": -1.1379199554,
				"z": 1.0668548653,
				"element": "O" 
			},
			{
				"x": -1.7770887883,
				"y": -3.4337354988,
				"z": 0.8096169796,
				"element": "O" 
			},
			{
				"x": 0.5743376629,
				"y": -3.1812385993,
				"z": 0.5642274392,
				"element": "H" 
			},
			{
				"x": 3.1904092408,
				"y": -0.1520989519,
				"z": -0.4485320798,
				"element": "H" 
			},
			{
				"x": 1.3207558306,
				"y": 1.4314338214,
				"z": -0.9059156278,
				"element": "H" 
			}
		],
		 "valence_orbital": [ 
			{
				"type": "occ",
				"energy": -0.33822,
				"method": "rhf"
			},
			{
				"type": "occ",
				"energy": -0.32367,
				"method": "rhf"
			},
			{
				"type": "occ",
				"energy": -0.31242,
				"method": "rhf"
			},
			{
				"type": "occ",
				"energy": -0.3065,
				"method": "rhf"
			},
			{
				"type": "occ",
				"energy": -0.29601,
				"method": "rhf"
			},
			{
				"type": "unocc",
				"energy": -0.10163,
				"method": "rhf"
			},
			{
				"type": "unocc",
				"energy": -0.07182,
				"method": "rhf"
			},
			{
				"type": "unocc",
				"energy": -0.06211,
				"method": "rhf"
			},
			{
				"type": "unocc",
				"energy": -0.00727,
				"method": "rhf"
			},
			{
				"type": "unocc",
				"energy": 0.04397,
				"method": "rhf"
			}
		],
		"cosmo_sigma_profile": { 
			"-0.025": 0.0,
			"-0.024": 0.0,
			"-0.023": 0.0,
			"-0.022": 0.0,
			"-0.021": 0.0,
			"-0.02": 0.0,
			"-0.019": 0.0,
			"-0.018": 0.0,
			"-0.017": 0.0,
			"-0.016": 0.0,
			"-0.015": 0.0,
			"-0.014": 0.0,
			"-0.013": 0.0,
			"-0.012": 0.0,
			"-0.011": 0.0,
			"-0.01": 1.45734773636,
			"-0.009": 5.58335606337,
			"-0.008": 5.65565086349,
			"-0.007": 6.20449964692,
			"-0.006": 6.47455991427,
			"-0.005": 7.89282016681,
			"-0.004": 13.9663947849,
			"-0.003": 16.8208501991,
			"-0.002": 17.1918244845,
			"-0.001": 12.1597922462,
			"0.0": 12.5680011203,
			"0.001": 15.1677460391,
			"0.002": 21.8636964081,
			"0.003": 13.6143343904,
			"0.004": 4.53245718723,
			"0.005": 5.94136995818,
			"0.006": 5.90806507323,
			"0.007": 9.6775451905,
			"0.008": 8.38949189657,
			"0.009": 1.18298238986,
			"0.01": 1.56400062718,
			"0.011": 0.667095958177,
			"0.012": 1.00945484019,
			"0.013": 0.645758303269,
			"0.014": 0.59323778155,
			"0.015": 0.0408059002456,
			"0.016": 0.0,
			"0.017": 0.0,
			"0.018": 0.0,
			"0.019": 0.0,
			"0.02": 0.0,
			"0.021": 0.0,
			"0.022": 0.0,
			"0.023": 0.0,
			"0.024": 0.0,
			"0.025": 0.0
		}
	}
}
