{
	 "smiles": "ClC1=C(C=CC(=C1)C#N)S(Cl)(=O)=O", 
	 "Tm": 376.15, 
	 "num_atms": 16, 
	 "gaussian": { 
		 "optdone": 1, 
		 "sigma_profile": "yes", 
		 "theory": "DFT", 
		 "functional": "B3LYP", 
		 "basiset": "6-31G**", 
		 "properties": { 
			 "R2extent": 3677.3788, 
			 "electric_dipole_moment_norm": 1.2833500224, 
			 "electric_quadrupole_moment_norm": 21.4059371565, 
			 "total_energy": -1792.22026242, 
			 "HOMO_LUMO_gap": 0.18347, 
			 "cosmo_polarized_energy": -12.64, 
			 "cosmo_cavitation_energy": 27.24, 
			 "cosmo_dispersion_energy": -19.97, 
			 "cosmo_repulsion_energy": 1.53, 
			 "cosmo_total_nonelectrostatic_energy": 8.8, 
			 "SMD_solvation_energy": 4.65 
		},
		"coords": [
			{
				"x": 1.9772148381,
				"y": -0.8886877518,
				"z": 1.148381718,
				"element": "Cl" 
			},
			{
				"x": 0.4660914051,
				"y": -0.5154722098,
				"z": 0.3765111774,
				"element": "C" 
			},
			{
				"x": -0.3175065059,
				"y": 0.5974615868,
				"z": 0.723455423,
				"element": "C" 
			},
			{
				"x": -1.5155525712,
				"y": 0.8624007251,
				"z": 0.0523757626,
				"element": "C" 
			},
			{
				"x": -1.9495486794,
				"y": 0.0199491477,
				"z": -0.9637199174,
				"element": "C" 
			},
			{
				"x": -1.1730650579,
				"y": -1.0955150256,
				"z": -1.3121757155,
				"element": "C" 
			},
			{
				"x": 0.0314733838,
				"y": -1.359728871,
				"z": -0.6445417504,
				"element": "C" 
			},
			{
				"x": -1.606480752,
				"y": -1.9752178573,
				"z": -2.3597775933,
				"element": "C" 
			},
			{
				"x": -1.9600329476,
				"y": -2.6860147694,
				"z": -3.2088789415,
				"element": "N" 
			},
			{
				"x": 0.0918759743,
				"y": 1.7370322455,
				"z": 2.0635192414,
				"element": "S" 
			},
			{
				"x": 1.757847904,
				"y": 2.7531573985,
				"z": 1.2465935759,
				"element": "Cl" 
			},
			{
				"x": 0.555561592,
				"y": 1.002218901,
				"z": 3.2290981804,
				"element": "O" 
			},
			{
				"x": -0.982662396,
				"y": 2.717231558,
				"z": 2.1496360123,
				"element": "O" 
			},
			{
				"x": -2.0973098681,
				"y": 1.7300627368,
				"z": 0.3396451752,
				"element": "H" 
			},
			{
				"x": -2.878788886,
				"y": 0.2202727232,
				"z": -1.4844121475,
				"element": "H" 
			},
			{
				"x": 0.6314825669,
				"y": -2.2194505377,
				"z": -0.9179102006,
				"element": "H" 
			}
		],
		 "valence_orbital": [ 
			{
				"type": "occ",
				"energy": -0.3497,
				"method": "rhf"
			},
			{
				"type": "occ",
				"energy": -0.33948,
				"method": "rhf"
			},
			{
				"type": "occ",
				"energy": -0.32935,
				"method": "rhf"
			},
			{
				"type": "occ",
				"energy": -0.31058,
				"method": "rhf"
			},
			{
				"type": "occ",
				"energy": -0.29816,
				"method": "rhf"
			},
			{
				"type": "unocc",
				"energy": -0.11469,
				"method": "rhf"
			},
			{
				"type": "unocc",
				"energy": -0.08547,
				"method": "rhf"
			},
			{
				"type": "unocc",
				"energy": -0.06794,
				"method": "rhf"
			},
			{
				"type": "unocc",
				"energy": -0.01537,
				"method": "rhf"
			},
			{
				"type": "unocc",
				"energy": 0.00684,
				"method": "rhf"
			}
		],
		"cosmo_sigma_profile": { 
			"-0.025": 0.0,
			"-0.024": 0.0,
			"-0.023": 0.0,
			"-0.022": 0.0,
			"-0.021": 0.0,
			"-0.02": 0.0,
			"-0.019": 0.0,
			"-0.018": 0.0,
			"-0.017": 0.0,
			"-0.016": 0.0,
			"-0.015": 0.0,
			"-0.014": 0.0,
			"-0.013": 0.0,
			"-0.012": 0.0,
			"-0.011": 0.891955204093,
			"-0.01": 4.82340297338,
			"-0.009": 6.48872890335,
			"-0.008": 6.18416532583,
			"-0.007": 5.53090443385,
			"-0.006": 6.75005655707,
			"-0.005": 9.63003770008,
			"-0.004": 16.2477899444,
			"-0.003": 23.1375999974,
			"-0.002": 19.1012406998,
			"-0.001": 12.2358750458,
			"0.0": 11.0988670587,
			"0.001": 14.445059241,
			"0.002": 21.7583507152,
			"0.003": 15.2449409985,
			"0.004": 6.66845818161,
			"0.005": 5.00442566939,
			"0.006": 7.66383843351,
			"0.007": 12.232716373,
			"0.008": 11.2081749556,
			"0.009": 3.73511266917,
			"0.01": 2.51711378856,
			"0.011": 2.29552487342,
			"0.012": 1.2886664123,
			"0.013": 0.013435055082,
			"0.014": 0.0,
			"0.015": 0.0,
			"0.016": 0.0,
			"0.017": 0.0,
			"0.018": 0.0,
			"0.019": 0.0,
			"0.02": 0.0,
			"0.021": 0.0,
			"0.022": 0.0,
			"0.023": 0.0,
			"0.024": 0.0,
			"0.025": 0.0
		}
	}
}
