{
	 "smiles": "CC(=O)C1=CC=C(S1)C1=CC=CC=C1", 
	 "Tm": 389.15, 
	 "num_atms": 24, 
	 "gaussian": { 
		 "optdone": 1, 
		 "sigma_profile": "yes", 
		 "theory": "DFT", 
		 "functional": "B3LYP", 
		 "basiset": "6-31G**", 
		 "properties": { 
			 "R2extent": 4865.595, 
			 "electric_dipole_moment_norm": 3.56831354144, 
			 "electric_quadrupole_moment_norm": 18.7069048947, 
			 "total_energy": -936.712989138, 
			 "HOMO_LUMO_gap": 0.15331, 
			 "cosmo_polarized_energy": -9.26, 
			 "cosmo_cavitation_energy": 29.89, 
			 "cosmo_dispersion_energy": -22.19, 
			 "cosmo_repulsion_energy": 1.68, 
			 "cosmo_total_nonelectrostatic_energy": 9.37, 
			 "SMD_solvation_energy": 5.46 
		},
		"coords": [
			{
				"x": 1.4850085387,
				"y": 4.3394984117,
				"z": 2.0447297615,
				"element": "C" 
			},
			{
				"x": 0.7428227717,
				"y": 4.5033033277,
				"z": 0.7300576674,
				"element": "C" 
			},
			{
				"x": 0.7474259504,
				"y": 5.5636619478,
				"z": 0.119555404,
				"element": "O" 
			},
			{
				"x": 0.0016843137,
				"y": 3.344006232,
				"z": 0.1891248862,
				"element": "C" 
			},
			{
				"x": -0.7120753858,
				"y": 3.3341024076,
				"z": -0.9904839521,
				"element": "C" 
			},
			{
				"x": -1.3212312423,
				"y": 2.090018943,
				"z": -1.2706762241,
				"element": "C" 
			},
			{
				"x": -1.0816391629,
				"y": 1.1258000717,
				"z": -0.3084294821,
				"element": "C" 
			},
			{
				"x": -0.0901740963,
				"y": 1.781589481,
				"z": 0.9721162782,
				"element": "S" 
			},
			{
				"x": -1.5558742708,
				"y": -0.2632948942,
				"z": -0.2780520469,
				"element": "C" 
			},
			{
				"x": -0.8400380068,
				"y": -1.2716771471,
				"z": 0.3924814527,
				"element": "C" 
			},
			{
				"x": -1.3027187354,
				"y": -2.5855594827,
				"z": 0.4059924683,
				"element": "C" 
			},
			{
				"x": -2.4851118543,
				"y": -2.9229274431,
				"z": -0.2555688993,
				"element": "C" 
			},
			{
				"x": -3.2052877911,
				"y": -1.9316841224,
				"z": -0.9262743252,
				"element": "C" 
			},
			{
				"x": -2.7506379278,
				"y": -0.6154261455,
				"z": -0.9337798348,
				"element": "C" 
			},
			{
				"x": 1.9732941093,
				"y": 5.2816059997,
				"z": 2.2957915879,
				"element": "H" 
			},
			{
				"x": 0.7954063014,
				"y": 4.0605323521,
				"z": 2.8496326765,
				"element": "H" 
			},
			{
				"x": 2.2379409887,
				"y": 3.5465157448,
				"z": 1.9712886837,
				"element": "H" 
			},
			{
				"x": -0.7689611756,
				"y": 4.2125619983,
				"z": -1.6219521619,
				"element": "H" 
			},
			{
				"x": -1.8956281297,
				"y": 1.8907626653,
				"z": -2.1679109026,
				"element": "H" 
			},
			{
				"x": 0.0952786663,
				"y": -1.027193916,
				"z": 0.8877105153,
				"element": "H" 
			},
			{
				"x": -0.7326564101,
				"y": -3.3492170114,
				"z": 0.9270184988,
				"element": "H" 
			},
			{
				"x": -2.8434491531,
				"y": -3.9479616032,
				"z": -0.2468339339,
				"element": "H" 
			},
			{
				"x": -4.1311644372,
				"y": -2.1817494379,
				"z": -1.4361695945,
				"element": "H" 
			},
			{
				"x": -3.334213861,
				"y": 0.1530316205,
				"z": -1.4308685232,
				"element": "H" 
			}
		],
		 "valence_orbital": [ 
			{
				"type": "occ",
				"energy": -0.28219,
				"method": "rhf"
			},
			{
				"type": "occ",
				"energy": -0.26412,
				"method": "rhf"
			},
			{
				"type": "occ",
				"energy": -0.26073,
				"method": "rhf"
			},
			{
				"type": "occ",
				"energy": -0.24841,
				"method": "rhf"
			},
			{
				"type": "occ",
				"energy": -0.22285,
				"method": "rhf"
			},
			{
				"type": "unocc",
				"energy": -0.06954,
				"method": "rhf"
			},
			{
				"type": "unocc",
				"energy": -0.01497,
				"method": "rhf"
			},
			{
				"type": "unocc",
				"energy": -0.01296,
				"method": "rhf"
			},
			{
				"type": "unocc",
				"energy": 0.02286,
				"method": "rhf"
			},
			{
				"type": "unocc",
				"energy": 0.04144,
				"method": "rhf"
			}
		],
		"cosmo_sigma_profile": { 
			"-0.025": 0.0,
			"-0.024": 0.0,
			"-0.023": 0.0,
			"-0.022": 0.0,
			"-0.021": 0.0,
			"-0.02": 0.0,
			"-0.019": 0.0,
			"-0.018": 0.0,
			"-0.017": 0.0,
			"-0.016": 0.0,
			"-0.015": 0.0,
			"-0.014": 0.0,
			"-0.013": 0.0,
			"-0.012": 0.0,
			"-0.011": 0.0,
			"-0.01": 0.0,
			"-0.009": 0.0,
			"-0.008": 0.526682298405,
			"-0.007": 4.79399798213,
			"-0.006": 16.3413604227,
			"-0.005": 21.1858057564,
			"-0.004": 21.7305444531,
			"-0.003": 17.7284932665,
			"-0.002": 17.3628142812,
			"-0.001": 18.0371245272,
			"0.0": 15.3975644438,
			"0.001": 17.2774961069,
			"0.002": 25.0752299405,
			"0.003": 23.0580691193,
			"0.004": 14.6170944624,
			"0.005": 9.85451789776,
			"0.006": 2.02744103771,
			"0.007": 1.34150550284,
			"0.008": 1.55002935365,
			"0.009": 2.14015344757,
			"0.01": 1.72665205565,
			"0.011": 2.70539553084,
			"0.012": 4.84502913242,
			"0.013": 1.9507749897,
			"0.014": 0.26757619524,
			"0.015": 0.0,
			"0.016": 0.0,
			"0.017": 0.0,
			"0.018": 0.0,
			"0.019": 0.0,
			"0.02": 0.0,
			"0.021": 0.0,
			"0.022": 0.0,
			"0.023": 0.0,
			"0.024": 0.0,
			"0.025": 0.0
		}
	}
}
