{
	 "smiles": "NC(=O)N1CCCCC1C(O)=O", 
	 "Tm": 413.15, 
	 "num_atms": 24, 
	 "gaussian": { 
		 "optdone": 1, 
		 "sigma_profile": "yes", 
		 "theory": "DFT", 
		 "functional": "B3LYP", 
		 "basiset": "6-31G**", 
		 "properties": { 
			 "R2extent": 2153.9013, 
			 "electric_dipole_moment_norm": 3.8934315019, 
			 "electric_quadrupole_moment_norm": 8.53026613477, 
			 "total_energy": -609.19392856, 
			 "HOMO_LUMO_gap": 0.21718, 
			 "cosmo_polarized_energy": -15.16, 
			 "cosmo_cavitation_energy": 25.83, 
			 "cosmo_dispersion_energy": -19.06, 
			 "cosmo_repulsion_energy": 1.53, 
			 "cosmo_total_nonelectrostatic_energy": 8.3, 
			 "SMD_solvation_energy": 5.66 
		},
		"coords": [
			{
				"x": -0.8296208433,
				"y": 2.1815129966,
				"z": -0.1074533288,
				"element": "N" 
			},
			{
				"x": -0.9126342673,
				"y": 1.1358755864,
				"z": 0.7972892727,
				"element": "C" 
			},
			{
				"x": -1.0590085759,
				"y": 1.3137470859,
				"z": 2.0022578416,
				"element": "O" 
			},
			{
				"x": -0.7843622061,
				"y": -0.1368175005,
				"z": 0.2448936693,
				"element": "N" 
			},
			{
				"x": -0.8320997874,
				"y": -1.2983399016,
				"z": 1.1336629495,
				"element": "C" 
			},
			{
				"x": 0.5713902739,
				"y": -1.895427443,
				"z": 1.3580808273,
				"element": "C" 
			},
			{
				"x": 1.4394240547,
				"y": -1.7745416792,
				"z": 0.0803629078,
				"element": "C" 
			},
			{
				"x": 0.5608733592,
				"y": -1.6621857312,
				"z": -1.1729078956,
				"element": "C" 
			},
			{
				"x": -0.2666166697,
				"y": -0.3635156195,
				"z": -1.1120796751,
				"element": "C" 
			},
			{
				"x": -1.4427324915,
				"y": -0.3008465779,
				"z": -2.0920572554,
				"element": "C" 
			},
			{
				"x": -2.0099379909,
				"y": -1.4951890407,
				"z": -2.3491192085,
				"element": "O" 
			},
			{
				"x": -1.8769915589,
				"y": 0.7376280924,
				"z": -2.5558051914,
				"element": "O" 
			},
			{
				"x": -1.0641282582,
				"y": 3.064015168,
				"z": 0.3238883268,
				"element": "H" 
			},
			{
				"x": -1.2022293927,
				"y": 2.0441904768,
				"z": -1.0416701908,
				"element": "H" 
			},
			{
				"x": -1.2770348711,
				"y": -0.9633228292,
				"z": 2.0696371365,
				"element": "H" 
			},
			{
				"x": -1.4993677472,
				"y": -2.0460312086,
				"z": 0.6882083702,
				"element": "H" 
			},
			{
				"x": 0.4623352449,
				"y": -2.9460094222,
				"z": 1.6525390972,
				"element": "H" 
			},
			{
				"x": 1.0618070161,
				"y": -1.3800429626,
				"z": 2.1896240625,
				"element": "H" 
			},
			{
				"x": 2.0747320854,
				"y": -0.8829019865,
				"z": 0.145888933,
				"element": "H" 
			},
			{
				"x": 2.1165602105,
				"y": -2.6297214739,
				"z": -0.0111940275,
				"element": "H" 
			},
			{
				"x": -0.1003110796,
				"y": -2.5300063019,
				"z": -1.2536825111,
				"element": "H" 
			},
			{
				"x": 1.1685112002,
				"y": -1.6450634974,
				"z": -2.0839690949,
				"element": "H" 
			},
			{
				"x": 0.3774223691,
				"y": 0.4828633556,
				"z": -1.3719909675,
				"element": "H" 
			},
			{
				"x": -2.780280074,
				"y": -1.3184695857,
				"z": -2.9167040478,
				"element": "H" 
			}
		],
		 "valence_orbital": [ 
			{
				"type": "occ",
				"energy": -0.32321,
				"method": "rhf"
			},
			{
				"type": "occ",
				"energy": -0.29921,
				"method": "rhf"
			},
			{
				"type": "occ",
				"energy": -0.26319,
				"method": "rhf"
			},
			{
				"type": "occ",
				"energy": -0.24525,
				"method": "rhf"
			},
			{
				"type": "occ",
				"energy": -0.23095,
				"method": "rhf"
			},
			{
				"type": "unocc",
				"energy": -0.01377,
				"method": "rhf"
			},
			{
				"type": "unocc",
				"energy": 0.05767,
				"method": "rhf"
			},
			{
				"type": "unocc",
				"energy": 0.06246,
				"method": "rhf"
			},
			{
				"type": "unocc",
				"energy": 0.08528,
				"method": "rhf"
			},
			{
				"type": "unocc",
				"energy": 0.1056,
				"method": "rhf"
			}
		],
		"cosmo_sigma_profile": { 
			"-0.025": 0.0,
			"-0.024": 0.0,
			"-0.023": 0.0,
			"-0.022": 0.0,
			"-0.021": 0.0,
			"-0.02": 0.0,
			"-0.019": 0.245145331361,
			"-0.018": 1.11509078931,
			"-0.017": 0.626792612826,
			"-0.016": 1.1341982094,
			"-0.015": 0.529951035899,
			"-0.014": 1.03902192583,
			"-0.013": 1.24985879988,
			"-0.012": 1.60930552759,
			"-0.011": 2.0097179741,
			"-0.01": 2.20704828834,
			"-0.009": 1.05772634259,
			"-0.008": 2.42772977087,
			"-0.007": 3.83712290068,
			"-0.006": 4.90814720906,
			"-0.005": 6.8172484259,
			"-0.004": 12.2269012959,
			"-0.003": 21.2640428704,
			"-0.002": 25.1139896166,
			"-0.001": 24.9897042808,
			"0.0": 18.0174342624,
			"0.001": 10.1047679936,
			"0.002": 6.46633903792,
			"0.003": 4.55469148579,
			"0.004": 5.03648173463,
			"0.005": 6.00265735829,
			"0.006": 4.73676668619,
			"0.007": 4.01965244838,
			"0.008": 3.08793497535,
			"0.009": 4.85142400027,
			"0.01": 4.06144426668,
			"0.011": 3.82751834694,
			"0.012": 1.53266164441,
			"0.013": 2.23944451362,
			"0.014": 5.13421892119,
			"0.015": 3.21401531605,
			"0.016": 0.0567177509467,
			"0.017": 0.0,
			"0.018": 0.0,
			"0.019": 0.0,
			"0.02": 0.0,
			"0.021": 0.0,
			"0.022": 0.0,
			"0.023": 0.0,
			"0.024": 0.0,
			"0.025": 0.0
		}
	}
}
