{
	 "smiles": "COC1=CC=C(O)C(=C1)C(C)=O", 
	 "Tm": 322.15, 
	 "num_atms": 22, 
	 "gaussian": { 
		 "optdone": 1, 
		 "sigma_profile": "yes", 
		 "theory": "DFT", 
		 "functional": "B3LYP", 
		 "basiset": "6-31G**", 
		 "properties": { 
			 "R2extent": 2348.1923, 
			 "electric_dipole_moment_norm": 3.99655493894, 
			 "electric_quadrupole_moment_norm": 5.19148169697, 
			 "total_energy": -574.65515234, 
			 "HOMO_LUMO_gap": 0.14495, 
			 "cosmo_polarized_energy": -9.7, 
			 "cosmo_cavitation_energy": 25.53, 
			 "cosmo_dispersion_energy": -18.95, 
			 "cosmo_repulsion_energy": 1.5, 
			 "cosmo_total_nonelectrostatic_energy": 8.08, 
			 "SMD_solvation_energy": 6.05 
		},
		"coords": [
			{
				"x": -3.7681034621,
				"y": 1.2127757258,
				"z": -0.7502559008,
				"element": "C" 
			},
			{
				"x": -2.931990125,
				"y": 0.7274363819,
				"z": -1.7850134415,
				"element": "O" 
			},
			{
				"x": -1.6522273059,
				"y": 0.3680136844,
				"z": -1.4579822014,
				"element": "C" 
			},
			{
				"x": -0.8666837611,
				"y": -0.1074313873,
				"z": -2.529562893,
				"element": "C" 
			},
			{
				"x": 0.4410510044,
				"y": -0.5015670615,
				"z": -2.3301651728,
				"element": "C" 
			},
			{
				"x": 1.02117135,
				"y": -0.4372530189,
				"z": -1.0478585074,
				"element": "C" 
			},
			{
				"x": 2.2943714831,
				"y": -0.8321918627,
				"z": -0.9105112944,
				"element": "O" 
			},
			{
				"x": 0.2431685442,
				"y": 0.038608412,
				"z": 0.0391216982,
				"element": "C" 
			},
			{
				"x": -1.0981370584,
				"y": 0.4381196075,
				"z": -0.189434283,
				"element": "C" 
			},
			{
				"x": 0.8511599569,
				"y": 0.1041680288,
				"z": 1.3747776597,
				"element": "C" 
			},
			{
				"x": 0.0477202214,
				"y": 0.6075134447,
				"z": 2.5576768041,
				"element": "C" 
			},
			{
				"x": 2.0279014861,
				"y": -0.2487423349,
				"z": 1.562087046,
				"element": "O" 
			},
			{
				"x": -3.3639822589,
				"y": 2.1283241478,
				"z": -0.2970945551,
				"element": "H" 
			},
			{
				"x": -4.7287706891,
				"y": 1.4385275651,
				"z": -1.2156720713,
				"element": "H" 
			},
			{
				"x": -3.9176760748,
				"y": 0.4615994879,
				"z": 0.0373092058,
				"element": "H" 
			},
			{
				"x": -1.3196235335,
				"y": -0.1544385113,
				"z": -3.5149156927,
				"element": "H" 
			},
			{
				"x": 1.0499055209,
				"y": -0.8677953321,
				"z": -3.1498097267,
				"element": "H" 
			},
			{
				"x": 2.5148729958,
				"y": -0.7126367426,
				"z": 0.0509168521,
				"element": "H" 
			},
			{
				"x": -1.6853555784,
				"y": 0.8000358633,
				"z": 0.6443744194,
				"element": "H" 
			},
			{
				"x": 0.680260897,
				"y": 0.5749221854,
				"z": 3.4450139924,
				"element": "H" 
			},
			{
				"x": -0.8403175696,
				"y": -0.0120769054,
				"z": 2.722181412,
				"element": "H" 
			},
			{
				"x": -0.293216043,
				"y": 1.6351886221,
				"z": 2.3927166504,
				"element": "H" 
			}
		],
		 "valence_orbital": [ 
			{
				"type": "occ",
				"energy": -0.34113,
				"method": "rhf"
			},
			{
				"type": "occ",
				"energy": -0.29959,
				"method": "rhf"
			},
			{
				"type": "occ",
				"energy": -0.26456,
				"method": "rhf"
			},
			{
				"type": "occ",
				"energy": -0.26162,
				"method": "rhf"
			},
			{
				"type": "occ",
				"energy": -0.20694,
				"method": "rhf"
			},
			{
				"type": "unocc",
				"energy": -0.06199,
				"method": "rhf"
			},
			{
				"type": "unocc",
				"energy": 0.01205,
				"method": "rhf"
			},
			{
				"type": "unocc",
				"energy": 0.03914,
				"method": "rhf"
			},
			{
				"type": "unocc",
				"energy": 0.08057,
				"method": "rhf"
			},
			{
				"type": "unocc",
				"energy": 0.10332,
				"method": "rhf"
			}
		],
		"cosmo_sigma_profile": { 
			"-0.025": 0.0,
			"-0.024": 0.0,
			"-0.023": 0.0,
			"-0.022": 0.0,
			"-0.021": 0.0,
			"-0.02": 0.0,
			"-0.019": 0.0,
			"-0.018": 0.0,
			"-0.017": 0.0,
			"-0.016": 0.0,
			"-0.015": 0.0,
			"-0.014": 0.0,
			"-0.013": 0.0,
			"-0.012": 0.0,
			"-0.011": 0.0,
			"-0.01": 0.0,
			"-0.009": 0.0,
			"-0.008": 0.00116095860794,
			"-0.007": 4.92735294504,
			"-0.006": 15.2603699446,
			"-0.005": 19.9706561532,
			"-0.004": 18.7199173895,
			"-0.003": 18.3422035997,
			"-0.002": 16.0287830083,
			"-0.001": 15.8109930277,
			"0.0": 11.1747836836,
			"0.001": 9.55318046728,
			"0.002": 13.1055862237,
			"0.003": 17.5929130482,
			"0.004": 9.76791747892,
			"0.005": 4.69889954203,
			"0.006": 4.6271528709,
			"0.007": 3.7784090367,
			"0.008": 4.10643242171,
			"0.009": 4.24162556067,
			"0.01": 4.92894590608,
			"0.011": 3.46686329904,
			"0.012": 2.66283043968,
			"0.013": 0.307394730974,
			"0.014": 0.0,
			"0.015": 0.0,
			"0.016": 0.0,
			"0.017": 0.0,
			"0.018": 0.0,
			"0.019": 0.0,
			"0.02": 0.0,
			"0.021": 0.0,
			"0.022": 0.0,
			"0.023": 0.0,
			"0.024": 0.0,
			"0.025": 0.0
		}
	}
}
