{
	 "smiles": "CN(C)C1=CC=C(CCC2CCC3=CC=CC=C3N2C(=O)C2=CC=CC=C2)C=C1", 
	 "Tm": 394.15, 
	 "num_atms": 57, 
	 "gaussian": { 
		 "optdone": 1, 
		 "sigma_profile": "yes", 
		 "theory": "DFT", 
		 "functional": "B3LYP", 
		 "basiset": "6-31G**", 
		 "properties": { 
			 "R2extent": 11449.9467, 
			 "electric_dipole_moment_norm": 2.28651186527, 
			 "electric_quadrupole_moment_norm": 23.3336059063, 
			 "total_energy": -1192.38079819, 
			 "HOMO_LUMO_gap": 0.16211, 
			 "cosmo_polarized_energy": -16.57, 
			 "cosmo_cavitation_energy": 55.67, 
			 "cosmo_dispersion_energy": -35.96, 
			 "cosmo_repulsion_energy": 2.69, 
			 "cosmo_total_nonelectrostatic_energy": 22.4, 
			 "SMD_solvation_energy": 8.14 
		},
		"coords": [
			{
				"x": -4.9600204088,
				"y": -2.4617228635,
				"z": -0.738850744,
				"element": "C" 
			},
			{
				"x": -4.4613165629,
				"y": -1.5651789856,
				"z": -1.7684718157,
				"element": "N" 
			},
			{
				"x": -4.5468124099,
				"y": -2.0170458999,
				"z": -3.1468127901,
				"element": "C" 
			},
			{
				"x": -3.4861100365,
				"y": -0.6285321067,
				"z": -1.4273571217,
				"element": "C" 
			},
			{
				"x": -3.1720221821,
				"y": -0.3441606051,
				"z": -0.0811778683,
				"element": "C" 
			},
			{
				"x": -2.2137522764,
				"y": 0.6123564729,
				"z": 0.2475365142,
				"element": "C" 
			},
			{
				"x": -1.5090549133,
				"y": 1.3261645741,
				"z": -0.727108148,
				"element": "C" 
			},
			{
				"x": -0.4948160923,
				"y": 2.3934643915,
				"z": -0.3593663856,
				"element": "C" 
			},
			{
				"x": 0.9145062843,
				"y": 2.2266917911,
				"z": -0.9822291679,
				"element": "C" 
			},
			{
				"x": 1.9892873341,
				"y": 1.5013510725,
				"z": -0.1397215755,
				"element": "C" 
			},
			{
				"x": 2.4582667195,
				"y": 2.3643603831,
				"z": 1.0466091048,
				"element": "C" 
			},
			{
				"x": 3.128307703,
				"y": 1.508771569,
				"z": 2.1266250522,
				"element": "C" 
			},
			{
				"x": 2.0905319962,
				"y": 0.5453481647,
				"z": 2.6378311965,
				"element": "C" 
			},
			{
				"x": 1.85438094,
				"y": 0.3343916087,
				"z": 3.9967294556,
				"element": "C" 
			},
			{
				"x": 0.845321774,
				"y": -0.5302811591,
				"z": 4.421719482,
				"element": "C" 
			},
			{
				"x": 0.0521051512,
				"y": -1.1727238872,
				"z": 3.4716438784,
				"element": "C" 
			},
			{
				"x": 0.258968798,
				"y": -0.9627234145,
				"z": 2.1072440768,
				"element": "C" 
			},
			{
				"x": 1.2845612581,
				"y": -0.1059908809,
				"z": 1.6828746696,
				"element": "C" 
			},
			{
				"x": 1.5884379783,
				"y": 0.127527813,
				"z": 0.3001614514,
				"element": "N" 
			},
			{
				"x": 1.5197496165,
				"y": -0.9201238859,
				"z": -0.6120770376,
				"element": "C" 
			},
			{
				"x": 1.006651238,
				"y": -2.0031474577,
				"z": -0.3578171393,
				"element": "O" 
			},
			{
				"x": 2.1475707749,
				"y": -0.739891353,
				"z": -1.9765583502,
				"element": "C" 
			},
			{
				"x": 1.3426543176,
				"y": -0.9045028781,
				"z": -3.1117543856,
				"element": "C" 
			},
			{
				"x": 1.9097116007,
				"y": -0.8733513696,
				"z": -4.3856296786,
				"element": "C" 
			},
			{
				"x": 3.2886941581,
				"y": -0.7103477052,
				"z": -4.5379356061,
				"element": "C" 
			},
			{
				"x": 4.0997811092,
				"y": -0.5778807847,
				"z": -3.4095519382,
				"element": "C" 
			},
			{
				"x": 3.5319808084,
				"y": -0.5886034771,
				"z": -2.1345154951,
				"element": "C" 
			},
			{
				"x": -1.826687121,
				"y": 1.0468158328,
				"z": -2.0633606719,
				"element": "C" 
			},
			{
				"x": -2.7784914483,
				"y": 0.0937029418,
				"z": -2.4151436471,
				"element": "C" 
			},
			{
				"x": -5.7185526183,
				"y": -3.1160659745,
				"z": -1.1723554649,
				"element": "H" 
			},
			{
				"x": -4.1725352844,
				"y": -3.0918763316,
				"z": -0.2950437377,
				"element": "H" 
			},
			{
				"x": -5.4386184113,
				"y": -1.8997185506,
				"z": 0.0705889668,
				"element": "H" 
			},
			{
				"x": -3.6200197984,
				"y": -2.4944641862,
				"z": -3.5045027408,
				"element": "H" 
			},
			{
				"x": -4.7781256573,
				"y": -1.183694993,
				"z": -3.8194546368,
				"element": "H" 
			},
			{
				"x": -5.3595142235,
				"y": -2.7402394522,
				"z": -3.2355495891,
				"element": "H" 
			},
			{
				"x": -3.6710006314,
				"y": -0.8718249818,
				"z": 0.722310384,
				"element": "H" 
			},
			{
				"x": -2.002217779,
				"y": 0.7943853728,
				"z": 1.2978559569,
				"element": "H" 
			},
			{
				"x": -0.4239391421,
				"y": 2.4571908588,
				"z": 0.7322664404,
				"element": "H" 
			},
			{
				"x": -0.8846140882,
				"y": 3.3676521423,
				"z": -0.6839979691,
				"element": "H" 
			},
			{
				"x": 1.3322892838,
				"y": 3.2184341018,
				"z": -1.2000828531,
				"element": "H" 
			},
			{
				"x": 0.8258556967,
				"y": 1.7225890716,
				"z": -1.9490726748,
				"element": "H" 
			},
			{
				"x": 2.8549650211,
				"y": 1.3737808761,
				"z": -0.792060577,
				"element": "H" 
			},
			{
				"x": 3.1359594638,
				"y": 3.1317809987,
				"z": 0.6564032244,
				"element": "H" 
			},
			{
				"x": 1.6100314431,
				"y": 2.8898718705,
				"z": 1.4996749288,
				"element": "H" 
			},
			{
				"x": 3.5172095124,
				"y": 2.1296190824,
				"z": 2.9398572099,
				"element": "H" 
			},
			{
				"x": 3.9845366723,
				"y": 0.9702005275,
				"z": 1.694477129,
				"element": "H" 
			},
			{
				"x": 2.4741810023,
				"y": 0.8520487492,
				"z": 4.7250196023,
				"element": "H" 
			},
			{
				"x": 0.6776387447,
				"y": -0.6947740695,
				"z": 5.4821461119,
				"element": "H" 
			},
			{
				"x": -0.7410244632,
				"y": -1.8443082327,
				"z": 3.7881519048,
				"element": "H" 
			},
			{
				"x": -0.353430986,
				"y": -1.4667217104,
				"z": 1.3756403316,
				"element": "H" 
			},
			{
				"x": 0.2750708237,
				"y": -1.0546944644,
				"z": -2.9852729077,
				"element": "H" 
			},
			{
				"x": 1.275970597,
				"y": -0.9882872285,
				"z": -5.2604915369,
				"element": "H" 
			},
			{
				"x": 3.7299008566,
				"y": -0.6957648559,
				"z": -5.5304425864,
				"element": "H" 
			},
			{
				"x": 5.1751486411,
				"y": -0.4708940075,
				"z": -3.5201587102,
				"element": "H" 
			},
			{
				"x": 4.1687495538,
				"y": -0.5004839863,
				"z": -1.2582263966,
				"element": "H" 
			},
			{
				"x": -1.3218657167,
				"y": 1.5869919245,
				"z": -2.8615325618,
				"element": "H" 
			},
			{
				"x": -2.9746346212,
				"y": -0.0785704525,
				"z": -3.466482563,
				"element": "H" 
			}
		],
		 "valence_orbital": [ 
			{
				"type": "occ",
				"energy": -0.23916,
				"method": "rhf"
			},
			{
				"type": "occ",
				"energy": -0.23532,
				"method": "rhf"
			},
			{
				"type": "occ",
				"energy": -0.22774,
				"method": "rhf"
			},
			{
				"type": "occ",
				"energy": -0.20864,
				"method": "rhf"
			},
			{
				"type": "occ",
				"energy": -0.18058,
				"method": "rhf"
			},
			{
				"type": "unocc",
				"energy": -0.01847,
				"method": "rhf"
			},
			{
				"type": "unocc",
				"energy": -0.00458,
				"method": "rhf"
			},
			{
				"type": "unocc",
				"energy": 0.00461,
				"method": "rhf"
			},
			{
				"type": "unocc",
				"energy": 0.00699,
				"method": "rhf"
			},
			{
				"type": "unocc",
				"energy": 0.01478,
				"method": "rhf"
			}
		],
		"cosmo_sigma_profile": { 
			"-0.025": 0.0,
			"-0.024": 0.0,
			"-0.023": 0.0,
			"-0.022": 0.0,
			"-0.021": 0.0,
			"-0.02": 0.0,
			"-0.019": 0.0,
			"-0.018": 0.0,
			"-0.017": 0.0,
			"-0.016": 0.0,
			"-0.015": 0.0,
			"-0.014": 0.0,
			"-0.013": 0.0,
			"-0.012": 0.0,
			"-0.011": 0.0,
			"-0.01": 0.0,
			"-0.009": 0.0,
			"-0.008": 0.0,
			"-0.007": 0.555361191092,
			"-0.006": 11.0075871322,
			"-0.005": 28.8682022467,
			"-0.004": 45.8172708018,
			"-0.003": 51.8915959663,
			"-0.002": 54.1435899956,
			"-0.001": 50.7133596475,
			"0.0": 37.7432536224,
			"0.001": 26.6030255399,
			"0.002": 22.418417421,
			"0.003": 18.8603930254,
			"0.004": 21.4408561607,
			"0.005": 23.3020478544,
			"0.006": 17.3896978782,
			"0.007": 10.1626743107,
			"0.008": 4.16175135559,
			"0.009": 2.50613590872,
			"0.01": 1.95095272507,
			"0.011": 2.2431668147,
			"0.012": 2.49263360018,
			"0.013": 3.5338952781,
			"0.014": 1.82038253346,
			"0.015": 0.177550787336,
			"0.016": 0.0,
			"0.017": 0.0,
			"0.018": 0.0,
			"0.019": 0.0,
			"0.02": 0.0,
			"0.021": 0.0,
			"0.022": 0.0,
			"0.023": 0.0,
			"0.024": 0.0,
			"0.025": 0.0
		}
	}
}
