{
	 "smiles": "CCC1=C(C)C=C(C)C=C1C", 
	 "Tm": 257.15, 
	 "num_atms": 27, 
	 "gaussian": { 
		 "optdone": 1, 
		 "sigma_profile": "yes", 
		 "theory": "DFT", 
		 "functional": "B3LYP", 
		 "basiset": "6-31G**", 
		 "properties": { 
			 "R2extent": 2954.0547, 
			 "electric_dipole_moment_norm": 0.280677786795, 
			 "electric_quadrupole_moment_norm": 4.11225697397, 
			 "total_energy": -428.843114731, 
			 "HOMO_LUMO_gap": 0.22659, 
			 "cosmo_polarized_energy": -3.29, 
			 "cosmo_cavitation_energy": 28.03, 
			 "cosmo_dispersion_energy": -20.19, 
			 "cosmo_repulsion_energy": 1.61, 
			 "cosmo_total_nonelectrostatic_energy": 9.46, 
			 "SMD_solvation_energy": 4.87 
		},
		"coords": [
			{
				"x": 0.7976287159,
				"y": 2.5317794133,
				"z": -1.85983405,
				"element": "C" 
			},
			{
				"x": 0.890308648,
				"y": 1.2800233886,
				"z": -2.7551577194,
				"element": "C" 
			},
			{
				"x": 0.9016980507,
				"y": -0.0196353554,
				"z": -1.9706499015,
				"element": "C" 
			},
			{
				"x": -0.3075397048,
				"y": -0.6744097947,
				"z": -1.6523518863,
				"element": "C" 
			},
			{
				"x": -1.6451068461,
				"y": -0.1374286438,
				"z": -2.1166875548,
				"element": "C" 
			},
			{
				"x": -0.2778888245,
				"y": -1.8568867939,
				"z": -0.9047231961,
				"element": "C" 
			},
			{
				"x": 0.9194041228,
				"y": -2.4187661411,
				"z": -0.4554233966,
				"element": "C" 
			},
			{
				"x": 0.9267160008,
				"y": -3.6778602694,
				"z": 0.379633746,
				"element": "C" 
			},
			{
				"x": 2.1082278087,
				"y": -1.763637043,
				"z": -0.7849456985,
				"element": "C" 
			},
			{
				"x": 2.1203331266,
				"y": -0.5795598174,
				"z": -1.5305189049,
				"element": "C" 
			},
			{
				"x": 3.4517298278,
				"y": 0.0616289632,
				"z": -1.8610898638,
				"element": "C" 
			},
			{
				"x": 0.7924585231,
				"y": 3.4460785079,
				"z": -2.463110616,
				"element": "H" 
			},
			{
				"x": 1.6441591793,
				"y": 2.5886944571,
				"z": -1.1682135884,
				"element": "H" 
			},
			{
				"x": -0.1151143673,
				"y": 2.521044304,
				"z": -1.2557059592,
				"element": "H" 
			},
			{
				"x": 0.0500722574,
				"y": 1.2855752143,
				"z": -3.457168051,
				"element": "H" 
			},
			{
				"x": 1.792757081,
				"y": 1.3529231881,
				"z": -3.3709264067,
				"element": "H" 
			},
			{
				"x": -2.4634864632,
				"y": -0.7491155181,
				"z": -1.7276057119,
				"element": "H" 
			},
			{
				"x": -1.817166489,
				"y": 0.8926869389,
				"z": -1.785964351,
				"element": "H" 
			},
			{
				"x": -1.7273183255,
				"y": -0.1377441779,
				"z": -3.2106029392,
				"element": "H" 
			},
			{
				"x": -1.2178138709,
				"y": -2.3526722541,
				"z": -0.6698773313,
				"element": "H" 
			},
			{
				"x": 0.0773592509,
				"y": -4.3243269503,
				"z": 0.1376358236,
				"element": "H" 
			},
			{
				"x": 0.863085925,
				"y": -3.4468138098,
				"z": 1.4507764014,
				"element": "H" 
			},
			{
				"x": 1.8444982868,
				"y": -4.2544164689,
				"z": 0.2275136395,
				"element": "H" 
			},
			{
				"x": 3.0556957254,
				"y": -2.1856916906,
				"z": -0.4554194838,
				"element": "H" 
			},
			{
				"x": 4.2722811811,
				"y": -0.486089769,
				"z": -1.3899340603,
				"element": "H" 
			},
			{
				"x": 3.6424415975,
				"y": 0.0720296268,
				"z": -2.9413340423,
				"element": "H" 
			},
			{
				"x": 3.5092795826,
				"y": 1.1006904953,
				"z": -1.5188148977,
				"element": "H" 
			}
		],
		 "valence_orbital": [ 
			{
				"type": "occ",
				"energy": -0.31966,
				"method": "rhf"
			},
			{
				"type": "occ",
				"energy": -0.31692,
				"method": "rhf"
			},
			{
				"type": "occ",
				"energy": -0.31134,
				"method": "rhf"
			},
			{
				"type": "occ",
				"energy": -0.22633,
				"method": "rhf"
			},
			{
				"type": "occ",
				"energy": -0.21821,
				"method": "rhf"
			},
			{
				"type": "unocc",
				"energy": 0.00838,
				"method": "rhf"
			},
			{
				"type": "unocc",
				"energy": 0.01459,
				"method": "rhf"
			},
			{
				"type": "unocc",
				"energy": 0.08775,
				"method": "rhf"
			},
			{
				"type": "unocc",
				"energy": 0.10872,
				"method": "rhf"
			},
			{
				"type": "unocc",
				"energy": 0.11159,
				"method": "rhf"
			}
		],
		"cosmo_sigma_profile": { 
			"-0.025": 0.0,
			"-0.024": 0.0,
			"-0.023": 0.0,
			"-0.022": 0.0,
			"-0.021": 0.0,
			"-0.02": 0.0,
			"-0.019": 0.0,
			"-0.018": 0.0,
			"-0.017": 0.0,
			"-0.016": 0.0,
			"-0.015": 0.0,
			"-0.014": 0.0,
			"-0.013": 0.0,
			"-0.012": 0.0,
			"-0.011": 0.0,
			"-0.01": 0.0,
			"-0.009": 0.0,
			"-0.008": 0.0,
			"-0.007": 0.0,
			"-0.006": 0.0,
			"-0.005": 0.271555056736,
			"-0.004": 14.94465951,
			"-0.003": 30.7682467797,
			"-0.002": 29.4053143457,
			"-0.001": 29.3723353404,
			"0.0": 35.5799093642,
			"0.001": 29.8411131248,
			"0.002": 13.1360989495,
			"0.003": 7.99256790441,
			"0.004": 6.79575362168,
			"0.005": 5.88228149016,
			"0.006": 6.36960121247,
			"0.007": 6.02244382615,
			"0.008": 2.566728138,
			"0.009": 0.0,
			"0.01": 0.0,
			"0.011": 0.0,
			"0.012": 0.0,
			"0.013": 0.0,
			"0.014": 0.0,
			"0.015": 0.0,
			"0.016": 0.0,
			"0.017": 0.0,
			"0.018": 0.0,
			"0.019": 0.0,
			"0.02": 0.0,
			"0.021": 0.0,
			"0.022": 0.0,
			"0.023": 0.0,
			"0.024": 0.0,
			"0.025": 0.0
		}
	}
}
