{
	 "smiles": "CC1=C(C=C(C=C1[N+]([O-])=O)C(O)=O)S(Cl)(=O)=O", 
	 "Tm": 450.15, 
	 "num_atms": 23, 
	 "gaussian": { 
		 "optdone": 1, 
		 "sigma_profile": "yes", 
		 "theory": "DFT", 
		 "functional": "B3LYP", 
		 "basiset": "6-31G**", 
		 "properties": { 
			 "R2extent": 5467.3707, 
			 "electric_dipole_moment_norm": 2.19116075175, 
			 "electric_quadrupole_moment_norm": 14.4365706212, 
			 "total_energy": -1672.76688099, 
			 "HOMO_LUMO_gap": 0.18236, 
			 "cosmo_polarized_energy": -20.87, 
			 "cosmo_cavitation_energy": 31.92, 
			 "cosmo_dispersion_energy": -23.4, 
			 "cosmo_repulsion_energy": 1.76, 
			 "cosmo_total_nonelectrostatic_energy": 10.28, 
			 "SMD_solvation_energy": 7.66 
		},
		"coords": [
			{
				"x": 0.8755142141,
				"y": -2.2913305108,
				"z": 2.0514858192,
				"element": "C" 
			},
			{
				"x": -0.0087755482,
				"y": -1.170668854,
				"z": 1.5637923375,
				"element": "C" 
			},
			{
				"x": -0.2411385919,
				"y": -0.9136759386,
				"z": 0.1963375575,
				"element": "C" 
			},
			{
				"x": -1.0172108412,
				"y": 0.1474326663,
				"z": -0.272663056,
				"element": "C" 
			},
			{
				"x": -1.6039875574,
				"y": 1.0326241026,
				"z": 0.63173951,
				"element": "C" 
			},
			{
				"x": -1.4194230688,
				"y": 0.8104185043,
				"z": 1.9965154632,
				"element": "C" 
			},
			{
				"x": -0.6547633683,
				"y": -0.2651929489,
				"z": 2.4313244106,
				"element": "C" 
			},
			{
				"x": -0.5654681008,
				"y": -0.4225069162,
				"z": 3.9013719889,
				"element": "N" 
			},
			{
				"x": -0.5202072199,
				"y": -1.565014011,
				"z": 4.3508795377,
				"element": "O" 
			},
			{
				"x": -0.5738116803,
				"y": 0.6062658979,
				"z": 4.5703930861,
				"element": "O" 
			},
			{
				"x": -2.4748109737,
				"y": 2.1922214388,
				"z": 0.2261835443,
				"element": "C" 
			},
			{
				"x": -2.3779428542,
				"y": 2.6232989221,
				"z": -1.0526165944,
				"element": "O" 
			},
			{
				"x": -3.2362968819,
				"y": 2.7198655045,
				"z": 0.9987538584,
				"element": "O" 
			},
			{
				"x": 0.3975846554,
				"y": -1.9934162357,
				"z": -1.1058729495,
				"element": "S" 
			},
			{
				"x": 2.4484586687,
				"y": -1.4296025838,
				"z": -1.156007458,
				"element": "Cl" 
			},
			{
				"x": 0.3483895755,
				"y": -3.3846991681,
				"z": -0.6818098628,
				"element": "O" 
			},
			{
				"x": -0.169893929,
				"y": -1.5564483955,
				"z": -2.3753146992,
				"element": "O" 
			},
			{
				"x": 0.2842028667,
				"y": -3.1998351315,
				"z": 2.1991001338,
				"element": "H" 
			},
			{
				"x": 1.3303384338,
				"y": -2.0438587824,
				"z": 3.0089089915,
				"element": "H" 
			},
			{
				"x": 1.6607592731,
				"y": -2.518586384,
				"z": 1.3331121645,
				"element": "H" 
			},
			{
				"x": -1.1685979148,
				"y": 0.2342087238,
				"z": -1.343267941,
				"element": "H" 
			},
			{
				"x": -1.8794424508,
				"y": 1.476370442,
				"z": 2.7163778685,
				"element": "H" 
			},
			{
				"x": -1.621876706,
				"y": 2.2282296584,
				"z": -1.508323711,
				"element": "H" 
			}
		],
		 "valence_orbital": [ 
			{
				"type": "occ",
				"energy": -0.33821,
				"method": "rhf"
			},
			{
				"type": "occ",
				"energy": -0.33341,
				"method": "rhf"
			},
			{
				"type": "occ",
				"energy": -0.3183,
				"method": "rhf"
			},
			{
				"type": "occ",
				"energy": -0.31176,
				"method": "rhf"
			},
			{
				"type": "occ",
				"energy": -0.30391,
				"method": "rhf"
			},
			{
				"type": "unocc",
				"energy": -0.12155,
				"method": "rhf"
			},
			{
				"type": "unocc",
				"energy": -0.11447,
				"method": "rhf"
			},
			{
				"type": "unocc",
				"energy": -0.09278,
				"method": "rhf"
			},
			{
				"type": "unocc",
				"energy": -0.0637,
				"method": "rhf"
			},
			{
				"type": "unocc",
				"energy": -0.00058,
				"method": "rhf"
			}
		],
		"cosmo_sigma_profile": { 
			"-0.025": 0.0,
			"-0.024": 0.0,
			"-0.023": 0.0,
			"-0.022": 0.0,
			"-0.021": 0.370605994332,
			"-0.02": 1.06158824451,
			"-0.019": 1.24842959339,
			"-0.018": 1.02364225682,
			"-0.017": 1.08236826164,
			"-0.016": 0.911920662017,
			"-0.015": 0.815992728634,
			"-0.014": 1.35278757343,
			"-0.013": 1.05555204432,
			"-0.012": 1.20357607071,
			"-0.011": 1.5647406559,
			"-0.01": 2.29921074174,
			"-0.009": 3.19218327578,
			"-0.008": 5.54959018087,
			"-0.007": 7.52187482908,
			"-0.006": 10.6177662799,
			"-0.005": 16.2455788074,
			"-0.004": 21.2650412658,
			"-0.003": 20.2379963992,
			"-0.002": 15.8827014323,
			"-0.001": 9.66594824484,
			"0.0": 11.7431556762,
			"0.001": 14.1898262259,
			"0.002": 14.5532898848,
			"0.003": 14.2845744287,
			"0.004": 8.68719816853,
			"0.005": 8.6716280837,
			"0.006": 13.8974164995,
			"0.007": 17.7116384594,
			"0.008": 13.6021898158,
			"0.009": 7.43510387325,
			"0.01": 4.9784671333,
			"0.011": 4.07846155311,
			"0.012": 1.31845273979,
			"0.013": 0.0217908443705,
			"0.014": 0.0,
			"0.015": 0.0,
			"0.016": 0.0,
			"0.017": 0.0,
			"0.018": 0.0,
			"0.019": 0.0,
			"0.02": 0.0,
			"0.021": 0.0,
			"0.022": 0.0,
			"0.023": 0.0,
			"0.024": 0.0,
			"0.025": 0.0
		}
	}
}
