{
	 "smiles": "ClC1=CC=C(C=C2N=C(OC2=O)C2=CC=CC=C2)C=C1", 
	 "Tm": 465.15, 
	 "num_atms": 30, 
	 "gaussian": { 
		 "optdone": 1, 
		 "sigma_profile": "yes", 
		 "theory": "DFT", 
		 "functional": "B3LYP", 
		 "basiset": "6-31G**", 
		 "properties": { 
			 "R2extent": 11047.4361, 
			 "electric_dipole_moment_norm": 3.41345818929, 
			 "electric_quadrupole_moment_norm": 8.8137580407, 
			 "total_energy": -1281.12617429, 
			 "HOMO_LUMO_gap": 0.12322, 
			 "cosmo_polarized_energy": -9.73, 
			 "cosmo_cavitation_energy": 37.71, 
			 "cosmo_dispersion_energy": -27.93, 
			 "cosmo_repulsion_energy": 2.09, 
			 "cosmo_total_nonelectrostatic_energy": 11.88, 
			 "SMD_solvation_energy": 5.54 
		},
		"coords": [
			{
				"x": 4.1072512854,
				"y": 6.3110060295,
				"z": 1.9640298796,
				"element": "Cl" 
			},
			{
				"x": 3.2135724504,
				"y": 4.8183455513,
				"z": 1.7499734079,
				"element": "C" 
			},
			{
				"x": 3.2926120297,
				"y": 3.8252141021,
				"z": 2.7278508265,
				"element": "C" 
			},
			{
				"x": 2.5795485542,
				"y": 2.64765796,
				"z": 2.5455259983,
				"element": "C" 
			},
			{
				"x": 1.7798037455,
				"y": 2.4313550286,
				"z": 1.399740504,
				"element": "C" 
			},
			{
				"x": 1.0832910865,
				"y": 1.1604752882,
				"z": 1.3245175068,
				"element": "C" 
			},
			{
				"x": 0.2426754028,
				"y": 0.5904639007,
				"z": 0.4131243868,
				"element": "C" 
			},
			{
				"x": -0.2811795738,
				"y": -0.6902945026,
				"z": 0.633140985,
				"element": "N" 
			},
			{
				"x": -1.0299229658,
				"y": -0.9542375567,
				"z": -0.3851653263,
				"element": "C" 
			},
			{
				"x": -1.0985743522,
				"y": 0.0387221124,
				"z": -1.3425617777,
				"element": "O" 
			},
			{
				"x": -0.2889548783,
				"y": 1.0801478087,
				"z": -0.8852505173,
				"element": "C" 
			},
			{
				"x": -0.1567881448,
				"y": 2.0933669557,
				"z": -1.5272621539,
				"element": "O" 
			},
			{
				"x": -1.798378248,
				"y": -2.1686740737,
				"z": -0.6274074012,
				"element": "C" 
			},
			{
				"x": -1.7588456036,
				"y": -3.2063440372,
				"z": 0.3204631227,
				"element": "C" 
			},
			{
				"x": -2.4864451327,
				"y": -4.3711036024,
				"z": 0.1034865953,
				"element": "C" 
			},
			{
				"x": -3.2575404825,
				"y": -4.512950466,
				"z": -1.0553215076,
				"element": "C" 
			},
			{
				"x": -3.2986752013,
				"y": -3.4837975923,
				"z": -1.9984731758,
				"element": "C" 
			},
			{
				"x": -2.5729802125,
				"y": -2.3128291919,
				"z": -1.7899346847,
				"element": "C" 
			},
			{
				"x": 1.723076619,
				"y": 3.4580818649,
				"z": 0.4303572167,
				"element": "C" 
			},
			{
				"x": 2.4338680072,
				"y": 4.6400613572,
				"z": 0.6051574867,
				"element": "C" 
			},
			{
				"x": 3.9016485031,
				"y": 3.9764332649,
				"z": 3.6119272601,
				"element": "H" 
			},
			{
				"x": 2.638660497,
				"y": 1.8724810802,
				"z": 3.30451222,
				"element": "H" 
			},
			{
				"x": 1.2602198596,
				"y": 0.5053618009,
				"z": 2.1758042735,
				"element": "H" 
			},
			{
				"x": -1.1553733546,
				"y": -3.0780424167,
				"z": 1.212579125,
				"element": "H" 
			},
			{
				"x": -2.4545713416,
				"y": -5.1713899267,
				"z": 0.8367560356,
				"element": "H" 
			},
			{
				"x": -3.8245998637,
				"y": -5.4242932085,
				"z": -1.221395024,
				"element": "H" 
			},
			{
				"x": -3.89685349,
				"y": -3.5930540226,
				"z": -2.8980413523,
				"element": "H" 
			},
			{
				"x": -2.5999271125,
				"y": -1.5094577077,
				"z": -2.5176740592,
				"element": "H" 
			},
			{
				"x": 1.1197332945,
				"y": 3.3238598435,
				"z": -0.458583813,
				"element": "H" 
			},
			{
				"x": 2.3853486231,
				"y": 5.4233343563,
				"z": -0.1431760375,
				"element": "H" 
			}
		],
		 "valence_orbital": [ 
			{
				"type": "occ",
				"energy": -0.27735,
				"method": "rhf"
			},
			{
				"type": "occ",
				"energy": -0.27215,
				"method": "rhf"
			},
			{
				"type": "occ",
				"energy": -0.26909,
				"method": "rhf"
			},
			{
				"type": "occ",
				"energy": -0.26576,
				"method": "rhf"
			},
			{
				"type": "occ",
				"energy": -0.22088,
				"method": "rhf"
			},
			{
				"type": "unocc",
				"energy": -0.09766,
				"method": "rhf"
			},
			{
				"type": "unocc",
				"energy": -0.03968,
				"method": "rhf"
			},
			{
				"type": "unocc",
				"energy": -0.01998,
				"method": "rhf"
			},
			{
				"type": "unocc",
				"energy": -0.01467,
				"method": "rhf"
			},
			{
				"type": "unocc",
				"energy": 5e-05,
				"method": "rhf"
			}
		],
		"cosmo_sigma_profile": { 
			"-0.025": 0.0,
			"-0.024": 0.0,
			"-0.023": 0.0,
			"-0.022": 0.0,
			"-0.021": 0.0,
			"-0.02": 0.0,
			"-0.019": 0.0,
			"-0.018": 0.0,
			"-0.017": 0.0,
			"-0.016": 0.0,
			"-0.015": 0.0,
			"-0.014": 0.0,
			"-0.013": 0.0,
			"-0.012": 0.0,
			"-0.011": 0.0,
			"-0.01": 0.0,
			"-0.009": 1.24243007571,
			"-0.008": 4.35412356637,
			"-0.007": 9.9089575259,
			"-0.006": 18.4051835889,
			"-0.005": 18.357892005,
			"-0.004": 18.13715795,
			"-0.003": 17.4240250588,
			"-0.002": 19.1182588067,
			"-0.001": 22.7534802137,
			"0.0": 27.9592087249,
			"0.001": 35.3985257905,
			"0.002": 35.0211905924,
			"0.003": 27.519649153,
			"0.004": 23.6785534634,
			"0.005": 6.91411511381,
			"0.006": 3.38950163551,
			"0.007": 4.14906192418,
			"0.008": 3.1487998166,
			"0.009": 3.40369052277,
			"0.01": 3.89690170505,
			"0.011": 2.74611089297,
			"0.012": 0.809263887761,
			"0.013": 0.0,
			"0.014": 0.0,
			"0.015": 0.0,
			"0.016": 0.0,
			"0.017": 0.0,
			"0.018": 0.0,
			"0.019": 0.0,
			"0.02": 0.0,
			"0.021": 0.0,
			"0.022": 0.0,
			"0.023": 0.0,
			"0.024": 0.0,
			"0.025": 0.0
		}
	}
}
