{
	 "smiles": "OC(=O)C1CCN(CC1)C1=NC=C(Br)C=C1", 
	 "Tm": 487.15, 
	 "num_atms": 29, 
	 "gaussian": { 
		 "optdone": 1, 
		 "sigma_profile": "yes", 
		 "theory": "DFT", 
		 "functional": "B3LYP", 
		 "basiset": "6-31G**", 
		 "properties": { 
			 "R2extent": 9211.3112, 
			 "electric_dipole_moment_norm": 3.54864674348, 
			 "electric_quadrupole_moment_norm": 20.2691162555, 
			 "total_energy": -3258.36761678, 
			 "HOMO_LUMO_gap": 0.17644, 
			 "cosmo_polarized_energy": -17.44, 
			 "cosmo_cavitation_energy": 33.69, 
			 "cosmo_dispersion_energy": -25.17, 
			 "cosmo_repulsion_energy": 1.95, 
			 "cosmo_total_nonelectrostatic_energy": 10.46, 
			 "SMD_solvation_energy": 3.49 
		},
		"coords": [
			{
				"x": -4.5155956025,
				"y": -0.2560916217,
				"z": 1.9519535456,
				"element": "O" 
			},
			{
				"x": -3.454144702,
				"y": -1.0752338158,
				"z": 2.1832767639,
				"element": "C" 
			},
			{
				"x": -3.2527554174,
				"y": -1.4925340112,
				"z": 3.2970365343,
				"element": "O" 
			},
			{
				"x": -2.5913912131,
				"y": -1.3891603593,
				"z": 0.9590062602,
				"element": "C" 
			},
			{
				"x": -1.4138817232,
				"y": -2.3121073656,
				"z": 1.3250149017,
				"element": "C" 
			},
			{
				"x": -0.1848720413,
				"y": -1.5363227591,
				"z": 1.8026666028,
				"element": "C" 
			},
			{
				"x": 0.2589746634,
				"y": -0.5845909074,
				"z": 0.7818190865,
				"element": "N" 
			},
			{
				"x": -0.6762365761,
				"y": -0.2420032404,
				"z": -0.2886471657,
				"element": "C" 
			},
			{
				"x": -2.0900136252,
				"y": -0.0752346579,
				"z": 0.2783273514,
				"element": "C" 
			},
			{
				"x": 1.4695879421,
				"y": 0.0607379406,
				"z": 0.8984436582,
				"element": "C" 
			},
			{
				"x": 1.8266545806,
				"y": 0.885559368,
				"z": -0.1066612695,
				"element": "N" 
			},
			{
				"x": 2.9962930772,
				"y": 1.5225176561,
				"z": -0.0425763841,
				"element": "C" 
			},
			{
				"x": 3.8844595084,
				"y": 1.3728599987,
				"z": 1.0176605615,
				"element": "C" 
			},
			{
				"x": 5.5471107253,
				"y": 2.3091812643,
				"z": 1.0249377327,
				"element": "Br" 
			},
			{
				"x": 3.5277118406,
				"y": 0.5302356312,
				"z": 2.0717462217,
				"element": "C" 
			},
			{
				"x": 2.3109640768,
				"y": -0.1319505527,
				"z": 2.024598539,
				"element": "C" 
			},
			{
				"x": -4.550723828,
				"y": -0.0042701844,
				"z": 1.0181872119,
				"element": "H" 
			},
			{
				"x": -3.240877393,
				"y": -1.9247889534,
				"z": 0.2525478716,
				"element": "H" 
			},
			{
				"x": -1.1412782138,
				"y": -2.9128758395,
				"z": 0.4512871016,
				"element": "H" 
			},
			{
				"x": -1.7233536647,
				"y": -2.9986725074,
				"z": 2.1158414954,
				"element": "H" 
			},
			{
				"x": 0.6230335285,
				"y": -2.2472396752,
				"z": 2.015207207,
				"element": "H" 
			},
			{
				"x": -0.4207978318,
				"y": -1.0242359414,
				"z": 2.7478575093,
				"element": "H" 
			},
			{
				"x": -0.3291188931,
				"y": 0.6840923959,
				"z": -0.7456055459,
				"element": "H" 
			},
			{
				"x": -0.6708061763,
				"y": -1.0088234671,
				"z": -1.0777962701,
				"element": "H" 
			},
			{
				"x": -2.0683495479,
				"y": 0.7447026334,
				"z": 1.0054465099,
				"element": "H" 
			},
			{
				"x": -2.7649234046,
				"y": 0.2310309864,
				"z": -0.5301833704,
				"element": "H" 
			},
			{
				"x": 3.2393163021,
				"y": 2.1793828302,
				"z": -0.8747149255,
				"element": "H" 
			},
			{
				"x": 4.1896745155,
				"y": 0.4015067632,
				"z": 2.9213927232,
				"element": "H" 
			},
			{
				"x": 2.0162390934,
				"y": -0.7676716083,
				"z": 2.8495295418,
				"element": "H" 
			}
		],
		 "valence_orbital": [ 
			{
				"type": "occ",
				"energy": -0.28588,
				"method": "rhf"
			},
			{
				"type": "occ",
				"energy": -0.27913,
				"method": "rhf"
			},
			{
				"type": "occ",
				"energy": -0.27148,
				"method": "rhf"
			},
			{
				"type": "occ",
				"energy": -0.26013,
				"method": "rhf"
			},
			{
				"type": "occ",
				"energy": -0.20208,
				"method": "rhf"
			},
			{
				"type": "unocc",
				"energy": -0.02564,
				"method": "rhf"
			},
			{
				"type": "unocc",
				"energy": -0.00044,
				"method": "rhf"
			},
			{
				"type": "unocc",
				"energy": 0.00258,
				"method": "rhf"
			},
			{
				"type": "unocc",
				"energy": 0.01289,
				"method": "rhf"
			},
			{
				"type": "unocc",
				"energy": 0.04265,
				"method": "rhf"
			}
		],
		"cosmo_sigma_profile": { 
			"-0.025": 0.0,
			"-0.024": 0.0,
			"-0.023": 0.0,
			"-0.022": 0.0,
			"-0.021": 0.0,
			"-0.02": 0.0,
			"-0.019": 0.0416219534244,
			"-0.018": 0.617246857865,
			"-0.017": 1.32461040776,
			"-0.016": 0.737292688886,
			"-0.015": 1.09183886406,
			"-0.014": 1.24333520305,
			"-0.013": 0.664516475515,
			"-0.012": 0.992146904422,
			"-0.011": 1.39687939657,
			"-0.01": 1.19430254511,
			"-0.009": 1.03371785531,
			"-0.008": 2.47894284107,
			"-0.007": 6.16339925666,
			"-0.006": 12.4375413902,
			"-0.005": 17.4912777698,
			"-0.004": 25.608812959,
			"-0.003": 26.0375759007,
			"-0.002": 19.4917805937,
			"-0.001": 14.6244276211,
			"0.0": 12.2055669376,
			"0.001": 14.5835628851,
			"0.002": 20.8445241958,
			"0.003": 20.5735985387,
			"0.004": 16.5380116385,
			"0.005": 13.678205397,
			"0.006": 4.16381217641,
			"0.007": 4.84364533984,
			"0.008": 3.71564771987,
			"0.009": 4.86631836529,
			"0.01": 5.75736950598,
			"0.011": 5.828514621,
			"0.012": 5.40320974119,
			"0.013": 1.69247394276,
			"0.014": 0.0434863497608,
			"0.015": 0.0,
			"0.016": 0.0,
			"0.017": 0.0,
			"0.018": 0.0,
			"0.019": 0.0,
			"0.02": 0.0,
			"0.021": 0.0,
			"0.022": 0.0,
			"0.023": 0.0,
			"0.024": 0.0,
			"0.025": 0.0
		}
	}
}
