{
	 "smiles": "CCOC1=C(C=C2C=CC=CC2=C1)C(O)=O", 
	 "Tm": 550.15, 
	 "num_atms": 28, 
	 "gaussian": { 
		 "optdone": 1, 
		 "sigma_profile": "yes", 
		 "theory": "DFT", 
		 "functional": "B3LYP", 
		 "basiset": "6-31G**", 
		 "properties": { 
			 "R2extent": 4491.3491, 
			 "electric_dipole_moment_norm": 6.55114522889, 
			 "electric_quadrupole_moment_norm": 25.7079225328, 
			 "total_energy": -728.312154803, 
			 "HOMO_LUMO_gap": 0.16409, 
			 "cosmo_polarized_energy": -14.25, 
			 "cosmo_cavitation_energy": 31.69, 
			 "cosmo_dispersion_energy": -23.2, 
			 "cosmo_repulsion_energy": 1.77, 
			 "cosmo_total_nonelectrostatic_energy": 10.26, 
			 "SMD_solvation_energy": 6.55 
		},
		"coords": [
			{
				"x": -3.8052334039,
				"y": 0.5081053495,
				"z": 0.0914014878,
				"element": "C" 
			},
			{
				"x": -2.4138074016,
				"y": 0.0540952307,
				"z": -0.3101319824,
				"element": "C" 
			},
			{
				"x": -1.477945143,
				"y": 0.6588778659,
				"z": 0.593815826,
				"element": "O" 
			},
			{
				"x": -0.1323375631,
				"y": 0.4127657462,
				"z": 0.4552577417,
				"element": "C" 
			},
			{
				"x": 0.7303349342,
				"y": 1.0586012474,
				"z": 1.4032926712,
				"element": "C" 
			},
			{
				"x": 2.090133306,
				"y": 0.8406275167,
				"z": 1.3029894092,
				"element": "C" 
			},
			{
				"x": 2.6583612167,
				"y": 0.0107353962,
				"z": 0.3079107396,
				"element": "C" 
			},
			{
				"x": 4.0590421844,
				"y": -0.2078676264,
				"z": 0.2123617002,
				"element": "C" 
			},
			{
				"x": 4.5764282846,
				"y": -1.0222998888,
				"z": -0.7694867447,
				"element": "C" 
			},
			{
				"x": 3.7109621715,
				"y": -1.6523487588,
				"z": -1.6975897013,
				"element": "C" 
			},
			{
				"x": 2.3482939765,
				"y": -1.4598853841,
				"z": -1.6307299617,
				"element": "C" 
			},
			{
				"x": 1.784597288,
				"y": -0.6255554045,
				"z": -0.6293451795,
				"element": "C" 
			},
			{
				"x": 0.3851474695,
				"y": -0.4029725634,
				"z": -0.5284577019,
				"element": "C" 
			},
			{
				"x": 0.2867480745,
				"y": 1.9723252681,
				"z": 2.5231049181,
				"element": "C" 
			},
			{
				"x": -1.0303634423,
				"y": 2.2121313839,
				"z": 2.657301189,
				"element": "O" 
			},
			{
				"x": 1.0842065592,
				"y": 2.4790472122,
				"z": 3.2829292631,
				"element": "O" 
			},
			{
				"x": -4.5465122486,
				"y": 0.0640956944,
				"z": -0.5795482401,
				"element": "H" 
			},
			{
				"x": -3.8934726721,
				"y": 1.596396752,
				"z": 0.0286723257,
				"element": "H" 
			},
			{
				"x": -4.0371115386,
				"y": 0.1965179795,
				"z": 1.1137714153,
				"element": "H" 
			},
			{
				"x": -2.3181925611,
				"y": -1.0373200911,
				"z": -0.2488121352,
				"element": "H" 
			},
			{
				"x": -2.1744844137,
				"y": 0.3640136498,
				"z": -1.3352007603,
				"element": "H" 
			},
			{
				"x": 2.7260554431,
				"y": 1.3376375441,
				"z": 2.0288060235,
				"element": "H" 
			},
			{
				"x": 4.7133348557,
				"y": 0.2804196727,
				"z": 0.9294768586,
				"element": "H" 
			},
			{
				"x": 5.6477786889,
				"y": -1.1851712245,
				"z": -0.8369427362,
				"element": "H" 
			},
			{
				"x": 4.1289798514,
				"y": -2.293182142,
				"z": -2.4687014811,
				"element": "H" 
			},
			{
				"x": 1.6887218725,
				"y": -1.9455839221,
				"z": -2.3451862713,
				"element": "H" 
			},
			{
				"x": -0.2647622981,
				"y": -0.8910575884,
				"z": -1.2448257983,
				"element": "H" 
			},
			{
				"x": -1.5215034907,
				"y": 1.7278510848,
				"z": 1.9669671251,
				"element": "H" 
			}
		],
		 "valence_orbital": [ 
			{
				"type": "occ",
				"energy": -0.29547,
				"method": "rhf"
			},
			{
				"type": "occ",
				"energy": -0.2899,
				"method": "rhf"
			},
			{
				"type": "occ",
				"energy": -0.25964,
				"method": "rhf"
			},
			{
				"type": "occ",
				"energy": -0.2443,
				"method": "rhf"
			},
			{
				"type": "occ",
				"energy": -0.22225,
				"method": "rhf"
			},
			{
				"type": "unocc",
				"energy": -0.05816,
				"method": "rhf"
			},
			{
				"type": "unocc",
				"energy": -0.02532,
				"method": "rhf"
			},
			{
				"type": "unocc",
				"energy": 0.01967,
				"method": "rhf"
			},
			{
				"type": "unocc",
				"energy": 0.04518,
				"method": "rhf"
			},
			{
				"type": "unocc",
				"energy": 0.07735,
				"method": "rhf"
			}
		],
		"cosmo_sigma_profile": { 
			"-0.025": 0.0,
			"-0.024": 0.0,
			"-0.023": 0.0,
			"-0.022": 0.0,
			"-0.021": 0.0,
			"-0.02": 0.0,
			"-0.019": 0.0,
			"-0.018": 0.0,
			"-0.017": 0.0,
			"-0.016": 0.0,
			"-0.015": 0.0,
			"-0.014": 0.0,
			"-0.013": 0.0,
			"-0.012": 0.0,
			"-0.011": 0.0,
			"-0.01": 0.0,
			"-0.009": 0.0,
			"-0.008": 0.293462599701,
			"-0.007": 6.61743284713,
			"-0.006": 18.0375937558,
			"-0.005": 21.5433357454,
			"-0.004": 28.0445697187,
			"-0.003": 21.926027308,
			"-0.002": 19.0442063109,
			"-0.001": 16.2657884923,
			"0.0": 17.0480388892,
			"0.001": 16.2425034334,
			"0.002": 19.5826149638,
			"0.003": 19.7924785525,
			"0.004": 13.4088236691,
			"0.005": 6.61321221563,
			"0.006": 2.26934603323,
			"0.007": 2.17533427077,
			"0.008": 2.8139388539,
			"0.009": 2.74729486579,
			"0.01": 3.18306049743,
			"0.011": 5.32665525467,
			"0.012": 6.21390499243,
			"0.013": 3.03778202149,
			"0.014": 0.801697592832,
			"0.015": 0.0,
			"0.016": 0.0,
			"0.017": 0.0,
			"0.018": 0.0,
			"0.019": 0.0,
			"0.02": 0.0,
			"0.021": 0.0,
			"0.022": 0.0,
			"0.023": 0.0,
			"0.024": 0.0,
			"0.025": 0.0
		}
	}
}
