{
	 "smiles": "BrC1=CC=C(C=C1)N1C=NN=N1", 
	 "Tm": 454.15, 
	 "num_atms": 17, 
	 "gaussian": { 
		 "optdone": 1, 
		 "sigma_profile": "yes", 
		 "theory": "DFT", 
		 "functional": "B3LYP", 
		 "basiset": "6-31G**", 
		 "properties": { 
			 "R2extent": 4830.8564, 
			 "electric_dipole_moment_norm": 4.37963888694, 
			 "electric_quadrupole_moment_norm": 18.9115610583, 
			 "total_energy": -3060.10341241, 
			 "HOMO_LUMO_gap": 0.19103, 
			 "cosmo_polarized_energy": -14.17, 
			 "cosmo_cavitation_energy": 24.6, 
			 "cosmo_dispersion_energy": -18.76, 
			 "cosmo_repulsion_energy": 1.46, 
			 "cosmo_total_nonelectrostatic_energy": 7.29, 
			 "SMD_solvation_energy": 1.82 
		},
		"coords": [
			{
				"x": -4.0591249616,
				"y": -2.466547409,
				"z": 0.5702611036,
				"element": "Br" 
			},
			{
				"x": -2.4893713768,
				"y": -1.5358764531,
				"z": 0.0205168739,
				"element": "C" 
			},
			{
				"x": -2.5376588123,
				"y": -0.1552452315,
				"z": -0.1640736438,
				"element": "C" 
			},
			{
				"x": -1.3903682795,
				"y": 0.5258402721,
				"z": -0.5657304261,
				"element": "C" 
			},
			{
				"x": -0.2026780935,
				"y": -0.1794940472,
				"z": -0.7798643239,
				"element": "C" 
			},
			{
				"x": -0.1584440798,
				"y": -1.5649377132,
				"z": -0.5936241329,
				"element": "C" 
			},
			{
				"x": -1.3061639591,
				"y": -2.2430018025,
				"z": -0.1922967214,
				"element": "C" 
			},
			{
				"x": 0.9759128331,
				"y": 0.5045813808,
				"z": -1.1900103378,
				"element": "N" 
			},
			{
				"x": 1.2107631735,
				"y": 1.8158834436,
				"z": -1.4392646599,
				"element": "C" 
			},
			{
				"x": 2.4668008963,
				"y": 1.971155319,
				"z": -1.794557133,
				"element": "N" 
			},
			{
				"x": 3.0147055903,
				"y": 0.723142729,
				"z": -1.7615717024,
				"element": "N" 
			},
			{
				"x": 2.1452587781,
				"y": -0.1596748021,
				"z": -1.405405197,
				"element": "N" 
			},
			{
				"x": -3.4608917038,
				"y": 0.3867967758,
				"z": 0.0033302204,
				"element": "H" 
			},
			{
				"x": -1.4384966754,
				"y": 1.5997725437,
				"z": -0.7064870345,
				"element": "H" 
			},
			{
				"x": 0.7688098944,
				"y": -2.0975970411,
				"z": -0.7634095651,
				"element": "H" 
			},
			{
				"x": -1.2785695298,
				"y": -3.3164655015,
				"z": -0.0461869498,
				"element": "H" 
			},
			{
				"x": 0.4783163057,
				"y": 2.6022675373,
				"z": -1.3572263704,
				"element": "H" 
			}
		],
		 "valence_orbital": [ 
			{
				"type": "occ",
				"energy": -0.30661,
				"method": "rhf"
			},
			{
				"type": "occ",
				"energy": -0.30397,
				"method": "rhf"
			},
			{
				"type": "occ",
				"energy": -0.29381,
				"method": "rhf"
			},
			{
				"type": "occ",
				"energy": -0.29081,
				"method": "rhf"
			},
			{
				"type": "occ",
				"energy": -0.25552,
				"method": "rhf"
			},
			{
				"type": "unocc",
				"energy": -0.06449,
				"method": "rhf"
			},
			{
				"type": "unocc",
				"energy": -0.04182,
				"method": "rhf"
			},
			{
				"type": "unocc",
				"energy": -0.01023,
				"method": "rhf"
			},
			{
				"type": "unocc",
				"energy": 0.00089,
				"method": "rhf"
			},
			{
				"type": "unocc",
				"energy": 0.01638,
				"method": "rhf"
			}
		],
		"cosmo_sigma_profile": { 
			"-0.025": 0.0,
			"-0.024": 0.0,
			"-0.023": 0.0,
			"-0.022": 0.0,
			"-0.021": 0.0,
			"-0.02": 0.0,
			"-0.019": 0.0,
			"-0.018": 0.0,
			"-0.017": 0.0,
			"-0.016": 0.0,
			"-0.015": 0.0113941917279,
			"-0.014": 1.10174674358,
			"-0.013": 2.32329821098,
			"-0.012": 2.05202644502,
			"-0.011": 2.07009570535,
			"-0.01": 1.89724535432,
			"-0.009": 2.23380775226,
			"-0.008": 6.48150320034,
			"-0.007": 8.40314884882,
			"-0.006": 7.56752675772,
			"-0.005": 10.4327781669,
			"-0.004": 11.7257243332,
			"-0.003": 10.260604058,
			"-0.002": 10.965335737,
			"-0.001": 12.2887401467,
			"0.0": 15.6321579725,
			"0.001": 22.3506745149,
			"0.002": 16.1423881099,
			"0.003": 9.93972803536,
			"0.004": 13.8821184981,
			"0.005": 3.98672692975,
			"0.006": 3.98619328087,
			"0.007": 4.53156320044,
			"0.008": 4.8849253942,
			"0.009": 4.75738028983,
			"0.01": 3.92237522351,
			"0.011": 2.37584292088,
			"0.012": 2.92217398588,
			"0.013": 2.32753114893,
			"0.014": 1.08128050628,
			"0.015": 0.353525352807,
			"0.016": 0.0,
			"0.017": 0.0,
			"0.018": 0.0,
			"0.019": 0.0,
			"0.02": 0.0,
			"0.021": 0.0,
			"0.022": 0.0,
			"0.023": 0.0,
			"0.024": 0.0,
			"0.025": 0.0
		}
	}
}
