{
	 "smiles": "CC1=NC(=CS1)C1=CC=C(CBr)C=C1", 
	 "Tm": 347.65, 
	 "num_atms": 24, 
	 "gaussian": { 
		 "optdone": 1, 
		 "sigma_profile": "yes", 
		 "theory": "DFT", 
		 "functional": "B3LYP", 
		 "basiset": "6-31G**", 
		 "properties": { 
			 "R2extent": 8096.0539, 
			 "electric_dipole_moment_norm": 3.23726645644, 
			 "electric_quadrupole_moment_norm": 15.0401440718, 
			 "total_energy": -3449.55309373, 
			 "HOMO_LUMO_gap": 0.16705, 
			 "cosmo_polarized_energy": -9.88, 
			 "cosmo_cavitation_energy": 32.28, 
			 "cosmo_dispersion_energy": -24.3, 
			 "cosmo_repulsion_energy": 1.87, 
			 "cosmo_total_nonelectrostatic_energy": 9.84, 
			 "SMD_solvation_energy": 2.87 
		},
		"coords": [
			{
				"x": 3.2407852632,
				"y": 4.4968110607,
				"z": -0.1986846831,
				"element": "C" 
			},
			{
				"x": 2.4433603558,
				"y": 3.5281801664,
				"z": 0.6200664203,
				"element": "C" 
			},
			{
				"x": 2.0885651142,
				"y": 2.3458422112,
				"z": 0.2201466571,
				"element": "N" 
			},
			{
				"x": 1.356336467,
				"y": 1.6591561455,
				"z": 1.177531658,
				"element": "C" 
			},
			{
				"x": 1.1566712168,
				"y": 2.3574721522,
				"z": 2.3426852038,
				"element": "C" 
			},
			{
				"x": 1.8972079579,
				"y": 3.9180743964,
				"z": 2.2533344672,
				"element": "S" 
			},
			{
				"x": 0.8817193624,
				"y": 0.2966661864,
				"z": 0.8721425632,
				"element": "C" 
			},
			{
				"x": 1.2246728462,
				"y": -0.3042297116,
				"z": -0.3507376757,
				"element": "C" 
			},
			{
				"x": 0.7887547597,
				"y": -1.5887459896,
				"z": -0.6585202756,
				"element": "C" 
			},
			{
				"x": -0.0054187869,
				"y": -2.3150938052,
				"z": 0.2387613185,
				"element": "C" 
			},
			{
				"x": -0.4876220679,
				"y": -3.6843677852,
				"z": -0.1015669818,
				"element": "C" 
			},
			{
				"x": 0.7674301359,
				"y": -5.1228437964,
				"z": 0.5391630897,
				"element": "Br" 
			},
			{
				"x": -0.3484099972,
				"y": -1.7162477169,
				"z": 1.4600476296,
				"element": "C" 
			},
			{
				"x": 0.0851465038,
				"y": -0.4334322586,
				"z": 1.7715554895,
				"element": "C" 
			},
			{
				"x": 2.6929588805,
				"y": 5.4307391016,
				"z": -0.3624530001,
				"element": "H" 
			},
			{
				"x": 4.1889173891,
				"y": 4.7482498458,
				"z": 0.2882538404,
				"element": "H" 
			},
			{
				"x": 3.4534288722,
				"y": 4.0393111205,
				"z": -1.1665031455,
				"element": "H" 
			},
			{
				"x": 0.6324928845,
				"y": 2.0502660896,
				"z": 3.2353950337,
				"element": "H" 
			},
			{
				"x": 1.8348950323,
				"y": 0.2542414578,
				"z": -1.0509745722,
				"element": "H" 
			},
			{
				"x": 1.0696252673,
				"y": -2.0366565623,
				"z": -1.6083467087,
				"element": "H" 
			},
			{
				"x": -1.4331123359,
				"y": -3.9323735349,
				"z": 0.377227343,
				"element": "H" 
			},
			{
				"x": -0.5547448125,
				"y": -3.8544181041,
				"z": -1.1744177277,
				"element": "H" 
			},
			{
				"x": -0.9602026791,
				"y": -2.2639477099,
				"z": 2.1721574537,
				"element": "H" 
			},
			{
				"x": -0.205757629,
				"y": 0.0033470406,
				"z": 2.7219366026,
				"element": "H" 
			}
		],
		 "valence_orbital": [ 
			{
				"type": "occ",
				"energy": -0.27642,
				"method": "rhf"
			},
			{
				"type": "occ",
				"energy": -0.26689,
				"method": "rhf"
			},
			{
				"type": "occ",
				"energy": -0.26446,
				"method": "rhf"
			},
			{
				"type": "occ",
				"energy": -0.25531,
				"method": "rhf"
			},
			{
				"type": "occ",
				"energy": -0.21868,
				"method": "rhf"
			},
			{
				"type": "unocc",
				"energy": -0.05163,
				"method": "rhf"
			},
			{
				"type": "unocc",
				"energy": -0.02244,
				"method": "rhf"
			},
			{
				"type": "unocc",
				"energy": -0.00326,
				"method": "rhf"
			},
			{
				"type": "unocc",
				"energy": 0.01323,
				"method": "rhf"
			},
			{
				"type": "unocc",
				"energy": 0.01748,
				"method": "rhf"
			}
		],
		"cosmo_sigma_profile": { 
			"-0.025": 0.0,
			"-0.024": 0.0,
			"-0.023": 0.0,
			"-0.022": 0.0,
			"-0.021": 0.0,
			"-0.02": 0.0,
			"-0.019": 0.0,
			"-0.018": 0.0,
			"-0.017": 0.0,
			"-0.016": 0.0,
			"-0.015": 0.0,
			"-0.014": 0.0,
			"-0.013": 0.0,
			"-0.012": 0.0,
			"-0.011": 0.0,
			"-0.01": 0.109182666421,
			"-0.009": 2.21125965298,
			"-0.008": 5.18767328812,
			"-0.007": 9.56298779934,
			"-0.006": 14.8548140871,
			"-0.005": 18.6274618248,
			"-0.004": 19.7540599917,
			"-0.003": 15.2886141241,
			"-0.002": 17.9598808803,
			"-0.001": 16.4587989022,
			"0.0": 14.1176602483,
			"0.001": 18.7471187366,
			"0.002": 21.9892805398,
			"0.003": 26.5124102067,
			"0.004": 21.343663509,
			"0.005": 15.0657207371,
			"0.006": 12.9610294335,
			"0.007": 7.82112581295,
			"0.008": 1.54141242058,
			"0.009": 1.08983682276,
			"0.01": 1.51569561903,
			"0.011": 1.01674991605,
			"0.012": 0.0439716234394,
			"0.013": 0.0,
			"0.014": 0.0,
			"0.015": 0.0,
			"0.016": 0.0,
			"0.017": 0.0,
			"0.018": 0.0,
			"0.019": 0.0,
			"0.02": 0.0,
			"0.021": 0.0,
			"0.022": 0.0,
			"0.023": 0.0,
			"0.024": 0.0,
			"0.025": 0.0
		}
	}
}
