{
	 "smiles": "FC(F)(Cl)C(F)(Cl)C(F)(F)Cl", 
	 "Tm": 201.15, 
	 "num_atms": 11, 
	 "gaussian": { 
		 "optdone": 1, 
		 "sigma_profile": "yes", 
		 "theory": "DFT", 
		 "functional": "B3LYP", 
		 "basiset": "6-31G**", 
		 "properties": { 
			 "R2extent": 2186.8039, 
			 "electric_dipole_moment_norm": 0.238437455111, 
			 "electric_quadrupole_moment_norm": 2.2953288479, 
			 "total_energy": -1994.05121837, 
			 "HOMO_LUMO_gap": 0.27547, 
			 "cosmo_polarized_energy": -1.26, 
			 "cosmo_cavitation_energy": 22.22, 
			 "cosmo_dispersion_energy": -16.03, 
			 "cosmo_repulsion_energy": 1.2, 
			 "cosmo_total_nonelectrostatic_energy": 7.39, 
			 "SMD_solvation_energy": 4.73 
		},
		"coords": [
			{
				"x": 1.295574766,
				"y": -2.0575212197,
				"z": -0.3395655322,
				"element": "F" 
			},
			{
				"x": 0.9284000021,
				"y": -0.8145009244,
				"z": 0.0067480979,
				"element": "C" 
			},
			{
				"x": 1.6960533862,
				"y": -0.4068863946,
				"z": 1.0263897373,
				"element": "F" 
			},
			{
				"x": 1.2144090571,
				"y": 0.2372870337,
				"z": -1.4082241419,
				"element": "Cl" 
			},
			{
				"x": -0.5717322596,
				"y": -0.8600536977,
				"z": 0.4638404765,
				"element": "C" 
			},
			{
				"x": -1.3341202861,
				"y": -1.1655524938,
				"z": -0.6090485034,
				"element": "F" 
			},
			{
				"x": -0.704286207,
				"y": -2.1806910047,
				"z": 1.6780401799,
				"element": "Cl" 
			},
			{
				"x": -1.157841802,
				"y": 0.4316087044,
				"z": 1.1344172969,
				"element": "C" 
			},
			{
				"x": -0.3576405542,
				"y": 0.8195529503,
				"z": 2.1365449563,
				"element": "F" 
			},
			{
				"x": -2.3636711136,
				"y": 0.1280726123,
				"z": 1.6381150507,
				"element": "F" 
			},
			{
				"x": -1.3842449891,
				"y": 1.7897844343,
				"z": -0.003257618,
				"element": "Cl" 
			}
		],
		 "valence_orbital": [ 
			{
				"type": "occ",
				"energy": -0.35832,
				"method": "rhf"
			},
			{
				"type": "occ",
				"energy": -0.35549,
				"method": "rhf"
			},
			{
				"type": "occ",
				"energy": -0.34751,
				"method": "rhf"
			},
			{
				"type": "occ",
				"energy": -0.34593,
				"method": "rhf"
			},
			{
				"type": "occ",
				"energy": -0.32775,
				"method": "rhf"
			},
			{
				"type": "unocc",
				"energy": -0.05228,
				"method": "rhf"
			},
			{
				"type": "unocc",
				"energy": -0.01476,
				"method": "rhf"
			},
			{
				"type": "unocc",
				"energy": 0.00561,
				"method": "rhf"
			},
			{
				"type": "unocc",
				"energy": 0.03965,
				"method": "rhf"
			},
			{
				"type": "unocc",
				"energy": 0.1118,
				"method": "rhf"
			}
		],
		"cosmo_sigma_profile": { 
			"-0.025": 0.0,
			"-0.024": 0.0,
			"-0.023": 0.0,
			"-0.022": 0.0,
			"-0.021": 0.0,
			"-0.02": 0.0,
			"-0.019": 0.0,
			"-0.018": 0.0,
			"-0.017": 0.0,
			"-0.016": 0.0,
			"-0.015": 0.0,
			"-0.014": 0.0,
			"-0.013": 0.0,
			"-0.012": 0.0,
			"-0.011": 0.0,
			"-0.01": 0.00104133595162,
			"-0.009": 0.0981301051528,
			"-0.008": 0.249231739557,
			"-0.007": 0.262483992845,
			"-0.006": 0.425538588839,
			"-0.005": 3.86920355357,
			"-0.004": 5.6116048406,
			"-0.003": 9.04646907353,
			"-0.002": 12.0950457785,
			"-0.001": 19.1550911703,
			"0.0": 37.3452092731,
			"0.001": 71.243494523,
			"0.002": 25.5056964002,
			"0.003": 0.0465213047485,
			"0.004": 0.0,
			"0.005": 0.0,
			"0.006": 0.0,
			"0.007": 0.0,
			"0.008": 0.0,
			"0.009": 0.0,
			"0.01": 0.0,
			"0.011": 0.0,
			"0.012": 0.0,
			"0.013": 0.0,
			"0.014": 0.0,
			"0.015": 0.0,
			"0.016": 0.0,
			"0.017": 0.0,
			"0.018": 0.0,
			"0.019": 0.0,
			"0.02": 0.0,
			"0.021": 0.0,
			"0.022": 0.0,
			"0.023": 0.0,
			"0.024": 0.0,
			"0.025": 0.0
		}
	}
}
