{
	 "smiles": "C(OCC1=CC=CC=C1)C1OC=CC(OCC2=CC=CC=C2)C1OCC1=CC=CC=C1", 
	 "Tm": 328.65, 
	 "num_atms": 59, 
	 "gaussian": { 
		 "optdone": 1, 
		 "sigma_profile": "yes", 
		 "theory": "DFT", 
		 "functional": "B3LYP", 
		 "basiset": "6-31G**", 
		 "properties": { 
			 "R2extent": 13441.1128, 
			 "electric_dipole_moment_norm": 1.93624481407, 
			 "electric_quadrupole_moment_norm": 12.7516375027, 
			 "total_energy": -1346.57369876, 
			 "HOMO_LUMO_gap": 0.21343, 
			 "cosmo_polarized_energy": -18.53, 
			 "cosmo_cavitation_energy": 61.87, 
			 "cosmo_dispersion_energy": -37.68, 
			 "cosmo_repulsion_energy": 2.86, 
			 "cosmo_total_nonelectrostatic_energy": 27.05, 
			 "SMD_solvation_energy": 10.01 
		},
		"coords": [
			{
				"x": 0.1721964118,
				"y": -1.0396516028,
				"z": 1.6411247427,
				"element": "C" 
			},
			{
				"x": 0.8922625801,
				"y": -2.215909699,
				"z": 2.0055344231,
				"element": "O" 
			},
			{
				"x": 2.0030382714,
				"y": -2.5136445094,
				"z": 1.1763463105,
				"element": "C" 
			},
			{
				"x": 1.6270719193,
				"y": -3.0449184983,
				"z": -0.1973636601,
				"element": "C" 
			},
			{
				"x": 2.4397025962,
				"y": -2.7864296926,
				"z": -1.3075888051,
				"element": "C" 
			},
			{
				"x": 2.1277463584,
				"y": -3.3222353645,
				"z": -2.5594397641,
				"element": "C" 
			},
			{
				"x": 0.9896319081,
				"y": -4.1151200692,
				"z": -2.7154823724,
				"element": "C" 
			},
			{
				"x": 0.168920072,
				"y": -4.3701588657,
				"z": -1.6139721017,
				"element": "C" 
			},
			{
				"x": 0.4874262778,
				"y": -3.8417865531,
				"z": -0.3629980657,
				"element": "C" 
			},
			{
				"x": 0.7919206897,
				"y": 0.2123226527,
				"z": 2.2717052895,
				"element": "C" 
			},
			{
				"x": 0.6263592603,
				"y": 0.1875933779,
				"z": 3.7084929517,
				"element": "O" 
			},
			{
				"x": -0.5395821949,
				"y": 0.6958536843,
				"z": 4.182561121,
				"element": "C" 
			},
			{
				"x": -1.438347307,
				"y": 1.4076254204,
				"z": 3.4879368119,
				"element": "C" 
			},
			{
				"x": -1.2255018803,
				"y": 1.7411727925,
				"z": 2.0324149123,
				"element": "C" 
			},
			{
				"x": -1.9801193507,
				"y": 0.9245533345,
				"z": 1.1382393384,
				"element": "O" 
			},
			{
				"x": -3.3633051255,
				"y": 1.223874759,
				"z": 1.0729479381,
				"element": "C" 
			},
			{
				"x": -3.9444602588,
				"y": 0.640591607,
				"z": -0.1955945345,
				"element": "C" 
			},
			{
				"x": -3.1732827854,
				"y": 0.5750097155,
				"z": -1.3628508248,
				"element": "C" 
			},
			{
				"x": -3.7283897054,
				"y": 0.080666582,
				"z": -2.5433716295,
				"element": "C" 
			},
			{
				"x": -5.0579373557,
				"y": -0.3470911919,
				"z": -2.5735518252,
				"element": "C" 
			},
			{
				"x": -5.8299341012,
				"y": -0.2848645894,
				"z": -1.4123171875,
				"element": "C" 
			},
			{
				"x": -5.272399043,
				"y": 0.2018965932,
				"z": -0.2286623507,
				"element": "C" 
			},
			{
				"x": 0.2617314193,
				"y": 1.5492307894,
				"z": 1.7105253423,
				"element": "C" 
			},
			{
				"x": 0.4742744706,
				"y": 1.6492957061,
				"z": 0.3120481992,
				"element": "O" 
			},
			{
				"x": 1.7166006226,
				"y": 2.2463445046,
				"z": -0.0528778108,
				"element": "C" 
			},
			{
				"x": 1.874984355,
				"y": 2.1977010256,
				"z": -1.553456842,
				"element": "C" 
			},
			{
				"x": 1.7002220817,
				"y": 0.9916318425,
				"z": -2.2459335957,
				"element": "C" 
			},
			{
				"x": 1.875154594,
				"y": 0.9393314967,
				"z": -3.6278373095,
				"element": "C" 
			},
			{
				"x": 2.233062148,
				"y": 2.0899414074,
				"z": -4.3359898981,
				"element": "C" 
			},
			{
				"x": 2.4094231043,
				"y": 3.293855176,
				"z": -3.6538283599,
				"element": "C" 
			},
			{
				"x": 2.2255971783,
				"y": 3.3462437113,
				"z": -2.2700899263,
				"element": "C" 
			},
			{
				"x": -0.8497347892,
				"y": -1.1693368095,
				"z": 2.0000130423,
				"element": "H" 
			},
			{
				"x": 0.1269077598,
				"y": -0.9153726758,
				"z": 0.5539138995,
				"element": "H" 
			},
			{
				"x": 2.5704539306,
				"y": -3.2746020194,
				"z": 1.726046627,
				"element": "H" 
			},
			{
				"x": 2.6713534195,
				"y": -1.6449078929,
				"z": 1.0622248165,
				"element": "H" 
			},
			{
				"x": 3.3237035518,
				"y": -2.162566089,
				"z": -1.1934882646,
				"element": "H" 
			},
			{
				"x": 2.7701229946,
				"y": -3.1152005114,
				"z": -3.4110555999,
				"element": "H" 
			},
			{
				"x": 0.7411924242,
				"y": -4.5282424603,
				"z": -3.6889794579,
				"element": "H" 
			},
			{
				"x": -0.7213565764,
				"y": -4.9820385943,
				"z": -1.7300319244,
				"element": "H" 
			},
			{
				"x": -0.1488891603,
				"y": -4.0317913422,
				"z": 0.4958375656,
				"element": "H" 
			},
			{
				"x": 1.8767671004,
				"y": 0.177209637,
				"z": 2.1294558568,
				"element": "H" 
			},
			{
				"x": -0.6559891741,
				"y": 0.4673862909,
				"z": 5.2383049192,
				"element": "H" 
			},
			{
				"x": -2.3300587546,
				"y": 1.7571287406,
				"z": 3.9967023772,
				"element": "H" 
			},
			{
				"x": -1.4870208986,
				"y": 2.7952938944,
				"z": 1.8428854341,
				"element": "H" 
			},
			{
				"x": -3.5022095872,
				"y": 2.3200502828,
				"z": 1.07577196,
				"element": "H" 
			},
			{
				"x": -3.8986752226,
				"y": 0.8325922193,
				"z": 1.9519791339,
				"element": "H" 
			},
			{
				"x": -2.1385514335,
				"y": 0.9000611849,
				"z": -1.3273931609,
				"element": "H" 
			},
			{
				"x": -3.1204357087,
				"y": 0.0289845178,
				"z": -3.4424717502,
				"element": "H" 
			},
			{
				"x": -5.4877508256,
				"y": -0.731355048,
				"z": -3.494418323,
				"element": "H" 
			},
			{
				"x": -6.8622675,
				"y": -0.6235717056,
				"z": -1.4241982873,
				"element": "H" 
			},
			{
				"x": -5.8739118435,
				"y": 0.2372853378,
				"z": 0.6771008439,
				"element": "H" 
			},
			{
				"x": 0.7967826382,
				"y": 2.3544485867,
				"z": 2.2366597993,
				"element": "H" 
			},
			{
				"x": 1.7567378597,
				"y": 3.2886744412,
				"z": 0.2999358239,
				"element": "H" 
			},
			{
				"x": 2.5518364331,
				"y": 1.7119986785,
				"z": 0.4295499232,
				"element": "H" 
			},
			{
				"x": 1.420700695,
				"y": 0.0946962951,
				"z": -1.702244669,
				"element": "H" 
			},
			{
				"x": 1.7333593172,
				"y": -0.0024286803,
				"z": -4.150572718,
				"element": "H" 
			},
			{
				"x": 2.3704697769,
				"y": 2.0477338483,
				"z": -5.4127896177,
				"element": "H" 
			},
			{
				"x": 2.6815935148,
				"y": 4.1944647492,
				"z": -4.196959707,
				"element": "H" 
			},
			{
				"x": 2.3534028474,
				"y": 4.2892795815,
				"z": -1.7439490593,
				"element": "H" 
			}
		],
		 "valence_orbital": [ 
			{
				"type": "occ",
				"energy": -0.24327,
				"method": "rhf"
			},
			{
				"type": "occ",
				"energy": -0.24035,
				"method": "rhf"
			},
			{
				"type": "occ",
				"energy": -0.24003,
				"method": "rhf"
			},
			{
				"type": "occ",
				"energy": -0.23326,
				"method": "rhf"
			},
			{
				"type": "occ",
				"energy": -0.22064,
				"method": "rhf"
			},
			{
				"type": "unocc",
				"energy": -0.00721,
				"method": "rhf"
			},
			{
				"type": "unocc",
				"energy": -0.00129,
				"method": "rhf"
			},
			{
				"type": "unocc",
				"energy": -0.00065,
				"method": "rhf"
			},
			{
				"type": "unocc",
				"energy": 0.00191,
				"method": "rhf"
			},
			{
				"type": "unocc",
				"energy": 0.00473,
				"method": "rhf"
			}
		],
		"cosmo_sigma_profile": { 
			"-0.025": 0.0,
			"-0.024": 0.0,
			"-0.023": 0.0,
			"-0.022": 0.0,
			"-0.021": 0.0,
			"-0.02": 0.0,
			"-0.019": 0.0,
			"-0.018": 0.0,
			"-0.017": 0.0,
			"-0.016": 0.0,
			"-0.015": 0.0,
			"-0.014": 0.0,
			"-0.013": 0.0,
			"-0.012": 0.0,
			"-0.011": 0.0,
			"-0.01": 0.0,
			"-0.009": 0.0,
			"-0.008": 0.562984507631,
			"-0.007": 5.36713970598,
			"-0.006": 19.134324716,
			"-0.005": 52.5893648926,
			"-0.004": 51.2761625945,
			"-0.003": 50.5567437706,
			"-0.002": 37.0422245027,
			"-0.001": 34.4177783432,
			"0.0": 31.025046725,
			"0.001": 34.2674655368,
			"0.002": 27.5762457343,
			"0.003": 27.2277223592,
			"0.004": 31.0043438808,
			"0.005": 30.3143665863,
			"0.006": 29.847575375,
			"0.007": 7.83152926466,
			"0.008": 5.59785504259,
			"0.009": 3.84070519199,
			"0.01": 3.69123278923,
			"0.011": 3.42834351719,
			"0.012": 2.0280132563,
			"0.013": 1.52149282794,
			"0.014": 0.240324910435,
			"0.015": 0.0,
			"0.016": 0.0,
			"0.017": 0.0,
			"0.018": 0.0,
			"0.019": 0.0,
			"0.02": 0.0,
			"0.021": 0.0,
			"0.022": 0.0,
			"0.023": 0.0,
			"0.024": 0.0,
			"0.025": 0.0
		}
	}
}
