{
	 "smiles": "FC(F)(F)C1=CC2=C(C=C1)C(=O)NC(CCl)=N2", 
	 "Tm": 483.15, 
	 "num_atms": 23, 
	 "gaussian": { 
		 "optdone": 1, 
		 "sigma_profile": "yes", 
		 "theory": "DFT", 
		 "functional": "B3LYP", 
		 "basiset": "6-31G**", 
		 "properties": { 
			 "R2extent": 6456.3396, 
			 "electric_dipole_moment_norm": 2.23106271091, 
			 "electric_quadrupole_moment_norm": 9.70381151558, 
			 "total_energy": -1329.16162064, 
			 "HOMO_LUMO_gap": 0.18269, 
			 "cosmo_polarized_energy": -12.26, 
			 "cosmo_cavitation_energy": 31.33, 
			 "cosmo_dispersion_energy": -22.77, 
			 "cosmo_repulsion_energy": 1.7, 
			 "cosmo_total_nonelectrostatic_energy": 10.26, 
			 "SMD_solvation_energy": 5.16 
		},
		"coords": [
			{
				"x": -0.6634005366,
				"y": -5.0801988471,
				"z": -1.8378902426,
				"element": "F" 
			},
			{
				"x": -1.5230554768,
				"y": -4.0510610137,
				"z": -1.6668092059,
				"element": "C" 
			},
			{
				"x": -1.738833481,
				"y": -3.4946854842,
				"z": -2.8755435733,
				"element": "F" 
			},
			{
				"x": -2.6935874613,
				"y": -4.5851302842,
				"z": -1.2516531725,
				"element": "F" 
			},
			{
				"x": -0.9923011403,
				"y": -3.0586085882,
				"z": -0.6632451777,
				"element": "C" 
			},
			{
				"x": -0.9614873754,
				"y": -1.7050653278,
				"z": -0.9586815313,
				"element": "C" 
			},
			{
				"x": -0.4849500498,
				"y": -0.7890159671,
				"z": -0.0011729307,
				"element": "C" 
			},
			{
				"x": -0.0463276355,
				"y": -1.2752255346,
				"z": 1.2517706964,
				"element": "C" 
			},
			{
				"x": -0.0855918334,
				"y": -2.6487888451,
				"z": 1.5367282545,
				"element": "C" 
			},
			{
				"x": -0.5540865185,
				"y": -3.5392408174,
				"z": 0.5863849731,
				"element": "C" 
			},
			{
				"x": 0.4464444049,
				"y": -0.3263267851,
				"z": 2.2608189771,
				"element": "C" 
			},
			{
				"x": 0.8404150747,
				"y": -0.598525272,
				"z": 3.3834228652,
				"element": "O" 
			},
			{
				"x": 0.4281679405,
				"y": 1.0009089656,
				"z": 1.8028466123,
				"element": "N" 
			},
			{
				"x": -0.0194168909,
				"y": 1.3815787412,
				"z": 0.5633850713,
				"element": "C" 
			},
			{
				"x": 0.0953382158,
				"y": 2.8371291311,
				"z": 0.1875729347,
				"element": "C" 
			},
			{
				"x": -0.4139200566,
				"y": 3.96017172,
				"z": 1.5184104421,
				"element": "Cl" 
			},
			{
				"x": -0.4700536513,
				"y": 0.5619463465,
				"z": -0.330029495,
				"element": "N" 
			},
			{
				"x": -1.294985508,
				"y": -1.3287889787,
				"z": -1.9180305423,
				"element": "H" 
			},
			{
				"x": 0.2590993893,
				"y": -2.9838154511,
				"z": 2.5091337407,
				"element": "H" 
			},
			{
				"x": -0.5823897696,
				"y": -4.6035114491,
				"z": 0.7942853914,
				"element": "H" 
			},
			{
				"x": 0.7097360316,
				"y": 1.7046143285,
				"z": 2.4771695338,
				"element": "H" 
			},
			{
				"x": 1.1305538924,
				"y": 3.0956922832,
				"z": -0.0480950837,
				"element": "H" 
			},
			{
				"x": -0.5368675639,
				"y": 3.0218471294,
				"z": -0.6779785378,
				"element": "H" 
			}
		],
		 "valence_orbital": [ 
			{
				"type": "occ",
				"energy": -0.31388,
				"method": "rhf"
			},
			{
				"type": "occ",
				"energy": -0.29824,
				"method": "rhf"
			},
			{
				"type": "occ",
				"energy": -0.28366,
				"method": "rhf"
			},
			{
				"type": "occ",
				"energy": -0.28039,
				"method": "rhf"
			},
			{
				"type": "occ",
				"energy": -0.25125,
				"method": "rhf"
			},
			{
				"type": "unocc",
				"energy": -0.06856,
				"method": "rhf"
			},
			{
				"type": "unocc",
				"energy": -0.06146,
				"method": "rhf"
			},
			{
				"type": "unocc",
				"energy": -0.00378,
				"method": "rhf"
			},
			{
				"type": "unocc",
				"energy": 0.01315,
				"method": "rhf"
			},
			{
				"type": "unocc",
				"energy": 0.04469,
				"method": "rhf"
			}
		],
		"cosmo_sigma_profile": { 
			"-0.025": 0.0,
			"-0.024": 0.0,
			"-0.023": 0.0,
			"-0.022": 0.0,
			"-0.021": 0.0,
			"-0.02": 0.0,
			"-0.019": 0.0,
			"-0.018": 0.0,
			"-0.017": 0.0,
			"-0.016": 0.0,
			"-0.015": 0.246287994631,
			"-0.014": 0.922446390333,
			"-0.013": 1.04390651003,
			"-0.012": 1.27330750183,
			"-0.011": 0.773313819496,
			"-0.01": 3.43604668548,
			"-0.009": 5.32083529121,
			"-0.008": 5.26875844666,
			"-0.007": 8.95215714381,
			"-0.006": 9.34647108306,
			"-0.005": 10.9558366404,
			"-0.004": 11.8900364823,
			"-0.003": 13.6778989797,
			"-0.002": 14.3946552367,
			"-0.001": 16.8984312203,
			"0.0": 23.9352528574,
			"0.001": 26.1264295427,
			"0.002": 30.8674637215,
			"0.003": 28.521542327,
			"0.004": 7.89673256601,
			"0.005": 8.43806797942,
			"0.006": 4.11998902085,
			"0.007": 1.70386683051,
			"0.008": 2.00980287505,
			"0.009": 2.62355777176,
			"0.01": 2.09909253222,
			"0.011": 3.48220327693,
			"0.012": 6.32882249978,
			"0.013": 1.85872509482,
			"0.014": 0.0,
			"0.015": 0.0,
			"0.016": 0.0,
			"0.017": 0.0,
			"0.018": 0.0,
			"0.019": 0.0,
			"0.02": 0.0,
			"0.021": 0.0,
			"0.022": 0.0,
			"0.023": 0.0,
			"0.024": 0.0,
			"0.025": 0.0
		}
	}
}
