{
	 "smiles": "COC1=CC=C(C=C1)C1C(CO)CCC(=O)N1C", 
	 "Tm": 393.15, 
	 "num_atms": 37, 
	 "gaussian": { 
		 "optdone": 1, 
		 "sigma_profile": "yes", 
		 "theory": "DFT", 
		 "functional": "B3LYP", 
		 "basiset": "6-31G**", 
		 "properties": { 
			 "R2extent": 5435.8604, 
			 "electric_dipole_moment_norm": 2.36763968754, 
			 "electric_quadrupole_moment_norm": 29.5998831444, 
			 "total_energy": -825.363896507, 
			 "HOMO_LUMO_gap": 0.21225, 
			 "cosmo_polarized_energy": -16.72, 
			 "cosmo_cavitation_energy": 37.21, 
			 "cosmo_dispersion_energy": -26.37, 
			 "cosmo_repulsion_energy": 2.04, 
			 "cosmo_total_nonelectrostatic_energy": 12.88, 
			 "SMD_solvation_energy": 7.33 
		},
		"coords": [
			{
				"x": -0.3929117991,
				"y": -0.7137257238,
				"z": -5.3933793495,
				"element": "C" 
			},
			{
				"x": 0.6669940023,
				"y": -0.5935846104,
				"z": -4.4584135352,
				"element": "O" 
			},
			{
				"x": 0.3520295899,
				"y": -0.3347190763,
				"z": -3.1558768166,
				"element": "C" 
			},
			{
				"x": 1.437976911,
				"y": -0.2325898274,
				"z": -2.2730560688,
				"element": "C" 
			},
			{
				"x": 1.2217990138,
				"y": 0.0226720404,
				"z": -0.9255284471,
				"element": "C" 
			},
			{
				"x": -0.0771885623,
				"y": 0.1954170166,
				"z": -0.4143704019,
				"element": "C" 
			},
			{
				"x": -1.1477711946,
				"y": 0.0825620392,
				"z": -1.3049511104,
				"element": "C" 
			},
			{
				"x": -0.9481837997,
				"y": -0.1784165523,
				"z": -2.6647012557,
				"element": "C" 
			},
			{
				"x": -0.2772796589,
				"y": 0.4882814238,
				"z": 1.0755564545,
				"element": "C" 
			},
			{
				"x": -0.1788316079,
				"y": 1.9891257675,
				"z": 1.4550312507,
				"element": "C" 
			},
			{
				"x": 1.125639286,
				"y": 2.6458710524,
				"z": 0.9949311195,
				"element": "C" 
			},
			{
				"x": 2.2914593928,
				"y": 1.9686207435,
				"z": 1.4562489179,
				"element": "O" 
			},
			{
				"x": -1.4183269765,
				"y": 2.7316716933,
				"z": 0.9531075059,
				"element": "C" 
			},
			{
				"x": -2.6650083629,
				"y": 2.1467389455,
				"z": 1.6217356637,
				"element": "C" 
			},
			{
				"x": -2.7069177767,
				"y": 0.6251975599,
				"z": 1.7649120705,
				"element": "C" 
			},
			{
				"x": -3.7584421712,
				"y": 0.0766192077,
				"z": 2.0837507382,
				"element": "O" 
			},
			{
				"x": -1.5339369833,
				"y": -0.0755507395,
				"z": 1.5890847628,
				"element": "N" 
			},
			{
				"x": -1.5623420102,
				"y": -1.5254936472,
				"z": 1.7522011551,
				"element": "C" 
			},
			{
				"x": -1.0656579147,
				"y": -1.5433349872,
				"z": -5.1399387698,
				"element": "H" 
			},
			{
				"x": 0.0763961845,
				"y": -0.9151380166,
				"z": -6.3576122399,
				"element": "H" 
			},
			{
				"x": -0.9786121747,
				"y": 0.2120675137,
				"z": -5.4642462749,
				"element": "H" 
			},
			{
				"x": 2.440417018,
				"y": -0.3648485687,
				"z": -2.6672691787,
				"element": "H" 
			},
			{
				"x": 2.0715859968,
				"y": 0.1070883861,
				"z": -0.2539569267,
				"element": "H" 
			},
			{
				"x": -2.1661440957,
				"y": 0.1751994999,
				"z": -0.9392148682,
				"element": "H" 
			},
			{
				"x": -1.807858558,
				"y": -0.2644570568,
				"z": -3.3187268693,
				"element": "H" 
			},
			{
				"x": 0.5338675411,
				"y": -0.0202322871,
				"z": 1.6102625136,
				"element": "H" 
			},
			{
				"x": -0.1911602353,
				"y": 2.0224205913,
				"z": 2.5570784746,
				"element": "H" 
			},
			{
				"x": 1.1940700368,
				"y": 2.6409792692,
				"z": -0.0963200112,
				"element": "H" 
			},
			{
				"x": 1.1257586977,
				"y": 3.6983197236,
				"z": 1.3189529865,
				"element": "H" 
			},
			{
				"x": 2.2970923066,
				"y": 2.0102435208,
				"z": 2.4215973073,
				"element": "H" 
			},
			{
				"x": -1.34388674,
				"y": 3.8046120675,
				"z": 1.167626389,
				"element": "H" 
			},
			{
				"x": -1.4832805071,
				"y": 2.6329617843,
				"z": -0.1369345274,
				"element": "H" 
			},
			{
				"x": -2.7593370005,
				"y": 2.5351749373,
				"z": 2.6442848492,
				"element": "H" 
			},
			{
				"x": -3.5856169139,
				"y": 2.4351796343,
				"z": 1.1067694113,
				"element": "H" 
			},
			{
				"x": -2.541717999,
				"y": -1.8044557726,
				"z": 2.1368691468,
				"element": "H" 
			},
			{
				"x": -1.3879935297,
				"y": -2.0312104005,
				"z": 0.7956876535,
				"element": "H" 
			},
			{
				"x": -0.7827794052,
				"y": -1.8384671516,
				"z": 2.4569082807,
				"element": "H" 
			}
		],
		 "valence_orbital": [ 
			{
				"type": "occ",
				"energy": -0.27677,
				"method": "rhf"
			},
			{
				"type": "occ",
				"energy": -0.25123,
				"method": "rhf"
			},
			{
				"type": "occ",
				"energy": -0.23591,
				"method": "rhf"
			},
			{
				"type": "occ",
				"energy": -0.23303,
				"method": "rhf"
			},
			{
				"type": "occ",
				"energy": -0.21665,
				"method": "rhf"
			},
			{
				"type": "unocc",
				"energy": -0.0044,
				"method": "rhf"
			},
			{
				"type": "unocc",
				"energy": 0.0063,
				"method": "rhf"
			},
			{
				"type": "unocc",
				"energy": 0.03425,
				"method": "rhf"
			},
			{
				"type": "unocc",
				"energy": 0.06137,
				"method": "rhf"
			},
			{
				"type": "unocc",
				"energy": 0.0901,
				"method": "rhf"
			}
		],
		"cosmo_sigma_profile": { 
			"-0.025": 0.0,
			"-0.024": 0.0,
			"-0.023": 0.0,
			"-0.022": 0.0,
			"-0.021": 0.0,
			"-0.02": 0.0,
			"-0.019": 0.0,
			"-0.018": 0.0,
			"-0.017": 0.0,
			"-0.016": 0.209089986687,
			"-0.015": 1.05373729351,
			"-0.014": 0.9023452979,
			"-0.013": 0.722088215297,
			"-0.012": 1.08739921684,
			"-0.011": 1.10364596721,
			"-0.01": 1.11914712881,
			"-0.009": 1.09761929698,
			"-0.008": 0.708586932053,
			"-0.007": 1.48340153996,
			"-0.006": 6.97511277921,
			"-0.005": 22.843403551,
			"-0.004": 33.8983399392,
			"-0.003": 37.9967527678,
			"-0.002": 32.5504785852,
			"-0.001": 28.5118225269,
			"0.0": 16.7264580533,
			"0.001": 13.1453667947,
			"0.002": 11.0060041379,
			"0.003": 11.0129923064,
			"0.004": 13.0026248804,
			"0.005": 13.4964970587,
			"0.006": 6.91669775642,
			"0.007": 3.51812577772,
			"0.008": 4.19228995336,
			"0.009": 3.57927413078,
			"0.01": 4.5629410493,
			"0.011": 2.65135917901,
			"0.012": 2.29561427242,
			"0.013": 3.08736064542,
			"0.014": 5.94164713165,
			"0.015": 3.2449604921,
			"0.016": 0.474653351835,
			"0.017": 0.0,
			"0.018": 0.0,
			"0.019": 0.0,
			"0.02": 0.0,
			"0.021": 0.0,
			"0.022": 0.0,
			"0.023": 0.0,
			"0.024": 0.0,
			"0.025": 0.0
		}
	}
}
