{
	 "smiles": "COC1=CC=C(C=CC(=O)C2=CC=C(F)C=C2)C(OC)=C1", 
	 "Tm": 393.15, 
	 "num_atms": 36, 
	 "gaussian": { 
		 "optdone": 1, 
		 "sigma_profile": "yes", 
		 "theory": "DFT", 
		 "functional": "B3LYP", 
		 "basiset": "6-31G**", 
		 "properties": { 
			 "R2extent": 11937.3781, 
			 "electric_dipole_moment_norm": 5.59271875746, 
			 "electric_quadrupole_moment_norm": 12.5400519951, 
			 "total_energy": -982.323194891, 
			 "HOMO_LUMO_gap": 0.13948, 
			 "cosmo_polarized_energy": -15.32, 
			 "cosmo_cavitation_energy": 41.57, 
			 "cosmo_dispersion_energy": -29.81, 
			 "cosmo_repulsion_energy": 2.23, 
			 "cosmo_total_nonelectrostatic_energy": 13.99, 
			 "SMD_solvation_energy": 9.62 
		},
		"coords": [
			{
				"x": 0.0905801354,
				"y": -4.6848112651,
				"z": -3.9739979944,
				"element": "C" 
			},
			{
				"x": -0.9376047545,
				"y": -4.1115449044,
				"z": -3.1779302639,
				"element": "O" 
			},
			{
				"x": -0.6861478227,
				"y": -2.9353164277,
				"z": -2.5433098418,
				"element": "C" 
			},
			{
				"x": 0.5253498449,
				"y": -2.2347390749,
				"z": -2.6143140418,
				"element": "C" 
			},
			{
				"x": 0.6490123046,
				"y": -1.0393134426,
				"z": -1.9135833032,
				"element": "C" 
			},
			{
				"x": -0.3862284076,
				"y": -0.4983399008,
				"z": -1.1361364372,
				"element": "C" 
			},
			{
				"x": -0.2655295275,
				"y": 0.749202744,
				"z": -0.3977366761,
				"element": "C" 
			},
			{
				"x": 0.7932374677,
				"y": 1.5898399965,
				"z": -0.3569274068,
				"element": "C" 
			},
			{
				"x": 0.7344161883,
				"y": 2.8107843417,
				"z": 0.4735768464,
				"element": "C" 
			},
			{
				"x": -0.2318474129,
				"y": 3.0533797905,
				"z": 1.1980509518,
				"element": "O" 
			},
			{
				"x": 1.891095014,
				"y": 3.7719423482,
				"z": 0.4447381554,
				"element": "C" 
			},
			{
				"x": 1.9099048292,
				"y": 4.7886418523,
				"z": 1.4149677034,
				"element": "C" 
			},
			{
				"x": 2.9370109952,
				"y": 5.7240077324,
				"z": 1.4582522592,
				"element": "C" 
			},
			{
				"x": 3.9511955753,
				"y": 5.6419501611,
				"z": 0.5075772001,
				"element": "C" 
			},
			{
				"x": 4.9512947793,
				"y": 6.5449086387,
				"z": 0.5393757094,
				"element": "F" 
			},
			{
				"x": 3.9629991596,
				"y": 4.6596173168,
				"z": -0.4760038944,
				"element": "C" 
			},
			{
				"x": 2.9290144802,
				"y": 3.7247083047,
				"z": -0.4994311876,
				"element": "C" 
			},
			{
				"x": -1.6061857656,
				"y": -1.2352915539,
				"z": -1.0832369934,
				"element": "C" 
			},
			{
				"x": -2.5959665566,
				"y": -0.6945576567,
				"z": -0.325224581,
				"element": "O" 
			},
			{
				"x": -3.8367810126,
				"y": -1.3776940196,
				"z": -0.2223519517,
				"element": "C" 
			},
			{
				"x": -1.7486132656,
				"y": -2.4336632603,
				"z": -1.7776752105,
				"element": "C" 
			},
			{
				"x": 0.9794669857,
				"y": -4.9204832298,
				"z": -3.3758818991,
				"element": "H" 
			},
			{
				"x": -0.3248031407,
				"y": -5.6080711709,
				"z": -4.3801007848,
				"element": "H" 
			},
			{
				"x": 0.3769415672,
				"y": -4.0227515607,
				"z": -4.8004972747,
				"element": "H" 
			},
			{
				"x": 1.3584968159,
				"y": -2.6054605422,
				"z": -3.1977613213,
				"element": "H" 
			},
			{
				"x": 1.5920355981,
				"y": -0.505094716,
				"z": -1.9713873655,
				"element": "H" 
			},
			{
				"x": -1.128289833,
				"y": 1.0433508736,
				"z": 0.1927998164,
				"element": "H" 
			},
			{
				"x": 1.7021423804,
				"y": 1.378406481,
				"z": -0.9092065269,
				"element": "H" 
			},
			{
				"x": 1.0946002595,
				"y": 4.8211188029,
				"z": 2.129359057,
				"element": "H" 
			},
			{
				"x": 2.9663160212,
				"y": 6.509236784,
				"z": 2.2060868656,
				"element": "H" 
			},
			{
				"x": 4.7674071563,
				"y": 4.6395076283,
				"z": -1.2032048241,
				"element": "H" 
			},
			{
				"x": 2.9339192938,
				"y": 2.9705247554,
				"z": -1.278430951,
				"element": "H" 
			},
			{
				"x": -4.4606127064,
				"y": -0.7647877789,
				"z": 0.4292455796,
				"element": "H" 
			},
			{
				"x": -4.3223938214,
				"y": -1.4784357549,
				"z": -1.2008003227,
				"element": "H" 
			},
			{
				"x": -3.7123871323,
				"y": -2.3721270821,
				"z": 0.2236634413,
				"element": "H" 
			},
			{
				"x": -2.6653456926,
				"y": -3.0078452106,
				"z": -1.7517625315,
				"element": "H" 
			}
		],
		 "valence_orbital": [ 
			{
				"type": "occ",
				"energy": -0.261,
				"method": "rhf"
			},
			{
				"type": "occ",
				"energy": -0.24397,
				"method": "rhf"
			},
			{
				"type": "occ",
				"energy": -0.23974,
				"method": "rhf"
			},
			{
				"type": "occ",
				"energy": -0.23569,
				"method": "rhf"
			},
			{
				"type": "occ",
				"energy": -0.20703,
				"method": "rhf"
			},
			{
				"type": "unocc",
				"energy": -0.06755,
				"method": "rhf"
			},
			{
				"type": "unocc",
				"energy": -0.01651,
				"method": "rhf"
			},
			{
				"type": "unocc",
				"energy": -0.00882,
				"method": "rhf"
			},
			{
				"type": "unocc",
				"energy": 0.00458,
				"method": "rhf"
			},
			{
				"type": "unocc",
				"energy": 0.04343,
				"method": "rhf"
			}
		],
		"cosmo_sigma_profile": { 
			"-0.025": 0.0,
			"-0.024": 0.0,
			"-0.023": 0.0,
			"-0.022": 0.0,
			"-0.021": 0.0,
			"-0.02": 0.0,
			"-0.019": 0.0,
			"-0.018": 0.0,
			"-0.017": 0.0,
			"-0.016": 0.0,
			"-0.015": 0.0,
			"-0.014": 0.0,
			"-0.013": 0.0,
			"-0.012": 0.0,
			"-0.011": 0.0,
			"-0.01": 0.0,
			"-0.009": 1.51216532602,
			"-0.008": 4.27448012634,
			"-0.007": 9.73522294496,
			"-0.006": 23.7462482672,
			"-0.005": 30.0122988924,
			"-0.004": 25.5116548041,
			"-0.003": 23.5399910597,
			"-0.002": 14.1917194428,
			"-0.001": 16.5598297181,
			"0.0": 22.6954981781,
			"0.001": 24.0112485999,
			"0.002": 31.8786538217,
			"0.003": 39.9715319319,
			"0.004": 28.5445322068,
			"0.005": 9.47797596763,
			"0.006": 5.17222363645,
			"0.007": 3.92476513437,
			"0.008": 2.99240273386,
			"0.009": 3.69276003286,
			"0.01": 2.50539048917,
			"0.011": 1.72150397642,
			"0.012": 3.03626841485,
			"0.013": 3.98672765161,
			"0.014": 0.394851238795,
			"0.015": 0.0,
			"0.016": 0.0,
			"0.017": 0.0,
			"0.018": 0.0,
			"0.019": 0.0,
			"0.02": 0.0,
			"0.021": 0.0,
			"0.022": 0.0,
			"0.023": 0.0,
			"0.024": 0.0,
			"0.025": 0.0
		}
	}
}
