{
	 "smiles": "COCCOC1=C2C=CC=CC2=NC(=C1)C(O)=O", 
	 "Tm": 453.15, 
	 "num_atms": 31, 
	 "gaussian": { 
		 "optdone": 1, 
		 "sigma_profile": "yes", 
		 "theory": "DFT", 
		 "functional": "B3LYP", 
		 "basiset": "6-31G**", 
		 "properties": { 
			 "R2extent": 6065.2331, 
			 "electric_dipole_moment_norm": 6.33278197793, 
			 "electric_quadrupole_moment_norm": 29.3768836417, 
			 "total_energy": -858.869704487, 
			 "HOMO_LUMO_gap": 0.16643, 
			 "cosmo_polarized_energy": -14.5, 
			 "cosmo_cavitation_energy": 35.2, 
			 "cosmo_dispersion_energy": -25.23, 
			 "cosmo_repulsion_energy": 1.97, 
			 "cosmo_total_nonelectrostatic_energy": 11.94, 
			 "SMD_solvation_energy": 7.13 
		},
		"coords": [
			{
				"x": -0.714106943,
				"y": 0.6220956226,
				"z": 3.3415327178,
				"element": "C" 
			},
			{
				"x": -0.9385639496,
				"y": 0.8528649524,
				"z": 1.9641564119,
				"element": "O" 
			},
			{
				"x": -0.2145734874,
				"y": 1.949099891,
				"z": 1.4560209035,
				"element": "C" 
			},
			{
				"x": -0.4870711529,
				"y": 2.0954353776,
				"z": -0.0307956384,
				"element": "C" 
			},
			{
				"x": 0.1908227558,
				"y": 1.112370272,
				"z": -0.8254374133,
				"element": "O" 
			},
			{
				"x": -0.4263082301,
				"y": -0.0294387856,
				"z": -1.2079092071,
				"element": "C" 
			},
			{
				"x": 0.2608255712,
				"y": -0.780429211,
				"z": -2.2174996775,
				"element": "C" 
			},
			{
				"x": 1.4997578651,
				"y": -0.3726966756,
				"z": -2.7711812942,
				"element": "C" 
			},
			{
				"x": 2.1147767842,
				"y": -1.1386388123,
				"z": -3.7383449303,
				"element": "C" 
			},
			{
				"x": 1.5167679873,
				"y": -2.3389412341,
				"z": -4.1912025174,
				"element": "C" 
			},
			{
				"x": 0.311689244,
				"y": -2.7567507248,
				"z": -3.6722855411,
				"element": "C" 
			},
			{
				"x": -0.3464669749,
				"y": -1.9913411164,
				"z": -2.6749757295,
				"element": "C" 
			},
			{
				"x": -1.541235395,
				"y": -2.4327151434,
				"z": -2.1870684728,
				"element": "N" 
			},
			{
				"x": -2.1304332122,
				"y": -1.7040988335,
				"z": -1.2540342781,
				"element": "C" 
			},
			{
				"x": -1.6291230798,
				"y": -0.5014904563,
				"z": -0.7177769003,
				"element": "C" 
			},
			{
				"x": -3.4450163368,
				"y": -2.2521254861,
				"z": -0.7438702408,
				"element": "C" 
			},
			{
				"x": -3.8018320278,
				"y": -3.4032641165,
				"z": -1.3317361522,
				"element": "O" 
			},
			{
				"x": -4.1085514727,
				"y": -1.705630041,
				"z": 0.1092118328,
				"element": "O" 
			},
			{
				"x": -1.3200750938,
				"y": -0.2404725929,
				"z": 3.6250430055,
				"element": "H" 
			},
			{
				"x": -1.0152408433,
				"y": 1.487590546,
				"z": 3.9517850073,
				"element": "H" 
			},
			{
				"x": 0.3442967588,
				"y": 0.4019104535,
				"z": 3.5482804412,
				"element": "H" 
			},
			{
				"x": 0.8687847157,
				"y": 1.8217139677,
				"z": 1.6171094896,
				"element": "H" 
			},
			{
				"x": -0.5157631228,
				"y": 2.8873445434,
				"z": 1.9555421673,
				"element": "H" 
			},
			{
				"x": -0.0846769667,
				"y": 3.054396982,
				"z": -0.3707281462,
				"element": "H" 
			},
			{
				"x": -1.5632261277,
				"y": 2.0785467991,
				"z": -0.2304235348,
				"element": "H" 
			},
			{
				"x": 1.9508737981,
				"y": 0.5478536787,
				"z": -2.4193757356,
				"element": "H" 
			},
			{
				"x": 3.0642811289,
				"y": -0.8202951403,
				"z": -4.1582611864,
				"element": "H" 
			},
			{
				"x": 2.0135556608,
				"y": -2.9314444891,
				"z": -4.9539000152,
				"element": "H" 
			},
			{
				"x": -0.1674715193,
				"y": -3.6720096553,
				"z": -4.0041216734,
				"element": "H" 
			},
			{
				"x": -2.1722648226,
				"y": -0.023903176,
				"z": 0.0851323023,
				"element": "H" 
			},
			{
				"x": -3.0821315113,
				"y": -3.6021373959,
				"z": -1.9708859946,
				"element": "H" 
			}
		],
		 "valence_orbital": [ 
			{
				"type": "occ",
				"energy": -0.27933,
				"method": "rhf"
			},
			{
				"type": "occ",
				"energy": -0.27225,
				"method": "rhf"
			},
			{
				"type": "occ",
				"energy": -0.25909,
				"method": "rhf"
			},
			{
				"type": "occ",
				"energy": -0.25541,
				"method": "rhf"
			},
			{
				"type": "occ",
				"energy": -0.23137,
				"method": "rhf"
			},
			{
				"type": "unocc",
				"energy": -0.06494,
				"method": "rhf"
			},
			{
				"type": "unocc",
				"energy": -0.0336,
				"method": "rhf"
			},
			{
				"type": "unocc",
				"energy": 0.01178,
				"method": "rhf"
			},
			{
				"type": "unocc",
				"energy": 0.04798,
				"method": "rhf"
			},
			{
				"type": "unocc",
				"energy": 0.076,
				"method": "rhf"
			}
		],
		"cosmo_sigma_profile": { 
			"-0.025": 0.0,
			"-0.024": 0.0,
			"-0.023": 0.0,
			"-0.022": 0.0,
			"-0.021": 0.0,
			"-0.02": 0.0,
			"-0.019": 0.0,
			"-0.018": 0.0,
			"-0.017": 0.0,
			"-0.016": 0.0,
			"-0.015": 0.0,
			"-0.014": 0.0,
			"-0.013": 0.0,
			"-0.012": 0.233332765418,
			"-0.011": 0.704000489456,
			"-0.01": 0.783040500142,
			"-0.009": 0.397362297009,
			"-0.008": 0.391996604115,
			"-0.007": 6.22213339853,
			"-0.006": 16.1171261787,
			"-0.005": 22.1096066846,
			"-0.004": 32.2965474846,
			"-0.003": 24.3085194677,
			"-0.002": 21.9342139324,
			"-0.001": 17.8211082883,
			"0.0": 18.3796425919,
			"0.001": 19.4873660734,
			"0.002": 21.5220030308,
			"0.003": 20.1257166084,
			"0.004": 15.2755472901,
			"0.005": 8.03334763332,
			"0.006": 5.22820552191,
			"0.007": 4.01610462514,
			"0.008": 4.42148410926,
			"0.009": 4.37328892163,
			"0.01": 5.73248066028,
			"0.011": 5.04581240406,
			"0.012": 4.17735585682,
			"0.013": 1.47586621261,
			"0.014": 0.0430461403646,
			"0.015": 0.0,
			"0.016": 0.0,
			"0.017": 0.0,
			"0.018": 0.0,
			"0.019": 0.0,
			"0.02": 0.0,
			"0.021": 0.0,
			"0.022": 0.0,
			"0.023": 0.0,
			"0.024": 0.0,
			"0.025": 0.0
		}
	}
}
