{
	 "smiles": "O=C1CC2=C(N1)C=CC=N2", 
	 "Tm": 463.15, 
	 "num_atms": 16, 
	 "gaussian": { 
		 "optdone": 1, 
		 "sigma_profile": "yes", 
		 "theory": "DFT", 
		 "functional": "B3LYP", 
		 "basiset": "6-31G**", 
		 "properties": { 
			 "R2extent": 1464.7999, 
			 "electric_dipole_moment_norm": 3.4808654398, 
			 "electric_quadrupole_moment_norm": 8.50068863446, 
			 "total_energy": -455.100210042, 
			 "HOMO_LUMO_gap": 0.19738, 
			 "cosmo_polarized_energy": -13.26, 
			 "cosmo_cavitation_energy": 20.21, 
			 "cosmo_dispersion_energy": -15.51, 
			 "cosmo_repulsion_energy": 1.26, 
			 "cosmo_total_nonelectrostatic_energy": 5.97, 
			 "SMD_solvation_energy": 2.43 
		},
		"coords": [
			{
				"x": 2.8959735714,
				"y": 0.6047915626,
				"z": -1.2451051654,
				"element": "O" 
			},
			{
				"x": 1.7216903987,
				"y": 0.3694559985,
				"z": -1.0515004495,
				"element": "C" 
			},
			{
				"x": 0.9072367596,
				"y": -0.8614591681,
				"z": -1.4822769448,
				"element": "C" 
			},
			{
				"x": -0.4745426182,
				"y": -0.5729530058,
				"z": -0.9527265197,
				"element": "C" 
			},
			{
				"x": -0.4511964009,
				"y": 0.6745868324,
				"z": -0.2963779467,
				"element": "C" 
			},
			{
				"x": 0.8387226379,
				"y": 1.2035490361,
				"z": -0.3669601776,
				"element": "N" 
			},
			{
				"x": -1.6100166021,
				"y": 1.1706115965,
				"z": 0.2832492061,
				"element": "C" 
			},
			{
				"x": -2.7517665065,
				"y": 0.3665224076,
				"z": 0.1674101377,
				"element": "C" 
			},
			{
				"x": -2.6796863142,
				"y": -0.8552728493,
				"z": -0.5013373875,
				"element": "C" 
			},
			{
				"x": -1.5513723709,
				"y": -1.3338821383,
				"z": -1.0632043451,
				"element": "N" 
			},
			{
				"x": 0.9388813451,
				"y": -0.9670423511,
				"z": -2.5720045012,
				"element": "H" 
			},
			{
				"x": 1.3509537323,
				"y": -1.7693113315,
				"z": -1.0596662244,
				"element": "H" 
			},
			{
				"x": 1.1386841481,
				"y": 2.0864113087,
				"z": 0.0206660711,
				"element": "H" 
			},
			{
				"x": -1.6373457852,
				"y": 2.1260476737,
				"z": 0.7983727727,
				"element": "H" 
			},
			{
				"x": -3.6941669947,
				"y": 0.6913205186,
				"z": 0.5969895363,
				"element": "H" 
			},
			{
				"x": -3.5628490004,
				"y": -1.4825760907,
				"z": -0.5937280618,
				"element": "H" 
			}
		],
		 "valence_orbital": [ 
			{
				"type": "occ",
				"energy": -0.32902,
				"method": "rhf"
			},
			{
				"type": "occ",
				"energy": -0.28592,
				"method": "rhf"
			},
			{
				"type": "occ",
				"energy": -0.268,
				"method": "rhf"
			},
			{
				"type": "occ",
				"energy": -0.25846,
				"method": "rhf"
			},
			{
				"type": "occ",
				"energy": -0.22893,
				"method": "rhf"
			},
			{
				"type": "unocc",
				"energy": -0.03155,
				"method": "rhf"
			},
			{
				"type": "unocc",
				"energy": -0.01905,
				"method": "rhf"
			},
			{
				"type": "unocc",
				"energy": 0.0262,
				"method": "rhf"
			},
			{
				"type": "unocc",
				"energy": 0.08182,
				"method": "rhf"
			},
			{
				"type": "unocc",
				"energy": 0.09409,
				"method": "rhf"
			}
		],
		"cosmo_sigma_profile": { 
			"-0.025": 0.0,
			"-0.024": 0.0,
			"-0.023": 0.0,
			"-0.022": 0.0,
			"-0.021": 0.0,
			"-0.02": 0.0,
			"-0.019": 0.0,
			"-0.018": 0.0,
			"-0.017": 0.0,
			"-0.016": 0.800695792157,
			"-0.015": 1.52885144777,
			"-0.014": 1.08576210228,
			"-0.013": 1.16062737459,
			"-0.012": 1.2741769315,
			"-0.011": 1.0169359597,
			"-0.01": 1.23920630912,
			"-0.009": 1.30660664409,
			"-0.008": 4.01794060688,
			"-0.007": 8.80701367496,
			"-0.006": 11.1625843851,
			"-0.005": 13.0755409675,
			"-0.004": 10.0484277798,
			"-0.003": 7.96359833121,
			"-0.002": 8.54170271773,
			"-0.001": 7.94542117716,
			"0.0": 11.4056098383,
			"0.001": 10.0015190817,
			"0.002": 9.78397691659,
			"0.003": 10.7855649234,
			"0.004": 5.02754425788,
			"0.005": 2.84862438571,
			"0.006": 2.98621987648,
			"0.007": 2.76236273802,
			"0.008": 2.04921151557,
			"0.009": 2.79180983304,
			"0.01": 2.40323602337,
			"0.011": 3.49339677275,
			"0.012": 5.6310126333,
			"0.013": 5.79264803017,
			"0.014": 1.50004418571,
			"0.015": 1.24229815425,
			"0.016": 0.606239825487,
			"0.017": 0.0484227257903,
			"0.018": 0.0,
			"0.019": 0.0,
			"0.02": 0.0,
			"0.021": 0.0,
			"0.022": 0.0,
			"0.023": 0.0,
			"0.024": 0.0,
			"0.025": 0.0
		}
	}
}
