{
	 "smiles": "COC1=CC=C(C=C1[N+]([O-])=O)[N+]([O-])=O", 
	 "Tm": 367.65, 
	 "num_atms": 20, 
	 "gaussian": { 
		 "optdone": 1, 
		 "sigma_profile": "yes", 
		 "theory": "DFT", 
		 "functional": "B3LYP", 
		 "basiset": "6-31G**", 
		 "properties": { 
			 "R2extent": 3050.2695, 
			 "electric_dipole_moment_norm": 6.66539036591, 
			 "electric_quadrupole_moment_norm": 17.3333677787, 
			 "total_energy": -755.756880011, 
			 "HOMO_LUMO_gap": 0.17307, 
			 "cosmo_polarized_energy": -15.67, 
			 "cosmo_cavitation_energy": 26.29, 
			 "cosmo_dispersion_energy": -19.12, 
			 "cosmo_repulsion_energy": 1.5, 
			 "cosmo_total_nonelectrostatic_energy": 8.67, 
			 "SMD_solvation_energy": 10.03 
		},
		"coords": [
			{
				"x": -0.3164992343,
				"y": -0.5356713968,
				"z": -3.4172372848,
				"element": "C" 
			},
			{
				"x": -0.7963493024,
				"y": -0.5410271593,
				"z": -2.0722527197,
				"element": "O" 
			},
			{
				"x": -0.0444812946,
				"y": -0.0050454965,
				"z": -1.1031483163,
				"element": "C" 
			},
			{
				"x": 1.2178066318,
				"y": 0.5792878858,
				"z": -1.3258210048,
				"element": "C" 
			},
			{
				"x": 1.9678511239,
				"y": 1.0874302578,
				"z": -0.2742253582,
				"element": "C" 
			},
			{
				"x": 1.4714974412,
				"y": 1.0046108108,
				"z": 1.025412327,
				"element": "C" 
			},
			{
				"x": 0.2365915825,
				"y": 0.4256391278,
				"z": 1.2899339161,
				"element": "C" 
			},
			{
				"x": -0.5202442629,
				"y": -0.0593348619,
				"z": 0.2329947183,
				"element": "C" 
			},
			{
				"x": -1.8381286063,
				"y": -0.623838862,
				"z": 0.569367625,
				"element": "N" 
			},
			{
				"x": -2.726864607,
				"y": -0.5597976573,
				"z": -0.2732424502,
				"element": "O" 
			},
			{
				"x": -1.9625597769,
				"y": -1.0995841195,
				"z": 1.6981974773,
				"element": "O" 
			},
			{
				"x": 2.2665230688,
				"y": 1.534963391,
				"z": 2.1365377081,
				"element": "N" 
			},
			{
				"x": 3.3593841528,
				"y": 2.0321701725,
				"z": 1.8634785018,
				"element": "O" 
			},
			{
				"x": 1.7922971616,
				"y": 1.4499026885,
				"z": 3.2680012737,
				"element": "O" 
			},
			{
				"x": -1.0950505375,
				"y": -1.0251039564,
				"z": -4.0013530215,
				"element": "H" 
			},
			{
				"x": -0.1737208088,
				"y": 0.4870809978,
				"z": -3.7828756117,
				"element": "H" 
			},
			{
				"x": 0.6197403373,
				"y": -1.0976636228,
				"z": -3.5081390534,
				"element": "H" 
			},
			{
				"x": 1.6156764725,
				"y": 0.6346616135,
				"z": -2.3306113667,
				"element": "H" 
			},
			{
				"x": 2.9356515801,
				"y": 1.5428812521,
				"z": -0.4438997324,
				"element": "H" 
			},
			{
				"x": -0.1370211218,
				"y": 0.3510389347,
				"z": 2.3023823724,
				"element": "H" 
			}
		],
		 "valence_orbital": [ 
			{
				"type": "occ",
				"energy": -0.31472,
				"method": "rhf"
			},
			{
				"type": "occ",
				"energy": -0.30747,
				"method": "rhf"
			},
			{
				"type": "occ",
				"energy": -0.30028,
				"method": "rhf"
			},
			{
				"type": "occ",
				"energy": -0.29116,
				"method": "rhf"
			},
			{
				"type": "occ",
				"energy": -0.27303,
				"method": "rhf"
			},
			{
				"type": "unocc",
				"energy": -0.09996,
				"method": "rhf"
			},
			{
				"type": "unocc",
				"energy": -0.09317,
				"method": "rhf"
			},
			{
				"type": "unocc",
				"energy": -0.03246,
				"method": "rhf"
			},
			{
				"type": "unocc",
				"energy": -0.00301,
				"method": "rhf"
			},
			{
				"type": "unocc",
				"energy": 0.05253,
				"method": "rhf"
			}
		],
		"cosmo_sigma_profile": { 
			"-0.025": 0.0,
			"-0.024": 0.0,
			"-0.023": 0.0,
			"-0.022": 0.0,
			"-0.021": 0.0,
			"-0.02": 0.0,
			"-0.019": 0.0,
			"-0.018": 0.0,
			"-0.017": 0.0,
			"-0.016": 0.0,
			"-0.015": 0.0,
			"-0.014": 0.0,
			"-0.013": 0.0,
			"-0.012": 0.0,
			"-0.011": 0.0,
			"-0.01": 0.129888284987,
			"-0.009": 3.67494837439,
			"-0.008": 7.19771540338,
			"-0.007": 15.4218602027,
			"-0.006": 13.6502617788,
			"-0.005": 14.5153344917,
			"-0.004": 16.2946367183,
			"-0.003": 17.2338120161,
			"-0.002": 18.1625701599,
			"-0.001": 11.5461792801,
			"0.0": 9.09337832781,
			"0.001": 5.76060241972,
			"0.002": 5.45424260458,
			"0.003": 5.22560676854,
			"0.004": 6.06982065023,
			"0.005": 5.55097027738,
			"0.006": 8.2802024209,
			"0.007": 18.2270664979,
			"0.008": 14.8296476705,
			"0.009": 9.3273476973,
			"0.01": 4.80382840613,
			"0.011": 0.67021007665,
			"0.012": 0.0,
			"0.013": 0.0,
			"0.014": 0.0,
			"0.015": 0.0,
			"0.016": 0.0,
			"0.017": 0.0,
			"0.018": 0.0,
			"0.019": 0.0,
			"0.02": 0.0,
			"0.021": 0.0,
			"0.022": 0.0,
			"0.023": 0.0,
			"0.024": 0.0,
			"0.025": 0.0
		}
	}
}
