{
	 "smiles": "CC1(C)NC(=O)N(C1=O)C1=CC(=CC=C1)C#N", 
	 "Tm": 433.15, 
	 "num_atms": 28, 
	 "gaussian": { 
		 "optdone": 1, 
		 "sigma_profile": "yes", 
		 "theory": "DFT", 
		 "functional": "B3LYP", 
		 "basiset": "6-31G**", 
		 "properties": { 
			 "R2extent": 4590.8338, 
			 "electric_dipole_moment_norm": 6.45095106244, 
			 "electric_quadrupole_moment_norm": 26.7604054429, 
			 "total_energy": -778.641650344, 
			 "HOMO_LUMO_gap": 0.2018, 
			 "cosmo_polarized_energy": -18.44, 
			 "cosmo_cavitation_energy": 33.33, 
			 "cosmo_dispersion_energy": -22.98, 
			 "cosmo_repulsion_energy": 1.78, 
			 "cosmo_total_nonelectrostatic_energy": 12.13, 
			 "SMD_solvation_energy": 8.33 
		},
		"coords": [
			{
				"x": -2.1069546932,
				"y": -1.5816387839,
				"z": 3.3089461444,
				"element": "C" 
			},
			{
				"x": -0.7253891069,
				"y": -1.6273969557,
				"z": 2.634027997,
				"element": "C" 
			},
			{
				"x": 0.0132137815,
				"y": -2.9366962939,
				"z": 2.9540930812,
				"element": "C" 
			},
			{
				"x": 0.0789060946,
				"y": -0.4489525977,
				"z": 2.9334293318,
				"element": "N" 
			},
			{
				"x": 0.3256121619,
				"y": 0.3566206552,
				"z": 1.861446347,
				"element": "C" 
			},
			{
				"x": 0.913269656,
				"y": 1.4185138694,
				"z": 1.8453177348,
				"element": "O" 
			},
			{
				"x": -0.2488533504,
				"y": -0.3062866102,
				"z": 0.7268075411,
				"element": "N" 
			},
			{
				"x": -0.8908197409,
				"y": -1.4823968144,
				"z": 1.1110858454,
				"element": "C" 
			},
			{
				"x": -1.4826579781,
				"y": -2.2633523095,
				"z": 0.3950608807,
				"element": "O" 
			},
			{
				"x": -0.1685805977,
				"y": 0.1922337891,
				"z": -0.6061839685,
				"element": "C" 
			},
			{
				"x": -1.2186920562,
				"y": -0.0438714564,
				"z": -1.498134016,
				"element": "C" 
			},
			{
				"x": -1.1273990875,
				"y": 0.4398340625,
				"z": -2.8116800498,
				"element": "C" 
			},
			{
				"x": -0.0008729803,
				"y": 1.164680009,
				"z": -3.2317165672,
				"element": "C" 
			},
			{
				"x": 1.03266689,
				"y": 1.3932470778,
				"z": -2.3284288259,
				"element": "C" 
			},
			{
				"x": 0.9624432525,
				"y": 0.9082721439,
				"z": -1.023080385,
				"element": "C" 
			},
			{
				"x": -2.2033626398,
				"y": 0.1960241449,
				"z": -3.7296872347,
				"element": "C" 
			},
			{
				"x": -3.0730068953,
				"y": 0.0053766476,
				"z": -4.4781953334,
				"element": "N" 
			},
			{
				"x": -2.0022825622,
				"y": -1.6786024021,
				"z": 4.3944724023,
				"element": "H" 
			},
			{
				"x": -2.6185563668,
				"y": -0.6396012036,
				"z": 3.0922603341,
				"element": "H" 
			},
			{
				"x": -2.7239044597,
				"y": -2.4063130439,
				"z": 2.9435619058,
				"element": "H" 
			},
			{
				"x": -0.5577477441,
				"y": -3.7855071585,
				"z": 2.5697612683,
				"element": "H" 
			},
			{
				"x": 1.0060339655,
				"y": -2.9457778468,
				"z": 2.4963846522,
				"element": "H" 
			},
			{
				"x": 0.1288351393,
				"y": -3.0527387432,
				"z": 4.0364094865,
				"element": "H" 
			},
			{
				"x": 0.3065942995,
				"y": -0.1275247922,
				"z": 3.861656436,
				"element": "H" 
			},
			{
				"x": -2.0858565441,
				"y": -0.6106704277,
				"z": -1.1897502544,
				"element": "H" 
			},
			{
				"x": 0.053388927,
				"y": 1.535802736,
				"z": -4.2492032658,
				"element": "H" 
			},
			{
				"x": 1.9090737412,
				"y": 1.9519338163,
				"z": -2.640958981,
				"element": "H" 
			},
			{
				"x": 1.7646988942,
				"y": 1.0990884878,
				"z": -0.3235025068,
				"element": "H" 
			}
		],
		 "valence_orbital": [ 
			{
				"type": "occ",
				"energy": -0.30139,
				"method": "rhf"
			},
			{
				"type": "occ",
				"energy": -0.28275,
				"method": "rhf"
			},
			{
				"type": "occ",
				"energy": -0.27743,
				"method": "rhf"
			},
			{
				"type": "occ",
				"energy": -0.26717,
				"method": "rhf"
			},
			{
				"type": "occ",
				"energy": -0.25282,
				"method": "rhf"
			},
			{
				"type": "unocc",
				"energy": -0.05102,
				"method": "rhf"
			},
			{
				"type": "unocc",
				"energy": -0.03635,
				"method": "rhf"
			},
			{
				"type": "unocc",
				"energy": -0.0146,
				"method": "rhf"
			},
			{
				"type": "unocc",
				"energy": 0.03867,
				"method": "rhf"
			},
			{
				"type": "unocc",
				"energy": 0.04466,
				"method": "rhf"
			}
		],
		"cosmo_sigma_profile": { 
			"-0.025": 0.0,
			"-0.024": 0.0,
			"-0.023": 0.0,
			"-0.022": 0.0,
			"-0.021": 0.0,
			"-0.02": 0.0,
			"-0.019": 0.0,
			"-0.018": 0.0,
			"-0.017": 0.0,
			"-0.016": 0.396453653724,
			"-0.015": 1.32575409143,
			"-0.014": 1.2464587267,
			"-0.013": 0.712657292431,
			"-0.012": 1.17936695478,
			"-0.011": 1.31897443949,
			"-0.01": 0.727445889188,
			"-0.009": 1.34514464006,
			"-0.008": 3.5603974262,
			"-0.007": 10.2996066405,
			"-0.006": 14.3135373661,
			"-0.005": 20.516977231,
			"-0.004": 20.2333440334,
			"-0.003": 20.4513293493,
			"-0.002": 22.035721202,
			"-0.001": 25.8859582466,
			"0.0": 19.940919846,
			"0.001": 17.8175300902,
			"0.002": 13.4621969701,
			"0.003": 7.96295709622,
			"0.004": 5.65502755139,
			"0.005": 5.46737444459,
			"0.006": 5.54629092086,
			"0.007": 6.53795462746,
			"0.008": 4.93088008015,
			"0.009": 7.2570734067,
			"0.01": 6.78907442608,
			"0.011": 8.65187944869,
			"0.012": 8.21143539485,
			"0.013": 2.88855140938,
			"0.014": 0.0243796683905,
			"0.015": 0.0,
			"0.016": 0.0,
			"0.017": 0.0,
			"0.018": 0.0,
			"0.019": 0.0,
			"0.02": 0.0,
			"0.021": 0.0,
			"0.022": 0.0,
			"0.023": 0.0,
			"0.024": 0.0,
			"0.025": 0.0
		}
	}
}
