{
	 "smiles": "OC(=O)CC1=CN=C(Cl)C=C1", 
	 "Tm": 447.15, 
	 "num_atms": 17, 
	 "gaussian": { 
		 "optdone": 1, 
		 "sigma_profile": "yes", 
		 "theory": "DFT", 
		 "functional": "B3LYP", 
		 "basiset": "6-31G**", 
		 "properties": { 
			 "R2extent": 3343.3575, 
			 "electric_dipole_moment_norm": 2.13990574091, 
			 "electric_quadrupole_moment_norm": 20.676440619, 
			 "total_energy": -935.755865106, 
			 "HOMO_LUMO_gap": 0.2065, 
			 "cosmo_polarized_energy": -16.81, 
			 "cosmo_cavitation_energy": 23.91, 
			 "cosmo_dispersion_energy": -17.49, 
			 "cosmo_repulsion_energy": 1.43, 
			 "cosmo_total_nonelectrostatic_energy": 7.85, 
			 "SMD_solvation_energy": 3.54 
		},
		"coords": [
			{
				"x": -0.8585985466,
				"y": 1.6939672347,
				"z": -1.4024819942,
				"element": "O" 
			},
			{
				"x": -2.0723320139,
				"y": 1.2920373049,
				"z": -0.9568368453,
				"element": "C" 
			},
			{
				"x": -3.0655822231,
				"y": 1.922810072,
				"z": -1.2122191629,
				"element": "O" 
			},
			{
				"x": -2.0906133864,
				"y": 0.0312862564,
				"z": -0.0759249401,
				"element": "C" 
			},
			{
				"x": -1.0485912179,
				"y": -1.0100728883,
				"z": -0.4086966618,
				"element": "C" 
			},
			{
				"x": 0.0891939049,
				"y": -1.1857930117,
				"z": 0.3858130128,
				"element": "C" 
			},
			{
				"x": 1.0543737127,
				"y": -2.081795346,
				"z": 0.1327172488,
				"element": "N" 
			},
			{
				"x": 0.9087206528,
				"y": -2.843813489,
				"z": -0.933943159,
				"element": "C" 
			},
			{
				"x": 2.1792505066,
				"y": -4.0157374392,
				"z": -1.2546073544,
				"element": "Cl" 
			},
			{
				"x": -0.1804795876,
				"y": -2.7781837864,
				"z": -1.8121552296,
				"element": "C" 
			},
			{
				"x": -1.167143422,
				"y": -1.8415306301,
				"z": -1.535803475,
				"element": "C" 
			},
			{
				"x": -0.1785162562,
				"y": 1.0531116401,
				"z": -1.1432716264,
				"element": "H" 
			},
			{
				"x": -3.102241542,
				"y": -0.375253062,
				"z": -0.1463601462,
				"element": "H" 
			},
			{
				"x": -1.9597128089,
				"y": 0.3722077225,
				"z": 0.9587690809,
				"element": "H" 
			},
			{
				"x": 0.2307124806,
				"y": -0.5819076419,
				"z": 1.281553927,
				"element": "H" 
			},
			{
				"x": -0.24181173,
				"y": -3.4373536568,
				"z": -2.6697153512,
				"element": "H" 
			},
			{
				"x": -2.0312285231,
				"y": -1.7552792792,
				"z": -2.1895373234,
				"element": "H" 
			}
		],
		 "valence_orbital": [ 
			{
				"type": "occ",
				"energy": -0.32406,
				"method": "rhf"
			},
			{
				"type": "occ",
				"energy": -0.31872,
				"method": "rhf"
			},
			{
				"type": "occ",
				"energy": -0.2966,
				"method": "rhf"
			},
			{
				"type": "occ",
				"energy": -0.28776,
				"method": "rhf"
			},
			{
				"type": "occ",
				"energy": -0.2671,
				"method": "rhf"
			},
			{
				"type": "unocc",
				"energy": -0.0606,
				"method": "rhf"
			},
			{
				"type": "unocc",
				"energy": -0.04743,
				"method": "rhf"
			},
			{
				"type": "unocc",
				"energy": 0.00063,
				"method": "rhf"
			},
			{
				"type": "unocc",
				"energy": 0.02101,
				"method": "rhf"
			},
			{
				"type": "unocc",
				"energy": 0.06794,
				"method": "rhf"
			}
		],
		"cosmo_sigma_profile": { 
			"-0.025": 0.0,
			"-0.024": 0.0,
			"-0.023": 0.0,
			"-0.022": 0.0,
			"-0.021": 0.0,
			"-0.02": 0.0,
			"-0.019": 0.0,
			"-0.018": 0.0,
			"-0.017": 0.0,
			"-0.016": 0.218818448104,
			"-0.015": 0.809295205878,
			"-0.014": 1.1702035955,
			"-0.013": 1.94003908176,
			"-0.012": 0.841811862299,
			"-0.011": 1.57755290019,
			"-0.01": 1.72966349058,
			"-0.009": 5.63822651598,
			"-0.008": 11.7608927561,
			"-0.007": 11.8385790987,
			"-0.006": 9.22527662414,
			"-0.005": 9.05742735771,
			"-0.004": 8.26924232529,
			"-0.003": 8.03130678407,
			"-0.002": 8.30984653831,
			"-0.001": 12.3928340911,
			"0.0": 16.0375410071,
			"0.001": 10.4855738832,
			"0.002": 7.43576616554,
			"0.003": 9.00920891872,
			"0.004": 12.2168326488,
			"0.005": 6.79143283988,
			"0.006": 4.18093407297,
			"0.007": 4.37727186694,
			"0.008": 4.33254306171,
			"0.009": 4.04391327748,
			"0.01": 6.93667206079,
			"0.011": 5.92401538492,
			"0.012": 6.07044790557,
			"0.013": 2.36613522131,
			"0.014": 0.760750674058,
			"0.015": 0.0516982834432,
			"0.016": 0.0,
			"0.017": 0.0,
			"0.018": 0.0,
			"0.019": 0.0,
			"0.02": 0.0,
			"0.021": 0.0,
			"0.022": 0.0,
			"0.023": 0.0,
			"0.024": 0.0,
			"0.025": 0.0
		}
	}
}
