{
	 "smiles": "CC1=NN2C(=C1)N=CC1=C2C(=O)OCC1", 
	 "Tm": 474.15, 
	 "num_atms": 24, 
	 "gaussian": { 
		 "optdone": 1, 
		 "sigma_profile": "yes", 
		 "theory": "DFT", 
		 "functional": "B3LYP", 
		 "basiset": "6-31G**", 
		 "properties": { 
			 "R2extent": 3334.0395, 
			 "electric_dipole_moment_norm": 4.16255342188, 
			 "electric_quadrupole_moment_norm": 27.0440229139, 
			 "total_energy": -701.164525729, 
			 "HOMO_LUMO_gap": 0.14529, 
			 "cosmo_polarized_energy": -18.06, 
			 "cosmo_cavitation_energy": 27.94, 
			 "cosmo_dispersion_energy": -21.08, 
			 "cosmo_repulsion_energy": 1.64, 
			 "cosmo_total_nonelectrostatic_energy": 8.5, 
			 "SMD_solvation_energy": 3.32 
		},
		"coords": [
			{
				"x": -2.0323487234,
				"y": 0.1985372032,
				"z": -2.9559210594,
				"element": "C" 
			},
			{
				"x": -1.0455168685,
				"y": 0.080017675,
				"z": -1.8353789812,
				"element": "C" 
			},
			{
				"x": -1.4979422477,
				"y": -0.0944806263,
				"z": -0.5746073394,
				"element": "N" 
			},
			{
				"x": -0.3906509246,
				"y": -0.1610085391,
				"z": 0.1801833651,
				"element": "N" 
			},
			{
				"x": 0.7925850484,
				"y": -0.0213388877,
				"z": -0.5927405005,
				"element": "C" 
			},
			{
				"x": 0.3533588711,
				"y": 0.1289444638,
				"z": -1.9045283076,
				"element": "C" 
			},
			{
				"x": 2.0168367354,
				"y": -0.034916225,
				"z": -0.0366830027,
				"element": "N" 
			},
			{
				"x": 2.0849673996,
				"y": -0.1679889072,
				"z": 1.2720728173,
				"element": "C" 
			},
			{
				"x": 0.9484542884,
				"y": -0.3092482681,
				"z": 2.1136772769,
				"element": "C" 
			},
			{
				"x": -0.310297445,
				"y": -0.3205448556,
				"z": 1.5409680831,
				"element": "C" 
			},
			{
				"x": -1.5355412708,
				"y": -0.6106511146,
				"z": 2.3554036693,
				"element": "C" 
			},
			{
				"x": -2.5766439444,
				"y": -1.0150444603,
				"z": 1.9056532969,
				"element": "O" 
			},
			{
				"x": -1.38979251,
				"y": -0.4674570949,
				"z": 3.702406727,
				"element": "O" 
			},
			{
				"x": -0.2052741598,
				"y": 0.1575369736,
				"z": 4.2318595626,
				"element": "C" 
			},
			{
				"x": 1.0479904551,
				"y": -0.440507296,
				"z": 3.6112303646,
				"element": "C" 
			},
			{
				"x": -2.665806335,
				"y": -0.6924174316,
				"z": -3.0099772983,
				"element": "H" 
			},
			{
				"x": -1.5212162734,
				"y": 0.3208510309,
				"z": -3.9134919744,
				"element": "H" 
			},
			{
				"x": -2.6933900987,
				"y": 1.057667108,
				"z": -2.8026433767,
				"element": "H" 
			},
			{
				"x": 0.978660409,
				"y": 0.2630124033,
				"z": -2.7732307898,
				"element": "H" 
			},
			{
				"x": 3.0795185452,
				"y": -0.1636802454,
				"z": 1.715964777,
				"element": "H" 
			},
			{
				"x": -0.2522194331,
				"y": 1.236994739,
				"z": 4.0401838063,
				"element": "H" 
			},
			{
				"x": -0.2542613645,
				"y": -0.0085465424,
				"z": 5.3095876179,
				"element": "H" 
			},
			{
				"x": 1.9354876403,
				"y": 0.081346244,
				"z": 3.985649454,
				"element": "H" 
			},
			{
				"x": 1.1441422064,
				"y": -1.4935773466,
				"z": 3.9078618119,
				"element": "H" 
			}
		],
		 "valence_orbital": [ 
			{
				"type": "occ",
				"energy": -0.30511,
				"method": "rhf"
			},
			{
				"type": "occ",
				"energy": -0.29142,
				"method": "rhf"
			},
			{
				"type": "occ",
				"energy": -0.25895,
				"method": "rhf"
			},
			{
				"type": "occ",
				"energy": -0.25225,
				"method": "rhf"
			},
			{
				"type": "occ",
				"energy": -0.2302,
				"method": "rhf"
			},
			{
				"type": "unocc",
				"energy": -0.08491,
				"method": "rhf"
			},
			{
				"type": "unocc",
				"energy": -0.02092,
				"method": "rhf"
			},
			{
				"type": "unocc",
				"energy": 0.0239,
				"method": "rhf"
			},
			{
				"type": "unocc",
				"energy": 0.07144,
				"method": "rhf"
			},
			{
				"type": "unocc",
				"energy": 0.08376,
				"method": "rhf"
			}
		],
		"cosmo_sigma_profile": { 
			"-0.025": 0.0,
			"-0.024": 0.0,
			"-0.023": 0.0,
			"-0.022": 0.0,
			"-0.021": 0.0,
			"-0.02": 0.0,
			"-0.019": 0.0,
			"-0.018": 0.0,
			"-0.017": 0.0,
			"-0.016": 0.0,
			"-0.015": 0.0,
			"-0.014": 0.0,
			"-0.013": 0.0,
			"-0.012": 0.0,
			"-0.011": 0.0,
			"-0.01": 0.0,
			"-0.009": 0.122361042199,
			"-0.008": 4.99857710759,
			"-0.007": 15.7775941795,
			"-0.006": 19.1551014957,
			"-0.005": 20.4719602753,
			"-0.004": 20.8493914075,
			"-0.003": 17.2495772162,
			"-0.002": 14.2068177684,
			"-0.001": 15.9319766692,
			"0.0": 12.5430627908,
			"0.001": 8.32502949007,
			"0.002": 8.75524735166,
			"0.003": 10.0757125277,
			"0.004": 7.25300701666,
			"0.005": 5.19670421552,
			"0.006": 4.63414623208,
			"0.007": 3.90803024134,
			"0.008": 3.27286400518,
			"0.009": 5.37116055789,
			"0.01": 6.77257188979,
			"0.011": 6.32408408974,
			"0.012": 4.53591813649,
			"0.013": 2.19610720335,
			"0.014": 1.92750351869,
			"0.015": 1.56318768757,
			"0.016": 0.855320658979,
			"0.017": 1.10144027246,
			"0.018": 0.239062693429,
			"0.019": 0.0,
			"0.02": 0.0,
			"0.021": 0.0,
			"0.022": 0.0,
			"0.023": 0.0,
			"0.024": 0.0,
			"0.025": 0.0
		}
	}
}
