{
	 "smiles": "CC1=NNC2=C1N=C(C)N(C1=CC=CC=N1)C2=O", 
	 "Tm": 496.15, 
	 "num_atms": 29, 
	 "gaussian": { 
		 "optdone": 1, 
		 "sigma_profile": "yes", 
		 "theory": "DFT", 
		 "functional": "B3LYP", 
		 "basiset": "6-31G**", 
		 "properties": { 
			 "R2extent": 5648.892, 
			 "electric_dipole_moment_norm": 3.90992501335, 
			 "electric_quadrupole_moment_norm": 14.9558977821, 
			 "total_energy": -812.89205635, 
			 "HOMO_LUMO_gap": 0.17598, 
			 "cosmo_polarized_energy": -15.82, 
			 "cosmo_cavitation_energy": 33.62, 
			 "cosmo_dispersion_energy": -24.25, 
			 "cosmo_repulsion_energy": 1.87, 
			 "cosmo_total_nonelectrostatic_energy": 11.24, 
			 "SMD_solvation_energy": 3.01 
		},
		"coords": [
			{
				"x": 1.9724380303,
				"y": 2.7066292653,
				"z": 1.5915202217,
				"element": "C" 
			},
			{
				"x": 0.5904658206,
				"y": 2.1517123628,
				"z": 1.4627083241,
				"element": "C" 
			},
			{
				"x": -0.4814812932,
				"y": 2.8489079241,
				"z": 1.8459482799,
				"element": "N" 
			},
			{
				"x": -1.556715826,
				"y": 2.0682588363,
				"z": 1.5948034838,
				"element": "N" 
			},
			{
				"x": -1.1992659576,
				"y": 0.874478584,
				"z": 1.0583492667,
				"element": "C" 
			},
			{
				"x": 0.1867333015,
				"y": 0.8825143833,
				"z": 0.95240569,
				"element": "C" 
			},
			{
				"x": 0.9142239455,
				"y": -0.1606271133,
				"z": 0.4370529593,
				"element": "N" 
			},
			{
				"x": 0.2348048745,
				"y": -1.2034331107,
				"z": 0.062177081,
				"element": "C" 
			},
			{
				"x": 0.9796094278,
				"y": -2.3667663169,
				"z": -0.533015662,
				"element": "C" 
			},
			{
				"x": -1.1677093643,
				"y": -1.292706051,
				"z": 0.1505941011,
				"element": "N" 
			},
			{
				"x": -1.8520282892,
				"y": -2.5131191218,
				"z": -0.2041004214,
				"element": "C" 
			},
			{
				"x": -2.7738287224,
				"y": -2.5069686986,
				"z": -1.2534149777,
				"element": "C" 
			},
			{
				"x": -3.426028603,
				"y": -3.699516655,
				"z": -1.553714352,
				"element": "C" 
			},
			{
				"x": -3.1301894737,
				"y": -4.8388258594,
				"z": -0.8042049053,
				"element": "C" 
			},
			{
				"x": -2.1912549584,
				"y": -4.7297958704,
				"z": 0.2203731384,
				"element": "C" 
			},
			{
				"x": -1.5637513405,
				"y": -3.5867798834,
				"z": 0.5272314693,
				"element": "N" 
			},
			{
				"x": -2.002249058,
				"y": -0.2411868187,
				"z": 0.6464297402,
				"element": "C" 
			},
			{
				"x": -3.2226426924,
				"y": -0.3327461824,
				"z": 0.6939102258,
				"element": "O" 
			},
			{
				"x": 2.5910759073,
				"y": 2.0767586903,
				"z": 2.2395377483,
				"element": "H" 
			},
			{
				"x": 1.932040791,
				"y": 3.7125239667,
				"z": 2.0144210935,
				"element": "H" 
			},
			{
				"x": 2.4705004107,
				"y": 2.7530776782,
				"z": 0.6172924135,
				"element": "H" 
			},
			{
				"x": -2.4849107326,
				"y": 2.3945832356,
				"z": 1.8138652688,
				"element": "H" 
			},
			{
				"x": 0.572601385,
				"y": -2.6469412003,
				"z": -1.5105695073,
				"element": "H" 
			},
			{
				"x": 0.9160003455,
				"y": -3.2467491614,
				"z": 0.111564302,
				"element": "H" 
			},
			{
				"x": 2.0208726464,
				"y": -2.0668894785,
				"z": -0.6465394896,
				"element": "H" 
			},
			{
				"x": -2.9757286602,
				"y": -1.5933482332,
				"z": -1.7989754522,
				"element": "H" 
			},
			{
				"x": -4.1529891723,
				"y": -3.7371930956,
				"z": -2.3592812885,
				"element": "H" 
			},
			{
				"x": -3.6150756464,
				"y": -5.7884598475,
				"z": -1.005251589,
				"element": "H" 
			},
			{
				"x": -1.9324170957,
				"y": -5.5927922285,
				"z": 0.8300828374,
				"element": "H" 
			}
		],
		 "valence_orbital": [ 
			{
				"type": "occ",
				"energy": -0.27532,
				"method": "rhf"
			},
			{
				"type": "occ",
				"energy": -0.26963,
				"method": "rhf"
			},
			{
				"type": "occ",
				"energy": -0.26106,
				"method": "rhf"
			},
			{
				"type": "occ",
				"energy": -0.25515,
				"method": "rhf"
			},
			{
				"type": "occ",
				"energy": -0.22191,
				"method": "rhf"
			},
			{
				"type": "unocc",
				"energy": -0.04593,
				"method": "rhf"
			},
			{
				"type": "unocc",
				"energy": -0.03433,
				"method": "rhf"
			},
			{
				"type": "unocc",
				"energy": -0.02246,
				"method": "rhf"
			},
			{
				"type": "unocc",
				"energy": -0.00469,
				"method": "rhf"
			},
			{
				"type": "unocc",
				"energy": 0.05835,
				"method": "rhf"
			}
		],
		"cosmo_sigma_profile": { 
			"-0.025": 0.0,
			"-0.024": 0.0,
			"-0.023": 0.0,
			"-0.022": 0.0,
			"-0.021": 0.0,
			"-0.02": 0.0,
			"-0.019": 0.0,
			"-0.018": 0.00897303406089,
			"-0.017": 0.854610940455,
			"-0.016": 1.20473678122,
			"-0.015": 1.0452342111,
			"-0.014": 1.01029123604,
			"-0.013": 0.717211073215,
			"-0.012": 0.342891943646,
			"-0.011": 1.20879182787,
			"-0.01": 0.774446750996,
			"-0.009": 0.743810083522,
			"-0.008": 3.05719489969,
			"-0.007": 10.102052398,
			"-0.006": 12.3861673746,
			"-0.005": 16.4115006531,
			"-0.004": 21.1130372608,
			"-0.003": 20.2694701096,
			"-0.002": 21.5265469408,
			"-0.001": 26.6707879035,
			"0.0": 23.3444110361,
			"0.001": 21.9876235595,
			"0.002": 17.9657595597,
			"0.003": 9.05381514536,
			"0.004": 7.9727261843,
			"0.005": 6.09831171168,
			"0.006": 5.95856543683,
			"0.007": 4.75513170956,
			"0.008": 5.50535286172,
			"0.009": 4.56970744399,
			"0.01": 3.6290099928,
			"0.011": 4.95956510089,
			"0.012": 7.32945799104,
			"0.013": 4.45994083275,
			"0.014": 1.84199807044,
			"0.015": 0.46643893974,
			"0.016": 0.00277274836067,
			"0.017": 0.0,
			"0.018": 0.0,
			"0.019": 0.0,
			"0.02": 0.0,
			"0.021": 0.0,
			"0.022": 0.0,
			"0.023": 0.0,
			"0.024": 0.0,
			"0.025": 0.0
		}
	}
}
