{
	 "smiles": "BrCCC1CCS(=O)(=O)C1", 
	 "Tm": 330.15, 
	 "num_atms": 21, 
	 "gaussian": { 
		 "optdone": 1, 
		 "sigma_profile": "yes", 
		 "theory": "DFT", 
		 "functional": "B3LYP", 
		 "basiset": "6-31G**", 
		 "properties": { 
			 "R2extent": 3545.2981, 
			 "electric_dipole_moment_norm": 4.77780745322, 
			 "electric_quadrupole_moment_norm": 16.4996289576, 
			 "total_energy": -3355.25210398, 
			 "HOMO_LUMO_gap": 0.26242, 
			 "cosmo_polarized_energy": -17.84, 
			 "cosmo_cavitation_energy": 26.07, 
			 "cosmo_dispersion_energy": -20.12, 
			 "cosmo_repulsion_energy": 1.58, 
			 "cosmo_total_nonelectrostatic_energy": 7.53, 
			 "SMD_solvation_energy": 2.05 
		},
		"coords": [
			{
				"x": 2.744076277,
				"y": 2.0362764013,
				"z": 1.714550994,
				"element": "Br" 
			},
			{
				"x": 1.4147189625,
				"y": 2.4785672082,
				"z": 0.3052137713,
				"element": "C" 
			},
			{
				"x": 0.0147549644,
				"y": 1.9356759818,
				"z": 0.5820033391,
				"element": "C" 
			},
			{
				"x": -0.2835615421,
				"y": 0.4595784568,
				"z": 0.2529704088,
				"element": "C" 
			},
			{
				"x": 0.5353525482,
				"y": -0.6060383746,
				"z": 1.0215849965,
				"element": "C" 
			},
			{
				"x": 0.0925137346,
				"y": -1.9759433415,
				"z": 0.4937555119,
				"element": "C" 
			},
			{
				"x": -0.2158528068,
				"y": -1.7274375204,
				"z": -1.3028306815,
				"element": "S" 
			},
			{
				"x": -1.5932309052,
				"y": -2.139028264,
				"z": -1.621017359,
				"element": "O" 
			},
			{
				"x": 0.9216416156,
				"y": -2.2386536906,
				"z": -2.0844607409,
				"element": "O" 
			},
			{
				"x": -0.1350365787,
				"y": 0.1069432155,
				"z": -1.2355181823,
				"element": "C" 
			},
			{
				"x": 1.8495873262,
				"y": 2.1112119884,
				"z": -0.6240257357,
				"element": "H" 
			},
			{
				"x": 1.4098505376,
				"y": 3.5672585252,
				"z": 0.2845259676,
				"element": "H" 
			},
			{
				"x": -0.6748836563,
				"y": 2.5500958365,
				"z": -0.0144293591,
				"element": "H" 
			},
			{
				"x": -0.2403987939,
				"y": 2.1282960739,
				"z": 1.629714318,
				"element": "H" 
			},
			{
				"x": -1.3397400001,
				"y": 0.3047861977,
				"z": 0.5139103023,
				"element": "H" 
			},
			{
				"x": 1.6046332646,
				"y": -0.4634165728,
				"z": 0.8435506797,
				"element": "H" 
			},
			{
				"x": 0.3771094339,
				"y": -0.5301875812,
				"z": 2.1013554362,
				"element": "H" 
			},
			{
				"x": 0.8412814244,
				"y": -2.7633326224,
				"z": 0.5917989454,
				"element": "H" 
			},
			{
				"x": -0.8568457287,
				"y": -2.3068633788,
				"z": 0.9213566408,
				"element": "H" 
			},
			{
				"x": 0.8402681148,
				"y": 0.3840540665,
				"z": -1.6436760712,
				"element": "H" 
			},
			{
				"x": -0.931438192,
				"y": 0.4929573943,
				"z": -1.8744331817,
				"element": "H" 
			}
		],
		 "valence_orbital": [ 
			{
				"type": "occ",
				"energy": -0.30548,
				"method": "rhf"
			},
			{
				"type": "occ",
				"energy": -0.29279,
				"method": "rhf"
			},
			{
				"type": "occ",
				"energy": -0.28748,
				"method": "rhf"
			},
			{
				"type": "occ",
				"energy": -0.28386,
				"method": "rhf"
			},
			{
				"type": "occ",
				"energy": -0.27731,
				"method": "rhf"
			},
			{
				"type": "unocc",
				"energy": -0.01489,
				"method": "rhf"
			},
			{
				"type": "unocc",
				"energy": 0.04478,
				"method": "rhf"
			},
			{
				"type": "unocc",
				"energy": 0.05674,
				"method": "rhf"
			},
			{
				"type": "unocc",
				"energy": 0.06614,
				"method": "rhf"
			},
			{
				"type": "unocc",
				"energy": 0.07321,
				"method": "rhf"
			}
		],
		"cosmo_sigma_profile": { 
			"-0.025": 0.0,
			"-0.024": 0.0,
			"-0.023": 0.0,
			"-0.022": 0.0,
			"-0.021": 0.0,
			"-0.02": 0.0,
			"-0.019": 0.0,
			"-0.018": 0.0,
			"-0.017": 0.0,
			"-0.016": 0.0,
			"-0.015": 0.0,
			"-0.014": 0.0,
			"-0.013": 0.0,
			"-0.012": 0.0,
			"-0.011": 0.0,
			"-0.01": 0.214414805206,
			"-0.009": 2.26935522395,
			"-0.008": 5.26495291806,
			"-0.007": 12.7900713043,
			"-0.006": 17.7195524597,
			"-0.005": 26.8056528096,
			"-0.004": 24.7492367797,
			"-0.003": 12.5630915028,
			"-0.002": 10.4439162855,
			"-0.001": 7.03114577184,
			"0.0": 6.45610189152,
			"0.001": 6.74536145638,
			"0.002": 6.3230820315,
			"0.003": 5.94918055725,
			"0.004": 6.72669904732,
			"0.005": 8.3417905349,
			"0.006": 10.1171297259,
			"0.007": 4.54630503165,
			"0.008": 2.21235597126,
			"0.009": 2.18125556902,
			"0.01": 2.60946274143,
			"0.011": 9.08032264917,
			"0.012": 12.1057841252,
			"0.013": 3.95439764678,
			"0.014": 0.0,
			"0.015": 0.0,
			"0.016": 0.0,
			"0.017": 0.0,
			"0.018": 0.0,
			"0.019": 0.0,
			"0.02": 0.0,
			"0.021": 0.0,
			"0.022": 0.0,
			"0.023": 0.0,
			"0.024": 0.0,
			"0.025": 0.0
		}
	}
}
