{
	 "smiles": "CC1(C)C2CCC1(C)C(=O)C2C(O)=O", 
	 "Tm": 401.15, 
	 "num_atms": 30, 
	 "gaussian": { 
		 "optdone": 1, 
		 "sigma_profile": "yes", 
		 "theory": "DFT", 
		 "functional": "B3LYP", 
		 "basiset": "6-31G**", 
		 "properties": { 
			 "R2extent": 2770.3225, 
			 "electric_dipole_moment_norm": 3.90422879196, 
			 "electric_quadrupole_moment_norm": 15.333712228, 
			 "total_energy": -654.498219626, 
			 "HOMO_LUMO_gap": 0.21985, 
			 "cosmo_polarized_energy": -13.95, 
			 "cosmo_cavitation_energy": 29.8, 
			 "cosmo_dispersion_energy": -21.03, 
			 "cosmo_repulsion_energy": 1.62, 
			 "cosmo_total_nonelectrostatic_energy": 10.4, 
			 "SMD_solvation_energy": 6.51 
		},
		"coords": [
			{
				"x": -0.191509238,
				"y": 2.5539927529,
				"z": -0.9382337908,
				"element": "C" 
			},
			{
				"x": 0.1404057095,
				"y": 1.79804237,
				"z": 0.3614227096,
				"element": "C" 
			},
			{
				"x": 1.160460706,
				"y": 2.6484053555,
				"z": 1.138780039,
				"element": "C" 
			},
			{
				"x": 0.6005877843,
				"y": 0.3127424447,
				"z": 0.1589459001,
				"element": "C" 
			},
			{
				"x": 0.6933266976,
				"y": -0.2089805909,
				"z": 1.6133128563,
				"element": "C" 
			},
			{
				"x": -0.5283330216,
				"y": 0.4769128335,
				"z": 2.3001379674,
				"element": "C" 
			},
			{
				"x": -1.1347525751,
				"y": 1.3999205854,
				"z": 1.1876621165,
				"element": "C" 
			},
			{
				"x": -2.0718809847,
				"y": 2.4838208333,
				"z": 1.6903835264,
				"element": "C" 
			},
			{
				"x": -1.8008300101,
				"y": 0.4113947894,
				"z": 0.2193855562,
				"element": "C" 
			},
			{
				"x": -2.9846602823,
				"y": 0.2357534212,
				"z": 0.0507881674,
				"element": "O" 
			},
			{
				"x": -0.6549338946,
				"y": -0.3817132244,
				"z": -0.452851356,
				"element": "C" 
			},
			{
				"x": -0.7146126963,
				"y": -0.4664401114,
				"z": -1.9671409329,
				"element": "C" 
			},
			{
				"x": 0.2145449921,
				"y": -1.3473343874,
				"z": -2.4196910384,
				"element": "O" 
			},
			{
				"x": -1.4579293839,
				"y": 0.1271123353,
				"z": -2.7144010131,
				"element": "O" 
			},
			{
				"x": 0.6986964167,
				"y": 2.6337258032,
				"z": -1.5729027443,
				"element": "H" 
			},
			{
				"x": -0.5136630543,
				"y": 3.5744604602,
				"z": -0.7055808237,
				"element": "H" 
			},
			{
				"x": -0.9816174064,
				"y": 2.0899655316,
				"z": -1.5314350268,
				"element": "H" 
			},
			{
				"x": 1.4346660783,
				"y": 2.2383508914,
				"z": 2.1125381523,
				"element": "H" 
			},
			{
				"x": 0.764977489,
				"y": 3.6555479079,
				"z": 1.306395829,
				"element": "H" 
			},
			{
				"x": 2.0814895663,
				"y": 2.7550565911,
				"z": 0.5540363974,
				"element": "H" 
			},
			{
				"x": 1.509508416,
				"y": 0.1761075835,
				"z": -0.4322009918,
				"element": "H" 
			},
			{
				"x": 0.6443494816,
				"y": -1.3010269533,
				"z": 1.6567296617,
				"element": "H" 
			},
			{
				"x": 1.6360227274,
				"y": 0.0842241291,
				"z": 2.0820016007,
				"element": "H" 
			},
			{
				"x": -0.2255598643,
				"y": 1.0879832442,
				"z": 3.1557988308,
				"element": "H" 
			},
			{
				"x": -1.266501878,
				"y": -0.2406352715,
				"z": 2.6720884588,
				"element": "H" 
			},
			{
				"x": -2.9509995319,
				"y": 2.0357655521,
				"z": 2.1632884277,
				"element": "H" 
			},
			{
				"x": -2.4328378724,
				"y": 3.1103588689,
				"z": 0.8692907813,
				"element": "H" 
			},
			{
				"x": -1.576876957,
				"y": 3.1274538208,
				"z": 2.4247797993,
				"element": "H" 
			},
			{
				"x": -0.7104341059,
				"y": -1.4222807994,
				"z": -0.1104033916,
				"element": "H" 
			},
			{
				"x": 0.1282966919,
				"y": -1.3533867669,
				"z": -3.3882256686,
				"element": "H" 
			}
		],
		 "valence_orbital": [ 
			{
				"type": "occ",
				"energy": -0.32291,
				"method": "rhf"
			},
			{
				"type": "occ",
				"energy": -0.31705,
				"method": "rhf"
			},
			{
				"type": "occ",
				"energy": -0.30001,
				"method": "rhf"
			},
			{
				"type": "occ",
				"energy": -0.27779,
				"method": "rhf"
			},
			{
				"type": "occ",
				"energy": -0.238,
				"method": "rhf"
			},
			{
				"type": "unocc",
				"energy": -0.01815,
				"method": "rhf"
			},
			{
				"type": "unocc",
				"energy": -0.00203,
				"method": "rhf"
			},
			{
				"type": "unocc",
				"energy": 0.0679,
				"method": "rhf"
			},
			{
				"type": "unocc",
				"energy": 0.07742,
				"method": "rhf"
			},
			{
				"type": "unocc",
				"energy": 0.10044,
				"method": "rhf"
			}
		],
		"cosmo_sigma_profile": { 
			"-0.025": 0.0,
			"-0.024": 0.0,
			"-0.023": 0.0,
			"-0.022": 0.0,
			"-0.021": 0.0,
			"-0.02": 0.0,
			"-0.019": 0.123128970658,
			"-0.018": 0.884621228385,
			"-0.017": 0.652003268502,
			"-0.016": 0.96696021261,
			"-0.015": 1.22141294179,
			"-0.014": 0.773935708883,
			"-0.013": 0.312171607774,
			"-0.012": 0.29360059454,
			"-0.011": 0.633335317962,
			"-0.01": 0.748821617282,
			"-0.009": 0.551833307953,
			"-0.008": 2.28219283608,
			"-0.007": 4.35808274408,
			"-0.006": 4.21618960952,
			"-0.005": 4.70715976813,
			"-0.004": 14.5789437722,
			"-0.003": 29.4715323709,
			"-0.002": 34.5658156315,
			"-0.001": 27.1692787454,
			"0.0": 26.6837339667,
			"0.001": 19.5202532798,
			"0.002": 6.85739176479,
			"0.003": 3.86923291758,
			"0.004": 4.03066151302,
			"0.005": 3.15602387278,
			"0.006": 3.81649742348,
			"0.007": 4.20136973918,
			"0.008": 4.21331307529,
			"0.009": 4.30655050445,
			"0.01": 5.2772640829,
			"0.011": 9.91608490374,
			"0.012": 6.10850761135,
			"0.013": 0.375462446841,
			"0.014": 0.0,
			"0.015": 0.0,
			"0.016": 0.0,
			"0.017": 0.0,
			"0.018": 0.0,
			"0.019": 0.0,
			"0.02": 0.0,
			"0.021": 0.0,
			"0.022": 0.0,
			"0.023": 0.0,
			"0.024": 0.0,
			"0.025": 0.0
		}
	}
}
