{
	 "smiles": "CC1=C(N)C2=C(C=CC=C2)N=C1", 
	 "Tm": 413.15, 
	 "num_atms": 22, 
	 "gaussian": { 
		 "optdone": 1, 
		 "sigma_profile": "yes", 
		 "theory": "DFT", 
		 "functional": "B3LYP", 
		 "basiset": "6-31G**", 
		 "properties": { 
			 "R2extent": 2063.6394, 
			 "electric_dipole_moment_norm": 3.78132644187, 
			 "electric_quadrupole_moment_norm": 9.7023061336, 
			 "total_energy": -496.61333511, 
			 "HOMO_LUMO_gap": 0.16874, 
			 "cosmo_polarized_energy": -12.63, 
			 "cosmo_cavitation_energy": 24.82, 
			 "cosmo_dispersion_energy": -18.87, 
			 "cosmo_repulsion_energy": 1.47, 
			 "cosmo_total_nonelectrostatic_energy": 7.41, 
			 "SMD_solvation_energy": 2.41 
		},
		"coords": [
			{
				"x": -2.9370402639,
				"y": 0.2964729664,
				"z": -0.1823060347,
				"element": "C" 
			},
			{
				"x": -1.4609175924,
				"y": -0.0016706549,
				"z": -0.1248988548,
				"element": "C" 
			},
			{
				"x": -0.5598376023,
				"y": 0.8839373127,
				"z": 0.4663635537,
				"element": "C" 
			},
			{
				"x": -0.9910323688,
				"y": 2.0862812923,
				"z": 1.0012316757,
				"element": "N" 
			},
			{
				"x": 0.8350679112,
				"y": 0.5465567668,
				"z": 0.4643511745,
				"element": "C" 
			},
			{
				"x": 1.2131682955,
				"y": -0.709339753,
				"z": -0.1073654407,
				"element": "C" 
			},
			{
				"x": 2.5845547967,
				"y": -1.0805096986,
				"z": -0.1000277122,
				"element": "C" 
			},
			{
				"x": 3.5418943299,
				"y": -0.2475611999,
				"z": 0.4331299361,
				"element": "C" 
			},
			{
				"x": 3.1706911203,
				"y": 1.0040241798,
				"z": 0.9782964778,
				"element": "C" 
			},
			{
				"x": 1.8478639518,
				"y": 1.391124498,
				"z": 0.9910183603,
				"element": "C" 
			},
			{
				"x": 0.3189206014,
				"y": -1.5747185041,
				"z": -0.6673215031,
				"element": "N" 
			},
			{
				"x": -0.9450718944,
				"y": -1.2008239436,
				"z": -0.6673468257,
				"element": "C" 
			},
			{
				"x": -3.1467595728,
				"y": 1.2251049456,
				"z": -0.7288052468,
				"element": "H" 
			},
			{
				"x": -3.4766262867,
				"y": -0.5101188535,
				"z": -0.6854857778,
				"element": "H" 
			},
			{
				"x": -3.3788182126,
				"y": 0.4024987975,
				"z": 0.8191505659,
				"element": "H" 
			},
			{
				"x": -1.977344006,
				"y": 2.1516038885,
				"z": 1.2044256968,
				"element": "H" 
			},
			{
				"x": -0.4163206106,
				"y": 2.4918554972,
				"z": 1.7243717803,
				"element": "H" 
			},
			{
				"x": 2.8384074385,
				"y": -2.0414142403,
				"z": -0.5358182394,
				"element": "H" 
			},
			{
				"x": 4.5868947644,
				"y": -0.5441352751,
				"z": 0.4298698972,
				"element": "H" 
			},
			{
				"x": 3.9323456083,
				"y": 1.6653719764,
				"z": 1.3808760976,
				"element": "H" 
			},
			{
				"x": 1.5925545407,
				"y": 2.3707408275,
				"z": 1.3854146362,
				"element": "H" 
			},
			{
				"x": -1.6506949483,
				"y": -1.8973808259,
				"z": -1.1240242169,
				"element": "H" 
			}
		],
		 "valence_orbital": [ 
			{
				"type": "occ",
				"energy": -0.32828,
				"method": "rhf"
			},
			{
				"type": "occ",
				"energy": -0.25585,
				"method": "rhf"
			},
			{
				"type": "occ",
				"energy": -0.24093,
				"method": "rhf"
			},
			{
				"type": "occ",
				"energy": -0.23884,
				"method": "rhf"
			},
			{
				"type": "occ",
				"energy": -0.20413,
				"method": "rhf"
			},
			{
				"type": "unocc",
				"energy": -0.03539,
				"method": "rhf"
			},
			{
				"type": "unocc",
				"energy": -0.00445,
				"method": "rhf"
			},
			{
				"type": "unocc",
				"energy": 0.03813,
				"method": "rhf"
			},
			{
				"type": "unocc",
				"energy": 0.06313,
				"method": "rhf"
			},
			{
				"type": "unocc",
				"energy": 0.09478,
				"method": "rhf"
			}
		],
		"cosmo_sigma_profile": { 
			"-0.025": 0.0,
			"-0.024": 0.0,
			"-0.023": 0.0,
			"-0.022": 0.0,
			"-0.021": 0.0,
			"-0.02": 0.0,
			"-0.019": 0.0,
			"-0.018": 0.0,
			"-0.017": 0.0,
			"-0.016": 0.0,
			"-0.015": 0.0,
			"-0.014": 0.262630442982,
			"-0.013": 1.69453048255,
			"-0.012": 2.42278003375,
			"-0.011": 2.56788460097,
			"-0.01": 3.02478143107,
			"-0.009": 3.03138200232,
			"-0.008": 2.75999523721,
			"-0.007": 2.90091346721,
			"-0.006": 6.08959909758,
			"-0.005": 13.933163125,
			"-0.004": 15.0690477013,
			"-0.003": 14.5634924331,
			"-0.002": 13.0945917765,
			"-0.001": 13.0311373044,
			"0.0": 12.3447409108,
			"0.001": 9.9252201924,
			"0.002": 12.7478801462,
			"0.003": 17.4937333959,
			"0.004": 17.0633769982,
			"0.005": 12.5728079219,
			"0.006": 4.59568945805,
			"0.007": 2.80379496001,
			"0.008": 1.57335561853,
			"0.009": 1.99843362139,
			"0.01": 2.72436238238,
			"0.011": 1.21801227,
			"0.012": 1.25859337247,
			"0.013": 1.08247311319,
			"0.014": 1.15983689184,
			"0.015": 1.02943613561,
			"0.016": 0.717340918349,
			"0.017": 0.594600412295,
			"0.018": 0.463794486715,
			"0.019": 0.0,
			"0.02": 0.0,
			"0.021": 0.0,
			"0.022": 0.0,
			"0.023": 0.0,
			"0.024": 0.0,
			"0.025": 0.0
		}
	}
}
