{
	 "smiles": "FC(F)(F)COC1=CC=C(C=C1)S(Cl)(=O)=O", 
	 "Tm": 329.15, 
	 "num_atms": 22, 
	 "gaussian": { 
		 "optdone": 1, 
		 "sigma_profile": "yes", 
		 "theory": "DFT", 
		 "functional": "B3LYP", 
		 "basiset": "6-31G**", 
		 "properties": { 
			 "R2extent": 6910.4471, 
			 "electric_dipole_moment_norm": 5.77924990808, 
			 "electric_quadrupole_moment_norm": 19.650979872, 
			 "total_energy": -1691.96311629, 
			 "HOMO_LUMO_gap": 0.17975, 
			 "cosmo_polarized_energy": -12.3, 
			 "cosmo_cavitation_energy": 31.73, 
			 "cosmo_dispersion_energy": -23.1, 
			 "cosmo_repulsion_energy": 1.71, 
			 "cosmo_total_nonelectrostatic_energy": 10.34, 
			 "SMD_solvation_energy": 5.53 
		},
		"coords": [
			{
				"x": 0.9526238447,
				"y": 4.6338581545,
				"z": 0.7872736707,
				"element": "F" 
			},
			{
				"x": 0.9066973449,
				"y": 3.2968155636,
				"z": 0.9625004405,
				"element": "C" 
			},
			{
				"x": -0.3393206382,
				"y": 2.9745711572,
				"z": 1.3695683231,
				"element": "F" 
			},
			{
				"x": 1.7567933079,
				"y": 2.9688371208,
				"z": 1.9463889542,
				"element": "F" 
			},
			{
				"x": 1.2790979429,
				"y": 2.6154850412,
				"z": -0.3490310748,
				"element": "C" 
			},
			{
				"x": 1.3581934647,
				"y": 1.2091604312,
				"z": -0.2192664465,
				"element": "O" 
			},
			{
				"x": 0.2937093057,
				"y": 0.4113621278,
				"z": -0.5290538997,
				"element": "C" 
			},
			{
				"x": 0.6045875165,
				"y": -0.9529741711,
				"z": -0.6514156552,
				"element": "C" 
			},
			{
				"x": -0.3859416859,
				"y": -1.8672199681,
				"z": -0.9743265903,
				"element": "C" 
			},
			{
				"x": -1.689542319,
				"y": -1.4037947447,
				"z": -1.182691293,
				"element": "C" 
			},
			{
				"x": -2.0149059094,
				"y": -0.0544406075,
				"z": -1.055582574,
				"element": "C" 
			},
			{
				"x": -1.0192306296,
				"y": 0.8615086114,
				"z": -0.7235220822,
				"element": "C" 
			},
			{
				"x": -2.9631421931,
				"y": -2.5628145836,
				"z": -1.6225059581,
				"element": "S" 
			},
			{
				"x": -3.6849331413,
				"y": -3.1684070222,
				"z": 0.297602682,
				"element": "Cl" 
			},
			{
				"x": -4.066838189,
				"y": -1.8530805621,
				"z": -2.2578945008,
				"element": "O" 
			},
			{
				"x": -2.3552646329,
				"y": -3.7496063421,
				"z": -2.2118290046,
				"element": "O" 
			},
			{
				"x": 2.2801357436,
				"y": 2.9590333321,
				"z": -0.6205171399,
				"element": "H" 
			},
			{
				"x": 0.5765179946,
				"y": 2.927754603,
				"z": -1.1275375329,
				"element": "H" 
			},
			{
				"x": 1.63083424,
				"y": -1.2672740762,
				"z": -0.4975079212,
				"element": "H" 
			},
			{
				"x": -0.1563547959,
				"y": -2.9210604933,
				"z": -1.083737211,
				"element": "H" 
			},
			{
				"x": -3.0348916936,
				"y": 0.2770762112,
				"z": -1.2141910587,
				"element": "H" 
			},
			{
				"x": -1.2833248776,
				"y": 1.9014102168,
				"z": -0.5862241275,
				"element": "H" 
			}
		],
		 "valence_orbital": [ 
			{
				"type": "occ",
				"energy": -0.33473,
				"method": "rhf"
			},
			{
				"type": "occ",
				"energy": -0.32661,
				"method": "rhf"
			},
			{
				"type": "occ",
				"energy": -0.31077,
				"method": "rhf"
			},
			{
				"type": "occ",
				"energy": -0.29387,
				"method": "rhf"
			},
			{
				"type": "occ",
				"energy": -0.26742,
				"method": "rhf"
			},
			{
				"type": "unocc",
				"energy": -0.08767,
				"method": "rhf"
			},
			{
				"type": "unocc",
				"energy": -0.04296,
				"method": "rhf"
			},
			{
				"type": "unocc",
				"energy": -0.03868,
				"method": "rhf"
			},
			{
				"type": "unocc",
				"energy": 0.05351,
				"method": "rhf"
			},
			{
				"type": "unocc",
				"energy": 0.05996,
				"method": "rhf"
			}
		],
		"cosmo_sigma_profile": { 
			"-0.025": 0.0,
			"-0.024": 0.0,
			"-0.023": 0.0,
			"-0.022": 0.0,
			"-0.021": 0.0,
			"-0.02": 0.0,
			"-0.019": 0.0,
			"-0.018": 0.0,
			"-0.017": 0.0,
			"-0.016": 0.0,
			"-0.015": 0.0,
			"-0.014": 0.0,
			"-0.013": 0.006303328369,
			"-0.012": 0.541582484049,
			"-0.011": 1.0659586438,
			"-0.01": 2.98634021479,
			"-0.009": 6.41400418862,
			"-0.008": 9.7334402673,
			"-0.007": 11.0645999977,
			"-0.006": 9.90522555688,
			"-0.005": 8.31652752969,
			"-0.004": 8.24601633865,
			"-0.003": 10.8695242326,
			"-0.002": 9.778415607,
			"-0.001": 17.5396062592,
			"0.0": 24.9419759128,
			"0.001": 28.3159110154,
			"0.002": 36.3235829254,
			"0.003": 26.8860242601,
			"0.004": 13.4803319166,
			"0.005": 4.37975226974,
			"0.006": 4.80043594065,
			"0.007": 6.52188122364,
			"0.008": 9.84204695583,
			"0.009": 5.55922076597,
			"0.01": 0.129934264188,
			"0.011": 0.0,
			"0.012": 0.0,
			"0.013": 0.0,
			"0.014": 0.0,
			"0.015": 0.0,
			"0.016": 0.0,
			"0.017": 0.0,
			"0.018": 0.0,
			"0.019": 0.0,
			"0.02": 0.0,
			"0.021": 0.0,
			"0.022": 0.0,
			"0.023": 0.0,
			"0.024": 0.0,
			"0.025": 0.0
		}
	}
}
