{
	 "smiles": "CC1(C)OC(=O)C(=NNC2=CC=C(O)C=C2)C(=O)O1", 
	 "Tm": 511.15, 
	 "num_atms": 31, 
	 "gaussian": { 
		 "optdone": 1, 
		 "sigma_profile": "yes", 
		 "theory": "DFT", 
		 "functional": "B3LYP", 
		 "basiset": "6-31G**", 
		 "properties": { 
			 "R2extent": 7553.057, 
			 "electric_dipole_moment_norm": 4.25614527478, 
			 "electric_quadrupole_moment_norm": 29.8485941776, 
			 "total_energy": -950.121854427, 
			 "HOMO_LUMO_gap": 0.13165, 
			 "cosmo_polarized_energy": -21.13, 
			 "cosmo_cavitation_energy": 36.13, 
			 "cosmo_dispersion_energy": -26.17, 
			 "cosmo_repulsion_energy": 2.01, 
			 "cosmo_total_nonelectrostatic_energy": 11.97, 
			 "SMD_solvation_energy": 7.92 
		},
		"coords": [
			{
				"x": -3.9178077846,
				"y": 3.8116709065,
				"z": -1.3029749458,
				"element": "C" 
			},
			{
				"x": -3.3296253639,
				"y": 2.4885495424,
				"z": -0.8459446762,
				"element": "C" 
			},
			{
				"x": -4.1488880592,
				"y": 1.2748545718,
				"z": -1.2833315785,
				"element": "C" 
			},
			{
				"x": -3.2536369527,
				"y": 2.5521066153,
				"z": 0.5763232337,
				"element": "O" 
			},
			{
				"x": -2.442940718,
				"y": 1.6725339804,
				"z": 1.2622566155,
				"element": "C" 
			},
			{
				"x": -2.635406437,
				"y": 1.4831716323,
				"z": 2.4367094785,
				"element": "O" 
			},
			{
				"x": -1.3418510978,
				"y": 1.1067483725,
				"z": 0.453905902,
				"element": "C" 
			},
			{
				"x": -0.5623530192,
				"y": 0.2357548894,
				"z": 1.0753334274,
				"element": "N" 
			},
			{
				"x": 0.4816205787,
				"y": -0.2589220764,
				"z": 0.4872000069,
				"element": "N" 
			},
			{
				"x": 1.3107481781,
				"y": -1.1973610798,
				"z": 1.1324207634,
				"element": "C" 
			},
			{
				"x": 1.0489768267,
				"y": -1.6394849942,
				"z": 2.4376169841,
				"element": "C" 
			},
			{
				"x": 1.8947424018,
				"y": -2.5639765279,
				"z": 3.0328148731,
				"element": "C" 
			},
			{
				"x": 3.0084410071,
				"y": -3.0583390295,
				"z": 2.3376507555,
				"element": "C" 
			},
			{
				"x": 3.796523575,
				"y": -3.9647787423,
				"z": 2.9830637572,
				"element": "O" 
			},
			{
				"x": 3.2666044276,
				"y": -2.6151537431,
				"z": 1.0363502688,
				"element": "C" 
			},
			{
				"x": 2.4193461808,
				"y": -1.6869964736,
				"z": 0.4355150243,
				"element": "C" 
			},
			{
				"x": -1.0967803585,
				"y": 1.5791854958,
				"z": -0.9099315492,
				"element": "C" 
			},
			{
				"x": -0.1061948927,
				"y": 1.2800470642,
				"z": -1.5702753312,
				"element": "O" 
			},
			{
				"x": -2.0142325639,
				"y": 2.4165251043,
				"z": -1.4468426109,
				"element": "O" 
			},
			{
				"x": -4.9171989521,
				"y": 3.9367183033,
				"z": -0.8805666292,
				"element": "H" 
			},
			{
				"x": -3.2819146858,
				"y": 4.6308205082,
				"z": -0.9611913246,
				"element": "H" 
			},
			{
				"x": -3.9803880873,
				"y": 3.8371391751,
				"z": -2.3931959307,
				"element": "H" 
			},
			{
				"x": -5.1538792805,
				"y": 1.3390623048,
				"z": -0.8595569586,
				"element": "H" 
			},
			{
				"x": -3.6877070337,
				"y": 0.3455773748,
				"z": -0.9374453219,
				"element": "H" 
			},
			{
				"x": -4.2199132851,
				"y": 1.2444346378,
				"z": -2.3732483506,
				"element": "H" 
			},
			{
				"x": 0.6991701554,
				"y": 0.073284626,
				"z": -0.4621537301,
				"element": "H" 
			},
			{
				"x": 0.187418993,
				"y": -1.2494065881,
				"z": 2.9666598819,
				"element": "H" 
			},
			{
				"x": 1.7104201902,
				"y": -2.9176377972,
				"z": 4.041533125,
				"element": "H" 
			},
			{
				"x": 4.5263825789,
				"y": -4.2251855474,
				"z": 2.4062561297,
				"element": "H" 
			},
			{
				"x": 4.1276756284,
				"y": -2.992594186,
				"z": 0.4899507343,
				"element": "H" 
			},
			{
				"x": 2.62234785,
				"y": -1.3446483193,
				"z": -0.5756020238,
				"element": "H" 
			}
		],
		 "valence_orbital": [ 
			{
				"type": "occ",
				"energy": -0.28329,
				"method": "rhf"
			},
			{
				"type": "occ",
				"energy": -0.27747,
				"method": "rhf"
			},
			{
				"type": "occ",
				"energy": -0.27058,
				"method": "rhf"
			},
			{
				"type": "occ",
				"energy": -0.26616,
				"method": "rhf"
			},
			{
				"type": "occ",
				"energy": -0.21422,
				"method": "rhf"
			},
			{
				"type": "unocc",
				"energy": -0.08257,
				"method": "rhf"
			},
			{
				"type": "unocc",
				"energy": -0.01976,
				"method": "rhf"
			},
			{
				"type": "unocc",
				"energy": -0.00366,
				"method": "rhf"
			},
			{
				"type": "unocc",
				"energy": 0.01639,
				"method": "rhf"
			},
			{
				"type": "unocc",
				"energy": 0.05856,
				"method": "rhf"
			}
		],
		"cosmo_sigma_profile": { 
			"-0.025": 0.0,
			"-0.024": 0.0,
			"-0.023": 0.0,
			"-0.022": 0.0,
			"-0.021": 0.0,
			"-0.02": 0.0,
			"-0.019": 0.0,
			"-0.018": 0.834659975718,
			"-0.017": 1.32267836049,
			"-0.016": 0.945229322535,
			"-0.015": 1.06061699436,
			"-0.014": 1.31406588141,
			"-0.013": 1.21824923584,
			"-0.012": 1.9764038683,
			"-0.011": 1.88913638502,
			"-0.01": 2.45263590575,
			"-0.009": 2.05178596662,
			"-0.008": 3.09939172287,
			"-0.007": 5.87904520281,
			"-0.006": 19.0408718874,
			"-0.005": 24.1789570461,
			"-0.004": 20.1806214364,
			"-0.003": 21.0268118902,
			"-0.002": 23.1498699413,
			"-0.001": 19.5696772164,
			"0.0": 15.4892539511,
			"0.001": 13.4006034978,
			"0.002": 16.6284621694,
			"0.003": 18.0268410343,
			"0.004": 13.6726361816,
			"0.005": 5.49607216381,
			"0.006": 5.46960424848,
			"0.007": 5.857588876,
			"0.008": 7.28992777135,
			"0.009": 7.37019480495,
			"0.01": 8.09879623102,
			"0.011": 9.2289400905,
			"0.012": 7.48843103263,
			"0.013": 3.13620494694,
			"0.014": 0.134483609556,
			"0.015": 0.0,
			"0.016": 0.0,
			"0.017": 0.0,
			"0.018": 0.0,
			"0.019": 0.0,
			"0.02": 0.0,
			"0.021": 0.0,
			"0.022": 0.0,
			"0.023": 0.0,
			"0.024": 0.0,
			"0.025": 0.0
		}
	}
}
