{
	 "smiles": "OCC1=CC=C(S1)C1=CC=CC=N1", 
	 "Tm": 360.15, 
	 "num_atms": 22, 
	 "gaussian": { 
		 "optdone": 1, 
		 "sigma_profile": "yes", 
		 "theory": "DFT", 
		 "functional": "B3LYP", 
		 "basiset": "6-31G**", 
		 "properties": { 
			 "R2extent": 3781.0367, 
			 "electric_dipole_moment_norm": 2.18005910241, 
			 "electric_quadrupole_moment_norm": 4.00369348227, 
			 "total_energy": -914.627189006, 
			 "HOMO_LUMO_gap": 0.16312, 
			 "cosmo_polarized_energy": -10.54, 
			 "cosmo_cavitation_energy": 27.79, 
			 "cosmo_dispersion_energy": -21.12, 
			 "cosmo_repulsion_energy": 1.62, 
			 "cosmo_total_nonelectrostatic_energy": 8.29, 
			 "SMD_solvation_energy": 3.35 
		},
		"coords": [
			{
				"x": -0.6946730432,
				"y": 1.1460873901,
				"z": -5.1564392903,
				"element": "O" 
			},
			{
				"x": -1.2597659629,
				"y": 0.5367826984,
				"z": -4.007735369,
				"element": "C" 
			},
			{
				"x": -0.3033554052,
				"y": 0.5193477011,
				"z": -2.8423938346,
				"element": "C" 
			},
			{
				"x": 1.0677610663,
				"y": 0.5304963332,
				"z": -2.8880812416,
				"element": "C" 
			},
			{
				"x": 1.6757353123,
				"y": 0.4908114718,
				"z": -1.6033044499,
				"element": "C" 
			},
			{
				"x": 0.7713195208,
				"y": 0.4472538828,
				"z": -0.568101912,
				"element": "C" 
			},
			{
				"x": -0.8683346173,
				"y": 0.4660718448,
				"z": -1.1931683037,
				"element": "S" 
			},
			{
				"x": 1.0736707877,
				"y": 0.3948025245,
				"z": 0.8668003215,
				"element": "C" 
			},
			{
				"x": 0.0707586729,
				"y": 0.3283535799,
				"z": 1.8506147626,
				"element": "C" 
			},
			{
				"x": 0.439751351,
				"y": 0.282613436,
				"z": 3.1910202077,
				"element": "C" 
			},
			{
				"x": 1.7941616628,
				"y": 0.3027715583,
				"z": 3.5222963211,
				"element": "C" 
			},
			{
				"x": 2.718920198,
				"y": 0.3683900385,
				"z": 2.477731545,
				"element": "C" 
			},
			{
				"x": 2.3842422937,
				"y": 0.4139646753,
				"z": 1.1875581194,
				"element": "N" 
			},
			{
				"x": -0.4341563677,
				"y": 2.0435029418,
				"z": -4.9079260133,
				"element": "H" 
			},
			{
				"x": -1.5070794492,
				"y": -0.4868349175,
				"z": -4.3141642003,
				"element": "H" 
			},
			{
				"x": -2.2072877718,
				"y": 1.0156918719,
				"z": -3.712508303,
				"element": "H" 
			},
			{
				"x": 1.6139873831,
				"y": 0.562933599,
				"z": -3.8235152374,
				"element": "H" 
			},
			{
				"x": 2.7428076452,
				"y": 0.492416908,
				"z": -1.420500859,
				"element": "H" 
			},
			{
				"x": -0.9777531853,
				"y": 0.3110771211,
				"z": 1.5699059853,
				"element": "H" 
			},
			{
				"x": -0.3207257881,
				"y": 0.2311565335,
				"z": 3.9649846827,
				"element": "H" 
			},
			{
				"x": 2.1277871588,
				"y": 0.2684500209,
				"z": 4.5541837309,
				"element": "H" 
			},
			{
				"x": 3.7867285384,
				"y": 0.3854587866,
				"z": 2.6915433379,
				"element": "H" 
			}
		],
		 "valence_orbital": [ 
			{
				"type": "occ",
				"energy": -0.28535,
				"method": "rhf"
			},
			{
				"type": "occ",
				"energy": -0.27548,
				"method": "rhf"
			},
			{
				"type": "occ",
				"energy": -0.25674,
				"method": "rhf"
			},
			{
				"type": "occ",
				"energy": -0.25277,
				"method": "rhf"
			},
			{
				"type": "occ",
				"energy": -0.21288,
				"method": "rhf"
			},
			{
				"type": "unocc",
				"energy": -0.04976,
				"method": "rhf"
			},
			{
				"type": "unocc",
				"energy": -0.02117,
				"method": "rhf"
			},
			{
				"type": "unocc",
				"energy": 0.02025,
				"method": "rhf"
			},
			{
				"type": "unocc",
				"energy": 0.02412,
				"method": "rhf"
			},
			{
				"type": "unocc",
				"energy": 0.07144,
				"method": "rhf"
			}
		],
		"cosmo_sigma_profile": { 
			"-0.025": 0.0,
			"-0.024": 0.0,
			"-0.023": 0.0,
			"-0.022": 0.0,
			"-0.021": 0.0,
			"-0.02": 0.0,
			"-0.019": 0.0,
			"-0.018": 0.0,
			"-0.017": 0.0,
			"-0.016": 0.399920994782,
			"-0.015": 0.728218047195,
			"-0.014": 0.592157789368,
			"-0.013": 1.42490418597,
			"-0.012": 0.569438786692,
			"-0.011": 1.11955136138,
			"-0.01": 0.63159451999,
			"-0.009": 0.41859448341,
			"-0.008": 0.881523811002,
			"-0.007": 6.00481448799,
			"-0.006": 15.6572087991,
			"-0.005": 19.4460514255,
			"-0.004": 16.3013514806,
			"-0.003": 14.9503256631,
			"-0.002": 10.9844571663,
			"-0.001": 12.9388915839,
			"0.0": 12.9247578154,
			"0.001": 13.4280646671,
			"0.002": 22.9513288545,
			"0.003": 23.732537051,
			"0.004": 16.2151039252,
			"0.005": 10.2431548982,
			"0.006": 3.12332781223,
			"0.007": 2.28171288694,
			"0.008": 3.47971037076,
			"0.009": 2.12719610409,
			"0.01": 2.31469423051,
			"0.011": 2.96881878218,
			"0.012": 1.90340303954,
			"0.013": 2.60773506082,
			"0.014": 1.12060189302,
			"0.015": 0.0,
			"0.016": 0.0,
			"0.017": 0.0,
			"0.018": 0.0,
			"0.019": 0.0,
			"0.02": 0.0,
			"0.021": 0.0,
			"0.022": 0.0,
			"0.023": 0.0,
			"0.024": 0.0,
			"0.025": 0.0
		}
	}
}
