{
	 "smiles": "[O-][N+](=O)C1=C(F)C=C2N=CNC(=O)C2=C1", 
	 "Tm": 566.15, 
	 "num_atms": 19, 
	 "gaussian": { 
		 "optdone": 1, 
		 "sigma_profile": "yes", 
		 "theory": "DFT", 
		 "functional": "B3LYP", 
		 "basiset": "6-31G**", 
		 "properties": { 
			 "R2extent": 3519.1812, 
			 "electric_dipole_moment_norm": 6.66190747834, 
			 "electric_quadrupole_moment_norm": 6.56218104673, 
			 "total_energy": -796.933793449, 
			 "HOMO_LUMO_gap": 0.16448, 
			 "cosmo_polarized_energy": -18.0, 
			 "cosmo_cavitation_energy": 25.64, 
			 "cosmo_dispersion_energy": -19.04, 
			 "cosmo_repulsion_energy": 1.44, 
			 "cosmo_total_nonelectrostatic_energy": 8.04, 
			 "SMD_solvation_energy": 6.53 
		},
		"coords": [
			{
				"x": -0.0553082061,
				"y": 0.5659074646,
				"z": 3.6925938084,
				"element": "O" 
			},
			{
				"x": 0.2956061056,
				"y": 1.5540790902,
				"z": 3.0479797298,
				"element": "N" 
			},
			{
				"x": 0.3786283199,
				"y": 2.6950645629,
				"z": 3.4934985795,
				"element": "O" 
			},
			{
				"x": 0.6239842657,
				"y": 1.3421005627,
				"z": 1.6323055188,
				"element": "C" 
			},
			{
				"x": 1.2881167823,
				"y": 2.3199537471,
				"z": 0.8560219969,
				"element": "C" 
			},
			{
				"x": 1.6839920155,
				"y": 3.4751961602,
				"z": 1.3848490231,
				"element": "F" 
			},
			{
				"x": 1.5688851383,
				"y": 2.089305362,
				"z": -0.478273889,
				"element": "C" 
			},
			{
				"x": 1.1899968238,
				"y": 0.8793598355,
				"z": -1.0837030823,
				"element": "C" 
			},
			{
				"x": 1.4860474346,
				"y": 0.6915233271,
				"z": -2.4258000449,
				"element": "N" 
			},
			{
				"x": 1.1227298124,
				"y": -0.4356357734,
				"z": -2.9438816914,
				"element": "C" 
			},
			{
				"x": 0.4779289534,
				"y": -1.4393567492,
				"z": -2.2735410631,
				"element": "N" 
			},
			{
				"x": 0.1222991438,
				"y": -1.3734244991,
				"z": -0.91363553,
				"element": "C" 
			},
			{
				"x": -0.4526648637,
				"y": -2.2996715357,
				"z": -0.368185102,
				"element": "O" 
			},
			{
				"x": 0.5257115725,
				"y": -0.1007725212,
				"z": -0.2998788975,
				"element": "C" 
			},
			{
				"x": 0.2549660113,
				"y": 0.1390818861,
				"z": 1.0483022677,
				"element": "C" 
			},
			{
				"x": 2.0857149181,
				"y": 2.8444867637,
				"z": -1.0580853668,
				"element": "H" 
			},
			{
				"x": 1.3310980897,
				"y": -0.6330666428,
				"z": -3.9934895105,
				"element": "H" 
			},
			{
				"x": 0.224728833,
				"y": -2.296475633,
				"z": -2.7511865897,
				"element": "H" 
			},
			{
				"x": -0.2457611502,
				"y": -0.6143554077,
				"z": 1.6441098431,
				"element": "H" 
			}
		],
		 "valence_orbital": [ 
			{
				"type": "occ",
				"energy": -0.3069,
				"method": "rhf"
			},
			{
				"type": "occ",
				"energy": -0.29622,
				"method": "rhf"
			},
			{
				"type": "occ",
				"energy": -0.28965,
				"method": "rhf"
			},
			{
				"type": "occ",
				"energy": -0.28631,
				"method": "rhf"
			},
			{
				"type": "occ",
				"energy": -0.26606,
				"method": "rhf"
			},
			{
				"type": "unocc",
				"energy": -0.10158,
				"method": "rhf"
			},
			{
				"type": "unocc",
				"energy": -0.06791,
				"method": "rhf"
			},
			{
				"type": "unocc",
				"energy": -0.04453,
				"method": "rhf"
			},
			{
				"type": "unocc",
				"energy": 8e-05,
				"method": "rhf"
			},
			{
				"type": "unocc",
				"energy": 0.04929,
				"method": "rhf"
			}
		],
		"cosmo_sigma_profile": { 
			"-0.025": 0.0,
			"-0.024": 0.0,
			"-0.023": 0.0,
			"-0.022": 0.0,
			"-0.021": 0.0,
			"-0.02": 0.0,
			"-0.019": 0.0,
			"-0.018": 0.418586647408,
			"-0.017": 1.60909787464,
			"-0.016": 1.68484020174,
			"-0.015": 1.24007457583,
			"-0.014": 1.4316730878,
			"-0.013": 0.859931492599,
			"-0.012": 1.61777853372,
			"-0.011": 2.77965876168,
			"-0.01": 3.1581293855,
			"-0.009": 2.85469039603,
			"-0.008": 4.51772827052,
			"-0.007": 4.87399694601,
			"-0.006": 8.06421729741,
			"-0.005": 10.61448775,
			"-0.004": 13.1022290331,
			"-0.003": 17.5046011286,
			"-0.002": 20.2207866858,
			"-0.001": 13.1158862344,
			"0.0": 8.92540213446,
			"0.001": 8.26318442735,
			"0.002": 9.14335665613,
			"0.003": 8.93700621035,
			"0.004": 4.93707988358,
			"0.005": 6.7956246047,
			"0.006": 6.94298708534,
			"0.007": 12.2396396353,
			"0.008": 9.57562343858,
			"0.009": 6.48007970735,
			"0.01": 4.25573683199,
			"0.011": 3.98434590701,
			"0.012": 5.7224999541,
			"0.013": 1.08686864181,
			"0.014": 0.64386629685,
			"0.015": 0.04916423537,
			"0.016": 0.0,
			"0.017": 0.0,
			"0.018": 0.0,
			"0.019": 0.0,
			"0.02": 0.0,
			"0.021": 0.0,
			"0.022": 0.0,
			"0.023": 0.0,
			"0.024": 0.0,
			"0.025": 0.0
		}
	}
}
