{
	 "smiles": "C1CCC2(C1)NC1=CC=CC=C1O2", 
	 "Tm": 494.15, 
	 "num_atms": 26, 
	 "gaussian": { 
		 "optdone": 1, 
		 "sigma_profile": "yes", 
		 "theory": "DFT", 
		 "functional": "B3LYP", 
		 "basiset": "6-31G**", 
		 "properties": { 
			 "R2extent": 2830.0743, 
			 "electric_dipole_moment_norm": 1.76672020422, 
			 "electric_quadrupole_moment_norm": 4.01954557879, 
			 "total_energy": -556.977860078, 
			 "HOMO_LUMO_gap": 0.19948, 
			 "cosmo_polarized_energy": -7.36, 
			 "cosmo_cavitation_energy": 27.53, 
			 "cosmo_dispersion_energy": -20.67, 
			 "cosmo_repulsion_energy": 1.63, 
			 "cosmo_total_nonelectrostatic_energy": 8.5, 
			 "SMD_solvation_energy": 2.83 
		},
		"coords": [
			{
				"x": -2.0922042073,
				"y": 0.1128373815,
				"z": 1.4058448617,
				"element": "C" 
			},
			{
				"x": -1.4959489788,
				"y": -0.7407270996,
				"z": 2.5526041213,
				"element": "C" 
			},
			{
				"x": -0.0067772527,
				"y": -0.9682178709,
				"z": 2.1697556321,
				"element": "C" 
			},
			{
				"x": 0.1749046469,
				"y": -0.3620260354,
				"z": 0.7628881341,
				"element": "C" 
			},
			{
				"x": -1.2477153504,
				"y": -0.2802518675,
				"z": 0.1872889557,
				"element": "C" 
			},
			{
				"x": 1.1394783956,
				"y": -1.0497958088,
				"z": -0.1079094774,
				"element": "N" 
			},
			{
				"x": 1.978705718,
				"y": -0.0372142254,
				"z": -0.641619235,
				"element": "C" 
			},
			{
				"x": 2.982271579,
				"y": -0.1078267637,
				"z": -1.5955579737,
				"element": "C" 
			},
			{
				"x": 3.661079649,
				"y": 1.0775338969,
				"z": -1.926751708,
				"element": "C" 
			},
			{
				"x": 3.3278998287,
				"y": 2.2874717722,
				"z": -1.3173329646,
				"element": "C" 
			},
			{
				"x": 2.3113163378,
				"y": 2.3582554204,
				"z": -0.3495006322,
				"element": "C" 
			},
			{
				"x": 1.6557438715,
				"y": 1.1805813429,
				"z": -0.0317076024,
				"element": "C" 
			},
			{
				"x": 0.6686587299,
				"y": 1.0180725268,
				"z": 0.900533549,
				"element": "O" 
			},
			{
				"x": -3.1634004067,
				"y": -0.057986831,
				"z": 1.2647432375,
				"element": "H" 
			},
			{
				"x": -1.950193571,
				"y": 1.178121855,
				"z": 1.6160144745,
				"element": "H" 
			},
			{
				"x": -1.6038519143,
				"y": -0.2577239677,
				"z": 3.5275642104,
				"element": "H" 
			},
			{
				"x": -2.0172265143,
				"y": -1.7021201421,
				"z": 2.6141032247,
				"element": "H" 
			},
			{
				"x": 0.2345443014,
				"y": -2.0366836635,
				"z": 2.1434442183,
				"element": "H" 
			},
			{
				"x": 0.6924030665,
				"y": -0.4879183294,
				"z": 2.8587468482,
				"element": "H" 
			},
			{
				"x": -1.5238481397,
				"y": -1.2774316607,
				"z": -0.1766655751,
				"element": "H" 
			},
			{
				"x": -1.3041800772,
				"y": 0.4167009513,
				"z": -0.6531403874,
				"element": "H" 
			},
			{
				"x": 1.6547353056,
				"y": -1.7804206741,
				"z": 0.3743610638,
				"element": "H" 
			},
			{
				"x": 3.2345395996,
				"y": -1.0507113566,
				"z": -2.0712739002,
				"element": "H" 
			},
			{
				"x": 4.4497118253,
				"y": 1.0486561185,
				"z": -2.6724475433,
				"element": "H" 
			},
			{
				"x": 3.8586798944,
				"y": 3.1935937975,
				"z": -1.5939078638,
				"element": "H" 
			},
			{
				"x": 2.0518736629,
				"y": 3.2905312331,
				"z": 0.140422332,
				"element": "H" 
			}
		],
		 "valence_orbital": [ 
			{
				"type": "occ",
				"energy": -0.32515,
				"method": "rhf"
			},
			{
				"type": "occ",
				"energy": -0.31208,
				"method": "rhf"
			},
			{
				"type": "occ",
				"energy": -0.28446,
				"method": "rhf"
			},
			{
				"type": "occ",
				"energy": -0.22997,
				"method": "rhf"
			},
			{
				"type": "occ",
				"energy": -0.19091,
				"method": "rhf"
			},
			{
				"type": "unocc",
				"energy": 0.00857,
				"method": "rhf"
			},
			{
				"type": "unocc",
				"energy": 0.02281,
				"method": "rhf"
			},
			{
				"type": "unocc",
				"energy": 0.07381,
				"method": "rhf"
			},
			{
				"type": "unocc",
				"energy": 0.09302,
				"method": "rhf"
			},
			{
				"type": "unocc",
				"energy": 0.09899,
				"method": "rhf"
			}
		],
		"cosmo_sigma_profile": { 
			"-0.025": 0.0,
			"-0.024": 0.0,
			"-0.023": 0.0,
			"-0.022": 0.0,
			"-0.021": 0.0,
			"-0.02": 0.0,
			"-0.019": 0.0,
			"-0.018": 0.0,
			"-0.017": 0.0,
			"-0.016": 0.0,
			"-0.015": 0.0,
			"-0.014": 0.0,
			"-0.013": 0.237331860747,
			"-0.012": 1.21733343033,
			"-0.011": 1.37019014464,
			"-0.01": 1.09672449237,
			"-0.009": 1.49291900099,
			"-0.008": 1.43975300112,
			"-0.007": 1.58034332711,
			"-0.006": 4.85185304616,
			"-0.005": 9.31218429909,
			"-0.004": 13.4091580527,
			"-0.003": 24.447039165,
			"-0.002": 24.5293895527,
			"-0.001": 25.9389759071,
			"0.0": 20.0231208292,
			"0.001": 19.5392881305,
			"0.002": 9.10610963568,
			"0.003": 8.89694075226,
			"0.004": 11.3473869242,
			"0.005": 11.3735586535,
			"0.006": 10.7867128649,
			"0.007": 6.58403380328,
			"0.008": 1.85939186036,
			"0.009": 2.14715153285,
			"0.01": 1.18509413713,
			"0.011": 1.06302549223,
			"0.012": 1.17072861606,
			"0.013": 0.314949660183,
			"0.014": 0.281089595664,
			"0.015": 0.0,
			"0.016": 0.0,
			"0.017": 0.0,
			"0.018": 0.0,
			"0.019": 0.0,
			"0.02": 0.0,
			"0.021": 0.0,
			"0.022": 0.0,
			"0.023": 0.0,
			"0.024": 0.0,
			"0.025": 0.0
		}
	}
}
