{
	 "smiles": "CC1=CC(=O)N2CCNC2=N1", 
	 "Tm": 433.15, 
	 "num_atms": 20, 
	 "gaussian": { 
		 "optdone": 1, 
		 "sigma_profile": "yes", 
		 "theory": "DFT", 
		 "functional": "B3LYP", 
		 "basiset": "6-31G**", 
		 "properties": { 
			 "R2extent": 1876.9757, 
			 "electric_dipole_moment_norm": 4.3285680057, 
			 "electric_quadrupole_moment_norm": 16.6621387898, 
			 "total_energy": -511.671777, 
			 "HOMO_LUMO_gap": 0.19776, 
			 "cosmo_polarized_energy": -15.19, 
			 "cosmo_cavitation_energy": 23.25, 
			 "cosmo_dispersion_energy": -17.74, 
			 "cosmo_repulsion_energy": 1.43, 
			 "cosmo_total_nonelectrostatic_energy": 6.94, 
			 "SMD_solvation_energy": 1.75 
		},
		"coords": [
			{
				"x": -0.782997604,
				"y": 1.4962388731,
				"z": 1.9507876988,
				"element": "C" 
			},
			{
				"x": -0.2900041965,
				"y": 0.548051531,
				"z": 0.8925030612,
				"element": "C" 
			},
			{
				"x": -1.1542969279,
				"y": -0.1505680739,
				"z": 0.0867415636,
				"element": "C" 
			},
			{
				"x": -0.6729709035,
				"y": -1.0624735373,
				"z": -0.9291848577,
				"element": "C" 
			},
			{
				"x": -1.3197693939,
				"y": -1.7593728294,
				"z": -1.7040156652,
				"element": "O" 
			},
			{
				"x": 0.7398271669,
				"y": -1.0842790515,
				"z": -0.9702306903,
				"element": "N" 
			},
			{
				"x": 1.5447805504,
				"y": -1.939014938,
				"z": -1.8412514498,
				"element": "C" 
			},
			{
				"x": 2.9567640024,
				"y": -1.3353068247,
				"z": -1.6530072717,
				"element": "C" 
			},
			{
				"x": 2.8376417601,
				"y": -0.6726059666,
				"z": -0.3490290148,
				"element": "N" 
			},
			{
				"x": 1.5192444217,
				"y": -0.3701117515,
				"z": -0.1046884402,
				"element": "C" 
			},
			{
				"x": 1.0845210752,
				"y": 0.4492666993,
				"z": 0.8118317727,
				"element": "N" 
			},
			{
				"x": -0.4135853908,
				"y": 1.1847581349,
				"z": 2.933838934,
				"element": "H" 
			},
			{
				"x": -1.8735813241,
				"y": 1.5440407896,
				"z": 1.979056925,
				"element": "H" 
			},
			{
				"x": -0.3865270521,
				"y": 2.5009227305,
				"z": 1.7680295039,
				"element": "H" 
			},
			{
				"x": -2.2279582431,
				"y": -0.0487056354,
				"z": 0.184127838,
				"element": "H" 
			},
			{
				"x": 1.4900332463,
				"y": -2.9787182846,
				"z": -1.5000555037,
				"element": "H" 
			},
			{
				"x": 1.1794404459,
				"y": -1.8948199317,
				"z": -2.8680897932,
				"element": "H" 
			},
			{
				"x": 3.7348382662,
				"y": -2.102298415,
				"z": -1.640701732,
				"element": "H" 
			},
			{
				"x": 3.1869832794,
				"y": -0.6177024353,
				"z": -2.4531536719,
				"element": "H" 
			},
			{
				"x": 3.5260168216,
				"y": -0.0008010835,
				"z": -0.0410092068,
				"element": "H" 
			}
		],
		 "valence_orbital": [ 
			{
				"type": "occ",
				"energy": -0.29889,
				"method": "rhf"
			},
			{
				"type": "occ",
				"energy": -0.27433,
				"method": "rhf"
			},
			{
				"type": "occ",
				"energy": -0.26159,
				"method": "rhf"
			},
			{
				"type": "occ",
				"energy": -0.24525,
				"method": "rhf"
			},
			{
				"type": "occ",
				"energy": -0.21507,
				"method": "rhf"
			},
			{
				"type": "unocc",
				"energy": -0.01731,
				"method": "rhf"
			},
			{
				"type": "unocc",
				"energy": 0.02203,
				"method": "rhf"
			},
			{
				"type": "unocc",
				"energy": 0.07066,
				"method": "rhf"
			},
			{
				"type": "unocc",
				"energy": 0.09943,
				"method": "rhf"
			},
			{
				"type": "unocc",
				"energy": 0.10761,
				"method": "rhf"
			}
		],
		"cosmo_sigma_profile": { 
			"-0.025": 0.0,
			"-0.024": 0.0,
			"-0.023": 0.0,
			"-0.022": 0.0,
			"-0.021": 0.0,
			"-0.02": 0.0,
			"-0.019": 0.0,
			"-0.018": 0.0,
			"-0.017": 0.0,
			"-0.016": 0.0,
			"-0.015": 0.475557491999,
			"-0.014": 1.40279603721,
			"-0.013": 0.912944373042,
			"-0.012": 1.12855252413,
			"-0.011": 1.14396499773,
			"-0.01": 0.681943745485,
			"-0.009": 1.27533591317,
			"-0.008": 1.1491007262,
			"-0.007": 3.63052748667,
			"-0.006": 15.7874693548,
			"-0.005": 21.6730960023,
			"-0.004": 15.3648784944,
			"-0.003": 13.8707909224,
			"-0.002": 12.5153301005,
			"-0.001": 12.5430886814,
			"0.0": 11.8865501795,
			"0.001": 8.8746515437,
			"0.002": 7.51215546047,
			"0.003": 8.3375521593,
			"0.004": 6.70108171028,
			"0.005": 3.93268386535,
			"0.006": 2.85069199299,
			"0.007": 3.5437634211,
			"0.008": 2.60075566672,
			"0.009": 3.32538495006,
			"0.01": 1.78078029789,
			"0.011": 2.66490226111,
			"0.012": 2.83102717529,
			"0.013": 3.46472002767,
			"0.014": 6.67735058334,
			"0.015": 2.74558065412,
			"0.016": 0.685421588991,
			"0.017": 0.0313440687058,
			"0.018": 0.0,
			"0.019": 0.0,
			"0.02": 0.0,
			"0.021": 0.0,
			"0.022": 0.0,
			"0.023": 0.0,
			"0.024": 0.0,
			"0.025": 0.0
		}
	}
}
