{
	 "smiles": "ClC1=CC2=NSN=C2C=C1CBr", 
	 "Tm": 349.15, 
	 "num_atms": 16, 
	 "gaussian": { 
		 "optdone": 1, 
		 "sigma_profile": "yes", 
		 "theory": "DFT", 
		 "functional": "B3LYP", 
		 "basiset": "6-31G**", 
		 "properties": { 
			 "R2extent": 4430.1024, 
			 "electric_dipole_moment_norm": 1.77775595625, 
			 "electric_quadrupole_moment_norm": 3.96614153051, 
			 "total_energy": -3808.41891904, 
			 "HOMO_LUMO_gap": 0.15107, 
			 "cosmo_polarized_energy": -8.0, 
			 "cosmo_cavitation_energy": 26.28, 
			 "cosmo_dispersion_energy": -20.55, 
			 "cosmo_repulsion_energy": 1.56, 
			 "cosmo_total_nonelectrostatic_energy": 7.29, 
			 "SMD_solvation_energy": -0.43 
		},
		"coords": [
			{
				"x": -2.1344373883,
				"y": -0.8836515902,
				"z": -1.0087776431,
				"element": "Cl" 
			},
			{
				"x": -1.06646453,
				"y": -0.7811834935,
				"z": 0.3794107167,
				"element": "C" 
			},
			{
				"x": -1.171546662,
				"y": -1.747137105,
				"z": 1.3440796661,
				"element": "C" 
			},
			{
				"x": -0.3135320716,
				"y": -1.6570655408,
				"z": 2.4755530349,
				"element": "C" 
			},
			{
				"x": -0.2764721312,
				"y": -2.5047975243,
				"z": 3.5110094338,
				"element": "N" 
			},
			{
				"x": 0.8814598277,
				"y": -1.9300891168,
				"z": 4.5271075925,
				"element": "S" 
			},
			{
				"x": 1.3694311085,
				"y": -0.5985706534,
				"z": 3.6983533949,
				"element": "N" 
			},
			{
				"x": 0.6296545513,
				"y": -0.5648699277,
				"z": 2.5823542599,
				"element": "C" 
			},
			{
				"x": 0.7004291875,
				"y": 0.4131264167,
				"z": 1.5537937936,
				"element": "C" 
			},
			{
				"x": -0.12905392,
				"y": 0.3187701627,
				"z": 0.459339089,
				"element": "C" 
			},
			{
				"x": -0.0486454573,
				"y": 1.3581657332,
				"z": -0.6115425307,
				"element": "C" 
			},
			{
				"x": 1.0898202584,
				"y": 0.7650907,
				"z": -2.1436459496,
				"element": "Br" 
			},
			{
				"x": -1.8844423474,
				"y": -2.5580774626,
				"z": 1.2618665832,
				"element": "H" 
			},
			{
				"x": 1.4165555726,
				"y": 1.2234020971,
				"z": 1.6401713329,
				"element": "H" 
			},
			{
				"x": 0.4271214796,
				"y": 2.2665901073,
				"z": -0.249577167,
				"element": "H" 
			},
			{
				"x": -1.0124774778,
				"y": 1.5862971972,
				"z": -1.059595607,
				"element": "H" 
			}
		],
		 "valence_orbital": [ 
			{
				"type": "occ",
				"energy": -0.31383,
				"method": "rhf"
			},
			{
				"type": "occ",
				"energy": -0.28442,
				"method": "rhf"
			},
			{
				"type": "occ",
				"energy": -0.27812,
				"method": "rhf"
			},
			{
				"type": "occ",
				"energy": -0.26871,
				"method": "rhf"
			},
			{
				"type": "occ",
				"energy": -0.25474,
				"method": "rhf"
			},
			{
				"type": "unocc",
				"energy": -0.10367,
				"method": "rhf"
			},
			{
				"type": "unocc",
				"energy": -0.04084,
				"method": "rhf"
			},
			{
				"type": "unocc",
				"energy": -0.01125,
				"method": "rhf"
			},
			{
				"type": "unocc",
				"energy": -0.00268,
				"method": "rhf"
			},
			{
				"type": "unocc",
				"energy": 0.01629,
				"method": "rhf"
			}
		],
		"cosmo_sigma_profile": { 
			"-0.025": 0.0,
			"-0.024": 0.0,
			"-0.023": 0.0,
			"-0.022": 0.0,
			"-0.021": 0.0,
			"-0.02": 0.0,
			"-0.019": 0.0,
			"-0.018": 0.0,
			"-0.017": 0.0,
			"-0.016": 0.0,
			"-0.015": 0.0,
			"-0.014": 0.0,
			"-0.013": 0.0,
			"-0.012": 0.0,
			"-0.011": 0.0,
			"-0.01": 0.728617090913,
			"-0.009": 4.29785557732,
			"-0.008": 5.64478899847,
			"-0.007": 6.37997099521,
			"-0.006": 6.86470516807,
			"-0.005": 10.3345436282,
			"-0.004": 11.7916516962,
			"-0.003": 16.0992179557,
			"-0.002": 22.8387580062,
			"-0.001": 20.9433799926,
			"0.0": 22.5787021668,
			"0.001": 14.8520922171,
			"0.002": 14.1751105126,
			"0.003": 13.1061582414,
			"0.004": 12.4704266816,
			"0.005": 12.2283352232,
			"0.006": 12.1509880683,
			"0.007": 2.07348468429,
			"0.008": 1.72066528525,
			"0.009": 2.55825376595,
			"0.01": 1.81114443719,
			"0.011": 1.84221651117,
			"0.012": 1.9856860556,
			"0.013": 0.624904840616,
			"0.014": 0.0,
			"0.015": 0.0,
			"0.016": 0.0,
			"0.017": 0.0,
			"0.018": 0.0,
			"0.019": 0.0,
			"0.02": 0.0,
			"0.021": 0.0,
			"0.022": 0.0,
			"0.023": 0.0,
			"0.024": 0.0,
			"0.025": 0.0
		}
	}
}
