{
	 "smiles": "NNC(=O)NCC1=CC(=CC=C1)C(F)(F)F", 
	 "Tm": 360.15, 
	 "num_atms": 26, 
	 "gaussian": { 
		 "optdone": 1, 
		 "sigma_profile": "yes", 
		 "theory": "DFT", 
		 "functional": "B3LYP", 
		 "basiset": "6-31G**", 
		 "properties": { 
			 "R2extent": 5608.821, 
			 "electric_dipole_moment_norm": 3.48860976608, 
			 "electric_quadrupole_moment_norm": 9.30886201531, 
			 "total_energy": -887.983587202, 
			 "HOMO_LUMO_gap": 0.21858, 
			 "cosmo_polarized_energy": -15.65, 
			 "cosmo_cavitation_energy": 32.36, 
			 "cosmo_dispersion_energy": -22.64, 
			 "cosmo_repulsion_energy": 1.75, 
			 "cosmo_total_nonelectrostatic_energy": 11.47, 
			 "SMD_solvation_energy": 7.66 
		},
		"coords": [
			{
				"x": 2.6979846035,
				"y": 2.0632031094,
				"z": -3.1662061761,
				"element": "N" 
			},
			{
				"x": 2.3233152349,
				"y": 1.2828099225,
				"z": -2.0450317348,
				"element": "N" 
			},
			{
				"x": 1.221422494,
				"y": 0.4404182113,
				"z": -2.1759707365,
				"element": "C" 
			},
			{
				"x": 0.6863122977,
				"y": 0.2201135286,
				"z": -3.2561288379,
				"element": "O" 
			},
			{
				"x": 0.795075699,
				"y": -0.1034746797,
				"z": -0.9787239659,
				"element": "N" 
			},
			{
				"x": -0.2330097815,
				"y": -1.1329807642,
				"z": -0.9672568171,
				"element": "C" 
			},
			{
				"x": -1.1754503901,
				"y": -1.0130779179,
				"z": 0.215712896,
				"element": "C" 
			},
			{
				"x": -1.6060464197,
				"y": 0.2373734455,
				"z": 0.6709964467,
				"element": "C" 
			},
			{
				"x": -2.4989972723,
				"y": 0.3312596334,
				"z": 1.7396828695,
				"element": "C" 
			},
			{
				"x": -2.9784334525,
				"y": -0.8215831082,
				"z": 2.3680018056,
				"element": "C" 
			},
			{
				"x": -2.5521911288,
				"y": -2.0697507425,
				"z": 1.9186404008,
				"element": "C" 
			},
			{
				"x": -1.6550616,
				"y": -2.1630569723,
				"z": 0.8535189491,
				"element": "C" 
			},
			{
				"x": -2.9902293631,
				"y": 1.6844716769,
				"z": 2.180100199,
				"element": "C" 
			},
			{
				"x": -4.087587089,
				"y": 2.0674738349,
				"z": 1.4870397878,
				"element": "F" 
			},
			{
				"x": -3.3296015013,
				"y": 1.696231598,
				"z": 3.4886878959,
				"element": "F" 
			},
			{
				"x": -2.0562161507,
				"y": 2.6446844551,
				"z": 1.994893415,
				"element": "F" 
			},
			{
				"x": 1.8641138556,
				"y": 2.1822733429,
				"z": -3.7439264534,
				"element": "H" 
			},
			{
				"x": 3.3350402314,
				"y": 1.4966570514,
				"z": -3.723276711,
				"element": "H" 
			},
			{
				"x": 2.3845841535,
				"y": 1.8095768403,
				"z": -1.1824777699,
				"element": "H" 
			},
			{
				"x": 1.4544690104,
				"y": -0.1091490431,
				"z": -0.2122823213,
				"element": "H" 
			},
			{
				"x": 0.208333294,
				"y": -2.1396648379,
				"z": -0.9810991051,
				"element": "H" 
			},
			{
				"x": -0.7771594275,
				"y": -1.0193925904,
				"z": -1.9102415772,
				"element": "H" 
			},
			{
				"x": -1.2297652555,
				"y": 1.1377620372,
				"z": 0.1978142292,
				"element": "H" 
			},
			{
				"x": -3.6638893069,
				"y": -0.7378893357,
				"z": 3.2041256713,
				"element": "H" 
			},
			{
				"x": -2.9103478515,
				"y": -2.9715197799,
				"z": 2.4059746195,
				"element": "H" 
			},
			{
				"x": -1.3197648838,
				"y": -3.1406689155,
				"z": 0.5157330206,
				"element": "H" 
			}
		],
		 "valence_orbital": [ 
			{
				"type": "occ",
				"energy": -0.2766,
				"method": "rhf"
			},
			{
				"type": "occ",
				"energy": -0.27327,
				"method": "rhf"
			},
			{
				"type": "occ",
				"energy": -0.27052,
				"method": "rhf"
			},
			{
				"type": "occ",
				"energy": -0.25601,
				"method": "rhf"
			},
			{
				"type": "occ",
				"energy": -0.24879,
				"method": "rhf"
			},
			{
				"type": "unocc",
				"energy": -0.03021,
				"method": "rhf"
			},
			{
				"type": "unocc",
				"energy": -0.02105,
				"method": "rhf"
			},
			{
				"type": "unocc",
				"energy": 0.04287,
				"method": "rhf"
			},
			{
				"type": "unocc",
				"energy": 0.06817,
				"method": "rhf"
			},
			{
				"type": "unocc",
				"energy": 0.08962,
				"method": "rhf"
			}
		],
		"cosmo_sigma_profile": { 
			"-0.025": 0.0,
			"-0.024": 0.0,
			"-0.023": 0.0,
			"-0.022": 0.0,
			"-0.021": 0.0,
			"-0.02": 0.0,
			"-0.019": 0.0,
			"-0.018": 0.0,
			"-0.017": 0.0,
			"-0.016": 0.0,
			"-0.015": 0.141468545403,
			"-0.014": 3.06848150536,
			"-0.013": 2.39344608867,
			"-0.012": 2.789682351,
			"-0.011": 2.83600013135,
			"-0.01": 2.55799841681,
			"-0.009": 3.57106432546,
			"-0.008": 4.83050204023,
			"-0.007": 5.77976075428,
			"-0.006": 10.0729787432,
			"-0.005": 15.5514774479,
			"-0.004": 15.0903024366,
			"-0.003": 14.7255820441,
			"-0.002": 13.0747398672,
			"-0.001": 13.4321925278,
			"0.0": 16.5724621916,
			"0.001": 19.9092662395,
			"0.002": 24.0082762028,
			"0.003": 42.1416866379,
			"0.004": 13.8144669933,
			"0.005": 4.30446523225,
			"0.006": 2.06307375356,
			"0.007": 2.01401208644,
			"0.008": 3.48144524262,
			"0.009": 2.32140050108,
			"0.01": 1.30351532391,
			"0.011": 1.66627722403,
			"0.012": 2.82579134985,
			"0.013": 4.18545295948,
			"0.014": 4.67775835128,
			"0.015": 0.56851427277,
			"0.016": 0.422353230338,
			"0.017": 0.545116071787,
			"0.018": 0.02961367996,
			"0.019": 0.0,
			"0.02": 0.0,
			"0.021": 0.0,
			"0.022": 0.0,
			"0.023": 0.0,
			"0.024": 0.0,
			"0.025": 0.0
		}
	}
}
