{
	 "smiles": "[O-][N+](=O)C1=CC=C(NC2=CC=CC=C2)C=C1", 
	 "Tm": 408.15, 
	 "num_atms": 26, 
	 "gaussian": { 
		 "optdone": 1, 
		 "sigma_profile": "yes", 
		 "theory": "DFT", 
		 "functional": "B3LYP", 
		 "basiset": "6-31G**", 
		 "properties": { 
			 "R2extent": 5367.5006, 
			 "electric_dipole_moment_norm": 6.93204665377, 
			 "electric_quadrupole_moment_norm": 27.0504366164, 
			 "total_energy": -723.160952641, 
			 "HOMO_LUMO_gap": 0.13884, 
			 "cosmo_polarized_energy": -14.48, 
			 "cosmo_cavitation_energy": 31.01, 
			 "cosmo_dispersion_energy": -22.8, 
			 "cosmo_repulsion_energy": 1.75, 
			 "cosmo_total_nonelectrostatic_energy": 9.96, 
			 "SMD_solvation_energy": 7.34 
		},
		"coords": [
			{
				"x": -2.2281946147,
				"y": -4.3622519977,
				"z": -2.9694185308,
				"element": "O" 
			},
			{
				"x": -1.2283141772,
				"y": -4.1216170119,
				"z": -2.2868753148,
				"element": "N" 
			},
			{
				"x": -0.3325068996,
				"y": -4.9376463445,
				"z": -2.0531360677,
				"element": "O" 
			},
			{
				"x": -1.0980254134,
				"y": -2.7869055915,
				"z": -1.7196418564,
				"element": "C" 
			},
			{
				"x": 0.007773744,
				"y": -2.4804152625,
				"z": -0.9247825322,
				"element": "C" 
			},
			{
				"x": 0.1386756177,
				"y": -1.2101797454,
				"z": -0.3838442784,
				"element": "C" 
			},
			{
				"x": -0.8377021265,
				"y": -0.2218850164,
				"z": -0.6381924336,
				"element": "C" 
			},
			{
				"x": -0.7776411499,
				"y": 1.0556975017,
				"z": -0.1108528483,
				"element": "N" 
			},
			{
				"x": 0.2960332399,
				"y": 1.7176576839,
				"z": 0.5169758425,
				"element": "C" 
			},
			{
				"x": 0.0088796084,
				"y": 2.6297030168,
				"z": 1.5451221855,
				"element": "C" 
			},
			{
				"x": 1.0331210791,
				"y": 3.3489442165,
				"z": 2.1563454764,
				"element": "C" 
			},
			{
				"x": 2.360366141,
				"y": 3.1601342478,
				"z": 1.7656035829,
				"element": "C" 
			},
			{
				"x": 2.6475132536,
				"y": 2.2572621674,
				"z": 0.740449639,
				"element": "C" 
			},
			{
				"x": 1.6281148627,
				"y": 1.5470841334,
				"z": 0.1073265115,
				"element": "C" 
			},
			{
				"x": -1.9533471564,
				"y": -0.5627730734,
				"z": -1.4376637065,
				"element": "C" 
			},
			{
				"x": -2.0863997073,
				"y": -1.8320511686,
				"z": -1.9724197096,
				"element": "C" 
			},
			{
				"x": 0.7456056721,
				"y": -3.2490024525,
				"z": -0.7303315101,
				"element": "H" 
			},
			{
				"x": 0.9815011111,
				"y": -0.9873302519,
				"z": 0.2579521657,
				"element": "H" 
			},
			{
				"x": -1.6469200562,
				"y": 1.5688284496,
				"z": -0.1268066644,
				"element": "H" 
			},
			{
				"x": -1.0207963964,
				"y": 2.7636677711,
				"z": 1.867139352,
				"element": "H" 
			},
			{
				"x": 0.7917919493,
				"y": 4.0510294203,
				"z": 2.9491196482,
				"element": "H" 
			},
			{
				"x": 3.1590599767,
				"y": 3.7134184809,
				"z": 2.2494077829,
				"element": "H" 
			},
			{
				"x": 3.6733549755,
				"y": 2.1141185079,
				"z": 0.4133569855,
				"element": "H" 
			},
			{
				"x": 1.8607887086,
				"y": 0.8838060244,
				"z": -0.7179403778,
				"element": "H" 
			},
			{
				"x": -2.7116326815,
				"y": 0.1889267269,
				"z": -1.640734755,
				"element": "H" 
			},
			{
				"x": -2.9355995607,
				"y": -2.0991204323,
				"z": -2.5889585867,
				"element": "H" 
			}
		],
		 "valence_orbital": [ 
			{
				"type": "occ",
				"energy": -0.27563,
				"method": "rhf"
			},
			{
				"type": "occ",
				"energy": -0.2744,
				"method": "rhf"
			},
			{
				"type": "occ",
				"energy": -0.27226,
				"method": "rhf"
			},
			{
				"type": "occ",
				"energy": -0.26586,
				"method": "rhf"
			},
			{
				"type": "occ",
				"energy": -0.21397,
				"method": "rhf"
			},
			{
				"type": "unocc",
				"energy": -0.07513,
				"method": "rhf"
			},
			{
				"type": "unocc",
				"energy": -0.02339,
				"method": "rhf"
			},
			{
				"type": "unocc",
				"energy": -0.01715,
				"method": "rhf"
			},
			{
				"type": "unocc",
				"energy": -0.01421,
				"method": "rhf"
			},
			{
				"type": "unocc",
				"energy": 0.02605,
				"method": "rhf"
			}
		],
		"cosmo_sigma_profile": { 
			"-0.025": 0.0,
			"-0.024": 0.0,
			"-0.023": 0.0,
			"-0.022": 0.0,
			"-0.021": 0.0,
			"-0.02": 0.0,
			"-0.019": 0.0,
			"-0.018": 0.0,
			"-0.017": 0.0,
			"-0.016": 0.0169535882966,
			"-0.015": 0.743317144204,
			"-0.014": 1.61588147727,
			"-0.013": 1.5218257297,
			"-0.012": 1.24319138951,
			"-0.011": 1.69812390289,
			"-0.01": 1.53166398923,
			"-0.009": 1.73908770605,
			"-0.008": 2.32003710471,
			"-0.007": 6.31216421741,
			"-0.006": 12.6332520944,
			"-0.005": 17.6575537997,
			"-0.004": 19.0720831697,
			"-0.003": 15.1389278357,
			"-0.002": 14.2334565138,
			"-0.001": 15.3765530764,
			"0.0": 18.1712270799,
			"0.001": 19.3084078295,
			"0.002": 23.7378341957,
			"0.003": 17.8481834599,
			"0.004": 10.6838003705,
			"0.005": 12.2800578021,
			"0.006": 6.80235233485,
			"0.007": 3.08606733818,
			"0.008": 8.21241822258,
			"0.009": 7.97923612824,
			"0.01": 4.50504732807,
			"0.011": 3.24975543017,
			"0.012": 0.285101645521,
			"0.013": 0.0,
			"0.014": 0.0,
			"0.015": 0.0,
			"0.016": 0.0,
			"0.017": 0.0,
			"0.018": 0.0,
			"0.019": 0.0,
			"0.02": 0.0,
			"0.021": 0.0,
			"0.022": 0.0,
			"0.023": 0.0,
			"0.024": 0.0,
			"0.025": 0.0
		}
	}
}
