{
	 "smiles": "CCOC1=C(C=CC=C1)S(N)(=O)=O", 
	 "Tm": 428.15, 
	 "num_atms": 24, 
	 "gaussian": { 
		 "optdone": 1, 
		 "sigma_profile": "yes", 
		 "theory": "DFT", 
		 "functional": "B3LYP", 
		 "basiset": "6-31G**", 
		 "properties": { 
			 "R2extent": 2652.707, 
			 "electric_dipole_moment_norm": 5.70184283719, 
			 "electric_quadrupole_moment_norm": 11.9754822909, 
			 "total_energy": -990.017043669, 
			 "HOMO_LUMO_gap": 0.22008, 
			 "cosmo_polarized_energy": -16.25, 
			 "cosmo_cavitation_energy": 28.5, 
			 "cosmo_dispersion_energy": -21.02, 
			 "cosmo_repulsion_energy": 1.62, 
			 "cosmo_total_nonelectrostatic_energy": 9.1, 
			 "SMD_solvation_energy": 4.73 
		},
		"coords": [
			{
				"x": 1.736254418,
				"y": 2.5255285856,
				"z": 1.35945089,
				"element": "C" 
			},
			{
				"x": 1.6526547241,
				"y": 1.0552493165,
				"z": 1.0010333996,
				"element": "C" 
			},
			{
				"x": 0.9618998262,
				"y": 0.9497315903,
				"z": -0.2712419044,
				"element": "O" 
			},
			{
				"x": 0.752950319,
				"y": -0.3309546487,
				"z": -0.727889643,
				"element": "C" 
			},
			{
				"x": -0.53876364,
				"y": -0.8773379279,
				"z": -0.6790073144,
				"element": "C" 
			},
			{
				"x": -0.7986631698,
				"y": -2.1427610296,
				"z": -1.206348214,
				"element": "C" 
			},
			{
				"x": 0.2409574766,
				"y": -2.8782938233,
				"z": -1.7759788406,
				"element": "C" 
			},
			{
				"x": 1.5291227379,
				"y": -2.3405777088,
				"z": -1.8232991461,
				"element": "C" 
			},
			{
				"x": 1.7865348886,
				"y": -1.0691251839,
				"z": -1.3077517629,
				"element": "C" 
			},
			{
				"x": -1.8728600466,
				"y": 0.0393629276,
				"z": 0.1093320288,
				"element": "S" 
			},
			{
				"x": -1.9468114862,
				"y": 1.5192599033,
				"z": -0.6772256696,
				"element": "N" 
			},
			{
				"x": -3.1211381102,
				"y": -0.6577074962,
				"z": -0.2021275152,
				"element": "O" 
			},
			{
				"x": -1.4684621485,
				"y": 0.3156307573,
				"z": 1.4882446966,
				"element": "O" 
			},
			{
				"x": 2.2574088857,
				"y": 3.0898623066,
				"z": 0.5803713067,
				"element": "H" 
			},
			{
				"x": 2.2834198641,
				"y": 2.6467414887,
				"z": 2.2993712676,
				"element": "H" 
			},
			{
				"x": 0.7351695146,
				"y": 2.9452902142,
				"z": 1.4918391613,
				"element": "H" 
			},
			{
				"x": 1.0848032858,
				"y": 0.4957207323,
				"z": 1.7508686072,
				"element": "H" 
			},
			{
				"x": 2.6511985738,
				"y": 0.611125964,
				"z": 0.9002705453,
				"element": "H" 
			},
			{
				"x": -1.810288633,
				"y": -2.5311755258,
				"z": -1.1589943853,
				"element": "H" 
			},
			{
				"x": 0.0447750491,
				"y": -3.8646481428,
				"z": -2.1841217896,
				"element": "H" 
			},
			{
				"x": 2.3381182125,
				"y": -2.9082539755,
				"z": -2.2735412583,
				"element": "H" 
			},
			{
				"x": 2.7788607347,
				"y": -0.6326808013,
				"z": -1.3628103457,
				"element": "H" 
			},
			{
				"x": -1.0334226771,
				"y": 1.9694375988,
				"z": -0.664285432,
				"element": "H" 
			},
			{
				"x": -2.3201185994,
				"y": 1.4165748785,
				"z": -1.616558682,
				"element": "H" 
			}
		],
		 "valence_orbital": [ 
			{
				"type": "occ",
				"energy": -0.304,
				"method": "rhf"
			},
			{
				"type": "occ",
				"energy": -0.29791,
				"method": "rhf"
			},
			{
				"type": "occ",
				"energy": -0.28875,
				"method": "rhf"
			},
			{
				"type": "occ",
				"energy": -0.27098,
				"method": "rhf"
			},
			{
				"type": "occ",
				"energy": -0.2574,
				"method": "rhf"
			},
			{
				"type": "unocc",
				"energy": -0.03732,
				"method": "rhf"
			},
			{
				"type": "unocc",
				"energy": -0.02163,
				"method": "rhf"
			},
			{
				"type": "unocc",
				"energy": 0.0603,
				"method": "rhf"
			},
			{
				"type": "unocc",
				"energy": 0.06706,
				"method": "rhf"
			},
			{
				"type": "unocc",
				"energy": 0.08514,
				"method": "rhf"
			}
		],
		"cosmo_sigma_profile": { 
			"-0.025": 0.0,
			"-0.024": 0.0,
			"-0.023": 0.0,
			"-0.022": 0.0,
			"-0.021": 0.0,
			"-0.02": 0.0,
			"-0.019": 0.0,
			"-0.018": 0.0,
			"-0.017": 0.0,
			"-0.016": 0.150386769493,
			"-0.015": 1.22434480151,
			"-0.014": 1.26691203017,
			"-0.013": 1.45366538211,
			"-0.012": 1.79150539038,
			"-0.011": 2.17688739052,
			"-0.01": 1.17950622285,
			"-0.009": 1.28314326092,
			"-0.008": 2.64298581966,
			"-0.007": 7.0437416044,
			"-0.006": 10.9354212122,
			"-0.005": 14.1659611976,
			"-0.004": 18.6846328403,
			"-0.003": 18.9306438239,
			"-0.002": 17.1663206665,
			"-0.001": 16.6332553187,
			"0.0": 16.4933986206,
			"0.001": 13.4475895808,
			"0.002": 15.1976789564,
			"0.003": 13.1620106355,
			"0.004": 6.03765881767,
			"0.005": 4.34117656934,
			"0.006": 4.09674729364,
			"0.007": 4.04323278599,
			"0.008": 5.38688834853,
			"0.009": 5.73504682893,
			"0.01": 6.25504400382,
			"0.011": 9.03456019762,
			"0.012": 5.58421005871,
			"0.013": 0.521678791051,
			"0.014": 0.00554119216524,
			"0.015": 0.0,
			"0.016": 0.0,
			"0.017": 0.0,
			"0.018": 0.0,
			"0.019": 0.0,
			"0.02": 0.0,
			"0.021": 0.0,
			"0.022": 0.0,
			"0.023": 0.0,
			"0.024": 0.0,
			"0.025": 0.0
		}
	}
}
