{
	 "smiles": "O=C(N1CCC(=O)CC1)C1=CC=CC=C1", 
	 "Tm": 330.65, 
	 "num_atms": 28, 
	 "gaussian": { 
		 "optdone": 1, 
		 "sigma_profile": "yes", 
		 "theory": "DFT", 
		 "functional": "B3LYP", 
		 "basiset": "6-31G**", 
		 "properties": { 
			 "R2extent": 3893.173, 
			 "electric_dipole_moment_norm": 3.13640137897, 
			 "electric_quadrupole_moment_norm": 14.5306212851, 
			 "total_energy": -670.317430086, 
			 "HOMO_LUMO_gap": 0.20584, 
			 "cosmo_polarized_energy": -15.79, 
			 "cosmo_cavitation_energy": 30.8, 
			 "cosmo_dispersion_energy": -22.3, 
			 "cosmo_repulsion_energy": 1.75, 
			 "cosmo_total_nonelectrostatic_energy": 10.24, 
			 "SMD_solvation_energy": 5.25 
		},
		"coords": [
			{
				"x": -1.0777483068,
				"y": -1.9812073339,
				"z": 1.3961717711,
				"element": "O" 
			},
			{
				"x": -0.786790092,
				"y": -1.1228671768,
				"z": 0.5642244333,
				"element": "C" 
			},
			{
				"x": -0.2031087606,
				"y": 0.0634030943,
				"z": 0.9549261848,
				"element": "N" 
			},
			{
				"x": 0.5478518689,
				"y": 0.9606652018,
				"z": 0.0659901813,
				"element": "C" 
			},
			{
				"x": 1.9030531819,
				"y": 1.340795312,
				"z": 0.6781261941,
				"element": "C" 
			},
			{
				"x": 1.7429588566,
				"y": 2.005809709,
				"z": 2.0408563123,
				"element": "C" 
			},
			{
				"x": 2.5707831662,
				"y": 2.7623042551,
				"z": 2.5054591306,
				"element": "O" 
			},
			{
				"x": 0.4515303069,
				"y": 1.6381980322,
				"z": 2.7598370781,
				"element": "C" 
			},
			{
				"x": -0.0285562656,
				"y": 0.2269910159,
				"z": 2.4093299634,
				"element": "C" 
			},
			{
				"x": -1.1001609747,
				"y": -1.3450636224,
				"z": -0.8909028867,
				"element": "C" 
			},
			{
				"x": -0.933728766,
				"y": -2.6426119108,
				"z": -1.3957018336,
				"element": "C" 
			},
			{
				"x": -1.2726768281,
				"y": -2.9350314523,
				"z": -2.7147626534,
				"element": "C" 
			},
			{
				"x": -1.8107288468,
				"y": -1.9409950431,
				"z": -3.5367564217,
				"element": "C" 
			},
			{
				"x": -2.0092574926,
				"y": -0.6545810014,
				"z": -3.0327722332,
				"element": "C" 
			},
			{
				"x": -1.651368765,
				"y": -0.3556343156,
				"z": -1.7172825016,
				"element": "C" 
			},
			{
				"x": 0.6979583775,
				"y": 0.4643036085,
				"z": -0.8927266951,
				"element": "H" 
			},
			{
				"x": -0.025325209,
				"y": 1.8771857202,
				"z": -0.1359866111,
				"element": "H" 
			},
			{
				"x": 2.5122579009,
				"y": 0.4368383951,
				"z": 0.8175779697,
				"element": "H" 
			},
			{
				"x": 2.4652639955,
				"y": 2.0085318002,
				"z": 0.0188861475,
				"element": "H" 
			},
			{
				"x": 0.5999012401,
				"y": 1.7457432893,
				"z": 3.8373613453,
				"element": "H" 
			},
			{
				"x": -0.3093693893,
				"y": 2.3762654785,
				"z": 2.4672962809,
				"element": "H" 
			},
			{
				"x": -0.982003928,
				"y": 0.0073675894,
				"z": 2.8952447546,
				"element": "H" 
			},
			{
				"x": 0.6808957631,
				"y": -0.5218484723,
				"z": 2.786318726,
				"element": "H" 
			},
			{
				"x": -0.5474621606,
				"y": -3.4116522688,
				"z": -0.7349780274,
				"element": "H" 
			},
			{
				"x": -1.127419221,
				"y": -3.9400910256,
				"z": -3.1000507018,
				"element": "H" 
			},
			{
				"x": -2.0832849376,
				"y": -2.1710852785,
				"z": -4.5627581623,
				"element": "H" 
			},
			{
				"x": -2.4477314994,
				"y": 0.1155119298,
				"z": -3.66087363,
				"element": "H" 
			},
			{
				"x": -1.8267332144,
				"y": 0.6420544704,
				"z": -1.326454115,
				"element": "H" 
			}
		],
		 "valence_orbital": [ 
			{
				"type": "occ",
				"energy": -0.26694,
				"method": "rhf"
			},
			{
				"type": "occ",
				"energy": -0.2611,
				"method": "rhf"
			},
			{
				"type": "occ",
				"energy": -0.25082,
				"method": "rhf"
			},
			{
				"type": "occ",
				"energy": -0.24785,
				"method": "rhf"
			},
			{
				"type": "occ",
				"energy": -0.23953,
				"method": "rhf"
			},
			{
				"type": "unocc",
				"energy": -0.03369,
				"method": "rhf"
			},
			{
				"type": "unocc",
				"energy": -0.02393,
				"method": "rhf"
			},
			{
				"type": "unocc",
				"energy": -0.01066,
				"method": "rhf"
			},
			{
				"type": "unocc",
				"energy": 0.04697,
				"method": "rhf"
			},
			{
				"type": "unocc",
				"energy": 0.06907,
				"method": "rhf"
			}
		],
		"cosmo_sigma_profile": { 
			"-0.025": 0.0,
			"-0.024": 0.0,
			"-0.023": 0.0,
			"-0.022": 0.0,
			"-0.021": 0.0,
			"-0.02": 0.0,
			"-0.019": 0.0,
			"-0.018": 0.0,
			"-0.017": 0.0,
			"-0.016": 0.0,
			"-0.015": 0.0,
			"-0.014": 0.0,
			"-0.013": 0.0,
			"-0.012": 0.0,
			"-0.011": 0.0,
			"-0.01": 0.0,
			"-0.009": 0.00628859577298,
			"-0.008": 0.94443684384,
			"-0.007": 7.29975959064,
			"-0.006": 21.0150075025,
			"-0.005": 30.5320395651,
			"-0.004": 29.7817700637,
			"-0.003": 22.6492561786,
			"-0.002": 16.177309856,
			"-0.001": 11.7296441182,
			"0.0": 11.2139622582,
			"0.001": 10.8413056018,
			"0.002": 10.5208213113,
			"0.003": 10.5677673598,
			"0.004": 11.3803989614,
			"0.005": 11.0184317898,
			"0.006": 3.50582135556,
			"0.007": 2.45268530626,
			"0.008": 2.57531512809,
			"0.009": 3.8687815673,
			"0.01": 4.062884587,
			"0.011": 4.42639554583,
			"0.012": 6.29397225868,
			"0.013": 5.37354392007,
			"0.014": 4.63584192706,
			"0.015": 0.7672389404,
			"0.016": 0.0,
			"0.017": 0.0,
			"0.018": 0.0,
			"0.019": 0.0,
			"0.02": 0.0,
			"0.021": 0.0,
			"0.022": 0.0,
			"0.023": 0.0,
			"0.024": 0.0,
			"0.025": 0.0
		}
	}
}
