{
	 "smiles": "CCOC(=O)C1=C(N)SC2=C1CCCS2=O", 
	 "Tm": 463.15, 
	 "num_atms": 29, 
	 "gaussian": { 
		 "optdone": 1, 
		 "sigma_profile": "yes", 
		 "theory": "DFT", 
		 "functional": "B3LYP", 
		 "basiset": "6-31G**", 
		 "properties": { 
			 "R2extent": 5923.7785, 
			 "electric_dipole_moment_norm": 4.80169731866, 
			 "electric_quadrupole_moment_norm": 24.1943814288, 
			 "total_energy": -1465.66258248, 
			 "HOMO_LUMO_gap": 0.17554, 
			 "cosmo_polarized_energy": -17.85, 
			 "cosmo_cavitation_energy": 34.25, 
			 "cosmo_dispersion_energy": -26.02, 
			 "cosmo_repulsion_energy": 1.95, 
			 "cosmo_total_nonelectrostatic_energy": 10.19, 
			 "SMD_solvation_energy": 5.2 
		},
		"coords": [
			{
				"x": 1.0594200919,
				"y": -1.9864617469,
				"z": -3.0318685439,
				"element": "C" 
			},
			{
				"x": 1.8230070912,
				"y": -1.6743694571,
				"z": -1.7586603084,
				"element": "C" 
			},
			{
				"x": 0.8771821444,
				"y": -1.1407832437,
				"z": -0.8042851253,
				"element": "O" 
			},
			{
				"x": 1.3830893071,
				"y": -0.8157547286,
				"z": 0.4085536941,
				"element": "C" 
			},
			{
				"x": 2.5777417598,
				"y": -0.9700968903,
				"z": 0.6670597072,
				"element": "O" 
			},
			{
				"x": 0.4013610939,
				"y": -0.2860586386,
				"z": 1.3484858388,
				"element": "C" 
			},
			{
				"x": 0.8192484825,
				"y": 0.0472347698,
				"z": 2.6456189042,
				"element": "C" 
			},
			{
				"x": 2.0584539729,
				"y": -0.1047907166,
				"z": 3.1601090197,
				"element": "N" 
			},
			{
				"x": -0.4958788103,
				"y": 0.6462935843,
				"z": 3.6243094202,
				"element": "S" 
			},
			{
				"x": -1.6116319505,
				"y": 0.4663431296,
				"z": 2.2694514977,
				"element": "C" 
			},
			{
				"x": -1.0133175704,
				"y": -0.0318766877,
				"z": 1.1461896189,
				"element": "C" 
			},
			{
				"x": -1.7716710068,
				"y": -0.293685884,
				"z": -0.1344660074,
				"element": "C" 
			},
			{
				"x": -3.1950787052,
				"y": 0.2834888832,
				"z": -0.1392350539,
				"element": "C" 
			},
			{
				"x": -3.9711733374,
				"y": 0.0002047548,
				"z": 1.1469288594,
				"element": "C" 
			},
			{
				"x": -3.3052977497,
				"y": 1.0228397623,
				"z": 2.5314134821,
				"element": "S" 
			},
			{
				"x": -3.7949397622,
				"y": 0.4598238067,
				"z": 3.8456919389,
				"element": "O" 
			},
			{
				"x": 0.6000243658,
				"y": -1.0843166013,
				"z": -3.4464751598,
				"element": "H" 
			},
			{
				"x": 1.7427120266,
				"y": -2.3979425553,
				"z": -3.7812575198,
				"element": "H" 
			},
			{
				"x": 0.2710510653,
				"y": -2.7217280928,
				"z": -2.8463847353,
				"element": "H" 
			},
			{
				"x": 2.6143352353,
				"y": -0.936764906,
				"z": -1.9247646128,
				"element": "H" 
			},
			{
				"x": 2.2915512934,
				"y": -2.5664404076,
				"z": -1.331868672,
				"element": "H" 
			},
			{
				"x": 2.7682990387,
				"y": -0.403272671,
				"z": 2.4967543758,
				"element": "H" 
			},
			{
				"x": 2.3119855043,
				"y": 0.3182081908,
				"z": 4.0373329645,
				"element": "H" 
			},
			{
				"x": -1.208953516,
				"y": 0.1081656055,
				"z": -0.9809692807,
				"element": "H" 
			},
			{
				"x": -1.8070471887,
				"y": -1.3781843207,
				"z": -0.3015659739,
				"element": "H" 
			},
			{
				"x": -3.748190709,
				"y": -0.13227637,
				"z": -0.9889883563,
				"element": "H" 
			},
			{
				"x": -3.1556303513,
				"y": 1.3684421383,
				"z": -0.3042180633,
				"element": "H" 
			},
			{
				"x": -3.9080407838,
				"y": -1.0434361734,
				"z": 1.470978606,
				"element": "H" 
			},
			{
				"x": -5.0249110318,
				"y": 0.2819954662,
				"z": 1.0660294853,
				"element": "H" 
			}
		],
		 "valence_orbital": [ 
			{
				"type": "occ",
				"energy": -0.28012,
				"method": "rhf"
			},
			{
				"type": "occ",
				"energy": -0.26077,
				"method": "rhf"
			},
			{
				"type": "occ",
				"energy": -0.25562,
				"method": "rhf"
			},
			{
				"type": "occ",
				"energy": -0.22813,
				"method": "rhf"
			},
			{
				"type": "occ",
				"energy": -0.19989,
				"method": "rhf"
			},
			{
				"type": "unocc",
				"energy": -0.02435,
				"method": "rhf"
			},
			{
				"type": "unocc",
				"energy": -0.00843,
				"method": "rhf"
			},
			{
				"type": "unocc",
				"energy": 0.00624,
				"method": "rhf"
			},
			{
				"type": "unocc",
				"energy": 0.03016,
				"method": "rhf"
			},
			{
				"type": "unocc",
				"energy": 0.05595,
				"method": "rhf"
			}
		],
		"cosmo_sigma_profile": { 
			"-0.025": 0.0,
			"-0.024": 0.0,
			"-0.023": 0.0,
			"-0.022": 0.0,
			"-0.021": 0.0,
			"-0.02": 0.0,
			"-0.019": 0.0,
			"-0.018": 0.0,
			"-0.017": 0.0,
			"-0.016": 0.143496473514,
			"-0.015": 1.46561804666,
			"-0.014": 1.28138026361,
			"-0.013": 1.54228231176,
			"-0.012": 1.17258215612,
			"-0.011": 1.69433487275,
			"-0.01": 1.48557517476,
			"-0.009": 2.037930807,
			"-0.008": 2.09883129439,
			"-0.007": 4.02087826563,
			"-0.006": 6.15288803564,
			"-0.005": 15.4995272657,
			"-0.004": 29.5047707056,
			"-0.003": 28.2939498839,
			"-0.002": 25.3722139976,
			"-0.001": 20.1473625567,
			"0.0": 22.2414835286,
			"0.001": 21.8796909017,
			"0.002": 21.4722723842,
			"0.003": 16.7425682821,
			"0.004": 8.97657333916,
			"0.005": 5.10909253005,
			"0.006": 3.87643469059,
			"0.007": 3.31438501911,
			"0.008": 2.9073983232,
			"0.009": 2.66580406789,
			"0.01": 3.41696080551,
			"0.011": 2.61746205603,
			"0.012": 2.88248274783,
			"0.013": 3.2491815154,
			"0.014": 4.95602515324,
			"0.015": 4.37136220737,
			"0.016": 0.895300748673,
			"0.017": 0.0,
			"0.018": 0.0,
			"0.019": 0.0,
			"0.02": 0.0,
			"0.021": 0.0,
			"0.022": 0.0,
			"0.023": 0.0,
			"0.024": 0.0,
			"0.025": 0.0
		}
	}
}
