{
	 "smiles": "CC[C@@]1(CC[C@@]2(C)[C@@H](CCC3C4CCC(=O)[C@@]4(C)CCC23)C1)OC(C)=O", 
	 "Tm": 424.15, 
	 "num_atms": 62, 
	 "gaussian": { 
		 "optdone": 1, 
		 "sigma_profile": "yes", 
		 "theory": "DFT", 
		 "functional": "B3LYP", 
		 "basiset": "6-31G**", 
		 "properties": { 
			 "R2extent": 13271.6919, 
			 "electric_dipole_moment_norm": 3.459978643, 
			 "electric_quadrupole_moment_norm": 22.315041846, 
			 "total_energy": -1123.86385526, 
			 "HOMO_LUMO_gap": 0.21825, 
			 "cosmo_polarized_energy": -12.87, 
			 "cosmo_cavitation_energy": 52.95, 
			 "cosmo_dispersion_energy": -36.19, 
			 "cosmo_repulsion_energy": 2.67, 
			 "cosmo_total_nonelectrostatic_energy": 19.43, 
			 "SMD_solvation_energy": 9.01 
		},
		"coords": [
			{
				"x": -3.5698858497,
				"y": -3.8528646166,
				"z": 0.2633445122,
				"element": "C" 
			},
			{
				"x": -2.9414288515,
				"y": -2.6834579466,
				"z": 1.03015611,
				"element": "C" 
			},
			{
				"x": -1.5779951481,
				"y": -2.9712170372,
				"z": 1.6957477902,
				"element": "C" 
			},
			{
				"x": -1.0572461444,
				"y": -1.7556268283,
				"z": 2.4908403328,
				"element": "C" 
			},
			{
				"x": -0.5103341693,
				"y": -0.6350384515,
				"z": 1.5847553132,
				"element": "C" 
			},
			{
				"x": 0.5782342975,
				"y": -1.1067241015,
				"z": 0.5851927777,
				"element": "C" 
			},
			{
				"x": 1.8363073028,
				"y": -1.4862968353,
				"z": 1.405616753,
				"element": "C" 
			},
			{
				"x": 0.0097946365,
				"y": -2.3163280406,
				"z": -0.2173543414,
				"element": "C" 
			},
			{
				"x": 0.9998193937,
				"y": -2.8286667334,
				"z": -1.2775792495,
				"element": "C" 
			},
			{
				"x": 1.4141136552,
				"y": -1.7135144573,
				"z": -2.2542510502,
				"element": "C" 
			},
			{
				"x": 1.9619475852,
				"y": -0.4818145553,
				"z": -1.5007939407,
				"element": "C" 
			},
			{
				"x": 2.4621407997,
				"y": 0.7215572161,
				"z": -2.3429298332,
				"element": "C" 
			},
			{
				"x": 3.380996909,
				"y": 0.3480276159,
				"z": -3.5453315647,
				"element": "C" 
			},
			{
				"x": 2.4981688742,
				"y": 0.4301399032,
				"z": -4.7975987241,
				"element": "C" 
			},
			{
				"x": 1.4789253956,
				"y": 1.5149948081,
				"z": -4.461664672,
				"element": "C" 
			},
			{
				"x": 0.860071338,
				"y": 2.1828084196,
				"z": -5.2633550832,
				"element": "O" 
			},
			{
				"x": 1.3413152025,
				"y": 1.641699967,
				"z": -2.9293775684,
				"element": "C" 
			},
			{
				"x": 1.5353426997,
				"y": 3.1176729259,
				"z": -2.5325386627,
				"element": "C" 
			},
			{
				"x": -0.0810653806,
				"y": 1.1624444868,
				"z": -2.5466162939,
				"element": "C" 
			},
			{
				"x": -0.2466059496,
				"y": 0.7761801299,
				"z": -1.0631546914,
				"element": "C" 
			},
			{
				"x": 0.9682691204,
				"y": 0.0310890078,
				"z": -0.4231848381,
				"element": "C" 
			},
			{
				"x": -0.4962441104,
				"y": -3.4396185621,
				"z": 0.7027194448,
				"element": "C" 
			},
			{
				"x": -1.7055284645,
				"y": -4.137183768,
				"z": 2.5926084955,
				"element": "O" 
			},
			{
				"x": -2.5127426641,
				"y": -4.1250915733,
				"z": 3.674055402,
				"element": "C" 
			},
			{
				"x": -2.4241668334,
				"y": -5.4503132246,
				"z": 4.4022393292,
				"element": "C" 
			},
			{
				"x": -3.2113809938,
				"y": -3.197007348,
				"z": 4.0256166293,
				"element": "O" 
			},
			{
				"x": -2.9853778849,
				"y": -4.1383086782,
				"z": -0.6170457562,
				"element": "H" 
			},
			{
				"x": -4.5705843574,
				"y": -3.5788953058,
				"z": -0.0850251275,
				"element": "H" 
			},
			{
				"x": -3.6701421587,
				"y": -4.7391686434,
				"z": 0.8969288829,
				"element": "H" 
			},
			{
				"x": -2.8141736536,
				"y": -1.8337590487,
				"z": 0.3501104073,
				"element": "H" 
			},
			{
				"x": -3.6258178678,
				"y": -2.3517871908,
				"z": 1.8145927232,
				"element": "H" 
			},
			{
				"x": -0.2711416628,
				"y": -2.1139851668,
				"z": 3.1648611246,
				"element": "H" 
			},
			{
				"x": -1.8549144479,
				"y": -1.3638740752,
				"z": 3.125413872,
				"element": "H" 
			},
			{
				"x": -1.3482686023,
				"y": -0.1877526687,
				"z": 1.0415649242,
				"element": "H" 
			},
			{
				"x": -0.1039177465,
				"y": 0.1637085292,
				"z": 2.2190920449,
				"element": "H" 
			},
			{
				"x": 1.622472027,
				"y": -2.238183629,
				"z": 2.168379601,
				"element": "H" 
			},
			{
				"x": 2.648525322,
				"y": -1.8811285669,
				"z": 0.792462861,
				"element": "H" 
			},
			{
				"x": 2.2193477909,
				"y": -0.6001220206,
				"z": 1.9242893361,
				"element": "H" 
			},
			{
				"x": -0.8609658788,
				"y": -1.9391262057,
				"z": -0.7741663707,
				"element": "H" 
			},
			{
				"x": 0.5402838854,
				"y": -3.6543453278,
				"z": -1.8355372775,
				"element": "H" 
			},
			{
				"x": 1.8894378254,
				"y": -3.2502791342,
				"z": -0.7917560157,
				"element": "H" 
			},
			{
				"x": 2.1741244447,
				"y": -2.0986565429,
				"z": -2.944570629,
				"element": "H" 
			},
			{
				"x": 0.5459473422,
				"y": -1.4518969824,
				"z": -2.8690934164,
				"element": "H" 
			},
			{
				"x": 2.8575413257,
				"y": -0.8385823571,
				"z": -0.9760687486,
				"element": "H" 
			},
			{
				"x": 3.0502960673,
				"y": 1.3205121884,
				"z": -1.6371306697,
				"element": "H" 
			},
			{
				"x": 4.1900983366,
				"y": 1.0829076599,
				"z": -3.6261116912,
				"element": "H" 
			},
			{
				"x": 3.8570744412,
				"y": -0.6287042149,
				"z": -3.4173749301,
				"element": "H" 
			},
			{
				"x": 1.9443370817,
				"y": -0.5054529656,
				"z": -4.9569548379,
				"element": "H" 
			},
			{
				"x": 3.0231471686,
				"y": 0.6581681044,
				"z": -5.728573686,
				"element": "H" 
			},
			{
				"x": 1.3364225857,
				"y": 3.2655290071,
				"z": -1.4657853973,
				"element": "H" 
			},
			{
				"x": 0.8550575451,
				"y": 3.7519989198,
				"z": -3.1079966905,
				"element": "H" 
			},
			{
				"x": 2.5593728501,
				"y": 3.4541586481,
				"z": -2.7296086696,
				"element": "H" 
			},
			{
				"x": -0.3493583134,
				"y": 0.3041288219,
				"z": -3.1712626201,
				"element": "H" 
			},
			{
				"x": -0.7992096229,
				"y": 1.9459394972,
				"z": -2.8108690424,
				"element": "H" 
			},
			{
				"x": -1.1559037007,
				"y": 0.1701820796,
				"z": -0.9944375671,
				"element": "H" 
			},
			{
				"x": -0.4530217917,
				"y": 1.6758034413,
				"z": -0.4732581209,
				"element": "H" 
			},
			{
				"x": 1.5211433911,
				"y": 0.7809363521,
				"z": 0.1610034668,
				"element": "H" 
			},
			{
				"x": 0.3338091063,
				"y": -3.8532655409,
				"z": 1.2863424493,
				"element": "H" 
			},
			{
				"x": -0.8831629392,
				"y": -4.268924487,
				"z": 0.1009944314,
				"element": "H" 
			},
			{
				"x": -2.7047788131,
				"y": -6.2687359609,
				"z": 3.7327937304,
				"element": "H" 
			},
			{
				"x": -1.3947227275,
				"y": -5.6332227149,
				"z": 4.7243248355,
				"element": "H" 
			},
			{
				"x": -3.0865990184,
				"y": -5.4325662209,
				"z": 5.267210197,
				"element": "H" 
			}
		],
		 "valence_orbital": [ 
			{
				"type": "occ",
				"energy": -0.28836,
				"method": "rhf"
			},
			{
				"type": "occ",
				"energy": -0.2818,
				"method": "rhf"
			},
			{
				"type": "occ",
				"energy": -0.27797,
				"method": "rhf"
			},
			{
				"type": "occ",
				"energy": -0.25635,
				"method": "rhf"
			},
			{
				"type": "occ",
				"energy": -0.23191,
				"method": "rhf"
			},
			{
				"type": "unocc",
				"energy": -0.01366,
				"method": "rhf"
			},
			{
				"type": "unocc",
				"energy": 0.01569,
				"method": "rhf"
			},
			{
				"type": "unocc",
				"energy": 0.05907,
				"method": "rhf"
			},
			{
				"type": "unocc",
				"energy": 0.06631,
				"method": "rhf"
			},
			{
				"type": "unocc",
				"energy": 0.07799,
				"method": "rhf"
			}
		],
		"cosmo_sigma_profile": { 
			"-0.025": 0.0,
			"-0.024": 0.0,
			"-0.023": 0.0,
			"-0.022": 0.0,
			"-0.021": 0.0,
			"-0.02": 0.0,
			"-0.019": 0.0,
			"-0.018": 0.0,
			"-0.017": 0.0,
			"-0.016": 0.0,
			"-0.015": 0.0,
			"-0.014": 0.0,
			"-0.013": 0.0,
			"-0.012": 0.0,
			"-0.011": 0.0,
			"-0.01": 0.0,
			"-0.009": 0.0,
			"-0.008": 0.0527806592962,
			"-0.007": 0.466336444515,
			"-0.006": 4.23290156017,
			"-0.005": 10.9578874162,
			"-0.004": 21.2303495391,
			"-0.003": 46.8097113941,
			"-0.002": 70.5639175455,
			"-0.001": 75.2452228761,
			"0.0": 61.7583311379,
			"0.001": 43.4183190707,
			"0.002": 16.1139841058,
			"0.003": 6.04958157502,
			"0.004": 5.02903008238,
			"0.005": 5.23671757618,
			"0.006": 6.01023470301,
			"0.007": 3.10102956731,
			"0.008": 4.25581507251,
			"0.009": 4.29656133397,
			"0.01": 3.99504610526,
			"0.011": 4.38974557731,
			"0.012": 7.55665763249,
			"0.013": 5.12884382373,
			"0.014": 0.744063204417,
			"0.015": 0.0,
			"0.016": 0.0,
			"0.017": 0.0,
			"0.018": 0.0,
			"0.019": 0.0,
			"0.02": 0.0,
			"0.021": 0.0,
			"0.022": 0.0,
			"0.023": 0.0,
			"0.024": 0.0,
			"0.025": 0.0
		}
	}
}
