{
	 "smiles": "CC1=NN(C2=C1C=C(S2)C(O)=O)C1=CC=C(Cl)C=C1", 
	 "Tm": 507.15, 
	 "num_atms": 28, 
	 "gaussian": { 
		 "optdone": 1, 
		 "sigma_profile": "yes", 
		 "theory": "DFT", 
		 "functional": "B3LYP", 
		 "basiset": "6-31G**", 
		 "properties": { 
			 "R2extent": 8576.2571, 
			 "electric_dipole_moment_norm": 2.70839388014, 
			 "electric_quadrupole_moment_norm": 32.5644934065, 
			 "total_energy": -1619.11656981, 
			 "HOMO_LUMO_gap": 0.16339, 
			 "cosmo_polarized_energy": -15.99, 
			 "cosmo_cavitation_energy": 36.57, 
			 "cosmo_dispersion_energy": -27.38, 
			 "cosmo_repulsion_energy": 2.05, 
			 "cosmo_total_nonelectrostatic_energy": 11.23, 
			 "SMD_solvation_energy": 6.12 
		},
		"coords": [
			{
				"x": -2.6493715838,
				"y": 2.1399864466,
				"z": -0.1862604415,
				"element": "C" 
			},
			{
				"x": -1.5918583673,
				"y": 1.0925211962,
				"z": -0.0424044168,
				"element": "C" 
			},
			{
				"x": -0.9614235425,
				"y": 0.6163313824,
				"z": -1.1043711212,
				"element": "N" 
			},
			{
				"x": -0.0532530018,
				"y": -0.32464225,
				"z": -0.6597543644,
				"element": "N" 
			},
			{
				"x": -0.129758477,
				"y": -0.4252779663,
				"z": 0.696017912,
				"element": "C" 
			},
			{
				"x": -1.1057043422,
				"y": 0.4659181443,
				"z": 1.1472751092,
				"element": "C" 
			},
			{
				"x": -1.2621484204,
				"y": 0.4356531357,
				"z": 2.5597267339,
				"element": "C" 
			},
			{
				"x": -0.4201660567,
				"y": -0.4616474121,
				"z": 3.1638029707,
				"element": "C" 
			},
			{
				"x": 0.6160728099,
				"y": -1.3173132143,
				"z": 1.9853129287,
				"element": "S" 
			},
			{
				"x": -0.3742581996,
				"y": -0.6951513819,
				"z": 4.6240998703,
				"element": "C" 
			},
			{
				"x": 0.5077961359,
				"y": -1.6139845355,
				"z": 5.1009615734,
				"element": "O" 
			},
			{
				"x": -1.0913792053,
				"y": -0.0947453503,
				"z": 5.3911284676,
				"element": "O" 
			},
			{
				"x": 0.7663996758,
				"y": -1.0016812295,
				"z": -1.5932703209,
				"element": "C" 
			},
			{
				"x": 1.696394518,
				"y": -1.960374384,
				"z": -1.1747257349,
				"element": "C" 
			},
			{
				"x": 2.4946381783,
				"y": -2.6164600767,
				"z": -2.1104398543,
				"element": "C" 
			},
			{
				"x": 2.3618729174,
				"y": -2.3130366436,
				"z": -3.4632101808,
				"element": "C" 
			},
			{
				"x": 3.3666076426,
				"y": -3.1387669795,
				"z": -4.6416981617,
				"element": "Cl" 
			},
			{
				"x": 1.4372475911,
				"y": -1.3585168819,
				"z": -3.8894161815,
				"element": "C" 
			},
			{
				"x": 0.6401988377,
				"y": -0.7031592049,
				"z": -2.9571750137,
				"element": "C" 
			},
			{
				"x": -2.3835801947,
				"y": 3.0469681281,
				"z": 0.367615452,
				"element": "H" 
			},
			{
				"x": -3.6096718614,
				"y": 1.7868004821,
				"z": 0.2050452547,
				"element": "H" 
			},
			{
				"x": -2.7755165577,
				"y": 2.3985663738,
				"z": -1.239225615,
				"element": "H" 
			},
			{
				"x": -1.9528347513,
				"y": 1.0322450103,
				"z": 3.1427549415,
				"element": "H" 
			},
			{
				"x": 1.0269177556,
				"y": -2.0287919242,
				"z": 4.3977424627,
				"element": "H" 
			},
			{
				"x": 1.8154929418,
				"y": -2.2111082078,
				"z": -0.1275134178,
				"element": "H" 
			},
			{
				"x": 3.2147303145,
				"y": -3.3588685071,
				"z": -1.7857676226,
				"element": "H" 
			},
			{
				"x": 1.3408813505,
				"y": -1.1288038052,
				"z": -4.9446356727,
				"element": "H" 
			},
			{
				"x": -0.0821261072,
				"y": 0.0397396552,
				"z": -3.268815557,
				"element": "H" 
			}
		],
		 "valence_orbital": [ 
			{
				"type": "occ",
				"energy": -0.28134,
				"method": "rhf"
			},
			{
				"type": "occ",
				"energy": -0.27987,
				"method": "rhf"
			},
			{
				"type": "occ",
				"energy": -0.2726,
				"method": "rhf"
			},
			{
				"type": "occ",
				"energy": -0.25851,
				"method": "rhf"
			},
			{
				"type": "occ",
				"energy": -0.22733,
				"method": "rhf"
			},
			{
				"type": "unocc",
				"energy": -0.06394,
				"method": "rhf"
			},
			{
				"type": "unocc",
				"energy": -0.04248,
				"method": "rhf"
			},
			{
				"type": "unocc",
				"energy": -0.02916,
				"method": "rhf"
			},
			{
				"type": "unocc",
				"energy": -0.02605,
				"method": "rhf"
			},
			{
				"type": "unocc",
				"energy": 0.01842,
				"method": "rhf"
			}
		],
		"cosmo_sigma_profile": { 
			"-0.025": 0.0,
			"-0.024": 0.0,
			"-0.023": 0.0,
			"-0.022": 0.0,
			"-0.021": 0.0,
			"-0.02": 0.0,
			"-0.019": 0.221624688762,
			"-0.018": 0.585035646668,
			"-0.017": 1.10572653029,
			"-0.016": 0.98415950368,
			"-0.015": 0.724716404336,
			"-0.014": 0.572297998989,
			"-0.013": 1.43077431249,
			"-0.012": 1.30970974906,
			"-0.011": 0.774957870576,
			"-0.01": 0.468521368864,
			"-0.009": 1.34603680069,
			"-0.008": 5.52294331379,
			"-0.007": 8.27752454441,
			"-0.006": 11.5894744481,
			"-0.005": 16.2113719151,
			"-0.004": 18.2208442624,
			"-0.003": 18.1819659624,
			"-0.002": 19.9776214114,
			"-0.001": 25.4328436924,
			"0.0": 28.0059942949,
			"0.001": 32.2910803896,
			"0.002": 29.5825093405,
			"0.003": 18.8412488117,
			"0.004": 13.9260168322,
			"0.005": 9.86728895511,
			"0.006": 3.60056812084,
			"0.007": 4.06864539364,
			"0.008": 4.12428084672,
			"0.009": 5.21444243997,
			"0.01": 5.58954103949,
			"0.011": 5.21596298301,
			"0.012": 4.65767939372,
			"0.013": 1.21505044314,
			"0.014": 0.0,
			"0.015": 0.0,
			"0.016": 0.0,
			"0.017": 0.0,
			"0.018": 0.0,
			"0.019": 0.0,
			"0.02": 0.0,
			"0.021": 0.0,
			"0.022": 0.0,
			"0.023": 0.0,
			"0.024": 0.0,
			"0.0": 0.0
		}
	}
}
