{
	 "smiles": "CC(=O)C1=CC2=C(OC1=O)C=CC=C2", 
	 "Tm": 394.65, 
	 "num_atms": 22, 
	 "gaussian": { 
		 "optdone": 1, 
		 "sigma_profile": "yes", 
		 "theory": "DFT", 
		 "functional": "B3LYP", 
		 "basiset": "6-31G**", 
		 "properties": { 
			 "R2extent": 3059.3823, 
			 "electric_dipole_moment_norm": 4.30074198831, 
			 "electric_quadrupole_moment_norm": 12.6351995493, 
			 "total_energy": -649.670461938, 
			 "HOMO_LUMO_gap": 0.15465, 
			 "cosmo_polarized_energy": -11.58, 
			 "cosmo_cavitation_energy": 26.76, 
			 "cosmo_dispersion_energy": -19.87, 
			 "cosmo_repulsion_energy": 1.53, 
			 "cosmo_total_nonelectrostatic_energy": 8.42, 
			 "SMD_solvation_energy": 6.25 
		},
		"coords": [
			{
				"x": -3.5651298491,
				"y": 0.9985989695,
				"z": 0.5356975082,
				"element": "C" 
			},
			{
				"x": -2.4748895876,
				"y": -0.0440964248,
				"z": 0.5970936095,
				"element": "C" 
			},
			{
				"x": -2.7413444429,
				"y": -1.228926511,
				"z": 0.7412838393,
				"element": "O" 
			},
			{
				"x": -1.0252867649,
				"y": 0.3615720722,
				"z": 0.4805647707,
				"element": "C" 
			},
			{
				"x": -0.0857895589,
				"y": -0.6252908796,
				"z": 0.5423716556,
				"element": "C" 
			},
			{
				"x": 1.3144505964,
				"y": -0.3534403301,
				"z": 0.4428565337,
				"element": "C" 
			},
			{
				"x": 1.6991809333,
				"y": 0.9917755542,
				"z": 0.2758966937,
				"element": "C" 
			},
			{
				"x": 0.7700236309,
				"y": 1.9824121689,
				"z": 0.2130930029,
				"element": "O" 
			},
			{
				"x": -0.6088032861,
				"y": 1.7584460149,
				"z": 0.3064172018,
				"element": "C" 
			},
			{
				"x": -1.3186094793,
				"y": 2.7344395224,
				"z": 0.2346374391,
				"element": "O" 
			},
			{
				"x": 3.0441246361,
				"y": 1.3532627765,
				"z": 0.1693301616,
				"element": "C" 
			},
			{
				"x": 4.012425473,
				"y": 0.3570565051,
				"z": 0.2306549588,
				"element": "C" 
			},
			{
				"x": 3.654555547,
				"y": -0.9921811891,
				"z": 0.3966789607,
				"element": "C" 
			},
			{
				"x": 2.3179909013,
				"y": -1.3429173288,
				"z": 0.5016826366,
				"element": "C" 
			},
			{
				"x": -4.5270826857,
				"y": 0.4949098559,
				"z": 0.6384744528,
				"element": "H" 
			},
			{
				"x": -3.4347477424,
				"y": 1.7450367203,
				"z": 1.324547813,
				"element": "H" 
			},
			{
				"x": -3.5197339424,
				"y": 1.5542704809,
				"z": -0.405400242,
				"element": "H" 
			},
			{
				"x": -0.4377587084,
				"y": -1.6458340987,
				"z": 0.6721180089,
				"element": "H" 
			},
			{
				"x": 3.302311654,
				"y": 2.3986250211,
				"z": 0.0416396085,
				"element": "H" 
			},
			{
				"x": 5.0604089269,
				"y": 0.6292445315,
				"z": 0.1486696401,
				"element": "H" 
			},
			{
				"x": 4.4245348925,
				"y": -1.755311986,
				"z": 0.4421875996,
				"element": "H" 
			},
			{
				"x": 2.0234688565,
				"y": -2.3805514453,
				"z": 0.630304147,
				"element": "H" 
			}
		],
		 "valence_orbital": [ 
			{
				"type": "occ",
				"energy": -0.32392,
				"method": "rhf"
			},
			{
				"type": "occ",
				"energy": -0.28398,
				"method": "rhf"
			},
			{
				"type": "occ",
				"energy": -0.26694,
				"method": "rhf"
			},
			{
				"type": "occ",
				"energy": -0.25559,
				"method": "rhf"
			},
			{
				"type": "occ",
				"energy": -0.24785,
				"method": "rhf"
			},
			{
				"type": "unocc",
				"energy": -0.0932,
				"method": "rhf"
			},
			{
				"type": "unocc",
				"energy": -0.02692,
				"method": "rhf"
			},
			{
				"type": "unocc",
				"energy": -0.009,
				"method": "rhf"
			},
			{
				"type": "unocc",
				"energy": -0.00218,
				"method": "rhf"
			},
			{
				"type": "unocc",
				"energy": 0.07674,
				"method": "rhf"
			}
		],
		"cosmo_sigma_profile": { 
			"-0.025": 0.0,
			"-0.024": 0.0,
			"-0.023": 0.0,
			"-0.022": 0.0,
			"-0.021": 0.0,
			"-0.02": 0.0,
			"-0.019": 0.0,
			"-0.018": 0.0,
			"-0.017": 0.0,
			"-0.016": 0.0,
			"-0.015": 0.0,
			"-0.014": 0.0,
			"-0.013": 0.0,
			"-0.012": 0.0,
			"-0.011": 0.0,
			"-0.01": 0.0,
			"-0.009": 1.10827792637,
			"-0.008": 4.03295750885,
			"-0.007": 9.06861738702,
			"-0.006": 11.6875879897,
			"-0.005": 18.7171245075,
			"-0.004": 16.9760192151,
			"-0.003": 15.8644647313,
			"-0.002": 17.4616981899,
			"-0.001": 21.4736675423,
			"0.0": 17.3166262076,
			"0.001": 15.3094689609,
			"0.002": 13.2688453335,
			"0.003": 10.5210342545,
			"0.004": 4.05020127006,
			"0.005": 3.34362877863,
			"0.006": 4.34097124946,
			"0.007": 3.14389604375,
			"0.008": 4.10560799928,
			"0.009": 3.76320304188,
			"0.01": 5.07664400774,
			"0.011": 6.89794727586,
			"0.012": 5.96422966177,
			"0.013": 1.68891940758,
			"0.014": 0.0338882733358,
			"0.015": 0.0,
			"0.016": 0.0,
			"0.017": 0.0,
			"0.018": 0.0,
			"0.019": 0.0,
			"0.02": 0.0,
			"0.021": 0.0,
			"0.022": 0.0,
			"0.023": 0.0,
			"0.024": 0.0,
			"0.025": 0.0
		}
	}
}
