{
	 "smiles": "CCC(C)NC(=O)C1=CC=C(N)C=C1", 
	 "Tm": 375.15, 
	 "num_atms": 30, 
	 "gaussian": { 
		 "optdone": 1, 
		 "sigma_profile": "yes", 
		 "theory": "DFT", 
		 "functional": "B3LYP", 
		 "basiset": "6-31G**", 
		 "properties": { 
			 "R2extent": 4462.2317, 
			 "electric_dipole_moment_norm": 4.12681160825, 
			 "electric_quadrupole_moment_norm": 19.2279242803, 
			 "total_energy": -613.579042204, 
			 "HOMO_LUMO_gap": 0.19172, 
			 "cosmo_polarized_energy": -17.15, 
			 "cosmo_cavitation_energy": 32.8, 
			 "cosmo_dispersion_energy": -23.55, 
			 "cosmo_repulsion_energy": 1.88, 
			 "cosmo_total_nonelectrostatic_energy": 11.13, 
			 "SMD_solvation_energy": 5.61 
		},
		"coords": [
			{
				"x": 2.6072410321,
				"y": 3.9071593682,
				"z": -1.9017576053,
				"element": "C" 
			},
			{
				"x": 1.6418515505,
				"y": 2.7191578102,
				"z": -1.8429971078,
				"element": "C" 
			},
			{
				"x": 2.0497699493,
				"y": 1.6225742067,
				"z": -0.8460980256,
				"element": "C" 
			},
			{
				"x": 3.388461003,
				"y": 0.9502023313,
				"z": -1.1810891859,
				"element": "C" 
			},
			{
				"x": 0.9770758714,
				"y": 0.6260965576,
				"z": -0.776754396,
				"element": "N" 
			},
			{
				"x": 0.7432657842,
				"y": -0.1061701317,
				"z": 0.3569163696,
				"element": "C" 
			},
			{
				"x": 1.4381361562,
				"y": 0.0253050656,
				"z": 1.3656185735,
				"element": "O" 
			},
			{
				"x": -0.4050690881,
				"y": -1.0666407031,
				"z": 0.3108074731,
				"element": "C" 
			},
			{
				"x": -0.911944328,
				"y": -1.5318887899,
				"z": 1.533376052,
				"element": "C" 
			},
			{
				"x": -1.9742631009,
				"y": -2.4224544175,
				"z": 1.5806060961,
				"element": "C" 
			},
			{
				"x": -2.5639930402,
				"y": -2.896959648,
				"z": 0.3931044444,
				"element": "C" 
			},
			{
				"x": -3.6612312499,
				"y": -3.7497292826,
				"z": 0.4353969189,
				"element": "N" 
			},
			{
				"x": -2.0450224062,
				"y": -2.4510993315,
				"z": -0.8361320121,
				"element": "C" 
			},
			{
				"x": -0.9851594242,
				"y": -1.5517997722,
				"z": -0.8706172263,
				"element": "C" 
			},
			{
				"x": 2.2263042084,
				"y": 4.682045882,
				"z": -2.5743139285,
				"element": "H" 
			},
			{
				"x": 2.7359101707,
				"y": 4.3595943395,
				"z": -0.9122233546,
				"element": "H" 
			},
			{
				"x": 3.5962124334,
				"y": 3.6130846617,
				"z": -2.2656519784,
				"element": "H" 
			},
			{
				"x": 1.5467061605,
				"y": 2.2756402017,
				"z": -2.8454714787,
				"element": "H" 
			},
			{
				"x": 0.6434481102,
				"y": 3.0802383328,
				"z": -1.5642345212,
				"element": "H" 
			},
			{
				"x": 2.1300947855,
				"y": 2.0599576316,
				"z": 0.156249814,
				"element": "H" 
			},
			{
				"x": 3.5931750742,
				"y": 0.1626939226,
				"z": -0.4520126142,
				"element": "H" 
			},
			{
				"x": 3.3619994955,
				"y": 0.502824623,
				"z": -2.1815264279,
				"element": "H" 
			},
			{
				"x": 4.2144963355,
				"y": 1.6672748394,
				"z": -1.1449396889,
				"element": "H" 
			},
			{
				"x": 0.2952145244,
				"y": 0.6090336874,
				"z": -1.51927259,
				"element": "H" 
			},
			{
				"x": -0.4443216604,
				"y": -1.1763968366,
				"z": 2.4454978158,
				"element": "H" 
			},
			{
				"x": -2.3588736288,
				"y": -2.7605923082,
				"z": 2.5398513774,
				"element": "H" 
			},
			{
				"x": -3.771419411,
				"y": -4.2832376539,
				"z": 1.2860781623,
				"element": "H" 
			},
			{
				"x": -3.8231475567,
				"y": -4.3033503614,
				"z": -0.3938205539,
				"element": "H" 
			},
			{
				"x": -2.4739326727,
				"y": -2.8204282058,
				"z": -1.7644347843,
				"element": "H" 
			},
			{
				"x": -0.587885078,
				"y": -1.2623360188,
				"z": -1.8400556174,
				"element": "H" 
			}
		],
		 "valence_orbital": [ 
			{
				"type": "occ",
				"energy": -0.30473,
				"method": "rhf"
			},
			{
				"type": "occ",
				"energy": -0.25173,
				"method": "rhf"
			},
			{
				"type": "occ",
				"energy": -0.23843,
				"method": "rhf"
			},
			{
				"type": "occ",
				"energy": -0.23538,
				"method": "rhf"
			},
			{
				"type": "occ",
				"energy": -0.2059,
				"method": "rhf"
			},
			{
				"type": "unocc",
				"energy": -0.01418,
				"method": "rhf"
			},
			{
				"type": "unocc",
				"energy": -0.00037,
				"method": "rhf"
			},
			{
				"type": "unocc",
				"energy": 0.07059,
				"method": "rhf"
			},
			{
				"type": "unocc",
				"energy": 0.08322,
				"method": "rhf"
			},
			{
				"type": "unocc",
				"energy": 0.08414,
				"method": "rhf"
			}
		],
		"cosmo_sigma_profile": { 
			"-0.025": 0.0,
			"-0.024": 0.0,
			"-0.023": 0.0,
			"-0.022": 0.0,
			"-0.021": 0.0,
			"-0.02": 0.0,
			"-0.019": 0.0,
			"-0.018": 0.0,
			"-0.017": 0.0,
			"-0.016": 0.0,
			"-0.015": 0.0,
			"-0.014": 0.0,
			"-0.013": 1.55683229563,
			"-0.012": 3.9781971481,
			"-0.011": 4.38053612103,
			"-0.01": 3.86101641759,
			"-0.009": 4.71858859754,
			"-0.008": 5.01890713294,
			"-0.007": 4.26501293888,
			"-0.006": 7.28659986137,
			"-0.005": 7.51728907901,
			"-0.004": 10.1573566533,
			"-0.003": 22.0322769723,
			"-0.002": 24.9224908546,
			"-0.001": 25.3835086169,
			"0.0": 23.3995797262,
			"0.001": 24.3031589206,
			"0.002": 16.0136544434,
			"0.003": 10.8731433865,
			"0.004": 9.70294495587,
			"0.005": 14.2756705699,
			"0.006": 8.66675842532,
			"0.007": 3.15794811973,
			"0.008": 3.17922841501,
			"0.009": 2.11435024295,
			"0.01": 2.37583235721,
			"0.011": 2.0694137048,
			"0.012": 2.30100113515,
			"0.013": 2.27689402601,
			"0.014": 4.07182192756,
			"0.015": 3.30719713846,
			"0.016": 0.00642473839014,
			"0.017": 0.0,
			"0.018": 0.0,
			"0.019": 0.0,
			"0.02": 0.0,
			"0.021": 0.0,
			"0.022": 0.0,
			"0.023": 0.0,
			"0.024": 0.0,
			"0.025": 0.0
		}
	}
}
