{
	 "smiles": "ClC1=CC2=C(CCCC2=O)C=C1", 
	 "Tm": 348.15, 
	 "num_atms": 21, 
	 "gaussian": { 
		 "optdone": 1, 
		 "sigma_profile": "yes", 
		 "theory": "DFT", 
		 "functional": "B3LYP", 
		 "basiset": "6-31G**", 
		 "properties": { 
			 "R2extent": 2979.1539, 
			 "electric_dipole_moment_norm": 4.39260469198, 
			 "electric_quadrupole_moment_norm": 7.44917114047, 
			 "total_energy": -921.921397155, 
			 "HOMO_LUMO_gap": 0.184, 
			 "cosmo_polarized_energy": -8.48, 
			 "cosmo_cavitation_energy": 25.72, 
			 "cosmo_dispersion_energy": -19.39, 
			 "cosmo_repulsion_energy": 1.54, 
			 "cosmo_total_nonelectrostatic_energy": 7.87, 
			 "SMD_solvation_energy": 4.01 
		},
		"coords": [
			{
				"x": 0.1155905093,
				"y": -0.8838357182,
				"z": -4.2264132962,
				"element": "Cl" 
			},
			{
				"x": 0.0689184576,
				"y": -0.5581010117,
				"z": -2.4995465771,
				"element": "C" 
			},
			{
				"x": 1.2493389824,
				"y": -0.344905757,
				"z": -1.8044520019,
				"element": "C" 
			},
			{
				"x": 1.2031340774,
				"y": -0.0822319133,
				"z": -0.4267111638,
				"element": "C" 
			},
			{
				"x": -0.0285827219,
				"y": -0.0388152721,
				"z": 0.2566378381,
				"element": "C" 
			},
			{
				"x": -0.0812952278,
				"y": 0.252874665,
				"z": 1.7414735738,
				"element": "C" 
			},
			{
				"x": 1.2102846978,
				"y": -0.164832532,
				"z": 2.4551295504,
				"element": "C" 
			},
			{
				"x": 2.4271182453,
				"y": 0.4689648826,
				"z": 1.7705341037,
				"element": "C" 
			},
			{
				"x": 2.5012776987,
				"y": 0.146369791,
				"z": 0.2845879279,
				"element": "C" 
			},
			{
				"x": 3.5695279818,
				"y": 0.0956031157,
				"z": -0.3048349012,
				"element": "O" 
			},
			{
				"x": -1.2014979668,
				"y": -0.2636504263,
				"z": -0.4751159653,
				"element": "C" 
			},
			{
				"x": -1.1652187147,
				"y": -0.5200557857,
				"z": -1.8433460185,
				"element": "C" 
			},
			{
				"x": 2.2151757697,
				"y": -0.37344008,
				"z": -2.2958706058,
				"element": "H" 
			},
			{
				"x": -0.2401653514,
				"y": 1.3318464048,
				"z": 1.8902561826,
				"element": "H" 
			},
			{
				"x": -0.9500335302,
				"y": -0.24584503,
				"z": 2.1851459614,
				"element": "H" 
			},
			{
				"x": 1.3031199812,
				"y": -1.2579626341,
				"z": 2.4315901102,
				"element": "H" 
			},
			{
				"x": 1.1731431506,
				"y": 0.1281022013,
				"z": 3.5096001451,
				"element": "H" 
			},
			{
				"x": 3.374476175,
				"y": 0.1679068801,
				"z": 2.225929238,
				"element": "H" 
			},
			{
				"x": 2.3680782952,
				"y": 1.5648302757,
				"z": 1.8570699716,
				"element": "H" 
			},
			{
				"x": -2.1614433011,
				"y": -0.2430270481,
				"z": 0.0343374941,
				"element": "H" 
			},
			{
				"x": -2.0801472083,
				"y": -0.6955950078,
				"z": -2.398801567,
				"element": "H" 
			}
		],
		 "valence_orbital": [ 
			{
				"type": "occ",
				"energy": -0.32736,
				"method": "rhf"
			},
			{
				"type": "occ",
				"energy": -0.31492,
				"method": "rhf"
			},
			{
				"type": "occ",
				"energy": -0.26904,
				"method": "rhf"
			},
			{
				"type": "occ",
				"energy": -0.2502,
				"method": "rhf"
			},
			{
				"type": "occ",
				"energy": -0.24737,
				"method": "rhf"
			},
			{
				"type": "unocc",
				"energy": -0.06337,
				"method": "rhf"
			},
			{
				"type": "unocc",
				"energy": -0.02034,
				"method": "rhf"
			},
			{
				"type": "unocc",
				"energy": 0.0283,
				"method": "rhf"
			},
			{
				"type": "unocc",
				"energy": 0.03126,
				"method": "rhf"
			},
			{
				"type": "unocc",
				"energy": 0.08675,
				"method": "rhf"
			}
		],
		"cosmo_sigma_profile": { 
			"-0.025": 0.0,
			"-0.024": 0.0,
			"-0.023": 0.0,
			"-0.022": 0.0,
			"-0.021": 0.0,
			"-0.02": 0.0,
			"-0.019": 0.0,
			"-0.018": 0.0,
			"-0.017": 0.0,
			"-0.016": 0.0,
			"-0.015": 0.0,
			"-0.014": 0.0,
			"-0.013": 0.0,
			"-0.012": 0.0,
			"-0.011": 0.0,
			"-0.01": 0.0,
			"-0.009": 0.0,
			"-0.008": 0.761737985945,
			"-0.007": 3.03656619871,
			"-0.006": 9.05952068581,
			"-0.005": 13.8443153455,
			"-0.004": 18.9308166471,
			"-0.003": 21.4874896129,
			"-0.002": 21.0943866733,
			"-0.001": 18.7476914912,
			"0.0": 14.2057218529,
			"0.001": 16.2398452619,
			"0.002": 20.2477045848,
			"0.003": 13.398333882,
			"0.004": 10.5383377298,
			"0.005": 7.77473622116,
			"0.006": 1.37773524839,
			"0.007": 1.75719019324,
			"0.008": 1.82276409108,
			"0.009": 1.60912227636,
			"0.01": 2.01735385746,
			"0.011": 2.80844499769,
			"0.012": 4.22246071066,
			"0.013": 1.41485183447,
			"0.014": 0.238711728505,
			"0.015": 0.0,
			"0.016": 0.0,
			"0.017": 0.0,
			"0.018": 0.0,
			"0.019": 0.0,
			"0.02": 0.0,
			"0.021": 0.0,
			"0.022": 0.0,
			"0.023": 0.0,
			"0.024": 0.0,
			"0.025": 0.0
		}
	}
}
