{
	 "smiles": "OC1=CC=CC=C1C(=O)C1=CC=CC=C1", 
	 "Tm": 312.65, 
	 "num_atms": 25, 
	 "gaussian": { 
		 "optdone": 1, 
		 "sigma_profile": "yes", 
		 "theory": "DFT", 
		 "functional": "B3LYP", 
		 "basiset": "6-31G**", 
		 "properties": { 
			 "R2extent": 3766.4937, 
			 "electric_dipole_moment_norm": 3.46817296281, 
			 "electric_quadrupole_moment_norm": 11.0625195661, 
			 "total_energy": -651.868799634, 
			 "HOMO_LUMO_gap": 0.15381, 
			 "cosmo_polarized_energy": -8.22, 
			 "cosmo_cavitation_energy": 28.82, 
			 "cosmo_dispersion_energy": -21.48, 
			 "cosmo_repulsion_energy": 1.65, 
			 "cosmo_total_nonelectrostatic_energy": 9.0, 
			 "SMD_solvation_energy": 5.48 
		},
		"coords": [
			{
				"x": -1.6271653777,
				"y": 3.4714319617,
				"z": -0.5595658808,
				"element": "O" 
			},
			{
				"x": -1.5560950031,
				"y": 2.3868163805,
				"z": -1.3390514034,
				"element": "C" 
			},
			{
				"x": -1.7723069777,
				"y": 2.5511131566,
				"z": -2.7183865281,
				"element": "C" 
			},
			{
				"x": -1.7581868909,
				"y": 1.4524915584,
				"z": -3.5632633102,
				"element": "C" 
			},
			{
				"x": -1.532497338,
				"y": 0.1603922002,
				"z": -3.060957033,
				"element": "C" 
			},
			{
				"x": -1.2907263397,
				"y": -0.0093234459,
				"z": -1.7075218247,
				"element": "C" 
			},
			{
				"x": -1.2677967201,
				"y": 1.0890897861,
				"z": -0.8185485827,
				"element": "C" 
			},
			{
				"x": -1.0057362957,
				"y": 0.9510135312,
				"z": 0.6237546523,
				"element": "C" 
			},
			{
				"x": -1.243129015,
				"y": 1.8956473915,
				"z": 1.4026097494,
				"element": "O" 
			},
			{
				"x": -0.4492017057,
				"y": -0.3074151762,
				"z": 1.2143581681,
				"element": "C" 
			},
			{
				"x": -0.9083748913,
				"y": -0.692712496,
				"z": 2.4842212002,
				"element": "C" 
			},
			{
				"x": -0.3888794938,
				"y": -1.8229839583,
				"z": 3.1088803841,
				"element": "C" 
			},
			{
				"x": 0.6198122732,
				"y": -2.5648893025,
				"z": 2.4873334756,
				"element": "C" 
			},
			{
				"x": 1.1060662214,
				"y": -2.1705537239,
				"z": 1.2398994155,
				"element": "C" 
			},
			{
				"x": 0.571279334,
				"y": -1.0512095726,
				"z": 0.6011397016,
				"element": "C" 
			},
			{
				"x": -1.5341448582,
				"y": 3.1446454634,
				"z": 0.3749276727,
				"element": "H" 
			},
			{
				"x": -1.9691155237,
				"y": 3.5523127715,
				"z": -3.0866560822,
				"element": "H" 
			},
			{
				"x": -1.940814345,
				"y": 1.5948147092,
				"z": -4.6249068119,
				"element": "H" 
			},
			{
				"x": -1.5535367622,
				"y": -0.6978759381,
				"z": -3.7244267121,
				"element": "H" 
			},
			{
				"x": -1.1385138812,
				"y": -1.0070143303,
				"z": -1.312521412,
				"element": "H" 
			},
			{
				"x": -1.6728979014,
				"y": -0.0925899443,
				"z": 2.9662070817,
				"element": "H" 
			},
			{
				"x": -0.7629132154,
				"y": -2.122179816,
				"z": 4.0835771733,
				"element": "H" 
			},
			{
				"x": 1.0311898583,
				"y": -3.442015221,
				"z": 2.9785462752,
				"element": "H" 
			},
			{
				"x": 1.9057625451,
				"y": -2.7307324816,
				"z": 0.7643972824,
				"element": "H" 
			},
			{
				"x": 0.9689223038,
				"y": -0.7371735035,
				"z": -0.3580466508,
				"element": "H" 
			}
		],
		 "valence_orbital": [ 
			{
				"type": "occ",
				"energy": -0.27161,
				"method": "rhf"
			},
			{
				"type": "occ",
				"energy": -0.26433,
				"method": "rhf"
			},
			{
				"type": "occ",
				"energy": -0.2622,
				"method": "rhf"
			},
			{
				"type": "occ",
				"energy": -0.25655,
				"method": "rhf"
			},
			{
				"type": "occ",
				"energy": -0.22526,
				"method": "rhf"
			},
			{
				"type": "unocc",
				"energy": -0.07145,
				"method": "rhf"
			},
			{
				"type": "unocc",
				"energy": -0.01873,
				"method": "rhf"
			},
			{
				"type": "unocc",
				"energy": -0.01303,
				"method": "rhf"
			},
			{
				"type": "unocc",
				"energy": 0.00549,
				"method": "rhf"
			},
			{
				"type": "unocc",
				"energy": 0.04889,
				"method": "rhf"
			}
		],
		"cosmo_sigma_profile": { 
			"-0.025": 0.0,
			"-0.024": 0.0,
			"-0.023": 0.0,
			"-0.022": 0.0,
			"-0.021": 0.0,
			"-0.02": 0.0,
			"-0.019": 0.0,
			"-0.018": 0.0,
			"-0.017": 0.0,
			"-0.016": 0.0,
			"-0.015": 0.0,
			"-0.014": 0.0,
			"-0.013": 0.0,
			"-0.012": 0.0,
			"-0.011": 0.0,
			"-0.01": 0.0,
			"-0.009": 0.0,
			"-0.008": 0.0,
			"-0.007": 2.83598442416,
			"-0.006": 16.4186098477,
			"-0.005": 20.2176937781,
			"-0.004": 22.2966389167,
			"-0.003": 18.133627,
			"-0.002": 16.6433784691,
			"-0.001": 15.0036520293,
			"0.0": 16.6491218276,
			"0.001": 16.4088266354,
			"0.002": 17.6946355447,
			"0.003": 21.3304622751,
			"0.004": 22.5891818208,
			"0.005": 6.27155195789,
			"0.006": 2.48002108735,
			"0.007": 3.23316057965,
			"0.008": 3.41941601369,
			"0.009": 2.75191835294,
			"0.01": 2.90636753156,
			"0.011": 3.57433648313,
			"0.012": 1.13498560358,
			"0.013": 0.0124563453785,
			"0.014": 0.0,
			"0.015": 0.0,
			"0.016": 0.0,
			"0.017": 0.0,
			"0.018": 0.0,
			"0.019": 0.0,
			"0.02": 0.0,
			"0.021": 0.0,
			"0.022": 0.0,
			"0.023": 0.0,
			"0.024": 0.0,
			"0.025": 0.0
		}
	}
}
