{
	 "smiles": "ClC1=C(Cl)N=CC(=C1)C(=O)NC1CCCC1", 
	 "Tm": 433.15, 
	 "num_atms": 28, 
	 "gaussian": { 
		 "optdone": 1, 
		 "sigma_profile": "yes", 
		 "theory": "DFT", 
		 "functional": "B3LYP", 
		 "basiset": "6-31G**", 
		 "properties": { 
			 "R2extent": 7913.3699, 
			 "electric_dipole_moment_norm": 5.36704860142, 
			 "electric_quadrupole_moment_norm": 11.7733323549, 
			 "total_energy": -1531.52371861, 
			 "HOMO_LUMO_gap": 0.19229, 
			 "cosmo_polarized_energy": -13.04, 
			 "cosmo_cavitation_energy": 34.89, 
			 "cosmo_dispersion_energy": -24.86, 
			 "cosmo_repulsion_energy": 1.98, 
			 "cosmo_total_nonelectrostatic_energy": 12.01, 
			 "SMD_solvation_energy": 3.61 
		},
		"coords": [
			{
				"x": 1.8230084867,
				"y": 4.394829433,
				"z": 1.4716177235,
				"element": "Cl" 
			},
			{
				"x": 1.9667920043,
				"y": 3.4595425988,
				"z": 0.007989861,
				"element": "C" 
			},
			{
				"x": 1.7824797595,
				"y": 4.0186802482,
				"z": -1.2680965982,
				"element": "C" 
			},
			{
				"x": 1.3660079958,
				"y": 5.7069017144,
				"z": -1.449076668,
				"element": "Cl" 
			},
			{
				"x": 1.9161160697,
				"y": 3.3194955185,
				"z": -2.3826153571,
				"element": "N" 
			},
			{
				"x": 2.2374614765,
				"y": 2.0267985192,
				"z": -2.2992564769,
				"element": "C" 
			},
			{
				"x": 2.4111258918,
				"y": 1.3561281237,
				"z": -1.0830829791,
				"element": "C" 
			},
			{
				"x": 2.2822629498,
				"y": 2.1050054402,
				"z": 0.0900543097,
				"element": "C" 
			},
			{
				"x": 2.8410627075,
				"y": -0.0851825633,
				"z": -1.1216771565,
				"element": "C" 
			},
			{
				"x": 3.6281418901,
				"y": -0.4606396389,
				"z": -1.9848060559,
				"element": "O" 
			},
			{
				"x": 2.3744963691,
				"y": -0.9383367909,
				"z": -0.1534983323,
				"element": "N" 
			},
			{
				"x": 1.1347471618,
				"y": -0.8750586973,
				"z": 0.6161884481,
				"element": "C" 
			},
			{
				"x": 0.1025654736,
				"y": -1.9532223315,
				"z": 0.2302293085,
				"element": "C" 
			},
			{
				"x": -0.9018283029,
				"y": -1.9214276302,
				"z": 1.3955681953,
				"element": "C" 
			},
			{
				"x": -0.0679849344,
				"y": -1.5292853223,
				"z": 2.6552224955,
				"element": "C" 
			},
			{
				"x": 1.3268068462,
				"y": -1.1051499305,
				"z": 2.130313206,
				"element": "C" 
			},
			{
				"x": 2.3667055626,
				"y": 1.4907578866,
				"z": -3.2347823694,
				"element": "H" 
			},
			{
				"x": 2.4476341507,
				"y": 1.656429823,
				"z": 1.0631901501,
				"element": "H" 
			},
			{
				"x": 2.7655544477,
				"y": -1.8670859608,
				"z": -0.273889783,
				"element": "H" 
			},
			{
				"x": 0.6872670748,
				"y": 0.1081479977,
				"z": 0.4470998103,
				"element": "H" 
			},
			{
				"x": 0.6075906983,
				"y": -2.9279719539,
				"z": 0.1828056629,
				"element": "H" 
			},
			{
				"x": -0.3525093292,
				"y": -1.7725079561,
				"z": -0.7481615546,
				"element": "H" 
			},
			{
				"x": -1.4242792883,
				"y": -2.8740935303,
				"z": 1.518300236,
				"element": "H" 
			},
			{
				"x": -1.6690907697,
				"y": -1.1639160586,
				"z": 1.2016034172,
				"element": "H" 
			},
			{
				"x": -0.5520922827,
				"y": -0.7125401949,
				"z": 3.1988379675,
				"element": "H" 
			},
			{
				"x": 0.0170782524,
				"y": -2.3631134094,
				"z": 3.3578035307,
				"element": "H" 
			},
			{
				"x": 1.7318030261,
				"y": -0.2261137368,
				"z": 2.6414887984,
				"element": "H" 
			},
			{
				"x": 2.0551766123,
				"y": -1.9137715976,
				"z": 2.26733021,
				"element": "H" 
			}
		],
		 "valence_orbital": [ 
			{
				"type": "occ",
				"energy": -0.29998,
				"method": "rhf"
			},
			{
				"type": "occ",
				"energy": -0.28983,
				"method": "rhf"
			},
			{
				"type": "occ",
				"energy": -0.27199,
				"method": "rhf"
			},
			{
				"type": "occ",
				"energy": -0.26233,
				"method": "rhf"
			},
			{
				"type": "occ",
				"energy": -0.25315,
				"method": "rhf"
			},
			{
				"type": "unocc",
				"energy": -0.06086,
				"method": "rhf"
			},
			{
				"type": "unocc",
				"energy": -0.04911,
				"method": "rhf"
			},
			{
				"type": "unocc",
				"energy": -0.00096,
				"method": "rhf"
			},
			{
				"type": "unocc",
				"energy": 0.02889,
				"method": "rhf"
			},
			{
				"type": "unocc",
				"energy": 0.04932,
				"method": "rhf"
			}
		],
		"cosmo_sigma_profile": { 
			"-0.025": 0.0,
			"-0.024": 0.0,
			"-0.023": 0.0,
			"-0.022": 0.0,
			"-0.021": 0.0,
			"-0.02": 0.0,
			"-0.019": 0.0,
			"-0.018": 0.0,
			"-0.017": 0.0,
			"-0.016": 0.0,
			"-0.015": 0.0,
			"-0.014": 0.0271308178691,
			"-0.013": 0.601848607223,
			"-0.012": 0.99557552973,
			"-0.011": 0.950486871621,
			"-0.01": 1.33436188239,
			"-0.009": 1.23889633058,
			"-0.008": 3.44195889163,
			"-0.007": 5.62217340119,
			"-0.006": 6.43537713437,
			"-0.005": 9.91814979731,
			"-0.004": 15.9193989602,
			"-0.003": 30.1296402856,
			"-0.002": 37.3337649222,
			"-0.001": 33.6899875146,
			"0.0": 27.4046312359,
			"0.001": 25.1069426698,
			"0.002": 15.2050792271,
			"0.003": 19.6664956469,
			"0.004": 13.9890321201,
			"0.005": 4.70330197737,
			"0.006": 2.8735313217,
			"0.007": 3.24925545563,
			"0.008": 2.49362196267,
			"0.009": 1.89986578254,
			"0.01": 2.56826788343,
			"0.011": 2.62780362505,
			"0.012": 2.98805212329,
			"0.013": 6.45326923991,
			"0.014": 1.85660976311,
			"0.015": 0.0,
			"0.016": 0.0,
			"0.017": 0.0,
			"0.018": 0.0,
			"0.019": 0.0,
			"0.02": 0.0,
			"0.021": 0.0,
			"0.022": 0.0,
			"0.023": 0.0,
			"0.024": 0.0,
			"0.025": 0.0
		}
	}
}
