{
	 "smiles": "SC1=NC2=C(C=CC(Cl)=C2)C(=O)N1CC=C", 
	 "Tm": 413.15, 
	 "num_atms": 25, 
	 "gaussian": { 
		 "optdone": 1, 
		 "sigma_profile": "yes", 
		 "theory": "DFT", 
		 "functional": "B3LYP", 
		 "basiset": "6-31G**", 
		 "properties": { 
			 "R2extent": 5781.6363, 
			 "electric_dipole_moment_norm": 2.17460577347, 
			 "electric_quadrupole_moment_norm": 7.53051184449, 
			 "total_energy": -1467.69938262, 
			 "HOMO_LUMO_gap": 0.1796, 
			 "cosmo_polarized_energy": -10.36, 
			 "cosmo_cavitation_energy": 32.69, 
			 "cosmo_dispersion_energy": -24.02, 
			 "cosmo_repulsion_energy": 1.82, 
			 "cosmo_total_nonelectrostatic_energy": 10.49, 
			 "SMD_solvation_energy": 4.57 
		},
		"coords": [
			{
				"x": 3.5491678438,
				"y": -0.0747908406,
				"z": -1.0972145073,
				"element": "S" 
			},
			{
				"x": 1.8336665263,
				"y": 0.4066119045,
				"z": -0.9469517459,
				"element": "C" 
			},
			{
				"x": 1.5526262548,
				"y": 1.6699339675,
				"z": -0.9749494457,
				"element": "N" 
			},
			{
				"x": 0.2247518364,
				"y": 2.0391963345,
				"z": -0.8685011652,
				"element": "C" 
			},
			{
				"x": -0.8101117141,
				"y": 1.0880576301,
				"z": -0.7425421403,
				"element": "C" 
			},
			{
				"x": -2.1474143675,
				"y": 1.5037205396,
				"z": -0.6408082959,
				"element": "C" 
			},
			{
				"x": -2.4649995599,
				"y": 2.8512372747,
				"z": -0.6610957535,
				"element": "C" 
			},
			{
				"x": -1.4256957467,
				"y": 3.7909890501,
				"z": -0.7858985802,
				"element": "C" 
			},
			{
				"x": -1.8316990034,
				"y": 5.4982639461,
				"z": -0.8110968315,
				"element": "Cl" 
			},
			{
				"x": -0.098479401,
				"y": 3.410702097,
				"z": -0.8893409417,
				"element": "C" 
			},
			{
				"x": -0.4807786977,
				"y": -0.3359144934,
				"z": -0.7220270053,
				"element": "C" 
			},
			{
				"x": -1.2916398137,
				"y": -1.2473298528,
				"z": -0.6355934277,
				"element": "O" 
			},
			{
				"x": 0.9122620301,
				"y": -0.6159218225,
				"z": -0.8184424187,
				"element": "N" 
			},
			{
				"x": 1.2980911662,
				"y": -2.0341546688,
				"z": -0.7924043728,
				"element": "C" 
			},
			{
				"x": 1.7035259167,
				"y": -2.5564789695,
				"z": 0.5640775035,
				"element": "C" 
			},
			{
				"x": 1.6445955713,
				"y": -1.8980927373,
				"z": 1.7187766006,
				"element": "C" 
			},
			{
				"x": 3.9384486278,
				"y": 1.1973740256,
				"z": -1.2962960224,
				"element": "H" 
			},
			{
				"x": -2.9178769476,
				"y": 0.7459794672,
				"z": -0.5465020744,
				"element": "H" 
			},
			{
				"x": -3.492163795,
				"y": 3.1878644139,
				"z": -0.58297615,
				"element": "H" 
			},
			{
				"x": 0.6974618478,
				"y": 4.1389459228,
				"z": -0.9860967055,
				"element": "H" 
			},
			{
				"x": 2.1006961813,
				"y": -2.1905272509,
				"z": -1.5214781507,
				"element": "H" 
			},
			{
				"x": 0.4233349768,
				"y": -2.5866414857,
				"z": -1.1468053245,
				"element": "H" 
			},
			{
				"x": 2.054759345,
				"y": -3.587560061,
				"z": 0.5454064881,
				"element": "H" 
			},
			{
				"x": 1.297850843,
				"y": -0.8709717236,
				"z": 1.7828769243,
				"element": "H" 
			},
			{
				"x": 1.9447200793,
				"y": -2.3703926674,
				"z": 2.6482835427,
				"element": "H" 
			}
		],
		 "valence_orbital": [ 
			{
				"type": "occ",
				"energy": -0.28539,
				"method": "rhf"
			},
			{
				"type": "occ",
				"energy": -0.27717,
				"method": "rhf"
			},
			{
				"type": "occ",
				"energy": -0.26707,
				"method": "rhf"
			},
			{
				"type": "occ",
				"energy": -0.26007,
				"method": "rhf"
			},
			{
				"type": "occ",
				"energy": -0.23335,
				"method": "rhf"
			},
			{
				"type": "unocc",
				"energy": -0.05375,
				"method": "rhf"
			},
			{
				"type": "unocc",
				"energy": -0.04572,
				"method": "rhf"
			},
			{
				"type": "unocc",
				"energy": -0.00285,
				"method": "rhf"
			},
			{
				"type": "unocc",
				"energy": 0.00891,
				"method": "rhf"
			},
			{
				"type": "unocc",
				"energy": 0.01624,
				"method": "rhf"
			}
		],
		"cosmo_sigma_profile": { 
			"-0.025": 0.0,
			"-0.024": 0.0,
			"-0.023": 0.0,
			"-0.022": 0.0,
			"-0.021": 0.0,
			"-0.02": 0.0,
			"-0.019": 0.0,
			"-0.018": 0.0,
			"-0.017": 0.0,
			"-0.016": 0.0,
			"-0.015": 0.0,
			"-0.014": 0.0,
			"-0.013": 0.00649411726752,
			"-0.012": 0.935975106929,
			"-0.011": 1.46547410148,
			"-0.01": 1.06860322706,
			"-0.009": 0.929137669338,
			"-0.008": 2.85876167254,
			"-0.007": 8.48721932408,
			"-0.006": 17.2607752143,
			"-0.005": 18.517670198,
			"-0.004": 16.007394363,
			"-0.003": 16.1251295062,
			"-0.002": 16.4310276814,
			"-0.001": 17.8332182258,
			"0.0": 22.214185197,
			"0.001": 31.6701213095,
			"0.002": 23.7048901264,
			"0.003": 16.3282369551,
			"0.004": 17.7616610901,
			"0.005": 9.95038385209,
			"0.006": 8.15994443201,
			"0.007": 4.13801829134,
			"0.008": 1.97978723079,
			"0.009": 2.94433764397,
			"0.01": 2.67564311128,
			"0.011": 3.17221479708,
			"0.012": 4.22546830052,
			"0.013": 0.392785936319,
			"0.014": 0.0,
			"0.015": 0.0,
			"0.016": 0.0,
			"0.017": 0.0,
			"0.018": 0.0,
			"0.019": 0.0,
			"0.02": 0.0,
			"0.021": 0.0,
			"0.022": 0.0,
			"0.023": 0.0,
			"0.024": 0.0,
			"0.025": 0.0
		}
	}
}
