{
	 "smiles": "CC1=CC(=CC=C1)C1(CCCCC1)C(O)=O", 
	 "Tm": 415.15, 
	 "num_atms": 34, 
	 "gaussian": { 
		 "optdone": 1, 
		 "sigma_profile": "yes", 
		 "theory": "DFT", 
		 "functional": "B3LYP", 
		 "basiset": "6-31G**", 
		 "properties": { 
			 "R2extent": 3668.0007, 
			 "electric_dipole_moment_norm": 1.32831310691, 
			 "electric_quadrupole_moment_norm": 6.94821947912, 
			 "total_energy": -694.812878929, 
			 "HOMO_LUMO_gap": 0.22691, 
			 "cosmo_polarized_energy": -9.45, 
			 "cosmo_cavitation_energy": 33.94, 
			 "cosmo_dispersion_energy": -24.03, 
			 "cosmo_repulsion_energy": 1.89, 
			 "cosmo_total_nonelectrostatic_energy": 11.8, 
			 "SMD_solvation_energy": 6.13 
		},
		"coords": [
			{
				"x": 1.1499987866,
				"y": 0.6480118412,
				"z": 3.4501742726,
				"element": "C" 
			},
			{
				"x": 0.4701004131,
				"y": 1.0883084229,
				"z": 2.1743533736,
				"element": "C" 
			},
			{
				"x": 0.2411751279,
				"y": 0.1831388556,
				"z": 1.1343382113,
				"element": "C" 
			},
			{
				"x": -0.4021308136,
				"y": 0.5552332098,
				"z": -0.0592527759,
				"element": "C" 
			},
			{
				"x": -0.8117577576,
				"y": 1.8855684129,
				"z": -0.1946330571,
				"element": "C" 
			},
			{
				"x": -0.5931522649,
				"y": 2.8037608812,
				"z": 0.8364240221,
				"element": "C" 
			},
			{
				"x": 0.0412127403,
				"y": 2.4132369055,
				"z": 2.011491042,
				"element": "C" 
			},
			{
				"x": -0.6053347327,
				"y": -0.5288424195,
				"z": -1.1474616216,
				"element": "C" 
			},
			{
				"x": -1.4683048761,
				"y": -1.6915341444,
				"z": -0.5966773551,
				"element": "C" 
			},
			{
				"x": -2.8825780859,
				"y": -1.2297021646,
				"z": -0.1906881511,
				"element": "C" 
			},
			{
				"x": -3.4634376525,
				"y": -0.1611072577,
				"z": -1.1493344261,
				"element": "C" 
			},
			{
				"x": -2.7977074432,
				"y": -0.2325277799,
				"z": -2.5293667291,
				"element": "C" 
			},
			{
				"x": -1.2627229113,
				"y": -0.0269387475,
				"z": -2.4748731372,
				"element": "C" 
			},
			{
				"x": 0.7972568094,
				"y": -1.0602154845,
				"z": -1.4638468415,
				"element": "C" 
			},
			{
				"x": 1.5185823092,
				"y": -0.188185616,
				"z": -2.2098960814,
				"element": "O" 
			},
			{
				"x": 1.2568572485,
				"y": -2.1213629032,
				"z": -1.0970466626,
				"element": "O" 
			},
			{
				"x": 1.916087853,
				"y": 1.3654402431,
				"z": 3.7630634119,
				"element": "H" 
			},
			{
				"x": 0.4311820844,
				"y": 0.5654373701,
				"z": 4.2747898994,
				"element": "H" 
			},
			{
				"x": 1.6290142865,
				"y": -0.3278779746,
				"z": 3.3323286138,
				"element": "H" 
			},
			{
				"x": 0.5896544907,
				"y": -0.8398746362,
				"z": 1.2505955003,
				"element": "H" 
			},
			{
				"x": -1.3046968085,
				"y": 2.2256578991,
				"z": -1.0976032144,
				"element": "H" 
			},
			{
				"x": -0.9194621081,
				"y": 3.832871128,
				"z": 0.7130541453,
				"element": "H" 
			},
			{
				"x": 0.2102666327,
				"y": 3.1369403196,
				"z": 2.8052162741,
				"element": "H" 
			},
			{
				"x": -1.5312744552,
				"y": -2.4546501723,
				"z": -1.3814574839,
				"element": "H" 
			},
			{
				"x": -0.9656953637,
				"y": -2.174398083,
				"z": 0.2438776879,
				"element": "H" 
			},
			{
				"x": -2.861769461,
				"y": -0.8324900268,
				"z": 0.8296372464,
				"element": "H" 
			},
			{
				"x": -3.5349993795,
				"y": -2.1102563829,
				"z": -0.1654504791,
				"element": "H" 
			},
			{
				"x": -3.3098878856,
				"y": 0.8369806189,
				"z": -0.7257745869,
				"element": "H" 
			},
			{
				"x": -4.5472382014,
				"y": -0.2878743301,
				"z": -1.2493201549,
				"element": "H" 
			},
			{
				"x": -3.0149721538,
				"y": -1.212471465,
				"z": -2.9729704572,
				"element": "H" 
			},
			{
				"x": -3.2380189521,
				"y": 0.5077710632,
				"z": -3.2070860792,
				"element": "H" 
			},
			{
				"x": -0.8133409823,
				"y": -0.5758616386,
				"z": -3.3086524302,
				"element": "H" 
			},
			{
				"x": -0.9985543884,
				"y": 1.0179539332,
				"z": -2.6507849609,
				"element": "H" 
			},
			{
				"x": 2.3897478951,
				"y": -0.6009398775,
				"z": -2.3335670156,
				"element": "H" 
			}
		],
		 "valence_orbital": [ 
			{
				"type": "occ",
				"energy": -0.30057,
				"method": "rhf"
			},
			{
				"type": "occ",
				"energy": -0.29809,
				"method": "rhf"
			},
			{
				"type": "occ",
				"energy": -0.26986,
				"method": "rhf"
			},
			{
				"type": "occ",
				"energy": -0.24191,
				"method": "rhf"
			},
			{
				"type": "occ",
				"energy": -0.23543,
				"method": "rhf"
			},
			{
				"type": "unocc",
				"energy": -0.00852,
				"method": "rhf"
			},
			{
				"type": "unocc",
				"energy": -0.00044,
				"method": "rhf"
			},
			{
				"type": "unocc",
				"energy": 0.02561,
				"method": "rhf"
			},
			{
				"type": "unocc",
				"energy": 0.07405,
				"method": "rhf"
			},
			{
				"type": "unocc",
				"energy": 0.08639,
				"method": "rhf"
			}
		],
		"cosmo_sigma_profile": { 
			"-0.025": 0.0,
			"-0.024": 0.0,
			"-0.023": 0.0,
			"-0.022": 0.0,
			"-0.021": 0.0,
			"-0.02": 0.0,
			"-0.019": 0.0372371455369,
			"-0.018": 0.600276850606,
			"-0.017": 0.96150298956,
			"-0.016": 1.12741339543,
			"-0.015": 0.561254344379,
			"-0.014": 0.494755387779,
			"-0.013": 0.235302753018,
			"-0.012": 0.81358630708,
			"-0.011": 0.959817573341,
			"-0.01": 0.676683310261,
			"-0.009": 0.75190215076,
			"-0.008": 0.536755798327,
			"-0.007": 0.978684551346,
			"-0.006": 2.96665450227,
			"-0.005": 8.12355624505,
			"-0.004": 18.0002150286,
			"-0.003": 26.4372924438,
			"-0.002": 32.0747174548,
			"-0.001": 33.6649078392,
			"0.0": 35.987924758,
			"0.001": 27.3608906586,
			"0.002": 13.4404558597,
			"0.003": 9.88373806633,
			"0.004": 8.70160143766,
			"0.005": 9.61808573034,
			"0.006": 9.69459632097,
			"0.007": 4.14059787052,
			"0.008": 2.88939418261,
			"0.009": 3.21669675132,
			"0.01": 1.80783039562,
			"0.011": 3.28756735934,
			"0.012": 4.23545597497,
			"0.013": 0.466258823814,
			"0.014": 0.0,
			"0.015": 0.0,
			"0.016": 0.0,
			"0.017": 0.0,
			"0.018": 0.0,
			"0.019": 0.0,
			"0.02": 0.0,
			"0.021": 0.0,
			"0.022": 0.0,
			"0.023": 0.0,
			"0.024": 0.0,
			"0.025": 0.0
		}
	}
}
