{
	 "smiles": "C1CCC(CC1)C(C1CCCCC1)C1CCCCC1", 
	 "Tm": 321.15, 
	 "num_atms": 53, 
	 "gaussian": { 
		 "optdone": 1, 
		 "sigma_profile": "yes", 
		 "theory": "DFT", 
		 "functional": "B3LYP", 
		 "basiset": "6-31G**", 
		 "properties": { 
			 "R2extent": 6191.3433, 
			 "electric_dipole_moment_norm": 0.061206045453, 
			 "electric_quadrupole_moment_norm": 0.482923492905, 
			 "total_energy": -744.551912298, 
			 "HOMO_LUMO_gap": 0.33896, 
			 "cosmo_polarized_energy": -0.95, 
			 "cosmo_cavitation_energy": 44.4, 
			 "cosmo_dispersion_energy": -30.95, 
			 "cosmo_repulsion_energy": 2.39, 
			 "cosmo_total_nonelectrostatic_energy": 15.83, 
			 "SMD_solvation_energy": 4.86 
		},
		"coords": [
			{
				"x": 4.0322812233,
				"y": -1.4543413431,
				"z": -1.1577018346,
				"element": "C" 
			},
			{
				"x": 3.7946706024,
				"y": -0.0740938222,
				"z": -1.7875078167,
				"element": "C" 
			},
			{
				"x": 2.5348883846,
				"y": 0.5963071891,
				"z": -1.2153336127,
				"element": "C" 
			},
			{
				"x": 1.2850028977,
				"y": -0.2967890842,
				"z": -1.3791140088,
				"element": "C" 
			},
			{
				"x": 1.5341753633,
				"y": -1.6788949534,
				"z": -0.7413363242,
				"element": "C" 
			},
			{
				"x": 2.7958621599,
				"y": -2.3524609687,
				"z": -1.3072075764,
				"element": "C" 
			},
			{
				"x": -0.0270176217,
				"y": 0.4127766228,
				"z": -0.9212074716,
				"element": "C" 
			},
			{
				"x": -1.327647489,
				"y": -0.3005641368,
				"z": -1.4254034966,
				"element": "C" 
			},
			{
				"x": -1.2786845246,
				"y": -0.8113352505,
				"z": -2.8877492335,
				"element": "C" 
			},
			{
				"x": -1.2874354221,
				"y": 0.319777896,
				"z": -3.9284491746,
				"element": "C" 
			},
			{
				"x": -2.5285387496,
				"y": 1.2099381602,
				"z": -3.7614380841,
				"element": "C" 
			},
			{
				"x": -2.6580692995,
				"y": 1.7264074141,
				"z": -2.3201956056,
				"element": "C" 
			},
			{
				"x": -2.6004219694,
				"y": 0.5787909924,
				"z": -1.2963044798,
				"element": "C" 
			},
			{
				"x": -0.0273628266,
				"y": 0.7088992324,
				"z": 0.6226590465,
				"element": "C" 
			},
			{
				"x": -0.4683503328,
				"y": 2.1659350772,
				"z": 0.950597952,
				"element": "C" 
			},
			{
				"x": -0.9467706029,
				"y": 2.3416578322,
				"z": 2.4089186612,
				"element": "C" 
			},
			{
				"x": -0.1648280138,
				"y": 1.4261215211,
				"z": 3.3586033812,
				"element": "C" 
			},
			{
				"x": -0.4100084645,
				"y": -0.0647960513,
				"z": 3.0167032255,
				"element": "C" 
			},
			{
				"x": -0.782950475,
				"y": -0.2851463286,
				"z": 1.530272262,
				"element": "C" 
			},
			{
				"x": 4.2601218983,
				"y": -1.3290036126,
				"z": -0.0892381834,
				"element": "H" 
			},
			{
				"x": 4.9095190542,
				"y": -1.9341693181,
				"z": -1.6085928471,
				"element": "H" 
			},
			{
				"x": 3.6818005985,
				"y": -0.1889735551,
				"z": -2.8751641612,
				"element": "H" 
			},
			{
				"x": 4.6681484864,
				"y": 0.5711655818,
				"z": -1.632826775,
				"element": "H" 
			},
			{
				"x": 2.7104185266,
				"y": 0.8211587004,
				"z": -0.1545204936,
				"element": "H" 
			},
			{
				"x": 2.3650425956,
				"y": 1.5608508445,
				"z": -1.7116035005,
				"element": "H" 
			},
			{
				"x": 1.1954117066,
				"y": -0.4599483945,
				"z": -2.4610989937,
				"element": "H" 
			},
			{
				"x": 0.6666369196,
				"y": -2.3324301623,
				"z": -0.8938490117,
				"element": "H" 
			},
			{
				"x": 1.6509562168,
				"y": -1.5661594484,
				"z": 0.3453134682,
				"element": "H" 
			},
			{
				"x": 2.9629026782,
				"y": -3.3164059511,
				"z": -0.8110124369,
				"element": "H" 
			},
			{
				"x": 2.6392642355,
				"y": -2.5748907396,
				"z": -2.372638935,
				"element": "H" 
			},
			{
				"x": 0.0124482017,
				"y": 1.3946147631,
				"z": -1.4136013305,
				"element": "H" 
			},
			{
				"x": -1.4814972468,
				"y": -1.1842524889,
				"z": -0.7949091678,
				"element": "H" 
			},
			{
				"x": -0.4274481869,
				"y": -1.4788602859,
				"z": -3.0515320061,
				"element": "H" 
			},
			{
				"x": -2.1735232135,
				"y": -1.4300942553,
				"z": -3.0469865466,
				"element": "H" 
			},
			{
				"x": -0.3807626171,
				"y": 0.9317410181,
				"z": -3.8264231466,
				"element": "H" 
			},
			{
				"x": -1.2598561955,
				"y": -0.1035166539,
				"z": -4.9401012761,
				"element": "H" 
			},
			{
				"x": -3.4232705354,
				"y": 0.6223874806,
				"z": -4.0133090163,
				"element": "H" 
			},
			{
				"x": -2.4987376862,
				"y": 2.0493191063,
				"z": -4.4669142141,
				"element": "H" 
			},
			{
				"x": -1.8544535314,
				"y": 2.4478578976,
				"z": -2.1215683572,
				"element": "H" 
			},
			{
				"x": -3.598328609,
				"y": 2.2787539811,
				"z": -2.2003329255,
				"element": "H" 
			},
			{
				"x": -3.473033355,
				"y": -0.0704021162,
				"z": -1.456958532,
				"element": "H" 
			},
			{
				"x": -2.7068114217,
				"y": 0.9767872006,
				"z": -0.2833792585,
				"element": "H" 
			},
			{
				"x": 1.0189109606,
				"y": 0.6389885791,
				"z": 0.9433715967,
				"element": "H" 
			},
			{
				"x": 0.3818962016,
				"y": 2.8335983044,
				"z": 0.7587432506,
				"element": "H" 
			},
			{
				"x": -1.2614701831,
				"y": 2.4912751412,
				"z": 0.2696848906,
				"element": "H" 
			},
			{
				"x": -2.0158493684,
				"y": 2.1013077835,
				"z": 2.4831848653,
				"element": "H" 
			},
			{
				"x": -0.8510701459,
				"y": 3.3908657646,
				"z": 2.7115609406,
				"element": "H" 
			},
			{
				"x": 0.9045426149,
				"y": 1.6596590412,
				"z": 3.2719999875,
				"element": "H" 
			},
			{
				"x": -0.434836197,
				"y": 1.6253742471,
				"z": 4.4018573206,
				"element": "H" 
			},
			{
				"x": -1.2122246187,
				"y": -0.4659331897,
				"z": 3.6477614248,
				"element": "H" 
			},
			{
				"x": 0.4881530781,
				"y": -0.6455450668,
				"z": 3.2607078746,
				"element": "H" 
			},
			{
				"x": -1.8651437675,
				"y": -0.1659902351,
				"z": 1.4033665862,
				"element": "H" 
			},
			{
				"x": -0.558851934,
				"y": -1.3202199602,
				"z": 1.2537031006,
				"element": "H" 
			}
		],
		 "valence_orbital": [ 
			{
				"type": "occ",
				"energy": -0.29087,
				"method": "rhf"
			},
			{
				"type": "occ",
				"energy": -0.28873,
				"method": "rhf"
			},
			{
				"type": "occ",
				"energy": -0.27714,
				"method": "rhf"
			},
			{
				"type": "occ",
				"energy": -0.27216,
				"method": "rhf"
			},
			{
				"type": "occ",
				"energy": -0.26776,
				"method": "rhf"
			},
			{
				"type": "unocc",
				"energy": 0.0712,
				"method": "rhf"
			},
			{
				"type": "unocc",
				"energy": 0.08131,
				"method": "rhf"
			},
			{
				"type": "unocc",
				"energy": 0.08903,
				"method": "rhf"
			},
			{
				"type": "unocc",
				"energy": 0.09403,
				"method": "rhf"
			},
			{
				"type": "unocc",
				"energy": 0.10289,
				"method": "rhf"
			}
		],
		"cosmo_sigma_profile": { 
			"-0.025": 0.0,
			"-0.024": 0.0,
			"-0.023": 0.0,
			"-0.022": 0.0,
			"-0.021": 0.0,
			"-0.02": 0.0,
			"-0.019": 0.0,
			"-0.018": 0.0,
			"-0.017": 0.0,
			"-0.016": 0.0,
			"-0.015": 0.0,
			"-0.014": 0.0,
			"-0.013": 0.0,
			"-0.012": 0.0,
			"-0.011": 0.0,
			"-0.01": 0.0,
			"-0.009": 0.0,
			"-0.008": 0.0,
			"-0.007": 0.0,
			"-0.006": 0.0,
			"-0.005": 0.0,
			"-0.004": 0.0,
			"-0.003": 0.460970469867,
			"-0.002": 30.7895593383,
			"-0.001": 92.5615272974,
			"0.0": 96.0139430998,
			"0.001": 77.656784898,
			"0.002": 39.4024551583,
			"0.003": 0.616067821355,
			"0.004": 0.0,
			"0.005": 0.0,
			"0.006": 0.0,
			"0.007": 0.0,
			"0.008": 0.0,
			"0.009": 0.0,
			"0.01": 0.0,
			"0.011": 0.0,
			"0.012": 0.0,
			"0.013": 0.0,
			"0.014": 0.0,
			"0.015": 0.0,
			"0.016": 0.0,
			"0.017": 0.0,
			"0.018": 0.0,
			"0.019": 0.0,
			"0.02": 0.0,
			"0.021": 0.0,
			"0.022": 0.0,
			"0.023": 0.0,
			"0.024": 0.0,
			"0.025": 0.0
		}
	}
}
