{
	 "smiles": "NC(=S)C1=CC=C(C=C1)C1=CSN=N1", 
	 "Tm": 499.15, 
	 "num_atms": 21, 
	 "gaussian": { 
		 "optdone": 1, 
		 "sigma_profile": "yes", 
		 "theory": "DFT", 
		 "functional": "B3LYP", 
		 "basiset": "6-31G**", 
		 "properties": { 
			 "R2extent": 5654.7928, 
			 "electric_dipole_moment_norm": 2.29082059752, 
			 "electric_quadrupole_moment_norm": 34.7720941682, 
			 "total_energy": -1307.77465771, 
			 "HOMO_LUMO_gap": 0.13161, 
			 "cosmo_polarized_energy": -19.3, 
			 "cosmo_cavitation_energy": 29.43, 
			 "cosmo_dispersion_energy": -22.86, 
			 "cosmo_repulsion_energy": 1.68, 
			 "cosmo_total_nonelectrostatic_energy": 8.25, 
			 "SMD_solvation_energy": 2.39 
		},
		"coords": [
			{
				"x": -3.9257415779,
				"y": -1.6168997739,
				"z": -2.1372730561,
				"element": "N" 
			},
			{
				"x": -3.8254831401,
				"y": -0.7325761281,
				"z": -1.1179009978,
				"element": "C" 
			},
			{
				"x": -5.1108891045,
				"y": 0.2357001578,
				"z": -0.6748951095,
				"element": "S" 
			},
			{
				"x": -2.5109395919,
				"y": -0.720243798,
				"z": -0.4191210145,
				"element": "C" 
			},
			{
				"x": -2.0476173904,
				"y": 0.4528876329,
				"z": 0.1979952772,
				"element": "C" 
			},
			{
				"x": -0.817883555,
				"y": 0.4786095403,
				"z": 0.8405006395,
				"element": "C" 
			},
			{
				"x": -0.0116554819,
				"y": -0.671325055,
				"z": 0.9071288332,
				"element": "C" 
			},
			{
				"x": -0.4802007792,
				"y": -1.8505868361,
				"z": 0.3056185957,
				"element": "C" 
			},
			{
				"x": -1.7068287494,
				"y": -1.8713869796,
				"z": -0.3493662372,
				"element": "C" 
			},
			{
				"x": 1.2907210477,
				"y": -0.6637414333,
				"z": 1.5916844505,
				"element": "C" 
			},
			{
				"x": 1.8735277061,
				"y": 0.3560446177,
				"z": 2.3150233746,
				"element": "C" 
			},
			{
				"x": 3.3882131233,
				"y": -0.1447172581,
				"z": 2.9036334472,
				"element": "S" 
			},
			{
				"x": 3.1975062896,
				"y": -1.7256421296,
				"z": 2.1574018221,
				"element": "N" 
			},
			{
				"x": 2.0881950629,
				"y": -1.7931450353,
				"z": 1.548879941,
				"element": "N" 
			},
			{
				"x": -4.7914025343,
				"y": -1.6465925033,
				"z": -2.6559144257,
				"element": "H" 
			},
			{
				"x": -3.1071151973,
				"y": -2.0465154533,
				"z": -2.5421362634,
				"element": "H" 
			},
			{
				"x": -2.6687890323,
				"y": 1.3407344766,
				"z": 0.1588372869,
				"element": "H" 
			},
			{
				"x": -0.4825044733,
				"y": 1.4079231092,
				"z": 1.2904962287,
				"element": "H" 
			},
			{
				"x": 0.1236396055,
				"y": -2.7487879763,
				"z": 0.365243805,
				"element": "H" 
			},
			{
				"x": -2.0591568023,
				"y": -2.8085728885,
				"z": -0.7699846108,
				"element": "H" 
			},
			{
				"x": 1.4712045747,
				"y": 1.3383337141,
				"z": 2.5150480134,
				"element": "H" 
			}
		],
		 "valence_orbital": [ 
			{
				"type": "occ",
				"energy": -0.2725,
				"method": "rhf"
			},
			{
				"type": "occ",
				"energy": -0.2715,
				"method": "rhf"
			},
			{
				"type": "occ",
				"energy": -0.25134,
				"method": "rhf"
			},
			{
				"type": "occ",
				"energy": -0.23148,
				"method": "rhf"
			},
			{
				"type": "occ",
				"energy": -0.21131,
				"method": "rhf"
			},
			{
				"type": "unocc",
				"energy": -0.0797,
				"method": "rhf"
			},
			{
				"type": "unocc",
				"energy": -0.06171,
				"method": "rhf"
			},
			{
				"type": "unocc",
				"energy": -0.02202,
				"method": "rhf"
			},
			{
				"type": "unocc",
				"energy": -0.02035,
				"method": "rhf"
			},
			{
				"type": "unocc",
				"energy": -0.00889,
				"method": "rhf"
			}
		],
		"cosmo_sigma_profile": { 
			"-0.025": 0.0,
			"-0.024": 0.0,
			"-0.023": 0.0,
			"-0.022": 0.0,
			"-0.021": 0.0,
			"-0.02": 0.0,
			"-0.019": 0.0,
			"-0.018": 0.0,
			"-0.017": 0.0,
			"-0.016": 0.278489801577,
			"-0.015": 1.6946788671,
			"-0.014": 3.01184013981,
			"-0.013": 2.68914576842,
			"-0.012": 2.89909553512,
			"-0.011": 5.02995128679,
			"-0.01": 4.95418658941,
			"-0.009": 4.36155103886,
			"-0.008": 4.64717723063,
			"-0.007": 5.62635320323,
			"-0.006": 7.49930840205,
			"-0.005": 9.50395482391,
			"-0.004": 8.49790303769,
			"-0.003": 11.9577656105,
			"-0.002": 14.3933709636,
			"-0.001": 20.867312852,
			"0.0": 22.7808188664,
			"0.001": 17.5608104918,
			"0.002": 15.549783756,
			"0.003": 17.9973856793,
			"0.004": 7.09937170984,
			"0.005": 6.69985245108,
			"0.006": 5.75977064222,
			"0.007": 8.07635943724,
			"0.008": 8.52683382634,
			"0.009": 9.93015938536,
			"0.01": 7.40108371275,
			"0.011": 4.68993483568,
			"0.012": 2.37805967423,
			"0.013": 0.175680055075,
			"0.014": 0.0,
			"0.015": 0.0,
			"0.016": 0.0,
			"0.017": 0.0,
			"0.018": 0.0,
			"0.019": 0.0,
			"0.02": 0.0,
			"0.021": 0.0,
			"0.022": 0.0,
			"0.023": 0.0,
			"0.024": 0.0,
			"0.025": 0.0
		}
	}
}
