{
	 "smiles": "CC(C)(C)C1=C(C=CC=C1)S(Cl)(=O)=O", 
	 "Tm": 333.15, 
	 "num_atms": 27, 
	 "gaussian": { 
		 "optdone": 1, 
		 "sigma_profile": "yes", 
		 "theory": "DFT", 
		 "functional": "B3LYP", 
		 "basiset": "6-31G**", 
		 "properties": { 
			 "R2extent": 3990.2907, 
			 "electric_dipole_moment_norm": 5.20772581075, 
			 "electric_quadrupole_moment_norm": 12.3857455662, 
			 "total_energy": -1397.65660519, 
			 "HOMO_LUMO_gap": 0.1831, 
			 "cosmo_polarized_energy": -7.97, 
			 "cosmo_cavitation_energy": 30.8, 
			 "cosmo_dispersion_energy": -22.74, 
			 "cosmo_repulsion_energy": 1.71, 
			 "cosmo_total_nonelectrostatic_energy": 9.77, 
			 "SMD_solvation_energy": 4.34 
		},
		"coords": [
			{
				"x": 0.1199283888,
				"y": 2.4363363264,
				"z": 1.4475486446,
				"element": "C" 
			},
			{
				"x": -0.6500188652,
				"y": 2.0754640302,
				"z": 0.1510576625,
				"element": "C" 
			},
			{
				"x": -2.1505375516,
				"y": 2.3095467417,
				"z": 0.454509914,
				"element": "C" 
			},
			{
				"x": -0.3022903362,
				"y": 3.0452937902,
				"z": -1.0039269614,
				"element": "C" 
			},
			{
				"x": -0.3675391983,
				"y": 0.5925648479,
				"z": -0.2233821255,
				"element": "C" 
			},
			{
				"x": 0.8466870895,
				"y": 0.0170382097,
				"z": -0.6986579042,
				"element": "C" 
			},
			{
				"x": 0.9759199171,
				"y": -1.3537328686,
				"z": -0.9721637612,
				"element": "C" 
			},
			{
				"x": -0.0880720599,
				"y": -2.2240921703,
				"z": -0.7757462206,
				"element": "C" 
			},
			{
				"x": -1.2879796557,
				"y": -1.7055776745,
				"z": -0.3064714628,
				"element": "C" 
			},
			{
				"x": -1.405299544,
				"y": -0.3427600758,
				"z": -0.0426769675,
				"element": "C" 
			},
			{
				"x": 2.4173489775,
				"y": 0.86154496,
				"z": -1.0735695038,
				"element": "S" 
			},
			{
				"x": 2.1226825529,
				"y": 1.4188883007,
				"z": -3.1239894869,
				"element": "Cl" 
			},
			{
				"x": 3.4836931401,
				"y": -0.133491782,
				"z": -1.0995430972,
				"element": "O" 
			},
			{
				"x": 2.6057358478,
				"y": 2.1036347652,
				"z": -0.3338028659,
				"element": "O" 
			},
			{
				"x": 1.1978940132,
				"y": 2.3407564917,
				"z": 1.3330235252,
				"element": "H" 
			},
			{
				"x": -0.203619255,
				"y": 1.7939161199,
				"z": 2.2736497177,
				"element": "H" 
			},
			{
				"x": -0.0994122624,
				"y": 3.4735308366,
				"z": 1.7237350243,
				"element": "H" 
			},
			{
				"x": -2.2944637107,
				"y": 3.3721027022,
				"z": 0.6689631866,
				"element": "H" 
			},
			{
				"x": -2.4970887646,
				"y": 1.7588366079,
				"z": 1.33426828,
				"element": "H" 
			},
			{
				"x": -2.7929110713,
				"y": 2.0563426742,
				"z": -0.3952442016,
				"element": "H" 
			},
			{
				"x": -0.8372220976,
				"y": 2.7685045469,
				"z": -1.9181965573,
				"element": "H" 
			},
			{
				"x": -0.6185816152,
				"y": 4.0560256444,
				"z": -0.7259731155,
				"element": "H" 
			},
			{
				"x": 0.7605046214,
				"y": 3.0937840747,
				"z": -1.2236304445,
				"element": "H" 
			},
			{
				"x": 1.9230384575,
				"y": -1.7325053747,
				"z": -1.3339506716,
				"element": "H" 
			},
			{
				"x": 0.0282398315,
				"y": -3.2817800891,
				"z": -0.9876364406,
				"element": "H" 
			},
			{
				"x": -2.1436857685,
				"y": -2.3538546263,
				"z": -0.1419389884,
				"element": "H" 
			},
			{
				"x": -2.359351081,
				"y": 0.0079829906,
				"z": 0.3225448217,
				"element": "H" 
			}
		],
		 "valence_orbital": [ 
			{
				"type": "occ",
				"energy": -0.32431,
				"method": "rhf"
			},
			{
				"type": "occ",
				"energy": -0.31851,
				"method": "rhf"
			},
			{
				"type": "occ",
				"energy": -0.31085,
				"method": "rhf"
			},
			{
				"type": "occ",
				"energy": -0.28387,
				"method": "rhf"
			},
			{
				"type": "occ",
				"energy": -0.27357,
				"method": "rhf"
			},
			{
				"type": "unocc",
				"energy": -0.09047,
				"method": "rhf"
			},
			{
				"type": "unocc",
				"energy": -0.04162,
				"method": "rhf"
			},
			{
				"type": "unocc",
				"energy": -0.02947,
				"method": "rhf"
			},
			{
				"type": "unocc",
				"energy": 0.04524,
				"method": "rhf"
			},
			{
				"type": "unocc",
				"energy": 0.07083,
				"method": "rhf"
			}
		],
		"cosmo_sigma_profile": { 
			"-0.025": 0.0,
			"-0.024": 0.0,
			"-0.023": 0.0,
			"-0.022": 0.0,
			"-0.021": 0.0,
			"-0.02": 0.0,
			"-0.019": 0.0,
			"-0.018": 0.0,
			"-0.017": 0.0,
			"-0.016": 0.0,
			"-0.015": 0.0,
			"-0.014": 0.0,
			"-0.013": 0.0,
			"-0.012": 0.0,
			"-0.011": 0.0,
			"-0.01": 0.0,
			"-0.009": 0.0,
			"-0.008": 1.02721987533,
			"-0.007": 7.03528052461,
			"-0.006": 9.45185016274,
			"-0.005": 9.54123245416,
			"-0.004": 12.877408654,
			"-0.003": 24.7327268863,
			"-0.002": 20.2138259391,
			"-0.001": 22.7455544342,
			"0.0": 29.2639355516,
			"0.001": 32.690586998,
			"0.002": 24.020006755,
			"0.003": 16.9631014028,
			"0.004": 11.0623055099,
			"0.005": 5.04460063774,
			"0.006": 3.35305738432,
			"0.007": 4.70399699144,
			"0.008": 7.07575874614,
			"0.009": 4.37223469161,
			"0.01": 0.0851465899286,
			"0.011": 0.0,
			"0.012": 0.0,
			"0.013": 0.0,
			"0.014": 0.0,
			"0.015": 0.0,
			"0.016": 0.0,
			"0.017": 0.0,
			"0.018": 0.0,
			"0.019": 0.0,
			"0.02": 0.0,
			"0.021": 0.0,
			"0.022": 0.0,
			"0.023": 0.0,
			"0.024": 0.0,
			"0.025": 0.0
		}
	}
}
