{
	 "smiles": "COC(=O)N1CCC2=C1C=CC=C2", 
	 "Tm": 346.15, 
	 "num_atms": 24, 
	 "gaussian": { 
		 "optdone": 1, 
		 "sigma_profile": "yes", 
		 "theory": "DFT", 
		 "functional": "B3LYP", 
		 "basiset": "6-31G**", 
		 "properties": { 
			 "R2extent": 2953.3416, 
			 "electric_dipole_moment_norm": 1.24278819998, 
			 "electric_quadrupole_moment_norm": 10.5943251715, 
			 "total_energy": -592.913721082, 
			 "HOMO_LUMO_gap": 0.20247, 
			 "cosmo_polarized_energy": -8.51, 
			 "cosmo_cavitation_energy": 27.04, 
			 "cosmo_dispersion_energy": -20.17, 
			 "cosmo_repulsion_energy": 1.59, 
			 "cosmo_total_nonelectrostatic_energy": 8.46, 
			 "SMD_solvation_energy": 5.61 
		},
		"coords": [
			{
				"x": 3.4800572503,
				"y": 2.0298324755,
				"z": 1.4542861898,
				"element": "C" 
			},
			{
				"x": 2.1044094571,
				"y": 1.6828890033,
				"z": 1.2393535659,
				"element": "O" 
			},
			{
				"x": 1.8651598567,
				"y": 0.3484506747,
				"z": 1.1948928228,
				"element": "C" 
			},
			{
				"x": 2.7286821563,
				"y": -0.5038951036,
				"z": 1.3239902575,
				"element": "O" 
			},
			{
				"x": 0.5440042545,
				"y": 0.0510220568,
				"z": 0.9891061201,
				"element": "N" 
			},
			{
				"x": 0.167751029,
				"y": -1.3788228347,
				"z": 0.9233899111,
				"element": "C" 
			},
			{
				"x": -1.3629897592,
				"y": -1.3795993432,
				"z": 0.6872325561,
				"element": "C" 
			},
			{
				"x": -1.7277810788,
				"y": 0.0874814608,
				"z": 0.6385492656,
				"element": "C" 
			},
			{
				"x": -0.5855991061,
				"y": 0.8839456798,
				"z": 0.8190052886,
				"element": "C" 
			},
			{
				"x": -0.6764051174,
				"y": 2.2779936069,
				"z": 0.8121277574,
				"element": "C" 
			},
			{
				"x": -1.9366934839,
				"y": 2.8544734528,
				"z": 0.6204878945,
				"element": "C" 
			},
			{
				"x": -3.0776875158,
				"y": 2.0714709876,
				"z": 0.4403346836,
				"element": "C" 
			},
			{
				"x": -2.9712389965,
				"y": 0.6756896296,
				"z": 0.4496047642,
				"element": "C" 
			},
			{
				"x": 3.8368351268,
				"y": 1.6293959295,
				"z": 2.4063480749,
				"element": "H" 
			},
			{
				"x": 3.5062703988,
				"y": 3.1196591396,
				"z": 1.464427285,
				"element": "H" 
			},
			{
				"x": 4.1087174496,
				"y": 1.6391832493,
				"z": 0.6503962985,
				"element": "H" 
			},
			{
				"x": 0.7226231427,
				"y": -1.8639853411,
				"z": 0.1159076194,
				"element": "H" 
			},
			{
				"x": 0.4543042311,
				"y": -1.8733402754,
				"z": 1.8553935284,
				"element": "H" 
			},
			{
				"x": -1.622943146,
				"y": -1.8923707654,
				"z": -0.2454131326,
				"element": "H" 
			},
			{
				"x": -1.8911581822,
				"y": -1.9013878269,
				"z": 1.49290667,
				"element": "H" 
			},
			{
				"x": 0.2012978868,
				"y": 2.8923631714,
				"z": 0.9507809445,
				"element": "H" 
			},
			{
				"x": -2.0204262951,
				"y": 3.9376606328,
				"z": 0.6130974462,
				"element": "H" 
			},
			{
				"x": -4.0448622342,
				"y": 2.5423124406,
				"z": 0.2934279908,
				"element": "H" 
			},
			{
				"x": -3.8531273243,
				"y": 0.0555778993,
				"z": 0.3102661976,
				"element": "H" 
			}
		],
		 "valence_orbital": [ 
			{
				"type": "occ",
				"energy": -0.29779,
				"method": "rhf"
			},
			{
				"type": "occ",
				"energy": -0.29584,
				"method": "rhf"
			},
			{
				"type": "occ",
				"energy": -0.27289,
				"method": "rhf"
			},
			{
				"type": "occ",
				"energy": -0.24471,
				"method": "rhf"
			},
			{
				"type": "occ",
				"energy": -0.20599,
				"method": "rhf"
			},
			{
				"type": "unocc",
				"energy": -0.00352,
				"method": "rhf"
			},
			{
				"type": "unocc",
				"energy": 0.00278,
				"method": "rhf"
			},
			{
				"type": "unocc",
				"energy": 0.06579,
				"method": "rhf"
			},
			{
				"type": "unocc",
				"energy": 0.09351,
				"method": "rhf"
			},
			{
				"type": "unocc",
				"energy": 0.10328,
				"method": "rhf"
			}
		],
		"cosmo_sigma_profile": { 
			"-0.025": 0.0,
			"-0.024": 0.0,
			"-0.023": 0.0,
			"-0.022": 0.0,
			"-0.021": 0.0,
			"-0.02": 0.0,
			"-0.019": 0.0,
			"-0.018": 0.0,
			"-0.017": 0.0,
			"-0.016": 0.0,
			"-0.015": 0.0,
			"-0.014": 0.0,
			"-0.013": 0.0,
			"-0.012": 0.0,
			"-0.011": 0.0,
			"-0.01": 0.0,
			"-0.009": 0.0,
			"-0.008": 0.0,
			"-0.007": 0.667826996867,
			"-0.006": 5.7556921608,
			"-0.005": 20.8240948208,
			"-0.004": 28.05460061,
			"-0.003": 27.7079313781,
			"-0.002": 20.436779575,
			"-0.001": 16.6379533363,
			"0.0": 12.2900087454,
			"0.001": 11.1242251092,
			"0.002": 12.8648947869,
			"0.003": 11.5409025697,
			"0.004": 10.8374435751,
			"0.005": 10.7947596516,
			"0.006": 9.02125295774,
			"0.007": 2.5179543562,
			"0.008": 1.04840488449,
			"0.009": 0.915020795612,
			"0.01": 1.98664622689,
			"0.011": 1.55086819619,
			"0.012": 2.44814724978,
			"0.013": 5.29713988359,
			"0.014": 0.461937279525,
			"0.015": 0.0,
			"0.016": 0.0,
			"0.017": 0.0,
			"0.018": 0.0,
			"0.019": 0.0,
			"0.02": 0.0,
			"0.021": 0.0,
			"0.022": 0.0,
			"0.023": 0.0,
			"0.024": 0.0,
			"0.025": 0.0
		}
	}
}
