{
	 "smiles": "ClS(=O)(=O)C1=CN=C(C=C1)C1=CC=CC=C1", 
	 "Tm": 380.15, 
	 "num_atms": 24, 
	 "gaussian": { 
		 "optdone": 1, 
		 "sigma_profile": "yes", 
		 "theory": "DFT", 
		 "functional": "B3LYP", 
		 "basiset": "6-31G**", 
		 "properties": { 
			 "R2extent": 7537.2852, 
			 "electric_dipole_moment_norm": 5.93303522744, 
			 "electric_quadrupole_moment_norm": 20.4224974117, 
			 "total_energy": -1487.50234273, 
			 "HOMO_LUMO_gap": 0.1559, 
			 "cosmo_polarized_energy": -10.97, 
			 "cosmo_cavitation_energy": 32.29, 
			 "cosmo_dispersion_energy": -24.27, 
			 "cosmo_repulsion_energy": 1.82, 
			 "cosmo_total_nonelectrostatic_energy": 9.84, 
			 "SMD_solvation_energy": 3.1 
		},
		"coords": [
			{
				"x": 0.4180035683,
				"y": 1.5919048753,
				"z": -5.3898108267,
				"element": "Cl" 
			},
			{
				"x": -0.8826348714,
				"y": -0.0189702997,
				"z": -4.868019075,
				"element": "S" 
			},
			{
				"x": -2.2318550477,
				"y": 0.4284693772,
				"z": -5.1877450187,
				"element": "O" 
			},
			{
				"x": -0.294338955,
				"y": -1.2176168608,
				"z": -5.4528136552,
				"element": "O" 
			},
			{
				"x": -0.6855570028,
				"y": -0.0741083528,
				"z": -3.1021213228,
				"element": "C" 
			},
			{
				"x": -1.5606312528,
				"y": 0.6382564954,
				"z": -2.2773996257,
				"element": "C" 
			},
			{
				"x": -1.4538766457,
				"y": 0.6192438113,
				"z": -0.9522712276,
				"element": "N" 
			},
			{
				"x": -0.4730532323,
				"y": -0.10965145,
				"z": -0.377721013,
				"element": "C" 
			},
			{
				"x": 0.4211748448,
				"y": -0.8766537338,
				"z": -1.1528776401,
				"element": "C" 
			},
			{
				"x": 0.3225420527,
				"y": -0.8554002333,
				"z": -2.5360328898,
				"element": "C" 
			},
			{
				"x": -0.4027739933,
				"y": -0.0725435666,
				"z": 1.1029934571,
				"element": "C" 
			},
			{
				"x": -1.5111576957,
				"y": 0.3841435455,
				"z": 1.8376284071,
				"element": "C" 
			},
			{
				"x": -1.4730650361,
				"y": 0.4191185006,
				"z": 3.2287302438,
				"element": "C" 
			},
			{
				"x": -0.3259833676,
				"y": 0.0083609248,
				"z": 3.9121423065,
				"element": "C" 
			},
			{
				"x": 0.7859661596,
				"y": -0.4348250339,
				"z": 3.1931525522,
				"element": "C" 
			},
			{
				"x": 0.74869666,
				"y": -0.4759437165,
				"z": 1.8011037888,
				"element": "C" 
			},
			{
				"x": -2.3670390067,
				"y": 1.227592549,
				"z": -2.7059456957,
				"element": "H" 
			},
			{
				"x": 1.1701496303,
				"y": -1.4996152035,
				"z": -0.6793628592,
				"element": "H" 
			},
			{
				"x": 0.9891892535,
				"y": -1.4375267794,
				"z": -3.1630738603,
				"element": "H" 
			},
			{
				"x": -2.3941759669,
				"y": 0.7055386981,
				"z": 1.2977674857,
				"element": "H" 
			},
			{
				"x": -2.3404873551,
				"y": 0.7674811394,
				"z": 3.7815859157,
				"element": "H" 
			},
			{
				"x": -0.2964862187,
				"y": 0.0379947629,
				"z": 4.9974051054,
				"element": "H" 
			},
			{
				"x": 1.6865330051,
				"y": -0.7426056841,
				"z": 3.7160833094,
				"element": "H" 
			},
			{
				"x": 1.6335604739,
				"y": -0.7986437648,
				"z": 1.2620021381,
				"element": "H" 
			}
		],
		 "valence_orbital": [ 
			{
				"type": "occ",
				"energy": -0.31559,
				"method": "rhf"
			},
			{
				"type": "occ",
				"energy": -0.30978,
				"method": "rhf"
			},
			{
				"type": "occ",
				"energy": -0.28462,
				"method": "rhf"
			},
			{
				"type": "occ",
				"energy": -0.26766,
				"method": "rhf"
			},
			{
				"type": "occ",
				"energy": -0.25419,
				"method": "rhf"
			},
			{
				"type": "unocc",
				"energy": -0.09829,
				"method": "rhf"
			},
			{
				"type": "unocc",
				"energy": -0.06573,
				"method": "rhf"
			},
			{
				"type": "unocc",
				"energy": -0.05367,
				"method": "rhf"
			},
			{
				"type": "unocc",
				"energy": -0.01592,
				"method": "rhf"
			},
			{
				"type": "unocc",
				"energy": -0.0023,
				"method": "rhf"
			}
		],
		"cosmo_sigma_profile": { 
			"-0.025": 0.0,
			"-0.024": 0.0,
			"-0.023": 0.0,
			"-0.022": 0.0,
			"-0.021": 0.0,
			"-0.02": 0.0,
			"-0.019": 0.0,
			"-0.018": 0.0,
			"-0.017": 0.0,
			"-0.016": 0.0,
			"-0.015": 0.0,
			"-0.014": 0.0,
			"-0.013": 0.0,
			"-0.012": 0.0,
			"-0.011": 0.0,
			"-0.01": 0.711320583917,
			"-0.009": 4.60218505546,
			"-0.008": 6.37947845793,
			"-0.007": 7.37231773702,
			"-0.006": 13.3230568177,
			"-0.005": 14.3022122523,
			"-0.004": 17.842145773,
			"-0.003": 15.462229372,
			"-0.002": 21.1806972384,
			"-0.001": 22.1803156731,
			"0.0": 19.8595630111,
			"0.001": 16.6144590769,
			"0.002": 18.2784621657,
			"0.003": 25.5950359333,
			"0.004": 21.4483886419,
			"0.005": 9.28404167561,
			"0.006": 4.86895902291,
			"0.007": 8.03556186548,
			"0.008": 10.6388091547,
			"0.009": 3.90854159554,
			"0.01": 1.14014958264,
			"0.011": 0.380977094304,
			"0.012": 0.0,
			"0.013": 0.0,
			"0.014": 0.0,
			"0.015": 0.0,
			"0.016": 0.0,
			"0.017": 0.0,
			"0.018": 0.0,
			"0.019": 0.0,
			"0.02": 0.0,
			"0.021": 0.0,
			"0.022": 0.0,
			"0.023": 0.0,
			"0.024": 0.0,
			"0.025": 0.0
		}
	}
}
