{
	 "smiles": "BrC1=C(Br)C(Br)=C(OC2=CC=CC=C2)C(Br)=C1Br", 
	 "Tm": 473.15, 
	 "num_atms": 23, 
	 "gaussian": { 
		 "optdone": 1, 
		 "sigma_profile": "yes", 
		 "theory": "DFT", 
		 "functional": "B3LYP", 
		 "basiset": "6-31G**", 
		 "properties": { 
			 "R2extent": 16453.8352, 
			 "electric_dipole_moment_norm": 1.38009563074, 
			 "electric_quadrupole_moment_norm": 3.41821499909, 
			 "total_energy": -13392.4901007, 
			 "HOMO_LUMO_gap": 0.16555, 
			 "cosmo_polarized_energy": -6.09, 
			 "cosmo_cavitation_energy": 38.56, 
			 "cosmo_dispersion_energy": -28.72, 
			 "cosmo_repulsion_energy": 2.22, 
			 "cosmo_total_nonelectrostatic_energy": 12.06, 
			 "SMD_solvation_energy": 1.76 
		},
		"coords": [
			{
				"x": -3.0766910009,
				"y": 0.8740899534,
				"z": 5.069062118,
				"element": "Br" 
			},
			{
				"x": -1.8567924929,
				"y": 0.6319100993,
				"z": 3.6399180808,
				"element": "C" 
			},
			{
				"x": -1.6277500579,
				"y": 1.6770956677,
				"z": 2.7278034579,
				"element": "C" 
			},
			{
				"x": -2.5255195679,
				"y": 3.3327784186,
				"z": 2.9172756909,
				"element": "Br" 
			},
			{
				"x": -0.7258302599,
				"y": 1.4925969152,
				"z": 1.6703621584,
				"element": "C" 
			},
			{
				"x": -0.35627381,
				"y": 2.8604998075,
				"z": 0.4169374179,
				"element": "Br" 
			},
			{
				"x": -0.0542690489,
				"y": 0.2711970256,
				"z": 1.5197443381,
				"element": "C" 
			},
			{
				"x": 0.8902018812,
				"y": 0.1287570939,
				"z": 0.5464171126,
				"element": "O" 
			},
			{
				"x": 0.542970476,
				"y": -0.3647060315,
				"z": -0.7086376009,
				"element": "C" 
			},
			{
				"x": 1.5954859111,
				"y": -0.4637722678,
				"z": -1.6193677614,
				"element": "C" 
			},
			{
				"x": 1.3423237175,
				"y": -0.9477858684,
				"z": -2.9005623745,
				"element": "C" 
			},
			{
				"x": 0.0501728191,
				"y": -1.3303496862,
				"z": -3.2720393798,
				"element": "C" 
			},
			{
				"x": -0.988856708,
				"y": -1.2241704937,
				"z": -2.3482547305,
				"element": "C" 
			},
			{
				"x": -0.7524255379,
				"y": -0.7407185958,
				"z": -1.0586893476,
				"element": "C" 
			},
			{
				"x": -0.2785418734,
				"y": -0.7668113065,
				"z": 2.4350281154,
				"element": "C" 
			},
			{
				"x": 0.6812954457,
				"y": -2.3785454675,
				"z": 2.19015151,
				"element": "Br" 
			},
			{
				"x": -1.178862129,
				"y": -0.5913577635,
				"z": 3.495361641,
				"element": "C" 
			},
			{
				"x": -1.4700643462,
				"y": -2.0029578691,
				"z": 4.7224176446,
				"element": "Br" 
			},
			{
				"x": 2.5899377558,
				"y": -0.1612049745,
				"z": -1.3093968477,
				"element": "H" 
			},
			{
				"x": 2.1600085093,
				"y": -1.0258042872,
				"z": -3.6110748445,
				"element": "H" 
			},
			{
				"x": -0.1429923698,
				"y": -1.7070646482,
				"z": -4.2715032479,
				"element": "H" 
			},
			{
				"x": -1.9970778058,
				"y": -1.5182405486,
				"z": -2.6249715217,
				"element": "H" 
			},
			{
				"x": -1.5646495073,
				"y": -0.6606351729,
				"z": -0.3448816292,
				"element": "H" 
			}
		],
		 "valence_orbital": [ 
			{
				"type": "occ",
				"energy": -0.2672,
				"method": "rhf"
			},
			{
				"type": "occ",
				"energy": -0.25916,
				"method": "rhf"
			},
			{
				"type": "occ",
				"energy": -0.25609,
				"method": "rhf"
			},
			{
				"type": "occ",
				"energy": -0.25389,
				"method": "rhf"
			},
			{
				"type": "occ",
				"energy": -0.23661,
				"method": "rhf"
			},
			{
				"type": "unocc",
				"energy": -0.07106,
				"method": "rhf"
			},
			{
				"type": "unocc",
				"energy": -0.05419,
				"method": "rhf"
			},
			{
				"type": "unocc",
				"energy": -0.04994,
				"method": "rhf"
			},
			{
				"type": "unocc",
				"energy": -0.01604,
				"method": "rhf"
			},
			{
				"type": "unocc",
				"energy": -0.00966,
				"method": "rhf"
			}
		],
		"cosmo_sigma_profile": { 
			"-0.025": 0.0,
			"-0.024": 0.0,
			"-0.023": 0.0,
			"-0.022": 0.0,
			"-0.021": 0.0,
			"-0.02": 0.0,
			"-0.019": 0.0,
			"-0.018": 0.0,
			"-0.017": 0.0,
			"-0.016": 0.0,
			"-0.015": 0.0,
			"-0.014": 0.0,
			"-0.013": 0.0,
			"-0.012": 0.0,
			"-0.011": 0.0,
			"-0.01": 0.0,
			"-0.009": 0.0,
			"-0.008": 0.0644771076529,
			"-0.007": 4.23879819145,
			"-0.006": 15.8191636857,
			"-0.005": 18.7674611829,
			"-0.004": 19.0536658277,
			"-0.003": 23.1311082026,
			"-0.002": 34.7971039395,
			"-0.001": 24.3637382858,
			"0.0": 23.3419164217,
			"0.001": 27.7089703242,
			"0.002": 34.7169430894,
			"0.003": 55.6825493053,
			"0.004": 28.2725453759,
			"0.005": 12.2451522727,
			"0.006": 3.065886421,
			"0.007": 1.08952567706,
			"0.008": 0.0531887153444,
			"0.009": 0.0,
			"0.01": 0.0,
			"0.011": 0.0,
			"0.012": 0.0,
			"0.013": 0.0,
			"0.014": 0.0,
			"0.015": 0.0,
			"0.016": 0.0,
			"0.017": 0.0,
			"0.018": 0.0,
			"0.019": 0.0,
			"0.02": 0.0,
			"0.021": 0.0,
			"0.022": 0.0,
			"0.023": 0.0,
			"0.024": 0.0,
			"0.025": 0.0
		}
	}
}
