{
	 "smiles": "CN(C)S(=O)(=O)C1=CC(C(O)=O)=C(I)C=C1", 
	 "Tm": 472.15, 
	 "num_atms": 26, 
	 "gaussian": { 
		 "optdone": 1, 
		 "sigma_profile": "yes", 
		 "theory": "DFT", 
		 "functional": "B3LYP", 
		 "basiset": "6-31G**", 
		 "properties": { 
			 "R2extent": 4634.78, 
			 "electric_dipole_moment_norm": 5.236003305, 
			 "electric_quadrupole_moment_norm": 23.4741520032, 
			 "total_energy": -1114.12559279, 
			 "HOMO_LUMO_gap": 0.18242, 
			 "cosmo_polarized_energy": -19.21, 
			 "cosmo_cavitation_energy": 34.4, 
			 "cosmo_dispersion_energy": -26.06, 
			 "cosmo_repulsion_energy": 1.95, 
			 "cosmo_total_nonelectrostatic_energy": 10.29, 
			 "SMD_solvation_energy": 5.0 
		},
		"coords": [
			{
				"x": 2.5066874651,
				"y": -1.6363628136,
				"z": -2.369155496,
				"element": "C" 
			},
			{
				"x": 1.4500018226,
				"y": -0.8199907262,
				"z": -1.7499440076,
				"element": "N" 
			},
			{
				"x": 1.3822752922,
				"y": 0.5546334492,
				"z": -2.2645990716,
				"element": "C" 
			},
			{
				"x": 1.3834420264,
				"y": -0.9243631346,
				"z": -0.0542543922,
				"element": "S" 
			},
			{
				"x": 2.0938475974,
				"y": 0.191352972,
				"z": 0.5825447831,
				"element": "O" 
			},
			{
				"x": 1.6987227571,
				"y": -2.3143506069,
				"z": 0.2882004052,
				"element": "O" 
			},
			{
				"x": -0.3750958957,
				"y": -0.6718770673,
				"z": 0.2366492131,
				"element": "C" 
			},
			{
				"x": -0.8242537944,
				"y": 0.5447821574,
				"z": 0.727725393,
				"element": "C" 
			},
			{
				"x": -2.189170992,
				"y": 0.7551111665,
				"z": 1.0005116727,
				"element": "C" 
			},
			{
				"x": -2.4986330233,
				"y": 2.1483305272,
				"z": 1.5121390347,
				"element": "C" 
			},
			{
				"x": -3.4894968808,
				"y": 2.3082501499,
				"z": 2.4100627356,
				"element": "O" 
			},
			{
				"x": -1.8340911365,
				"y": 3.095091056,
				"z": 1.1639772771,
				"element": "O" 
			},
			{
				"x": -3.0779991266,
				"y": -0.3011012711,
				"z": 0.7384442476,
				"element": "C" 
			},
			{
				"x": -5.190157159,
				"y": -0.1617035172,
				"z": 0.9909329858,
				"element": "I" 
			},
			{
				"x": -2.6178526753,
				"y": -1.5274910382,
				"z": 0.2389452926,
				"element": "C" 
			},
			{
				"x": -1.2634111825,
				"y": -1.7215063876,
				"z": -0.0052187993,
				"element": "C" 
			},
			{
				"x": 2.2793531899,
				"y": -1.7142589072,
				"z": -3.4360481149,
				"element": "H" 
			},
			{
				"x": 2.500835181,
				"y": -2.6331313718,
				"z": -1.9301934501,
				"element": "H" 
			},
			{
				"x": 3.5063732519,
				"y": -1.1952138239,
				"z": -2.251831348,
				"element": "H" 
			},
			{
				"x": 2.291439036,
				"y": 1.1315856247,
				"z": -2.0531531353,
				"element": "H" 
			},
			{
				"x": 1.2330213116,
				"y": 0.4980552827,
				"z": -3.3461162463,
				"element": "H" 
			},
			{
				"x": 0.5250183517,
				"y": 1.0770911321,
				"z": -1.8342565886,
				"element": "H" 
			},
			{
				"x": -0.1273327587,
				"y": 1.3533669564,
				"z": 0.9162589007,
				"element": "H" 
			},
			{
				"x": -3.9427979953,
				"y": 1.4726429254,
				"z": 2.6034719083,
				"element": "H" 
			},
			{
				"x": -3.3201258695,
				"y": -2.3287968089,
				"z": 0.0412706844,
				"element": "H" 
			},
			{
				"x": -0.8994987932,
				"y": -2.6746459249,
				"z": -0.372763884,
				"element": "H" 
			}
		],
		 "valence_orbital": [ 
			{
				"type": "occ",
				"energy": -0.30224,
				"method": "rhf"
			},
			{
				"type": "occ",
				"energy": -0.29933,
				"method": "rhf"
			},
			{
				"type": "occ",
				"energy": -0.28245,
				"method": "rhf"
			},
			{
				"type": "occ",
				"energy": -0.28019,
				"method": "rhf"
			},
			{
				"type": "occ",
				"energy": -0.25989,
				"method": "rhf"
			},
			{
				"type": "unocc",
				"energy": -0.07747,
				"method": "rhf"
			},
			{
				"type": "unocc",
				"energy": -0.07236,
				"method": "rhf"
			},
			{
				"type": "unocc",
				"energy": -0.05662,
				"method": "rhf"
			},
			{
				"type": "unocc",
				"energy": 0.0134,
				"method": "rhf"
			},
			{
				"type": "unocc",
				"energy": 0.02685,
				"method": "rhf"
			}
		],
		"cosmo_sigma_profile": { 
			"-0.025": 0.0,
			"-0.024": 0.0,
			"-0.023": 0.0,
			"-0.022": 0.0,
			"-0.021": 0.0,
			"-0.02": 0.0,
			"-0.019": 0.0,
			"-0.018": 0.0,
			"-0.017": 0.0,
			"-0.016": 0.336962680053,
			"-0.015": 0.862550955926,
			"-0.014": 1.18916301294,
			"-0.013": 0.90337584723,
			"-0.012": 0.563836026434,
			"-0.011": 0.810192346543,
			"-0.01": 1.30700789913,
			"-0.009": 3.40829948997,
			"-0.008": 5.71985320056,
			"-0.007": 6.15896620475,
			"-0.006": 13.8666178633,
			"-0.005": 20.3482605755,
			"-0.004": 23.7216698709,
			"-0.003": 25.7937604119,
			"-0.002": 27.1969275368,
			"-0.001": 24.0060397677,
			"0.0": 19.1108075398,
			"0.001": 13.8880657522,
			"0.002": 14.4977943446,
			"0.003": 10.3376395872,
			"0.004": 5.73354787798,
			"0.005": 4.74639589794,
			"0.006": 5.5531481269,
			"0.007": 6.30485846506,
			"0.008": 6.82278920784,
			"0.009": 8.23961533546,
			"0.01": 12.131603979,
			"0.011": 12.1602166071,
			"0.012": 3.58257819116,
			"0.013": 0.158925865286,
			"0.014": 0.0,
			"0.015": 0.0,
			"0.016": 0.0,
			"0.017": 0.0,
			"0.018": 0.0,
			"0.019": 0.0,
			"0.02": 0.0,
			"0.021": 0.0,
			"0.022": 0.0,
			"0.023": 0.0,
			"0.024": 0.0,
			"0.025": 0.0
		}
	}
}
