{
	 "smiles": "COC1=CC(OC)=CC(CCC(O)=O)=C1", 
	 "Tm": 328.15, 
	 "num_atms": 29, 
	 "gaussian": { 
		 "optdone": 1, 
		 "sigma_profile": "yes", 
		 "theory": "DFT", 
		 "functional": "B3LYP", 
		 "basiset": "6-31G**", 
		 "properties": { 
			 "R2extent": 5050.9039, 
			 "electric_dipole_moment_norm": 1.9521973056, 
			 "electric_quadrupole_moment_norm": 16.5560054433, 
			 "total_energy": -728.501014417, 
			 "HOMO_LUMO_gap": 0.21405, 
			 "cosmo_polarized_energy": -14.24, 
			 "cosmo_cavitation_energy": 32.9, 
			 "cosmo_dispersion_energy": -22.93, 
			 "cosmo_repulsion_energy": 1.82, 
			 "cosmo_total_nonelectrostatic_energy": 11.8, 
			 "SMD_solvation_energy": 8.06 
		},
		"coords": [
			{
				"x": -0.3792124394,
				"y": 2.8209421973,
				"z": 2.5105178005,
				"element": "C" 
			},
			{
				"x": 0.1638330557,
				"y": 2.3318068521,
				"z": 1.2948947476,
				"element": "O" 
			},
			{
				"x": -0.4764977732,
				"y": 1.3005454498,
				"z": 0.6708667973,
				"element": "C" 
			},
			{
				"x": -1.6299869655,
				"y": 0.6875305465,
				"z": 1.1551653582,
				"element": "C" 
			},
			{
				"x": -2.2000768553,
				"y": -0.3700772342,
				"z": 0.428424307,
				"element": "C" 
			},
			{
				"x": -3.324794459,
				"y": -0.9071547185,
				"z": 0.9886227848,
				"element": "O" 
			},
			{
				"x": -3.9687806468,
				"y": -1.9720853086,
				"z": 0.3094994274,
				"element": "C" 
			},
			{
				"x": -1.6262218052,
				"y": -0.8102252675,
				"z": -0.7656531267,
				"element": "C" 
			},
			{
				"x": -0.4623515899,
				"y": -0.1827324751,
				"z": -1.2459307491,
				"element": "C" 
			},
			{
				"x": 0.1525128854,
				"y": -0.6273056222,
				"z": -2.558508508,
				"element": "C" 
			},
			{
				"x": -0.3902128456,
				"y": 0.1385289253,
				"z": -3.7865134992,
				"element": "C" 
			},
			{
				"x": -1.851707344,
				"y": -0.0998669248,
				"z": -4.1008572614,
				"element": "C" 
			},
			{
				"x": -2.1710066851,
				"y": -1.4234526454,
				"z": -4.0936892042,
				"element": "O" 
			},
			{
				"x": -2.6653496395,
				"y": 0.7530773172,
				"z": -4.3738010462,
				"element": "O" 
			},
			{
				"x": 0.1084927351,
				"y": 0.864354118,
				"z": -0.5298129829,
				"element": "C" 
			},
			{
				"x": 0.2764766561,
				"y": 3.6330615033,
				"z": 2.8287959402,
				"element": "H" 
			},
			{
				"x": -1.3958995506,
				"y": 3.2106871964,
				"z": 2.3720850733,
				"element": "H" 
			},
			{
				"x": -0.3970268329,
				"y": 2.0457103886,
				"z": 3.2874548139,
				"element": "H" 
			},
			{
				"x": -2.1103029952,
				"y": 0.9893139681,
				"z": 2.0768058319,
				"element": "H" 
			},
			{
				"x": -3.3132753858,
				"y": -2.8471957948,
				"z": 0.2120914514,
				"element": "H" 
			},
			{
				"x": -4.3093372794,
				"y": -1.6686417346,
				"z": -0.6889442273,
				"element": "H" 
			},
			{
				"x": -4.8345007021,
				"y": -2.2384915797,
				"z": 0.9181987236,
				"element": "H" 
			},
			{
				"x": -2.0593943158,
				"y": -1.6249073348,
				"z": -1.3321168808,
				"element": "H" 
			},
			{
				"x": -0.0109017056,
				"y": -1.6986356514,
				"z": -2.7087466712,
				"element": "H" 
			},
			{
				"x": 1.2358707594,
				"y": -0.47039299,
				"z": -2.5231059177,
				"element": "H" 
			},
			{
				"x": 0.1776402817,
				"y": -0.166954166,
				"z": -4.6754971643,
				"element": "H" 
			},
			{
				"x": -0.2636787359,
				"y": 1.2163889686,
				"z": -3.6653033837,
				"element": "H" 
			},
			{
				"x": -3.1113784945,
				"y": -1.4657538553,
				"z": -4.3357688085,
				"element": "H" 
			},
			{
				"x": 1.010168673,
				"y": 1.3601258719,
				"z": -0.8754736257,
				"element": "H" 
			}
		],
		 "valence_orbital": [ 
			{
				"type": "occ",
				"energy": -0.31696,
				"method": "rhf"
			},
			{
				"type": "occ",
				"energy": -0.28908,
				"method": "rhf"
			},
			{
				"type": "occ",
				"energy": -0.27014,
				"method": "rhf"
			},
			{
				"type": "occ",
				"energy": -0.22399,
				"method": "rhf"
			},
			{
				"type": "occ",
				"energy": -0.2079,
				"method": "rhf"
			},
			{
				"type": "unocc",
				"energy": 0.00615,
				"method": "rhf"
			},
			{
				"type": "unocc",
				"energy": 0.00795,
				"method": "rhf"
			},
			{
				"type": "unocc",
				"energy": 0.02566,
				"method": "rhf"
			},
			{
				"type": "unocc",
				"energy": 0.06886,
				"method": "rhf"
			},
			{
				"type": "unocc",
				"energy": 0.10104,
				"method": "rhf"
			}
		],
		"cosmo_sigma_profile": { 
			"-0.025": 0.0,
			"-0.024": 0.0,
			"-0.023": 0.0,
			"-0.022": 0.0,
			"-0.021": 0.0,
			"-0.02": 0.0,
			"-0.019": 0.0,
			"-0.018": 0.340674277422,
			"-0.017": 1.08932056011,
			"-0.016": 0.739296549545,
			"-0.015": 0.657847117921,
			"-0.014": 0.771804446741,
			"-0.013": 0.996837652401,
			"-0.012": 0.846688998647,
			"-0.011": 0.329367100809,
			"-0.01": 0.423656594953,
			"-0.009": 0.741786564006,
			"-0.008": 0.517318016034,
			"-0.007": 2.33787805485,
			"-0.006": 9.91023425302,
			"-0.005": 25.2038183055,
			"-0.004": 29.8714702302,
			"-0.003": 31.3513812618,
			"-0.002": 22.0136051733,
			"-0.001": 13.8742240968,
			"0.0": 11.8293431804,
			"0.001": 10.6399877642,
			"0.002": 10.7345646324,
			"0.003": 11.2854969285,
			"0.004": 14.3890635457,
			"0.005": 16.8013131142,
			"0.006": 9.54007184302,
			"0.007": 5.20973643839,
			"0.008": 5.499003532,
			"0.009": 4.93024096498,
			"0.01": 5.16307201342,
			"0.011": 5.40498871701,
			"0.012": 4.48260381706,
			"0.013": 1.19449745215,
			"0.014": 0.00708422845743,
			"0.015": 0.0,
			"0.016": 0.0,
			"0.017": 0.0,
			"0.018": 0.0,
			"0.019": 0.0,
			"0.02": 0.0,
			"0.021": 0.0,
			"0.022": 0.0,
			"0.023": 0.0,
			"0.024": 0.0,
			"0.025": 0.0
		}
	}
}
