{
	 "smiles": "BrC1=CNC(=O)NC1=O", 
	 "Tm": 583.15, 
	 "num_atms": 12, 
	 "gaussian": { 
		 "optdone": 1, 
		 "sigma_profile": "yes", 
		 "theory": "DFT", 
		 "functional": "B3LYP", 
		 "basiset": "6-31G**", 
		 "properties": { 
			 "R2extent": 3036.8993, 
			 "electric_dipole_moment_norm": 3.88600978511, 
			 "electric_quadrupole_moment_norm": 12.7764268107, 
			 "total_energy": -2985.61210041, 
			 "HOMO_LUMO_gap": 0.19074, 
			 "cosmo_polarized_energy": -18.46, 
			 "cosmo_cavitation_energy": 19.5, 
			 "cosmo_dispersion_energy": -15.22, 
			 "cosmo_repulsion_energy": 1.26, 
			 "cosmo_total_nonelectrostatic_energy": 5.54, 
			 "SMD_solvation_energy": 4.29 
		},
		"coords": [
			{
				"x": -0.404997608,
				"y": -3.4933346882,
				"z": 1.9375541549,
				"element": "Br" 
			},
			{
				"x": -0.1570811153,
				"y": -2.0385352458,
				"z": 0.7613272541,
				"element": "C" 
			},
			{
				"x": -1.2056382153,
				"y": -1.3411721613,
				"z": 0.2710066251,
				"element": "C" 
			},
			{
				"x": -1.0267011421,
				"y": -0.2806744468,
				"z": -0.5858337472,
				"element": "N" 
			},
			{
				"x": 0.2201257075,
				"y": 0.1660328317,
				"z": -1.0200405392,
				"element": "C" 
			},
			{
				"x": 0.3599213174,
				"y": 1.1060668287,
				"z": -1.7779020541,
				"element": "O" 
			},
			{
				"x": 1.265932357,
				"y": -0.5772387683,
				"z": -0.492968714,
				"element": "N" 
			},
			{
				"x": 1.2179374351,
				"y": -1.6775510693,
				"z": 0.3868583376,
				"element": "C" 
			},
			{
				"x": 2.2382533403,
				"y": -2.2230682609,
				"z": 0.7588667885,
				"element": "O" 
			},
			{
				"x": -2.2309520017,
				"y": -1.5801249998,
				"z": 0.5259822713,
				"element": "H" 
			},
			{
				"x": -1.8171812034,
				"y": 0.2340398191,
				"z": -0.9465717624,
				"element": "H" 
			},
			{
				"x": 2.1932811284,
				"y": -0.288039839,
				"z": -0.7812786146,
				"element": "H" 
			}
		],
		 "valence_orbital": [ 
			{
				"type": "occ",
				"energy": -0.3072,
				"method": "rhf"
			},
			{
				"type": "occ",
				"energy": -0.29924,
				"method": "rhf"
			},
			{
				"type": "occ",
				"energy": -0.29676,
				"method": "rhf"
			},
			{
				"type": "occ",
				"energy": -0.27773,
				"method": "rhf"
			},
			{
				"type": "occ",
				"energy": -0.24678,
				"method": "rhf"
			},
			{
				"type": "unocc",
				"energy": -0.05604,
				"method": "rhf"
			},
			{
				"type": "unocc",
				"energy": -0.0098,
				"method": "rhf"
			},
			{
				"type": "unocc",
				"energy": -0.00101,
				"method": "rhf"
			},
			{
				"type": "unocc",
				"energy": 0.06141,
				"method": "rhf"
			},
			{
				"type": "unocc",
				"energy": 0.09498,
				"method": "rhf"
			}
		],
		"cosmo_sigma_profile": { 
			"-0.025": 0.0,
			"-0.024": 0.0,
			"-0.023": 0.0,
			"-0.022": 0.0,
			"-0.021": 0.0,
			"-0.02": 0.0,
			"-0.019": 0.0,
			"-0.018": 0.698290919753,
			"-0.017": 1.9623640784,
			"-0.016": 2.15220442655,
			"-0.015": 2.43310974169,
			"-0.014": 1.8292294117,
			"-0.013": 1.75543997015,
			"-0.012": 2.97351012481,
			"-0.011": 3.63198689511,
			"-0.01": 2.94722049183,
			"-0.009": 2.63271090591,
			"-0.008": 2.63601356449,
			"-0.007": 2.64674986394,
			"-0.006": 4.76064977623,
			"-0.005": 6.96242122479,
			"-0.004": 8.13371773947,
			"-0.003": 10.6029419176,
			"-0.002": 12.2408987062,
			"-0.001": 7.73921796553,
			"0.0": 7.38530338472,
			"0.001": 6.55929024347,
			"0.002": 7.41221172263,
			"0.003": 9.30864236576,
			"0.004": 9.03759942548,
			"0.005": 4.17358118778,
			"0.006": 2.40472767516,
			"0.007": 3.26737753607,
			"0.008": 2.92304770166,
			"0.009": 3.25676105499,
			"0.01": 3.77233415329,
			"0.011": 5.60832635488,
			"0.012": 12.244438779,
			"0.013": 3.76795693205,
			"0.014": 0.0,
			"0.015": 0.0,
			"0.016": 0.0,
			"0.017": 0.0,
			"0.018": 0.0,
			"0.019": 0.0,
			"0.02": 0.0,
			"0.021": 0.0,
			"0.022": 0.0,
			"0.023": 0.0,
			"0.024": 0.0,
			"0.025": 0.0
		}
	}
}
