{
	 "smiles": "OC(=O)CCCCCC1=CC=CS1", 
	 "Tm": 317.15, 
	 "num_atms": 27, 
	 "gaussian": { 
		 "optdone": 1, 
		 "sigma_profile": "yes", 
		 "theory": "DFT", 
		 "functional": "B3LYP", 
		 "basiset": "6-31G**", 
		 "properties": { 
			 "R2extent": 3682.4128, 
			 "electric_dipole_moment_norm": 2.13535704274, 
			 "electric_quadrupole_moment_norm": 8.81698269875, 
			 "total_energy": -938.151153991, 
			 "HOMO_LUMO_gap": 0.21584, 
			 "cosmo_polarized_energy": -9.83, 
			 "cosmo_cavitation_energy": 31.09, 
			 "cosmo_dispersion_energy": -22.28, 
			 "cosmo_repulsion_energy": 1.74, 
			 "cosmo_total_nonelectrostatic_energy": 10.55, 
			 "SMD_solvation_energy": 5.53 
		},
		"coords": [
			{
				"x": -0.0139016815,
				"y": -2.194398977,
				"z": -2.6350613458,
				"element": "O" 
			},
			{
				"x": 0.6233163056,
				"y": -1.9357969246,
				"z": -1.4674470245,
				"element": "C" 
			},
			{
				"x": 0.153512514,
				"y": -2.2492632811,
				"z": -0.3927060386,
				"element": "O" 
			},
			{
				"x": 1.9255341078,
				"y": -1.2011679696,
				"z": -1.6837287274,
				"element": "C" 
			},
			{
				"x": 1.7059949802,
				"y": 0.2895892586,
				"z": -2.0357114171,
				"element": "C" 
			},
			{
				"x": 0.8740788895,
				"y": 1.0853627555,
				"z": -1.0164789307,
				"element": "C" 
			},
			{
				"x": 1.4622150609,
				"y": 1.1133742457,
				"z": 0.4011323022,
				"element": "C" 
			},
			{
				"x": 0.682818801,
				"y": 2.0040981567,
				"z": 1.3851125275,
				"element": "C" 
			},
			{
				"x": -0.7092599445,
				"y": 1.519785199,
				"z": 1.7123307397,
				"element": "C" 
			},
			{
				"x": -1.230278469,
				"y": 0.2518720311,
				"z": 1.6723969342,
				"element": "C" 
			},
			{
				"x": -2.5878066817,
				"y": 0.1798262491,
				"z": 2.1193398761,
				"element": "C" 
			},
			{
				"x": -3.0919934541,
				"y": 1.3910593167,
				"z": 2.4977169846,
				"element": "C" 
			},
			{
				"x": -1.9087121842,
				"y": 2.6482828256,
				"z": 2.3088932984,
				"element": "S" 
			},
			{
				"x": -0.8507270407,
				"y": -2.6281661208,
				"z": -2.3965449455,
				"element": "H" 
			},
			{
				"x": 2.5110900839,
				"y": -1.3055065329,
				"z": -0.7681959736,
				"element": "H" 
			},
			{
				"x": 2.4721200802,
				"y": -1.6843346861,
				"z": -2.5000802997,
				"element": "H" 
			},
			{
				"x": 1.2228231989,
				"y": 0.3481977771,
				"z": -3.0174289092,
				"element": "H" 
			},
			{
				"x": 2.6955220452,
				"y": 0.7508631149,
				"z": -2.1460260644,
				"element": "H" 
			},
			{
				"x": 0.78087072,
				"y": 2.1156671835,
				"z": -1.3849087394,
				"element": "H" 
			},
			{
				"x": -0.1464058519,
				"y": 0.6872084583,
				"z": -0.9784650122,
				"element": "H" 
			},
			{
				"x": 2.4954422791,
				"y": 1.4836410629,
				"z": 0.3564499075,
				"element": "H" 
			},
			{
				"x": 1.5174083516,
				"y": 0.0965583771,
				"z": 0.8057006048,
				"element": "H" 
			},
			{
				"x": 1.261091875,
				"y": 2.0837795978,
				"z": 2.316400132,
				"element": "H" 
			},
			{
				"x": 0.6298760595,
				"y": 3.0239712445,
				"z": 0.9816431252,
				"element": "H" 
			},
			{
				"x": -0.6751703229,
				"y": -0.6118209578,
				"z": 1.3228282649,
				"element": "H" 
			},
			{
				"x": -3.1598460835,
				"y": -0.7409465111,
				"z": 2.151367952,
				"element": "H" 
			},
			{
				"x": -4.0800136383,
				"y": 1.6260651069,
				"z": 2.8683707791,
				"element": "H" 
			}
		],
		 "valence_orbital": [ 
			{
				"type": "occ",
				"energy": -0.32085,
				"method": "rhf"
			},
			{
				"type": "occ",
				"energy": -0.31797,
				"method": "rhf"
			},
			{
				"type": "occ",
				"energy": -0.27626,
				"method": "rhf"
			},
			{
				"type": "occ",
				"energy": -0.23764,
				"method": "rhf"
			},
			{
				"type": "occ",
				"energy": -0.21497,
				"method": "rhf"
			},
			{
				"type": "unocc",
				"energy": 0.00087,
				"method": "rhf"
			},
			{
				"type": "unocc",
				"energy": 0.00208,
				"method": "rhf"
			},
			{
				"type": "unocc",
				"energy": 0.03916,
				"method": "rhf"
			},
			{
				"type": "unocc",
				"energy": 0.0699,
				"method": "rhf"
			},
			{
				"type": "unocc",
				"energy": 0.07759,
				"method": "rhf"
			}
		],
		"cosmo_sigma_profile": { 
			"-0.025": 0.0,
			"-0.024": 0.0,
			"-0.023": 0.0,
			"-0.022": 0.0,
			"-0.021": 0.0,
			"-0.02": 0.0,
			"-0.019": 0.0,
			"-0.018": 0.476691023139,
			"-0.017": 0.869119237137,
			"-0.016": 1.00309100503,
			"-0.015": 0.780211579281,
			"-0.014": 0.847038977085,
			"-0.013": 0.330867558969,
			"-0.012": 0.730083947088,
			"-0.011": 0.692451830902,
			"-0.01": 1.06051194141,
			"-0.009": 0.623697796631,
			"-0.008": 1.42688945997,
			"-0.007": 2.82309664172,
			"-0.006": 4.53387679931,
			"-0.005": 8.54299094725,
			"-0.004": 13.9522962557,
			"-0.003": 26.4073660259,
			"-0.002": 35.9322306386,
			"-0.001": 29.0688149051,
			"0.0": 19.0024084905,
			"0.001": 13.1327682876,
			"0.002": 13.5881853647,
			"0.003": 14.337598838,
			"0.004": 12.4432992431,
			"0.005": 14.8964604372,
			"0.006": 11.0728804809,
			"0.007": 4.69110235173,
			"0.008": 3.09052014366,
			"0.009": 2.21940244534,
			"0.01": 2.60906623768,
			"0.011": 2.56091460268,
			"0.012": 2.29321969747,
			"0.013": 0.178856170234,
			"0.014": 0.0,
			"0.015": 0.0,
			"0.016": 0.0,
			"0.017": 0.0,
			"0.018": 0.0,
			"0.019": 0.0,
			"0.02": 0.0,
			"0.021": 0.0,
			"0.022": 0.0,
			"0.023": 0.0,
			"0.024": 0.0,
			"0.025": 0.0
		}
	}
}
