{
	 "smiles": "CC(C)OC1=CC(C(O)=O)=C(C=C1)[N+]([O-])=O", 
	 "Tm": 409.15, 
	 "num_atms": 27, 
	 "gaussian": { 
		 "optdone": 1, 
		 "sigma_profile": "yes", 
		 "theory": "DFT", 
		 "functional": "B3LYP", 
		 "basiset": "6-31G**", 
		 "properties": { 
			 "R2extent": 4846.5376, 
			 "electric_dipole_moment_norm": 5.82745259183, 
			 "electric_quadrupole_moment_norm": 16.0522491443, 
			 "total_energy": -818.474519633, 
			 "HOMO_LUMO_gap": 0.16449, 
			 "cosmo_polarized_energy": -15.28, 
			 "cosmo_cavitation_energy": 32.11, 
			 "cosmo_dispersion_energy": -22.66, 
			 "cosmo_repulsion_energy": 1.8, 
			 "cosmo_total_nonelectrostatic_energy": 11.25, 
			 "SMD_solvation_energy": 9.2 
		},
		"coords": [
			{
				"x": 3.2430431285,
				"y": 1.488975307,
				"z": -1.6308632139,
				"element": "C" 
			},
			{
				"x": 1.8400261812,
				"y": 1.224697601,
				"z": -1.0991011441,
				"element": "C" 
			},
			{
				"x": 0.7473309173,
				"y": 1.821511135,
				"z": -1.9840749087,
				"element": "C" 
			},
			{
				"x": 1.7104378468,
				"y": -0.2178724154,
				"z": -1.0500580561,
				"element": "O" 
			},
			{
				"x": 0.8285520737,
				"y": -0.8151273285,
				"z": -0.2201377619,
				"element": "C" 
			},
			{
				"x": -0.0369388817,
				"y": -0.1456271151,
				"z": 0.6597869054,
				"element": "C" 
			},
			{
				"x": -0.9013820435,
				"y": -0.8615957069,
				"z": 1.4906469161,
				"element": "C" 
			},
			{
				"x": -1.8402999236,
				"y": -0.0394827049,
				"z": 2.3292364068,
				"element": "C" 
			},
			{
				"x": -3.1301001784,
				"y": -0.3686546816,
				"z": 2.1223864221,
				"element": "O" 
			},
			{
				"x": -1.4844411406,
				"y": 0.8878429147,
				"z": 3.0212317295,
				"element": "O" 
			},
			{
				"x": -0.8737564517,
				"y": -2.260982493,
				"z": 1.4540460177,
				"element": "C" 
			},
			{
				"x": -0.0292910482,
				"y": -2.9364988392,
				"z": 0.5690024877,
				"element": "C" 
			},
			{
				"x": 0.8116559913,
				"y": -2.2215235309,
				"z": -0.2657070627,
				"element": "C" 
			},
			{
				"x": -1.6516438613,
				"y": -3.0613565213,
				"z": 2.3991312903,
				"element": "N" 
			},
			{
				"x": -1.8761456257,
				"y": -4.2355720332,
				"z": 2.1024233247,
				"element": "O" 
			},
			{
				"x": -2.0033674225,
				"y": -2.5233591603,
				"z": 3.449836504,
				"element": "O" 
			},
			{
				"x": 3.3572099787,
				"y": 1.0665164116,
				"z": -2.6337991365,
				"element": "H" 
			},
			{
				"x": 3.995064106,
				"y": 1.0386689174,
				"z": -0.9778659151,
				"element": "H" 
			},
			{
				"x": 3.4285686765,
				"y": 2.5657279515,
				"z": -1.685093646,
				"element": "H" 
			},
			{
				"x": 1.7641129917,
				"y": 1.6171844376,
				"z": -0.077483211,
				"element": "H" 
			},
			{
				"x": 0.8461831299,
				"y": 2.9108425763,
				"z": -2.0221839177,
				"element": "H" 
			},
			{
				"x": 0.8340820735,
				"y": 1.430724939,
				"z": -3.0025117266,
				"element": "H" 
			},
			{
				"x": -0.2528060278,
				"y": 1.5849013894,
				"z": -1.6114420688,
				"element": "H" 
			},
			{
				"x": -0.0674778852,
				"y": 0.9345412681,
				"z": 0.712122201,
				"element": "H" 
			},
			{
				"x": -3.6565808755,
				"y": 0.1928209245,
				"z": 2.7163090033,
				"element": "H" 
			},
			{
				"x": -0.0366577144,
				"y": -4.0195037123,
				"z": 0.5676659544,
				"element": "H" 
			},
			{
				"x": 1.484621985,
				"y": -2.7255995305,
				"z": -0.9504033935,
				"element": "H" 
			}
		],
		 "valence_orbital": [ 
			{
				"type": "occ",
				"energy": -0.30381,
				"method": "rhf"
			},
			{
				"type": "occ",
				"energy": -0.29575,
				"method": "rhf"
			},
			{
				"type": "occ",
				"energy": -0.28848,
				"method": "rhf"
			},
			{
				"type": "occ",
				"energy": -0.27505,
				"method": "rhf"
			},
			{
				"type": "occ",
				"energy": -0.2492,
				"method": "rhf"
			},
			{
				"type": "unocc",
				"energy": -0.08471,
				"method": "rhf"
			},
			{
				"type": "unocc",
				"energy": -0.04363,
				"method": "rhf"
			},
			{
				"type": "unocc",
				"energy": -0.00442,
				"method": "rhf"
			},
			{
				"type": "unocc",
				"energy": 0.02495,
				"method": "rhf"
			},
			{
				"type": "unocc",
				"energy": 0.07159,
				"method": "rhf"
			}
		],
		"cosmo_sigma_profile": { 
			"-0.025": 0.0,
			"-0.024": 0.0,
			"-0.023": 0.0,
			"-0.022": 0.0,
			"-0.021": 0.0,
			"-0.02": 0.0,
			"-0.019": 0.348264002991,
			"-0.018": 0.931361183511,
			"-0.017": 1.16320206522,
			"-0.016": 1.08107157092,
			"-0.015": 0.612319730406,
			"-0.014": 0.0860561752896,
			"-0.013": 0.329783030432,
			"-0.012": 1.23788017848,
			"-0.011": 1.22554893847,
			"-0.01": 0.461528839071,
			"-0.009": 1.37399715541,
			"-0.008": 4.57944336902,
			"-0.007": 7.07227092975,
			"-0.006": 8.79390664797,
			"-0.005": 12.5808518238,
			"-0.004": 20.5750792177,
			"-0.003": 21.0259747258,
			"-0.002": 19.7901919165,
			"-0.001": 23.9411051278,
			"0.0": 30.2679612304,
			"0.001": 16.7916056168,
			"0.002": 8.75167457873,
			"0.003": 7.34834399871,
			"0.004": 7.59930981157,
			"0.005": 6.64860244188,
			"0.006": 8.98391074507,
			"0.007": 11.4466970583,
			"0.008": 10.9527407715,
			"0.009": 6.74243417278,
			"0.01": 5.36127843482,
			"0.011": 5.28010005569,
			"0.012": 1.26196066117,
			"0.013": 0.0,
			"0.014": 0.0,
			"0.015": 0.0,
			"0.016": 0.0,
			"0.017": 0.0,
			"0.018": 0.0,
			"0.019": 0.0,
			"0.02": 0.0,
			"0.021": 0.0,
			"0.022": 0.0,
			"0.023": 0.0,
			"0.024": 0.0,
			"0.025": 0.0
		}
	}
}
