{
	 "smiles": "O=CC1=CC(=CS1)C#N", 
	 "Tm": 358.15, 
	 "num_atms": 12, 
	 "gaussian": { 
		 "optdone": 1, 
		 "sigma_profile": "yes", 
		 "theory": "DFT", 
		 "functional": "B3LYP", 
		 "basiset": "6-31G**", 
		 "properties": { 
			 "R2extent": 2321.2758, 
			 "electric_dipole_moment_norm": 4.13001793338, 
			 "electric_quadrupole_moment_norm": 19.2269497994, 
			 "total_energy": -758.560718191, 
			 "HOMO_LUMO_gap": 0.18242, 
			 "cosmo_polarized_energy": -12.37, 
			 "cosmo_cavitation_energy": 20.21, 
			 "cosmo_dispersion_energy": -14.65, 
			 "cosmo_repulsion_energy": 1.15, 
			 "cosmo_total_nonelectrostatic_energy": 6.71, 
			 "SMD_solvation_energy": 6.12 
		},
		"coords": [
			{
				"x": 1.1152585468,
				"y": 1.8754233173,
				"z": 1.4810850399,
				"element": "O" 
			},
			{
				"x": 1.4339450917,
				"y": 1.8551319164,
				"z": 0.3079300851,
				"element": "C" 
			},
			{
				"x": 1.5822240491,
				"y": 0.6098782228,
				"z": -0.4594283082,
				"element": "C" 
			},
			{
				"x": 1.3936002191,
				"y": -0.6708101503,
				"z": 0.0025925476,
				"element": "C" 
			},
			{
				"x": 1.620274932,
				"y": -1.6542952073,
				"z": -1.0051860901,
				"element": "C" 
			},
			{
				"x": 1.9789097113,
				"y": -1.0964387109,
				"z": -2.2203953552,
				"element": "C" 
			},
			{
				"x": 2.0428655783,
				"y": 0.6150416206,
				"z": -2.1479477916,
				"element": "S" 
			},
			{
				"x": 1.4952450802,
				"y": -3.0622649772,
				"z": -0.7992844151,
				"element": "C" 
			},
			{
				"x": 1.3929188979,
				"y": -4.2082260152,
				"z": -0.6296386096,
				"element": "N" 
			},
			{
				"x": 1.6334486637,
				"y": 2.791261863,
				"z": -0.2550323876,
				"element": "H" 
			},
			{
				"x": 1.1047123908,
				"y": -0.8882186402,
				"z": 1.0231832914,
				"element": "H" 
			},
			{
				"x": 2.2034968391,
				"y": -1.6215832391,
				"z": -3.1383780065,
				"element": "H" 
			}
		],
		 "valence_orbital": [ 
			{
				"type": "occ",
				"energy": -0.36337,
				"method": "rhf"
			},
			{
				"type": "occ",
				"energy": -0.34483,
				"method": "rhf"
			},
			{
				"type": "occ",
				"energy": -0.29161,
				"method": "rhf"
			},
			{
				"type": "occ",
				"energy": -0.27917,
				"method": "rhf"
			},
			{
				"type": "occ",
				"energy": -0.27629,
				"method": "rhf"
			},
			{
				"type": "unocc",
				"energy": -0.09387,
				"method": "rhf"
			},
			{
				"type": "unocc",
				"energy": -0.04763,
				"method": "rhf"
			},
			{
				"type": "unocc",
				"energy": -0.01864,
				"method": "rhf"
			},
			{
				"type": "unocc",
				"energy": 0.02856,
				"method": "rhf"
			},
			{
				"type": "unocc",
				"energy": 0.04081,
				"method": "rhf"
			}
		],
		"cosmo_sigma_profile": { 
			"-0.025": 0.0,
			"-0.024": 0.0,
			"-0.023": 0.0,
			"-0.022": 0.0,
			"-0.021": 0.0,
			"-0.02": 0.0,
			"-0.019": 0.0,
			"-0.018": 0.0,
			"-0.017": 0.0,
			"-0.016": 0.0,
			"-0.015": 0.0,
			"-0.014": 0.0,
			"-0.013": 0.0,
			"-0.012": 0.568761226238,
			"-0.011": 2.73721194193,
			"-0.01": 2.88259151875,
			"-0.009": 6.20868468848,
			"-0.008": 6.6076945702,
			"-0.007": 6.68085842976,
			"-0.006": 6.05471057739,
			"-0.005": 7.58606419995,
			"-0.004": 7.41845262831,
			"-0.003": 9.71075760713,
			"-0.002": 14.8876848375,
			"-0.001": 20.3142147948,
			"0.0": 16.2518883844,
			"0.001": 6.56570821763,
			"0.002": 4.06370026485,
			"0.003": 3.7479213961,
			"0.004": 3.53343774092,
			"0.005": 4.99229466197,
			"0.006": 2.9994655764,
			"0.007": 4.80262868912,
			"0.008": 5.18613976406,
			"0.009": 5.49036726535,
			"0.01": 6.43941184215,
			"0.011": 6.7915036762,
			"0.012": 3.77173930479,
			"0.013": 0.740083890558,
			"0.014": 0.0,
			"0.015": 0.0,
			"0.016": 0.0,
			"0.017": 0.0,
			"0.018": 0.0,
			"0.019": 0.0,
			"0.02": 0.0,
			"0.021": 0.0,
			"0.022": 0.0,
			"0.023": 0.0,
			"0.024": 0.0,
			"0.025": 0.0
		}
	}
}
