{
	 "smiles": "[O-][N+](=O)C1=CC2=C3C(=CC=C2)C(=O)OC(=O)C3=C1", 
	 "Tm": 523.15, 
	 "num_atms": 23, 
	 "gaussian": { 
		 "optdone": 1, 
		 "sigma_profile": "yes", 
		 "theory": "DFT", 
		 "functional": "B3LYP", 
		 "basiset": "6-31G**", 
		 "properties": { 
			 "R2extent": 4736.3003, 
			 "electric_dipole_moment_norm": 6.38307729547, 
			 "electric_quadrupole_moment_norm": 21.5252826307, 
			 "total_energy": -891.088521386, 
			 "HOMO_LUMO_gap": 0.14786, 
			 "cosmo_polarized_energy": -17.51, 
			 "cosmo_cavitation_energy": 29.36, 
			 "cosmo_dispersion_energy": -21.76, 
			 "cosmo_repulsion_energy": 1.61, 
			 "cosmo_total_nonelectrostatic_energy": 9.21, 
			 "SMD_solvation_energy": 8.84 
		},
		"coords": [
			{
				"x": 1.4126532884,
				"y": -3.8559239804,
				"z": 1.0165129631,
				"element": "O" 
			},
			{
				"x": 2.0998005376,
				"y": -3.0057729639,
				"z": 0.4565931796,
				"element": "N" 
			},
			{
				"x": 3.1622432693,
				"y": -3.221535023,
				"z": -0.1236800456,
				"element": "O" 
			},
			{
				"x": 1.6091409003,
				"y": -1.614192141,
				"z": 0.483853127,
				"element": "C" 
			},
			{
				"x": 2.3580598446,
				"y": -0.6372472789,
				"z": -0.1364263255,
				"element": "C" 
			},
			{
				"x": 1.9044842479,
				"y": 0.703542762,
				"z": -0.1213187788,
				"element": "C" 
			},
			{
				"x": 0.67480384,
				"y": 1.0022050175,
				"z": 0.542298972,
				"element": "C" 
			},
			{
				"x": 0.2020801611,
				"y": 2.3366317787,
				"z": 0.5699085198,
				"element": "C" 
			},
			{
				"x": 0.925855995,
				"y": 3.3461446045,
				"z": -0.0418313386,
				"element": "C" 
			},
			{
				"x": 2.1408664238,
				"y": 3.0557126048,
				"z": -0.6984278232,
				"element": "C" 
			},
			{
				"x": 2.6220780696,
				"y": 1.7632038418,
				"z": -0.73879215,
				"element": "C" 
			},
			{
				"x": -1.0706718662,
				"y": 2.6549356143,
				"z": 1.2551286979,
				"element": "C" 
			},
			{
				"x": -1.554585422,
				"y": 3.754573655,
				"z": 1.3331065206,
				"element": "O" 
			},
			{
				"x": -1.7482225949,
				"y": 1.5983660155,
				"z": 1.8485454575,
				"element": "O" 
			},
			{
				"x": -1.3378993775,
				"y": 0.2736668271,
				"z": 1.8554748465,
				"element": "C" 
			},
			{
				"x": -2.032430962,
				"y": -0.5356691377,
				"z": 2.4127008303,
				"element": "O" 
			},
			{
				"x": -0.0621606558,
				"y": -0.0372671564,
				"z": 1.1672649843,
				"element": "C" 
			},
			{
				"x": 0.3960017097,
				"y": -1.3398357103,
				"z": 1.1421839311,
				"element": "C" 
			},
			{
				"x": 3.2850775308,
				"y": -0.9091324312,
				"z": -0.627820665,
				"element": "H" 
			},
			{
				"x": 0.5389876972,
				"y": 4.3590270686,
				"z": -0.0044912228,
				"element": "H" 
			},
			{
				"x": 2.6964804937,
				"y": 3.8578153228,
				"z": -1.1730838452,
				"element": "H" 
			},
			{
				"x": 3.5571455461,
				"y": 1.5388029516,
				"z": -1.2439081924,
				"element": "H" 
			},
			{
				"x": -0.1648886768,
				"y": -2.1341522415,
				"z": 1.6183083574,
				"element": "H" 
			}
		],
		 "valence_orbital": [ 
			{
				"type": "occ",
				"energy": -0.31863,
				"method": "rhf"
			},
			{
				"type": "occ",
				"energy": -0.31079,
				"method": "rhf"
			},
			{
				"type": "occ",
				"energy": -0.30067,
				"method": "rhf"
			},
			{
				"type": "occ",
				"energy": -0.29586,
				"method": "rhf"
			},
			{
				"type": "occ",
				"energy": -0.27282,
				"method": "rhf"
			},
			{
				"type": "unocc",
				"energy": -0.12496,
				"method": "rhf"
			},
			{
				"type": "unocc",
				"energy": -0.10206,
				"method": "rhf"
			},
			{
				"type": "unocc",
				"energy": -0.06298,
				"method": "rhf"
			},
			{
				"type": "unocc",
				"energy": -0.04534,
				"method": "rhf"
			},
			{
				"type": "unocc",
				"energy": -0.005,
				"method": "rhf"
			}
		],
		"cosmo_sigma_profile": { 
			"-0.025": 0.0,
			"-0.024": 0.0,
			"-0.023": 0.0,
			"-0.022": 0.0,
			"-0.021": 0.0,
			"-0.02": 0.0,
			"-0.019": 0.0,
			"-0.018": 0.0,
			"-0.017": 0.0,
			"-0.016": 0.0,
			"-0.015": 0.0,
			"-0.014": 0.0,
			"-0.013": 0.0,
			"-0.012": 0.0,
			"-0.011": 0.570045406037,
			"-0.01": 2.89305184218,
			"-0.009": 5.16629197794,
			"-0.008": 9.37779844376,
			"-0.007": 12.062695116,
			"-0.006": 11.7338240882,
			"-0.005": 12.5203981247,
			"-0.004": 15.4750216444,
			"-0.003": 24.1915056309,
			"-0.002": 24.1991860697,
			"-0.001": 16.1936431239,
			"0.0": 14.0024023377,
			"0.001": 8.44446991437,
			"0.002": 5.62854232144,
			"0.003": 4.1947203152,
			"0.004": 6.19809400207,
			"0.005": 6.47177954029,
			"0.006": 10.2864230158,
			"0.007": 13.2820631438,
			"0.008": 10.6078158652,
			"0.009": 11.0380858734,
			"0.01": 10.1757720152,
			"0.011": 3.59944835267,
			"0.012": 0.294844613173,
			"0.013": 0.0,
			"0.014": 0.0,
			"0.015": 0.0,
			"0.016": 0.0,
			"0.017": 0.0,
			"0.018": 0.0,
			"0.019": 0.0,
			"0.02": 0.0,
			"0.021": 0.0,
			"0.022": 0.0,
			"0.023": 0.0,
			"0.024": 0.0,
			"0.025": 0.0
		}
	}
}
