{
	 "smiles": "ClC1=NC=C(C=C1)C1=CC=C(Br)N=C1", 
	 "Tm": 517.15, 
	 "num_atms": 20, 
	 "gaussian": { 
		 "optdone": 1, 
		 "sigma_profile": "yes", 
		 "theory": "DFT", 
		 "functional": "B3LYP", 
		 "basiset": "6-31G**", 
		 "properties": { 
			 "R2extent": 8798.7528, 
			 "electric_dipole_moment_norm": 3.58299842032, 
			 "electric_quadrupole_moment_norm": 13.6344262604, 
			 "total_energy": -3525.7745838, 
			 "HOMO_LUMO_gap": 0.18444, 
			 "cosmo_polarized_energy": -11.75, 
			 "cosmo_cavitation_energy": 29.47, 
			 "cosmo_dispersion_energy": -22.33, 
			 "cosmo_repulsion_energy": 1.74, 
			 "cosmo_total_nonelectrostatic_energy": 8.89, 
			 "SMD_solvation_energy": 0.54 
		},
		"coords": [
			{
				"x": -2.398077181,
				"y": -3.6980431725,
				"z": -1.7444652463,
				"element": "Cl" 
			},
			{
				"x": -1.199214272,
				"y": -2.5249325657,
				"z": -1.2119543103,
				"element": "C" 
			},
			{
				"x": 0.014710782,
				"y": -2.9814274081,
				"z": -0.9659671906,
				"element": "N" 
			},
			{
				"x": 0.9371467405,
				"y": -2.100265394,
				"z": -0.5635555692,
				"element": "C" 
			},
			{
				"x": 0.693812198,
				"y": -0.728048489,
				"z": -0.3978951157,
				"element": "C" 
			},
			{
				"x": -0.612537267,
				"y": -0.2837786434,
				"z": -0.664045707,
				"element": "C" 
			},
			{
				"x": -1.5838564873,
				"y": -1.1876533662,
				"z": -1.0747984385,
				"element": "C" 
			},
			{
				"x": 1.7630766843,
				"y": 0.1943889739,
				"z": 0.040150184,
				"element": "C" 
			},
			{
				"x": 1.5165396658,
				"y": 1.2539978802,
				"z": 0.9298978347,
				"element": "C" 
			},
			{
				"x": 2.5537610696,
				"y": 2.0943405658,
				"z": 1.3144221339,
				"element": "C" 
			},
			{
				"x": 3.8212693728,
				"y": 1.8308005805,
				"z": 0.7874037454,
				"element": "C" 
			},
			{
				"x": 5.282305517,
				"y": 2.9603311339,
				"z": 1.309541833,
				"element": "Br" 
			},
			{
				"x": 4.0912081781,
				"y": 0.8511485151,
				"z": -0.053330079,
				"element": "N" 
			},
			{
				"x": 3.0811198539,
				"y": 0.0541647591,
				"z": -0.4211695137,
				"element": "C" 
			},
			{
				"x": 1.9189452062,
				"y": -2.5130118469,
				"z": -0.3426034587,
				"element": "H" 
			},
			{
				"x": -0.8613026132,
				"y": 0.7693625501,
				"z": -0.5709781661,
				"element": "H" 
			},
			{
				"x": -2.5979110346,
				"y": -0.8759834566,
				"z": -1.2942260099,
				"element": "H" 
			},
			{
				"x": 0.5209338726,
				"y": 1.4059590761,
				"z": 1.3367544127,
				"element": "H" 
			},
			{
				"x": 2.3979548261,
				"y": 2.9152614489,
				"z": 2.0034629519,
				"element": "H" 
			},
			{
				"x": 3.3317148883,
				"y": -0.7256111412,
				"z": -1.1368442907,
				"element": "H" 
			}
		],
		 "valence_orbital": [ 
			{
				"type": "occ",
				"energy": -0.29377,
				"method": "rhf"
			},
			{
				"type": "occ",
				"energy": -0.28575,
				"method": "rhf"
			},
			{
				"type": "occ",
				"energy": -0.28379,
				"method": "rhf"
			},
			{
				"type": "occ",
				"energy": -0.2779,
				"method": "rhf"
			},
			{
				"type": "occ",
				"energy": -0.24864,
				"method": "rhf"
			},
			{
				"type": "unocc",
				"energy": -0.0642,
				"method": "rhf"
			},
			{
				"type": "unocc",
				"energy": -0.04923,
				"method": "rhf"
			},
			{
				"type": "unocc",
				"energy": -0.04715,
				"method": "rhf"
			},
			{
				"type": "unocc",
				"energy": -0.00995,
				"method": "rhf"
			},
			{
				"type": "unocc",
				"energy": 0.00272,
				"method": "rhf"
			}
		],
		"cosmo_sigma_profile": { 
			"-0.025": 0.0,
			"-0.024": 0.0,
			"-0.023": 0.0,
			"-0.022": 0.0,
			"-0.021": 0.0,
			"-0.02": 0.0,
			"-0.019": 0.0,
			"-0.018": 0.0,
			"-0.017": 0.0,
			"-0.016": 0.0,
			"-0.015": 0.0,
			"-0.014": 0.0,
			"-0.013": 0.0,
			"-0.012": 0.0,
			"-0.011": 0.0,
			"-0.01": 0.0,
			"-0.009": 2.5246218797,
			"-0.008": 12.0932206873,
			"-0.007": 12.9025486001,
			"-0.006": 10.3377371949,
			"-0.005": 8.96065142342,
			"-0.004": 10.462556251,
			"-0.003": 9.79243519145,
			"-0.002": 13.5250097958,
			"-0.001": 27.0436796895,
			"0.0": 32.9405148669,
			"0.001": 20.9926735363,
			"0.002": 11.1417071758,
			"0.003": 16.5910844099,
			"0.004": 21.0300154946,
			"0.005": 10.5940346875,
			"0.006": 5.78941748934,
			"0.007": 3.47448618933,
			"0.008": 2.2877608996,
			"0.009": 2.64773096919,
			"0.01": 2.32903886379,
			"0.011": 1.66630043812,
			"0.012": 1.87213239259,
			"0.013": 1.78786212968,
			"0.014": 1.25358607501,
			"0.015": 0.106304481192,
			"0.016": 0.0,
			"0.017": 0.0,
			"0.018": 0.0,
			"0.019": 0.0,
			"0.02": 0.0,
			"0.021": 0.0,
			"0.022": 0.0,
			"0.023": 0.0,
			"0.024": 0.0,
			"0.025": 0.0
		}
	}
}
