{
	 "smiles": "OCCN1CCNC1=O", 
	 "Tm": 322.15, 
	 "num_atms": 19, 
	 "gaussian": { 
		 "optdone": 1, 
		 "sigma_profile": "yes", 
		 "theory": "DFT", 
		 "functional": "B3LYP", 
		 "basiset": "6-31G**", 
		 "properties": { 
			 "R2extent": 2297.6753, 
			 "electric_dipole_moment_norm": 5.95838835257, 
			 "electric_quadrupole_moment_norm": 19.0167639829, 
			 "total_energy": -456.522231837, 
			 "HOMO_LUMO_gap": 0.27871, 
			 "cosmo_polarized_energy": -14.53, 
			 "cosmo_cavitation_energy": 21.09, 
			 "cosmo_dispersion_energy": -16.25, 
			 "cosmo_repulsion_energy": 1.35, 
			 "cosmo_total_nonelectrostatic_energy": 6.19, 
			 "SMD_solvation_energy": 2.33 
		},
		"coords": [
			{
				"x": 3.8286642035,
				"y": 1.2792220193,
				"z": -1.1881133663,
				"element": "O" 
			},
			{
				"x": 3.0044410135,
				"y": 0.3079957171,
				"z": -0.593818137,
				"element": "C" 
			},
			{
				"x": 2.0891172197,
				"y": 0.8685664068,
				"z": 0.5101471486,
				"element": "C" 
			},
			{
				"x": 0.8414529792,
				"y": 1.4791450906,
				"z": 0.0498554401,
				"element": "N" 
			},
			{
				"x": -0.4743317945,
				"y": 0.8971816884,
				"z": 0.2940468341,
				"element": "C" 
			},
			{
				"x": -1.415235961,
				"y": 2.0007270213,
				"z": -0.2336729495,
				"element": "C" 
			},
			{
				"x": -0.5665645548,
				"y": 2.6340744056,
				"z": -1.2367093641,
				"element": "N" 
			},
			{
				"x": 0.7724880464,
				"y": 2.4515044744,
				"z": -0.919179298,
				"element": "C" 
			},
			{
				"x": 1.7142399858,
				"y": 3.0501440647,
				"z": -1.4386085909,
				"element": "O" 
			},
			{
				"x": 3.2485134497,
				"y": 2.0235936674,
				"z": -1.440850614,
				"element": "H" 
			},
			{
				"x": 2.3804314493,
				"y": -0.2305245417,
				"z": -1.3304426915,
				"element": "H" 
			},
			{
				"x": 3.6715819114,
				"y": -0.4338234587,
				"z": -0.1370773663,
				"element": "H" 
			},
			{
				"x": 2.6663412307,
				"y": 1.6023298233,
				"z": 1.0860759759,
				"element": "H" 
			},
			{
				"x": 1.8011036761,
				"y": 0.0652878489,
				"z": 1.1959429742,
				"element": "H" 
			},
			{
				"x": -0.6101031424,
				"y": -0.0411138683,
				"z": -0.2649049542,
				"element": "H" 
			},
			{
				"x": -0.6324906482,
				"y": 0.6904690241,
				"z": 1.3568737938,
				"element": "H" 
			},
			{
				"x": -1.6922808273,
				"y": 2.6945733796,
				"z": 0.5735620669,
				"element": "H" 
			},
			{
				"x": -2.3301523681,
				"y": 1.5913063287,
				"z": -0.6703013876,
				"element": "H" 
			},
			{
				"x": -0.810315869,
				"y": 3.5263409084,
				"z": -1.6419255142,
				"element": "H" 
			}
		],
		 "valence_orbital": [ 
			{
				"type": "occ",
				"energy": -0.3174,
				"method": "rhf"
			},
			{
				"type": "occ",
				"energy": -0.273,
				"method": "rhf"
			},
			{
				"type": "occ",
				"energy": -0.25948,
				"method": "rhf"
			},
			{
				"type": "occ",
				"energy": -0.24766,
				"method": "rhf"
			},
			{
				"type": "occ",
				"energy": -0.23311,
				"method": "rhf"
			},
			{
				"type": "unocc",
				"energy": 0.0456,
				"method": "rhf"
			},
			{
				"type": "unocc",
				"energy": 0.07152,
				"method": "rhf"
			},
			{
				"type": "unocc",
				"energy": 0.09349,
				"method": "rhf"
			},
			{
				"type": "unocc",
				"energy": 0.09802,
				"method": "rhf"
			},
			{
				"type": "unocc",
				"energy": 0.11699,
				"method": "rhf"
			}
		],
		"cosmo_sigma_profile": { 
			"-0.025": 0.0,
			"-0.024": 0.0,
			"-0.023": 0.0,
			"-0.022": 0.0,
			"-0.021": 0.0,
			"-0.02": 0.0,
			"-0.019": 0.0,
			"-0.018": 0.0,
			"-0.017": 0.0,
			"-0.016": 0.0,
			"-0.015": 0.0,
			"-0.014": 0.605153029823,
			"-0.013": 1.21978159698,
			"-0.012": 1.00987620119,
			"-0.011": 1.13458860916,
			"-0.01": 1.06334801595,
			"-0.009": 1.10815215353,
			"-0.008": 0.773116866354,
			"-0.007": 0.95287056015,
			"-0.006": 8.21064073667,
			"-0.005": 16.6094458431,
			"-0.004": 26.3529682898,
			"-0.003": 20.9962494556,
			"-0.002": 14.2361332972,
			"-0.001": 8.15208091735,
			"0.0": 5.7794780598,
			"0.001": 5.31297299817,
			"0.002": 5.63618376314,
			"0.003": 4.91441460732,
			"0.004": 3.15546150536,
			"0.005": 3.89985727398,
			"0.006": 4.04901421107,
			"0.007": 3.63336264774,
			"0.008": 3.39529078545,
			"0.009": 2.55670930314,
			"0.01": 2.09354432039,
			"0.011": 3.22012252159,
			"0.012": 3.64968332632,
			"0.013": 3.73816913525,
			"0.014": 3.08886397718,
			"0.015": 3.30613544905,
			"0.016": 0.698572805265,
			"0.017": 0.0,
			"0.018": 0.0,
			"0.019": 0.0,
			"0.02": 0.0,
			"0.021": 0.0,
			"0.022": 0.0,
			"0.023": 0.0,
			"0.024": 0.0,
			"0.025": 0.0
		}
	}
}
