{
	 "smiles": "CCC1=C(C=C(C=C1)C(O)=O)C#N", 
	 "Tm": 415.15, 
	 "num_atms": 22, 
	 "gaussian": { 
		 "optdone": 1, 
		 "sigma_profile": "yes", 
		 "theory": "DFT", 
		 "functional": "B3LYP", 
		 "basiset": "6-31G**", 
		 "properties": { 
			 "R2extent": 3480.6802, 
			 "electric_dipole_moment_norm": 3.15927809634, 
			 "electric_quadrupole_moment_norm": 24.0236383231, 
			 "total_energy": -591.689019412, 
			 "HOMO_LUMO_gap": 0.20161, 
			 "cosmo_polarized_energy": -17.53, 
			 "cosmo_cavitation_energy": 27.45, 
			 "cosmo_dispersion_energy": -19.09, 
			 "cosmo_repulsion_energy": 1.51, 
			 "cosmo_total_nonelectrostatic_energy": 9.87, 
			 "SMD_solvation_energy": 7.03 
		},
		"coords": [
			{
				"x": -0.6565972489,
				"y": 1.2578242781,
				"z": 2.0267179932,
				"element": "C" 
			},
			{
				"x": -0.0185444623,
				"y": 1.8987355683,
				"z": 0.7784709822,
				"element": "C" 
			},
			{
				"x": 0.7206488418,
				"y": 0.8964573268,
				"z": -0.0774974686,
				"element": "C" 
			},
			{
				"x": 0.0531327879,
				"y": 0.1117353078,
				"z": -1.0450228444,
				"element": "C" 
			},
			{
				"x": 0.7496588216,
				"y": -0.8325855842,
				"z": -1.8161962066,
				"element": "C" 
			},
			{
				"x": 2.121629362,
				"y": -1.0163116454,
				"z": -1.6377398376,
				"element": "C" 
			},
			{
				"x": 2.7860854085,
				"y": -0.2588436596,
				"z": -0.6624411677,
				"element": "C" 
			},
			{
				"x": 2.0954304139,
				"y": 0.6835860433,
				"z": 0.0906508625,
				"element": "C" 
			},
			{
				"x": 2.9262011275,
				"y": -2.0198222214,
				"z": -2.4115439324,
				"element": "C" 
			},
			{
				"x": 2.4047275009,
				"y": -2.4551034638,
				"z": -3.5874267978,
				"element": "O" 
			},
			{
				"x": 3.991805321,
				"y": -2.4393587536,
				"z": -2.0275539513,
				"element": "O" 
			},
			{
				"x": -1.3577700892,
				"y": 0.2673075707,
				"z": -1.2566934316,
				"element": "C" 
			},
			{
				"x": -2.5009201399,
				"y": 0.3913661058,
				"z": -1.4343548535,
				"element": "N" 
			},
			{
				"x": -1.162987971,
				"y": 2.0197649384,
				"z": 2.6266214838,
				"element": "H" 
			},
			{
				"x": 0.1003381511,
				"y": 0.7765982201,
				"z": 2.6538644153,
				"element": "H" 
			},
			{
				"x": -1.3967675678,
				"y": 0.502633305,
				"z": 1.7469899814,
				"element": "H" 
			},
			{
				"x": -0.8001488754,
				"y": 2.3860790672,
				"z": 0.1860715621,
				"element": "H" 
			},
			{
				"x": 0.6822818773,
				"y": 2.6814620372,
				"z": 1.0881424385,
				"element": "H" 
			},
			{
				"x": 0.1841642294,
				"y": -1.4330316535,
				"z": -2.5230605972,
				"element": "H" 
			},
			{
				"x": 3.8479139192,
				"y": -0.425514676,
				"z": -0.5165015445,
				"element": "H" 
			},
			{
				"x": 2.6295980761,
				"y": 1.2728891672,
				"z": 0.830712625,
				"element": "H" 
			},
			{
				"x": 1.647020516,
				"y": -1.9136672784,
				"z": -3.8481097108,
				"element": "H" 
			}
		],
		 "valence_orbital": [ 
			{
				"type": "occ",
				"energy": -0.34381,
				"method": "rhf"
			},
			{
				"type": "occ",
				"energy": -0.3275,
				"method": "rhf"
			},
			{
				"type": "occ",
				"energy": -0.2897,
				"method": "rhf"
			},
			{
				"type": "occ",
				"energy": -0.28745,
				"method": "rhf"
			},
			{
				"type": "occ",
				"energy": -0.27481,
				"method": "rhf"
			},
			{
				"type": "unocc",
				"energy": -0.0732,
				"method": "rhf"
			},
			{
				"type": "unocc",
				"energy": -0.06135,
				"method": "rhf"
			},
			{
				"type": "unocc",
				"energy": 0.01716,
				"method": "rhf"
			},
			{
				"type": "unocc",
				"energy": 0.02337,
				"method": "rhf"
			},
			{
				"type": "unocc",
				"energy": 0.04642,
				"method": "rhf"
			}
		],
		"cosmo_sigma_profile": { 
			"-0.025": 0.0,
			"-0.024": 0.0,
			"-0.023": 0.0,
			"-0.022": 0.0,
			"-0.021": 0.0,
			"-0.02": 0.254047806591,
			"-0.019": 0.887992863515,
			"-0.018": 1.03616078285,
			"-0.017": 0.926563886057,
			"-0.016": 1.21758800262,
			"-0.015": 1.04377314252,
			"-0.014": 0.938696528922,
			"-0.013": 1.14105537328,
			"-0.012": 1.52077217379,
			"-0.011": 1.14964922564,
			"-0.01": 1.20205972064,
			"-0.009": 1.7237264409,
			"-0.008": 2.86981622964,
			"-0.007": 6.51991517668,
			"-0.006": 7.05800581353,
			"-0.005": 9.16127559646,
			"-0.004": 13.434315275,
			"-0.003": 20.9978032585,
			"-0.002": 22.3467277741,
			"-0.001": 21.0898359359,
			"0.0": 22.8546538451,
			"0.001": 15.2171436276,
			"0.002": 6.89892589436,
			"0.003": 3.56000518848,
			"0.004": 3.86831112406,
			"0.005": 4.77047839911,
			"0.006": 5.29045086216,
			"0.007": 4.1246810177,
			"0.008": 6.0474123653,
			"0.009": 6.50040495345,
			"0.01": 7.977015436,
			"0.011": 8.23148604899,
			"0.012": 6.04807513581,
			"0.013": 1.80910343473,
			"0.014": 0.0,
			"0.015": 0.0,
			"0.016": 0.0,
			"0.017": 0.0,
			"0.018": 0.0,
			"0.019": 0.0,
			"0.02": 0.0,
			"0.021": 0.0,
			"0.022": 0.0,
			"0.023": 0.0,
			"0.024": 0.0,
			"0.025": 0.0
		}
	}
}
