{
	 "smiles": "OC(=O)CNC1=CC(Cl)=CC=C1", 
	 "Tm": 448.15, 
	 "num_atms": 20, 
	 "gaussian": { 
		 "optdone": 1, 
		 "sigma_profile": "yes", 
		 "theory": "DFT", 
		 "functional": "B3LYP", 
		 "basiset": "6-31G**", 
		 "properties": { 
			 "R2extent": 2929.8863, 
			 "electric_dipole_moment_norm": 3.96138290121, 
			 "electric_quadrupole_moment_norm": 5.13847805191, 
			 "total_energy": -975.074717557, 
			 "HOMO_LUMO_gap": 0.1968, 
			 "cosmo_polarized_energy": -13.89, 
			 "cosmo_cavitation_energy": 26.48, 
			 "cosmo_dispersion_energy": -19.1, 
			 "cosmo_repulsion_energy": 1.56, 
			 "cosmo_total_nonelectrostatic_energy": 8.94, 
			 "SMD_solvation_energy": 4.55 
		},
		"coords": [
			{
				"x": -0.6349629316,
				"y": 2.6949632047,
				"z": -1.9523207835,
				"element": "O" 
			},
			{
				"x": -0.3014378303,
				"y": 2.6869183081,
				"z": -0.6423494041,
				"element": "C" 
			},
			{
				"x": 0.6685433749,
				"y": 3.2552382264,
				"z": -0.196600857,
				"element": "O" 
			},
			{
				"x": -1.3249617108,
				"y": 1.9282511622,
				"z": 0.2080918494,
				"element": "C" 
			},
			{
				"x": -2.0042195604,
				"y": 0.8202784339,
				"z": -0.4183232268,
				"element": "N" 
			},
			{
				"x": -1.3242737572,
				"y": -0.3336862992,
				"z": -0.8121557106,
				"element": "C" 
			},
			{
				"x": -0.0200839316,
				"y": -0.6208732674,
				"z": -0.373123532,
				"element": "C" 
			},
			{
				"x": 0.5797327163,
				"y": -1.8195813851,
				"z": -0.7577034471,
				"element": "C" 
			},
			{
				"x": 2.2131981053,
				"y": -2.1567572169,
				"z": -0.1913494399,
				"element": "Cl" 
			},
			{
				"x": -0.058992519,
				"y": -2.7468673366,
				"z": -1.5748171733,
				"element": "C" 
			},
			{
				"x": -1.3517781454,
				"y": -2.4447590784,
				"z": -2.0135507503,
				"element": "C" 
			},
			{
				"x": -1.9806983914,
				"y": -1.2634649099,
				"z": -1.6422503795,
				"element": "C" 
			},
			{
				"x": 0.0574947703,
				"y": 3.2032112257,
				"z": -2.4077049043,
				"element": "H" 
			},
			{
				"x": -0.8107045692,
				"y": 1.6100698147,
				"z": 1.1183610545,
				"element": "H" 
			},
			{
				"x": -2.0788521266,
				"y": 2.6598534781,
				"z": 0.5215922966,
				"element": "H" 
			},
			{
				"x": -2.7395181519,
				"y": 1.0929788966,
				"z": -1.0551977875,
				"element": "H" 
			},
			{
				"x": 0.5336091814,
				"y": 0.0689599938,
				"z": 0.2513677856,
				"element": "H" 
			},
			{
				"x": 0.4359458446,
				"y": -3.667554018,
				"z": -1.8590213191,
				"element": "H" 
			},
			{
				"x": -1.8748133991,
				"y": -3.1481765355,
				"z": -2.6550005434,
				"element": "H" 
			},
			{
				"x": -2.9901269683,
				"y": -1.0515026972,
				"z": -1.9848437278,
				"element": "H" 
			}
		],
		 "valence_orbital": [ 
			{
				"type": "occ",
				"energy": -0.30867,
				"method": "rhf"
			},
			{
				"type": "occ",
				"energy": -0.30658,
				"method": "rhf"
			},
			{
				"type": "occ",
				"energy": -0.28109,
				"method": "rhf"
			},
			{
				"type": "occ",
				"energy": -0.2466,
				"method": "rhf"
			},
			{
				"type": "occ",
				"energy": -0.2108,
				"method": "rhf"
			},
			{
				"type": "unocc",
				"energy": -0.014,
				"method": "rhf"
			},
			{
				"type": "unocc",
				"energy": 0.00134,
				"method": "rhf"
			},
			{
				"type": "unocc",
				"energy": 0.00523,
				"method": "rhf"
			},
			{
				"type": "unocc",
				"energy": 0.0345,
				"method": "rhf"
			},
			{
				"type": "unocc",
				"energy": 0.06318,
				"method": "rhf"
			}
		],
		"cosmo_sigma_profile": { 
			"-0.025": 0.0,
			"-0.024": 0.0,
			"-0.023": 0.0,
			"-0.022": 0.0,
			"-0.021": 0.0,
			"-0.02": 0.0,
			"-0.019": 0.0612924381933,
			"-0.018": 0.788672005118,
			"-0.017": 1.11622468235,
			"-0.016": 1.0409285691,
			"-0.015": 0.40743425102,
			"-0.014": 1.03216173325,
			"-0.013": 1.7372237782,
			"-0.012": 1.77968168332,
			"-0.011": 2.45775769197,
			"-0.01": 2.36412671202,
			"-0.009": 3.62049992892,
			"-0.008": 5.93685729119,
			"-0.007": 7.13662889032,
			"-0.006": 10.4145672317,
			"-0.005": 11.7111673158,
			"-0.004": 11.553724401,
			"-0.003": 9.25256486219,
			"-0.002": 10.3673297073,
			"-0.001": 9.09745445099,
			"0.0": 10.1594431333,
			"0.001": 9.54814821314,
			"0.002": 14.4883212264,
			"0.003": 17.3569993375,
			"0.004": 21.6614149106,
			"0.005": 22.2346944573,
			"0.006": 5.6061115799,
			"0.007": 3.46757997854,
			"0.008": 2.94918194341,
			"0.009": 2.23100728583,
			"0.01": 2.85685124108,
			"0.011": 4.0253814704,
			"0.012": 4.08719520856,
			"0.013": 0.368235929093,
			"0.014": 0.0,
			"0.015": 0.0,
			"0.016": 0.0,
			"0.017": 0.0,
			"0.018": 0.0,
			"0.019": 0.0,
			"0.02": 0.0,
			"0.021": 0.0,
			"0.022": 0.0,
			"0.023": 0.0,
			"0.024": 0.0,
			"0.025": 0.0
		}
	}
}
