{
	 "smiles": "SC1=NN=CS1", 
	 "Tm": 416.15, 
	 "num_atms": 8, 
	 "gaussian": { 
		 "optdone": 1, 
		 "sigma_profile": "yes", 
		 "theory": "DFT", 
		 "functional": "B3LYP", 
		 "basiset": "6-31G**", 
		 "properties": { 
			 "R2extent": 1635.6017, 
			 "electric_dipole_moment_norm": 3.84351551317, 
			 "electric_quadrupole_moment_norm": 9.35603885146, 
			 "total_energy": -983.243784694, 
			 "HOMO_LUMO_gap": 0.20638, 
			 "cosmo_polarized_energy": -11.52, 
			 "cosmo_cavitation_energy": 15.94, 
			 "cosmo_dispersion_energy": -13.22, 
			 "cosmo_repulsion_energy": 1.02, 
			 "cosmo_total_nonelectrostatic_energy": 3.74, 
			 "SMD_solvation_energy": 0.76 
		},
		"coords": [
			{
				"x": -2.2458317435,
				"y": -2.695383051,
				"z": 0.2170681095,
				"element": "S" 
			},
			{
				"x": -1.8382838302,
				"y": -1.037182173,
				"z": -0.2317536465,
				"element": "C" 
			},
			{
				"x": -0.8423274084,
				"y": -0.7953085002,
				"z": -1.034419876,
				"element": "N" 
			},
			{
				"x": -0.6650423793,
				"y": 0.5407390873,
				"z": -1.2768225068,
				"element": "N" 
			},
			{
				"x": -1.5266720517,
				"y": 1.2864639779,
				"z": -0.6561954595,
				"element": "C" 
			},
			{
				"x": -2.6799774289,
				"y": 0.4067222794,
				"z": 0.3212897301,
				"element": "S" 
			},
			{
				"x": -3.2854513335,
				"y": -2.3777630335,
				"z": 1.0123028875,
				"element": "H" 
			},
			{
				"x": -1.5435138246,
				"y": 2.3667114131,
				"z": -0.7260692385,
				"element": "H" 
			}
		],
		 "valence_orbital": [ 
			{
				"type": "occ",
				"energy": -0.33739,
				"method": "rhf"
			},
			{
				"type": "occ",
				"energy": -0.31669,
				"method": "rhf"
			},
			{
				"type": "occ",
				"energy": -0.30954,
				"method": "rhf"
			},
			{
				"type": "occ",
				"energy": -0.27648,
				"method": "rhf"
			},
			{
				"type": "occ",
				"energy": -0.25422,
				"method": "rhf"
			},
			{
				"type": "unocc",
				"energy": -0.04784,
				"method": "rhf"
			},
			{
				"type": "unocc",
				"energy": -0.03462,
				"method": "rhf"
			},
			{
				"type": "unocc",
				"energy": 0.01603,
				"method": "rhf"
			},
			{
				"type": "unocc",
				"energy": 0.01669,
				"method": "rhf"
			},
			{
				"type": "unocc",
				"energy": 0.04712,
				"method": "rhf"
			}
		],
		"cosmo_sigma_profile": { 
			"-0.025": 0.0,
			"-0.024": 0.0,
			"-0.023": 0.0,
			"-0.022": 0.0,
			"-0.021": 0.0,
			"-0.02": 0.0,
			"-0.019": 0.0,
			"-0.018": 0.0,
			"-0.017": 0.0,
			"-0.016": 0.0,
			"-0.015": 0.0,
			"-0.014": 0.0,
			"-0.013": 2.01303178597,
			"-0.012": 3.02953572278,
			"-0.011": 4.44280136335,
			"-0.01": 3.53222327408,
			"-0.009": 3.3289617916,
			"-0.008": 3.33800893117,
			"-0.007": 3.44832578054,
			"-0.006": 3.28836938417,
			"-0.005": 4.53833818565,
			"-0.004": 3.62765871833,
			"-0.003": 6.75207298005,
			"-0.002": 9.56608589985,
			"-0.001": 11.7793182554,
			"0.0": 10.537972073,
			"0.001": 10.7210591351,
			"0.002": 8.02580071047,
			"0.003": 6.64843404984,
			"0.004": 5.63905425481,
			"0.005": 5.48070210372,
			"0.006": 3.84677202786,
			"0.007": 2.18782141809,
			"0.008": 3.08768639124,
			"0.009": 1.94372496711,
			"0.01": 2.73058520574,
			"0.011": 3.24750614871,
			"0.012": 3.00347283452,
			"0.013": 2.42185342282,
			"0.014": 1.55914431975,
			"0.015": 0.104524213316,
			"0.016": 0.0,
			"0.017": 0.0,
			"0.018": 0.0,
			"0.019": 0.0,
			"0.02": 0.0,
			"0.021": 0.0,
			"0.022": 0.0,
			"0.023": 0.0,
			"0.024": 0.0,
			"0.025": 0.0
		}
	}
}
