{
	 "smiles": "O=C1CCC2CCC3=CC=CC=C3[C@@H]2O1", 
	 "Tm": 412.15, 
	 "num_atms": 29, 
	 "gaussian": { 
		 "optdone": 1, 
		 "sigma_profile": "yes", 
		 "theory": "DFT", 
		 "functional": "B3LYP", 
		 "basiset": "6-31G**", 
		 "properties": { 
			 "R2extent": 3521.7094, 
			 "electric_dipole_moment_norm": 4.67820441195, 
			 "electric_quadrupole_moment_norm": 18.9664996768, 
			 "total_energy": -654.290533262, 
			 "HOMO_LUMO_gap": 0.23313, 
			 "cosmo_polarized_energy": -12.39, 
			 "cosmo_cavitation_energy": 30.05, 
			 "cosmo_dispersion_energy": -22.37, 
			 "cosmo_repulsion_energy": 1.73, 
			 "cosmo_total_nonelectrostatic_energy": 9.41, 
			 "SMD_solvation_energy": 5.08 
		},
		"coords": [
			{
				"x": 2.8545803964,
				"y": 3.1694662232,
				"z": -1.5911166493,
				"element": "O" 
			},
			{
				"x": 2.6469724337,
				"y": 2.0154888196,
				"z": -1.3051667508,
				"element": "C" 
			},
			{
				"x": 3.6352765758,
				"y": 0.8799808687,
				"z": -1.5151696224,
				"element": "C" 
			},
			{
				"x": 3.003988026,
				"y": -0.4184686477,
				"z": -2.0774024575,
				"element": "C" 
			},
			{
				"x": 1.5176930364,
				"y": -0.5560385291,
				"z": -1.6853028208,
				"element": "C" 
			},
			{
				"x": 1.0619197215,
				"y": -2.0008598586,
				"z": -1.4602500019,
				"element": "C" 
			},
			{
				"x": -0.4509986391,
				"y": -2.0596344917,
				"z": -1.2171360082,
				"element": "C" 
			},
			{
				"x": -0.9473528427,
				"y": -1.0106396739,
				"z": -0.2360814391,
				"element": "C" 
			},
			{
				"x": -2.2264997532,
				"y": -1.1399311906,
				"z": 0.3240794736,
				"element": "C" 
			},
			{
				"x": -2.7382753905,
				"y": -0.1779783568,
				"z": 1.1903898774,
				"element": "C" 
			},
			{
				"x": -1.9686387428,
				"y": 0.942318787,
				"z": 1.513930718,
				"element": "C" 
			},
			{
				"x": -0.693828307,
				"y": 1.0816593639,
				"z": 0.9731803024,
				"element": "C" 
			},
			{
				"x": -0.1745589381,
				"y": 0.1147202242,
				"z": 0.1010431665,
				"element": "C" 
			},
			{
				"x": 1.2378190971,
				"y": 0.2680312532,
				"z": -0.4283329383,
				"element": "C" 
			},
			{
				"x": 1.4677580824,
				"y": 1.6701531063,
				"z": -0.7141287784,
				"element": "O" 
			},
			{
				"x": 4.0756289331,
				"y": 0.6741966206,
				"z": -0.5304036719,
				"element": "H" 
			},
			{
				"x": 4.4396638085,
				"y": 1.2590608613,
				"z": -2.1468663686,
				"element": "H" 
			},
			{
				"x": 3.0974130936,
				"y": -0.4367226323,
				"z": -3.1675489928,
				"element": "H" 
			},
			{
				"x": 3.5716093678,
				"y": -1.2780514024,
				"z": -1.7025427676,
				"element": "H" 
			},
			{
				"x": 0.8981418528,
				"y": -0.1133706918,
				"z": -2.4780220861,
				"element": "H" 
			},
			{
				"x": 1.5998097184,
				"y": -2.4158154227,
				"z": -0.5961347618,
				"element": "H" 
			},
			{
				"x": 1.3309954322,
				"y": -2.6223289094,
				"z": -2.322138353,
				"element": "H" 
			},
			{
				"x": -0.7416008115,
				"y": -3.0575290131,
				"z": -0.8683862452,
				"element": "H" 
			},
			{
				"x": -0.9711134982,
				"y": -1.9145400278,
				"z": -2.1751443532,
				"element": "H" 
			},
			{
				"x": -2.8273055797,
				"y": -2.0098905507,
				"z": 0.068492059,
				"element": "H" 
			},
			{
				"x": -3.7320834006,
				"y": -0.300483018,
				"z": 1.6116478249,
				"element": "H" 
			},
			{
				"x": -2.3597882927,
				"y": 1.7019642542,
				"z": 2.1843432138,
				"element": "H" 
			},
			{
				"x": -0.0920641312,
				"y": 1.9532309355,
				"z": 1.2091770074,
				"element": "H" 
			},
			{
				"x": 1.9432387516,
				"y": -0.0317889009,
				"z": 0.3637914239,
				"element": "H" 
			}
		],
		 "valence_orbital": [ 
			{
				"type": "occ",
				"energy": -0.31161,
				"method": "rhf"
			},
			{
				"type": "occ",
				"energy": -0.28579,
				"method": "rhf"
			},
			{
				"type": "occ",
				"energy": -0.26057,
				"method": "rhf"
			},
			{
				"type": "occ",
				"energy": -0.24588,
				"method": "rhf"
			},
			{
				"type": "occ",
				"energy": -0.24136,
				"method": "rhf"
			},
			{
				"type": "unocc",
				"energy": -0.00823,
				"method": "rhf"
			},
			{
				"type": "unocc",
				"energy": -0.00372,
				"method": "rhf"
			},
			{
				"type": "unocc",
				"energy": 0.01523,
				"method": "rhf"
			},
			{
				"type": "unocc",
				"energy": 0.07721,
				"method": "rhf"
			},
			{
				"type": "unocc",
				"energy": 0.0858,
				"method": "rhf"
			}
		],
		"cosmo_sigma_profile": { 
			"-0.025": 0.0,
			"-0.024": 0.0,
			"-0.023": 0.0,
			"-0.022": 0.0,
			"-0.021": 0.0,
			"-0.02": 0.0,
			"-0.019": 0.0,
			"-0.018": 0.0,
			"-0.017": 0.0,
			"-0.016": 0.0,
			"-0.015": 0.0,
			"-0.014": 0.0,
			"-0.013": 0.0,
			"-0.012": 0.0,
			"-0.011": 0.0,
			"-0.01": 0.0,
			"-0.009": 0.000574409778376,
			"-0.008": 1.27849426673,
			"-0.007": 3.62986705932,
			"-0.006": 7.50667459101,
			"-0.005": 15.8087982294,
			"-0.004": 29.4174269699,
			"-0.003": 35.1319056185,
			"-0.002": 29.4090488462,
			"-0.001": 22.0562390496,
			"0.0": 13.0679070099,
			"0.001": 7.75002660472,
			"0.002": 8.05868758881,
			"0.003": 9.08649983745,
			"0.004": 8.2637826261,
			"0.005": 10.3501642308,
			"0.006": 10.0594515538,
			"0.007": 3.46115095914,
			"0.008": 1.7568908002,
			"0.009": 2.513750391,
			"0.01": 3.04579358803,
			"0.011": 3.60375525322,
			"0.012": 6.08130336086,
			"0.013": 4.02057282001,
			"0.014": 0.794145411676,
			"0.015": 0.0,
			"0.016": 0.0,
			"0.017": 0.0,
			"0.018": 0.0,
			"0.019": 0.0,
			"0.02": 0.0,
			"0.021": 0.0,
			"0.022": 0.0,
			"0.023": 0.0,
			"0.024": 0.0,
			"0.025": 0.0
		}
	}
}
