{
	 "smiles": "O=CC(C=O)C1=NC2=CC=CC=C2N=C1", 
	 "Tm": 471.15, 
	 "num_atms": 23, 
	 "gaussian": { 
		 "optdone": 1, 
		 "sigma_profile": "yes", 
		 "theory": "DFT", 
		 "functional": "B3LYP", 
		 "basiset": "6-31G**", 
		 "properties": { 
			 "R2extent": 4619.465, 
			 "electric_dipole_moment_norm": 4.75848313436, 
			 "electric_quadrupole_moment_norm": 16.9308520494, 
			 "total_energy": -683.906633216, 
			 "HOMO_LUMO_gap": 0.16631, 
			 "cosmo_polarized_energy": -12.79, 
			 "cosmo_cavitation_energy": 28.92, 
			 "cosmo_dispersion_energy": -20.49, 
			 "cosmo_repulsion_energy": 1.61, 
			 "cosmo_total_nonelectrostatic_energy": 10.04, 
			 "SMD_solvation_energy": 4.61 
		},
		"coords": [
			{
				"x": -0.8802693954,
				"y": 4.1490547825,
				"z": -0.4619098348,
				"element": "O" 
			},
			{
				"x": -0.5983671546,
				"y": 3.092314465,
				"z": -0.969360007,
				"element": "C" 
			},
			{
				"x": -0.5996404943,
				"y": 1.7587466504,
				"z": -0.1950260205,
				"element": "C" 
			},
			{
				"x": -1.9288747953,
				"y": 1.033328222,
				"z": -0.4865286743,
				"element": "C" 
			},
			{
				"x": -2.8739499512,
				"y": 1.0639182037,
				"z": 0.2615130335,
				"element": "O" 
			},
			{
				"x": 0.5641605441,
				"y": 0.9035868135,
				"z": -0.6342179602,
				"element": "C" 
			},
			{
				"x": 0.6161358354,
				"y": 0.5712194508,
				"z": -1.9109804019,
				"element": "N" 
			},
			{
				"x": 1.6669143812,
				"y": -0.2019631934,
				"z": -2.3119842933,
				"element": "C" 
			},
			{
				"x": 1.7770166817,
				"y": -0.590966354,
				"z": -3.6705945508,
				"element": "C" 
			},
			{
				"x": 2.8374502089,
				"y": -1.3713511244,
				"z": -4.0755914837,
				"element": "C" 
			},
			{
				"x": 3.8243302996,
				"y": -1.7923706333,
				"z": -3.1476010542,
				"element": "C" 
			},
			{
				"x": 3.7414513376,
				"y": -1.4286196613,
				"z": -1.8217126798,
				"element": "C" 
			},
			{
				"x": 2.6613247446,
				"y": -0.6259244194,
				"z": -1.3759322826,
				"element": "C" 
			},
			{
				"x": 2.5846839835,
				"y": -0.2686092963,
				"z": -0.0601363141,
				"element": "N" 
			},
			{
				"x": 1.5617217465,
				"y": 0.4754146562,
				"z": 0.2930392211,
				"element": "C" 
			},
			{
				"x": -0.3136760016,
				"y": 2.9947813534,
				"z": -2.0365638101,
				"element": "H" 
			},
			{
				"x": -0.5775879574,
				"y": 1.9945225218,
				"z": 0.8711931537,
				"element": "H" 
			},
			{
				"x": -1.9396598134,
				"y": 0.4784196782,
				"z": -1.4464602069,
				"element": "H" 
			},
			{
				"x": 1.0105342308,
				"y": -0.257214833,
				"z": -4.3625098853,
				"element": "H" 
			},
			{
				"x": 2.9232141928,
				"y": -1.6701823289,
				"z": -5.1160447815,
				"element": "H" 
			},
			{
				"x": 4.6507440892,
				"y": -2.4071131003,
				"z": -3.491281495,
				"element": "H" 
			},
			{
				"x": 4.4820701134,
				"y": -1.7365429715,
				"z": -1.0909309526,
				"element": "H" 
			},
			{
				"x": 1.4896731739,
				"y": 0.7670511182,
				"z": 1.3400212801,
				"element": "H" 
			}
		],
		 "valence_orbital": [ 
			{
				"type": "occ",
				"energy": -0.28756,
				"method": "rhf"
			},
			{
				"type": "occ",
				"energy": -0.28359,
				"method": "rhf"
			},
			{
				"type": "occ",
				"energy": -0.26119,
				"method": "rhf"
			},
			{
				"type": "occ",
				"energy": -0.25853,
				"method": "rhf"
			},
			{
				"type": "occ",
				"energy": -0.25398,
				"method": "rhf"
			},
			{
				"type": "unocc",
				"energy": -0.08767,
				"method": "rhf"
			},
			{
				"type": "unocc",
				"energy": -0.06515,
				"method": "rhf"
			},
			{
				"type": "unocc",
				"energy": -0.04386,
				"method": "rhf"
			},
			{
				"type": "unocc",
				"energy": -0.00907,
				"method": "rhf"
			},
			{
				"type": "unocc",
				"energy": -0.00425,
				"method": "rhf"
			}
		],
		"cosmo_sigma_profile": { 
			"-0.025": 0.0,
			"-0.024": 0.0,
			"-0.023": 0.0,
			"-0.022": 0.0,
			"-0.021": 0.0,
			"-0.02": 0.0,
			"-0.019": 0.0,
			"-0.018": 0.0,
			"-0.017": 0.0,
			"-0.016": 0.0,
			"-0.015": 0.0,
			"-0.014": 0.0,
			"-0.013": 0.0,
			"-0.012": 0.0,
			"-0.011": 0.0,
			"-0.01": 0.369344426787,
			"-0.009": 3.26414633476,
			"-0.008": 6.52700749747,
			"-0.007": 14.7577185715,
			"-0.006": 19.4389854101,
			"-0.005": 15.8721011064,
			"-0.004": 15.5574349998,
			"-0.003": 14.7690967095,
			"-0.002": 11.2991943211,
			"-0.001": 11.7487040324,
			"0.0": 14.0642395494,
			"0.001": 16.8078590017,
			"0.002": 19.0482043331,
			"0.003": 15.9566460158,
			"0.004": 6.19914702482,
			"0.005": 5.68348467531,
			"0.006": 6.09792568936,
			"0.007": 5.10487744813,
			"0.008": 6.1083680591,
			"0.009": 7.4226466513,
			"0.01": 10.3420902494,
			"0.011": 4.02507773121,
			"0.012": 1.01821267615,
			"0.013": 0.746236064069,
			"0.014": 0.632854529438,
			"0.015": 0.173223350871,
			"0.016": 0.0,
			"0.017": 0.0,
			"0.018": 0.0,
			"0.019": 0.0,
			"0.02": 0.0,
			"0.021": 0.0,
			"0.022": 0.0,
			"0.023": 0.0,
			"0.024": 0.0,
			"0.025": 0.0
		}
	}
}
