{
	 "smiles": "[O-][N+](=O)C1=CC=C(NCC2=CC=CC=C2)C2=NON=C12", 
	 "Tm": 481.15, 
	 "num_atms": 30, 
	 "gaussian": { 
		 "optdone": 1, 
		 "sigma_profile": "yes", 
		 "theory": "DFT", 
		 "functional": "B3LYP", 
		 "basiset": "6-31G**", 
		 "properties": { 
			 "R2extent": 7486.6862, 
			 "electric_dipole_moment_norm": 9.36556629414, 
			 "electric_quadrupole_moment_norm": 34.360278663, 
			 "total_energy": -945.887877612, 
			 "HOMO_LUMO_gap": 0.12305, 
			 "cosmo_polarized_energy": -22.04, 
			 "cosmo_cavitation_energy": 35.91, 
			 "cosmo_dispersion_energy": -25.79, 
			 "cosmo_repulsion_energy": 1.95, 
			 "cosmo_total_nonelectrostatic_energy": 12.07, 
			 "SMD_solvation_energy": 7.51 
		},
		"coords": [
			{
				"x": 1.4249185457,
				"y": 0.238233627,
				"z": -5.9542211457,
				"element": "O" 
			},
			{
				"x": 1.3452086898,
				"y": 1.1034302263,
				"z": -5.0738541818,
				"element": "N" 
			},
			{
				"x": 1.4587626088,
				"y": 2.3151139307,
				"z": -5.2655896354,
				"element": "O" 
			},
			{
				"x": 1.1011079744,
				"y": 0.665644663,
				"z": -3.7198289351,
				"element": "C" 
			},
			{
				"x": 0.9622718395,
				"y": -0.6784649474,
				"z": -3.4399385217,
				"element": "C" 
			},
			{
				"x": 0.7224446935,
				"y": -1.1748826428,
				"z": -2.1457956047,
				"element": "C" 
			},
			{
				"x": 0.6097003948,
				"y": -0.3460804618,
				"z": -1.0248909187,
				"element": "C" 
			},
			{
				"x": 0.4201134607,
				"y": -0.8608508518,
				"z": 0.2156154638,
				"element": "N" 
			},
			{
				"x": 0.0925397006,
				"y": -0.1676675795,
				"z": 1.4701037024,
				"element": "C" 
			},
			{
				"x": -1.3772879567,
				"y": -0.2816157991,
				"z": 1.8318228724,
				"element": "C" 
			},
			{
				"x": -1.8176220214,
				"y": -1.2884132993,
				"z": 2.6991856818,
				"element": "C" 
			},
			{
				"x": -3.1730382869,
				"y": -1.4191275321,
				"z": 3.0081805838,
				"element": "C" 
			},
			{
				"x": -4.1022208763,
				"y": -0.539352913,
				"z": 2.4516561766,
				"element": "C" 
			},
			{
				"x": -3.6711947996,
				"y": 0.4726105371,
				"z": 1.5898394277,
				"element": "C" 
			},
			{
				"x": -2.3173085058,
				"y": 0.6010271528,
				"z": 1.2817232295,
				"element": "C" 
			},
			{
				"x": 0.7458902845,
				"y": 1.0698952236,
				"z": -1.3001179843,
				"element": "C" 
			},
			{
				"x": 0.6768912484,
				"y": 2.0914405875,
				"z": -0.4661056274,
				"element": "N" 
			},
			{
				"x": 0.8695597024,
				"y": 3.1917442831,
				"z": -1.2339934607,
				"element": "O" 
			},
			{
				"x": 1.0637076482,
				"y": 2.8995292838,
				"z": -2.5611937063,
				"element": "N" 
			},
			{
				"x": 0.9896363307,
				"y": 1.5793710943,
				"z": -2.6291516208,
				"element": "C" 
			},
			{
				"x": 1.0431191117,
				"y": -1.3689580647,
				"z": -4.2715366011,
				"element": "H" 
			},
			{
				"x": 0.6250778564,
				"y": -2.2481615289,
				"z": -2.01316009,
				"element": "H" 
			},
			{
				"x": 0.2713838032,
				"y": -1.8613682277,
				"z": 0.2354453538,
				"element": "H" 
			},
			{
				"x": 0.7060779726,
				"y": -0.617446647,
				"z": 2.2585651723,
				"element": "H" 
			},
			{
				"x": 0.3923534279,
				"y": 0.8743485583,
				"z": 1.371563853,
				"element": "H" 
			},
			{
				"x": -1.0947713326,
				"y": -1.9690633045,
				"z": 3.1443313767,
				"element": "H" 
			},
			{
				"x": -3.5006516264,
				"y": -2.2021477577,
				"z": 3.685902288,
				"element": "H" 
			},
			{
				"x": -5.1566785542,
				"y": -0.6365017847,
				"z": 2.6929134487,
				"element": "H" 
			},
			{
				"x": -4.3897061982,
				"y": 1.1660848871,
				"z": 1.1626314258,
				"element": "H" 
			},
			{
				"x": -1.9833851355,
				"y": 1.3958292875,
				"z": 0.6202979773,
				"element": "H" 
			}
		],
		 "valence_orbital": [ 
			{
				"type": "occ",
				"energy": -0.29191,
				"method": "rhf"
			},
			{
				"type": "occ",
				"energy": -0.27497,
				"method": "rhf"
			},
			{
				"type": "occ",
				"energy": -0.26829,
				"method": "rhf"
			},
			{
				"type": "occ",
				"energy": -0.26655,
				"method": "rhf"
			},
			{
				"type": "occ",
				"energy": -0.22874,
				"method": "rhf"
			},
			{
				"type": "unocc",
				"energy": -0.10569,
				"method": "rhf"
			},
			{
				"type": "unocc",
				"energy": -0.05846,
				"method": "rhf"
			},
			{
				"type": "unocc",
				"energy": -0.02446,
				"method": "rhf"
			},
			{
				"type": "unocc",
				"energy": -0.01963,
				"method": "rhf"
			},
			{
				"type": "unocc",
				"energy": -0.00753,
				"method": "rhf"
			}
		],
		"cosmo_sigma_profile": { 
			"-0.025": 0.0,
			"-0.024": 0.0,
			"-0.023": 0.0,
			"-0.022": 0.0,
			"-0.021": 0.0,
			"-0.02": 0.0,
			"-0.019": 0.0,
			"-0.018": 0.0,
			"-0.017": 0.0,
			"-0.016": 0.59739783464,
			"-0.015": 1.46077099147,
			"-0.014": 1.28501161823,
			"-0.013": 1.11012963381,
			"-0.012": 1.93722880292,
			"-0.011": 1.83658590417,
			"-0.01": 1.71993603319,
			"-0.009": 1.9621867242,
			"-0.008": 4.31646689418,
			"-0.007": 7.03990592662,
			"-0.006": 12.6198729341,
			"-0.005": 18.106025273,
			"-0.004": 27.8241136672,
			"-0.003": 24.401707935,
			"-0.002": 21.7526831269,
			"-0.001": 20.5274435291,
			"0.0": 17.2454758763,
			"0.001": 15.3523563117,
			"0.002": 14.5631139689,
			"0.003": 12.5449510674,
			"0.004": 17.5101973707,
			"0.005": 17.4159361728,
			"0.006": 8.68175717783,
			"0.007": 4.96673303288,
			"0.008": 6.41923550606,
			"0.009": 10.383644451,
			"0.01": 7.08707317619,
			"0.011": 4.68688490244,
			"0.012": 1.89650822412,
			"0.013": 1.56443140021,
			"0.014": 0.33234237287,
			"0.015": 0.0,
			"0.016": 0.0,
			"0.017": 0.0,
			"0.018": 0.0,
			"0.019": 0.0,
			"0.02": 0.0,
			"0.021": 0.0,
			"0.022": 0.0,
			"0.023": 0.0,
			"0.024": 0.0,
			"0.025": 0.0
		}
	}
}
