{
	 "smiles": "OCC1=NC2=C(N1)N=CC=C2", 
	 "Tm": 484.15, 
	 "num_atms": 18, 
	 "gaussian": { 
		 "optdone": 1, 
		 "sigma_profile": "yes", 
		 "theory": "DFT", 
		 "functional": "B3LYP", 
		 "basiset": "6-31G**", 
		 "properties": { 
			 "R2extent": 2150.4467, 
			 "electric_dipole_moment_norm": 1.10298114671, 
			 "electric_quadrupole_moment_norm": 6.98246425197, 
			 "total_energy": -510.442077275, 
			 "HOMO_LUMO_gap": 0.1994, 
			 "cosmo_polarized_energy": -13.9, 
			 "cosmo_cavitation_energy": 22.37, 
			 "cosmo_dispersion_energy": -17.09, 
			 "cosmo_repulsion_energy": 1.38, 
			 "cosmo_total_nonelectrostatic_energy": 6.66, 
			 "SMD_solvation_energy": 0.05 
		},
		"coords": [
			{
				"x": 2.398749947,
				"y": 2.0559713889,
				"z": 1.7749936184,
				"element": "O" 
			},
			{
				"x": 1.7161083577,
				"y": 0.8836639754,
				"z": 2.2060071847,
				"element": "C" 
			},
			{
				"x": 1.2103883435,
				"y": 0.072259707,
				"z": 1.0476768491,
				"element": "C" 
			},
			{
				"x": 0.1561338153,
				"y": -0.7115511173,
				"z": 1.0553998963,
				"element": "N" 
			},
			{
				"x": 0.1286426038,
				"y": -1.2685408537,
				"z": -0.2145884685,
				"element": "C" 
			},
			{
				"x": 1.2073899232,
				"y": -0.7793341127,
				"z": -0.9953053286,
				"element": "C" 
			},
			{
				"x": 1.8866616393,
				"y": 0.077608601,
				"z": -0.1513771226,
				"element": "N" 
			},
			{
				"x": 1.4941026125,
				"y": -1.0752792315,
				"z": -2.2576644997,
				"element": "N" 
			},
			{
				"x": 0.6386322591,
				"y": -1.947329435,
				"z": -2.8110784267,
				"element": "C" 
			},
			{
				"x": -0.4673175663,
				"y": -2.5098387144,
				"z": -2.1478633779,
				"element": "C" 
			},
			{
				"x": -0.7434329404,
				"y": -2.1733082012,
				"z": -0.822592854,
				"element": "C" 
			},
			{
				"x": 1.7399435594,
				"y": 2.6683023891,
				"z": 1.4211413007,
				"element": "H" 
			},
			{
				"x": 0.8767180864,
				"y": 1.0931455394,
				"z": 2.8803040478,
				"element": "H" 
			},
			{
				"x": 2.4545445647,
				"y": 0.30472682,
				"z": 2.7727339688,
				"element": "H" 
			},
			{
				"x": 2.6986885842,
				"y": 0.6381972251,
				"z": -0.363288532,
				"element": "H" 
			},
			{
				"x": 0.841048231,
				"y": -2.2180558359,
				"z": -3.8450434464,
				"element": "H" 
			},
			{
				"x": -1.1027907914,
				"y": -3.208564375,
				"z": -2.6824485063,
				"element": "H" 
			},
			{
				"x": -1.5901112291,
				"y": -2.5889737694,
				"z": -0.2854063029,
				"element": "H" 
			}
		],
		 "valence_orbital": [ 
			{
				"type": "occ",
				"energy": -0.30642,
				"method": "rhf"
			},
			{
				"type": "occ",
				"energy": -0.29555,
				"method": "rhf"
			},
			{
				"type": "occ",
				"energy": -0.25237,
				"method": "rhf"
			},
			{
				"type": "occ",
				"energy": -0.2497,
				"method": "rhf"
			},
			{
				"type": "occ",
				"energy": -0.23278,
				"method": "rhf"
			},
			{
				"type": "unocc",
				"energy": -0.03338,
				"method": "rhf"
			},
			{
				"type": "unocc",
				"energy": 0.01364,
				"method": "rhf"
			},
			{
				"type": "unocc",
				"energy": 0.036,
				"method": "rhf"
			},
			{
				"type": "unocc",
				"energy": 0.0648,
				"method": "rhf"
			},
			{
				"type": "unocc",
				"energy": 0.10385,
				"method": "rhf"
			}
		],
		"cosmo_sigma_profile": { 
			"-0.025": 0.0,
			"-0.024": 0.0,
			"-0.023": 0.0,
			"-0.022": 0.0,
			"-0.021": 0.0,
			"-0.02": 0.0,
			"-0.019": 0.0,
			"-0.018": 0.0,
			"-0.017": 0.364731330196,
			"-0.016": 1.57412904668,
			"-0.015": 2.15276757285,
			"-0.014": 1.4816779195,
			"-0.013": 1.59310910486,
			"-0.012": 1.47000084945,
			"-0.011": 2.74036225476,
			"-0.01": 1.05574218903,
			"-0.009": 1.1399775899,
			"-0.008": 2.52816766422,
			"-0.007": 6.62134954732,
			"-0.006": 12.6377481527,
			"-0.005": 12.9478815821,
			"-0.004": 11.2850703429,
			"-0.003": 9.03575660769,
			"-0.002": 7.56911745987,
			"-0.001": 9.25035098394,
			"0.0": 10.1698949318,
			"0.001": 10.7153042384,
			"0.002": 13.0772625398,
			"0.003": 14.2927771812,
			"0.004": 7.00242706659,
			"0.005": 4.96526300456,
			"0.006": 4.40039111353,
			"0.007": 3.99330571894,
			"0.008": 3.31477569666,
			"0.009": 2.40225269703,
			"0.01": 3.20114200033,
			"0.011": 3.07260006704,
			"0.012": 3.38326430024,
			"0.013": 3.31867294178,
			"0.014": 2.38952590987,
			"0.015": 1.28990353312,
			"0.016": 1.57088766452,
			"0.017": 0.55346214923,
			"0.018": 0.185170765368,
			"0.019": 0.0,
			"0.02": 0.0,
			"0.021": 0.0,
			"0.022": 0.0,
			"0.023": 0.0,
			"0.024": 0.0,
			"0.025": 0.0
		}
	}
}
