{
	 "smiles": "CCOC(=O)C(C#N)=C(C)C", 
	 "Tm": 293.15, 
	 "num_atms": 22, 
	 "gaussian": { 
		 "optdone": 1, 
		 "sigma_profile": "yes", 
		 "theory": "DFT", 
		 "functional": "B3LYP", 
		 "basiset": "6-31G**", 
		 "properties": { 
			 "R2extent": 2288.9116, 
			 "electric_dipole_moment_norm": 3.10375639508, 
			 "electric_quadrupole_moment_norm": 17.1341660585, 
			 "total_energy": -516.670643914, 
			 "HOMO_LUMO_gap": 0.20162, 
			 "cosmo_polarized_energy": -11.36, 
			 "cosmo_cavitation_energy": 26.58, 
			 "cosmo_dispersion_energy": -18.45, 
			 "cosmo_repulsion_energy": 1.53, 
			 "cosmo_total_nonelectrostatic_energy": 9.66, 
			 "SMD_solvation_energy": 7.14 
		},
		"coords": [
			{
				"x": 3.5951958817,
				"y": 1.3482243259,
				"z": 1.1553436925,
				"element": "C" 
			},
			{
				"x": 2.2691762054,
				"y": 1.9193039551,
				"z": 0.6767859838,
				"element": "C" 
			},
			{
				"x": 1.2214296548,
				"y": 0.9195508284,
				"z": 0.718988859,
				"element": "O" 
			},
			{
				"x": 1.1065252113,
				"y": 0.1132352117,
				"z": -0.3531746624,
				"element": "C" 
			},
			{
				"x": 1.8175867913,
				"y": 0.1826483947,
				"z": -1.3389320775,
				"element": "O" 
			},
			{
				"x": -0.0077841757,
				"y": -0.8638317128,
				"z": -0.1684406107,
				"element": "C" 
			},
			{
				"x": -0.7417360062,
				"y": -0.7877343956,
				"z": 1.0631364905,
				"element": "C" 
			},
			{
				"x": -1.3511565308,
				"y": -0.7462944367,
				"z": 2.0536229349,
				"element": "N" 
			},
			{
				"x": -0.3357272132,
				"y": -1.7981669774,
				"z": -1.1077151919,
				"element": "C" 
			},
			{
				"x": 0.3875971108,
				"y": -1.9400413442,
				"z": -2.4215147289,
				"element": "C" 
			},
			{
				"x": -1.4645306071,
				"y": -2.7644820083,
				"z": -0.888086836,
				"element": "C" 
			},
			{
				"x": 3.9494673907,
				"y": 0.5714451944,
				"z": 0.4732353897,
				"element": "H" 
			},
			{
				"x": 4.3479871742,
				"y": 2.1426859092,
				"z": 1.1907827905,
				"element": "H" 
			},
			{
				"x": 3.496006881,
				"y": 0.9232263969,
				"z": 2.1582074916,
				"element": "H" 
			},
			{
				"x": 2.3470407904,
				"y": 2.3037906055,
				"z": -0.3428583746,
				"element": "H" 
			},
			{
				"x": 1.9095354365,
				"y": 2.7097046669,
				"z": 1.3389987131,
				"element": "H" 
			},
			{
				"x": 0.3209113754,
				"y": -1.0199289454,
				"z": -3.0090819408,
				"element": "H" 
			},
			{
				"x": -0.0318562617,
				"y": -2.7666488077,
				"z": -2.9998863567,
				"element": "H" 
			},
			{
				"x": 1.4567926059,
				"y": -2.1094915066,
				"z": -2.2693561151,
				"element": "H" 
			},
			{
				"x": -1.9697067793,
				"y": -2.6315104937,
				"z": 0.0686192542,
				"element": "H" 
			},
			{
				"x": -1.0844460581,
				"y": -3.7920298389,
				"z": -0.9504576098,
				"element": "H" 
			},
			{
				"x": -2.1990088772,
				"y": -2.6596550215,
				"z": -1.6966170954,
				"element": "H" 
			}
		],
		 "valence_orbital": [ 
			{
				"type": "occ",
				"energy": -0.34635,
				"method": "rhf"
			},
			{
				"type": "occ",
				"energy": -0.33005,
				"method": "rhf"
			},
			{
				"type": "occ",
				"energy": -0.30591,
				"method": "rhf"
			},
			{
				"type": "occ",
				"energy": -0.27959,
				"method": "rhf"
			},
			{
				"type": "occ",
				"energy": -0.2668,
				"method": "rhf"
			},
			{
				"type": "unocc",
				"energy": -0.06518,
				"method": "rhf"
			},
			{
				"type": "unocc",
				"energy": 0.02294,
				"method": "rhf"
			},
			{
				"type": "unocc",
				"energy": 0.03911,
				"method": "rhf"
			},
			{
				"type": "unocc",
				"energy": 0.09237,
				"method": "rhf"
			},
			{
				"type": "unocc",
				"energy": 0.10685,
				"method": "rhf"
			}
		],
		"cosmo_sigma_profile": { 
			"-0.025": 0.0,
			"-0.024": 0.0,
			"-0.023": 0.0,
			"-0.022": 0.0,
			"-0.021": 0.0,
			"-0.02": 0.0,
			"-0.019": 0.0,
			"-0.018": 0.0,
			"-0.017": 0.0,
			"-0.016": 0.0,
			"-0.015": 0.0,
			"-0.014": 0.0,
			"-0.013": 0.0,
			"-0.012": 0.0,
			"-0.011": 0.0,
			"-0.01": 0.0,
			"-0.009": 0.0,
			"-0.008": 0.0,
			"-0.007": 1.07411941622,
			"-0.006": 8.77012145971,
			"-0.005": 17.5760234321,
			"-0.004": 23.767347556,
			"-0.003": 30.138112013,
			"-0.002": 30.9747106499,
			"-0.001": 21.5172056863,
			"0.0": 13.4931058207,
			"0.001": 7.65160123871,
			"0.002": 3.97761422114,
			"0.003": 4.73321371204,
			"0.004": 5.00683652053,
			"0.005": 3.70994563732,
			"0.006": 4.99406123006,
			"0.007": 4.89688994149,
			"0.008": 6.45549192214,
			"0.009": 5.43163664244,
			"0.01": 5.16836254344,
			"0.011": 5.21941386602,
			"0.012": 3.88129396834,
			"0.013": 1.86376653414,
			"0.014": 0.306972961366,
			"0.015": 0.0,
			"0.016": 0.0,
			"0.017": 0.0,
			"0.018": 0.0,
			"0.019": 0.0,
			"0.02": 0.0,
			"0.021": 0.0,
			"0.022": 0.0,
			"0.023": 0.0,
			"0.024": 0.0,
			"0.025": 0.0
		}
	}
}
