{
	 "smiles": "NNC(=O)C1=CC=NC=C1", 
	 "Tm": 444.15, 
	 "num_atms": 17, 
	 "gaussian": { 
		 "optdone": 1, 
		 "sigma_profile": "yes", 
		 "theory": "DFT", 
		 "functional": "B3LYP", 
		 "basiset": "6-31G**", 
		 "properties": { 
			 "R2extent": 1977.1571, 
			 "electric_dipole_moment_norm": 2.64310643751, 
			 "electric_quadrupole_moment_norm": 11.2379916885, 
			 "total_energy": -472.299120663, 
			 "HOMO_LUMO_gap": 0.19689, 
			 "cosmo_polarized_energy": -15.47, 
			 "cosmo_cavitation_energy": 21.57, 
			 "cosmo_dispersion_energy": -15.83, 
			 "cosmo_repulsion_energy": 1.3, 
			 "cosmo_total_nonelectrostatic_energy": 7.04, 
			 "SMD_solvation_energy": 3.57 
		},
		"coords": [
			{
				"x": 3.184052327,
				"y": -1.204834649,
				"z": 1.2584783053,
				"element": "N" 
			},
			{
				"x": 3.2866618853,
				"y": -1.5764746409,
				"z": -0.0984333377,
				"element": "N" 
			},
			{
				"x": 2.2715088317,
				"y": -1.5585358546,
				"z": -1.0309630209,
				"element": "C" 
			},
			{
				"x": 2.3088539003,
				"y": -2.2842499933,
				"z": -2.0159760024,
				"element": "O" 
			},
			{
				"x": 1.1264423622,
				"y": -0.6036814694,
				"z": -0.814418215,
				"element": "C" 
			},
			{
				"x": 1.283349928,
				"y": 0.7165564887,
				"z": -0.3772798428,
				"element": "C" 
			},
			{
				"x": 0.154881763,
				"y": 1.5335314391,
				"z": -0.2931888029,
				"element": "C" 
			},
			{
				"x": -1.0838421039,
				"y": 1.1254566073,
				"z": -0.5930534827,
				"element": "N" 
			},
			{
				"x": -1.2223922068,
				"y": -0.1364628525,
				"z": -1.0217946405,
				"element": "C" 
			},
			{
				"x": -0.1598647044,
				"y": -1.0278848687,
				"z": -1.1624264689,
				"element": "C" 
			},
			{
				"x": 3.3220566418,
				"y": -0.2038448281,
				"z": 1.3561984697,
				"element": "H" 
			},
			{
				"x": 2.2645701295,
				"y": -1.4379773432,
				"z": 1.625014018,
				"element": "H" 
			},
			{
				"x": 3.9677128332,
				"y": -2.3070400437,
				"z": -0.2703124757,
				"element": "H" 
			},
			{
				"x": 2.2622729776,
				"y": 1.1208984868,
				"z": -0.140709726,
				"element": "H" 
			},
			{
				"x": 0.2541272836,
				"y": 2.5678493665,
				"z": 0.0315831003,
				"element": "H" 
			},
			{
				"x": -2.2346187413,
				"y": -0.4488267465,
				"z": -1.2715511189,
				"element": "H" 
			},
			{
				"x": -0.3138731067,
				"y": -2.0321790985,
				"z": -1.541866759,
				"element": "H" 
			}
		],
		 "valence_orbital": [ 
			{
				"type": "occ",
				"energy": -0.29979,
				"method": "rhf"
			},
			{
				"type": "occ",
				"energy": -0.2758,
				"method": "rhf"
			},
			{
				"type": "occ",
				"energy": -0.26882,
				"method": "rhf"
			},
			{
				"type": "occ",
				"energy": -0.26527,
				"method": "rhf"
			},
			{
				"type": "occ",
				"energy": -0.25478,
				"method": "rhf"
			},
			{
				"type": "unocc",
				"energy": -0.05789,
				"method": "rhf"
			},
			{
				"type": "unocc",
				"energy": -0.02381,
				"method": "rhf"
			},
			{
				"type": "unocc",
				"energy": 0.02945,
				"method": "rhf"
			},
			{
				"type": "unocc",
				"energy": 0.05921,
				"method": "rhf"
			},
			{
				"type": "unocc",
				"energy": 0.09747,
				"method": "rhf"
			}
		],
		"cosmo_sigma_profile": { 
			"-0.025": 0.0,
			"-0.024": 0.0,
			"-0.023": 0.0,
			"-0.022": 0.0,
			"-0.021": 0.0,
			"-0.02": 0.0,
			"-0.019": 0.0,
			"-0.018": 0.0,
			"-0.017": 0.0,
			"-0.016": 0.0,
			"-0.015": 0.0,
			"-0.014": 0.249033270692,
			"-0.013": 1.36957713762,
			"-0.012": 3.34246309084,
			"-0.011": 4.57804760193,
			"-0.01": 3.87418890792,
			"-0.009": 4.54715754265,
			"-0.008": 4.37085765421,
			"-0.007": 8.42828649725,
			"-0.006": 10.06340828,
			"-0.005": 10.0679237404,
			"-0.004": 8.96221037758,
			"-0.003": 7.57548729306,
			"-0.002": 9.549121686,
			"-0.001": 7.54714146368,
			"0.0": 10.6530671343,
			"0.001": 14.5196207512,
			"0.002": 10.9258909461,
			"0.003": 6.12026174432,
			"0.004": 5.399066892,
			"0.005": 3.82206970743,
			"0.006": 2.54904689225,
			"0.007": 3.68503006805,
			"0.008": 3.71265857399,
			"0.009": 3.32343642729,
			"0.01": 2.85368590401,
			"0.011": 3.4659530292,
			"0.012": 4.87243391898,
			"0.013": 6.64080309689,
			"0.014": 2.23538115099,
			"0.015": 1.47851149623,
			"0.016": 1.00864310523,
			"0.017": 0.0813429497499,
			"0.018": 0.0,
			"0.019": 0.0,
			"0.02": 0.0,
			"0.021": 0.0,
			"0.022": 0.0,
			"0.023": 0.0,
			"0.024": 0.0,
			"0.025": 0.0
		}
	}
}
