{
	 "smiles": "CC1=CC=C(C=C1)C1=CC=CC=C1", 
	 "Tm": 320.95, 
	 "num_atms": 25, 
	 "gaussian": { 
		 "optdone": 1, 
		 "sigma_profile": "yes", 
		 "theory": "DFT", 
		 "functional": "B3LYP", 
		 "basiset": "6-31G**", 
		 "properties": { 
			 "R2extent": 3358.2846, 
			 "electric_dipole_moment_norm": 0.464696223355, 
			 "electric_quadrupole_moment_norm": 8.52235455493, 
			 "total_energy": -502.631818455, 
			 "HOMO_LUMO_gap": 0.19335, 
			 "cosmo_polarized_energy": -5.04, 
			 "cosmo_cavitation_energy": 28.27, 
			 "cosmo_dispersion_energy": -20.78, 
			 "cosmo_repulsion_energy": 1.63, 
			 "cosmo_total_nonelectrostatic_energy": 9.12, 
			 "SMD_solvation_energy": 4.66 
		},
		"coords": [
			{
				"x": 4.2425776029,
				"y": 1.0911845601,
				"z": 1.6834744924,
				"element": "C" 
			},
			{
				"x": 3.0058469394,
				"y": 0.4682751328,
				"z": 1.0806607137,
				"element": "C" 
			},
			{
				"x": 3.0534673243,
				"y": -0.7912794529,
				"z": 0.4689531158,
				"element": "C" 
			},
			{
				"x": 1.9208973913,
				"y": -1.3547966611,
				"z": -0.1143939937,
				"element": "C" 
			},
			{
				"x": 0.6887925162,
				"y": -0.6802978647,
				"z": -0.106204433,
				"element": "C" 
			},
			{
				"x": 0.6410801172,
				"y": 0.5805268822,
				"z": 0.511310334,
				"element": "C" 
			},
			{
				"x": 1.7766331792,
				"y": 1.1405291424,
				"z": 1.0922035883,
				"element": "C" 
			},
			{
				"x": -0.5212504774,
				"y": -1.2803061906,
				"z": -0.7240418941,
				"element": "C" 
			},
			{
				"x": -1.4483333791,
				"y": -0.4842039972,
				"z": -1.418778189,
				"element": "C" 
			},
			{
				"x": -2.5850194782,
				"y": -1.0463958984,
				"z": -1.9980960119,
				"element": "C" 
			},
			{
				"x": -2.81995466,
				"y": -2.4190749004,
				"z": -1.8986084095,
				"element": "C" 
			},
			{
				"x": -1.907761308,
				"y": -3.2233864982,
				"z": -1.2128209294,
				"element": "C" 
			},
			{
				"x": -0.7727079346,
				"y": -2.6601615141,
				"z": -0.6312652768,
				"element": "C" 
			},
			{
				"x": 3.9913378588,
				"y": 1.7558789136,
				"z": 2.5156892884,
				"element": "H" 
			},
			{
				"x": 4.7872492034,
				"y": 1.6907673331,
				"z": 0.9428285906,
				"element": "H" 
			},
			{
				"x": 4.9348623578,
				"y": 0.3295706956,
				"z": 2.0551921206,
				"element": "H" 
			},
			{
				"x": 3.9941516331,
				"y": -1.3364581146,
				"z": 0.4421873757,
				"element": "H" 
			},
			{
				"x": 1.9970467811,
				"y": -2.3221274893,
				"z": -0.6025032966,
				"element": "H" 
			},
			{
				"x": -0.3034252218,
				"y": 1.1143881386,
				"z": 0.56295593,
				"element": "H" 
			},
			{
				"x": 1.7046810513,
				"y": 2.1131779973,
				"z": 1.5734257219,
				"element": "H" 
			},
			{
				"x": -1.2611394018,
				"y": 0.580237382,
				"z": -1.5258932719,
				"element": "H" 
			},
			{
				"x": -3.283817764,
				"y": -0.4121725183,
				"z": -2.5366066691,
				"element": "H" 
			},
			{
				"x": -3.7049082735,
				"y": -2.857478284,
				"z": -2.3507703971,
				"element": "H" 
			},
			{
				"x": -2.0849238749,
				"y": -4.2914983902,
				"z": -1.1217235873,
				"element": "H" 
			},
			{
				"x": -0.0842821824,
				"y": -3.2906984038,
				"z": -0.0762749117,
				"element": "H" 
			}
		],
		 "valence_orbital": [ 
			{
				"type": "occ",
				"energy": -0.32716,
				"method": "rhf"
			},
			{
				"type": "occ",
				"energy": -0.26521,
				"method": "rhf"
			},
			{
				"type": "occ",
				"energy": -0.24734,
				"method": "rhf"
			},
			{
				"type": "occ",
				"energy": -0.2465,
				"method": "rhf"
			},
			{
				"type": "occ",
				"energy": -0.21629,
				"method": "rhf"
			},
			{
				"type": "unocc",
				"energy": -0.02294,
				"method": "rhf"
			},
			{
				"type": "unocc",
				"energy": -0.00084,
				"method": "rhf"
			},
			{
				"type": "unocc",
				"energy": 0.0033,
				"method": "rhf"
			},
			{
				"type": "unocc",
				"energy": 0.03297,
				"method": "rhf"
			},
			{
				"type": "unocc",
				"energy": 0.09976,
				"method": "rhf"
			}
		],
		"cosmo_sigma_profile": { 
			"-0.025": 0.0,
			"-0.024": 0.0,
			"-0.023": 0.0,
			"-0.022": 0.0,
			"-0.021": 0.0,
			"-0.02": 0.0,
			"-0.019": 0.0,
			"-0.018": 0.0,
			"-0.017": 0.0,
			"-0.016": 0.0,
			"-0.015": 0.0,
			"-0.014": 0.0,
			"-0.013": 0.0,
			"-0.012": 0.0,
			"-0.011": 0.0,
			"-0.01": 0.0,
			"-0.009": 0.0,
			"-0.008": 0.0,
			"-0.007": 0.0,
			"-0.006": 3.33330423845,
			"-0.005": 18.7870269531,
			"-0.004": 26.0226161343,
			"-0.003": 24.6257129522,
			"-0.002": 18.7603605976,
			"-0.001": 18.3738441412,
			"0.0": 20.0304613438,
			"0.001": 15.2718227225,
			"0.002": 13.7016139622,
			"0.003": 15.6635608908,
			"0.004": 17.0246615331,
			"0.005": 16.9147737898,
			"0.006": 16.0618649769,
			"0.007": 1.03705204893,
			"0.008": 0.0,
			"0.009": 0.0,
			"0.01": 0.0,
			"0.011": 0.0,
			"0.012": 0.0,
			"0.013": 0.0,
			"0.014": 0.0,
			"0.015": 0.0,
			"0.016": 0.0,
			"0.017": 0.0,
			"0.018": 0.0,
			"0.019": 0.0,
			"0.02": 0.0,
			"0.021": 0.0,
			"0.022": 0.0,
			"0.023": 0.0,
			"0.024": 0.0,
			"0.025": 0.0
		}
	}
}
