{
	 "smiles": "CC1(C)C2CCC1(C)C(=O)C2=CNC1=C(C=CC=C1)C(O)=O", 
	 "Tm": 449.15, 
	 "num_atms": 43, 
	 "gaussian": { 
		 "optdone": 1, 
		 "sigma_profile": "yes", 
		 "theory": "DFT", 
		 "functional": "B3LYP", 
		 "basiset": "6-31G**", 
		 "properties": { 
			 "R2extent": 8545.2449, 
			 "electric_dipole_moment_norm": 1.9245572322, 
			 "electric_quadrupole_moment_norm": 17.3256669736, 
			 "total_energy": -979.008403549, 
			 "HOMO_LUMO_gap": 0.14698, 
			 "cosmo_polarized_energy": -15.61, 
			 "cosmo_cavitation_energy": 42.93, 
			 "cosmo_dispersion_energy": -29.37, 
			 "cosmo_repulsion_energy": 2.2, 
			 "cosmo_total_nonelectrostatic_energy": 15.77, 
			 "SMD_solvation_energy": 8.67 
		},
		"coords": [
			{
				"x": 2.166559358,
				"y": 0.1136256295,
				"z": 1.6540410444,
				"element": "C" 
			},
			{
				"x": 0.7250841748,
				"y": -0.3566351442,
				"z": 1.9176428076,
				"element": "C" 
			},
			{
				"x": 0.0564603047,
				"y": 0.6814231122,
				"z": 2.8336351215,
				"element": "C" 
			},
			{
				"x": -0.0803995576,
				"y": -0.6589092011,
				"z": 0.6054285647,
				"element": "C" 
			},
			{
				"x": -1.4017844649,
				"y": -1.2721413946,
				"z": 1.160193691,
				"element": "C" 
			},
			{
				"x": -0.9092574915,
				"y": -2.1052900927,
				"z": 2.3827480492,
				"element": "C" 
			},
			{
				"x": 0.6333073263,
				"y": -1.8382344699,
				"z": 2.4363449484,
				"element": "C" 
			},
			{
				"x": 1.3092967784,
				"y": -2.2206368213,
				"z": 3.7407393259,
				"element": "C" 
			},
			{
				"x": 1.1658072734,
				"y": -2.598783381,
				"z": 1.2073642916,
				"element": "C" 
			},
			{
				"x": 1.805229641,
				"y": -3.639893356,
				"z": 1.2172440281,
				"element": "O" 
			},
			{
				"x": 0.6929075874,
				"y": -1.8289838645,
				"z": 0.0243908959,
				"element": "C" 
			},
			{
				"x": 0.8760244371,
				"y": -2.357055248,
				"z": -1.2068873693,
				"element": "C" 
			},
			{
				"x": 0.520519768,
				"y": -1.9232205581,
				"z": -2.4692916237,
				"element": "N" 
			},
			{
				"x": 0.2864309234,
				"y": -0.6351125687,
				"z": -2.9434678093,
				"element": "C" 
			},
			{
				"x": -0.5034377407,
				"y": -0.3925010761,
				"z": -4.1041172465,
				"element": "C" 
			},
			{
				"x": -0.6904359265,
				"y": 0.9320205756,
				"z": -4.5414482586,
				"element": "C" 
			},
			{
				"x": -0.1111302792,
				"y": 2.0078749033,
				"z": -3.8873937512,
				"element": "C" 
			},
			{
				"x": 0.6960407707,
				"y": 1.7621181229,
				"z": -2.7709344157,
				"element": "C" 
			},
			{
				"x": 0.8932709278,
				"y": 0.4678456285,
				"z": -2.3099948746,
				"element": "C" 
			},
			{
				"x": -1.1754900372,
				"y": -1.4196771127,
				"z": -4.9374592159,
				"element": "C" 
			},
			{
				"x": -0.8273258388,
				"y": -2.7115445947,
				"z": -4.6492068564,
				"element": "O" 
			},
			{
				"x": -1.961786642,
				"y": -1.1852705472,
				"z": -5.8332815416,
				"element": "O" 
			},
			{
				"x": 2.7229660652,
				"y": -0.5647510074,
				"z": 1.0014395153,
				"element": "H" 
			},
			{
				"x": 2.7241413783,
				"y": 0.2016635096,
				"z": 2.5926200609,
				"element": "H" 
			},
			{
				"x": 2.1654506057,
				"y": 1.1046627364,
				"z": 1.1850786443,
				"element": "H" 
			},
			{
				"x": 0.6357066223,
				"y": 0.8073250031,
				"z": 3.754794973,
				"element": "H" 
			},
			{
				"x": -0.9643435282,
				"y": 0.4237185998,
				"z": 3.1217458279,
				"element": "H" 
			},
			{
				"x": 0.0221292792,
				"y": 1.6574081018,
				"z": 2.3354066907,
				"element": "H" 
			},
			{
				"x": -0.2364103311,
				"y": 0.1938673076,
				"z": -0.056273262,
				"element": "H" 
			},
			{
				"x": -1.9036008868,
				"y": -1.8846009094,
				"z": 0.4069694889,
				"element": "H" 
			},
			{
				"x": -2.1029994464,
				"y": -0.4876777007,
				"z": 1.4607629153,
				"element": "H" 
			},
			{
				"x": -1.3776156399,
				"y": -1.7772824013,
				"z": 3.3162557769,
				"element": "H" 
			},
			{
				"x": -1.1208265084,
				"y": -3.1741266838,
				"z": 2.2808687257,
				"element": "H" 
			},
			{
				"x": 2.3749876588,
				"y": -1.9712433601,
				"z": 3.727968812,
				"element": "H" 
			},
			{
				"x": 1.2357360974,
				"y": -3.3007544403,
				"z": 3.8994575359,
				"element": "H" 
			},
			{
				"x": 0.8471792427,
				"y": -1.7141257219,
				"z": 4.5946357667,
				"element": "H" 
			},
			{
				"x": 1.3631435015,
				"y": -3.3319046025,
				"z": -1.2204481455,
				"element": "H" 
			},
			{
				"x": 0.3841056623,
				"y": -2.6553852384,
				"z": -3.1526755887,
				"element": "H" 
			},
			{
				"x": -1.3087747434,
				"y": 1.0789784137,
				"z": -5.4200106163,
				"element": "H" 
			},
			{
				"x": -0.2692713533,
				"y": 3.0194920955,
				"z": -4.2459680251,
				"element": "H" 
			},
			{
				"x": 1.1898900238,
				"y": 2.5853661008,
				"z": -2.2622527367,
				"element": "H" 
			},
			{
				"x": 1.5522685162,
				"y": 0.2837799207,
				"z": -1.4708161047,
				"element": "H" 
			},
			{
				"x": -1.3318535084,
				"y": -3.2634282644,
				"z": -5.26985006,
				"element": "H" 
			}
		],
		 "valence_orbital": [ 
			{
				"type": "occ",
				"energy": -0.28927,
				"method": "rhf"
			},
			{
				"type": "occ",
				"energy": -0.26861,
				"method": "rhf"
			},
			{
				"type": "occ",
				"energy": -0.26463,
				"method": "rhf"
			},
			{
				"type": "occ",
				"energy": -0.22575,
				"method": "rhf"
			},
			{
				"type": "occ",
				"energy": -0.2058,
				"method": "rhf"
			},
			{
				"type": "unocc",
				"energy": -0.05882,
				"method": "rhf"
			},
			{
				"type": "unocc",
				"energy": -0.03567,
				"method": "rhf"
			},
			{
				"type": "unocc",
				"energy": 0.00218,
				"method": "rhf"
			},
			{
				"type": "unocc",
				"energy": 0.04657,
				"method": "rhf"
			},
			{
				"type": "unocc",
				"energy": 0.06488,
				"method": "rhf"
			}
		],
		"cosmo_sigma_profile": { 
			"-0.025": 0.0,
			"-0.024": 0.0,
			"-0.023": 0.0,
			"-0.022": 0.0,
			"-0.021": 0.0,
			"-0.02": 0.0,
			"-0.019": 0.216565434121,
			"-0.018": 0.938904908716,
			"-0.017": 1.06390952438,
			"-0.016": 0.827455090761,
			"-0.015": 0.56165051385,
			"-0.014": 0.414081485769,
			"-0.013": 0.55848098355,
			"-0.012": 1.70029986303,
			"-0.011": 1.55829622772,
			"-0.01": 1.05016180452,
			"-0.009": 1.1525208236,
			"-0.008": 2.58682989181,
			"-0.007": 3.24574026847,
			"-0.006": 6.86957111507,
			"-0.005": 9.2092778164,
			"-0.004": 15.2291200988,
			"-0.003": 31.4304643331,
			"-0.002": 45.3305714321,
			"-0.001": 43.9291017149,
			"0.0": 40.9247092586,
			"0.001": 39.8069107037,
			"0.002": 24.4466297613,
			"0.003": 14.9727283701,
			"0.004": 11.057002004,
			"0.005": 3.9353507577,
			"0.006": 2.74346677156,
			"0.007": 3.23188925094,
			"0.008": 1.8611616849,
			"0.009": 4.05576255734,
			"0.01": 3.9242539741,
			"0.011": 5.60786173858,
			"0.012": 6.29673689403,
			"0.013": 4.97797788689,
			"0.014": 1.70551335373,
			"0.015": 0.00865923871502,
			"0.016": 0.0,
			"0.017": 0.0,
			"0.018": 0.0,
			"0.019": 0.0,
			"0.02": 0.0,
			"0.021": 0.0,
			"0.022": 0.0,
			"0.023": 0.0,
			"0.024": 0.0,
			"0.025": 0.0
		}
	}
}
