{
	 "smiles": "CC(C)[Si](C(C)C)(C(C)C)N1C=CC2=C1C=CC=C2Br", 
	 "Tm": 336.65, 
	 "num_atms": 46, 
	 "gaussian": { 
		 "optdone": 1, 
		 "sigma_profile": "yes", 
		 "theory": "DFT", 
		 "functional": "B3LYP", 
		 "basiset": "6-31G**", 
		 "properties": { 
			 "R2extent": 11196.3401, 
			 "electric_dipole_moment_norm": 4.54155367908, 
			 "electric_quadrupole_moment_norm": 14.632889009, 
			 "total_energy": -3579.19255785, 
			 "HOMO_LUMO_gap": 0.18764, 
			 "cosmo_polarized_energy": -7.1, 
			 "cosmo_cavitation_energy": 46.51, 
			 "cosmo_dispersion_energy": -30.34, 
			 "cosmo_repulsion_energy": 2.35, 
			 "cosmo_total_nonelectrostatic_energy": 18.51, 
			 "SMD_solvation_energy": 7.16 
		},
		"coords": [
			{
				"x": -0.0649284834,
				"y": 1.3594542746,
				"z": 3.3193081153,
				"element": "C" 
			},
			{
				"x": -0.2495763378,
				"y": 0.0541644192,
				"z": 2.5124555694,
				"element": "C" 
			},
			{
				"x": 0.3130982984,
				"y": -1.1347376686,
				"z": 3.3225532704,
				"element": "C" 
			},
			{
				"x": 0.4247184205,
				"y": 0.1682405156,
				"z": 0.7202244384,
				"element": "Si" 
			},
			{
				"x": 0.6242826485,
				"y": -1.5396797648,
				"z": -0.1315047784,
				"element": "C" 
			},
			{
				"x": -0.6932574569,
				"y": -2.3431570289,
				"z": -0.1048855133,
				"element": "C" 
			},
			{
				"x": 1.8120502838,
				"y": -2.4050532975,
				"z": 0.3358068443,
				"element": "C" 
			},
			{
				"x": 2.0077904431,
				"y": 1.2525384157,
				"z": 0.6727154712,
				"element": "C" 
			},
			{
				"x": 2.5837335508,
				"y": 1.4979916334,
				"z": -0.7363389255,
				"element": "C" 
			},
			{
				"x": 3.1303673527,
				"y": 0.7714574094,
				"z": 1.618425889,
				"element": "C" 
			},
			{
				"x": -0.8130941834,
				"y": 0.9903448681,
				"z": -0.3375753725,
				"element": "N" 
			},
			{
				"x": -0.6327198203,
				"y": 1.0129689249,
				"z": -1.726719519,
				"element": "C" 
			},
			{
				"x": -1.6354631183,
				"y": 1.6825122601,
				"z": -2.3640336882,
				"element": "C" 
			},
			{
				"x": -2.5350679212,
				"y": 2.1249151811,
				"z": -1.3471507156,
				"element": "C" 
			},
			{
				"x": -2.0098810653,
				"y": 1.6825653925,
				"z": -0.0941296585,
				"element": "C" 
			},
			{
				"x": -2.6973071955,
				"y": 1.9555859209,
				"z": 1.0982656971,
				"element": "C" 
			},
			{
				"x": -3.8876383409,
				"y": 2.670947583,
				"z": 1.0313659073,
				"element": "C" 
			},
			{
				"x": -4.4165715848,
				"y": 3.1217763183,
				"z": -0.1911454086,
				"element": "C" 
			},
			{
				"x": -3.738543178,
				"y": 2.8438974675,
				"z": -1.3654306181,
				"element": "C" 
			},
			{
				"x": -4.4499530633,
				"y": 3.4431885644,
				"z": -3.0387316007,
				"element": "Br" 
			},
			{
				"x": -0.4192459837,
				"y": 2.2494188754,
				"z": 2.7912468575,
				"element": "H" 
			},
			{
				"x": -0.6088737751,
				"y": 1.3022181251,
				"z": 4.2704172646,
				"element": "H" 
			},
			{
				"x": 0.988628888,
				"y": 1.5268799945,
				"z": 3.5641681038,
				"element": "H" 
			},
			{
				"x": -1.3261935619,
				"y": -0.1315083384,
				"z": 2.4020139766,
				"element": "H" 
			},
			{
				"x": 1.4008612176,
				"y": -1.0810994509,
				"z": 3.4383729567,
				"element": "H" 
			},
			{
				"x": 0.0739405575,
				"y": -2.0995265133,
				"z": 2.8680227627,
				"element": "H" 
			},
			{
				"x": -0.1161587516,
				"y": -1.1356472977,
				"z": 4.3322071548,
				"element": "H" 
			},
			{
				"x": 0.8206728458,
				"y": -1.2953699937,
				"z": -1.1854015947,
				"element": "H" 
			},
			{
				"x": -1.5315881481,
				"y": -1.7672085651,
				"z": -0.5082047461,
				"element": "H" 
			},
			{
				"x": -0.5990305703,
				"y": -3.2566805646,
				"z": -0.7048109178,
				"element": "H" 
			},
			{
				"x": -0.9607740961,
				"y": -2.6534477676,
				"z": 0.9114638864,
				"element": "H" 
			},
			{
				"x": 1.845030848,
				"y": -3.3400537268,
				"z": -0.2374678905,
				"element": "H" 
			},
			{
				"x": 2.7726569749,
				"y": -1.9027023692,
				"z": 0.1886721081,
				"element": "H" 
			},
			{
				"x": 1.7403331593,
				"y": -2.6800688649,
				"z": 1.3923114394,
				"element": "H" 
			},
			{
				"x": 1.659640552,
				"y": 2.2254710631,
				"z": 1.0521380296,
				"element": "H" 
			},
			{
				"x": 3.4675959612,
				"y": 2.1454156677,
				"z": -0.6787949013,
				"element": "H" 
			},
			{
				"x": 2.90368307,
				"y": 0.5637163155,
				"z": -1.2141669204,
				"element": "H" 
			},
			{
				"x": 1.8648058878,
				"y": 1.9872820758,
				"z": -1.3983130484,
				"element": "H" 
			},
			{
				"x": 3.5682113814,
				"y": -0.1738389252,
				"z": 1.2822716663,
				"element": "H" 
			},
			{
				"x": 2.7902428122,
				"y": 0.627536866,
				"z": 2.6478082226,
				"element": "H" 
			},
			{
				"x": 3.9430930117,
				"y": 1.5078378262,
				"z": 1.6455993132,
				"element": "H" 
			},
			{
				"x": 0.224996974,
				"y": 0.5307318882,
				"z": -2.1702682153,
				"element": "H" 
			},
			{
				"x": -1.7337021986,
				"y": 1.8407128079,
				"z": -3.4275043433,
				"element": "H" 
			},
			{
				"x": -2.3325432481,
				"y": 1.6245992324,
				"z": 2.0589481775,
				"element": "H" 
			},
			{
				"x": -4.4275118533,
				"y": 2.887602181,
				"z": 1.9483194582,
				"element": "H" 
			},
			{
				"x": -5.3463112031,
				"y": 3.6781080696,
				"z": -0.2162242041,
				"element": "H" 
			}
		],
		 "valence_orbital": [ 
			{
				"type": "occ",
				"energy": -0.27803,
				"method": "rhf"
			},
			{
				"type": "occ",
				"energy": -0.27412,
				"method": "rhf"
			},
			{
				"type": "occ",
				"energy": -0.25516,
				"method": "rhf"
			},
			{
				"type": "occ",
				"energy": -0.22231,
				"method": "rhf"
			},
			{
				"type": "occ",
				"energy": -0.20035,
				"method": "rhf"
			},
			{
				"type": "unocc",
				"energy": -0.01271,
				"method": "rhf"
			},
			{
				"type": "unocc",
				"energy": 0.01848,
				"method": "rhf"
			},
			{
				"type": "unocc",
				"energy": 0.02254,
				"method": "rhf"
			},
			{
				"type": "unocc",
				"energy": 0.04257,
				"method": "rhf"
			},
			{
				"type": "unocc",
				"energy": 0.05841,
				"method": "rhf"
			}
		],
		"cosmo_sigma_profile": { 
			"-0.025": 0.0,
			"-0.024": 0.0,
			"-0.023": 0.0,
			"-0.022": 0.0,
			"-0.021": 0.0,
			"-0.02": 0.0,
			"-0.019": 0.0,
			"-0.018": 0.0,
			"-0.017": 0.0,
			"-0.016": 0.0,
			"-0.015": 0.0,
			"-0.014": 0.0,
			"-0.013": 0.0,
			"-0.012": 0.0,
			"-0.011": 0.0,
			"-0.01": 0.0,
			"-0.009": 0.0,
			"-0.008": 0.463582697694,
			"-0.007": 1.94767595441,
			"-0.006": 5.00917261931,
			"-0.005": 9.04992331933,
			"-0.004": 15.5850461229,
			"-0.003": 34.7403994673,
			"-0.002": 51.9057569311,
			"-0.001": 50.9713230623,
			"0.0": 46.7176403452,
			"0.001": 48.4049207546,
			"0.002": 24.9916252525,
			"0.003": 18.0125780668,
			"0.004": 23.1080940097,
			"0.005": 23.957814199,
			"0.006": 7.48420875104,
			"0.007": 0.30548542862,
			"0.008": 0.0,
			"0.009": 0.0,
			"0.01": 0.0,
			"0.011": 0.0,
			"0.012": 0.0,
			"0.013": 0.0,
			"0.014": 0.0,
			"0.015": 0.0,
			"0.016": 0.0,
			"0.017": 0.0,
			"0.018": 0.0,
			"0.019": 0.0,
			"0.02": 0.0,
			"0.021": 0.0,
			"0.022": 0.0,
			"0.023": 0.0,
			"0.024": 0.0,
			"0.025": 0.0
		}
	}
}
