{
	 "smiles": "CC(=NCC1=CC=CC=C1)C1=C(O)C2=CC=CC=C2N(C2=CC=CC=C2)C1=O", 
	 "Tm": 437.15, 
	 "num_atms": 48, 
	 "gaussian": { 
		 "optdone": 1, 
		 "sigma_profile": "yes", 
		 "theory": "DFT", 
		 "functional": "B3LYP", 
		 "basiset": "6-31G**", 
		 "properties": { 
			 "R2extent": 14725.4511, 
			 "electric_dipole_moment_norm": 1.44492389073, 
			 "electric_quadrupole_moment_norm": 18.0301383461, 
			 "total_energy": -1186.59848488, 
			 "HOMO_LUMO_gap": 0.1587, 
			 "cosmo_polarized_energy": -17.19, 
			 "cosmo_cavitation_energy": 51.21, 
			 "cosmo_dispersion_energy": -35.68, 
			 "cosmo_repulsion_energy": 2.65, 
			 "cosmo_total_nonelectrostatic_energy": 18.18, 
			 "SMD_solvation_energy": 8.39 
		},
		"coords": [
			{
				"x": -0.415972334,
				"y": -2.8503852455,
				"z": 0.0552499408,
				"element": "C" 
			},
			{
				"x": 0.3631003237,
				"y": -1.6917574465,
				"z": 0.6177851315,
				"element": "C" 
			},
			{
				"x": 1.642125477,
				"y": -1.8861883167,
				"z": 0.9400488451,
				"element": "N" 
			},
			{
				"x": 2.4103622135,
				"y": -3.1259544975,
				"z": 0.8284535411,
				"element": "C" 
			},
			{
				"x": 3.7780529938,
				"y": -2.9754391871,
				"z": 1.4640914908,
				"element": "C" 
			},
			{
				"x": 3.9056696198,
				"y": -2.5450057154,
				"z": 2.7921379746,
				"element": "C" 
			},
			{
				"x": 5.1640773556,
				"y": -2.4357230069,
				"z": 3.3821184633,
				"element": "C" 
			},
			{
				"x": 6.3113595225,
				"y": -2.7629129209,
				"z": 2.6552375307,
				"element": "C" 
			},
			{
				"x": 6.1930359234,
				"y": -3.1938300327,
				"z": 1.3338744358,
				"element": "C" 
			},
			{
				"x": 4.9323688066,
				"y": -3.2950186,
				"z": 0.7419103436,
				"element": "C" 
			},
			{
				"x": -0.2017318871,
				"y": -0.3962651584,
				"z": 0.8155121725,
				"element": "C" 
			},
			{
				"x": 0.6143330596,
				"y": 0.6742405841,
				"z": 1.3563410999,
				"element": "C" 
			},
			{
				"x": 1.8232860116,
				"y": 0.5329603725,
				"z": 1.6766775911,
				"element": "O" 
			},
			{
				"x": -0.0176860297,
				"y": 1.9932082218,
				"z": 1.5326247455,
				"element": "C" 
			},
			{
				"x": 0.7396393648,
				"y": 3.0569187052,
				"z": 2.0483319535,
				"element": "C" 
			},
			{
				"x": 0.1796365133,
				"y": 4.3126231715,
				"z": 2.2269009619,
				"element": "C" 
			},
			{
				"x": -1.1643422443,
				"y": 4.5122120427,
				"z": 1.8837049469,
				"element": "C" 
			},
			{
				"x": -1.9350538556,
				"y": 3.4759110151,
				"z": 1.371605258,
				"element": "C" 
			},
			{
				"x": -1.3693806726,
				"y": 2.1986012304,
				"z": 1.1891755031,
				"element": "C" 
			},
			{
				"x": -2.1186996168,
				"y": 1.1352331039,
				"z": 0.6766617185,
				"element": "N" 
			},
			{
				"x": -3.5049995599,
				"y": 1.3332748113,
				"z": 0.3282689799,
				"element": "C" 
			},
			{
				"x": -3.8458872708,
				"y": 1.7380357212,
				"z": -0.9635199351,
				"element": "C" 
			},
			{
				"x": -5.1854667493,
				"y": 1.9457418515,
				"z": -1.293986983,
				"element": "C" 
			},
			{
				"x": -6.1821514942,
				"y": 1.7499275013,
				"z": -0.3357546086,
				"element": "C" 
			},
			{
				"x": -5.8369599384,
				"y": 1.3440255766,
				"z": 0.9549966313,
				"element": "C" 
			},
			{
				"x": -4.4984063241,
				"y": 1.1352285427,
				"z": 1.2888718508,
				"element": "C" 
			},
			{
				"x": -1.6073537579,
				"y": -0.1662975276,
				"z": 0.4713286414,
				"element": "C" 
			},
			{
				"x": -2.3734117585,
				"y": -1.0198597302,
				"z": 0.019220653,
				"element": "O" 
			},
			{
				"x": -0.8508777571,
				"y": -2.5771358867,
				"z": -0.9074142346,
				"element": "H" 
			},
			{
				"x": -1.2719719665,
				"y": -3.077263614,
				"z": 0.6941035421,
				"element": "H" 
			},
			{
				"x": 0.2047191245,
				"y": -3.7385856029,
				"z": -0.05948723,
				"element": "H" 
			},
			{
				"x": 1.8663889914,
				"y": -3.9410772275,
				"z": 1.3229983063,
				"element": "H" 
			},
			{
				"x": 2.5265099828,
				"y": -3.4128915881,
				"z": -0.2241289818,
				"element": "H" 
			},
			{
				"x": 3.0175713421,
				"y": -2.2846088222,
				"z": 3.3616192111,
				"element": "H" 
			},
			{
				"x": 5.2489671177,
				"y": -2.0958819975,
				"z": 4.4101744925,
				"element": "H" 
			},
			{
				"x": 7.291199658,
				"y": -2.6785955041,
				"z": 3.1161478326,
				"element": "H" 
			},
			{
				"x": 7.0802634225,
				"y": -3.444802365,
				"z": 0.7597594267,
				"element": "H" 
			},
			{
				"x": 4.8455932148,
				"y": -3.6233108296,
				"z": -0.2909240582,
				"element": "H" 
			},
			{
				"x": 2.1014965466,
				"y": -1.0211256064,
				"z": 1.2955067885,
				"element": "H" 
			},
			{
				"x": 1.7749658419,
				"y": 2.8516985245,
				"z": 2.2977318111,
				"element": "H" 
			},
			{
				"x": 0.7725313826,
				"y": 5.1296053063,
				"z": 2.6259584103,
				"element": "H" 
			},
			{
				"x": -1.619596363,
				"y": 5.4898555276,
				"z": 2.0165510419,
				"element": "H" 
			},
			{
				"x": -2.971747652,
				"y": 3.6483397231,
				"z": 1.1117893723,
				"element": "H" 
			},
			{
				"x": -3.0614831286,
				"y": 1.8827095235,
				"z": -1.6996326251,
				"element": "H" 
			},
			{
				"x": -5.4498129101,
				"y": 2.2583224498,
				"z": -2.299960877,
				"element": "H" 
			},
			{
				"x": -7.2245739679,
				"y": 1.911529085,
				"z": -0.5944908452,
				"element": "H" 
			},
			{
				"x": -6.6092422174,
				"y": 1.1873811981,
				"z": 1.7024031762,
				"element": "H" 
			},
			{
				"x": -4.2165443542,
				"y": 0.8156326399,
				"z": 2.2871265625,
				"element": "H" 
			}
		],
		 "valence_orbital": [ 
			{
				"type": "occ",
				"energy": -0.24693,
				"method": "rhf"
			},
			{
				"type": "occ",
				"energy": -0.24661,
				"method": "rhf"
			},
			{
				"type": "occ",
				"energy": -0.23294,
				"method": "rhf"
			},
			{
				"type": "occ",
				"energy": -0.21632,
				"method": "rhf"
			},
			{
				"type": "occ",
				"energy": -0.20922,
				"method": "rhf"
			},
			{
				"type": "unocc",
				"energy": -0.05052,
				"method": "rhf"
			},
			{
				"type": "unocc",
				"energy": -0.01328,
				"method": "rhf"
			},
			{
				"type": "unocc",
				"energy": -0.00858,
				"method": "rhf"
			},
			{
				"type": "unocc",
				"energy": -0.0072,
				"method": "rhf"
			},
			{
				"type": "unocc",
				"energy": -0.00527,
				"method": "rhf"
			}
		],
		"cosmo_sigma_profile": { 
			"-0.025": 0.0,
			"-0.024": 0.0,
			"-0.023": 0.0,
			"-0.022": 0.0,
			"-0.021": 0.0,
			"-0.02": 0.0,
			"-0.019": 0.0,
			"-0.018": 0.0,
			"-0.017": 0.0,
			"-0.016": 0.0,
			"-0.015": 0.0,
			"-0.014": 0.0,
			"-0.013": 0.0,
			"-0.012": 0.0,
			"-0.011": 0.0,
			"-0.01": 0.0,
			"-0.009": 0.0,
			"-0.008": 0.0,
			"-0.007": 5.45622503185,
			"-0.006": 29.2497099713,
			"-0.005": 35.9048558688,
			"-0.004": 39.0022391327,
			"-0.003": 33.4908534672,
			"-0.002": 31.7098266211,
			"-0.001": 30.6741503364,
			"0.0": 30.619092743,
			"0.001": 31.7691178985,
			"0.002": 27.1567402152,
			"0.003": 27.984303674,
			"0.004": 27.3256126794,
			"0.005": 23.030747055,
			"0.006": 8.09256775074,
			"0.007": 4.79144958445,
			"0.008": 3.66536966944,
			"0.009": 3.08418494081,
			"0.01": 3.19253194616,
			"0.011": 2.88402123745,
			"0.012": 4.23797012188,
			"0.013": 3.6847733405,
			"0.014": 2.56390893332,
			"0.015": 0.813473386929,
			"0.016": 0.0,
			"0.017": 0.0,
			"0.018": 0.0,
			"0.019": 0.0,
			"0.02": 0.0,
			"0.021": 0.0,
			"0.022": 0.0,
			"0.023": 0.0,
			"0.024": 0.0,
			"0.025": 0.0
		}
	}
}
