{
	 "smiles": "CC(C)OC(=O)C1=C(C)NC(=O)NC1C1=CC2=C(OCO2)C=C1", 
	 "Tm": 459.15, 
	 "num_atms": 41, 
	 "gaussian": { 
		 "optdone": 1, 
		 "sigma_profile": "yes", 
		 "theory": "DFT", 
		 "functional": "B3LYP", 
		 "basiset": "6-31G**", 
		 "properties": { 
			 "R2extent": 8563.9614, 
			 "electric_dipole_moment_norm": 3.78605937354, 
			 "electric_quadrupole_moment_norm": 18.0233802565, 
			 "total_energy": -1106.19402932, 
			 "HOMO_LUMO_gap": 0.16217, 
			 "cosmo_polarized_energy": -18.73, 
			 "cosmo_cavitation_energy": 43.69, 
			 "cosmo_dispersion_energy": -30.42, 
			 "cosmo_repulsion_energy": 2.33, 
			 "cosmo_total_nonelectrostatic_energy": 15.6, 
			 "SMD_solvation_energy": 8.76 
		},
		"coords": [
			{
				"x": -1.577727263,
				"y": -2.9239319373,
				"z": 3.449737171,
				"element": "C" 
			},
			{
				"x": -1.7870073766,
				"y": -1.4613365071,
				"z": 3.8290848089,
				"element": "C" 
			},
			{
				"x": -2.9762601195,
				"y": -1.2369237696,
				"z": 4.7528245936,
				"element": "C" 
			},
			{
				"x": -2.0582063193,
				"y": -0.6793287558,
				"z": 2.6285078581,
				"element": "O" 
			},
			{
				"x": -0.9838843347,
				"y": -0.2631592836,
				"z": 1.9108001288,
				"element": "C" 
			},
			{
				"x": 0.1663222408,
				"y": -0.5134211593,
				"z": 2.2511295413,
				"element": "O" 
			},
			{
				"x": -1.3118058166,
				"y": 0.5316008897,
				"z": 0.7219185626,
				"element": "C" 
			},
			{
				"x": -2.5629906455,
				"y": 0.8958557854,
				"z": 0.319580176,
				"element": "C" 
			},
			{
				"x": -3.884426619,
				"y": 0.4605629045,
				"z": 0.9001776845,
				"element": "C" 
			},
			{
				"x": -2.6789696625,
				"y": 1.7860169205,
				"z": -0.7346350908,
				"element": "N" 
			},
			{
				"x": -1.6485188341,
				"y": 2.6136559334,
				"z": -1.2038943436,
				"element": "C" 
			},
			{
				"x": -1.8770027813,
				"y": 3.5265046659,
				"z": -1.9843539495,
				"element": "O" 
			},
			{
				"x": -0.4267705146,
				"y": 2.3135036534,
				"z": -0.6730390545,
				"element": "N" 
			},
			{
				"x": -0.1078610098,
				"y": 1.0076003703,
				"z": -0.0930335331,
				"element": "C" 
			},
			{
				"x": 0.3506551614,
				"y": -0.0227812942,
				"z": -1.1397663773,
				"element": "C" 
			},
			{
				"x": 1.10659146,
				"y": -1.1345933125,
				"z": -0.6974407993,
				"element": "C" 
			},
			{
				"x": 1.4918711833,
				"y": -2.0555803132,
				"z": -1.6474514286,
				"element": "C" 
			},
			{
				"x": 1.1687531047,
				"y": -1.9156505356,
				"z": -2.9954564041,
				"element": "C" 
			},
			{
				"x": 1.6882517979,
				"y": -2.9670480335,
				"z": -3.7119712405,
				"element": "O" 
			},
			{
				"x": 2.3483415143,
				"y": -3.80826995,
				"z": -2.7580001439,
				"element": "C" 
			},
			{
				"x": 2.229119791,
				"y": -3.2029304756,
				"z": -1.4664312333,
				"element": "O" 
			},
			{
				"x": 0.4423764711,
				"y": -0.8366769559,
				"z": -3.4527628525,
				"element": "C" 
			},
			{
				"x": 0.0366768332,
				"y": 0.1136037809,
				"z": -2.4951254675,
				"element": "C" 
			},
			{
				"x": -2.4657748285,
				"y": -3.3244898032,
				"z": 2.9495080463,
				"element": "H" 
			},
			{
				"x": -0.7177881781,
				"y": -3.0268284145,
				"z": 2.7844332579,
				"element": "H" 
			},
			{
				"x": -1.3899969865,
				"y": -3.5223732365,
				"z": 4.3472859127,
				"element": "H" 
			},
			{
				"x": -0.8711587707,
				"y": -1.0650916848,
				"z": 4.2756485613,
				"element": "H" 
			},
			{
				"x": -3.1006355005,
				"y": -0.1737587341,
				"z": 4.9771471432,
				"element": "H" 
			},
			{
				"x": -3.901289568,
				"y": -1.6057161011,
				"z": 4.2975381747,
				"element": "H" 
			},
			{
				"x": -2.8236055106,
				"y": -1.7715994148,
				"z": 5.6954567153,
				"element": "H" 
			},
			{
				"x": -3.8934174621,
				"y": -0.6081562931,
				"z": 1.106591026,
				"element": "H" 
			},
			{
				"x": -4.6982157576,
				"y": 0.6986328586,
				"z": 0.2084415496,
				"element": "H" 
			},
			{
				"x": -4.0789872494,
				"y": 0.9725718217,
				"z": 1.8475264116,
				"element": "H" 
			},
			{
				"x": -3.5939976738,
				"y": 2.0685704013,
				"z": -1.0543684026,
				"element": "H" 
			},
			{
				"x": 0.3286512732,
				"y": 2.8406779676,
				"z": -1.089462263,
				"element": "H" 
			},
			{
				"x": 0.715959853,
				"y": 1.1545183483,
				"z": 0.6102091704,
				"element": "H" 
			},
			{
				"x": 1.3600815216,
				"y": -1.2535180095,
				"z": 0.3492371207,
				"element": "H" 
			},
			{
				"x": 3.4088555723,
				"y": -3.8995059394,
				"z": -3.023754507,
				"element": "H" 
			},
			{
				"x": 1.8676805603,
				"y": -4.7952342207,
				"z": -2.7466142814,
				"element": "H" 
			},
			{
				"x": 0.2001081324,
				"y": -0.7220801544,
				"z": -4.503284183,
				"element": "H" 
			},
			{
				"x": -0.5200976881,
				"y": 0.9773079879,
				"z": -2.8404380592,
				"element": "H" 
			}
		],
		 "valence_orbital": [ 
			{
				"type": "occ",
				"energy": -0.26956,
				"method": "rhf"
			},
			{
				"type": "occ",
				"energy": -0.25615,
				"method": "rhf"
			},
			{
				"type": "occ",
				"energy": -0.24022,
				"method": "rhf"
			},
			{
				"type": "occ",
				"energy": -0.22592,
				"method": "rhf"
			},
			{
				"type": "occ",
				"energy": -0.20141,
				"method": "rhf"
			},
			{
				"type": "unocc",
				"energy": -0.03924,
				"method": "rhf"
			},
			{
				"type": "unocc",
				"energy": 0.00231,
				"method": "rhf"
			},
			{
				"type": "unocc",
				"energy": 0.01494,
				"method": "rhf"
			},
			{
				"type": "unocc",
				"energy": 0.05557,
				"method": "rhf"
			},
			{
				"type": "unocc",
				"energy": 0.07015,
				"method": "rhf"
			}
		],
		"cosmo_sigma_profile": { 
			"-0.025": 0.0,
			"-0.024": 0.0,
			"-0.023": 0.0,
			"-0.022": 0.0,
			"-0.021": 0.0,
			"-0.02": 0.0,
			"-0.019": 0.0,
			"-0.018": 0.0,
			"-0.017": 0.0,
			"-0.016": 0.300838191615,
			"-0.015": 0.8027738961,
			"-0.014": 2.19585111253,
			"-0.013": 1.97984738458,
			"-0.012": 2.34109207301,
			"-0.011": 1.83957937023,
			"-0.01": 2.14354456626,
			"-0.009": 2.31349086984,
			"-0.008": 3.0992219007,
			"-0.007": 10.9524445882,
			"-0.006": 12.359041966,
			"-0.005": 13.4631058171,
			"-0.004": 25.8050076866,
			"-0.003": 28.13916403,
			"-0.002": 33.2113486308,
			"-0.001": 30.4131626837,
			"0.0": 32.439035936,
			"0.001": 25.9828885955,
			"0.002": 22.608724504,
			"0.003": 21.83299883,
			"0.004": 16.0532447795,
			"0.005": 10.8938943883,
			"0.006": 5.80535585263,
			"0.007": 5.57068562042,
			"0.008": 5.38416139586,
			"0.009": 5.27321895286,
			"0.01": 5.15090073587,
			"0.011": 2.64732594427,
			"0.012": 4.02518509237,
			"0.013": 6.53544638597,
			"0.014": 4.01278405339,
			"0.015": 0.0790190805443,
			"0.016": 0.0,
			"0.017": 0.0,
			"0.018": 0.0,
			"0.019": 0.0,
			"0.02": 0.0,
			"0.021": 0.0,
			"0.022": 0.0,
			"0.023": 0.0,
			"0.024": 0.0,
			"0.025": 0.0
		}
	}
}
