{
	 "smiles": "OC(=O)C(=C/C1=CC=C(Cl)C=C1)C(=CC1=CC=C(Cl)C=C1)C(O)=O", 
	 "Tm": 505.15, 
	 "num_atms": 36, 
	 "gaussian": { 
		 "optdone": 1, 
		 "sigma_profile": "yes", 
		 "theory": "DFT", 
		 "functional": "B3LYP", 
		 "basiset": "6-31G**", 
		 "properties": { 
			 "R2extent": 15618.3194, 
			 "electric_dipole_moment_norm": 4.66131921348, 
			 "electric_quadrupole_moment_norm": 17.0656105311, 
			 "total_energy": -1914.41533914, 
			 "HOMO_LUMO_gap": 0.14337, 
			 "cosmo_polarized_energy": -20.97, 
			 "cosmo_cavitation_energy": 45.91, 
			 "cosmo_dispersion_energy": -32.16, 
			 "cosmo_repulsion_energy": 2.46, 
			 "cosmo_total_nonelectrostatic_energy": 16.2, 
			 "SMD_solvation_energy": 8.93 
		},
		"coords": [
			{
				"x": 2.5846494441,
				"y": 2.0693912533,
				"z": -1.871613652,
				"element": "O" 
			},
			{
				"x": 1.8917392852,
				"y": 1.7487646158,
				"z": -0.7510822579,
				"element": "C" 
			},
			{
				"x": 1.7502988685,
				"y": 2.5104594462,
				"z": 0.1784227267,
				"element": "O" 
			},
			{
				"x": 1.3823268827,
				"y": 0.3307139998,
				"z": -0.7818648299,
				"element": "C" 
			},
			{
				"x": 0.577849364,
				"y": -0.1390620828,
				"z": -1.7664925252,
				"element": "C" 
			},
			{
				"x": -0.0517337497,
				"y": 0.5836116726,
				"z": -2.877477474,
				"element": "C" 
			},
			{
				"x": -0.428671315,
				"y": 1.9373471573,
				"z": -2.8014335941,
				"element": "C" 
			},
			{
				"x": -1.0346965152,
				"y": 2.5759808295,
				"z": -3.8787934434,
				"element": "C" 
			},
			{
				"x": -1.2767185663,
				"y": 1.8587646132,
				"z": -5.0517078669,
				"element": "C" 
			},
			{
				"x": -2.0403718877,
				"y": 2.6599433833,
				"z": -6.4117733001,
				"element": "Cl" 
			},
			{
				"x": -0.9367824475,
				"y": 0.5091696764,
				"z": -5.1511463292,
				"element": "C" 
			},
			{
				"x": -0.3392836046,
				"y": -0.1184914372,
				"z": -4.0624839349,
				"element": "C" 
			},
			{
				"x": 1.7927075862,
				"y": -0.5173549627,
				"z": 0.3745661518,
				"element": "C" 
			},
			{
				"x": 0.8282573958,
				"y": -1.2324307481,
				"z": 1.0216411769,
				"element": "C" 
			},
			{
				"x": 0.7799536315,
				"y": -2.233177888,
				"z": 2.08943442,
				"element": "C" 
			},
			{
				"x": -0.4679272312,
				"y": -2.8747043319,
				"z": 2.2617995872,
				"element": "C" 
			},
			{
				"x": -0.6635909646,
				"y": -3.8608335236,
				"z": 3.2205819718,
				"element": "C" 
			},
			{
				"x": 0.4045765427,
				"y": -4.2174775732,
				"z": 4.0440358597,
				"element": "C" 
			},
			{
				"x": 0.1771363912,
				"y": -5.4567108197,
				"z": 5.263719621,
				"element": "Cl" 
			},
			{
				"x": 1.6465386149,
				"y": -3.5945453939,
				"z": 3.9157752004,
				"element": "C" 
			},
			{
				"x": 1.8328010265,
				"y": -2.6105055617,
				"z": 2.9498430865,
				"element": "C" 
			},
			{
				"x": 3.2608137886,
				"y": -0.5184983845,
				"z": 0.6892242356,
				"element": "C" 
			},
			{
				"x": 4.076054634,
				"y": -0.1999966179,
				"z": -0.3519419749,
				"element": "O" 
			},
			{
				"x": 3.7622668088,
				"y": -0.7583228914,
				"z": 1.7646893631,
				"element": "O" 
			},
			{
				"x": 2.8974146086,
				"y": 2.9831337365,
				"z": -1.7523142985,
				"element": "H" 
			},
			{
				"x": 0.3484217225,
				"y": -1.2030302086,
				"z": -1.7271939252,
				"element": "H" 
			},
			{
				"x": -0.2825309678,
				"y": 2.4909318178,
				"z": -1.8797993316,
				"element": "H" 
			},
			{
				"x": -1.3308199732,
				"y": 3.6166695691,
				"z": -3.8082927321,
				"element": "H" 
			},
			{
				"x": -1.142932923,
				"y": -0.0385061297,
				"z": -6.0638631532,
				"element": "H" 
			},
			{
				"x": -0.0778233029,
				"y": -1.1706813807,
				"z": -4.1357924,
				"element": "H" 
			},
			{
				"x": -0.166357779,
				"y": -1.040072429,
				"z": 0.6238007224,
				"element": "H" 
			},
			{
				"x": -1.3009954442,
				"y": -2.5972844189,
				"z": 1.6213526249,
				"element": "H" 
			},
			{
				"x": -1.627140418,
				"y": -4.3448667649,
				"z": 3.3331166356,
				"element": "H" 
			},
			{
				"x": 2.4619185424,
				"y": -3.872962643,
				"z": 4.5742252285,
				"element": "H" 
			},
			{
				"x": 2.7882533034,
				"y": -2.1117514358,
				"z": 2.8701947129,
				"element": "H" 
			},
			{
				"x": 3.5747986484,
				"y": -0.0958141439,
				"z": -1.175356302,
				"element": "H" 
			}
		],
		 "valence_orbital": [ 
			{
				"type": "occ",
				"energy": -0.28148,
				"method": "rhf"
			},
			{
				"type": "occ",
				"energy": -0.27827,
				"method": "rhf"
			},
			{
				"type": "occ",
				"energy": -0.27053,
				"method": "rhf"
			},
			{
				"type": "occ",
				"energy": -0.25636,
				"method": "rhf"
			},
			{
				"type": "occ",
				"energy": -0.23249,
				"method": "rhf"
			},
			{
				"type": "unocc",
				"energy": -0.08912,
				"method": "rhf"
			},
			{
				"type": "unocc",
				"energy": -0.06576,
				"method": "rhf"
			},
			{
				"type": "unocc",
				"energy": -0.03182,
				"method": "rhf"
			},
			{
				"type": "unocc",
				"energy": -0.01919,
				"method": "rhf"
			},
			{
				"type": "unocc",
				"energy": -0.01421,
				"method": "rhf"
			}
		],
		"cosmo_sigma_profile": { 
			"-0.025": 0.0,
			"-0.024": 0.0,
			"-0.023": 0.0,
			"-0.022": 0.0,
			"-0.021": 0.0,
			"-0.02": 0.0,
			"-0.019": 0.364517296326,
			"-0.018": 1.14915362924,
			"-0.017": 0.801680059017,
			"-0.016": 1.0080122535,
			"-0.015": 0.91036738712,
			"-0.014": 1.54353083232,
			"-0.013": 1.01206915262,
			"-0.012": 1.47112495191,
			"-0.011": 1.94215600592,
			"-0.01": 1.35460159176,
			"-0.009": 1.77548361897,
			"-0.008": 8.73409145737,
			"-0.007": 18.6732240691,
			"-0.006": 19.8766697124,
			"-0.005": 17.2691835291,
			"-0.004": 17.5395603514,
			"-0.003": 17.1216507935,
			"-0.002": 19.5589718954,
			"-0.001": 21.9499194886,
			"0.0": 27.9168831026,
			"0.001": 33.7171437462,
			"0.002": 43.0138222192,
			"0.003": 37.39698223,
			"0.004": 26.251648037,
			"0.005": 11.1031936318,
			"0.006": 5.82810291187,
			"0.007": 4.26022747368,
			"0.008": 5.44570099747,
			"0.009": 5.68816798526,
			"0.01": 8.19823870514,
			"0.011": 7.50685031326,
			"0.012": 2.78185086648,
			"0.013": 0.56598859846,
			"0.014": 0.0,
			"0.015": 0.0,
			"0.016": 0.0,
			"0.017": 0.0,
			"0.018": 0.0,
			"0.019": 0.0,
			"0.02": 0.0,
			"0.021": 0.0,
			"0.022": 0.0,
			"0.023": 0.0,
			"0.024": 0.0,
			"0.025": 0.0
		}
	}
}
