{
	 "smiles": "CC1=C2NC(=O)C(=O)C2=C(F)C=C1", 
	 "Tm": 501.15, 
	 "num_atms": 19, 
	 "gaussian": { 
		 "optdone": 1, 
		 "sigma_profile": "yes", 
		 "theory": "DFT", 
		 "functional": "B3LYP", 
		 "basiset": "6-31G**", 
		 "properties": { 
			 "R2extent": 4282.0374, 
			 "electric_dipole_moment_norm": 6.91694221315, 
			 "electric_quadrupole_moment_norm": 31.0178994595, 
			 "total_energy": -651.61148607, 
			 "HOMO_LUMO_gap": 0.14308, 
			 "cosmo_polarized_energy": -16.19, 
			 "cosmo_cavitation_energy": 24.7, 
			 "cosmo_dispersion_energy": -17.88, 
			 "cosmo_repulsion_energy": 1.38, 
			 "cosmo_total_nonelectrostatic_energy": 8.2, 
			 "SMD_solvation_energy": 6.05 
		},
		"coords": [
			{
				"x": -0.3072764775,
				"y": 0.7205210672,
				"z": 1.1853994852,
				"element": "C" 
			},
			{
				"x": 0.4741832916,
				"y": 0.3743654349,
				"z": -0.057290919,
				"element": "C" 
			},
			{
				"x": 1.77915086,
				"y": 0.8260476707,
				"z": -0.2549836811,
				"element": "C" 
			},
			{
				"x": 2.5419917299,
				"y": 1.6261596206,
				"z": 0.6065025304,
				"element": "N" 
			},
			{
				"x": 3.8057508817,
				"y": 1.8908362932,
				"z": 0.0983932192,
				"element": "C" 
			},
			{
				"x": 4.6771014527,
				"y": 2.5493574862,
				"z": 0.6173181055,
				"element": "O" 
			},
			{
				"x": 3.851492226,
				"y": 1.1501196005,
				"z": -1.2853565504,
				"element": "C" 
			},
			{
				"x": 4.8082273778,
				"y": 1.1556655149,
				"z": -2.0261665752,
				"element": "O" 
			},
			{
				"x": 2.5294244607,
				"y": 0.5151388727,
				"z": -1.4091867376,
				"element": "C" 
			},
			{
				"x": 1.950403325,
				"y": -0.2749836336,
				"z": -2.3972479301,
				"element": "C" 
			},
			{
				"x": 2.6447720803,
				"y": -0.580583723,
				"z": -3.4980310638,
				"element": "F" 
			},
			{
				"x": 0.6506783621,
				"y": -0.7499409245,
				"z": -2.2461547937,
				"element": "C" 
			},
			{
				"x": -0.05798528,
				"y": -0.4191616252,
				"z": -1.0880484255,
				"element": "C" 
			},
			{
				"x": -1.3049019002,
				"y": 0.2760950719,
				"z": 1.155427603,
				"element": "H" 
			},
			{
				"x": -0.4339242849,
				"y": 1.8045443953,
				"z": 1.2971353096,
				"element": "H" 
			},
			{
				"x": 0.188518477,
				"y": 0.3536872442,
				"z": 2.0927311639,
				"element": "H" 
			},
			{
				"x": 2.2279822273,
				"y": 1.9801176007,
				"z": 1.4976871455,
				"element": "H" 
			},
			{
				"x": 0.2104709328,
				"y": -1.3645921795,
				"z": -3.0226110947,
				"element": "H" 
			},
			{
				"x": -1.0723597422,
				"y": -0.7933937872,
				"z": -0.976616791,
				"element": "H" 
			}
		],
		 "valence_orbital": [ 
			{
				"type": "occ",
				"energy": -0.32953,
				"method": "rhf"
			},
			{
				"type": "occ",
				"energy": -0.31173,
				"method": "rhf"
			},
			{
				"type": "occ",
				"energy": -0.26984,
				"method": "rhf"
			},
			{
				"type": "occ",
				"energy": -0.24883,
				"method": "rhf"
			},
			{
				"type": "occ",
				"energy": -0.24177,
				"method": "rhf"
			},
			{
				"type": "unocc",
				"energy": -0.09869,
				"method": "rhf"
			},
			{
				"type": "unocc",
				"energy": -0.01908,
				"method": "rhf"
			},
			{
				"type": "unocc",
				"energy": 0.00152,
				"method": "rhf"
			},
			{
				"type": "unocc",
				"energy": 0.05807,
				"method": "rhf"
			},
			{
				"type": "unocc",
				"energy": 0.07627,
				"method": "rhf"
			}
		],
		"cosmo_sigma_profile": { 
			"-0.025": 0.0,
			"-0.024": 0.0,
			"-0.023": 0.0,
			"-0.022": 0.0,
			"-0.021": 0.0,
			"-0.02": 0.0,
			"-0.019": 0.0,
			"-0.018": 0.0,
			"-0.017": 0.152539095984,
			"-0.016": 0.69048702633,
			"-0.015": 0.977440146536,
			"-0.014": 1.11463117217,
			"-0.013": 0.994718897615,
			"-0.012": 0.227155117357,
			"-0.011": 1.51495828671,
			"-0.01": 2.01312501988,
			"-0.009": 1.43988476215,
			"-0.008": 3.23998415825,
			"-0.007": 9.61853621866,
			"-0.006": 9.69732533215,
			"-0.005": 11.8161188384,
			"-0.004": 10.6258794031,
			"-0.003": 12.7914888186,
			"-0.002": 14.7679101814,
			"-0.001": 21.0557257977,
			"0.0": 15.7929498188,
			"0.001": 12.9262251521,
			"0.002": 10.2319714728,
			"0.003": 11.7063005298,
			"0.004": 5.73042162539,
			"0.005": 2.94094401627,
			"0.006": 2.58877869677,
			"0.007": 3.99943582626,
			"0.008": 4.4348703888,
			"0.009": 5.18374752765,
			"0.01": 8.4271699669,
			"0.011": 8.44822919169,
			"0.012": 3.25256457401,
			"0.013": 0.161731165797,
			"0.014": 0.0,
			"0.015": 0.0,
			"0.016": 0.0,
			"0.017": 0.0,
			"0.018": 0.0,
			"0.019": 0.0,
			"0.02": 0.0,
			"0.021": 0.0,
			"0.022": 0.0,
			"0.023": 0.0,
			"0.024": 0.0,
			"0.025": 0.0
		}
	}
}
