{
	 "smiles": "CC1=CC(OCCCCC(O)=O)=C(C)C=C1", 
	 "Tm": 330.15, 
	 "num_atms": 34, 
	 "gaussian": { 
		 "optdone": 1, 
		 "sigma_profile": "yes", 
		 "theory": "DFT", 
		 "functional": "B3LYP", 
		 "basiset": "6-31G**", 
		 "properties": { 
			 "R2extent": 5952.4713, 
			 "electric_dipole_moment_norm": 2.25540355147, 
			 "electric_quadrupole_moment_norm": 8.51524212868, 
			 "total_energy": -731.93519351, 
			 "HOMO_LUMO_gap": 0.21625, 
			 "cosmo_polarized_energy": -12.42, 
			 "cosmo_cavitation_energy": 37.32, 
			 "cosmo_dispersion_energy": -25.76, 
			 "cosmo_repulsion_energy": 2.06, 
			 "cosmo_total_nonelectrostatic_energy": 13.62, 
			 "SMD_solvation_energy": 7.42 
		},
		"coords": [
			{
				"x": -1.10212154,
				"y": -0.8207619938,
				"z": 4.6061036988,
				"element": "C" 
			},
			{
				"x": -0.254535296,
				"y": -0.1537541102,
				"z": 3.5474932961,
				"element": "C" 
			},
			{
				"x": -0.5604148415,
				"y": -0.3332500358,
				"z": 2.1877482427,
				"element": "C" 
			},
			{
				"x": 0.2121609703,
				"y": 0.2746474474,
				"z": 1.1969924651,
				"element": "C" 
			},
			{
				"x": -0.0254900668,
				"y": 0.1455056061,
				"z": -0.1464936229,
				"element": "O" 
			},
			{
				"x": -1.1196634828,
				"y": -0.6545820329,
				"z": -0.5829303941,
				"element": "C" 
			},
			{
				"x": -1.1507432946,
				"y": -0.6203913912,
				"z": -2.1079400332,
				"element": "C" 
			},
			{
				"x": 0.116694203,
				"y": -1.1473445711,
				"z": -2.7970685519,
				"element": "C" 
			},
			{
				"x": 0.3916547455,
				"y": -2.6309014078,
				"z": -2.5404971059,
				"element": "C" 
			},
			{
				"x": 1.5628333708,
				"y": -3.1577951537,
				"z": -3.3416709228,
				"element": "C" 
			},
			{
				"x": 1.8438354003,
				"y": -4.4455556347,
				"z": -3.0192543502,
				"element": "O" 
			},
			{
				"x": 2.1909765052,
				"y": -2.5462444744,
				"z": -4.1774611487,
				"element": "O" 
			},
			{
				"x": 1.3180297876,
				"y": 1.0860883444,
				"z": 1.5337172286,
				"element": "C" 
			},
			{
				"x": 2.1402698216,
				"y": 1.7357518842,
				"z": 0.4505778318,
				"element": "C" 
			},
			{
				"x": 1.6048854755,
				"y": 1.2525235464,
				"z": 2.8861159173,
				"element": "C" 
			},
			{
				"x": 0.8364610956,
				"y": 0.6454635159,
				"z": 3.8856725708,
				"element": "C" 
			},
			{
				"x": -0.7430475381,
				"y": -0.5820384734,
				"z": 5.610899008,
				"element": "H" 
			},
			{
				"x": -2.1491963637,
				"y": -0.5018269581,
				"z": 4.5415242246,
				"element": "H" 
			},
			{
				"x": -1.0924129309,
				"y": -1.9120151316,
				"z": 4.4991441147,
				"element": "H" 
			},
			{
				"x": -1.409604833,
				"y": -0.952206895,
				"z": 1.9192409178,
				"element": "H" 
			},
			{
				"x": -1.0053783138,
				"y": -1.6822316153,
				"z": -0.2085131005,
				"element": "H" 
			},
			{
				"x": -2.0618095748,
				"y": -0.259255531,
				"z": -0.1773200657,
				"element": "H" 
			},
			{
				"x": -2.0267701874,
				"y": -1.1970240498,
				"z": -2.4347753285,
				"element": "H" 
			},
			{
				"x": -1.3216704362,
				"y": 0.4152293564,
				"z": -2.4233644008,
				"element": "H" 
			},
			{
				"x": 0.0301381004,
				"y": -0.9885113357,
				"z": -3.8766601593,
				"element": "H" 
			},
			{
				"x": 0.9787742728,
				"y": -0.5582130943,
				"z": -2.4708196661,
				"element": "H" 
			},
			{
				"x": -0.4804908094,
				"y": -3.2490192625,
				"z": -2.7950753263,
				"element": "H" 
			},
			{
				"x": 0.5987454507,
				"y": -2.8358706478,
				"z": -1.4837392466,
				"element": "H" 
			},
			{
				"x": 2.5946386059,
				"y": -4.7043612326,
				"z": -3.5796574312,
				"element": "H" 
			},
			{
				"x": 2.5985195281,
				"y": 0.9888355669,
				"z": -0.2077567099,
				"element": "H" 
			},
			{
				"x": 2.9382356389,
				"y": 2.345921967,
				"z": 0.8821716778,
				"element": "H" 
			},
			{
				"x": 1.5238715769,
				"y": 2.37656529,
				"z": -0.1895343055,
				"element": "H" 
			},
			{
				"x": 2.4520440745,
				"y": 1.8739974869,
				"z": 3.1664413883,
				"element": "H" 
			},
			{
				"x": 1.0911808855,
				"y": 0.798725021,
				"z": 4.930789288,
				"element": "H" 
			}
		],
		 "valence_orbital": [ 
			{
				"type": "occ",
				"energy": -0.31465,
				"method": "rhf"
			},
			{
				"type": "occ",
				"energy": -0.30553,
				"method": "rhf"
			},
			{
				"type": "occ",
				"energy": -0.27479,
				"method": "rhf"
			},
			{
				"type": "occ",
				"energy": -0.23271,
				"method": "rhf"
			},
			{
				"type": "occ",
				"energy": -0.20904,
				"method": "rhf"
			},
			{
				"type": "unocc",
				"energy": 0.00721,
				"method": "rhf"
			},
			{
				"type": "unocc",
				"energy": 0.01088,
				"method": "rhf"
			},
			{
				"type": "unocc",
				"energy": 0.02057,
				"method": "rhf"
			},
			{
				"type": "unocc",
				"energy": 0.07597,
				"method": "rhf"
			},
			{
				"type": "unocc",
				"energy": 0.08461,
				"method": "rhf"
			}
		],
		"cosmo_sigma_profile": { 
			"-0.025": 0.0,
			"-0.024": 0.0,
			"-0.023": 0.0,
			"-0.022": 0.0,
			"-0.021": 0.0,
			"-0.02": 0.0,
			"-0.019": 0.0,
			"-0.018": 0.269183377831,
			"-0.017": 1.27206964313,
			"-0.016": 0.543474467365,
			"-0.015": 0.793822170845,
			"-0.014": 1.00634236218,
			"-0.013": 0.752370877629,
			"-0.012": 0.543085643239,
			"-0.011": 0.809074299453,
			"-0.01": 0.696743910845,
			"-0.009": 0.586239939052,
			"-0.008": 0.469004200764,
			"-0.007": 0.70310556984,
			"-0.006": 5.61085307785,
			"-0.005": 14.4049075884,
			"-0.004": 31.2696938166,
			"-0.003": 33.6161907723,
			"-0.002": 33.5806177333,
			"-0.001": 25.7230011864,
			"0.0": 27.3223630768,
			"0.001": 20.0974150175,
			"0.002": 13.8338565141,
			"0.003": 12.7658613674,
			"0.004": 12.7930657128,
			"0.005": 12.1837428839,
			"0.006": 12.1300572947,
			"0.007": 8.52142548621,
			"0.008": 4.53677213467,
			"0.009": 2.98081985097,
			"0.01": 3.26228131742,
			"0.011": 3.19959424048,
			"0.012": 4.94732106474,
			"0.013": 0.842771200331,
			"0.014": 0.0,
			"0.015": 0.0,
			"0.016": 0.0,
			"0.017": 0.0,
			"0.018": 0.0,
			"0.019": 0.0,
			"0.02": 0.0,
			"0.021": 0.0,
			"0.022": 0.0,
			"0.023": 0.0,
			"0.024": 0.0,
			"0.025": 0.0
		}
	}
}
