{
	 "smiles": "BrC1=CC=C(C=C1)C(=O)C1CCOCC1", 
	 "Tm": 373.15, 
	 "num_atms": 28, 
	 "gaussian": { 
		 "optdone": 1, 
		 "sigma_profile": "yes", 
		 "theory": "DFT", 
		 "functional": "B3LYP", 
		 "basiset": "6-31G**", 
		 "properties": { 
			 "R2extent": 7428.4127, 
			 "electric_dipole_moment_norm": 1.10788372134, 
			 "electric_quadrupole_moment_norm": 5.69612147518, 
			 "total_energy": -3186.95389027, 
			 "HOMO_LUMO_gap": 0.17792, 
			 "cosmo_polarized_energy": -9.83, 
			 "cosmo_cavitation_energy": 32.33, 
			 "cosmo_dispersion_energy": -24.17, 
			 "cosmo_repulsion_energy": 1.89, 
			 "cosmo_total_nonelectrostatic_energy": 10.05, 
			 "SMD_solvation_energy": 4.41 
		},
		"coords": [
			{
				"x": -3.1619421188,
				"y": -0.8487469918,
				"z": -4.666277285,
				"element": "Br" 
			},
			{
				"x": -1.7946853925,
				"y": -1.0068573759,
				"z": -3.3454511582,
				"element": "C" 
			},
			{
				"x": -0.8309674459,
				"y": -2.0094611805,
				"z": -3.4703103129,
				"element": "C" 
			},
			{
				"x": 0.1603057347,
				"y": -2.1155087732,
				"z": -2.5021523072,
				"element": "C" 
			},
			{
				"x": 0.2099891891,
				"y": -1.2363751764,
				"z": -1.4059043688,
				"element": "C" 
			},
			{
				"x": -0.7729513313,
				"y": -0.2386831159,
				"z": -1.3081538456,
				"element": "C" 
			},
			{
				"x": -1.774364626,
				"y": -0.119496613,
				"z": -2.2714656322,
				"element": "C" 
			},
			{
				"x": 1.3291979463,
				"y": -1.4469264918,
				"z": -0.4203413122,
				"element": "C" 
			},
			{
				"x": 2.1239460258,
				"y": -2.3578327906,
				"z": -0.6141617407,
				"element": "O" 
			},
			{
				"x": 1.5236241787,
				"y": -0.5695113301,
				"z": 0.8221799193,
				"element": "C" 
			},
			{
				"x": 0.3850584541,
				"y": -0.6662742886,
				"z": 1.8652038759,
				"element": "C" 
			},
			{
				"x": 0.7301096204,
				"y": 0.1989160508,
				"z": 3.0817281723,
				"element": "C" 
			},
			{
				"x": 0.9796405804,
				"y": 1.5488268309,
				"z": 2.7135713338,
				"element": "O" 
			},
			{
				"x": 2.0924094516,
				"y": 1.6605724532,
				"z": 1.8364381128,
				"element": "C" 
			},
			{
				"x": 1.8553977799,
				"y": 0.9112497856,
				"z": 0.5211850497,
				"element": "C" 
			},
			{
				"x": -0.8602756948,
				"y": -2.6922437948,
				"z": -4.3118208105,
				"element": "H" 
			},
			{
				"x": 0.9219085523,
				"y": -2.8843316527,
				"z": -2.5725784959,
				"element": "H" 
			},
			{
				"x": -0.7762300275,
				"y": 0.4610377386,
				"z": -0.4823991848,
				"element": "H" 
			},
			{
				"x": -2.5293509729,
				"y": 0.6536798665,
				"z": -2.187972654,
				"element": "H" 
			},
			{
				"x": 2.4166989133,
				"y": -1.0077594258,
				"z": 1.2851057945,
				"element": "H" 
			},
			{
				"x": -0.5681232937,
				"y": -0.3245289179,
				"z": 1.451164762,
				"element": "H" 
			},
			{
				"x": 0.2473169931,
				"y": -1.708132419,
				"z": 2.1782244503,
				"element": "H" 
			},
			{
				"x": -0.100637124,
				"y": 0.2233740107,
				"z": 3.793082356,
				"element": "H" 
			},
			{
				"x": 1.6099801919,
				"y": -0.2195647716,
				"z": 3.6008494606,
				"element": "H" 
			},
			{
				"x": 2.2357782289,
				"y": 2.7302148297,
				"z": 1.6573652687,
				"element": "H" 
			},
			{
				"x": 3.0015208449,
				"y": 1.2734608317,
				"z": 2.3288382313,
				"element": "H" 
			},
			{
				"x": 2.7500336622,
				"y": 0.9771797202,
				"z": -0.1094608371,
				"element": "H" 
			},
			{
				"x": 1.0415116798,
				"y": 1.4024229918,
				"z": -0.0201868423,
				"element": "H" 
			}
		],
		 "valence_orbital": [ 
			{
				"type": "occ",
				"energy": -0.29562,
				"method": "rhf"
			},
			{
				"type": "occ",
				"energy": -0.27412,
				"method": "rhf"
			},
			{
				"type": "occ",
				"energy": -0.2662,
				"method": "rhf"
			},
			{
				"type": "occ",
				"energy": -0.25306,
				"method": "rhf"
			},
			{
				"type": "occ",
				"energy": -0.24505,
				"method": "rhf"
			},
			{
				"type": "unocc",
				"energy": -0.06713,
				"method": "rhf"
			},
			{
				"type": "unocc",
				"energy": -0.02417,
				"method": "rhf"
			},
			{
				"type": "unocc",
				"energy": -0.00042,
				"method": "rhf"
			},
			{
				"type": "unocc",
				"energy": 0.02551,
				"method": "rhf"
			},
			{
				"type": "unocc",
				"energy": 0.08106,
				"method": "rhf"
			}
		],
		"cosmo_sigma_profile": { 
			"-0.025": 0.0,
			"-0.024": 0.0,
			"-0.023": 0.0,
			"-0.022": 0.0,
			"-0.021": 0.0,
			"-0.02": 0.0,
			"-0.019": 0.0,
			"-0.018": 0.0,
			"-0.017": 0.0,
			"-0.016": 0.0,
			"-0.015": 0.0,
			"-0.014": 0.0,
			"-0.013": 0.0,
			"-0.012": 0.0,
			"-0.011": 0.0,
			"-0.01": 0.0,
			"-0.009": 0.0,
			"-0.008": 1.65616628769,
			"-0.007": 6.95671465059,
			"-0.006": 7.01721996012,
			"-0.005": 14.4360048846,
			"-0.004": 27.691827678,
			"-0.003": 35.877393539,
			"-0.002": 23.9530376267,
			"-0.001": 20.6028275265,
			"0.0": 16.075496047,
			"0.001": 20.6876504373,
			"0.002": 23.3228196418,
			"0.003": 13.9733242597,
			"0.004": 15.4562368817,
			"0.005": 5.03052890201,
			"0.006": 2.02737970848,
			"0.007": 2.92884991134,
			"0.008": 2.64097118347,
			"0.009": 2.75545947707,
			"0.01": 3.76207986885,
			"0.011": 3.95331966188,
			"0.012": 4.2091117749,
			"0.013": 3.42908117885,
			"0.014": 0.680085033406,
			"0.015": 0.0,
			"0.016": 0.0,
			"0.017": 0.0,
			"0.018": 0.0,
			"0.019": 0.0,
			"0.02": 0.0,
			"0.021": 0.0,
			"0.022": 0.0,
			"0.023": 0.0,
			"0.024": 0.0,
			"0.025": 0.0
		}
	}
}
