{
	 "smiles": "OC(=O)C1=CC=C(C=C1)N1CCCCC1=O", 
	 "Tm": 487.15, 
	 "num_atms": 29, 
	 "gaussian": { 
		 "optdone": 1, 
		 "sigma_profile": "yes", 
		 "theory": "DFT", 
		 "functional": "B3LYP", 
		 "basiset": "6-31G**", 
		 "properties": { 
			 "R2extent": 5224.4881, 
			 "electric_dipole_moment_norm": 5.61507750703, 
			 "electric_quadrupole_moment_norm": 12.1822190914, 
			 "total_energy": -745.574272612, 
			 "HOMO_LUMO_gap": 0.18201, 
			 "cosmo_polarized_energy": -16.29, 
			 "cosmo_cavitation_energy": 31.87, 
			 "cosmo_dispersion_energy": -23.67, 
			 "cosmo_repulsion_energy": 1.84, 
			 "cosmo_total_nonelectrostatic_energy": 10.04, 
			 "SMD_solvation_energy": 6.24 
		},
		"coords": [
			{
				"x": -2.4893996867,
				"y": -4.365682836,
				"z": -2.4212173174,
				"element": "O" 
			},
			{
				"x": -3.0182475155,
				"y": -3.2206109307,
				"z": -1.9137867806,
				"element": "C" 
			},
			{
				"x": -4.1883456591,
				"y": -2.9302949626,
				"z": -2.0736300668,
				"element": "O" 
			},
			{
				"x": -2.0304145012,
				"y": -2.4013836457,
				"z": -1.1723045244,
				"element": "C" 
			},
			{
				"x": -2.4575009389,
				"y": -1.1925298758,
				"z": -0.6039429312,
				"element": "C" 
			},
			{
				"x": -1.5771865253,
				"y": -0.3820196939,
				"z": 0.0981272794,
				"element": "C" 
			},
			{
				"x": -0.2319756412,
				"y": -0.7670495438,
				"z": 0.2512800456,
				"element": "C" 
			},
			{
				"x": 0.1946372533,
				"y": -1.978879451,
				"z": -0.3182627631,
				"element": "C" 
			},
			{
				"x": -0.6938125786,
				"y": -2.7865439353,
				"z": -1.021946506,
				"element": "C" 
			},
			{
				"x": 0.7073964616,
				"y": 0.071739677,
				"z": 0.9205748115,
				"element": "N" 
			},
			{
				"x": 2.1116718347,
				"y": -0.0046594784,
				"z": 0.4627022512,
				"element": "C" 
			},
			{
				"x": 2.9295843669,
				"y": 1.2252318193,
				"z": 0.8411615631,
				"element": "C" 
			},
			{
				"x": 2.8307037722,
				"y": 1.4663332959,
				"z": 2.3451681422,
				"element": "C" 
			},
			{
				"x": 1.3649704101,
				"y": 1.7030775943,
				"z": 2.7104542621,
				"element": "C" 
			},
			{
				"x": 0.339006415,
				"y": 0.7638939074,
				"z": 2.0761542285,
				"element": "C" 
			},
			{
				"x": -0.7819975519,
				"y": 0.6899846224,
				"z": 2.5569231052,
				"element": "O" 
			},
			{
				"x": -3.2232394032,
				"y": -4.8105637578,
				"z": -2.8756214518,
				"element": "H" 
			},
			{
				"x": -3.4936567855,
				"y": -0.8976100387,
				"z": -0.7307268191,
				"element": "H" 
			},
			{
				"x": -1.9240489876,
				"y": 0.5419746521,
				"z": 0.5371793106,
				"element": "H" 
			},
			{
				"x": 1.2205070563,
				"y": -2.3081188613,
				"z": -0.2027373225,
				"element": "H" 
			},
			{
				"x": -0.3509011433,
				"y": -3.7213180332,
				"z": -1.4506078605,
				"element": "H" 
			},
			{
				"x": 2.5951506522,
				"y": -0.8975709985,
				"z": 0.8855103014,
				"element": "H" 
			},
			{
				"x": 2.0945204794,
				"y": -0.1307501328,
				"z": -0.6233190416,
				"element": "H" 
			},
			{
				"x": 2.5596857956,
				"y": 2.1013527566,
				"z": 0.293535252,
				"element": "H" 
			},
			{
				"x": 3.9658615809,
				"y": 1.059838181,
				"z": 0.5266671992,
				"element": "H" 
			},
			{
				"x": 3.4412155337,
				"y": 2.3213744785,
				"z": 2.654418536,
				"element": "H" 
			},
			{
				"x": 3.218955654,
				"y": 0.5904391763,
				"z": 2.8813748661,
				"element": "H" 
			},
			{
				"x": 1.0634211821,
				"y": 2.7120950458,
				"z": 2.3972756896,
				"element": "H" 
			},
			{
				"x": 1.1880384699,
				"y": 1.6563509688,
				"z": 3.7879965413,
				"element": "H" 
			}
		],
		 "valence_orbital": [ 
			{
				"type": "occ",
				"energy": -0.28812,
				"method": "rhf"
			},
			{
				"type": "occ",
				"energy": -0.27083,
				"method": "rhf"
			},
			{
				"type": "occ",
				"energy": -0.26077,
				"method": "rhf"
			},
			{
				"type": "occ",
				"energy": -0.24759,
				"method": "rhf"
			},
			{
				"type": "occ",
				"energy": -0.22792,
				"method": "rhf"
			},
			{
				"type": "unocc",
				"energy": -0.04591,
				"method": "rhf"
			},
			{
				"type": "unocc",
				"energy": -0.00578,
				"method": "rhf"
			},
			{
				"type": "unocc",
				"energy": 0.01336,
				"method": "rhf"
			},
			{
				"type": "unocc",
				"energy": 0.06524,
				"method": "rhf"
			},
			{
				"type": "unocc",
				"energy": 0.07901,
				"method": "rhf"
			}
		],
		"cosmo_sigma_profile": { 
			"-0.025": 0.0,
			"-0.024": 0.0,
			"-0.023": 0.0,
			"-0.022": 0.0,
			"-0.021": 0.0,
			"-0.02": 0.0,
			"-0.019": 0.0,
			"-0.018": 0.486793329501,
			"-0.017": 1.03757283411,
			"-0.016": 0.732672419646,
			"-0.015": 1.1559115375,
			"-0.014": 0.496347827928,
			"-0.013": 0.641539594052,
			"-0.012": 0.36539773336,
			"-0.011": 0.776770812456,
			"-0.01": 1.06147859908,
			"-0.009": 0.332754510146,
			"-0.008": 0.621883200246,
			"-0.007": 3.42788068368,
			"-0.006": 8.4286241259,
			"-0.005": 19.2322522187,
			"-0.004": 27.124453306,
			"-0.003": 29.4491947375,
			"-0.002": 23.6996183187,
			"-0.001": 21.5225447208,
			"0.0": 15.0752777991,
			"0.001": 13.5686023377,
			"0.002": 14.0997167055,
			"0.003": 15.3549358823,
			"0.004": 8.8054720333,
			"0.005": 5.48327457142,
			"0.006": 4.58002578233,
			"0.007": 4.95233916287,
			"0.008": 4.14788034687,
			"0.009": 2.83947933643,
			"0.01": 3.24855145015,
			"0.011": 4.59665499721,
			"0.012": 7.64307834369,
			"0.013": 4.3352835868,
			"0.014": 2.27971819754,
			"0.015": 0.297963158455,
			"0.016": 0.0,
			"0.017": 0.0,
			"0.018": 0.0,
			"0.019": 0.0,
			"0.02": 0.0,
			"0.021": 0.0,
			"0.022": 0.0,
			"0.023": 0.0,
			"0.024": 0.0,
			"0.025": 0.0
		}
	}
}
