{
	 "smiles": "CCC(N)CO", 
	 "Tm": 271.15, 
	 "num_atms": 17, 
	 "gaussian": { 
		 "optdone": 1, 
		 "sigma_profile": "yes", 
		 "theory": "DFT", 
		 "functional": "B3LYP", 
		 "basiset": "6-31G**", 
		 "properties": { 
			 "R2extent": 773.8676, 
			 "electric_dipole_moment_norm": 0.88897911674, 
			 "electric_quadrupole_moment_norm": 7.76900301133, 
			 "total_energy": -289.020929325, 
			 "HOMO_LUMO_gap": 0.30598, 
			 "cosmo_polarized_energy": -9.0, 
			 "cosmo_cavitation_energy": 18.88, 
			 "cosmo_dispersion_energy": -14.12, 
			 "cosmo_repulsion_energy": 1.25, 
			 "cosmo_total_nonelectrostatic_energy": 6.01, 
			 "SMD_solvation_energy": 2.38 
		},
		"coords": [
			{
				"x": 0.1450287702,
				"y": 0.4504410146,
				"z": -2.5457199831,
				"element": "C" 
			},
			{
				"x": -0.1972546184,
				"y": 0.5317345822,
				"z": -1.0535349863,
				"element": "C" 
			},
			{
				"x": 0.5824337544,
				"y": -0.4516041408,
				"z": -0.1704450173,
				"element": "C" 
			},
			{
				"x": 0.1429464823,
				"y": -1.830848005,
				"z": -0.4233670151,
				"element": "N" 
			},
			{
				"x": 0.3505168466,
				"y": -0.1609341361,
				"z": 1.3140780352,
				"element": "C" 
			},
			{
				"x": 0.9167814976,
				"y": 1.1086043577,
				"z": 1.6162910607,
				"element": "O" 
			},
			{
				"x": -0.3965200637,
				"y": 1.2146705036,
				"z": -3.1125093187,
				"element": "H" 
			},
			{
				"x": 1.2161501557,
				"y": 0.6093950259,
				"z": -2.7163716597,
				"element": "H" 
			},
			{
				"x": -0.1232175382,
				"y": -0.5181286551,
				"z": -2.9837057383,
				"element": "H" 
			},
			{
				"x": 0.0125556315,
				"y": 1.5409682622,
				"z": -0.6849584752,
				"element": "H" 
			},
			{
				"x": -1.2695622628,
				"y": 0.3473635506,
				"z": -0.9056405746,
				"element": "H" 
			},
			{
				"x": 1.6607281058,
				"y": -0.2952666467,
				"z": -0.3604594086,
				"element": "H" 
			},
			{
				"x": 0.7652187058,
				"y": -2.4848466088,
				"z": 0.0468314514,
				"element": "H" 
			},
			{
				"x": 0.2154999923,
				"y": -2.0409818631,
				"z": -1.4149608678,
				"element": "H" 
			},
			{
				"x": 0.819252882,
				"y": -0.9574148285,
				"z": 1.9169636059,
				"element": "H" 
			},
			{
				"x": -0.7309602313,
				"y": -0.1901785736,
				"z": 1.5166119391,
				"element": "H" 
			},
			{
				"x": 0.6659018902,
				"y": 1.3426261607,
				"z": 2.5174969524,
				"element": "H" 
			}
		],
		 "valence_orbital": [ 
			{
				"type": "occ",
				"energy": -0.33101,
				"method": "rhf"
			},
			{
				"type": "occ",
				"energy": -0.32713,
				"method": "rhf"
			},
			{
				"type": "occ",
				"energy": -0.31205,
				"method": "rhf"
			},
			{
				"type": "occ",
				"energy": -0.26246,
				"method": "rhf"
			},
			{
				"type": "occ",
				"energy": -0.23156,
				"method": "rhf"
			},
			{
				"type": "unocc",
				"energy": 0.07442,
				"method": "rhf"
			},
			{
				"type": "unocc",
				"energy": 0.08334,
				"method": "rhf"
			},
			{
				"type": "unocc",
				"energy": 0.12107,
				"method": "rhf"
			},
			{
				"type": "unocc",
				"energy": 0.13563,
				"method": "rhf"
			},
			{
				"type": "unocc",
				"energy": 0.1474,
				"method": "rhf"
			}
		],
		"cosmo_sigma_profile": { 
			"-0.025": 0.0,
			"-0.024": 0.0,
			"-0.023": 0.0,
			"-0.022": 0.0,
			"-0.021": 0.0,
			"-0.02": 0.0,
			"-0.019": 0.0,
			"-0.018": 0.0,
			"-0.017": 0.0,
			"-0.016": 0.381896423254,
			"-0.015": 1.1026159256,
			"-0.014": 0.853120357902,
			"-0.013": 0.969733967878,
			"-0.012": 1.0416197344,
			"-0.011": 0.779546589694,
			"-0.01": 1.07801858673,
			"-0.009": 2.56121843018,
			"-0.008": 3.34605913917,
			"-0.007": 4.4570931693,
			"-0.006": 4.29242991248,
			"-0.005": 5.01194572151,
			"-0.004": 3.77813647655,
			"-0.003": 10.149806691,
			"-0.002": 14.8972552759,
			"-0.001": 19.4835052815,
			"0.0": 16.2116631383,
			"0.001": 15.4386610724,
			"0.002": 7.52168879064,
			"0.003": 4.1633997303,
			"0.004": 2.29975285951,
			"0.005": 2.20217733298,
			"0.006": 2.32399137983,
			"0.007": 2.7075314121,
			"0.008": 2.47135085536,
			"0.009": 2.12926419403,
			"0.01": 1.72416133946,
			"0.011": 2.15678078385,
			"0.012": 2.42297164713,
			"0.013": 1.50489038772,
			"0.014": 1.84221826107,
			"0.015": 0.95806811019,
			"0.016": 0.439955339078,
			"0.017": 0.560467474959,
			"0.018": 0.635543012429,
			"0.019": 0.444688326062,
			"0.02": 0.192914099577,
			"0.021": 0.0,
			"0.022": 0.0,
			"0.023": 0.0,
			"0.024": 0.0,
			"0.025": 0.0
		}
	}
}
