{
	 "smiles": "CCCC1=CC=C(NC(C)=O)C=C1", 
	 "Tm": 372.15, 
	 "num_atms": 28, 
	 "gaussian": { 
		 "optdone": 1, 
		 "sigma_profile": "yes", 
		 "theory": "DFT", 
		 "functional": "B3LYP", 
		 "basiset": "6-31G**", 
		 "properties": { 
			 "R2extent": 3862.1167, 
			 "electric_dipole_moment_norm": 3.32321179132, 
			 "electric_quadrupole_moment_norm": 17.2610025207, 
			 "total_energy": -558.222697466, 
			 "HOMO_LUMO_gap": 0.2035, 
			 "cosmo_polarized_energy": -12.14, 
			 "cosmo_cavitation_energy": 30.84, 
			 "cosmo_dispersion_energy": -22.19, 
			 "cosmo_repulsion_energy": 1.78, 
			 "cosmo_total_nonelectrostatic_energy": 10.43, 
			 "SMD_solvation_energy": 5.83 
		},
		"coords": [
			{
				"x": -0.565795024,
				"y": 3.8202096911,
				"z": -1.6938091546,
				"element": "C" 
			},
			{
				"x": -1.6011575942,
				"y": 2.7918030134,
				"z": -2.1577210316,
				"element": "C" 
			},
			{
				"x": -0.9891026077,
				"y": 1.4526529092,
				"z": -2.6267653505,
				"element": "C" 
			},
			{
				"x": -0.2966824233,
				"y": 0.6698259033,
				"z": -1.5308038187,
				"element": "C" 
			},
			{
				"x": -1.0393762517,
				"y": -0.0510785855,
				"z": -0.5844094225,
				"element": "C" 
			},
			{
				"x": -0.414790712,
				"y": -0.7569339106,
				"z": 0.4376706362,
				"element": "C" 
			},
			{
				"x": 0.9849710546,
				"y": -0.7662302629,
				"z": 0.5478899782,
				"element": "C" 
			},
			{
				"x": 1.5485786046,
				"y": -1.5075332857,
				"z": 1.609842299,
				"element": "N" 
			},
			{
				"x": 2.8755616117,
				"y": -1.6789240701,
				"z": 1.9378224955,
				"element": "C" 
			},
			{
				"x": 3.1141085025,
				"y": -2.5541633589,
				"z": 3.1615898076,
				"element": "C" 
			},
			{
				"x": 3.8067083042,
				"y": -1.1837191835,
				"z": 1.3186252037,
				"element": "O" 
			},
			{
				"x": 1.746273586,
				"y": -0.0545156721,
				"z": -0.3898965685,
				"element": "C" 
			},
			{
				"x": 1.0975480138,
				"y": 0.6465806779,
				"z": -1.4071450775,
				"element": "C" 
			},
			{
				"x": 0.1313618568,
				"y": 4.0705352213,
				"z": -2.5021433425,
				"element": "H" 
			},
			{
				"x": 0.0240915535,
				"y": 3.4412792834,
				"z": -0.853406984,
				"element": "H" 
			},
			{
				"x": -1.0489095323,
				"y": 4.7490056122,
				"z": -1.3731510793,
				"element": "H" 
			},
			{
				"x": -2.1889604756,
				"y": 3.2114867666,
				"z": -2.9842456295,
				"element": "H" 
			},
			{
				"x": -2.3119099732,
				"y": 2.5932870686,
				"z": -1.3449344745,
				"element": "H" 
			},
			{
				"x": -0.2772824543,
				"y": 1.6508741431,
				"z": -3.4379338832,
				"element": "H" 
			},
			{
				"x": -1.7884367366,
				"y": 0.8379796794,
				"z": -3.0601432859,
				"element": "H" 
			},
			{
				"x": -2.1248389519,
				"y": -0.0660051931,
				"z": -0.6503378842,
				"element": "H" 
			},
			{
				"x": -1.0162850283,
				"y": -1.3117213414,
				"z": 1.1553129685,
				"element": "H" 
			},
			{
				"x": 0.8785588592,
				"y": -1.9717849109,
				"z": 2.2049812006,
				"element": "H" 
			},
			{
				"x": 3.6755800601,
				"y": -1.9748988988,
				"z": 3.8996190345,
				"element": "H" 
			},
			{
				"x": 3.7413437561,
				"y": -3.4001395597,
				"z": 2.867546257,
				"element": "H" 
			},
			{
				"x": 2.2022323678,
				"y": -2.9354360486,
				"z": 3.6298532176,
				"element": "H" 
			},
			{
				"x": 2.8241009857,
				"y": -0.0613471671,
				"z": -0.3131809891,
				"element": "H" 
			},
			{
				"x": 1.7026086485,
				"y": 1.1890114792,
				"z": -2.1296251223,
				"element": "H" 
			}
		],
		 "valence_orbital": [ 
			{
				"type": "occ",
				"energy": -0.32274,
				"method": "rhf"
			},
			{
				"type": "occ",
				"energy": -0.29479,
				"method": "rhf"
			},
			{
				"type": "occ",
				"energy": -0.24976,
				"method": "rhf"
			},
			{
				"type": "occ",
				"energy": -0.24713,
				"method": "rhf"
			},
			{
				"type": "occ",
				"energy": -0.21224,
				"method": "rhf"
			},
			{
				"type": "unocc",
				"energy": -0.00874,
				"method": "rhf"
			},
			{
				"type": "unocc",
				"energy": 0.0011,
				"method": "rhf"
			},
			{
				"type": "unocc",
				"energy": 0.04754,
				"method": "rhf"
			},
			{
				"type": "unocc",
				"energy": 0.0648,
				"method": "rhf"
			},
			{
				"type": "unocc",
				"energy": 0.09447,
				"method": "rhf"
			}
		],
		"cosmo_sigma_profile": { 
			"-0.025": 0.0,
			"-0.024": 0.0,
			"-0.023": 0.0,
			"-0.022": 0.0,
			"-0.021": 0.0,
			"-0.02": 0.0,
			"-0.019": 0.0,
			"-0.018": 0.0,
			"-0.017": 0.0,
			"-0.016": 0.0,
			"-0.015": 0.701175526177,
			"-0.014": 1.47891638975,
			"-0.013": 1.8541592707,
			"-0.012": 1.69689884497,
			"-0.011": 0.721463566601,
			"-0.01": 1.71080119607,
			"-0.009": 1.31667151965,
			"-0.008": 1.97105580387,
			"-0.007": 1.94556063791,
			"-0.006": 5.73389187204,
			"-0.005": 9.90843144837,
			"-0.004": 12.3735765895,
			"-0.003": 22.2956851268,
			"-0.002": 28.603691887,
			"-0.001": 27.9568773878,
			"0.0": 24.3380539322,
			"0.001": 23.003328397,
			"0.002": 16.33057414,
			"0.003": 11.9327074022,
			"0.004": 10.5970046466,
			"0.005": 10.1950979511,
			"0.006": 8.46494890764,
			"0.007": 2.84711363774,
			"0.008": 1.65920845086,
			"0.009": 1.07097392204,
			"0.01": 1.54865615942,
			"0.011": 1.98700871641,
			"0.012": 2.17040948994,
			"0.013": 3.40512139947,
			"0.014": 2.17644794476,
			"0.015": 0.546680275438,
			"0.016": 0.0,
			"0.017": 0.0,
			"0.018": 0.0,
			"0.019": 0.0,
			"0.02": 0.0,
			"0.021": 0.0,
			"0.022": 0.0,
			"0.023": 0.0,
			"0.024": 0.0,
			"0.025": 0.0
		}
	}
}
