{
	 "smiles": "OC(=O)CC1=CC=CC=C1", 
	 "Tm": 350.65, 
	 "num_atms": 18, 
	 "gaussian": { 
		 "optdone": 1, 
		 "sigma_profile": "yes", 
		 "theory": "DFT", 
		 "functional": "B3LYP", 
		 "basiset": "6-31G**", 
		 "properties": { 
			 "R2extent": 2313.014, 
			 "electric_dipole_moment_norm": 4.0129590591, 
			 "electric_quadrupole_moment_norm": 12.4246394443, 
			 "total_energy": -460.126907534, 
			 "HOMO_LUMO_gap": 0.24028, 
			 "cosmo_polarized_energy": -16.86, 
			 "cosmo_cavitation_energy": 22.54, 
			 "cosmo_dispersion_energy": -16.24, 
			 "cosmo_repulsion_energy": 1.34, 
			 "cosmo_total_nonelectrostatic_energy": 7.63, 
			 "SMD_solvation_energy": 5.05 
		},
		"coords": [
			{
				"x": -1.6960986255,
				"y": 0.6005026176,
				"z": -1.7031986799,
				"element": "O" 
			},
			{
				"x": -1.2920261693,
				"y": -0.43665955,
				"z": -0.9153934667,
				"element": "C" 
			},
			{
				"x": -1.6595199842,
				"y": -1.5558220091,
				"z": -1.1534713339,
				"element": "O" 
			},
			{
				"x": -0.3685997214,
				"y": -0.0273634698,
				"z": 0.2396609271,
				"element": "C" 
			},
			{
				"x": 0.076309301,
				"y": -1.177445984,
				"z": 1.1096107658,
				"element": "C" 
			},
			{
				"x": 1.2428539274,
				"y": -1.8892409487,
				"z": 0.8073875143,
				"element": "C" 
			},
			{
				"x": 1.6493278625,
				"y": -2.9602181578,
				"z": 1.6034475788,
				"element": "C" 
			},
			{
				"x": 0.8918895408,
				"y": -3.3324593836,
				"z": 2.7153317696,
				"element": "C" 
			},
			{
				"x": -0.2731201211,
				"y": -2.6285904212,
				"z": 3.0249842921,
				"element": "C" 
			},
			{
				"x": -0.6763112786,
				"y": -1.5581832121,
				"z": 2.2264857336,
				"element": "C" 
			},
			{
				"x": -1.3183723136,
				"y": 1.4327276003,
				"z": -1.384777044,
				"element": "H" 
			},
			{
				"x": 0.5000901797,
				"y": 0.4849830401,
				"z": -0.1955969019,
				"element": "H" 
			},
			{
				"x": -0.8993535524,
				"y": 0.7254712092,
				"z": 0.838078658,
				"element": "H" 
			},
			{
				"x": 1.8359633838,
				"y": -1.6049262766,
				"z": -0.058390052,
				"element": "H" 
			},
			{
				"x": 2.5574823252,
				"y": -3.5023421444,
				"z": 1.3559642859,
				"element": "H" 
			},
			{
				"x": 1.2082779266,
				"y": -4.1647248576,
				"z": 3.3373752978,
				"element": "H" 
			},
			{
				"x": -0.8678509891,
				"y": -2.911435426,
				"z": 3.8888040428,
				"element": "H" 
			},
			{
				"x": -1.5855416917,
				"y": -1.0146726261,
				"z": 2.4715966124,
				"element": "H" 
			}
		],
		 "valence_orbital": [ 
			{
				"type": "occ",
				"energy": -0.34284,
				"method": "rhf"
			},
			{
				"type": "occ",
				"energy": -0.31619,
				"method": "rhf"
			},
			{
				"type": "occ",
				"energy": -0.27288,
				"method": "rhf"
			},
			{
				"type": "occ",
				"energy": -0.25171,
				"method": "rhf"
			},
			{
				"type": "occ",
				"energy": -0.24692,
				"method": "rhf"
			},
			{
				"type": "unocc",
				"energy": -0.00664,
				"method": "rhf"
			},
			{
				"type": "unocc",
				"energy": -0.00586,
				"method": "rhf"
			},
			{
				"type": "unocc",
				"energy": 0.01444,
				"method": "rhf"
			},
			{
				"type": "unocc",
				"energy": 0.05479,
				"method": "rhf"
			},
			{
				"type": "unocc",
				"energy": 0.08415,
				"method": "rhf"
			}
		],
		"cosmo_sigma_profile": { 
			"-0.025": 0.0,
			"-0.024": 0.0,
			"-0.023": 0.0,
			"-0.022": 0.0,
			"-0.021": 0.0,
			"-0.02": 0.0,
			"-0.019": 0.617669762539,
			"-0.018": 0.964970351059,
			"-0.017": 1.36449990447,
			"-0.016": 1.40244901385,
			"-0.015": 0.722898857153,
			"-0.014": 1.02537567479,
			"-0.013": 1.09571544482,
			"-0.012": 1.52310797474,
			"-0.011": 1.5413299539,
			"-0.01": 1.05705638116,
			"-0.009": 1.53731674606,
			"-0.008": 2.80517897951,
			"-0.007": 6.2551122992,
			"-0.006": 11.9690590278,
			"-0.005": 12.553237558,
			"-0.004": 13.8214301294,
			"-0.003": 13.5296944212,
			"-0.002": 8.44470731417,
			"-0.001": 7.80422432018,
			"0.0": 7.65363383078,
			"0.001": 7.1646294273,
			"0.002": 7.66823363831,
			"0.003": 8.90363802074,
			"0.004": 8.1347985519,
			"0.005": 10.1138655267,
			"0.006": 9.06402119282,
			"0.007": 3.59025555035,
			"0.008": 3.55598636552,
			"0.009": 3.91261638106,
			"0.01": 5.17970873883,
			"0.011": 6.28329568363,
			"0.012": 5.89846304876,
			"0.013": 2.06274342086,
			"0.014": 0.00269744751217,
			"0.015": 0.0,
			"0.016": 0.0,
			"0.017": 0.0,
			"0.018": 0.0,
			"0.019": 0.0,
			"0.02": 0.0,
			"0.021": 0.0,
			"0.022": 0.0,
			"0.023": 0.0,
			"0.024": 0.0,
			"0.025": 0.0
		}
	}
}
