{
	 "smiles": "CC(C)(C)C1CCC2=C(C1)SC(N)=N2", 
	 "Tm": 405.15, 
	 "num_atms": 32, 
	 "gaussian": { 
		 "optdone": 1, 
		 "sigma_profile": "yes", 
		 "theory": "DFT", 
		 "functional": "B3LYP", 
		 "basiset": "6-31G**", 
		 "properties": { 
			 "R2extent": 4493.6796, 
			 "electric_dipole_moment_norm": 1.15139183165, 
			 "electric_quadrupole_moment_norm": 11.9434429437, 
			 "total_energy": -937.732677301, 
			 "HOMO_LUMO_gap": 0.20072, 
			 "cosmo_polarized_energy": -9.49, 
			 "cosmo_cavitation_energy": 33.05, 
			 "cosmo_dispersion_energy": -24.5, 
			 "cosmo_repulsion_energy": 1.87, 
			 "cosmo_total_nonelectrostatic_energy": 10.42, 
			 "SMD_solvation_energy": 2.98 
		},
		"coords": [
			{
				"x": 0.7180282156,
				"y": -0.2767271287,
				"z": -3.5089611295,
				"element": "C" 
			},
			{
				"x": 1.2083045123,
				"y": -1.285618944,
				"z": -2.4496624761,
				"element": "C" 
			},
			{
				"x": 0.4764394276,
				"y": -2.6284055247,
				"z": -2.6658879275,
				"element": "C" 
			},
			{
				"x": 2.7161255497,
				"y": -1.5397453042,
				"z": -2.6648637022,
				"element": "C" 
			},
			{
				"x": 0.9509131673,
				"y": -0.7819768633,
				"z": -0.9873824153,
				"element": "C" 
			},
			{
				"x": -0.5175725805,
				"y": -0.3947539049,
				"z": -0.6994901163,
				"element": "C" 
			},
			{
				"x": -0.7787100471,
				"y": -0.1948406057,
				"z": 0.8032512093,
				"element": "C" 
			},
			{
				"x": 0.2846540242,
				"y": 0.6712253175,
				"z": 1.4162465086,
				"element": "C" 
			},
			{
				"x": 1.4628742474,
				"y": 0.9181602868,
				"z": 0.779994995,
				"element": "C" 
			},
			{
				"x": 1.8806738351,
				"y": 0.38374165,
				"z": -0.5598688464,
				"element": "C" 
			},
			{
				"x": 2.4566203443,
				"y": 1.9675457642,
				"z": 1.7892746014,
				"element": "S" 
			},
			{
				"x": 1.1426016672,
				"y": 1.9730808176,
				"z": 2.9799633601,
				"element": "C" 
			},
			{
				"x": 1.2864746998,
				"y": 2.6288102564,
				"z": 4.1862750315,
				"element": "N" 
			},
			{
				"x": 0.1014624732,
				"y": 1.2671699711,
				"z": 2.654583592,
				"element": "N" 
			},
			{
				"x": 1.1966722997,
				"y": 0.7019367724,
				"z": -3.3969104886,
				"element": "H" 
			},
			{
				"x": 0.9539196967,
				"y": -0.6410171355,
				"z": -4.5151363532,
				"element": "H" 
			},
			{
				"x": -0.3651288498,
				"y": -0.1281440253,
				"z": -3.4606247284,
				"element": "H" 
			},
			{
				"x": 0.8058936439,
				"y": -3.3798201753,
				"z": -1.9390333003,
				"element": "H" 
			},
			{
				"x": 0.6870548585,
				"y": -3.0204076317,
				"z": -3.6670889567,
				"element": "H" 
			},
			{
				"x": -0.6096820883,
				"y": -2.5306517271,
				"z": -2.5784056201,
				"element": "H" 
			},
			{
				"x": 3.2986603296,
				"y": -0.6136563304,
				"z": -2.6512360926,
				"element": "H" 
			},
			{
				"x": 3.1223802701,
				"y": -2.2059814081,
				"z": -1.8945957856,
				"element": "H" 
			},
			{
				"x": 2.8856913319,
				"y": -2.0157861867,
				"z": -3.6369357316,
				"element": "H" 
			},
			{
				"x": 1.1956609933,
				"y": -1.6292112133,
				"z": -0.3283189777,
				"element": "H" 
			},
			{
				"x": -1.2033334871,
				"y": -1.1552978225,
				"z": -1.0844057797,
				"element": "H" 
			},
			{
				"x": -0.7546241178,
				"y": 0.5387821503,
				"z": -1.2254229271,
				"element": "H" 
			},
			{
				"x": -1.761618428,
				"y": 0.2627229997,
				"z": 0.9662142143,
				"element": "H" 
			},
			{
				"x": -0.8072001164,
				"y": -1.1658834462,
				"z": 1.3186822667,
				"element": "H" 
			},
			{
				"x": 2.9182200719,
				"y": 0.0352894251,
				"z": -0.5169266379,
				"element": "H" 
			},
			{
				"x": 1.8579344114,
				"y": 1.1852841929,
				"z": -1.3127136693,
				"element": "H" 
			},
			{
				"x": 1.822111404,
				"y": 3.485534832,
				"z": 4.1701650689,
				"element": "H" 
			},
			{
				"x": 0.4082982404,
				"y": 2.7133409415,
				"z": 4.6827208145,
				"element": "H" 
			}
		],
		 "valence_orbital": [ 
			{
				"type": "occ",
				"energy": -0.29989,
				"method": "rhf"
			},
			{
				"type": "occ",
				"energy": -0.29507,
				"method": "rhf"
			},
			{
				"type": "occ",
				"energy": -0.26127,
				"method": "rhf"
			},
			{
				"type": "occ",
				"energy": -0.2593,
				"method": "rhf"
			},
			{
				"type": "occ",
				"energy": -0.19458,
				"method": "rhf"
			},
			{
				"type": "unocc",
				"energy": 0.00614,
				"method": "rhf"
			},
			{
				"type": "unocc",
				"energy": 0.01904,
				"method": "rhf"
			},
			{
				"type": "unocc",
				"energy": 0.06727,
				"method": "rhf"
			},
			{
				"type": "unocc",
				"energy": 0.07798,
				"method": "rhf"
			},
			{
				"type": "unocc",
				"energy": 0.08242,
				"method": "rhf"
			}
		],
		"cosmo_sigma_profile": { 
			"-0.025": 0.0,
			"-0.024": 0.0,
			"-0.023": 0.0,
			"-0.022": 0.0,
			"-0.021": 0.0,
			"-0.02": 0.0,
			"-0.019": 0.0,
			"-0.018": 0.0,
			"-0.017": 0.0,
			"-0.016": 0.0,
			"-0.015": 0.10910731469,
			"-0.014": 1.13724214141,
			"-0.013": 2.51604157536,
			"-0.012": 2.47371329669,
			"-0.011": 1.99070608284,
			"-0.01": 2.84337548939,
			"-0.009": 2.67530805859,
			"-0.008": 1.33079321496,
			"-0.007": 2.09523387407,
			"-0.006": 1.39752076441,
			"-0.005": 1.42076846437,
			"-0.004": 5.61903216826,
			"-0.003": 17.6676833119,
			"-0.002": 42.1459286068,
			"-0.001": 40.4933815669,
			"0.0": 30.0753956783,
			"0.001": 27.2732691286,
			"0.002": 23.4567980466,
			"0.003": 9.98043279476,
			"0.004": 10.8401973358,
			"0.005": 10.4478078247,
			"0.006": 5.15379316845,
			"0.007": 2.41612705459,
			"0.008": 1.80227032344,
			"0.009": 2.47679099239,
			"0.01": 1.68092448386,
			"0.011": 1.82501313253,
			"0.012": 1.5380828447,
			"0.013": 1.05324896098,
			"0.014": 0.91697749298,
			"0.015": 0.944551827863,
			"0.016": 0.566399982435,
			"0.017": 0.135663802336,
			"0.018": 0.0,
			"0.019": 0.0,
			"0.02": 0.0,
			"0.021": 0.0,
			"0.022": 0.0,
			"0.023": 0.0,
			"0.024": 0.0,
			"0.025": 0.0
		}
	}
}
