{
	 "smiles": "NC1=C(N=C(Cl)C=C1)C(O)=O", 
	 "Tm": 493.15, 
	 "num_atms": 16, 
	 "gaussian": { 
		 "optdone": 1, 
		 "sigma_profile": "yes", 
		 "theory": "DFT", 
		 "functional": "B3LYP", 
		 "basiset": "6-31G**", 
		 "properties": { 
			 "R2extent": 3631.9985, 
			 "electric_dipole_moment_norm": 4.11208864812, 
			 "electric_quadrupole_moment_norm": 15.9539390515, 
			 "total_energy": -951.815003429, 
			 "HOMO_LUMO_gap": 0.15721, 
			 "cosmo_polarized_energy": -15.39, 
			 "cosmo_cavitation_energy": 22.71, 
			 "cosmo_dispersion_energy": -17.44, 
			 "cosmo_repulsion_energy": 1.42, 
			 "cosmo_total_nonelectrostatic_energy": 6.69, 
			 "SMD_solvation_energy": 3.67 
		},
		"coords": [
			{
				"x": 0.7214926319,
				"y": -0.4382187165,
				"z": -0.1255496634,
				"element": "N" 
			},
			{
				"x": 0.4339696397,
				"y": 0.5703966616,
				"z": 0.7362548233,
				"element": "C" 
			},
			{
				"x": -0.5240408394,
				"y": 1.5848756333,
				"z": 0.4516392582,
				"element": "C" 
			},
			{
				"x": -0.7853709197,
				"y": 2.5938098572,
				"z": 1.3055393768,
				"element": "N" 
			},
			{
				"x": -0.1462068279,
				"y": 2.654145948,
				"z": 2.4410546504,
				"element": "C" 
			},
			{
				"x": -0.5218596785,
				"y": 3.9942680808,
				"z": 3.5287589304,
				"element": "Cl" 
			},
			{
				"x": 0.8192732896,
				"y": 1.7115487953,
				"z": 2.8436095697,
				"element": "C" 
			},
			{
				"x": 1.1020658038,
				"y": 0.6732574803,
				"z": 1.9837067436,
				"element": "C" 
			},
			{
				"x": -1.2861911133,
				"y": 1.5551640788,
				"z": -0.8168013545,
				"element": "C" 
			},
			{
				"x": -2.1500834851,
				"y": 2.5722597489,
				"z": -0.9666222275,
				"element": "O" 
			},
			{
				"x": -1.1625687731,
				"y": 0.685762521,
				"z": -1.6763075497,
				"element": "O" 
			},
			{
				"x": 1.3325753808,
				"y": -1.1858214085,
				"z": 0.1571029619,
				"element": "H" 
			},
			{
				"x": 0.1747688771,
				"y": -0.5046032342,
				"z": -0.9752605834,
				"element": "H" 
			},
			{
				"x": 1.3202889655,
				"y": 1.8056364814,
				"z": 3.8000770641,
				"element": "H" 
			},
			{
				"x": 1.8423140502,
				"y": -0.0754208378,
				"z": 2.2529588089,
				"element": "H" 
			},
			{
				"x": -2.5753270016,
				"y": 2.4260389103,
				"z": -1.8279608087,
				"element": "H" 
			}
		],
		 "valence_orbital": [ 
			{
				"type": "occ",
				"energy": -0.31051,
				"method": "rhf"
			},
			{
				"type": "occ",
				"energy": -0.29638,
				"method": "rhf"
			},
			{
				"type": "occ",
				"energy": -0.29313,
				"method": "rhf"
			},
			{
				"type": "occ",
				"energy": -0.26978,
				"method": "rhf"
			},
			{
				"type": "occ",
				"energy": -0.22164,
				"method": "rhf"
			},
			{
				"type": "unocc",
				"energy": -0.06443,
				"method": "rhf"
			},
			{
				"type": "unocc",
				"energy": -0.01322,
				"method": "rhf"
			},
			{
				"type": "unocc",
				"energy": 0.03596,
				"method": "rhf"
			},
			{
				"type": "unocc",
				"energy": 0.04387,
				"method": "rhf"
			},
			{
				"type": "unocc",
				"energy": 0.07889,
				"method": "rhf"
			}
		],
		"cosmo_sigma_profile": { 
			"-0.025": 0.0,
			"-0.024": 0.0,
			"-0.023": 0.0,
			"-0.022": 0.0,
			"-0.021": 0.0,
			"-0.02": 0.0,
			"-0.019": 0.0865707607379,
			"-0.018": 0.879716262031,
			"-0.017": 1.04233314266,
			"-0.016": 0.596036273086,
			"-0.015": 0.748937058617,
			"-0.014": 2.56366194303,
			"-0.013": 2.02428214959,
			"-0.012": 2.69648891955,
			"-0.011": 2.79499172514,
			"-0.01": 2.53747305602,
			"-0.009": 3.23431223647,
			"-0.008": 6.10700370193,
			"-0.007": 6.06146641532,
			"-0.006": 5.69386390779,
			"-0.005": 4.57052920689,
			"-0.004": 3.49758558289,
			"-0.003": 6.62920716522,
			"-0.002": 9.71407689373,
			"-0.001": 14.0628554892,
			"0.0": 19.033111322,
			"0.001": 15.9196150852,
			"0.002": 11.6082283996,
			"0.003": 8.9482627613,
			"0.004": 11.941344108,
			"0.005": 11.7274247507,
			"0.006": 5.59488096271,
			"0.007": 3.41650276942,
			"0.008": 4.13225702148,
			"0.009": 3.67554497788,
			"0.01": 2.85424799716,
			"0.011": 3.7281314466,
			"0.012": 2.85543561146,
			"0.013": 0.990438267932,
			"0.014": 1.04209630383,
			"0.015": 1.1930907154,
			"0.016": 0.228134189436,
			"0.017": 0.0,
			"0.018": 0.0,
			"0.019": 0.0,
			"0.02": 0.0,
			"0.021": 0.0,
			"0.022": 0.0,
			"0.023": 0.0,
			"0.024": 0.0,
			"0.025": 0.0
		}
	}
}
