{
	 "smiles": "NC1=C(Br)C=CC=N1", 
	 "Tm": 339.15, 
	 "num_atms": 13, 
	 "gaussian": { 
		 "optdone": 1, 
		 "sigma_profile": "yes", 
		 "theory": "DFT", 
		 "functional": "B3LYP", 
		 "basiset": "6-31G**", 
		 "properties": { 
			 "R2extent": 1942.6485, 
			 "electric_dipole_moment_norm": 0.732531016408, 
			 "electric_quadrupole_moment_norm": 9.05707171386, 
			 "total_energy": -2874.45733805, 
			 "HOMO_LUMO_gap": 0.19262, 
			 "cosmo_polarized_energy": -7.2, 
			 "cosmo_cavitation_energy": 19.15, 
			 "cosmo_dispersion_energy": -15.1, 
			 "cosmo_repulsion_energy": 1.25, 
			 "cosmo_total_nonelectrostatic_energy": 5.31, 
			 "SMD_solvation_energy": 0.91 
		},
		"coords": [
			{
				"x": -1.5316380836,
				"y": -0.562584593,
				"z": 0.618891714,
				"element": "N" 
			},
			{
				"x": -0.2816825217,
				"y": -0.4131836062,
				"z": 0.0784470106,
				"element": "C" 
			},
			{
				"x": 0.892252237,
				"y": -0.8329774055,
				"z": 0.7464014985,
				"element": "C" 
			},
			{
				"x": 0.7688983413,
				"y": -1.7157603451,
				"z": 2.4425687035,
				"element": "Br" 
			},
			{
				"x": 2.1314867492,
				"y": -0.6105373872,
				"z": 0.1701084775,
				"element": "C" 
			},
			{
				"x": 2.1942444163,
				"y": 0.0301181295,
				"z": -1.0708063448,
				"element": "C" 
			},
			{
				"x": 0.9919447298,
				"y": 0.4041023153,
				"z": -1.6643850964,
				"element": "C" 
			},
			{
				"x": -0.2094426399,
				"y": 0.1908416676,
				"z": -1.1194675099,
				"element": "N" 
			},
			{
				"x": -1.6590501461,
				"y": -1.2418191855,
				"z": 1.3527073427,
				"element": "H" 
			},
			{
				"x": -2.2946140337,
				"y": -0.4247750851,
				"z": -0.0263841309,
				"element": "H" 
			},
			{
				"x": 3.0314108431,
				"y": -0.9336431876,
				"z": 0.6821981608,
				"element": "H" 
			},
			{
				"x": 3.144769403,
				"y": 0.2239415807,
				"z": -1.5551143599,
				"element": "H" 
			},
			{
				"x": 0.9859207053,
				"y": 0.8993771022,
				"z": -2.6337654657,
				"element": "H" 
			}
		],
		 "valence_orbital": [ 
			{
				"type": "occ",
				"energy": -0.32549,
				"method": "rhf"
			},
			{
				"type": "occ",
				"energy": -0.29977,
				"method": "rhf"
			},
			{
				"type": "occ",
				"energy": -0.26806,
				"method": "rhf"
			},
			{
				"type": "occ",
				"energy": -0.2617,
				"method": "rhf"
			},
			{
				"type": "occ",
				"energy": -0.21717,
				"method": "rhf"
			},
			{
				"type": "unocc",
				"energy": -0.02455,
				"method": "rhf"
			},
			{
				"type": "unocc",
				"energy": 0.00225,
				"method": "rhf"
			},
			{
				"type": "unocc",
				"energy": 0.00436,
				"method": "rhf"
			},
			{
				"type": "unocc",
				"energy": 0.09397,
				"method": "rhf"
			},
			{
				"type": "unocc",
				"energy": 0.11484,
				"method": "rhf"
			}
		],
		"cosmo_sigma_profile": { 
			"-0.025": 0.0,
			"-0.024": 0.0,
			"-0.023": 0.0,
			"-0.022": 0.0,
			"-0.021": 0.0,
			"-0.02": 0.0,
			"-0.019": 0.0,
			"-0.018": 0.0,
			"-0.017": 0.0,
			"-0.016": 0.0,
			"-0.015": 0.0,
			"-0.014": 0.102643974084,
			"-0.013": 0.870321067003,
			"-0.012": 1.69973000105,
			"-0.011": 2.04777173714,
			"-0.01": 2.3031506429,
			"-0.009": 1.76113017011,
			"-0.008": 2.47268526148,
			"-0.007": 4.10767085552,
			"-0.006": 8.52879285987,
			"-0.005": 7.8918430014,
			"-0.004": 8.98331295417,
			"-0.003": 8.11105714771,
			"-0.002": 7.98381956076,
			"-0.001": 7.58323612214,
			"0.0": 9.84044671177,
			"0.001": 14.0461330175,
			"0.002": 18.487145709,
			"0.003": 17.3992576214,
			"0.004": 12.700950819,
			"0.005": 4.99486836271,
			"0.006": 2.83313063477,
			"0.007": 2.08979596342,
			"0.008": 2.25632655114,
			"0.009": 1.67940533984,
			"0.01": 1.34059882617,
			"0.011": 1.39621665631,
			"0.012": 0.832341100389,
			"0.013": 0.907985086514,
			"0.014": 0.795584771097,
			"0.015": 0.554676809862,
			"0.016": 0.0663871948678,
			"0.017": 0.0,
			"0.018": 0.0,
			"0.019": 0.0,
			"0.02": 0.0,
			"0.021": 0.0,
			"0.022": 0.0,
			"0.023": 0.0,
			"0.024": 0.0,
			"0.025": 0.0
		}
	}
}
