{
	 "smiles": "ClCC(=O)C1=CC=C(C=C1)C1CCCCC1", 
	 "Tm": 457.15, 
	 "num_atms": 33, 
	 "gaussian": { 
		 "optdone": 1, 
		 "sigma_profile": "yes", 
		 "theory": "DFT", 
		 "functional": "B3LYP", 
		 "basiset": "6-31G**", 
		 "properties": { 
			 "R2extent": 6810.4073, 
			 "electric_dipole_moment_norm": 3.92680194306, 
			 "electric_quadrupole_moment_norm": 10.9897619979, 
			 "total_energy": -1079.16396263, 
			 "HOMO_LUMO_gap": 0.18322, 
			 "cosmo_polarized_energy": -8.62, 
			 "cosmo_cavitation_energy": 35.82, 
			 "cosmo_dispersion_energy": -25.93, 
			 "cosmo_repulsion_energy": 2.03, 
			 "cosmo_total_nonelectrostatic_energy": 11.92, 
			 "SMD_solvation_energy": 5.36 
		},
		"coords": [
			{
				"x": 5.0395425688,
				"y": 1.3423676692,
				"z": 1.4552820192,
				"element": "Cl" 
			},
			{
				"x": 4.460065562,
				"y": 1.3940717129,
				"z": -0.2656683513,
				"element": "C" 
			},
			{
				"x": 3.0224217444,
				"y": 1.9162149076,
				"z": -0.371197496,
				"element": "C" 
			},
			{
				"x": 2.8465141969,
				"y": 3.010759185,
				"z": -0.8837663889,
				"element": "O" 
			},
			{
				"x": 1.8902224015,
				"y": 1.076223904,
				"z": 0.1049539001,
				"element": "C" 
			},
			{
				"x": 2.0540236382,
				"y": -0.2137782481,
				"z": 0.6354758335,
				"element": "C" 
			},
			{
				"x": 0.9482255226,
				"y": -0.957081374,
				"z": 1.0372601307,
				"element": "C" 
			},
			{
				"x": -0.3536877798,
				"y": -0.441493037,
				"z": 0.9293646786,
				"element": "C" 
			},
			{
				"x": -0.5068918078,
				"y": 0.8498901846,
				"z": 0.399542645,
				"element": "C" 
			},
			{
				"x": 0.5913561564,
				"y": 1.5974351756,
				"z": -0.0074174687,
				"element": "C" 
			},
			{
				"x": -1.5705258694,
				"y": -1.2527081676,
				"z": 1.337273539,
				"element": "C" 
			},
			{
				"x": -1.4574358663,
				"y": -1.9028999985,
				"z": 2.7565215087,
				"element": "C" 
			},
			{
				"x": -1.2689057931,
				"y": -3.4262206838,
				"z": 2.7074725647,
				"element": "C" 
			},
			{
				"x": -2.442351874,
				"y": -4.1253349354,
				"z": 1.9886716331,
				"element": "C" 
			},
			{
				"x": -2.9667563317,
				"y": -3.3028904871,
				"z": 0.7822383997,
				"element": "C" 
			},
			{
				"x": -1.908147535,
				"y": -2.3219537636,
				"z": 0.2621748332,
				"element": "C" 
			},
			{
				"x": 5.1072937138,
				"y": 2.0859128821,
				"z": -0.8010691168,
				"element": "H" 
			},
			{
				"x": 4.5654173632,
				"y": 0.3845662055,
				"z": -0.6674057133,
				"element": "H" 
			},
			{
				"x": 3.0447138994,
				"y": -0.63990444,
				"z": 0.7525294686,
				"element": "H" 
			},
			{
				"x": 1.1024635126,
				"y": -1.9511311963,
				"z": 1.4466069414,
				"element": "H" 
			},
			{
				"x": -1.5050247035,
				"y": 1.2714644857,
				"z": 0.3099369812,
				"element": "H" 
			},
			{
				"x": 0.4707055478,
				"y": 2.5946090438,
				"z": -0.4174233102,
				"element": "H" 
			},
			{
				"x": -2.4183377932,
				"y": -0.5569796859,
				"z": 1.3622920325,
				"element": "H" 
			},
			{
				"x": -2.3754541481,
				"y": -1.684857227,
				"z": 3.3161628942,
				"element": "H" 
			},
			{
				"x": -0.6426002206,
				"y": -1.4357936735,
				"z": 3.3192694982,
				"element": "H" 
			},
			{
				"x": -0.3292224171,
				"y": -3.6630326311,
				"z": 2.1926809236,
				"element": "H" 
			},
			{
				"x": -1.1610311286,
				"y": -3.8221241904,
				"z": 3.7236015525,
				"element": "H" 
			},
			{
				"x": -2.1190610076,
				"y": -5.1186196949,
				"z": 1.6563012177,
				"element": "H" 
			},
			{
				"x": -3.2608983525,
				"y": -4.2930438439,
				"z": 2.6986214495,
				"element": "H" 
			},
			{
				"x": -3.8554314916,
				"y": -2.7299040817,
				"z": 1.0779362444,
				"element": "H" 
			},
			{
				"x": -3.2920373872,
				"y": -3.9715288842,
				"z": -0.0221913888,
				"element": "H" 
			},
			{
				"x": -0.997949959,
				"y": -2.8688349902,
				"z": -0.0152680231,
				"element": "H" 
			},
			{
				"x": -2.2524143615,
				"y": -1.8212001218,
				"z": -0.6495636322,
				"element": "H" 
			}
		],
		 "valence_orbital": [ 
			{
				"type": "occ",
				"energy": -0.3051,
				"method": "rhf"
			},
			{
				"type": "occ",
				"energy": -0.30252,
				"method": "rhf"
			},
			{
				"type": "occ",
				"energy": -0.26126,
				"method": "rhf"
			},
			{
				"type": "occ",
				"energy": -0.25732,
				"method": "rhf"
			},
			{
				"type": "occ",
				"energy": -0.25119,
				"method": "rhf"
			},
			{
				"type": "unocc",
				"energy": -0.06797,
				"method": "rhf"
			},
			{
				"type": "unocc",
				"energy": -0.01163,
				"method": "rhf"
			},
			{
				"type": "unocc",
				"energy": 0.00477,
				"method": "rhf"
			},
			{
				"type": "unocc",
				"energy": 0.05414,
				"method": "rhf"
			},
			{
				"type": "unocc",
				"energy": 0.06959,
				"method": "rhf"
			}
		],
		"cosmo_sigma_profile": { 
			"-0.025": 0.0,
			"-0.024": 0.0,
			"-0.023": 0.0,
			"-0.022": 0.0,
			"-0.021": 0.0,
			"-0.02": 0.0,
			"-0.019": 0.0,
			"-0.018": 0.0,
			"-0.017": 0.0,
			"-0.016": 0.0,
			"-0.015": 0.0,
			"-0.014": 0.0,
			"-0.013": 0.0,
			"-0.012": 0.0,
			"-0.011": 0.0,
			"-0.01": 0.00203127368135,
			"-0.009": 2.28766728743,
			"-0.008": 4.53141611634,
			"-0.007": 5.29472914412,
			"-0.006": 6.76182213481,
			"-0.005": 13.4194322495,
			"-0.004": 12.5040768504,
			"-0.003": 16.4880073675,
			"-0.002": 33.5711414244,
			"-0.001": 37.3019845625,
			"0.0": 37.8405856853,
			"0.001": 31.5962463887,
			"0.002": 17.7314238928,
			"0.003": 16.0804358719,
			"0.004": 19.0760226649,
			"0.005": 10.3512868632,
			"0.006": 4.84581333187,
			"0.007": 1.48671893596,
			"0.008": 1.52935882865,
			"0.009": 2.54997336105,
			"0.01": 2.11955507817,
			"0.011": 4.09436735544,
			"0.012": 1.68873006631,
			"0.013": 0.046839709039,
			"0.014": 0.0,
			"0.015": 0.0,
			"0.016": 0.0,
			"0.017": 0.0,
			"0.018": 0.0,
			"0.019": 0.0,
			"0.02": 0.0,
			"0.021": 0.0,
			"0.022": 0.0,
			"0.023": 0.0,
			"0.024": 0.0,
			"0.025": 0.0
		}
	}
}
