{
	 "smiles": "CC1=NC(OC2=CC=CC(N)=C2)=CN=C1", 
	 "Tm": 333.35, 
	 "num_atms": 26, 
	 "gaussian": { 
		 "optdone": 1, 
		 "sigma_profile": "yes", 
		 "theory": "DFT", 
		 "functional": "B3LYP", 
		 "basiset": "6-31G**", 
		 "properties": { 
			 "R2extent": 3867.4537, 
			 "electric_dipole_moment_norm": 3.27287270452, 
			 "electric_quadrupole_moment_norm": 10.5374759653, 
			 "total_energy": -665.270861753, 
			 "HOMO_LUMO_gap": 0.16222, 
			 "cosmo_polarized_energy": -13.18, 
			 "cosmo_cavitation_energy": 30.89, 
			 "cosmo_dispersion_energy": -22.25, 
			 "cosmo_repulsion_energy": 1.77, 
			 "cosmo_total_nonelectrostatic_energy": 10.4, 
			 "SMD_solvation_energy": 3.24 
		},
		"coords": [
			{
				"x": -2.841724007,
				"y": -2.2078378648,
				"z": -0.6065514403,
				"element": "C" 
			},
			{
				"x": -2.332197519,
				"y": -0.8422706874,
				"z": -0.9800847023,
				"element": "C" 
			},
			{
				"x": -1.2284051098,
				"y": -0.4043330072,
				"z": -0.3417331857,
				"element": "N" 
			},
			{
				"x": -0.782575505,
				"y": 0.7949793437,
				"z": -0.6717472233,
				"element": "C" 
			},
			{
				"x": 0.3108119543,
				"y": 1.3275470975,
				"z": -0.0647186558,
				"element": "O" 
			},
			{
				"x": 1.0990538516,
				"y": 0.5518648677,
				"z": 0.789391974,
				"element": "C" 
			},
			{
				"x": 1.8342363549,
				"y": -0.5282299133,
				"z": 0.3039730837,
				"element": "C" 
			},
			{
				"x": 2.674933457,
				"y": -1.1963866684,
				"z": 1.1939148039,
				"element": "C" 
			},
			{
				"x": 2.7847912965,
				"y": -0.798096367,
				"z": 2.5245953766,
				"element": "C" 
			},
			{
				"x": 2.0431999373,
				"y": 0.297172603,
				"z": 2.9998974753,
				"element": "C" 
			},
			{
				"x": 2.1897440438,
				"y": 0.7450372254,
				"z": 4.3133794541,
				"element": "N" 
			},
			{
				"x": 1.1900293819,
				"y": 0.9720812414,
				"z": 2.11017933,
				"element": "C" 
			},
			{
				"x": -1.4145845237,
				"y": 1.5997890328,
				"z": -1.641228523,
				"element": "C" 
			},
			{
				"x": -2.5021022771,
				"y": 1.1734422702,
				"z": -2.2690701031,
				"element": "N" 
			},
			{
				"x": -2.9597932498,
				"y": -0.0460969822,
				"z": -1.9394432909,
				"element": "C" 
			},
			{
				"x": -2.073713884,
				"y": -2.9658184165,
				"z": -0.7923936745,
				"element": "H" 
			},
			{
				"x": -3.7377981077,
				"y": -2.470431747,
				"z": -1.1742885468,
				"element": "H" 
			},
			{
				"x": -3.0788103424,
				"y": -2.2473942003,
				"z": 0.4616671371,
				"element": "H" 
			},
			{
				"x": 1.7465824519,
				"y": -0.831704326,
				"z": -0.7323299671,
				"element": "H" 
			},
			{
				"x": 3.2577117087,
				"y": -2.0435928205,
				"z": 0.8437299557,
				"element": "H" 
			},
			{
				"x": 3.4515874127,
				"y": -1.3276950422,
				"z": 3.1999867905,
				"element": "H" 
			},
			{
				"x": 1.4081053452,
				"y": 1.2703500978,
				"z": 4.6799164838,
				"element": "H" 
			},
			{
				"x": 2.5180764648,
				"y": 0.050010975,
				"z": 4.9694109515,
				"element": "H" 
			},
			{
				"x": 0.6061063373,
				"y": 1.8275669436,
				"z": 2.4354959581,
				"element": "H" 
			},
			{
				"x": -1.0182245596,
				"y": 2.5817735885,
				"z": -1.8860411389,
				"element": "H" 
			},
			{
				"x": -3.8501409131,
				"y": -0.394227244,
				"z": -2.4572083226,
				"element": "H" 
			}
		],
		 "valence_orbital": [ 
			{
				"type": "occ",
				"energy": -0.29851,
				"method": "rhf"
			},
			{
				"type": "occ",
				"energy": -0.24855,
				"method": "rhf"
			},
			{
				"type": "occ",
				"energy": -0.24732,
				"method": "rhf"
			},
			{
				"type": "occ",
				"energy": -0.23325,
				"method": "rhf"
			},
			{
				"type": "occ",
				"energy": -0.20305,
				"method": "rhf"
			},
			{
				"type": "unocc",
				"energy": -0.04083,
				"method": "rhf"
			},
			{
				"type": "unocc",
				"energy": -0.00715,
				"method": "rhf"
			},
			{
				"type": "unocc",
				"energy": 0.00811,
				"method": "rhf"
			},
			{
				"type": "unocc",
				"energy": 0.01749,
				"method": "rhf"
			},
			{
				"type": "unocc",
				"energy": 0.07931,
				"method": "rhf"
			}
		],
		"cosmo_sigma_profile": { 
			"-0.025": 0.0,
			"-0.024": 0.0,
			"-0.023": 0.0,
			"-0.022": 0.0,
			"-0.021": 0.0,
			"-0.02": 0.0,
			"-0.019": 0.0,
			"-0.018": 0.0,
			"-0.017": 0.0,
			"-0.016": 0.0,
			"-0.015": 0.0,
			"-0.014": 0.0,
			"-0.013": 0.628639474655,
			"-0.012": 2.74180580363,
			"-0.011": 2.70938244194,
			"-0.01": 2.84912968784,
			"-0.009": 2.80623545959,
			"-0.008": 4.0061111441,
			"-0.007": 6.76692685228,
			"-0.006": 11.6714968416,
			"-0.005": 15.2930511839,
			"-0.004": 17.2795387933,
			"-0.003": 16.343635542,
			"-0.002": 17.889339705,
			"-0.001": 24.9667625092,
			"0.0": 19.4967763833,
			"0.001": 13.251762378,
			"0.002": 11.180829658,
			"0.003": 11.1152378572,
			"0.004": 13.4960131011,
			"0.005": 12.463957962,
			"0.006": 12.0627947882,
			"0.007": 5.61669251038,
			"0.008": 5.5336043432,
			"0.009": 3.21724813436,
			"0.01": 2.97377459595,
			"0.011": 2.29774714053,
			"0.012": 2.46748607072,
			"0.013": 3.05135790521,
			"0.014": 1.49031728863,
			"0.015": 0.713251039778,
			"0.016": 0.134293049299,
			"0.017": 0.0,
			"0.018": 0.0,
			"0.019": 0.0,
			"0.02": 0.0,
			"0.021": 0.0,
			"0.022": 0.0,
			"0.023": 0.0,
			"0.024": 0.0,
			"0.025": 0.0
		}
	}
}
