{
	 "smiles": "CS(=O)(=O)CC#N", 
	 "Tm": 357.15, 
	 "num_atms": 12, 
	 "gaussian": { 
		 "optdone": 1, 
		 "sigma_profile": "yes", 
		 "theory": "DFT", 
		 "functional": "B3LYP", 
		 "basiset": "6-31G**", 
		 "properties": { 
			 "R2extent": 1545.3923, 
			 "electric_dipole_moment_norm": 3.24779435771, 
			 "electric_quadrupole_moment_norm": 16.1435191455, 
			 "total_energy": -720.627558563, 
			 "HOMO_LUMO_gap": 0.28446, 
			 "cosmo_polarized_energy": -18.17, 
			 "cosmo_cavitation_energy": 18.4, 
			 "cosmo_dispersion_energy": -13.42, 
			 "cosmo_repulsion_energy": 1.09, 
			 "cosmo_total_nonelectrostatic_energy": 6.07, 
			 "SMD_solvation_energy": 4.41 
		},
		"coords": [
			{
				"x": 0.4797943711,
				"y": -0.0143053858,
				"z": -1.3673420495,
				"element": "C" 
			},
			{
				"x": -0.2423302622,
				"y": -1.1454932914,
				"z": -0.1614472825,
				"element": "S" 
			},
			{
				"x": 0.7555681035,
				"y": -2.1610160737,
				"z": 0.182565665,
				"element": "O" 
			},
			{
				"x": -0.9318692188,
				"y": -0.3665064972,
				"z": 0.8728039036,
				"element": "O" 
			},
			{
				"x": -1.5943065726,
				"y": -1.9855737412,
				"z": -1.1129426101,
				"element": "C" 
			},
			{
				"x": -1.1265511977,
				"y": -2.640958075,
				"z": -2.3216500886,
				"element": "C" 
			},
			{
				"x": -0.7248555807,
				"y": -3.125963047,
				"z": -3.296798236,
				"element": "N" 
			},
			{
				"x": 0.8696132023,
				"y": -0.5868247253,
				"z": -2.2099151054,
				"element": "H" 
			},
			{
				"x": 1.2922539608,
				"y": 0.4943466175,
				"z": -0.8448678399,
				"element": "H" 
			},
			{
				"x": -0.2753333415,
				"y": 0.7068439962,
				"z": -1.683600715,
				"element": "H" 
			},
			{
				"x": -2.0054767114,
				"y": -2.7075066717,
				"z": -0.4007370141,
				"element": "H" 
			},
			{
				"x": -2.3561067528,
				"y": -1.2333431056,
				"z": -1.3345686276,
				"element": "H" 
			}
		],
		 "valence_orbital": [ 
			{
				"type": "occ",
				"energy": -0.35532,
				"method": "rhf"
			},
			{
				"type": "occ",
				"energy": -0.34578,
				"method": "rhf"
			},
			{
				"type": "occ",
				"energy": -0.33676,
				"method": "rhf"
			},
			{
				"type": "occ",
				"energy": -0.31977,
				"method": "rhf"
			},
			{
				"type": "occ",
				"energy": -0.30964,
				"method": "rhf"
			},
			{
				"type": "unocc",
				"energy": -0.02518,
				"method": "rhf"
			},
			{
				"type": "unocc",
				"energy": 0.00596,
				"method": "rhf"
			},
			{
				"type": "unocc",
				"energy": 0.04532,
				"method": "rhf"
			},
			{
				"type": "unocc",
				"energy": 0.04894,
				"method": "rhf"
			},
			{
				"type": "unocc",
				"energy": 0.0681,
				"method": "rhf"
			}
		],
		"cosmo_sigma_profile": { 
			"-0.025": 0.0,
			"-0.024": 0.0,
			"-0.023": 0.0,
			"-0.022": 0.0,
			"-0.021": 0.0,
			"-0.02": 0.0,
			"-0.019": 0.0,
			"-0.018": 0.0,
			"-0.017": 0.0,
			"-0.016": 0.0,
			"-0.015": 0.0176951383634,
			"-0.014": 0.502025699533,
			"-0.013": 2.36176277253,
			"-0.012": 5.08812380009,
			"-0.011": 4.14002457518,
			"-0.01": 6.28071829127,
			"-0.009": 7.88412831064,
			"-0.008": 8.0619382962,
			"-0.007": 8.06293925258,
			"-0.006": 7.74344441748,
			"-0.005": 7.43745782519,
			"-0.004": 5.75873153501,
			"-0.003": 4.40389581043,
			"-0.002": 2.93981137928,
			"-0.001": 3.30525828567,
			"0.0": 3.21323679622,
			"0.001": 3.10881960089,
			"0.002": 3.85719083695,
			"0.003": 4.0065456323,
			"0.004": 5.09638688152,
			"0.005": 4.31621481764,
			"0.006": 4.09085857808,
			"0.007": 6.31924798662,
			"0.008": 5.65382617238,
			"0.009": 6.50840680546,
			"0.01": 13.519758091,
			"0.011": 11.7026208937,
			"0.012": 1.98232676281,
			"0.013": 0.00343596999978,
			"0.014": 0.0,
			"0.015": 0.0,
			"0.016": 0.0,
			"0.017": 0.0,
			"0.018": 0.0,
			"0.019": 0.0,
			"0.02": 0.0,
			"0.021": 0.0,
			"0.022": 0.0,
			"0.023": 0.0,
			"0.024": 0.0,
			"0.025": 0.0
		}
	}
}
