{
	 "smiles": "CC(=O)OC1=CC=C(C=C1)C1=CC=CC=C1", 
	 "Tm": 361.65, 
	 "num_atms": 28, 
	 "gaussian": { 
		 "optdone": 1, 
		 "sigma_profile": "yes", 
		 "theory": "DFT", 
		 "functional": "B3LYP", 
		 "basiset": "6-31G**", 
		 "properties": { 
			 "R2extent": 5699.8803, 
			 "electric_dipole_moment_norm": 1.64757976742, 
			 "electric_quadrupole_moment_norm": 17.5217128666, 
			 "total_energy": -691.187522543, 
			 "HOMO_LUMO_gap": 0.19038, 
			 "cosmo_polarized_energy": -9.05, 
			 "cosmo_cavitation_energy": 32.64, 
			 "cosmo_dispersion_energy": -23.75, 
			 "cosmo_repulsion_energy": 1.85, 
			 "cosmo_total_nonelectrostatic_energy": 10.73, 
			 "SMD_solvation_energy": 6.69 
		},
		"coords": [
			{
				"x": 2.1997444638,
				"y": -2.7317319788,
				"z": 4.5621852835,
				"element": "C" 
			},
			{
				"x": 2.1004418061,
				"y": -2.5265682377,
				"z": 3.0704050865,
				"element": "C" 
			},
			{
				"x": 2.8043896233,
				"y": -3.0419771412,
				"z": 2.2373576403,
				"element": "O" 
			},
			{
				"x": 1.0796801357,
				"y": -1.6539090509,
				"z": 2.7983222517,
				"element": "O" 
			},
			{
				"x": 0.7665069145,
				"y": -1.2662222251,
				"z": 1.4948827671,
				"element": "C" 
			},
			{
				"x": 0.3784714535,
				"y": 0.0642866,
				"z": 1.3418332699,
				"element": "C" 
			},
			{
				"x": -0.0210153341,
				"y": 0.5276994098,
				"z": 0.0918221445,
				"element": "C" 
			},
			{
				"x": -0.0412540413,
				"y": -0.3239146507,
				"z": -1.0257207659,
				"element": "C" 
			},
			{
				"x": 0.3504726947,
				"y": -1.6598429452,
				"z": -0.8376158986,
				"element": "C" 
			},
			{
				"x": 0.7518907788,
				"y": -2.1404779014,
				"z": 0.4074619616,
				"element": "C" 
			},
			{
				"x": -0.4642782193,
				"y": 0.1708701375,
				"z": -2.3602978465,
				"element": "C" 
			},
			{
				"x": -1.5194119497,
				"y": 1.0904184301,
				"z": -2.4891414223,
				"element": "C" 
			},
			{
				"x": -1.9156428567,
				"y": 1.5561103075,
				"z": -3.7420985911,
				"element": "C" 
			},
			{
				"x": -1.2672883344,
				"y": 1.1106421676,
				"z": -4.8955637694,
				"element": "C" 
			},
			{
				"x": -0.2181655607,
				"y": 0.1962298145,
				"z": -4.7836971175,
				"element": "C" 
			},
			{
				"x": 0.1795940224,
				"y": -0.2671584685,
				"z": -3.5303696035,
				"element": "C" 
			},
			{
				"x": 2.3910780244,
				"y": -1.7768505196,
				"z": 5.0605263258,
				"element": "H" 
			},
			{
				"x": 3.0057624625,
				"y": -3.4324159342,
				"z": 4.7768441565,
				"element": "H" 
			},
			{
				"x": 1.2530444258,
				"y": -3.1180148082,
				"z": 4.9512285715,
				"element": "H" 
			},
			{
				"x": 0.4004999589,
				"y": 0.7225221401,
				"z": 2.2041638813,
				"element": "H" 
			},
			{
				"x": -0.2958930619,
				"y": 1.5716118534,
				"z": -0.0235912486,
				"element": "H" 
			},
			{
				"x": 0.3174215232,
				"y": -2.3477851055,
				"z": -1.6769439938,
				"element": "H" 
			},
			{
				"x": 1.0494570645,
				"y": -3.1730754362,
				"z": 0.528322234,
				"element": "H" 
			},
			{
				"x": -2.0493474183,
				"y": 1.4220528114,
				"z": -1.6009525491,
				"element": "H" 
			},
			{
				"x": -2.7389593947,
				"y": 2.2609564811,
				"z": -3.817815881,
				"element": "H" 
			},
			{
				"x": -1.576473062,
				"y": 1.4725111449,
				"z": -5.8718507161,
				"element": "H" 
			},
			{
				"x": 0.2993122419,
				"y": -0.1505830568,
				"z": -5.6737965416,
				"element": "H" 
			},
			{
				"x": 1.0153616391,
				"y": -0.956383838,
				"z": -3.452899629,
				"element": "H" 
			}
		],
		 "valence_orbital": [ 
			{
				"type": "occ",
				"energy": -0.27878,
				"method": "rhf"
			},
			{
				"type": "occ",
				"energy": -0.26688,
				"method": "rhf"
			},
			{
				"type": "occ",
				"energy": -0.25421,
				"method": "rhf"
			},
			{
				"type": "occ",
				"energy": -0.25007,
				"method": "rhf"
			},
			{
				"type": "occ",
				"energy": -0.21991,
				"method": "rhf"
			},
			{
				"type": "unocc",
				"energy": -0.02953,
				"method": "rhf"
			},
			{
				"type": "unocc",
				"energy": -0.00683,
				"method": "rhf"
			},
			{
				"type": "unocc",
				"energy": -0.00084,
				"method": "rhf"
			},
			{
				"type": "unocc",
				"energy": 0.00331,
				"method": "rhf"
			},
			{
				"type": "unocc",
				"energy": 0.03586,
				"method": "rhf"
			}
		],
		"cosmo_sigma_profile": { 
			"-0.025": 0.0,
			"-0.024": 0.0,
			"-0.023": 0.0,
			"-0.022": 0.0,
			"-0.021": 0.0,
			"-0.02": 0.0,
			"-0.019": 0.0,
			"-0.018": 0.0,
			"-0.017": 0.0,
			"-0.016": 0.0,
			"-0.015": 0.0,
			"-0.014": 0.0,
			"-0.013": 0.0,
			"-0.012": 0.0,
			"-0.011": 0.0,
			"-0.01": 0.0,
			"-0.009": 0.0,
			"-0.008": 0.0,
			"-0.007": 3.15430924834,
			"-0.006": 15.3607189088,
			"-0.005": 26.7151422979,
			"-0.004": 25.8083577957,
			"-0.003": 23.4034691132,
			"-0.002": 22.154473559,
			"-0.001": 16.3503580378,
			"0.0": 13.0459500315,
			"0.001": 15.0356896185,
			"0.002": 18.3227635967,
			"0.003": 20.2652288826,
			"0.004": 21.4481464704,
			"0.005": 16.0553499558,
			"0.006": 9.40948481605,
			"0.007": 2.33806389298,
			"0.008": 1.75845157353,
			"0.009": 1.86168196959,
			"0.01": 2.91091470783,
			"0.011": 4.06929468229,
			"0.012": 1.8695405482,
			"0.013": 0.134585881269,
			"0.014": 0.0,
			"0.015": 0.0,
			"0.016": 0.0,
			"0.017": 0.0,
			"0.018": 0.0,
			"0.019": 0.0,
			"0.02": 0.0,
			"0.021": 0.0,
			"0.022": 0.0,
			"0.023": 0.0,
			"0.024": 0.0,
			"0.025": 0.0
		}
	}
}
