{
	 "smiles": "CCOC(=O)C1=NC(=NO1)C1=CC=C(S1)S(Cl)(=O)=O", 
	 "Tm": 387.15, 
	 "num_atms": 26, 
	 "gaussian": { 
		 "optdone": 1, 
		 "sigma_profile": "yes", 
		 "theory": "DFT", 
		 "functional": "B3LYP", 
		 "basiset": "6-31G**", 
		 "properties": { 
			 "R2extent": 13083.0642, 
			 "electric_dipole_moment_norm": 7.12911414483, 
			 "electric_quadrupole_moment_norm": 22.6046312432, 
			 "total_energy": -2089.23431077, 
			 "HOMO_LUMO_gap": 0.16387, 
			 "cosmo_polarized_energy": -15.02, 
			 "cosmo_cavitation_energy": 38.6, 
			 "cosmo_dispersion_energy": -28.74, 
			 "cosmo_repulsion_energy": 2.16, 
			 "cosmo_total_nonelectrostatic_energy": 12.03, 
			 "SMD_solvation_energy": 4.62 
		},
		"coords": [
			{
				"x": -1.2817793894,
				"y": 4.5596682794,
				"z": 3.6920573767,
				"element": "C" 
			},
			{
				"x": -1.9087820516,
				"y": 4.0786846443,
				"z": 2.3994377412,
				"element": "C" 
			},
			{
				"x": -1.1855217984,
				"y": 2.8867884459,
				"z": 1.9827239134,
				"element": "O" 
			},
			{
				"x": -1.6069647191,
				"y": 2.321319691,
				"z": 0.848636664,
				"element": "C" 
			},
			{
				"x": -2.5155158098,
				"y": 2.6985001345,
				"z": 0.1482550453,
				"element": "O" 
			},
			{
				"x": -0.7895983784,
				"y": 1.1074861775,
				"z": 0.5229504897,
				"element": "C" 
			},
			{
				"x": -0.938483476,
				"y": 0.329357231,
				"z": -0.5068526429,
				"element": "N" 
			},
			{
				"x": 0.0552293411,
				"y": -0.6019057103,
				"z": -0.3094180838,
				"element": "C" 
			},
			{
				"x": 0.7759963397,
				"y": -0.4103778024,
				"z": 0.7794688215,
				"element": "N" 
			},
			{
				"x": 0.2132170904,
				"y": 0.7331917744,
				"z": 1.3380157949,
				"element": "O" 
			},
			{
				"x": 0.2923916716,
				"y": -1.7041591327,
				"z": -1.2269333727,
				"element": "C" 
			},
			{
				"x": 1.2530255346,
				"y": -2.6910046513,
				"z": -1.1322913079,
				"element": "C" 
			},
			{
				"x": 1.1872303266,
				"y": -3.6171627282,
				"z": -2.1989413415,
				"element": "C" 
			},
			{
				"x": 0.1697237472,
				"y": -3.3096822855,
				"z": -3.0730624105,
				"element": "C" 
			},
			{
				"x": -0.7241697793,
				"y": -1.8909559324,
				"z": -2.6249208441,
				"element": "S" 
			},
			{
				"x": -0.2185709037,
				"y": -4.2279709081,
				"z": -4.5221858887,
				"element": "S" 
			},
			{
				"x": 0.9565597657,
				"y": -3.2439798778,
				"z": -5.9990960818,
				"element": "Cl" 
			},
			{
				"x": -1.6076367658,
				"y": -3.9784239154,
				"z": -4.8805801568,
				"element": "O" 
			},
			{
				"x": 0.3425817408,
				"y": -5.5646107511,
				"z": -4.3876185338,
				"element": "O" 
			},
			{
				"x": -0.226327762,
				"y": 4.8059807835,
				"z": 3.547931776,
				"element": "H" 
			},
			{
				"x": -1.3567815796,
				"y": 3.7968697663,
				"z": 4.4717574862,
				"element": "H" 
			},
			{
				"x": -1.8016798424,
				"y": 5.4583149077,
				"z": 4.0374884342,
				"element": "H" 
			},
			{
				"x": -2.9638813282,
				"y": 3.8152668964,
				"z": 2.5187489303,
				"element": "H" 
			},
			{
				"x": -1.837692087,
				"y": 4.8204350732,
				"z": 1.5984341992,
				"element": "H" 
			},
			{
				"x": 1.9669084306,
				"y": -2.7386388218,
				"z": -0.3192274197,
				"element": "H" 
			},
			{
				"x": 1.8417216822,
				"y": -4.4703912882,
				"z": -2.3259785883,
				"element": "H" 
			}
		],
		 "valence_orbital": [ 
			{
				"type": "occ",
				"energy": -0.32982,
				"method": "rhf"
			},
			{
				"type": "occ",
				"energy": -0.31837,
				"method": "rhf"
			},
			{
				"type": "occ",
				"energy": -0.31007,
				"method": "rhf"
			},
			{
				"type": "occ",
				"energy": -0.29685,
				"method": "rhf"
			},
			{
				"type": "occ",
				"energy": -0.27286,
				"method": "rhf"
			},
			{
				"type": "unocc",
				"energy": -0.10899,
				"method": "rhf"
			},
			{
				"type": "unocc",
				"energy": -0.09217,
				"method": "rhf"
			},
			{
				"type": "unocc",
				"energy": -0.06921,
				"method": "rhf"
			},
			{
				"type": "unocc",
				"energy": -0.01234,
				"method": "rhf"
			},
			{
				"type": "unocc",
				"energy": -0.00861,
				"method": "rhf"
			}
		],
		"cosmo_sigma_profile": { 
			"-0.025": 0.0,
			"-0.024": 0.0,
			"-0.023": 0.0,
			"-0.022": 0.0,
			"-0.021": 0.0,
			"-0.02": 0.0,
			"-0.019": 0.0,
			"-0.018": 0.0,
			"-0.017": 0.0,
			"-0.016": 0.0,
			"-0.015": 0.0,
			"-0.014": 0.0,
			"-0.013": 0.0,
			"-0.012": 0.0,
			"-0.011": 0.129830921542,
			"-0.01": 1.68302217292,
			"-0.009": 4.32298620152,
			"-0.008": 6.5866686462,
			"-0.007": 8.82418635651,
			"-0.006": 14.5273900071,
			"-0.005": 20.3225872213,
			"-0.004": 22.3170155117,
			"-0.003": 24.379183472,
			"-0.002": 29.6803066447,
			"-0.001": 33.7908143229,
			"0.0": 24.4628052666,
			"0.001": 14.2859793583,
			"0.002": 16.0373161658,
			"0.003": 20.6192320613,
			"0.004": 12.9742654782,
			"0.005": 9.02896163075,
			"0.006": 8.74695547232,
			"0.007": 14.2565485809,
			"0.008": 12.6668096054,
			"0.009": 5.99786471244,
			"0.01": 7.17980529915,
			"0.011": 2.60481221288,
			"0.012": 0.0558829986271,
			"0.013": 0.0,
			"0.014": 0.0,
			"0.015": 0.0,
			"0.016": 0.0,
			"0.017": 0.0,
			"0.018": 0.0,
			"0.019": 0.0,
			"0.02": 0.0,
			"0.021": 0.0,
			"0.022": 0.0,
			"0.023": 0.0,
			"0.024": 0.0,
			"0.025": 0.0
		}
	}
}
