{
	 "smiles": "CCOP(=S)(OCC)SC1OCCOC1SP(=S)(OCC)OCC", 
	 "Tm": 271.15, 
	 "num_atms": 50, 
	 "gaussian": { 
		 "optdone": 1, 
		 "sigma_profile": "yes", 
		 "theory": "DFT", 
		 "functional": "B3LYP", 
		 "basiset": "6-31G**", 
		 "properties": { 
			 "R2extent": 16168.0328, 
			 "electric_dipole_moment_norm": 3.45910268856, 
			 "electric_quadrupole_moment_norm": 40.9120215101, 
			 "total_energy": -3199.84182477, 
			 "HOMO_LUMO_gap": 0.21143, 
			 "cosmo_polarized_energy": -20.02, 
			 "cosmo_cavitation_energy": 60.11, 
			 "cosmo_dispersion_energy": -39.14, 
			 "cosmo_repulsion_energy": 2.95, 
			 "cosmo_total_nonelectrostatic_energy": 23.92, 
			 "SMD_solvation_energy": 8.94 
		},
		"coords": [
			{
				"x": 3.9559927119,
				"y": 4.6247028578,
				"z": 3.9821344962,
				"element": "C" 
			},
			{
				"x": 4.3045006593,
				"y": 4.2313549855,
				"z": 2.560054674,
				"element": "C" 
			},
			{
				"x": 3.0960054028,
				"y": 4.3665660963,
				"z": 1.7684685111,
				"element": "O" 
			},
			{
				"x": 3.0636653137,
				"y": 3.8794231773,
				"z": 0.2304649666,
				"element": "P" 
			},
			{
				"x": 4.4343435776,
				"y": 4.5164560065,
				"z": -0.9859649629,
				"element": "S" 
			},
			{
				"x": 1.5323909224,
				"y": 4.3334235232,
				"z": -0.0297404913,
				"element": "O" 
			},
			{
				"x": 0.9614394497,
				"y": 4.2676425935,
				"z": -1.3624955033,
				"element": "C" 
			},
			{
				"x": -0.4491326596,
				"y": 4.8185686139,
				"z": -1.2793961649,
				"element": "C" 
			},
			{
				"x": 3.0260118318,
				"y": 1.7561880133,
				"z": 0.2955427636,
				"element": "S" 
			},
			{
				"x": 1.7786827489,
				"y": 1.4929467982,
				"z": 1.690028848,
				"element": "C" 
			},
			{
				"x": 2.3954605074,
				"y": 1.4662385023,
				"z": 2.9543681379,
				"element": "O" 
			},
			{
				"x": 2.6947734175,
				"y": 0.1636558069,
				"z": 3.4764722803,
				"element": "C" 
			},
			{
				"x": 2.9430066468,
				"y": -0.8479919847,
				"z": 2.3712506243,
				"element": "C" 
			},
			{
				"x": 1.8102706737,
				"y": -0.9519018525,
				"z": 1.4911361901,
				"element": "O" 
			},
			{
				"x": 0.9843040782,
				"y": 0.200159304,
				"z": 1.4561699579,
				"element": "C" 
			},
			{
				"x": 0.0826935278,
				"y": 0.2591935034,
				"z": -0.1401777489,
				"element": "S" 
			},
			{
				"x": -1.634894751,
				"y": -0.9574330211,
				"z": 0.3015557301,
				"element": "P" 
			},
			{
				"x": -2.2570930105,
				"y": -0.9309928731,
				"z": 2.1392285754,
				"element": "S" 
			},
			{
				"x": -1.3126233475,
				"y": -2.4086069061,
				"z": -0.343883216,
				"element": "O" 
			},
			{
				"x": -0.4261119437,
				"y": -3.3464139965,
				"z": 0.3254645651,
				"element": "C" 
			},
			{
				"x": -0.2840051859,
				"y": -4.5601090443,
				"z": -0.5725742049,
				"element": "C" 
			},
			{
				"x": -2.6967255074,
				"y": -0.3955367966,
				"z": -0.7673116907,
				"element": "O" 
			},
			{
				"x": -2.6056628235,
				"y": -0.6455222853,
				"z": -2.1993416805,
				"element": "C" 
			},
			{
				"x": -3.7935247087,
				"y": 0.0352517602,
				"z": -2.8504372752,
				"element": "C" 
			},
			{
				"x": 3.5828847246,
				"y": 5.6517903341,
				"z": 4.0213337117,
				"element": "H" 
			},
			{
				"x": 3.1898078718,
				"y": 3.9553235681,
				"z": 4.3814943444,
				"element": "H" 
			},
			{
				"x": 4.8480159291,
				"y": 4.555774441,
				"z": 4.6132318206,
				"element": "H" 
			},
			{
				"x": 4.6466719103,
				"y": 3.192425338,
				"z": 2.5120095789,
				"element": "H" 
			},
			{
				"x": 5.0752402705,
				"y": 4.8786597803,
				"z": 2.1299453908,
				"element": "H" 
			},
			{
				"x": 0.9628955213,
				"y": 3.2240378814,
				"z": -1.6970287274,
				"element": "H" 
			},
			{
				"x": 1.5879325991,
				"y": 4.8544854706,
				"z": -2.0412124805,
				"element": "H" 
			},
			{
				"x": -0.9107172326,
				"y": 4.7957971684,
				"z": -2.2718179763,
				"element": "H" 
			},
			{
				"x": -1.0619020223,
				"y": 4.2209062764,
				"z": -0.5990177045,
				"element": "H" 
			},
			{
				"x": -0.4405066208,
				"y": 5.8528613115,
				"z": -0.9250335267,
				"element": "H" 
			},
			{
				"x": 1.1101922732,
				"y": 2.3546209359,
				"z": 1.6675969101,
				"element": "H" 
			},
			{
				"x": 1.8652411953,
				"y": -0.1703164574,
				"z": 4.1146817248,
				"element": "H" 
			},
			{
				"x": 3.5857554936,
				"y": 0.2714474504,
				"z": 4.1017691604,
				"element": "H" 
			},
			{
				"x": 3.1062229456,
				"y": -1.842716606,
				"z": 2.7978808666,
				"element": "H" 
			},
			{
				"x": 3.8308001582,
				"y": -0.5655498409,
				"z": 1.7921060841,
				"element": "H" 
			},
			{
				"x": 0.2136088443,
				"y": 0.1453772947,
				"z": 2.2371371339,
				"element": "H" 
			},
			{
				"x": 0.5377187539,
				"y": -2.8580984035,
				"z": 0.5030332165,
				"element": "H" 
			},
			{
				"x": -0.8709262038,
				"y": -3.6071443529,
				"z": 1.2910928397,
				"element": "H" 
			},
			{
				"x": 0.1596313322,
				"y": -4.2852407147,
				"z": -1.5335905664,
				"element": "H" 
			},
			{
				"x": -1.2568185941,
				"y": -5.0247857055,
				"z": -0.7565313832,
				"element": "H" 
			},
			{
				"x": 0.3655661122,
				"y": -5.2984770881,
				"z": -0.0917789325,
				"element": "H" 
			},
			{
				"x": -2.6116263119,
				"y": -1.7254314138,
				"z": -2.3647926308,
				"element": "H" 
			},
			{
				"x": -1.659592756,
				"y": -0.24008455,
				"z": -2.5758630204,
				"element": "H" 
			},
			{
				"x": -3.7744695983,
				"y": 1.1127001795,
				"z": -2.6662668045,
				"element": "H" 
			},
			{
				"x": -4.7312157118,
				"y": -0.3672102649,
				"z": -2.4581488216,
				"element": "H" 
			},
			{
				"x": -3.7670784155,
				"y": -0.1339148147,
				"z": -3.9317475898,
				"element": "H" 
			}
		],
		 "valence_orbital": [ 
			{
				"type": "occ",
				"energy": -0.26654,
				"method": "rhf"
			},
			{
				"type": "occ",
				"energy": -0.25039,
				"method": "rhf"
			},
			{
				"type": "occ",
				"energy": -0.24333,
				"method": "rhf"
			},
			{
				"type": "occ",
				"energy": -0.23886,
				"method": "rhf"
			},
			{
				"type": "occ",
				"energy": -0.23653,
				"method": "rhf"
			},
			{
				"type": "unocc",
				"energy": -0.0251,
				"method": "rhf"
			},
			{
				"type": "unocc",
				"energy": -0.00331,
				"method": "rhf"
			},
			{
				"type": "unocc",
				"energy": 0.0087,
				"method": "rhf"
			},
			{
				"type": "unocc",
				"energy": 0.01489,
				"method": "rhf"
			},
			{
				"type": "unocc",
				"energy": 0.03198,
				"method": "rhf"
			}
		],
		"cosmo_sigma_profile": { 
			"-0.025": 0.0,
			"-0.024": 0.0,
			"-0.023": 0.0,
			"-0.022": 0.0,
			"-0.021": 0.0,
			"-0.02": 0.0,
			"-0.019": 0.0,
			"-0.018": 0.0,
			"-0.017": 0.0,
			"-0.016": 0.0,
			"-0.015": 0.0,
			"-0.014": 0.0,
			"-0.013": 0.0,
			"-0.012": 0.0,
			"-0.011": 0.0,
			"-0.01": 0.0,
			"-0.009": 0.272686117454,
			"-0.008": 1.67416694802,
			"-0.007": 9.52703932767,
			"-0.006": 15.3605357148,
			"-0.005": 34.4468077285,
			"-0.004": 54.077148678,
			"-0.003": 46.6180291094,
			"-0.002": 40.9261540185,
			"-0.001": 44.6832745206,
			"0.0": 43.0270002347,
			"0.001": 25.2969400303,
			"0.002": 26.0283512269,
			"0.003": 24.9670917721,
			"0.004": 24.5574490258,
			"0.005": 21.1630361333,
			"0.006": 18.1068147916,
			"0.007": 17.6204214445,
			"0.008": 17.0293985418,
			"0.009": 10.2556964389,
			"0.01": 2.34565479912,
			"0.011": 0.0306517281582,
			"0.012": 0.0,
			"0.013": 0.0,
			"0.014": 0.0,
			"0.015": 0.0,
			"0.016": 0.0,
			"0.017": 0.0,
			"0.018": 0.0,
			"0.019": 0.0,
			"0.02": 0.0,
			"0.021": 0.0,
			"0.022": 0.0,
			"0.023": 0.0,
			"0.024": 0.0,
			"0.025": 0.0
		}
	}
}
