{
	 "smiles": "C1CNCCNC1", 
	 "Tm": 315.35, 
	 "num_atms": 19, 
	 "gaussian": { 
		 "optdone": 1, 
		 "sigma_profile": "yes", 
		 "theory": "DFT", 
		 "functional": "B3LYP", 
		 "basiset": "6-31G**", 
		 "properties": { 
			 "R2extent": 786.2229, 
			 "electric_dipole_moment_norm": 1.80552495136, 
			 "electric_quadrupole_moment_norm": 3.03623861052, 
			 "total_energy": -307.247785367, 
			 "HOMO_LUMO_gap": 0.27561, 
			 "cosmo_polarized_energy": -6.1, 
			 "cosmo_cavitation_energy": 19.3, 
			 "cosmo_dispersion_energy": -15.16, 
			 "cosmo_repulsion_energy": 1.28, 
			 "cosmo_total_nonelectrostatic_energy": 5.43, 
			 "SMD_solvation_energy": -1.46 
		},
		"coords": [
			{
				"x": 0.0004272695,
				"y": -1.2699085125,
				"z": 1.044337777,
				"element": "C" 
			},
			{
				"x": -1.4187950712,
				"y": -0.9065566398,
				"z": 0.5472034373,
				"element": "C" 
			},
			{
				"x": -1.6795424943,
				"y": 0.4798871549,
				"z": 0.1630997049,
				"element": "N" 
			},
			{
				"x": -1.2454367499,
				"y": 0.8511046058,
				"z": -1.1804628318,
				"element": "C" 
			},
			{
				"x": 0.2675266343,
				"y": 0.8914830572,
				"z": -1.4491353218,
				"element": "C" 
			},
			{
				"x": 0.9324980968,
				"y": -0.3695823141,
				"z": -1.1143229351,
				"element": "N" 
			},
			{
				"x": 1.152583663,
				"y": -0.5437798447,
				"z": 0.3253207528,
				"element": "C" 
			},
			{
				"x": 0.0885184437,
				"y": -1.0553645729,
				"z": 2.1183220782,
				"element": "H" 
			},
			{
				"x": 0.1218288215,
				"y": -2.3555174649,
				"z": 0.9377259444,
				"element": "H" 
			},
			{
				"x": -1.651992839,
				"y": -1.5182382439,
				"z": -0.3303564444,
				"element": "H" 
			},
			{
				"x": -2.1387665206,
				"y": -1.1952481876,
				"z": 1.3249708541,
				"element": "H" 
			},
			{
				"x": -1.3295404469,
				"y": 1.1334877688,
				"z": 0.8588215272,
				"element": "H" 
			},
			{
				"x": -1.6629493555,
				"y": 1.8391976529,
				"z": -1.416882656,
				"element": "H" 
			},
			{
				"x": -1.7033254117,
				"y": 0.136767507,
				"z": -1.8756441751,
				"element": "H" 
			},
			{
				"x": 0.4239624798,
				"y": 1.0951599919,
				"z": -2.5163963819,
				"element": "H" 
			},
			{
				"x": 0.7051996797,
				"y": 1.7447725084,
				"z": -0.8917540523,
				"element": "H" 
			},
			{
				"x": 1.8270387047,
				"y": -0.4027607059,
				"z": -1.5918686182,
				"element": "H" 
			},
			{
				"x": 1.3250088663,
				"y": 0.4334477683,
				"z": 0.814050055,
				"element": "H" 
			},
			{
				"x": 2.0718562299,
				"y": -1.1223515291,
				"z": 0.4712712856,
				"element": "H" 
			}
		],
		 "valence_orbital": [ 
			{
				"type": "occ",
				"energy": -0.33542,
				"method": "rhf"
			},
			{
				"type": "occ",
				"energy": -0.32699,
				"method": "rhf"
			},
			{
				"type": "occ",
				"energy": -0.316,
				"method": "rhf"
			},
			{
				"type": "occ",
				"energy": -0.22205,
				"method": "rhf"
			},
			{
				"type": "occ",
				"energy": -0.20224,
				"method": "rhf"
			},
			{
				"type": "unocc",
				"energy": 0.07337,
				"method": "rhf"
			},
			{
				"type": "unocc",
				"energy": 0.10868,
				"method": "rhf"
			},
			{
				"type": "unocc",
				"energy": 0.11831,
				"method": "rhf"
			},
			{
				"type": "unocc",
				"energy": 0.12548,
				"method": "rhf"
			},
			{
				"type": "unocc",
				"energy": 0.14455,
				"method": "rhf"
			}
		],
		"cosmo_sigma_profile": { 
			"-0.025": 0.0,
			"-0.024": 0.0,
			"-0.023": 0.0,
			"-0.022": 0.0,
			"-0.021": 0.0,
			"-0.02": 0.0,
			"-0.019": 0.0,
			"-0.018": 0.0,
			"-0.017": 0.0,
			"-0.016": 0.0,
			"-0.015": 0.0,
			"-0.014": 0.0,
			"-0.013": 0.0,
			"-0.012": 0.0,
			"-0.011": 0.0,
			"-0.01": 0.643275137217,
			"-0.009": 2.01403791699,
			"-0.008": 2.8392606906,
			"-0.007": 2.24143450178,
			"-0.006": 1.68796359659,
			"-0.005": 3.7579725794,
			"-0.004": 6.53037928951,
			"-0.003": 12.317727902,
			"-0.002": 23.054534902,
			"-0.001": 30.4618378355,
			"0.0": 22.8024955663,
			"0.001": 11.6790916095,
			"0.002": 4.13744228812,
			"0.003": 3.2080094521,
			"0.004": 2.22918612615,
			"0.005": 1.52144217572,
			"0.006": 1.95365987068,
			"0.007": 1.61440536408,
			"0.008": 1.46667642404,
			"0.009": 1.26199291713,
			"0.01": 1.88263812115,
			"0.011": 1.32132820513,
			"0.012": 1.13345046719,
			"0.013": 1.00385804949,
			"0.014": 1.16673433713,
			"0.015": 1.20290773126,
			"0.016": 0.821277104766,
			"0.017": 1.14913346214,
			"0.018": 0.550853838183,
			"0.019": 0.0980486152507,
			"0.02": 0.0,
			"0.021": 0.0,
			"0.022": 0.0,
			"0.023": 0.0,
			"0.024": 0.0,
			"0.025": 0.0
		}
	}
}
