{
	 "smiles": "C=CCN1C(=S)NC2=C(C=CC=C2)C1=O", 
	 "Tm": 479.15, 
	 "num_atms": 25, 
	 "gaussian": { 
		 "optdone": 1, 
		 "sigma_profile": "yes", 
		 "theory": "DFT", 
		 "functional": "B3LYP", 
		 "basiset": "6-31G**", 
		 "properties": { 
			 "R2extent": 3674.7538, 
			 "electric_dipole_moment_norm": 4.30906116109, 
			 "electric_quadrupole_moment_norm": 14.8060531986, 
			 "total_energy": -1008.13030695, 
			 "HOMO_LUMO_gap": 0.16102, 
			 "cosmo_polarized_energy": -14.42, 
			 "cosmo_cavitation_energy": 30.72, 
			 "cosmo_dispersion_energy": -22.53, 
			 "cosmo_repulsion_energy": 1.68, 
			 "cosmo_total_nonelectrostatic_energy": 9.87, 
			 "SMD_solvation_energy": 5.14 
		},
		"coords": [
			{
				"x": -3.1608863133,
				"y": -2.4921136407,
				"z": 0.2332215856,
				"element": "C" 
			},
			{
				"x": -2.8291048401,
				"y": -1.5075442241,
				"z": -0.6009670329,
				"element": "C" 
			},
			{
				"x": -1.5229447168,
				"y": -1.4591982916,
				"z": -1.349140021,
				"element": "C" 
			},
			{
				"x": -0.6560114404,
				"y": -0.3426098817,
				"z": -0.8905911341,
				"element": "N" 
			},
			{
				"x": -0.7810163538,
				"y": 0.9060715231,
				"z": -1.471393999,
				"element": "C" 
			},
			{
				"x": -1.8493951047,
				"y": 1.2945861038,
				"z": -2.7041620524,
				"element": "S" 
			},
			{
				"x": 0.0504317021,
				"y": 1.8756591467,
				"z": -0.975031765,
				"element": "N" 
			},
			{
				"x": 0.9714522008,
				"y": 1.7156571595,
				"z": 0.045839123,
				"element": "C" 
			},
			{
				"x": 1.086600643,
				"y": 0.4502709158,
				"z": 0.638596723,
				"element": "C" 
			},
			{
				"x": 2.006853127,
				"y": 0.2488271198,
				"z": 1.6763220768,
				"element": "C" 
			},
			{
				"x": 2.8023717611,
				"y": 1.2981961999,
				"z": 2.1157090436,
				"element": "C" 
			},
			{
				"x": 2.6797325609,
				"y": 2.5617862613,
				"z": 1.5159908253,
				"element": "C" 
			},
			{
				"x": 1.7727364293,
				"y": 2.7801938305,
				"z": 0.4866810342,
				"element": "C" 
			},
			{
				"x": 0.2410794837,
				"y": -0.6554996554,
				"z": 0.1655420014,
				"element": "C" 
			},
			{
				"x": 0.2884915253,
				"y": -1.7853272127,
				"z": 0.6267879944,
				"element": "O" 
			},
			{
				"x": -2.4828795214,
				"y": -3.3162634193,
				"z": 0.4388195109,
				"element": "H" 
			},
			{
				"x": -4.1209134273,
				"y": -2.50687288,
				"z": 0.7411485991,
				"element": "H" 
			},
			{
				"x": -3.5136395521,
				"y": -0.6827337476,
				"z": -0.7878879082,
				"element": "H" 
			},
			{
				"x": -0.9528381387,
				"y": -2.3728723979,
				"z": -1.1871280809,
				"element": "H" 
			},
			{
				"x": -1.6906146285,
				"y": -1.3040774768,
				"z": -2.4161857072,
				"element": "H" 
			},
			{
				"x": -0.0609259494,
				"y": 2.7784149446,
				"z": -1.4168523339,
				"element": "H" 
			},
			{
				"x": 2.0706780009,
				"y": -0.7417675136,
				"z": 2.1132635449,
				"element": "H" 
			},
			{
				"x": 3.5158898468,
				"y": 1.1449720489,
				"z": 2.9185398494,
				"element": "H" 
			},
			{
				"x": 3.3008260828,
				"y": 3.3842769426,
				"z": 1.8581516633,
				"element": "H" 
			},
			{
				"x": 1.6793266226,
				"y": 3.7586681448,
				"z": 0.0243264597,
				"element": "H" 
			}
		],
		 "valence_orbital": [ 
			{
				"type": "occ",
				"energy": -0.27909,
				"method": "rhf"
			},
			{
				"type": "occ",
				"energy": -0.26352,
				"method": "rhf"
			},
			{
				"type": "occ",
				"energy": -0.25904,
				"method": "rhf"
			},
			{
				"type": "occ",
				"energy": -0.22439,
				"method": "rhf"
			},
			{
				"type": "occ",
				"energy": -0.22265,
				"method": "rhf"
			},
			{
				"type": "unocc",
				"energy": -0.06163,
				"method": "rhf"
			},
			{
				"type": "unocc",
				"energy": -0.04586,
				"method": "rhf"
			},
			{
				"type": "unocc",
				"energy": -0.00358,
				"method": "rhf"
			},
			{
				"type": "unocc",
				"energy": 0.01209,
				"method": "rhf"
			},
			{
				"type": "unocc",
				"energy": 0.05391,
				"method": "rhf"
			}
		],
		"cosmo_sigma_profile": { 
			"-0.025": 0.0,
			"-0.024": 0.0,
			"-0.023": 0.0,
			"-0.022": 0.0,
			"-0.021": 0.0,
			"-0.02": 0.0,
			"-0.019": 0.0,
			"-0.018": 0.0,
			"-0.017": 0.0544223214692,
			"-0.016": 1.03952737594,
			"-0.015": 1.73778646876,
			"-0.014": 0.910779409598,
			"-0.013": 0.900662591977,
			"-0.012": 0.92369957979,
			"-0.011": 0.848742528454,
			"-0.01": 1.34874757479,
			"-0.009": 1.8809651561,
			"-0.008": 2.17905024883,
			"-0.007": 6.87256202577,
			"-0.006": 10.9705059343,
			"-0.005": 17.3370318132,
			"-0.004": 16.9852433427,
			"-0.003": 21.2384566299,
			"-0.002": 19.0951657063,
			"-0.001": 16.548405748,
			"0.0": 17.3163305114,
			"0.001": 16.6995101314,
			"0.002": 18.8727426109,
			"0.003": 17.5271108067,
			"0.004": 7.98341714159,
			"0.005": 8.92045994947,
			"0.006": 7.96179875299,
			"0.007": 6.57684388268,
			"0.008": 8.8499696152,
			"0.009": 6.97027389848,
			"0.01": 5.2819489225,
			"0.011": 2.88285877565,
			"0.012": 2.32869548072,
			"0.013": 0.00785228549922,
			"0.014": 0.0,
			"0.015": 0.0,
			"0.016": 0.0,
			"0.017": 0.0,
			"0.018": 0.0,
			"0.019": 0.0,
			"0.02": 0.0,
			"0.021": 0.0,
			"0.022": 0.0,
			"0.023": 0.0,
			"0.024": 0.0,
			"0.025": 0.0
		}
	}
}
