{
	 "smiles": "OC(=O)C1=CC(=C(F)C(=C1)[N+]([O-])=O)[N+]([O-])=O", 
	 "Tm": 511.15, 
	 "num_atms": 19, 
	 "gaussian": { 
		 "optdone": 1, 
		 "sigma_profile": "yes", 
		 "theory": "DFT", 
		 "functional": "B3LYP", 
		 "basiset": "6-31G**", 
		 "properties": { 
			 "R2extent": 4386.3261, 
			 "electric_dipole_moment_norm": 2.63326674114, 
			 "electric_quadrupole_moment_norm": 14.3881963091, 
			 "total_energy": -929.005053163, 
			 "HOMO_LUMO_gap": 0.17578, 
			 "cosmo_polarized_energy": -22.11, 
			 "cosmo_cavitation_energy": 27.05, 
			 "cosmo_dispersion_energy": -19.53, 
			 "cosmo_repulsion_energy": 1.5, 
			 "cosmo_total_nonelectrostatic_energy": 9.02, 
			 "SMD_solvation_energy": 10.85 
		},
		"coords": [
			{
				"x": 0.0483536371,
				"y": 2.8605796888,
				"z": 2.9698758307,
				"element": "O" 
			},
			{
				"x": 0.6083352096,
				"y": 2.907650624,
				"z": 1.7393835337,
				"element": "C" 
			},
			{
				"x": 1.5324218925,
				"y": 3.6480729418,
				"z": 1.5096985154,
				"element": "O" 
			},
			{
				"x": 0.0252198004,
				"y": 2.0102631926,
				"z": 0.6799829658,
				"element": "C" 
			},
			{
				"x": 0.7972371928,
				"y": 1.7856981499,
				"z": -0.4648012266,
				"element": "C" 
			},
			{
				"x": 0.3072949889,
				"y": 1.0006531713,
				"z": -1.4982562242,
				"element": "C" 
			},
			{
				"x": -0.9629472469,
				"y": 0.4029650224,
				"z": -1.4203717379,
				"element": "C" 
			},
			{
				"x": -1.4038993978,
				"y": -0.3610432359,
				"z": -2.3977555331,
				"element": "F" 
			},
			{
				"x": -1.7309774828,
				"y": 0.6373099037,
				"z": -0.2688342606,
				"element": "C" 
			},
			{
				"x": -1.2458772185,
				"y": 1.4431489347,
				"z": 0.7597402763,
				"element": "C" 
			},
			{
				"x": -3.0747699475,
				"y": 0.0489723684,
				"z": -0.0938338547,
				"element": "N" 
			},
			{
				"x": -3.7472085001,
				"y": 0.488727567,
				"z": 0.8382070256,
				"element": "O" 
			},
			{
				"x": -3.4222524991,
				"y": -0.834440518,
				"z": -0.8660851599,
				"element": "O" 
			},
			{
				"x": 1.1600951889,
				"y": 0.8239533866,
				"z": -2.6915645966,
				"element": "N" 
			},
			{
				"x": 2.3695192887,
				"y": 0.9479651334,
				"z": -2.51976621,
				"element": "O" 
			},
			{
				"x": 0.6037364858,
				"y": 0.5905900058,
				"z": -3.75752971,
				"element": "O" 
			},
			{
				"x": -0.562652767,
				"y": 2.1162450573,
				"z": 3.0581439468,
				"element": "H" 
			},
			{
				"x": 1.7815821084,
				"y": 2.2304502846,
				"z": -0.5498754908,
				"element": "H" 
			},
			{
				"x": -1.9186107334,
				"y": 1.6164383214,
				"z": 1.5924419101,
				"element": "H" 
			}
		],
		 "valence_orbital": [ 
			{
				"type": "occ",
				"energy": -0.33384,
				"method": "rhf"
			},
			{
				"type": "occ",
				"energy": -0.32658,
				"method": "rhf"
			},
			{
				"type": "occ",
				"energy": -0.32111,
				"method": "rhf"
			},
			{
				"type": "occ",
				"energy": -0.31711,
				"method": "rhf"
			},
			{
				"type": "occ",
				"energy": -0.30767,
				"method": "rhf"
			},
			{
				"type": "unocc",
				"energy": -0.13189,
				"method": "rhf"
			},
			{
				"type": "unocc",
				"energy": -0.11814,
				"method": "rhf"
			},
			{
				"type": "unocc",
				"energy": -0.08559,
				"method": "rhf"
			},
			{
				"type": "unocc",
				"energy": -0.0402,
				"method": "rhf"
			},
			{
				"type": "unocc",
				"energy": 0.00718,
				"method": "rhf"
			}
		],
		"cosmo_sigma_profile": { 
			"-0.025": 0.0,
			"-0.024": 0.0,
			"-0.023": 0.0,
			"-0.022": 0.107872450795,
			"-0.021": 0.847375348334,
			"-0.02": 1.09392866717,
			"-0.019": 1.06485755158,
			"-0.018": 0.930215387486,
			"-0.017": 0.849819455038,
			"-0.016": 0.891860513434,
			"-0.015": 0.84454009039,
			"-0.014": 1.2018771389,
			"-0.013": 1.64635649385,
			"-0.012": 0.919327943889,
			"-0.011": 1.89286747623,
			"-0.01": 3.01807606412,
			"-0.009": 5.31570585116,
			"-0.008": 6.20197321359,
			"-0.007": 13.9211404356,
			"-0.006": 13.167916389,
			"-0.005": 11.3443277026,
			"-0.004": 12.4947029311,
			"-0.003": 10.0804467885,
			"-0.002": 6.46111931325,
			"-0.001": 5.60169707093,
			"0.0": 6.3597898817,
			"0.001": 7.92792479639,
			"0.002": 9.68082449211,
			"0.003": 9.00254330578,
			"0.004": 8.58978686622,
			"0.005": 11.5388248995,
			"0.006": 20.6423750839,
			"0.007": 17.2216019406,
			"0.008": 10.6488113798,
			"0.009": 7.58152706672,
			"0.01": 5.07491680798,
			"0.011": 3.5387988256,
			"0.012": 1.24991295139,
			"0.013": 0.0103736883729,
			"0.014": 0.0,
			"0.015": 0.0,
			"0.016": 0.0,
			"0.017": 0.0,
			"0.018": 0.0,
			"0.019": 0.0,
			"0.02": 0.0,
			"0.021": 0.0,
			"0.022": 0.0,
			"0.023": 0.0,
			"0.024": 0.0,
			"0.025": 0.0
		}
	}
}
