{
	 "smiles": "NNC(=S)NCC1CCC1", 
	 "Tm": 378.15, 
	 "num_atms": 23, 
	 "gaussian": { 
		 "optdone": 1, 
		 "sigma_profile": "yes", 
		 "theory": "DFT", 
		 "functional": "B3LYP", 
		 "basiset": "6-31G**", 
		 "properties": { 
			 "R2extent": 3311.1136, 
			 "electric_dipole_moment_norm": 5.17125551003, 
			 "electric_quadrupole_moment_norm": 18.020963164, 
			 "total_energy": -798.873693588, 
			 "HOMO_LUMO_gap": 0.20847, 
			 "cosmo_polarized_energy": -15.95, 
			 "cosmo_cavitation_energy": 27.08, 
			 "cosmo_dispersion_energy": -20.23, 
			 "cosmo_repulsion_energy": 1.64, 
			 "cosmo_total_nonelectrostatic_energy": 8.5, 
			 "SMD_solvation_energy": 2.88 
		},
		"coords": [
			{
				"x": -1.0957892676,
				"y": 3.5710377969,
				"z": 1.8993642181,
				"element": "N" 
			},
			{
				"x": -0.9553820462,
				"y": 2.2352547201,
				"z": 1.4805060438,
				"element": "N" 
			},
			{
				"x": -2.0129335867,
				"y": 1.4081267463,
				"z": 1.2365406718,
				"element": "C" 
			},
			{
				"x": -3.611756021,
				"y": 1.9476225865,
				"z": 1.2420604513,
				"element": "S" 
			},
			{
				"x": -1.6945197661,
				"y": 0.1111470313,
				"z": 0.9835990176,
				"element": "N" 
			},
			{
				"x": -0.3547245246,
				"y": -0.4343121146,
				"z": 0.7967974436,
				"element": "C" 
			},
			{
				"x": -0.4256617407,
				"y": -1.8984872661,
				"z": 0.3873942536,
				"element": "C" 
			},
			{
				"x": 0.8987101714,
				"y": -2.6175280452,
				"z": 0.0112210915,
				"element": "C" 
			},
			{
				"x": 0.1334054239,
				"y": -3.3456391443,
				"z": -1.126653611,
				"element": "C" 
			},
			{
				"x": -0.9760389371,
				"y": -2.2647696188,
				"z": -1.0227244831,
				"element": "C" 
			},
			{
				"x": -1.4316670544,
				"y": 4.1023883306,
				"z": 1.0960769279,
				"element": "H" 
			},
			{
				"x": -1.8690377344,
				"y": 3.5969127183,
				"z": 2.5676485234,
				"element": "H" 
			},
			{
				"x": -0.0478973886,
				"y": 1.8450884109,
				"z": 1.6883026356,
				"element": "H" 
			},
			{
				"x": -2.4872141292,
				"y": -0.4645795741,
				"z": 0.7401124722,
				"element": "H" 
			},
			{
				"x": 0.1840150176,
				"y": 0.137552624,
				"z": 0.0254724219,
				"element": "H" 
			},
			{
				"x": 0.2243122848,
				"y": -0.3501451856,
				"z": 1.7304094259,
				"element": "H" 
			},
			{
				"x": -0.9562329271,
				"y": -2.4648370041,
				"z": 1.1630288263,
				"element": "H" 
			},
			{
				"x": 1.636153389,
				"y": -1.9115523161,
				"z": -0.3870808935,
				"element": "H" 
			},
			{
				"x": 1.3810659699,
				"y": -3.2263917611,
				"z": 0.780937241,
				"element": "H" 
			},
			{
				"x": 0.6420029263,
				"y": -3.4570620311,
				"z": -2.0876874862,
				"element": "H" 
			},
			{
				"x": -0.2264160021,
				"y": -4.3286061763,
				"z": -0.8081107103,
				"element": "H" 
			},
			{
				"x": -0.8150364142,
				"y": -1.4478397335,
				"z": -1.7346621564,
				"element": "H" 
			},
			{
				"x": -2.0169576431,
				"y": -2.5918809942,
				"z": -1.099752325,
				"element": "H" 
			}
		],
		 "valence_orbital": [ 
			{
				"type": "occ",
				"energy": -0.31792,
				"method": "rhf"
			},
			{
				"type": "occ",
				"energy": -0.2823,
				"method": "rhf"
			},
			{
				"type": "occ",
				"energy": -0.26097,
				"method": "rhf"
			},
			{
				"type": "occ",
				"energy": -0.20973,
				"method": "rhf"
			},
			{
				"type": "occ",
				"energy": -0.20212,
				"method": "rhf"
			},
			{
				"type": "unocc",
				"energy": 0.00635,
				"method": "rhf"
			},
			{
				"type": "unocc",
				"energy": 0.06424,
				"method": "rhf"
			},
			{
				"type": "unocc",
				"energy": 0.07194,
				"method": "rhf"
			},
			{
				"type": "unocc",
				"energy": 0.07804,
				"method": "rhf"
			},
			{
				"type": "unocc",
				"energy": 0.09333,
				"method": "rhf"
			}
		],
		"cosmo_sigma_profile": { 
			"-0.025": 0.0,
			"-0.024": 0.0,
			"-0.023": 0.0,
			"-0.022": 0.0,
			"-0.021": 0.0,
			"-0.02": 0.0,
			"-0.019": 0.0,
			"-0.018": 0.0,
			"-0.017": 0.0,
			"-0.016": 0.0,
			"-0.015": 0.0610954292045,
			"-0.014": 0.961504194953,
			"-0.013": 0.888683076605,
			"-0.012": 1.96566286187,
			"-0.011": 2.77737695109,
			"-0.01": 3.28984240702,
			"-0.009": 4.28195548582,
			"-0.008": 5.00734538114,
			"-0.007": 3.22174843147,
			"-0.006": 5.84778658543,
			"-0.005": 8.53507907179,
			"-0.004": 13.27231456,
			"-0.003": 22.819833833,
			"-0.002": 23.056936294,
			"-0.001": 22.7149294799,
			"0.0": 16.7915874808,
			"0.001": 15.7281078663,
			"0.002": 10.2782696282,
			"0.003": 4.16493058731,
			"0.004": 3.83959696311,
			"0.005": 4.00025361718,
			"0.006": 4.24974526066,
			"0.007": 3.98949368261,
			"0.008": 3.75347715119,
			"0.009": 4.59236530318,
			"0.01": 5.98112070784,
			"0.011": 6.74804624264,
			"0.012": 6.51040151342,
			"0.013": 2.29016443846,
			"0.014": 0.710983792801,
			"0.015": 0.461342942749,
			"0.016": 0.60033429063,
			"0.017": 0.0591658786828,
			"0.018": 0.0,
			"0.019": 0.0,
			"0.02": 0.0,
			"0.021": 0.0,
			"0.022": 0.0,
			"0.023": 0.0,
			"0.024": 0.0,
			"0.025": 0.0
		}
	}
}
