{
	 "smiles": "CCCI", 
	 "Tm": 172.15, 
	 "num_atms": 11, 
	 "gaussian": { 
		 "optdone": 1, 
		 "sigma_profile": "no", 
		 "theory": "DFT", 
		 "functional": "B3LYP", 
		 "basiset": "6-31G**", 
		 "properties": { 
			 "R2extent": 1184.0178, 
			 "electric_dipole_moment_norm": 2.29219440711, 
			 "electric_quadrupole_moment_norm": 7.16529856461, 
			 "total_energy": -129.938762045, 
			 "HOMO_LUMO_gap": 0.21483, 
			 "cosmo_polarized_energy": -95734.17, 
			 "cosmo_cavitation_energy": 16.49, 
			 "cosmo_dispersion_energy": -13.81, 
			 "cosmo_repulsion_energy": 1.2, 
			 "cosmo_total_nonelectrostatic_energy": 3.87, 
			 "SMD_solvation_energy": 2.06 
		},
		"coords": [
			{
				"x": 2.8176906682,
				"y": 0.3797120514,
				"z": 0.9409794509,
				"element": "C" 
			},
			{
				"x": 2.2069261653,
				"y": 1.1162181673,
				"z": -0.2524804725,
				"element": "C" 
			},
			{
				"x": 1.7077095117,
				"y": 0.2186015075,
				"z": -1.3771639851,
				"element": "C" 
			},
			{
				"x": 3.307647363,
				"y": -0.8590045352,
				"z": -2.4298918725,
				"element": "I" 
			},
			{
				"x": 3.095930114,
				"y": 1.0855452016,
				"z": 1.729412171,
				"element": "H" 
			},
			{
				"x": 2.1079657929,
				"y": -0.3375774976,
				"z": 1.3682137525,
				"element": "H" 
			},
			{
				"x": 3.7166418219,
				"y": -0.1709850217,
				"z": 0.6488246648,
				"element": "H" 
			},
			{
				"x": 1.3296113504,
				"y": 1.6894575137,
				"z": 0.084045494,
				"element": "H" 
			},
			{
				"x": 2.9166678819,
				"y": 1.8481701953,
				"z": -0.6533460349,
				"element": "H" 
			},
			{
				"x": 1.0438554797,
				"y": -0.5691763375,
				"z": -1.0200789209,
				"element": "H" 
			},
			{
				"x": 1.2136538509,
				"y": 0.7815387551,
				"z": -2.1678142471,
				"element": "H" 
			}
		],
		 "valence_orbital": [ 
			{
				"type": "occ",
				"energy": -0.36554,
				"method": "rhf"
			},
			{
				"type": "occ",
				"energy": -0.35665,
				"method": "rhf"
			},
			{
				"type": "occ",
				"energy": -0.32485,
				"method": "rhf"
			},
			{
				"type": "occ",
				"energy": -0.25642,
				"method": "rhf"
			},
			{
				"type": "occ",
				"energy": -0.25449,
				"method": "rhf"
			},
			{
				"type": "unocc",
				"energy": -0.03966,
				"method": "rhf"
			},
			{
				"type": "unocc",
				"energy": 0.04222,
				"method": "rhf"
			},
			{
				"type": "unocc",
				"energy": 0.0431,
				"method": "rhf"
			},
			{
				"type": "unocc",
				"energy": 0.05531,
				"method": "rhf"
			},
			{
				"type": "unocc",
				"energy": 0.10564,
				"method": "rhf"
			}
		],
		"cosmo_sigma_profile": { 
			"0.0": 0.0,
			"0.0": 0.0,
			"0.0": 0.0,
			"0.0": 0.0,
			"0.0": 0.0,
			"0.0": 0.0,
			"0.0": 0.0,
			"0.0": 0.0,
			"0.0": 0.0,
			"0.0": 0.0,
			"0.0": 0.0,
			"0.0": 0.0,
			"0.0": 0.0,
			"0.0": 0.0,
			"0.0": 0.0,
			"0.0": 0.0,
			"0.0": 0.0,
			"0.0": 0.0,
			"0.0": 0.0,
			"0.0": 0.0,
			"0.0": 0.0,
			"0.0": 0.0,
			"0.0": 0.0,
			"0.0": 0.0,
			"0.0": 0.0,
			"0.0": 0.0,
			"0.0": 0.0,
			"0.0": 0.0,
			"0.0": 0.0,
			"0.0": 0.0,
			"0.0": 0.0,
			"0.0": 0.0,
			"0.0": 0.0,
			"0.0": 0.0,
			"0.0": 0.0,
			"0.0": 0.0,
			"0.0": 0.0,
			"0.0": 0.0,
			"0.0": 0.0,
			"0.0": 0.0,
			"0.0": 0.0,
			"0.0": 0.0,
			"0.0": 0.0,
			"0.0": 0.0,
			"0.0": 0.0,
			"0.0": 0.0,
			"0.0": 0.0,
			"0.0": 0.0,
			"0.0": 0.0,
			"0.0": 0.0,
			"0.0": 0.0
		}
	}
}
