{
	 "smiles": "CCC1=CC2=C(C=C1)N(CC(O)=O)C(=O)C2=O", 
	 "Tm": 440.15, 
	 "num_atms": 28, 
	 "gaussian": { 
		 "optdone": 1, 
		 "sigma_profile": "yes", 
		 "theory": "DFT", 
		 "functional": "B3LYP", 
		 "basiset": "6-31G**", 
		 "properties": { 
			 "R2extent": 5976.6127, 
			 "electric_dipole_moment_norm": 5.0403334106, 
			 "electric_quadrupole_moment_norm": 20.8547233585, 
			 "total_energy": -819.569258914, 
			 "HOMO_LUMO_gap": 0.13565, 
			 "cosmo_polarized_energy": -20.49, 
			 "cosmo_cavitation_energy": 33.41, 
			 "cosmo_dispersion_energy": -23.1, 
			 "cosmo_repulsion_energy": 1.8, 
			 "cosmo_total_nonelectrostatic_energy": 12.11, 
			 "SMD_solvation_energy": 8.39 
		},
		"coords": [
			{
				"x": 0.742292079,
				"y": -0.3726479935,
				"z": 3.7326451178,
				"element": "C" 
			},
			{
				"x": 1.2866453794,
				"y": -1.5063801067,
				"z": 2.8448861348,
				"element": "C" 
			},
			{
				"x": 1.3587025841,
				"y": -1.1261147005,
				"z": 1.3806989843,
				"element": "C" 
			},
			{
				"x": 2.5008360991,
				"y": -0.5091441586,
				"z": 0.850185577,
				"element": "C" 
			},
			{
				"x": 2.5216062339,
				"y": -0.1394342553,
				"z": -0.4912169386,
				"element": "C" 
			},
			{
				"x": 1.4108748686,
				"y": -0.3722710834,
				"z": -1.3225908797,
				"element": "C" 
			},
			{
				"x": 0.2675333168,
				"y": -0.9836745458,
				"z": -0.8286612091,
				"element": "C" 
			},
			{
				"x": 0.2673044779,
				"y": -1.3513156751,
				"z": 0.5247312605,
				"element": "C" 
			},
			{
				"x": 1.658718378,
				"y": 0.0985354341,
				"z": -2.6362262226,
				"element": "N" 
			},
			{
				"x": 0.82711467,
				"y": -0.1921450398,
				"z": -3.7884644388,
				"element": "C" 
			},
			{
				"x": -0.5027538209,
				"y": 0.5739536738,
				"z": -3.8175686134,
				"element": "C" 
			},
			{
				"x": -0.4872871091,
				"y": 1.801481645,
				"z": -3.2584736338,
				"element": "O" 
			},
			{
				"x": -1.4922495429,
				"y": 0.1215971403,
				"z": -4.3342697519,
				"element": "O" 
			},
			{
				"x": 2.9642962298,
				"y": 0.5871663229,
				"z": -2.7432082082,
				"element": "C" 
			},
			{
				"x": 3.4904874344,
				"y": 0.9929237114,
				"z": -3.7548012118,
				"element": "O" 
			},
			{
				"x": 3.573327712,
				"y": 0.4891795597,
				"z": -1.3027708918,
				"element": "C" 
			},
			{
				"x": 4.6850496695,
				"y": 0.8671117277,
				"z": -1.0057651641,
				"element": "O" 
			},
			{
				"x": -0.2695138791,
				"y": -0.0855971533,
				"z": 3.4284269405,
				"element": "H" 
			},
			{
				"x": 1.3747475379,
				"y": 0.5183669975,
				"z": 3.6645293056,
				"element": "H" 
			},
			{
				"x": 0.7060354886,
				"y": -0.6833879,
				"z": 4.7815712866,
				"element": "H" 
			},
			{
				"x": 0.652763759,
				"y": -2.3933227756,
				"z": 2.9600116223,
				"element": "H" 
			},
			{
				"x": 2.2855408983,
				"y": -1.7919848136,
				"z": 3.1945033804,
				"element": "H" 
			},
			{
				"x": 3.3750328681,
				"y": -0.3237203749,
				"z": 1.4686742984,
				"element": "H" 
			},
			{
				"x": -0.5988014738,
				"y": -1.175129296,
				"z": -1.4533081533,
				"element": "H" 
			},
			{
				"x": -0.6194805286,
				"y": -1.8349505495,
				"z": 0.9267672973,
				"element": "H" 
			},
			{
				"x": 0.5950895143,
				"y": -1.258734909,
				"z": -3.8561160362,
				"element": "H" 
			},
			{
				"x": 1.4103099876,
				"y": 0.0929229361,
				"z": -4.6715893821,
				"element": "H" 
			},
			{
				"x": 0.3893771682,
				"y": 1.9745161823,
				"z": -2.88010047,
				"element": "H" 
			}
		],
		 "valence_orbital": [ 
			{
				"type": "occ",
				"energy": -0.326,
				"method": "rhf"
			},
			{
				"type": "occ",
				"energy": -0.28913,
				"method": "rhf"
			},
			{
				"type": "occ",
				"energy": -0.28734,
				"method": "rhf"
			},
			{
				"type": "occ",
				"energy": -0.26166,
				"method": "rhf"
			},
			{
				"type": "occ",
				"energy": -0.24613,
				"method": "rhf"
			},
			{
				"type": "unocc",
				"energy": -0.11048,
				"method": "rhf"
			},
			{
				"type": "unocc",
				"energy": -0.0333,
				"method": "rhf"
			},
			{
				"type": "unocc",
				"energy": -0.01128,
				"method": "rhf"
			},
			{
				"type": "unocc",
				"energy": -0.00558,
				"method": "rhf"
			},
			{
				"type": "unocc",
				"energy": 0.05749,
				"method": "rhf"
			}
		],
		"cosmo_sigma_profile": { 
			"-0.025": 0.0,
			"-0.024": 0.0,
			"-0.023": 0.0,
			"-0.022": 0.0,
			"-0.021": 0.0,
			"-0.02": 0.0,
			"-0.019": 0.0,
			"-0.018": 0.331303361906,
			"-0.017": 0.565580785958,
			"-0.016": 1.2659900455,
			"-0.015": 1.0127116712,
			"-0.014": 1.17946971832,
			"-0.013": 1.68447334722,
			"-0.012": 0.942262013622,
			"-0.011": 1.31748425452,
			"-0.01": 1.95975616751,
			"-0.009": 3.64399645244,
			"-0.008": 8.37303947885,
			"-0.007": 11.364665808,
			"-0.006": 15.318340369,
			"-0.005": 12.9838094708,
			"-0.004": 14.5445111484,
			"-0.003": 20.185631844,
			"-0.002": 19.7418198103,
			"-0.001": 20.4759825286,
			"0.0": 21.1473962798,
			"0.001": 19.7753111799,
			"0.002": 14.6387956364,
			"0.003": 9.07225887184,
			"0.004": 3.62765477213,
			"0.005": 3.44538163601,
			"0.006": 4.97163753717,
			"0.007": 5.30590733999,
			"0.008": 6.61878087635,
			"0.009": 10.1559443032,
			"0.01": 14.2670173007,
			"0.011": 11.0101605575,
			"0.012": 4.87753482845,
			"0.013": 0.314461135408,
			"0.014": 0.0,
			"0.015": 0.0,
			"0.016": 0.0,
			"0.017": 0.0,
			"0.018": 0.0,
			"0.019": 0.0,
			"0.02": 0.0,
			"0.021": 0.0,
			"0.022": 0.0,
			"0.023": 0.0,
			"0.024": 0.0,
			"0.025": 0.0
		}
	}
}
