{
	 "smiles": "CC1=C(C)N=C(N=N1)C1=CC=CC=N1", 
	 "Tm": 358.15, 
	 "num_atms": 24, 
	 "gaussian": { 
		 "optdone": 1, 
		 "sigma_profile": "yes", 
		 "theory": "DFT", 
		 "functional": "B3LYP", 
		 "basiset": "6-31G**", 
		 "properties": { 
			 "R2extent": 3422.8376, 
			 "electric_dipole_moment_norm": 1.08534852006, 
			 "electric_quadrupole_moment_norm": 20.0915715261, 
			 "total_energy": -606.065866633, 
			 "HOMO_LUMO_gap": 0.1639, 
			 "cosmo_polarized_energy": -14.31, 
			 "cosmo_cavitation_energy": 28.58, 
			 "cosmo_dispersion_energy": -21.14, 
			 "cosmo_repulsion_energy": 1.66, 
			 "cosmo_total_nonelectrostatic_energy": 9.09, 
			 "SMD_solvation_energy": 0.99 
		},
		"coords": [
			{
				"x": 3.5708700897,
				"y": 2.9204638505,
				"z": 1.0358012395,
				"element": "C" 
			},
			{
				"x": 2.365031109,
				"y": 2.0773214633,
				"z": 0.7341817742,
				"element": "C" 
			},
			{
				"x": 1.1410594002,
				"y": 2.6171449532,
				"z": 0.2652500188,
				"element": "C" 
			},
			{
				"x": 0.9539714119,
				"y": 4.0904076879,
				"z": 0.0315805034,
				"element": "C" 
			},
			{
				"x": 0.1132481185,
				"y": 1.8147007016,
				"z": 0.0177608441,
				"element": "N" 
			},
			{
				"x": 0.3125167817,
				"y": 0.5020573699,
				"z": 0.2368732413,
				"element": "C" 
			},
			{
				"x": 1.4561299074,
				"y": -0.0383189249,
				"z": 0.6793251498,
				"element": "N" 
			},
			{
				"x": 2.4887885099,
				"y": 0.7614751215,
				"z": 0.9286470954,
				"element": "N" 
			},
			{
				"x": -0.8109790746,
				"y": -0.4466818571,
				"z": -0.0250837275,
				"element": "C" 
			},
			{
				"x": -0.6355936087,
				"y": -1.8217641235,
				"z": 0.1942823771,
				"element": "C" 
			},
			{
				"x": -1.7030645151,
				"y": -2.6782217534,
				"z": -0.0597780921,
				"element": "C" 
			},
			{
				"x": -2.9034376557,
				"y": -2.1401289995,
				"z": -0.5214295125,
				"element": "C" 
			},
			{
				"x": -2.976362312,
				"y": -0.7573103955,
				"z": -0.7077313281,
				"element": "C" 
			},
			{
				"x": -1.963744035,
				"y": 0.078473679,
				"z": -0.469411198,
				"element": "N" 
			},
			{
				"x": 4.3816252979,
				"y": 2.2761497281,
				"z": 1.3796914199,
				"element": "H" 
			},
			{
				"x": 3.3554293771,
				"y": 3.6640865882,
				"z": 1.8119753802,
				"element": "H" 
			},
			{
				"x": 3.9068740324,
				"y": 3.4703173467,
				"z": 0.14889347,
				"element": "H" 
			},
			{
				"x": 1.6704142621,
				"y": 4.4667705479,
				"z": -0.7078988733,
				"element": "H" 
			},
			{
				"x": 1.1190155559,
				"y": 4.6602026192,
				"z": 0.9534644239,
				"element": "H" 
			},
			{
				"x": -0.0597453313,
				"y": 4.2741309024,
				"z": -0.3262509959,
				"element": "H" 
			},
			{
				"x": 0.3191868174,
				"y": -2.1850179979,
				"z": 0.5538675963,
				"element": "H" 
			},
			{
				"x": -1.5981667539,
				"y": -3.747462193,
				"z": 0.1003810126,
				"element": "H" 
			},
			{
				"x": -3.7624104245,
				"y": -2.7692627802,
				"z": -0.7328984062,
				"element": "H" 
			},
			{
				"x": -3.8973569604,
				"y": -0.3005335346,
				"z": -1.0670934129,
				"element": "H" 
			}
		],
		 "valence_orbital": [ 
			{
				"type": "occ",
				"energy": -0.29953,
				"method": "rhf"
			},
			{
				"type": "occ",
				"energy": -0.28388,
				"method": "rhf"
			},
			{
				"type": "occ",
				"energy": -0.25199,
				"method": "rhf"
			},
			{
				"type": "occ",
				"energy": -0.24743,
				"method": "rhf"
			},
			{
				"type": "occ",
				"energy": -0.22509,
				"method": "rhf"
			},
			{
				"type": "unocc",
				"energy": -0.06119,
				"method": "rhf"
			},
			{
				"type": "unocc",
				"energy": -0.05697,
				"method": "rhf"
			},
			{
				"type": "unocc",
				"energy": -0.01695,
				"method": "rhf"
			},
			{
				"type": "unocc",
				"energy": 0.01706,
				"method": "rhf"
			},
			{
				"type": "unocc",
				"energy": 0.08456,
				"method": "rhf"
			}
		],
		"cosmo_sigma_profile": { 
			"-0.025": 0.0,
			"-0.024": 0.0,
			"-0.023": 0.0,
			"-0.022": 0.0,
			"-0.021": 0.0,
			"-0.02": 0.0,
			"-0.019": 0.0,
			"-0.018": 0.0,
			"-0.017": 0.0,
			"-0.016": 0.0,
			"-0.015": 0.0,
			"-0.014": 0.0,
			"-0.013": 0.0,
			"-0.012": 0.0,
			"-0.011": 0.0,
			"-0.01": 0.0,
			"-0.009": 0.0,
			"-0.008": 0.717273403901,
			"-0.007": 7.85066960892,
			"-0.006": 17.7438848347,
			"-0.005": 20.9890269292,
			"-0.004": 19.6550875911,
			"-0.003": 20.134848691,
			"-0.002": 21.7513271016,
			"-0.001": 20.999844395,
			"0.0": 14.0889801132,
			"0.001": 17.1424365025,
			"0.002": 17.4716082908,
			"0.003": 7.70281522454,
			"0.004": 4.97888864504,
			"0.005": 5.02072925577,
			"0.006": 3.71249763033,
			"0.007": 3.10385343479,
			"0.008": 2.89566769745,
			"0.009": 3.30861766633,
			"0.01": 3.17933230047,
			"0.011": 3.09507581864,
			"0.012": 3.66750732396,
			"0.013": 2.66229190883,
			"0.014": 1.84348116752,
			"0.015": 1.31918095462,
			"0.016": 1.05014834726,
			"0.017": 0.725790929869,
			"0.018": 0.827057888332,
			"0.019": 0.827896493797,
			"0.02": 0.531441067131,
			"0.021": 0.0183465804171,
			"0.022": 0.0,
			"0.023": 0.0,
			"0.024": 0.0,
			"0.025": 0.0
		}
	}
}
