{
	 "smiles": "CCCN1CCC2=C(C1)SC(N)=C2C(N)=O", 
	 "Tm": 413.15, 
	 "num_atms": 33, 
	 "gaussian": { 
		 "optdone": 1, 
		 "sigma_profile": "yes", 
		 "theory": "DFT", 
		 "functional": "B3LYP", 
		 "basiset": "6-31G**", 
		 "properties": { 
			 "R2extent": 5307.5131, 
			 "electric_dipole_moment_norm": 2.51450029429, 
			 "electric_quadrupole_moment_norm": 14.6262477861, 
			 "total_energy": -1067.09662803, 
			 "HOMO_LUMO_gap": 0.17993, 
			 "cosmo_polarized_energy": -14.44, 
			 "cosmo_cavitation_energy": 35.01, 
			 "cosmo_dispersion_energy": -26.26, 
			 "cosmo_repulsion_energy": 2.03, 
			 "cosmo_total_nonelectrostatic_energy": 10.78, 
			 "SMD_solvation_energy": 2.78 
		},
		"coords": [
			{
				"x": 1.1675166698,
				"y": 3.9767924313,
				"z": 1.6106640295,
				"element": "C" 
			},
			{
				"x": 1.9863224122,
				"y": 3.1112898586,
				"z": 0.6474277677,
				"element": "C" 
			},
			{
				"x": 1.1034830757,
				"y": 2.1904487538,
				"z": -0.2036953436,
				"element": "C" 
			},
			{
				"x": 1.8781337729,
				"y": 1.3913560967,
				"z": -1.1623310436,
				"element": "N" 
			},
			{
				"x": 1.1161124078,
				"y": 0.9863457252,
				"z": -2.3446760149,
				"element": "C" 
			},
			{
				"x": -0.0421558809,
				"y": 0.0045263841,
				"z": -2.054212987,
				"element": "C" 
			},
			{
				"x": 0.409148069,
				"y": -1.0976785042,
				"z": -1.1200654137,
				"element": "C" 
			},
			{
				"x": 1.5892432319,
				"y": -0.9561385019,
				"z": -0.4547460874,
				"element": "C" 
			},
			{
				"x": 2.530428154,
				"y": 0.221262869,
				"z": -0.5666990216,
				"element": "C" 
			},
			{
				"x": 1.9635065866,
				"y": -2.3740166319,
				"z": 0.5217932797,
				"element": "S" 
			},
			{
				"x": 0.4757096904,
				"y": -3.1578097986,
				"z": 0.0280531182,
				"element": "C" 
			},
			{
				"x": 0.1832490845,
				"y": -4.4205463227,
				"z": 0.435033095,
				"element": "N" 
			},
			{
				"x": -0.2696618869,
				"y": -2.3551039142,
				"z": -0.8387302749,
				"element": "C" 
			},
			{
				"x": -1.5896117291,
				"y": -2.8292006693,
				"z": -1.2794150446,
				"element": "C" 
			},
			{
				"x": -2.3797643363,
				"y": -1.9865072605,
				"z": -2.0288681783,
				"element": "N" 
			},
			{
				"x": -2.01277968,
				"y": -3.967513515,
				"z": -1.0133593128,
				"element": "O" 
			},
			{
				"x": 0.4621071665,
				"y": 4.6177793879,
				"z": 1.0691158109,
				"element": "H" 
			},
			{
				"x": 1.8146356242,
				"y": 4.6276053434,
				"z": 2.2068277942,
				"element": "H" 
			},
			{
				"x": 0.5861108881,
				"y": 3.3604113703,
				"z": 2.3058684478,
				"element": "H" 
			},
			{
				"x": 2.7061320934,
				"y": 2.5144917338,
				"z": 1.2216613772,
				"element": "H" 
			},
			{
				"x": 2.5779486812,
				"y": 3.7418100512,
				"z": -0.0262987127,
				"element": "H" 
			},
			{
				"x": 0.4765116777,
				"y": 1.5649896613,
				"z": 0.4574739824,
				"element": "H" 
			},
			{
				"x": 0.4131986158,
				"y": 2.8164651405,
				"z": -0.7832274795,
				"element": "H" 
			},
			{
				"x": 1.8168874441,
				"y": 0.5092554428,
				"z": -3.0410333879,
				"element": "H" 
			},
			{
				"x": 0.7303667638,
				"y": 1.8836706038,
				"z": -2.8406535786,
				"element": "H" 
			},
			{
				"x": -0.8851324687,
				"y": 0.5606746311,
				"z": -1.613072208,
				"element": "H" 
			},
			{
				"x": -0.4023408802,
				"y": -0.414438949,
				"z": -3.0014274266,
				"element": "H" 
			},
			{
				"x": 3.399908477,
				"y": -0.0453420562,
				"z": -1.1863556989,
				"element": "H" 
			},
			{
				"x": 2.9307496866,
				"y": 0.4952840805,
				"z": 0.4151918393,
				"element": "H" 
			},
			{
				"x": -0.7478540311,
				"y": -4.7198788187,
				"z": 0.1431379751,
				"element": "H" 
			},
			{
				"x": 0.5701710271,
				"y": -4.76308055,
				"z": 1.3004534728,
				"element": "H" 
			},
			{
				"x": -2.2449976602,
				"y": -0.9894708924,
				"z": -1.997928481,
				"element": "H" 
			},
			{
				"x": -3.3249827468,
				"y": -2.3173331807,
				"z": -2.1603062943,
				"element": "H" 
			}
		],
		 "valence_orbital": [ 
			{
				"type": "occ",
				"energy": -0.26425,
				"method": "rhf"
			},
			{
				"type": "occ",
				"energy": -0.24847,
				"method": "rhf"
			},
			{
				"type": "occ",
				"energy": -0.24324,
				"method": "rhf"
			},
			{
				"type": "occ",
				"energy": -0.21178,
				"method": "rhf"
			},
			{
				"type": "occ",
				"energy": -0.18751,
				"method": "rhf"
			},
			{
				"type": "unocc",
				"energy": -0.00758,
				"method": "rhf"
			},
			{
				"type": "unocc",
				"energy": 0.01582,
				"method": "rhf"
			},
			{
				"type": "unocc",
				"energy": 0.02058,
				"method": "rhf"
			},
			{
				"type": "unocc",
				"energy": 0.07346,
				"method": "rhf"
			},
			{
				"type": "unocc",
				"energy": 0.08589,
				"method": "rhf"
			}
		],
		"cosmo_sigma_profile": { 
			"-0.025": 0.0,
			"-0.024": 0.0,
			"-0.023": 0.0,
			"-0.022": 0.0,
			"-0.021": 0.0,
			"-0.02": 0.0,
			"-0.019": 0.0,
			"-0.018": 0.0,
			"-0.017": 0.0,
			"-0.016": 0.0,
			"-0.015": 0.0349808383048,
			"-0.014": 1.05246017397,
			"-0.013": 2.1430245523,
			"-0.012": 2.78185919331,
			"-0.011": 3.82896480045,
			"-0.01": 3.78021879534,
			"-0.009": 3.25524000491,
			"-0.008": 4.90351774965,
			"-0.007": 3.85740625343,
			"-0.006": 4.04549137673,
			"-0.005": 6.63636916635,
			"-0.004": 16.6751550625,
			"-0.003": 26.7097964052,
			"-0.002": 28.9227919371,
			"-0.001": 26.9068046248,
			"0.0": 25.1257143168,
			"0.001": 22.8689508623,
			"0.002": 17.5768047004,
			"0.003": 13.4234634169,
			"0.004": 14.6359815535,
			"0.005": 14.325728323,
			"0.006": 7.19349042832,
			"0.007": 3.81481166313,
			"0.008": 3.13269822396,
			"0.009": 3.63751012204,
			"0.01": 3.00631796493,
			"0.011": 1.92076167656,
			"0.012": 2.01006430556,
			"0.013": 2.81398795807,
			"0.014": 2.84604311388,
			"0.015": 1.53524285832,
			"0.016": 0.278671063043,
			"0.017": 0.0,
			"0.018": 0.0,
			"0.019": 0.0,
			"0.02": 0.0,
			"0.021": 0.0,
			"0.022": 0.0,
			"0.023": 0.0,
			"0.024": 0.0,
			"0.025": 0.0
		}
	}
}
