{
	 "smiles": "COC1=C(C=C(CNC(=O)CCl)C=C1)C(O)=O", 
	 "Tm": 407.15, 
	 "num_atms": 29, 
	 "gaussian": { 
		 "optdone": 1, 
		 "sigma_profile": "yes", 
		 "theory": "DFT", 
		 "functional": "B3LYP", 
		 "basiset": "6-31G**", 
		 "properties": { 
			 "R2extent": 6273.171, 
			 "electric_dipole_moment_norm": 8.27670232581, 
			 "electric_quadrupole_moment_norm": 27.6546672028, 
			 "total_energy": -1242.25488873, 
			 "HOMO_LUMO_gap": 0.19409, 
			 "cosmo_polarized_energy": -24.02, 
			 "cosmo_cavitation_energy": 35.2, 
			 "cosmo_dispersion_energy": -24.78, 
			 "cosmo_repulsion_energy": 1.95, 
			 "cosmo_total_nonelectrostatic_energy": 12.37, 
			 "SMD_solvation_energy": 8.06 
		},
		"coords": [
			{
				"x": 3.2018877048,
				"y": -2.9481310787,
				"z": -1.2599557359,
				"element": "C" 
			},
			{
				"x": 2.4333421494,
				"y": -2.4975141219,
				"z": -0.1459971024,
				"element": "O" 
			},
			{
				"x": 1.4722202615,
				"y": -1.5330971445,
				"z": -0.3267527655,
				"element": "C" 
			},
			{
				"x": 0.7429882134,
				"y": -1.1260547282,
				"z": 0.8146967776,
				"element": "C" 
			},
			{
				"x": -0.2435337742,
				"y": -0.148901223,
				"z": 0.6567602802,
				"element": "C" 
			},
			{
				"x": -0.5275204933,
				"y": 0.4345450384,
				"z": -0.5797155626,
				"element": "C" 
			},
			{
				"x": -1.5740634326,
				"y": 1.5316220733,
				"z": -0.7195343204,
				"element": "C" 
			},
			{
				"x": -2.8248987048,
				"y": 1.2955539771,
				"z": -0.0058311681,
				"element": "N" 
			},
			{
				"x": -3.8508300047,
				"y": 0.4581687266,
				"z": -0.3490324685,
				"element": "C" 
			},
			{
				"x": -4.8327439165,
				"y": 0.3059503369,
				"z": 0.3617809539,
				"element": "O" 
			},
			{
				"x": -3.7217078696,
				"y": -0.3135687546,
				"z": -1.6635790716,
				"element": "C" 
			},
			{
				"x": -3.9724792833,
				"y": 0.7520395901,
				"z": -3.117673819,
				"element": "Cl" 
			},
			{
				"x": 0.2075361233,
				"y": 0.0107845759,
				"z": -1.6900270756,
				"element": "C" 
			},
			{
				"x": 1.2005204055,
				"y": -0.9629539611,
				"z": -1.5725348192,
				"element": "C" 
			},
			{
				"x": 0.9345414259,
				"y": -1.6500798331,
				"z": 2.2203550355,
				"element": "C" 
			},
			{
				"x": 1.8638063989,
				"y": -2.6019974337,
				"z": 2.4178449646,
				"element": "O" 
			},
			{
				"x": 0.2756819748,
				"y": -1.2293332875,
				"z": 3.1462417205,
				"element": "O" 
			},
			{
				"x": 3.7748353224,
				"y": -2.1253532126,
				"z": -1.7011123601,
				"element": "H" 
			},
			{
				"x": 2.5605007453,
				"y": -3.404057375,
				"z": -2.0219568593,
				"element": "H" 
			},
			{
				"x": 3.8869363977,
				"y": -3.6980738341,
				"z": -0.8643673934,
				"element": "H" 
			},
			{
				"x": -0.7905350565,
				"y": 0.1354131537,
				"z": 1.5497964781,
				"element": "H" 
			},
			{
				"x": -1.1713344669,
				"y": 2.473142662,
				"z": -0.3301118681,
				"element": "H" 
			},
			{
				"x": -1.7824185716,
				"y": 1.705586878,
				"z": -1.7792128176,
				"element": "H" 
			},
			{
				"x": -2.9726704855,
				"y": 1.7598881207,
				"z": 0.8800471776,
				"element": "H" 
			},
			{
				"x": -4.5114200972,
				"y": -1.0607566253,
				"z": -1.6804062033,
				"element": "H" 
			},
			{
				"x": -2.7436678543,
				"y": -0.7825913817,
				"z": -1.7808768576,
				"element": "H" 
			},
			{
				"x": 0.0077775121,
				"y": 0.4422905171,
				"z": -2.667908096,
				"element": "H" 
			},
			{
				"x": 1.7480286211,
				"y": -1.2717318508,
				"z": -2.4543665907,
				"element": "H" 
			},
			{
				"x": 2.2988207548,
				"y": -2.8180898039,
				"z": 1.5722295669,
				"element": "H" 
			}
		],
		 "valence_orbital": [ 
			{
				"type": "occ",
				"energy": -0.27712,
				"method": "rhf"
			},
			{
				"type": "occ",
				"energy": -0.26949,
				"method": "rhf"
			},
			{
				"type": "occ",
				"energy": -0.26595,
				"method": "rhf"
			},
			{
				"type": "occ",
				"energy": -0.25829,
				"method": "rhf"
			},
			{
				"type": "occ",
				"energy": -0.24999,
				"method": "rhf"
			},
			{
				"type": "unocc",
				"energy": -0.0559,
				"method": "rhf"
			},
			{
				"type": "unocc",
				"energy": -0.02393,
				"method": "rhf"
			},
			{
				"type": "unocc",
				"energy": -0.02238,
				"method": "rhf"
			},
			{
				"type": "unocc",
				"energy": 0.04728,
				"method": "rhf"
			},
			{
				"type": "unocc",
				"energy": 0.04934,
				"method": "rhf"
			}
		],
		"cosmo_sigma_profile": { 
			"-0.025": 0.0,
			"-0.024": 0.0,
			"-0.023": 0.0,
			"-0.022": 0.0,
			"-0.021": 0.0,
			"-0.02": 0.0,
			"-0.019": 0.0,
			"-0.018": 0.0,
			"-0.017": 0.0,
			"-0.016": 0.0,
			"-0.015": 0.116531206196,
			"-0.014": 1.15931734634,
			"-0.013": 1.1923625647,
			"-0.012": 1.19028437824,
			"-0.011": 1.17509441361,
			"-0.01": 1.82977049786,
			"-0.009": 2.33882619801,
			"-0.008": 5.61010803304,
			"-0.007": 16.3510892168,
			"-0.006": 24.0885908635,
			"-0.005": 23.763440068,
			"-0.004": 22.3266599077,
			"-0.003": 15.7671316142,
			"-0.002": 13.1916087428,
			"-0.001": 15.1269297523,
			"0.0": 16.666765745,
			"0.001": 16.9322901185,
			"0.002": 20.133102539,
			"0.003": 13.3342549412,
			"0.004": 10.1180951178,
			"0.005": 10.7737000563,
			"0.006": 5.89270040802,
			"0.007": 4.04464356503,
			"0.008": 2.70446213555,
			"0.009": 4.54585877363,
			"0.01": 4.73939683656,
			"0.011": 6.98954292846,
			"0.012": 9.04197218721,
			"0.013": 8.53145064334,
			"0.014": 2.57066591827,
			"0.015": 0.0,
			"0.016": 0.0,
			"0.017": 0.0,
			"0.018": 0.0,
			"0.019": 0.0,
			"0.02": 0.0,
			"0.021": 0.0,
			"0.022": 0.0,
			"0.023": 0.0,
			"0.024": 0.0,
			"0.025": 0.0
		}
	}
}
