{
	 "smiles": "CC(C)NC1=NC=CC=C1", 
	 "Tm": 315.15, 
	 "num_atms": 22, 
	 "gaussian": { 
		 "optdone": 1, 
		 "sigma_profile": "yes", 
		 "theory": "DFT", 
		 "functional": "B3LYP", 
		 "basiset": "6-31G**", 
		 "properties": { 
			 "R2extent": 2703.2899, 
			 "electric_dipole_moment_norm": 1.87496191428, 
			 "electric_quadrupole_moment_norm": 6.28087662194, 
			 "total_energy": -421.596384712, 
			 "HOMO_LUMO_gap": 0.18979, 
			 "cosmo_polarized_energy": -7.18, 
			 "cosmo_cavitation_energy": 24.32, 
			 "cosmo_dispersion_energy": -17.89, 
			 "cosmo_repulsion_energy": 1.47, 
			 "cosmo_total_nonelectrostatic_energy": 7.89, 
			 "SMD_solvation_energy": 3.61 
		},
		"coords": [
			{
				"x": -0.4269533052,
				"y": 0.2660723438,
				"z": 1.2833582359,
				"element": "C" 
			},
			{
				"x": -0.7872664234,
				"y": -0.4945226736,
				"z": -0.0012809482,
				"element": "C" 
			},
			{
				"x": 0.4552976091,
				"y": -1.0540103431,
				"z": -0.7130580809,
				"element": "C" 
			},
			{
				"x": -1.6476386428,
				"y": 0.3000207213,
				"z": -0.8912966559,
				"element": "N" 
			},
			{
				"x": -1.2954975117,
				"y": 1.4372729447,
				"z": -1.5786508987,
				"element": "C" 
			},
			{
				"x": -0.1068813719,
				"y": 2.0068389756,
				"z": -1.312500878,
				"element": "N" 
			},
			{
				"x": 0.2129647929,
				"y": 3.1303735487,
				"z": -1.9698170684,
				"element": "C" 
			},
			{
				"x": -0.5989560194,
				"y": 3.7490023617,
				"z": -2.9126361201,
				"element": "C" 
			},
			{
				"x": -1.8353344047,
				"y": 3.14880685,
				"z": -3.1889773354,
				"element": "C" 
			},
			{
				"x": -2.1950793572,
				"y": 1.9892220387,
				"z": -2.5262503326,
				"element": "C" 
			},
			{
				"x": 0.2041752798,
				"y": 1.1259981453,
				"z": 1.0533260947,
				"element": "H" 
			},
			{
				"x": -1.3316891287,
				"y": 0.621482301,
				"z": 1.785992589,
				"element": "H" 
			},
			{
				"x": 0.1121258021,
				"y": -0.3949372053,
				"z": 1.9707432118,
				"element": "H" 
			},
			{
				"x": -1.4187462167,
				"y": -1.3446988834,
				"z": 0.2863425908,
				"element": "H" 
			},
			{
				"x": 1.0097084443,
				"y": -1.7166096553,
				"z": -0.039545283,
				"element": "H" 
			},
			{
				"x": 0.1699080721,
				"y": -1.6304802162,
				"z": -1.599204657,
				"element": "H" 
			},
			{
				"x": 1.1145780913,
				"y": -0.2411236207,
				"z": -1.023714946,
				"element": "H" 
			},
			{
				"x": -2.4804449662,
				"y": -0.1596854755,
				"z": -1.2234188923,
				"element": "H" 
			},
			{
				"x": 1.184625508,
				"y": 3.5551309376,
				"z": -1.7203753646,
				"element": "H" 
			},
			{
				"x": -0.2813892386,
				"y": 4.6580847066,
				"z": -3.4112251156,
				"element": "H" 
			},
			{
				"x": -2.5114037221,
				"y": 3.5866029782,
				"z": -3.9186112756,
				"element": "H" 
			},
			{
				"x": -3.1489032909,
				"y": 1.5059592198,
				"z": -2.7204988698,
				"element": "H" 
			}
		],
		 "valence_orbital": [ 
			{
				"type": "occ",
				"energy": -0.32775,
				"method": "rhf"
			},
			{
				"type": "occ",
				"energy": -0.29424,
				"method": "rhf"
			},
			{
				"type": "occ",
				"energy": -0.27115,
				"method": "rhf"
			},
			{
				"type": "occ",
				"energy": -0.24433,
				"method": "rhf"
			},
			{
				"type": "occ",
				"energy": -0.19753,
				"method": "rhf"
			},
			{
				"type": "unocc",
				"energy": -0.00774,
				"method": "rhf"
			},
			{
				"type": "unocc",
				"energy": 0.01832,
				"method": "rhf"
			},
			{
				"type": "unocc",
				"energy": 0.07426,
				"method": "rhf"
			},
			{
				"type": "unocc",
				"energy": 0.10804,
				"method": "rhf"
			},
			{
				"type": "unocc",
				"energy": 0.12023,
				"method": "rhf"
			}
		],
		"cosmo_sigma_profile": { 
			"-0.025": 0.0,
			"-0.024": 0.0,
			"-0.023": 0.0,
			"-0.022": 0.0,
			"-0.021": 0.0,
			"-0.02": 0.0,
			"-0.019": 0.0,
			"-0.018": 0.0,
			"-0.017": 0.0,
			"-0.016": 0.0,
			"-0.015": 0.0,
			"-0.014": 0.0,
			"-0.013": 0.835716959431,
			"-0.012": 1.61302620071,
			"-0.011": 1.17706215884,
			"-0.01": 1.2390131787,
			"-0.009": 1.46459386937,
			"-0.008": 2.01556104667,
			"-0.007": 2.01159261166,
			"-0.006": 5.59400222686,
			"-0.005": 8.74494598116,
			"-0.004": 10.8555384802,
			"-0.003": 15.3707340653,
			"-0.002": 18.8486340785,
			"-0.001": 15.9491756811,
			"0.0": 15.9895975134,
			"0.001": 18.3974564911,
			"0.002": 18.3030131694,
			"0.003": 10.9658633292,
			"0.004": 13.2936873036,
			"0.005": 13.5958862295,
			"0.006": 5.99230684589,
			"0.007": 3.3775500282,
			"0.008": 2.19783492873,
			"0.009": 1.79992867922,
			"0.01": 0.768471474756,
			"0.011": 0.60536524759,
			"0.012": 0.336223144018,
			"0.013": 0.0,
			"0.014": 0.0,
			"0.015": 0.0,
			"0.016": 0.0,
			"0.017": 0.0,
			"0.018": 0.0,
			"0.019": 0.0,
			"0.02": 0.0,
			"0.021": 0.0,
			"0.022": 0.0,
			"0.023": 0.0,
			"0.024": 0.0,
			"0.025": 0.0
		}
	}
}
