{
	 "smiles": "NC(=S)NC1=CC=C(C=C1)C(F)(F)F", 
	 "Tm": 417.15, 
	 "num_atms": 21, 
	 "gaussian": { 
		 "optdone": 1, 
		 "sigma_profile": "yes", 
		 "theory": "DFT", 
		 "functional": "B3LYP", 
		 "basiset": "6-31G**", 
		 "properties": { 
			 "R2extent": 5229.5558, 
			 "electric_dipole_moment_norm": 2.62468022052, 
			 "electric_quadrupole_moment_norm": 33.8067173374, 
			 "total_energy": -1116.30668528, 
			 "HOMO_LUMO_gap": 0.16383, 
			 "cosmo_polarized_energy": -17.35, 
			 "cosmo_cavitation_energy": 28.71, 
			 "cosmo_dispersion_energy": -21.1, 
			 "cosmo_repulsion_energy": 1.56, 
			 "cosmo_total_nonelectrostatic_energy": 9.18, 
			 "SMD_solvation_energy": 5.2 
		},
		"coords": [
			{
				"x": -2.8074927647,
				"y": -2.9296201925,
				"z": -1.2628046464,
				"element": "N" 
			},
			{
				"x": -1.9605020877,
				"y": -3.257290573,
				"z": -0.2498314592,
				"element": "C" 
			},
			{
				"x": -1.973701338,
				"y": -4.7650444324,
				"z": 0.4850537793,
				"element": "S" 
			},
			{
				"x": -1.0761439039,
				"y": -2.2904456899,
				"z": 0.1638186727,
				"element": "N" 
			},
			{
				"x": -0.9465854235,
				"y": -0.9370966773,
				"z": -0.2077167964,
				"element": "C" 
			},
			{
				"x": -2.0487826954,
				"y": -0.1242808101,
				"z": -0.5227825945,
				"element": "C" 
			},
			{
				"x": -1.8536101448,
				"y": 1.213861149,
				"z": -0.8560516844,
				"element": "C" 
			},
			{
				"x": -0.5712770387,
				"y": 1.7657406059,
				"z": -0.8609878611,
				"element": "C" 
			},
			{
				"x": 0.5249084828,
				"y": 0.9661637782,
				"z": -0.5225396242,
				"element": "C" 
			},
			{
				"x": 0.340955162,
				"y": -0.3737161173,
				"z": -0.2053825871,
				"element": "C" 
			},
			{
				"x": -0.3761306042,
				"y": 3.2255788677,
				"z": -1.1623185198,
				"element": "C" 
			},
			{
				"x": 0.8263831584,
				"y": 3.4625227115,
				"z": -1.7321364355,
				"element": "F" 
			},
			{
				"x": -0.4335263386,
				"y": 3.981282291,
				"z": -0.0411280069,
				"element": "F" 
			},
			{
				"x": -1.3264135966,
				"y": 3.69563891,
				"z": -2.0005714817,
				"element": "F" 
			},
			{
				"x": -3.3442434794,
				"y": -3.6978051231,
				"z": -1.6356080032,
				"element": "H" 
			},
			{
				"x": -2.5838287469,
				"y": -2.1704574899,
				"z": -1.8919796725,
				"element": "H" 
			},
			{
				"x": -0.3998625905,
				"y": -2.6492257123,
				"z": 0.8242306599,
				"element": "H" 
			},
			{
				"x": -3.0537028293,
				"y": -0.5264616382,
				"z": -0.4746546136,
				"element": "H" 
			},
			{
				"x": -2.7080103283,
				"y": 1.8349822306,
				"z": -1.1024907391,
				"element": "H" 
			},
			{
				"x": 1.5237860782,
				"y": 1.3887815544,
				"z": -0.5276596072,
				"element": "H" 
			},
			{
				"x": 1.1965810293,
				"y": -0.9983076424,
				"z": 0.034441221,
				"element": "H" 
			}
		],
		 "valence_orbital": [ 
			{
				"type": "occ",
				"energy": -0.32383,
				"method": "rhf"
			},
			{
				"type": "occ",
				"energy": -0.28573,
				"method": "rhf"
			},
			{
				"type": "occ",
				"energy": -0.26201,
				"method": "rhf"
			},
			{
				"type": "occ",
				"energy": -0.22228,
				"method": "rhf"
			},
			{
				"type": "occ",
				"energy": -0.21577,
				"method": "rhf"
			},
			{
				"type": "unocc",
				"energy": -0.05194,
				"method": "rhf"
			},
			{
				"type": "unocc",
				"energy": -0.03708,
				"method": "rhf"
			},
			{
				"type": "unocc",
				"energy": 0.00096,
				"method": "rhf"
			},
			{
				"type": "unocc",
				"energy": 0.05862,
				"method": "rhf"
			},
			{
				"type": "unocc",
				"energy": 0.07804,
				"method": "rhf"
			}
		],
		"cosmo_sigma_profile": { 
			"-0.025": 0.0,
			"-0.024": 0.0,
			"-0.023": 0.0,
			"-0.022": 0.0,
			"-0.021": 0.0,
			"-0.02": 0.0,
			"-0.019": 0.0,
			"-0.018": 0.0,
			"-0.017": 0.0,
			"-0.016": 0.0,
			"-0.015": 1.23495102859,
			"-0.014": 2.82254057952,
			"-0.013": 3.24912279725,
			"-0.012": 4.04902619412,
			"-0.011": 3.15803786626,
			"-0.01": 3.33416707305,
			"-0.009": 2.86430145435,
			"-0.008": 4.56850011443,
			"-0.007": 9.20812837303,
			"-0.006": 9.88875294986,
			"-0.005": 9.01412250656,
			"-0.004": 8.73205622652,
			"-0.003": 8.67705622158,
			"-0.002": 9.68564007937,
			"-0.001": 12.1075571358,
			"0.0": 15.1233403454,
			"0.001": 17.6669831364,
			"0.002": 29.1316628113,
			"0.003": 35.1873023853,
			"0.004": 6.54997898313,
			"0.005": 3.52088903355,
			"0.006": 3.2377695953,
			"0.007": 3.27247312742,
			"0.008": 4.10199195831,
			"0.009": 4.30528541469,
			"0.01": 6.5518900828,
			"0.011": 7.58716050094,
			"0.012": 3.65692789469,
			"0.013": 0.232236897484,
			"0.014": 0.0,
			"0.015": 0.0,
			"0.016": 0.0,
			"0.017": 0.0,
			"0.018": 0.0,
			"0.019": 0.0,
			"0.02": 0.0,
			"0.021": 0.0,
			"0.022": 0.0,
			"0.023": 0.0,
			"0.024": 0.0,
			"0.025": 0.0
		}
	}
}
