{
	 "smiles": "CS(=O)C1=CC=CC(CC(O)=O)=C1", 
	 "Tm": 384.15, 
	 "num_atms": 23, 
	 "gaussian": { 
		 "optdone": 1, 
		 "sigma_profile": "yes", 
		 "theory": "DFT", 
		 "functional": "B3LYP", 
		 "basiset": "6-31G**", 
		 "properties": { 
			 "R2extent": 3538.1349, 
			 "electric_dipole_moment_norm": 5.73654377914, 
			 "electric_quadrupole_moment_norm": 23.9099445196, 
			 "total_energy": -972.8020807, 
			 "HOMO_LUMO_gap": 0.19348, 
			 "cosmo_polarized_energy": -21.04, 
			 "cosmo_cavitation_energy": 28.88, 
			 "cosmo_dispersion_energy": -20.77, 
			 "cosmo_repulsion_energy": 1.62, 
			 "cosmo_total_nonelectrostatic_energy": 9.73, 
			 "SMD_solvation_energy": 5.9 
		},
		"coords": [
			{
				"x": -1.6286463778,
				"y": 2.3244611058,
				"z": 2.4630479363,
				"element": "C" 
			},
			{
				"x": -1.2457090091,
				"y": 0.6379134422,
				"z": 3.0860748054,
				"element": "S" 
			},
			{
				"x": 0.2453795343,
				"y": 0.5833361962,
				"z": 3.3324408452,
				"element": "O" 
			},
			{
				"x": -1.5485114025,
				"y": -0.235561252,
				"z": 1.5087052968,
				"element": "C" 
			},
			{
				"x": -2.8423099813,
				"y": -0.4548471622,
				"z": 1.0370539551,
				"element": "C" 
			},
			{
				"x": -3.0137127656,
				"y": -1.1832853819,
				"z": -0.1421583358,
				"element": "C" 
			},
			{
				"x": -1.9074742543,
				"y": -1.6914370562,
				"z": -0.823668945,
				"element": "C" 
			},
			{
				"x": -0.6063993513,
				"y": -1.4889034558,
				"z": -0.3379596895,
				"element": "C" 
			},
			{
				"x": 0.590270299,
				"y": -2.0229169738,
				"z": -1.094248221,
				"element": "C" 
			},
			{
				"x": 1.1119552754,
				"y": -1.1142385895,
				"z": -2.2203349389,
				"element": "C" 
			},
			{
				"x": 1.0008656254,
				"y": 0.2190420686,
				"z": -2.0129615157,
				"element": "O" 
			},
			{
				"x": 1.6306255543,
				"y": -1.5440022468,
				"z": -3.2190495268,
				"element": "O" 
			},
			{
				"x": -0.437922233,
				"y": -0.7549738435,
				"z": 0.845892505,
				"element": "C" 
			},
			{
				"x": -2.6648309207,
				"y": 2.3649644086,
				"z": 2.1188233838,
				"element": "H" 
			},
			{
				"x": -1.4836726133,
				"y": 3.0105926549,
				"z": 3.3001589756,
				"element": "H" 
			},
			{
				"x": -0.9377429774,
				"y": 2.5696961305,
				"z": 1.6536720764,
				"element": "H" 
			},
			{
				"x": -3.7055368449,
				"y": -0.074981941,
				"z": 1.5775563031,
				"element": "H" 
			},
			{
				"x": -4.0136383604,
				"y": -1.3620048345,
				"z": -0.5262339454,
				"element": "H" 
			},
			{
				"x": -2.0533208596,
				"y": -2.2624236651,
				"z": -1.7366781572,
				"element": "H" 
			},
			{
				"x": 0.375898138,
				"y": -2.9884236619,
				"z": -1.5570732009,
				"element": "H" 
			},
			{
				"x": 1.430925773,
				"y": -2.1777815167,
				"z": -0.4065381921,
				"element": "H" 
			},
			{
				"x": 0.5198571365,
				"y": 0.3848760418,
				"z": -1.1867496552,
				"element": "H" 
			},
			{
				"x": 0.5434506154,
				"y": -0.5964004675,
				"z": 1.2890282408,
				"element": "H" 
			}
		],
		 "valence_orbital": [ 
			{
				"type": "occ",
				"energy": -0.29242,
				"method": "rhf"
			},
			{
				"type": "occ",
				"energy": -0.28404,
				"method": "rhf"
			},
			{
				"type": "occ",
				"energy": -0.27978,
				"method": "rhf"
			},
			{
				"type": "occ",
				"energy": -0.26072,
				"method": "rhf"
			},
			{
				"type": "occ",
				"energy": -0.23893,
				"method": "rhf"
			},
			{
				"type": "unocc",
				"energy": -0.04545,
				"method": "rhf"
			},
			{
				"type": "unocc",
				"energy": -0.03692,
				"method": "rhf"
			},
			{
				"type": "unocc",
				"energy": 0.01126,
				"method": "rhf"
			},
			{
				"type": "unocc",
				"energy": 0.02779,
				"method": "rhf"
			},
			{
				"type": "unocc",
				"energy": 0.03548,
				"method": "rhf"
			}
		],
		"cosmo_sigma_profile": { 
			"-0.025": 0.0,
			"-0.024": 0.0,
			"-0.023": 0.0,
			"-0.022": 0.0,
			"-0.021": 0.0,
			"-0.02": 0.0,
			"-0.019": 0.0,
			"-0.018": 0.0,
			"-0.017": 0.0,
			"-0.016": 0.0,
			"-0.015": 0.0186365554309,
			"-0.014": 0.456120987431,
			"-0.013": 0.723434885957,
			"-0.012": 1.41776942848,
			"-0.011": 1.6862587811,
			"-0.01": 1.71305352718,
			"-0.009": 3.17953510526,
			"-0.008": 7.81444008773,
			"-0.007": 16.8000265559,
			"-0.006": 17.0572513205,
			"-0.005": 17.7098435217,
			"-0.004": 16.0641834106,
			"-0.003": 17.1459498489,
			"-0.002": 15.1588632284,
			"-0.001": 11.3320998487,
			"0.0": 11.0593877431,
			"0.001": 10.1713441833,
			"0.002": 12.3397127574,
			"0.003": 12.2694036993,
			"0.004": 5.85719358792,
			"0.005": 2.72577978592,
			"0.006": 3.65085121671,
			"0.007": 4.07150362467,
			"0.008": 4.25286720334,
			"0.009": 3.51920575314,
			"0.01": 6.52325677696,
			"0.011": 6.12135069221,
			"0.012": 6.76796225182,
			"0.013": 5.50735661127,
			"0.014": 3.73383635458,
			"0.015": 3.57921112501,
			"0.016": 0.465280760108,
			"0.017": 0.0,
			"0.018": 0.0,
			"0.019": 0.0,
			"0.02": 0.0,
			"0.021": 0.0,
			"0.022": 0.0,
			"0.023": 0.0,
			"0.024": 0.0,
			"0.025": 0.0
		}
	}
}
