{
	 "smiles": "OC(=O)C1=NSC(Cl)=C1Cl", 
	 "Tm": 442.15, 
	 "num_atms": 11, 
	 "gaussian": { 
		 "optdone": 1, 
		 "sigma_profile": "yes", 
		 "theory": "DFT", 
		 "functional": "B3LYP", 
		 "basiset": "6-31G**", 
		 "properties": { 
			 "R2extent": 3744.5638, 
			 "electric_dipole_moment_norm": 1.86248348986, 
			 "electric_quadrupole_moment_norm": 19.518984854, 
			 "total_energy": -1676.76742454, 
			 "HOMO_LUMO_gap": 0.19244, 
			 "cosmo_polarized_energy": -10.72, 
			 "cosmo_cavitation_energy": 21.87, 
			 "cosmo_dispersion_energy": -17.15, 
			 "cosmo_repulsion_energy": 1.36, 
			 "cosmo_total_nonelectrostatic_energy": 6.08, 
			 "SMD_solvation_energy": 3.33 
		},
		"coords": [
			{
				"x": 2.8421462567,
				"y": -0.7803105708,
				"z": 2.1877403889,
				"element": "O" 
			},
			{
				"x": 2.0810864104,
				"y": -0.2688088741,
				"z": 3.1763128376,
				"element": "C" 
			},
			{
				"x": 2.2663701091,
				"y": -0.4985657874,
				"z": 4.3477421027,
				"element": "O" 
			},
			{
				"x": 0.9785081832,
				"y": 0.6151869134,
				"z": 2.6653089877,
				"element": "C" 
			},
			{
				"x": 0.2017462237,
				"y": 1.1426318946,
				"z": 3.5969435346,
				"element": "N" 
			},
			{
				"x": -0.9694102115,
				"y": 2.0927332097,
				"z": 2.9065792506,
				"element": "S" 
			},
			{
				"x": -0.439332898,
				"y": 1.8052699172,
				"z": 1.2870149823,
				"element": "C" 
			},
			{
				"x": -1.2070984317,
				"y": 2.495762437,
				"z": -0.0834630625,
				"element": "Cl" 
			},
			{
				"x": 0.6521003007,
				"y": 0.9659795693,
				"z": 1.3068319558,
				"element": "C" 
			},
			{
				"x": 1.4545800747,
				"y": 0.4562928437,
				"z": -0.1350181703,
				"element": "Cl" 
			},
			{
				"x": 3.5146039826,
				"y": -1.3293715527,
				"z": 2.6259071927,
				"element": "H" 
			}
		],
		 "valence_orbital": [ 
			{
				"type": "occ",
				"energy": -0.33354,
				"method": "rhf"
			},
			{
				"type": "occ",
				"energy": -0.31287,
				"method": "rhf"
			},
			{
				"type": "occ",
				"energy": -0.29318,
				"method": "rhf"
			},
			{
				"type": "occ",
				"energy": -0.29096,
				"method": "rhf"
			},
			{
				"type": "occ",
				"energy": -0.27249,
				"method": "rhf"
			},
			{
				"type": "unocc",
				"energy": -0.08005,
				"method": "rhf"
			},
			{
				"type": "unocc",
				"energy": -0.02937,
				"method": "rhf"
			},
			{
				"type": "unocc",
				"energy": -0.02796,
				"method": "rhf"
			},
			{
				"type": "unocc",
				"energy": -0.0015,
				"method": "rhf"
			},
			{
				"type": "unocc",
				"energy": 0.02331,
				"method": "rhf"
			}
		],
		"cosmo_sigma_profile": { 
			"-0.025": 0.0,
			"-0.024": 0.0,
			"-0.023": 0.0,
			"-0.022": 0.0,
			"-0.021": 0.0,
			"-0.02": 0.0800855832759,
			"-0.019": 0.805989610532,
			"-0.018": 1.05778822603,
			"-0.017": 0.916733380797,
			"-0.016": 0.652961708575,
			"-0.015": 0.431252937842,
			"-0.014": 0.50169662312,
			"-0.013": 0.796884853439,
			"-0.012": 1.13321099153,
			"-0.011": 0.657934187511,
			"-0.01": 0.877387498919,
			"-0.009": 0.363937113537,
			"-0.008": 0.74971731807,
			"-0.007": 1.38198930658,
			"-0.006": 4.44817745122,
			"-0.005": 9.81029269842,
			"-0.004": 14.1121247678,
			"-0.003": 19.2162030513,
			"-0.002": 18.8535989938,
			"-0.001": 15.5106363514,
			"0.0": 14.3980105918,
			"0.001": 13.6675379838,
			"0.002": 16.154731406,
			"0.003": 11.5312317896,
			"0.004": 4.60529352246,
			"0.005": 3.25313940284,
			"0.006": 2.85648497093,
			"0.007": 4.8783736186,
			"0.008": 2.91578927968,
			"0.009": 2.30137218817,
			"0.01": 4.31791507525,
			"0.011": 5.17741277837,
			"0.012": 2.35837521818,
			"0.013": 1.34181385721,
			"0.014": 1.48622461268,
			"0.015": 0.0539697876932,
			"0.016": 0.0,
			"0.017": 0.0,
			"0.018": 0.0,
			"0.019": 0.0,
			"0.02": 0.0,
			"0.021": 0.0,
			"0.022": 0.0,
			"0.023": 0.0,
			"0.024": 0.0,
			"0.025": 0.0
		}
	}
}
