{
	 "smiles": "CCC(C)OC", 
	 "Tm": 173.15, 
	 "num_atms": 18, 
	 "gaussian": { 
		 "optdone": 1, 
		 "sigma_profile": "yes", 
		 "theory": "DFT", 
		 "functional": "B3LYP", 
		 "basiset": "6-31G**", 
		 "properties": { 
			 "R2extent": 1283.7006, 
			 "electric_dipole_moment_norm": 1.10834857784, 
			 "electric_quadrupole_moment_norm": 3.27669338663, 
			 "total_energy": -272.985048774, 
			 "HOMO_LUMO_gap": 0.33229, 
			 "cosmo_polarized_energy": -3.5, 
			 "cosmo_cavitation_energy": 19.62, 
			 "cosmo_dispersion_energy": -14.45, 
			 "cosmo_repulsion_energy": 1.25, 
			 "cosmo_total_nonelectrostatic_energy": 6.42, 
			 "SMD_solvation_energy": 4.11 
		},
		"coords": [
			{
				"x": 0.9626157115,
				"y": 0.9519092276,
				"z": -1.622005572,
				"element": "C" 
			},
			{
				"x": -0.0516658512,
				"y": 0.5223235141,
				"z": -0.5574864388,
				"element": "C" 
			},
			{
				"x": -0.7982034962,
				"y": 1.6800635538,
				"z": 0.1139368349,
				"element": "C" 
			},
			{
				"x": 0.1169219018,
				"y": 2.6016121594,
				"z": 0.9262200344,
				"element": "C" 
			},
			{
				"x": -1.7907262128,
				"y": 1.071632626,
				"z": 0.9424137794,
				"element": "O" 
			},
			{
				"x": -2.8542361718,
				"y": 1.9189232489,
				"z": 1.3177589764,
				"element": "C" 
			},
			{
				"x": 1.4026217915,
				"y": 0.0773435142,
				"z": -2.1113339325,
				"element": "H" 
			},
			{
				"x": 0.4901149153,
				"y": 1.5618429736,
				"z": -2.4009571974,
				"element": "H" 
			},
			{
				"x": 1.7851450675,
				"y": 1.5356511953,
				"z": -1.1964959793,
				"element": "H" 
			},
			{
				"x": -0.8068911768,
				"y": -0.1329505323,
				"z": -1.0059959462,
				"element": "H" 
			},
			{
				"x": 0.4445946476,
				"y": -0.0670303739,
				"z": 0.2241125336,
				"element": "H" 
			},
			{
				"x": -1.3032149143,
				"y": 2.2751382959,
				"z": -0.6688093584,
				"element": "H" 
			},
			{
				"x": -0.4495083937,
				"y": 3.3980095098,
				"z": 1.4180920195,
				"element": "H" 
			},
			{
				"x": 0.8632983786,
				"y": 3.0818830608,
				"z": 0.2862060861,
				"element": "H" 
			},
			{
				"x": 0.6392255418,
				"y": 2.0272675521,
				"z": 1.6987457479,
				"element": "H" 
			},
			{
				"x": -3.5780718398,
				"y": 1.3033132477,
				"z": 1.8585128113,
				"element": "H" 
			},
			{
				"x": -3.3538258355,
				"y": 2.3605450096,
				"z": 0.4402200596,
				"element": "H" 
			},
			{
				"x": -2.5381940634,
				"y": 2.7392222175,
				"z": 1.9793655415,
				"element": "H" 
			}
		],
		 "valence_orbital": [ 
			{
				"type": "occ",
				"energy": -0.35502,
				"method": "rhf"
			},
			{
				"type": "occ",
				"energy": -0.33131,
				"method": "rhf"
			},
			{
				"type": "occ",
				"energy": -0.32592,
				"method": "rhf"
			},
			{
				"type": "occ",
				"energy": -0.29948,
				"method": "rhf"
			},
			{
				"type": "occ",
				"energy": -0.24629,
				"method": "rhf"
			},
			{
				"type": "unocc",
				"energy": 0.086,
				"method": "rhf"
			},
			{
				"type": "unocc",
				"energy": 0.11088,
				"method": "rhf"
			},
			{
				"type": "unocc",
				"energy": 0.12929,
				"method": "rhf"
			},
			{
				"type": "unocc",
				"energy": 0.13151,
				"method": "rhf"
			},
			{
				"type": "unocc",
				"energy": 0.14589,
				"method": "rhf"
			}
		],
		"cosmo_sigma_profile": { 
			"-0.025": 0.0,
			"-0.024": 0.0,
			"-0.023": 0.0,
			"-0.022": 0.0,
			"-0.021": 0.0,
			"-0.02": 0.0,
			"-0.019": 0.0,
			"-0.018": 0.0,
			"-0.017": 0.0,
			"-0.016": 0.0,
			"-0.015": 0.0,
			"-0.014": 0.0,
			"-0.013": 0.0,
			"-0.012": 0.0,
			"-0.011": 0.0,
			"-0.01": 0.0,
			"-0.009": 0.0,
			"-0.008": 0.0,
			"-0.007": 0.0,
			"-0.006": 0.0,
			"-0.005": 0.77514039204,
			"-0.004": 5.47670789477,
			"-0.003": 20.799039212,
			"-0.002": 30.3185896737,
			"-0.001": 27.5743060154,
			"0.0": 21.7106126222,
			"0.001": 18.8433805848,
			"0.002": 7.20869922968,
			"0.003": 3.07176742885,
			"0.004": 1.93082222024,
			"0.005": 1.19794167145,
			"0.006": 1.42384437854,
			"0.007": 2.01217027163,
			"0.008": 1.22568071642,
			"0.009": 1.83686626835,
			"0.01": 1.18796356809,
			"0.011": 0.919865589376,
			"0.012": 1.09687167227,
			"0.013": 1.61553401159,
			"0.014": 1.01956977848,
			"0.015": 0.0,
			"0.016": 0.0,
			"0.017": 0.0,
			"0.018": 0.0,
			"0.019": 0.0,
			"0.02": 0.0,
			"0.021": 0.0,
			"0.022": 0.0,
			"0.023": 0.0,
			"0.024": 0.0,
			"0.025": 0.0
		}
	}
}
