{
	 "smiles": "O=S(=O)(N1CCCNCC1)C1=C2C=CN=CC2=CC=C1", 
	 "Tm": 420.15, 
	 "num_atms": 37, 
	 "gaussian": { 
		 "optdone": 1, 
		 "sigma_profile": "yes", 
		 "theory": "DFT", 
		 "functional": "B3LYP", 
		 "basiset": "6-31G**", 
		 "properties": { 
			 "R2extent": 6070.5417, 
			 "electric_dipole_moment_norm": 3.41076612655, 
			 "electric_quadrupole_moment_norm": 25.9485114182, 
			 "total_energy": -1256.53497648, 
			 "HOMO_LUMO_gap": 0.14412, 
			 "cosmo_polarized_energy": -17.36, 
			 "cosmo_cavitation_energy": 38.56, 
			 "cosmo_dispersion_energy": -27.33, 
			 "cosmo_repulsion_energy": 2.01, 
			 "cosmo_total_nonelectrostatic_energy": 13.25, 
			 "SMD_solvation_energy": 1.36 
		},
		"coords": [
			{
				"x": 1.4707110141,
				"y": 2.9214940466,
				"z": 2.3867912116,
				"element": "O" 
			},
			{
				"x": 0.6235761766,
				"y": 2.4366033166,
				"z": 1.2867937337,
				"element": "S" 
			},
			{
				"x": -0.0843167475,
				"y": 3.3988424949,
				"z": 0.4346120561,
				"element": "O" 
			},
			{
				"x": 1.4955435784,
				"y": 1.4331299022,
				"z": 0.2332642945,
				"element": "N" 
			},
			{
				"x": 2.3892083495,
				"y": 0.4611253708,
				"z": 0.8948198727,
				"element": "C" 
			},
			{
				"x": 2.5126017076,
				"y": -0.8695867141,
				"z": 0.0899833955,
				"element": "C" 
			},
			{
				"x": 1.7663756689,
				"y": -0.8920276082,
				"z": -1.2473796319,
				"element": "C" 
			},
			{
				"x": 2.3861948532,
				"y": -0.0206548079,
				"z": -2.2582539355,
				"element": "N" 
			},
			{
				"x": 2.9556687994,
				"y": 1.2313455377,
				"z": -1.7808535987,
				"element": "C" 
			},
			{
				"x": 2.069331178,
				"y": 2.1580068625,
				"z": -0.9292104453,
				"element": "C" 
			},
			{
				"x": -0.5623646052,
				"y": 1.2832424722,
				"z": 2.0063939991,
				"element": "C" 
			},
			{
				"x": -1.5901959964,
				"y": 0.6667489207,
				"z": 1.2257722926,
				"element": "C" 
			},
			{
				"x": -1.8111938737,
				"y": 0.857104023,
				"z": -0.1634559169,
				"element": "C" 
			},
			{
				"x": -2.838367259,
				"y": 0.1787885671,
				"z": -0.7807763303,
				"element": "C" 
			},
			{
				"x": -3.6827477517,
				"y": -0.6826183738,
				"z": -0.1506997241,
				"element": "N" 
			},
			{
				"x": -3.4987072192,
				"y": -0.8598804303,
				"z": 1.1395695191,
				"element": "C" 
			},
			{
				"x": -2.4811278349,
				"y": -0.223631219,
				"z": 1.9041591363,
				"element": "C" 
			},
			{
				"x": -2.3469960978,
				"y": -0.4526208981,
				"z": 3.2977466674,
				"element": "C" 
			},
			{
				"x": -1.360120531,
				"y": 0.1787053596,
				"z": 4.0175626043,
				"element": "C" 
			},
			{
				"x": -0.4610303808,
				"y": 1.0531569677,
				"z": 3.3629091798,
				"element": "C" 
			},
			{
				"x": 3.3753934722,
				"y": 0.908064223,
				"z": 1.0749439753,
				"element": "H" 
			},
			{
				"x": 1.9684467212,
				"y": 0.2488089558,
				"z": 1.8793915207,
				"element": "H" 
			},
			{
				"x": 2.114120737,
				"y": -1.6884423095,
				"z": 0.6980067534,
				"element": "H" 
			},
			{
				"x": 3.570153634,
				"y": -1.0981564465,
				"z": -0.0812861415,
				"element": "H" 
			},
			{
				"x": 1.7835891203,
				"y": -1.9200903177,
				"z": -1.6318583585,
				"element": "H" 
			},
			{
				"x": 0.7137343191,
				"y": -0.6377575929,
				"z": -1.0569584934,
				"element": "H" 
			},
			{
				"x": 1.7217055466,
				"y": 0.158593715,
				"z": -3.0046848858,
				"element": "H" 
			},
			{
				"x": 3.8730247742,
				"y": 1.0068676074,
				"z": -1.2244369699,
				"element": "H" 
			},
			{
				"x": 3.2790450618,
				"y": 1.8104070651,
				"z": -2.6532477434,
				"element": "H" 
			},
			{
				"x": 2.6831671813,
				"y": 3.0130926325,
				"z": -0.6060305531,
				"element": "H" 
			},
			{
				"x": 1.2390797458,
				"y": 2.5528354927,
				"z": -1.5190633698,
				"element": "H" 
			},
			{
				"x": -1.1971151696,
				"y": 1.547189786,
				"z": -0.7259843767,
				"element": "H" 
			},
			{
				"x": -3.0218650039,
				"y": 0.3187440957,
				"z": -1.8434861345,
				"element": "H" 
			},
			{
				"x": -4.1808243528,
				"y": -1.5440266194,
				"z": 1.646081634,
				"element": "H" 
			},
			{
				"x": -3.0414308531,
				"y": -1.1318581596,
				"z": 3.7852873807,
				"element": "H" 
			},
			{
				"x": -1.25969723,
				"y": 0.0124689172,
				"z": 5.0852564559,
				"element": "H" 
			},
			{
				"x": 0.3209292672,
				"y": 1.557285165,
				"z": 3.9203209267,
				"element": "H" 
			}
		],
		 "valence_orbital": [ 
			{
				"type": "occ",
				"energy": -0.28156,
				"method": "rhf"
			},
			{
				"type": "occ",
				"energy": -0.26459,
				"method": "rhf"
			},
			{
				"type": "occ",
				"energy": -0.25526,
				"method": "rhf"
			},
			{
				"type": "occ",
				"energy": -0.24623,
				"method": "rhf"
			},
			{
				"type": "occ",
				"energy": -0.21914,
				"method": "rhf"
			},
			{
				"type": "unocc",
				"energy": -0.07502,
				"method": "rhf"
			},
			{
				"type": "unocc",
				"energy": -0.04034,
				"method": "rhf"
			},
			{
				"type": "unocc",
				"energy": -0.00322,
				"method": "rhf"
			},
			{
				"type": "unocc",
				"energy": 0.0536,
				"method": "rhf"
			},
			{
				"type": "unocc",
				"energy": 0.0625,
				"method": "rhf"
			}
		],
		"cosmo_sigma_profile": { 
			"-0.025": 0.0,
			"-0.024": 0.0,
			"-0.023": 0.0,
			"-0.022": 0.0,
			"-0.021": 0.0,
			"-0.02": 0.0,
			"-0.019": 0.0,
			"-0.018": 0.0,
			"-0.017": 0.0,
			"-0.016": 0.0,
			"-0.015": 0.0,
			"-0.014": 0.0,
			"-0.013": 0.0,
			"-0.012": 0.0,
			"-0.011": 0.0,
			"-0.01": 0.851607796262,
			"-0.009": 1.78072964363,
			"-0.008": 5.56444148381,
			"-0.007": 11.2153011153,
			"-0.006": 12.7115948745,
			"-0.005": 21.9973932197,
			"-0.004": 32.3433122776,
			"-0.003": 26.790964197,
			"-0.002": 26.1940763411,
			"-0.001": 25.0230259021,
			"0.0": 33.7882770853,
			"0.001": 23.4174989475,
			"0.002": 15.6491142983,
			"0.003": 6.91865596301,
			"0.004": 7.52726756092,
			"0.005": 4.87500252581,
			"0.006": 3.89919474844,
			"0.007": 4.49230093826,
			"0.008": 6.05825261847,
			"0.009": 5.40673227993,
			"0.01": 7.58910727767,
			"0.011": 9.05337421695,
			"0.012": 5.36008097373,
			"0.013": 1.17735487616,
			"0.014": 1.56559820163,
			"0.015": 1.79716376661,
			"0.016": 1.05328825179,
			"0.017": 0.528332503201,
			"0.018": 0.341334251201,
			"0.019": 0.0260222502132,
			"0.02": 0.0,
			"0.021": 0.0,
			"0.022": 0.0,
			"0.023": 0.0,
			"0.024": 0.0,
			"0.025": 0.0
		}
	}
}
