{
	 "smiles": "CSC1=NC2=C(O1)C=NC=C2", 
	 "Tm": 353.15, 
	 "num_atms": 17, 
	 "gaussian": { 
		 "optdone": 1, 
		 "sigma_profile": "yes", 
		 "theory": "DFT", 
		 "functional": "B3LYP", 
		 "basiset": "6-31G**", 
		 "properties": { 
			 "R2extent": 2594.6248, 
			 "electric_dipole_moment_norm": 2.93859297794, 
			 "electric_quadrupole_moment_norm": 3.88616705379, 
			 "total_energy": -853.260193467, 
			 "HOMO_LUMO_gap": 0.19982, 
			 "cosmo_polarized_energy": -7.94, 
			 "cosmo_cavitation_energy": 23.31, 
			 "cosmo_dispersion_energy": -18.19, 
			 "cosmo_repulsion_energy": 1.4, 
			 "cosmo_total_nonelectrostatic_energy": 6.52, 
			 "SMD_solvation_energy": 1.56 
		},
		"coords": [
			{
				"x": -2.8178571649,
				"y": 0.4274712814,
				"z": -2.1745487384,
				"element": "C" 
			},
			{
				"x": -1.1437810167,
				"y": 1.1277082617,
				"z": -2.3913053808,
				"element": "S" 
			},
			{
				"x": -0.2485697256,
				"y": -0.0233456972,
				"z": -1.4300114304,
				"element": "C" 
			},
			{
				"x": -0.6915002612,
				"y": -1.0545919025,
				"z": -0.7756350973,
				"element": "N" 
			},
			{
				"x": 0.4593536097,
				"y": -1.5965105776,
				"z": -0.202040614,
				"element": "C" 
			},
			{
				"x": 1.5633790819,
				"y": -0.8186202141,
				"z": -0.5678784227,
				"element": "C" 
			},
			{
				"x": 1.1019598438,
				"y": 0.2066143649,
				"z": -1.3682262261,
				"element": "O" 
			},
			{
				"x": 2.8502567926,
				"y": -1.1109447927,
				"z": -0.1479725326,
				"element": "C" 
			},
			{
				"x": 3.053930621,
				"y": -2.176406959,
				"z": 0.6378437863,
				"element": "N" 
			},
			{
				"x": 1.9997817418,
				"y": -2.9333084005,
				"z": 0.9971101853,
				"element": "C" 
			},
			{
				"x": 0.6752750089,
				"y": -2.7052753073,
				"z": 0.6163720352,
				"element": "C" 
			},
			{
				"x": -3.4850666467,
				"y": 1.0768287768,
				"z": -2.7439498253,
				"element": "H" 
			},
			{
				"x": -3.0962527753,
				"y": 0.4312551952,
				"z": -1.1207442458,
				"element": "H" 
			},
			{
				"x": -2.8564646576,
				"y": -0.589234793,
				"z": -2.5654913198,
				"element": "H" 
			},
			{
				"x": 3.709741753,
				"y": -0.5085363472,
				"z": -0.4305474906,
				"element": "H" 
			},
			{
				"x": 2.2337638343,
				"y": -3.7826452617,
				"z": 1.635396515,
				"element": "H" 
			},
			{
				"x": -0.132850039,
				"y": -3.3521576271,
				"z": 0.938828802,
				"element": "H" 
			}
		],
		 "valence_orbital": [ 
			{
				"type": "occ",
				"energy": -0.30632,
				"method": "rhf"
			},
			{
				"type": "occ",
				"energy": -0.30053,
				"method": "rhf"
			},
			{
				"type": "occ",
				"energy": -0.25979,
				"method": "rhf"
			},
			{
				"type": "occ",
				"energy": -0.25836,
				"method": "rhf"
			},
			{
				"type": "occ",
				"energy": -0.2402,
				"method": "rhf"
			},
			{
				"type": "unocc",
				"energy": -0.04038,
				"method": "rhf"
			},
			{
				"type": "unocc",
				"energy": -0.00592,
				"method": "rhf"
			},
			{
				"type": "unocc",
				"energy": 0.00858,
				"method": "rhf"
			},
			{
				"type": "unocc",
				"energy": 0.02584,
				"method": "rhf"
			},
			{
				"type": "unocc",
				"energy": 0.06394,
				"method": "rhf"
			}
		],
		"cosmo_sigma_profile": { 
			"-0.025": 0.0,
			"-0.024": 0.0,
			"-0.023": 0.0,
			"-0.022": 0.0,
			"-0.021": 0.0,
			"-0.02": 0.0,
			"-0.019": 0.0,
			"-0.018": 0.0,
			"-0.017": 0.0,
			"-0.016": 0.0,
			"-0.015": 0.0,
			"-0.014": 0.0,
			"-0.013": 0.0,
			"-0.012": 0.0,
			"-0.011": 0.0,
			"-0.01": 0.0,
			"-0.009": 0.291431097786,
			"-0.008": 4.52138186959,
			"-0.007": 8.32109155918,
			"-0.006": 10.5624894085,
			"-0.005": 11.4649194652,
			"-0.004": 12.3061756162,
			"-0.003": 15.3237220314,
			"-0.002": 13.7871139061,
			"-0.001": 15.4092415723,
			"0.0": 18.0047914157,
			"0.001": 17.0261707492,
			"0.002": 15.3517525435,
			"0.003": 10.5957027846,
			"0.004": 8.26344182082,
			"0.005": 7.1227031045,
			"0.006": 4.70171638944,
			"0.007": 2.23868044624,
			"0.008": 3.50616691866,
			"0.009": 1.91850450911,
			"0.01": 1.73588445407,
			"0.011": 1.69512078739,
			"0.012": 1.73313778502,
			"0.013": 1.44910772764,
			"0.014": 0.960152629993,
			"0.015": 0.928989644076,
			"0.016": 0.659694242098,
			"0.017": 0.155352334735,
			"0.018": 0.0,
			"0.019": 0.0,
			"0.02": 0.0,
			"0.021": 0.0,
			"0.022": 0.0,
			"0.023": 0.0,
			"0.024": 0.0,
			"0.025": 0.0
		}
	}
}
