{
	 "smiles": "ClCC(=O)C1=CC=C(I)C=C1", 
	 "Tm": 401.15, 
	 "num_atms": 17, 
	 "gaussian": { 
		 "optdone": 1, 
		 "sigma_profile": "yes", 
		 "theory": "DFT", 
		 "functional": "B3LYP", 
		 "basiset": "6-31G**", 
		 "properties": { 
			 "R2extent": 3656.7826, 
			 "electric_dipole_moment_norm": 3.34640741692, 
			 "electric_quadrupole_moment_norm": 19.7533695186, 
			 "total_energy": -855.263960686, 
			 "HOMO_LUMO_gap": 0.17858, 
			 "cosmo_polarized_energy": -11.87, 
			 "cosmo_cavitation_energy": 26.63, 
			 "cosmo_dispersion_energy": -21.13, 
			 "cosmo_repulsion_energy": 1.67, 
			 "cosmo_total_nonelectrostatic_energy": 7.16, 
			 "SMD_solvation_energy": 3.85 
		},
		"coords": [
			{
				"x": -5.099081616,
				"y": -1.9173778565,
				"z": -0.1936914477,
				"element": "Cl" 
			},
			{
				"x": -3.3153352134,
				"y": -1.9713671811,
				"z": -0.3065641067,
				"element": "C" 
			},
			{
				"x": -2.6427420276,
				"y": -0.6657474756,
				"z": 0.1344467618,
				"element": "C" 
			},
			{
				"x": -3.2848793221,
				"y": 0.2916794253,
				"z": 0.5170830207,
				"element": "O" 
			},
			{
				"x": -1.1448449793,
				"y": -0.6255263803,
				"z": 0.0701868696,
				"element": "C" 
			},
			{
				"x": -0.5114035177,
				"y": 0.5617295885,
				"z": 0.4692324413,
				"element": "C" 
			},
			{
				"x": 0.8741979102,
				"y": 0.6785199651,
				"z": 0.4385825933,
				"element": "C" 
			},
			{
				"x": 1.6404243176,
				"y": -0.4073989743,
				"z": 0.0025627787,
				"element": "C" 
			},
			{
				"x": 3.7495443045,
				"y": -0.2436710785,
				"z": -0.0494689308,
				"element": "I" 
			},
			{
				"x": 1.0334955291,
				"y": -1.5993233603,
				"z": -0.3994542384,
				"element": "C" 
			},
			{
				"x": -0.3566657607,
				"y": -1.7021484772,
				"z": -0.3635411157,
				"element": "C" 
			},
			{
				"x": -2.9667544598,
				"y": -2.7995740649,
				"z": 0.3161302582,
				"element": "H" 
			},
			{
				"x": -3.053481897,
				"y": -2.1940187314,
				"z": -1.3443741998,
				"element": "H" 
			},
			{
				"x": -1.1302481898,
				"y": 1.3879707636,
				"z": 0.8028795736,
				"element": "H" 
			},
			{
				"x": 1.3517276858,
				"y": 1.6008184677,
				"z": 0.7492870965,
				"element": "H" 
			},
			{
				"x": 1.6325086748,
				"y": -2.4375254477,
				"z": -0.7363160938,
				"element": "H" 
			},
			{
				"x": -0.8111614385,
				"y": -2.6356391823,
				"z": -0.6795812607,
				"element": "H" 
			}
		],
		 "valence_orbital": [ 
			{
				"type": "occ",
				"energy": -0.30236,
				"method": "rhf"
			},
			{
				"type": "occ",
				"energy": -0.2838,
				"method": "rhf"
			},
			{
				"type": "occ",
				"energy": -0.28199,
				"method": "rhf"
			},
			{
				"type": "occ",
				"energy": -0.27239,
				"method": "rhf"
			},
			{
				"type": "occ",
				"energy": -0.25694,
				"method": "rhf"
			},
			{
				"type": "unocc",
				"energy": -0.07836,
				"method": "rhf"
			},
			{
				"type": "unocc",
				"energy": -0.05193,
				"method": "rhf"
			},
			{
				"type": "unocc",
				"energy": -0.03338,
				"method": "rhf"
			},
			{
				"type": "unocc",
				"energy": 0.01202,
				"method": "rhf"
			},
			{
				"type": "unocc",
				"energy": 0.01953,
				"method": "rhf"
			}
		],
		"cosmo_sigma_profile": { 
			"-0.025": 0.0,
			"-0.024": 0.0,
			"-0.023": 0.0,
			"-0.022": 0.0,
			"-0.021": 0.0,
			"-0.02": 0.0,
			"-0.019": 0.0,
			"-0.018": 0.0,
			"-0.017": 0.0,
			"-0.016": 0.0,
			"-0.015": 0.0,
			"-0.014": 0.0,
			"-0.013": 0.0,
			"-0.012": 0.0,
			"-0.011": 0.0,
			"-0.01": 2.90812009017,
			"-0.009": 9.29712827502,
			"-0.008": 6.28967866804,
			"-0.007": 10.3257035818,
			"-0.006": 10.786161035,
			"-0.005": 9.92648558473,
			"-0.004": 9.95300349785,
			"-0.003": 9.26569487135,
			"-0.002": 10.6750556359,
			"-0.001": 12.5722090419,
			"0.0": 15.805144458,
			"0.001": 20.7056626664,
			"0.002": 25.3864810849,
			"0.003": 15.7149358472,
			"0.004": 17.7292395259,
			"0.005": 8.26110156866,
			"0.006": 8.01781364487,
			"0.007": 2.52727475627,
			"0.008": 2.75032184358,
			"0.009": 2.45682020852,
			"0.01": 3.31066949533,
			"0.011": 3.40454970004,
			"0.012": 2.13954071749,
			"0.013": 0.896580481097,
			"0.014": 0.0,
			"0.015": 0.0,
			"0.016": 0.0,
			"0.017": 0.0,
			"0.018": 0.0,
			"0.019": 0.0,
			"0.02": 0.0,
			"0.021": 0.0,
			"0.022": 0.0,
			"0.023": 0.0,
			"0.024": 0.0,
			"0.025": 0.0
		}
	}
}
