{
	 "smiles": "CC1=C(N=NN1CC1=CC=C(Br)C=C1)C(O)=O", 
	 "Tm": 465.15, 
	 "num_atms": 27, 
	 "gaussian": { 
		 "optdone": 1, 
		 "sigma_profile": "yes", 
		 "theory": "DFT", 
		 "functional": "B3LYP", 
		 "basiset": "6-31G**", 
		 "properties": { 
			 "R2extent": 8375.1195, 
			 "electric_dipole_moment_norm": 7.87595037757, 
			 "electric_quadrupole_moment_norm": 39.5741510244, 
			 "total_energy": -3311.27338802, 
			 "HOMO_LUMO_gap": 0.21715, 
			 "cosmo_polarized_energy": -26.15, 
			 "cosmo_cavitation_energy": 34.69, 
			 "cosmo_dispersion_energy": -24.62, 
			 "cosmo_repulsion_energy": 1.91, 
			 "cosmo_total_nonelectrostatic_energy": 11.98, 
			 "SMD_solvation_energy": 4.27 
		},
		"coords": [
			{
				"x": -0.826529874,
				"y": -2.2121365422,
				"z": -2.4320940446,
				"element": "C" 
			},
			{
				"x": 0.1817559998,
				"y": -2.4251872438,
				"z": -1.3484155875,
				"element": "C" 
			},
			{
				"x": 0.5528811862,
				"y": -3.5360375992,
				"z": -0.5967073199,
				"element": "C" 
			},
			{
				"x": 1.4942437232,
				"y": -3.1557380831,
				"z": 0.3208457146,
				"element": "N" 
			},
			{
				"x": 1.742484714,
				"y": -1.8940409966,
				"z": 0.1735484247,
				"element": "N" 
			},
			{
				"x": 0.951109891,
				"y": -1.4297272988,
				"z": -0.8352509769,
				"element": "N" 
			},
			{
				"x": 0.9658428012,
				"y": -0.0036226751,
				"z": -1.1526426698,
				"element": "C" 
			},
			{
				"x": -0.1981075954,
				"y": 0.7601158137,
				"z": -0.54772366,
				"element": "C" 
			},
			{
				"x": -0.9563263332,
				"y": 1.6351450215,
				"z": -1.3315860791,
				"element": "C" 
			},
			{
				"x": -2.0054028028,
				"y": 2.3700915172,
				"z": -0.7757151833,
				"element": "C" 
			},
			{
				"x": -2.2956683535,
				"y": 2.2164447743,
				"z": 0.577722526,
				"element": "C" 
			},
			{
				"x": -3.7320494985,
				"y": 3.2092865753,
				"z": 1.3487739773,
				"element": "Br" 
			},
			{
				"x": -1.5545746838,
				"y": 1.3462052287,
				"z": 1.3788332619,
				"element": "C" 
			},
			{
				"x": -0.5070778958,
				"y": 0.6233942286,
				"z": 0.8122201787,
				"element": "C" 
			},
			{
				"x": 0.0361173975,
				"y": -4.9299672381,
				"z": -0.6301341422,
				"element": "C" 
			},
			{
				"x": -0.3563820812,
				"y": -5.3751413004,
				"z": -1.8649093259,
				"element": "O" 
			},
			{
				"x": -0.0720864677,
				"y": -5.6382518388,
				"z": 0.3356492333,
				"element": "O" 
			},
			{
				"x": -0.3499970379,
				"y": -1.9758883506,
				"z": -3.3914928619,
				"element": "H" 
			},
			{
				"x": -1.4356225757,
				"y": -3.1082718,
				"z": -2.5632472691,
				"element": "H" 
			},
			{
				"x": -1.4980158072,
				"y": -1.3840505274,
				"z": -2.1845996157,
				"element": "H" 
			},
			{
				"x": 0.9813296669,
				"y": 0.1155504284,
				"z": -2.2398115467,
				"element": "H" 
			},
			{
				"x": 1.920212149,
				"y": 0.3617933763,
				"z": -0.7630822505,
				"element": "H" 
			},
			{
				"x": -0.7285303088,
				"y": 1.7540369352,
				"z": -2.3881150421,
				"element": "H" 
			},
			{
				"x": -2.5903113521,
				"y": 3.0474646461,
				"z": -1.3871985331,
				"element": "H" 
			},
			{
				"x": -1.7927801476,
				"y": 1.2373748259,
				"z": 2.4306470469,
				"element": "H" 
			},
			{
				"x": 0.0741119322,
				"y": -0.0545834158,
				"z": 1.4309098381,
				"element": "H" 
			},
			{
				"x": 0.0129733543,
				"y": -4.8018584614,
				"z": -2.5508240932,
				"element": "H" 
			}
		],
		 "valence_orbital": [ 
			{
				"type": "occ",
				"energy": -0.28254,
				"method": "rhf"
			},
			{
				"type": "occ",
				"energy": -0.28152,
				"method": "rhf"
			},
			{
				"type": "occ",
				"energy": -0.2807,
				"method": "rhf"
			},
			{
				"type": "occ",
				"energy": -0.2691,
				"method": "rhf"
			},
			{
				"type": "occ",
				"energy": -0.25715,
				"method": "rhf"
			},
			{
				"type": "unocc",
				"energy": -0.04,
				"method": "rhf"
			},
			{
				"type": "unocc",
				"energy": -0.03378,
				"method": "rhf"
			},
			{
				"type": "unocc",
				"energy": -0.03116,
				"method": "rhf"
			},
			{
				"type": "unocc",
				"energy": -0.01694,
				"method": "rhf"
			},
			{
				"type": "unocc",
				"energy": -0.0051,
				"method": "rhf"
			}
		],
		"cosmo_sigma_profile": { 
			"-0.025": 0.0,
			"-0.024": 0.0,
			"-0.023": 0.0,
			"-0.022": 0.0,
			"-0.021": 0.0,
			"-0.02": 0.0,
			"-0.019": 0.136886186751,
			"-0.018": 0.659704363265,
			"-0.017": 1.11702249947,
			"-0.016": 1.14976942834,
			"-0.015": 0.689675908777,
			"-0.014": 0.835407087251,
			"-0.013": 1.12357690304,
			"-0.012": 1.13786308968,
			"-0.011": 1.37079933224,
			"-0.01": 0.416197816849,
			"-0.009": 2.78291885694,
			"-0.008": 8.74025997714,
			"-0.007": 15.3613393621,
			"-0.006": 17.6462715615,
			"-0.005": 18.0994098225,
			"-0.004": 18.410166416,
			"-0.003": 20.6989156958,
			"-0.002": 18.3694815028,
			"-0.001": 12.7253115353,
			"0.0": 12.9569088902,
			"0.001": 14.7696190809,
			"0.002": 19.4724525401,
			"0.003": 20.4466258175,
			"0.004": 14.4657044146,
			"0.005": 8.64062351914,
			"0.006": 4.12760926037,
			"0.007": 3.04682620404,
			"0.008": 5.31876167488,
			"0.009": 6.99687788268,
			"0.01": 8.68134614774,
			"0.011": 8.81664123187,
			"0.012": 7.28718700606,
			"0.013": 2.88338033013,
			"0.014": 1.22608072506,
			"0.015": 0.516150702892,
			"0.016": 0.0,
			"0.017": 0.0,
			"0.018": 0.0,
			"0.019": 0.0,
			"0.02": 0.0,
			"0.021": 0.0,
			"0.022": 0.0,
			"0.023": 0.0,
			"0.024": 0.0,
			"0.025": 0.0
		}
	}
}
