{
	 "smiles": "OC1=CC=C(C=C1)N1C(=O)C2ON=C(C2C1=O)C(=O)C1=CC=C(C=C1)[N+]([O-])=O", 
	 "Tm": 486.15, 
	 "num_atms": 39, 
	 "gaussian": { 
		 "optdone": 1, 
		 "sigma_profile": "yes", 
		 "theory": "DFT", 
		 "functional": "B3LYP", 
		 "basiset": "6-31G**", 
		 "properties": { 
			 "R2extent": 15302.8558, 
			 "electric_dipole_moment_norm": 4.45160445907, 
			 "electric_quadrupole_moment_norm": 38.5145978704, 
			 "total_energy": -1383.2084133, 
			 "HOMO_LUMO_gap": 0.11609, 
			 "cosmo_polarized_energy": -26.22, 
			 "cosmo_cavitation_energy": 46.69, 
			 "cosmo_dispersion_energy": -33.06, 
			 "cosmo_repulsion_energy": 2.45, 
			 "cosmo_total_nonelectrostatic_energy": 16.08, 
			 "SMD_solvation_energy": 11.97 
		},
		"coords": [
			{
				"x": 5.5054743176,
				"y": -3.3588168561,
				"z": -2.7750441368,
				"element": "O" 
			},
			{
				"x": 4.4808055067,
				"y": -2.971995491,
				"z": -1.9651016308,
				"element": "C" 
			},
			{
				"x": 4.6381843963,
				"y": -2.0371108201,
				"z": -0.9358640671,
				"element": "C" 
			},
			{
				"x": 3.5510249559,
				"y": -1.6791890621,
				"z": -0.1429699856,
				"element": "C" 
			},
			{
				"x": 2.3021129824,
				"y": -2.2623853371,
				"z": -0.3698736574,
				"element": "C" 
			},
			{
				"x": 2.143435413,
				"y": -3.201663005,
				"z": -1.3959496921,
				"element": "C" 
			},
			{
				"x": 3.2263998797,
				"y": -3.5507422046,
				"z": -2.1930931819,
				"element": "C" 
			},
			{
				"x": 1.1847129371,
				"y": -1.8998827738,
				"z": 0.4530497408,
				"element": "N" 
			},
			{
				"x": 1.2637621804,
				"y": -1.7686812962,
				"z": 1.847865957,
				"element": "C" 
			},
			{
				"x": 2.2423454247,
				"y": -1.9571478666,
				"z": 2.5312618153,
				"element": "O" 
			},
			{
				"x": -0.1117500371,
				"y": -1.3217256206,
				"z": 2.3541245814,
				"element": "C" 
			},
			{
				"x": -0.0276943819,
				"y": 0.0704430383,
				"z": 2.806776927,
				"element": "O" 
			},
			{
				"x": -0.8470744471,
				"y": 0.8610583997,
				"z": 2.0346467134,
				"element": "N" 
			},
			{
				"x": -1.4288428297,
				"y": 0.1648065732,
				"z": 1.1218721709,
				"element": "C" 
			},
			{
				"x": -1.0180175695,
				"y": -1.2912433852,
				"z": 1.1314864045,
				"element": "C" 
			},
			{
				"x": -0.1009349209,
				"y": -1.6410357683,
				"z": -0.0564745666,
				"element": "C" 
			},
			{
				"x": -0.4226196093,
				"y": -1.6859149975,
				"z": -1.2189874166,
				"element": "O" 
			},
			{
				"x": -2.511911024,
				"y": 0.6737507928,
				"z": 0.2275822242,
				"element": "C" 
			},
			{
				"x": -3.2633453784,
				"y": -0.1666033013,
				"z": -0.2503185663,
				"element": "O" 
			},
			{
				"x": -2.6958588025,
				"y": 2.1316502501,
				"z": -0.0620878171,
				"element": "C" 
			},
			{
				"x": -1.7773446077,
				"y": 3.1276396852,
				"z": 0.307510103,
				"element": "C" 
			},
			{
				"x": -2.0153840323,
				"y": 4.4584818369,
				"z": -0.0269209991,
				"element": "C" 
			},
			{
				"x": -3.1733190022,
				"y": 4.7762200009,
				"z": -0.7309684717,
				"element": "C" 
			},
			{
				"x": -4.1015566767,
				"y": 3.8089207732,
				"z": -1.1150178526,
				"element": "C" 
			},
			{
				"x": -3.8529295345,
				"y": 2.4848794089,
				"z": -0.7790175787,
				"element": "C" 
			},
			{
				"x": -3.4265974555,
				"y": 6.1867454361,
				"z": -1.0852527388,
				"element": "N" 
			},
			{
				"x": -4.4592521378,
				"y": 6.4396591781,
				"z": -1.7027549734,
				"element": "O" 
			},
			{
				"x": -2.5893264204,
				"y": 7.0184271574,
				"z": -0.7403547123,
				"element": "O" 
			},
			{
				"x": 6.3117162483,
				"y": -2.8920045307,
				"z": -2.519190846,
				"element": "H" 
			},
			{
				"x": 5.6099897439,
				"y": -1.5850182606,
				"z": -0.7520596595,
				"element": "H" 
			},
			{
				"x": 3.6801777987,
				"y": -0.960888285,
				"z": 0.6570449092,
				"element": "H" 
			},
			{
				"x": 1.1736208384,
				"y": -3.6469276855,
				"z": -1.5797145925,
				"element": "H" 
			},
			{
				"x": 3.1189088951,
				"y": -4.2727729569,
				"z": -2.9950416911,
				"element": "H" 
			},
			{
				"x": -0.4295243733,
				"y": -1.9282408436,
				"z": 3.2041885477,
				"element": "H" 
			},
			{
				"x": -1.8825124802,
				"y": -1.9583341803,
				"z": 1.131695299,
				"element": "H" 
			},
			{
				"x": -0.8855111104,
				"y": 2.8694892186,
				"z": 0.8630817822,
				"element": "H" 
			},
			{
				"x": -1.3238302586,
				"y": 5.2453817151,
				"z": 0.2459234297,
				"element": "H" 
			},
			{
				"x": -4.986901624,
				"y": 4.1049430448,
				"z": -1.6632381242,
				"element": "H" 
			},
			{
				"x": -4.5440328044,
				"y": 1.7000280189,
				"z": -1.0643136474,
				"element": "H" 
			}
		],
		 "valence_orbital": [ 
			{
				"type": "occ",
				"energy": -0.29026,
				"method": "rhf"
			},
			{
				"type": "occ",
				"energy": -0.28765,
				"method": "rhf"
			},
			{
				"type": "occ",
				"energy": -0.27178,
				"method": "rhf"
			},
			{
				"type": "occ",
				"energy": -0.26891,
				"method": "rhf"
			},
			{
				"type": "occ",
				"energy": -0.23345,
				"method": "rhf"
			},
			{
				"type": "unocc",
				"energy": -0.11736,
				"method": "rhf"
			},
			{
				"type": "unocc",
				"energy": -0.08186,
				"method": "rhf"
			},
			{
				"type": "unocc",
				"energy": -0.05467,
				"method": "rhf"
			},
			{
				"type": "unocc",
				"energy": -0.03707,
				"method": "rhf"
			},
			{
				"type": "unocc",
				"energy": -0.03473,
				"method": "rhf"
			}
		],
		"cosmo_sigma_profile": { 
			"-0.025": 0.0,
			"-0.024": 0.0,
			"-0.023": 0.0,
			"-0.022": 0.0,
			"-0.021": 0.0,
			"-0.02": 0.0,
			"-0.019": 0.018752416061,
			"-0.018": 0.823486062512,
			"-0.017": 1.25571288494,
			"-0.016": 1.00498940539,
			"-0.015": 1.16411117561,
			"-0.014": 1.17596853642,
			"-0.013": 1.0814786676,
			"-0.012": 1.23632760542,
			"-0.011": 3.81321113452,
			"-0.01": 10.1602775843,
			"-0.009": 7.12649542936,
			"-0.008": 9.35442121688,
			"-0.007": 16.458274508,
			"-0.006": 22.3159478313,
			"-0.005": 20.7976114445,
			"-0.004": 17.7362496163,
			"-0.003": 19.094385072,
			"-0.002": 21.0790775707,
			"-0.001": 24.0042499446,
			"0.0": 26.0814523164,
			"0.001": 17.3107553634,
			"0.002": 14.6540105782,
			"0.003": 20.0385625721,
			"0.004": 20.8818018005,
			"0.005": 13.6079042015,
			"0.006": 14.6975364677,
			"0.007": 18.3067176919,
			"0.008": 16.7051021168,
			"0.009": 13.8276063795,
			"0.01": 15.1253540758,
			"0.011": 5.39455983088,
			"0.012": 0.144694728917,
			"0.013": 0.0,
			"0.014": 0.0,
			"0.015": 0.0,
			"0.016": 0.0,
			"0.017": 0.0,
			"0.018": 0.0,
			"0.019": 0.0,
			"0.02": 0.0,
			"0.021": 0.0,
			"0.022": 0.0,
			"0.023": 0.0,
			"0.024": 0.0,
			"0.025": 0.0
		}
	}
}
