{
	 "smiles": "CC1=C(C2=C(C=CC=N2)C=C1)S(N)(=O)=O", 
	 "Tm": 444.15, 
	 "num_atms": 25, 
	 "gaussian": { 
		 "optdone": 1, 
		 "sigma_profile": "yes", 
		 "theory": "DFT", 
		 "functional": "B3LYP", 
		 "basiset": "6-31G**", 
		 "properties": { 
			 "R2extent": 3622.2309, 
			 "electric_dipole_moment_norm": 7.56276676488, 
			 "electric_quadrupole_moment_norm": 10.079413229, 
			 "total_energy": -1045.16841671, 
			 "HOMO_LUMO_gap": 0.1719, 
			 "cosmo_polarized_energy": -19.39, 
			 "cosmo_cavitation_energy": 29.25, 
			 "cosmo_dispersion_energy": -22.22, 
			 "cosmo_repulsion_energy": 1.65, 
			 "cosmo_total_nonelectrostatic_energy": 8.67, 
			 "SMD_solvation_energy": 4.06 
		},
		"coords": [
			{
				"x": -0.2517250571,
				"y": 2.7745659006,
				"z": 1.1681632375,
				"element": "C" 
			},
			{
				"x": -0.1070951233,
				"y": 1.9376725412,
				"z": -0.0836509365,
				"element": "C" 
			},
			{
				"x": -0.7747383684,
				"y": 0.7392668409,
				"z": -0.32932441,
				"element": "C" 
			},
			{
				"x": -0.5218133898,
				"y": -0.009984944,
				"z": -1.5279915212,
				"element": "C" 
			},
			{
				"x": 0.4113999987,
				"y": 0.497422895,
				"z": -2.4864504034,
				"element": "C" 
			},
			{
				"x": 0.659721516,
				"y": -0.2708870743,
				"z": -3.6507522154,
				"element": "C" 
			},
			{
				"x": 0.0092489292,
				"y": -1.4684165187,
				"z": -3.8282954443,
				"element": "C" 
			},
			{
				"x": -0.9090625963,
				"y": -1.8801360218,
				"z": -2.8360433211,
				"element": "C" 
			},
			{
				"x": -1.17344709,
				"y": -1.1910079921,
				"z": -1.7428831943,
				"element": "N" 
			},
			{
				"x": 1.0571640526,
				"y": 1.7312778707,
				"z": -2.2326406695,
				"element": "C" 
			},
			{
				"x": 0.7988618416,
				"y": 2.4174481955,
				"z": -1.0748157647,
				"element": "C" 
			},
			{
				"x": -1.8515751666,
				"y": -0.0014839454,
				"z": 0.948409607,
				"element": "S" 
			},
			{
				"x": -3.1852425425,
				"y": -0.6407437942,
				"z": 0.1732642999,
				"element": "N" 
			},
			{
				"x": -1.0952959632,
				"y": -1.1084458269,
				"z": 1.5285110107,
				"element": "O" 
			},
			{
				"x": -2.3783763163,
				"y": 1.0799772386,
				"z": 1.7858742014,
				"element": "O" 
			},
			{
				"x": 0.4568719749,
				"y": 3.6059828737,
				"z": 1.1391553983,
				"element": "H" 
			},
			{
				"x": -1.2636523009,
				"y": 3.1726993386,
				"z": 1.2680567243,
				"element": "H" 
			},
			{
				"x": -0.0669452213,
				"y": 2.191098998,
				"z": 2.0726725297,
				"element": "H" 
			},
			{
				"x": 1.3682072103,
				"y": 0.0998222886,
				"z": -4.3870274453,
				"element": "H" 
			},
			{
				"x": 0.1783156443,
				"y": -2.0865989692,
				"z": -4.7034290024,
				"element": "H" 
			},
			{
				"x": -1.451749417,
				"y": -2.8163470962,
				"z": -2.9561413719,
				"element": "H" 
			},
			{
				"x": 1.7645309026,
				"y": 2.1195936288,
				"z": -2.9604968835,
				"element": "H" 
			},
			{
				"x": 1.3072045272,
				"y": 3.3577949882,
				"z": -0.8839497849,
				"element": "H" 
			},
			{
				"x": -3.8219110904,
				"y": 0.0989100855,
				"z": -0.1091820231,
				"element": "H" 
			},
			{
				"x": -2.8677969545,
				"y": -1.2216815011,
				"z": -0.6057326173,
				"element": "H" 
			}
		],
		 "valence_orbital": [ 
			{
				"type": "occ",
				"energy": -0.29248,
				"method": "rhf"
			},
			{
				"type": "occ",
				"energy": -0.28821,
				"method": "rhf"
			},
			{
				"type": "occ",
				"energy": -0.26993,
				"method": "rhf"
			},
			{
				"type": "occ",
				"energy": -0.26793,
				"method": "rhf"
			},
			{
				"type": "occ",
				"energy": -0.25054,
				"method": "rhf"
			},
			{
				"type": "unocc",
				"energy": -0.07864,
				"method": "rhf"
			},
			{
				"type": "unocc",
				"energy": -0.03628,
				"method": "rhf"
			},
			{
				"type": "unocc",
				"energy": -0.0124,
				"method": "rhf"
			},
			{
				"type": "unocc",
				"energy": 0.06311,
				"method": "rhf"
			},
			{
				"type": "unocc",
				"energy": 0.06947,
				"method": "rhf"
			}
		],
		"cosmo_sigma_profile": { 
			"-0.025": 0.0,
			"-0.024": 0.0,
			"-0.023": 0.0,
			"-0.022": 0.0,
			"-0.021": 0.0,
			"-0.02": 0.0,
			"-0.019": 0.0,
			"-0.018": 0.0,
			"-0.017": 0.0,
			"-0.016": 0.0,
			"-0.015": 0.669771625033,
			"-0.014": 1.46985676157,
			"-0.013": 1.30056730102,
			"-0.012": 1.30324377178,
			"-0.011": 0.744891213087,
			"-0.01": 0.870286631626,
			"-0.009": 1.78036160415,
			"-0.008": 6.70821943339,
			"-0.007": 13.6156335949,
			"-0.006": 14.7066122182,
			"-0.005": 12.9224878251,
			"-0.004": 12.9302453401,
			"-0.003": 14.1540101977,
			"-0.002": 13.066123369,
			"-0.001": 19.2430467183,
			"0.0": 24.8146578056,
			"0.001": 22.9950827056,
			"0.002": 12.7357103156,
			"0.003": 5.55342772461,
			"0.004": 3.03279269437,
			"0.005": 4.5901782356,
			"0.006": 4.30276309944,
			"0.007": 3.84390299338,
			"0.008": 4.66717974697,
			"0.009": 5.6555136985,
			"0.01": 5.7712754002,
			"0.011": 10.748622066,
			"0.012": 8.63561447946,
			"0.013": 1.08169346437,
			"0.014": 0.0852026284208,
			"0.015": 0.0,
			"0.016": 0.0,
			"0.017": 0.0,
			"0.018": 0.0,
			"0.019": 0.0,
			"0.02": 0.0,
			"0.021": 0.0,
			"0.022": 0.0,
			"0.023": 0.0,
			"0.024": 0.0,
			"0.025": 0.0
		}
	}
}
