{
	 "smiles": "C1COCCOCCOC2=C(OCCOCCO1)C=CC=C2", 
	 "Tm": 315.65, 
	 "num_atms": 46, 
	 "gaussian": { 
		 "optdone": 1, 
		 "sigma_profile": "yes", 
		 "theory": "DFT", 
		 "functional": "B3LYP", 
		 "basiset": "6-31G**", 
		 "properties": { 
			 "R2extent": 7812.6872, 
			 "electric_dipole_moment_norm": 1.61957717013, 
			 "electric_quadrupole_moment_norm": 14.3905374229, 
			 "total_energy": -1075.42414253, 
			 "HOMO_LUMO_gap": 0.21856, 
			 "cosmo_polarized_energy": -15.71, 
			 "cosmo_cavitation_energy": 46.44, 
			 "cosmo_dispersion_energy": -31.02, 
			 "cosmo_repulsion_energy": 2.37, 
			 "cosmo_total_nonelectrostatic_energy": 17.79, 
			 "SMD_solvation_energy": 7.49 
		},
		"coords": [
			{
				"x": -0.1655699314,
				"y": 2.722366496,
				"z": -2.4030014834,
				"element": "C" 
			},
			{
				"x": -0.6141387089,
				"y": 1.5850803896,
				"z": -3.3007007272,
				"element": "C" 
			},
			{
				"x": -0.7356434778,
				"y": 0.4191982656,
				"z": -2.5126177497,
				"element": "O" 
			},
			{
				"x": -1.1534490761,
				"y": -0.7296471597,
				"z": -3.230474155,
				"element": "C" 
			},
			{
				"x": -1.2353326471,
				"y": -1.9166599955,
				"z": -2.2780327394,
				"element": "C" 
			},
			{
				"x": 0.0225496659,
				"y": -2.5075497072,
				"z": -1.9718270897,
				"element": "O" 
			},
			{
				"x": 0.8560107172,
				"y": -1.805318694,
				"z": -1.0544685999,
				"element": "C" 
			},
			{
				"x": 0.527595274,
				"y": -2.0644984002,
				"z": 0.4075156238,
				"element": "C" 
			},
			{
				"x": -0.6817752766,
				"y": -1.3667820587,
				"z": 0.7540235264,
				"element": "O" 
			},
			{
				"x": -1.0289875302,
				"y": -1.3819529167,
				"z": 2.0844665839,
				"element": "C" 
			},
			{
				"x": -0.3589282186,
				"y": -0.5481349059,
				"z": 3.0083725651,
				"element": "C" 
			},
			{
				"x": 0.6833913796,
				"y": 0.1809027634,
				"z": 2.506026029,
				"element": "O" 
			},
			{
				"x": 1.2838183058,
				"y": 1.1774085375,
				"z": 3.3273067537,
				"element": "C" 
			},
			{
				"x": 2.370054045,
				"y": 1.8796138554,
				"z": 2.5234017633,
				"element": "C" 
			},
			{
				"x": 1.8913956591,
				"y": 2.7223410451,
				"z": 1.4979493232,
				"element": "O" 
			},
			{
				"x": 1.5224290063,
				"y": 2.0757726893,
				"z": 0.2827247009,
				"element": "C" 
			},
			{
				"x": 1.59561491,
				"y": 3.1184102778,
				"z": -0.8314299246,
				"element": "C" 
			},
			{
				"x": 1.201022852,
				"y": 2.5427913281,
				"z": -2.0678735468,
				"element": "O" 
			},
			{
				"x": -0.7851383275,
				"y": -0.5156298156,
				"z": 4.3388896767,
				"element": "C" 
			},
			{
				"x": -1.8642385023,
				"y": -1.3062512123,
				"z": 4.750124309,
				"element": "C" 
			},
			{
				"x": -2.5241669828,
				"y": -2.1286313005,
				"z": 3.8417808788,
				"element": "C" 
			},
			{
				"x": -2.0989417107,
				"y": -2.1630692154,
				"z": 2.5100181107,
				"element": "C" 
			},
			{
				"x": -0.8015106674,
				"y": 2.7273787737,
				"z": -1.5068115873,
				"element": "H" 
			},
			{
				"x": -0.3084493126,
				"y": 3.681860315,
				"z": -2.9269346928,
				"element": "H" 
			},
			{
				"x": 0.1166865641,
				"y": 1.4429869376,
				"z": -4.1129511808,
				"element": "H" 
			},
			{
				"x": -1.5827305429,
				"y": 1.8465182028,
				"z": -3.7614162241,
				"element": "H" 
			},
			{
				"x": -0.452768267,
				"y": -0.9590411793,
				"z": -4.0496047702,
				"element": "H" 
			},
			{
				"x": -2.1488390624,
				"y": -0.5564322472,
				"z": -3.6780651236,
				"element": "H" 
			},
			{
				"x": -1.8100480527,
				"y": -2.7095204757,
				"z": -2.7702883484,
				"element": "H" 
			},
			{
				"x": -1.7677354487,
				"y": -1.6128663864,
				"z": -1.3698226866,
				"element": "H" 
			},
			{
				"x": 1.8693410994,
				"y": -2.1840597493,
				"z": -1.2351038032,
				"element": "H" 
			},
			{
				"x": 0.848468338,
				"y": -0.7287792672,
				"z": -1.2530157248,
				"element": "H" 
			},
			{
				"x": 1.3556089342,
				"y": -1.7042418711,
				"z": 1.0308394157,
				"element": "H" 
			},
			{
				"x": 0.3942653481,
				"y": -3.1412709659,
				"z": 0.581081401,
				"element": "H" 
			},
			{
				"x": 0.5286614966,
				"y": 1.9043529379,
				"z": 3.655286329,
				"element": "H" 
			},
			{
				"x": 1.7383656423,
				"y": 0.7196664384,
				"z": 4.2191733334,
				"element": "H" 
			},
			{
				"x": 2.9308423017,
				"y": 2.5218987662,
				"z": 3.2129982122,
				"element": "H" 
			},
			{
				"x": 3.0644035976,
				"y": 1.1244598226,
				"z": 2.1218949766,
				"element": "H" 
			},
			{
				"x": 0.5183089074,
				"y": 1.639087937,
				"z": 0.3459576627,
				"element": "H" 
			},
			{
				"x": 2.2192745195,
				"y": 1.2563725715,
				"z": 0.0524937933,
				"element": "H" 
			},
			{
				"x": 0.979603139,
				"y": 3.9908045124,
				"z": -0.571408536,
				"element": "H" 
			},
			{
				"x": 2.628014108,
				"y": 3.467079001,
				"z": -0.9424050153,
				"element": "H" 
			},
			{
				"x": -0.2871974651,
				"y": 0.1241207745,
				"z": 5.058114393,
				"element": "H" 
			},
			{
				"x": -2.1841242915,
				"y": -1.2672801418,
				"z": 5.7872191414,
				"element": "H" 
			},
			{
				"x": -3.3635101276,
				"y": -2.7391992344,
				"z": 4.1597435653,
				"element": "H" 
			},
			{
				"x": -2.5987021826,
				"y": -2.7844557384,
				"z": 1.7733516407,
				"element": "H" 
			}
		],
		 "valence_orbital": [ 
			{
				"type": "occ",
				"energy": -0.25512,
				"method": "rhf"
			},
			{
				"type": "occ",
				"energy": -0.24414,
				"method": "rhf"
			},
			{
				"type": "occ",
				"energy": -0.24121,
				"method": "rhf"
			},
			{
				"type": "occ",
				"energy": -0.23724,
				"method": "rhf"
			},
			{
				"type": "occ",
				"energy": -0.2151,
				"method": "rhf"
			},
			{
				"type": "unocc",
				"energy": 0.00346,
				"method": "rhf"
			},
			{
				"type": "unocc",
				"energy": 0.01207,
				"method": "rhf"
			},
			{
				"type": "unocc",
				"energy": 0.08055,
				"method": "rhf"
			},
			{
				"type": "unocc",
				"energy": 0.08844,
				"method": "rhf"
			},
			{
				"type": "unocc",
				"energy": 0.09305,
				"method": "rhf"
			}
		],
		"cosmo_sigma_profile": { 
			"-0.025": 0.0,
			"-0.024": 0.0,
			"-0.023": 0.0,
			"-0.022": 0.0,
			"-0.021": 0.0,
			"-0.02": 0.0,
			"-0.019": 0.0,
			"-0.018": 0.0,
			"-0.017": 0.0,
			"-0.016": 0.0,
			"-0.015": 0.0,
			"-0.014": 0.0,
			"-0.013": 0.0,
			"-0.012": 0.0,
			"-0.011": 0.0,
			"-0.01": 0.0,
			"-0.009": 0.0,
			"-0.008": 0.0,
			"-0.007": 0.722138822708,
			"-0.006": 10.714699694,
			"-0.005": 31.1983967138,
			"-0.004": 56.5760278049,
			"-0.003": 48.6178571338,
			"-0.002": 35.6105423474,
			"-0.001": 23.2947442539,
			"0.0": 17.5313604869,
			"0.001": 17.0551848487,
			"0.002": 16.9384322868,
			"0.003": 20.2474540312,
			"0.004": 18.6755879714,
			"0.005": 17.3845344481,
			"0.006": 12.7537242488,
			"0.007": 7.71348647917,
			"0.008": 6.26403174151,
			"0.009": 5.2895371037,
			"0.01": 4.83687359518,
			"0.011": 3.88571734488,
			"0.012": 3.5019626496,
			"0.013": 3.14125350714,
			"0.014": 0.866448337623,
			"0.015": 0.0,
			"0.016": 0.0,
			"0.017": 0.0,
			"0.018": 0.0,
			"0.019": 0.0,
			"0.02": 0.0,
			"0.021": 0.0,
			"0.022": 0.0,
			"0.023": 0.0,
			"0.024": 0.0,
			"0.025": 0.0
		}
	}
}
