{
	 "smiles": "CC(C)(C)OC(=O)NC1=CSC(Br)=C1", 
	 "Tm": 358.15, 
	 "num_atms": 26, 
	 "gaussian": { 
		 "optdone": 1, 
		 "sigma_profile": "yes", 
		 "theory": "DFT", 
		 "functional": "B3LYP", 
		 "basiset": "6-31G**", 
		 "properties": { 
			 "R2extent": 8515.5365, 
			 "electric_dipole_moment_norm": 0.729821204132, 
			 "electric_quadrupole_moment_norm": 11.8813652212, 
			 "total_energy": -3524.99308393, 
			 "HOMO_LUMO_gap": 0.1909, 
			 "cosmo_polarized_energy": -9.27, 
			 "cosmo_cavitation_energy": 33.22, 
			 "cosmo_dispersion_energy": -24.16, 
			 "cosmo_repulsion_energy": 1.86, 
			 "cosmo_total_nonelectrostatic_energy": 10.93, 
			 "SMD_solvation_energy": 5.57 
		},
		"coords": [
			{
				"x": 1.9199143159,
				"y": -0.4072718195,
				"z": 0.2569339605,
				"element": "C" 
			},
			{
				"x": 1.0568145873,
				"y": 0.0464330904,
				"z": -0.9240268597,
				"element": "C" 
			},
			{
				"x": 0.8321068748,
				"y": -1.1040366081,
				"z": -1.9080198736,
				"element": "C" 
			},
			{
				"x": 1.637565144,
				"y": 1.2697983349,
				"z": -1.6393466133,
				"element": "C" 
			},
			{
				"x": -0.3160901798,
				"y": 0.3419540552,
				"z": -0.4582631109,
				"element": "O" 
			},
			{
				"x": -0.5389864801,
				"y": 1.3189977269,
				"z": 0.4384832286,
				"element": "C" 
			},
			{
				"x": 0.2984643033,
				"y": 2.0410387433,
				"z": 0.9534117094,
				"element": "O" 
			},
			{
				"x": -1.8775194674,
				"y": 1.4523033599,
				"z": 0.7531350885,
				"element": "N" 
			},
			{
				"x": -3.0328034199,
				"y": 0.7788017443,
				"z": 0.3263073742,
				"element": "C" 
			},
			{
				"x": -4.2729923959,
				"y": 1.1214885453,
				"z": 0.8118338892,
				"element": "C" 
			},
			{
				"x": -5.5350897282,
				"y": 0.1435937247,
				"z": 0.1306511347,
				"element": "S" 
			},
			{
				"x": -4.37089855,
				"y": -0.7300175185,
				"z": -0.814034305,
				"element": "C" 
			},
			{
				"x": -4.9161317101,
				"y": -2.1202133476,
				"z": -1.9654673147,
				"element": "Br" 
			},
			{
				"x": -3.0901698827,
				"y": -0.2998079025,
				"z": -0.6207195056,
				"element": "C" 
			},
			{
				"x": 2.0672319164,
				"y": 0.4040561683,
				"z": 0.9697972339,
				"element": "H" 
			},
			{
				"x": 1.4492784884,
				"y": -1.2518480211,
				"z": 0.7699701725,
				"element": "H" 
			},
			{
				"x": 2.8968760478,
				"y": -0.7361252227,
				"z": -0.1116944388,
				"element": "H" 
			},
			{
				"x": 0.1790652189,
				"y": -0.7920325255,
				"z": -2.7284663981,
				"element": "H" 
			},
			{
				"x": 1.7883257706,
				"y": -1.4232771508,
				"z": -2.3325938817,
				"element": "H" 
			},
			{
				"x": 0.3758796367,
				"y": -1.962059865,
				"z": -1.4054400534,
				"element": "H" 
			},
			{
				"x": 1.7813125442,
				"y": 2.0982096334,
				"z": -0.9456580834,
				"element": "H" 
			},
			{
				"x": 2.6036841353,
				"y": 1.0075234134,
				"z": -2.0824098551,
				"element": "H" 
			},
			{
				"x": 0.9708536628,
				"y": 1.5912800192,
				"z": -2.4456648748,
				"element": "H" 
			},
			{
				"x": -2.0150676938,
				"y": 2.1915834045,
				"z": 1.4273861048,
				"element": "H" 
			},
			{
				"x": -4.5147795076,
				"y": 1.8924814207,
				"z": 1.5302774847,
				"element": "H" 
			},
			{
				"x": -2.230343631,
				"y": -0.7182534031,
				"z": -1.1173822127,
				"element": "H" 
			}
		],
		 "valence_orbital": [ 
			{
				"type": "occ",
				"energy": -0.29792,
				"method": "rhf"
			},
			{
				"type": "occ",
				"energy": -0.29743,
				"method": "rhf"
			},
			{
				"type": "occ",
				"energy": -0.27472,
				"method": "rhf"
			},
			{
				"type": "occ",
				"energy": -0.24761,
				"method": "rhf"
			},
			{
				"type": "occ",
				"energy": -0.21461,
				"method": "rhf"
			},
			{
				"type": "unocc",
				"energy": -0.02371,
				"method": "rhf"
			},
			{
				"type": "unocc",
				"energy": -0.0051,
				"method": "rhf"
			},
			{
				"type": "unocc",
				"energy": 0.01998,
				"method": "rhf"
			},
			{
				"type": "unocc",
				"energy": 0.02871,
				"method": "rhf"
			},
			{
				"type": "unocc",
				"energy": 0.07101,
				"method": "rhf"
			}
		],
		"cosmo_sigma_profile": { 
			"-0.025": 0.0,
			"-0.024": 0.0,
			"-0.023": 0.0,
			"-0.022": 0.0,
			"-0.021": 0.0,
			"-0.02": 0.0,
			"-0.019": 0.0,
			"-0.018": 0.0,
			"-0.017": 0.0,
			"-0.016": 0.0599589511047,
			"-0.015": 0.794230810533,
			"-0.014": 1.34192893748,
			"-0.013": 1.02795465177,
			"-0.012": 1.3107526962,
			"-0.011": 1.07500879334,
			"-0.01": 0.937503219208,
			"-0.009": 2.81354476839,
			"-0.008": 2.59062922112,
			"-0.007": 2.26122730853,
			"-0.006": 2.69707541583,
			"-0.005": 5.46048847752,
			"-0.004": 18.1737919152,
			"-0.003": 21.8387509748,
			"-0.002": 23.0652314514,
			"-0.001": 27.5758721647,
			"0.0": 36.9427020455,
			"0.001": 30.0837046951,
			"0.002": 26.3159398217,
			"0.003": 29.1763224311,
			"0.004": 15.7487276126,
			"0.005": 2.85264516947,
			"0.006": 1.5514469823,
			"0.007": 1.32039528782,
			"0.008": 1.38369473145,
			"0.009": 1.032218554,
			"0.01": 1.20184112064,
			"0.011": 1.91120104891,
			"0.012": 2.34927011989,
			"0.013": 3.29249534246,
			"0.014": 0.307539544006,
			"0.015": 0.0,
			"0.016": 0.0,
			"0.017": 0.0,
			"0.018": 0.0,
			"0.019": 0.0,
			"0.02": 0.0,
			"0.021": 0.0,
			"0.022": 0.0,
			"0.023": 0.0,
			"0.024": 0.0,
			"0.025": 0.0
		}
	}
}
