{
	 "smiles": "C(C1=CC=CC=C1)C1=CC=CC=C1", 
	 "Tm": 298.35, 
	 "num_atms": 25, 
	 "gaussian": { 
		 "optdone": 1, 
		 "sigma_profile": "yes", 
		 "theory": "DFT", 
		 "functional": "B3LYP", 
		 "basiset": "6-31G**", 
		 "properties": { 
			 "R2extent": 3071.5958, 
			 "electric_dipole_moment_norm": 0.0956223300281, 
			 "electric_quadrupole_moment_norm": 3.58867896029, 
			 "total_energy": -502.623206444, 
			 "HOMO_LUMO_gap": 0.22851, 
			 "cosmo_polarized_energy": -5.32, 
			 "cosmo_cavitation_energy": 28.49, 
			 "cosmo_dispersion_energy": -20.38, 
			 "cosmo_repulsion_energy": 1.62, 
			 "cosmo_total_nonelectrostatic_energy": 9.73, 
			 "SMD_solvation_energy": 4.59 
		},
		"coords": [
			{
				"x": -1.9355158936,
				"y": 0.1960423931,
				"z": 1.0660916908,
				"element": "C" 
			},
			{
				"x": -1.7175985372,
				"y": 0.2322311616,
				"z": -0.4381627032,
				"element": "C" 
			},
			{
				"x": -1.3160191682,
				"y": -0.9198454668,
				"z": -1.1306772156,
				"element": "C" 
			},
			{
				"x": -1.1373539766,
				"y": -0.8963079786,
				"z": -2.5127087196,
				"element": "C" 
			},
			{
				"x": -1.3538957099,
				"y": 0.2835944002,
				"z": -3.2301718905,
				"element": "C" 
			},
			{
				"x": -1.749816307,
				"y": 1.4363938904,
				"z": -2.5529515572,
				"element": "C" 
			},
			{
				"x": -1.9293103607,
				"y": 1.4079053192,
				"z": -1.167375008,
				"element": "C" 
			},
			{
				"x": -0.73259387,
				"y": -0.2701148062,
				"z": 1.8707049004,
				"element": "C" 
			},
			{
				"x": 0.5027716036,
				"y": 0.3845435591,
				"z": 1.7549920723,
				"element": "C" 
			},
			{
				"x": 1.6014232601,
				"y": -0.0254426861,
				"z": 2.5082462463,
				"element": "C" 
			},
			{
				"x": 1.4865694312,
				"y": -1.1028783534,
				"z": 3.391266408,
				"element": "C" 
			},
			{
				"x": 0.2649702845,
				"y": -1.7641522802,
				"z": 3.5127067996,
				"element": "C" 
			},
			{
				"x": -0.8344399427,
				"y": -1.3487631912,
				"z": 2.7566724167,
				"element": "C" 
			},
			{
				"x": -2.7852477825,
				"y": -0.4597977779,
				"z": 1.293967497,
				"element": "H" 
			},
			{
				"x": -2.2303604043,
				"y": 1.1982379014,
				"z": 1.401929683,
				"element": "H" 
			},
			{
				"x": -1.136249341,
				"y": -1.838236034,
				"z": -0.5776839602,
				"element": "H" 
			},
			{
				"x": -0.8272853613,
				"y": -1.7991479659,
				"z": -3.0317662134,
				"element": "H" 
			},
			{
				"x": -1.2131484344,
				"y": 0.3022109673,
				"z": -4.3071264785,
				"element": "H" 
			},
			{
				"x": -1.9188449139,
				"y": 2.3599607152,
				"z": -3.0998249393,
				"element": "H" 
			},
			{
				"x": -2.2408466409,
				"y": 2.3101971254,
				"z": -0.6462222098,
				"element": "H" 
			},
			{
				"x": 0.6018248625,
				"y": 1.2168299361,
				"z": 1.0628723138,
				"element": "H" 
			},
			{
				"x": 2.5497938218,
				"y": 0.4949454423,
				"z": 2.4058979517,
				"element": "H" 
			},
			{
				"x": 2.3433490781,
				"y": -1.4232884586,
				"z": 3.9771459106,
				"element": "H" 
			},
			{
				"x": 0.1644275272,
				"y": -2.6044947206,
				"z": 4.194125952,
				"element": "H" 
			},
			{
				"x": -1.7848032248,
				"y": -1.8676230917,
				"z": 2.8585510534,
				"element": "H" 
			}
		],
		 "valence_orbital": [ 
			{
				"type": "occ",
				"energy": -0.32615,
				"method": "rhf"
			},
			{
				"type": "occ",
				"energy": -0.24854,
				"method": "rhf"
			},
			{
				"type": "occ",
				"energy": -0.24571,
				"method": "rhf"
			},
			{
				"type": "occ",
				"energy": -0.24456,
				"method": "rhf"
			},
			{
				"type": "occ",
				"energy": -0.23125,
				"method": "rhf"
			},
			{
				"type": "unocc",
				"energy": -0.00274,
				"method": "rhf"
			},
			{
				"type": "unocc",
				"energy": -0.0001,
				"method": "rhf"
			},
			{
				"type": "unocc",
				"energy": 0.00027,
				"method": "rhf"
			},
			{
				"type": "unocc",
				"energy": 0.01258,
				"method": "rhf"
			},
			{
				"type": "unocc",
				"energy": 0.09518,
				"method": "rhf"
			}
		],
		"cosmo_sigma_profile": { 
			"-0.025": 0.0,
			"-0.024": 0.0,
			"-0.023": 0.0,
			"-0.022": 0.0,
			"-0.021": 0.0,
			"-0.02": 0.0,
			"-0.019": 0.0,
			"-0.018": 0.0,
			"-0.017": 0.0,
			"-0.016": 0.0,
			"-0.015": 0.0,
			"-0.014": 0.0,
			"-0.013": 0.0,
			"-0.012": 0.0,
			"-0.011": 0.0,
			"-0.01": 0.0,
			"-0.009": 0.0,
			"-0.008": 0.0,
			"-0.007": 0.0,
			"-0.006": 3.29434328874,
			"-0.005": 21.7323390812,
			"-0.004": 23.8202466482,
			"-0.003": 28.008834008,
			"-0.002": 20.5802742001,
			"-0.001": 18.6360903001,
			"0.0": 14.3781172584,
			"0.001": 14.4021823014,
			"0.002": 13.4338430516,
			"0.003": 15.2095814915,
			"0.004": 15.30177445,
			"0.005": 16.7303795325,
			"0.006": 16.5483178051,
			"0.007": 5.17767868412,
			"0.008": 0.0,
			"0.009": 0.0,
			"0.01": 0.0,
			"0.011": 0.0,
			"0.012": 0.0,
			"0.013": 0.0,
			"0.014": 0.0,
			"0.015": 0.0,
			"0.016": 0.0,
			"0.017": 0.0,
			"0.018": 0.0,
			"0.019": 0.0,
			"0.02": 0.0,
			"0.021": 0.0,
			"0.022": 0.0,
			"0.023": 0.0,
			"0.024": 0.0,
			"0.025": 0.0
		}
	}
}
