{
	 "smiles": "CC1=NC=CN1C1=C(CN)C=CC=C1", 
	 "Tm": 321.35, 
	 "num_atms": 27, 
	 "gaussian": { 
		 "optdone": 1, 
		 "sigma_profile": "yes", 
		 "theory": "DFT", 
		 "functional": "B3LYP", 
		 "basiset": "6-31G**", 
		 "properties": { 
			 "R2extent": 2738.2765, 
			 "electric_dipole_moment_norm": 4.0955074826, 
			 "electric_quadrupole_moment_norm": 7.41931043831, 
			 "total_energy": -591.254313602, 
			 "HOMO_LUMO_gap": 0.19359, 
			 "cosmo_polarized_energy": -13.1, 
			 "cosmo_cavitation_energy": 29.92, 
			 "cosmo_dispersion_energy": -20.66, 
			 "cosmo_repulsion_energy": 1.61, 
			 "cosmo_total_nonelectrostatic_energy": 10.88, 
			 "SMD_solvation_energy": 2.48 
		},
		"coords": [
			{
				"x": -0.029109211,
				"y": 1.0069951846,
				"z": -2.9249484596,
				"element": "C" 
			},
			{
				"x": -0.908424227,
				"y": 0.3534848326,
				"z": -1.9070104965,
				"element": "C" 
			},
			{
				"x": -2.0442914988,
				"y": -0.2654021909,
				"z": -2.1636274095,
				"element": "N" 
			},
			{
				"x": -2.5160156687,
				"y": -0.7087648662,
				"z": -0.9481972952,
				"element": "C" 
			},
			{
				"x": -1.6564995023,
				"y": -0.3618883643,
				"z": 0.0600418456,
				"element": "C" 
			},
			{
				"x": -0.6166164653,
				"y": 0.3222757977,
				"z": -0.5558475305,
				"element": "N" 
			},
			{
				"x": 0.5349855954,
				"y": 0.8776899168,
				"z": 0.0923529625,
				"element": "C" 
			},
			{
				"x": 1.5811863646,
				"y": 0.0395040871,
				"z": 0.5252512368,
				"element": "C" 
			},
			{
				"x": 1.5697097161,
				"y": -1.4678778077,
				"z": 0.3004032311,
				"element": "C" 
			},
			{
				"x": 1.7772703183,
				"y": -1.924068036,
				"z": -1.0785157994,
				"element": "N" 
			},
			{
				"x": 2.6776085105,
				"y": 0.646186056,
				"z": 1.1518085941,
				"element": "C" 
			},
			{
				"x": 2.7469954605,
				"y": 2.0279928435,
				"z": 1.3356964061,
				"element": "C" 
			},
			{
				"x": 1.7029199227,
				"y": 2.8407587084,
				"z": 0.8953228295,
				"element": "C" 
			},
			{
				"x": 0.594446701,
				"y": 2.2610564327,
				"z": 0.2781781488,
				"element": "C" 
			},
			{
				"x": -0.4369459866,
				"y": 0.7906771807,
				"z": -3.9131758868,
				"element": "H" 
			},
			{
				"x": 0.9998584733,
				"y": 0.6336071801,
				"z": -2.8764288507,
				"element": "H" 
			},
			{
				"x": 0.0147503888,
				"y": 2.0944946431,
				"z": -2.7980914583,
				"element": "H" 
			},
			{
				"x": -3.4484424373,
				"y": -1.250553689,
				"z": -0.8686200485,
				"element": "H" 
			},
			{
				"x": -1.6767197865,
				"y": -0.5102140851,
				"z": 1.1287459119,
				"element": "H" 
			},
			{
				"x": 0.622204093,
				"y": -1.8945588745,
				"z": 0.642697444,
				"element": "H" 
			},
			{
				"x": 2.354203209,
				"y": -1.9092188055,
				"z": 0.9257945257,
				"element": "H" 
			},
			{
				"x": 0.9730858489,
				"y": -1.6904183608,
				"z": -1.6540245178,
				"element": "H" 
			},
			{
				"x": 2.5843623531,
				"y": -1.4591131153,
				"z": -1.4868940255,
				"element": "H" 
			},
			{
				"x": 3.4931053567,
				"y": 0.0167244439,
				"z": 1.4998416201,
				"element": "H" 
			},
			{
				"x": 3.6126264111,
				"y": 2.4664740093,
				"z": 1.8236175807,
				"element": "H" 
			},
			{
				"x": 1.7434378931,
				"y": 3.91638662,
				"z": 1.0373331971,
				"element": "H" 
			},
			{
				"x": -0.2391918326,
				"y": 2.8712702589,
				"z": -0.0558037556,
				"element": "H" 
			}
		],
		 "valence_orbital": [ 
			{
				"type": "occ",
				"energy": -0.26751,
				"method": "rhf"
			},
			{
				"type": "occ",
				"energy": -0.26458,
				"method": "rhf"
			},
			{
				"type": "occ",
				"energy": -0.25077,
				"method": "rhf"
			},
			{
				"type": "occ",
				"energy": -0.23522,
				"method": "rhf"
			},
			{
				"type": "occ",
				"energy": -0.21804,
				"method": "rhf"
			},
			{
				"type": "unocc",
				"energy": -0.02445,
				"method": "rhf"
			},
			{
				"type": "unocc",
				"energy": -0.01765,
				"method": "rhf"
			},
			{
				"type": "unocc",
				"energy": 0.02863,
				"method": "rhf"
			},
			{
				"type": "unocc",
				"energy": 0.07321,
				"method": "rhf"
			},
			{
				"type": "unocc",
				"energy": 0.07712,
				"method": "rhf"
			}
		],
		"cosmo_sigma_profile": { 
			"-0.025": 0.0,
			"-0.024": 0.0,
			"-0.023": 0.0,
			"-0.022": 0.0,
			"-0.021": 0.0,
			"-0.02": 0.0,
			"-0.019": 0.0,
			"-0.018": 0.0,
			"-0.017": 0.0,
			"-0.016": 0.0,
			"-0.015": 0.0,
			"-0.014": 0.0,
			"-0.013": 0.0,
			"-0.012": 0.0,
			"-0.011": 0.0,
			"-0.01": 0.436119951924,
			"-0.009": 1.33407000142,
			"-0.008": 2.39001520002,
			"-0.007": 4.6425539116,
			"-0.006": 15.5533764753,
			"-0.005": 21.9478077508,
			"-0.004": 25.0381220862,
			"-0.003": 22.0427296771,
			"-0.002": 19.2591917585,
			"-0.001": 21.5423530971,
			"0.0": 15.6079986949,
			"0.001": 12.6891034147,
			"0.002": 11.2038980689,
			"0.003": 11.5366949919,
			"0.004": 12.6170927057,
			"0.005": 9.92282068618,
			"0.006": 5.42622517491,
			"0.007": 3.06535413151,
			"0.008": 2.1279632234,
			"0.009": 2.50099415452,
			"0.01": 1.93506036615,
			"0.011": 1.60649167209,
			"0.012": 1.64572346893,
			"0.013": 2.06753005423,
			"0.014": 1.88261210919,
			"0.015": 2.10337381301,
			"0.016": 1.12595036974,
			"0.017": 1.56806180713,
			"0.018": 1.74057509041,
			"0.019": 0.655507815225,
			"0.02": 0.0589553724396,
			"0.021": 0.0,
			"0.022": 0.0,
			"0.023": 0.0,
			"0.024": 0.0,
			"0.025": 0.0
		}
	}
}
