{
	 "smiles": "CN1C2=C(C=CC=C2)N=C1C(=NNC1=CC=C(C=C1)C(O)=O)C#N", 
	 "Tm": 473.15, 
	 "num_atms": 37, 
	 "gaussian": { 
		 "optdone": 1, 
		 "sigma_profile": "yes", 
		 "theory": "DFT", 
		 "functional": "B3LYP", 
		 "basiset": "6-31G**", 
		 "properties": { 
			 "R2extent": 12180.9887, 
			 "electric_dipole_moment_norm": 6.64358667438, 
			 "electric_quadrupole_moment_norm": 26.7303042841, 
			 "total_energy": -1079.82772124, 
			 "HOMO_LUMO_gap": 0.1296, 
			 "cosmo_polarized_energy": -22.6, 
			 "cosmo_cavitation_energy": 43.42, 
			 "cosmo_dispersion_energy": -30.86, 
			 "cosmo_repulsion_energy": 2.28, 
			 "cosmo_total_nonelectrostatic_energy": 14.83, 
			 "SMD_solvation_energy": 7.75 
		},
		"coords": [
			{
				"x": 1.087395125,
				"y": -4.4140565288,
				"z": 1.5382462654,
				"element": "C" 
			},
			{
				"x": 1.1030063408,
				"y": -3.3450382967,
				"z": 0.5423396,
				"element": "N" 
			},
			{
				"x": 1.8474329982,
				"y": -3.3712992618,
				"z": -0.6292736878,
				"element": "C" 
			},
			{
				"x": 1.5747982927,
				"y": -2.1512034898,
				"z": -1.2893185659,
				"element": "C" 
			},
			{
				"x": 2.1788361876,
				"y": -1.8580511404,
				"z": -2.5203689379,
				"element": "C" 
			},
			{
				"x": 3.0437112867,
				"y": -2.8015999684,
				"z": -3.0583508242,
				"element": "C" 
			},
			{
				"x": 3.308227688,
				"y": -4.0164730862,
				"z": -2.3910059331,
				"element": "C" 
			},
			{
				"x": 2.7179979986,
				"y": -4.3237850429,
				"z": -1.1692768394,
				"element": "C" 
			},
			{
				"x": 0.6902772885,
				"y": -1.4092940831,
				"z": -0.538933678,
				"element": "N" 
			},
			{
				"x": 0.4231776925,
				"y": -2.1370784425,
				"z": 0.5433776745,
				"element": "C" 
			},
			{
				"x": -0.493430245,
				"y": -1.6540749495,
				"z": 1.5755646169,
				"element": "C" 
			},
			{
				"x": -1.1213491414,
				"y": -0.494624033,
				"z": 1.5566761348,
				"element": "N" 
			},
			{
				"x": -0.9531095589,
				"y": 0.340598848,
				"z": 0.5553290032,
				"element": "N" 
			},
			{
				"x": -1.6156102222,
				"y": 1.5701029861,
				"z": 0.5376886867,
				"element": "C" 
			},
			{
				"x": -1.4041584065,
				"y": 2.4178602093,
				"z": -0.5627717899,
				"element": "C" 
			},
			{
				"x": -2.0406696952,
				"y": 3.6486035074,
				"z": -0.6207418496,
				"element": "C" 
			},
			{
				"x": -2.9116018999,
				"y": 4.0550617391,
				"z": 0.4011297894,
				"element": "C" 
			},
			{
				"x": -3.1016558548,
				"y": 3.2044007618,
				"z": 1.5021451782,
				"element": "C" 
			},
			{
				"x": -2.4647428098,
				"y": 1.9721835156,
				"z": 1.5798577293,
				"element": "C" 
			},
			{
				"x": -3.5576187953,
				"y": 5.3969677285,
				"z": 0.2694039228,
				"element": "C" 
			},
			{
				"x": -4.6502430405,
				"y": 5.6347550152,
				"z": 1.0461121352,
				"element": "O" 
			},
			{
				"x": -3.1574847198,
				"y": 6.2557228456,
				"z": -0.4826167265,
				"element": "O" 
			},
			{
				"x": -0.7948496007,
				"y": -2.4411634389,
				"z": 2.7358178654,
				"element": "C" 
			},
			{
				"x": -1.0390597495,
				"y": -3.0823564196,
				"z": 3.6762449571,
				"element": "N" 
			},
			{
				"x": 1.4195014893,
				"y": -4.0497082391,
				"z": 2.5116332855,
				"element": "H" 
			},
			{
				"x": 1.7698492228,
				"y": -5.1953790741,
				"z": 1.2055588511,
				"element": "H" 
			},
			{
				"x": 0.0884148248,
				"y": -4.8408112663,
				"z": 1.6440401929,
				"element": "H" 
			},
			{
				"x": 1.9688659922,
				"y": -0.9210778708,
				"z": -3.0256150748,
				"element": "H" 
			},
			{
				"x": 3.527705109,
				"y": -2.6053906654,
				"z": -4.0100263985,
				"element": "H" 
			},
			{
				"x": 3.9899110966,
				"y": -4.7309436739,
				"z": -2.8421400056,
				"element": "H" 
			},
			{
				"x": 2.932198893,
				"y": -5.2632553823,
				"z": -0.670489363,
				"element": "H" 
			},
			{
				"x": -0.3177354107,
				"y": 0.051896675,
				"z": -0.2083202874,
				"element": "H" 
			},
			{
				"x": -0.7396933205,
				"y": 2.1060935417,
				"z": -1.3637103343,
				"element": "H" 
			},
			{
				"x": -1.8792159505,
				"y": 4.3195384834,
				"z": -1.4572728718,
				"element": "H" 
			},
			{
				"x": -3.7241408795,
				"y": 3.5101048115,
				"z": 2.3399256801,
				"element": "H" 
			},
			{
				"x": -2.6044542662,
				"y": 1.3204874698,
				"z": 2.4332759853,
				"element": "H" 
			},
			{
				"x": -4.9512839593,
				"y": 4.8151862154,
				"z": 1.4614656139,
				"element": "H" 
			}
		],
		 "valence_orbital": [ 
			{
				"type": "occ",
				"energy": -0.27664,
				"method": "rhf"
			},
			{
				"type": "occ",
				"energy": -0.27098,
				"method": "rhf"
			},
			{
				"type": "occ",
				"energy": -0.25702,
				"method": "rhf"
			},
			{
				"type": "occ",
				"energy": -0.24537,
				"method": "rhf"
			},
			{
				"type": "occ",
				"energy": -0.21944,
				"method": "rhf"
			},
			{
				"type": "unocc",
				"energy": -0.08984,
				"method": "rhf"
			},
			{
				"type": "unocc",
				"energy": -0.03815,
				"method": "rhf"
			},
			{
				"type": "unocc",
				"energy": -0.02567,
				"method": "rhf"
			},
			{
				"type": "unocc",
				"energy": -0.01513,
				"method": "rhf"
			},
			{
				"type": "unocc",
				"energy": 0.00245,
				"method": "rhf"
			}
		],
		"cosmo_sigma_profile": { 
			"-0.025": 0.0,
			"-0.024": 0.0,
			"-0.023": 0.0,
			"-0.022": 0.0,
			"-0.021": 0.0,
			"-0.02": 0.0,
			"-0.019": 0.380733214772,
			"-0.018": 0.566806637518,
			"-0.017": 1.16227511119,
			"-0.016": 1.23148822869,
			"-0.015": 0.815197965845,
			"-0.014": 0.603231148335,
			"-0.013": 1.03071052055,
			"-0.012": 1.53969100462,
			"-0.011": 1.19344475965,
			"-0.01": 2.17658426382,
			"-0.009": 4.37227260389,
			"-0.008": 6.6588657926,
			"-0.007": 11.9665657036,
			"-0.006": 19.6015635981,
			"-0.005": 22.1376502976,
			"-0.004": 23.7036459019,
			"-0.003": 22.4543305057,
			"-0.002": 22.1467738397,
			"-0.001": 23.4941515232,
			"0.0": 24.6259724903,
			"0.001": 22.5479341147,
			"0.002": 25.8375220493,
			"0.003": 25.3197156276,
			"0.004": 19.8435282552,
			"0.005": 15.8583931172,
			"0.006": 7.928004101,
			"0.007": 4.75044090505,
			"0.008": 5.55606213598,
			"0.009": 6.02815688534,
			"0.01": 6.84007920465,
			"0.011": 7.77068348912,
			"0.012": 7.80177527715,
			"0.013": 2.66661926044,
			"0.014": 0.199593172847,
			"0.015": 0.0,
			"0.016": 0.0,
			"0.017": 0.0,
			"0.018": 0.0,
			"0.019": 0.0,
			"0.02": 0.0,
			"0.021": 0.0,
			"0.022": 0.0,
			"0.023": 0.0,
			"0.024": 0.0,
			"0.025": 0.0
		}
	}
}
