{
	 "smiles": "CC(Cl)C(=O)N1CCNC1=O", 
	 "Tm": 391.15, 
	 "num_atms": 20, 
	 "gaussian": { 
		 "optdone": 1, 
		 "sigma_profile": "yes", 
		 "theory": "DFT", 
		 "functional": "B3LYP", 
		 "basiset": "6-31G**", 
		 "properties": { 
			 "R2extent": 2590.1444, 
			 "electric_dipole_moment_norm": 4.14120215396, 
			 "electric_quadrupole_moment_norm": 11.5666340631, 
			 "total_energy": -954.23706531, 
			 "HOMO_LUMO_gap": 0.23297, 
			 "cosmo_polarized_energy": -14.66, 
			 "cosmo_cavitation_energy": 24.58, 
			 "cosmo_dispersion_energy": -18.35, 
			 "cosmo_repulsion_energy": 1.5, 
			 "cosmo_total_nonelectrostatic_energy": 7.74, 
			 "SMD_solvation_energy": 3.99 
		},
		"coords": [
			{
				"x": 0.6098268015,
				"y": 2.3929675632,
				"z": 2.7502004565,
				"element": "C" 
			},
			{
				"x": -0.5069617612,
				"y": 1.3716139019,
				"z": 2.5577759042,
				"element": "C" 
			},
			{
				"x": 0.1199428657,
				"y": -0.3441430617,
				"z": 2.6102988487,
				"element": "Cl" 
			},
			{
				"x": -1.4111216197,
				"y": 1.5984341223,
				"z": 1.3398894281,
				"element": "C" 
			},
			{
				"x": -2.5528692035,
				"y": 1.9928648676,
				"z": 1.5297704718,
				"element": "O" 
			},
			{
				"x": -1.0001854515,
				"y": 1.3441675394,
				"z": 0.0383590446,
				"element": "N" 
			},
			{
				"x": -1.9996428135,
				"y": 1.4593067923,
				"z": -1.0348469104,
				"element": "C" 
			},
			{
				"x": -1.2908224192,
				"y": 0.7895172094,
				"z": -2.2253899018,
				"element": "C" 
			},
			{
				"x": 0.1057782241,
				"y": 0.9767088611,
				"z": -1.8635077321,
				"element": "N" 
			},
			{
				"x": 0.2941110692,
				"y": 1.1321604297,
				"z": -0.5093691411,
				"element": "C" 
			},
			{
				"x": 1.3581420284,
				"y": 1.1259728123,
				"z": 0.0748048687,
				"element": "O" 
			},
			{
				"x": 1.3525468352,
				"y": 2.3177514796,
				"z": 1.9579460996,
				"element": "H" 
			},
			{
				"x": 0.1712244346,
				"y": 3.3977704337,
				"z": 2.7523331005,
				"element": "H" 
			},
			{
				"x": 1.0901833074,
				"y": 2.2281844815,
				"z": 3.7178205398,
				"element": "H" 
			},
			{
				"x": -1.2082145386,
				"y": 1.4255246357,
				"z": 3.3896418578,
				"element": "H" 
			},
			{
				"x": -2.2214788058,
				"y": 2.5137648568,
				"z": -1.2318224853,
				"element": "H" 
			},
			{
				"x": -2.9269851465,
				"y": 0.9655504894,
				"z": -0.7445556912,
				"element": "H" 
			},
			{
				"x": -1.53352366,
				"y": 1.2776793372,
				"z": -3.1730324743,
				"element": "H" 
			},
			{
				"x": -1.556692765,
				"y": -0.2739668958,
				"z": -2.3023763376,
				"element": "H" 
			},
			{
				"x": 0.8708426183,
				"y": 0.5867701444,
				"z": -2.3934399465,
				"element": "H" 
			}
		],
		 "valence_orbital": [ 
			{
				"type": "occ",
				"energy": -0.29572,
				"method": "rhf"
			},
			{
				"type": "occ",
				"energy": -0.28081,
				"method": "rhf"
			},
			{
				"type": "occ",
				"energy": -0.27533,
				"method": "rhf"
			},
			{
				"type": "occ",
				"energy": -0.26967,
				"method": "rhf"
			},
			{
				"type": "occ",
				"energy": -0.26297,
				"method": "rhf"
			},
			{
				"type": "unocc",
				"energy": -0.03,
				"method": "rhf"
			},
			{
				"type": "unocc",
				"energy": 0.03121,
				"method": "rhf"
			},
			{
				"type": "unocc",
				"energy": 0.06099,
				"method": "rhf"
			},
			{
				"type": "unocc",
				"energy": 0.07109,
				"method": "rhf"
			},
			{
				"type": "unocc",
				"energy": 0.09426,
				"method": "rhf"
			}
		],
		"cosmo_sigma_profile": { 
			"-0.025": 0.0,
			"-0.024": 0.0,
			"-0.023": 0.0,
			"-0.022": 0.0,
			"-0.021": 0.0,
			"-0.02": 0.0,
			"-0.019": 0.0,
			"-0.018": 0.0,
			"-0.017": 0.0,
			"-0.016": 0.0,
			"-0.015": 0.97242706131,
			"-0.014": 1.44273967385,
			"-0.013": 1.17048423694,
			"-0.012": 0.556936590935,
			"-0.011": 1.35615947815,
			"-0.01": 0.757800467716,
			"-0.009": 0.947352418348,
			"-0.008": 1.80647768492,
			"-0.007": 4.49057565427,
			"-0.006": 16.0435112934,
			"-0.005": 22.9546030728,
			"-0.004": 18.3681622927,
			"-0.003": 13.1208414916,
			"-0.002": 10.9061061337,
			"-0.001": 12.0517391816,
			"0.0": 10.2657976584,
			"0.001": 7.00794236489,
			"0.002": 6.67332074824,
			"0.003": 8.11204249452,
			"0.004": 8.46467934414,
			"0.005": 8.18240608713,
			"0.006": 9.73283792575,
			"0.007": 3.91540060856,
			"0.008": 3.31301161354,
			"0.009": 2.73987607846,
			"0.01": 4.97877474311,
			"0.011": 5.46480447238,
			"0.012": 6.39932721478,
			"0.013": 3.44701126656,
			"0.014": 0.213515676269,
			"0.015": 0.0,
			"0.016": 0.0,
			"0.017": 0.0,
			"0.018": 0.0,
			"0.019": 0.0,
			"0.02": 0.0,
			"0.021": 0.0,
			"0.022": 0.0,
			"0.023": 0.0,
			"0.024": 0.0,
			"0.025": 0.0
		}
	}
}
