{
	 "smiles": "[O-][N+](=O)C1=CC=C(NCN2C(=S)SC(=CC3=CC=C(Cl)C=C3)C2=O)C=C1", 
	 "Tm": 489.15, 
	 "num_atms": 38, 
	 "gaussian": { 
		 "optdone": 1, 
		 "sigma_profile": "yes", 
		 "theory": "DFT", 
		 "functional": "B3LYP", 
		 "basiset": "6-31G**", 
		 "properties": { 
			 "R2extent": 16232.8075, 
			 "electric_dipole_moment_norm": 6.87687460115, 
			 "electric_quadrupole_moment_norm": 32.5809732763, 
			 "total_energy": -2301.44739987, 
			 "HOMO_LUMO_gap": 0.11271, 
			 "cosmo_polarized_energy": -19.19, 
			 "cosmo_cavitation_energy": 48.93, 
			 "cosmo_dispersion_energy": -35.35, 
			 "cosmo_repulsion_energy": 2.56, 
			 "cosmo_total_nonelectrostatic_energy": 16.14, 
			 "SMD_solvation_energy": 8.32 
		},
		"coords": [
			{
				"x": 4.0119095185,
				"y": -0.3437218749,
				"z": -3.6472246054,
				"element": "O" 
			},
			{
				"x": 3.1318719359,
				"y": -0.9678785286,
				"z": -4.2458113013,
				"element": "N" 
			},
			{
				"x": 3.3347622141,
				"y": -1.6883678272,
				"z": -5.2267354081,
				"element": "O" 
			},
			{
				"x": 1.7620941208,
				"y": -0.8465461667,
				"z": -3.7630088994,
				"element": "C" 
			},
			{
				"x": 0.7391839823,
				"y": -1.5411771921,
				"z": -4.4141087948,
				"element": "C" 
			},
			{
				"x": -0.5592291533,
				"y": -1.4233542038,
				"z": -3.9503336894,
				"element": "C" 
			},
			{
				"x": -0.8606125576,
				"y": -0.6126287521,
				"z": -2.8326983433,
				"element": "C" 
			},
			{
				"x": -2.1864189438,
				"y": -0.4998479074,
				"z": -2.4430529286,
				"element": "N" 
			},
			{
				"x": -2.6511666374,
				"y": 0.1236177041,
				"z": -1.245648803,
				"element": "C" 
			},
			{
				"x": -2.4733168321,
				"y": -0.6809473583,
				"z": -0.0046275538,
				"element": "N" 
			},
			{
				"x": -3.2028565061,
				"y": -1.8246707297,
				"z": 0.2207632283,
				"element": "C" 
			},
			{
				"x": -4.3305506561,
				"y": -2.4928065095,
				"z": -0.786966551,
				"element": "S" 
			},
			{
				"x": -2.7719277991,
				"y": -2.5065866654,
				"z": 1.7852982617,
				"element": "S" 
			},
			{
				"x": -1.6135141431,
				"y": -1.1966294191,
				"z": 2.1418027143,
				"element": "C" 
			},
			{
				"x": -0.9248405538,
				"y": -1.2112202938,
				"z": 3.3178749863,
				"element": "C" 
			},
			{
				"x": 0.0687923229,
				"y": -0.3585883146,
				"z": 3.9534506885,
				"element": "C" 
			},
			{
				"x": 0.5293202042,
				"y": -0.7904371507,
				"z": 5.2197001084,
				"element": "C" 
			},
			{
				"x": 1.4764371531,
				"y": -0.0736019741,
				"z": 5.9376967021,
				"element": "C" 
			},
			{
				"x": 1.9850433568,
				"y": 1.1061129312,
				"z": 5.3906464766,
				"element": "C" 
			},
			{
				"x": 3.1785281905,
				"y": 2.0236075579,
				"z": 6.2818357527,
				"element": "Cl" 
			},
			{
				"x": 1.5534991673,
				"y": 1.5631373342,
				"z": 4.143340391,
				"element": "C" 
			},
			{
				"x": 0.6046967103,
				"y": 0.8392837862,
				"z": 3.4308136165,
				"element": "C" 
			},
			{
				"x": -1.5960466569,
				"y": -0.2467778304,
				"z": 1.0097354201,
				"element": "C" 
			},
			{
				"x": -0.9499068287,
				"y": 0.7865607766,
				"z": 0.8979721005,
				"element": "O" 
			},
			{
				"x": 0.1897490884,
				"y": 0.0716016874,
				"z": -2.1856380025,
				"element": "C" 
			},
			{
				"x": 1.4915983017,
				"y": -0.0450207086,
				"z": -2.6543284755,
				"element": "C" 
			},
			{
				"x": 0.9791551601,
				"y": -2.1594687007,
				"z": -5.2700668893,
				"element": "H" 
			},
			{
				"x": -1.3617373305,
				"y": -1.9551382086,
				"z": -4.4541359231,
				"element": "H" 
			},
			{
				"x": -2.817772197,
				"y": -1.1964805418,
				"z": -2.8155922876,
				"element": "H" 
			},
			{
				"x": -3.7216269395,
				"y": 0.3073973893,
				"z": -1.3479062881,
				"element": "H" 
			},
			{
				"x": -2.1335439309,
				"y": 1.0630207287,
				"z": -1.0561985794,
				"element": "H" 
			},
			{
				"x": -1.1695582107,
				"y": -2.0700630719,
				"z": 3.9431106957,
				"element": "H" 
			},
			{
				"x": 0.1341909401,
				"y": -1.7086545909,
				"z": 5.6456328817,
				"element": "H" 
			},
			{
				"x": 1.8189770271,
				"y": -0.4189756414,
				"z": 6.906453257,
				"element": "H" 
			},
			{
				"x": 1.9600198611,
				"y": 2.4814666834,
				"z": 3.7345491579,
				"element": "H" 
			},
			{
				"x": 0.2712585314,
				"y": 1.195126304,
				"z": 2.4660360492,
				"element": "H" 
			},
			{
				"x": -0.0012575952,
				"y": 0.6781502217,
				"z": -1.3082583176,
				"element": "H" 
			},
			{
				"x": 2.3080956849,
				"y": 0.4731070576,
				"z": -2.1667708471,
				"element": "H" 
			}
		],
		 "valence_orbital": [ 
			{
				"type": "occ",
				"energy": -0.27549,
				"method": "rhf"
			},
			{
				"type": "occ",
				"energy": -0.27267,
				"method": "rhf"
			},
			{
				"type": "occ",
				"energy": -0.25391,
				"method": "rhf"
			},
			{
				"type": "occ",
				"energy": -0.24004,
				"method": "rhf"
			},
			{
				"type": "occ",
				"energy": -0.22929,
				"method": "rhf"
			},
			{
				"type": "unocc",
				"energy": -0.11658,
				"method": "rhf"
			},
			{
				"type": "unocc",
				"energy": -0.07334,
				"method": "rhf"
			},
			{
				"type": "unocc",
				"energy": -0.06109,
				"method": "rhf"
			},
			{
				"type": "unocc",
				"energy": -0.03393,
				"method": "rhf"
			},
			{
				"type": "unocc",
				"energy": -0.02489,
				"method": "rhf"
			}
		],
		"cosmo_sigma_profile": { 
			"-0.025": 0.0,
			"-0.024": 0.0,
			"-0.023": 0.0,
			"-0.022": 0.0,
			"-0.021": 0.0,
			"-0.02": 0.0,
			"-0.019": 0.0,
			"-0.018": 0.0,
			"-0.017": 0.0,
			"-0.016": 0.0,
			"-0.015": 0.0,
			"-0.014": 0.0,
			"-0.013": 0.270454238294,
			"-0.012": 0.954653214149,
			"-0.011": 1.1848938662,
			"-0.01": 4.03335156886,
			"-0.009": 4.90267321866,
			"-0.008": 10.0468419024,
			"-0.007": 16.7969549758,
			"-0.006": 20.683332323,
			"-0.005": 18.5244270018,
			"-0.004": 17.8466433233,
			"-0.003": 19.7934458167,
			"-0.002": 23.6188791664,
			"-0.001": 28.885776419,
			"0.0": 39.3765419088,
			"0.001": 42.8294701819,
			"0.002": 45.7704043735,
			"0.003": 29.6908773382,
			"0.004": 18.5316865923,
			"0.005": 11.6306267859,
			"0.006": 10.4717310542,
			"0.007": 7.16534896576,
			"0.008": 11.9669018501,
			"0.009": 9.96044469517,
			"0.01": 4.21284467204,
			"0.011": 2.85394890018,
			"0.012": 0.124007608264,
			"0.013": 0.0,
			"0.014": 0.0,
			"0.015": 0.0,
			"0.016": 0.0,
			"0.017": 0.0,
			"0.018": 0.0,
			"0.019": 0.0,
			"0.02": 0.0,
			"0.021": 0.0,
			"0.022": 0.0,
			"0.023": 0.0,
			"0.024": 0.0,
			"0.025": 0.0
		}
	}
}
