{
	 "smiles": "NNC(=O)CC1=CC(=O)NC(S)=N1", 
	 "Tm": 516.15, 
	 "num_atms": 21, 
	 "gaussian": { 
		 "optdone": 1, 
		 "sigma_profile": "yes", 
		 "theory": "DFT", 
		 "functional": "B3LYP", 
		 "basiset": "6-31G**", 
		 "properties": { 
			 "R2extent": 4067.6338, 
			 "electric_dipole_moment_norm": 4.09244899541, 
			 "electric_quadrupole_moment_norm": 11.7643531382, 
			 "total_energy": -1001.09328533, 
			 "HOMO_LUMO_gap": 0.18809, 
			 "cosmo_polarized_energy": -20.86, 
			 "cosmo_cavitation_energy": 28.01, 
			 "cosmo_dispersion_energy": -20.61, 
			 "cosmo_repulsion_energy": 1.63, 
			 "cosmo_total_nonelectrostatic_energy": 9.02, 
			 "SMD_solvation_energy": 5.53 
		},
		"coords": [
			{
				"x": 1.1527394039,
				"y": -0.4123934933,
				"z": -3.4698123779,
				"element": "N" 
			},
			{
				"x": 1.5556732238,
				"y": 0.5083853696,
				"z": -2.4784940397,
				"element": "N" 
			},
			{
				"x": 0.9060433286,
				"y": 1.6961961324,
				"z": -2.3155061364,
				"element": "C" 
			},
			{
				"x": 0.053172195,
				"y": 2.1032771896,
				"z": -3.0928721831,
				"element": "O" 
			},
			{
				"x": 1.3603139873,
				"y": 2.5180720704,
				"z": -1.0931903901,
				"element": "C" 
			},
			{
				"x": 1.2282474929,
				"y": 1.8108485931,
				"z": 0.2332793635,
				"element": "C" 
			},
			{
				"x": 0.3518557026,
				"y": 2.2329819485,
				"z": 1.1921521734,
				"element": "C" 
			},
			{
				"x": 0.2558877926,
				"y": 1.5508401527,
				"z": 2.4644913765,
				"element": "C" 
			},
			{
				"x": -0.4656848544,
				"y": 1.8077264233,
				"z": 3.4134349632,
				"element": "O" 
			},
			{
				"x": 1.1586543319,
				"y": 0.4481203192,
				"z": 2.5456952167,
				"element": "N" 
			},
			{
				"x": 1.9932944688,
				"y": 0.0859228511,
				"z": 1.5382524916,
				"element": "C" 
			},
			{
				"x": 3.0177814161,
				"y": -1.3324120384,
				"z": 1.8610729699,
				"element": "S" 
			},
			{
				"x": 2.0630651827,
				"y": 0.7165744608,
				"z": 0.4012080724,
				"element": "N" 
			},
			{
				"x": 1.524412309,
				"y": -0.0822633369,
				"z": -4.3602173392,
				"element": "H" 
			},
			{
				"x": 0.1390772661,
				"y": -0.3279348788,
				"z": -3.5586173506,
				"element": "H" 
			},
			{
				"x": 2.0659736814,
				"y": 0.122298385,
				"z": -1.6923911269,
				"element": "H" 
			},
			{
				"x": 0.7642667799,
				"y": 3.4305693562,
				"z": -1.1016632935,
				"element": "H" 
			},
			{
				"x": 2.414051674,
				"y": 2.7873483022,
				"z": -1.2377202097,
				"element": "H" 
			},
			{
				"x": -0.293823577,
				"y": 3.0885001082,
				"z": 1.03903902,
				"element": "H" 
			},
			{
				"x": 1.1357680681,
				"y": -0.0585046997,
				"z": 3.4238447474,
				"element": "H" 
			},
			{
				"x": 3.6527301265,
				"y": -1.2540532151,
				"z": 0.6778140525,
				"element": "H" 
			}
		],
		 "valence_orbital": [ 
			{
				"type": "occ",
				"energy": -0.28582,
				"method": "rhf"
			},
			{
				"type": "occ",
				"energy": -0.27399,
				"method": "rhf"
			},
			{
				"type": "occ",
				"energy": -0.26044,
				"method": "rhf"
			},
			{
				"type": "occ",
				"energy": -0.25355,
				"method": "rhf"
			},
			{
				"type": "occ",
				"energy": -0.24688,
				"method": "rhf"
			},
			{
				"type": "unocc",
				"energy": -0.05879,
				"method": "rhf"
			},
			{
				"type": "unocc",
				"energy": -0.02742,
				"method": "rhf"
			},
			{
				"type": "unocc",
				"energy": -0.02117,
				"method": "rhf"
			},
			{
				"type": "unocc",
				"energy": 0.02358,
				"method": "rhf"
			},
			{
				"type": "unocc",
				"energy": 0.04317,
				"method": "rhf"
			}
		],
		"cosmo_sigma_profile": { 
			"-0.025": 0.0,
			"-0.024": 0.0,
			"-0.023": 0.0,
			"-0.022": 0.0,
			"-0.021": 0.0,
			"-0.02": 0.0,
			"-0.019": 0.0,
			"-0.018": 0.0711247625351,
			"-0.017": 0.959771822441,
			"-0.016": 1.1057341272,
			"-0.015": 1.11358289837,
			"-0.014": 0.888010684199,
			"-0.013": 1.67413149622,
			"-0.012": 2.55851250422,
			"-0.011": 4.60425388648,
			"-0.01": 3.95825516549,
			"-0.009": 4.98072838863,
			"-0.008": 6.51227663996,
			"-0.007": 9.73638171481,
			"-0.006": 9.5418483788,
			"-0.005": 10.5393216158,
			"-0.004": 11.6997367888,
			"-0.003": 17.3298223635,
			"-0.002": 16.4124134626,
			"-0.001": 16.5371449614,
			"0.0": 15.0212504962,
			"0.001": 11.8605242134,
			"0.002": 8.86896367787,
			"0.003": 8.80038961721,
			"0.004": 7.90558265344,
			"0.005": 5.97024571299,
			"0.006": 4.73416974342,
			"0.007": 3.489185643,
			"0.008": 4.03865066709,
			"0.009": 2.28754059864,
			"0.01": 2.72805480715,
			"0.011": 4.51432451625,
			"0.012": 6.08613591399,
			"0.013": 11.5812017495,
			"0.014": 5.16900616038,
			"0.015": 1.06415565935,
			"0.016": 0.389120351629,
			"0.017": 0.410824506225,
			"0.018": 0.0,
			"0.019": 0.0,
			"0.02": 0.0,
			"0.021": 0.0,
			"0.022": 0.0,
			"0.023": 0.0,
			"0.024": 0.0,
			"0.025": 0.0
		}
	}
}
