{
	 "smiles": "CC1=CC=C(CC2=CC=C(C)C=C2)C=C1", 
	 "Tm": 301.65, 
	 "num_atms": 31, 
	 "gaussian": { 
		 "optdone": 1, 
		 "sigma_profile": "yes", 
		 "theory": "DFT", 
		 "functional": "B3LYP", 
		 "basiset": "6-31G**", 
		 "properties": { 
			 "R2extent": 4696.5754, 
			 "electric_dipole_moment_norm": 0.321063436099, 
			 "electric_quadrupole_moment_norm": 3.83916639389, 
			 "total_energy": -581.262796722, 
			 "HOMO_LUMO_gap": 0.22009, 
			 "cosmo_polarized_energy": -5.42, 
			 "cosmo_cavitation_energy": 34.05, 
			 "cosmo_dispersion_energy": -24.08, 
			 "cosmo_repulsion_energy": 1.9, 
			 "cosmo_total_nonelectrostatic_energy": 11.87, 
			 "SMD_solvation_energy": 5.59 
		},
		"coords": [
			{
				"x": -3.7982633433,
				"y": -0.2838137107,
				"z": 2.56513304,
				"element": "C" 
			},
			{
				"x": -2.4357571953,
				"y": 0.1109242744,
				"z": 2.0449494232,
				"element": "C" 
			},
			{
				"x": -1.4885804079,
				"y": -0.865022957,
				"z": 1.6967056271,
				"element": "C" 
			},
			{
				"x": -0.2381419176,
				"y": -0.5109429872,
				"z": 1.1993347768,
				"element": "C" 
			},
			{
				"x": 0.1185407104,
				"y": 0.8362288304,
				"z": 1.0346602699,
				"element": "C" 
			},
			{
				"x": 1.4947361264,
				"y": 1.2212557401,
				"z": 0.5167610558,
				"element": "C" 
			},
			{
				"x": 1.8566035602,
				"y": 0.6187684026,
				"z": -0.8309370675,
				"element": "C" 
			},
			{
				"x": 1.0436355378,
				"y": 0.8286471857,
				"z": -1.9553152164,
				"element": "C" 
			},
			{
				"x": 1.3859465635,
				"y": 0.2984894674,
				"z": -3.1955308713,
				"element": "C" 
			},
			{
				"x": 2.5507358899,
				"y": -0.4671218103,
				"z": -3.3627507605,
				"element": "C" 
			},
			{
				"x": 2.9031232191,
				"y": -1.0561964665,
				"z": -4.7087239002,
				"element": "C" 
			},
			{
				"x": 3.3586899307,
				"y": -0.6765151093,
				"z": -2.241447337,
				"element": "C" 
			},
			{
				"x": 3.0166852456,
				"y": -0.1429978179,
				"z": -0.9957808744,
				"element": "C" 
			},
			{
				"x": -0.823217866,
				"y": 1.8090464539,
				"z": 1.3809649294,
				"element": "C" 
			},
			{
				"x": -2.0795091266,
				"y": 1.4523424343,
				"z": 1.8787895742,
				"element": "C" 
			},
			{
				"x": -4.3376633965,
				"y": 0.5783411713,
				"z": 2.9676124856,
				"element": "H" 
			},
			{
				"x": -3.7220401045,
				"y": -1.0337864689,
				"z": 3.3600938798,
				"element": "H" 
			},
			{
				"x": -4.417946147,
				"y": -0.719682094,
				"z": 1.7717181936,
				"element": "H" 
			},
			{
				"x": -1.737203381,
				"y": -1.9171531792,
				"z": 1.8177793595,
				"element": "H" 
			},
			{
				"x": 0.4729504909,
				"y": -1.287638918,
				"z": 0.9292799111,
				"element": "H" 
			},
			{
				"x": 2.2561198442,
				"y": 0.9230171224,
				"z": 1.2487941504,
				"element": "H" 
			},
			{
				"x": 1.5509284957,
				"y": 2.3154968898,
				"z": 0.4536898365,
				"element": "H" 
			},
			{
				"x": 0.1311374043,
				"y": 1.4105525307,
				"z": -1.8524289951,
				"element": "H" 
			},
			{
				"x": 0.7393431775,
				"y": 0.4801651402,
				"z": -4.0513006947,
				"element": "H" 
			},
			{
				"x": 3.924987338,
				"y": -1.4460067998,
				"z": -4.7193316846,
				"element": "H" 
			},
			{
				"x": 2.231881047,
				"y": -1.8834104784,
				"z": -4.9708347858,
				"element": "H" 
			},
			{
				"x": 2.8192088219,
				"y": -0.3106889093,
				"z": -5.5070552265,
				"element": "H" 
			},
			{
				"x": 4.2683598641,
				"y": -1.2643559178,
				"z": -2.3397022742,
				"element": "H" 
			},
			{
				"x": 3.6670961897,
				"y": -0.3190536862,
				"z": -0.1419352738,
				"element": "H" 
			},
			{
				"x": -0.572641652,
				"y": 2.8612583782,
				"z": 1.2663104421,
				"element": "H" 
			},
			{
				"x": -2.7915449192,
				"y": 2.2314532892,
				"z": 2.140898007,
				"element": "H" 
			}
		],
		 "valence_orbital": [ 
			{
				"type": "occ",
				"energy": -0.32177,
				"method": "rhf"
			},
			{
				"type": "occ",
				"energy": -0.24403,
				"method": "rhf"
			},
			{
				"type": "occ",
				"energy": -0.24173,
				"method": "rhf"
			},
			{
				"type": "occ",
				"energy": -0.23393,
				"method": "rhf"
			},
			{
				"type": "occ",
				"energy": -0.22119,
				"method": "rhf"
			},
			{
				"type": "unocc",
				"energy": -0.0011,
				"method": "rhf"
			},
			{
				"type": "unocc",
				"energy": 0.00494,
				"method": "rhf"
			},
			{
				"type": "unocc",
				"energy": 0.00539,
				"method": "rhf"
			},
			{
				"type": "unocc",
				"energy": 0.01403,
				"method": "rhf"
			},
			{
				"type": "unocc",
				"energy": 0.10215,
				"method": "rhf"
			}
		],
		"cosmo_sigma_profile": { 
			"-0.025": 0.0,
			"-0.024": 0.0,
			"-0.023": 0.0,
			"-0.022": 0.0,
			"-0.021": 0.0,
			"-0.02": 0.0,
			"-0.019": 0.0,
			"-0.018": 0.0,
			"-0.017": 0.0,
			"-0.016": 0.0,
			"-0.015": 0.0,
			"-0.014": 0.0,
			"-0.013": 0.0,
			"-0.012": 0.0,
			"-0.011": 0.0,
			"-0.01": 0.0,
			"-0.009": 0.0,
			"-0.008": 0.0,
			"-0.007": 0.0,
			"-0.006": 0.194744269366,
			"-0.005": 12.2699560774,
			"-0.004": 30.4001150477,
			"-0.003": 33.0400340229,
			"-0.002": 32.2405616567,
			"-0.001": 28.9610715338,
			"0.0": 28.3580557627,
			"0.001": 23.3405095436,
			"0.002": 14.1097214926,
			"0.003": 13.3245261884,
			"0.004": 14.1691297264,
			"0.005": 14.9008748691,
			"0.006": 15.6845776767,
			"0.007": 8.35607979761,
			"0.008": 0.0,
			"0.009": 0.0,
			"0.01": 0.0,
			"0.011": 0.0,
			"0.012": 0.0,
			"0.013": 0.0,
			"0.014": 0.0,
			"0.015": 0.0,
			"0.016": 0.0,
			"0.017": 0.0,
			"0.018": 0.0,
			"0.019": 0.0,
			"0.02": 0.0,
			"0.021": 0.0,
			"0.022": 0.0,
			"0.023": 0.0,
			"0.024": 0.0,
			"0.025": 0.0
		}
	}
}
