{
	 "smiles": "CN1C2CCCC1CC(=O)C2", 
	 "Tm": 337.15, 
	 "num_atms": 26, 
	 "gaussian": { 
		 "optdone": 1, 
		 "sigma_profile": "yes", 
		 "theory": "DFT", 
		 "functional": "B3LYP", 
		 "basiset": "6-31G**", 
		 "properties": { 
			 "R2extent": 1960.7174, 
			 "electric_dipole_moment_norm": 2.94984592648, 
			 "electric_quadrupole_moment_norm": 15.4166917164, 
			 "total_energy": -481.965145151, 
			 "HOMO_LUMO_gap": 0.19989, 
			 "cosmo_polarized_energy": -8.18, 
			 "cosmo_cavitation_energy": 25.11, 
			 "cosmo_dispersion_energy": -18.89, 
			 "cosmo_repulsion_energy": 1.5, 
			 "cosmo_total_nonelectrostatic_energy": 7.71, 
			 "SMD_solvation_energy": 2.79 
		},
		"coords": [
			{
				"x": -0.9650184404,
				"y": 1.3648595025,
				"z": 1.0995429195,
				"element": "C" 
			},
			{
				"x": -0.3009263532,
				"y": 0.2942939387,
				"z": 0.375656074,
				"element": "N" 
			},
			{
				"x": 0.8648166079,
				"y": -0.2859529351,
				"z": 1.0505209612,
				"element": "C" 
			},
			{
				"x": 1.710338745,
				"y": -1.0942893905,
				"z": 0.0156534969,
				"element": "C" 
			},
			{
				"x": 1.0273743356,
				"y": -1.1331393158,
				"z": -1.3582833648,
				"element": "C" 
			},
			{
				"x": -0.4316376357,
				"y": -1.5886724663,
				"z": -1.2183853803,
				"element": "C" 
			},
			{
				"x": -1.1865665817,
				"y": -0.7590992741,
				"z": -0.131536478,
				"element": "C" 
			},
			{
				"x": -1.715596132,
				"y": -1.6752821995,
				"z": 1.019377479,
				"element": "C" 
			},
			{
				"x": -0.5534510231,
				"y": -2.2315094381,
				"z": 1.8242161513,
				"element": "C" 
			},
			{
				"x": -0.4082436142,
				"y": -3.4206076568,
				"z": 2.0479011039,
				"element": "O" 
			},
			{
				"x": 0.4470197508,
				"y": -1.1768782874,
				"z": 2.2653637702,
				"element": "C" 
			},
			{
				"x": -0.2379218772,
				"y": 2.1507793448,
				"z": 1.3300117588,
				"element": "H" 
			},
			{
				"x": -1.7412959142,
				"y": 1.8038796948,
				"z": 0.4638451929,
				"element": "H" 
			},
			{
				"x": -1.4444039756,
				"y": 1.0681711239,
				"z": 2.0503853311,
				"element": "H" 
			},
			{
				"x": 1.4622243091,
				"y": 0.5478107724,
				"z": 1.434808674,
				"element": "H" 
			},
			{
				"x": 1.8548394461,
				"y": -2.1197123222,
				"z": 0.3766176585,
				"element": "H" 
			},
			{
				"x": 2.7094078707,
				"y": -0.6546469637,
				"z": -0.0723243359,
				"element": "H" 
			},
			{
				"x": 1.5695959059,
				"y": -1.8097745365,
				"z": -2.0284146528,
				"element": "H" 
			},
			{
				"x": 1.056270494,
				"y": -0.1361502575,
				"z": -1.8080493349,
				"element": "H" 
			},
			{
				"x": -0.4544171472,
				"y": -2.6525938845,
				"z": -0.9533720923,
				"element": "H" 
			},
			{
				"x": -0.9484126452,
				"y": -1.4991762958,
				"z": -2.1796832486,
				"element": "H" 
			},
			{
				"x": -2.0488985221,
				"y": -0.2619687843,
				"z": -0.5886842037,
				"element": "H" 
			},
			{
				"x": -2.318077492,
				"y": -2.5018959493,
				"z": 0.6327118182,
				"element": "H" 
			},
			{
				"x": -2.3481953312,
				"y": -1.0768194374,
				"z": 1.6890260077,
				"element": "H" 
			},
			{
				"x": 1.3113365625,
				"y": -1.6654685916,
				"z": 2.7236642622,
				"element": "H" 
			},
			{
				"x": -0.0283613425,
				"y": -0.5423563907,
				"z": 3.0257304318,
				"element": "H" 
			}
		],
		 "valence_orbital": [ 
			{
				"type": "occ",
				"energy": -0.32441,
				"method": "rhf"
			},
			{
				"type": "occ",
				"energy": -0.31402,
				"method": "rhf"
			},
			{
				"type": "occ",
				"energy": -0.31108,
				"method": "rhf"
			},
			{
				"type": "occ",
				"energy": -0.23267,
				"method": "rhf"
			},
			{
				"type": "occ",
				"energy": -0.2119,
				"method": "rhf"
			},
			{
				"type": "unocc",
				"energy": -0.01201,
				"method": "rhf"
			},
			{
				"type": "unocc",
				"energy": 0.07675,
				"method": "rhf"
			},
			{
				"type": "unocc",
				"energy": 0.09922,
				"method": "rhf"
			},
			{
				"type": "unocc",
				"energy": 0.11299,
				"method": "rhf"
			},
			{
				"type": "unocc",
				"energy": 0.11332,
				"method": "rhf"
			}
		],
		"cosmo_sigma_profile": { 
			"-0.025": 0.0,
			"-0.024": 0.0,
			"-0.023": 0.0,
			"-0.022": 0.0,
			"-0.021": 0.0,
			"-0.02": 0.0,
			"-0.019": 0.0,
			"-0.018": 0.0,
			"-0.017": 0.0,
			"-0.016": 0.0,
			"-0.015": 0.0,
			"-0.014": 0.0,
			"-0.013": 0.0,
			"-0.012": 0.0,
			"-0.011": 0.0,
			"-0.01": 0.0,
			"-0.009": 0.0,
			"-0.008": 0.0,
			"-0.007": 0.301075211645,
			"-0.006": 2.22222385922,
			"-0.005": 6.24249222141,
			"-0.004": 19.7016262407,
			"-0.003": 28.2791750411,
			"-0.002": 32.6893746955,
			"-0.001": 30.7268297401,
			"0.0": 23.7983183128,
			"0.001": 12.5602099593,
			"0.002": 4.23816932754,
			"0.003": 3.15530047577,
			"0.004": 2.78299202448,
			"0.005": 2.35464872253,
			"0.006": 2.59352435319,
			"0.007": 2.15832045094,
			"0.008": 1.96692121014,
			"0.009": 1.99686995837,
			"0.01": 2.89922364725,
			"0.011": 3.00058441829,
			"0.012": 4.25616670127,
			"0.013": 4.0811516918,
			"0.014": 1.60267622871,
			"0.015": 0.0,
			"0.016": 0.0,
			"0.017": 0.0,
			"0.018": 0.0,
			"0.019": 0.0,
			"0.02": 0.0,
			"0.021": 0.0,
			"0.022": 0.0,
			"0.023": 0.0,
			"0.024": 0.0,
			"0.025": 0.0
		}
	}
}
