{
	 "smiles": "CC1=C(C=CC=C1Cl)C(O)=O", 
	 "Tm": 437.15, 
	 "num_atms": 18, 
	 "gaussian": { 
		 "optdone": 1, 
		 "sigma_profile": "yes", 
		 "theory": "DFT", 
		 "functional": "B3LYP", 
		 "basiset": "6-31G**", 
		 "properties": { 
			 "R2extent": 2131.9776, 
			 "electric_dipole_moment_norm": 4.03024984337, 
			 "electric_quadrupole_moment_norm": 13.2250469852, 
			 "total_energy": -919.721706546, 
			 "HOMO_LUMO_gap": 0.20709, 
			 "cosmo_polarized_energy": -12.55, 
			 "cosmo_cavitation_energy": 23.67, 
			 "cosmo_dispersion_energy": -17.68, 
			 "cosmo_repulsion_energy": 1.41, 
			 "cosmo_total_nonelectrostatic_energy": 7.4, 
			 "SMD_solvation_energy": 4.92 
		},
		"coords": [
			{
				"x": 0.0925062265,
				"y": -1.3583261158,
				"z": -1.2370151379,
				"element": "C" 
			},
			{
				"x": 0.3199106904,
				"y": -0.1605776293,
				"z": -0.3489370685,
				"element": "C" 
			},
			{
				"x": -0.3192487241,
				"y": 0.0154489163,
				"z": 0.900769056,
				"element": "C" 
			},
			{
				"x": -0.0607062486,
				"y": 1.1475701712,
				"z": 1.6907795354,
				"element": "C" 
			},
			{
				"x": 0.8298294212,
				"y": 2.127477194,
				"z": 1.2649637544,
				"element": "C" 
			},
			{
				"x": 1.4843620457,
				"y": 1.9732631351,
				"z": 0.0461207264,
				"element": "C" 
			},
			{
				"x": 1.2252293445,
				"y": 0.8449579839,
				"z": -0.7306527112,
				"element": "C" 
			},
			{
				"x": 2.0841786222,
				"y": 0.7048299074,
				"z": -2.2612622444,
				"element": "Cl" 
			},
			{
				"x": -1.3398685767,
				"y": -0.970535392,
				"z": 1.4046513046,
				"element": "C" 
			},
			{
				"x": -1.2980618948,
				"y": -1.2140706237,
				"z": 2.7439635387,
				"element": "O" 
			},
			{
				"x": -2.1783444488,
				"y": -1.5105044523,
				"z": 0.723766535,
				"element": "O" 
			},
			{
				"x": -0.3658132729,
				"y": -1.0469383044,
				"z": -2.1819769232,
				"element": "H" 
			},
			{
				"x": -0.5662347977,
				"y": -2.0882964222,
				"z": -0.7744188042,
				"element": "H" 
			},
			{
				"x": 1.0469280928,
				"y": -1.8302644151,
				"z": -1.490145342,
				"element": "H" 
			},
			{
				"x": -0.5956377451,
				"y": 1.2815080124,
				"z": 2.6267665738,
				"element": "H" 
			},
			{
				"x": 1.0112266724,
				"y": 3.0082017259,
				"z": 1.8726156121,
				"element": "H" 
			},
			{
				"x": 2.1877978302,
				"y": 2.7178127209,
				"z": -0.309465151,
				"element": "H" 
			},
			{
				"x": -0.4977532371,
				"y": -0.8235564124,
				"z": 3.122876746,
				"element": "H" 
			}
		],
		 "valence_orbital": [ 
			{
				"type": "occ",
				"energy": -0.32235,
				"method": "rhf"
			},
			{
				"type": "occ",
				"energy": -0.31972,
				"method": "rhf"
			},
			{
				"type": "occ",
				"energy": -0.28355,
				"method": "rhf"
			},
			{
				"type": "occ",
				"energy": -0.26822,
				"method": "rhf"
			},
			{
				"type": "occ",
				"energy": -0.26022,
				"method": "rhf"
			},
			{
				"type": "unocc",
				"energy": -0.05313,
				"method": "rhf"
			},
			{
				"type": "unocc",
				"energy": -0.03149,
				"method": "rhf"
			},
			{
				"type": "unocc",
				"energy": 0.0191,
				"method": "rhf"
			},
			{
				"type": "unocc",
				"energy": 0.0305,
				"method": "rhf"
			},
			{
				"type": "unocc",
				"energy": 0.06858,
				"method": "rhf"
			}
		],
		"cosmo_sigma_profile": { 
			"-0.025": 0.0,
			"-0.024": 0.0,
			"-0.023": 0.0,
			"-0.022": 0.0,
			"-0.021": 0.0,
			"-0.02": 0.0,
			"-0.019": 0.0826858023273,
			"-0.018": 0.704859391615,
			"-0.017": 0.867823478274,
			"-0.016": 1.21849255839,
			"-0.015": 0.687409870746,
			"-0.014": 0.560318987934,
			"-0.013": 1.17146796965,
			"-0.012": 1.53625190597,
			"-0.011": 1.08786115864,
			"-0.01": 0.906820920984,
			"-0.009": 0.942602809112,
			"-0.008": 3.14886500142,
			"-0.007": 7.46011175663,
			"-0.006": 7.58161324624,
			"-0.005": 9.02333955309,
			"-0.004": 9.10010307472,
			"-0.003": 11.4961322592,
			"-0.002": 12.7768282067,
			"-0.001": 15.9360191847,
			"0.0": 15.0550617673,
			"0.001": 17.3057394565,
			"0.002": 17.6544726874,
			"0.003": 14.0827724755,
			"0.004": 9.92102972166,
			"0.005": 4.84592568669,
			"0.006": 2.89446585548,
			"0.007": 2.53208454638,
			"0.008": 2.53416543663,
			"0.009": 3.8547321921,
			"0.01": 5.34694393072,
			"0.011": 4.70322187777,
			"0.012": 3.58353471182,
			"0.013": 0.806765269699,
			"0.014": 0.0,
			"0.015": 0.0,
			"0.016": 0.0,
			"0.017": 0.0,
			"0.018": 0.0,
			"0.019": 0.0,
			"0.02": 0.0,
			"0.021": 0.0,
			"0.022": 0.0,
			"0.023": 0.0,
			"0.024": 0.0,
			"0.025": 0.0
		}
	}
}
