{
	 "smiles": "OC(=O)C1=CC(SCC#N)=CC=C1", 
	 "Tm": 418.15, 
	 "num_atms": 20, 
	 "gaussian": { 
		 "optdone": 1, 
		 "sigma_profile": "yes", 
		 "theory": "DFT", 
		 "functional": "B3LYP", 
		 "basiset": "6-31G**", 
		 "properties": { 
			 "R2extent": 3476.716, 
			 "electric_dipole_moment_norm": 1.93748981159, 
			 "electric_quadrupole_moment_norm": 20.9908623036, 
			 "total_energy": -950.555451739, 
			 "HOMO_LUMO_gap": 0.19237, 
			 "cosmo_polarized_energy": -15.26, 
			 "cosmo_cavitation_energy": 28.02, 
			 "cosmo_dispersion_energy": -19.76, 
			 "cosmo_repulsion_energy": 1.54, 
			 "cosmo_total_nonelectrostatic_energy": 9.79, 
			 "SMD_solvation_energy": 7.01 
		},
		"coords": [
			{
				"x": 1.6086054424,
				"y": -0.4485937045,
				"z": -4.2458965076,
				"element": "O" 
			},
			{
				"x": 1.8215125762,
				"y": -0.7725061414,
				"z": -2.9471226599,
				"element": "C" 
			},
			{
				"x": 2.9338392892,
				"y": -0.9736098028,
				"z": -2.5023177809,
				"element": "O" 
			},
			{
				"x": 0.5641150946,
				"y": -0.8483403491,
				"z": -2.1536894784,
				"element": "C" 
			},
			{
				"x": 0.6709780294,
				"y": -1.1871204252,
				"z": -0.7988909251,
				"element": "C" 
			},
			{
				"x": -0.4765540387,
				"y": -1.2715221077,
				"z": -0.0074379716,
				"element": "C" 
			},
			{
				"x": -0.3364154527,
				"y": -1.756139937,
				"z": 1.7166835189,
				"element": "S" 
			},
			{
				"x": -0.3368439377,
				"y": -0.1006179981,
				"z": 2.5461950975,
				"element": "C" 
			},
			{
				"x": -1.6053883025,
				"y": 0.6114783595,
				"z": 2.4276332522,
				"element": "C" 
			},
			{
				"x": -2.6189196991,
				"y": 1.1656077455,
				"z": 2.3089472669,
				"element": "N" 
			},
			{
				"x": -1.7361353882,
				"y": -1.0243500106,
				"z": -0.5746960434,
				"element": "C" 
			},
			{
				"x": -1.8378555932,
				"y": -0.6794929676,
				"z": -1.9232580591,
				"element": "C" 
			},
			{
				"x": -0.6939006894,
				"y": -0.5923235186,
				"z": -2.7153071276,
				"element": "C" 
			},
			{
				"x": 2.4860877045,
				"y": -0.4269250954,
				"z": -4.6619424318,
				"element": "H" 
			},
			{
				"x": 1.6530898362,
				"y": -1.3840516146,
				"z": -0.3833512439,
				"element": "H" 
			},
			{
				"x": 0.4744115638,
				"y": 0.514172737,
				"z": 2.1469014597,
				"element": "H" 
			},
			{
				"x": -0.1240358974,
				"y": -0.3040693073,
				"z": 3.6000412354,
				"element": "H" 
			},
			{
				"x": -2.6257819847,
				"y": -1.098291852,
				"z": 0.0414804374,
				"element": "H" 
			},
			{
				"x": -2.8137662646,
				"y": -0.4831588935,
				"z": -2.3562001625,
				"element": "H" 
			},
			{
				"x": -0.7682422882,
				"y": -0.3303451166,
				"z": -3.7644718762,
				"element": "H" 
			}
		],
		 "valence_orbital": [ 
			{
				"type": "occ",
				"energy": -0.328,
				"method": "rhf"
			},
			{
				"type": "occ",
				"energy": -0.28742,
				"method": "rhf"
			},
			{
				"type": "occ",
				"energy": -0.2768,
				"method": "rhf"
			},
			{
				"type": "occ",
				"energy": -0.27489,
				"method": "rhf"
			},
			{
				"type": "occ",
				"energy": -0.25575,
				"method": "rhf"
			},
			{
				"type": "unocc",
				"energy": -0.06338,
				"method": "rhf"
			},
			{
				"type": "unocc",
				"energy": -0.04074,
				"method": "rhf"
			},
			{
				"type": "unocc",
				"energy": -0.00393,
				"method": "rhf"
			},
			{
				"type": "unocc",
				"energy": 0.02614,
				"method": "rhf"
			},
			{
				"type": "unocc",
				"energy": 0.03577,
				"method": "rhf"
			}
		],
		"cosmo_sigma_profile": { 
			"-0.025": 0.0,
			"-0.024": 0.0,
			"-0.023": 0.0,
			"-0.022": 0.0,
			"-0.021": 0.0,
			"-0.02": 0.0,
			"-0.019": 0.0309082607444,
			"-0.018": 1.04833993773,
			"-0.017": 0.935848795599,
			"-0.016": 0.492158841592,
			"-0.015": 0.877182175716,
			"-0.014": 0.951046110429,
			"-0.013": 0.463085227656,
			"-0.012": 1.09514307944,
			"-0.011": 2.08706802126,
			"-0.01": 4.59161350431,
			"-0.009": 4.91630317565,
			"-0.008": 4.8326286821,
			"-0.007": 9.80916595937,
			"-0.006": 12.2423645844,
			"-0.005": 9.77284404605,
			"-0.004": 8.69855718626,
			"-0.003": 11.4844016114,
			"-0.002": 13.375555926,
			"-0.001": 14.4350903424,
			"0.0": 18.5817782159,
			"0.001": 17.6262458307,
			"0.002": 19.9804989969,
			"0.003": 10.8565623843,
			"0.004": 8.77904642542,
			"0.005": 7.49853459858,
			"0.006": 6.08273755678,
			"0.007": 7.85871688386,
			"0.008": 5.47615109359,
			"0.009": 4.51341887151,
			"0.01": 4.79622333757,
			"0.011": 6.99789712841,
			"0.012": 5.16121564863,
			"0.013": 1.04815678574,
			"0.014": 0.0,
			"0.015": 0.0,
			"0.016": 0.0,
			"0.017": 0.0,
			"0.018": 0.0,
			"0.019": 0.0,
			"0.02": 0.0,
			"0.021": 0.0,
			"0.022": 0.0,
			"0.023": 0.0,
			"0.024": 0.0,
			"0.025": 0.0
		}
	}
}
