{
	 "smiles": "CC(=O)NNC1=CC=CC=C1", 
	 "Tm": 403.15, 
	 "num_atms": 21, 
	 "gaussian": { 
		 "optdone": 1, 
		 "sigma_profile": "yes", 
		 "theory": "DFT", 
		 "functional": "B3LYP", 
		 "basiset": "6-31G**", 
		 "properties": { 
			 "R2extent": 2469.3022, 
			 "electric_dipole_moment_norm": 3.42176608493, 
			 "electric_quadrupole_moment_norm": 10.521593308, 
			 "total_energy": -495.589919113, 
			 "HOMO_LUMO_gap": 0.21043, 
			 "cosmo_polarized_energy": -12.96, 
			 "cosmo_cavitation_energy": 25.22, 
			 "cosmo_dispersion_energy": -18.08, 
			 "cosmo_repulsion_energy": 1.47, 
			 "cosmo_total_nonelectrostatic_energy": 8.61, 
			 "SMD_solvation_energy": 5.71 
		},
		"coords": [
			{
				"x": 3.4940751176,
				"y": -0.719657921,
				"z": 0.7236638938,
				"element": "C" 
			},
			{
				"x": 2.774193754,
				"y": 0.1601295249,
				"z": -0.2782072747,
				"element": "C" 
			},
			{
				"x": 3.1411436908,
				"y": 1.2811922783,
				"z": -0.5904586121,
				"element": "O" 
			},
			{
				"x": 1.6477793229,
				"y": -0.3830491276,
				"z": -0.874490197,
				"element": "N" 
			},
			{
				"x": 1.0649164325,
				"y": -1.5664135559,
				"z": -0.451220342,
				"element": "N" 
			},
			{
				"x": -0.1533952224,
				"y": -1.5095689442,
				"z": 0.2613994498,
				"element": "C" 
			},
			{
				"x": -0.5503329414,
				"y": -0.3582824098,
				"z": 0.9550421185,
				"element": "C" 
			},
			{
				"x": -1.7390923332,
				"y": -0.365467311,
				"z": 1.6867226867,
				"element": "C" 
			},
			{
				"x": -2.5427819813,
				"y": -1.5042819025,
				"z": 1.7386277252,
				"element": "C" 
			},
			{
				"x": -2.1438800635,
				"y": -2.6497577069,
				"z": 1.0443352988,
				"element": "C" 
			},
			{
				"x": -0.9621323343,
				"y": -2.6563928568,
				"z": 0.308824921,
				"element": "C" 
			},
			{
				"x": 2.8480596835,
				"y": -0.9459928409,
				"z": 1.5769373092,
				"element": "H" 
			},
			{
				"x": 3.7811709392,
				"y": -1.6753893707,
				"z": 0.2763566069,
				"element": "H" 
			},
			{
				"x": 4.3815278227,
				"y": -0.1853759239,
				"z": 1.0619781533,
				"element": "H" 
			},
			{
				"x": 1.1100263288,
				"y": 0.2593332471,
				"z": -1.4519992091,
				"element": "H" 
			},
			{
				"x": 1.0848269491,
				"y": -2.2835581473,
				"z": -1.1677042565,
				"element": "H" 
			},
			{
				"x": 0.0663471302,
				"y": 0.5332768875,
				"z": 0.9229620463,
				"element": "H" 
			},
			{
				"x": -2.0356825756,
				"y": 0.5338363164,
				"z": 2.2192333326,
				"element": "H" 
			},
			{
				"x": -3.4664524897,
				"y": -1.5009517861,
				"z": 2.308609844,
				"element": "H" 
			},
			{
				"x": -2.7589662119,
				"y": -3.5448723693,
				"z": 1.07005149,
				"element": "H" 
			},
			{
				"x": -0.658251018,
				"y": -3.5516560802,
				"z": -0.2290649848,
				"element": "H" 
			}
		],
		 "valence_orbital": [ 
			{
				"type": "occ",
				"energy": -0.31747,
				"method": "rhf"
			},
			{
				"type": "occ",
				"energy": -0.26745,
				"method": "rhf"
			},
			{
				"type": "occ",
				"energy": -0.25529,
				"method": "rhf"
			},
			{
				"type": "occ",
				"energy": -0.25125,
				"method": "rhf"
			},
			{
				"type": "occ",
				"energy": -0.2176,
				"method": "rhf"
			},
			{
				"type": "unocc",
				"energy": -0.00717,
				"method": "rhf"
			},
			{
				"type": "unocc",
				"energy": 0.00514,
				"method": "rhf"
			},
			{
				"type": "unocc",
				"energy": 0.02542,
				"method": "rhf"
			},
			{
				"type": "unocc",
				"energy": 0.07874,
				"method": "rhf"
			},
			{
				"type": "unocc",
				"energy": 0.09189,
				"method": "rhf"
			}
		],
		"cosmo_sigma_profile": { 
			"-0.025": 0.0,
			"-0.024": 0.0,
			"-0.023": 0.0,
			"-0.022": 0.0,
			"-0.021": 0.0,
			"-0.02": 0.0,
			"-0.019": 0.0,
			"-0.018": 0.0,
			"-0.017": 0.0,
			"-0.016": 0.0,
			"-0.015": 0.0,
			"-0.014": 0.459954980977,
			"-0.013": 2.06531194641,
			"-0.012": 2.30082120593,
			"-0.011": 3.16493813194,
			"-0.01": 1.65065621741,
			"-0.009": 2.43751989913,
			"-0.008": 2.62919036203,
			"-0.007": 3.27536636823,
			"-0.006": 6.42920379402,
			"-0.005": 14.5225254732,
			"-0.004": 17.6636995633,
			"-0.003": 19.6807737826,
			"-0.002": 15.0069215133,
			"-0.001": 15.543314683,
			"0.0": 12.0186108455,
			"0.001": 8.45811164429,
			"0.002": 9.15062564039,
			"0.003": 9.45626872611,
			"0.004": 10.2623529828,
			"0.005": 10.3302305935,
			"0.006": 10.4635480916,
			"0.007": 5.08155836493,
			"0.008": 1.77590570934,
			"0.009": 0.88410618649,
			"0.01": 1.16355418741,
			"0.011": 1.87231955392,
			"0.012": 1.9642764107,
			"0.013": 4.97264557353,
			"0.014": 4.39982500125,
			"0.015": 0.755706606883,
			"0.016": 0.0,
			"0.017": 0.0,
			"0.018": 0.0,
			"0.019": 0.0,
			"0.02": 0.0,
			"0.021": 0.0,
			"0.022": 0.0,
			"0.023": 0.0,
			"0.024": 0.0,
			"0.025": 0.0
		}
	}
}
