{
	 "smiles": "C=CCOC1=NC(OCC=C)=NC(OCC=C)=N1", 
	 "Tm": 299.65, 
	 "num_atms": 33, 
	 "gaussian": { 
		 "optdone": 1, 
		 "sigma_profile": "yes", 
		 "theory": "DFT", 
		 "functional": "B3LYP", 
		 "basiset": "6-31G**", 
		 "properties": { 
			 "R2extent": 5987.3091, 
			 "electric_dipole_moment_norm": 0.415884671514, 
			 "electric_quadrupole_moment_norm": 4.11672181596, 
			 "total_energy": -856.173961635, 
			 "HOMO_LUMO_gap": 0.24598, 
			 "cosmo_polarized_energy": -12.32, 
			 "cosmo_cavitation_energy": 39.1, 
			 "cosmo_dispersion_energy": -26.62, 
			 "cosmo_repulsion_energy": 2.14, 
			 "cosmo_total_nonelectrostatic_energy": 14.61, 
			 "SMD_solvation_energy": 6.73 
		},
		"coords": [
			{
				"x": 2.5095898163,
				"y": 1.6415675209,
				"z": -4.500291937,
				"element": "C" 
			},
			{
				"x": 1.8391464258,
				"y": 0.504589712,
				"z": -4.6749377485,
				"element": "C" 
			},
			{
				"x": 1.016893634,
				"y": -0.2018020423,
				"z": -3.6401729294,
				"element": "C" 
			},
			{
				"x": 1.0633599486,
				"y": 0.5400290067,
				"z": -2.41155648,
				"element": "O" 
			},
			{
				"x": 0.3849307914,
				"y": 0.0612882986,
				"z": -1.3678503296,
				"element": "C" 
			},
			{
				"x": 0.4812264859,
				"y": 0.815663257,
				"z": -0.2630744892,
				"element": "N" 
			},
			{
				"x": -0.1924038601,
				"y": 0.3248274853,
				"z": 0.7713910316,
				"element": "C" 
			},
			{
				"x": -0.17152806,
				"y": 0.9639335306,
				"z": 1.946762877,
				"element": "O" 
			},
			{
				"x": 0.5139793216,
				"y": 2.2242410414,
				"z": 2.0427734436,
				"element": "C" 
			},
			{
				"x": -0.4174300819,
				"y": 3.393900143,
				"z": 1.8929871031,
				"element": "C" 
			},
			{
				"x": -1.7365156295,
				"y": 3.3215409771,
				"z": 1.7301623307,
				"element": "C" 
			},
			{
				"x": -0.9226925367,
				"y": -0.799755567,
				"z": 0.7872888175,
				"element": "N" 
			},
			{
				"x": -0.9344898183,
				"y": -1.4434821668,
				"z": -0.3763044946,
				"element": "C" 
			},
			{
				"x": -1.6124044826,
				"y": -2.5870799937,
				"z": -0.4975043971,
				"element": "O" 
			},
			{
				"x": -2.4093420206,
				"y": -3.0420850069,
				"z": 0.6276115094,
				"element": "C" 
			},
			{
				"x": -3.7878540895,
				"y": -2.4502602767,
				"z": 0.5861858832,
				"element": "C" 
			},
			{
				"x": -4.3147848914,
				"y": -1.7350234313,
				"z": 1.5790200662,
				"element": "C" 
			},
			{
				"x": -0.3010649944,
				"y": -1.0701914786,
				"z": -1.4999836424,
				"element": "N" 
			},
			{
				"x": 3.0813591575,
				"y": 2.083453984,
				"z": -5.3101798754,
				"element": "H" 
			},
			{
				"x": 2.5055461064,
				"y": 2.160264463,
				"z": -3.547872114,
				"element": "H" 
			},
			{
				"x": 1.8556377984,
				"y": -0.0008754997,
				"z": -5.6399405585,
				"element": "H" 
			},
			{
				"x": -0.025907325,
				"y": -0.3054513528,
				"z": -3.9656966551,
				"element": "H" 
			},
			{
				"x": 1.3874123188,
				"y": -1.2201139294,
				"z": -3.4670697963,
				"element": "H" 
			},
			{
				"x": 0.9679851495,
				"y": 2.2227364277,
				"z": 3.0407706928,
				"element": "H" 
			},
			{
				"x": 1.3126415138,
				"y": 2.2698278651,
				"z": 1.2974430152,
				"element": "H" 
			},
			{
				"x": 0.079083811,
				"y": 4.3632833302,
				"z": 1.9337421047,
				"element": "H" 
			},
			{
				"x": -2.3397252771,
				"y": 4.217882854,
				"z": 1.6279858343,
				"element": "H" 
			},
			{
				"x": -2.2533724668,
				"y": 2.3677912241,
				"z": 1.6948570314,
				"element": "H" 
			},
			{
				"x": -2.4430817034,
				"y": -4.1271150108,
				"z": 0.4901529862,
				"element": "H" 
			},
			{
				"x": -1.9013388587,
				"y": -2.8049225388,
				"z": 1.5634639453,
				"element": "H" 
			},
			{
				"x": -4.3618380745,
				"y": -2.6485747818,
				"z": -0.3179121513,
				"element": "H" 
			},
			{
				"x": -3.7488608259,
				"y": -1.5120566574,
				"z": 2.4795779898,
				"element": "H" 
			},
			{
				"x": -5.3269572825,
				"y": -1.3448313866,
				"z": 1.5252709364,
				"element": "H" 
			}
		],
		 "valence_orbital": [ 
			{
				"type": "occ",
				"energy": -0.27197,
				"method": "rhf"
			},
			{
				"type": "occ",
				"energy": -0.2697,
				"method": "rhf"
			},
			{
				"type": "occ",
				"energy": -0.26646,
				"method": "rhf"
			},
			{
				"type": "occ",
				"energy": -0.25812,
				"method": "rhf"
			},
			{
				"type": "occ",
				"energy": -0.25607,
				"method": "rhf"
			},
			{
				"type": "unocc",
				"energy": -0.01009,
				"method": "rhf"
			},
			{
				"type": "unocc",
				"energy": -0.00836,
				"method": "rhf"
			},
			{
				"type": "unocc",
				"energy": 0.00406,
				"method": "rhf"
			},
			{
				"type": "unocc",
				"energy": 0.01942,
				"method": "rhf"
			},
			{
				"type": "unocc",
				"energy": 0.02042,
				"method": "rhf"
			}
		],
		"cosmo_sigma_profile": { 
			"-0.025": 0.0,
			"-0.024": 0.0,
			"-0.023": 0.0,
			"-0.022": 0.0,
			"-0.021": 0.0,
			"-0.02": 0.0,
			"-0.019": 0.0,
			"-0.018": 0.0,
			"-0.017": 0.0,
			"-0.016": 0.0,
			"-0.015": 0.0,
			"-0.014": 0.0,
			"-0.013": 0.0,
			"-0.012": 0.0,
			"-0.011": 0.0,
			"-0.01": 0.0,
			"-0.009": 0.0,
			"-0.008": 0.00681775557166,
			"-0.007": 4.52943698346,
			"-0.006": 23.4011679639,
			"-0.005": 29.8522072912,
			"-0.004": 29.3531536254,
			"-0.003": 30.2844392439,
			"-0.002": 23.6817224006,
			"-0.001": 24.1231204194,
			"0.0": 18.9958667259,
			"0.001": 18.2958273035,
			"0.002": 16.587148998,
			"0.003": 16.3180557822,
			"0.004": 15.9787334188,
			"0.005": 15.6370990045,
			"0.006": 12.810841125,
			"0.007": 8.94443226687,
			"0.008": 5.98276371095,
			"0.009": 4.57946585013,
			"0.01": 5.51650862701,
			"0.011": 4.40936149162,
			"0.012": 2.13519301822,
			"0.013": 0.344224261715,
			"0.014": 0.0,
			"0.015": 0.0,
			"0.016": 0.0,
			"0.017": 0.0,
			"0.018": 0.0,
			"0.019": 0.0,
			"0.02": 0.0,
			"0.021": 0.0,
			"0.022": 0.0,
			"0.023": 0.0,
			"0.024": 0.0,
			"0.025": 0.0
		}
	}
}
