{
	 "smiles": "CCOC(C)=NOC1=CC=C(C=C1[N+]([O-])=O)[N+]([O-])=O", 
	 "Tm": 384.65, 
	 "num_atms": 30, 
	 "gaussian": { 
		 "optdone": 1, 
		 "sigma_profile": "yes", 
		 "theory": "DFT", 
		 "functional": "B3LYP", 
		 "basiset": "6-31G**", 
		 "properties": { 
			 "R2extent": 6274.6854, 
			 "electric_dipole_moment_norm": 5.66601926047, 
			 "electric_quadrupole_moment_norm": 15.9239046728, 
			 "total_energy": -1003.0218498, 
			 "HOMO_LUMO_gap": 0.15095, 
			 "cosmo_polarized_energy": -12.8, 
			 "cosmo_cavitation_energy": 36.73, 
			 "cosmo_dispersion_energy": -25.03, 
			 "cosmo_repulsion_energy": 1.96, 
			 "cosmo_total_nonelectrostatic_energy": 13.65, 
			 "SMD_solvation_energy": 11.81 
		},
		"coords": [
			{
				"x": -2.1569697078,
				"y": 1.0591487435,
				"z": -3.2944002852,
				"element": "C" 
			},
			{
				"x": -2.9122666469,
				"y": 0.0598072173,
				"z": -2.431695424,
				"element": "C" 
			},
			{
				"x": -3.5485659896,
				"y": 0.6959600582,
				"z": -1.2900052689,
				"element": "O" 
			},
			{
				"x": -2.8251780447,
				"y": 0.9331293174,
				"z": -0.1910675693,
				"element": "C" 
			},
			{
				"x": -3.6234199031,
				"y": 1.4759955738,
				"z": 0.9548291624,
				"element": "C" 
			},
			{
				"x": -1.5616914618,
				"y": 0.6748965597,
				"z": -0.2011079585,
				"element": "N" 
			},
			{
				"x": -1.0006701711,
				"y": 1.0291152591,
				"z": 1.0777314289,
				"element": "O" 
			},
			{
				"x": 0.134611269,
				"y": 0.3500546043,
				"z": 1.3493127357,
				"element": "C" 
			},
			{
				"x": 1.1335008406,
				"y": 1.0642795718,
				"z": 2.0307886027,
				"element": "C" 
			},
			{
				"x": 2.3535293375,
				"y": 0.4775520773,
				"z": 2.3269493642,
				"element": "C" 
			},
			{
				"x": 2.5957774759,
				"y": -0.8335888465,
				"z": 1.9089185915,
				"element": "C" 
			},
			{
				"x": 1.6305181252,
				"y": -1.5732774176,
				"z": 1.2378353836,
				"element": "C" 
			},
			{
				"x": 0.3923412882,
				"y": -0.9900802172,
				"z": 0.9949656006,
				"element": "C" 
			},
			{
				"x": -0.6527024446,
				"y": -1.8679947454,
				"z": 0.4537971737,
				"element": "N" 
			},
			{
				"x": -1.7553341634,
				"y": -1.8186927146,
				"z": 0.9933555666,
				"element": "O" 
			},
			{
				"x": -0.3387291206,
				"y": -2.6274051797,
				"z": -0.4596524791,
				"element": "O" 
			},
			{
				"x": 3.8959990026,
				"y": -1.4500680359,
				"z": 2.1890410259,
				"element": "N" 
			},
			{
				"x": 4.0752461279,
				"y": -2.604170537,
				"z": 1.8021067258,
				"element": "O" 
			},
			{
				"x": 4.725862183,
				"y": -0.7715734599,
				"z": 2.7943699201,
				"element": "O" 
			},
			{
				"x": -1.3091966463,
				"y": 1.4833017252,
				"z": -2.7527206408,
				"element": "H" 
			},
			{
				"x": -2.8171862475,
				"y": 1.8695070759,
				"z": -3.6170744809,
				"element": "H" 
			},
			{
				"x": -1.77569783,
				"y": 0.5521930866,
				"z": -4.186877037,
				"element": "H" 
			},
			{
				"x": -3.7502734418,
				"y": -0.379731877,
				"z": -2.9771603856,
				"element": "H" 
			},
			{
				"x": -2.2605048791,
				"y": -0.7411413392,
				"z": -2.0728596017,
				"element": "H" 
			},
			{
				"x": -4.6532868677,
				"y": 1.6405479496,
				"z": 0.63850893,
				"element": "H" 
			},
			{
				"x": -3.1898107399,
				"y": 2.4106881343,
				"z": 1.3188279562,
				"element": "H" 
			},
			{
				"x": -3.6002709502,
				"y": 0.7588585066,
				"z": 1.7807164398,
				"element": "H" 
			},
			{
				"x": 0.9288241321,
				"y": 2.0962915811,
				"z": 2.2926125099,
				"element": "H" 
			},
			{
				"x": 3.1323149142,
				"y": 1.0212075968,
				"z": 2.8467391455,
				"element": "H" 
			},
			{
				"x": 1.8271305597,
				"y": -2.5933102682,
				"z": 0.9343148677,
				"element": "H" 
			}
		],
		 "valence_orbital": [ 
			{
				"type": "occ",
				"energy": -0.31113,
				"method": "rhf"
			},
			{
				"type": "occ",
				"energy": -0.29762,
				"method": "rhf"
			},
			{
				"type": "occ",
				"energy": -0.2904,
				"method": "rhf"
			},
			{
				"type": "occ",
				"energy": -0.28766,
				"method": "rhf"
			},
			{
				"type": "occ",
				"energy": -0.24924,
				"method": "rhf"
			},
			{
				"type": "unocc",
				"energy": -0.09829,
				"method": "rhf"
			},
			{
				"type": "unocc",
				"energy": -0.08961,
				"method": "rhf"
			},
			{
				"type": "unocc",
				"energy": -0.03581,
				"method": "rhf"
			},
			{
				"type": "unocc",
				"energy": -0.0118,
				"method": "rhf"
			},
			{
				"type": "unocc",
				"energy": 0.00559,
				"method": "rhf"
			}
		],
		"cosmo_sigma_profile": { 
			"-0.025": 0.0,
			"-0.024": 0.0,
			"-0.023": 0.0,
			"-0.022": 0.0,
			"-0.021": 0.0,
			"-0.02": 0.0,
			"-0.019": 0.0,
			"-0.018": 0.0,
			"-0.017": 0.0,
			"-0.016": 0.0,
			"-0.015": 0.0,
			"-0.014": 0.0,
			"-0.013": 0.0,
			"-0.012": 0.0,
			"-0.011": 0.0,
			"-0.01": 0.059449425545,
			"-0.009": 3.12131550516,
			"-0.008": 6.06307070152,
			"-0.007": 6.5040115795,
			"-0.006": 11.652152938,
			"-0.005": 16.7556436014,
			"-0.004": 23.3947455489,
			"-0.003": 29.0257608897,
			"-0.002": 34.766020474,
			"-0.001": 27.0928544425,
			"0.0": 23.778374895,
			"0.001": 15.868568217,
			"0.002": 11.3142191822,
			"0.003": 9.86387323833,
			"0.004": 10.9128434844,
			"0.005": 10.6750247343,
			"0.006": 11.4601620026,
			"0.007": 18.7192013673,
			"0.008": 12.5352856135,
			"0.009": 7.00829747154,
			"0.01": 2.20967230571,
			"0.011": 0.0,
			"0.012": 0.0,
			"0.013": 0.0,
			"0.014": 0.0,
			"0.015": 0.0,
			"0.016": 0.0,
			"0.017": 0.0,
			"0.018": 0.0,
			"0.019": 0.0,
			"0.02": 0.0,
			"0.021": 0.0,
			"0.022": 0.0,
			"0.023": 0.0,
			"0.024": 0.0,
			"0.025": 0.0
		}
	}
}
