{
	 "smiles": "OC(=O)C1=C(SCC2=CC=C(Br)C=C2)N=CC=C1", 
	 "Tm": 510.15, 
	 "num_atms": 28, 
	 "gaussian": { 
		 "optdone": 1, 
		 "sigma_profile": "yes", 
		 "theory": "DFT", 
		 "functional": "B3LYP", 
		 "basiset": "6-31G**", 
		 "properties": { 
			 "R2extent": 7814.4348, 
			 "electric_dipole_moment_norm": 2.66454557664, 
			 "electric_quadrupole_moment_norm": 16.8094639284, 
			 "total_energy": -3676.20472208, 
			 "HOMO_LUMO_gap": 0.16087, 
			 "cosmo_polarized_energy": -14.67, 
			 "cosmo_cavitation_energy": 36.21, 
			 "cosmo_dispersion_energy": -25.85, 
			 "cosmo_repulsion_energy": 1.97, 
			 "cosmo_total_nonelectrostatic_energy": 12.33, 
			 "SMD_solvation_energy": 4.03 
		},
		"coords": [
			{
				"x": -2.3088434868,
				"y": -1.0358205711,
				"z": -1.5816453201,
				"element": "O" 
			},
			{
				"x": -1.5529788117,
				"y": -1.2267261003,
				"z": -0.4678666035,
				"element": "C" 
			},
			{
				"x": -0.916573304,
				"y": -2.2518302104,
				"z": -0.3120890278,
				"element": "O" 
			},
			{
				"x": -1.6626292824,
				"y": -0.0997082873,
				"z": 0.4907410576,
				"element": "C" 
			},
			{
				"x": -0.8187292753,
				"y": 0.0766139703,
				"z": 1.6191053626,
				"element": "C" 
			},
			{
				"x": 0.6902567279,
				"y": -0.7766359162,
				"z": 2.0461863262,
				"element": "S" 
			},
			{
				"x": 1.6401471877,
				"y": -1.1130126907,
				"z": 0.4990404669,
				"element": "C" 
			},
			{
				"x": 1.8112249784,
				"y": 0.0600669882,
				"z": -0.4361425064,
				"element": "C" 
			},
			{
				"x": 2.3704599441,
				"y": 1.2709867424,
				"z": -0.0015168985,
				"element": "C" 
			},
			{
				"x": 2.5579693667,
				"y": 2.3334118108,
				"z": -0.8821224041,
				"element": "C" 
			},
			{
				"x": 2.1798677501,
				"y": 2.1864482385,
				"z": -2.2174641756,
				"element": "C" 
			},
			{
				"x": 2.4317861804,
				"y": 3.6423174731,
				"z": -3.4317534844,
				"element": "Br" 
			},
			{
				"x": 1.621653497,
				"y": 0.9977975207,
				"z": -2.6776829374,
				"element": "C" 
			},
			{
				"x": 1.4402307206,
				"y": -0.0575915917,
				"z": -1.7809854668,
				"element": "C" 
			},
			{
				"x": -1.1137830989,
				"y": 0.9632348672,
				"z": 2.5819552742,
				"element": "N" 
			},
			{
				"x": -2.1852172747,
				"y": 1.7433408856,
				"z": 2.4555573474,
				"element": "C" 
			},
			{
				"x": -3.009404935,
				"y": 1.735055629,
				"z": 1.3288448293,
				"element": "C" 
			},
			{
				"x": -2.7424084833,
				"y": 0.7912859319,
				"z": 0.3490523752,
				"element": "C" 
			},
			{
				"x": -2.2197924477,
				"y": -1.8531719938,
				"z": -2.0984356305,
				"element": "H" 
			},
			{
				"x": 2.6072034125,
				"y": -1.415025326,
				"z": 0.9176292423,
				"element": "H" 
			},
			{
				"x": 1.2045708252,
				"y": -1.9681583549,
				"z": -0.0144347328,
				"element": "H" 
			},
			{
				"x": 2.653266772,
				"y": 1.3867288278,
				"z": 1.0408266615,
				"element": "H" 
			},
			{
				"x": 2.9927587902,
				"y": 3.2650996164,
				"z": -0.5383092899,
				"element": "H" 
			},
			{
				"x": 1.331585069,
				"y": 0.8958339725,
				"z": -3.7172568811,
				"element": "H" 
			},
			{
				"x": 1.0082318162,
				"y": -0.9887833036,
				"z": -2.1364233978,
				"element": "H" 
			},
			{
				"x": -2.3831179918,
				"y": 2.4176774095,
				"z": 3.2869647508,
				"element": "H" 
			},
			{
				"x": -3.8413526013,
				"y": 2.4250191169,
				"z": 1.2390555973,
				"element": "H" 
			},
			{
				"x": -3.3790820451,
				"y": 0.7034453453,
				"z": -0.5231305347,
				"element": "H" 
			}
		],
		 "valence_orbital": [ 
			{
				"type": "occ",
				"energy": -0.28344,
				"method": "rhf"
			},
			{
				"type": "occ",
				"energy": -0.26875,
				"method": "rhf"
			},
			{
				"type": "occ",
				"energy": -0.26489,
				"method": "rhf"
			},
			{
				"type": "occ",
				"energy": -0.24074,
				"method": "rhf"
			},
			{
				"type": "occ",
				"energy": -0.22677,
				"method": "rhf"
			},
			{
				"type": "unocc",
				"energy": -0.0659,
				"method": "rhf"
			},
			{
				"type": "unocc",
				"energy": -0.03699,
				"method": "rhf"
			},
			{
				"type": "unocc",
				"energy": -0.02166,
				"method": "rhf"
			},
			{
				"type": "unocc",
				"energy": -0.0152,
				"method": "rhf"
			},
			{
				"type": "unocc",
				"energy": 0.00704,
				"method": "rhf"
			}
		],
		"cosmo_sigma_profile": { 
			"-0.025": 0.0,
			"-0.024": 0.0,
			"-0.023": 0.0,
			"-0.022": 0.0,
			"-0.021": 0.0,
			"-0.02": 0.0,
			"-0.019": 0.0622740318153,
			"-0.018": 1.16061948556,
			"-0.017": 0.523088888048,
			"-0.016": 0.968223927498,
			"-0.015": 1.07924060092,
			"-0.014": 0.246554494638,
			"-0.013": 0.249649837836,
			"-0.012": 0.888631279968,
			"-0.011": 1.00702347778,
			"-0.01": 0.825808396063,
			"-0.009": 0.372860711768,
			"-0.008": 3.78804705783,
			"-0.007": 13.1556168576,
			"-0.006": 15.7853859448,
			"-0.005": 18.5690402214,
			"-0.004": 16.4245792546,
			"-0.003": 17.9474933236,
			"-0.002": 16.678032229,
			"-0.001": 18.7767768964,
			"0.0": 23.5654072358,
			"0.001": 27.0748681761,
			"0.002": 25.5742882265,
			"0.003": 24.5915641898,
			"0.004": 21.0950003802,
			"0.005": 14.1120053275,
			"0.006": 5.91513418574,
			"0.007": 4.90917307579,
			"0.008": 4.66554154356,
			"0.009": 3.4215320241,
			"0.01": 3.90614492291,
			"0.011": 4.05900751067,
			"0.012": 2.06244705161,
			"0.013": 0.92978474175,
			"0.014": 0.560372673894,
			"0.015": 0.688904235632,
			"0.016": 0.0268158284819,
			"0.017": 0.0,
			"0.018": 0.0,
			"0.019": 0.0,
			"0.02": 0.0,
			"0.021": 0.0,
			"0.022": 0.0,
			"0.023": 0.0,
			"0.024": 0.0,
			"0.025": 0.0
		}
	}
}
