{
	 "smiles": "ClC1=CC(=CC=C1)C1=CC(=O)NC(=O)N1", 
	 "Tm": 522.15, 
	 "num_atms": 22, 
	 "gaussian": { 
		 "optdone": 1, 
		 "sigma_profile": "yes", 
		 "theory": "DFT", 
		 "functional": "B3LYP", 
		 "basiset": "6-31G**", 
		 "properties": { 
			 "R2extent": 5407.9428, 
			 "electric_dipole_moment_norm": 4.79497469753, 
			 "electric_quadrupole_moment_norm": 9.98118417273, 
			 "total_energy": -1105.46842324, 
			 "HOMO_LUMO_gap": 0.17471, 
			 "cosmo_polarized_energy": -18.22, 
			 "cosmo_cavitation_energy": 29.29, 
			 "cosmo_dispersion_energy": -21.66, 
			 "cosmo_repulsion_energy": 1.69, 
			 "cosmo_total_nonelectrostatic_energy": 9.32, 
			 "SMD_solvation_energy": 6.28 
		},
		"coords": [
			{
				"x": 0.8593210507,
				"y": 3.249723407,
				"z": 4.0175735963,
				"element": "Cl" 
			},
			{
				"x": 0.1419850227,
				"y": 2.265080306,
				"z": 2.7557462091,
				"element": "C" 
			},
			{
				"x": 0.8158905429,
				"y": 1.1290935893,
				"z": 2.3161647576,
				"element": "C" 
			},
			{
				"x": 0.2529683954,
				"y": 0.3397755635,
				"z": 1.3016197904,
				"element": "C" 
			},
			{
				"x": -0.9796422894,
				"y": 0.7142329214,
				"z": 0.7425377186,
				"element": "C" 
			},
			{
				"x": -1.6384149149,
				"y": 1.8556781463,
				"z": 1.1965769227,
				"element": "C" 
			},
			{
				"x": -1.0838971518,
				"y": 2.6426279882,
				"z": 2.2057038065,
				"element": "C" 
			},
			{
				"x": 0.9603560586,
				"y": -0.8764942065,
				"z": 0.8386079905,
				"element": "C" 
			},
			{
				"x": 1.6479029517,
				"y": -1.7117628924,
				"z": 1.6613700046,
				"element": "C" 
			},
			{
				"x": 2.3096237135,
				"y": -2.9013316879,
				"z": 1.14118376,
				"element": "C" 
			},
			{
				"x": 2.9524222534,
				"y": -3.7072559353,
				"z": 1.7945958808,
				"element": "O" 
			},
			{
				"x": 2.1421650047,
				"y": -3.0814027264,
				"z": -0.2489796261,
				"element": "N" 
			},
			{
				"x": 1.4676899037,
				"y": -2.2604545892,
				"z": -1.1332005559,
				"element": "C" 
			},
			{
				"x": 1.3916052042,
				"y": -2.4533956771,
				"z": -2.3327093009,
				"element": "O" 
			},
			{
				"x": 0.8719206879,
				"y": -1.1620925187,
				"z": -0.5129372736,
				"element": "N" 
			},
			{
				"x": 1.7793440138,
				"y": 0.8715197124,
				"z": 2.7400843211,
				"element": "H" 
			},
			{
				"x": -1.4433032001,
				"y": 0.0950030058,
				"z": -0.0192824224,
				"element": "H" 
			},
			{
				"x": -2.5964030336,
				"y": 2.1326591563,
				"z": 0.7676976651,
				"element": "H" 
			},
			{
				"x": -1.5886543664,
				"y": 3.5334348313,
				"z": 2.5620408725,
				"element": "H" 
			},
			{
				"x": 1.692810276,
				"y": -1.5447241113,
				"z": 2.7281609143,
				"element": "H" 
			},
			{
				"x": 2.5893395433,
				"y": -3.8944395765,
				"z": -0.6548620337,
				"element": "H" 
			},
			{
				"x": 0.4557703337,
				"y": -0.4978747063,
				"z": -1.1499929975,
				"element": "H" 
			}
		],
		 "valence_orbital": [ 
			{
				"type": "occ",
				"energy": -0.29134,
				"method": "rhf"
			},
			{
				"type": "occ",
				"energy": -0.28548,
				"method": "rhf"
			},
			{
				"type": "occ",
				"energy": -0.27203,
				"method": "rhf"
			},
			{
				"type": "occ",
				"energy": -0.26266,
				"method": "rhf"
			},
			{
				"type": "occ",
				"energy": -0.24717,
				"method": "rhf"
			},
			{
				"type": "unocc",
				"energy": -0.07246,
				"method": "rhf"
			},
			{
				"type": "unocc",
				"energy": -0.04042,
				"method": "rhf"
			},
			{
				"type": "unocc",
				"energy": -0.00804,
				"method": "rhf"
			},
			{
				"type": "unocc",
				"energy": 0.00827,
				"method": "rhf"
			},
			{
				"type": "unocc",
				"energy": 0.01433,
				"method": "rhf"
			}
		],
		"cosmo_sigma_profile": { 
			"-0.025": 0.0,
			"-0.024": 0.0,
			"-0.023": 0.0,
			"-0.022": 0.0,
			"-0.021": 0.0,
			"-0.02": 0.0,
			"-0.019": 0.0,
			"-0.018": 0.0,
			"-0.017": 0.0698054196809,
			"-0.016": 0.989649117636,
			"-0.015": 2.41220324712,
			"-0.014": 1.19070955482,
			"-0.013": 2.14670279975,
			"-0.012": 1.96819474147,
			"-0.011": 2.05409779398,
			"-0.01": 2.19649237529,
			"-0.009": 2.22271543037,
			"-0.008": 6.00879743813,
			"-0.007": 11.6523768673,
			"-0.006": 10.6381321504,
			"-0.005": 11.1056256005,
			"-0.004": 11.7525782258,
			"-0.003": 14.3620250237,
			"-0.002": 17.1511135599,
			"-0.001": 15.5291235224,
			"0.0": 17.4239405072,
			"0.001": 21.8111271732,
			"0.002": 19.1010461903,
			"0.003": 12.63044678,
			"0.004": 12.1383204016,
			"0.005": 4.68694008633,
			"0.006": 2.05320325259,
			"0.007": 2.59856248882,
			"0.008": 2.69042709776,
			"0.009": 2.24854278569,
			"0.01": 2.26353325106,
			"0.011": 4.03292469106,
			"0.012": 8.75835789185,
			"0.013": 9.96616633635,
			"0.014": 1.86813280004,
			"0.015": 0.0406002818622,
			"0.016": 0.0,
			"0.017": 0.0,
			"0.018": 0.0,
			"0.019": 0.0,
			"0.02": 0.0,
			"0.021": 0.0,
			"0.022": 0.0,
			"0.023": 0.0,
			"0.024": 0.0,
			"0.025": 0.0
		}
	}
}
