{
	 "smiles": "COCCCN", 
	 "Tm": 208.15, 
	 "num_atms": 17, 
	 "gaussian": { 
		 "optdone": 1, 
		 "sigma_profile": "yes", 
		 "theory": "DFT", 
		 "functional": "B3LYP", 
		 "basiset": "6-31G**", 
		 "properties": { 
			 "R2extent": 910.8937, 
			 "electric_dipole_moment_norm": 2.12521062015, 
			 "electric_quadrupole_moment_norm": 6.48000968132, 
			 "total_energy": -289.009553558, 
			 "HOMO_LUMO_gap": 0.29814, 
			 "cosmo_polarized_energy": -7.41, 
			 "cosmo_cavitation_energy": 19.07, 
			 "cosmo_dispersion_energy": -13.97, 
			 "cosmo_repulsion_energy": 1.22, 
			 "cosmo_total_nonelectrostatic_energy": 6.33, 
			 "SMD_solvation_energy": 2.41 
		},
		"coords": [
			{
				"x": -1.2110670192,
				"y": -2.1503574947,
				"z": -0.9282990668,
				"element": "C" 
			},
			{
				"x": -0.5400159462,
				"y": -1.1648928293,
				"z": -1.6870311672,
				"element": "O" 
			},
			{
				"x": 0.5897444454,
				"y": -0.5987801543,
				"z": -1.0368855465,
				"element": "C" 
			},
			{
				"x": 0.2369374249,
				"y": 0.3885515887,
				"z": 0.0811796255,
				"element": "C" 
			},
			{
				"x": -0.7319859156,
				"y": 1.5032082058,
				"z": -0.3601325739,
				"element": "C" 
			},
			{
				"x": -0.3108224505,
				"y": 2.3365907062,
				"z": -1.4872797024,
				"element": "N" 
			},
			{
				"x": -0.5289406694,
				"y": -2.9600155217,
				"z": -0.6233734715,
				"element": "H" 
			},
			{
				"x": -1.9909061352,
				"y": -2.570984453,
				"z": -1.5682336949,
				"element": "H" 
			},
			{
				"x": -1.6863718652,
				"y": -1.7430265962,
				"z": -0.0240014727,
				"element": "H" 
			},
			{
				"x": 1.1419051769,
				"y": -0.0769001342,
				"z": -1.8263971651,
				"element": "H" 
			},
			{
				"x": 1.2468743138,
				"y": -1.3939725428,
				"z": -0.6479060822,
				"element": "H" 
			},
			{
				"x": 1.1763388609,
				"y": 0.8314375738,
				"z": 0.4428811276,
				"element": "H" 
			},
			{
				"x": -0.1959238499,
				"y": -0.1436651473,
				"z": 0.9387391734,
				"element": "H" 
			},
			{
				"x": -0.9252139177,
				"y": 2.1599162454,
				"z": 0.4972113638,
				"element": "H" 
			},
			{
				"x": -1.6932260198,
				"y": 1.0534435149,
				"z": -0.6301262827,
				"element": "H" 
			},
			{
				"x": -0.2628033838,
				"y": 1.7779288413,
				"z": -2.3351576123,
				"element": "H" 
			},
			{
				"x": 0.6222769506,
				"y": 2.7100181973,
				"z": -1.326487452,
				"element": "H" 
			}
		],
		 "valence_orbital": [ 
			{
				"type": "occ",
				"energy": -0.35337,
				"method": "rhf"
			},
			{
				"type": "occ",
				"energy": -0.34012,
				"method": "rhf"
			},
			{
				"type": "occ",
				"energy": -0.30701,
				"method": "rhf"
			},
			{
				"type": "occ",
				"energy": -0.25353,
				"method": "rhf"
			},
			{
				"type": "occ",
				"energy": -0.22634,
				"method": "rhf"
			},
			{
				"type": "unocc",
				"energy": 0.0718,
				"method": "rhf"
			},
			{
				"type": "unocc",
				"energy": 0.10167,
				"method": "rhf"
			},
			{
				"type": "unocc",
				"energy": 0.12485,
				"method": "rhf"
			},
			{
				"type": "unocc",
				"energy": 0.13505,
				"method": "rhf"
			},
			{
				"type": "unocc",
				"energy": 0.13742,
				"method": "rhf"
			}
		],
		"cosmo_sigma_profile": { 
			"-0.025": 0.0,
			"-0.024": 0.0,
			"-0.023": 0.0,
			"-0.022": 0.0,
			"-0.021": 0.0,
			"-0.02": 0.0,
			"-0.019": 0.0,
			"-0.018": 0.0,
			"-0.017": 0.0,
			"-0.016": 0.0,
			"-0.015": 0.0,
			"-0.014": 0.0,
			"-0.013": 0.0,
			"-0.012": 0.0,
			"-0.011": 0.0,
			"-0.01": 0.106195469687,
			"-0.009": 1.35804990688,
			"-0.008": 2.30511682007,
			"-0.007": 2.10307531266,
			"-0.006": 3.77005925504,
			"-0.005": 4.36275795432,
			"-0.004": 9.35324102169,
			"-0.003": 24.2684754272,
			"-0.002": 27.1523881066,
			"-0.001": 19.9058892181,
			"0.0": 12.8125816035,
			"0.001": 6.91564714318,
			"0.002": 3.34072548421,
			"0.003": 3.52067726637,
			"0.004": 2.92353600063,
			"0.005": 2.04225023822,
			"0.006": 2.1275706636,
			"0.007": 2.57899222365,
			"0.008": 1.70889154007,
			"0.009": 0.850793424517,
			"0.01": 2.2985196639,
			"0.011": 2.74619655658,
			"0.012": 1.24738522462,
			"0.013": 1.93628052926,
			"0.014": 1.11565714868,
			"0.015": 1.0451185321,
			"0.016": 0.242919381613,
			"0.017": 0.864695536328,
			"0.018": 0.615880395812,
			"0.019": 0.587849311887,
			"0.02": 0.470086012372,
			"0.021": 0.0660458416018,
			"0.022": 0.0,
			"0.023": 0.0,
			"0.024": 0.0,
			"0.025": 0.0
		}
	}
}
