{
	 "smiles": "OC1=C2C=CC(=CC2=NC1=C1C=CC(C=C1)=C1N=C2C=C(C=CC2=C1O)[N+]([O-])=O)[N+]([O-])=O", 
	 "Tm": 633.15, 
	 "num_atms": 44, 
	 "gaussian": { 
		 "optdone": 1, 
		 "sigma_profile": "yes", 
		 "theory": "DFT", 
		 "functional": "B3LYP", 
		 "basiset": "6-31G**", 
		 "properties": { 
			 "R2extent": 28996.9496, 
			 "electric_dipole_moment_norm": 2.5436790167, 
			 "electric_quadrupole_moment_norm": 90.9982429045, 
			 "total_energy": -1515.63784251, 
			 "HOMO_LUMO_gap": 0.02539, 
			 "cosmo_polarized_energy": -32.48, 
			 "cosmo_cavitation_energy": 52.1, 
			 "cosmo_dispersion_energy": -38.16, 
			 "cosmo_repulsion_energy": 2.73, 
			 "cosmo_total_nonelectrostatic_energy": 16.66, 
			 "SMD_solvation_energy": 10.2 
		},
		"coords": [
			{
				"x": 1.3136559776,
				"y": -1.8948725611,
				"z": -3.3666415973,
				"element": "O" 
			},
			{
				"x": 1.4440596159,
				"y": -0.5635993539,
				"z": -3.2769536652,
				"element": "C" 
			},
			{
				"x": 1.9763138592,
				"y": 0.3342720786,
				"z": -4.2069725396,
				"element": "C" 
			},
			{
				"x": 2.5412771937,
				"y": 0.2174888842,
				"z": -5.5015174402,
				"element": "C" 
			},
			{
				"x": 2.9753361338,
				"y": 1.3586770955,
				"z": -6.1391086068,
				"element": "C" 
			},
			{
				"x": 2.8436676288,
				"y": 2.6093688547,
				"z": -5.4821951364,
				"element": "C" 
			},
			{
				"x": 2.2975438755,
				"y": 2.7714833828,
				"z": -4.2164658986,
				"element": "C" 
			},
			{
				"x": 1.8522720707,
				"y": 1.6188440265,
				"z": -3.5582277146,
				"element": "C" 
			},
			{
				"x": 1.2838988585,
				"y": 1.5393609256,
				"z": -2.3159043665,
				"element": "N" 
			},
			{
				"x": 1.024676485,
				"y": 0.240203699,
				"z": -2.110069975,
				"element": "C" 
			},
			{
				"x": 0.4193217682,
				"y": -0.2342385891,
				"z": -0.8968749025,
				"element": "C" 
			},
			{
				"x": 0.1239082658,
				"y": 0.7113774283,
				"z": 0.1230744236,
				"element": "C" 
			},
			{
				"x": -0.4759704766,
				"y": 0.3215649574,
				"z": 1.2990013255,
				"element": "C" 
			},
			{
				"x": -0.8234063996,
				"y": -1.0388898091,
				"z": 1.5324457357,
				"element": "C" 
			},
			{
				"x": -0.4842861198,
				"y": -1.9871895807,
				"z": 0.5322250438,
				"element": "C" 
			},
			{
				"x": 0.1091277097,
				"y": -1.5998078113,
				"z": -0.6487419321,
				"element": "C" 
			},
			{
				"x": -1.4738000016,
				"y": -1.4879471252,
				"z": 2.7331533065,
				"element": "C" 
			},
			{
				"x": -1.4648622474,
				"y": -2.7551056899,
				"z": 3.1447352666,
				"element": "N" 
			},
			{
				"x": -2.2005923569,
				"y": -2.7780079274,
				"z": 4.3118182931,
				"element": "C" 
			},
			{
				"x": -2.4601849065,
				"y": -3.8826380841,
				"z": 5.1247197897,
				"element": "C" 
			},
			{
				"x": -3.2392129041,
				"y": -3.6644185183,
				"z": 6.2573913647,
				"element": "C" 
			},
			{
				"x": -3.7750813922,
				"y": -2.4089208875,
				"z": 6.6264334154,
				"element": "C" 
			},
			{
				"x": -3.5233880512,
				"y": -1.3104502886,
				"z": 5.8274264834,
				"element": "C" 
			},
			{
				"x": -2.7308801608,
				"y": -1.4890728499,
				"z": 4.671768433,
				"element": "C" 
			},
			{
				"x": -2.2877366447,
				"y": -0.6438258866,
				"z": 3.6463673804,
				"element": "C" 
			},
			{
				"x": -2.6336632193,
				"y": 0.6356124473,
				"z": 3.517996581,
				"element": "O" 
			},
			{
				"x": -3.5292423565,
				"y": -4.8184461707,
				"z": 7.1278539057,
				"element": "N" 
			},
			{
				"x": -3.0666049413,
				"y": -5.9117637993,
				"z": 6.8032822407,
				"element": "O" 
			},
			{
				"x": -4.2179205316,
				"y": -4.6178035447,
				"z": 8.1288707646,
				"element": "O" 
			},
			{
				"x": 3.3171635148,
				"y": 3.808804718,
				"z": -6.1911222296,
				"element": "N" 
			},
			{
				"x": 3.2034069085,
				"y": 4.8951794014,
				"z": -5.6232008348,
				"element": "O" 
			},
			{
				"x": 3.8003932829,
				"y": 3.6532046207,
				"z": -7.3141380726,
				"element": "O" 
			},
			{
				"x": 1.6533704168,
				"y": -2.2041995623,
				"z": -4.2193836514,
				"element": "H" 
			},
			{
				"x": 2.6378913973,
				"y": -0.7460068382,
				"z": -5.9971692826,
				"element": "H" 
			},
			{
				"x": 3.4148878874,
				"y": 1.3346656584,
				"z": -7.126830628,
				"element": "H" 
			},
			{
				"x": 2.2236922146,
				"y": 3.7528561684,
				"z": -3.7663915069,
				"element": "H" 
			},
			{
				"x": 0.4067759531,
				"y": 1.7435992692,
				"z": -0.0483177865,
				"element": "H" 
			},
			{
				"x": -0.5869382341,
				"y": 1.062488187,
				"z": 2.087187938,
				"element": "H" 
			},
			{
				"x": -0.7265059582,
				"y": -3.0271778399,
				"z": 0.7198067567,
				"element": "H" 
			},
			{
				"x": 0.3336892496,
				"y": -2.3448819759,
				"z": -1.4007912465,
				"element": "H" 
			},
			{
				"x": -2.0829670009,
				"y": -4.869964899,
				"z": 4.8928736944,
				"element": "H" 
			},
			{
				"x": -4.3707270451,
				"y": -2.3410975662,
				"z": 7.5265412036,
				"element": "H" 
			},
			{
				"x": -3.9208410523,
				"y": -0.333855813,
				"z": 6.0845995288,
				"element": "H" 
			},
			{
				"x": -2.3379182671,
				"y": 0.978131169,
				"z": 2.6604461386,
				"element": "H" 
			}
		],
		 "valence_orbital": [ 
			{
				"type": "occ",
				"energy": -0.28382,
				"method": "rhf"
			},
			{
				"type": "occ",
				"energy": -0.28121,
				"method": "rhf"
			},
			{
				"type": "occ",
				"energy": -0.25436,
				"method": "rhf"
			},
			{
				"type": "occ",
				"energy": -0.22759,
				"method": "rhf"
			},
			{
				"type": "occ",
				"energy": -0.20013,
				"method": "rhf"
			},
			{
				"type": "unocc",
				"energy": -0.17474,
				"method": "rhf"
			},
			{
				"type": "unocc",
				"energy": -0.0952,
				"method": "rhf"
			},
			{
				"type": "unocc",
				"energy": -0.08092,
				"method": "rhf"
			},
			{
				"type": "unocc",
				"energy": -0.06253,
				"method": "rhf"
			},
			{
				"type": "unocc",
				"energy": -0.03647,
				"method": "rhf"
			}
		],
		"cosmo_sigma_profile": { 
			"-0.025": 0.0,
			"-0.024": 0.0,
			"-0.023": 0.0,
			"-0.022": 0.0,
			"-0.021": 0.0,
			"-0.02": 0.689365400159,
			"-0.019": 1.71579496703,
			"-0.018": 2.29376407842,
			"-0.017": 2.82032880526,
			"-0.016": 2.16118439352,
			"-0.015": 2.12452088792,
			"-0.014": 2.24707776317,
			"-0.013": 2.18794871598,
			"-0.012": 1.84050947556,
			"-0.011": 2.34478184257,
			"-0.01": 2.91297224287,
			"-0.009": 3.39459676365,
			"-0.008": 6.37945325415,
			"-0.007": 11.2862540682,
			"-0.006": 16.3708762637,
			"-0.005": 17.0448172365,
			"-0.004": 18.333411585,
			"-0.003": 21.513707823,
			"-0.002": 27.0161039169,
			"-0.001": 35.5223492937,
			"0.0": 45.3892138242,
			"0.001": 49.9447015395,
			"0.002": 31.5925010334,
			"0.003": 13.7021539046,
			"0.004": 12.5563658765,
			"0.005": 10.7696162974,
			"0.006": 11.9888432842,
			"0.007": 19.3870477889,
			"0.008": 18.7646644083,
			"0.009": 10.6290802112,
			"0.01": 9.10410948322,
			"0.011": 2.20743302803,
			"0.012": 1.80332448024,
			"0.013": 1.99506482698,
			"0.014": 1.67055415256,
			"0.015": 0.361935647199,
			"0.016": 0.14912147445,
			"0.017": 0.0,
			"0.018": 0.0,
			"0.019": 0.0,
			"0.02": 0.0,
			"0.021": 0.0,
			"0.022": 0.0,
			"0.023": 0.0,
			"0.024": 0.0,
			"0.025": 0.0
		}
	}
}
