{
	 "smiles": "N#CC12CCN(CC1)CC2", 
	 "Tm": 406.15, 
	 "num_atms": 22, 
	 "gaussian": { 
		 "optdone": 1, 
		 "sigma_profile": "yes", 
		 "theory": "DFT", 
		 "functional": "B3LYP", 
		 "basiset": "6-31G**", 
		 "properties": { 
			 "R2extent": 2128.2377, 
			 "electric_dipole_moment_norm": 3.33836882474, 
			 "electric_quadrupole_moment_norm": 20.0726825146, 
			 "total_energy": -421.55869539, 
			 "HOMO_LUMO_gap": 0.26513, 
			 "cosmo_polarized_energy": -9.77, 
			 "cosmo_cavitation_energy": 22.97, 
			 "cosmo_dispersion_energy": -16.95, 
			 "cosmo_repulsion_energy": 1.36, 
			 "cosmo_total_nonelectrostatic_energy": 7.38, 
			 "SMD_solvation_energy": 1.16 
		},
		"coords": [
			{
				"x": -0.5467866202,
				"y": -3.3330204622,
				"z": 2.1033524045,
				"element": "N" 
			},
			{
				"x": -0.8807172863,
				"y": -2.302277072,
				"z": 1.6845811486,
				"element": "C" 
			},
			{
				"x": -1.3021769221,
				"y": -1.0009073918,
				"z": 1.1557676743,
				"element": "C" 
			},
			{
				"x": -2.8359768418,
				"y": -0.988391829,
				"z": 0.9067935813,
				"element": "C" 
			},
			{
				"x": -3.2172933178,
				"y": 0.4193598766,
				"z": 0.3474676796,
				"element": "C" 
			},
			{
				"x": -2.0469038784,
				"y": 1.2992877894,
				"z": 0.2211271877,
				"element": "N" 
			},
			{
				"x": -1.4283204552,
				"y": 1.4837479184,
				"z": 1.5414590147,
				"element": "C" 
			},
			{
				"x": -0.9559226248,
				"y": 0.1307402839,
				"z": 2.1628538362,
				"element": "C" 
			},
			{
				"x": -1.0727750761,
				"y": 0.6899331068,
				"z": -0.6952757419,
				"element": "C" 
			},
			{
				"x": -0.5812924673,
				"y": -0.703435793,
				"z": -0.1882630788,
				"element": "C" 
			},
			{
				"x": -3.3589955705,
				"y": -1.2037203978,
				"z": 1.8441835627,
				"element": "H" 
			},
			{
				"x": -3.097130772,
				"y": -1.7850134508,
				"z": 0.2026564398,
				"element": "H" 
			},
			{
				"x": -3.6827222009,
				"y": 0.3303121058,
				"z": -0.6396568094,
				"element": "H" 
			},
			{
				"x": -3.9428825296,
				"y": 0.9123738908,
				"z": 1.0027754643,
				"element": "H" 
			},
			{
				"x": -2.1592656143,
				"y": 1.9741875704,
				"z": 2.1927293807,
				"element": "H" 
			},
			{
				"x": -0.5847739256,
				"y": 2.1725109663,
				"z": 1.4274121793,
				"element": "H" 
			},
			{
				"x": 0.1220411257,
				"y": 0.1308133659,
				"z": 2.3541919692,
				"element": "H" 
			},
			{
				"x": -1.4519564005,
				"y": -0.0677220698,
				"z": 3.1184595164,
				"element": "H" 
			},
			{
				"x": -1.5440179324,
				"y": 0.5992147346,
				"z": -1.6794854899,
				"element": "H" 
			},
			{
				"x": -0.2305997196,
				"y": 1.3813070993,
				"z": -0.8034954035,
				"element": "H" 
			},
			{
				"x": 0.5020851238,
				"y": -0.7146978585,
				"z": -0.0308388424,
				"element": "H" 
			},
			{
				"x": -0.809816094,
				"y": -1.4965023832,
				"z": -0.9075956735,
				"element": "H" 
			}
		],
		 "valence_orbital": [ 
			{
				"type": "occ",
				"energy": -0.33754,
				"method": "rhf"
			},
			{
				"type": "occ",
				"energy": -0.33754,
				"method": "rhf"
			},
			{
				"type": "occ",
				"energy": -0.30603,
				"method": "rhf"
			},
			{
				"type": "occ",
				"energy": -0.30603,
				"method": "rhf"
			},
			{
				"type": "occ",
				"energy": -0.22409,
				"method": "rhf"
			},
			{
				"type": "unocc",
				"energy": 0.04104,
				"method": "rhf"
			},
			{
				"type": "unocc",
				"energy": 0.04104,
				"method": "rhf"
			},
			{
				"type": "unocc",
				"energy": 0.05029,
				"method": "rhf"
			},
			{
				"type": "unocc",
				"energy": 0.0914,
				"method": "rhf"
			},
			{
				"type": "unocc",
				"energy": 0.0914,
				"method": "rhf"
			}
		],
		"cosmo_sigma_profile": { 
			"-0.025": 0.0,
			"-0.024": 0.0,
			"-0.023": 0.0,
			"-0.022": 0.0,
			"-0.021": 0.0,
			"-0.02": 0.0,
			"-0.019": 0.0,
			"-0.018": 0.0,
			"-0.017": 0.0,
			"-0.016": 0.0,
			"-0.015": 0.0,
			"-0.014": 0.0,
			"-0.013": 0.0,
			"-0.012": 0.0,
			"-0.011": 0.0,
			"-0.01": 0.0,
			"-0.009": 0.0,
			"-0.008": 0.0,
			"-0.007": 0.0,
			"-0.006": 0.00766809106544,
			"-0.005": 7.21065342759,
			"-0.004": 44.0133824693,
			"-0.003": 29.5721851891,
			"-0.002": 21.0076008429,
			"-0.001": 21.7242060611,
			"0.0": 7.44510539704,
			"0.001": 3.83911043725,
			"0.002": 4.31168873494,
			"0.003": 2.4880984899,
			"0.004": 2.75962423553,
			"0.005": 2.1816088711,
			"0.006": 2.83983357755,
			"0.007": 3.69874341366,
			"0.008": 4.24659271104,
			"0.009": 4.52603309672,
			"0.01": 3.68319442237,
			"0.011": 4.32930291699,
			"0.012": 3.36951835429,
			"0.013": 2.90972880949,
			"0.014": 1.21208926602,
			"0.015": 0.436144811916,
			"0.016": 0.713947375856,
			"0.017": 0.338030431355,
			"0.018": 0.0,
			"0.019": 0.0,
			"0.02": 0.0,
			"0.021": 0.0,
			"0.022": 0.0,
			"0.023": 0.0,
			"0.024": 0.0,
			"0.025": 0.0
		}
	}
}
